/*--------------------------------*- C++ -*----------------------------------*\
| =========                 |                                                 |
| \\      /  F ield         | OpenFOAM: The Open Source CFD Toolbox           |
|  \\    /   O peration     | Version:  2.2.x                                 |
|   \\  /    A nd           | Web:      www.OpenFOAM.org                      |
|    \\/     M anipulation  |                                                 |
\*---------------------------------------------------------------------------*/
FoamFile
{
    version     2.0;
    format      ascii;
    class       volScalarField;
    location    "0.08";
    object      T;
}
// * * * * * * * * * * * * * * * * * * * * * * * * * * * * * * * * * * * * * //

dimensions      [0 0 0 1 0 0 0];

internalField   nonuniform List<scalar> 
1024
(
0.4
0.4
0.4
0.4
0.4
0.4
0.4
0.4
0.4
0.4
0.4
0.4
0.4
0.4
0.4
0.4
0.4
0.4
0.4
0.4
0.4
0.4
0.4
0.4
0.4
0.4
0.4
0.4
0.4
0.4
0.4
0.4
0.4
0.4
0.4
0.4
0.4
0.4
0.4
0.4
0.4
0.4
0.4
0.4
0.4
0.4
0.4
0.4
0.4
0.4
0.4
0.4
0.4
0.4
0.4
0.4
0.4
0.4
0.4
0.4
0.4
0.4
0.4
0.4
0.4
0.4
0.4
0.4
0.4
0.4
0.4
0.4
0.4
0.4
0.4
0.4
0.4
0.4
0.4
0.4
0.4
0.4
0.4
0.4
0.4
0.4
0.4
0.4
0.4
0.4
0.4
0.4
0.4
0.4
0.4
0.4
0.4
0.4
0.4
0.4
0.4
0.4
0.4
0.4
0.4
0.4
0.4
0.4
0.4
0.4
0.4
0.4
0.4
0.4
0.4
0.4
0.4
0.4
0.4
0.4
0.4
0.4
0.4
0.4
0.4
0.4
0.4
0.4
0.4
0.4
0.4
0.4
0.4
0.4
0.4
0.4
0.4
0.4
0.4
0.4
0.4
0.4
0.4
0.4
0.4
0.4
0.4
0.4
0.4
0.4
0.4
0.4
0.4
0.4
0.4
0.4
0.4
0.4
0.4
0.4
0.4
0.4
0.4
0.4
0.4
0.4
0.4
0.4
0.4
0.4
0.4
0.4
0.4
0.4
0.4
0.4
0.4
0.4
0.4
0.4
0.4
0.4
0.4
0.4
0.4
0.4
0.4
0.4
0.4
0.4
0.4
0.4
0.4
0.399999
0.399999
0.399998
0.399998
0.399996
0.399994
0.399991
0.399986
0.399979
0.399968
0.399953
0.399932
0.399902
0.399861
0.399805
0.399732
0.399636
0.399512
0.399357
0.399164
0.398931
0.398653
0.398328
0.397954
0.397532
0.397061
0.396541
0.395966
0.395333
0.394717
0.394134
0.393568
0.393013
0.392469
0.391928
0.391395
0.390862
0.390333
0.389805
0.389277
0.38875
0.388223
0.387696
0.387171
0.386649
0.386128
0.385612
0.385096
0.384593
0.384095
0.383607
0.383139
0.382673
0.382245
0.381829
0.381434
0.381081
0.380737
0.380464
0.380212
0.379965
0.379808
0.379665
0.37954
0.379465
0.379395
0.379363
0.379351
0.379337
0.379334
0.37934
0.379351
0.379376
0.379433
0.379541
0.379719
0.379946
0.380127
0.380288
0.380376
0.380458
0.380534
0.380557
0.38058
0.380613
0.380621
0.380621
0.380626
0.380633
0.380635
0.380634
0.380633
0.380635
0.380634
0.38063
0.380621
0.380608
0.380585
0.380548
0.38049
0.380419
0.380365
0.38032
0.380294
0.380272
0.380265
0.380262
0.380259
0.38026
0.380268
0.380286
0.380319
0.380352
0.380379
0.380393
0.380405
0.380407
0.380407
0.380407
0.380404
0.380395
0.380379
0.380364
0.380357
0.380351
0.380349
0.38035
0.38035
0.380352
0.380356
0.380359
0.380361
0.380361
0.380361
0.380358
0.380352
0.38034
0.380321
0.380307
0.380296
0.38029
0.380286
0.380286
0.380286
0.380286
0.380288
0.380291
0.380293
0.380293
0.380292
0.38029
0.380284
0.380271
0.380248
0.380223
0.380206
0.380191
0.380188
0.380186
0.380184
0.380185
0.38019
0.3802
0.380214
0.380224
0.380231
0.380232
0.380233
0.380233
0.38023
0.380223
0.380211
0.380204
0.380198
0.380197
0.380196
0.380196
0.380198
0.380205
0.380218
0.380231
0.380238
0.380243
0.380244
0.380244
0.380242
0.380236
0.380223
0.380209
0.3802
0.380196
0.380194
0.380194
0.380196
0.380201
0.380206
0.380208
0.380207
0.380206
0.380204
0.380213
0.380266
0.380481
0.38131
0.384526
0.396928
0.440684
0.557333
0.738524
0.859629
0.909206
0.92327
0.927891
0.929436
0.929984
0.930197
0.930282
0.930321
0.930314
0.930309
0.930303
0.930296
0.930287
0.930302
0.930291
0.930215
0.93008
0.929927
0.929778
0.929659
0.929515
0.929379
0.929283
0.929238
0.929234
0.929265
0.929319
0.929406
0.929516
0.929648
0.929831
0.930104
0.930493
0.931018
0.93181
0.932723
0.933487
0.933998
0.934227
0.93436
0.934401
0.934116
0.933292
0.931627
0.928678
0.923864
0.916459
0.905591
0.890286
0.869556
0.842521
0.808593
0.767684
0.720379
0.667992
0.612387
0.558239
0.515301
0.483843
0.460765
0.443822
0.431396
0.422302
0.415667
0.410829
0.407285
0.404679
0.402756
0.401326
0.400253
0.399419
0.398733
0.398133
0.397588
0.3971
0.396682
0.396336
0.396047
0.395819
0.395631
0.395459
0.395314
0.395204
0.395102
0.395018
0.39495
0.394912
0.394892
0.394857
0.394734
0.394526
0.394276
0.393976
0.393729
0.393563
0.39349
0.393369
0.393223
0.393082
0.392834
0.392649
0.392569
0.392582
0.39277
0.392928
0.393003
0.392948
0.39269
0.392759
0.393192
0.393912
0.395113
0.396402
0.397893
0.399416
0.400762
0.402685
0.405116
0.40801
0.411519
0.414884
0.418203
0.420985
0.42309
0.425868
0.429884
0.434402
0.438844
0.443162
0.447571
0.450239
0.458047
0.455149
0.437376
0.409831
0.387796
0.377915
0.374699
0.373748
0.373269
0.373004
0.372878
0.372846
0.37285
0.372865
0.372864
0.372841
0.372793
0.372708
0.372549
0.372344
0.372159
0.372013
0.371864
0.371687
0.371443
0.371107
0.37059
0.369835
0.369104
0.36876
0.368681
0.368713
0.368828
0.369144
0.36972
0.370488
0.3715
0.372732
0.374065
0.375536
0.377062
0.378604
0.380186
0.381759
0.383324
0.384874
0.386408
0.387924
0.389434
0.390938
0.392442
0.393946
0.395449
0.396955
0.398463
0.399972
0.401484
0.403001
0.40452
0.40604
0.407566
0.409096
0.410626
0.41216
0.413699
0.415238
0.41678
0.418327
0.419874
0.421423
0.422977
0.424533
0.426089
0.427649
0.429213
0.430776
0.432343
0.433915
0.435486
0.43706
0.438639
0.440217
0.4418
0.443386
0.444972
0.446562
0.448155
0.449748
0.451347
0.452947
0.454548
0.456154
0.45776
0.45937
0.460984
0.462598
0.464217
0.465837
0.467459
0.469086
0.470713
0.472344
0.473979
0.475613
0.477253
0.478893
0.480537
0.482193
0.483839
0.485439
0.486996
0.488506
0.48996
0.491345
0.492647
0.493853
0.49495
0.495927
0.496778
0.497503
0.498104
0.498591
0.498975
0.499269
0.49949
0.499651
0.499766
0.499846
0.499901
0.499937
0.499961
0.499976
0.499985
0.499991
0.499995
0.499997
0.499998
0.499999
0.499999
0.5
0.5
0.5
0.5
0.5
0.5
0.5
0.5
0.5
0.5
0.5
0.5
0.5
0.5
0.5
0.5
0.5
0.5
0.5
0.5
0.5
0.5
0.5
0.5
0.5
0.5
0.5
0.5
0.5
0.5
0.5
0.5
0.5
0.5
0.5
0.5
0.5
0.5
0.5
0.5
0.5
0.5
0.5
0.5
0.5
0.5
0.5
0.5
0.5
0.5
0.5
0.5
0.5
0.5
0.5
0.5
0.5
0.5
0.5
0.5
0.5
0.5
0.5
0.5
0.5
0.5
0.5
0.5
0.5
0.5
0.5
0.5
0.5
0.5
0.5
0.5
0.5
0.5
0.5
0.5
0.5
0.5
0.5
0.5
0.5
0.5
0.5
0.5
0.5
0.5
0.5
0.5
0.5
0.5
0.5
0.5
0.5
0.5
0.5
0.5
0.5
0.5
0.5
0.5
0.5
0.5
0.5
0.5
0.5
0.5
0.5
0.5
0.5
0.5
0.5
0.5
0.5
0.5
0.5
0.5
0.5
0.5
0.5
0.5
0.5
0.5
0.5
0.5
0.5
0.5
0.5
0.5
0.5
0.5
0.5
0.5
0.5
0.5
0.5
0.5
0.5
0.5
0.5
0.5
0.5
0.5
0.5
0.5
0.5
0.5
0.5
0.5
0.5
0.5
0.5
0.5
0.5
0.5
0.5
0.5
0.5
0.5
0.5
0.5
0.5
0.5
0.5
0.5
0.5
0.5
0.5
0.5
0.5
0.5
0.5
0.5
0.5
0.5
0.5
0.5
0.5
0.5
0.5
0.5
0.5
0.5
0.5
0.5
0.5
0.5
0.5
0.5
0.5
0.5
0.5
0.5
0.5
0.5
0.5
0.5
0.5
0.5
0.5
0.5
0.5
0.5
0.5
0.5
0.5
0.5
0.5
0.5
0.5
0.5
0.5
0.5
0.5
0.5
0.5
0.5
0.5
0.5
0.5
0.5
0.5
0.5
0.5
0.5
0.5
0.5
0.5
0.5
0.5
0.5
0.5
0.5
0.5
0.5
0.5
0.5
0.5
0.5
0.5
0.5
0.5
0.5
0.5
0.5
0.5
0.5
0.5
0.5
0.5
0.5
0.5
0.5
0.5
0.5
0.5
0.5
0.5
0.5
0.5
0.5
0.5
0.5
0.5
0.5
0.5
0.5
0.5
0.5
0.5
0.5
0.5
0.5
0.5
0.5
0.5
0.5
0.5
0.5
0.5
0.5
0.5
0.5
0.5
0.5
0.5
0.5
0.5
0.5
0.5
0.5
0.5
0.5
0.5
0.5
0.5
0.5
0.5
0.5
0.5
0.5
0.5
0.5
0.5
0.5
0.5
0.5
0.5
0.5
0.5
0.5
0.5
0.5
0.5
0.5
0.5
0.5
0.5
0.5
0.5
0.5
0.5
0.5
0.5
0.5
0.5
0.5
0.5
0.5
0.5
0.5
0.5
0.5
0.5
0.5
0.5
0.5
0.5
0.5
0.5
0.5
0.5
0.5
0.5
0.5
0.5
0.5
0.5
)
;

boundaryField
{
    front-back
    {
        type            empty;
    }
    inlet-outlet
    {
        type            zeroGradient;
    }
    top-down
    {
        type            empty;
    }
}


// ************************************************************************* //
