/*--------------------------------*- C++ -*----------------------------------*\
| =========                 |                                                 |
| \\      /  F ield         | OpenFOAM: The Open Source CFD Toolbox           |
|  \\    /   O peration     | Version:  2.2.x                                 |
|   \\  /    A nd           | Web:      www.OpenFOAM.org                      |
|    \\/     M anipulation  |                                                 |
\*---------------------------------------------------------------------------*/
FoamFile
{
    version     2.0;
    format      ascii;
    class       volVectorField;
    location    "0.08";
    object      U;
}
// * * * * * * * * * * * * * * * * * * * * * * * * * * * * * * * * * * * * * //

dimensions      [0 1 -1 0 0 0 0];

internalField   nonuniform List<vector> 
1024
(
(0 0 0)
(0 0 0)
(0 0 0)
(0 0 0)
(0 0 0)
(0 0 0)
(0 0 0)
(0 0 0)
(0 0 0)
(0 0 0)
(0 0 0)
(0 0 0)
(0 0 0)
(0 0 0)
(0 0 0)
(0 0 0)
(0 0 0)
(0 0 0)
(0 0 0)
(0 0 0)
(0 0 0)
(0 0 0)
(0 0 0)
(0 0 0)
(0 0 0)
(0 0 0)
(0 0 0)
(0 0 0)
(0 0 0)
(0 0 0)
(0 0 0)
(0 0 0)
(0 0 0)
(0 0 0)
(0 0 0)
(0 0 0)
(0 0 0)
(0 0 0)
(0 0 0)
(0 0 0)
(0 0 0)
(0 0 0)
(0 0 0)
(0 0 0)
(0 0 0)
(0 0 0)
(0 0 0)
(0 0 0)
(0 0 0)
(0 0 0)
(0 0 0)
(0 0 0)
(0 0 0)
(0 0 0)
(0 0 0)
(0 0 0)
(0 0 0)
(0 0 0)
(0 0 0)
(0 0 0)
(0 0 0)
(0 0 0)
(0 0 0)
(0 0 0)
(0 0 0)
(0 0 0)
(0 0 0)
(0 0 0)
(0 0 0)
(0 0 0)
(0 0 0)
(0 0 0)
(0 0 0)
(0 0 0)
(0 0 0)
(0 0 0)
(0 0 0)
(0 0 0)
(0 0 0)
(0 0 0)
(0 0 0)
(0 0 0)
(0 0 0)
(0 0 0)
(0 0 0)
(0 0 0)
(0 0 0)
(0 0 0)
(0 0 0)
(0 0 0)
(0 0 0)
(0 0 0)
(0 0 0)
(0 0 0)
(0 0 0)
(0 0 0)
(0 0 0)
(0 0 0)
(0 0 0)
(0 0 0)
(0 0 0)
(0 0 0)
(0 0 0)
(0 0 0)
(0 0 0)
(0 0 0)
(0 0 0)
(0 0 0)
(0 0 0)
(0 0 0)
(0 0 0)
(0 0 0)
(0 0 0)
(0 0 0)
(0 0 0)
(0 0 0)
(0 0 0)
(0 0 0)
(0 0 0)
(0 0 0)
(0 0 0)
(0 0 0)
(0 0 0)
(0 0 0)
(0 0 0)
(0 0 0)
(0 0 0)
(0 0 0)
(0 0 0)
(0 0 0)
(0 0 0)
(0 0 0)
(0 0 0)
(0 0 0)
(0 0 0)
(0 0 0)
(0 0 0)
(0 0 0)
(0 0 0)
(0 0 0)
(0 0 0)
(0 0 0)
(0 0 0)
(0 0 0)
(0 0 0)
(0 0 0)
(0 0 0)
(0 0 0)
(0 0 0)
(0 0 0)
(0 0 0)
(0 0 0)
(0 0 0)
(0 0 0)
(0 0 0)
(0 0 0)
(0 0 0)
(-1.45519e-16 -9.70128e-17 0)
(-1.30967e-15 -9.70128e-16 0)
(-5.60249e-15 -4.24431e-15 0)
(-1.39698e-14 -1.01863e-14 0)
(-3.08016e-14 -2.127e-14 0)
(-6.31553e-14 -4.34617e-14 0)
(-1.26335e-13 -8.5444e-14 0)
(-2.50293e-13 -1.69506e-13 0)
(-4.96633e-13 -3.35567e-13 0)
(-9.79441e-13 -6.62694e-13 0)
(-1.92478e-12 -1.30007e-12 0)
(-3.76645e-12 -2.54256e-12 0)
(-7.33346e-12 -4.95253e-12 0)
(-1.41927e-11 -9.58345e-12 0)
(-2.72919e-11 -1.84298e-11 0)
(-5.21535e-11 -3.52201e-11 0)
(-9.90267e-11 -6.6874e-11 0)
(-1.8682e-10 -1.26159e-10 0)
(-3.50139e-10 -2.36447e-10 0)
(-6.51871e-10 -4.40205e-10 0)
(-1.20545e-09 -8.14028e-10 0)
(-2.21392e-09 -1.49503e-09 0)
(-4.03792e-09 -2.72677e-09 0)
(-7.31301e-09 -4.93841e-09 0)
(-1.31502e-08 -8.8802e-09 0)
(-2.34757e-08 -1.58529e-08 0)
(-4.16012e-08 -2.80929e-08 0)
(-7.31715e-08 -4.9412e-08 0)
(-1.27724e-07 -8.62508e-08 0)
(-2.21229e-07 -1.49393e-07 0)
(-3.80178e-07 -2.5673e-07 0)
(-6.48106e-07 -4.37659e-07 0)
(-1.09585e-06 -7.40017e-07 0)
(-1.83752e-06 -1.24086e-06 0)
(-3.05499e-06 -2.06301e-06 0)
(-5.03508e-06 -3.40014e-06 0)
(-8.22497e-06 -5.55425e-06 0)
(-1.33138e-05 -8.9907e-06 0)
(-2.13505e-05 -1.44179e-05 0)
(-3.39118e-05 -2.29005e-05 0)
(-5.33351e-05 -3.60171e-05 0)
(-8.30373e-05 -5.60754e-05 0)
(-0.000127938 -8.6398e-05 0)
(-0.000195008 -0.000131693 0)
(-0.000293953 -0.000198518 0)
(-0.000438044 -0.000295837 0)
(-0.000645061 -0.000435668 0)
(-0.000938311 -0.000633768 0)
(-0.00134763 -0.00091032 0)
(-0.00191022 -0.00129051 0)
(-0.00267114 -0.00180487 0)
(-0.0036832 -0.00248925 0)
(-0.00500609 -0.00338427 0)
(-0.0067045 -0.00453407 0)
(-0.00884521 -0.00598444 0)
(-0.0114932 -0.00778027 0)
(-0.0147073 -0.00996264 0)
(-0.018536 -0.012566 0)
(-0.0230138 -0.0156158 0)
(-0.0281598 -0.0191275 0)
(-0.0339791 -0.0231073 0)
(-0.0404678 -0.0275561 0)
(-0.0476239 -0.0324758 0)
(-0.0554636 -0.0378802 0)
(-0.0639367 -0.0437345 0)
(-0.0722562 -0.0495055 0)
(-0.0802597 -0.0550789 0)
(-0.08805 -0.0605231 0)
(-0.0956475 -0.0658479 0)
(-0.103164 -0.0711353 0)
(-0.110542 -0.076337 0)
(-0.117912 -0.0815561 0)
(-0.125205 -0.0867277 0)
(-0.132488 -0.091918 0)
(-0.139761 -0.0971084 0)
(-0.147011 -0.102306 0)
(-0.154267 -0.107516 0)
(-0.161517 -0.112747 0)
(-0.168759 -0.11798 0)
(-0.175988 -0.123229 0)
(-0.183213 -0.128483 0)
(-0.190376 -0.133715 0)
(-0.197545 -0.138965 0)
(-0.204586 -0.144135 0)
(-0.211609 -0.149315 0)
(-0.218463 -0.154376 0)
(-0.225167 -0.159351 0)
(-0.231792 -0.16428 0)
(-0.238 -0.168899 0)
(-0.244187 -0.173549 0)
(-0.249901 -0.177811 0)
(-0.255236 -0.18184 0)
(-0.260406 -0.185729 0)
(-0.264713 -0.188971 0)
(-0.268935 -0.1922 0)
(-0.272491 -0.194861 0)
(-0.275345 -0.197041 0)
(-0.278124 -0.199159 0)
(-0.279975 -0.20055 0)
(-0.281553 -0.201772 0)
(-0.282884 -0.202769 0)
(-0.283503 -0.203243 0)
(-0.284068 -0.203682 0)
(-0.284444 -0.203957 0)
(-0.284479 -0.203988 0)
(-0.284525 -0.204026 0)
(-0.284542 -0.204037 0)
(-0.284432 -0.203949 0)
(-0.284048 -0.203656 0)
(-0.283224 -0.203024 0)
(-0.281737 -0.201886 0)
(-0.279285 -0.200013 0)
(-0.276156 -0.197643 0)
(-0.273467 -0.195588 0)
(-0.27166 -0.19425 0)
(-0.269978 -0.192932 0)
(-0.268962 -0.192213 0)
(-0.268279 -0.191665 0)
(-0.26758 -0.191151 0)
(-0.267212 -0.190866 0)
(-0.267043 -0.190742 0)
(-0.266832 -0.190577 0)
(-0.266661 -0.190453 0)
(-0.266605 -0.190408 0)
(-0.266602 -0.190405 0)
(-0.266552 -0.190365 0)
(-0.266498 -0.190325 0)
(-0.266488 -0.190319 0)
(-0.266511 -0.190336 0)
(-0.266538 -0.190357 0)
(-0.266581 -0.190389 0)
(-0.266676 -0.190461 0)
(-0.266863 -0.190604 0)
(-0.26719 -0.190851 0)
(-0.267711 -0.191246 0)
(-0.268514 -0.191856 0)
(-0.269476 -0.192582 0)
(-0.270277 -0.193192 0)
(-0.270811 -0.193588 0)
(-0.271267 -0.193944 0)
(-0.271458 -0.194075 0)
(-0.271614 -0.194203 0)
(-0.271698 -0.19426 0)
(-0.271685 -0.194251 0)
(-0.271659 -0.194232 0)
(-0.271569 -0.194162 0)
(-0.271335 -0.193983 0)
(-0.270871 -0.193631 0)
(-0.270369 -0.19325 0)
(-0.270052 -0.193015 0)
(-0.269798 -0.192817 0)
(-0.26971 -0.192759 0)
(-0.269636 -0.192697 0)
(-0.26961 -0.192681 0)
(-0.269622 -0.19269 0)
(-0.269671 -0.192727 0)
(-0.269798 -0.192825 0)
(-0.270019 -0.192992 0)
(-0.27019 -0.193119 0)
(-0.270331 -0.193228 0)
(-0.270376 -0.193259 0)
(-0.270406 -0.193284 0)
(-0.270427 -0.193298 0)
(-0.270421 -0.193292 0)
(-0.270388 -0.193267 0)
(-0.270325 -0.193219 0)
(-0.270285 -0.193189 0)
(-0.270265 -0.193174 0)
(-0.270253 -0.193165 0)
(-0.270259 -0.19317 0)
(-0.270292 -0.193194 0)
(-0.270376 -0.193258 0)
(-0.270548 -0.193389 0)
(-0.270802 -0.193581 0)
(-0.27101 -0.193739 0)
(-0.271138 -0.193834 0)
(-0.271233 -0.193908 0)
(-0.271258 -0.193923 0)
(-0.271281 -0.193942 0)
(-0.271287 -0.193945 0)
(-0.271277 -0.193938 0)
(-0.27124 -0.19391 0)
(-0.2712 -0.193879 0)
(-0.271191 -0.193872 0)
(-0.271181 -0.193864 0)
(-0.271185 -0.193867 0)
(-0.271213 -0.193889 0)
(-0.271295 -0.193951 0)
(-0.271469 -0.194084 0)
(-0.271787 -0.194326 0)
(-0.272127 -0.194583 0)
(-0.272389 -0.194784 0)
(-0.272512 -0.194872 0)
(-0.272624 -0.194963 0)
(-0.27265 -0.194978 0)
(-0.272654 -0.194983 0)
(-0.272646 -0.194977 0)
(-0.272593 -0.194936 0)
(-0.272446 -0.194824 0)
(-0.272245 -0.194672 0)
(-0.272101 -0.194563 0)
(-0.272038 -0.194518 0)
(-0.271987 -0.194477 0)
(-0.271985 -0.194478 0)
(-0.27199 -0.194481 0)
(-0.272025 -0.194507 0)
(-0.272123 -0.194582 0)
(-0.272275 -0.194696 0)
(-0.272392 -0.194786 0)
(-0.272444 -0.194823 0)
(-0.272482 -0.194853 0)
(-0.272488 -0.194856 0)
(-0.272483 -0.194852 0)
(-0.27245 -0.194826 0)
(-0.272357 -0.194755 0)
(-0.272174 -0.194615 0)
(-0.272002 -0.194485 0)
(-0.271886 -0.194396 0)
(-0.271836 -0.194358 0)
(-0.271811 -0.194338 0)
(-0.271809 -0.194337 0)
(-0.271831 -0.194353 0)
(-0.271914 -0.194417 0)
(-0.272102 -0.194559 0)
(-0.272297 -0.194706 0)
(-0.272416 -0.194796 0)
(-0.272479 -0.194845 0)
(-0.272497 -0.194858 0)
(-0.272499 -0.19486 0)
(-0.272477 -0.194843 0)
(-0.272408 -0.194792 0)
(-0.272345 -0.194746 0)
(-0.272313 -0.194721 0)
(-0.272301 -0.194709 0)
(-0.272298 -0.19471 0)
(-0.2723 -0.194732 0)
(-0.272312 -0.194823 0)
(-0.272248 -0.195092 0)
(-0.271779 -0.195896 0)
(-0.2699 -0.19862 0)
(-0.2631 -0.208102 0)
(-0.239473 -0.240167 0)
(-0.165858 -0.340055 0)
(0.0155384 -0.594683 0)
(0.320266 -1.04571 0)
(0.525149 -1.38561 0)
(0.614098 -1.5345 0)
(0.641825 -1.5859 0)
(0.651065 -1.60315 0)
(0.654267 -1.60876 0)
(0.655275 -1.61058 0)
(0.655557 -1.61117 0)
(0.655607 -1.61135 0)
(0.65555 -1.61146 0)
(0.655424 -1.6115 0)
(0.655335 -1.61152 0)
(0.655293 -1.61153 0)
(0.655284 -1.61153 0)
(0.65531 -1.61153 0)
(0.655457 -1.61148 0)
(0.65562 -1.61138 0)
(0.655711 -1.61124 0)
(0.655757 -1.61112 0)
(0.655749 -1.61099 0)
(0.655705 -1.61089 0)
(0.655635 -1.61083 0)
(0.655504 -1.61077 0)
(0.6554 -1.61066 0)
(0.65535 -1.61056 0)
(0.655352 -1.61046 0)
(0.655388 -1.61035 0)
(0.655459 -1.61024 0)
(0.655564 -1.6101 0)
(0.655645 -1.60992 0)
(0.655647 -1.60976 0)
(0.655547 -1.60963 0)
(0.655389 -1.60952 0)
(0.655219 -1.60944 0)
(0.655037 -1.60939 0)
(0.654844 -1.60938 0)
(0.654727 -1.60941 0)
(0.654695 -1.60946 0)
(0.654714 -1.60951 0)
(0.654767 -1.60956 0)
(0.65484 -1.60959 0)
(0.655028 -1.60958 0)
(0.655246 -1.60964 0)
(0.655319 -1.60976 0)
(0.655333 -1.60988 0)
(0.655343 -1.60998 0)
(0.655305 -1.61008 0)
(0.655225 -1.61021 0)
(0.655134 -1.61031 0)
(0.655068 -1.61035 0)
(0.655014 -1.61035 0)
(0.655005 -1.6103 0)
(0.655048 -1.61019 0)
(0.655125 -1.61004 0)
(0.655193 -1.60987 0)
(0.655184 -1.60976 0)
(0.655128 -1.6097 0)
(0.655043 -1.60967 0)
(0.654915 -1.60963 0)
(0.654764 -1.60959 0)
(0.654653 -1.60955 0)
(0.654595 -1.6095 0)
(0.654596 -1.60944 0)
(0.654647 -1.60936 0)
(0.654707 -1.6093 0)
(0.654724 -1.60929 0)
(0.654683 -1.60931 0)
(0.654588 -1.60934 0)
(0.654463 -1.60938 0)
(0.654397 -1.60938 0)
(0.654424 -1.60935 0)
(0.654522 -1.60928 0)
(0.654665 -1.60918 0)
(0.654767 -1.60909 0)
(0.65478 -1.60906 0)
(0.654708 -1.60907 0)
(0.654593 -1.60911 0)
(0.654531 -1.60915 0)
(0.654519 -1.60917 0)
(0.654596 -1.60915 0)
(0.654735 -1.6091 0)
(0.654833 -1.60908 0)
(0.654829 -1.60913 0)
(0.654769 -1.60922 0)
(0.654654 -1.60936 0)
(0.654516 -1.60946 0)
(0.654475 -1.60951 0)
(0.654578 -1.60954 0)
(0.654836 -1.60948 0)
(0.655186 -1.60939 0)
(0.65536 -1.60938 0)
(0.655337 -1.60952 0)
(0.655025 -1.60981 0)
(0.654687 -1.61009 0)
(0.65459 -1.61031 0)
(0.654745 -1.6104 0)
(0.655148 -1.6103 0)
(0.65572 -1.61013 0)
(0.655975 -1.61022 0)
(0.656042 -1.6104 0)
(0.65577 -1.6107 0)
(0.655154 -1.6111 0)
(0.654864 -1.61126 0)
(0.654887 -1.61129 0)
(0.655207 -1.61122 0)
(0.656176 -1.611 0)
(0.65682 -1.61061 0)
(0.656825 -1.60997 0)
(0.655977 -1.60931 0)
(0.654229 -1.60843 0)
(0.652395 -1.60738 0)
(0.650883 -1.60538 0)
(0.649593 -1.6023 0)
(0.648846 -1.59747 0)
(0.64712 -1.59012 0)
(0.643597 -1.58109 0)
(0.637832 -1.57137 0)
(0.629464 -1.56105 0)
(0.621132 -1.54936 0)
(0.614157 -1.53498 0)
(0.607842 -1.51833 0)
(0.602166 -1.49972 0)
(0.59627 -1.47986 0)
(0.58882 -1.46028 0)
(0.577887 -1.44146 0)
(0.565436 -1.42001 0)
(0.554123 -1.39682 0)
(0.544736 -1.371 0)
(0.537473 -1.34116 0)
(0.530402 -1.30533 0)
(0.519023 -1.26171 0)
(0.500301 -1.21807 0)
(0.490745 -1.15561 0)
(0.458423 -1.06882 0)
(0.477772 -0.926902 0)
(0.517483 -0.710165 0)
(0.57669 -0.480065 0)
(0.64228 -0.358885 0)
(0.670348 -0.308887 0)
(0.67951 -0.290546 0)
(0.682038 -0.284094 0)
(0.683793 -0.28216 0)
(0.684982 -0.281806 0)
(0.685612 -0.281873 0)
(0.685779 -0.281899 0)
(0.685772 -0.281883 0)
(0.685699 -0.281836 0)
(0.68569 -0.281818 0)
(0.685735 -0.281831 0)
(0.686004 -0.281929 0)
(0.686643 -0.282282 0)
(0.687477 -0.28274 0)
(0.688592 -0.283326 0)
(0.689619 -0.283909 0)
(0.690504 -0.284398 0)
(0.691428 -0.284879 0)
(0.69243 -0.285432 0)
(0.69367 -0.286076 0)
(0.695704 -0.287128 0)
(0.698743 -0.288829 0)
(0.70299 -0.291015 0)
(0.707158 -0.293354 0)
(0.709139 -0.294514 0)
(0.709615 -0.294858 0)
(0.709511 -0.294856 0)
(0.708616 -0.294458 0)
(0.706735 -0.293351 0)
(0.703843 -0.291807 0)
(0.699099 -0.289268 0)
(0.69324 -0.285877 0)
(0.686513 -0.282328 0)
(0.678551 -0.277956 0)
(0.670338 -0.273507 0)
(0.661676 -0.268952 0)
(0.652809 -0.264236 0)
(0.643941 -0.259644 0)
(0.635044 -0.255043 0)
(0.626213 -0.250533 0)
(0.61747 -0.246095 0)
(0.608812 -0.241735 0)
(0.600244 -0.237451 0)
(0.591738 -0.233233 0)
(0.583273 -0.22907 0)
(0.574834 -0.224954 0)
(0.566413 -0.220875 0)
(0.558 -0.216834 0)
(0.549596 -0.212829 0)
(0.541197 -0.208857 0)
(0.532787 -0.204906 0)
(0.524373 -0.200985 0)
(0.515971 -0.197097 0)
(0.507549 -0.19323 0)
(0.499115 -0.189379 0)
(0.49069 -0.185568 0)
(0.482259 -0.181775 0)
(0.473807 -0.178002 0)
(0.465362 -0.174254 0)
(0.456919 -0.170541 0)
(0.448461 -0.166838 0)
(0.439998 -0.163164 0)
(0.431549 -0.159518 0)
(0.423087 -0.155894 0)
(0.414617 -0.152285 0)
(0.406159 -0.148712 0)
(0.397698 -0.145156 0)
(0.389222 -0.14162 0)
(0.380758 -0.138108 0)
(0.372294 -0.134624 0)
(0.363815 -0.131152 0)
(0.355342 -0.127706 0)
(0.346876 -0.124285 0)
(0.338391 -0.120878 0)
(0.329912 -0.117493 0)
(0.32144 -0.114135 0)
(0.31295 -0.110787 0)
(0.304466 -0.107463 0)
(0.295988 -0.104163 0)
(0.287491 -0.100875 0)
(0.279004 -0.0976089 0)
(0.270518 -0.0943663 0)
(0.262016 -0.0911332 0)
(0.253526 -0.0879265 0)
(0.24503 -0.0847353 0)
(0.236523 -0.0815588 0)
(0.228032 -0.0784068 0)
(0.219521 -0.0752667 0)
(0.211016 -0.0721444 0)
(0.202515 -0.0690448 0)
(0.193994 -0.0659527 0)
(0.18549 -0.0628866 0)
(0.176974 -0.0598318 0)
(0.16845 -0.056792 0)
(0.15994 -0.0537746 0)
(0.151408 -0.0507663 0)
(0.142886 -0.0477765 0)
(0.134362 -0.0448052 0)
(0.125823 -0.0418427 0)
(0.1173 -0.0389035 0)
(0.108761 -0.035974 0)
(0.10023 -0.0330634 0)
(0.091682 -0.0301671 0)
(0.083207 -0.0273132 0)
(0.0749379 -0.0245374 0)
(0.0668892 -0.0218482 0)
(0.0590908 -0.0192553 0)
(0.0515915 -0.0167734 0)
(0.0444533 -0.0144215 0)
(0.0377463 -0.0122209 0)
(0.0315415 -0.010193 0)
(0.0259039 -0.00835684 0)
(0.0208841 -0.00672712 0)
(0.0165123 -0.00531177 0)
(0.0127941 -0.00411093 0)
(0.00970936 -0.00311672 0)
(0.00721478 -0.00231411 0)
(0.00524902 -0.00168252 0)
(0.00373951 -0.00119806 0)
(0.00260956 -0.000835726 0)
(0.00178454 -0.000571343 0)
(0.00119652 -0.000383002 0)
(0.000787066 -0.000251899 0)
(0.000508237 -0.000162643 0)
(0.000322375 -0.000103157 0)
(0.000200986 -6.43105e-05 0)
(0.000123235 -3.9431e-05 0)
(7.43563e-05 -2.3791e-05 0)
(4.41717e-05 -1.4133e-05 0)
(2.58482e-05 -8.27018e-06 0)
(1.49065e-05 -4.76934e-06 0)
(8.47552e-06 -2.71174e-06 0)
(4.75309e-06 -1.52075e-06 0)
(2.63006e-06 -8.41484e-07 0)
(1.43643e-06 -4.59583e-07 0)
(7.74587e-07 -2.47828e-07 0)
(4.12529e-07 -1.31988e-07 0)
(2.1705e-07 -6.94449e-08 0)
(1.1285e-07 -3.61062e-08 0)
(5.79944e-08 -1.85552e-08 0)
(2.94656e-08 -9.42749e-09 0)
(1.48043e-08 -4.7366e-09 0)
(7.35684e-09 -2.35381e-09 0)
(3.61672e-09 -1.15716e-09 0)
(1.7593e-09 -5.62886e-10 0)
(8.46924e-10 -2.70972e-10 0)
(4.03555e-10 -1.29117e-10 0)
(1.90364e-10 -6.09064e-11 0)
(8.89112e-11 -2.84468e-11 0)
(4.11244e-11 -1.31576e-11 0)
(1.88399e-11 -6.02788e-12 0)
(8.54956e-12 -2.73593e-12 0)
(3.84352e-12 -1.23026e-12 0)
(1.71183e-12 -5.48425e-13 0)
(7.56603e-13 -2.42708e-13 0)
(3.31699e-13 -1.06517e-13 0)
(1.4404e-13 -4.64115e-14 0)
(6.19851e-14 -1.99513e-14 0)
(2.65027e-14 -8.42495e-15 0)
(1.09685e-14 -3.51974e-15 0)
(3.81988e-15 -1.31574e-15 0)
(7.09406e-16 -2.33437e-16 0)
(6.66963e-17 -1.21266e-17 0)
(0 0 0)
(0 0 0)
(0 0 0)
(0 0 0)
(0 0 0)
(0 0 0)
(0 0 0)
(0 0 0)
(0 0 0)
(0 0 0)
(0 0 0)
(0 0 0)
(0 0 0)
(0 0 0)
(0 0 0)
(0 0 0)
(0 0 0)
(0 0 0)
(0 0 0)
(0 0 0)
(0 0 0)
(0 0 0)
(0 0 0)
(0 0 0)
(0 0 0)
(0 0 0)
(0 0 0)
(0 0 0)
(0 0 0)
(0 0 0)
(0 0 0)
(0 0 0)
(0 0 0)
(0 0 0)
(0 0 0)
(0 0 0)
(0 0 0)
(0 0 0)
(0 0 0)
(0 0 0)
(0 0 0)
(0 0 0)
(0 0 0)
(0 0 0)
(0 0 0)
(0 0 0)
(0 0 0)
(0 0 0)
(0 0 0)
(0 0 0)
(0 0 0)
(0 0 0)
(0 0 0)
(0 0 0)
(0 0 0)
(0 0 0)
(0 0 0)
(0 0 0)
(0 0 0)
(0 0 0)
(0 0 0)
(0 0 0)
(0 0 0)
(0 0 0)
(0 0 0)
(0 0 0)
(0 0 0)
(0 0 0)
(0 0 0)
(0 0 0)
(0 0 0)
(0 0 0)
(0 0 0)
(0 0 0)
(0 0 0)
(0 0 0)
(0 0 0)
(0 0 0)
(0 0 0)
(0 0 0)
(0 0 0)
(0 0 0)
(0 0 0)
(0 0 0)
(0 0 0)
(0 0 0)
(0 0 0)
(0 0 0)
(0 0 0)
(0 0 0)
(0 0 0)
(0 0 0)
(0 0 0)
(0 0 0)
(0 0 0)
(0 0 0)
(0 0 0)
(0 0 0)
(0 0 0)
(0 0 0)
(0 0 0)
(0 0 0)
(0 0 0)
(0 0 0)
(0 0 0)
(0 0 0)
(0 0 0)
(0 0 0)
(0 0 0)
(0 0 0)
(0 0 0)
(0 0 0)
(0 0 0)
(0 0 0)
(0 0 0)
(0 0 0)
(0 0 0)
(0 0 0)
(0 0 0)
(0 0 0)
(0 0 0)
(0 0 0)
(0 0 0)
(0 0 0)
(0 0 0)
(0 0 0)
(0 0 0)
(0 0 0)
(0 0 0)
(0 0 0)
(0 0 0)
(0 0 0)
(0 0 0)
(0 0 0)
(0 0 0)
(0 0 0)
(0 0 0)
(0 0 0)
(0 0 0)
(0 0 0)
(0 0 0)
(0 0 0)
(0 0 0)
(0 0 0)
(0 0 0)
(0 0 0)
(0 0 0)
(0 0 0)
(0 0 0)
(0 0 0)
(0 0 0)
(0 0 0)
(0 0 0)
(0 0 0)
(0 0 0)
(0 0 0)
(0 0 0)
(0 0 0)
(0 0 0)
(0 0 0)
(0 0 0)
(0 0 0)
(0 0 0)
(0 0 0)
(0 0 0)
(0 0 0)
(0 0 0)
(0 0 0)
(0 0 0)
(0 0 0)
(0 0 0)
(0 0 0)
(0 0 0)
(0 0 0)
(0 0 0)
(0 0 0)
(0 0 0)
(0 0 0)
(0 0 0)
(0 0 0)
(0 0 0)
(0 0 0)
(0 0 0)
(0 0 0)
(0 0 0)
(0 0 0)
(0 0 0)
(0 0 0)
(0 0 0)
(0 0 0)
(0 0 0)
(0 0 0)
(0 0 0)
(0 0 0)
(0 0 0)
(0 0 0)
(0 0 0)
(0 0 0)
(0 0 0)
(0 0 0)
(0 0 0)
(0 0 0)
(0 0 0)
(0 0 0)
(0 0 0)
(0 0 0)
(0 0 0)
(0 0 0)
(0 0 0)
(0 0 0)
(0 0 0)
(0 0 0)
(0 0 0)
(0 0 0)
(0 0 0)
(0 0 0)
(0 0 0)
(0 0 0)
(0 0 0)
(0 0 0)
(0 0 0)
(0 0 0)
(0 0 0)
(0 0 0)
(0 0 0)
(0 0 0)
(0 0 0)
(0 0 0)
(0 0 0)
(0 0 0)
(0 0 0)
(0 0 0)
(0 0 0)
(0 0 0)
(0 0 0)
(0 0 0)
(0 0 0)
(0 0 0)
(0 0 0)
(0 0 0)
(0 0 0)
(0 0 0)
(0 0 0)
(0 0 0)
(0 0 0)
(0 0 0)
(0 0 0)
(0 0 0)
(0 0 0)
(0 0 0)
(0 0 0)
(0 0 0)
(0 0 0)
(0 0 0)
(0 0 0)
(0 0 0)
(0 0 0)
(0 0 0)
(0 0 0)
(0 0 0)
(0 0 0)
(0 0 0)
(0 0 0)
(0 0 0)
(0 0 0)
(0 0 0)
(0 0 0)
(0 0 0)
(0 0 0)
(0 0 0)
(0 0 0)
(0 0 0)
(0 0 0)
(0 0 0)
(0 0 0)
(0 0 0)
(0 0 0)
(0 0 0)
(0 0 0)
(0 0 0)
(0 0 0)
(0 0 0)
(0 0 0)
(0 0 0)
(0 0 0)
(0 0 0)
(0 0 0)
(0 0 0)
(0 0 0)
(0 0 0)
(0 0 0)
(0 0 0)
(0 0 0)
(0 0 0)
(0 0 0)
(0 0 0)
(0 0 0)
(0 0 0)
(0 0 0)
(0 0 0)
(0 0 0)
(0 0 0)
(0 0 0)
(0 0 0)
(0 0 0)
(0 0 0)
(0 0 0)
(0 0 0)
(0 0 0)
(0 0 0)
(0 0 0)
(0 0 0)
(0 0 0)
(0 0 0)
(0 0 0)
(0 0 0)
(0 0 0)
(0 0 0)
(0 0 0)
(0 0 0)
(0 0 0)
(0 0 0)
)
;

boundaryField
{
    front-back
    {
        type            empty;
    }
    inlet-outlet
    {
        type            zeroGradient;
    }
    top-down
    {
        type            empty;
    }
}


// ************************************************************************* //
