/*--------------------------------*- C++ -*----------------------------------*\
| =========                 |                                                 |
| \\      /  F ield         | OpenFOAM: The Open Source CFD Toolbox           |
|  \\    /   O peration     | Version:  2.2.x                                 |
|   \\  /    A nd           | Web:      www.OpenFOAM.org                      |
|    \\/     M anipulation  |                                                 |
\*---------------------------------------------------------------------------*/
FoamFile
{
    version     2.0;
    format      ascii;
    class       volScalarField;
    location    "2.45";
    object      Ma;
}
// * * * * * * * * * * * * * * * * * * * * * * * * * * * * * * * * * * * * * //

dimensions      [0 0 0 0 0 0 0];

internalField   nonuniform List<scalar> 
14161
(
2.62203
2.62005
2.62
2.61971
2.6192
2.61817
2.61679
2.61494
2.61251
2.60942
2.60556
2.60082
2.5951
2.58826
2.58023
2.57101
2.56053
2.5485
2.53526
2.52083
2.50478
2.48779
2.47007
2.45156
2.43233
2.41209
2.39095
2.37015
2.35045
2.33129
2.31297
2.29561
2.27526
2.25043
2.19985
2.04539
1.44829
0.844243
0.646075
0.602111
0.600154
0.616074
0.63685
0.655694
0.670836
0.68366
0.69543
0.706357
0.716969
0.727019
0.736936
0.746298
0.755043
0.763798
0.771821
0.779996
0.787837
0.794886
0.802253
0.80912
0.815873
0.822955
0.829528
0.83579
0.842507
0.849037
0.855821
0.863193
0.869934
0.876624
0.883818
0.891584
0.8997
0.908303
0.916055
0.923492
0.931039
0.939395
0.947314
0.955238
0.963821
0.972679
0.981649
0.99041
0.999428
1.00841
1.0182
1.02902
1.03959
1.05013
1.0611
1.07211
1.08357
1.0959
1.10832
1.12123
1.13473
1.14789
1.15956
1.16934
1.17779
1.18443
1.18738
1.18866
1.17995
1.15423
1.10051
1.00958
0.878618
0.729828
0.595098
0.483184
0.393131
0.32166
0.260258
0.202451
0.148267
0.0942181
0.0631503
2.62207
2.62009
2.62002
2.61974
2.61916
2.61819
2.61681
2.61498
2.61256
2.60946
2.60562
2.60087
2.5951
2.58826
2.58024
2.571
2.56048
2.54851
2.53537
2.52081
2.50476
2.48778
2.47008
2.4516
2.43245
2.41193
2.39095
2.37023
2.35039
2.33117
2.31281
2.29539
2.27495
2.25032
2.20066
2.05031
1.45684
0.849357
0.650878
0.607164
0.604908
0.619984
0.639547
0.65743
0.672565
0.686189
0.699378
0.711713
0.723483
0.734117
0.744176
0.753368
0.761884
0.770506
0.778325
0.786307
0.793999
0.800956
0.8082
0.815146
0.821976
0.829072
0.835723
0.841958
0.848722
0.855455
0.86231
0.869551
0.876271
0.882907
0.890044
0.89781
0.905802
0.914246
0.921954
0.929373
0.93686
0.94511
0.952857
0.960828
0.969463
0.97817
0.986989
0.995548
1.0044
1.01342
1.02341
1.0342
1.04472
1.05507
1.06593
1.07659
1.08801
1.1002
1.11237
1.12476
1.13702
1.14825
1.15787
1.16579
1.17089
1.17273
1.16996
1.15792
1.13158
1.08121
0.999181
0.88508
0.747186
0.613161
0.500124
0.410703
0.340211
0.282054
0.230567
0.183781
0.145199
0.104614
0.102435
2.62213
2.62016
2.62009
2.61976
2.61916
2.61822
2.61686
2.61501
2.61261
2.60952
2.60567
2.60092
2.59519
2.58837
2.58037
2.57108
2.56054
2.54873
2.53562
2.52092
2.50494
2.48799
2.47026
2.45179
2.43264
2.41211
2.39124
2.37048
2.35045
2.33108
2.31263
2.29507
2.27456
2.25047
2.20271
2.06207
1.47497
0.858161
0.658774
0.616312
0.614231
0.629259
0.648079
0.665264
0.680176
0.693709
0.70664
0.71868
0.730215
0.740727
0.750687
0.759978
0.768413
0.776997
0.784791
0.792471
0.800118
0.806974
0.813976
0.821029
0.827555
0.834373
0.841173
0.847417
0.854044
0.860903
0.867658
0.874835
0.881705
0.888255
0.895224
0.902879
0.910631
0.918704
0.926286
0.933658
0.941153
0.949296
0.956945
0.964771
0.973382
0.982148
0.990937
0.999518
1.00826
1.01722
1.0272
1.03788
1.04828
1.05871
1.06946
1.08008
1.09118
1.10255
1.1136
1.12396
1.13395
1.14247
1.14854
1.15176
1.15159
1.14318
1.12615
1.09363
1.04029
0.958485
0.846401
0.721313
0.601201
0.497992
0.419847
0.355371
0.30202
0.255551
0.218564
0.183783
0.161061
0.135521
0.149085
2.62224
2.62027
2.6202
2.61982
2.61921
2.61829
2.61696
2.61513
2.61274
2.60967
2.60582
2.60109
2.59537
2.58856
2.58056
2.57127
2.56076
2.54903
2.53598
2.5211
2.50518
2.4883
2.47054
2.45204
2.43289
2.4124
2.39163
2.37096
2.35081
2.33113
2.31246
2.29467
2.27415
2.25009
2.20577
2.08318
1.50685
0.87405
0.672462
0.630667
0.62854
0.642936
0.660316
0.675826
0.68907
0.701099
0.712599
0.723588
0.734193
0.744366
0.754017
0.763645
0.772378
0.78103
0.789412
0.796985
0.804726
0.811856
0.818635
0.825713
0.832116
0.838403
0.845079
0.851126
0.857285
0.864018
0.870372
0.876863
0.883592
0.889903
0.896335
0.903501
0.910853
0.918326
0.925772
0.933014
0.940368
0.948466
0.956385
0.964269
0.972849
0.981727
0.990734
0.999902
1.00911
1.01824
1.02796
1.03811
1.04793
1.05818
1.06846
1.07853
1.0891
1.09972
1.10918
1.11736
1.12413
1.12692
1.12724
1.12153
1.10618
1.07772
1.03099
0.961745
0.867497
0.751005
0.629245
0.521115
0.44676
0.397988
0.355299
0.313256
0.274522
0.241061
0.21626
0.192927
0.182771
0.167874
0.186183
2.62237
2.62039
2.62031
2.61993
2.61933
2.61841
2.6171
2.61529
2.61291
2.60986
2.60604
2.60133
2.59568
2.58885
2.58084
2.57161
2.56118
2.54952
2.53641
2.52158
2.50571
2.48888
2.47114
2.45264
2.43335
2.41296
2.39232
2.37171
2.3514
2.33132
2.31228
2.29427
2.27317
2.24833
2.20692
2.09866
1.5417
0.892853
0.688302
0.645127
0.642313
0.655852
0.672393
0.687045
0.699487
0.710605
0.720988
0.731014
0.740503
0.750088
0.759034
0.768382
0.777223
0.785659
0.794123
0.801589
0.809038
0.816318
0.822903
0.829763
0.836143
0.842127
0.848677
0.854701
0.860749
0.867294
0.873354
0.879572
0.886181
0.892431
0.89865
0.905405
0.91231
0.919314
0.926564
0.933668
0.94081
0.948533
0.956257
0.963946
0.972266
0.981124
0.990014
0.999173
1.00835
1.01721
1.02662
1.03664
1.04615
1.05588
1.06548
1.07476
1.08357
1.09128
1.0969
1.10073
1.10104
1.09615
1.08346
1.05965
1.02023
0.960961
0.878578
0.777577
0.660673
0.550068
0.460715
0.402699
0.368135
0.343115
0.316973
0.288285
0.261525
0.236734
0.222809
0.207921
0.206253
0.197794
0.216339
2.62252
2.62054
2.62047
2.62011
2.61951
2.61859
2.61728
2.61549
2.61315
2.61011
2.60633
2.60167
2.59606
2.58923
2.58131
2.57213
2.56171
2.55011
2.53701
2.52226
2.5064
2.48963
2.47194
2.45337
2.43389
2.41375
2.3934
2.37296
2.35244
2.33174
2.312
2.29398
2.27302
2.24917
2.21072
2.10564
1.55421
0.901561
0.695666
0.652279
0.649346
0.662571
0.678603
0.69262
0.704524
0.715044
0.724682
0.73408
0.742801
0.751644
0.759818
0.768221
0.776486
0.78415
0.792119
0.799288
0.806283
0.813484
0.819969
0.826624
0.833113
0.839049
0.845577
0.85179
0.857948
0.864547
0.870545
0.876839
0.883504
0.890069
0.896638
0.903487
0.910266
0.917211
0.924614
0.931942
0.939375
0.947167
0.954874
0.962835
0.971368
0.980387
0.989171
0.997847
1.00676
1.01541
1.02443
1.03387
1.04228
1.0504
1.05832
1.06506
1.07065
1.07324
1.07349
1.06897
1.05713
1.03566
1.00126
0.949673
0.877659
0.786705
0.680389
0.573755
0.48025
0.414764
0.376053
0.35147
0.333462
0.316968
0.297567
0.276216
0.255904
0.239095
0.232446
0.223704
0.22742
0.223665
0.241201
2.62268
2.6207
2.62064
2.62031
2.61973
2.61883
2.61756
2.61581
2.61347
2.6105
2.60675
2.60214
2.59652
2.58984
2.58197
2.57288
2.56249
2.55082
2.53779
2.52331
2.50754
2.4909
2.47307
2.45422
2.43464
2.41488
2.39475
2.37459
2.35391
2.332
2.31154
2.29315
2.27134
2.24559
2.20275
2.08354
1.52837
0.891755
0.689577
0.648134
0.646009
0.659944
0.675827
0.689658
0.701405
0.711763
0.721423
0.730933
0.739788
0.748667
0.757112
0.765167
0.773392
0.780824
0.788444
0.795751
0.802614
0.809857
0.816462
0.822932
0.829574
0.835503
0.841733
0.84796
0.853923
0.860517
0.866503
0.872718
0.879357
0.886078
0.893126
0.900191
0.907236
0.914447
0.922199
0.929978
0.937953
0.94626
0.954607
0.963294
0.972285
0.981237
0.989879
0.998565
1.00717
1.01497
1.02195
1.02896
1.03477
1.04002
1.04449
1.04581
1.04513
1.03966
1.02792
1.00757
0.976184
0.929703
0.866364
0.786237
0.69107
0.592862
0.501887
0.432124
0.388479
0.361906
0.344461
0.331172
0.31899
0.30588
0.289577
0.271986
0.257554
0.245793
0.243837
0.239149
0.246011
0.245721
0.261762
2.62286
2.62088
2.62083
2.62056
2.62
2.61912
2.61786
2.61617
2.61387
2.61093
2.60723
2.60267
2.59714
2.59056
2.58286
2.57373
2.56339
2.55175
2.53878
2.52451
2.50897
2.49243
2.47434
2.45541
2.43584
2.41634
2.39649
2.37655
2.3554
2.33249
2.3114
2.29264
2.27002
2.24309
2.19689
2.06407
1.50114
0.881751
0.68354
0.643583
0.642104
0.656719
0.672602
0.686661
0.698699
0.709237
0.719287
0.729001
0.738409
0.747474
0.75647
0.764726
0.773036
0.780918
0.788543
0.796375
0.80349
0.810594
0.817645
0.823933
0.830506
0.836566
0.84223
0.848497
0.854234
0.860443
0.866806
0.872831
0.879536
0.886491
0.893738
0.901197
0.908733
0.916531
0.924774
0.933102
0.941728
0.950529
0.959321
0.968072
0.976412
0.98405
0.991255
0.997827
1.00416
1.00981
1.01436
1.01791
1.01915
1.01947
1.01698
1.00949
0.99596
0.975903
0.945559
0.902019
0.844673
0.772505
0.687366
0.599003
0.514333
0.447424
0.403881
0.375721
0.356576
0.344462
0.335817
0.326767
0.316175
0.303041
0.288612
0.274122
0.262697
0.254672
0.255798
0.253512
0.262136
0.264543
0.27894
2.62309
2.62108
2.62106
2.62081
2.6203
2.61946
2.61826
2.61659
2.61438
2.61151
2.60789
2.60341
2.59795
2.59149
2.58395
2.57488
2.56452
2.55296
2.5401
2.52596
2.51072
2.49436
2.47616
2.45708
2.43752
2.41815
2.3985
2.37865
2.3571
2.33358
2.31195
2.29265
2.26938
2.24235
2.19486
2.05446
1.49337
0.882969
0.687986
0.649179
0.647747
0.662264
0.677674
0.691378
0.703189
0.713529
0.723604
0.733194
0.742676
0.75173
0.760567
0.768845
0.776714
0.784498
0.791537
0.798557
0.805397
0.811556
0.818035
0.824105
0.829868
0.836027
0.841585
0.84728
0.853662
0.859544
0.866026
0.872909
0.879609
0.887395
0.895237
0.903207
0.911606
0.920051
0.929119
0.938163
0.946944
0.95527
0.96302
0.970387
0.976708
0.982542
0.98759
0.991987
0.995553
0.99749
0.997629
0.995166
0.98967
0.97994
0.964382
0.941991
0.910079
0.868098
0.813784
0.747372
0.671595
0.59271
0.516203
0.455559
0.413895
0.386585
0.369432
0.358296
0.349685
0.342156
0.335081
0.326849
0.317042
0.305614
0.292455
0.279707
0.270934
0.265255
0.267843
0.267094
0.276543
0.2808
0.293507
2.62334
2.62132
2.62133
2.6211
2.62064
2.61986
2.61871
2.61711
2.61495
2.61217
2.60863
2.60423
2.59886
2.59255
2.58514
2.57618
2.56604
2.55451
2.5418
2.52782
2.51281
2.4966
2.47835
2.45921
2.43954
2.42019
2.4007
2.38092
2.35946
2.3358
2.31361
2.2935
2.26977
2.24244
2.19224
2.03809
1.46794
0.876807
0.687496
0.650967
0.64974
0.66425
0.678741
0.691815
0.703074
0.712855
0.722083
0.731101
0.739874
0.748615
0.756985
0.765248
0.772925
0.780424
0.787758
0.794534
0.801398
0.807889
0.814088
0.820649
0.826748
0.833011
0.839718
0.845915
0.852624
0.859722
0.866634
0.874644
0.882892
0.891488
0.901
0.910029
0.918864
0.928107
0.93637
0.944932
0.951813
0.958239
0.963853
0.968814
0.972909
0.976064
0.977603
0.977881
0.976608
0.971584
0.962774
0.949581
0.931244
0.905952
0.871787
0.828948
0.775708
0.714411
0.646364
0.575059
0.508567
0.455772
0.418327
0.393974
0.378266
0.368206
0.362507
0.356257
0.349796
0.344677
0.340173
0.332239
0.322804
0.311719
0.299292
0.288061
0.281629
0.277186
0.280383
0.280513
0.290094
0.295258
0.30646
2.62363
2.6216
2.62163
2.62144
2.62103
2.6203
2.61921
2.61769
2.61561
2.61292
2.60948
2.60524
2.59999
2.59372
2.58643
2.57779
2.56796
2.55638
2.54359
2.52987
2.51517
2.49917
2.48096
2.46193
2.44235
2.42267
2.40321
2.38327
2.36222
2.33973
2.31702
2.29575
2.27116
2.24458
2.19528
2.03595
1.4644
0.878112
0.690774
0.651857
0.64906
0.659806
0.672909
0.684868
0.695846
0.705423
0.714113
0.722629
0.731039
0.739731
0.748354
0.756802
0.765149
0.773108
0.780984
0.788602
0.795921
0.80348
0.810653
0.817918
0.825365
0.83254
0.840236
0.84787
0.85548
0.863973
0.872565
0.88182
0.891998
0.902292
0.912417
0.921739
0.929466
0.936629
0.942815
0.948552
0.952852
0.956394
0.959161
0.961256
0.961632
0.960134
0.955375
0.947729
0.935957
0.919432
0.896977
0.867247
0.830715
0.786023
0.733706
0.674306
0.613131
0.549613
0.49516
0.450618
0.418531
0.397516
0.383543
0.375147
0.371051
0.366292
0.362508
0.361027
0.356442
0.350448
0.345329
0.337977
0.329138
0.31911
0.307956
0.298355
0.293976
0.290126
0.293375
0.293872
0.303163
0.308557
0.318662
2.62398
2.62192
2.62198
2.62182
2.62144
2.62078
2.61977
2.61833
2.61637
2.61382
2.61052
2.60644
2.60131
2.59514
2.58794
2.57963
2.57007
2.55864
2.54586
2.53236
2.51784
2.5021
2.48415
2.46533
2.44595
2.42607
2.40586
2.38601
2.36533
2.34389
2.32236
2.29999
2.27385
2.24633
2.19296
2.01101
1.43267
0.865376
0.683946
0.645463
0.641994
0.650519
0.663071
0.674292
0.685086
0.694933
0.703988
0.713698
0.723542
0.733427
0.743092
0.752546
0.761838
0.770953
0.779924
0.788584
0.797012
0.80525
0.813714
0.821994
0.830421
0.839021
0.847579
0.856509
0.865499
0.874909
0.885014
0.89533
0.905216
0.91519
0.923988
0.930821
0.936154
0.940306
0.943581
0.946144
0.947308
0.947522
0.946302
0.942785
0.934984
0.923575
0.908302
0.887338
0.859991
0.826512
0.786427
0.739351
0.685965
0.631679
0.57577
0.522256
0.477598
0.441956
0.417217
0.399742
0.387265
0.379857
0.376616
0.373141
0.371117
0.37122
0.369805
0.367514
0.363195
0.357472
0.35259
0.345806
0.337506
0.328245
0.318164
0.309696
0.306669
0.303059
0.306198
0.306937
0.315922
0.321334
0.330564
2.62435
2.62229
2.62236
2.62224
2.62191
2.62134
2.62041
2.61908
2.61722
2.61479
2.61165
2.60781
2.60271
2.59674
2.58978
2.58173
2.57239
2.56131
2.54876
2.53526
2.52089
2.50528
2.48797
2.46958
2.45052
2.4303
2.4095
2.38926
2.36929
2.34857
2.32784
2.30605
2.27799
2.24731
2.18751
1.98722
1.39462
0.84999
0.676237
0.640251
0.637081
0.644905
0.657582
0.667751
0.680416
0.691631
0.702719
0.714734
0.72624
0.737176
0.74759
0.757622
0.767531
0.777188
0.786506
0.79568
0.80447
0.813373
0.822234
0.831291
0.84033
0.849827
0.859787
0.870018
0.880614
0.891391
0.901657
0.910715
0.918782
0.92481
0.930349
0.934023
0.936172
0.937493
0.938033
0.936389
0.932261
0.925249
0.914515
0.899443
0.878874
0.852683
0.820903
0.782677
0.738366
0.689427
0.638828
0.588374
0.53668
0.494162
0.459545
0.432976
0.414334
0.400822
0.391255
0.384935
0.381807
0.378746
0.376561
0.377782
0.378086
0.377817
0.376544
0.375415
0.371071
0.36516
0.360106
0.353725
0.346063
0.337639
0.328696
0.321189
0.319202
0.315767
0.318748
0.319921
0.328547
0.333794
0.342109
2.62477
2.6227
2.62282
2.62272
2.62244
2.62196
2.62111
2.61989
2.61815
2.61587
2.61295
2.60926
2.60442
2.59865
2.59192
2.5841
2.57495
2.56436
2.55239
2.5387
2.52428
2.50882
2.49219
2.47445
2.45576
2.43525
2.41375
2.39289
2.37361
2.35397
2.33377
2.31244
2.28339
2.25012
2.18491
1.9695
1.37386
0.845347
0.678001
0.643721
0.640741
0.648343
0.660009
0.670341
0.682062
0.691171
0.702998
0.714219
0.725286
0.736286
0.747361
0.758459
0.76959
0.780649
0.79172
0.80248
0.813376
0.824038
0.834767
0.845459
0.856322
0.867451
0.878735
0.889838
0.900584
0.909585
0.917439
0.923395
0.926983
0.928705
0.930892
0.930962
0.930548
0.926436
0.919977
0.909776
0.894949
0.874568
0.848729
0.817223
0.779215
0.73604
0.688836
0.640433
0.592686
0.544141
0.502836
0.469879
0.443814
0.425084
0.411397
0.400714
0.393356
0.389268
0.386919
0.384278
0.382625
0.384044
0.38423
0.384242
0.384644
0.385269
0.384485
0.38301
0.378838
0.373112
0.368047
0.362061
0.355016
0.3474
0.339738
0.332972
0.331732
0.328347
0.331021
0.332699
0.340896
0.345857
0.353341
2.62525
2.62316
2.62333
2.62327
2.62306
2.62264
2.62191
2.62081
2.61925
2.61712
2.61437
2.61082
2.6064
2.60099
2.59426
2.58666
2.57785
2.56776
2.55642
2.543
2.52813
2.51291
2.49696
2.47988
2.4615
2.44089
2.41852
2.39768
2.37868
2.3601
2.34018
2.31852
2.2898
2.25426
2.18386
1.95366
1.34894
0.83745
0.679092
0.648681
0.646609
0.654967
0.66626
0.677066
0.687517
0.697192
0.709173
0.720187
0.73211
0.743617
0.755634
0.767368
0.779442
0.791443
0.803533
0.815494
0.827532
0.839325
0.851208
0.863319
0.876068
0.888025
0.899919
0.910296
0.918389
0.924892
0.928469
0.929711
0.929613
0.927192
0.924971
0.918526
0.909273
0.895389
0.875747
0.850271
0.818676
0.780566
0.737201
0.689706
0.640998
0.594452
0.547251
0.507952
0.476544
0.451545
0.432381
0.418534
0.408332
0.401235
0.39656
0.393677
0.391388
0.388454
0.389396
0.390372
0.390743
0.390842
0.391186
0.391819
0.392277
0.392663
0.392221
0.390526
0.386406
0.380997
0.376132
0.370645
0.364263
0.357513
0.351332
0.345031
0.344231
0.340734
0.342994
0.345252
0.353066
0.35771
0.364465
2.62577
2.62367
2.6239
2.62387
2.62374
2.62341
2.62279
2.62187
2.62046
2.61848
2.61592
2.61264
2.60859
2.60359
2.59699
2.58964
2.58125
2.57165
2.56085
2.54813
2.53282
2.51732
2.50222
2.48595
2.46795
2.44755
2.42456
2.4035
2.38431
2.36657
2.34691
2.32481
2.29734
2.26094
2.18553
1.94027
1.33162
0.836717
0.687262
0.65914
0.65764
0.666734
0.677305
0.688007
0.697669
0.708068
0.719973
0.731241
0.744119
0.756094
0.770124
0.782807
0.796679
0.810351
0.824553
0.838327
0.852622
0.866875
0.880923
0.894551
0.906515
0.917142
0.924761
0.931302
0.935588
0.937518
0.935024
0.931
0.923598
0.914249
0.900915
0.882507
0.857353
0.825914
0.787891
0.744049
0.696329
0.646674
0.599599
0.551303
0.511508
0.481252
0.457511
0.439475
0.425919
0.415422
0.407836
0.402393
0.398156
0.397572
0.396234
0.394081
0.394505
0.39442
0.396387
0.397505
0.398455
0.399012
0.399257
0.399486
0.399826
0.399968
0.399716
0.39795
0.39396
0.388938
0.384478
0.379584
0.373847
0.367871
0.363181
0.357191
0.356599
0.35298
0.354852
0.35761
0.365005
0.369289
0.375217
2.62635
2.62421
2.6245
2.62456
2.6245
2.62428
2.6238
2.62303
2.62178
2.62003
2.61771
2.6147
2.61098
2.60638
2.60023
2.59298
2.58509
2.57611
2.5659
2.5538
2.53825
2.52264
2.508
2.49254
2.47528
2.4554
2.43223
2.41078
2.39072
2.37319
2.35431
2.33174
2.30639
2.27082
2.19133
1.93198
1.30828
0.832152
0.691228
0.665777
0.665168
0.675712
0.685675
0.69734
0.707114
0.719203
0.731139
0.743691
0.75763
0.770642
0.787228
0.801018
0.817738
0.833938
0.851563
0.868075
0.885626
0.901594
0.915729
0.928232
0.937191
0.94387
0.946489
0.948387
0.945552
0.940607
0.929692
0.915023
0.896468
0.87288
0.841477
0.803247
0.758312
0.709572
0.657484
0.608544
0.560961
0.5198
0.488682
0.464112
0.445831
0.43264
0.422786
0.415974
0.410321
0.404581
0.402632
0.401921
0.399923
0.397691
0.401163
0.402248
0.401893
0.400621
0.403633
0.40569
0.406883
0.407281
0.407337
0.407299
0.40739
0.407286
0.407131
0.405398
0.401625
0.397078
0.393141
0.38883
0.383685
0.378378
0.375013
0.369318
0.368859
0.365147
0.366657
0.369749
0.376713
0.380659
0.385966
2.62696
2.62481
2.62516
2.62534
2.62537
2.62525
2.6249
2.62428
2.62329
2.62178
2.61974
2.61699
2.61361
2.60938
2.6039
2.59675
2.58925
2.58094
2.57148
2.55994
2.54456
2.52917
2.51443
2.49975
2.48327
2.46416
2.44195
2.41957
2.3986
2.38017
2.36186
2.33987
2.31552
2.27905
2.18935
1.90861
1.26015
0.815983
0.686629
0.666372
0.66794
0.68181
0.694966
0.709701
0.722836
0.73814
0.752739
0.76822
0.785317
0.800652
0.820574
0.836932
0.857612
0.878046
0.899013
0.917806
0.935068
0.948892
0.958265
0.965909
0.965959
0.969378
0.961959
0.953584
0.939526
0.921018
0.896984
0.866431
0.828857
0.782742
0.73156
0.676954
0.625613
0.574602
0.53044
0.498126
0.47354
0.455225
0.441713
0.431144
0.423349
0.418208
0.41422
0.410861
0.409172
0.406497
0.402721
0.404315
0.406602
0.406047
0.405623
0.409082
0.410059
0.40836
0.411285
0.413549
0.415102
0.415562
0.415355
0.415134
0.415005
0.414596
0.414458
0.412925
0.409437
0.405387
0.402071
0.398305
0.393719
0.389047
0.386876
0.381471
0.381088
0.377302
0.378434
0.381667
0.388125
0.391682
0.396341
2.62765
2.62545
2.62588
2.62617
2.62632
2.62634
2.62612
2.62565
2.62492
2.62373
2.62195
2.61949
2.61652
2.61275
2.60791
2.60124
2.59395
2.58632
2.57759
2.56674
2.55208
2.53687
2.52194
2.50775
2.49171
2.47381
2.45359
2.42992
2.40809
2.38801
2.36963
2.3486
2.32388
2.28658
2.18876
1.89206
1.21855
0.805866
0.69026
0.677272
0.682148
0.699285
0.716233
0.733686
0.749421
0.767701
0.784858
0.803406
0.824486
0.843703
0.869012
0.890441
0.915888
0.93923
0.958447
0.976722
0.985558
0.995931
0.995231
0.997128
0.986642
0.979077
0.957469
0.933399
0.901156
0.86388
0.817172
0.764248
0.706303
0.651396
0.599411
0.549083
0.511967
0.485231
0.465862
0.451534
0.440764
0.433309
0.428056
0.423941
0.419585
0.417358
0.415736
0.412883
0.411113
0.411788
0.411158
0.40966
0.412478
0.413761
0.413004
0.416344
0.417924
0.416394
0.419073
0.421492
0.423199
0.42378
0.423369
0.42303
0.422805
0.422172
0.42198
0.420737
0.417565
0.413987
0.411254
0.407976
0.403885
0.399796
0.398687
0.393578
0.393274
0.389455
0.39023
0.393423
0.399301
0.402457
0.406566
2.62838
2.62615
2.62664
2.62705
2.62737
2.62754
2.62747
2.62721
2.62674
2.62585
2.62435
2.62233
2.61978
2.61652
2.61225
2.60637
2.59937
2.59232
2.58427
2.57418
2.56115
2.54582
2.53091
2.51702
2.50161
2.48472
2.46547
2.44276
2.4193
2.39741
2.37834
2.35746
2.33228
2.29366
2.19048
1.88727
1.20567
0.80764
0.703941
0.696644
0.70716
0.727357
0.74933
0.76961
0.788888
0.811173
0.831304
0.855359
0.881797
0.909097
0.941563
0.968831
0.992081
1.01425
1.02333
1.03784
1.03078
1.03348
1.01708
1.00484
0.979055
0.948602
0.908072
0.859364
0.804271
0.744764
0.682637
0.626213
0.57164
0.529996
0.501062
0.479342
0.463245
0.452254
0.444263
0.438387
0.433939
0.430935
0.428356
0.426048
0.423579
0.421444
0.421707
0.420641
0.418224
0.416631
0.417585
0.416508
0.419407
0.421298
0.420422
0.423781
0.425757
0.424849
0.426671
0.429381
0.43116
0.431872
0.43146
0.430969
0.430762
0.429952
0.429655
0.428745
0.425934
0.422806
0.420597
0.417801
0.414171
0.410636
0.410382
0.405604
0.405427
0.401644
0.402049
0.405006
0.410176
0.412842
0.416271
2.62917
2.62691
2.62749
2.628
2.6285
2.62885
2.62901
2.62897
2.62875
2.62815
2.62703
2.62553
2.62342
2.6206
2.61693
2.61208
2.60575
2.59891
2.59154
2.58253
2.57121
2.5564
2.54166
2.52719
2.51281
2.49647
2.4785
2.45782
2.43296
2.40953
2.38842
2.3667
2.34062
2.30092
2.1921
1.88238
1.18564
0.803261
0.714323
0.712989
0.732472
0.757305
0.785665
0.812076
0.838371
0.868999
0.897093
0.932217
0.966023
0.997369
1.03282
1.05424
1.07019
1.08059
1.07695
1.07433
1.05141
1.03607
0.999257
0.963493
0.90993
0.851214
0.787575
0.719941
0.657612
0.597507
0.547635
0.514499
0.490869
0.474657
0.463683
0.455714
0.448684
0.444255
0.441465
0.439524
0.436739
0.433423
0.433256
0.432496
0.431607
0.429272
0.427335
0.427345
0.425909
0.42457
0.425108
0.423817
0.426019
0.428401
0.4278
0.430915
0.433265
0.43358
0.434204
0.437029
0.438979
0.439912
0.439594
0.43894
0.438847
0.438024
0.437622
0.43704
0.434585
0.431914
0.43015
0.427822
0.424655
0.421607
0.421945
0.417507
0.417478
0.4138
0.413941
0.416493
0.420962
0.42314
0.42591
2.63006
2.62776
2.62841
2.62896
2.62966
2.63025
2.63069
2.6309
2.63092
2.63072
2.62999
2.62894
2.62737
2.62514
2.62211
2.61819
2.61298
2.6064
2.5996
2.59179
2.58187
2.56867
2.55399
2.53929
2.52543
2.50985
2.49265
2.47297
2.45048
2.4249
2.40108
2.37763
2.35046
2.30925
2.1967
1.87795
1.19394
0.820659
0.74241
0.747436
0.776321
0.807917
0.843779
0.8777
0.915674
0.959038
0.998198
1.03928
1.07447
1.09727
1.12645
1.12458
1.13307
1.10677
1.09317
1.05498
1.01951
0.962488
0.901286
0.833286
0.75859
0.690456
0.625538
0.567373
0.527551
0.500128
0.481303
0.469412
0.461994
0.457489
0.453794
0.451191
0.448376
0.445974
0.444969
0.444705
0.443773
0.441327
0.439779
0.439391
0.439052
0.437402
0.434935
0.434801
0.433851
0.432265
0.433
0.432189
0.433067
0.435473
0.435464
0.43787
0.440782
0.441974
0.442016
0.444498
0.44678
0.44804
0.44788
0.447055
0.447126
0.446411
0.4459
0.445591
0.443423
0.441258
0.439814
0.437958
0.43527
0.432696
0.43347
0.42937
0.429494
0.425985
0.425916
0.427764
0.431376
0.433011
0.435186
2.63102
2.62868
2.62939
2.63002
2.63087
2.63174
2.63247
2.63301
2.63338
2.63353
2.63324
2.63267
2.63176
2.63023
2.62786
2.62479
2.62083
2.6152
2.60873
2.6019
2.59345
2.58264
2.56832
2.55392
2.53978
2.52545
2.50887
2.4904
2.46929
2.4441
2.41741
2.39077
2.36141
2.3166
2.19605
1.86767
1.19533
0.842542
0.778945
0.793509
0.832822
0.876381
0.922388
0.970956
1.02364
1.07414
1.11439
1.14897
1.1725
1.18024
1.18711
1.15584
1.13605
1.07835
1.0315
0.954355
0.883167
0.79961
0.722553
0.651065
0.584058
0.537487
0.506399
0.484996
0.471364
0.462939
0.457872
0.455407
0.454305
0.453496
0.452995
0.451996
0.451545
0.450771
0.450283
0.45072
0.450123
0.448462
0.447415
0.446816
0.446781
0.445358
0.442809
0.442707
0.442061
0.440069
0.4407
0.440672
0.440168
0.442548
0.443398
0.444785
0.448047
0.449837
0.450192
0.451818
0.454508
0.456153
0.456307
0.455392
0.455645
0.455143
0.454541
0.454446
0.452457
0.450865
0.449685
0.448295
0.446065
0.443935
0.444954
0.441077
0.441275
0.437985
0.437874
0.438979
0.441836
0.442973
0.444646
2.63208
2.62967
2.63044
2.63125
2.63215
2.63328
2.63435
2.63525
2.63603
2.63668
2.63692
2.63685
2.63648
2.63582
2.63421
2.63204
2.62912
2.62507
2.6192
2.61323
2.60639
2.59743
2.58509
2.57107
2.55683
2.54335
2.52781
2.51006
2.48976
2.46666
2.43817
2.40751
2.37614
2.32798
2.20008
1.87079
1.21841
0.88917
0.840686
0.864864
0.913955
0.972799
1.03273
1.09549
1.14822
1.19209
1.22017
1.24225
1.23464
1.21856
1.16704
1.11998
1.0388
0.951017
0.85315
0.760121
0.676406
0.598752
0.543462
0.507768
0.483525
0.46895
0.46015
0.454792
0.451932
0.450986
0.451165
0.451755
0.452494
0.453937
0.454959
0.455693
0.456176
0.456445
0.456099
0.456838
0.456758
0.455643
0.454601
0.454188
0.454408
0.453223
0.450887
0.450959
0.450399
0.448311
0.448869
0.448994
0.447934
0.449629
0.451353
0.451821
0.455119
0.45751
0.458641
0.459293
0.462109
0.464256
0.464873
0.464032
0.464385
0.464197
0.463522
0.46358
0.461663
0.460663
0.459723
0.458758
0.456946
0.455354
0.45648
0.452797
0.45309
0.450027
0.449924
0.450207
0.452017
0.452486
0.453589
2.63322
2.63075
2.63158
2.63259
2.63358
2.63494
2.63632
2.63765
2.63875
2.63998
2.64092
2.64155
2.64176
2.64177
2.64127
2.64005
2.63825
2.63564
2.63133
2.62596
2.62057
2.61353
2.60411
2.59102
2.57737
2.56357
2.54957
2.53284
2.51337
2.49113
2.46382
2.42938
2.39553
2.34218
2.19576
1.8661
1.21387
0.966076
0.939469
0.980038
1.04111
1.11373
1.17726
1.23403
1.26631
1.29298
1.28598
1.27071
1.21655
1.15777
1.05539
0.948852
0.829491
0.722266
0.626267
0.550721
0.505501
0.477509
0.461183
0.452239
0.447313
0.445616
0.445482
0.445664
0.446157
0.447285
0.449005
0.451527
0.453497
0.455485
0.456911
0.458439
0.460126
0.461501
0.461569
0.46261
0.463098
0.462671
0.461718
0.46151
0.461948
0.461017
0.458996
0.459294
0.458779
0.456731
0.457323
0.457546
0.456455
0.457177
0.459077
0.459063
0.46214
0.465166
0.466814
0.466816
0.469719
0.472417
0.47354
0.472995
0.473259
0.473512
0.472882
0.473025
0.471144
0.470728
0.470007
0.469468
0.46801
0.466934
0.467958
0.464318
0.464465
0.461477
0.461423
0.46124
0.462331
0.462263
0.462742
2.63446
2.63193
2.63283
2.63402
2.63516
2.63672
2.63845
2.64016
2.64166
2.64341
2.64512
2.64658
2.64771
2.64856
2.64901
2.64889
2.64827
2.64695
2.64469
2.64069
2.63659
2.63162
2.62452
2.61414
2.60147
2.58817
2.57544
2.56035
2.54187
2.52039
2.49398
2.45822
2.41944
2.35255
2.17184
1.81939
1.21688
1.07131
1.06542
1.13354
1.20306
1.2746
1.31387
1.34971
1.33917
1.32926
1.26238
1.19873
1.08162
0.95571
0.815172
0.689051
0.580359
0.508276
0.469313
0.448988
0.43969
0.435631
0.435291
0.43531
0.436934
0.437453
0.44013
0.442563
0.445551
0.44837
0.451157
0.453599
0.456163
0.458382
0.460356
0.462212
0.464001
0.465914
0.466693
0.46789
0.468966
0.469225
0.468634
0.468615
0.469319
0.468727
0.46703
0.46756
0.467112
0.465201
0.465831
0.466375
0.46554
0.465217
0.466758
0.466457
0.469258
0.472733
0.474695
0.474472
0.477422
0.48064
0.482287
0.482229
0.482238
0.482939
0.482546
0.482748
0.480907
0.480992
0.480386
0.480262
0.479093
0.478597
0.479514
0.476071
0.47616
0.473306
0.473141
0.472414
0.472319
0.471526
0.471196
2.6358
2.63319
2.6342
2.63558
2.63691
2.63861
2.64074
2.64285
2.64488
2.64699
2.64958
2.65194
2.654
2.6558
2.65762
2.6589
2.65949
2.6597
2.65892
2.65734
2.6548
2.65175
2.64701
2.6402
2.62995
2.61816
2.60597
2.59341
2.5772
2.55669
2.53095
2.50073
2.45821
2.38108
2.1719
1.79499
1.28703
1.20475
1.22232
1.29316
1.34998
1.39389
1.39316
1.38639
1.31933
1.25244
1.11962
0.972824
0.813133
0.66897
0.548201
0.474422
0.438845
0.424544
0.420711
0.41994
0.422351
0.423976
0.42715
0.430296
0.43409
0.437288
0.440502
0.443189
0.4463
0.449166
0.452325
0.455318
0.45828
0.461108
0.463607
0.466163
0.468273
0.470515
0.471914
0.473179
0.474707
0.475599
0.475587
0.475688
0.476608
0.476431
0.475048
0.475772
0.475437
0.473669
0.474339
0.475341
0.474832
0.473578
0.47467
0.474132
0.476641
0.480279
0.482485
0.482272
0.485205
0.488886
0.49101
0.4915
0.49123
0.492362
0.492441
0.492737
0.490945
0.491419
0.490953
0.491194
0.490276
0.490359
0.490912
0.487568
0.487427
0.484525
0.484062
0.482889
0.482092
0.480974
0.480207
2.63725
2.63456
2.63565
2.63721
2.63881
2.64068
2.64317
2.64578
2.64834
2.65092
2.65426
2.65755
2.66067
2.66348
2.6667
2.66967
2.67205
2.67403
2.67486
2.67546
2.6755
2.67462
2.67254
2.66865
2.66306
2.65398
2.64351
2.63319
2.62043
2.60243
2.58164
2.55781
2.51654
2.43234
2.19413
1.75692
1.39002
1.3417
1.35936
1.40583
1.43455
1.43212
1.3711
1.30055
1.17278
1.01619
0.833397
0.666524
0.529433
0.448819
0.413008
0.402936
0.400446
0.403572
0.407689
0.412306
0.417412
0.422045
0.426345
0.429987
0.433559
0.436856
0.440422
0.443711
0.447367
0.450743
0.454178
0.457642
0.460889
0.464231
0.467094
0.470012
0.47258
0.475047
0.477241
0.47882
0.480617
0.481996
0.482701
0.482925
0.483984
0.484161
0.483039
0.483959
0.483799
0.482188
0.482966
0.484308
0.483937
0.482149
0.482924
0.482166
0.484307
0.487972
0.490423
0.490543
0.493162
0.497041
0.499704
0.500649
0.500065
0.501691
0.502442
0.502828
0.501102
0.501887
0.501617
0.502131
0.5015
0.502172
0.502372
0.499181
0.499032
0.496383
0.495661
0.493955
0.491958
0.490113
0.488685
2.63881
2.63602
2.63721
2.63891
2.64086
2.64291
2.64575
2.64894
2.65212
2.65522
2.65915
2.66362
2.66789
2.67185
2.67613
2.68127
2.68562
2.68958
2.69266
2.69543
2.69882
2.70119
2.70179
2.70141
2.70004
2.69597
2.68932
2.68126
2.67239
2.66143
2.64966
2.63341
2.60097
2.51712
2.24634
1.83065
1.50827
1.45361
1.44299
1.45478
1.43532
1.35515
1.24734
1.07528
0.89238
0.69932
0.535652
0.433411
0.390848
0.380915
0.380618
0.386755
0.392779
0.399311
0.405443
0.410968
0.416059
0.420784
0.425483
0.429829
0.43408
0.438001
0.441931
0.445751
0.449405
0.453073
0.456541
0.460198
0.463631
0.467277
0.470557
0.473834
0.47681
0.479543
0.482287
0.484223
0.486442
0.488128
0.489582
0.490163
0.491375
0.491806
0.49092
0.492063
0.492163
0.490759
0.491667
0.493236
0.492937