/*--------------------------------*- C++ -*----------------------------------*\
| =========                 |                                                 |
| \\      /  F ield         | OpenFOAM: The Open Source CFD Toolbox           |
|  \\    /   O peration     | Version:  2.2.x                                 |
|   \\  /    A nd           | Web:      www.OpenFOAM.org                      |
|    \\/     M anipulation  |                                                 |
\*---------------------------------------------------------------------------*/
FoamFile
{
    version     2.0;
    format      ascii;
    class       volScalarField;
    location    "1.55";
    object      divBf;
}
// * * * * * * * * * * * * * * * * * * * * * * * * * * * * * * * * * * * * * //

dimensions      [1 -3 -2 0 0 -1 0];

internalField   nonuniform List<scalar> 
14161
(
-30926.4
17798.4
4093.7
-245.007
-5554.43
-14751.1
-8235.01
-1493.87
620.91
709.969
7197.99
5215.24
521.389
-5778.12
-8662.62
-8081.87
-2471.93
610.625
4056.75
8731.11
8543.3
2699.02
-2070.53
-1370.15
-1711.2
-941.876
1939.59
2727.58
4810.98
7417.44
10021.7
18339.8
35300.7
-35341
22450.8
19555
13384.7
11917.7
11909.6
17692.5
15698.6
13546.8
10500
6820.69
5434.64
-31019.1
-32991.5
-33768
-34382.4
-34573.1
-34158.3
-33303.2
-32422.7
-31462.1
-30306.6
-28541.5
-27586.7
-26404.4
-25020.5
-23713.6
-22248.1
-20333.1
-18697.2
-17417.3
-15119.7
-11718.2
-9395.68
-10788.2
-8910.26
-6626.18
-5086.39
-3047.48
-1899.2
-1532.17
-1484.36
-1413.27
-264.048
99.9464
1872.86
1420.93
4075.29
7057.49
7583.3
8986.1
15002.2
14690.3
16816.4
11933.8
12993.3
7923.92
-510.004
12782.6
3324.37
1276.44
1285.52
526.505
1075.96
1253.26
2194.81
2773.68
2938.22
1996.92
1868.62
1961.85
1620.18
669.042
-355.285
-1372.13
-2640.28
-3195.11
-5434.34
-5581.29
-7538.78
-7561.82
-6538.48
-8358.73
4601.44
-8880.73
19497.2
12846.1
-59686
-35243.1
-5247.78
9783.29
34316.3
39159
12442.7
-750.846
-13911.8
-32936.2
-35136.7
-11305.9
1210.7
15470.8
30842.6
16761.4
1321.71
-9202.02
-20117.6
-28504.3
-12705.2
-506.461
7428.3
13568.1
9859.88
3902.88
-556.378
-2657.64
-2601.87
-671.006
5193.45
31034
-11155.6
-9678.62
-8910.45
-16407.5
-10122.2
-7796.07
-6413.06
-7295.87
-8937.3
-8145.52
-5452.76
-3631.41
-19093.8
-19604.7
-17896.9
-17827
-17201.7
-17490.6
-17333.8
-17553.2
-17161.5
-17041.7
-16590.4
-15725.4
-14945.3
-14876.9
-14722.8
-14391.7
-13965.8
-13510.9
-12687.2
-12200.8
-11788.7
-13174.7
-9330.07
-11702.3
-9286.81
-7808.22
-5297.85
-4454.6
-2825.29
-1436.33
-435.867
1012.05
2592.13
4863.69
8003.11
14271.6
12662.3
14663.2
13210
10981.7
8026.32
7917.19
16971.9
15091.1
11714.6
-395.377
11516.7
6951.25
6199.88
2162.43
3189.79
2904.92
2497.82
1888.02
1945.94
1910.91
1620.59
1960.65
1351.92
1170.91
213.225
-1155.94
-2059.43
-3676.84
-3837.66
-5164.77
-5326.97
-5621.4
-4792.28
-2072.41
-6443.76
5371.88
-7832.85
13502.3
-92981.5
104761
52713.9
7084.45
-15605.3
-52518
-70637.8
-31813.6
-1926.48
19177
43311.1
50176.4
13129.1
-3794.65
-26400.4
-50133.8
-32914.4
-4226.6
10721.1
28351.5
44021.1
20668.6
769.223
-8620.43
-17003.8
-12912.6
-2815.91
284.069
5707.27
10010.1
8163.53
2843.91
-12412
-80920.4
-63860.2
-36363.4
-16428.2
-3389.01
3945.48
7688.32
6463.07
7898.88
8602.36
7729.35
6197.26
-9382.21
-12339.3
-13916.9
-15513
-16770.2
-17503.8
-17966.8
-18554.3
-18389.4
-18376.5
-18809.9
-19478.2
-19691.4
-19013.2
-17954.5
-16957.1
-16097.2
-15227.4
-14706
-13208.9
-12556
-9614.59
-7053.53
-2996.84
-430.641
1714.49
2019.78
4160.54
5832.61
6234.84
6564.66
7930.92
7629.84
9413.1
6669.35
11366.4
4732.17
5390.26
4962.28
8662.47
15956.5
19109.2
18197.4
20528.5
15367.8
11581.4
19220.6
7921.31
6131.49
5906.8
3445.47
2225.12
2324.72
2272.87
2648.17
2037.43
2119.51
1419.01
831.832
443.653
-128.733
-877.754
-1455.19
-2492.37
-2762.94
-3615.13
-3588.4
-4221.03
-4534.69
-724.05
-5304.41
7534.6
-7450.17
13019.6
69917.6
-131983
-74525.2
-12124.9
11069.9
61477.6
88057.5
30964.1
-834.638
-24786.9
-52360.1
-70941.6
-25066.2
1137.96
28319.6
60378.8
37858.9
3612.89
-12291.6
-33499.5
-55613.2
-27369.7
-2403.55
10683.9
21357.7
17950.3
5913.05
-1454.02
-7950.87
-14032.3
-19548.9
-24598.8
-56376.8
-10653.4
9476.15
10152.6
10637.8
5556.34
2254.99
-451.448
-2966.88
-5132.83
-7857.78
-8511.62
-9342.15
-18662.3
-19527.9
-18903
-19238.5
-19192.3
-19155.7
-19146.6
-19209.6
-19130.6
-18789.1
-18244.8
-17296.6
-15762.9
-14515.5
-13589.7
-12621
-11817.9
-11041.5
-10526.4
-9914.71
-8382.05
-8946.04
-7719.48
-7199.97
-6476.07
-5191.35
-4085.57
-1920.69
-43.5357
2512.36
3423.51
7189.01
8173.76
14164
15508.7
18950.2
34642.9
34755.2
27609.7
24360.3
19989.5
22906.9
23234
20646.9
22201
10744.9
24578
4098.84
10000.1
1588.33
3218.76
1861.01
1992.29
1618
1685.4
2504.83
1708.04
1612.57
1298.89
607.173
-182.607
-1224.87
-1936.3
-2523.11
-2606.16
-2728.74
-3053.02
-3131.62
-4663.13
288.991
-5923.07
6198.61
-6763.36
10228.1
-144037
159102
78937.3
10895.5
-14320.3
-64051.7
-109177
-52563.4
-4206.2
23554.7
56781.7
76465.2
24487.6
-3385.65
-31720.1
-68469.5
-57334.3
-9226.8
7943.58
35644.9
57420
33716.4
2609.6
-8522.47
-20460.6
-19669.5
-8260.89
-2305.93
2404.87
5385.68
2649.64
-1373.56
-13101.3
-60769
-47450.5
-21156.2
-14437.1
-5955.61
1418.38
3960.01
-182.291
-193.371
521.424
-705.036
-236.449
-11870.8
-13251.3
-15346.6
-16122.5
-17247.9
-17598.6
-17637.5
-17532
-17016
-16658.3
-15956.4
-15689.2
-15007.9
-14379.5
-13412.8
-12511.6
-11612.6
-10734.2
-9689.28
-8239.04
-6753
-5964.45
-4979.76
122.921
2661.41
4589.49
6720.52
8652.63
11743.1
12097.9
14789.6
15636
16051.7
21225.3
16001.3
18373.2
2319.37
311.506
5011.76
10816.8
15262
17016
16687.5
14448.9
19111
10270.2
27343.3
6124.11
14417.4
5116.31
3926.82
2022.76
2044.19
2546.11
1829.24
2254.24
1857.18
1761.44
1576.34
1278.19
668.89
188.402
-409.285
-1134.32
-1746.01
-2335.1
-2626.65
-1934.65
-3740.88
984.968
-5978.47
5875.7
-6901.06
8125.51
114808
-171250
-100588
-23627
10109.3
68437.1
114584
47460.1
1300.78
-27619.5
-56170.1
-88719.5
-37932.7
-1215.43
28445.4
68635.1
57654.8
8286.4
-7463.16
-34941.6
-55960.8
-41137.3
-7044.89
6131.98
17924.3
22810.1
11004.6
90.6665
-3582.16
-7524.18
-5735.48
-601.634
-4783.19
2796.43
-36109.8
-7214.91
-5176.77
624.844
-5124.85
-2107.86
-5286.12
-6260.42
-7090.17
-8529.17
-9121.89
-20363.6
-19439.3
-20083.6
-19442.6
-19137.3
-18322.4
-17692.2
-16793.5
-15833.8
-15177.7
-14090
-13461.3
-12504.7
-11280
-10435.5
-9825.53
-9152.5
-8490.82
-7482.02
-6355.67
-5337.17
-5620.38
-6835.73
-7353.98
-6890.47
-5153.2
-1255.05
98.8443
3316.49
5700.9
8004.64
13116.8
10807.1
20649.1
18312.2
27299.4
35704.7
33021.3
36538
26963.8
25727.5
18441.4
19477.4
14431.5
21741.9
11079.3
33067.2
5796.18
21217.1
5643.27
6912.33
3523.94
2947.84
2845.64
1448.48
2716.25
1859.91
1667.65
907.08
487.665
-318.614
-757.234
-1397.99
-1764.9
-2051.54
-1738.8
-3020.81
-1128.57
-4111.84
1324
-5795.43
5166.86
-6706.56
6219.03
-181594
188584
95237.9
18263.9
-11739.1
-67568.3
-123560
-71335.2
-8410.85
19986.2
58438.3
88951.4
35226.7
-894.8
-28596.3
-66537.9
-76425.6
-23030.5
2690.75
32391.6
55688.8
45315.2
9929.24
-3207.41
-13397.6
-20036.2
-15282.4
-10975.3
-3448.66
-1552.27
-2132.79
-5979.02
-13021.9
-10652.2
-36045
-20592.3
-9457.3
1139.86
-5266.25
-1482.27
-6009.82
-6905.9
-7189.95
-8154.02
-7276.18
-17155.6
-16752.4
-17636.6
-16837
-16546.6
-15951
-15356.9
-14999.8
-13214.8
-12723.9
-11501.9
-10720.5
-9905.53
-9298.3
-9007.72
-8487.57
-7776.41
-6987.46
-5722.91
-4849.07
-3129.63
-1784.43
83.3261
1156.21
3859.5
4432.29
4948.67
7224.59
7568.08
11125.9
12151.7
14953.1
17065.8
24347.8
21894.1
22260.3
30496.8
24394.1
33142.7
24796.6
22319.3
17004.7
16872.6
14821.6
18860.9
13272.5
32748.5
10125.3
28325.7
10552.7
10701.5
4562.15
3924.14
3418.53
2821.76
2792.37
2175.61
2046.96
1794.24
1632.39
1225.99
702.969
79.5321
-653.708
-1244.6
-1619.27
-1825.39
-721.577
-3398.4
1296.25
-5463.85
4352.57
-6400.4
4595.46
146420
-185783
-117014
-36419.7
6881.46
65542.6
126015
62639.4
4993.76
-22756.5
-55428.5
-90357.4
-51788.9
-5014.88
22246.8
60970.9
74433.9
21746.3
-4220.68
-29208.9
-47007.7
-45828.6
-18310.1
-1665.17
13601.2
22706.8
12468
6478.92
426.528
-2593.06
-5519.13
-8291.05
-8814.36
-15623.3
-25989.8
-12369.6
-2186.59
-915.596
-5620.81
-3713.81
-7231.49
-6130.18
-6518.79
-6174.32
-6079.45
-16168.9
-14339.5
-15763.3
-15539.9
-15290.5
-15093.3
-14251.4
-14111
-12479.9
-12659.5
-11226.7
-11805.1
-10783
-10290.8
-9059.98
-8310.47
-7324.94
-6115.71
-5217.82
-3996.08
-3023.64
-2174.57
-967.982
-628.049
1383.25
3886.14
6688.57
8863.23
13493.1
13431
17209.4
17757.6
20034.2
24503.9
28867
27686.7
41316.4
29336.9
43492.3
29507.2
34430.6
22402.8
20569.1
15426.8
19091.1
16276.6
34024.6
13604.3
27698.3
10311.7
9992.74
5079
5707.85
4642.98
3717.12
3390.78
2323.44
2042.61
1290.67
879.636
124.456
-301.115
-906.507
-1312.33
-1782.35
-1430.1
-2229.35
-508.716
-3396.68
1057.62
-4964.2
3549.68
-6130.86
3088.88
-204709
201062
104689
25792.2
-10294.7
-65052.6
-124306
-87746.2
-12949.2
14993.1
55058.7
88334.5
47718.7
2386.91
-22865.9
-54549.3
-89967.1
-41325.8
-2336.72
25965.4
45210.6
50331.1
24050
433.265
-9372.44
-16162.9
-18154.4
-11047.6
-6447.74
-3602.21
-1792.31
-656.754
609.713
-19362.8
-22051.4
-12414.3
-4202.24
-4528.09
-9048.71
-5650.58
-8380.78
-8530.87
-8140.18
-7843.46
-7384.18
-16147.8
-14183.8
-15414
-15618.5
-15719.1
-15526.3
-15034.3
-14685.2
-12899.4
-12073.4
-11237.7
-10580.2
-9811.35
-8869.98
-7828.77
-7074.94
-5749.88
-3978.34
-2628.34
-1667.48
-775.643
-181.194
-168.863
1163.17
2081.76
3943.09
8253.72
10340.6
11329
14687.7
16215.8
20274.1
24787.4
29572.4
38775.8
30641.3
41707.9
35974.8
54937.9
35705.4
49057.1
28180.3
22225
14147.2
16824.1
15009.1
26182.5
20943.8
26845.5
14003.2
14113.3
7747.07
7230.63
5725.14
4296.98
4005.72
3168.46
3048.08
2376.98
2212.35
1911.22
1038.14
698.475
-151.015
-404.688
-791.84
-1531.4
-376.659
-2518.09
569.068
-4304.19
2233.39
-5321.19
1991.83
168312
-184237
-129387
-44487.2
4538.14
61124.7
124064
77247.8
8199.2
-16317.8
-51152.6
-82321.1
-62258.2
-8598.57
14514.6
49459.3
85624.3
37882.5
-812.858
-23195.2
-36752.9
-47354.8
-23419.4
-4687.85
3369.96
11882.7
14779.6
11646.1
3730.39
-2488.82
-5252.21
-8892.12
-8328.05
-42681.7
-28845.5
-23808
-1762.54
-8454.8
-10077.5
-5613.75
-6720.12
-7914.86
-9264.74
-8470.91
-8263.19
-14693.4
-12309.9
-13884.3
-13979.5
-15726.4
-16322
-18208.8
-16481.9
-15864.3
-13668
-12592.7
-8804.83
-9079.92
-7023.39
-5913.26
-4289.82
-3301.91
-2830.92
-2193.53
-1343.79
-71.7519
1646.45
3133.69
4369.78
5948.12
6327.07
6951.8
10170.4
12442.3
19130.8
22512.3
27623.3
28641.8
34640.8
39684.2
40461.3
57116.8
52845.4
77803
56948
73568.5
53987.7
49141.9
40799.5
30362.5
23687.9
7565.1
19202.5
18265.8
12115.4
10693.1
8309.17
6597.2
5854.84
5121.53
4410.73
3130.62
3139.06
2177.56
1600.64
850.403
898.347
122.205
-422.794
-992.184
-428.251
-1637.9
-468.532
-2349.73
-360.227
-3647.52
961.645
-4714.13
793.543
-214617
201129
112607
30179.1
-9121.63
-59963.4
-117958
-101850
-16181.5
10599.1
49679.4
84523.3
58887.9
5470.5
-13896.6
-44924.3
-87489.9
-61243
-7440.51
15814
38147.7
50131.1
29902.5
7396.41
-4790.07
-12926.6
-17079.3
-16841.7
-10251.9
-5548.82
-3157.66
2927.43
14273.3
-60221.7
-2368.35
-5302.99
4929.2
-572.358
-9724.35
-5344.73
-6746.29
-8669
-10056.1
-10966.8
-9529.22
-16422.1
-14150.5
-16923
-16156.2
-15487.2
-12418.6
-10562.1
-11287.3
-11471.2
-10887.4
-10512.2
-9564.14
-8096.56
-5935.99
-4606.18
-3157.72
-2033.18
-1652.34
-1618.74
-1086.18
-942.244
119.224
729.651
2552.39
3831.19
6086.49
7496.61
9812.04
12775.8
13711.6
19047.1
22899.9
29671.4
34280.9
42798.5
45250.8
65564.6
47140.4
67448
30845.4
36715.2
14193.3
27688.9
26024.9
22245
21748.7
-570.47
22971
5487.91
8106.1
7547.86
8698.28
8008.86
7851.82
7472.86
6361.81
5205.27
4239.54
3465.9
3080.03
2586.14
1316.62
748.65
700.334
345.761
131.645
-837.711
-717.253
-1851.99
-751.641
-3324.27
24.9173
-3967.69
-60.422
185809
-174756
-135427
-45083.5
3801.36
53968.8
114874
92260.8
10685.6
-13025.3
-42392.3
-69954.2
-64313
-11362.7
6569.42
36945.7
79407.2
56687.7
3424.04
-15672.6
-37564.1
-44100.8
-29925.5
-12471.7
-2889.21
4064.43
10288.6
13415.4
7099.87
440.391
-3302.56
-7654.98
-11776.2
-72231.5
-32185.6
-48396.5
-8845.17
-9438.47
-13755.9
-6523.91
-11088.8
-12314.2
-14199
-17478.8
-17686.9
-24243.6
-23270.6
-20014.7
-14474.2
-11663.4
-8388.72
-6859.17
-6317.39
-5306.46
-3312.68
-2926.51
-1963.51
-1640.22
-1196.24
-2514.87
-2325.86
-2837.72
-1358.67
-290.982
2262.92
4078.34
5915.76
7689.25
8377.49
9834.5
10799
11628.1
12012.3
12462.5
15382
14974
25986.8
26027.8
39522.1
44282.6
49328.6
66922.6
67164.2
68933.2
61817.8
86623.4
55058.6
58322.3
47621.2
42217.8
33628.3
26166.3
21471.5
19406.4
11130
7495.4
7395.41
9549.18
8592.61
8833.37
7635.21
7494.72
5429.58
4164.97
3031.48
2365.99
1690.23
1021.34
1088.31
189.103
-600.802
-871.319
-944.398
-1375.53
-1039.21
-2929.62
-598.953
-3378.34
-1067.32
-211764
188175
118999
32402.4
-7731.91
-51378.5
-103413
-109396
-18692.9
8469.39
40773.3
69736.1
56076.5
9439.14
-7010.02
-29386.6
-59053.5
-58922
-12077
3878.34
27077.4
37091.3
26757
9152.65
-2951.22
-6960.41
-12033.5
-16275.5
-17514.1
-17555.6
-15762.8
-13411.3
-13449.7
-16025
-30592.1
10787.9
14716.7
5573.69
-8011.06
-9712.68
-11218.4
-15107.5
-14090.8
-14347.2
-16185.9
-19873.5
-15191.5
-12636.1
-11117
-9773.93
-8783.56
-7151.63
-5224.76
-3879.89
-5227.47
-4766.31
-4467.41
-4870.51
-4393.63
-2879.41
-1204.69
1259.62
3868.05
5689.08
7193.67
7593.88
8668.93
9422.45
10390.9
10956.4
11682.6
12342.1
12639.9
12866.7
15944.4
18204.8
29822.6
23097.3
35277.7
43476.4
63598.4
58009.2
65958.8
48220.5
61337.5
79682.3
70432.4
82596.1
72709.7
57713.7
42142.2
24133.8
36879.1
18724.6
8767.93
7392.49
7845.1
10546.8
9966.27
11419.6
9697.79
9289.88
8769.56
7045.67
4809.45
4031.42
3837.23
1833.91
1752.72
698.473
1966.15
576.688
-3.71741
-895.776
-470.426
-2391.16
-1117.62
-2957.34
-1501.42
197627
-158650
-118272
-39698.6
2208.11
41906.5
91653.9
96925.8
11374.2
-12429.8
-37895.7
-59829.5
-46357.8
-15296.1
-348.078
17449.3
42490.7
45105.4
6774.31
-8034.75
-28580.1
-35701.3
-26941.5
-13135.8
-3923.4
-392.083
4425.62
7335.39
9174.23
9686.73
7511.8
7445.86
2645.21
-20341.8
-100982
-50751.5
-4764.51
10157.2
6805.1
4339.13
4602.41
3721.55
-877.747
-3554.7
-4972.06
-5108.6
-4712.27
-5135.43
-4864.79
-3446.08
-2305.3
-1795.73
-803.268
-347.6
-1647.52
-940.196
-2926.1
-2021.85
-873.696
-40.6426
1322.74
2712.24
3764.64
5201.01
6662.28
8355.76
9198.37
10474.4
11678.1
12509.1
12906.7
14295.5
14232.8
14846.4
16091.9
19121.9
23178.3
34219.5
42150.3
50082.7
51805.2
53797.8
51515.5
41545.9
56705.5
53792.9
53881.8
47313.5
44990.8
50304.6
62418.9
46555.6
31324.3
20829.2
278.688
-892.338
8182.83
10673.7
9830.23
10923.7
9037.92
9022.06
9044.26
9620.73
6257.29
3883.35
3529.64
1973.07
1290.9
-1068.74
-155.226
-745.971
-929.957
-2027.71
-1846.45
-1797.86
-3185.75
-1450.64
-2053.19
-183200
153361
99922.9
27684
-5960.74
-36208.4
-70815.2
-80938.6
-19627.8
3539.17
28778.1
46319.3
34318.3
10224.5
-3069.8
-12597.4
-25506.3
-29300.8
-9934.04
-202.433
11595.3
17967
13042.6
3690.82
-2687.96
-5111.64
-5843.78
-5122.27
-6889.15
-5604.43
-4014.03
-3747.29
-348.758
-11783.4
-125103
-60393.7
8160.21
908.206
5846.06
4671.03
2185.24
2260.64
108.417
-3441.54
-8005.66
-5527.07
-5225.2
-3118.77
-1040.53
-216.795
997.19
2295.72
2809.72
2465.99
2492.97
2412.73
1933.39
1712.02
1591.14
1941.71
2772.77
4978.44
7432.48
9753.6
10666.4
11175.6
11636.7
12461.7
13133.2
14511.1
14885.3
15550.1
16752.5
17914.9
20170.1
23090.6
31017.9
39159.6
44109.4
53547.4
60191.8
41724.9
13718.3
18469.4
35981
3561.87
12874.5
13685.3
21962.5
39563.1
37876.2
40485.4
23269
20965.9
-2545.84
-2115.77
6333.38
8490.17
12369.9
13326.3
12807.2
11143.7
8361.28
9507.18
5773.64
5232.1
4527.96
1953.44
1705.52
-261.918
1011.47
-1160.31
-27.8713
-22.8126
-779.068
-482.194
-3562.61
-234.913
-3646.03
177654
-127914
-76432
-26087.5
-1233.88
18032.2
48172.7
59682.4
8235.09
-7770.3
-28690.9
-42034.6
-30281.8
-7755.93
-1798.19
3207.71
12026.8
16285.1
3883.19
-4107
-10934.5
-15587.6
-14487.1
-5640.05
-3051.41
-570.508
581.63
29.4023
1320.54
-50.9313
-4028.07
-7199.06
-20460.6
-52183.9
-112569
-64171.9
-19549.9
-5434.28
3273.54
5870.82
5619.81
3737.91
-1820.07
-5774.7
-8541.28
2437.72
5156.47
7005.83
7290.12
7820.46
8000.76
8277.31
6596.98
5815.65
5191.95
2693.72
3604.35
4444.35
6592.28
8820.76
11507.5
13444.3
13606
14056.8
14429.5
15306.6
15173.2
16165.5
16909.3
19392.3
18949.7
19302
17710
21103.1
25764
31921.5
32998.2
51706.3
34838.4
24582.8
27383.5
22336.6
15334.8
14848.6
17318.1
18990.2
10627.1
5559.51
646.437
-12941.6
-8583.78
5865.24
8833.07
3217.4
-1434.17
954.274
12910.6
11144.5
11261.7
10996.8
11196.6
10334.8
9103.76
11199.7
6592.43
6255.66
3697.06
2455.8
1783.29
432.848
417.066
-1241.37
252.571
-617.945
-2121.61
-1170.94
-3969.32
-491.221
-3860.47
-114092
95467.3
50690.4
15868.1
-3413
-17682.2
-33562.2
-36151.5
-10107.4
497.805
12173.4
19499.7
15318.6
2335.43
-2554.33
-6166.78
-10888.5
-9182.04
-4541.73
-2377.89
767.408
2813.55
5530.47
2550.64
183.774
-442.006
-426.067
617.789
1497.32
3937.49
6397.64
7802.57
3567
-8594.74
-41248.4
-35291.1
-15117.5
-11085.2
-2499.6
5994.08
11972.6
5541.79
3063.18
-542.805
2813.45
11272.9
9282.93
7944.89
7567.68
8884.37
8379.2
6894.23
8346.26
8568.89
7569.7
8353.3
9717.51
11440.9
14052.7
15918.6
18324.3
17843.9
20943.3
21361.7
22203.8
24174.9
27308.3
30751.6
35121.3
39372.8
45613.3
48229.9
50442
46979.3
42555.1
31888.6
17852.6
1872.73
-23749.3
-15693.6
-28535.3
-5373.96
3411.86
-3271.45
-16370.4
-2836.66
-10010.3
-4563.06
-9170.61
-12336.4
-12078.8
-4980.37
-17705.7
-20499.4
-25264.9
1625.67
10666.9
11625.6
14372.4
13413
12092.2
11091
7741.89
7382.82
4850.58
4704.31
3911.51
1943.47
1670.5
936.121
408.332
-561.442
-251.363
-1254.75
-1419.19
-1193.16
-2110.59
-1795.18
-3026.45
115608
-82568.9
-39213.6
-13764.7
-2424.54
5470.36
15880.6
18698
2217.99
-4759.38
-13057.1
-18157.7
-12532.2
-5509.98
-2084.86
190.29
2628.33
3148.64
1224.57
-2069.02
-3769.21
-4845.54
-5125.12
-3908.84
-2952.39
-966.663
-5.76273
-30.8668
1092.43
1813.98
-615.705
-3051.94
-6380.37
-65184.1
-20804.9
-13292.8
-27984.9
-17765.9
-4624.89
-63.4078
404.563
437.732
4038.59
9069.99
12156.4
22961.8
20219.5
19340.1
15537.8
14461.8
13314.3
14170.9
12522.5
14567.8
17975.4
23619.5
30070.9
31913.2
33294.5
35572.5
35378.5
35666.2
37395.3
38911.6
39728.6
39998.5
41348.4
42647.4
44451
44019.9
45594.7
38068
32805.6
26786.5
22064.3
12652.7
-1346.69
-18568.2
-33381.6
-39312
-44547.1
-50226.7
-37373.1
-24619.4
-10783.4
-13045.6
-13672.5
-37207.8
-25912.8
-629.071
-10291.4
-10386.3
-21429.4
-39884.9
-12312.1
6101.96
12863.1
13128.6
11756.6
10815.6
10972.6
9088.59
5628.59
4518.03
2485.04
4141.53
2938.51
2006.62
1512.08
867.745
248.192
-281.737
-857.486
-1365.15
-1475.66
-1010.94
-2260
-1929.56
-2716.43
-36737.1
37507.9
17733.5
2971.31
-3397.31
-8197.73
-13585.4
-12522.2
-4092.87
-1146.55
1698.11
4491.62
1862.3
-1183.47
-3660.43
-4102.38
-4979.78
-4215.27
-3268.1
-2314.5
-1249.63
-1392.61
-922.781
-309.128
-1101.79
-1456.42
-1043
-521.321
307.174
209.535
-1780.67
-6978.2
-31770.5
-44926
-3300.55
-2359.26
-24717.7
-23217.4
-14252.3
-5579.1
641.381
2680.76
7027.89
12893.4
15446.7
29077.1
28917.1
30170.4
30141
31297.8
31617.1
33620.9
36175
41052.1
46304.2
53689.7
52997.3
51047.3
46981.4
44139.5
43471.8
42310.7
42032.8
41547.3
39551.4
36808.8
35186.2
35979.3
40898.1
43344.4
48222.9
34941.8
31598.7
24911.2
19871.6
13080.1
4408.31
-3495.61
-16721.7
-27251.1
-43004.3
-45990.4
-41507.4
-26914.3
-18500.9
-18505.4
-1060.77
6874.29
-1683.8
-16938.6
-28506.6
-41604.4
-48623.7
-34827.8
-12821.7
-427.936
7079.43
9158.14
11361.1
10414.9
7730.07
4487.17
3637.95
2329.57
3496.2
3937.33
2606.56
2005.16
1416.76
1115.14
412.885
-251.248
-828.763
-1360.93
-1135.1
-1173.78
-1914.43
-2090.13
-2613.16
52877.7
-36188.4
-17467.8
-7220.37
-2226.67
1483.83
3300.88
2050.1
-1233.27
-2932.92
-4909.69
-6307.32
-5423.82
-3656.89
-2374.45
-1424.81
-1061.31
-1030.76
-1438.89
-1600.88
-1948.31
-2175.1
-2140.03
-2299.68
-1191.95
101.3
1036.24
2553.31
3465.38
5504.63
5613.9
3646.25
-9895.57
-42802.2
2471.96
5139.47
-303.402
94.6019
2532.54
8051.45
11591.8
16385.1
20783.1
21612.4
20457.8
29440.2
27034.7
29560.3
29236.1
29394.1
30368.9
33008.2
35638.8
37627.5
36175.9
35285.9
33796.9
34888.5
33498.2
30230.4
27961
28382.1
28595
30723
33401.8
34770.7
36318.6
35970.4
42651.4
37919.8
37105.4
28262
25917.4
20346.8
16765.3
11322.1
5951.08
-970.583
-8891.66
-15990.8
-22992.4
-27514.4
-37640.3
-36605.6
-38206.4
-31297.3
-16749.3
-16198.4
-22432.1
-15310.5
-19603.4
-30037.1
-37740
-19589.2
-6603.42
1745.66
5722.73
6521.35
9098.1
5970.23
3571.91
2947.68
1680.71
1189.49
3138.13
2459.7
1800.61
1531.59
1217.99
730.795
224.626
-417.923
-770.833
-1510.82
-826.56
-1274.87
-1844.56
-2025.68
-2565.48
3731.43
6746.98
1351.56
-1651.5
-4040.88
-5324.66
-6096.62
-4625.65
-2568.6
-1768.66
-1667.49
-754.773
-1697.93
-2305.77
-3046.45
-3106.04
-2946.13
-2789.17
-2602.78
-2201.53
-1992.57
-1925.1
-2050.72
-1943.94
-1885.54
-2208.36
-2342.69
-2409.79
-2278.86
-2274.61
-2814.66
-3343.29
-48399.6
10837.4
27957.7
22392.2
31124.9
16269.9
7039.62
3728.95
5551.6
7170.68
7861.37
10386.8
10421.7
18827.4
19892.8
22358.9
23707.2
24379.1
25959.9
27645.1
30219.1
32430.1
32017.8
24249.2
18696.9
18332.8
20501.6
21883.5
23737.5
24086
24224.3
25819
28945.4
29507.5
31475.7
31469.5
35506
25258.2
21866.1
18107.7
17465
12133.1
8291.06
4347.35
-529.121
-3588.81
-6817.19
-8670.99
-11661.1
-15258.1
-25201
-24969.1
-31448.4
-20466.4
-16828.5
-15939.8
-17188.7
-35116.1
-41797.3
-48023.1
-30825.4
-12680.6
-4087.42
1379.48
3511.8
6294.05
7240.59
4903.96
3814.85
2431.24
1423.58
3152.02
2565.73
2068.15
1366.7
1513.46
1274.3
810.853
344.695
-183.984
-613.931
-1411.6
-495.67
-1442.67
-1669.68
-1943.01
-2517.5
24252.7
-13742.1
-7686.47
-3917.65
-2150.28
-1654.19
-1647.86
-1706.79
-2017.87
-2468.89
-2749.92
-2932.47
-3052.27
-2657.98
-2456.61
-2399.17
-2259.42
-2160.53
-1988.23
-2040
-1979.4
-2152.71
-2166.43
-2051.25
-1963.24
-1646.96
-1376.17
-1110.15
-630.67
-936.247
-815.278
-7153.56
-28601.6
16231.8
31309.7
32662.5
26352.4
15695
7242.5
3116.94
1670.03
182.204
-1915.63
-3488.45
-6111.22
-336.326
431.606
2095.67
2727.89
4219.84
4346.7
5235.86
5558.71
7470.89
8855.99
18998.7
28204.3
31102.1
31093.1
30061.7
22397.4
21319.1
21527.1
22121.4
24058.3
25437.3
26127.6
26567
25309.2
22269.3
23357.8
21549.8
23750.3
19652.1
15538.2
9407.65
3828.9
-398.426
-3226.33
-7245.9
-10012.1
-14622
-18499.5
-27507.6
-33963
-40367.5
-40134.6
-39731.2
-32189.8
-37944.1
-45098.9
-32913.2
-17404.6
-6085.34
-2336.24
2971.96
4511.07
7801.87
5425.52
4107.18
2918.97
1568.93
1883.23
2580.82
2048.2
1406.74
667.617
1371.06
1245.2
518.489
260.936
-237.011
-544.215
-1248.86
-414.654
-1513.6
-1503.48
-1898.87
-2477.23
12151.3
-2241.4
-2285.69
-2953.72
-3692.21
-3722.83
-3550.72
-2968.58
-2490.26
-2271.97
-2082.9
-1916.94
-1873.99
-2344.64
-2458.91
-2534.5
-2525.13
-2555.15
-2472.54
-2205.11
-2153.45
-2277.38
-2559.72
-2901.44
-3252.47
-3894.79
-4548.37
-5630.47
-6770.79
-7433.49
-5629.59
-24675.6
30308.3
16870.1
27012.5
23407.6
18263.8
11594.9
6168.41
2242.06
-970.785
-4006.86
-6604.79
-8997.75
-10038
-7240.95
-7073.94
-7174.79
-7248.62
-7942.33
-8730.4
-9529.83
-10154.8
-10206.2
-6577.62
-4451.65
-1686.4
4311.31
7681.78
20062.2
31665.7
32411.9
30083.5
21962.3
17199.3
15933
17702
20298.6
18939.9
17727.5
19803.2
17865.3
15644.4
15346.2
13016.3
10065.8
8624.65
5096.52
2679.14
-2233.13
-4470.27
-8457.47
-12580.9
-21573.8
-25411.3
-30679
-33621.6
-45444.1
-46430
-46351.9
-31140.9
-19814.8
-8976.8
-3798.6
590.166
3154.62
4943.13
6456.69
4600.64
3617.29
2878.99
1873.93
2921.49
2162.8
1979.68
1261.85
1375.1
1587.67
1205.79
369.515
309.337
-190.421
-527.657
-945.749
-434.936
-1513.98
-1376.27
-1812.65
-2335.13
14011.5
-5496.24
-4085.6
-3238.8
-2930.17
-2402.55
-2373.66
-2511.57
-2366.93
-2511.07
-2334.27
-2340.93
-2221.98
-2254.57
-2201.06
-2169.52
-2269.28
-2133.59
-2192.51
-2290.56
-2319.84
-2372.12
-2474.44
-2679.28
-2889.12
-3169.03
-3545.78
-4114.33
-4770.21
-5131.87
-4288.24
14525.1
13837.5
24748.6
24808
21174.4
12748.1
6489.34
4905.11
4001.89
628.639
-1652.3
-2386.88
-2476.44
97.4037
4970.99
5261.64
4153.88
1740.83
-969.955
-4942.8
-9778.43
-16301
-22079
-26422
-24986.3
-21500
-13117.2
-2708.49
-482.808
3295.73
6317.25
17660.4
23766.2
23869.1
24278.2
23793.4
16696.2
8927.37
9841.53
12709.4
27012.6
24987.4
27290.1
23868.3
19395.2
14157.4
8765.41
5138.53
-3794.13
-7264.9
-9996.89
-14125.7
-24082.5
-23716.4
-34280.9
-37650.2
-36810.5
-30646.5
-23393.9
-16797.7
-9061.37
-4469.82
-1013.79
512.25
4236.7
5758.66
4975.12
4152.01
2966.24
1919.35
2139.97
3128.69
2312.43
2245.35
831.97
1788.14
1462.44
1168.93
595.025
449.667
68.3324
-375.249
-703.534
-387.12
-1305.33
-1148.89
-1600.22
-2150.18
11220.9
-3392.49
-3018.03
-2788.94
-3157.45
-2930.33
-2805.77
-2602.51
-2429.53
-2306.32
-2164.01
-2114.81
-2060.28
-2021.36
-2054.38
-2102.07
-2072.91
-2174.62
-2256.31
-2420.72
-2513.83
-2686.28
-3033.2
-3605.02
-4368.72
-5897.94
-8724.14
-12856.1
-19214.1
-28805.9
-40035.7
-11821.4
19347
8174.62
5177.09
7046.67
11403.9
12320
9802.95
9160.37
11576.5
18709.6
18724.7
14471.9
8360.55
5411.19
4477.76
4088.48
4156.12
2206.08
-135.036
-4645.4
-10901.9
-19291.1
-29540.2
-40604.4
-48011
-52458.2
-54126.1
-49166.5
-38551.1
-20283.5
-6727.81
-2760.6
3166.34
13719
20971.5
21224.8
15558.5
14314.8
9676.07
11386.1
11189.7
12133.1
18067.8
26034.2
33991.8
34059.5
33413.8
24941.8
15756.3
2720.64
-4110.59
-15724.4
-19110.1
-22151.6
-26044.9
-21000.1
-17551.7
-9981.09
-5997.89
-488.146
476.303
1348.21
3658.59
4452.65
6289.12
4576.44
3719.84
2423.86
1778.6
3043.53
3252.49
2940.39
2479.21
930.933
2898.47
1643.02
1387.02
721.119
661.788
215.264
-140.747
-503.781
-395.247
-1182.78
-1017.94
-1498.23
-1922.63
10196.4
-3795.52
-2743.47
-2447.94
-2666.49
-2741.32
-2617.18
-2516.61
-2307.75
-2408.87
-2208.66
-2169.65
-2025.94
-1934.49
-1921.85
-2023.39
-2006.35
-2011.82
-1988.88
-2175.93
-2360.1
-2499.11
-2647.17
-2767.4
-2942.57
-2837.12
-2370.97
-1599.29
283.749
2241.22
9397.94
-20069.7
-10847
16033.5
33782.5
44745.1
50957.1
41692.2
31456.6
26982.2
23200.9
17286.8
13100.7
10510.5
10827.5
10098.6
7614.07
5375.48
3561.05
2170.15
1287.94
767.162
-527.154
-2296.57
-5531.52
-9279.09
-16651.6
-25196.1
-34602.4
-45576.5
-59835.1
-70438.4
-75913.3
-55306.6
-28426
-14918.2
-9699.47
-6275.66
7118.8
13860.7
15835.4
12113.6
15183
19564.4
21270.7
23853.2
21159.2
18153.1
25311.2
18772.2
22805.4
19047.3
20877.7
18469.9
13749.1
7770.2
1328.82
-582.138
-1990.7
1702.55
1939.67
3573.72
4572.27
4148.32
5178.9
6417.72
6058.07
4287.08
3432.06
2533.66
2465.35
3391.61
3707.41
3104.59
2298.32
1342.06
3376.37
1714.97
1562.79
874.659
730.891
262.627
-139.534
-476.741
-507.785
-943.041
-914.807
-1252.04
-1691.57
8579.8
-2740.32
-2306.83
-2411.86
-2563.88
-2446.13
-2479.18
-2720.45
-2469.01
-2266.67
-2122.16
-2078.09
-1898.86
-1779.51
-1823.61
-1851.19
-1814.13
-1919.33
-2072.27
-2081.09
-2212.3
-2418.79
-2455.12
-2822.78
-3166.36
-3468.11
-3963.04
-4796.46
-5865.88
-6598.84
-9585.77
-18081.3
-23959.8
42572.1
25399.1
23323.6
29831.8
27748.6
21938.8
18705.5
13766.4
13488.1
15828
24209.2
28271.7
23459.3
13906.5
5046.69
-608.589
-1101.86
962.697
3463.09
5590.18
6117.7
4525.16
706.103
-4326.56
-11000.6
-17838.9
-22855.3
-24697.1
-27361.9
-28882.5
-36217
-37439.9
-34392.8
-26340.5
-12591.4
-9574.25
-6907.93
-6491.41
-956.912
6985.33
12343.4
17459.7
20703.6
25999.5
28170.3
31257.7
29440.3
32654.7
30787.8
23007
20427.7
15661.8
12414.4
7316.82
7834.55
8793.32
9566.05
8940.95
7667.01
8752.7
8506.24
8237.72
8324.37
6881.74
4957.79
3724.24
2691.36
3615.52
3818.45
3930.35
3088.33
1965.49
2502.16
3251.3
1867.27
1295.87
1186.13
485.658
363.097
-114.169
-324.905
-441.85
-667.451
-775.572
-990.818
-1447.64
7715.69
-2721.2
-2253.34
-2187.42
-2123.77
-2231.21
-2434.73
-2437.94
-2330.58
-2189.04
-2070.96
-2007.29
-1896.07
-1772.8
-1760.56
-1713.84
-1765.19
-1829.37
-1740.17
-1897.54
-2090.81
-2171.44
-2207.69
-2368.47
-2210.23
-2136.58
-1443.49
-477.927
1476.29
2855.51
3356.04
-5141.31
-38174.6
-18107.4
-9097.4
-20643.4
-10379.4
1561.95
16593.3
20879.8
22173.7
20312.4
16221.6
18928.5
16570.7
27579
22951
21419.7
20008.5
17527.5
15031.9
16009.4
14592.4
16060
15272.6
17533.6
19756.5
22576.7
24054.5
24462.7
24619.1
23798.2
17392.7
8389.75
2653.17
-527.417
-447.563
22.6731
-4610.67
-6120.14
-1950.77
1717.17
4877.11
7455.92
11643.5
19880.4
27877.4
29005.1
40787.7
29007.4
28346
30913
22525.7
23638
21109.4
17575.5
15097.4
14728.9
12946.3
9880.47
9388.4
9552.26
10745.8
10226.9
9856.68
8995.08
6979.81
4907.42
4154.2
3145.72
4465.66
4359.97
4236.08
3108.75
2067.72
3224.94
2938.77
1872.11
1386.76
1356.68
504.977
465.971
10.691
-172.841
-315.071
-467.139
-633.597
-781.553
-1237.72
6802.8
-2423.58
-2071.47
-2024.6
-2026.88
-2096.82
-2175.32
-2316.98
-2223.76
-2213.72
-2030.55
-1908.38
-1832.33
-1818.93
-1652.78
-1605.95
-1642.03
-1617.36
-1794.55
-1872.92
-1832.95
-1872.06
-2054.59
-1694.11
-1877.72
-1941.43
-1974.11
-1325.67
-1105.9
-2909.27
-4708.5
-12669.3
-23835.6
-35672.7
-16055.5
-10852.7
-3648.35
7654.33
9316.92
12306.2
8534.32
-1389.74
-5262.52
-9387.19
-8415.35
-5596.62
631.515
-3141.22
-2868.46
-2007.13
-4868.69
-7439.12
-8982.61
-8664.36
-2384.06
2896.05
8957.03
16612.7
26940.3
35925.6
43565
46948.6
47091.2
47623.9
39626.4
35974.6
32115.7
31150.4
33260
30468.8
31113.7
29087.5
28689.7
22510.7
22867.6
25926.7
28228.2
28102.3
35535.2
27059.6
28137.7
34907.9
30461.5
27982.2
29052.8
24555
22668.3
18414.5
14029
10624
10297.8
8690.15
9690.15
9782.07
10725.2
9536.41
7694.32
5454.46
4110.44
4235.18
4848.61
4574.83
4265.03
2985.39
2550.21
3666.92
2967.18
2034.64
1345.03
1283.22
659.377
586.188
128.082
56.7002
-252.898
-269.745
-472.513
-563.311
-1016.42
5961.63
-2267.12
-1952.19
-1846.46
-1871.86
-1933.71
-1952.72
-2059.09
-2084.86
-2012.33
-1880.81
-1861.04
-1783.85
-1726.09
-1746.86
-1507.79
-1458.1
-1542
-1581.05
-1562.98
-1573.32
-1560.02
-1488.08
-1533.88
-1597.42
-1437.75
-617.761
938.086
2289.43
5372.08
7817.69
8026.92
-6574.04
-51426.2
-29117.4
-23267.5
-25864.1
-29008.8
-31114.7
-41908.9
-41208.7
-33703.2
-25490.3