/*--------------------------------*- C++ -*----------------------------------*\
| =========                 |                                                 |
| \\      /  F ield         | OpenFOAM: The Open Source CFD Toolbox           |
|  \\    /   O peration     | Version:  2.2.x                                 |
|   \\  /    A nd           | Web:      www.OpenFOAM.org                      |
|    \\/     M anipulation  |                                                 |
\*---------------------------------------------------------------------------*/
FoamFile
{
    version     2.0;
    format      ascii;
    class       volScalarField;
    location    "0.05";
    object      By;
}
// * * * * * * * * * * * * * * * * * * * * * * * * * * * * * * * * * * * * * //

dimensions      [1 0 -2 0 0 -1 0];

internalField   nonuniform List<scalar> 
1024
(
-1
-1
-1
-1
-1
-1
-1
-1
-1
-1
-1
-1
-1
-1
-1
-1
-1
-1
-1
-1
-1
-1
-1
-1
-1
-1
-1
-1
-1
-1
-1
-1
-1
-1
-1
-1
-1
-1
-1
-1
-1
-1
-1
-1
-1
-1
-1
-1
-1
-1
-1
-1
-1
-1
-1
-1
-1
-1
-1
-1
-1
-1
-1
-1
-1
-1
-1
-1
-1
-1
-1
-1
-1
-1
-1
-1
-1
-1
-1
-1
-1
-1
-1
-1
-1
-1
-1
-1
-1
-1
-1
-1
-1
-1
-1
-1
-1
-1
-1
-1
-1
-1
-1
-1
-1
-1
-1
-1
-1
-1
-1
-1
-1
-1
-1
-1
-1
-1
-1
-1
-1
-1
-1
-1
-1
-1
-1
-1
-1
-1
-1
-1
-1
-1
-1
-1
-1
-1
-1
-1
-1
-1
-1
-1
-1
-1
-1
-1
-1
-1
-1
-1
-1
-1
-1
-1
-1
-1
-1
-1
-1
-1
-1
-1
-1
-1
-1
-1
-1
-1
-1
-1
-1
-1
-1
-1
-1
-1
-1
-1
-1
-1
-1
-1
-1
-1
-1
-1
-1
-1
-1
-1
-1
-1
-1
-1
-1
-1
-1
-1
-1
-1
-1
-1
-1
-1
-1
-1
-1
-1
-1
-1
-1
-1
-1
-1
-1
-1
-1
-1
-1
-1
-1
-1
-1
-1
-1
-1
-1
-1
-1
-1
-1
-1
-1
-1
-1
-1
-1
-1
-1
-1
-1
-1
-1
-1
-1
-1
-1
-1
-1
-1
-1
-1
-1
-1
-1
-1
-1
-1
-1
-1
-1
-1
-1
-1
-1
-1
-1
-1
-1
-1
-1
-1
-1
-1
-1
-1
-1
-1
-1
-1
-1
-1
-1
-1
-1
-1
-1
-1
-1
-1
-1
-1
-1
-1
-1
-1
-1
-1
-1
-1
-1
-0.999999
-0.999999
-0.999997
-0.999995
-0.999992
-0.999986
-0.999977
-0.999961
-0.999936
-0.999895
-0.999831
-0.999732
-0.999581
-0.999355
-0.999023
-0.998542
-0.997853
-0.996882
-0.995523
-0.993628
-0.990978
-0.987266
-0.983694
-0.980123
-0.977984
-0.97514
-0.972471
-0.969396
-0.966574
-0.963315
-0.96001
-0.95629
-0.952702
-0.948502
-0.944193
-0.939441
-0.935182
-0.93234
-0.929288
-0.926392
-0.923274
-0.919847
-0.916237
-0.912173
-0.908498
-0.904568
-0.901961
-0.898496
-0.896546
-0.894047
-0.892666
-0.89074
-0.889215
-0.887518
-0.886238
-0.885345
-0.884261
-0.883893
-0.883301
-0.883329
-0.883032
-0.883069
-0.883082
-0.883404
-0.884069
-0.885075
-0.885536
-0.88636
-0.886665
-0.887181
-0.887254
-0.887635
-0.887793
-0.888033
-0.888071
-0.888145
-0.888237
-0.888295
-0.888293
-0.888318
-0.888387
-0.888469
-0.888636
-0.888796
-0.88896
-0.889095
-0.889182
-0.889282
-0.889319
-0.889371
-0.889384
-0.889359
-0.889262
-0.88913
-0.888964
-0.888935
-0.888811
-0.888799
-0.888727
-0.888755
-0.888747
-0.888844
-0.888909
-0.889037
-0.889017
-0.889089
-0.889068
-0.889085
-0.888977
-0.888803
-0.88844
-0.888331
-0.888066
-0.887932
-0.887765
-0.887755
-0.887672
-0.887696
-0.88784
-0.888068
-0.888453
-0.888552
-0.88887
-0.888952
-0.889115
-0.889069
-0.889112
-0.888989
-0.888764
-0.888231
-0.887837
-0.887509
-0.887316
-0.887243
-0.887234
-0.887221
-0.887321
-0.886233
-0.873763
-0.757049
-0.615465
-0.54193
-0.556483
-0.531747
-0.537925
-0.539031
-0.535867
-0.536889
-0.536865
-0.536891
-0.537019
-0.536966
-0.537286
-0.537633
-0.537834
-0.537872
-0.537803
-0.537627
-0.537325
-0.536997
-0.536744
-0.536713
-0.536726
-0.536753
-0.536784
-0.53701
-0.537382
-0.537751
-0.537896
-0.537885
-0.537841
-0.537637
-0.537293
-0.537048
-0.536947
-0.536899
-0.536843
-0.536877
-0.537121
-0.53737
-0.537468
-0.537365
-0.536961
-0.536559
-0.536405
-0.536477
-0.537
-0.53773
-0.538026
-0.537888
-0.537237
-0.536685
-0.536456
-0.536536
-0.537349
-0.538491
-0.538981
-0.53884
-0.537725
-0.536251
-0.535562
-0.53552
-0.536248
-0.538632
-0.540807
-0.541345
-0.539678
-0.535742
-0.531669
-0.528888
-0.526067
-0.520983
-0.513626
-0.501815
-0.484074
-0.467789
-0.448622
-0.422576
-0.393166
-0.368987
-0.335451
-0.30886
-0.210938
-0.0341541
0.291662
0.481895
0.52326
0.532003
0.53388
0.534052
0.533696
0.533007
0.532339
0.531356
0.529603
0.527889
0.526798
0.526538
0.526408
0.526619
0.528036
0.529871
0.531364
0.534723
0.53939
0.543749
0.548937
0.5559
0.562401
0.569612
0.57755
0.585283
0.593608
0.601998
0.610382
0.618955
0.627501
0.636212
0.644861
0.653647
0.662365
0.67115
0.67999
0.688778
0.697662
0.706513
0.715451
0.7243
0.733313
0.742227
0.751372
0.760466
0.769669
0.778856
0.788046
0.797197
0.806396
0.815566
0.824879
0.834163
0.84357
0.852963
0.862395
0.871823
0.881246
0.890657
0.900045
0.909366
0.918497
0.927403
0.936045
0.944364
0.952287
0.95973
0.966609
0.972844
0.97837
0.983149
0.987173
0.990466
0.993085
0.995105
0.996618
0.997719
0.998497
0.999032
0.99939
0.999623
0.999772
0.999865
0.999922
0.999955
0.999975
0.999986
0.999992
0.999996
0.999998
0.999999
0.999999
1
1
1
1
1
1
1
1
1
1
1
1
1
1
1
1
1
1
1
1
1
1
1
1
1
1
1
1
1
1
1
1
1
1
1
1
1
1
1
1
1
1
1
1
1
1
1
1
1
1
1
1
1
1
1
1
1
1
1
1
1
1
1
1
1
1
1
1
1
1
1
1
1
1
1
1
1
1
1
1
1
1
1
1
1
1
1
1
1
1
1
1
1
1
1
1
1
1
1
1
1
1
1
1
1
1
1
1
1
1
1
1
1
1
1
1
1
1
1
1
1
1
1
1
1
1
1
1
1
1
1
1
1
1
1
1
1
1
1
1
1
1
1
1
1
1
1
1
1
1
1
1
1
1
1
1
1
1
1
1
1
1
1
1
1
1
1
1
1
1
1
1
1
1
1
1
1
1
1
1
1
1
1
1
1
1
1
1
1
1
1
1
1
1
1
1
1
1
1
1
1
1
1
1
1
1
1
1
1
1
1
1
1
1
1
1
1
1
1
1
1
1
1
1
1
1
1
1
1
1
1
1
1
1
1
1
1
1
1
1
1
1
1
1
1
1
1
1
1
1
1
1
1
1
1
1
1
1
1
1
1
1
1
1
1
1
1
1
1
1
1
1
1
1
1
1
1
1
1
1
1
1
1
1
1
1
1
1
1
1
1
1
1
1
1
1
1
1
1
1
1
1
1
1
1
1
1
1
1
1
1
1
1
1
1
1
1
1
1
1
1
1
1
1
1
1
1
1
1
1
1
1
1
1
1
1
1
1
1
1
1
1
1
1
1
1
1
1
1
1
1
1
1
1
1
1
1
1
1
1
1
1
1
1
1
1
1
1
1
1
1
1
1
1
1
1
1
1
1
1
1
1
1
1
1
1
1
1
1
1
1
1
1
1
1
1
1
1
1
1
1
1
)
;

boundaryField
{
    front-back
    {
        type            empty;
    }
    inlet-outlet
    {
        type            zeroGradient;
    }
    top-down
    {
        type            empty;
    }
}


// ************************************************************************* //
