/*--------------------------------*- C++ -*----------------------------------*\
| =========                 |                                                 |
| \\      /  F ield         | OpenFOAM: The Open Source CFD Toolbox           |
|  \\    /   O peration     | Version:  2.2.x                                 |
|   \\  /    A nd           | Web:      www.OpenFOAM.org                      |
|    \\/     M anipulation  |                                                 |
\*---------------------------------------------------------------------------*/
FoamFile
{
    version     2.0;
    format      ascii;
    class       volScalarField;
    location    "0.05";
    object      Ma;
}
// * * * * * * * * * * * * * * * * * * * * * * * * * * * * * * * * * * * * * //

dimensions      [0 0 0 0 0 0 0];

internalField   nonuniform List<scalar> 
1024
(
0
0
0
0
0
0
0
0
0
0
0
0
0
0
0
0
0
0
0
0
0
0
0
0
0
0
0
0
0
0
0
0
0
0
0
0
0
0
0
0
0
0
0
0
0
0
0
0
0
0
0
0
0
0
0
0
0
0
0
0
0
0
0
0
0
0
0
0
0
0
0
0
0
0
0
0
0
0
0
0
0
0
0
0
0
0
0
0
0
0
0
0
0
0
0
0
0
0
0
0
0
0
0
0
0
0
0
0
0
0
0
0
0
0
0
0
0
0
0
0
0
0
0
0
0
0
0
0
0
0
0
0
0
0
0
0
0
0
0
0
0
0
0
0
0
0
0
0
0
0
0
0
0
0
0
0
0
0
0
0
0
0
0
0
0
0
0
0
0
0
0
0
0
0
0
0
0
0
0
0
0
0
0
0
0
0
0
0
0
0
0
0
0
0
0
0
0
0
0
0
0
0
0
0
0
0
0
0
0
0
0
0
0
0
0
0
0
0
0
0
0
0
0
0
0
0
0
0
0
0
0
0
0
0
0
0
0
0
0
0
0
0
0
0
0
0
0
0
0
0
0
0
0
0
0
0
0
0
0
0
0
0
0
0
0
0
0
0
0
0
0
0
0
0
0
0
0
0
1.56551e-16
1.62845e-15
9.10771e-15
3.54123e-14
1.1669e-13
3.22167e-13
8.30848e-13
2.06449e-12
5.05399e-12
1.22912e-11
2.97008e-11
7.15473e-11
1.71863e-10
4.11668e-10
9.8395e-10
2.34624e-09
5.58389e-09
1.32636e-08
3.14518e-08
7.44649e-08
1.76149e-07
4.14706e-07
9.91285e-07
1.66281e-06
2.46303e-06
2.41549e-06
3.14397e-06
3.03837e-06
3.62757e-06
3.27638e-06
3.45912e-06
2.60717e-06
6.85562e-07
7.0043e-06
2.23391e-05
5.21527e-05
0.000112787
0.00022144
0.000426305
0.000774831
0.00139951
0.00241636
0.00417061
0.00692502
0.0115841
0.0188862
0.0301966
0.0428067
0.0502858
0.0593078
0.0681678
0.0763531
0.0831704
0.0913013
0.0996977
0.107387
0.11533
0.124327
0.134216
0.144123
0.153627
0.163048
0.172169
0.181214
0.190649
0.20066
0.213188
0.225
0.235869
0.241241
0.247739
0.254576
0.262413
0.269596
0.275418
0.282087
0.288098
0.29335
0.297164
0.301855
0.304956
0.307874
0.30832
0.309999
0.311148
0.311901
0.311569
0.311061
0.309717
0.306844
0.302956
0.301089
0.298824
0.297989
0.296403
0.295929
0.295113
0.295172
0.294902
0.294989
0.29509
0.295671
0.296245
0.296988
0.297214
0.297533
0.297431
0.297441
0.297108
0.296746
0.295965
0.294926
0.293592
0.292858
0.292114
0.291997
0.291719
0.291782
0.291826
0.292218
0.292756
0.293569
0.294066
0.294463
0.294403
0.294583
0.294376
0.29433
0.294034
0.293818
0.293359
0.293127
0.292839
0.292773
0.29271
0.292876
0.293179
0.293997
0.295208
0.29656
0.296812
0.29736
0.297085
0.296753
0.295446
0.294405
0.293419
0.29379
0.293705
0.294584
0.295009
0.295099
0.293514
0.290621
0.287768
0.288375
0.288836
0.293494
0.301398
0.309402
0.309563
0.307629
0.297489
0.308475
0.560684
0.910031
0.923538
0.98305
0.995776
0.978804
0.991149
0.987701
0.988042
0.987779
0.98641
0.986385
0.986519
0.986098
0.985943
0.985936
0.985546
0.985449
0.985301
0.985397
0.985221
0.985008
0.984695
0.984731
0.984916
0.985194
0.985214
0.985482
0.986365
0.987974
0.991261
0.998027
1.01076
1.03351
1.07203
1.13288
1.22062
1.30957
1.37604
1.42288
1.45448
1.47489
1.48767
1.49584
1.50097
1.50419
1.50674
1.5081
1.50859
1.50933
1.5105
1.51196
1.51302
1.51363
1.51422
1.51404
1.51344
1.51325
1.51327
1.5142
1.51614
1.51767
1.5187
1.51974
1.51886
1.51664
1.51487
1.51452
1.5139
1.51071
1.5036
1.49264
1.47755
1.45467
1.42914
1.40492
1.37446
1.34325
1.31399
1.28242
1.2403
1.19495
1.11125
1.03982
1.00268
0.731417
0.670688
0.662543
0.661076
0.660737
0.661045
0.661567
0.662507
0.664129
0.666136
0.668909
0.671718
0.673289
0.673809
0.673849
0.672988
0.671204
0.668331
0.663761
0.658351
0.651308
0.642353
0.632826
0.621981
0.609901
0.59772
0.584785
0.571436
0.557661
0.543912
0.530042
0.51633
0.502423
0.48867
0.47471
0.460928
0.447129
0.433619
0.420122
0.406784
0.393417
0.380254
0.367101
0.354125
0.341068
0.328037
0.314893
0.301775
0.288744
0.275852
0.26312
0.25058
0.238093
0.225693
0.213313
0.200963
0.188687
0.176464
0.164357
0.152355
0.140476
0.128721
0.117091
0.105559
0.0942117
0.0832718
0.0727835
0.0627917
0.0533665
0.044594
0.0365658
0.0293672
0.0230629
0.0176859
0.0132294
0.00964631
0.00685427
0.00474631
0.00320403
0.00210975
0.00135606
0.000851538
0.000522864
0.000314209
0.000184957
0.000106734
6.04304e-05
3.3592e-05
1.83457e-05
9.84964e-06
5.20159e-06
2.70338e-06
1.38339e-06
6.97334e-07
3.46398e-07
1.69635e-07
8.19252e-08
3.90326e-08
1.8352e-08
8.51751e-09
3.90333e-09
1.76674e-09
7.90008e-10
3.49065e-10
1.52443e-10
6.58079e-11
2.80925e-11
1.18612e-11
4.95112e-12
2.04337e-12
8.32433e-13
3.32917e-13
1.29994e-13
4.93929e-14
1.74491e-14
5.11186e-15
1.00661e-15
1.48774e-16
0
0
0
0
0
0
0
0
0
0
0
0
0
0
0
0
0
0
0
0
0
0
0
0
0
0
0
0
0
0
0
0
0
0
0
0
0
0
0
0
0
0
0
0
0
0
0
0
0
0
0
0
0
0
0
0
0
0
0
0
0
0
0
0
0
0
0
0
0
0
0
0
0
0
0
0
0
0
0
0
0
0
0
0
0
0
0
0
0
0
0
0
0
0
0
0
0
0
0
0
0
0
0
0
0
0
0
0
0
0
0
0
0
0
0
0
0
0
0
0
0
0
0
0
0
0
0
0
0
0
0
0
0
0
0
0
0
0
0
0
0
0
0
0
0
0
0
0
0
0
0
0
0
0
0
0
0
0
0
0
0
0
0
0
0
0
0
0
0
0
0
0
0
0
0
0
0
0
0
0
0
0
0
0
0
0
0
0
0
0
0
0
0
0
0
0
0
0
0
0
0
0
0
0
0
0
0
0
0
0
0
0
0
0
0
0
0
0
0
0
0
0
0
0
0
0
0
0
0
0
0
0
0
0
0
0
0
0
0
0
0
0
0
0
0
0
0
0
0
0
0
0
0
0
0
0
0
0
0
0
0
0
0
0
0
0
0
0
0
0
0
0
0
0
0
0
0
0
0
0
0
0
0
0
0
0
0
0
0
0
0
0
0
0
0
0
0
0
0
0
0
0
0
0
0
0
0
0
0
0
0
0
0
0
0
0
0
0
0
0
0
0
0
0
0
0
0
0
0
0
0
0
0
0
0
0
0
0
0
0
0
0
0
0
0
0
0
0
0
0
0
0
0
0
0
0
0
0
0
0
0
0
0
0
0
0
0
0
0
0
0
0
0
0
0
0
0
0
0
)
;

boundaryField
{
    front-back
    {
        type            empty;
    }
    inlet-outlet
    {
        type            calculated;
        value           uniform 0;
    }
    top-down
    {
        type            empty;
    }
}


// ************************************************************************* //
