/*--------------------------------*- C++ -*----------------------------------*\
| =========                 |                                                 |
| \\      /  F ield         | OpenFOAM: The Open Source CFD Toolbox           |
|  \\    /   O peration     | Version:  2.2.x                                 |
|   \\  /    A nd           | Web:      www.OpenFOAM.org                      |
|    \\/     M anipulation  |                                                 |
\*---------------------------------------------------------------------------*/
FoamFile
{
    version     2.0;
    format      ascii;
    class       volScalarField;
    location    "0.05";
    object      p;
}
// * * * * * * * * * * * * * * * * * * * * * * * * * * * * * * * * * * * * * //

dimensions      [1 -1 -2 0 0 0 0];

internalField   nonuniform List<scalar> 
1024
(
0.1
0.1
0.1
0.1
0.1
0.1
0.1
0.1
0.1
0.1
0.1
0.1
0.1
0.1
0.1
0.1
0.1
0.1
0.1
0.1
0.1
0.1
0.1
0.1
0.1
0.1
0.1
0.1
0.1
0.1
0.1
0.1
0.1
0.1
0.1
0.1
0.1
0.1
0.1
0.1
0.1
0.1
0.1
0.1
0.1
0.1
0.1
0.1
0.1
0.1
0.1
0.1
0.1
0.1
0.1
0.1
0.1
0.1
0.1
0.1
0.1
0.1
0.1
0.1
0.1
0.1
0.1
0.1
0.1
0.1
0.1
0.1
0.1
0.1
0.1
0.1
0.1
0.1
0.1
0.1
0.1
0.1
0.1
0.1
0.1
0.1
0.1
0.1
0.1
0.1
0.1
0.1
0.1
0.1
0.1
0.1
0.1
0.1
0.1
0.1
0.1
0.1
0.1
0.1
0.1
0.1
0.1
0.1
0.1
0.1
0.1
0.1
0.1
0.1
0.1
0.1
0.1
0.1
0.1
0.1
0.1
0.1
0.1
0.1
0.1
0.1
0.1
0.1
0.1
0.1
0.1
0.1
0.1
0.1
0.1
0.1
0.1
0.1
0.1
0.1
0.1
0.1
0.1
0.1
0.1
0.1
0.1
0.1
0.1
0.1
0.1
0.1
0.1
0.1
0.1
0.1
0.1
0.1
0.1
0.1
0.1
0.1
0.1
0.1
0.1
0.1
0.1
0.1
0.1
0.1
0.1
0.1
0.1
0.1
0.1
0.1
0.1
0.1
0.1
0.1
0.1
0.1
0.1
0.1
0.1
0.1
0.1
0.1
0.1
0.1
0.1
0.1
0.1
0.1
0.1
0.1
0.1
0.1
0.1
0.1
0.1
0.1
0.1
0.1
0.1
0.1
0.1
0.1
0.1
0.1
0.1
0.1
0.1
0.1
0.1
0.1
0.1
0.1
0.1
0.1
0.1
0.1
0.1
0.1
0.1
0.1
0.1
0.1
0.1
0.1
0.1
0.1
0.1
0.1
0.1
0.1
0.1
0.1
0.1
0.1
0.1
0.1
0.1
0.1
0.1
0.1
0.1
0.1
0.1
0.1
0.1
0.1
0.1
0.1
0.1
0.1
0.1
0.1
0.1
0.1
0.1
0.1
0.1
0.1
0.1
0.1
0.1
0.1
0.1
0.1
0.1
0.1
0.1
0.1
0.1
0.1
0.1
0.1
0.1
0.1
0.1
0.1
0.1
0.1
0.1
0.1
0.1
0.1
0.1
0.1
0.1
0.1
0.1
0.1
0.1
0.1
0.1
0.1
0.1
0.1
0.1
0.1
0.0999999
0.0999999
0.0999998
0.0999996
0.0999994
0.0999989
0.0999981
0.0999968
0.0999947
0.0999914
0.0999861
0.0999778
0.0999652
0.0999461
0.0999178
0.0998766
0.0998173
0.0997332
0.099615
0.0994499
0.0992185
0.0988916
0.0984798
0.0979617
0.0978757
0.0972568
0.0973249
0.0967812
0.0966593
0.0961976
0.0960017
0.0955392
0.0952476
0.0947454
0.0944024
0.0937641
0.0933958
0.0929538
0.0924832
0.0924052
0.0919472
0.0916864
0.0913532
0.0909186
0.0905863
0.0900111
0.089839
0.0891981
0.089278
0.0886306
0.0888425
0.0883401
0.0884373
0.0880988
0.0880924
0.0878927
0.0877833
0.0877986
0.0875859
0.0877377
0.0875732
0.0877236
0.0876258
0.0877239
0.0877569
0.087878
0.0878838
0.088086
0.0879858
0.0882017
0.0880669
0.0882304
0.0881315
0.0882463
0.0881778
0.0882443
0.0882123
0.088227
0.0882302
0.0882433
0.088242
0.0882478
0.0882707
0.0882782
0.0883117
0.0883034
0.0883152
0.0883429
0.088319
0.088336
0.0883072
0.0883093
0.0882833
0.0882618
0.0882256
0.088237
0.0881817
0.0882206
0.0881762
0.0882156
0.0881884
0.0882242
0.0882183
0.0882576
0.0882319
0.0882776
0.0882387
0.0882743
0.0882418
0.0882418
0.0881835
0.0881971
0.0881178
0.0881661
0.0880858
0.0881235
0.0880911
0.0881205
0.0881096
0.0881404
0.0882049
0.088176
0.0882837
0.0882108
0.0883069
0.0882339
0.0882847
0.0882279
0.0882318
0.0881718
0.0881569
0.0880644
0.0880838
0.0880697
0.0880572
0.0880841
0.0881456
0.0882371
0.0891798
0.0978632
0.194529
0.392489
0.486175
0.497868
0.515597
0.513019
0.510596
0.510197
0.509733
0.509903
0.50994
0.50979
0.509726
0.509899
0.510196
0.510373
0.510451
0.510454
0.51041
0.510354
0.510082
0.509785
0.509584
0.509517
0.509536
0.509612
0.509841
0.510138
0.510235
0.510269
0.510264
0.510207
0.510088
0.509965
0.50982
0.509635
0.509569
0.509684
0.509887
0.510138
0.51029
0.510249
0.509972
0.509539
0.509209
0.509146
0.509396
0.509955
0.510421
0.510476
0.5102
0.509416
0.5088
0.508457
0.508498
0.509248
0.510038
0.510382
0.510377
0.509367
0.508156
0.507602
0.507418
0.508246
0.510136
0.511078
0.511288
0.509662
0.508846
0.509916
0.512777
0.518458
0.527413
0.538402
0.550195
0.558884
0.568702
0.583349
0.601864
0.626188
0.655559
0.683574
0.704297
0.730237
0.717582
0.613266
0.51515
0.489032
0.483518
0.482417
0.482029
0.481783
0.481507
0.481057
0.480042
0.478908
0.477471
0.476293
0.475728
0.475689
0.47621
0.476553
0.477261
0.479663
0.482826
0.485249
0.489753
0.495359
0.500403
0.506617
0.513554
0.520361
0.527722
0.535491
0.543174
0.551298
0.55933
0.567625
0.576019
0.584602
0.593167
0.601964
0.610839
0.619762
0.628904
0.638026
0.647388
0.656722
0.66632
0.675783
0.685679
0.69552
0.705684
0.715893
0.726256
0.736615
0.747143
0.757609
0.768368
0.77915
0.790187
0.80132
0.812608
0.823992
0.83547
0.847025
0.858651
0.870327
0.882001
0.893516
0.90482
0.915855
0.926541
0.936778
0.946449
0.955437
0.963626
0.970923
0.977265
0.982632
0.987046
0.990571
0.993303
0.995358
0.996859
0.997923
0.998658
0.999152
0.999475
0.999682
0.999811
0.99989
0.999937
0.999965
0.99998
0.999989
0.999994
0.999997
0.999998
0.999999
1
1
1
1
1
1
1
1
1
1
1
1
1
1
1
1
1
1
1
1
1
1
1
1
1
1
1
1
1
1
1
1
1
1
1
1
1
1
1
1
1
1
1
1
1
1
1
1
1
1
1
1
1
1
1
1
1
1
1
1
1
1
1
1
1
1
1
1
1
1
1
1
1
1
1
1
1
1
1
1
1
1
1
1
1
1
1
1
1
1
1
1
1
1
1
1
1
1
1
1
1
1
1
1
1
1
1
1
1
1
1
1
1
1
1
1
1
1
1
1
1
1
1
1
1
1
1
1
1
1
1
1
1
1
1
1
1
1
1
1
1
1
1
1
1
1
1
1
1
1
1
1
1
1
1
1
1
1
1
1
1
1
1
1
1
1
1
1
1
1
1
1
1
1
1
1
1
1
1
1
1
1
1
1
1
1
1
1
1
1
1
1
1
1
1
1
1
1
1
1
1
1
1
1
1
1
1
1
1
1
1
1
1
1
1
1
1
1
1
1
1
1
1
1
1
1
1
1
1
1
1
1
1
1
1
1
1
1
1
1
1
1
1
1
1
1
1
1
1
1
1
1
1
1
1
1
1
1
1
1
1
1
1
1
1
1
1
1
1
1
1
1
1
1
1
1
1
1
1
1
1
1
1
1
1
1
1
1
1
1
1
1
1
1
1
1
1
1
1
1
1
1
1
1
1
1
1
1
1
1
1
1
1
1
1
1
1
1
1
1
1
1
1
1
1
1
1
1
1
1
1
1
1
1
1
1
1
1
1
1
1
1
1
1
1
1
1
1
1
1
1
1
1
1
1
1
1
1
1
1
1
1
1
1
1
1
1
1
1
1
1
1
1
1
1
1
1
1
1
1
1
1
1
1
1
1
1
1
1
1
1
1
1
1
1
1
1
1
1
1
1
1
)
;

boundaryField
{
    front-back
    {
        type            empty;
    }
    inlet-outlet
    {
        type            zeroGradient;
    }
    top-down
    {
        type            empty;
    }
}


// ************************************************************************* //
