/*--------------------------------*- C++ -*----------------------------------*\
| =========                 |                                                 |
| \\      /  F ield         | OpenFOAM: The Open Source CFD Toolbox           |
|  \\    /   O peration     | Version:  2.2.x                                 |
|   \\  /    A nd           | Web:      www.OpenFOAM.org                      |
|    \\/     M anipulation  |                                                 |
\*---------------------------------------------------------------------------*/
FoamFile
{
    version     2.0;
    format      ascii;
    class       volScalarField;
    location    "0.03";
    object      By;
}
// * * * * * * * * * * * * * * * * * * * * * * * * * * * * * * * * * * * * * //

dimensions      [1 0 -2 0 0 -1 0];

internalField   nonuniform List<scalar> 
255
(
1.41047
1.41047
1.41047
1.41047
1.41047
1.41047
1.41047
1.41047
1.41047
1.41047
1.41047
1.41047
1.41047
1.41047
1.41047
1.41047
1.41047
1.41047
1.41047
1.41047
1.41047
1.41047
1.41047
1.41047
1.41047
1.41047
1.41047
1.41047
1.41047
1.41047
1.41047
1.41047
1.41047
1.41047
1.41047
1.41047
1.41047
1.41047
1.41047
1.41047
1.41047
1.41047
1.41047
1.41047
1.41047
1.41047
1.41047
1.41047
1.41047
1.41047
1.41047
1.41047
1.41047
1.41047
1.41047
1.41047
1.41047
1.41047
1.41047
1.41047
1.41047
1.41047
1.41047
1.41047
1.41047
1.41047
1.41047
1.41047
1.41047
1.41047
1.41047
1.41047
1.41047
1.41047
1.41047
1.41047
1.41047
1.41047
1.41047
1.41047
1.41047
1.41047
1.41047
1.41047
1.41047
1.41047
1.41047
1.41047
1.41047
1.41047
1.42135
3.47646
5.21503
5.40599
5.42615
5.42721
5.42712
5.42703
5.42706
5.42705
5.42718
5.42746
5.42766
5.42766
5.42743
5.42663
5.42473
5.42089
5.41339
5.39878
5.37232
5.32767
5.25505
5.14113
4.97231
4.7396
4.50269
4.31628
4.17813
4.08546
4.03439
4.01335
4.00498
3.99954
3.99391
3.98252
3.96072
3.9294
3.89556
3.86904
3.8517
3.84181
3.83689
3.83485
3.83432
3.83462
3.83572
3.83719
3.83831
3.83892
3.83922
3.83932
3.83932
3.83918
3.83905
3.83897
3.83891
3.83887
3.83893
3.839
3.83897
3.83893
3.83891
3.83886
3.83876
3.83875
3.83885
3.83894
3.83895
3.83886
3.83855
3.83694
3.78873
3.30702
1.81886
1.41047
1.41047
1.41047
1.41047
1.41047
1.41047
1.41047
1.41047
1.41047
1.41047
1.41047
1.41047
1.41047
1.41047
1.41047
1.41047
1.41047
1.41047
1.41047
1.41047
1.41047
1.41047
1.41047
1.41047
1.41047
1.41047
1.41047
1.41047
1.41047
1.41047
1.41047
1.41047
1.41047
1.41047
1.41047
1.41047
1.41047
1.41047
1.41047
1.41047
1.41047
1.41047
1.41047
1.41047
1.41047
1.41047
1.41047
1.41047
1.41047
1.41047
1.41047
1.41047
1.41047
1.41047
1.41047
1.41047
1.41047
1.41047
1.41047
1.41047
1.41047
1.41047
1.41047
1.41047
1.41047
1.41047
1.41047
1.41047
1.41047
1.41047
1.41047
1.41047
1.41047
1.41047
1.41047
1.41047
1.41047
1.41047
1.41047
1.41047
1.41047
1.41047
1.41047
1.41047
1.41047
1.41047
1.41047
1.41047
1.41047
1.41047
)
;

boundaryField
{
    front-back
    {
        type            empty;
    }
    inlet-outlet
    {
        type            calculated;
        value           nonuniform List<scalar> 2(1.41047 1.41047);
    }
    top-down
    {
        type            empty;
    }
}


// ************************************************************************* //
