/*--------------------------------*- C++ -*----------------------------------*\
| =========                 |                                                 |
| \\      /  F ield         | OpenFOAM: The Open Source CFD Toolbox           |
|  \\    /   O peration     | Version:  2.2.x                                 |
|   \\  /    A nd           | Web:      www.OpenFOAM.org                      |
|    \\/     M anipulation  |                                                 |
\*---------------------------------------------------------------------------*/
FoamFile
{
    version     2.0;
    format      ascii;
    class       volScalarField;
    location    "0.65";
    object      T;
}
// * * * * * * * * * * * * * * * * * * * * * * * * * * * * * * * * * * * * * //

dimensions      [0 0 0 1 0 0 0];

internalField   nonuniform List<scalar> 
14161
(
1
1
0.999999
0.999999
0.999998
0.999996
0.999993
0.999989
0.999981
0.99997
0.999952
0.999924
0.999882
0.99982
0.99973
0.999604
0.999428
0.999188
0.998868
0.998449
0.997911
0.997233
0.996397
0.995383
0.994178
0.992771
0.991164
0.989342
0.987351
0.985197
0.982853
0.98059
0.978164
0.975761
0.973676
0.971673
0.970069
0.968995
0.968541
0.968542
0.969154
0.970401
0.972361
0.97531
0.97958
0.984099
0.990755
1.00003
1.01061
1.02268
1.03714
1.0599
1.07449
1.18261
2.66208
2.99882
3.04386
3.04192
3.02032
3.00908
2.97922
2.94866
2.91446
2.87897
2.84479
2.81082
2.78077
2.75601
2.73071
2.71092
2.69354
2.67542
2.65571
2.63709
2.6259
2.62186
2.62048
2.61679
2.61036
2.60837
2.57531
2.56386
2.56099
2.58521
2.53825
2.52657
2.52707
2.47925
2.45765
2.44563
2.42279
2.41717
2.40909
2.37144
2.42437
2.44035
2.53141
2.62619
2.70665
2.78547
2.85976
2.91905
2.97009
3.00838
3.0382
3.06529
3.08587
3.09691
3.10591
3.11887
3.13331
3.14608
3.15458
3.16337
3.17652
3.19285
3.21278
3.22739
3.23546
1
1
0.999999
0.999999
0.999998
0.999996
0.999993
0.999989
0.999981
0.99997
0.999952
0.999924
0.999882
0.99982
0.99973
0.999604
0.999428
0.999188
0.998868
0.998449
0.99791
0.997233
0.996396
0.995381
0.994176
0.992771
0.991157
0.989342
0.987356
0.985157
0.982845
0.980568
0.978119
0.97572
0.973561
0.971578
0.969939
0.968799
0.968219
0.968108
0.968589
0.969693
0.971556
0.974413
0.978521
0.982758
0.989101
0.99801
1.00776
1.019
1.03566
1.06227
1.07682
1.18236
2.65901
3.00386
3.04779
3.0332
3.00679
2.98097
2.95541
2.92686
2.89578
2.85913
2.82425
2.79287
2.76349
2.73653
2.7075
2.68667
2.66987
2.65683
2.64344
2.62865
2.61628
2.61036
2.60247
2.59632
2.59383
2.59127
2.55765
2.54451
2.53839
2.55927
2.51058
2.49887
2.49883
2.44978
2.42699
2.4167
2.41084
2.42958
2.43797
2.44233
2.5375
2.60144
2.72437
2.82166
2.88974
2.93557
2.96721
2.99658
3.0264
3.05011
3.07119
3.09115
3.10609
3.11374
3.12069
3.13176
3.14473
3.15669
3.16515
3.1736
3.18582
3.20101
3.21851
3.22878
3.23713
1
1
0.999999
0.999999
0.999998
0.999996
0.999993
0.999989
0.999981
0.99997
0.999952
0.999924
0.999882
0.99982
0.999731
0.999604
0.999428
0.999188
0.998868
0.998449
0.997911
0.997233
0.996395
0.99538
0.994173
0.992765
0.991145
0.989327
0.987332
0.985085
0.982829
0.980496
0.977998
0.975637
0.973358
0.971264
0.969609
0.968314
0.967515
0.967155
0.967352
0.968193
0.969708
0.972211
0.975747
0.979312
0.985007
0.992875
1.0014
1.01205
1.02749
1.05377
1.06955
1.17246
2.64774
3.01794
3.05868
3.04209
3.01687
2.97634
2.94476
2.9119
2.88217
2.84295
2.806
2.77581
2.74589
2.71745
2.69201
2.66812
2.64996
2.63749
2.6276
2.61552
2.60411
2.59552
2.58306
2.57479
2.5749
2.57442
2.54025
2.53094
2.5194
2.52947
2.48094
2.46307
2.4698
2.42895
2.41667
2.42127
2.41763
2.46607
2.49453
2.53053
2.62978
2.73284
2.83504
2.94571
3.01573
3.04531
3.05249
3.06189
3.07693
3.09079
3.10315
3.11623
3.12606
3.13046
3.13531
3.14421
3.15489
3.16507
3.17276
3.18016
3.19121
3.20501
3.22011
3.22707
3.23424
1
1
0.999999
0.999999
0.999998
0.999996
0.999993
0.999989
0.999982
0.99997
0.999952
0.999924
0.999882
0.99982
0.999731
0.999604
0.999429
0.999189
0.998869
0.99845
0.997911
0.997233
0.996394
0.995377
0.994168
0.992753
0.991132
0.989307
0.987269
0.985027
0.982803
0.980332
0.977824
0.975436
0.973052
0.970749
0.968869
0.967353
0.96645
0.965783
0.96548
0.965773
0.966433
0.968162
0.970679
0.973652
0.978357
0.984491
0.990654
0.999383
1.01233
1.03808
1.06046
1.13898
2.58618
3.02196
3.06554
3.02626
3.01238
2.9656
2.92663
2.88913
2.85463
2.81079
2.76661
2.73481
2.70108
2.67068
2.64646
2.62388
2.60617
2.59412
2.58423
2.57415
2.56514
2.5558
2.54601
2.53685
2.53193
2.53267
2.50015
2.4917
2.47719
2.48061
2.43797
2.42756
2.44885
2.42917
2.41525
2.45199
2.46321
2.53801
2.62336
2.71535
2.8155
2.94343
3.01895
3.0763
3.12566
3.14858
3.14925
3.1464
3.15083
3.1556
3.15743
3.15905
3.15947
3.15917
3.16135
3.16695
3.17366
3.18048
3.18544
3.18966
3.19734
3.20781
3.22078
3.22536
3.23214
1
1
0.999999
0.999999
0.999998
0.999996
0.999993
0.999989
0.999982
0.99997
0.999952
0.999924
0.999882
0.999821
0.999732
0.999605
0.99943
0.99919
0.99887
0.998451
0.997913
0.997234
0.996394
0.995375
0.994161
0.992739
0.991113
0.989272
0.98717
0.98501
0.982683
0.9801
0.977609
0.97511
0.972478
0.970233
0.96806
0.965959
0.96461
0.963692
0.962857
0.962033
0.961614
0.962047
0.963045
0.965492
0.968277
0.971636
0.975215
0.978794
0.986953
1.00818
1.02913
1.07521
2.48646
3.01518
3.06948
3.00594
2.98882
2.93212
2.88555
2.84215
2.80292
2.75621
2.70648
2.67561
2.63723
2.60561
2.58544
2.56572
2.54651
2.53236
2.52077
2.51361
2.50557
2.49778
2.49095
2.48196
2.47508
2.47545
2.44639
2.43881
2.42786
2.43989
2.41047
2.42656
2.43297
2.44463
2.43886
2.51048
2.57361
2.67323
2.7743
2.87381
2.97576
3.05437
3.0948
3.1284
3.1593
3.18148
3.19273
3.19674
3.20107
3.2036
3.2027
3.19889
3.19331
3.18879
3.1869
3.18756
3.18959
3.1925
3.19568
3.19911
3.20316
3.21023
3.22106
3.22452
3.23086
1
1
0.999999
0.999999
0.999998
0.999996
0.999993
0.999989
0.999982
0.99997
0.999952
0.999924
0.999883
0.999821
0.999732
0.999606
0.999431
0.999192
0.998873
0.998454
0.997915
0.997235
0.996394
0.995373
0.994153
0.992725
0.991087
0.989221
0.98709
0.984941
0.982481
0.97985
0.977365
0.974632
0.971737
0.969373
0.967123
0.964532
0.962163
0.960403
0.958989
0.957896
0.956711
0.954996
0.953565
0.953497
0.954025
0.954405
0.955202
0.953935
0.951706
0.95432
0.963916
1.01429
2.32762
2.97155
3.05143
2.95083
2.91599
2.83505
2.78508
2.7428
2.70756
2.66534
2.62174
2.5945
2.56031
2.53794
2.51426
2.50085
2.48454
2.46459
2.45333
2.44253
2.43281
2.43071
2.42737
2.42146
2.41574
2.41226
2.40012
2.39728
2.4025
2.41841
2.40113
2.43986
2.44961
2.49225
2.53159
2.634
2.74457
2.82821
2.93183
3.01946
3.06625
3.10023
3.12751
3.15341
3.17549
3.19471
3.21212
3.2245
3.2307
3.23314
3.23473
3.23273
3.22637
3.2172
3.21033
3.20596
3.20437
3.2051
3.20626
3.20751
3.20785
3.21231
3.22168
3.22418
3.22887
1
1
0.999999
0.999999
0.999998
0.999996
0.999993
0.999989
0.999982
0.99997
0.999952
0.999925
0.999883
0.999822
0.999734
0.999608
0.999433
0.999195
0.998876
0.998457
0.997919
0.997239
0.996396
0.995371
0.994145
0.992709
0.991049
0.989161
0.987051
0.984784
0.98225
0.97962
0.976984
0.973965
0.97112
0.968365
0.965339
0.962722
0.960197
0.957353
0.954061
0.951906
0.95077
0.948591
0.944898
0.939455
0.935711
0.9313
0.929186
0.92488
0.915834
0.891359
0.872054
0.910877
1.87784
2.91618
3.05838
2.85702
2.79416
2.71346
2.67492
2.63641
2.59859
2.57516
2.53116
2.50931
2.48068
2.46018
2.43621
2.4238
2.40958
2.39529
2.38484
2.37404
2.36744
2.36764
2.36786
2.37034
2.36701
2.36373
2.3738
2.38133
2.38985
2.41181
2.41332
2.47711
2.52206
2.59692
2.70433
2.78592
2.90019
2.98086
3.02911
3.06898
3.09454
3.11748
3.14005
3.16155
3.18088
3.20017
3.22056
3.23897
3.25107
3.25675
3.25833
3.25525
3.24727
3.23818
3.22973
3.22283
3.21848
3.21644
3.2156
3.21456
3.21275
3.21507
3.22186
3.22316
3.22618
1
1
0.999999
0.999999
0.999998
0.999996
0.999994
0.999989
0.999982
0.999971
0.999953
0.999925
0.999884
0.999823
0.999735
0.99961
0.999436
0.999198
0.99888
0.998462
0.997924
0.997244
0.9964
0.995372
0.994139
0.992692
0.991013
0.989089
0.986991
0.984617
0.981978
0.979371
0.976489
0.97327
0.970432
0.967435
0.963483
0.960297
0.958046
0.954863
0.949709
0.945569
0.942485
0.940424
0.937135
0.92856
0.918903
0.909821
0.898899
0.892642
0.879263
0.830552
0.786889
0.77784
1.12076
2.71204
2.99694
2.74876
2.68083
2.61916
2.58408
2.54242
2.50101
2.48591
2.44185
2.4281
2.39811
2.38616
2.36474
2.35062
2.3416
2.33146
2.32579
2.32097
2.31589
2.32198
2.32714
2.33336
2.34274
2.33919
2.36839
2.38452
2.39605
2.45019
2.49192
2.57992
2.676
2.75098
2.85301
2.94112
2.99917
3.0311
3.05589
3.07974
3.10344
3.12262
3.14103
3.16079
3.18137
3.20378
3.22703
3.24783
3.26157
3.26712
3.26823
3.26509
3.2594
3.25358
3.24619
3.23816
3.23114
3.22683
3.22437
3.22163
3.21823
3.21808
3.22137
3.22127
3.22315
1
1
0.999999
0.999999
0.999998
0.999996
0.999994
0.999989
0.999982
0.999971
0.999953
0.999926
0.999885
0.999825
0.999737
0.999613
0.99944
0.999203
0.998886
0.998469
0.997932
0.997251
0.996406
0.995374
0.994136
0.992674
0.99098
0.989038
0.986871
0.984458
0.981764
0.97896
0.976013
0.972686
0.969306
0.966074
0.962341
0.958196
0.95464
0.951159
0.946749
0.940813
0.935297
0.931264
0.927714
0.921608
0.908392
0.895339
0.881728
0.871242
0.859619
0.834265
0.794512
0.781605
0.850374
2.47081
2.8134
2.68099
2.60443
2.54377
2.50317
2.46857
2.424
2.41272
2.37432
2.3639
2.34332
2.33222
2.31685
2.30084
2.29465
2.28566
2.28907
2.28981
2.28245
2.30038
2.31248
2.31368
2.34607
2.34681
2.39707
2.43978
2.48175
2.568
2.65837
2.72621
2.8197
2.90876
2.9755
3.00989
3.02894
3.04142
3.0581
3.08061
3.10044
3.11845
3.13698
3.15952
3.18265
3.20668
3.2305
3.25005
3.26016
3.2656
3.27068
3.2714
3.26899
3.26558
3.25985
3.25125
3.24245
3.23649
3.23269
3.22843
3.22339
3.22073
3.22078
3.21924
3.22013
1
1
0.999999
0.999999
0.999998
0.999996
0.999994
0.999989
0.999982
0.999971
0.999954
0.999927
0.999886
0.999826
0.99974
0.999616
0.999444
0.999209
0.998894
0.998478
0.997942
0.997262
0.996415
0.99538
0.994136
0.992664
0.990949
0.988986
0.986755
0.984287
0.981558
0.978538
0.975409
0.972185
0.96828
0.964515
0.960935
0.956714
0.951547
0.947088
0.943063
0.938082
0.930633
0.923976
0.918294
0.913307
0.905278
0.888816
0.874048
0.859334
0.848947
0.821934
0.77157
0.728633
0.979712
2.1031
2.57764
2.63112
2.57122
2.512
2.46652
2.42978
2.37914
2.35911
2.33201
2.31861
2.31451
2.29847
2.28678
2.26816
2.26839
2.25947
2.27285
2.27993
2.26791
2.30244
2.32727
2.33112
2.394
2.43229
2.5081
2.59059
2.64724
2.72497
2.82718
2.89779
2.95747
2.99328
3.0164
3.02769
3.03342
3.04319
3.05942
3.07488
3.09279
3.11174
3.13511
3.15944
3.18227
3.20544
3.22705
3.24194
3.25176
3.26218
3.27019
3.27433
3.27554
3.27436
3.27001
3.26136
3.25158
3.245
3.24029
3.2345
3.22807
3.22341
3.22042
3.21735
3.21754
1
1
0.999999
0.999999
0.999998
0.999996
0.999994
0.99999
0.999983
0.999972
0.999954
0.999928
0.999888
0.999829
0.999743
0.999621
0.99945
0.999217
0.998903
0.99849
0.997955
0.997276
0.996429
0.995391
0.994141
0.992657
0.990926
0.988937
0.986665
0.984094
0.981356
0.978229
0.974824
0.971473
0.967601
0.963261
0.959341
0.955169
0.949633
0.944208
0.939793
0.934935
0.928412
0.919974
0.912742
0.907886
0.901122
0.890204
0.875423
0.862682
0.85404
0.839278
0.838923
0.882028
1.42144
2.01883
2.38597
2.57545
2.59641
2.50224
2.46101
2.42727
2.3617
2.33461
2.3104
2.29413
2.29942
2.27932
2.27178
2.25362
2.26327
2.25269
2.28286
2.30233
2.2945
2.36394
2.41069
2.43132
2.52845
2.61611
2.68448
2.76253
2.84067
2.90713
2.9674
2.99205
3.00503
3.01596
3.02227
3.02553
3.03117
3.04254
3.05339
3.06895
3.08644
3.10774
3.13406
3.15832
3.17932
3.20065
3.2191
3.23214
3.24525
3.25794
3.26797
3.27487
3.27885
3.2794
3.27627
3.26833
3.25881
3.25232
3.24685
3.23947
3.23192
3.22599
3.22075
3.21608
3.21592
1
1
0.999999
0.999999
0.999998
0.999996
0.999994
0.99999
0.999983
0.999972
0.999955
0.999929
0.99989
0.999831
0.999747
0.999626
0.999457
0.999226
0.998915
0.998504
0.997972
0.997295
0.996448
0.995409
0.994154
0.992661
0.990914
0.988899
0.986598
0.983983
0.981134
0.977985
0.974434
0.970736
0.967012
0.96247
0.957779
0.953495
0.948695
0.942629
0.936833
0.93222
0.926518
0.91869
0.911609
0.905073
0.89983
0.891283
0.87781
0.867065
0.855741
0.845298
0.844325
0.886287
1.70583
2.16103
2.24938
2.43474
2.52485
2.53495
2.47246
2.43205
2.3661
2.34597
2.30768
2.28833
2.29461
2.28285
2.26352
2.27737
2.29956
2.28322
2.35014
2.39656
2.41123
2.49635
2.57848
2.64198
2.72495
2.82589
2.88446
2.94305
2.98338
3.00023
3.00886
3.01539
3.01846
3.01815
3.01846
3.02213
3.0306
3.03844
3.0504
3.0656
3.08299
3.10498
3.13063
3.15185
3.17154
3.19173
3.20882
3.22271
3.23762
3.2521
3.26433
3.27271
3.27757
3.28039
3.2794
3.27377
3.26579
3.25892
3.25168
3.24277
3.23437
3.22772
3.22136
3.21554
3.21529
1
1
0.999999
0.999999
0.999998
0.999997
0.999994
0.99999
0.999983
0.999973
0.999956
0.99993
0.999892
0.999834
0.999751
0.999632
0.999465
0.999237
0.998929
0.998521
0.997993
0.997319
0.996475
0.995436
0.994177
0.992679
0.990919
0.988881
0.986557
0.983916
0.980937
0.977779
0.974192
0.970198
0.966326
0.962079
0.956942
0.952078
0.947484
0.942101
0.93565
0.929833
0.925105
0.919348
0.911796
0.905408
0.900117
0.893899
0.883067
0.875771
0.870005
0.870715
0.926896
1.04006
1.97891
2.16065
2.1647
2.23684
2.34759
2.42055
2.43609
2.44669
2.36915
2.37346
2.32355
2.31723
2.29539
2.31613
2.30103
2.35174
2.3997
2.40216
2.48974
2.56902
2.63076
2.70043
2.79173
2.86935
2.93049
2.98981
3.00953
3.01581
3.02213
3.02424
3.01505
3.01111
3.01051
3.01187
3.01393
3.01921
3.02524
3.03508
3.04806
3.0636
3.08154
3.10433
3.1269
3.14533
3.16519
3.18442
3.20054
3.21517
3.23136
3.24709
3.25922
3.26716
3.2735
3.27888
3.28086
3.27863
3.27213
3.26399
3.25465
3.2445
3.23551
3.22842
3.2216
3.2154
3.21534
1
1
0.999999
0.999999
0.999998
0.999997
0.999994
0.99999
0.999984
0.999973
0.999957
0.999932
0.999894
0.999838
0.999756
0.999639
0.999475
0.99925
0.998946
0.998543
0.998019
0.99735
0.99651
0.995474
0.994215
0.992713
0.990943
0.988888
0.986538
0.983878
0.980867
0.977575
0.974038
0.970022
0.965747
0.961558
0.956681
0.951433
0.946556
0.941599
0.935258
0.929396
0.924299
0.919273
0.912904
0.906307
0.901301
0.89657
0.890617
0.885132
0.883433
0.888415
0.9831
1.48983
2.19531
2.19836
2.18005
2.17818
2.2256
2.33857
2.38378
2.49217
2.38373
2.43242
2.39069
2.35045
2.38559
2.39533
2.42049
2.49788
2.57239
2.62027
2.69519
2.78281
2.86462
2.91738
2.98054
3.01596
3.0273
3.03766
3.04385
3.03634
3.0221
3.01614
3.01368
3.01092
3.0092
3.00868
3.01181
3.01564
3.02281
3.03288
3.04602
3.06114
3.07852
3.09893
3.11849
3.13811
3.15833
3.17709
3.19267
3.20823
3.22571
3.24076
3.2517
3.26022
3.26905
3.27702
3.28153
3.28151
3.27599
3.26669
3.25652
3.24585
3.23619
3.22869
3.22163
3.21543
3.21585
1
1
0.999999
0.999999
0.999998
0.999997
0.999994
0.999991
0.999984
0.999974
0.999958
0.999934
0.999897
0.999842
0.999762
0.999648
0.999487
0.999266
0.998967
0.99857
0.998052
0.99739
0.996557
0.995526
0.99427
0.992767
0.990995
0.988931
0.986564
0.983888
0.980863
0.977457
0.973918
0.969957
0.965567
0.961158
0.956647
0.951248
0.946004
0.941136
0.935663
0.929593
0.924084
0.919709
0.914206
0.907451
0.902073
0.898239
0.893146
0.881451
0.873177
0.869826
0.908933
1.86394
2.21434
2.21414
2.18967
2.18102
2.18978
2.21517
2.34401
2.4519
2.47686
2.48293
2.51666
2.42559
2.52213
2.58623
2.61942
2.69701
2.78357
2.86063
2.91231
2.97627
3.01666
3.02786
3.04115
3.052
3.05751
3.0443
3.03526
3.03018
3.0235
3.01549
3.01136
3.00709
3.00437
3.00493
3.0073
3.01214
3.01931
3.02967
3.04323
3.05841
3.07562
3.09485
3.11331
3.13277
3.15243
3.1702
3.18541
3.20191
3.21888
3.23283
3.24369
3.25429
3.26537
3.27459
3.28023
3.28096
3.27632
3.26854
3.25863
3.24789
3.23739
3.22883
3.22166
3.21602
3.21716
1
1
0.999999
0.999999
0.999998
0.999997
0.999995
0.999991
0.999985
0.999975
0.99996
0.999936
0.9999
0.999847
0.999769
0.999657
0.999501
0.999284
0.998991
0.998601
0.998092
0.997439
0.996615
0.995594
0.994348
0.992849
0.991081
0.989016
0.986637
0.983946
0.980932
0.977534
0.973805
0.969981
0.965642
0.96099
0.956503
0.951528
0.946085
0.941003
0.936024
0.930051
0.924538
0.919971
0.915495
0.909222
0.903935
0.900491
0.896844
0.889487
0.883357
0.92263
1.05269
2.04766
2.22273
2.22658
2.21679
2.21049
2.20307
2.23084
2.27277
2.46736
2.56144
2.56237
2.63602
2.64354
2.71976
2.79882
2.86555
2.9175
2.9704
3.01436
3.02817
3.03963
3.05299
3.05901
3.05288
3.04733
3.04712
3.04488
3.03423
3.0261
3.01895
3.01331
3.01013
3.0055
3.00311
3.00286
3.00564
3.01075
3.01747
3.02786
3.04051
3.05417
3.07019
3.08874
3.10722
3.12693
3.14614
3.16227
3.17751
3.19463
3.2113
3.22516
3.23693
3.24935
3.2615
3.27087
3.27632
3.27746
3.27529
3.26989
3.26102
3.25007
3.23863
3.22906
3.222
3.21715
3.21863
1
1
0.999999
0.999999
0.999998
0.999997
0.999995
0.999991
0.999985
0.999976
0.999961
0.999939
0.999904
0.999852
0.999777
0.999669
0.999517
0.999306
0.99902
0.998639
0.998141
0.9975
0.996689
0.995682
0.99445
0.992965
0.991205
0.989153
0.986779
0.984065
0.98107
0.977699
0.973881
0.970044
0.965848
0.961185
0.956478
0.951825
0.946398
0.941143
0.936354
0.931166
0.925186
0.920215
0.916509
0.911817
0.906599
0.903558
0.901108
0.900859
0.90896
0.996167
1.53106
2.21957
2.24873
2.24703
2.24742
2.24729
2.26816
2.29567
2.31738
2.58825
2.68437
2.75819
2.8599
2.88924
2.94978
2.98849
3.01771
3.02868
3.03632
3.05259
3.06002
3.0533
3.04544
3.04761
3.04911
3.04436
3.04198
3.03653
3.03052
3.02296
3.01671
3.00971
3.00675
3.00215
2.99994
3.00041
3.00387
3.00946
3.0157
3.02589
3.03811
3.05114
3.06577
3.08273
3.10086
3.11993
3.13771
3.153
3.16935
3.18703
3.20359
3.21768
3.23076
3.24378
3.25601
3.2657
3.27108
3.27337
3.27374
3.2705
3.26264
3.25131
3.23916
3.2294
3.22265
3.21815
3.21854
1
1
0.999999
0.999999
0.999998
0.999997
0.999995
0.999992
0.999986
0.999977
0.999963
0.999941
0.999908
0.999859
0.999786
0.999682
0.999535
0.999331
0.999054
0.998684
0.998199
0.997574
0.99678
0.995791
0.994581
0.993118
0.991377
0.989347
0.986996
0.98429
0.981272
0.977983
0.974251
0.970203
0.966208
0.961577
0.956756
0.952119
0.947225
0.941732
0.936736
0.932001
0.926741
0.921215
0.916876
0.913172
0.908905
0.903681
0.896772
0.892444
0.892503
0.95498
1.8679
2.28555
2.28229
2.28466
2.28226
2.27795
2.32568
2.37927
2.43429
2.71477
2.87864
3.00241
3.03616
3.04671
3.04834
3.0536
3.06023
3.06194
3.05309
3.04652
3.04379
3.04692
3.04511
3.04441
3.04116
3.0378
3.03318
3.02692
3.0219
3.01618
3.01174
3.00541
3.00327
3.00007
2.9984
2.99906
3.0022
3.00716
3.0131
3.02242
3.03378
3.04581
3.05924
3.0753
3.09296
3.11133
3.12782
3.14324
3.16074
3.17901
3.19548
3.20972
3.22371
3.23723
3.25
3.26012
3.26573
3.26938
3.27156
3.26988
3.2627
3.25152
3.23921
3.22977
3.22303
3.21831
3.21733
1
1
1
0.999999
0.999999
0.999997
0.999995
0.999992
0.999987
0.999979
0.999965
0.999944
0.999913
0.999866
0.999797
0.999697
0.999556
0.999361
0.999094
0.998737
0.998268
0.997662
0.996891
0.995928
0.994745
0.993314
0.991605
0.989602
0.987294
0.984632
0.981574
0.978394
0.974738
0.970663
0.966637
0.962284
0.957328
0.952626
0.948033
0.942649
0.937412
0.932847
0.928329
0.922902
0.917712
0.913499
0.909491
0.904518
0.894945
0.886504
0.917914
1.02396
2.06338
2.27461
2.2882
2.29671
2.30817
2.30707
2.39893
2.52464
2.62392
2.88516
3.05983
3.10476
3.08971
3.08524
3.07687
3.06565
3.05748
3.05403
3.0511
3.04607
3.03934
3.03792
3.03483
3.03357
3.0293
3.02642
3.02329
3.01871
3.0164
3.01189
3.00894
3.00299
2.99989
2.99574
2.99419
2.99499
2.99825
3.00342
3.0099
3.01867
3.02894
3.03983
3.05185
3.0665
3.08333
3.10029
3.11607
3.13284
3.15122
3.16985
3.18656
3.2014
3.21626
3.23052
3.24365
3.25415
3.26051
3.26536
3.26839
3.2679
3.26172
3.25103
3.23898
3.22966
3.2228
3.2182
3.21681
1
1
1
0.999999
0.999999
0.999998
0.999996
0.999993
0.999988
0.99998
0.999967
0.999948
0.999918
0.999874
0.999808
0.999714
0.99958
0.999394
0.99914
0.998799
0.998349
0.997766
0.997024
0.996094
0.994946
0.993558
0.991895
0.989934
0.987676
0.985082
0.982062
0.97887
0.975381
0.971393
0.967236
0.963102
0.958172
0.953326
0.948826
0.943986
0.938366
0.933467
0.929526
0.924958
0.919297
0.914956
0.911692
0.908384
0.906396
0.912777
1.00098
1.47705
2.24024
2.29297
2.29775
2.31998
2.36468
2.38051
2.50512
2.68245
2.86
3.06556
3.12351
3.10758
3.09573
3.07928
3.06857
3.0607
3.05485
3.05042
3.04507
3.03888
3.03115
3.02855
3.02393
3.02386
3.0198
3.01764
3.01476
3.01005
3.00892
3.00317
3.00016
2.99544
2.99356
2.99159
2.99135
2.99256
2.99546
3.00005
3.00631
3.01396
3.02292
3.03285
3.04379
3.05719
3.07332
3.08974
3.10584
3.12363
3.14271
3.16129
3.1778
3.19338
3.20875
3.22345
3.23698
3.24817
3.25552
3.26085
3.2646
3.2651
3.25967
3.25002
3.23875
3.22919
3.22211
3.2177
3.21629
1
1
1
0.999999
0.999999
0.999998
0.999996
0.999993
0.999989
0.999982
0.99997
0.999952
0.999924
0.999883
0.999822
0.999733
0.999608
0.999433
0.999193
0.99887
0.998444
0.997889
0.997181
0.996292
0.995191
0.993853
0.992253
0.990356
0.988146
0.985645
0.982747
0.979475
0.976162
0.972273
0.96806
0.963925
0.959438
0.954326
0.949585
0.944994
0.939841
0.934513
0.929869
0.925791
0.921106
0.915423
0.909815
0.903196
0.899009
0.900499
0.972616
1.87946
2.3161
2.3231
2.33278
2.35176
2.45211
2.51907
2.65595
2.86644
3.06682
3.13132
3.11031
3.09487
3.07464
3.06287
3.05482
3.049
3.04404
3.03927
3.03429
3.02873
3.02199
3.0219
3.01694
3.01603
3.01076
3.00626
3.0036
2.99966
3.00065
2.99633
2.99332
2.99109
2.99036
2.98718
2.98582
2.9868
2.99006
2.99463
3.00039
3.0075
3.01607
3.02577
3.0361
3.04868
3.06448
3.08059
3.09689
3.11544
3.13494
3.153
3.16917
3.18521
3.20115
3.21664
3.23103
3.24241
3.24979
3.25603
3.26029
3.26147
3.25733
3.24915
3.23837
3.22828
3.22115
3.21735
3.21628
1
1
1
0.999999
0.999999
0.999998
0.999997
0.999994
0.99999
0.999983
0.999973
0.999956
0.999931
0.999893
0.999836
0.999755
0.999638
0.999476
0.999253
0.998952
0.998552
0.998032
0.997365
0.996525
0.995483
0.994208
0.992682
0.99087
0.988741
0.986321
0.98355
0.980337
0.977017
0.97339
0.969202
0.964905
0.960632
0.955659
0.950598
0.945928
0.941242
0.935601
0.930322
0.925351
0.920777
0.915229
0.90811
0.898046
0.889231
0.927066
1.05574
2.09921
2.31371
2.33115
2.3617
2.3757
2.53687
2.68831
2.8572
3.05525
3.12652
3.11322
3.10104
3.07898
3.06229
3.05187
3.04564
3.04086
3.03558
3.03024
3.02495
3.01985
3.01428
3.01405
3.00963
3.00784
3.00402
2.99864
2.99681
2.99204
2.9899
2.98532
2.98127
2.97931
2.97916
2.9778
2.97857
2.98161
2.98608
2.9909
2.99644
3.00296
3.01047
3.01873
3.02777
3.03985
3.05547
3.07196
3.08947
3.10853
3.12702
3.14377
3.1605
3.17746
3.19452
3.211
3.22538
3.23595
3.24362
3.25047
3.25544
3.25778
3.25507
3.24793
3.23737
3.22705
3.22016
3.21677
3.21624
1
1
1
0.999999
0.999999
0.999998
0.999997
0.999995
0.999991
0.999985
0.999976
0.999961
0.999938
0.999904
0.999853
0.999779
0.999673
0.999525
0.99932
0.999044
0.998677
0.998196
0.997578
0.996796
0.995825
0.994631
0.993189
0.991483
0.989469
0.987128
0.984504
0.98147
0.978056
0.974619
0.970598
0.966232
0.961862
0.95735
0.951929
0.946783
0.942141
0.937126
0.931071
0.925528
0.921004
0.917036
0.913872
0.91269
0.922459
1.01909
1.58316
2.29778
2.34884
2.36534
2.45568
2.49015
2.69555
2.85603
3.05529
3.12568
3.10908
3.1
3.0818
3.06532
3.05216
3.04315
3.03783
3.03335
3.02822
3.02313
3.01811
3.01338
3.00903
3.00821
3.00435
3.00093
2.99796
2.99305
2.99208
2.98632
2.98115
2.97812
2.97359
2.97004
2.96936
2.9715
2.97305
2.97545
2.97865
2.9825
2.98816
2.99531
3.00318
3.01139
3.02017
3.03233
3.04797
3.06475
3.08292
3.10147
3.1184
3.13471
3.15261
3.17077
3.18851
3.20497
3.21895
3.22878
3.23728
3.24511
3.25125
3.25434
3.25203
3.24623
3.23599
3.22572
3.21924
3.21629
3.21618
1
1
1
1
0.999999
0.999999
0.999997
0.999996
0.999992
0.999987
0.999979
0.999966
0.999946
0.999916
0.999871
0.999805
0.999711
0.999579
0.999396
0.999148
0.998817
0.998383
0.997822
0.997109
0.996219
0.995124
0.99379
0.992199
0.990327
0.988131
0.985623
0.982772
0.979484
0.975994
0.972299
0.967927
0.963359
0.958888
0.953891
0.948176
0.942732
0.937764
0.93228
0.925745
0.919823
0.91371
0.906688
0.897106
0.900795
0.964607
1.98264
2.3436
2.35818
2.38409
2.56836
2.65953
2.85935
3.05449
3.12531
3.11028
3.10092
3.08306
3.06589
3.0516
3.04112
3.0339
3.02938
3.02546
3.02101
3.01643
3.01177
3.00765
3.00392
3.00246
2.99965
2.99587
2.99331
2.9888
2.9883
2.98349
2.97654
2.97236
2.96714
2.96284
2.96024
2.9605
2.96168
2.96431
2.96847
2.97436
2.982
2.99002
2.99783
3.00551
3.01373
3.02583
3.04148
3.05814
3.07631
3.09397
3.11007
3.12728
3.14597
3.16454
3.18231
3.19815
3.21126
3.22144
3.23134
3.24069
3.24753
3.25035
3.24868
3.24363
3.2341
3.22428
3.21815
3.21557
3.21589
1
1
1
1
0.999999
0.999999
0.999998
0.999996
0.999994
0.999989
0.999983
0.999972
0.999955
0.999929
0.999891
0.999835
0.999754
0.999639
0.999481
0.999265
0.998975
0.998594
0.998099
0.997467
0.996671
0.99569
0.99449
0.993039
0.991328
0.989313
0.986967
0.984304
0.981243
0.977738
0.974197
0.970082
0.96544
0.960687
0.955886
0.950195
0.944031
0.937995
0.932593
0.926796
0.91977
0.914898
0.910971
0.912903
0.98857
1.20278
2.21041
2.36871
2.3971
2.46598
2.6876
2.85239
3.04304
3.11545
3.10062
3.09342
3.07865
3.06329
3.04872
3.03681
3.02893
3.0236
3.02019
3.0173
3.01395
3.01004
3.00615
3.0021
2.99822
2.99611
2.99394
2.99094
2.9889
2.98456
2.98294
2.97998
2.97356
2.96893
2.96388
2.96005
2.95564
2.95331
2.95337
2.95602
2.96013
2.96494
2.97122
2.97829
2.98551
2.99323
3.00199
3.01494
3.03168
3.04945
3.06795
3.08528
3.10186
3.1202
3.13933
3.15787
3.17523
3.19041
3.20314
3.21468
3.22627
3.23619
3.24251
3.24562
3.24463
3.24022
3.23174
3.22261
3.217
3.21484
3.21571
1
1
1
1
1
0.999999
0.999998
0.999997
0.999995
0.999992
0.999986
0.999978
0.999964
0.999943
0.999912
0.999866
0.9998
0.999706
0.999574
0.999394
0.999151
0.998829
0.998409
0.997871
0.997187
0.996334
0.995291
0.994018
0.992486
0.990691
0.988572
0.986113
0.983307
0.980079
0.976441
0.972656
0.968149
0.9632
0.958287
0.953024
0.94627
0.939717
0.93322
0.927219
0.920151
0.911709
0.906901
0.907674
1.03406
1.65881
2.41494
2.42965
2.56751
2.64012
2.89538
3.05571
3.11664
3.09623
3.08394
3.06857
3.05723
3.04585
3.03539
3.02629
3.01995
3.01586
3.01267
3.00979
3.00708
3.00336
3.00042
2.99636
2.99257
2.9892
2.98706
2.98486
2.98341
2.97963
2.9773
2.97492
2.96908
2.96526
2.96
2.95776
2.95154
2.94697
2.94594
2.94796
2.95168
2.95664
2.96256
2.9695
2.9771
2.98512
2.99357
3.00547
3.02131
3.03915
3.05747
3.07436
3.09174
3.11094
3.1306
3.14982
3.16747
3.18232
3.19521
3.2083
3.22073
3.22991
3.23652
3.24023
3.24004
3.23615
3.22864
3.22072
3.21566
3.21396
3.21543
1
1
1
1
1
0.999999
0.999999
0.999998
0.999997
0.999994
0.999991
0.999984
0.999974
0.999959
0.999936
0.999901
0.99985
0.999778
0.999676
0.999536
0.999345
0.99909
0.998754
0.99832
0.997767
0.997066
0.996196
0.995136
0.993839
0.992278
0.990449
0.988281
0.985758
0.982848
0.979476
0.975765
0.971628
0.966771
0.961445
0.956237
0.95005
0.942172
0.934355
0.926292
0.917884
0.900274
0.880446
0.910229
0.961464
2.10357
2.4398
2.50266
2.68905
2.85678
3.03453
3.10491
3.08218
3.07325
3.05642
3.04498
3.0365
3.02955
3.02332
3.01777
3.01296
3.00935
3.0063
3.00272
3.00085
2.9969
2.99501
2.99049
2.98715
2.98199
2.97929
2.97751
2.97701
2.97436
2.97136
2.9688
2.96273
2.9593
2.95323
2.95377
2.94781
2.9429
2.94081
2.9411
2.9431
2.94763
2.95344
2.96031
2.96792
2.97599
2.98398
2.99466
3.01027
3.02863
3.04653
3.06274
3.08065
3.10035
3.12067
3.14055
3.15862
3.17367
3.18763
3.20166
3.21375
3.22307
3.23016
3.23438
3.23485
3.23144
3.22498
3.21841
3.21414
3.21325
3.21502
1
1
1
1
1
1
1
0.999999
0.999999
0.999997
0.999995
0.999991
0.999985
0.999975
0.999961
0.999938
0.999904
0.999856
0.999786
0.999689
0.999556
0.999376
0.999135
0.998818
0.998409
0.997886
0.997221
0.99639
0.995379
0.994127
0.992611
0.990821
0.988685
0.986169
0.983225
0.979807
0.976011
0.971574
0.966449
0.961086
0.955531
0.94844
0.94108
0.934286
0.927651
0.921033
0.92618
1.04641
1.58452
2.52077
2.5563
2.74967
2.8849
3.05452
3.11794
3.09045
3.07133
3.04972
3.03649
3.02782
3.02247
3.01879
3.0153
3.01221
3.00869
3.00402
3.00103
2.99616
2.99443
2.99022
2.98952
2.98405
2.98151
2.9751
2.97129
2.96871
2.96827
2.96668
2.96471
2.96222
2.95553
2.95185
2.94531
2.9477
2.94281
2.93812
2.93527
2.93494
2.93545
2.93864
2.94391
2.95112
2.95956
2.96829
2.97635
2.98596
3.00117
3.01956
3.03646
3.05195
3.07051
3.09099
3.11185
3.13212
3.14989
3.16446
3.17915
3.19342
3.2057
3.21526
3.22306
3.2279
3.22906
3.22616
3.22106
3.2159
3.21243
3.2125
3.2139
1
1
1
1
1
1
1
1
1
1
1
0.999999
0.999997
0.999993
0.999987
0.999977
0.999962
0.999939
0.999905
0.999856
0.999785
0.999686
0.99955
0.999363
0.999114
0.998786
0.998359
0.997803
0.997099
0.996229
0.995122
0.993746
0.992113
0.990141
0.987744
0.984901
0.981579
0.977712
0.973186
0.967785
0.96245
0.955989
0.947655
0.937434
0.922784
0.905244
0.930091
0.983401
2.16362
2.59346
2.65189
2.84937
3.02625
3.09936
3.08184
3.07055
3.05121
3.03306
3.02102
3.01499
3.01241
3.01044
3.00867
3.00693
3.00422
2.99825
2.99523
2.98898
2.98659
2.98216
2.98185
2.97588
2.97487
2.96821
2.96312
2.9594
2.9581
2.95747
2.95666
2.95526
2.9478
2.94422
2.93648
2.9393
2.93509
2.93049
2.92849
2.92704
2.92739
2.93002
2.93498
2.94251
2.95125
2.96013
2.96849
2.97726
2.99093
3.00871
3.02508
3.04072
3.06005
3.08137
3.10293
3.1235
3.1411
3.15537
3.17005
3.18433
3.19684
3.20678
3.21545
3.22085
3.22268
3.22085
3.21701
3.21292
3.21059
3.21124
3.21207
1
1
1
1
1
1
1
1
1
1
1
1.00001
1.00001
1.00001
1.00002
1.00002
1.00002
1.00003
1.00003
1.00003
1.00003
1.00002
0.999993
0.999949
0.999879
0.999766
0.999599
0.999362
0.99903
0.998571
0.997959
0.997129
0.996036
0.994764
0.993101
0.991021
0.988528
0.985531
0.982011
0.977869
0.973082
0.968504
0.962731
0.955847
0.952109
0.955805
1.0536
1.70987
2.68013
2.70504
2.8848
3.02867
3.09862
3.07582
3.06006
3.04511
3.02813
3.01311
3.00266
2.99755
2.99647
2.99651
2.99586
2.9946
2.99284
2.98756
2.98538
2.97958
2.97724
2.97312
2.97302
2.96749
2.96779
2.96201
2.95612
2.95146
2.94933
2.94831
2.94623
2.94541
2.939
2.93717
2.92933
2.93166
2.92649
2.92136
2.92145
2.9186
2.91754
2.91894
2.92387
2.93211
2.94178
2.95144
2.96081
2.96993
2.98196
2.99855
3.01435
3.03043
3.05049
3.07256
3.09485
3.11549
3.13263
3.14667
3.16158
3.1755
3.18767
3.19797
3.20774
3.21394
3.216
3.21509
3.21275
3.20941
3.20853
3.20904
3.20911
1
1
1
1
1
1
1
1
1
1.00001
1.00001
1.00001
1.00002
1.00003
1.00004
1.00006
1.00009
1.00012
1.00017
1.00022
1.00029
1.00037
1.00047