/*--------------------------------*- C++ -*----------------------------------*\
| =========                 |                                                 |
| \\      /  F ield         | OpenFOAM: The Open Source CFD Toolbox           |
|  \\    /   O peration     | Version:  2.2.x                                 |
|   \\  /    A nd           | Web:      www.OpenFOAM.org                      |
|    \\/     M anipulation  |                                                 |
\*---------------------------------------------------------------------------*/
FoamFile
{
    version     2.0;
    format      ascii;
    class       volScalarField;
    location    "1.2";
    object      pB;
}
// * * * * * * * * * * * * * * * * * * * * * * * * * * * * * * * * * * * * * //

dimensions      [1 1 -3 0 0 -1 0];

internalField   nonuniform List<scalar> 
14161
(
-0.000934888
8.02981e-05
-0.00010129
-0.000105792
-0.000145263
-0.000175582
-0.000213318
-0.000250183
-0.000290823
-0.000331464
-0.000373906
-0.000417154
-0.000458863
-0.000503081
-0.000540752
-0.000582699
-0.000616348
-0.000644532
-0.000675682
-0.000705479
-0.000684629
-0.00071216
-0.00068763
-0.000668394
-0.000635893
-0.000585333
-0.000536402
-0.000466314
-0.00039103
-0.000312115
-0.000230218
-0.000141422
-6.95729e-05
3.03159e-05
0.000152942
0.000308778
0.000462743
0.000629972
0.000655145
0.000571621
0.00072631
0.00101111
0.00309808
0.0101026
0.0551793
0.0944531
-0.0218277
-0.0225476
-0.00602263
-0.00574443
-0.00524853
-0.0023069
-0.00189998
-0.00120534
-0.00100262
-6.65807e-05
-0.00037114
0.000117112
0.000109853
-0.000320588
-6.85844e-05
-0.000144286
-0.000352884
-0.00027489
-0.00114302
-0.000636089
-0.00101823
-0.000524023
-0.000470007
-0.000668752
-0.00042875
-0.000469735
-0.000993957
-0.000670846
-0.00067054
-0.000384527
-0.000666239
-0.00043379
-0.000920034
-0.00175097
-0.00172298
-0.00300086
-0.00192697
-0.000254026
0.00747752
0.00636667
0.00103814
-0.00104468
0.000468602
-0.000143271
-0.000316728
0.000815797
-0.00100095
0.000605523
-0.00105033
-0.000116252
-0.000380889
-0.000362132
-0.000127023
-0.000301046
-0.000240828
-0.000480048
-0.000260522
-0.000555666
-0.000305744
-0.000565371
-0.000424794
-0.000402461
-0.00033501
-0.00014636
-0.000320496
-3.92201e-05
-0.000884113
0.00107468
-0.0038731
0.00419853
-0.00822949
0.00862635
-0.0108345
-0.000936216
8.1053e-05
-0.000101482
-0.000105954
-0.000145418
-0.000175788
-0.000213549
-0.000250428
-0.000291059
-0.0003318
-0.000374139
-0.000417514
-0.000459306
-0.000503194
-0.000541781
-0.000583009
-0.000617215
-0.000645321
-0.000676678
-0.000703113
-0.000691226
-0.000710129
-0.000690699
-0.000668613
-0.000632744
-0.000590045
-0.000541346
-0.000474177
-0.000404906
-0.000335406
-0.000250729
-0.000180638
-0.000104323
-3.9698e-05
2.90202e-05
0.000100019
0.000156579
9.55065e-05
-0.000189129
-0.000695999
-0.00160908
-0.00386081
-0.00580388
-0.0150671
0.053619
0.0550387
0.00333144
0.00205279
-0.000223987
-0.00295277
-0.0028891
0.000157274
-0.000459043
-0.000207589
-0.00148606
-0.00137133
-0.000550165
-0.000482674
0.000180083
0.000200618
0.000414144
0.000320208
0.000727334
0.000339284
0.000261739
0.000109922
0.000204357
-0.000174761
-7.89703e-05
-0.000107199
-0.000246154
0.000197691
-0.000275062
-0.000195718
8.81075e-05
-0.000333603
-0.0006334
-0.000542611
-0.000864725
7.51891e-05
0.000329679
-1.63049e-05
0.00200452
0.00919952
-0.000227133
0.00351115
0.00965784
0.00100332
0.000912071
-0.000227019
-0.00290135
-0.00120507
-0.00157662
-0.0012244
-0.000845674
-0.000883386
-0.000866536
-0.000858103
-0.000869679
-0.000538495
-0.000457429
-0.000205022
-0.000200005
4.147e-05
-0.000115597
-1.1243e-05
-0.000296193
-0.000128086
-0.000735318
-9.0272e-05
-0.000479702
6.88773e-05
-0.00102486
0.00123221
-0.00391941
0.00426891
-0.00784219
0.00827676
-0.0101086
-0.00093578
8.08344e-05
-0.000101575
-0.000106021
-0.000145561
-0.000175771
-0.000213603
-0.000250487
-0.000291193
-0.000331782
-0.00037433
-0.000417429
-0.00045963
-0.000503186
-0.000542265
-0.000582673
-0.000617216
-0.000646228
-0.000675717
-0.00070269
-0.000696145
-0.000715455
-0.00069132
-0.000669972
-0.000640349
-0.000595558
-0.000536159
-0.000469148
-0.000379916
-0.000289729
-0.000201386
-0.000103318
-2.57653e-05
0.000125859
0.000298295
0.000566455
0.00085716
0.00122909
0.00162956
0.00191755
0.00205497
0.00133615
0.0045765
-0.0101947
0.0701453
0.0499203
-0.0215996
-0.00840055
-0.00222727
0.00201546
-0.000240028
-0.000434786
-0.000301449
-0.000521728
-0.000403899
-0.000603958
-0.000781573
-0.000184867
-0.00117341
-0.000817013
-0.00138293
-0.00145267
-0.0015538
-0.000909676
-0.0010445
-0.00118507
-0.00112077
-0.000756205
-0.000439906
-0.000813075
-0.000758286
-0.000766956
-0.000913929
-0.000240929
-0.000215735
-0.000720314
-0.00140862
-0.00128284
-0.000285671
-0.00156488
-0.000110407
-0.00139191
0.00109672
1.86962e-05
-0.00145449
-0.0047963
0.00139886
-0.0011419
0.00408292
-0.000950491
0.000645146
0.00202362
0.000346539
0.00110312
0.000364241
0.00073095
-5.92934e-05
-0.000207534
-0.000452923
-0.000242921
-0.00026845
-0.000579309
-0.000364365
-0.00070388
-0.000338566
-0.00057428
-0.00024155
-0.000489454
-0.000271086
-0.000250708
-0.000239519
-4.78466e-05
-0.00107868
0.00126249
-0.00431758
0.00428291
-0.0076632
0.00785155
-0.00957434
-0.000936288
8.06663e-05
-0.000101814
-0.000106221
-0.00014585
-0.000176108
-0.000213909
-0.000250903
-0.000291563
-0.000332379
-0.000374924
-0.000418125
-0.000460851
-0.000503358
-0.000545002
-0.000582709
-0.00061982
-0.000651094
-0.000676487
-0.000699019
-0.000707118
-0.000708382
-0.000701285
-0.0006709
-0.000641232
-0.000601743
-0.000542923
-0.000486677
-0.000422171
-0.000358238
-0.000278672
-0.000213105
-0.000149476
-0.000104123
-7.07628e-05
-3.20616e-05
-1.27905e-05
-0.000135813
-0.000442589
-0.00105532
-0.00147742
-0.00338046
8.19515e-05
-0.0203689
0.0492381
0.0534611
0.00406134
0.00467129
-0.00334648
0.00154716
5.8035e-05
0.0025151
0.000574783
0.00157051
-0.00142471
0.000574519
-0.00120083
0.00069226
0.00037869
0.000557597
0.00108298
0.000813469
0.00172706
0.00117429
0.000240806
0.000662142
0.000421483
-0.000539707
-0.000718707
-0.000481083
-0.000323404
-0.000479455
-0.000798082
-0.000745908
0.00118342
0.00035927
-0.00175505
-0.00165147
-1.04808e-05
0.0011175
-0.000402662
0.00363851
0.0046172
0.00478319
-0.000704969
-0.000399108
0.00107981
-0.00173575
0.00341533
-0.000819343
0.000598275
0.00177493
-0.000360945
-0.000257879
-0.000999759
-0.00108027
-0.000795209
-0.000917717
-0.000652254
-0.000592385
-0.000606749
-0.000120744
-0.000380501
0.000296992
-0.000226531
0.000282205
-0.00024613
0.000254737
-0.000378677
0.000200371
-0.000512903
0.000237105
-0.0012173
0.0013734
-0.00420148
0.0043632
-0.00722433
0.00727981
-0.00882257
-0.000935591
8.01734e-05
-0.000101946
-0.000106416
-0.000145869
-0.000176312
-0.000214074
-0.000250977
-0.000291794
-0.000332482
-0.000375377
-0.000418274
-0.000461413
-0.00050357
-0.000545678
-0.000582775
-0.000619894
-0.000653082
-0.000677607
-0.000696674
-0.000715976
-0.000712142
-0.000704984
-0.000678394
-0.000649158
-0.000611799
-0.000546801
-0.000476959
-0.000387514
-0.000284391
-0.000181359
-7.83396e-05
3.34696e-05
0.000217281
0.000472541
0.00081519
0.00122929
0.0018449
0.00275308
0.0039399
0.00560638
0.00682664
0.00936837
0.0111713
0.0194638
0.0436913
0.00386146
0.00828682
-0.00343289
0.00217198
-0.00020384
0.000161649
-0.000636574
0.000374003
-0.00172168
-0.000287587
-0.00222686
-0.000899537
-0.00179347
-0.00246776
-0.00242165
-0.00312029
-0.00272275
-0.00165251
-0.00230371
-0.0013412
-0.000673653
-0.000824368
-0.000626825
-0.000361968
-0.000254603
-4.87943e-05
0.000836401
-9.8232e-05
-0.00176141
-0.00139869
0.000145494
0.00211841
-0.0015756
-0.00208647
-0.00310462
0.000618433
0.00253006
0.0035464
-0.000655829
-0.00107754
0.00081461
-0.00230252
0.00346758
-0.00121365
0.00106156
0.000798493
0.000293101
0.00240903
0.000808125
0.000981996
0.000430215
0.000181766
-0.000110943
-0.000106216
-0.00056203
-0.000530028
-0.00097951
-0.000588582
-0.000743427
-0.000533253
-0.000563231
-0.000183601
-0.000448878
-4.40102e-05
-0.000625473
0.000233843
-0.00141268
0.00131436
-0.00414855
0.0039882
-0.00685757
0.00674771
-0.0081609
-0.000935668
7.97493e-05
-0.000102237
-0.000106769
-0.000146237
-0.000176705
-0.000214527
-0.000251541
-0.000292433
-0.000333278
-0.00037634
-0.000419234
-0.000463376
-0.000504258
-0.000549514
-0.00058395
-0.00062248
-0.00066035
-0.000676706
-0.00070159
-0.000725207
-0.000707943
-0.000715588
-0.000685977
-0.000655792
-0.000617329
-0.000566899
-0.000507499
-0.000447665
-0.000385232
-0.000317746
-0.000245673
-0.000179494
-0.000147854
-0.000124763
-7.95369e-05
-3.76823e-05
4.08485e-05
0.000150716
0.000438744
0.00126589
0.00161475
0.00459449
-0.00139469
0.011864
0.039857
0.00385145
0.0172896
0.000658625
0.00644515
0.00121687
0.00348301
-0.00043044
0.000138756
-0.00193263
-0.00125159
-0.00318739
-0.000836113
-0.000989662
-4.29333e-05
-0.00010953
0.00104763
0.000725347
-0.000146119
0.000201601
-0.000778818
-0.000417952
0.000129676
-0.000347375
-0.000395084
0.00027989
-0.000747901
-0.00114748
-0.0010864
0.00150369
0.000640238
-0.00371384
0.00296431
0.00164686
-0.00294536
-0.0050019
0.00856095
0.00153144
0.000807692
-0.000476557
-0.000294849
0.00176676
-0.00238786
0.00287422
-0.00110457
0.00258056
-0.000322223
0.00104702
0.000130793
8.54882e-05
-0.000585365
-0.000814742
-0.000349948
-0.000655235
-0.000145061
-0.000614849
0.000157938
-0.00057261
0.000703505
-0.000579165
0.000549179
-0.000642219
0.000503201
-0.000683594
0.000528708
-0.000777148
0.00056522
-0.0015221
0.00159454
-0.00364753
0.00382393
-0.00624843
0.00617157
-0.00751595
-0.000934922
7.91091e-05
-0.000102456
-0.000106952
-0.000146553
-0.000176818
-0.000214751
-0.000251849
-0.000292818
-0.000333575
-0.000376999
-0.000419629
-0.000464254
-0.000505171
-0.00055039
-0.000586173
-0.00062245
-0.000663808
-0.000679088
-0.000703989
-0.00073078
-0.000715533
-0.00072102
-0.000704186
-0.000671376
-0.000627862
-0.00056775
-0.000500495
-0.000405297
-0.000299662
-0.000178797
-7.00668e-05
5.97441e-05
0.000283198
0.000575599
0.000944665
0.00142217
0.00209754
0.00296088
0.00424095
0.00587385
0.00855906
0.0110368
0.0119547
0.00764658
0.0512327
-0.0115842
0.0149161
-0.00686317
0.00504166
-0.00349379
-1.68167e-05
-0.00250748
-0.00102824
-0.00320544
0.00152186
-0.0024431
-0.000638925
-0.00254016
-0.000929631
-0.00206544
-0.00172979
-0.00144379
-0.000641083
-0.000489764
-0.000225909
-0.000205411
0.00012171
-0.000352562
-0.000182491
0.000650829
0.00234213
0.00150656
-0.00412398
-0.00405637
0.00444219
0.0134673
-0.000419189
-0.0208731
-0.00252166
0.0164809
0.000694687
-0.00258596
0.00132152
-0.00219851
-0.00203924
0.00193718
-0.00311327
0.00159282
-0.000258965
0.00208745
-0.00180361
0.0027224
0.00068221
0.00122097
0.000798424
0.000122904
-0.00014398
-0.000180246
-7.91795e-05
-0.000328513
0.000184869
-0.000954624
0.00019854
-0.00101721
0.000269724
-0.00079051
0.000545495
-0.000734264
0.000298644
-0.00106421
0.000488228
-0.00162301
0.00107797
-0.0035863
0.00312617
-0.00572486
0.00554837
-0.00693462
-0.000934825
7.85821e-05
-0.000102827
-0.000107365
-0.000146993
-0.00017733
-0.000215368
-0.000252526
-0.000293707
-0.000334547
-0.000378507
-0.000420947
-0.000466638
-0.000507061
-0.000553725
-0.000589693
-0.000626212
-0.000668418
-0.000688536
-0.000705661
-0.000745148
-0.00072203
-0.000728236
-0.000715352
-0.000680638
-0.00064734
-0.000602175
-0.000547054
-0.000486897
-0.000424056
-0.000354329
-0.000285341
-0.000208153
-0.000171329
-0.000153592
-0.000149703
-0.000115602
-9.47153e-05
-3.60337e-05
0.000172688
0.000514198
0.00106111
0.00500782
0.000230177
0.0325122
0.0422632
0.00128856
0.0117616
0.00296975
0.00426206
0.000439512
0.00274054
-0.000802543
0.00343453
2.25775e-05
0.00321934
0.000936787
0.00333526
0.000630132
0.00291622
1.02329e-05
0.000380718
0.000439595
-0.000546865
-0.00036976
-0.00040586
-0.000267258
-0.000222532
0.000162964
0.000265029
-4.37147e-05
-0.00292575
-0.00213198
0.00369721
0.00839042
-0.00341592
-0.0138277
0.0011327
0.0258667
0.0190764
-0.0150428
0.00417209
0.00334532
-0.00245254
-0.000702225
-0.00174364
-0.000883465
-0.00269474
0.00252738
-0.00103154
0.000217553
-0.000332716
0.00168116
-0.00093868
0.00152463
0.000427928
-0.000714486
-0.000309235
-0.000693898
-0.000335223
-0.00109319
0.000367165
-0.00112822
0.000551844
-0.0011844
0.000554235
-0.00119967
0.000663159
-0.00087875
0.000653476
-0.00120602
0.000582685
-0.00158362
0.00119671
-0.00295423
0.00293628
-0.00500923
0.00487447
-0.00624094
-0.000934163
7.79375e-05
-0.000103096
-0.000107709
-0.00014719
-0.000177735
-0.000215719
-0.000252947
-0.000294168
-0.000335269
-0.00037921
-0.000422006
-0.000467507
-0.000509125
-0.000554591
-0.00059273
-0.000630018
-0.000670169
-0.000690732
-0.000713537
-0.000746889
-0.000742793
-0.000734297
-0.000735962
-0.000696295
-0.000662078
-0.000612
-0.000546198
-0.000458632
-0.000342188
-0.000218468
-7.94871e-05
2.33662e-05
0.00025087
0.000504221
0.000878724
0.00127808
0.00168991
0.00208864
0.00224339
0.00234078
0.000494882
0.00261104
-0.017961
0.0617439
0.0624336
-0.0329137
0.00052966
-0.00898711
1.75387e-05
-0.00543747
9.44695e-05
-0.00562181
0.000690852
-0.00462711
-0.000526932
-0.00384438
-0.0011718
-0.00323934
-0.00136081
-0.0024457
-0.00205768
-0.00180778
-0.00227601
-0.000626062
-0.00121362
-0.000282645
-0.000319087
-0.000327644
-0.000107111
-0.000263777
0.000665951
0.00242133
-0.000105004
-0.00299359
-0.00183104
0.00461707
0.00899154
-0.0198783
-0.00640095
0.0088784
0.00620013
-0.0122983
0.00359436
0.000356511
-0.00268201
-0.00106995
-0.000611948
-0.00194508
-0.000928131
-0.000457798
-0.00049487
0.000647116
-0.000345936
0.00247311
0.00143826
-0.000195094
4.36281e-05
0.000121964
0.000212004
-0.000173967
0.000583922
-8.17021e-05
0.000893431
-0.000793116
0.00074409
-0.000787525
0.000777003
-0.000869006
0.000862245
-0.00142425
0.000887296
-0.00146369
0.000763491
-0.00268414
0.00226491
-0.00448651
0.0042652
-0.00564418
-0.000934049
7.74037e-05
-0.00010352
-0.000108188
-0.000147752
-0.000178309
-0.00021644
-0.000253813
-0.000295314
-0.000336538
-0.000381059
-0.000424054
-0.000469862
-0.000513574
-0.000556129
-0.00060084
-0.000635254
-0.00067188
-0.000707376
-0.000720375
-0.000756121
-0.000752924
-0.00075089
-0.000746253
-0.000733505
-0.000683695
-0.000657741
-0.000594819
-0.000550244
-0.000472692
-0.000406334
-0.00033276
-0.000249288
-0.000202455
-0.000185308
-0.000237396
-0.000394451
-0.000772896
-0.00150686
-0.00296169
-0.00472927
-0.00904595
-0.0102528
-0.03712
0.0750318
0.0689765
0.0100927
0.00651707
0.00679178
0.00103832
0.00221924
0.000557133
-0.00159555
0.00268862
-0.000840882
0.00166386
-0.00141627
0.000304676
-0.00234169
-0.000532916
-0.00197132
-0.00112995
-0.00107986
-0.000975747
-0.000903878
-0.000765246
-0.000388514
-0.000595175
-0.000449158
-7.76239e-05
-0.000284657
-0.000729957
-0.000975521
-0.00163849
0.000860797
0.000221975
-0.00137349
0.00107304
-0.00334327
0.0118343
-0.00629197
0.00415181
0.00176441
-0.00290062
-0.0052383
0.000739626
0.000740017
-0.000276269
-0.000390513
-3.61565e-05
-0.00254581
0.000523137
-0.000270252
-2.15396e-05
0.00418009
-0.000645648
-0.000518795
-0.000587831
-0.00022877
8.73679e-05
-0.000970915
0.00019809
-0.00101475
1.36037e-05
-0.00146785
0.00019762
-0.00156479
0.000670899
-0.00133224
0.000836021
-0.00146819
0.000572729
-0.00152717
0.000853306
-0.00217249
0.00182271
-0.00370008
0.00354968
-0.00491654
-0.000933568
7.68231e-05
-0.000103862
-0.000108542
-0.000148181
-0.000178702
-0.000216909
-0.000254543
-0.000295962
-0.000337638
-0.000381987
-0.000425891
-0.000471066
-0.000516997
-0.000557256
-0.000604223
-0.000643541
-0.000672115
-0.000710629
-0.00074122
-0.000750615
-0.000771012
-0.000778058
-0.000757228
-0.000762084
-0.000701384
-0.000678995
-0.000607109
-0.000538021
-0.000435919
-0.00030538
-0.000162645
-4.48862e-05
0.000121797
0.00035332
0.000657563
0.00101187
0.00139618
0.00179172
0.00214022
0.0027569
0.00209586
0.00546178
-0.00105038
0.0518921
0.0910927
-0.0359403
-0.00786206
-0.00686564
-0.00701388
-0.000971047
-0.0036709
-0.000681621
-0.000332534
-0.00225932
0.000217269
-0.00214188
0.000410047
-0.0016445
-0.000456744
-0.0010135
-0.000749882
-0.000931305
-0.00143646
-0.000256024
-0.000864707
-0.00015187
-0.000603265
0.000181861
6.30423e-05
-0.000360905
-0.000591694
0.000157315
-0.000697421
0.000793221
-0.00252886
-0.000482998
0.00840752
0.00145452
0.00229991
-0.00110641
-0.00380057
0.000320005
0.00101691
0.00113769
-0.00231497
-0.00123152
-0.000578932
-0.00113539
-0.000844005
-0.0046251
0.0010747
-0.0024169
0.00227364
0.00185826
-7.29974e-06
0.000165417
-0.000423038
-0.000404385
-0.000210193
-0.000749806
5.29362e-05
-0.000765537
0.000396581
-0.00072253
0.000636822
-0.00101445
0.000712892
-0.00102764
0.000983498
-0.00144301
0.000763363
-0.00146338
0.000635035
-0.00187567
0.00124166
-0.0032151
0.00284681
-0.00432948
-0.00093354
7.63359e-05
-0.000104321
-0.000109094
-0.000148776
-0.000179416
-0.000217744
-0.000255644
-0.000297212
-0.000339495
-0.000383877
-0.000429016
-0.000473718
-0.000522625
-0.000560333
-0.000611071
-0.00065326
-0.000675478
-0.00072726
-0.000756708
-0.000750736
-0.000798568
-0.000797126
-0.000771817
-0.000787068
-0.000765423
-0.000713649
-0.00068333
-0.00062625
-0.000569317
-0.000482384
-0.000405612
-0.000315491
-0.000231111
-0.000159772
-9.5413e-05
-5.05408e-05
2.85939e-05
0.000134353
0.000343579
0.000895341
0.00189575
0.00639073
0.00447188
0.0649358
0.06288
-0.025376
-0.0133365
-0.00338445
-0.00754397
-0.000941441
-0.00255053
-0.00161527
0.00309835
-0.000232106
0.00364089
-0.00137953
0.00138727
-0.00149893
-0.000199884
-0.000863997
-0.000312885
-0.000403476
-0.00119509
0.000306466
-0.000316108
0.000864033
-0.000264369
-5.12788e-05
-9.60875e-05
-0.000548629
-0.000538843
-0.000237666
-0.000123024
-0.00073033
0.00296155
0.00423927
-0.00530212
0.00194785
0.00531546
-0.00640464
-0.00321071
0.00216114
-0.00344408
-0.000199105
-0.00141229
-0.00122282
-0.00266393
-0.00257878
-0.00337578
-0.00402793
0.00132242
-0.00298377
0.0030281
0.00171835
0.00226637
0.000842901
4.61571e-05
0.000222557
0.000543412
-0.00029816
-1.40057e-05
-0.000951095
-0.000101693
-0.00130337
0.000262557
-0.0010579
0.000638517
-0.00104731
0.000920854
-0.00123923
0.000695801
-0.00132653
0.000572886
-0.00119589
0.00094979
-0.00235429
0.00225975
-0.00366886
-0.000933288
7.58511e-05
-0.000104685
-0.000109569
-0.000149218
-0.00018003
-0.000218422
-0.000256491
-0.000298202
-0.000340903
-0.000385359
-0.000431262
-0.000476068
-0.000525502
-0.000565598
-0.000614325
-0.000662085
-0.00068173
-0.000735877
-0.000771601
-0.000760617
-0.000814987
-0.000832432
-0.000791584
-0.000806011
-0.000796726
-0.000757898
-0.000720951
-0.000645202
-0.000568582
-0.000471784
-0.000334252
-0.000195826
-6.36724e-05
0.000104115
0.00038317
0.000676305
0.00115308
0.00171611
0.00248831
0.00347931
0.00390533
0.00670835
0.00141631
0.0505757
0.0878275
-0.00713259
-0.00330365
0.00344113
-0.00699057
0.00590801
-0.00419645
0.00128588
-0.00106934
-0.004583
0.00277557
-0.00364414
0.000398861
-0.00152442
-0.00186347
-0.00105253
-0.00257579
0.000681215
-0.00106192
7.79565e-05
-0.000496725
0.000538377
-0.000627624
8.62667e-05
-0.000285926
-0.000920835
-0.00100526
-0.000439272
-0.00040974
-0.00176995
-0.000692493
0.00167369
0.0103637
-0.00594067
0.00436809
-0.00584126
-0.00169387
-0.00498639
-0.00869803
-0.00259086
-0.0035562
-0.00222644
-0.00215305
-0.00206765
-0.000819558
-0.00288555
0.00301227
-0.00235699
0.00384556
0.000450853
0.00409006
0.000623381
-0.000447733
-0.00094386
-0.000800405
-0.0010694
-0.000598737
-0.000792125
0.000389514
-0.000538083
0.000584878
-0.000800427
0.000547967
-0.00125482
0.000816665
-0.00126722
0.00047186
-0.00122085
0.000358637
-0.00102317
0.000429336
-0.00199624
0.0016666
-0.00311591
-0.000933436
7.54444e-05
-0.000105167
-0.000110168
-0.00014989
-0.000180841
-0.000219381
-0.000257827
-0.000299636
-0.000343214
-0.000387581
-0.000434836
-0.000480039
-0.000529414
-0.000574165
-0.00061893
-0.000668488
-0.000698571
-0.000741793
-0.000783611
-0.000791348
-0.000824261
-0.000853767
-0.000846779
-0.00081811
-0.000851153
-0.000829927
-0.00077935
-0.000746236
-0.000699516
-0.000642079
-0.000567208
-0.000467618
-0.000388561
-0.000316159
-0.000284341
-0.000237421
-0.000275726
-0.000400125
-0.0011659
-0.00180703
-0.00321205
-0.00242626
-0.0184475
0.0603175
0.0761548
-0.0109929
0.00502642
0.00622233
-0.00139711
0.00521447
-0.00653289
0.000654663
-0.00548018
-0.00108557
-0.00523434
0.000479424
-0.00250358
0.000337295
-0.000748514
-0.00141405
0.000350572
-0.00093437
1.58122e-05
-0.00080988
-0.000289363
-0.000114137
-0.000129719
0.000259718
0.000675477
0.000607501
0.00131558
0.000703702
0.000159543
-0.000938411
-0.000345992
-0.00215701
0.0105053
-0.0099245
-0.0133446
0.000445003
-0.00253684
-0.00270611
-0.00497969
-0.00327882
-0.0020237
-0.00232977
0.00012732
-0.00240826
-5.29052e-05
-0.000635215
0.00353315
0.000316749
0.00246208
0.00299502
0.00397084
0.000509307
0.000962812
0.000378587
0.000553415
-0.00026286
0.000165855
-0.000888484
-0.000278006
-0.00104193
0.000171555
-0.000716644
0.000449233
-0.0010801
0.000791823
-0.000958479
0.000530007
-0.000851698
0.000353905
-0.000606398
0.000214196
-0.00110158
0.00122636
-0.00258516
-0.00093345
7.50766e-05
-0.00010558
-0.000110682
-0.000150484
-0.000181532
-0.000220255
-0.000258881
-0.00030109
-0.000344757
-0.000389962
-0.000437179
-0.000484164
-0.00053209
-0.000582992
-0.00062428
-0.00067337
-0.000721798
-0.000746195
-0.000793296
-0.00082618
-0.000834704
-0.000874495
-0.00089608
-0.000858553
-0.000880153
-0.000881123
-0.000828892
-0.000790723
-0.000746588
-0.000694277
-0.000631568
-0.000535007
-0.000398407
-0.000290903
-0.000180107
-5.62957e-05
0.000129025
0.000243508
0.000434026
0.000457479
-0.000796493
0.00296232
-0.0133144
0.0952398
0.0583292
-0.0139159
0.00361582
0.00101322
-0.00649737
-0.00269247
-0.00297678
-0.0039592
0.000138563
-0.00194338
0.00125304
-0.00219731
-0.00138848
-0.00347199
0.00193003
-0.00239318
-0.000682715
-0.000906242
-0.000632265
-0.000617021
-0.00046459
-0.000445364
0.000241913
0.00032979
-0.000175944
0.000218681
0.000311208
0.000828846
-0.00269279
0.00139581
0.00401847
-0.000264753
-0.000854651
-0.00548316
-0.00634941
-0.00509808
-0.00747791
-0.00286878
-0.00375176
-0.00380787
-0.00334165
-0.00545147
-0.00223885
-0.00397443
-0.00223421
0.000496681
-0.000407211
-0.000389256
0.00257999
0.000745685
0.00157065
0.000188321
-0.000191642
-0.00175819
-0.0012199
-0.00156302
-0.000319344
-0.000499984
0.000516314
-0.00032075
0.000392287
-0.000331412
0.000327086
-0.00103364
0.000703285
-0.000888597
0.000520693
-0.000811401
0.000228818
-0.000477238
-6.70136e-05
-0.000711096
0.000601993
-0.00209827
-0.000933842
7.47688e-05
-0.000106051
-0.000111325
-0.000151231
-0.000182451
-0.000221413
-0.00026031
-0.000303066
-0.000347028
-0.000393391
-0.00044035
-0.000490631
-0.000535561
-0.000592032
-0.000632451
-0.000678937
-0.000738637
-0.000760664
-0.000803219
-0.000855717
-0.000864795
-0.00088826
-0.000936904
-0.000938161
-0.000894839
-0.000953379
-0.000936622
-0.00088373
-0.000875867
-0.000855122
-0.000831371
-0.000751328
-0.000692458
-0.000653737
-0.000578222
-0.000551258
-0.000465907
-0.000403866
-1.17479e-05
0.000190143
0.00100308
0.00611395
0.0023415
0.0775331
0.0102842
0.00355987
0.00668157
0.00996459
0.0183306
-0.00358341
0.00754305
-0.00387723
-0.00450584
0.00595183
-0.00615097
0.00284799
-0.00382876
-0.000879401
-0.00190932
-0.00146943
0.000768664
-0.00153828
0.000467903
-7.76374e-05
-0.000184483
-3.18953e-06
0.000836915
0.000314607
6.29502e-05
0.00100613
0.00145385
0.000457855
0.00817629
0.00234284
0.0158397
-0.00336446
-0.00257413
-0.00726285
-0.000376601
0.00215384
0.00270977
0.00369929
0.00203167
0.0054999
0.00456229
0.00461363
0.00689661
0.0021655
0.00960115
1.48804e-05
0.00471651
0.00276011
0.00497683
0.00156703
0.00495598
0.00254322
0.00134604
0.000578086
0.00085152
-0.000321452
-5.78359e-05
-0.00075413
-8.51367e-05
-0.000766881
-0.000140746
-0.000246988
8.39966e-05
-0.000717689
0.000620084
-0.000474702
0.000488896
-0.000603657
0.000194819
-0.000292382
-0.000165791
-0.000111102
6.36965e-05
-0.00139144
-0.000934207
7.45185e-05
-0.000106491
-0.00011193
-0.000151889
-0.00018331
-0.000222482
-0.00026163
-0.000304849
-0.000349072
-0.000396337
-0.000443525
-0.000495307
-0.00054089
-0.000598946
-0.0006443
-0.000686375
-0.00075277
-0.000786515
-0.00080982
-0.000885342
-0.000910218
-0.000900092
-0.000973242
-0.00100313
-0.0009621
-0.000978395
-0.00101337
-0.000987517
-0.000943658
-0.000923176
-0.000924024
-0.000900695
-0.000891617
-0.000797619
-0.000797934
-0.000883577
-0.00114687
-0.00163753
-0.00229312
-0.00341842
-0.00418246
-0.00690363
0.0192765
0.0534274
0.0149122
0.00190702
0.00462722
0.00837417
0.00961179
0.0207201
0.00817154
0.00778773
0.000718779
0.00120312
-0.00273089
-0.00171793
-0.000748935
-0.00256708
0.000650898
-0.00317247
-0.00285619
7.35257e-05
-0.00149874
0.000171436
-0.000926964
0.000255658
0.000172244
0.00212448
0.0032718
0.00489548
0.00608707
0.00644722
0.00747867
0.00365947
0.00461402
-0.000968943
0.00385226
0.00618163
0.00153792
0.00193469
0.00362639
0.00461032
0.00567571
0.00488823
0.00598245
0.005307
0.00714926
0.00567825
0.000687768
0.00550641
0.00447854
0.0015898
-0.00165422
-0.0016819
0.000570308
-0.000833868
-0.000890822
-0.00132387
-0.000266084
-0.000728471
0.000688934
-0.000654247
0.000510746
-0.000686891
0.000359797
-7.4956e-05
-1.89552e-06
-0.000597782
0.000418299
-0.000369474
0.000313083
-0.000549982
0.000175733
-0.000196987
-9.95081e-05
0.000244145
-0.000628036
-0.000629369
-0.000934888
7.43264e-05
-0.000106957
-0.000112573
-0.000152715
-0.000184335
-0.000223849
-0.000263205
-0.000307246
-0.000351555
-0.000400326
-0.000447635
-0.000500834
-0.000548942
-0.000604356
-0.000657011
-0.000699418
-0.000761705
-0.000810373
-0.000830243
-0.000903991
-0.00094565
-0.000938322
-0.00100204
-0.00105215
-0.00105039
-0.00100737
-0.0011012
-0.00113748
-0.00107421
-0.00103139
-0.0011262
-0.00114778
-0.00114713
-0.00106731
-0.000967934
-0.000935963
-0.000729568
-0.000528767
-5.59683e-05
-7.25849e-05
0.0032443
-0.00775985
0.0688831
0.0333003
-0.00197014
0.000135814
-0.0013412
0.00441114
0.00151256
0.0121069
0.0100873
0.0130482
0.000406231
0.00485789
0.00131307
0.000166652
-0.00440864
0.00109655
-0.00275932
-0.0024596
-0.000905087
0.00016443
0.00183081
0.000518696
0.0043019
0.00563115
0.00700607
0.0078736
0.00568614
0.00477978
0.00363245
0.000783579
0.0031564
0.000769275
0.00758002
0.0021461
0.00564003
0.00670951
0.00682876
0.00788305
0.00850737
0.00850918
0.00800856
0.00749381
0.00666001
0.00587243
0.00404217
0.00345322
0.00565951
0.00453412
4.84075e-05
0.00181657
0.00266793
0.00449339
0.00305805
0.00292166
0.00228922
0.00147366
0.00112339
-0.000113689
0.000690585
-0.000212962
0.000697894
-0.000253293
0.000228689
4.42105e-05
-7.58982e-05
-0.000266594
0.000354846
-9.81648e-05
0.000274991
-0.000263256
4.18146e-05
-7.25155e-05
-0.000416808
0.000303454
-0.00101534
0.000224191
-0.000935629
7.4216e-05
-0.000107404
-0.000113239
-0.000153467
-0.000185346
-0.000225086
-0.000264869
-0.000309229
-0.00035434
-0.000403423
-0.000452348
-0.000505001
-0.000558375
-0.000608604
-0.000669566
-0.000717108
-0.000765974
-0.000832553
-0.000868753
-0.000908486
-0.000977697
-0.00101072
-0.00101875
-0.00109983
-0.00112493
-0.00110616
-0.00116089
-0.00121047
-0.00123026
-0.00113363
-0.0012377
-0.00129771
-0.00131372
-0.00131464
-0.00139663
-0.00131801
-0.00139617
-0.00157631
-0.000697867
-0.000958019
0.00305549
-0.00247023
0.0737316
0.0169566
-0.00480454
-0.00420966
-0.00222799
-0.00231877
0.000777404
-0.000762004
0.00951885
0.00929534
0.0163396
0.00223109
0.00638829
-0.00010779
0.00221475
-0.006402
0.000491155
-0.000113253
-0.00259974
0.00904373
0.00294922
0.0119898
0.0111476
0.00500681
0.00614659
0.00453063
0.00229921
0.00382114
0.0029037
0.00149134
0.000379203
0.00195123
0.00359293
0.00236878
0.00369332
0.00283115
0.00252448
0.00334526
0.00342144
0.00291961
0.00271427
0.00235823
0.00231281
0.00286637
0.00153152
0.00234847
-0.000750118
0.0015683
0.000660902
0.00226555
0.00291138
0.00142031
0.000805093
0.00182943
0.00113056
0.000852506
0.000631741
0.000150679
0.000795949
1.60887e-05
0.00070309
-0.000438107
0.000136377
0.000161093
-0.000191365
-0.000178811
0.000182595
-4.49068e-05
0.000179659
-0.000172264
5.30459e-05
-8.5241e-05
-9.82386e-05
0.000140756
-0.000573674
0.000783536
-0.000936669
7.41418e-05
-0.00010785
-0.0001139
-0.000154341
-0.000186511
-0.000226579
-0.000266851
-0.000311645
-0.000357799
-0.000407052
-0.000458656
-0.000509695
-0.000570001
-0.000615711
-0.000678963
-0.000744063
-0.000771606
-0.000848803
-0.00092204
-0.00092159
-0.00100258
-0.00107494
-0.00107502
-0.0011235
-0.00118911
-0.00123511
-0.00121533
-0.00130072
-0.00135666
-0.00137582
-0.00131942
-0.0014876
-0.0015592
-0.00153394
-0.00154519
-0.00126667
-0.00104742
-0.000563854
-0.000354724
-0.000173573
0.000662426
0.00613549
0.0607068
0.0136702
-0.00378228
-0.0049156
-0.00520935
-0.00311677
-0.00396785
0.000654511
-0.00224306
0.0086755
0.00653217
0.0151515
0.00344764
0.0116631
-0.00278034
-0.0020393
0.0135654
0.00356366
0.0172421
0.00955019
0.0158818
-0.00477632
0.0101702
0.000878726
0.00124137
-0.000899469
-0.00108355
-0.00302003
-0.00294798
-0.00175263
-0.00180844
-0.00102796
-0.000575243
-0.000828583
-5.40969e-05
-0.000416439
0.000459358
0.000717396
0.00039057
0.000398387
0.00010637
0.000672645
0.0001594
0.00042922
0.000389188
0.000710416
0.000721144
0.000294098
-0.000352298
0.000255912
-0.000149277
0.000930658
0.000556856
0.00209572
0.000549217
0.000599925
0.000387189
0.00010838
0.000723339
-0.000190592
0.000702011
-0.000158781
0.000228632
0.000156496
-8.36199e-06
-8.31389e-05
0.000240442
1.1909e-05
0.000198701
-0.000138583
-2.88125e-05
-0.000226054
-9.76652e-05
-8.22454e-05
-0.000249909
0.000763128
-0.000937824
7.41492e-05
-0.000108289
-0.000114616
-0.000155192
-0.000187653
-0.000228057
-0.000268746
-0.000314057
-0.000361066
-0.0004109
-0.000463725
-0.000515812
-0.000576505
-0.000627397
-0.000688149
-0.000758831
-0.000795404
-0.000862021
-0.000944443
-0.000971638
-0.00101646