/*--------------------------------*- C++ -*----------------------------------*\
| =========                 |                                                 |
| \\      /  F ield         | OpenFOAM: The Open Source CFD Toolbox           |
|  \\    /   O peration     | Version:  2.2.x                                 |
|   \\  /    A nd           | Web:      www.OpenFOAM.org                      |
|    \\/     M anipulation  |                                                 |
\*---------------------------------------------------------------------------*/
FoamFile
{
    version     2.0;
    format      ascii;
    class       volScalarField;
    location    "0.45";
    object      divBf;
}
// * * * * * * * * * * * * * * * * * * * * * * * * * * * * * * * * * * * * * //

dimensions      [1 -3 -2 0 0 -1 0];

internalField   nonuniform List<scalar> 
14161
(
624.92
307.075
341.796
281.875
260.918
223.151
196.822
165.936
141.316
114.937
94.0225
67.6233
54.1401
24.2027
16.7415
-11.8165
-23.9684
-40.0106
-65.3243
-63.6814
-104.382
-97.845
-133.872
-136.786
-150.635
-160.91
-179.083
-154.313
-161.317
-165.564
-171.911
-157.395
-127.138
-78.0345
-9.83969
60.5371
160.572
298.501
515.619
800.556
1135.92
1527.27
2013.24
2614.22
3412.35
-24401.1
-24832
-25461.5
-26001.5
-26403
-26971.9
-27066
-26262.5
-25954.6
-26333
-27521.1
-25297.6
-25595.7
-8865.31
28986
20432.1
-17989.3
-52542.8
-51437.6
-55207.6
-35330.6
-38403.3
-27705.5
-23701.2
-23615
-19088.9
-11889.9
-2869.48
2190.54
1713.71
-16689.5
11392.4
69545
-16028.8
75508
10697.3
51984.2
19804.9
1094.06
13367.3
6338.85
4046.63
3427.58
4684.29
4536.72
5004.16
4519.22
5325.91
2021.26
4604.64
3087.54
2993.1
1296
259.477
-1642.63
-385.419
-2475.59
-1422.89
-3500.92
-2759.08
-5203.92
-3685.57
-6450.55
-3654.95
-6913.58
-3221.78
-6760.93
-2764.63
-6251.21
-1194.06
-5128.72
254.428
-3912.8
1985.36
376.724
60.7491
95.7001
35.4349
13.0378
-26.7904
-55.9798
-90.5966
-119.259
-150.825
-179.044
-206.856
-236.522
-261.474
-289.517
-322.532
-337.96
-383.005
-392.368
-445.688
-450.443
-502.419
-520.976
-549.455
-594.722
-611.494
-640.548
-659.364
-672.747
-700.461
-729.342
-744.404
-741.407
-723.144
-684.797
-645.929
-579.196
-466.193
-280.287
-71.4362
195.99
552.157
967.024
1486.6
2108.95
-21479.6
-21912.1
-22261.7
-22482.2
-22595.7
-22926.9
-23749.1
-24161.1
-23331.3
-22033.1
-20692.3
-20296.5
-20775.6
-18615.6
28992.6
-27.7334
-25958.8
-43120.1
-29292.8
-39939
-31203.1
-36089.6
-28700.7
-17839.3
-16548.2
-14630
-8426.69
-7186.04
-5622.86
-892.299
6643.73
8056.91
14150.4
31704.3
24688
33370.6
44635.8
22535.8
23875.9
22826.1
15974.1
8496.93
7534.11
6804.16
6045.35
5785.32
5742.83
5442
4985.5
5449.37
2542.07
4574.33
1286.9
2136.12
145.526
879.617
-2686.21
-968.386
-4265.79
-1773.24
-5156.99
-2082.51
-5684.19
-3110.57
-6516.34
-3341.57
-6634.7
-2807.56
-5832.38
-1483.36
-5175.44
178.356
-4163.04
5259.04
132.394
-179.037
-142.927
-201.94
-224.415
-264.777
-295.399
-331.974
-363.332
-398.188
-430.867
-461.566
-501.189
-524.381
-572.021
-590.808
-642.326
-667.041
-711.168
-751.959
-778.465
-842.262
-868.548
-922.668
-965.228
-1007.6
-1043.39
-1092.39
-1119.83
-1153.99
-1208.72
-1251.35
-1272.46
-1274.87
-1270.61
-1244.11
-1196.5
-1129.78
-1017.16
-870.068
-622.056
-308.207
108.277
615.803
1246.57
-18433.3
-18787.7
-19118.9
-19177.1
-19201.7
-19493.6
-19793.4
-20098.3
-20509.1
-19588.9
-19064.5
-16028.1
-19005.3
-10696.5
-43056.2
4454.8
-43271.3
-62414.5
-43741.9
-35735.9
-33129.1
-27528.5
-19436.5
-12941.8
-10146.5
-9839.91
-6064.19
-3200.27
3058.45
9461.56
13117.9
206.414
15431.2
16119.5
5797.22
37717.2
32557.8
26106.3
46917.4
40356.9
24180.3
16072.6
10625.3
10490.4
10038
8816.74
8992.76
8946.51
6525
6658.07
5295.72
4066.11
2751.42
4379.48
686.579
210.138
-966.111
57.4319
-3124.4
-1431.83
-4537.12
-2887.71
-5487.41
-3047.92
-6177.22
-2490.19
-6651.85
-2545.56
-6770.16
-1684.67
-4405.72
1617.72
-287.439
1750.28
-105.804
-411.271
-372.758
-429.241
-450.502
-490.08
-520.924
-557.94
-591.135
-627.672
-661.752
-700.262
-733.839
-774.982
-812.293
-851.361
-900.312
-927.922
-993.512
-1018.48
-1090.06
-1123.38
-1178.82
-1246.99
-1283.01
-1351.19
-1406.07
-1465.19
-1498.42
-1551.71
-1628.26
-1690.1
-1724.54
-1744.77
-1753.11
-1750.28
-1743.43
-1694.13
-1588.89
-1446.42
-1236.07
-965.532
-670.817
-304.494
287.364
-16058.4
-16480
-16718
-17018.1
-17143.3
-17209.4
-17167.8
-17264.5
-17847.6
-18060.9
-18461.6
-19850.5
-20190.5
-32396.3
-51924.8
-51835.9
-31122.8
-6132.35
-18404.7
-25135.6
-23907
-22671.4
-11330.8
-8825.65
-8564.63
-4852.66
-1097.25
1796.1
-445.313
2929.85
8746.97
15825.6
12156.4
11841.6
20773.9
12888.8
26903.6
19367.7
25452.4
28166.8
34042.4
28653.8
25336.3
21190.6
17467.8
16176.5
17200.5
13516.1
12523
8950.41
7359.44
10700.2
4683.93
2346.27
425.642
3130.76
-1.72596
944.164
-1940.01
-1634.97
-3931.08
-1546.22
-5006.39
-2367.54
-5997.73
-3195.9
-5768.44
-2438.31
-4661.07
-1229.96
-4995.21
-728.858
-2928.06
371.084
-337.04
-634.641
-592.766
-645.511
-664.546
-702.267
-732.124
-768.721
-802.206
-839.402
-874.959
-915.598
-950.972
-997.586
-1032.32
-1086.73
-1120.82
-1183.28
-1221.54
-1282.45
-1335.88
-1391.41
-1454.74
-1514.87
-1580.76
-1658.54
-1702.17
-1778.3
-1839.15
-1903.64
-1977.7
-2049.57
-2118.59
-2161.04
-2182.28
-2181.72
-2177.74
-2178.81
-2125.57
-2014.94
-1837.45
-1595.81
-1265.44
-815.181
-187.341
-13808.6
-14184.7
-14565.3
-14772.5
-14826
-14816.6
-14748.4
-14471.9
-13954.5
-12560.1
-10107.4
-11384.2
-13969.2
-11451.1
-94079.4
-168923
-20804.3
2518.7
5045.15
-3462.71
-5636.44
-5822.45
-5683.55
-269.043
-1727.13
627.217
1985.65
1866.28
4412.2
6794.49
9871.11
17349.4
15676.4
12280.5
21558.2
8590.93
26204.6
13214.6
27728.8
18351.3
36023.3
33067.1
34927.2
30021.3
26867.2
22289.9
16608.2
19958.8
13106
13073
10534.8
7881.3
3751.94
9506.14
6333.19
3630.26
-538.332
788.875
-1199.02
353.833
-2853.65
-2007.96
-5336.93
-3003.45
-6009.68
-1827.14
-5952.51
-1867.9
-5482.77
-2594.91
-4625.02
2354.76
-5954.61
6527.88
-559.379
-848.004
-801.892
-850.021
-865.864
-900.865
-928.804
-964.277
-996.775
-1034.25
-1070.54
-1110.11
-1151.61
-1192.65
-1239.99
-1285.95
-1334.45
-1390.55
-1439.2
-1505.49
-1557.87
-1627.13
-1696.51
-1756.62
-1839.28
-1907.96
-1989.11
-2043.36
-2135.45
-2217.16
-2291.44
-2373.89
-2440.67
-2496.75
-2532.04
-2550.31
-2570.49
-2607.18
-2569.68
-2471.07
-2285.81
-2037.81
-1775.28
-1437.31
-974.785
-12179.7
-12662.7
-13102.5
-13150.4
-12932
-12650
-12632.7
-12423.6
-12789.3
-13758.3
-13408.7
-14140.1
-11972.1
-14949.5
-35919
-199908
-93078.2
-7791.99
-4233.86
-6486.4
-4657.9
-5074.93
-1611.42
-1587.92
-70.3866
1431.37
3632.95
3757.13
4501.22
5716.76
9322.19
15084.2
18212.5
15641.8
16614.5
17068.3
21835.7
14894.8
22702.8
18939.2
30473.3
37837.7
33438.5
34139.5
29778.7
26612.7
24142.9
21508.4
15263.3
14288.8
9806.07
11801.3
11679.5
4552.44
2435.43
3507.81
2594.75
2112.67
-1061.23
570.995
-2580.33
404.98
-2795.13
-1147.37
-4516.64
-2891.28
-5996.86
-2535.71
-7424.75
184.991
-5215.9
-882.167
183.562
-783.171
-771.909
-1050.22
-999.296
-1042.01
-1054.06
-1085.62
-1111.06
-1144.43
-1175.6
-1212.29
-1248.26
-1288.27
-1329.71
-1373.43
-1420.26
-1468.29
-1522.9
-1576
-1637.62
-1695.14
-1760.8
-1832.73
-1900.02
-1975.28
-2059.55
-2129.05
-2223.8
-2299.89
-2387.36
-2460.54
-2553.74
-2642.19
-2734.92
-2809.04
-2870.27
-2918.21
-2948.42
-2926.9
-2891.87
-2829.11
-2693.98
-2514.26
-2236.62
-1881.58
-1427.36
-10320.1
-10644.9
-10899.9
-10985.7
-11091.5
-10940.9
-10719.6
-10451.4
-10048.9
-9544.6
-8964.53
-7725.6
-5895.03
-10269.3
-21843.7
-161389
-50156.6
-39199
-3151.69
-9854.57
-4924.34
-2889.28
-2995.15
2521.98
3558.29
4625.09
6544.59
5697.49
8224.24
10626.8
11964.5
18884.1
19790.1
21497.7
17709.6
20008.6
22759.5
20892
24066.4
32241.7
29589.4
45373.4
36197.2
37609.1
31779.1
25428.8
19966.8
19810.9
14797.9
15161.8
12128.6
11600.2
8980.75
9299.44
5809.76
5227.45
2478.99
3826.31
457.691
646.57
-1989.03
-1407.12
-4237.5
-1470.12
-4720.85
-578.716
-4243.11
-1823.62
-3611.53
-3834.52
-5984.81
164.525
-7887.53
3177.79
-973.253
-1240.43
-1184.2
-1221.02
-1228.69
-1256.29
-1278.78
-1309.41
-1339.03
-1374.04
-1409.17
-1449.48
-1489.3
-1536.16
-1581.09
-1634.19
-1685.88
-1744.52
-1804.2
-1869.78
-1935.95
-2012.8
-2083.84
-2165.99
-2251.47
-2333.84
-2422.88
-2511.45
-2595.6
-2694.15
-2793.08
-2886.31
-2972.29
-3049.44
-3115.51
-3168.51
-3209.44
-3233.45
-3242.29
-3199.57
-3086.8
-2896.86
-2604.6
-2319.01
-2012.09
-9046.92
-9352.07
-9548.4
-9588.71
-9703.74
-9729.59
-9892.45
-9935.76
-10350.8
-10654.3
-10012.7
-9392.74
-8605.42
-9878.39
-24062.7
-128615
-57121
-59048.6
-30965.1
-28218
-6166.51
-6756.24
1639.09
4029.68
2761.99
8644.77
5033.59
7213.82
9647.36
12850.5
19936.9
26290.2
28342.1
27427.8
24299.9
30116.7
15071.5
40901
28048.6
47261.2
30340.2
34083.6
27704.1
26369.3
22718.3
22253.7
17742.4
17498.8
14312.5
12467.7
9826.41
10548.8
9254.99
6066
5275.25
5964.53
2903.46
1761.54
296.109
2146.47
-956.318
1212.56
-1911.98
-286.976
-3583.75
-2272.62
-4674.48
-1191.45
-5750.42
563.515
-2676.99
-493.826
1352.62
1450.05
-1162.58
-1417.72
-1355.94
-1386.47
-1389.52
-1412.84
-1431.91
-1459.68
-1487.09
-1520.21
-1554.23
-1593.43
-1633.78
-1679.1
-1726.36
-1777.62
-1833.84
-1891.26
-1954.33
-2020.39
-2093.6
-2164.72
-2245.91
-2327.64
-2418.27
-2509.62
-2593.11
-2703.19
-2781.02
-2889.5
-2987.58
-3091.29
-3187.57
-3278.52
-3374.45
-3450.97
-3499.71
-3511.45
-3487.2
-3426.74
-3323.59
-3194.37
-3003.81
-2663.37
-2234.74
-7453.93
-7564.38
-7713.46
-7825.14
-7895.99
-7874.15
-7730.19
-7442.5
-7041.54
-6606.66
-5854.37
-5492.75
-5953.9
-8850.19
-59444.5
-78082.6
-45731.8
-63720.2
-38527.2
-23440.8
-8385.12
-506.379
-155.028
7521.18
7984.17
8992.86
9129.22
12400.6
17741
24350.6
37075.7
42908
38807.4
42026.2
39888.3
39948.6
46802.4
37737.7
41118.8
23536
26884.7
17166.4
19877.5
17910.6
18384.2
17699.3
17291.8
15137
11956.8
12150.8
11995.6
8804.31
8290.37
7836.69
5955.04
6163.75
3928.25
3790.62
1978.06
1513.63
-552.983
397.689
-2421.62
103.225
-3459.22
382.434
-3938.51
-866.851
-3687.61
-1018.72
-5153.62
339.412
-3344.03
-3346.84
-1338.59
-1581.46
-1514
-1538.1
-1536.32
-1555.17
-1570.63
-1595.4
-1620.18
-1651.43
-1683.98
-1721.66
-1761.87
-1805.77
-1854.78
-1905.26
-1961.61
-2021.17
-2086.1
-2150.37
-2230.02
-2299.99
-2386.26
-2471.17
-2560.45
-2656.69
-2750.86
-2851.47
-2951.13
-3045.48
-3167.83
-3276.98
-3372.95
-3461.81
-3549.62
-3638.77
-3695.27
-3720
-3709.15
-3688.01
-3620.91
-3507.44
-3347.22
-3025.5
-2632.6
-6324.64
-6588.53
-6733.78
-6845.1
-7046.11
-7077.64
-6802.89
-6438.53
-6250.58
-5933.98
-6445.58
-6301.44
-10400.7
-14887.6
-112465
-9311.86
-17500.7
-46316.5
-57167.8
-31074.1
-15887.8
-7978.15
-490.891
6372.08
11812.7
12965.7
20345.2
36452.1
48564.4
72257.9
78782.1
60282.9
50499.5
37700.5
39990
23681.1
25688.5
18501.8
18716.9
10579.8
9918.33
10203.1
11802.2
11595.3
15080.3
13339.2
13036.8
12367.7
12597.9
10951.5
10084.6
11172.1
9921.85
7020.66
5586.32
4917.55
2914.01
3420.69
2056.84
3036.42
306.488
1674.71
-1057.46
81.3484
-1887.39
-449.092
-3469.66
530.462
-5317.25
206.849
-5922.61
1111.42
-8260.67
2522.01
-1500.71
-1730.94
-1657.94
-1675.61
-1669.01
-1683.37
-1695.2
-1716.72
-1738.96
-1768.01
-1798.82
-1835.33
-1874.38
-1918.35
-1965.42
-2018.2
-2072.32
-2135.73
-2196.48
-2269.23
-2342.12
-2421.25
-2502.36
-2596.87
-2680.41
-2784.85
-2884.41
-2978.65
-3102.88
-3193.06
-3305.11
-3419.16
-3527.99
-3638.02
-3734.52
-3813.63
-3873.88
-3909.32
-3897.59
-3875.08
-3844.14
-3767.08
-3573.74
-3314.92
-2915.11
-5008.67
-5205.57
-5482.33
-5680.08
-5632.59
-5518.01
-5036.43
-4616.85
-4264.44
-3850.96
-3967.83
-3587.09
-6181.22
-23497.6
-71495.7
-12777.9
-15900.3
-36799.8
-63103.5
-40938.7
-31071.2
-9899.5
3574.21
25270.5
30565.2
40401.7
66516.9
92889.9
99655.7
83592.9
50515.4
34644.9
23633.3
19948.8
13120.1
12138.6
5522.76
13553
8230.73
8955.25
6658.88
9189.04
9322.38
10922.4
12021
11562.7
12191.5
11403
11056.7
11625.7
9422.11
9011.56
8417.74
8272.76
6161.44
6577.59
4564.69
5409.91
2863.57
3406.63
1090.35
1943.86
-1184.09
981.505
-2306.43
-607.559
-2861.11
-1718.53
-3064.26
-953.41
-3764.86
-1184.83
-2782.46
2051.73
-1647.98
-1865.76
-1787.43
-1798.85
-1787.52
-1797.47
-1805.74
-1824.03
-1843.75
-1870.47
-1899.56
-1934.66
-1972.23
-2016.62
-2061.47
-2115
-2170
-2231.31
-2295.68
-2367.55
-2439.66
-2525.08
-2604.62
-2697.72
-2790.14
-2884.43
-2995.32
-3095.47
-3194.21
-3325.72
-3428.88
-3554.89
-3665.12
-3771.38
-3867.07
-3943.03
-4003.61
-4042.3
-4090.44
-4115.34
-4096.49
-3973.54
-3780.1
-3530.69
-3144.13
-4039.15
-4087.15
-4196.66
-4328.91
-4387.39
-4504.94
-4647
-4812.35
-4603.32
-4363.86
-3680
-3779.4
-5256.53
-29227.3
-59772.9
-11723.5
-5490.31
-13924.8
-28393.8
-55907.3
-48633.9
-3170.31
32168.6
57057.1
82063.8
116805
87437.7
73500.5
47291.8
44733.5
27301.3
22306.8
15381.6
13834.5
10908.6
9466.79
7695.9
4704.15
4976.5
5221.81
7317.83
5924.12
8729.21
11650.3
8935.49
12395.2
11951.7
11883.2
9964.19
9563.06
8460.08
9463.51
8009.03
7372.55
6243.63
6097.89
3991.8
4338.12
2351.99
3361.2
1020.19
2013.51
-544.988
1113.48
-2004.78
1607.67
-1525.09
571.645
-1496.64
-83.1158
-1220.15
-1249.83
-1736.87
-3478.56
-1780.06
-1985.45
-1902.21
-1907.67
-1891.92
-1897.66
-1902.49
-1917.72
-1934.86
-1959.45
-1986.69
-2020.3
-2056.77
-2099.7
-2145.26
-2196.8
-2253.19
-2312.36
-2379.43
-2449.34
-2525.63
-2603.56
-2694.64
-2775.41
-2888.02
-2977.26
-3084.12
-3197.13
-3295.64
-3420.68
-3541.33
-3649.89
-3759.9
-3872.55
-3978.87
-4081.95
-4144.7
-4192.97
-4213.23
-4295.94
-4347.69
-4225.13
-4024.22
-3722.16
-3341.39
-3259.68
-3269.92
-3275.74
-3157.52
-3083.87
-3009.58
-2801.83
-2669.27
-2113.26
-1700.21
-897.715
-1368.62
-2850.65
-61077.6
-54917.2
-2709.97
588.801
3412.22
-3956.12
-12183.1
-10201.8
39356.3
82772.3
95279.7
79713.6
61412.1
55494.6
38136.4
30735.4
21181.7
23905.5
12774.2
15797.1
6963.49
11679.3
5208.73
12609
7669.19
7415.69
6006.42
9578.02
8526.45
8070.06
9439.56
9890.63
10609.7
10462.4
9972.06
10138.7
9381.56
8363.05
7819.63
7085.62
7261.77
6785.6
7243.87
4774.37
4785.76
3704.55
3175.39
1516.28
2145.63
327.595
1118.13
-1316.4
591.776
-3370.27
1286.24
-4440.51
959.635
-5467.01
521.741
-5695.28
-1777.45
-1896.28
-2089.85
-2002.21
-2002.14
-1982.26
-1984.09
-1985.72
-1998.08
-2012.78
-2035.26
-2060.77
-2092.84
-2128.36
-2169.45
-2215.59
-2265.86
-2321.12
-2382.45
-2447.34
-2517.72
-2595.8
-2673.91
-2763.97
-2854.35
-2949.25
-3055.58
-3152.76
-3269.08
-3385.75
-3490.64
-3624.05
-3740.62
-3855.71
-3971.11
-4084.46
-4178.48
-4275
-4352.23
-4375.87
-4390.15
-4361.75
-4287.07
-4073.86
-3774.17
-3466.74
-2432.18
-2497.45
-2569.33
-2465.19
-2333.37
-2082.64
-1738.69
-1617.54
-1359.42
-1627.74
-1747.11
-5296.9
-14648.2
-102500
-11533.9
4652.06
6152.8
10798.7
13955.8
14135.6
29578.5
107313
93430.4
55130.2
47685.1
31675.4
30459.1
22029.2
21109.6
16797.8
15745
11011.2
14822
8701.1
13410.4
4832.88
10033.3
6897.45
11619.5
9180.53
7705.77
7759.34
12377.8
8509.16
9640.57
10202.1
8990.86
8724.1
9269.57
9396.36
8960.6
8186.95
7585.38
7245.71
6746.73
6294.87
5004.86
4831.99
2868.34
3475.39
1200.11
2057.02
279.444
1480.87
-444.691
419.257
-2284.75
-638.36
-2536.2
-901.456
-4144.21
-394.316
-5156.54
1477.16
-1996.51
-2178.74
-2087.33
-2082.27
-2058.75
-2057.03
-2055.73
-2065.43
-2077.97
-2098.39
-2122.34
-2152.91
-2187.25
-2227.6
-2272.15
-2322.59
-2377.07
-2437.9
-2502.84
-2574.63
-2649.06
-2733.73
-2815.49
-2918.83
-3001.66
-3113.29
-3216.74
-3326.12
-3444.07
-3567.56
-3679.12
-3806.16
-3919.11
-4036.59
-4141.52
-4247.85
-4346.08
-4432.02
-4500.87
-4509
-4477.47
-4419.35
-4332.64
-4158.79
-3931.05
-1988.34
-1957.8
-1932.74
-1712.68
-1387.24
-745.611
-115.616
-570.569
-355.606
-366.194
-326.556
163.375
-20704.4
-65437.4
654.767
-1287.21
-3971.07
9841.1
31552.5
56562.9
105779
99452.8
46774
34062.2
29820.8
18017.7
18103.3
16691.3
17265
15485
14614.2
12881.2
12515.1
11115.2
10546.9
14285.2
11089.4
10198
7919.32
10690.8
8924.14
12934.6
8507.19
10397.5
10028.6
8073.33
8944.11
8891.34
8690.79
8413.21
8221.45
8241.32
7482.69
7431.18
6149.66
6303.53
4425.65
4385.08
2978.18
3858.9
2128.22
3142.11
344.882
1961.64
-834.411
1168.15
-429.982
1.12174
-1814.41
-427.729
-1520.3
-1134.51
-2523.91
-1618.32
-2080.45
-2252.14
-2157.69
-2148.23
-2121.52
-2116.68
-2112.85
-2120.17
-2130.7
-2149.33
-2171.77
-2201
-2234.05
-2274.06
-2316.98
-2366.91
-2421.27
-2480.63
-2546.1
-2617.06
-2690.82
-2775.8
-2859.93
-2954.34
-3052.98
-3150.54
-3264.25
-3371.47
-3484.92
-3612.59
-3729.21
-3855.3
-3979.59
-4104.01
-4220.93
-4325.27
-4419.11
-4500.62
-4554.52
-4587.38
-4528.44
-4470.59
-4314.07
-4175.23
-3923.64
-1117.21
-1082.85
-1061.01
-1043.92
-1047.92
-949.566
-795.091
-511.232
-483.667
21.4442
-525.262
-2017.06
-31079.2
-59586.4
-743.133
1686.89
-585.908
11725.8
45969.6
95747.6
134812
61196.8
38117.5
24735.5
18459.7
17461.4
15253.7
13677.7
12430.9
12235.4
11343.3
14377.5
11316.7
15528.9
9302.11
12327
6049.74
14032.6
8433.56
14853.2
9205.72
9660.18
11084.5
10093.9
9139.95
9716.83
9017
9499.54
8748.53
8929.53
8381.07
8052.82
7358.75
7487.39
6402.62
5619.78
4528.77
4900.36
3406.25
4040.74
2211.22
2741.61
1620.8
2332.11
-178.716
1636.21
-1648.4
1231.76
-2386.62
222.178
-3111.38
-834.061
-3562.85
-1853.15
-2148.16
-2310.11
-2213.39
-2200.19
-2170.91
-2163.41
-2157.4
-2162.68
-2171.51
-2188.53
-2209.57
-2237.57
-2269.49
-2308.3
-2350.7
-2399.98
-2453.15
-2512.98
-2577.3
-2648.9
-2722.48
-2804.05
-2894.46
-2979.91
-3082.75
-3183.6
-3293.67
-3404.96
-3519.55
-3639.16
-3765.34
-3884.08
-4005.09
-4130.5
-4254.2
-4373.35
-4472.18
-4552
-4594.49
-4624.34
-4618.5
-4579.11
-4501.49
-4320.07
-4025.78
-469.64
-374.504
-271.893
-52.9984
61.7605
314.732
665.935
1213.69
1698.77
2335.41
361.691
-849.343
-84124.8
-37798.7
2514.9
7496.43
16117.3
36052
86033.1
150972
81922.4
36698.4
23903.1
19407.5
14661
15629.1
14526.6
12456.5
11703.4
11239.8
10433.6
14245.4
9613.75
12733
7700.43
13796.3
10282
13021.6
10563.5
10374.2
10376.8
14055
9095.09
10171.9
10316.3
8412.92
7743.99
8173.19
7757.9
7726.22
7387.61
7503.58
6877.26
7075.49
5928.9
5797.73
4474.38
4935.41
3977.63
3788.25
2260.38
2731.61
1087.32
1899.71
420.777
1174.15
-1082.67
763.581
-1947.42
404.125
-3224.1
-419.04
-4285.36
-1207.22
-2199.69
-2352.84
-2254.69
-2238.47
-2207.15
-2197.5
-2189.74
-2193.33
-2200.69
-2216.35
-2236.19
-2263.07
-2294.22
-2331.68
-2373.67
-2422.09
-2474.24
-2533.77
-2597.32
-2667.08
-2742.8
-2822
-2910.77
-3000.52
-3098.25
-3203.41
-3308.47
-3421.5
-3537.17
-3657.82
-3786.82
-3911.44
-4035.86
-4165.19
-4281.45
-4407.07
-4492.05
-4591.02
-4647.42
-4710.08
-4745.63
-4712.96
-4643.14
-4445.37
-4188.74
58.5381
138.874
203.35
258.764
415.683
536.778
702.169
1012.16
1272.98
2224.48
-817.543
-8769
-106112
-6584.28
6813.98
20363.1
32273.6
66150.6
134607
126036
55898.3
33890.4
15720
15551.7
13022
12339.7
12548.4
14265.9
10772.3
11661.8
11108.1
11471.9
10955.3
13287.5
11528
11881.9
11165.4
10606
12836.5
9157.28
14866.5
9288.82
11506.8
11445.9
8824.12
9475.43
9337.47
8054.5
7489.45
7517.68
7078.44
7229.95
6719.02
6537.85
5438.01
5666.45
4724.56
4940.2
3705.24
4110.93
2488.53
2765.02
1248.57
1783.73
42.6002
993.467
-1066.88
146.1
-1543.25
-446.273
-2822.13
-484.38
-3356.77
-1062.29
-2235.31
-2380.64
-2281.88
-2263.38
-2230.66
-2219.38
-2210.28
-2212.52
-2218.75
-2233.26
-2252.06
-2278
-2308.17
-2344.71
-2386.04
-2433.51
-2485.34
-2543.51
-2607.37
-2675.61
-2750.54
-2831.18
-2916.07
-3007.89
-3102.74
-3209.23
-3316.26
-3426.66
-3540.85
-3658.95
-3780.87
-3910.47
-4052.94
-4169.12
-4303.27
-4381.65
-4458.39
-4556.81
-4655.93
-4700.83
-4756
-4727.12
-4591.11
-4373.77
-4104.72
566.184
593.518
642.504
670.42
971.508
1148.51
1468.91
1576.38
1978.16
1071.56
194.53
-32366.5
-78327.2
1489.94
8479.1
21905.5
47516.4
112201
125141
68147.7
35156.6
19595.2
16217.7
14801.7
12375.6
11501.5
11147.6
12286.2
12298.9
12381.9
10727
9911.3
11682.9
9590.86
10802.7
8294.5
12065.7
9044.13
13134.7
8194.25
13743.1
10470.5
12220
10593.9
10935.8
9143.4
8280.54
8000.73
7413.46
7254.48
6702.19
6465.24
6253.48
5995.46
5402
5332.24
4730.49
4932.8
4105.04
3661.63
2728.05
2808.92
1484.91
1863.41
380.251
1349.01
-790.714
552.541
-1450.51
-372.716
-1895.54
-833.81
-2797.41
-1239.61
-2255.37
-2393.89
-2295.4
-2275.33
-2241.79
-2229.41
-2219.42
-2220.65
-2226.03
-2239.64
-2257.66
-2282.82
-2312.14
-2348.08
-2388.32
-2435.17
-2486.21
-2543.46
-2606.31
-2673.89
-2748.71
-2828.02
-2912.21
-3004.63
-3099
-3200.34
-3309.35
-3417.64
-3537.09
-3657.41
-3776.38
-3900.94
-4039.47
-4175.09
-4307.11
-4401.51
-4478.08
-4565.42
-4677.42
-4737.09
-4777.83
-4741.87
-4635.45
-4435.92
-4161.84
1214.8
1298.04
1477.2
1554.93
1818.79
2156.99
2474.7
3146.61
4037.11
3801.5
-475.852
-64070.3
-45125.5
9761.11
26555.4
42124.8
93894.6
152241
80977.2
34185.6
29120.5
18254.8
15486.4
12866.6
13269
11995.2
10538.2
11470.7
12504.1
11948.6
10148.5
9459.66
11917.4
7975.83
12603.3
7967.19
11690.2
8142.73
11556.5
10964.6
10077.7
11356.3
11733
10904.1
8649.45
9246.11
8834.65
7894.5
7210.14
6857.91
6583.88
6399.15
6060.75
5812.9
5440.87
5046.35
4815.1
4607.45
3799
3563.84
2517.76
2836.43
1766.55
2125.14
594.605
1480.84
-287.532
1031.22
-1086.67
40.703
-1814.71
-1068.26
-2543.54
-1316.09
-2260.38
-2393.09
-2295.68
-2274.79
-2241.06
-2228.06
-2217.6
-2218.24
-2223.03
-2236.01
-2253.34
-2277.74
-2306.37
-2341.62
-2381.14
-2427.2
-2477.62
-2534.33
-2595.8
-2663.3
-2735.93
-2815.22
-2897.58
-2987.79
-3086.71
-3185.03
-3291.65
-3399.1
-3518.58
-3634.61
-3758.15
-3877.98
-4004.51
-4131.26
-4245.96
-4357.59
-4491.09
-4612.35
-4738.62
-4784.7
-4780.57
-4755.74
-4665.18
-4583.66
-4385.08
1360.37
1651.09
1940.86
1956.7
1952.18
1815.57
1857.01
1719.06
2057.35
-1007.03
-10406.9
-103797
-5555.87
15276.8
31483.4
82084
160758
99501.6
51243.2
22366.7
22142.2
15265.2
9902.99
11502.2
13574.2
13912
12068.7
9643.26
10775.9
10847.6
11495
9264
10658.4
8304.14
10877.6
9269.98
9974.75
9478.49
6753.27
10966.5
7450.9
13456.4
9006.52
10977.4
10326.5
9428.33
7866.61
7498.6
7129.23
6845.27
6537.48
6050.66
5876.72
5622.85
4969.23
4870.62
4549.51
4396.59
3535.85
3461.2
2682.96
2863.64
1683.32
2227.12
929.729
1496.2
-57.2383
694.243
-1375.04
-56.6433
-2227.81
-755.415
-2628.06
-1178.4
-2250.93
-2378.82
-2283.29
-2262.26
-2228.89
-2215.81
-2205.28
-2205.63
-2210.14
-2222.71
-2239.6
-2263.54
-2291.64
-2326.04
-2365.1
-2410.2
-2459.59
-2515.54
-2575.86
-2643.05
-2714.18
-2792.45
-2876.39
-2962.7
-3059.04
-3158.22
-3259.04
-3373.04
-3490.41
-3606.91
-3728.63
-3857.97
-3982.98
-4102.78
-4210.44
-4327.6
-4435.09
-4574.13
-4642.71
-4701.81
-4696.72
-4601.58
-4391.54
-4194.4
-4182.18
1836.89
1901.23
1804.81
2062.25
2213.51
2615.1
2736.68
3360.47
2892.55
-643.643
-31963
-82822.3
11939
22641.8
55426.2
128602
127681
67093.2
33362.2
22757.6
14282
14888.5
11112.3
10170.4
10778.7
11933.9
12335.1
10521.6
10932.5
9590.2
9288.4
10749.5
9123.28
10234.8
8878.01
10013
6552.7
9882.73
5991.54
11005.7
7258.85
11056.3
8266.74
11772.8
8640.31
8784.27
8206.76
7394.88
7023.08
6422.21
6226.41
5836.05
5549.72
5210.42
4937.47
4759.09
4278.83
4259.81
3469.34
3388.53
2731.91
2830.26
1915.4
2183.15
1038.01
1389.57
-112.149
636.236
-773.225
3.38141
-1834
-610.447
-2267
-1091.08
-2227.74
-2351.73
-2258.85
-2238.35
-2205.9
-2193.17
-2182.97
-2183.39
-2187.89
-2200.26
-2216.86
-2240.3
-2268
-2301.81
-2340.13
-2384.68
-2433.36
-2488.42
-2548.06
-2612.91
-2684.51
-2759.84
-2841.79
-2930.71
-3023.5
-3121.32
-3225.01
-3334.53
-3443.54
-3561.39
-3680.71
-3815.52
-3939.18
-4051.8
-4146.21
-4276.86
-4417.16
-4588.46
-4670.58
-4751.84
-4792.45
-4764.98
-4650.62
-4414.65
-4170.27
2228.67
2293.17
2372.43
2636.64
3042.91
3811.04
4800.16
5063.28
3301.66
262.502
-69052
-21491.2
24684.9
52370.5
109512
141269
64992.2
36240.6
19627.3
12011.8
13032.3
19746.5
16324.2
11526.8
11121.4
12452.4
12361.4
10428.1
9719.44
8928.14
8708.47
9785.67
7581.6
10066.6
7062.41
9603.75
5795.75
9332.01
6790.53
7854.35
8214.73
6495.78
10528.4
9750.85
9436.54
8495.76
7295.38
7074.99
6577.47
6225.1
5757.54
5447.39
5000.18
4981.46
4463.11
4416.52
4008.81
4039.01
3216.02
3399.72
2787.34
2888.74
2054.6
2018.19
1190.83
1502.01
273.592
514.975
-363.145
-205.771
-1335.18
-641.697
-2015.23
-1087.32
-2191.57
-2312.59
-2223.01
-2203.63
-2172.59
-2160.68
-2151.18
-2151.96
-2156.68
-2169.1
-2185.62
-2208.83
-2236.11
-2269.51
-2307.09
-2350.77
-2398.56
-2452.51
-2511.22
-2575.35
-2645.46
-2720.94
-2800.63
-2888.47
-2977.76
-3072.18
-3177.61
-3285.06
-3396.96
-3512.89
-3633.52
-3755.65
-3882.81
-4012.28
-4128.16
-4227.7
-4343.23
-4432.42
-4485.83
-4498.59
-4486.58
-4521.39
-4518.62
-4414.72
-4234.1
2439.52
2534.6
2699.37
2960.19
3293.3
3755.87
4394.3
4667.02
1480.8
-15812
-105359
2627.79
36038.1
93655.7
156187
85180.4
43556.2
27761.9
18824.4
10878.8
13875.6
13466.5
15603.8
13769.6
11648.6
10575.1
9974.37
9912.43
8490.24
8626.21
8618.26
8799.69
7779.61
8661.61
7006.03
8425.07
7763.95
6685.47
7531.09
4690.66
9175.02
4973.32
9871.81
7946.84
8571.13
8052.38
7108.22
6595.4
5962.02
5779.64
5470.95
5263.68
4838.47
4797.61
4348.18
4336.39
3693.85
3851.69
3157.87
3380.48
2855.06
2779.02
2122.67
2016.88
1389.58
1402.96
463.14
784.101
-312.817
-189.894
-1137.89
-486.543
-1695.29
-1080.33
-2143.34
-2262.15
-2176.51
-2158.83
-2129.66
-2118.94
-2110.46
-2111.9
-2117.11
-2129.73
-2146.3
-2169.21
-2196.29
-2229.2
-2266.25
-2309.18
-2356.67
-2409.58
-2466.56
-2530.59
-2597.49
-2670.84
-2751.22
-2835.82
-2926.21
-3023.26
-3121.11
-3228.96
-3340.91
-3450.12
-3562.88
-3678.96
-3796.58
-3927.3
-4059.01
-4182.8
-4310.28
-4435.52
-4526.2
-4631.59
-4705.31
-4729.38
-4705.3
-4613.08
-4435.48
2677.42
2828.19
3170.9
3487.39
3933.97
4285.57
4647.87
4119.34
3733.01
-39607.9
-50292.3
33767.9
75689.3
140335
97456.5
39880.4
27304.3
20938.8
26968.4
19487.2
12272.3
10109
11583.4
11390.8
10796.6
10894.6
10504.8
10190.3
9349.97
8952.42
7540.71
7359.71
8793.87
7529.65
8077.37
5537.19
8275.13
4849.38
8734.02
3821.32
7166.88
5863.83
7600.01
6726.59
8235.69
7695.57
6704.28
6164.07
5624.21
5353.18
4895.15
4736.84
4482.57
4247.66
4175.27
4265.97
3650.89
3525.97
3055.86
3268.87
2839.93
2907.21
2365.27
2376.87
1352
1416
484.243
655.531
-674.776
167.044
-912.258
-618.305
-1464.12
-1044.42
-2083.97
-2201.32
-2120.13
-2104.6
-2077.7
-2068.54
-2061.39
-2063.74
-2069.59
-2082.62
-2099.42
-2122.33
-2149.21
-2181.73
-2218.15
-2260.33
-2306.4
-2358.37
-2414.62
-2477.23
-2544.38
-2617.09
-2694.76
-2776.69
-2864.04
-2954.18
-3053.4
-3161.27
-3271
-3377.61
-3495.54
-3610.46
-3747.92
-3861.04
-3991.38
-4099.84
-4190.28
-4241.02
-4286.1
-4348.64
-4401.57
-4354.12
-4159.74
-3975.51
-3834.34
3224.53
3104.61
3271.8
3402.44
3698.98
3744.37
4140.32
1488.14
-9027.94
-85917.4
-3000.98
56327.5
116367
122980
65008.1
38581.8
21106
13416.8
14982.5
15157.7
13379.1
11561.2
11357.5
11160.7
11186.8
11402.2
10444
10076.4
9670.04
8776.6
9351.55
8820.52
9514.61
6656
7356.68
4435.95
6926.97
4448.58
6392.71
4509.27
5229.11
5308.91
5611.83
5860.86
7803.57
6398.9
6548.84
5677.74
5146.68
4896.34
4608.9
4374.64
4285.55
3824.47
3930.01
3737.14
3556.11
3113.38
2991.78
3020.63
2684.37
2534.8
2040.19
1881.21
1418.34
1315.01
801.026
517.848
127.193
-30.1572
-831.396
-515.367
-1267.34
-790.128
-2014.48
-2130.94
-2054.67
-2041.73
-2017.46
-2010.13
-2004.53
-2008.04
-2014.77
-2028.32
-2045.4
-2068.28
-2094.99
-2127.26
-2163.1
-2204.87
-2250.43
-2301.05
-2356.42
-2417.04
-2481.09
-2552.23
-2628.02
-2709.76
-2796.43
-2891.93
-2986.06
-3088.37
-3191.54
-3299.87
-3411.11
-3528.57
-3666.24
-3781.65
-3909.17
-4002.68
-4095.36
-4222.85
-4329.23
-4405.39
-4426.8
-4428.7
-4369.97
-4304.24
-4147.27
3184.05
3290.13
3468.62
3764.89
4247.88
4903.87
4942.65
3613.29
-20880.5
-61229.2
44993.2
100625
133321
64220.1
44127.8
35765.5
21189.3
11156.2
9909.91
14461.2
12436.9
11403.1
10579.2
11214.9
11140
10557.4
9844.51
10247.6
10469.5
10165.3
9317.43
7609.94
6858.75
5347.5
5985.44
6087.74
5586.39
4964.27
4567
3879.44
4554.28
4599.79
5249.14
4363.8
6689.55
5374.5
6181.78
4669.03
4771.51
4273.23
4215.78
3902.12
3898.69
3514.85
3805.8
3503.04
3237.67
2936.88
2965.91
2784.2
2601.2
2395.61
2027.88
1890.5
1520.43
1392.52
785.156
715.368
159.201
17.1508
-377.257
-309.863
-951.823
-678.018
-1935.88
-2052.02
-1980.99
-1970.96
-1949.55
-1944.36
-1940.59
-1945.35
-1953.09
-1967.32
-1984.87
-2007.97
-2034.54
-2066.54
-2101.82
-2142.58
-2186.95
-2236.68
-2290.94
-2350.49
-2414.71
-2484.79
-2557.61
-2636.5
-2720.45
-2805.88
-2905.55
-3002
-3100.52
-3209.26
-3313.27
-3435.35
-3572.79
-3713.99
-3828.91
-3917.37
-3999.96
-4063.46
-4132.44
-4169.12
-4191.32
-4099.82
-4014.62
-4005.91
-4115.88
3310.91
3346.8
3439.84
3783.93
4065.05
4554.88
2494.6
-896.66
-66034.7
-2275.28
87095
138806
78194.3
34450.1
19363.6
16709
13821.8
14435
11328.6
14161.7
11849
10429.9
11316.9
12445.4
11294.2
10500.6
9980.6
9612.01
9769.91
8086.8
7478.39
6262.14
5851.91
5464.51
5280.56
4888.22
4371.37
4463.77
4276.96
3846.96
4313.74
3325.71
4385.24
3222.73
5627.38
4719.43
5435.37
4743.75
4599.38
3760.52
3804.38
3243.31
3280.65
3187.95
3137.45
2982.48
2768.85
2919.23
2744.53
2703.03
2353.76
2246.75
1891.02
1892.56
1395.47
1352.44
899.643
776.523
355.456
388.454
-249.736
-417.215
-743.768
-490.635
-1849.25
-1965.44
-1899.94
-1893.09
-1874.84
-1871.91
-1870.05
-1876.36
-1885.23
-1900.2
-1918.2
-1941.42
-1967.95
-1999.65
-2034.56
-2074.74
-2118.82
-2167.41
-2219.94
-2277.91
-2339.35
-2406.23
-2479.23
-2555.91
-2638.24
-2730.21
-2821.52
-2916.15
-3014.5
-3123.61
-3226.15
-3334.01
-3445.83
-3577.1
-3688.42
-3780.72
-3855.02
-3958.1
-4051.03
-4117.79
-4159.89
-4084.98
-3936.21
-3857.9
-3894.74
3649.43
3711.14
4070.74
4311.36
4671.66
4671.04
2523.21
-12933.8
-47748.6
60251.6
119149
99582.4
49822.7
41659.4
17047.3
16349.5
15290.6
12468.6
13429.3
14443.6
13894.4
13719.9
12622.1
11584.8
10676.3
9321.17
9204.89
8575.95
8325.55
7580.63
7241.92
6449.29
6163.22
5441.03
5047.25
4566.85
3917.27
3627.41
3591.61
2654.29
3381.9
2219.72
3600.92
2907.35
4546.03
4519.76
4687.5
4321.77
3939.54
3272.27
3186.75
2724.22
2683.04
2574.49
2546.33
2686.14
2808.61
2490.06
2514.48
2434.31
2153.16
2046.48
1785.95
1721.25
1462.7
1393.89
1117.24
887.168
655.522
285.843
-42.3046
-260.974
-591.417
-370.245
-1755.63
-1872.21
-1812.4
-1808.91
-1793.88
-1793.47
-1793.72
-1801.52
-1811.62
-1827.47
-1846.11
-1869.66
-1896.13