/*--------------------------------*- C++ -*----------------------------------*\
| =========                 |                                                 |
| \\      /  F ield         | OpenFOAM: The Open Source CFD Toolbox           |
|  \\    /   O peration     | Version:  2.2.x                                 |
|   \\  /    A nd           | Web:      www.OpenFOAM.org                      |
|    \\/     M anipulation  |                                                 |
\*---------------------------------------------------------------------------*/
FoamFile
{
    version     2.0;
    format      ascii;
    class       volScalarField;
    location    "0.7";
    object      Bx;
}
// * * * * * * * * * * * * * * * * * * * * * * * * * * * * * * * * * * * * * //

dimensions      [1 0 -2 0 0 -1 0];

internalField   nonuniform List<scalar> 
14161
(
1.00008
1.00006
1.00008
1.00009
1.00012
1.00015
1.00019
1.00024
1.0003
1.00038
1.00047
1.00057
1.0007
1.00084
1.00101
1.0012
1.0014
1.00163
1.00189
1.00216
1.00245
1.00276
1.00307
1.00339
1.00372
1.00406
1.00441
1.00475
1.00508
1.00539
1.00568
1.00596
1.00623
1.00646
1.00661
1.00672
1.00677
1.00676
1.00665
1.0065
1.00623
1.00586
1.00542
1.00488
1.00424
1.00346
1.00257
1.00149
1.00037
0.999127
0.997982
0.996722
0.995286
0.993071
1.00206
1.0247
1.05257
1.08449
1.11315
1.13647
1.1566
1.17432
1.19141
1.20535
1.21605
1.2247
1.23211
1.23818
1.24287
1.24679
1.25
1.25254
1.25476
1.25718
1.25985
1.26242
1.26527
1.26937
1.27355
1.27755
1.28212
1.28236
1.28309
1.28733
1.29343
1.30036
1.30888
1.31848
1.32446
1.32711
1.33356
1.34854
1.35862
1.35265
1.29546
1.1946
1.07998
0.965614
0.856854
0.761732
0.680052
0.608742
0.544186
0.486348
0.435378
0.390628
0.351887
0.318139
0.288392
0.261884
0.237377
0.213835
0.190293
0.166258
0.139883
0.112579
0.0774647
0.0526412
0.0152868
1.00008
1.00006
1.00008
1.00009
1.00012
1.00015
1.00019
1.00024
1.0003
1.00038
1.00047
1.00057
1.0007
1.00084
1.00101
1.0012
1.00141
1.00164
1.00189
1.00216
1.00245
1.00276
1.00307
1.00339
1.00372
1.00407
1.00441
1.00475
1.00508
1.00539
1.00569
1.00597
1.00623
1.00646
1.00662
1.00674
1.00679
1.00678
1.00668
1.00652
1.00629
1.00594
1.00551
1.00495
1.00431
1.00351
1.0026
1.00152
1.00041
0.999229
0.997924
0.99733
0.99579
1.00551
1.0179
1.02778
1.04451
1.07003
1.09528
1.11965
1.14215
1.16273
1.18106
1.19677
1.20906
1.21983
1.22851
1.2349
1.24023
1.24504
1.24883
1.25204
1.25505
1.25819
1.2613
1.2645
1.26769
1.27106
1.27474
1.27915
1.28206
1.28369
1.28572
1.28928
1.29538
1.30177
1.30936
1.31795
1.3228
1.32697
1.334
1.33472
1.31342
1.25273
1.15771
1.05601
0.965702
0.886562
0.814615
0.746346
0.678502
0.613504
0.553769
0.499515
0.450226
0.405711
0.366158
0.330993
0.299606
0.271225
0.24492
0.219816
0.194878
0.169662
0.142019
0.113446
0.0787616
0.0552316
0.020705
1.00008
1.00006
1.00008
1.00009
1.00012
1.00015
1.00019
1.00024
1.0003
1.00038
1.00047
1.00057
1.0007
1.00084
1.00101
1.0012
1.00141
1.00164
1.00189
1.00216
1.00245
1.00275
1.00307
1.0034
1.00373
1.00407
1.00441
1.00475
1.00508
1.00539
1.0057
1.00598
1.00625
1.00648
1.00666
1.00678
1.00683
1.00684
1.00677
1.00664
1.00645
1.00615
1.00575
1.0052
1.00456
1.0038
1.00292
1.00181
1.00075
0.999387
0.998231
0.997151
0.996029
0.999858
1.01305
1.03417
1.05002
1.07869
1.10581
1.13125
1.15567
1.1761
1.19414
1.20861
1.21934
1.22981
1.2377
1.24233
1.24673
1.25086
1.25413
1.25727
1.26035
1.26359
1.26692
1.27015
1.27361
1.27685
1.28041
1.2844
1.28566
1.28873
1.29062
1.29381
1.30177
1.3087
1.31723
1.32643
1.32691
1.32781
1.32191
1.28195
1.18645
1.05193
0.942908
0.868907
0.814658
0.767893
0.725809
0.680783
0.63386
0.586303
0.539338
0.493888
0.449702
0.408253
0.369775
0.334448
0.301812
0.271431
0.242825
0.215704
0.189117
0.162529
0.134106
0.105894
0.0736606
0.0523051
0.020387
1.00008
1.00006
1.00008
1.00009
1.00012
1.00015
1.00019
1.00024
1.0003
1.00038
1.00047
1.00057
1.0007
1.00084
1.00101
1.0012
1.00141
1.00164
1.00189
1.00216
1.00245
1.00276
1.00308
1.0034
1.00374
1.00408
1.00442
1.00476
1.00509
1.0054
1.00571
1.006
1.00628
1.00651
1.00671
1.00686
1.00694
1.00696
1.00694
1.00685
1.00668
1.00643
1.0061
1.0056
1.00501
1.00428
1.00339
1.0022
1.00085
0.998758
0.997123
0.99344
0.99094
0.979702
0.979992
1.00902
1.03689
1.07374
1.11246
1.14338
1.17468
1.19566
1.21476
1.22347
1.23469
1.24507
1.25245
1.25562
1.25873
1.26179
1.26399
1.26662
1.26921
1.27216
1.27521
1.27833
1.2816
1.28486
1.28891
1.29225
1.29207
1.29593
1.29977
1.30043
1.30868
1.31504
1.32585
1.33879
1.34149
1.33792
1.28807
1.16734
0.997565
0.874327
0.795422
0.741991
0.702777
0.669183
0.638315
0.605972
0.572833
0.538543
0.503061
0.467206
0.430635
0.394668
0.359221
0.32509
0.292424
0.261266
0.231394
0.20286
0.174833
0.146715
0.119051
0.0951113
0.0673938
0.0488108
0.0201473
1.00008
1.00006
1.00008
1.00009
1.00012
1.00015
1.00019
1.00024
1.0003
1.00038
1.00047
1.00057
1.0007
1.00084
1.00101
1.0012
1.00141
1.00164
1.00189
1.00216
1.00245
1.00276
1.00308
1.00341
1.00375
1.00409
1.00443
1.00477
1.0051
1.00541
1.00573
1.00603
1.00631
1.00655
1.00678
1.00696
1.00708
1.00715
1.00718
1.00716
1.00706
1.00689
1.00663
1.00629
1.00585
1.00534
1.00469
1.0037
1.00246
1.00024
0.998174
0.992795
0.990998
0.963597
0.951278
0.991288
1.04261
1.0936
1.13972
1.17808
1.20614
1.22906
1.24267
1.25362
1.2613
1.26934
1.27508
1.27727
1.27938
1.28041
1.28112
1.28307
1.2851
1.28758
1.29042
1.29341
1.29654
1.29903
1.3031
1.304
1.30545
1.30976
1.31454
1.31536
1.32181
1.32928
1.33879
1.34252
1.35049
1.32972
1.21802
1.05579
0.900319
0.787376
0.716884
0.672741
0.636375
0.601871
0.571143
0.541347
0.512987
0.48452
0.45577
0.426352
0.395856
0.365233
0.333963
0.303029
0.272786
0.243136
0.213811
0.185436
0.158027
0.131874
0.106549
0.0862054
0.0626751
0.0467407
0.0207662
1.00008
1.00006
1.00008
1.00009
1.00012
1.00015
1.00019
1.00024
1.0003
1.00038
1.00047
1.00057
1.0007
1.00084
1.00101
1.0012
1.00141
1.00164
1.00189
1.00216
1.00245
1.00276
1.00308
1.00341
1.00375
1.0041
1.00444
1.00478
1.00512
1.00544
1.00575
1.00606
1.00635
1.00661
1.00686
1.00707
1.00724
1.00739
1.0075
1.00755
1.00754
1.00746
1.00733
1.00718
1.00695
1.00668
1.00637
1.00571
1.00471
1.00272
1.00111
0.99497
0.994021
0.964938
0.947192
1.009
1.08024
1.14268
1.19134
1.22576
1.2489
1.26813
1.28185
1.29353
1.29083
1.29679
1.29829
1.30077
1.30148
1.3022
1.30285
1.30472
1.30614
1.30813
1.31094
1.31337
1.31588
1.31752
1.32054
1.32094
1.32372
1.32781
1.33186
1.33292
1.33163
1.33857
1.34242
1.34318
1.34232
1.27182
1.14254
0.993487
0.851921
0.745745
0.675775
0.626665
0.589605
0.55638
0.52456
0.494627
0.467076
0.440212
0.41325
0.385897
0.358079
0.33044
0.302537
0.274797
0.247101
0.219396
0.192169
0.166103
0.140995
0.117618
0.0951371
0.0777406
0.0578299
0.0446042
0.0217619
1.00008
1.00006
1.00008
1.00009
1.00012
1.00015
1.00019
1.00024
1.0003
1.00037
1.00047
1.00057
1.0007
1.00084
1.00101
1.0012
1.0014
1.00164
1.00189
1.00216
1.00245
1.00276
1.00308
1.00342
1.00376
1.00411
1.00445
1.0048
1.00514
1.00547
1.0058
1.00612
1.00642
1.0067
1.00696
1.00719
1.00742
1.00764
1.00784
1.008
1.00811
1.00819
1.00823
1.00831
1.00839
1.00854
1.00869
1.00896
1.00905
1.00957
1.00955
1.01097
1.01137
1.01393
1.01676
1.10391
1.17354
1.22297
1.25859
1.2828
1.28849
1.31528
1.32011
1.32887
1.32909
1.32638
1.328
1.32585
1.32459
1.32518
1.32585
1.32806
1.3295
1.33169
1.33424
1.33602
1.33875
1.33977
1.34066
1.34191
1.34313
1.34309
1.34281
1.34176
1.34007
1.34066
1.33914
1.33328
1.27923
1.16429
1.0154
0.929986
0.831266
0.757183
0.667242
0.602115
0.557907
0.523425
0.492653
0.463136
0.435188
0.408605
0.382117
0.355792
0.32949
0.303679
0.277918
0.252375
0.226728
0.201087
0.176168
0.15232
0.129532
0.108793
0.0891086
0.0736279
0.05598
0.0438452
0.0225677
1.00008
1.00006
1.00008
1.00009
1.00012
1.00015
1.00019
1.00024
1.0003
1.00037
1.00046
1.00057
1.0007
1.00084
1.00101
1.00119
1.0014
1.00163
1.00189
1.00216
1.00245
1.00276
1.00309
1.00343
1.00377
1.00412
1.00447
1.00482
1.00517
1.00552
1.00586
1.00619
1.0065
1.0068
1.00708
1.00735
1.00762
1.00791
1.00819
1.00844
1.00869
1.0089
1.00916
1.00943
1.0098
1.01036
1.01115
1.0122
1.01375
1.01688
1.01987
1.02839
1.03237
1.08598
1.17467
1.28229
1.30183
1.31818
1.32132
1.33059
1.33252
1.35172
1.35055
1.35177
1.35997
1.35473
1.35222
1.35039
1.3483
1.34781
1.34775
1.34901
1.3493
1.35101
1.35207
1.35281
1.35413
1.35434
1.35298
1.35266
1.35181
1.34933
1.3461
1.34223
1.33554
1.31889
1.29598
1.22594
1.10001
0.961967
0.907672
0.849294
0.791924
0.739907
0.663457
0.59945
0.542712
0.504794
0.471215
0.442069
0.414339
0.387871
0.360892
0.334286
0.308014
0.282955
0.258533
0.23464
0.210704
0.187245
0.164925
0.14364
0.123505
0.105286
0.0879209
0.0735806
0.0571059
0.0451255
0.0246432
1.00008
1.00006
1.00008
1.00009
1.00012
1.00015
1.00019
1.00024
1.0003
1.00037
1.00046
1.00057
1.00069
1.00084
1.00101
1.00119
1.0014
1.00163
1.00189
1.00216
1.00246
1.00277
1.00309
1.00343
1.00378
1.00413
1.00449
1.00484
1.0052
1.00556
1.00592
1.00627
1.00659
1.00691
1.00722
1.00752
1.00785
1.00819
1.00853
1.00888
1.00923
1.00962
1.00999
1.0105
1.01108
1.01201
1.01341
1.01499
1.017
1.02048
1.02298
1.03
1.02865
1.11435
1.29779
1.33423
1.34197
1.35706
1.35356
1.35867
1.36465
1.36795
1.37145
1.36985
1.37457
1.37023
1.36618
1.36417
1.36244
1.36202
1.36123
1.36131
1.36105
1.36156
1.3614
1.36071
1.36041
1.35939
1.35689
1.35518
1.35269
1.34387
1.3297
1.30896
1.2754
1.21065
1.11212
0.965623
0.846841
0.769373
0.749292
0.73494
0.720327
0.692572
0.641441
0.590118
0.536421
0.495538
0.45986
0.430046
0.402556
0.376558
0.349848
0.323246
0.296346
0.270678
0.246015
0.22241
0.199364
0.177585
0.157261
0.138029
0.120053
0.103695
0.0879972
0.0746145
0.0590347
0.0476602
0.0279941
1.00008
1.00006
1.00008
1.00009
1.00012
1.00015
1.00019
1.00024
1.0003
1.00037
1.00046
1.00057
1.00069
1.00084
1.001
1.00119
1.0014
1.00164
1.00189
1.00216
1.00246
1.00277
1.0031
1.00344
1.00379
1.00415
1.00451
1.00487
1.00524
1.00561
1.00598
1.00634
1.00669
1.00703
1.00736
1.0077
1.00807
1.00845
1.00883
1.00924
1.00966
1.01011
1.01055
1.01104
1.01164
1.01245
1.01351
1.0148
1.01664
1.01849
1.0214
1.02304
1.03325
1.06385
1.171
1.22968
1.29078
1.33763
1.35017
1.3572
1.37564
1.3685
1.3794
1.37815
1.37991
1.37724
1.37449
1.37083
1.36775
1.36723
1.36548
1.36463
1.36395
1.36347
1.3627
1.36125
1.35986
1.35616
1.34767
1.33497
1.31456
1.28341
1.23335
1.15858
1.06452
0.937812
0.790541
0.688974
0.640438
0.617641
0.611969
0.619335
0.625916
0.617709
0.595363
0.558565
0.515905
0.482196
0.4508
0.423109
0.396448
0.371291
0.345346
0.319635
0.292518
0.266388
0.240843
0.21678
0.193726
0.172619
0.153119
0.134923
0.118039
0.102634
0.0879126
0.0752595
0.060434
0.0500113
0.0314844
1.00008
1.00006
1.00008
1.00009
1.00012
1.00015
1.00019
1.00024
1.0003
1.00037
1.00046
1.00057
1.00069
1.00084
1.001
1.00119
1.0014
1.00163
1.00189
1.00216
1.00246
1.00277
1.0031
1.00345
1.00381
1.00417
1.00454
1.00491
1.00528
1.00567
1.00605
1.00642
1.00679
1.00715
1.00751
1.00788
1.00827
1.00866
1.00908
1.0095
1.00996
1.01041
1.0109
1.0114
1.01195
1.01253
1.0133
1.0139
1.01505
1.01483
1.01806
1.01043
1.05518
1.092
1.1181
1.16119
1.22726
1.29891
1.31474
1.34116
1.35176
1.36512
1.37001
1.37736
1.37914
1.37322
1.37202
1.36971
1.3669
1.36673
1.36479
1.36274
1.36088
1.35712
1.35321
1.3439
1.33195
1.31275
1.28098
1.23195
1.15941
1.07258
0.971147
0.846539
0.736146
0.645213
0.579544
0.523207
0.503251
0.502841
0.513319
0.528006
0.542936
0.545778
0.542271
0.51872
0.490409
0.462188
0.437267
0.412875
0.389392
0.366344
0.342554
0.318826
0.292948
0.267644
0.241497
0.21696
0.193838
0.172949
0.153488
0.135614
0.119076
0.104041
0.0897854
0.0776835
0.0634447
0.0539379
0.0364846
1.00008
1.00006
1.00007
1.00009
1.00011
1.00015
1.00019
1.00023
1.0003
1.00037
1.00046
1.00056
1.00069
1.00083
1.001
1.00119
1.0014
1.00163
1.00189
1.00216
1.00246
1.00278
1.00311
1.00346
1.00383
1.00419
1.00457
1.00494
1.00533
1.00573
1.00612
1.0065
1.00688
1.00727
1.00766
1.00805
1.00845
1.00885
1.00925
1.00966
1.0101
1.01051
1.01093
1.01132
1.01169
1.012
1.01225
1.01217
1.01187
1.01035
1.00945
0.993945
1.02616
1.07697
1.0824
1.10727
1.13695
1.1991
1.2482
1.31218
1.3207
1.35489
1.36219
1.36606
1.37121
1.36474
1.36186
1.36156
1.35862
1.35568
1.35034
1.34408
1.33314
1.31575
1.29514
1.25831
1.20242
1.13108
1.04424
0.943688
0.832648
0.735887
0.658182
0.594558
0.533763
0.482933
0.447987
0.427429
0.420828
0.429348
0.443277
0.462941
0.483598
0.493663
0.497973
0.486275
0.465461
0.442237
0.422116
0.40142
0.381158
0.360369
0.338968
0.317137
0.293144
0.269118
0.243238
0.218795
0.195775
0.175032
0.155556
0.137826
0.121394
0.106526
0.0925401
0.0808293
0.0669021
0.0581665
0.0417807
1.00008
1.00006
1.00007
1.00009
1.00011
1.00014
1.00018
1.00023
1.00029
1.00037
1.00046
1.00056
1.00069
1.00083
1.001
1.00118
1.00139
1.00163
1.00188
1.00216
1.00246
1.00278
1.00312
1.00348
1.00384
1.00422
1.0046
1.00499
1.00539
1.00579
1.00619
1.00659
1.00697
1.00737
1.00778
1.00819
1.0086
1.009
1.00938
1.00978
1.01017
1.01056
1.01095
1.01135
1.01169
1.012
1.01229
1.01252
1.01278
1.01274
1.01398
1.0087
1.03404
1.085
1.08633
1.0987
1.11199
1.1447
1.2105
1.2808
1.33367
1.36297
1.35852
1.35845
1.35745
1.3543
1.34501
1.34185
1.33195
1.31915
1.30154
1.2726
1.23296
1.16933
1.09792
1.01105
0.906103
0.801685
0.713977
0.646929
0.592348
0.540114
0.496438
0.456399
0.425118
0.398112
0.380428
0.372859
0.374194
0.3853
0.399058
0.419335
0.441189
0.455096
0.463651
0.458492
0.443189
0.423989
0.407207
0.389578
0.372403
0.353891
0.335018
0.315403
0.293575
0.271197
0.246221
0.222664
0.199229
0.178568
0.1589
0.141239
0.124794
0.110042
0.0962278
0.0848427
0.0712124
0.0633318
0.0479919
1.00008
1.00006
1.00007
1.00009
1.00011
1.00014
1.00018
1.00023
1.00029
1.00037
1.00045
1.00056
1.00068
1.00083
1.00099
1.00118
1.00139
1.00162
1.00188
1.00216
1.00246
1.00278
1.00313
1.00349
1.00386
1.00424
1.00463
1.00503
1.00545
1.00586
1.00627
1.00667
1.00707
1.00747
1.00789
1.00831
1.00872
1.00912
1.0095
1.00988
1.01025
1.01062
1.01099
1.01138
1.01176
1.01222
1.0127
1.01351
1.01429
1.01661
1.01702
1.03761
1.07195
1.08712
1.08694
1.09492
1.10215
1.12134
1.16138
1.21266
1.30449
1.33644
1.33849
1.33481
1.32331
1.31495
1.29456
1.27879
1.24476
1.19138
1.13372
1.05832
0.972948
0.866566
0.773082
0.696175
0.636491
0.581529
0.53379
0.494115
0.464343
0.438743
0.417679
0.395124
0.37588
0.360712
0.350148
0.348089
0.350374
0.36147
0.374478
0.393816
0.414029
0.428411
0.438517
0.436633
0.425257
0.409202
0.39405
0.378806
0.363922
0.347585
0.331057
0.313464
0.29372
0.273231
0.249657
0.227015
0.20316
0.182451
0.162507
0.144879
0.128374
0.113727
0.100086
0.0890227
0.0758131
0.0687267
0.0544406
1.00008
1.00006
1.00007
1.00009
1.00011
1.00014
1.00018
1.00023
1.00029
1.00036
1.00045
1.00056
1.00068
1.00082
1.00099
1.00117
1.00138
1.00162
1.00187
1.00216
1.00246
1.00279
1.00313
1.00349
1.00387
1.00427
1.00466
1.00508
1.0055
1.00592
1.00633
1.00675
1.00718
1.0076
1.00802
1.00844
1.00884
1.00924
1.00961
1.00998
1.01032
1.01065
1.01093
1.01122
1.01142
1.01156
1.01139
1.01139
1.00987
1.01099
1.00129
1.02636
1.07363
1.07495
1.07623
1.08149
1.08849
1.10119
1.12228
1.15237
1.22899
1.26389
1.2957
1.27816
1.25329
1.20978
1.15902
1.09674
1.02502
0.926561
0.836004
0.753688
0.689927
0.637775
0.585594
0.541833
0.50467
0.474426
0.449284
0.427526
0.408321
0.393028
0.379973
0.367598
0.355626
0.346949
0.340109
0.340942
0.342763
0.350477
0.362186
0.379713
0.396913
0.410289
0.419919
0.419362
0.410926
0.397272
0.383403
0.369899
0.356635
0.342267
0.327798
0.312028
0.294412
0.275639
0.253946
0.232151
0.208635
0.187655
0.167361
0.149686
0.133073
0.118546
0.105047
0.0942292
0.0815224
0.0751359
0.0616657
1.00008
1.00006
1.00007
1.00009
1.00011
1.00014
1.00018
1.00023
1.00029
1.00036
1.00045
1.00055
1.00067
1.00082
1.00098
1.00117
1.00138
1.00161
1.00187
1.00215
1.00246
1.00279
1.00314
1.0035
1.00388
1.00429
1.0047
1.00513
1.00556
1.00599
1.00641
1.00684
1.00729
1.00773
1.00815
1.00857
1.00898
1.00937
1.00974
1.01009
1.01043
1.01072
1.01096
1.01114
1.01127
1.01132
1.01115
1.01113
1.01029
1.01022
1.00198
1.01756
1.0632
1.0629
1.06832
1.07489
1.08237
1.09249
1.11101
1.1289
1.16057
1.17643
1.19857
1.13813
1.07725
1.00158
0.906677
0.826903
0.760795
0.707047
0.652198
0.604722
0.560378
0.526751
0.498224
0.473609
0.452168
0.43236
0.416804
0.401317
0.388888
0.37739
0.368919
0.361696
0.353817
0.347479
0.343043
0.34207
0.344046
0.35084
0.360864
0.37498
0.387486
0.398751
0.40731
0.407091
0.400395
0.388297
0.37571
0.363119
0.350851
0.337885
0.324884
0.310592
0.294758
0.277683
0.257878
0.237499
0.214446
0.19326
0.172555
0.154775
0.138038
0.123543
0.110089
0.0994016
0.0872904
0.0815097
0.0688765
1.00008
1.00006
1.00007
1.00009
1.00011
1.00014
1.00018
1.00023
1.00029
1.00036
1.00044
1.00055
1.00067
1.00081
1.00097
1.00116
1.00137
1.0016
1.00186
1.00215
1.00246
1.00278
1.00314
1.00351
1.0039
1.00431
1.00473
1.00517
1.00561
1.00605
1.00649
1.00694
1.0074
1.00785
1.00828
1.0087
1.00912
1.00952
1.0099
1.01027
1.01064
1.01098
1.01132
1.01162
1.01192
1.01223
1.0127
1.01327
1.01417
1.01606
1.01654
1.03284
1.06804
1.06452
1.06811
1.06979
1.0708
1.07282
1.07276
1.07778
1.05346
1.05219
0.987664
0.914172
0.850745
0.793286
0.743414
0.69364
0.651537
0.613385
0.57912
0.550093
0.521208
0.496341
0.475171
0.458155
0.444342
0.430211
0.417671
0.406333
0.395423
0.3857
0.377093
0.370325
0.363668
0.356929
0.352671
0.35034
0.352154
0.357304
0.365273
0.37572
0.384511
0.391974
0.399323
0.398574
0.39388
0.382187
0.370489
0.358343
0.346807
0.334874
0.323041
0.31005
0.295867
0.280456
0.262414
0.243552
0.221172
0.200528
0.179275
0.161275
0.144304
0.129716
0.11631
0.105721
0.0942227
0.0888834
0.0769282
1.00008
1.00006
1.00007
1.00009
1.00011
1.00014
1.00018
1.00022
1.00028
1.00035
1.00044
1.00054
1.00066
1.0008
1.00097
1.00115
1.00136
1.00159
1.00185
1.00214
1.00245
1.00278
1.00314
1.00352
1.00391
1.00433
1.00476
1.00521
1.00565
1.00611
1.00658
1.00704
1.0075
1.00796
1.00841
1.00885
1.00927
1.00969
1.0101
1.0105
1.01091
1.01131
1.01174
1.01215
1.01264
1.01314
1.01399
1.01459
1.017
1.01553
1.03777
1.06067
1.0678
1.06548
1.06728
1.06766
1.0678
1.06362
1.05724
1.04143
0.97266
0.884827
0.81636
0.773257
0.731009
0.697287
0.665525
0.637437
0.612598
0.590286
0.568971
0.55011
0.530199
0.511733
0.493398
0.476783
0.463384
0.450699
0.438068
0.427251
0.416019
0.405867
0.396345
0.388393
0.381678
0.374433
0.369474
0.365932
0.36573
0.368208
0.372613
0.379041
0.385164
0.38878
0.394196
0.393371
0.38962
0.378904
0.367306
0.355228
0.343787
0.332702
0.321638
0.309748
0.296917
0.282923
0.266526
0.249058
0.227889
0.207856
0.186197
0.167914
0.150638
0.13593
0.122547
0.11192
0.100985
0.0960254
0.0848002
1.00008
1.00006
1.00007
1.00009
1.00011
1.00014
1.00018
1.00022
1.00028
1.00035
1.00044
1.00054
1.00066
1.0008
1.00096
1.00114
1.00135
1.00158
1.00184
1.00213
1.00244
1.00278
1.00314
1.00352
1.00393
1.00435
1.00479
1.00525
1.0057
1.00617
1.00665
1.00714
1.00761
1.00808
1.00854
1.009
1.00943
1.00984
1.01026
1.01066
1.01105
1.01137
1.0117
1.01193
1.01214
1.01212
1.01225
1.01106
1.01232
1.00389
1.02259
1.06329
1.06098
1.06059
1.06022
1.06067
1.05982
1.0524
1.02429
0.968368
0.867521
0.779902
0.73398
0.700577
0.675276
0.652365
0.635079
0.617546
0.604436
0.591012
0.579706
0.568397
0.555902
0.542976
0.528654
0.512756
0.49789
0.484741
0.471247
0.458378
0.445835
0.434289
0.42306
0.413362
0.40554
0.397948
0.391684
0.386998
0.384245
0.38324
0.384117
0.386948
0.389458
0.389862
0.391414
0.390166
0.385765
0.376499
0.365698
0.353872
0.342629
0.33197
0.321494
0.310519
0.298878
0.286188
0.271331
0.25508
0.235351
0.215626
0.194099
0.175528
0.157982
0.143153
0.129807
0.119131
0.108762
0.104127
0.0935425
1.00007
1.00006
1.00007
1.00008
1.00011
1.00014
1.00017
1.00022
1.00028
1.00035
1.00043
1.00053
1.00065
1.00079
1.00095
1.00113
1.00134
1.00157
1.00183
1.00211
1.00243
1.00277
1.00313
1.00352
1.00393
1.00436
1.00481
1.00528
1.00575
1.00623
1.00673
1.00723
1.00772
1.0082
1.00868
1.00914
1.00959
1.01002
1.01046
1.01088
1.01128
1.01166
1.012
1.01235
1.01262
1.01293
1.01324
1.01321
1.01405
1.00785
1.01758
1.05923
1.05504
1.05523
1.0537
1.05231
1.04718
1.03301
0.97513
0.879719
0.783242
0.729001
0.695802
0.671924
0.655577
0.640583
0.62948
0.61794
0.609345
0.600181
0.593023
0.585909
0.578773
0.570451
0.560685
0.548526
0.5349
0.521031
0.506975
0.493592
0.480645
0.467622
0.454787
0.443205
0.433301
0.42422
0.416029
0.409156
0.403846
0.400215
0.398168
0.397684
0.397799
0.395558
0.393285
0.389337
0.383429
0.375168
0.364206
0.353203
0.342149
0.331783
0.321595
0.311409
0.300761
0.289167
0.275532
0.260349
0.241987
0.222767
0.201702
0.182852
0.165088
0.150303
0.137038
0.126309
0.116425
0.112026
0.102109
1.00007
1.00006
1.00007
1.00008
1.00011
1.00013
1.00017
1.00022
1.00027
1.00034
1.00042
1.00052
1.00064
1.00078
1.00094
1.00112
1.00132
1.00155
1.00181
1.0021
1.00241
1.00275
1.00312
1.00351
1.00393
1.00437
1.00482
1.0053
1.0058
1.00629
1.0068
1.00732
1.00783
1.00832
1.00881
1.00929
1.00976
1.01021
1.01065
1.01109
1.01151
1.01195
1.01239
1.01292
1.01347
1.01443
1.01539
1.01739
1.0191
1.0299
1.04235
1.05781
1.05431
1.05677
1.05397
1.04787
1.03282
0.981993
0.89229
0.793961
0.737203
0.701112
0.679353
0.66263
0.652347
0.642207
0.635497
0.627184
0.620648
0.613403
0.607216
0.600987
0.595285
0.589371
0.583183
0.574798
0.56508
0.55343
0.540556
0.526624
0.512594
0.498866
0.484693
0.471283
0.459623
0.449361
0.440063
0.431874
0.42449
0.418486
0.413762
0.41014
0.40757
0.403532
0.398202
0.39195
0.384334
0.375034
0.364571
0.353478
0.342922
0.332708
0.323
0.313451
0.3036
0.292912
0.280273
0.266221
0.249062
0.230699
0.209991
0.191076
0.173125
0.158459
0.145209
0.134446
0.124948
0.120795
0.111544
1.00007
1.00006
1.00007
1.00008
1.0001
1.00013
1.00017
1.00021
1.00027
1.00034
1.00042
1.00052
1.00063
1.00077
1.00092
1.0011
1.00131
1.00154
1.00179
1.00208
1.00239
1.00273
1.0031
1.00349
1.00392
1.00437
1.00483
1.00532
1.00583
1.00635
1.00687
1.00741
1.00794
1.00846
1.00896
1.00945
1.00993
1.0104
1.01083
1.01125
1.01161
1.01196
1.01225
1.01251
1.01253
1.01275
1.01192
1.0132
1.00638
1.02587
1.05949
1.05472
1.05185
1.05113
1.0477
1.03212
0.997807
0.903779
0.807625
0.749637
0.71308
0.69039
0.676025
0.664723
0.656875
0.648486
0.642874
0.636375
0.631055
0.624803
0.619981
0.614213
0.609414
0.604297
0.599502
0.593647
0.586519
0.577358
0.566595
0.553853
0.540629
0.527327
0.513896
0.500563
0.487613
0.476019
0.465049
0.455109
0.445746
0.437461
0.429659
0.423745
0.418381
0.412977
0.405306
0.396706
0.387172
0.377008
0.366126
0.35517
0.344532
0.334492
0.324992
0.315752
0.306501
0.296397
0.284598
0.271545
0.255394
0.238147
0.217868
0.199212
0.180961
0.166352
0.153074
0.142493
0.13342
0.129533
0.120919
1.00007
1.00006
1.00007
1.00008
1.0001
1.00013
1.00017
1.00021
1.00026
1.00033
1.00041
1.00051
1.00062
1.00075
1.00091
1.00108
1.00129
1.00151
1.00177
1.00205
1.00236
1.0027
1.00307
1.00347
1.0039
1.00435
1.00483
1.00532
1.00585
1.00639
1.00694
1.00749
1.00804
1.00859
1.00912
1.00964
1.01014
1.01061
1.01103
1.01142
1.01173
1.01198
1.01213
1.01223
1.01206
1.01196
1.01118
1.0111
1.00286
1.01396
1.05265
1.04792
1.04786
1.04298
1.03564
0.995711
0.920662
0.826869
0.765953
0.726548
0.703566
0.687018
0.677334
0.667785
0.662248
0.655305
0.650199
0.644463
0.639981
0.634593
0.630738
0.626141
0.622116
0.617861
0.613694
0.609095
0.60434
0.597401
0.58908
0.578783
0.567031
0.553792
0.540565
0.526645
0.512962
0.499768
0.487615
0.47631
0.465793
0.455787
0.446852
0.439114
0.431474
0.424042
0.414652
0.404129
0.392632
0.381294
0.36978
0.35853
0.347552
0.337545
0.327972
0.318996
0.3102
0.300586
0.289617
0.277505
0.262377
0.246239
0.226583
0.208143
0.18984
0.175162
0.161953
0.15157
0.142845
0.139172
0.131149
1.00007
1.00005
1.00007
1.00008
1.0001
1.00013
1.00016
1.00021
1.00026
1.00032
1.0004
1.0005
1.00061
1.00074
1.00089
1.00106
1.00126
1.00149
1.00174
1.00202
1.00233
1.00266
1.00303
1.00344
1.00386
1.00433
1.00481
1.00532
1.00586
1.00642
1.00699
1.00757
1.00814
1.00872
1.0093
1.00986
1.0104
1.0109
1.01138
1.01179
1.01222
1.01258
1.01303
1.01347
1.01417
1.01487
1.01635
1.01778
1.0254
1.03289
1.05812
1.05394
1.05573
1.04286
1.01496
0.940632
0.849035
0.782548
0.742397
0.71623
0.700184
0.688374
0.682093
0.675482
0.671512
0.665496
0.660791
0.654959
0.650115
0.644819
0.640773
0.636623
0.632778
0.629142
0.625058
0.621491
0.617313
0.613104
0.607241
0.599177
0.58982
0.578595
0.566689
0.553243
0.540103
0.526514
0.51367
0.501124
0.488957
0.477226
0.465852
0.455123
0.444801
0.435218
0.424071
0.412472
0.399441
0.386982
0.374408
0.362566
0.351089
0.340832
0.331226
0.322608
0.314078
0.304921
0.294619
0.283262
0.269056
0.253932
0.234979
0.216982
0.198636
0.18383
0.170707
0.160557
0.152161
0.148696
0.141276
1.00007
1.00005
1.00006
1.00008
1.0001
1.00012
1.00016
1.0002
1.00025
1.00032
1.00039
1.00049
1.00059
1.00072
1.00087
1.00104
1.00123
1.00145
1.0017
1.00198
1.00228
1.00262
1.00299
1.00339
1.00382
1.00428
1.00477
1.0053
1.00585
1.00644
1.00703
1.00763
1.00824
1.00887
1.0095
1.01012
1.01073
1.0113
1.01183
1.01231
1.01279
1.01315
1.01351
1.01364
1.01394
1.01338
1.01463
1.00877
1.02743
1.05726
1.05769
1.05736
1.05253
1.03116
0.961265
0.86918
0.802048
0.758531
0.733421
0.714513
0.703621
0.693309
0.687097
0.680861
0.676882
0.672597
0.669288
0.664932
0.661365
0.656882
0.652626
0.648551
0.644196
0.640688
0.636328
0.633326
0.629482
0.626485
0.622686
0.616827
0.609871
0.600939
0.590375
0.577504
0.564525
0.550546
0.537309
0.523173
0.509725
0.496093
0.483036
0.470928
0.459366
0.447742
0.435692
0.422458
0.408635
0.394485
0.381054
0.368205
0.3563
0.345569
0.336024
0.327343
0.318944
0.310086
0.300379
0.28974
0.27643
0.262269
0.24421
0.226655
0.208459
0.193613
0.180595
0.170611
0.162417
0.159059
0.1522
1.00007
1.00005
1.00006
1.00008
1.0001
1.00012
1.00015
1.0002
1.00025
1.00031
1.00038
1.00047
1.00058
1.0007
1.00085
1.00101
1.0012
1.00142
1.00166
1.00193
1.00223
1.00256
1.00293
1.00333
1.00376
1.00422
1.00472
1.00526
1.00582
1.00642
1.00704
1.00768
1.00834
1.00902
1.00972
1.01043
1.01111
1.01176
1.01238
1.01293
1.01345
1.01389
1.01424
1.0144
1.01435
1.0137
1.01383
1.00642
1.01586
1.06689
1.05917
1.05965
1.03628
0.981705
0.892756
0.821027
0.779097
0.751672
0.734131
0.720913
0.710721
0.701127
0.693515
0.686753
0.681494
0.678121
0.674969
0.671837
0.668507
0.665159
0.660824
0.657224
0.652777
0.649694
0.645753
0.642999
0.639678
0.637064
0.634383
0.630904
0.625889
0.618686
0.610388
0.599902
0.588614
0.574919
0.561783
0.547069
0.53372
0.51909
0.505048
0.490776
0.477215
0.462831
0.448807
0.433378
0.418179
0.402642
0.388145
0.374437
0.362077
0.350831
0.341206
0.332169
0.323866
0.315327
0.306186
0.296103
0.283593
0.270262
0.253259
0.2363
0.218307
0.203333
0.190304
0.180486
0.172466
0.16917
0.162926
1.00007
1.00005
1.00006
1.00007
1.00009
1.00012
1.00015
1.00019
1.00024
1.0003
1.00037
1.00046
1.00056
1.00068
1.00082
1.00098
1.00117
1.00138
1.00161
1.00187
1.00217
1.0025
1.00286
1.00325
1.00367
1.00413
1.00464
1.00518
1.00576
1.00636
1.007
1.00768
1.00841
1.00918
1.00995
1.01074
1.01153
1.01232
1.01309
1.01393
1.01479
1.01581
1.01679
1.01813
1.0193
1.02142
1.02269
1.03682
1.04962
1.07015
1.06188
1.05018
0.998828
0.918581
0.836572
0.792844
0.762222
0.743775
0.729719
0.720695
0.714142
0.709058
0.704006
0.699529
0.693976
0.689963
0.685993
0.683222
0.679331
0.676663
0.672406
0.669159
0.664687
0.661394
0.65739
0.654042
0.650798
0.647688
0.644896
0.642341
0.639402
0.634001
0.627887
0.619688
0.609688
0.596951
0.583826
0.568899
0.5552
0.540125
0.525496
0.509502
0.493664
0.477487
0.462277
0.445663
0.429524
0.412855
0.39737
0.382861
0.369752
0.357831
0.34772
0.338323
0.330005
0.321699
0.312958
0.303385
0.291677
0.279111
0.263179
0.246713
0.229043
0.214004
0.201025
0.191389
0.183474
0.180148
0.174477
1.00006
1.00005
1.00006
1.00007
1.00009
1.00012
1.00015
1.00018
1.00023
1.00029
1.00036
1.00044
1.00054
1.00066
1.00079
1.00095
1.00113
1.00133
1.00155
1.00181
1.00209
1.00241
1.00276
1.00314
1.00356
1.00402
1.00452
1.00507
1.00565
1.00627
1.00695
1.00769
1.00848
1.00927
1.0101
1.01096
1.01187
1.01278
1.01371
1.01468
1.01549
1.01627
1.01676
1.01718
1.01663
1.01732
1.00633
1.03508
1.09727
1.07221
1.06262
1.00374
0.918234
0.836893
0.792107
0.761941
0.741986
0.728668
0.719583
0.713985
0.709679
0.70692
0.703474
0.701195
0.697775
0.695137
0.691341
0.689108
0.685706
0.683716
0.680425
0.67831
0.674704
0.671625
0.667912
0.664077
0.661007
0.657916
0.655142
0.652612
0.650241
0.647212
0.642561
0.635824
0.62761
0.616817
0.605201
0.590876
0.577387
0.561784
0.547206
0.530944
0.514003
0.497074
0.479698
0.461661
0.443382
0.424855
0.407771
0.391965
0.377856
0.365125
0.354382
0.344608
0.336134
0.328004
0.319707
0.310646
0.299647
0.28781
0.272802
0.257015
0.239644
0.224586
0.211508
0.202039
0.194267
0.190872
0.185799
1.00006
1.00005
1.00006
1.00007
1.00009
1.00011
1.00014
1.00018
1.00022
1.00028
1.00035
1.00043
1.00052
1.00063
1.00076
1.00091
1.00108
1.00127
1.00149
1.00173
1.00201
1.00231
1.00264
1.00301
1.00342
1.00387
1.00436
1.00489
1.00547
1.0061
1.00681
1.00757
1.0084
1.00929
1.01023
1.01119
1.0122
1.01328
1.01451
1.01582
1.01731
1.01888
1.02073
1.0226
1.02512
1.02708
1.03901
1.05975
1.07916
1.05484
1.01024
0.926039
0.845812
0.800722
0.773105
0.756546
0.746362
0.740486
0.733603
0.726386
0.719426
0.714595
0.710136
0.707962
0.704545
0.702395
0.698864
0.696604
0.693751
0.691792
0.688823
0.687175
0.684214
0.681406
0.678096
0.674415
0.671207
0.667971
0.664945
0.662641
0.65956
0.657618
0.654716
0.649141
0.643057
0.634454
0.624441
0.610947
0.597836
0.581921
0.567532
0.550909
0.53499
0.516876
0.497347
0.477336
0.456764
0.437301
0.418992
0.402579
0.387601
0.37417
0.362636
0.352404
0.343672
0.335479
0.327384
0.318743
0.308465
0.297377
0.283343
0.26811
0.251026
0.235935
0.222921
0.213712
0.206034
0.202473
0.19789
1.00006
1.00005
1.00006
1.00007
1.00009
1.00011
1.00014
1.00017
1.00022
1.00027
1.00033
1.00041
1.0005
1.0006
1.00073
1.00087
1.00103
1.00121
1.00141
1.00164
1.0019
1.00219
1.0025
1.00285
1.00324
1.00368
1.00414
1.00465
1.00521
1.00585
1.00657
1.00734
1.00816
1.00904
1.00996
1.01097
1.01206
1.01324
1.01459
1.01589
1.01732
1.01839
1.01962
1.0195
1.02133
1.00839
1.04901
1.08596
1.05394
1.02873
0.929741
0.855069
0.807994
0.782601