/*--------------------------------*- C++ -*----------------------------------*\
| =========                 |                                                 |
| \\      /  F ield         | OpenFOAM: The Open Source CFD Toolbox           |
|  \\    /   O peration     | Version:  2.2.x                                 |
|   \\  /    A nd           | Web:      www.OpenFOAM.org                      |
|    \\/     M anipulation  |                                                 |
\*---------------------------------------------------------------------------*/
FoamFile
{
    version     2.0;
    format      ascii;
    class       surfaceScalarField;
    location    "0.7";
    object      cfmax;
}
// * * * * * * * * * * * * * * * * * * * * * * * * * * * * * * * * * * * * * //

dimensions      [0 3 -1 0 0 0 0];

internalField   nonuniform List<scalar> 
28084
(
0.00124387
0.00123846
0.00123385
0.00122998
0.00122681
0.00122432
0.00122246
0.0012212
0.0012205
0.0012203
0.00122059
0.00122128
0.00122237
0.0012238
0.00122554
0.00122752
0.00122971
0.00123208
0.00123458
0.00123721
0.00123987
0.00124255
0.00124519
0.00124781
0.00125049
0.00125299
0.00125534
0.00125754
0.00125953
0.00126138
0.00126322
0.00126476
0.00126601
0.0012669
0.00126746
0.0012678
0.00126778
0.00126752
0.001267
0.00126613
0.00126488
0.00126323
0.00126143
0.00125911
0.00125619
0.0012706
0.00128552
0.00130064
0.00131609
0.00133173
0.00134775
0.00136485
0.00138065
0.000905416
0.000876984
0.000897363
0.000920707
0.000946794
0.000969033
0.000991959
0.00101296
0.00103474
0.00105556
0.00107519
0.00109287
0.00111022
0.00112658
0.00113851
0.0011493
0.00115816
0.00116477
0.00117021
0.00117388
0.00117682
0.00117867
0.00117905
0.00118154
0.00118093
0.00117974
0.00117675
0.00117332
0.00116229
0.00115949
0.00115407
0.00114941
0.00114995
0.00116412
0.00118372
0.00121988
0.00121136
0.00119183
0.00114711
0.00112494
0.00108735
0.00104058
0.000994833
0.00095099
0.000912933
0.000881768
0.000855878
0.000833067
0.000812136
0.000794586
0.000780407
0.000769101
0.000760314
0.000754203
0.000751348
0.000751638
0.000754888
0.000761259
0.000769504
0.000779155
0.00079097
0.000802665
0.000817028
0.000832786
0.000855178
0.00289031
0.00288577
0.00124973
0.00287516
0.00124812
0.00285854
0.00124726
0.00283603
0.00124709
0.00280784
0.0012476
0.00277418
0.00124873
0.00273534
0.00125045
0.00269163
0.00125273
0.00264338
0.00125553
0.00259114
0.00125879
0.00253541
0.00126247
0.00247624
0.00126654
0.00241403
0.00127092
0.0023492
0.00127559
0.00228216
0.0012805
0.00221328
0.0012856
0.00214299
0.00129086
0.00207168
0.00129617
0.00199968
0.00130158
0.00192733
0.00130702
0.00185492
0.00131242
0.00178279
0.00131774
0.00171124
0.00132294
0.00164054
0.00132804
0.00157078
0.00133309
0.00150222
0.00133788
0.00143503
0.00134241
0.00136938
0.0013467
0.00130544
0.00135069
0.00124329
0.00135443
0.00118294
0.00135811
0.00112449
0.00136136
0.001068
0.00136422
0.00101348
0.00136663
0.000960969
0.00136862
0.000910503
0.00137028
0.000862352
0.0013715
0.000816238
0.0013724
0.000772152
0.00137296
0.000730022
0.00137307
0.000689805
0.00137276
0.000651464
0.00137194
0.000614885
0.00137081
0.000580083
0.00136903
0.000588035
0.00136672
0.000588193
0.0013802
0.000588345
0.00139412
0.000588549
0.00140821
0.000588732
0.00142267
0.000589097
0.00143721
0.000589493
0.00145213
0.000589714
0.00146792
0.00058268
0.00148288
0.000597988
0.000995403
0.000607438
0.000957532
0.00061199
0.000976637
0.000618228
0.000998598
0.000622146
0.00102091
0.00062636
0.00104292
0.000630341
0.00106666
0.00063489
0.00108761
0.000639417
0.00110845
0.000643169
0.00112938
0.000646937
0.00114816
0.000650764
0.00116565
0.000654741
0.00118126
0.000657807
0.00119608
0.00066077
0.00120769
0.000664103
0.00121747
0.000667126
0.00122503
0.000670078
0.00123127
0.00067327
0.00123568
0.00067659
0.00123834
0.000679951
0.00124027
0.000683289
0.00124145
0.000687414
0.00124141
0.000692167
0.00124285
0.000695828
0.00124096
0.000700586
0.00123903
0.000705842
0.00123446
0.000710261
0.00122925
0.000713932
0.00121857
0.000718709
0.00121479
0.000723962
0.00120939
0.000730107
0.00120412
0.000737248
0.00120376
0.000746184
0.00121459
0.000756367
0.00123256
0.000765977
0.00126888
0.000768654
0.00125967
0.000774332
0.00124512
0.00077849
0.00116268
0.000774867
0.00112146
0.000779421
0.00106766
0.000765706
0.00101744
0.000754795
0.000974958
0.000740538
0.000938863
0.000726991
0.000909097
0.00071932
0.000885937
0.000712797
0.000865344
0.000707865
0.000845771
0.000705523
0.000826131
0.000705743
0.000809713
0.000707015
0.000796456
0.000709239
0.000785914
0.000711878
0.000777535
0.000716224
0.000771691
0.000720966
0.000768523
0.000726553
0.000768101
0.000733034
0.00077053
0.00074055
0.00077597
0.000748793
0.000783379
0.000756987
0.000792292
0.000765981
0.000803262
0.000772921
0.000813958
0.000781992
0.00082644
0.00078922
0.000839485
0.000804229
0.000858579
0.00289146
0.00288647
0.00125756
0.00287544
0.0012597
0.0028584
0.00126254
0.0028355
0.00126604
0.00280693
0.00127016
0.00277294
0.00127487
0.00273484
0.00128014
0.00269207
0.00128592
0.00264469
0.00129217
0.00259305
0.00129885
0.00253754
0.0013059
0.00247856
0.00131327
0.00241651
0.00132093
0.0023518
0.00132881
0.00228486
0.00133688
0.00221606
0.00134505
0.00214583
0.0013533
0.00207452
0.00136158
0.00200251
0.00136987
0.00193014
0.00137807
0.0018577
0.00138618
0.00178551
0.00139413
0.00171389
0.00140187
0.00164308
0.0014094
0.00157321
0.00141681
0.00150453
0.00142386
0.0014372
0.00143055
0.0013714
0.0014369
0.00130731
0.00144286
0.001245
0.0014485
0.0011845
0.00145398
0.00112588
0.00145891
0.0010692
0.00146338
0.0010145
0.00146732
0.000961799
0.00147073
0.000911137
0.0014737
0.000862524
0.00147617
0.000815946
0.00147823
0.000771983
0.00147988
0.000730063
0.001481
0.000690097
0.0014816
0.000651902
0.00148174
0.000615521
0.00148126
0.00058094
0.00148
0.000597127
0.0014783
0.000597614
0.00149092
0.000598084
0.00150387
0.00059855
0.0015171
0.000598902
0.00153057
0.000599376
0.00154387
0.000599695
0.00155751
0.000600837
0.00157232
0.000603624
0.00158647
0.000607853
0.00104969
0.000617927
0.00101018
0.000623949
0.00102785
0.000631999
0.00105149
0.000633982
0.00107299
0.000637804
0.00109651
0.000640711
0.00111999
0.000644817
0.00114258
0.000649172
0.00116323
0.000651239
0.00118249
0.000652997
0.00120121
0.000656445
0.00121778
0.000659893
0.00123524
0.000661383
0.00124972
0.000663747
0.00125871
0.000666618
0.00126736
0.000668955
0.00127434
0.000671496
0.00127905
0.000674669
0.00128272
0.000677738
0.00128436
0.000680509
0.00128488
0.000683576
0.00128474
0.000687053
0.00128337
0.000691619
0.00128424
0.000694737
0.00128101
0.000699588
0.0012775
0.000706032
0.00127044
0.000712572
0.00126601
0.000714385
0.00125492
0.000718058
0.00124899
0.0007229
0.00124193
0.000729182
0.00123634
0.000736052
0.00123669
0.000748792
0.0012533
0.000761071
0.00126892
0.000772372
0.001304
0.000762893
0.00129337
0.000757964
0.00124205
0.00075506
0.00113577
0.000753608
0.0010663
0.00076116
0.00100416
0.000759197
0.000963652
0.000752514
0.000934158
0.000743379
0.000910684
0.000737296
0.000890212
0.000734301
0.000871941
0.000731819
0.000855938
0.000728725
0.000842166
0.00072453
0.000828886
0.000721298
0.000816214
0.00072029
0.000805199
0.000722462
0.00079609
0.000724723
0.000789288
0.000728052
0.000784257
0.000731374
0.000781295
0.000735959
0.000780657
0.000741238
0.000781724
0.000748221
0.000785802
0.00075708
0.000791477
0.00076623
0.000799401
0.000776888
0.000809069
0.000785246
0.000819765
0.000796195
0.000831919
0.000803749
0.000844215
0.000822058
0.000861399
0.00289036
0.00288496
0.00126735
0.00287352
0.00127319
0.0028561
0.00127969
0.00283447
0.00128679
0.00280779
0.00129448
0.00277557
0.00130272
0.00273806
0.00131149
0.00269556
0.00132072
0.00264843
0.00133039
0.00259701
0.00134043
0.00254168
0.00135081
0.00248286
0.00136146
0.00242093
0.00137235
0.00235632
0.0013834
0.00228943
0.00139455
0.00222066
0.00140578
0.00215044
0.00141703
0.00207911
0.0014282
0.00200707
0.00143929
0.00193461
0.00145027
0.00186207
0.00146105
0.00178976
0.0014716
0.001718
0.00148183
0.00164704
0.00149179
0.00157701
0.00150151
0.00150814
0.00151079
0.00144062
0.00151961
0.00137462
0.001528
0.00131031
0.00153592
0.0012478
0.00154346
0.00118707
0.0015507
0.00112823
0.0015573
0.00107132
0.00156334
0.00101639
0.00156881
0.000963451
0.00157366
0.000912563
0.00157795
0.000863724
0.00158166
0.000816931
0.00158489
0.000772106
0.00158773
0.000729599
0.00158981
0.000689858
0.00159127
0.000651923
0.00159225
0.000615812
0.00159252
0.000581496
0.00159195
0.000605954
0.00159086
0.000606753
0.00160268
0.000607492
0.00161466
0.000608129
0.00162641
0.000608559
0.00163833
0.000609231
0.00164983
0.000609501
0.00166118
0.000610779
0.00167045
0.000609829
0.00167901
0.000615334
0.00109903
0.000630948
0.00106049
0.000638111
0.00108294
0.00064905
0.0011112
0.000652068
0.00113725
0.000657988
0.00116503
0.000660109
0.00119169
0.000665961
0.00121717
0.000666838
0.00123987
0.000669407
0.00125371
0.000672605
0.00127478
0.000675235
0.00128957
0.000676514
0.00130425
0.000675683
0.0013181
0.000677834
0.00132663
0.000679871
0.00133317
0.000681369
0.00133899
0.00068332
0.00134241
0.000686235
0.00134467
0.000688985
0.00134502
0.000691392
0.00134454
0.000694027
0.00134349
0.0006975
0.00134037
0.000701727
0.00134017
0.000706219
0.00133574
0.000710854
0.00133116
0.000718089
0.00132133
0.000725048
0.00131639
0.000729149
0.00130597
0.000730628
0.00129509
0.00073606
0.0012903
0.000743388
0.00128405
0.000749091
0.00129828
0.000762371
0.00131395
0.000782713
0.00133975
0.000782584
0.00135267
0.000774326
0.00133874
0.000776085
0.00119938
0.000770033
0.00110024
0.000773443
0.00102076
0.000770985
0.000970775
0.000763765
0.000937227
0.000754974
0.000912433
0.000748861
0.00089253
0.000742689
0.000875535
0.000739615
0.000860319
0.000737958
0.000846966
0.000736488
0.000835444
0.000734643
0.000824841
0.000733242
0.000815247
0.00073272
0.000807029
0.000733721
0.000800239
0.000735882
0.000795227
0.000738337
0.000791455
0.000741231
0.000788819
0.000745234
0.000787749
0.00075001
0.000788174
0.000756531
0.000790282
0.000765756
0.00079363
0.000775085
0.000799151
0.000787033
0.000807346
0.000796697
0.000817338
0.000810817
0.000828943
0.000819809
0.000842211
0.000840706
0.000860573
0.00288705
0.00288251
0.00127911
0.00287403
0.00128858
0.00285944
0.00129867
0.0028389
0.00130933
0.00281255
0.00132054
0.00278063
0.00133226
0.0027434
0.00134446
0.00270115
0.0013571
0.00265424
0.00137013
0.002603
0.00138349
0.00254783
0.00139715
0.00248912
0.00141104
0.00242728
0.00142508
0.00236273
0.00143926
0.00229587
0.00145348
0.00222709
0.00146772
0.0021568
0.00148189
0.00208542
0.00149593
0.00201328
0.00150982
0.0019407
0.0015235
0.00186801
0.00153691
0.00179554
0.00155002
0.00172358
0.00156273
0.0016524
0.00157507
0.00158215
0.00158708
0.00151305
0.00159856
0.00144526
0.00160949
0.00137902
0.00161989
0.00131444
0.00162974
0.00125167
0.00163915
0.00119065
0.00164812
0.00113153
0.00165634
0.00107435
0.00166395
0.00101914
0.0016709
0.000965926
0.00167721
0.000914775
0.00168284
0.000865658
0.00168788
0.00081861
0.0016924
0.000773498
0.00169623
0.000730334
0.00169936
0.000689181
0.00170178
0.000651576
0.00170352
0.000615806
0.00170466
0.000581816
0.00170503
0.000614566
0.00170468
0.000615631
0.001716
0.00061656
0.00172749
0.000617484
0.00173836
0.000618064
0.00174945
0.000618654
0.00175952
0.000618524
0.0017698
0.000620102
0.00177571
0.000606522
0.00178211
0.000618601
0.00115797
0.00064477
0.00111501
0.000656896
0.00114897
0.000671972
0.00118588
0.000680712
0.00121882
0.000684234
0.00124824
0.000688451
0.00127269
0.000686682
0.00129155
0.000689015
0.00130848
0.000684606
0.00132582
0.000685182
0.00134215
0.000685558
0.00135449
0.000683809
0.00136766
0.000683337
0.00138208
0.000684459
0.0013888
0.000684862
0.00139372
0.000685146
0.00139856
0.000686181
0.00140215
0.00068787
0.00140215
0.000690143
0.00140201
0.000691974
0.00140054
0.000694067
0.00139918
0.00069806
0.00139518
0.000703491
0.00139337
0.000709683
0.0013889
0.000715635
0.00138245
0.000723035
0.0013737
0.000729636
0.00136717
0.000733761
0.00135693
0.000735735
0.00134459
0.00074128
0.00133753
0.000748113
0.00133359
0.000756013
0.0013446
0.000767528
0.00135498
0.000788849
0.00139425
0.000792524
0.00138397
0.000800267
0.00130657
0.000820452
0.00115945
0.000822186
0.00107091
0.000805685
0.00101071
0.000787455
0.000965156
0.000771172
0.000929935
0.000761082
0.000904432
0.00075356
0.00088635
0.000747985
0.000871058
0.000743926
0.000856398
0.000742073
0.000843269
0.000741293
0.000831555
0.000740411
0.000821136
0.00073992
0.000811895
0.00074052
0.000804732
0.000742587
0.000799511
0.000745744
0.000796005
0.000748689
0.000793454
0.000751324
0.000791531
0.000754808
0.000790087
0.000759976
0.000790316
0.000766374
0.000792089
0.000776338
0.000795133
0.000785541
0.000800285
0.000798166
0.000807685
0.000808585
0.000817542
0.000824985
0.000829529
0.000835328
0.000843158
0.000857524
0.000862183
0.00289008
0.00288808
0.00129285
0.00287995
0.00130589
0.00286571
0.0013195
0.00284549
0.00133365
0.00281945
0.00134831
0.00278781
0.00136345
0.00275084
0.00137903
0.00270883
0.00139501
0.0026621
0.00141135
0.00261102
0.00142799
0.00255598
0.00144486
0.00249736
0.00146192
0.00243557
0.00147911
0.00237103
0.00149635
0.00230415
0.00151359
0.00223531
0.00153079
0.00216495
0.00154783
0.00209344
0.00156469
0.00202115
0.00158133
0.00194839
0.00159769
0.00187552
0.00161371
0.00180282
0.00162928
0.00173063
0.00164443
0.00165918
0.00165914
0.00158865
0.00167339
0.00151925
0.00168704
0.00145115
0.00170005
0.0013846
0.00171245
0.0013197
0.00172419
0.00125659
0.00173544
0.00119524
0.00174609
0.00113579
0.00175596
0.00107827
0.00176507
0.00102272
0.00177349
0.000969212
0.00178117
0.000917753
0.00178819
0.000868332
0.00179467
0.000820941
0.00180043
0.000775501
0.00180533
0.000732008
0.00180944
0.000690425
0.00181287
0.000650857
0.00181551
0.000615465
0.00181745
0.000581877
0.00181879
0.000623016
0.00181938
0.000624466
0.0018302
0.000625604
0.00184135
0.000626625
0.00185201
0.000627423
0.0018623
0.000627752
0.00187187
0.000627347
0.00188165
0.000627379
0.00188546
0.000586395
0.00189153
0.000626227
0.0012337
0.000668521
0.00119538
0.000694485
0.00124521
0.000709955
0.00128322
0.000711693
0.00131352
0.000710229
0.00134119
0.000704398
0.00136424
0.000701765
0.00138524
0.000696692
0.00140465
0.000692757
0.00141736
0.000693142
0.0014375
0.000694045
0.00144848
0.000691152
0.00145095
0.000687667
0.00146982
0.00068827
0.00147579
0.000688187
0.00148042
0.000687721
0.00148455
0.000688058
0.00149037
0.000689425
0.00149011
0.000691109
0.00148938
0.000692167
0.00148789
0.000693627
0.00148562
0.000698645
0.00148212
0.000703789
0.00148011
0.000710352
0.00147483
0.000718039
0.00146854
0.000726357
0.00145558
0.000732736
0.00144812
0.000738552
0.00143543
0.000740612
0.00142722
0.000743526
0.00141356
0.000751099
0.0014082
0.000757466
0.00140707
0.000771943
0.00142668
0.000793272
0.00141935
0.000799472
0.00140933
0.000830485
0.00127559
0.00085501
0.00118667
0.000849689
0.00111284
0.000826034
0.00104634
0.000804796
0.000987417
0.000785313
0.000945403
0.000767116
0.000913947
0.000760149
0.000889853
0.000754874
0.000872209
0.000750081
0.000857418
0.000747258
0.00084405
0.000745645
0.000831718
0.000744765
0.000820393
0.000744658
0.000810526
0.000746157
0.000802982
0.000749121
0.000797666
0.000753368
0.000794233
0.000757336
0.000792084
0.000760182
0.000790515
0.000763863
0.000789328
0.000770101
0.00078993
0.000777048
0.000791642
0.0007878
0.000794913
0.000796594
0.00080002
0.000809769
0.000807019
0.000820821
0.00081655
0.000839172
0.000828859
0.000850828
0.00084313
0.000874089
0.000863448
0.00289754
0.00289588
0.00130856
0.00288807
0.0013251
0.00287415
0.00134218
0.00285423
0.00135974
0.00282848
0.00137778
0.0027971
0.00139627
0.00276036
0.00141517
0.00271855
0.00143445
0.002672
0.00145402
0.00262105
0.00147386
0.00256611
0.0014939
0.00250755
0.00151408
0.00244577
0.00153434
0.00238122
0.00155459
0.00231428
0.00157479
0.00224537
0.00159487
0.00217486
0.00161476
0.00210318
0.00163442
0.00203069
0.00165372
0.00195771
0.00167269
0.00188458
0.00169125
0.0018116
0.00170933
0.00173912
0.00172685
0.00166735
0.00174385
0.00159648
0.00176031
0.00152673
0.00177609
0.00145827
0.00179115
0.00139134
0.0018055
0.00132607
0.00181913
0.00126257
0.00183222
0.00120082
0.00184455
0.00114097
0.001856
0.00108305
0.00186662
0.00102714
0.00187641
0.000973284
0.00188548
0.000921493
0.00189382
0.000871715
0.00190178
0.000823933
0.0019087
0.000778124
0.0019148
0.000734268
0.00192004
0.000692342
0.00192447
0.000652303
0.00192816
0.000614808
0.00193113
0.000581646
0.00193347
0.000631194
0.00193516
0.000633121
0.00194575
0.000634648
0.00195779
0.000635981
0.00196914
0.000637146
0.00198105
0.000637939
0.00199323
0.000638459
0.00200585
0.000638072
0.00201993
0.000622104
0.00203181
0.000645543
0.00134768
0.000714058
0.00133318
0.000734282
0.0013822
0.000744994
0.00143194
0.00074051
0.00145304
0.000729001
0.00147158
0.00072125
0.00147581
0.000713958
0.00150236
0.000706853
0.00151114
0.000697821
0.00151419
0.000692309
0.0015352
0.000691697
0.00153879
0.0006866
0.00154421
0.000683338
0.00156217
0.000680931
0.00157537
0.000680357
0.00157967
0.000679756
0.00158114
0.000679352
0.00158853
0.000680515
0.00158629
0.000681851
0.00158456
0.000682303
0.00158099
0.000685769
0.00157624
0.000692552
0.00156889
0.000698154
0.00156424
0.000705044
0.00155707
0.000714457
0.0015481
0.000722405
0.00153362
0.000728379
0.00152399
0.000734469
0.00150549
0.000736209
0.00148883
0.000737449
0.00147316
0.000740849
0.00146166
0.000748415
0.0014599
0.000764424
0.00144935
0.00077457
0.00143519
0.000814239
0.00133278
0.000886595
0.00126352
0.000911772
0.0012198
0.000903668
0.0011633
0.000864819
0.00110146
0.000826452
0.0010321
0.000798135
0.000974113
0.000779096
0.000935502
0.000767438
0.000906243
0.000761625
0.000883802
0.00075707
0.000865921
0.000754004
0.000850551
0.000751844
0.0008367
0.000750611
0.000824052
0.000750612
0.000813529
0.00075235
0.000805434
0.000755717
0.000799387
0.000759994
0.000794962
0.000763739
0.000791691
0.000767253
0.000788937
0.000772105
0.000787866
0.000779883
0.000788516
0.000787481
0.000790139
0.00079916
0.000793521
0.000808294
0.00079855
0.000822535
0.000805512
0.000833197
0.000815254
0.000852736
0.000827998
0.000863445
0.000843945
0.000890594
0.000865715
0.00290721
0.00290586
0.00132628
0.00289836
0.00134623
0.00288473
0.00136668
0.0028651
0.00138759
0.00283961
0.00140895
0.00280848
0.00143072
0.00277195
0.00145286
0.00273032
0.00147534
0.00268391
0.00149809
0.00263308
0.00152107
0.0025782
0.00154422
0.00251967
0.00156744
0.00245789
0.00159069
0.00239327
0.00161391
0.00232623
0.00163703
0.00225719
0.00165993
0.0021865
0.00168258
0.00211462
0.00170493
0.00204186
0.00172691
0.00196861
0.00174845
0.00189519
0.00176949
0.00182188
0.00179
0.00174903
0.00180986
0.00167689
0.0018291
0.00160563
0.00184773
0.00153548
0.00186558
0.00146661
0.00188266
0.00139926
0.00189892
0.00133357
0.0019144
0.00126961
0.00192931
0.00120742
0.00194327
0.00114711
0.0019563
0.00108873
0.00196841
0.0010324
0.00197962
0.000978116
0.00199002
0.000925937
0.0019997
0.000875734
0.00200894
0.000827545
0.00201708
0.000781336
0.00202432
0.000737105
0.00203076
0.000694789
0.00203628
0.000654387
0.00204098
0.000615827
0.00204493
0.000581206
0.00204815
0.000639211
0.002051
0.000641613
0.0020616
0.000643947
0.00207417
0.000646027
0.00208682
0.000648416
0.00210165
0.000650214
0.00211762
0.00065373
0.00214293
0.000652664
0.00216284
0.000635307
0.00222107
0.000711911
0.00193278
0.000761962
0.00153502
0.000773339
0.00155706
0.000773963
0.00156831
0.000761451
0.00157577
0.00074492
0.0015823
0.000732724
0.00158414
0.000729173
0.00160742
0.000711657
0.00161024
0.000703584
0.00160014
0.000695278
0.00165223
0.000694262
0.00165438
0.00068641
0.00164315
0.000681327
0.0016592
0.000681005
0.001677
0.000680668
0.00167887
0.000680518
0.00167893
0.000680033
0.00168358
0.000681377
0.00167991
0.000682547
0.00167617
0.000682566
0.00167018
0.000688656
0.00166291
0.000695909
0.00165416
0.000703885
0.00164535
0.0007105
0.0016361
0.00071935
0.00162225
0.000728135
0.00160441
0.000734398
0.0015889
0.00073984
0.00156353
0.000740873
0.00154557
0.000740409
0.00152529
0.000737903
0.00149404
0.000744521
0.0014687
0.000748756
0.00143768
0.000775303
0.00135941
0.000862272
0.00128875
0.000929783
0.00125679
0.000951462
0.00122579
0.000939592
0.00118921
0.000900515
0.00114173
0.000855896
0.00107585
0.00081878
0.00100457
0.000793956
0.000958556
0.000780295
0.000926048
0.000771435
0.00090114
0.000764649
0.000880534
0.000760581
0.00086211
0.000757964
0.000845882
0.000756593
0.000831691
0.000756742
0.000820247
0.000758764
0.000811172
0.000761983
0.000803965
0.000765904
0.000798288
0.000769518
0.000793293
0.000774086
0.000789983
0.000780025
0.000788846
0.000789186
0.000789423
0.000797361
0.000791011
0.000809915
0.000794391
0.000819267
0.000799537
0.000834286
0.00080656
0.000844598
0.000816855
0.000864494
0.000829555
0.000875137
0.000845973
0.000907752
0.000866905
0.00291907
0.002918
0.001346
0.00291078
0.00136929
0.00289744
0.00139303
0.00287807
0.0014172
0.00285283
0.00144179
0.00282192
0.00146675
0.00278558
0.00149206
0.00274412
0.00151767
0.00269783
0.00154354
0.00264708
0.00156957
0.00259224
0.00159574
0.0025337
0.00162195
0.00247188
0.00164815
0.00240716
0.00167424
0.00233999
0.00170016
0.00227076
0.00172586
0.00219987
0.00175124
0.00212773
0.00177624
0.00205468
0.00180079
0.0019811
0.00182485
0.00190732
0.00184832
0.00183365
0.00187114
0.0017604
0.00189331
0.0016878
0.00191482
0.00161609
0.00193555
0.00154547
0.00195543
0.00147615
0.0019744
0.00140833
0.00199255
0.00134218
0.00200992
0.0012777
0.0020265
0.00121501
0.00204209
0.00115419
0.00205666
0.00109532
0.00207026
0.0010385
0.00208285
0.00098374
0.00209461
0.000931125
0.00210569
0.000880449
0.00211609
0.000831786
0.00212536
0.000785143
0.00213383
0.000740449
0.0021413
0.000697715
0.00214804
0.000656853
0.00215369
0.00061788
0.00215875
0.00058079
0.0021629
0.000646822
0.00216687
0.000649705
0.00217829
0.000652424
0.00219071
0.000654787
0.00220366
0.00065769
0.00221951
0.000659792
0.00223458
0.000662675
0.00225926
0.000665537
0.00226855
0.000752418
0.00227528
0.000872075
0.00200063
0.00081289
0.00175889
0.000798153
0.00168306
0.000791305
0.00166708
0.000776004
0.00166725
0.00076249
0.00167329
0.000748025
0.00167842
0.000743304
0.00168061
0.000724796
0.00169529
0.000715559
0.00169416
0.000708883
0.00175266
0.000702668
0.00175199
0.000695339
0.0017366
0.00069138
0.00175009
0.000692352
0.0017712
0.000691926
0.00177286
0.000691536
0.00176857
0.000690069
0.00176619
0.000690832
0.00176125
0.000691253
0.0017515
0.000696192
0.00174327
0.00070273
0.0017336
0.000710474
0.00171813
0.000719072
0.00170595
0.00072632
0.00169534
0.000734865
0.00167586
0.000742416
0.00165728
0.000745714
0.00163856
0.000748439
0.0016003
0.000749215
0.0015681
0.000746856
0.00153068
0.00073914
0.00148908
0.00073872
0.00142794
0.000759147
0.00135996
0.000832365
0.00128475
0.000894755
0.001237
0.000939679
0.0012283
0.00096378
0.0012057
0.000966319
0.00118298
0.0009377
0.00115074
0.000892103
0.00110293
0.000842027
0.00103989
0.00081137
0.000986819
0.000792842
0.00095006
0.000782903
0.000922121
0.000776169
0.000899182
0.000770857
0.000879089
0.000766451
0.000860522
0.000764486
0.000843931
0.000764255
0.000830714
0.00076581
0.000819836
0.000768302
0.000810921
0.000771702
0.000803312
0.000775336
0.000796812
0.000780765
0.000793136
0.000787588
0.000791654
0.000797778
0.000791877
0.000806551
0.000793632
0.000819709
0.000796911
0.000829427
0.000802221
0.000845041
0.000809039
0.000855742
0.000819376
0.00087609
0.000831792
0.000887305
0.000848115
0.000924178
0.000868456
0.00293309
0.00293227
0.00136776
0.00292533
0.00139427
0.00291224
0.00142122
0.00289312
0.00144856
0.00286811
0.00147628
0.0028374
0.00150436
0.00280124
0.00153276
0.00275991
0.00156142
0.00271373
0.0015903
0.00266304
0.00161932
0.00260821
0.00164844
0.00254963
0.00167754
0.00248773
0.0017066
0.00242289
0.00173551
0.00235555
0.0017642
0.0022861
0.00179259
0.00221494
0.00182062
0.0021425
0.0018482
0.00206912
0.00187525
0.00199517
0.00190174
0.00192096
0.0019276
0.00184687
0.00195274
0.00177316
0.00197711
0.00170008
0.00200078
0.00162786
0.00202356
0.0015567
0.00204543
0.00148688
0.00206631
0.00141853
0.00208628
0.00135182
0.00210551
0.0012868
0.00212367
0.00122357
0.00214082
0.0011622
0.00215697
0.00110277
0.00217202
0.00104543
0.00218601
0.000990146
0.00219909
0.000936988
0.00221146
0.000885781
0.00222296
0.000836612
0.00223342
0.000789464
0.00224283
0.000744301
0.0022515
0.000701079
0.00225913
0.000659709
0.00226573
0.000620264
0.00227129
0.000582712
0.00227622
0.000653667
0.00228058
0.000656852
0.00229141
0.000659536
0.00230199
0.000662137
0.00231386
0.000664667
0.0023255
0.000667528
0.00233915
0.000669572
0.00235492
0.000680748
0.00236473
0.000910608
0.00235972
0.000925686
0.00189758
0.000888166
0.00182268
0.000843241
0.00181785
0.00081541
0.00175903
0.000790688
0.0017318
0.000778252
0.00174713
0.000764005
0.00174873
0.000749082
0.00174228
0.000737543
0.00176356
0.000721967
0.00176613
0.000719437
0.00182426
0.000710352
0.00182261
0.000700904
0.00181508
0.000697193
0.00182021
0.000698733
0.0018434
0.000698034
0.00184364
0.000697347
0.00183748
0.000695535
0.00182798
0.000696289
0.00182186
0.000699622
0.00180884
0.00070754
0.00179823
0.000712846
0.00178653
0.000720718
0.00176868
0.000728183
0.00175035
0.000733573
0.00173495
0.000741762
0.00170304
0.000749535
0.00165915
0.00075523
0.00162678
0.000755085
0.00157557
0.000747851
0.00152753
0.000740375
0.00146328
0.000737317
0.00139529
0.000753743
0.00131667
0.000805939
0.00124866
0.00086037
0.0012168
0.000908051
0.00120293
0.00093937
0.00119333
0.000958708
0.00117684
0.000962631
0.00115696
0.000946403
0.00113648
0.000913402
0.00110283
0.000869965
0.00105375
0.000830197
0.00100831
0.000807592
0.000970983
0.000795053
0.00094212
0.000787178
0.000917795
0.000781807
0.000896616
0.000777473
0.000877818
0.000774391
0.000860948
0.00077304
0.000845867
0.000773497
0.000832759
0.000774891
0.000821436
0.000777605
0.000811307
0.000781479
0.000803718
0.000787574
0.000799153
0.00079492
0.000796695
0.000805475
0.000796003
0.000815049
0.000797166
0.000828596
0.000800127
0.000838966
0.000805274
0.00085508
0.00081181
0.000866481
0.000822035
0.000887427
0.000834158
0.000899749
0.000850314
0.000940277
0.000869997
0.00294922
0.00294865
0.00139157
0.00294195
0.00142121
0.00292911
0.00145125
0.00291022
0.00148167
0.00288542
0.00151244
0.0028549
0.00154353
0.0028189
0.00157492
0.00277769
0.00160655
0.00273159
0.00163836
0.00268093
0.00167027
0.00262609
0.00170224
0.00256745
0.00173418
0.00250544
0.00176601
0.00244043
0.00179766
0.00237288
0.00182902
0.00230317
0.00186002
0.00223173
0.00189062
0.00215892
0.00192071
0.00208515
0.00195024
0.00201078
0.00197908
0.00193613
0.00200722
0.00186153
0.00203461
0.00178731
0.00206116
0.0017137
0.00208691
0.00164093
0.0021117
0.00156921
0.0021355
0.00149879
0.00215823
0.00142988
0.00218
0.00136255
0.00220097
0.00129691
0.0022207
0.00123307
0.00223936
0.00117111
0.00225696
0.00111109
0.00227349
0.00105316
0.00228887
0.000997301
0.00230327
0.000943541
0.00231685
0.000891753
0.00232943
0.000842027
0.0023409
0.000794319
0.00235137
0.000748601
0.00236094
0.000704788
0.00236925
0.000662904
0.00237674
0.000622941
0.00238304
0.000584884
0.00238874
0.000659969
0.00239454
0.000663039
0.00240339
0.000665765
0.00241198
0.000668477
0.00242215
0.000670314
0.0024302
0.000673123
0.00244181
0.000673265
0.00244888
0.000723262
0.00244747
0.000969511
0.00233026
0.00094703
0.00196192
0.0009144
0.00191608
0.000876975
0.00193199
0.000829369
0.00188423
0.000797105
0.00180078
0.000782443
0.00179969
0.000769737
0.00179724
0.000754145
0.00180731
0.000742118
0.00181247
0.000727964
0.00184686
0.000720869
0.00187549
0.000710722
0.00187371
0.000703465
0.00187943
0.000697125
0.00189325
0.000698037
0.00190738
0.000696587
0.00190345
0.000695824
0.00189785
0.000693748
0.00188425
0.00069884
0.00187395
0.000705387
0.00185469
0.000713889
0.00183968
0.000719698
0.00182132
0.000727881
0.00177904
0.000736015
0.00174757
0.000741093
0.00171458
0.000743601
0.0016625
0.000743227
0.0016146
0.00074368
0.0015497
0.000737504
0.00148579
0.000729835
0.001412
0.000740042
0.00133409
0.00076207
0.00126668
0.00079436
0.00121629
0.000825788
0.00118556
0.000868662
0.00116917
0.000910388
0.00116907
0.000935491
0.00116357
0.000950431
0.00115456
0.000955539
0.0011376
0.000945991
0.00111846
0.000922557
0.00109402
0.000883297
0.00105728
0.000850192
0.00101947
0.000822638
0.000985778
0.000807881
0.000957797
0.000798457
0.000933997
0.000792775
0.000912838
0.000788383
0.000894221
0.000785509
0.000877877
0.000783638
0.000862979
0.000782363
0.000848706
0.000782348
0.000834798
0.000784246
0.000822304
0.000788426
0.000813665
0.000794731
0.000808022
0.000802182
0.000804308
0.000812882
0.000802508
0.00082301
0.000802839
0.000836862
0.000805045
0.00084796
0.000809502
0.00086451
0.000815509
0.000876796
0.000825306
0.000898377
0.000837041
0.000912327
0.000852905
0.000955867
0.000871825
0.00296744
0.00296709
0.00141745
0.00296062
0.00145012
0.00294801
0.00148315
0.00292933
0.00151653
0.00290473
0.00155024
0.00287439
0.00158426
0.00283853
0.00161854
0.00279742
0.00165303
0.00275137
0.00168767
0.00270072
0.0017224
0.00264585
0.00175713
0.00258712
0.0017918
0.00252496
0.00182631
0.00245977
0.0018606
0.00239195
0.00189455
0.00232195
0.00192811
0.00225017
0.0019612
0.00217698
0.00199368
0.00210277
0.00202555
0.00202792
0.00205672
0.00195277
0.00208714
0.00187764
0.00211666
0.00180286
0.0021453
0.00172865
0.00217308
0.00165527
0.0021998
0.00158292
0.00222548
0.00151188
0.00225002
0.00144233
0.00227359
0.00137432
0.00229617
0.00130802
0.00231748
0.00124351
0.00233764
0.00118091
0.00235657
0.00112028
0.00237445
0.0010617
0.00239127
0.00100519
0.00240698
0.000950769
0.00242164
0.000898357
0.0024353
0.000847992
0.00244772
0.000799655
0.00245913
0.000753291
0.00246926
0.000708898
0.00247836
0.000666471
0.00248626
0.000625946
0.00249339