/*--------------------------------*- C++ -*----------------------------------*\
| =========                 |                                                 |
| \\      /  F ield         | OpenFOAM: The Open Source CFD Toolbox           |
|  \\    /   O peration     | Version:  2.2.x                                 |
|   \\  /    A nd           | Web:      www.OpenFOAM.org                      |
|    \\/     M anipulation  |                                                 |
\*---------------------------------------------------------------------------*/
FoamFile
{
    version     2.0;
    format      ascii;
    class       volScalarField;
    location    "0.7";
    object      divBf;
}
// * * * * * * * * * * * * * * * * * * * * * * * * * * * * * * * * * * * * * //

dimensions      [1 -3 -2 0 0 -1 0];

internalField   nonuniform List<scalar> 
14161
(
428.219
348.315
311.671
268.221
229.478
191.465
156.434
122.767
91.2178
61.1774
34.101
7.50376
-16.5668
-39.0502
-58.5791
-77.7625
-96.762
-110.977
-125.395
-137.454
-151.231
-162.238
-176.611
-181.728
-186.278
-187.907
-187.937
-190.876
-188.681
-183.009
-166.97
-141.17
-111.149
-94.2357
-56.4137
3.27118
79.5695
201.702
286.603
471.542
641.449
881.261
1237.83
1665.93
2209.22
-25820.9
-26614.4
-27224.6
-27732.3
-27865.4
-27863.1
-27988.8
-27008.9
-30298.7
-33990.1
-37112.9
-37916.2
-39409.6
-36515.7
-34190.7
-32611.1
-30439
-28895.7
-25998.8
-23304.5
-21056.1
-18919.1
-16386.8
-14000.1
-11963.9
-9630.01
-7624.52
-5635.23
-4213.39
-2125.43
-576.015
1103.47
1739.81
4474.78
4954.18
7553.06
10459.4
10794
10756.2
12188.6
13145.7
12914.4
14254.9
16705.6
17235.7
15197.9
15712.1
17218.2
22913.2
26503.3
19842.2
13565.5
6487.55
1613.11
-1809.81
-3865.79
-5664.03
-6752.11
-7361.78
-7463.94
-7358.13
-7180.76
-7016.7
-6723.54
-6558.6
-6253.71
-6059.56
-5513.01
-4891.03
-3594.44
-3264.47
2812.87
-4527.94
16260.8
180.482
102.021
65.7992
22.0919
-17.8961
-57.6545
-95.6501
-132.777
-167.508
-202.516
-235.694
-267.803
-298.378
-329.189
-357.446
-385.081
-412.668
-439.409
-465.611
-490.622
-516.692
-542.292
-569.511
-594.145
-617.163
-637.093
-658.297
-679.479
-700.439
-716.311
-724.169
-731.24
-729.935
-735.289
-723.134
-693.664
-653.365
-576.449
-512.335
-369.878
-190.805
-2.9154
299.337
637.226
1174.52
-22508.8
-23195.1
-23761.2
-24229.8
-24373.5
-24533.9
-24465.7
-23462.6
-32150.9
-25592.5
-28159.1
-29943.7
-30007
-26968.1
-25076.6
-24440.4
-22189.4
-21509.3
-19420.8
-17544
-15836.6
-13802.7
-11822.8
-10364.5
-8710.72
-6816.21
-5201.99
-3712.22
-2191.39
-201.319
1317.18
3449.92
4173.87
6286.14
7047.19
10059.8
10543.9
12581.9
12783.4
14496.5
15049.3
15613.7
17951.9
19129.7
19585.8
18142.8
21723.4
21247.5
20996.7
6615.82
4592.89
1621.37
3382
2160.81
-1641.29
-3644.07
-5100
-5844.95
-6602.76
-7199.78
-7371.91
-7344.96
-7169.91
-6881.79
-6695.32
-6394.93
-6221.22
-5660.72
-5021.29
-3606.07
-3498.27
2494.57
-4749.59
14927
-62.6565
-138.064
-172.399
-215.078
-254.733
-295.033
-333.868
-372.9
-410.295
-448.265
-484.975
-521.933
-557.134
-593.006
-628.394
-663.003
-698.442
-732.698
-768.345
-804.174
-839.414
-877.767
-914.767
-955.278
-991.952
-1028.86
-1065.62
-1103.59
-1144.12
-1173.99
-1204.52
-1231.31
-1253.02
-1268.88
-1286.23
-1292.47
-1272.36
-1201.59
-1159.06
-1044.17
-895.332
-734.296
-439.302
-173.887
333.17
-19497.8
-20057.8
-20677.8
-21075.8
-20931
-21453.1
-20756.2
-20399.1
-23699.7
-29283.4
-27590
-33940.7
-38567.8
-37501.4
-36825.3
-34344.2
-30347
-27624.6
-23985.2
-20340.7
-18265.1
-15129.3
-12199.4
-10020.9
-8059.74
-5796.92
-3947.94
-2039.18
-690.399
1334.64
3083.13
4322.95
5496.62
7473.78
8493.58
11492.4
11770.3
13871.3
13134.3
14633.9
15247
14287.9
15085.6
17881.7
17823.2
19927.3
26790.2
31103.2
30452.6
17910.2
11770.6
7413.03
5214.68
3791.89
3238.86
1387.82
-425.502
-1942.28
-3402.69
-4192.72
-4873.25
-5218.65
-5585.4
-5678.88
-5724.84
-5488.81
-5382.84
-4924.71
-4448.83
-2949.02
-3405.27
2404.61
-4446.82
13955.9
-299.597
-370.642
-401.849
-442.027
-480.296
-519.496
-558.312
-597.61
-636.793
-675.993
-715.051
-754.457
-793.775
-833.065
-873.427
-913.606
-954.06
-995.76
-1038.78
-1082.03
-1126.03
-1173.02
-1219.59
-1270.88
-1318.55
-1370.46
-1419.39
-1470.36
-1521.99
-1571.59
-1619.64
-1655.98
-1702.21
-1736.75
-1765.52
-1786.45
-1783.45
-1747.94
-1696.24
-1622.92
-1517.29
-1358.42
-1111.17
-841.636
-330.414
-16903.6
-17470.8
-18066.9
-18427.6
-18975.9
-19788.3
-18530.6
-23114.8
-14609.6
-28692.9
-32981.9
-35088.3
-37969.7
-34816
-32161.9
-29049.3
-23489
-20581.8
-17119.8
-16108.9
-14341.7
-10821.8
-6826.55
-5678.88
-4595.53
-2930.44
-1378.35
-4.55526
1085.45
3172.18
4381.65
5888.41
6991.74
9202.57
11110
12915.7
11306.7
15181.5
14321.1
15514.6
16089.2
15205.8
20071.4
22813.6
25293.7
41364.7
47290.5
35685.4
21158.9
14074.6
9809.29
6813.88
5274.62
4188.57
2890.72
2366.07
1030.75
-684.031
-2021.36
-3202.85
-4063.49
-4614.39
-5017
-5141.85
-5271.62
-4978.45
-4858.71
-4262.66
-3753.92
-2153.11
-3016.96
2034.4
-4031.51
12468.6
-529.061
-594.384
-621.414
-658.074
-693.524
-730.983
-768.591
-807.313
-846.137
-886.207
-926.49
-967.463
-1008.91
-1051.97
-1094.56
-1138.33
-1183.21
-1231.72
-1279.09
-1328.5
-1379.52
-1433.85
-1488.61
-1546.67
-1605.18
-1667
-1728.34
-1790.22
-1852.3
-1916.3
-1974.32
-2028.89
-2085.89
-2132.14
-2172.08
-2204.27
-2209.89
-2197.06
-2163.74
-2091.86
-1992.57
-1825.39
-1608.04
-1270.07
-768.347
-14417.9
-14796.5
-15180.1
-15488.5
-16240.9
-16504.4
-16070.7
-19390.3
2636.4
-25759.6
-45936.4
-47313.9
-48727.6
-42102.3
-39449.8
-28726.9
-25866.8
-17825.6
-17847.3
-12816.3
-12592.9
-8641.9
-6391.67
-3544.76
-2648.77
-1068.98
412.845
1913.17
2898.66
4550.27
5714.45
7572.48
8618.82
10198.5
12849.8
13125.9
14174.4
15503.5
16381.9
16201.7
16392.2
17497
20887.5
20401.9
38146.9
68238.9
60113.6
41454
27500.1
15798.9
10888.5
9207.97
7052.2
5433.11
3693.03
2477.51
1313.94
351.842
-565.441
-1434.85
-2233.38
-2934.66
-3451.14
-3738.42
-3963.08
-3734.49
-3784.52
-3391.51
-3260.46
-1521.59
-2626.1
1681.25
-3567.27
11246.6
-749.575
-808.198
-830.083
-862.3
-894.112
-929
-964.338
-1001.6
-1039.6
-1079.28
-1119.78
-1161.63
-1204.07
-1248.71
-1294.35
-1340.58
-1389.55
-1440.31
-1492.78
-1546.94
-1603.89
-1663.1
-1726.34
-1788.63
-1854.93
-1925.12
-1996.19
-2066.93
-2135.78
-2216.95
-2283.49
-2344.97
-2412.98
-2470.4
-2521.21
-2560.64
-2580.35
-2580.99
-2554.98
-2497.27
-2392.59
-2257.19
-2031.68
-1702.56
-1248.07
-12427.9
-12832.4
-13316.3
-13818.6
-14098.6
-14144
-13468.5
-16815.7
8208.12
-38141.4
-61574.8
-57855.7
-49042.1
-39847.9
-29100.8
-25124.8
-19530.3
-17944.2
-10355.2
-5443.81
-9179.9
-4894.28
-4598.71
-1296.26
-469.926
946.325
2195.81
4005.15
4506.45
6199.81
7420.97
9460.47
10584.4
11909.7
13530.2
13583.4
14316.7
16481
18441.3
19602.7
17742.3
21428
21720.3
31116.7
68281
71935.9
41655.5
35898.2
25825
18889
13536.7
9859.56
7879.29
6387.88
4511.7
3168.64
1894.76
712.24
-328.662
-1236.9
-1938.97
-2450.78
-2926.15
-3188.85
-3392.68
-3192.89
-3235.03
-2730.95
-2879
-1217.14
-2401.92
1336.82
-3262.49
9869.4
-959.93
-1010.99
-1026.9
-1054.05
-1081.78
-1113
-1145.47
-1180.61
-1217.3
-1255.76
-1295.56
-1337.61
-1380.82
-1425.73
-1473.51
-1521.96
-1572.67
-1626.42
-1681.55
-1740.64
-1801.85
-1864.36
-1933.13
-2002.34
-2075.02
-2149.27
-2229.52
-2306.64
-2387.22
-2469.08
-2548.19
-2623.19
-2696.17
-2765.65
-2824.74
-2861.69
-2900.3
-2905.63
-2880.64
-2821.96
-2728.61
-2557
-2314.09
-1968.05
-1488.07
-10437.2
-10721.8
-10955.5
-10965.3
-11164.5
-10652.7
-12081.5
-9854.95
-16500.9
-67003.4
-69889.3
-51414.7
-44778.4
-33421.4
-25224
-21231.7
-21757.9
-11976.1
-9575.1
-1379.08
-3364.61
-1347.75
1616.42
1188.99
1740.84
2306.06
3481.43
4820.52
5701.07
7859.79
8794.77
9815.79
12588.3
13260.8
14249.3
16173.7
17685.5
18920.3
19021.5
20562.5
20877.9
24091.4
33246
64991.2
73507
47624.9
37864.1
28181.9
29033.9
23024.1
15705.5
12279.9
8799.6
7169.03
5301.11
4005.66
2717.95
1673.23
703.059
-148.983
-862.944
-1383
-1909.91
-2236.38
-2523.79
-2426.71
-2572.96
-2105.94
-2442.19
-962.729
-2045.54
1177.13
-2795.55
9003.75
-1158.94
-1201.8
-1211.15
-1232.9
-1255.75
-1282.87
-1312.22
-1344.72
-1379.16
-1416.13
-1455.14
-1496.32
-1539.82
-1585
-1632.87
-1683.48
-1735.85
-1791.55
-1848.74
-1910.63
-1975.24
-2043.1
-2112.96
-2188.67
-2266.68
-2345.55
-2431.58
-2514.65
-2602.57
-2688.95
-2777.17
-2859.9
-2939.21
-3013.38
-3078.89
-3135.43
-3170.57
-3183.62
-3152.53
-3124.76
-3016.22
-2894.33
-2638.38
-2371.89
-1870.81
-8873.16
-9324.68
-9733.45
-9792.97
-9476.33
-10109.9
-9356.72
-5568.89
-85761
-129818
-43219
-16766.9
-11070.3
-8337.22
-9468.6
-13495.1
-11083.7
-1690.71
-7119.46
-1865.36
4217.15
846.666
3631.02
2828.04
3819.52
3744.92
5003.27
6262.34
7612.75
9498.42
10569.5
12481.9
14531.4
16337.2
16218.7
17637.5
18231.7
20437.2
21361
25087.3
29505.6
38870.5
64894.5
82467.5
53219.4
35769.3
22258
20428.1
24912
20756.3
19572.8
13498.7
10659.7
8294.83
6081.25
4569.94
3283.47
2174.12
1171.24
361.797
-416.985
-921.519
-1413.27
-1657.74
-1947.68
-1885.29
-2075.48
-1644.79
-2141.36
-897.974
-1980.68
797.804
-2771.25
8019.03
-1345.54
-1379.77
-1382.39
-1398.08
-1415.88
-1438.72
-1464.52
-1493.9
-1525.94
-1560.95
-1598.68
-1638.84
-1681.84
-1726.83
-1775.11
-1826.02
-1879.75
-1936.96
-1996.48
-2060.18
-2127.13
-2198.26
-2272.28
-2349.98
-2432.12
-2516.76
-2604.78
-2697.1
-2787.99
-2881.07
-2971.5
-3063.33
-3152.31
-3228.82
-3298.14
-3367.86
-3405.06
-3419.81
-3407.8
-3362.23
-3292.72
-3142.59
-2948.63
-2533.49
-2111.16
-7081.54
-7179.43
-7181.69
-7627.67
-6027.71
-7409.15
-6100.63
-11887.1
-203349
-78823.8
-14325
-11887.2
-8263.76
-6505.52
-5088.7
-10166.1
-2463.13
-5396.46
1971.18
-1583.95
5829.66
4864.44
5920.52
4986.16
6200.76
6801.09
7871.84
8547.91
10090.8
11793.7
12424.2
13268.7
14830.1
16744.5
17740
20916.9
25262.7
28213.4
31333.2
43032.4
53398.7
76116
86169.7
54399.4
28925.9
16615.3
13844.1
13110.8
16136.7
17319.4
17326.8
13212.7
10775.7
8576.44
6784.22
5422.6
4156.09
3081.17
2135.47
1410.55
634.909
16.3328
-589.577
-945.659
-1350.94
-1316.47
-1612.69
-1221.51
-1913.04
-809.95
-1992.45
632.673
-2864.1
7373.22
-1518.74
-1544.19
-1539.9
-1549.36
-1562.08
-1580.45
-1602.3
-1628.53
-1658.02
-1690.87
-1726.86
-1765.67
-1807.98
-1852.45
-1900.52
-1951.83
-2006.38
-2063.45
-2125.95
-2191.19
-2259.69
-2333.03
-2409.44
-2490.02
-2575.26
-2663.66
-2755.35
-2851.71
-2948.83
-3046.04
-3136.25
-3239.45
-3334.15
-3406.67
-3492.52
-3565
-3616.03
-3622.38
-3640.59
-3578.24
-3533.49
-3391.33
-3228.3
-2896.41
-2493.7
-6128.75
-5962.57
-6199.58
-5864.13
-6161.95
-6147.98
-3970.29
-37690.4
-109360
-69717.1
-63406.1
-44624.8
-25941.4
-7503.4
-11809.5
-2256.94
-2483.1
-2422.87
2017.31
904.639
6073.2
5877.23
7905.76
5585.06
7233.2
7927.87
8739.78
9815.02
11037.6
12970.7
13834.9
16635.6
19315.9
23513.4
27979.3
33104.7
42654.6
50049.3
61022
73022.6
87131.1
68102.2
43691.1
26253.4
14328.3
7024.15
3313.68
6551.84
8591.84
12141.1
13093.7
10792.6
9627.27
7904.18
6644.66
5349.55
4333.65
3273.55
2537.27
1891.57
1097.68
484.962
-134.143
-479.772
-944.604
-912.613
-1294.03
-915.999
-1753.21
-710.909
-2007.48
541.849
-2967.38
6679.55
-1677.8
-1694.43
-1683.25
-1686.64
-1694.1
-1707.92
-1726.01
-1748.99
-1775.64
-1806.3
-1840.27
-1877.63
-1918.69
-1963.06
-2010.33
-2061.94
-2116.94
-2174.76
-2236.91
-2304.24
-2374.02
-2449.16
-2527.82
-2610.37
-2698.03
-2789.61
-2884.59
-2983.15
-3087.95
-3183.08
-3279.9
-3391.61
-3488.54
-3571.16
-3659.55
-3737.98
-3783.01
-3824.24
-3816.87
-3806.6
-3709.19
-3612.62
-3359.15
-3152.79
-2692.74
-4940.91
-4911.82
-4792.25
-4697.61
-3892.89
-5124.12
2044.97
-99069
-38826.9
-36615.5
-49700.7
-70397.5
-39000.1
-20255.1
-15306
-7682.86
-6697.92
-3393.13
-360.918
6259.96
8197.91
4621.94
8914.33
7007.1
8908.11
10155.7
11935.6
12542.1
14892
17976.1
22030.9
25741.1
33124.8
44618.4
54410.4
66855.8
71938.7
81945.3
74369.9
60620.5
45258.7
38427.8
23698.4
11734
3772.98
1065.47
682.016
2990.92
2094.77
6638.24
7813.21
8851.8
7806.16
7145.21
6230.29
5254.12
4401.36
3436.66
2863.4
2226.33
1623.81
1027.61
385.525
-42.7139
-510.974
-549.157
-1029.1
-662.924
-1659.78
-567.628
-2055.61
517.601
-3108.07
6121.14
-1821.95
-1829.98
-1812.19
-1809.58
-1811.95
-1821.43
-1835.71
-1855.5
-1879.22
-1907.59
-1939.69
-1975.67
-2015.22
-2058.85
-2105.86
-2156.89
-2212.1
-2270.09
-2333.29
-2400.33
-2471.72
-2547.24
-2628.73
-2712.51
-2801.24
-2898.25
-2991.85
-3095.85
-3201.68
-3301.37
-3403.47
-3515.83
-3619.73
-3713.16
-3801.5
-3878.95
-3941.09
-3988.98
-3995.43
-3980.07
-3910.09
-3811.23
-3668.29
-3451
-3128.13
-4098.51
-4177.92
-4175.03
-4188.25
-4074.53
-4392.15
-4212.27
-116455
-14152.7
-17367.3
-20822.8
-36828.6
-52564.7
-48959
-27706.2
-10457.2
-16723.5
3915.85
-288.584
6791.92
9991.86
6842.2
9124.76
8590.9
11058.2
14513.3
16944.9
22597.4
25943.7
35069
49330.6
58996.6
71960.1
81707.5
85705.4
75940.1
59303.4
46546.9
40938.1
35085
26740.5
17655
11140.1
3918.04
-740.913
-2501.4
-3261.55
-1020.54
-957.904
2379.58
4763.01
6873.16
6357.19
6115.05
5560.7
4880.79
4175
3360.02
2942.9
2387.55
1932.82
1355.84
598.886
200.451
-325.127
-378.721
-923.359
-555.734
-1648.41
-517.291
-2157.15
473.071
-3306.89
5541.21
-1950.64
-1950.49
-1926.38
-1918.17
-1915.69
-1921.09
-1931.67
-1948.24
-1969.33
-1995.39
-2025.5
-2060.1
-2098.43
-2140.95
-2187.24
-2238.33
-2292.47
-2351.05
-2414.28
-2481.89
-2554.61
-2629.87
-2712.6
-2798.37
-2888.05
-2986.47
-3084.15
-3189.39
-3291.55
-3402.71
-3511.8
-3611.7
-3729.91
-3833.29
-3931.19
-4004.91
-4079.09
-4124.66
-4160.1
-4144.62
-4087.03
-3989.39
-3881.95
-3646.19
-3294.91
-3229.13
-3234.67
-3347.84
-3328.88
-3457.88
-3465.1
-8452.49
-105917
-13725.3
-13915.8
-12706.9
-22312.7
-41929.4
-74721.1
-50709
-34906.1
-927.664
2555.89
6065.3
7834.52
11625.1
10601.6
12890.3
18952.3
21192.5
30246.8
39230.8
53981.4
63949.7
77704.1
88383.4
89517.7
76853.3
59701.5
46258.3
40774.2
34706.9
29296
23294
18854.3
14283.4
9547.73
4280.19
77.7521
-3073.11
-4250.25
-4650.88
-3994.13
-2998.58
-63.2965
2663.94
5184.49
5226.81
5225.51
4884.53
4498.69
3922.03
3255.18
2954.96
2505.03
2086.04
1577.16
944.558
460.758
-50.4886
-152.891
-728.437
-378.912
-1550.7
-385.728
-2182.35
567.844
-3392.88
5097.31
-2063.47
-2055.66
-2025.74
-2012.45
-2005.47
-2006.92
-2014.15
-2027.72
-2046.32
-2070.19
-2098.39
-2131.29
-2168.84
-2210.13
-2255.57
-2305.99
-2359.78
-2418.47
-2481.76
-2549.28
-2622.63
-2698.78
-2780.82
-2869.58
-2959.29
-3055.88
-3161.32
-3265.72
-3365.48
-3484.53
-3596.54
-3699.39
-3812.62
-3932.74
-4033.5
-4110.98
-4188.98
-4252.6
-4299.08
-4286.05
-4232.44
-4156.23
-4044.69
-3815.4
-3536.6
-2313.42
-2311.05
-2322.4
-1902.4
-2559.7
474.523
-50435.7
-55331.7
-810.318
-2277.16
-2890.87
-10070.9
-20650.9
-39140.3
-65805.2
-53195
-4243.46
5123.38
15494.2
17233.6
19025
21785.8
30943.6
48626.9
56163.2
68635.3
83041.8
94331.5
89365.8
75826.7
58209.8
48838.1
42969.5
35923.3
28108.3
20237.9
17921.3
15511.7
13832.3
11060.8
8354.4
5203.75
1819.91
-1275.67
-4051.17
-4989.98
-5786.46
-5549.31
-4128.96
-1591.18
1375.62
3796.94
4332.4
4404.09
4232.67
3994.75
3539.35
3038.24
2869.66
2474.08
2188.44
1728.2
1160.73
638.021
153.553
-17.321
-600.718
-295.048
-1490.38
-325.598
-2237.99
525.974
-3509.15
4615.2
-2160.12
-2145.38
-2110.33
-2092.35
-2081.41
-2079.2
-2083.45
-2094.31
-2110.53
-2132.43
-2158.83
-2190.42
-2226.43
-2266.93
-2311.59
-2361.05
-2414.43
-2473.03
-2536.27
-2603.36
-2676
-2754.03
-2835.84
-2924.69
-3016.56
-3112.05
-3219.39
-3322.67
-3429.47
-3542.7
-3662.43
-3775.33
-3887.38
-3998.76
-4109.78
-4201.13
-4280.38
-4353.09
-4409.75
-4407.76
-4393.66
-4329.79
-4215.88
-4005.87
-3733.96
-1721.4
-1741.33
-1961.46
-1697.5
-3071.19
2017.7
-103854
-38349.9
-2325.17
-3691.84
-5189.72
-8567.79
-13941
-24735.6
-38720.5
-57516.5
-23123.2
8817.95
30538.2
39258.1
44116.3
62176.3
74612
91040.2
91431.1
81630
67879.5
52524
48712.6
43484.8
36072.8
28973.9
22986.3
19819.6
15543.2
12779.5
11337.8
9199.29
8137.87
6992.36
5283.87
3363.04
650.238
-1049.06
-3802.02
-5251.67
-5991.97
-5671.4
-4069.67
-2102.24
462.548
2737.36
3570.26
3773.37
3710.62
3581.51
3220.88
2900.88
2728.02
2497.71
2236.98
1831.98
1357
882.522
378.652
156.67
-424.182
-164.865
-1364.74
-209.394
-2225.4
505.19
-3431.43
4261.49
-2240.45
-2219.6
-2180.16
-2158.04
-2143.64
-2138.32
-2139.82
-2148.31
-2162.45
-2182.47
-2207.35
-2237.62
-2272.11
-2311.8
-2355.68
-2404.32
-2457.26
-2515.34
-2578.28
-2645.08
-2718.02
-2796.59
-2877.46
-2965.52
-3061.42
-3155.08
-3259.78
-3367.72
-3477.5
-3586.62
-3711.35
-3833.65
-3945.89
-4050.77
-4168.06
-4274.08
-4358.62
-4422.07
-4479.15
-4508.33
-4524.6
-4464.84
-4333.28
-4142.26
-3847.38
-970.166
-965.699
-548.471
-336.526
-18.5656
-493.362
-94924
-15183.5
-2243.24
-2248.48
-2162.64
-2160.01
-4046.52
-8725.59
-6614.42
-4726.87
5435.79
43873.6
70563.9
76549
94047.9
85891
76340.7
59015.4
54796.9
49672.7
45716
36536.7
29039.1
25477.5
21713.1
18434.3
15749
13907.7
10645.1
10064
7792.72
6034.48
5372.65
4835.98
3731.23
2528.43
688.906
-1752.21
-3571.63
-4705.53
-5076.82
-4894.45
-3853.79
-2382.89
-99.2556
1955.98
2886.44
3236.58
3318.71
3200.11
2969.84
2714.08
2537.68
2427.3
2169.76
1881.69
1459.84
1062.14
585.28
274.692
-272.132
-106.673
-1267.73
-169.951
-2244.66
405.524
-3391.39
3871.82
-2304.46
-2278.4
-2235.33
-2209.81
-2192.45
-2184.5
-2183.67
-2190.09
-2202.42
-2220.83
-2244.31
-2273.29
-2306.69
-2345.2
-2388.55
-2436.14
-2488.78
-2546.13
-2608.32
-2675.53
-2747.05
-2826.37
-2907.35
-2993.75
-3090.13
-3187.53
-3287.38
-3398.63
-3510.12
-3620.26
-3740.53
-3868.11
-3982.97
-4093.56
-4205.81
-4320.26
-4418.38
-4489.46
-4530.43
-4595.73
-4618.72
-4576.02
-4464.55
-4252.76
-4022.17
-483.807
-580.982
-489.589
-777.906
259.849
-12337.5
-87183.5
-4697.65
-1003.69
175.114
1657.79
3053.13
3628.98
3915.35
8641.7
37274.2
70155.6
86870.5
70875.1
65689.7
54589.8
54288.3
48912.6
42077.1
36354.1
33390.6
29471.5
25551.7
23300.9
18922.1
15274.6
13408.9
13275.7
10222.5
10088
8842.53
7794.35
6423.58
5322.55
4806.76
3688.74
2487.83
682.295
-1162.72
-2689.62
-3781.98
-3946.27
-3794.31
-3280.54
-2184.87
-426.9
1442.27
2433.41
2939.72
3000.34
2946.63
2738.07
2570.42
2369.34
2361.06
2129.27
1926.45
1521.78
1263.34
810.491
425.913
-88.9799
-0.633592
-1080.67
-57.4609
-2173.64
396.08
-3290.54
3596.55
-2352.25
-2321.95
-2276.08
-2247.89
-2228.17
-2218.09
-2215.37
-2220.08
-2230.89
-2247.87
-2270.12
-2297.94
-2330.31
-2368.05
-2410.33
-2457.4
-2509.18
-2566.22
-2627.33
-2694.77
-2765.66
-2842.9
-2925.34
-3011.89
-3105.71
-3206.48
-3304.06
-3410.17
-3529.96
-3643.99
-3758.97
-3879.77
-4006.6
-4123.06
-4232.52
-4346.92
-4449.31
-4536.8
-4594.91
-4640.56
-4636.93
-4606.32
-4487.1
-4313.38
-4037.84
197.939
202.559
612.52
-13.2453
2384.94
-57511.3
-49095.3
2903.65
2111.77
2997.42
3107.61
6803.96
10124.8
20613.8
56329.6
121737
121572
67268.2
53074.6
43568.6
37252.7
33562.8
29863.1
26883.6
24142.6
23465.3
21572.7
21180.1
20337.4
18720.5
15642.5
13949.9
12867.5
10735.7
10267
8979.77
7735.94
6679.43
5571.65
4786.98
3834.97
2701.84
1172.45
-369.967
-1640.44
-2289.18
-3205.15
-2750.06
-2669.76
-1904.24
-774.55
980.25
2072.19
2659.5
2754.23
2685.56
2533.66
2401.96
2212.05
2212.53
2039.49
1880.11
1586.1
1392.43
970.39
584.238
87.0806
102.144
-925.496
-16.6505
-2149.25
329.853
-3212.01
3324.89
-2384.1
-2350.57
-2302.75
-2272.6
-2251.16
-2239.47
-2235.29
-2238.64
-2248.23
-2264.05
-2285.29
-2312.06
-2343.59
-2380.39
-2421.93
-2468.23
-2519.33
-2575.72
-2636.07
-2702.87
-2773.61
-2849.37
-2932.19
-3016.93
-3110.91
-3208.8
-3311.14
-3413.4
-3531.09
-3652.94
-3765.47
-3879.06
-4011.29
-4135.46
-4247.62
-4353.95
-4465.04
-4568.62
-4631
-4675.75
-4677.44
-4666.73
-4581.84
-4435.27
-4207.13
527.87
594.257
833.807
40.4321
3374.74
-101768
-27309.8
4327.28
4692.69
5002.87
4794.56
9368.08
22470
55519.5
114213
149699
85998.8
53073.9
38533.2
31179.5
25634.3
22649.4
19325.8
17731.7
16038
16201.7
15587
16099.6
15779.4
16398
16677.3
14245.6
12708.4
12484.2
11436.5
9786.76
9444.89
8255.29
6901.39
5573.68
4646.64
3334.7
2353.34
1066.05
197.294
-979.795
-1479.98
-1615.16
-1620.05
-1125.86
-781.465
782.477
1659.98
2386.24
2509.65
2526.2
2387.89
2267.04
2072.51
2077.58
1978.4
1883.84
1685.42
1483.13
1138.63
756.005
279.348
220.451
-724.456
57.2963
-2043.75
349.874
-3097.8
3092.44
-2400.38
-2364.64
-2315.74
-2284.37
-2261.82
-2249.05
-2243.85
-2246.22
-2254.9
-2269.8
-2290.19
-2316.11
-2346.9
-2382.96
-2423.6
-2469.27
-2519.7
-2575.14
-2635.08
-2700.65
-2771.22
-2845.6
-2927.49
-3014.3
-3102.74
-3201.98
-3304.46
-3409.19
-3518.67
-3641.45
-3758.77
-3873.58
-3998.04
-4126.34
-4248.31
-4353.68
-4463.31
-4568.85
-4640.1
-4682.18
-4679.67
-4674.84
-4548.8
-4488.99
-4177.59
963.73
1114.02
989.763
1176.28
-1073.01
-103157
-11673.8
2131.42
3403.95
4685.65
7563.36
17710.3
45211.3
108749
162061
97973.5
59303.9
39791.2
28766.8
22667.2
19166.1
16846
15327.1
14129.8
13440.4
12763.7
12103.7
12179.8
12583
13593.1
14099.1
15008.9
14080.8
13459.2
11626.9
11480.3
10700.8
9290.7
7828.94
6524.16
5539.78
4480.15
3310.28
2230.06
1027.19
299.099
-937.174
-897.971
-982.687
-399.946
74.4938
203.394
1406.78
1898.75
2214.76
2235.35
2205.95
2069.55
1903.33
1898.88
1861.7
1849.46
1691.32
1547.13
1289.44
899.394
440.393
358.28
-562.388
111.621
-1949.04
327.215
-2990.81
2901.38
-2401.61
-2364.65
-2315.53
-2283.64
-2260.6
-2247.26
-2241.49
-2243.23
-2251.29
-2265.53
-2285.3
-2310.52
-2340.65
-2376.03
-2415.88
-2460.93
-2510.64
-2565.07
-2624.63
-2688.84
-2758.78
-2832.63
-2912.43
-2999.61
-3086.92
-3182.56
-3286.3
-3391.84
-3499.58
-3615.43
-3738.74
-3857.22
-3972.92
-4101.9
-4228.98
-4342.86
-4451.87
-4549.61
-4631.1
-4670.56
-4690.61
-4652.38
-4583.14
-4410.41
-4255.22
1529.61
1800.47
1822.03
2931.66
-27922.9
-65133.8
3682.47
3330.12
5275.15
9040.31
17544
43270.7
96837.3
164452
104549
63433.2
41200.3
28397
21112.3
17160.6
14823.5
13734.9
13130.1
12672.9
12330.4
11934.2
11081.9
10831.2
10716.7
10877.1
11389.9
12813.3
12877.9
13332.7
12606.6
11858.8
11040.2
10212.4
8968.43
7398.63
6216.6
4879.35
3976.76
2811.28
1806.87
930.197
250.594
-46.9907
-221.494
-213.991
-153.501
575.248
1158.78
1760.6
1991.31
2092.55
2054.22
1919.97
1793.72
1773.39
1835.01
1845.36
1733.08
1657.1
1383.78
1038.2
630.745
481.412
-414.721
157.661
-1762.67
365.613
-2847.7
2715.16
-2388.39
-2351.17
-2302.64
-2270.95
-2248
-2234.6
-2228.66
-2230.15
-2237.86
-2251.7
-2271.03
-2295.67
-2325.36
-2360
-2399.32
-2443.58
-2492.54
-2546.15
-2604.96
-2668.08
-2736.83
-2810.41
-2888.22
-2973.68
-3062.11
-3154.08
-3255.01
-3363.5
-3467.85
-3579.38
-3701.34
-3827.9
-3939.59
-4059.19
-4195.17
-4311.14
-4429.09
-4516.62
-4609.47
-4653.35
-4681.44
-4672.62
-4574.82
-4474.67
-4231.65
1873.27
2224.84
1445.44
4606.97
-94476.7
-38603.4
6045.47
6313.19
7888.87
15492.7
37500.1
90211.2
165105
111166
67558.2
42995
29276.3
21283.6
17336.8
15012.9
13489
12280.3
11817.7
11663.2
11175.7
10894.9
10444.7
10003.7
9609.42
9437.88
10021.4
10750.5
10913.7
12067.6
12061.1
11485.3
10570.3
9828.37
9106.63
7706.48
6467.05
5530.96
4387.43
3654.41
2661.7
2059.37
986.672
379.643
276.417
314.691
612.052
818.502
1171.02
1481.01
1750.43
1847.12
1844.28
1748.36
1665.23
1636.05
1756.06
1772.21
1703.66
1690.08
1396.25
1183.9
800.073
556.384
-279.453
218.768
-1569.19
354.797
-2712.76
2556.94
-2361.44
-2324.88
-2277.72
-2246.86
-2224.55
-2211.57
-2205.88
-2207.43
-2215.1
-2228.77
-2247.82
-2272.11
-2301.33
-2335.45
-2374.18
-2417.71
-2466
-2518.76
-2576.44
-2638.86
-2706.17
-2778.82
-2855.65
-2937.8
-3027.1
-3116.7
-3216.61
-3322.43
-3425.6
-3537.54
-3652.25
-3778.94
-3899.44
-4013.76
-4140.11
-4263.69
-4375.75
-4476.85
-4577.27
-4609.07
-4644.08
-4593.91
-4606.19
-4477.27
-4368.41
2123.51
2094
2189.47
-70.7169
-107268
-14331.6
4002.37
5843.08
13075.5
32727.5
83804.3
152544
116889
72263.8
46101.8
30962
22202.1
17671.1
14784.8
13100.7
12542.8
11819.5
11531.1
11018.5
10643.2
10170.8
9751.65
9327.52
9046.84
8740
8955.63
8867.84
9632.85
10203.5
10160.5
11128.7
10133.2
9522.99
9007.65
7985.45
7141.94
5787.27
4914.7
3773.66
2984.11
1921.81
1348.55
866.726
622.742
717.547
892.955
1059.52
1250.21
1455.29
1608.77
1712.92
1694.42
1641.51
1530.81
1561.34
1687.55
1744.02
1716.38
1767.49
1462.14
1362.14
934.094
662.626
-102.77
246.045
-1344.88
384.069
-2541.67
2416.98
-2321.57
-2286.49
-2241.41
-2212
-2190.86
-2178.72
-2173.64
-2175.59
-2183.46
-2197.18
-2216.13
-2240.19
-2269.11
-2302.7
-2341.03
-2383.78
-2431.31
-2483.26
-2539.93
-2601.33
-2667.55
-2738.33
-2814.51
-2894.07
-2981.6
-3071.61
-3165.86
-3267.59
-3376.52
-3480.57
-3593.31
-3710.38
-3840.02
-3961.91
-4076.65
-4202.33
-4302.6
-4412.6
-4503.09
-4546.03
-4578.24
-4570.39
-4479.42
-4419.24
-4204.52
2752.62
2686.2
3777.14
-24358.3
-80054.6
-750.766
4947.11
11630.3
31201.8
74119.6
149433
127742
77651.6
49705.7
33007.5
23167.4
17269.4
13865.4
12525.9
12087.7
11793.8
11652.2
11351.6
10826
10255
9612.18
9137.6
8724.25
8493.11
8078.04
7946.89
7540.87
7867.63
8298.62
8350.97
9386.17
8691.38
9165.92
8297.77
7574.11
6735.15
5716.68
4889.4
4191.08
3272.75
2877.1
2101.09
1662.67
1175.41
1075.65
1229.39
1157.63
1297.85
1341.39
1491.26
1502.19
1516.96
1412.75
1392.02
1409.33
1603.52
1650.58
1652.07
1753.47
1472.85
1460.82
968.936
743.391
30.3664
284.93
-1103.81
386.988
-2372.99
2290.32
-2269.68
-2236.82
-2194.46
-2167.03
-2147.52
-2136.63
-2132.51
-2135.14
-2143.46
-2157.43
-2176.45
-2200.43
-2229.09
-2262.32
-2300.06
-2342.36
-2388.92
-2440.19
-2495.75
-2555.95
-2621.03
-2690.25
-2764.67
-2843.12
-2927.4
-3017.15
-3109.4
-3206.55
-3312.8
-3416.57
-3528.79
-3637.51
-3759.54
-3887.79
-4001.73
-4119.09
-4226.76
-4320.13
-4390.25
-4465.26
-4494.97
-4534.37
-4532.68
-4398.03
-4268.8
3060.07
2314.59
4024.48
-94967.7
-45250.9
3909.68
8263.68
23141.7
67762.1
143358
135457
82470.3
52199.2
35179.5
25283.3
19441.2
16400.3
13665.5
12549.4
10936.5
10455.2
10326.6
10024.8
9874.41
9934.07
9623.81
9231.27
8731.87
8292.12
7717.28
7191.55
6747.3
6568.34
6514.42
7003.77
7504.82
7295.01
8453.95
7770.85
7295.7
6630.92
5839.79
5406.38
4475.67
3911.35
2933.61
2182.73
1541.02
1287.7
1123.31
1135.6
1226.04
1329.46
1358.77
1424.67
1401.81
1401.2
1296.64
1295.11
1322.34
1528.03
1572.64
1639.87
1775.94
1548.23
1545.22
1022.48
896.232
181.699
334.58
-847.338
410.824
-2180
2171.3
-2206.71
-2176.72
-2137.63
-2112.68
-2095.21
-2085.91
-2083.05
-2086.62
-2095.6
-2110.03
-2129.2
-2153.31
-2181.72
-2214.75
-2251.99
-2293.69
-2339.43
-2389.89
-2444.22
-2503.62
-2566.88
-2635.08
-2707.16
-2784.47
-2865.8
-2952.73
-3045.26
-3136.44
-3239.34
-3339.38
-3444.96
-3555.68
-3674.14
-3793.7
-3915.31
-4021.85
-4137.56
-4208.74
-4280.49
-4394.34
-4438.26
-4535.44
-4500.56
-4482.66
-4328.56
2519.55
2325.3
-2921.27
-131655
-16434.5
5829.89
18762.2
60111.7
132314
142287
86385.7
54260.1
36867.5
26463.6
21234.3
18006
15908.4
14064.1
12448.6
10165.6
9555.3
9007.48
9080.67
9005.57
9227.08
8982.86
8693.89
8105.79
7536.58
7071.81
6543.01
6187.21
5650.45
5299.91
5590.34
6009.26
5874.29
6645.67
6200.56
6716.65
6061.97
5695.24
4922.5
4152.94
3638.22
3146.2
2496.7
2156.11
1805.32
1540.88
1404.56
1295.35
1315.97
1239.8
1270.09
1211.75
1213.34
1146.99
1173.49
1206.61
1354.08
1458.68
1568.28
1721.83
1537.62
1505.5
1101.18
998.241
276.15
409.266
-603.846
454.073
-2003.55
2057.61
-2133.66
-2107.09
-2071.74
-2049.66
-2034.59
-2027.2
-2025.86
-2030.59
-2040.44
-2055.45
-2075.01
-2099.17
-2127.62
-2160.24
-2197.22
-2238.26
-2283.33
-2332.74
-2386.22
-2444.25
-2506.11
-2572.49
-2643
-2718.55
-2797.14
-2882.05
-2970.32
-3062.13
-3154.57
-3253.55
-3361.49
-3468.16
-3584.29
-3678.06
-3791.28
-3890.8
-3998.05
-4067.67
-4156.34
-4203.64
-4272.57
-4142.08
-4059.27
-3718.86
-3357.06
4230.98
4794.36
-45512
-81580.9
6747.54
18674.1
51390.4
126611
153556
93220.6
58822.7
38679.9
27204.8
19625.4
15162.6
12503.5
11410.2
11097.6
10476.6
10589.4
9942.34
9174.36
9169.31
8992.83
8932.71
8682.61
8373.88
7945.19
7419
7019.55
6348.3
5908.3
5253.46
4708.84
4450.33
4394.35
4665.35
5187.13
4787.06
5978.8
5476.34
5428.26
4638.98
4039.32
3619.87
3319.86
2918.08
2455.65
1874.97
1497.77
1244.14
1167.76
1178.24
1116.36
1140.6
1100.46
1115.98
1087.11
1092.02
1105.37
1241.95
1376.06
1509.24
1708.71
1558.96
1523.34
1244.19
1109.72
414.768
525.433
-379.91
506.999
-1835.32
1961.28
-2051.58
-2028.86
-1997.63
-1978.77
-1966.39
-1961.16
-1961.55
-1967.64
-1978.51
-1994.25
-2014.25
-2038.66
-2067.1
-2099.56
-2136.15
-2176.63
-2221.01
-2269.26
-2322.09
-2378.31
-2439.42
-2503.72
-2571.75
-2645.91
-2722.28
-2804.5
-2887.73
-2977.88
-3063.49
-3162.95
-3258.27
-3364.22
-3457.86
-3574.73
-3686.53
-3784.87
-3882.59
-3970.92
-4110.75
-4150.34
-4305.84
-4317.52
-4497.48
-4447.63
-4707.8
2259.06
-1482.29
-165191
-16492.8
22799.2
51693
126712
163844
97002.2
59171
39712
26859.3
19159.2
14051
11395
9991.05
9649.35
9259.08
9135.22
9251.21
9221.5
9135.53
8778.71
8440.26
8075.09
7542.36
7469.16
7276.35
7194.82
6815.78
6224.75
5613.38
4958.66
4422.4
3925.82
3333.63
3616.89
3934.59
3704.42
4678.57
4336.37
4604.69
4120.13
3753.45
3253.91
2886.5
2578.03
2336.66
1950.37
1655.15
1534.07
1253.35
1218.02
1067.32
1032.58
985.994
979.217
969.512
966.687
980.36
1059.06
1241.41
1406.46
1640.35
1512.82
1509.67
1329.64
1135.79
504.512
616.757
-207.036
568.431
-1637.79
1858.83
-1961.53
-1942.99
-1916.16
-1900.78
-1891.31
-1888.44
-1890.76
-1898.36
-1910.37
-1926.96
-1947.52
-1972.25
-2000.68
-2033.07
-2069.23
-2109.23
-2152.91
-2200.22
-2251.89
-2307.08
-2366.13
-2429.12
-2495.95
-2566.89
-2642.9
-2719.2
-2800.59
-2884.56
-2970.74
-3068.96
-3158.14
-3256.29
-3342.83
-3432.68
-3510.33
-3612.8
-3691.55
-3780.71
-3853.06
-3866.53
-3827.99
-3737.88
-3531.66
-2995.82
-2717.46
5371.79
-41634.9
-103112
11930.1
52235.5
111509
171517
99957.8
59104.1
37739.1
24217
17031.8
14692.3
14872.8
14328.8
12839.1
10922
9358.64
8975.17
8855.12
8822.89
8743.22
8271.21
8035.46
7514.91
7078.97
6807.13
6757.49
6668.93
6139.69
5760.84
5235.17
4549.05
4074.52
3498.23
2923.43
2677.27
2787.92
2909.38
3374.84
2882.92
3898.8
3365.9
3355.04
2830.11
2476.61
2120.79
2002.93
2048.82
1885.56
1713.73
1304.72
1228.18
952.404
922.855
872.537
890.038
897.237
873.749
896.377
939.391
1136.3
1298.05
1577.68
1495.1
1537.08
1426.15
1187.73
693.186
745.08
11.5778
591.376
-1401.87
1744.89
-1864.57
-1850.43
-1828.22
-1816.49
-1810.11
-1809.75
-1814.12
-1823.33
-1836.63