/*--------------------------------*- C++ -*----------------------------------*\
| =========                 |                                                 |
| \\      /  F ield         | OpenFOAM: The Open Source CFD Toolbox           |
|  \\    /   O peration     | Version:  2.2.x                                 |
|   \\  /    A nd           | Web:      www.OpenFOAM.org                      |
|    \\/     M anipulation  |                                                 |
\*---------------------------------------------------------------------------*/
FoamFile
{
    version     2.0;
    format      ascii;
    class       volScalarField;
    location    "1.45";
    object      divBf;
}
// * * * * * * * * * * * * * * * * * * * * * * * * * * * * * * * * * * * * * //

dimensions      [1 -3 -2 0 0 -1 0];

internalField   nonuniform List<scalar> 
14161
(
7014.84
-8552.72
-303.16
1540.01
1416.29
1356.06
1279.86
354.094
78.5154
130.708
98.9429
122.002
389.63
686.845
460.319
677.017
1083.17
569.85
407.099
20.4835
-86.2269
-255.458
-601.297
-922.778
-660.907
-521.148
-409.823
-444.015
-531.155
-719.738
-867.611
-868.889
-1039.51
-1120.17
-1101.22
-896.835
-490.401
-126.456
878.923
2748.59
6041.54
11723.8
9249.37
61143.8
-179634
861.437
-3732.14
-35841.3
-31130.7
-35950.5
-34414.3
-38581.4
-36256
-31388.8
-31757.5
-34325.5
-28144.2
-26592
-26340.7
-24953.3
-22694.3
-22919.9
-21455.7
-19295.5
-17307.9
-14385.1
-13713
-12150.9
-9444.73
-10249.9
-6899.37
-5054.93
-4594.91
-4863.59
-4279.69
-5652.28
-2497.32
1527.54
6005.04
1488.48
863.123
4911.75
10456
10905.6
14642.1
11603.9
5648.73
7468.26
9326.67
18238.9
34948.1
20782.9
-9916.68
16482.6
-7577.88
-136.434
-158.634
-1171.21
-1694.32
-1183.08
-1507.4
-1513.94
-2449.59
-3020.16
-4026.98
-4757.65
-5887.03
-6314.46
-6955.24
-7591.94
-7088.98
-8281.37
-6316.42
-8418.86
-3778.28
-6624.95
1435.64
-2930.71
5436.38
-23576.3
25666.7
4996.41
538.775
-1116.28
-2597.16
-2158.94
-492.893
-43.4465
573.108
1262
1194.22
663.912
343.025
-473.719
-1219.32
-1628.98
-2955.38
-3135.99
-1850.01
-977.312
-520.904
-170.698
-312.714
-535.937
-834.47
-1019.84
-1215.07
-1139.91
-1000.46
-857.318
-775.031
-599.353
-454.076
-488.804
-574.205
-410.981
-528.966
-1552.66
-2330.64
-2918.51
-1879.64
-3171.48
-2785.18
-16518.9
-37043
-18116.1
-31340.1
-21167.3
-27440.3
-27220.8
-26104
-26036.4
-24326.4
-24813.6
-28933.4
-24582.2
-17638.6
-22933.8
-23175.2
-19372.9
-16894.6
-13873.8
-12141.6
-11362.7
-7233.35
-9131.21
-5217.64
-2496.85
-1881.41
-3562.92
-7310.01
-10718.9
-9388.61
-4343.55
-1031.59
-3829.68
-12855.4
-4481.1
7500.56
15922.4
12886
1073.58
-159.126
-2167.29
14802.1
40222.6
38586.8
6735.48
29743.4
-36533.1
24579.5
23035.1
11671
6134.07
3367.12
3753.19
3493.21
1484.05
1289.73
506.895
-489.129
-1469.44
-2124.71
-3159
-4168.45
-4626.7
-5446.02
-5664.32
-6442.26
-5776.47
-7006.32
-4593.9
-6769.52
-1986.46
-5523.72
1904.78
-3084.71
4673.58
44860.1
-44965
-11610.3
-1103.74
2868.54
4900.61
4659.98
2039.82
121.148
-759.053
-1977.33
-2437.21
-1928.27
-710.061
152.363
2004.73
2381.06
3795.29
3327.62
2266.74
479.042
-778.459
-1500.87
-2076.31
-1723.33
-1456.17
-1358.41
-1382.67
-1515
-1805.31
-2251.74
-2599.53
-2985.05
-3303.79
-3485.2
-3603.45
-3803.45
-3186.44
-2390.82
-2166.33
-2270.89
-4439.84
-2345.19
-11856.8
33687.8
-51832.9
-19334.3
-28029.1
-26849.5
-38566.7
-29034.5
-30144.4
-36306.2
-35393.3
-16321.2
-17664.2
-31831.1
-33984.7
-18952.4
-21918.2
-18411.7
-14512.5
-12466.2
-9739.77
-7650.92
-5366
-3080.36
-786.553
-1380.14
-2025.1
-2173.82
-2961.54
-3584.66
-3965.9
-4723.71
-2794.95
-816.839
7937.18
3216.83
-932.681
-4325.81
883.973
7010
16085.9
30451.5
32516.3
-10346.6
-9866.04
29345.5
54701.5
71082.5
7327.69
-38636.6
12902.2
25161.1
6070.34
943.809
3045.7
2144.94
1682.13
649.821
322.547
-863.994
-1352.53
-2146.9
-2556.41
-3945.02
-4395.58
-5069.41
-5718.68
-4386.84
-5992.49
-2925.95
-5503.49
-248.756
-4496.52
2305.94
-3248.84
3931.64
-60976.3
59184.9
14010.8
846.505
-3686.19
-5490.64
-5590.8
-2919.92
-715.409
594.78
1747.53
2539.97
1138.54
-375.848
-1369.99
-3065.06
-4437.22
-6340.92
-5760.01
-4109.76
-2828.04
-1882.2
-863.072
-137.47
-337.607
-1112.98
-1549.69
-1720.98
-1787.7
-1631.02
-1297.48
-1099.97
-805.626
-554.113
-516.244
-705.607
-946.66
-1598.89
-2188.61
-2809.38
-4379.45
-4703.4
-3904.88
-2709.77
73535.1
-27827.3
-17943.8
-34292.3
-31299.5
-37182.2
-29085
-32048.8
-31394.6
-26907.6
-31241
-29401.4
-21640.2
-22137.2
-20249.8
-16951.9
-15565.2
-13498.8
-8825.7
-8093.31
-4954.85
-924.485
-1016.78
915.136
2963.11
2614.3
1820.2
-2392.81
-2352.02
-4934.22
-1442.64
-3020.58
-5717.69
4065.77
4985.55
3258.84
6135.67
10410.5
21559
30530.6
11125.7
-41416.4
45398.3
98459.2
-16546.5
31697.2
-36593.2
40556.9
74377.6
464.689
-10189.8
7756.19
9056.63
3204.76
3250.56
2306.78
1557.12
715.157
112.326
-343.104
-1677.75
-2178.19
-3160.75
-3862.04
-3782.62
-5019.87
-3276.93
-4955.61
-1397.13
-4477.65
680.312
-3930.3
2246.22
-3295.24
3374.5
70697.5
-68811
-19528.7
-2313.01
4152.74
5926.71
6688.33
2531.75
-544.925
-1480.51
-3157.71
-3953.27
-3134.96
-1205.89
-116.355
1763.94
2749.9
4866.56
4653.1
2672.78
39.3164
-922.411
-2174.25
-2857.71
-2668.16
-2231.46
-2086.73
-1895.92
-2104.59
-2493.56
-3099.85
-3541.29
-4222.26
-4731.33
-5120.57
-5307.32
-5193.33
-4834.24
-5093.68
-5019.64
-5246.41
-6703.74
-1132.84
-19736.8
54301.6
-21345.6
-49350.2
-48408
-45889.7
-45113.7
-40545.3
-40952
-35399.3
-29284.2
-27191.7
-24797.2
-20411.4
-18491.2
-15565.4
-18145
-14841.4
-12897.5
-12419.4
-11128.6
-8271.67
-5459.58
-1371.11
1698.38
2074.32
3944.13
6343.59
5841.14
2893.6
3861.79
3612.25
5942.58
4598.51
2691.56
3128.64
5644.93
9354.31
15840.1
3470.08
-10037.5
13681
80865.3
26373.3
-13868.7
47976
25376.8
48758
34593.9
-6637.72
18410.7
23468.6
12625.6
6034.8
4279.93
3680.72
3011.54
1722.96
1157.91
417.95
-365.891
-784.876
-1860.63
-2159.67
-3206.95
-2607.19
-3788.9
-2382.26
-4293.75
-647.841
-4105.21
1138.26
-3858.45
2268.88
-3427.78
3053.43
-87105.5
80924.6
19583.7
1133.66
-4816.92
-6815.98
-7802.23
-3543.95
-1130.45
153.096
1515.12
2345.6
1363.5
-929.65
-1947.37
-3819.71
-5108.35
-7055.16
-6807.55
-5144.75
-3368.75
-1850.05
-1243.6
-229.631
-706.014
-1460.86
-2024.68
-2407.61
-2617.56
-2446.43
-2017.13
-1725
-1280.74
-841.535
-491.76
-393.623
-603.934
-832.72
-1118.05
-1343.69
-2181.12
-1883.58
-2385.77
5071.41
-41107.8
-44088.4
-7084.99
-20907
-17858.8
-21944.2
-23526.2
-29334
-24444.8
-26176.9
-20383.1
-21346.9
-17433.6
-19939.6
-15299.9
-14722.6
-12337.6
-11403.7
-9612.07
-7828.74
-7331.68
-4543.39
-2695.16
443.642
378.563
3509.19
6281.55
8662.3
7407.29
6526.27
6525.18
6546.59
3866.59
4376.04
8757.37
10421.8
5768.59
2725.8
9323.7
25225.5
28964.6
6852.13
23970.8
34035.7
28171.2
24532.9
27207.5
23989
43199.3
20893.7
18536.2
12238.3
13105.6
9336.97
4663.69
3814.93
2643.56
1827.44
1136.42
393.361
-680.751
-1307.21
-1379.56
-2141.32
-1833.85
-3131.42
-1975.41
-3788.82
-330.868
-3950.22
1189.37
-3749.46
2068.14
-3411.4
2744.21
86522.1
-82309.4
-23494.4
-3127.85
3566.29
5967.33
6913.55
2415.14
-805.137
-1735.04
-3496.51
-4643.56
-3659.79
-1633.13
-885.034
772.359
2123.22
3762.49
4166.16
2031.8
-270.386
-1535.03
-2560.57
-3155.45
-2978.44
-2652.82
-2466.43
-2240.45
-2307.18
-2840.89
-3336.27
-3977.59
-4752.53
-5353.86
-5925.22
-6213.36
-6288.2
-6054.96
-5585.8
-4409.98
-3712.73
-1786.01
-2624.24
-8101.77
-156738
-38848.1
-21392.2
-1977.49
-4895.04
-8977.42
-9000.68
-12830.2
-12729.3
-17082.2
-13551.1
-17605.3
-14171.4
-14959.8
-13032
-11325.1
-9613.65
-9328.92
-7355.87
-5749.08
-4926.09
-2917.1
-2419.63
1152.58
1091.77
4906.32
5759.74
9442.44
9238.35
8615.55
5497.74
4907.57
6573.44
7047.36
6395.64
8202.11
9911.32
14551.1
16968.1
16619
17743.8
26051.4
40075.5
24340
23296.8
31900.1
31714.4
28791.3
25536.8
22184.4
32733.3
22246.9
16618.2
9051.38
6607.02
5331.12
3539.43
2728.44
1829.81
904.568
503.178
-485.601
-870.103
-1776.35
-1568.1
-2766.72
-1781.73
-2982.88
-351.103
-3718.44
939.365
-3918.58
1862.38
-3626.29
2599.68
-101347
90287.9
22285.2
1331.37
-4831.51
-6182.76
-8957.62
-3615.49
-1440.98
-206.726
819.216
2096.34
1035.43
-1204.27
-2026.05
-3586.19
-4727.87
-5904.33
-6485.34
-4761.9
-3026.33
-2023.65
-1318.18
-866.709
-1398.87
-2046.29
-2549.43
-3056.58
-3459.36
-3152.34
-2968.19
-2589.38
-2073.36
-1665.65
-1297.07
-892.945
-777.524
-1037.56
-1487.94
-1856.7
-1834.67
906.223
-6884.5
-5115.54
-129144
-99431
-9206.74
4843.17
-5825.73
-9851.2
-14056.7
-14569.2
-14136.3
-15347.4
-12471
-14211.7
-11723.6
-12010.2
-10131.8
-8621.06
-7117.59
-5818.5
-4037.87
-2429.77
-1421.85
132.983
-58.1209
2693.76
2791.2
5762.61
6537.78
6687.83
8758.97
7319.88
7704.01
6727.83
7504.26
9115.75
9144.84
10540.6
12082.9
13817.7
12949.2
16884.1
22786.6
38897.7
36446.8
39303.7
33968.1
25238.6
24427.4
25005.8
26952.6
28803.8
20424.6
24872.4
20177.5
13876.9
9408.63
6378.51
4550
2787.39
2556.39
1560.24
1260.43
-226.375
-66.234
-1210.47
-960.337
-2005.79
-1570.65
-1956.38
-1068.53
-3112
282.966
-3774.06
1691.7
-3732.19
2454.93
93207.9
-83361.5
-24415.2
-3961.76
1325.53
4025.87
5088.16
1735.33
-1027.96
-1890.63
-3208.33
-4541.61
-3785.92
-2337.43
-1556.07
-577.372
886.205
1851.24
2206.51
735.797
-607.95
-1717.38
-2628.78
-3176.47
-3021.61
-2847.26
-2747.09
-2465.41
-2391.68
-2896.77
-3398.67
-3900.24
-4681.23
-5501.93
-6220.56
-6876.59
-7297.88
-7370.43
-6636.82
-5909.61
-6329.49
-4051.45
-6070.73
4766.44
-52138.7
-64260.7
-1459.71
-33221
-26973.4
-25299.4
-20727.9
-17860.8
-14253.7
-17217.3
-14612.7
-16034.7
-12205.6
-11252.5
-9052.41
-7652.29
-5953.03
-4039.5
-2679.23
-689.139
171.593
2394.71
3063.16
5775.69
5544.29
9706.26
8071.08
15021.1
14938.7
12537
8721.31
6390.86
4981.62
5613.17
6041.07
7004.72
9378.61
11417.1
16620.1
24347.4
33668
34171.1
29551.8
29021.6
27303.9
31559.9
23354.3
23114.4
23938.8
28889.6
15866.9
26429.6
19344.3
17584.6
11445.1
8104.79
5608.34
3518.35
3587.2
1983.91
1792.7
200.425
403.918
-1148.01
-603.595
-1874.93
-1268.56
-2388.56
-1598.17
-2416.71
-400.681
-3489.79
1239.13
-3827.98
2146.26
-103711
86791.4
21581.3
1468.65
-3136.09
-5479.39
-6772.08
-3395.26
-1875.76
-820.741
96.7025
901.295
427.468
-704.985
-1893.85
-2640.68
-4018.97
-4865.09
-4657.33
-4034.41
-2966.93
-2527.89
-1925.03
-1614.03
-2050.13
-2696.81
-3100.27
-3825.43
-4339.45
-3984.74
-3741.04
-3383.8
-3191.43
-2729.1
-2251.6
-1886.61
-1657.26
-2140.44
-2654.75
-2603
-1861.92
-518.465
-4334.88
4960.74
-8366.55
-71610.6
-26614.5
-42308.2
-29100.1
-29913.8
-25744.4
-26721.8
-21289.6
-21640.3
-14835.7
-14132.2
-10122.7
-9293.03
-6671.41
-4813.44
-2246.11
156.347
1336.3
4535.07
5257.33
7611.86
6481.61
13086.4
11674.1
16002.6
17735.4
18503.9
20633.8
16765.8
8381.33
4765.57
3244.04
3149.89
4960.9
7701.82
11047.2
13387.5
19126.6
26571.6
40098.8
35477.9
32375.3
24216.1
29832.2
21903.5
20079.7
27916.8
14931.2
24205.6
18144.2
22982.1
19653
21147.2
16428.1
10542.6
7345.53
4362.94
4350.81
2328.61
2677.15
714.352
1053.36
-540.004
-8.22126
-1686.47
-614.846
-2919.24
-773.54
-3142.13
-227.679
-3382.33
867.447
-3549.8
1679.5
91694.7
-76771.9
-23032.8
-5253.43
-965.684
1810.8
2795.49
383.618
-1074.71
-1890.15
-2801.26
-3654.59
-3507.09
-2699.89
-1965.42
-1646.12
-746.882
-34.5252
299.861
-480.846
-1155.59
-1950.08
-2593.04
-3057.98
-3027.75
-2738.99
-2529.63
-2011.94
-2220.83
-2788.11
-3349.17
-3728.57
-4497.35
-5164.12
-5908.29
-6695.06
-7448.83
-7897.99
-8349.92
-8411.89
-8362.95
-6109.18
-8291.86
1861.89
-38356.3
-58361.2
-43625.7
-47847.8
-37458.3
-34467.1
-27041.7
-23590.5
-16978.1
-16496.3
-11148.6
-12050.5
-9227.95
-8109.75
-5871.67
-4397.91
-1759.74
1372.57
3483.21
7335.54
8331.51
12649.3
12165
12101.3
14153.4
17131.8
15438.4
17788
18760.3
17777.2
16570.9
14144.7
11997.3
10387.9
13089.9
12441.1
13758.1
19553.7
28359
35487.4
37730.9
24971.4
28898.4
23175.2
17895.6
19216.1
14854.6
19805.4
17718
18826.6
22835.4
16290.2
24192.2
20574.7
17936.6
11125.9
8139.75
4874.84
5122.22
2750.3
2993.42
825.698
1470.46
-259.468
258.545
-1215.08
-683.471
-3015.24
-783.205
-2710.75
-149.855
-3520.31
777.597
-3722.08
1327.35
-92145.5
72020.6
18931
2598.21
-2149.28
-4149.47
-4947.28
-3692.35
-2279.24
-1603.16
-804.369
-272.756
76.7642
-957.291
-1771.54
-2375.09
-2938.63
-3483.95
-4151.25
-3552.5
-3018.32
-2904.99
-2568.43
-2563.72
-2885.79
-3199.47
-3639.51
-4125.04
-4599.05
-4453.39
-4330.47
-3974.97
-3738.21
-3495.29
-3031.64
-2698.67
-2330.54
-1855.84
-1634.24
-1821.69
-2872.58
-1994.1
-4927.6
-3424.54
-61658.8
-114028
-50068.2
-31142
-20300.8
-23325.2
-18426.5
-20642.3
-13992.1
-15613.4
-9570.82
-9252.98
-5578.54
-4599.14
-2719.76
-1034.17
942.201
1417.18
5108.29
4604.01
8339.53
8835.87
11541.2
13648.3
14664.9
20213.8
22917.5
27866.5
32378.5
41288.3
35209.5
20913.6
14559.9
13951.2
14474.8
15486
18947.9
25907.7
37250.1
37842.8
33356
24907.8
23404.4
14494.9
16919.8
15312.1
17815.1
14306.9
16667.1
11441.4
21081.2
11245.9
21545.9
15977.8
17543.2
14282.3
10682.8
7805.91
6898.27
4556.59
4272.62
2138.94
2418.43
424.062
751.083
-469.555
150.589
-1626.75
-634.603
-3302.37
60.2604
-3722.3
440.227
-3720.74
1058.7
79124.6
-64694
-20347
-5635.2
-1710.46
-334.966
1274.49
-75.4463
-1455.53
-1986.77
-2220.59
-2880.56
-3421.33
-2919.39
-2254.26
-1755.99
-1581.29
-1187.2
-994.747
-1267.48
-1758.34
-2174.62
-2486.93
-2657.8
-2716.49
-2641.36
-2492.01
-2417.62
-2277.6
-2632.73
-3086.87
-3690.27
-4162.4
-4774.03
-5518.46
-6314.35
-7101.41
-8048.23
-9107.84
-9142.58
-9213.31
-8011.33
-8609.86
-12681.7
-77556.3
-197211
-62765.8
-42685.1
-16215.2
-16770.1
-6633.91
-11581.4
-7470.96
-12005
-6724.56
-3793.04
-3684.51
-864.611
-1426.21
1852.43
2672.79
5567.51
4765.93
6799.11
4022.16
8504.21
10358
12841.5
12678.5
14379.3
18463.7
22573.4
28030.8
34250.9
48354.3
39455.3
27991.1
18781.1
19753.3
22300.2
28337.6
41294.3
42909.7
38063.6
35327.1
20608.6
22583.4
16120.8
20150.9
17188.9
12825.7
9543.57
20005.4
10180.7
19780
12192.1
18485.3
14579.1
18943.7
14755.2
12263.3
9517.09
8279.23
5606.24
4446.34
2546.1
2566.5
874.227
911.167
-850.203
-746.57
-987.772
-1749.83
-2266.13
-1076.3
-3420.86
429.502
-3934.38
883.663
-67287.4
50844.4
13246.8
2005.39
-1896.69
-2998.54
-3868.41
-3170.81
-2268.65
-2102.75
-1730.94
-1454.45
-1178.15
-1318.75
-1748.88
-2328.24
-2588.96
-2982.21
-3229.48
-3235.4
-3121.4
-3039.7
-3046.84
-3057.51
-3210.38
-3531.98
-3806.97
-4123.68
-4424.42
-4675.3
-4490.82
-4362.15
-4080.08
-3995.28
-3647.28
-3156.96
-2767.06
-2029.5
-1918.59
-1230.1
-1558.04
-2040.3
-5396.22
-12884.2
-141923
-60638.4
-48789.3
-55676.1
-21263.1
-11124.3
-5406.21
-7851.53
-10105.5
-8689.85
-8022.88
-4693.55
-5364
-408.513
66.1022
2904.35
3323.55
4785.79
6475.3
5297.94
9493.14
7827.08
11266.1
9982.63
13790.7
12184.8
13416.8
14445
15692.5
18330.9
24733.4
35959.7
39639.9
34352.7
33492.7
35088.6
43672.5
52708.6
57066.9
41532.3
27117.1
25013.7
17606.9
19018.1
17942.4
12120.1
14006.4
16616.1
12873.6
14124.8
13741.1
13822.2
13873.8
13681.8
16760.4
15100.4
12778.4
10845.9
9546.16
6623.89
5014.1
3328.29
3137.52
1375.44
1089.03
-159.803
-180.983
105.923
-2283.09
-452.741
-2188.65
-1866.53
-534.633
-3533.89
77.6002
54886.5
-46085.7
-15302.1
-4858.75
-2101.71
-1138.61
-388.016
-925.253
-1517.5
-1930.14
-2149.29
-2364.36
-2496.53
-2394.26
-2172.5
-2013.85
-1848.73
-1880.95
-1815.87
-1944.31
-2133.11
-2325.04
-2464.95
-2585.88
-2683.62
-2683.93
-2668.19
-2665.43
-2644.36
-2793.44
-3143.21
-3564.34
-4039.38
-4496.69
-4953.89
-5612.04
-6156.24
-6734.77
-7049.43
-8288.16
-8013.08
-8329.59
-10823.3
-34872.7
-127702
-29632.4
-32750.8
-61784
-45013.1
-32537.3
-14667.2
-18773.2
-12608.6
-12203.9
-8095.36
-8024.13
-410.22
-491.673
2003.55
4726.71
6951.35
8148.14
7821.82
7868.55
10637.9
10495.9
9085.77
13474.3
9712.95
11532.1
10701.6
12100.8
12693
12934.6
16569.3
21856.5
38505.2
40854.8
47092.2
53722.5
61418.1
66726.7
45935.6
43486.3
29658.2
26704.5
16372.2
19100.8
13370.2
9471.72
14356.1
12383.7
10631.4
14902.3
8885.52
14385
11437
14750.4
14780.9
15268.3
13251.5
11712.6
9831.98
7905.68
6120.27
4138.51
3475.73
1691.53
1213.21
275.293
460.393
-450.123
-1185.72
-1287.62
-1902.01
-1782.77
-986.806
-3599.19
469.889
-40098
29548.7
7408.41
399.293
-1953.4
-2648.96
-3292.12
-2978.48
-2569.8
-2333.79
-2210.99
-1959.51
-1867.66
-1821.64
-2084.04
-2285.73
-2504.36
-2662.86
-2817.98
-2896.11
-2935.3
-2981.75
-3075.22
-3158.08
-3276.96
-3490.71
-3741.45
-3888.36
-4117.46
-4323.99
-4397.61
-4373.29
-4280.43
-4215.74
-4100.09
-3932.82
-3718.8
-3491.6
-3196.59
-3043.74
-3537
-4694.02
-7323.21
-55376.6
-91861.2
-13332.4
-12163.2
-36289
-59520.3
-63558.4
-38209.3
-28129.9
-10774.1
-9506.2
-5413.92
-3506.68
-1582.76
920.821
-1099.6
8120.06
6500.2
8608.12
10401.6
8861.88
10834.6
10179.9
10718.7
12471.1
11736.5
12194.9
12002.8
13092.2
13244.4
11857.6
15866.7
28477
34366.4
50761.6
58958.4
68040.8
69533.9
54643
36009.3
32825.7
28293.3
20847.4
21133.5
16834.9
11939.9
13342.3
12723.7
11720.5
9337.51
9771.76
13090.6
6203.71
12056.8
7787.52
11178.5
12083.8
11333
10820
9692.51
7772.84
5804.28
4431.58
3536.55
1974.5
1611.94
685.925
651.461
-1577.57
-102.085
-2699.37
-812.55
-2082.01
-1454.29
-3072.62
4.57381
30899.5
-27967.5
-10039.7
-3912.87
-2239.88
-1578.98
-1294.34
-1425.63
-1705.17
-1879.74
-1978.5
-2058.06
-2196.21
-2260.13
-2175.59
-2157.5
-2127.27
-2159.07
-2209.01
-2278.27
-2373.4
-2492.01
-2580.07
-2708.42
-2841.24
-2859.84
-2832.63
-2971.38
-3045.71
-3149.06
-3335.33
-3603.13
-3945.3
-4294.92
-4679.45
-4949.79
-5349.95
-5629.1
-5818.29
-5970.43
-5836.02
-7324.35
-18027
-114866
-32771.2
-6775.53
-8463.65
-19912.1
-39309.4
-54292.6
-50717.6
-38983.9
-21786.5
-19345.1
-8015.96
-7693.2
-2513.7
1033.76
5825.72
7765.61
9873.7
12981.9
7591.26
12352.4
12510.5
11966.3
11098.2
13429.6
11640.9
12817.6
10273.1
12928.1
13503.7
14630.4
24783.3
39153.7
54514.4
70716
79665.2
77662.7
53410.8
32395.2
27236.3
17709.1
15602.7
11805.6
13562.8
11352.3
10255.5
10916.4
10458.3
8905.66
13302.8
8154.32
15945.7
7086.43
13158.6
8969.32
13768.1
12358.9
12349
10813.8
9722.78
8289.87
6550.35
5085.57
3940.21
2216.54
1600.35
743.23
610.387
-531.94
-637.526
-1191.26
-1009.66
-2045.9
-1898.07
-2903.81
-677.618
-19750.9
13717.9
2725.55
-989.581
-2206.29
-2696.31
-2873.53
-2772.16
-2559.64
-2400.76
-2320.79
-2178.24
-2151.15
-2088.76
-2193.06
-2297.97
-2412.13
-2501.57
-2588.67
-2671.06
-2760.13
-2875.97
-2965.8
-3063.08
-3176.32
-3359.14
-3485.21
-3613.21
-3768.39
-3934.55
-4065.81
-4168.27
-4171.12
-4234.42
-4225.87
-4114.73
-4155.96
-4179.65
-4189.01
-4385.46
-4419.84
-7376.03
-24175.8
-108187
-11346.3
-3288.93
-3614.91
-7068.94
-16692.9
-29099
-47957.4
-55259.9
-39003.9
-33973.4
-16816.3
-16558.4
-2417.98
2278.01
7112.13
8985.82
12092.2
10178.5
11669
12702.7
10718.9
15506.8
16054.2
17662.3
13873.5
17312.2
15409.7
23208.5
27452.1
43410.2
66557.7
78311.4
92929.9
75714.6
60801.2
37787
30449.2
17563.3
15239.1
9332.54
6702.92
4560.41
5656.07
2520.13
6047.41
7220.04
5199.34
4340.96
6574.99
5918.11
4578.59
9463.14
6760.2
8307.92
9117.17
9323.77
10448.5
10226.6
9446.51
7962.57
6545.75
5069.4
4030.13
2589.39
1865.25
1067.86
667.421
266.947
-988.512
-6.11144
-1738.33
-1510.86
-2033.38
-2674.47
-1038.84
14129
-14769.3
-6177.6
-3158.34
-2252.26
-1951.63
-1784.91
-1752.34
-1864.2
-1957.49
-2018.43
-2045.87
-2119.72
-2194.06
-2241.67
-2232.84
-2261.12
-2311.28
-2360.87
-2428.98
-2532.08
-2589.09
-2706.04
-2814.97
-2878.23
-2982.44
-3030.29
-3151.45
-3250.27
-3358.36
-3509.03
-3706.97
-3908.35
-4174.32
-4467.95
-4709.56
-5008.18
-5284.46
-5753.62
-5558.59
-6639.26
-10936.2
-44295.5
-95794.9
-16138.6
-606.006
2148.3
-513.643
-6422.71
-16575.7
-34125.5
-47683.6
-56818.7
-46531.3
-27240
-18717.4
-3361.64
2342
12573.4
13669.5
13045.7
13948.9
12704.6
14389.5
14851.1
18706
18244.8
27368.3
23404
41013.4
47860.6
65417.6
79699.4
99242.3
75889.2
66425
36963.2
36242.8
28618.9
18381.2
15581.7
9341.7
7214.88
3117.27
1389.57
-464.445
-989.871
-2105.75
1819.02
2182.44
2548.29
4952.03
4991.51
4336.69
1716.81
7514.54
5917.23
8155.75
9194.66
10066.2
11132.2
10762.8
9270.02
7906.77
6621.67
5322.86
4118.58
2851.96
2030.21
1262.38
456.52
29.5509
-985.292
-192.48
-2112.05
-1025.96
-2518.67
-2297.34
-719.875
-8259.1
4554.35
-373.208
-1841.97
-2304.12
-2638.34
-2583.6
-2481.22
-2402.69
-2319.52
-2280.63
-2239.94
-2188.48
-2170.32
-2203.14
-2272.99
-2336.4
-2407.23
-2488.69
-2581.35
-2661.07
-2749.73
-2835.91
-2919.05
-3056.17
-3148.83
-3299.76
-3391.07
-3542.87
-3685.97
-3826.54
-3940.1
-4068.11
-4162.73
-4163.63
-4172.7
-4004.47
-4045.03
-3771.14
-3860.89
-5857.97
-10430.7
-94745.1
-36371.5
-12345.9
-820.873
915.78
694.887
62.0145
-6308.85
-11521.3
-23765.4
-43253
-56054.8
-44849.1
-33087.4
-6198.46
1354.59
11370.4
14923.6
12329.3
18722.1
15395.8
25718
25911.8
43401
47390.2
64319.6
74973.6
92776.1
94520
72058.7
68090.2
38505.7
37099.7
26910.1
23923.6
17831.9
17169.7
12181.4
9226.12
5266.1
3647.41
1184.24
-381.025
-1862.74
-4126.16
-5965.68
-7239.46
-7246.72
-3350.27
-533.661
655.11
2923.21
4367.33
-1089.09
1581.74
1783.32
4548.51
7604.27
9990.28
9436.56
8126.59
7022.87
6474.64
5246.35
4282.91
3313.58
2471.12
1635.95
912.327
371.822
-931.576
-3.16728
-2095.17
-846.131
-2731.91
-1470.43
-1497.74
5161.97
-7372.67
-3951.21
-2678.35
-2321.55
-2134.19
-2037.03
-1981.91
-1966.02
-2030.71
-2073.87
-2097.47
-2129.52
-2171.32
-2222.81
-2264.83
-2296.23
-2342.49
-2409.99
-2458.02
-2537.43
-2649.16
-2712.28
-2800.04
-2884.38
-2976.61
-3115.8
-3158.81
-3291.74
-3423.65
-3519.97
-3638.39
-3746.02
-3903.27
-4103.15
-4324.69
-4548.13
-4771.46
-5008.12
-5678.48
-8837.44
-20042.6
-92460.8
-13924.5
-7949.23
-2257.49
-2803.32
-4923.66
-4845.48
-4785.6
-6082.15
-12198.4
-24233.8
-36258.3
-55613.4
-39830.1
-16055.8
6484.58
18579.9
31062.7
25804.1
46185.5
53474.1
73214
82274.3
96576.9
82426.1
87002.4
58372.8
53887.7
31750.9
34247.9
23558.9
22570.3
13471.9
11886.7
12859.1
13432.2
13376.6
9208.66
8564.37
6083.21
3895.43
1618.48
340.303
-962.567
-2655.97
-4033.56
-5797.65
-5780.11
-4374.75
-4235.8
-4334.51
-1320
256.965
697.74
1315.43
1416.23
4545.65
6616.79
8969.31
8507
7437.09
6963.67
6343.95
5540.2
4300.51
3626.62
2402.71
1842.1
807.659
671.157
-903.22
422.486
-2338.97
-184.56
-3259.38
-875.06
-2316.86
-3123.96
99.6507
-1727.56
-2159.56
-2435.14
-2432.18
-2316.16
-2262.2
-2239.86
-2220.01
-2199.33
-2190.03
-2166.66
-2156.17
-2196.12
-2236.34
-2288.91
-2328.02
-2406.21
-2473.2
-2568.7
-2651.58
-2717.99
-2841.61
-2924.84
-2987.06
-3087.38
-3268.79
-3365.56
-3499.94
-3690.53
-3844.68
-3983.35
-4120.14
-4262.65
-4451.07
-4530.18
-4648.63
-4703.1
-5461.55
-7554.15
-29667.6
-89398.1
-15048.1
-5236.31
1420.47
551.219
-38.2773
-285.474
-564.293
-2629.69
-6189.71
-10113.3
-17700.8
-27543.8
-29572.7
-1544.39
25934.6
48763.1
67525.4
89431.7
102559
93763.7
81834.7
65893.8
51959.2
46313.2
35281.5
33323.6
19829.6
22626.5
14034.9
12669.4
10081.1
8960.19
9123.77
8702.07
8910.88
9559.92
8776.26
7283.45
6122.77
4805.19
2962.92
915.853
-1045.84
-2377.04
-3574.2
-5123.94
-7344.83
-8912.02
-8103.52
-5048.95
-2430.04
-935.775
-756.865
377.645
650.301
1676.27
2945.18
7036.96
7343.03
6802.43
6558.05
6101.42
5354.8
4318.08
3841.25
2689.21
1892.4
897.602
895.95
-706.995
412.559
-2201.1
180.211
-2991.13
-648.985
-2970.2
1259.9
-3949.2
-2892.43
-2501.12
-2274.53
-2182.18
-2122.33
-2040.18
-2054.68
-2054.06
-2079.84
-2099.24
-2100.21
-2126.95
-2184.22
-2223.93
-2258.31
-2304.53
-2376.72
-2434.56
-2456.82
-2521.03
-2667.56
-2739.3
-2792.56
-2894.88
-2981.33
-3115.43
-3276.52
-3363.39
-3432.03
-3585.69
-3720.3
-3807.31
-3906.51
-4016.26
-4077.63
-4316
-4615.41
-5736.35
-9636.34
-73677.3
-52783.9
-12958.1
-5905.15
1806.38
1831.19
1992.18
2877.02
3557.95
4189.3
4304.75
3679.74
2616.09
4814.23
14246.8
42898
104778
105330
88773.2
80702.6
49941.6
62334.3
45960.2
41759.7
37421.5
27686.9
23887.4
17715.2
15702.5
10179.2
6652.35
7274.08
6629.4
7327.49
6373.87
7495.37
8529.8
8737.84
8319.23
7091.87
5515.38
4467.31
3219.91
1699.46
7.59799
-1792.29
-3383.76
-4533.15
-5688.18
-6602.24
-8385.41
-7747.72
-7265.81
-4530.63
-4503.89
-3090.33
-2942.43
1006.7
3263.58
7189.39
5931.79
5953.44
5924.7
5803.21
5293.87
4207.42
3830.88
2727.13
1998.59
958.375
943.724
-531.825
573.869
-2035.05
428.955
-2811.38
64.6753
-3679.48
-1230.46
-1738.45
-2060.54
-2261.26
-2326.94
-2232.15
-2168.5
-2151.74
-2147.14
-2075.57
-2093.55
-2104.76
-2085.84
-2104.68
-2137.55
-2189.21
-2217.63
-2266.06
-2323.04
-2410.6
-2442.47
-2505.76
-2614.28
-2654.34
-2765.19
-2897.54
-2978.2
-3086.29
-3222
-3406.76
-3522.43
-3539.02
-3674
-3789.41
-3879.42
-3959.69
-4006.68
-4245.46
-4234.81
-7937.65
-14581.3
-97522.5
-19041.2
-5615.56
-6332.17
1264.84
1649.12
2325.86
2363.55
3514.57
4583.44
6842.55
9532.55
17195.4
45940.6
91211.3
134618
90532
55001.1
59452.2
43403.5
45249.4
33218.4
31108.6
27742.5
18541.3
18737.6
16974.6
12970
11295.6
7714.74
9406.27
7064.56
7242.92
6688.88
7667.83
8246.03
7792.45
7937.46
7537.8
7411.96
5831.73
4546.03
3379.74
2667.4
794.6
269.467
-1901.58
-3845.15
-5198.55
-5735.58
-7093.77
-6921.25
-6421
-4031.8
-3241.75
-2319.17
-2825.55
-797.474
225.004
5933.59
4857.19
4848.33
5695.35
5528.83
4745.69
4235
3604.67
3115.75
2138.2
1312.01
1201.35
-217.637
712.06
-1625.52
554.658
-2471.44
129.344
-3319.86
-37.5476
-2899.46
-2359.13
-2273.56
-2170.07
-2130.5
-2074.19
-2040.83
-2038.34
-2013.65
-2005.92
-2022.5
-2041.39
-2076.75
-2102.67
-2130.79
-2182.72
-2208.82
-2264.17
-2329.43
-2433.36
-2451.88
-2521.53
-2594
-2679.45
-2764.38
-2896.93
-2982.22
-3019.65
-3160.19
-3302.75
-3542.59
-3724.67
-3939.19
-4150.94
-4259.75
-4645.28
-4758.39
-5821.94
-9251.85
-34162.3
-94157.8
-12866.4
-4890.55
-4060.16
3116.56
3243.87
3753.19
4212.76
4800.57
8909.25
16432.5
29426.9
55496.5
108141
162858
90805.5
53967.4
45052.4
39899.9
33403.9
28563
21483.6
17008.6
15540.2
14916.9
13940.4
8774.81
11171.8
9303.77
9432.67
8566.37
8293.76
7479.3
7789.63
7990.99
8179.61
7811.92
7691.91
7353.23
7795.56
6503.44
5138.89
3609.46
2027.6
1728.13
-35.7516
-872.518
-2371.11
-4222.19
-5346.17
-6207.54
-7247.39
-7209.93
-8030.2
-6369.63
-5856.76
-4549.69
-1852.12
351.388
4619.52
2918.94
4842.55
4542.2
5062.48
4376.62
4280.17
3420.91
3336.71
2170.22
1509.29
1312.34
-66.2026
736.245
-1362.69
639.565
-2175.77
174.727
-3382.74
-830.351
-2203.81
-2065.38
-2103.23
-2146.22
-2082.24
-2048.03
-2026.73
-2017.39
-1998.88
-1979.39
-1971.56
-1997.96
-2034.19
-2072.11
-2073.79
-2118.17
-2160.29
-2204.86
-2261.11
-2370.5
-2409.87
-2430.77
-2528.18
-2620.39
-2739.67
-2830.87
-2948.84
-3065.13
-3103.33
-3206.02
-3361.01
-3546.04
-3629.59
-3653.26
-3779.18
-3520.87
-3521.07
-4694.67
-8297.4
-73314.9
-48579.2
-14510.9
-7377.83
-5831.8
2525.13
3361.68
4099.18
5910.39
9105.75
15686.8
28793.4
53887.5
111668
179176
96231.7
59372.1
46349.3
32141.5
27348.6
20544.5
11773.8
15649.3
17025.6
14311.4
10378.1
9619.03
10721.6
10443.6
8992.24
8755.71
9161.5
9028.41
8837.32
8531.65
7692.28
8139.33
7628.36
6760.69
6221.66
6676.78
6650.13
5609.33
4366.34
3270.22
1269.16
599.822
-691.214
-1414.73
-3033.52
-4599.38
-5979.78
-6847.78
-6708.43
-7578.81
-5906.26
-5253.06
-3845.11
-1544.58
-329.862
3462.64
2382.47
3609.45
4275.72
4842.99
3967.37
4024.22
3445.92
3502.3
2325.38
1471.6
1385.43
190.751
760.927
-984.204
881.425
-2082.56
120.077
-3225.89
-578.323
-2354.22
-2111.88
-2064.38
-2043.98
-2011.39
-1967
-1946.62
-1937.62
-1913.36
-1921.67
-1915.09
-1951.74
-1962.98
-1993.44
-2013.66
-2044.47
-2119.23
-2127.78
-2194.79
-2248.08
-2368.93
-2372.11
-2426.8
-2520.42
-2624.99
-2741.79
-2829.95
-2890.77
-3048.98
-3083.7
-3125.83
-3214.43
-3377.25
-3511.46
-3767.27
-4334.36
-4661.24
-8226
-18523.7
-97343.7
-16509.8
-5608.8
-6072.54
-5517.69
2154.26
3620.46
4542.73
7050.93
12988.2
27759
56426.8
112097
176146
106169
65028.9
41581.9
32088.8
24187.4
14660.6
10030.3
16180.2
15900.7
10982.1
10051.6
11677.5
8997.18
8600.78
8307.71
9554.73
9996.78
9244.84
8804.36
9044.88
9249.94
8901.34
7818.9
6987.2
6907.38
6157.85
5841.7
6603.54
6146.21
4830.18
3670.35
2526.05
1134.59
243.605
-1139.14
-2400.15
-3485.78
-5386.84
-6284.38
-6827.26
-7052.69
-6604.73
-6430.1
-5099.31
-3732.28
-1042.82
841.857
1546.74
3602.74
3292.67
4475.43
3588.26
3796.45
3310.75
3450.72
2220.63
1471.8
1313.3
344.883
771.042
-755.834
878.232
-1769.79
-59.6666
-2569.28
-770.567
-2136.03
-1944.09
-1965.84
-1961.2
-1934.99
-1913.28
-1895.05
-1872.82
-1867.64
-1848.41
-1871.28
-1884.01
-1924.18
-1913.76
-1955.55
-1973.08
-2045.74
-2097.6
-2076.71
-2155.82
-2231.27
-2313.1
-2347.56
-2442.92
-2526.92
-2643.82
-2774.89
-2882.79
-2935.06
-3150.62
-3250.98
-3349.85
-3458.48
-3688.45
-3913.99
-3963.91
-5230.58
-8241.92
-40409.7
-78262.9
-14475.1
-4916.76
-3711.46
-3398.2
4669.72
5244.57
6885.29
13027
28317.9
56572.1
116232
179984
99217.8
69221.6
42068.7
30677.2
19515.2
9856.8
12228.9
15489.7
12571.5
11063.9
11234.9
9857.79
8181.79
6693.43
8222.28
9821.41
9041.59
8502.21
8695.39
9506.82
8376.09
8634.46
8121.27
7704.98
6939.04
6517.97
5781.81
5466.92
5078.87
5361.42
4712.5
3899.75
3043.28
1489.92
603.996
-742.214
-1941.37
-2833.51
-4519.44
-6041.3
-6687.93
-7340.01
-6522.35
-6894.05
-5064.5
-3859.29
-1085.63
1058.37
776.371
2493.86
2884.95
3640.38
3315.8
3530.23
3175.04
3278.99
2404.4
1573.26
1555.02
627.897
890.003
-357.183
1115.83
-1333.36
442.2
-2143.35
-731.298
-2081.5
-1886.49
-1876.77
-1858.78
-1855.08
-1833.66
-1808.12
-1802.14
-1798.4
-1781.16
-1802.41
-1816.41
-1843.18
-1849.79
-1875.36
-1904.45
-1924.9
-2028.85
-2057.94
-2052.99
-2122.98
-2192.82
-2265.27
-2330.26
-2399.38
-2504.1
-2626.24
-2749.54
-2863.2
-2917.79
-2882.46
-2975.04
-3027.63
-3084.77
-3050.08
-3196.48
-4767.19
-10971.7
-75541.4
-36672.4
-10508.8
-5858.86
-4507.66
-3279.18
5547.94
7833.25
14517.3
28902.3
59228.5
119192
169536
107869
59812.4
29765.3
30802.3
23956.3
7814.35
13211.6
14912.9
10665.5
11880.3
10970.7
8265
7355.48
7112.35
9476.63
8977.24
7954.7
8314.67
8255.65
7864.94
7328.66
7978.51
8677.17
7949.03
7619.48
7033.14
6210.68
5970.03
4818.5
4332.28
4195.1
4201.85
3501.57
2984.99
2155.03
656.357
385.56
-1254.08
-2015.71
-3686.04
-5203.42
-6040.4
-7235.91
-5794.51
-6287.13
-5016.63
-3785.88
-2187.05
-483.325
953.942
2203.82
1864.28
3292.07
2678.39
3160.92
3122.6
2985.35
2352.54
1553.88
1561.38
683.307
972.671
-151.709
1006
-1044.44
420.429
-2335.46
-760.098
-1949.61
-1776.63
-1788.78
-1753.8