/*--------------------------------*- C++ -*----------------------------------*\
| =========                 |                                                 |
| \\      /  F ield         | OpenFOAM: The Open Source CFD Toolbox           |
|  \\    /   O peration     | Version:  2.2.x                                 |
|   \\  /    A nd           | Web:      www.OpenFOAM.org                      |
|    \\/     M anipulation  |                                                 |
\*---------------------------------------------------------------------------*/
FoamFile
{
    version     2.0;
    format      ascii;
    class       volVectorField;
    location    "1.45";
    object      U;
}
// * * * * * * * * * * * * * * * * * * * * * * * * * * * * * * * * * * * * * //

dimensions      [0 1 -1 0 0 0 0];

internalField   nonuniform List<vector> 
14161
(
(1.51072 0.0219411 -3.26308e-13)
(1.50147 0.0113452 -6.97253e-14)
(1.49608 -0.00141106 4.83383e-13)
(1.49918 -0.00550248 5.53522e-13)
(1.50128 -0.0055791 8.76833e-13)
(1.50378 -0.00438943 8.89596e-13)
(1.50655 -0.00185739 1.09346e-12)
(1.50734 0.000199096 1.20371e-12)
(1.50755 0.000421972 1.27345e-12)
(1.50716 0.000235851 1.46169e-12)
(1.50741 -2.11497e-06 2.10079e-12)
(1.50774 -0.000771169 2.37672e-12)
(1.5079 -0.00142603 2.14795e-12)
(1.51016 -0.0018087 2.07072e-12)
(1.51116 -0.0020478 2.27114e-12)
(1.51223 -0.00130897 2.54841e-12)
(1.51412 -0.00086493 3.41582e-12)
(1.51627 0.000277269 3.05325e-12)
(1.51791 0.00159877 3.28439e-12)
(1.51906 0.00344288 2.49172e-12)
(1.51953 0.00430967 8.53554e-13)
(1.51945 0.00438135 1.02565e-12)
(1.51981 0.00458953 1.3028e-12)
(1.52004 0.00440122 2.47585e-12)
(1.52023 0.00407511 7.03424e-12)
(1.52057 0.00379516 -4.34997e-12)
(1.52095 0.00368393 -1.77485e-12)
(1.52118 0.00373418 3.27615e-12)
(1.52156 0.00380715 1.02464e-11)
(1.52138 0.00389782 8.62192e-12)
(1.52084 0.00391507 5.05439e-12)
(1.52036 0.00377819 3.74494e-13)
(1.51964 0.00362417 -1.52936e-12)
(1.51839 0.00348668 -4.58369e-13)
(1.51738 0.00310508 -2.67021e-12)
(1.5164 0.00275604 5.47013e-12)
(1.51551 0.00261202 2.06773e-11)
(1.51495 0.00195664 7.017e-12)
(1.51521 0.00175953 7.05163e-11)
(1.5167 0.00176486 -2.90724e-10)
(1.52016 0.00217886 6.13654e-10)
(1.53516 0.000740313 1.29783e-09)
(1.54003 -0.000601032 5.05283e-08)
(1.59749 -0.0603925 4.56751e-07)
(1.4641 -0.236986 1.26905e-06)
(0.816311 -0.03231 1.60009e-06)
(0.887271 0.0455838 1.55397e-06)
(0.905407 0.0491271 2.02121e-06)
(0.898368 0.0488022 1.06475e-06)
(0.894716 0.0471942 1.47128e-06)
(0.887571 0.0457791 2.69684e-06)
(0.874873 0.0443227 -5.45965e-06)
(0.856484 0.0401641 8.64162e-06)
(0.846305 0.0329257 1.53157e-06)
(0.84033 0.0270496 -2.01981e-05)
(0.838069 0.0235426 3.60261e-05)
(0.836374 0.0219748 3.93992e-06)
(0.83882 0.0183816 -7.59654e-05)
(0.84647 0.0156006 -1.06758e-05)
(0.852709 0.0141865 6.0348e-05)
(0.85873 0.0127342 4.44518e-05)
(0.863866 0.0121395 -1.16704e-05)
(0.8689 0.0115945 -4.76075e-05)
(0.874688 0.0114211 -3.1925e-05)
(0.879045 0.0123853 9.97118e-06)
(0.881403 0.0145138 5.00134e-05)
(0.880616 0.0165758 1.62739e-05)
(0.878463 0.0194951 6.70118e-06)
(0.871081 0.0222714 -5.94297e-05)
(0.862784 0.0255472 3.35257e-06)
(0.842584 0.0266918 0.000124763)
(0.820794 0.0252758 -0.000348864)
(0.801628 0.0221555 0.000168465)
(0.787263 0.0182573 0.000549015)
(0.777479 0.0141 -0.000383758)
(0.77205 0.00897741 -0.000594057)
(0.771 0.00457853 0.000267094)
(0.77431 0.00209936 0.000295409)
(0.781211 0.000220395 0.000165659)
(0.788916 -0.00177563 -4.22802e-05)
(0.797029 -0.00389445 -0.000216171)
(0.806435 -0.00492074 -0.000146222)
(0.817492 -0.00547253 -1.66446e-05)
(0.828692 -0.00611991 0.000117579)
(0.841451 -0.00534395 0.000121987)
(0.852363 -0.00374801 5.13159e-05)
(0.859394 -0.00207816 -7.45092e-05)
(0.860441 -0.000360316 -5.76939e-05)
(0.860806 0.00495713 -3.19012e-05)
(0.864504 0.0171087 -7.16244e-06)
(0.864833 0.0353168 1.87257e-05)
(0.837536 0.0653909 -9.96757e-06)
(0.746042 0.0980599 5.44277e-06)
(0.626297 0.109608 -8.5295e-05)
(0.511203 0.0894657 -5.80239e-06)
(0.42848 0.0622586 -5.62431e-05)
(0.370396 0.0448781 -7.9685e-05)
(0.328738 0.0315609 2.23391e-05)
(0.299867 0.0220389 -7.67785e-05)
(0.279543 0.0153667 -2.86422e-05)
(0.264763 0.0102896 8.29264e-05)
(0.253445 0.00697572 -1.52484e-06)
(0.244502 0.00503205 -1.1108e-05)
(0.237646 0.00396134 3.63572e-05)
(0.232668 0.00351316 -1.77916e-05)
(0.228831 0.00345403 -4.46599e-05)
(0.225483 0.00373143 4.68536e-06)
(0.221613 0.00455781 4.96743e-05)
(0.216014 0.00599158 2.52002e-05)
(0.208365 0.00769321 -2.59258e-05)
(0.198347 0.0102073 -2.71674e-05)
(0.185279 0.0124506 1.40219e-06)
(0.16935 0.015698 -3.28184e-07)
(0.149222 0.0179959 -1.0548e-07)
(0.124954 0.017788 7.06569e-06)
(0.0969761 0.0168053 1.8883e-05)
(0.0689702 0.0173936 -1.83949e-05)
(0.0405923 0.0181677 1.33006e-05)
(0.0134668 0.017593 1.58214e-05)
(1.45852 -0.0130127 9.27567e-12)
(1.49687 -0.00968243 -8.92691e-11)
(1.50834 -0.00289096 8.26646e-11)
(1.51631 0.0018764 -1.10659e-11)
(1.51244 0.00266351 -3.26512e-11)
(1.51181 0.00306619 -2.41993e-11)
(1.50925 0.00244696 1.36298e-12)
(1.51002 0.00153811 1.01629e-12)
(1.51074 0.000359276 -1.4575e-11)
(1.51151 -0.000455332 -1.98431e-11)
(1.51195 -0.000466562 -6.65145e-12)
(1.51324 -0.000436295 7.44961e-12)
(1.51337 0.000257039 9.24367e-12)
(1.51412 0.000920888 -1.18829e-11)
(1.51453 0.00128611 -2.34851e-11)
(1.51424 0.00181197 -1.85127e-11)
(1.51415 0.00119397 6.1576e-11)
(1.51288 0.00099128 5.8372e-12)
(1.51167 2.90651e-05 8.70685e-12)
(1.51101 -0.00068023 1.10362e-10)
(1.51313 -0.00193466 -1.57996e-10)
(1.51321 -0.00293903 -1.36947e-10)
(1.51539 -0.00316665 -6.20259e-11)
(1.51755 -0.00345296 -8.76062e-11)
(1.51965 -0.00368171 1.03108e-09)
(1.52111 -0.00383114 -1.20639e-09)
(1.52224 -0.00380576 -9.61029e-10)
(1.52134 -0.00371667 -2.58554e-10)
(1.52054 -0.00364917 1.82106e-09)
(1.51992 -0.00354469 9.12038e-10)
(1.51934 -0.00349325 1.8455e-10)
(1.51864 -0.00348347 -5.94191e-10)
(1.51802 -0.00338717 -6.04165e-10)
(1.51773 -0.00325147 -9.40684e-10)
(1.51729 -0.00322673 -6.51561e-10)
(1.51681 -0.00301787 3.01978e-10)
(1.51615 -0.00308881 7.31362e-10)
(1.5143 -0.00341377 7.13386e-10)
(1.51306 -0.00319105 5.61024e-10)
(1.51093 -0.00318382 5.81873e-10)
(1.50834 -0.00277543 -5.84903e-10)
(1.50724 -0.00561848 -1.53097e-09)
(1.49895 -0.00690571 2.999e-08)
(1.49028 -0.075487 3.91937e-07)
(0.818605 -0.251943 7.59142e-07)
(0.550064 -0.0256119 9.13675e-07)
(0.495692 0.0249889 -9.16517e-08)
(0.490034 0.0213891 -1.151e-06)
(0.499188 0.0209799 -5.67503e-06)
(0.518037 0.0186934 -5.39232e-07)
(0.540148 0.0167498 3.76652e-05)
(0.562364 0.0171602 -5.554e-05)
(0.583945 0.00885499 -0.00012415)
(0.602312 0.00347119 -0.00017814)
(0.6212 -0.000755073 0.000560269)
(0.640743 -0.0024107 0.000516136)
(0.657816 0.00027195 -0.000877346)
(0.672957 -0.00081593 -0.00140182)
(0.686765 -0.00193993 0.000663944)
(0.697565 -0.000805521 0.00188949)
(0.70534 0.00232297 0.000321626)
(0.71025 0.00364826 -0.00113354)
(0.712092 0.00397343 -0.000643943)
(0.712491 0.00556707 -8.44107e-05)
(0.709253 0.00725889 0.000582367)
(0.703893 0.00978066 0.000552987)
(0.692253 0.0121179 -0.000724016)
(0.676618 0.0144222 -0.000153872)
(0.660823 0.015335 0.000936397)
(0.64645 0.0167335 -0.000308276)
(0.635735 0.0160178 -0.000372155)
(0.627981 0.0154202 -0.000221996)
(0.624183 0.0133931 2.80378e-05)
(0.627739 0.010657 -0.000189691)
(0.638808 0.00760724 1.46579e-05)
(0.653968 0.00462158 0.00130237)
(0.67009 0.000484364 1.73602e-05)
(0.682426 -0.00237567 -0.00244445)
(0.694747 -0.00425119 -0.000512437)
(0.708311 -0.0055378 0.00289325)
(0.723859 -0.00617472 0.00189286)
(0.738549 -0.00708657 -0.000825975)
(0.747952 -0.00792973 -0.00263915)
(0.752598 -0.00743363 -0.0001063)
(0.753451 -0.0060307 0.000490474)
(0.750816 -0.00591719 0.000975923)
(0.745923 -0.00743283 0.000405567)
(0.720974 -0.000511029 -0.000288588)
(0.659009 -0.000850344 -0.000869269)
(0.594053 0.0145286 -0.00037381)
(0.522001 0.0379882 0.000125987)
(0.465309 0.0673739 0.000268696)
(0.412234 0.0952475 -0.000292153)
(0.370271 0.108108 6.7535e-05)
(0.337483 0.0913665 -0.00023382)
(0.316559 0.0666551 6.91945e-05)
(0.294871 0.0510674 -4.81496e-05)
(0.280281 0.0370368 0.000173442)
(0.267909 0.0281768 3.44813e-05)
(0.257713 0.0211661 -0.000355787)
(0.249923 0.0150184 -0.0001479)
(0.242946 0.0111773 0.000107774)
(0.23645 0.00923718 0.000171291)
(0.23055 0.00781484 0.00018843)
(0.224969 0.00698327 0.000129007)
(0.219435 0.0064951 -6.98173e-05)
(0.213518 0.00679629 -0.000146744)
(0.206223 0.00795946 -8.87098e-06)
(0.196838 0.0102586 0.000108266)
(0.185327 0.0126032 8.002e-05)
(0.172103 0.0159968 3.50766e-07)
(0.156666 0.0196081 -3.84555e-05)
(0.139807 0.0240727 -3.48066e-05)
(0.121422 0.0298374 -2.72251e-05)
(0.102921 0.0416839 -2.12193e-05)
(0.0797687 0.0423074 1.76451e-05)
(0.0572716 0.0438986 9.47039e-07)
(0.0344905 0.0430521 1.23335e-05)
(0.0122763 0.0433286 4.79e-06)
(1.56198 0.0102089 1.9184e-11)
(1.50323 0.00940112 -8.45708e-11)
(1.47985 0.00182986 2.79176e-10)
(1.48638 -0.00265311 1.2449e-11)
(1.4858 -0.0033488 -1.16584e-10)
(1.49482 -0.0026667 3.07531e-11)
(1.49926 -0.00142623 -4.2738e-10)
(1.50153 6.7609e-05 5.91784e-10)
(1.50429 0.000941856 3.09786e-10)
(1.50496 0.000544488 -3.02744e-10)
(1.50421 0.000413823 -5.67009e-10)
(1.50304 -0.000118152 -1.63586e-11)
(1.50321 -0.000522225 2.79108e-10)
(1.50504 -0.000882484 8.48956e-11)
(1.50891 -0.000845483 -5.56238e-11)
(1.51289 -0.00130511 -1.14979e-09)
(1.51582 -0.000387046 2.7747e-09)
(1.52063 0.000683291 -1.61655e-09)
(1.525 0.00145663 -3.50377e-09)
(1.52655 0.00231521 1.01725e-08)
(1.52799 0.00269645 -4.89888e-09)
(1.5229 0.00283291 -7.32858e-09)
(1.52234 0.00340074 -1.32295e-09)
(1.52171 0.00355863 1.98175e-09)
(1.52158 0.0032073 2.09647e-08)
(1.52161 0.00275076 -1.5476e-08)
(1.52125 0.00251542 -3.7946e-08)
(1.52061 0.00236096 4.95222e-09)
(1.5194 0.00230978 2.81891e-08)
(1.51866 0.0023461 2.34786e-08)
(1.51734 0.00231279 1.08687e-08)
(1.5159 0.00223163 -7.74059e-09)
(1.51474 0.00218136 -2.52153e-08)
(1.51292 0.0021442 -2.31827e-08)
(1.51133 0.00200734 -1.40735e-08)
(1.50982 0.00203097 -6.34037e-09)
(1.50833 0.00212558 1.27185e-08)
(1.50751 0.00288577 2.46251e-08)
(1.50691 0.00291542 2.08825e-08)
(1.50588 0.0027476 1.60605e-08)
(1.50472 0.00146259 8.11569e-09)
(1.49532 -0.000551385 2.11661e-09)
(1.49424 -0.00195667 1.18438e-07)
(1.41849 -0.0448963 1.09778e-06)
(0.629135 -0.0920356 1.00353e-06)
(0.451786 -0.00957194 4.59239e-06)
(0.401311 0.00478611 2.25797e-06)
(0.404156 -0.0122813 -3.03557e-05)
(0.431813 -0.0220123 7.00582e-05)
(0.462734 -0.0278751 1.48462e-06)
(0.494947 -0.0299621 0.000194292)
(0.527441 -0.0273083 -0.000281153)
(0.553772 -0.021373 -0.000666463)
(0.581644 -0.0208379 0.000393986)
(0.60648 -0.0193296 0.00133545)
(0.625715 -0.0201527 0.000120439)
(0.641055 -0.0165409 -0.00116215)
(0.657332 -0.016086 -0.00136331)
(0.672325 -0.0121521 0.000777118)
(0.68177 -0.00942968 0.00117569)
(0.688587 -0.00603643 0.000583148)
(0.692396 -0.00253158 -0.000747776)
(0.693674 0.000542875 -0.000734397)
(0.691508 0.00424218 -4.94947e-05)
(0.683506 0.00777037 -0.000211626)
(0.674751 0.0130508 0.000312293)
(0.664187 0.0176087 0.000915994)
(0.652861 0.0198378 -0.00029836)
(0.640549 0.0198248 -0.000567072)
(0.628368 0.0172881 -0.000105156)
(0.619578 0.0114945 0.000184958)
(0.615377 0.00397138 0.000335085)
(0.616388 -0.00477124 -9.65943e-06)
(0.624258 -0.0121606 -4.49001e-05)
(0.636936 -0.0170507 -0.000951838)
(0.651099 -0.0198711 -0.000126727)
(0.665098 -0.0215155 0.00168319)
(0.680831 -0.0217654 0.00114405)
(0.699514 -0.0188873 -0.0021198)
(0.716214 -0.0182293 -0.00243479)
(0.729183 -0.0173447 0.00123688)
(0.73997 -0.0149703 0.00192306)
(0.742749 -0.0131946 0.000485946)
(0.741802 -0.00622828 -0.000226387)
(0.739759 0.00395358 -0.00102835)
(0.729927 0.0131045 -0.000324536)
(0.683562 0.0275406 -7.12447e-05)
(0.605876 0.0508981 -8.51048e-06)
(0.516445 0.066612 0.000193729)
(0.44622 0.0750511 5.11186e-05)
(0.393746 0.0839512 -0.000115126)
(0.340456 0.100884 2.18734e-05)
(0.296083 0.111755 5.8613e-05)
(0.273137 0.115536 -0.000322561)
(0.256245 0.097347 0.000412673)
(0.241314 0.0725726 -0.000202471)
(0.224574 0.0577679 -0.000292623)
(0.217768 0.0415584 0.000474463)
(0.211097 0.0326068 0.000425822)
(0.20551 0.0249456 9.42883e-05)
(0.201396 0.0173476 -0.000506975)
(0.198437 0.012865 -0.000356743)
(0.196641 0.0103399 0.000338871)
(0.195385 0.00866823 0.000371906)
(0.193286 0.00829848 0.000115384)
(0.190268 0.0093964 -0.000101264)
(0.184646 0.0116905 -0.000189702)
(0.176275 0.0152239 -6.88299e-05)
(0.165061 0.020603 0.000107863)
(0.150368 0.0242546 5.9395e-05)
(0.134052 0.0288974 2.57029e-05)
(0.116343 0.0320889 6.60848e-05)
(0.0993295 0.0368332 3.19088e-06)
(0.0815744 0.0415003 -1.32712e-08)
(0.0667591 0.0529755 1.5201e-05)
(0.0493081 0.0544077 1.31018e-05)
(0.0362813 0.0610645 -2.19452e-05)
(0.0222281 0.0624384 -1.06426e-05)
(0.009623 0.0653228 -9.44559e-06)
(1.41947 -0.0114044 1.01791e-09)
(1.49474 -0.00412023 -2.56126e-09)
(1.52642 -0.000216925 -1.93141e-08)
(1.53851 0.000450389 7.58128e-09)
(1.52045 0.000303685 9.13718e-09)
(1.51509 0.00071284 3.81874e-09)
(1.50902 0.000452518 -4.85905e-09)
(1.50786 0.000484171 -1.44413e-09)
(1.50919 0.000514741 2.07796e-09)
(1.51121 -9.18536e-05 -4.07691e-10)
(1.5116 -5.27206e-05 -3.13142e-09)
(1.51356 -0.00019082 -2.2332e-09)
(1.51577 0.000314836 2.37126e-10)
(1.51634 0.000354094 2.08403e-09)
(1.5165 0.000360837 9.25616e-10)
(1.51468 0.000786248 1.18619e-09)
(1.51208 0.000505184 -7.51405e-09)
(1.50914 0.00073727 2.34824e-08)
(1.50666 0.000361421 -3.68731e-08)
(1.5083 -0.000267185 1.36628e-08)
(1.50885 -0.00080769 9.34386e-09)
(1.50826 -0.00107317 -2.89726e-08)
(1.51271 -0.00119522 -2.6147e-08)
(1.5181 -0.00131056 3.93745e-08)
(1.52199 -0.00156762 1.29353e-07)
(1.52495 -0.00184443 -1.22715e-07)
(1.52314 -0.00189483 -1.00129e-07)
(1.52089 -0.00192886 -1.79961e-09)
(1.51941 -0.00198812 1.08625e-07)
(1.51805 -0.00198522 9.06018e-08)
(1.51663 -0.00200745 2.4488e-08)
(1.51632 -0.00204885 -1.71434e-08)
(1.51571 -0.00200838 -7.65954e-08)
(1.51508 -0.00190546 -8.75977e-08)
(1.51457 -0.00188005 -4.62923e-08)
(1.51373 -0.00157127 -2.80347e-09)
(1.51303 -0.00142123 5.52123e-08)
(1.51175 -0.00117707 1.12802e-07)
(1.50982 -0.00109027 6.45251e-08)
(1.50695 -0.000781722 8.48997e-08)
(1.50305 -0.000893725 -5.60734e-08)
(1.49341 -0.000329599 2.6719e-08)
(1.49073 0.00321076 -4.94018e-07)
(1.34875 0.0277465 4.763e-06)
(0.557037 0.0542386 -2.59358e-05)
(0.418178 0.0291606 2.82335e-05)
(0.392837 -0.0104327 -2.29738e-05)
(0.406475 -0.0438622 3.10484e-05)
(0.439919 -0.0586424 -4.50477e-05)
(0.474077 -0.0651023 3.05379e-05)
(0.506542 -0.0640871 3.73515e-05)
(0.537169 -0.0564835 0.000189582)
(0.564065 -0.0503839 -0.000245322)
(0.591055 -0.0437586 -0.000738144)
(0.617471 -0.0356886 -7.25211e-05)
(0.641096 -0.0358774 0.0013128)
(0.660674 -0.0326602 0.00122231)
(0.676994 -0.0297902 -0.00127769)
(0.692131 -0.0206711 -0.00259523)
(0.708519 -0.0144802 0.00142135)
(0.722037 -0.0067264 0.00366401)
(0.732104 -0.00013569 -0.000420677)
(0.736845 0.0067774 -0.00326348)
(0.739452 0.0145977 -0.00176947)
(0.735119 0.0210223 0.00183202)
(0.727221 0.0266282 0.00240332)
(0.716198 0.0298103 -0.000350869)
(0.701464 0.0323724 -0.00189366)
(0.685627 0.0323015 -0.000210275)
(0.669069 0.0273497 0.000241099)
(0.654241 0.0169438 9.89931e-05)
(0.645535 0.00202444 0.00188705)
(0.645133 -0.0131939 0.000389016)
(0.64961 -0.0235874 -0.00333011)
(0.660095 -0.0300572 -0.00171625)
(0.670234 -0.0333964 0.00290696)
(0.68187 -0.0334293 0.00351841)
(0.693685 -0.0303361 -0.000907239)
(0.709283 -0.0284703 -0.00364355)
(0.721728 -0.0283612 -0.00185612)
(0.731285 -0.0244128 0.00244774)
(0.737548 -0.0188036 0.00187817)
(0.740669 -0.00978443 0.000420012)
(0.748826 0.00117025 -0.00120339)
(0.735155 0.0129113 -0.000784822)
(0.683109 0.0387913 -0.000372057)
(0.655808 0.0750609 0.000448079)
(0.619003 0.109395 0.000360474)
(0.532909 0.143924 -3.59571e-05)
(0.456627 0.153929 1.55804e-05)
(0.383155 0.148623 -0.000148445)
(0.341641 0.15378 4.68218e-05)
(0.308157 0.14644 -3.00583e-05)
(0.27301 0.137476 -8.44874e-05)
(0.248112 0.116123 0.000221224)
(0.230641 0.0896749 1.67554e-05)
(0.212054 0.0699975 -7.86253e-05)
(0.203225 0.0476257 -0.000594236)
(0.192674 0.0355773 0.00049567)
(0.184646 0.0258624 0.000773355)
(0.179658 0.0177398 -0.000785301)
(0.175758 0.01284 -0.000455309)
(0.172931 0.00990304 0.000550791)
(0.169214 0.00834975 0.000498268)
(0.164796 0.00914669 9.41284e-05)
(0.159174 0.0116621 -0.00031856)
(0.151607 0.0165543 -0.000342722)
(0.141133 0.0217236 2.01541e-05)
(0.129737 0.0297004 1.92683e-05)
(0.115772 0.0352863 -0.000104101)
(0.1022 0.0419476 2.91961e-05)
(0.0877751 0.0455294 6.31643e-05)
(0.074662 0.051198 -8.69719e-06)
(0.0599784 0.0565843 -2.15272e-05)
(0.0505195 0.0704008 -2.40969e-05)
(0.0366131 0.0688941 -1.39682e-05)
(0.0261595 0.0737959 -3.47554e-05)
(0.0163124 0.0754992 -1.99282e-05)
(0.0085216 0.0798688 -1.68022e-05)
(1.62042 0.00485575 -5.11754e-10)
(1.50096 0.00771569 1.16077e-09)
(1.46793 0.00381716 3.65575e-10)
(1.46752 -0.00151216 8.57024e-10)
(1.47023 -0.00305973 1.99623e-10)
(1.48413 -0.0020902 2.66268e-10)
(1.49425 -0.00216214 3.94064e-10)
(1.49995 -0.000413051 5.73091e-10)
(1.50166 0.000388965 -1.95683e-09)
(1.50215 0.000150655 6.98692e-10)
(1.50126 0.000155935 2.25492e-09)
(1.49972 -0.000181952 3.23896e-09)
(1.50036 -0.000111768 4.76509e-11)
(1.50306 -0.000669753 -1.0714e-09)
(1.50855 -0.000974699 -3.90612e-10)
(1.51363 -0.000673847 1.87041e-09)
(1.51674 -0.000378228 5.83707e-10)
(1.52475 0.000322942 1.63571e-09)
(1.5319 0.000491508 4.46831e-09)
(1.53333 0.000830398 -6.27973e-09)
(1.53366 0.00081888 6.13481e-10)
(1.52846 0.00114542 1.81672e-09)
(1.52742 0.00120405 9.13808e-11)
(1.52587 0.00107839 5.81257e-10)
(1.52463 0.000816434 -4.45121e-09)
(1.52354 0.000405413 8.8135e-09)
(1.52238 0.000250739 1.54659e-08)
(1.52126 0.000216308 7.35638e-09)
(1.52054 0.000120118 -5.25887e-09)
(1.51971 0.000140986 -7.1745e-09)
(1.51823 0.000137522 -1.29421e-09)
(1.51647 9.41085e-05 4.53624e-09)
(1.51443 0.000143263 1.01933e-08)
(1.51214 4.84227e-05 9.17687e-09)
(1.5097 -0.000120482 1.03392e-08)
(1.50726 7.40655e-05 3.71361e-10)
(1.50502 0.000104579 -5.37918e-09)
(1.50356 0.000101159 -4.86816e-09)
(1.50157 -4.53496e-05 -9.95732e-09)
(1.49896 6.29921e-05 7.87624e-10)
(1.4957 -0.00018372 -7.64197e-09)
(1.48853 0.000998137 1.25769e-08)
(1.48951 0.00690606 -9.25226e-07)
(1.42983 0.0943771 -5.87667e-06)
(0.657409 0.202441 3.79415e-07)
(0.495661 0.0669368 2.12836e-05)
(0.442632 -0.0329229 -8.75227e-05)
(0.450281 -0.0889826 0.000231434)
(0.490594 -0.106008 -0.000104492)
(0.524576 -0.112216 -0.000116093)
(0.555024 -0.109289 -3.44509e-05)
(0.583683 -0.0967507 7.76624e-06)
(0.616197 -0.0843714 0.000649489)
(0.647392 -0.0689243 0.000445731)
(0.675013 -0.056663 -0.000995846)
(0.701007 -0.0515979 -0.00153292)
(0.719671 -0.0427201 0.000487874)
(0.739854 -0.038164 0.001985)
(0.755644 -0.0282181 0.000666362)
(0.772341 -0.0208857 -0.00170638)
(0.783129 -0.0109289 -0.000637936)
(0.797844 -0.00295791 0.000284091)
(0.8058 0.00723156 -0.000339159)
(0.814461 0.0162722 0.00177029)
(0.819719 0.0262715 0.000908119)
(0.823387 0.0344962 -0.00205258)
(0.819176 0.0423163 -0.00204632)
(0.810994 0.0456378 0.000801334)
(0.799736 0.0442823 0.00165675)
(0.784986 0.0382811 0.00114108)
(0.763922 0.0268276 -0.00119013)
(0.749458 0.00571843 -0.000608054)
(0.733567 -0.015564 0.00333938)
(0.727775 -0.0285177 -0.00165233)
(0.726854 -0.034242 -0.00331807)
(0.729299 -0.0374147 -0.000782444)
(0.735289 -0.0382181 0.00164205)
(0.743526 -0.0359621 0.00265138)
(0.752049 -0.0343294 0.000603274)
(0.761065 -0.0331119 -0.00172291)
(0.768503 -0.0295311 -0.00144266)
(0.779158 -0.0232837 -0.000206078)
(0.78248 -0.0142276 0.00105214)
(0.775121 -0.00124542 0.000506747)
(0.758789 0.0221509 -4.78473e-05)
(0.756507 0.0598009 -0.000386106)
(0.705812 0.099449 -0.000227861)
(0.645803 0.161072 -7.6689e-05)
(0.600609 0.206715 0.000474052)
(0.535526 0.218552 0.000226439)
(0.47508 0.207353 -0.000516914)
(0.412377 0.199534 -0.000268152)
(0.35631 0.181628 0.000376129)
(0.311063 0.169673 9.60501e-05)
(0.277317 0.139314 -0.000354604)
(0.245434 0.11064 0.00017933)
(0.215595 0.0885143 0.000779702)
(0.200783 0.0596374 -0.00150604)
(0.187227 0.0442271 0.000709469)
(0.178339 0.0308925 0.00166322)
(0.17164 0.0212227 -0.00132402)
(0.164919 0.0158535 -0.0011754)
(0.158963 0.013423 0.000703678)
(0.152324 0.0123989 0.000944546)
(0.145423 0.0141894 5.26015e-06)
(0.137067 0.0177146 -0.000454551)
(0.127819 0.0244058 -2.69304e-05)
(0.116464 0.0313104 0.000221894)
(0.106099 0.0409798 -3.24197e-05)
(0.0931661 0.046727 -7.62767e-05)
(0.0815732 0.0528463 4.58916e-05)
(0.069291 0.0560374 5.38435e-05)
(0.0585696 0.061996 -6.40128e-06)
(0.0463325 0.0663907 -1.91158e-05)
(0.0400585 0.0808453 -1.92852e-06)
(0.0291069 0.0791514 1.87349e-05)
(0.0217171 0.0840096 -1.44693e-05)
(0.0140319 0.0855689 -1.0737e-05)
(0.00919665 0.0902853 -1.58475e-05)
(1.39655 -0.0108198 -3.93179e-10)
(1.49438 -0.00179664 1.86992e-09)
(1.53794 0.00201565 3.15487e-09)
(1.5531 -0.000129509 -4.32061e-09)
(1.52871 -0.00116144 -3.61417e-09)
(1.52059 -3.16296e-06 -1.00407e-09)
(1.50809 -0.00143627 1.9124e-09)
(1.50748 -3.3903e-05 6.06565e-10)
(1.50898 0.000250392 6.74668e-10)
(1.50976 5.69469e-05 1.47686e-09)
(1.51093 0.000230165 1.3521e-09)
(1.51374 5.71785e-05 1.46293e-09)
(1.5177 0.000266439 5.80624e-10)
(1.52037 3.34762e-05 1.28252e-09)
(1.52 -0.000212296 2.30824e-09)
(1.51817 -0.000101571 2.58247e-09)
(1.51552 0.000268885 1.95471e-09)
(1.51244 0.000733312 1.48149e-09)
(1.50892 0.000860206 3.6414e-10)
(1.51076 0.000649416 6.238e-10)
(1.51139 0.000475678 5.0849e-10)
(1.51196 0.000673962 -7.24314e-10)
(1.51755 0.000935386 4.3378e-10)
(1.5223 0.000978434 1.24656e-09)
(1.52629 0.000850977 4.31075e-09)
(1.5262 0.000559106 4.22146e-09)
(1.52479 0.000473365 3.51863e-09)
(1.52308 0.000381184 4.34163e-09)
(1.52073 0.000188452 6.67206e-09)
(1.51822 5.07131e-06 1.00718e-08)
(1.51684 -0.000161232 9.46701e-09)
(1.5157 -0.000265297 7.74232e-09)
(1.51506 -0.000245395 5.72738e-09)
(1.51481 -0.000334063 4.04454e-09)
(1.51419 -0.000143955 3.49194e-09)
(1.5153 -4.46348e-05 2.83687e-09)
(1.51585 6.71397e-05 3.01122e-09)
(1.516 0.000170503 2.42321e-09)
(1.51625 0.000305446 3.41056e-09)
(1.51719 0.000641184 9.14517e-10)
(1.51808 0.000569852 3.48137e-09)
(1.52068 0.0020148 -3.63261e-09)
(1.5228 0.00800811 -3.10403e-07)
(1.52354 0.101466 -3.0605e-06)
(0.91647 0.336838 -3.10537e-06)
(0.635405 0.107079 -3.42457e-05)
(0.575238 -0.0619578 9.56324e-05)
(0.58311 -0.125597 -8.47884e-05)
(0.617468 -0.135214 4.4019e-06)
(0.644664 -0.136936 -3.09276e-05)
(0.667465 -0.133406 0.000108486)
(0.685514 -0.121427 0.000141089)
(0.702548 -0.104064 -0.000374143)
(0.721456 -0.0871022 -0.000429333)
(0.738958 -0.0731029 0.000567053)
(0.757565 -0.06348 0.000921805)
(0.771607 -0.0504397 -0.000251651)
(0.788922 -0.040932 -0.000991363)
(0.797466 -0.030669 -0.000273751)
(0.815491 -0.0243726 0.000437254)
(0.824576 -0.0155402 0.000697452)
(0.836454 -0.00645888 -0.000296427)
(0.842254 0.00488566 9.29637e-05)
(0.853441 0.016177 7.85003e-05)
(0.859546 0.0288442 -0.00166285)
(0.863903 0.0400723 0.000494461)
(0.866596 0.050585 0.0015359)
(0.864649 0.0555044 8.65101e-05)
(0.860042 0.0561252 -0.000430579)
(0.853917 0.0518206 -0.000287353)
(0.839635 0.0400605 -0.000464546)
(0.823348 0.0176522 -0.00166229)
(0.79807 -0.0067985 0.0041998)
(0.782149 -0.0233047 0.00115058)
(0.776561 -0.0326272 -0.00380408)
(0.775759 -0.0379541 -0.00220027)
(0.778892 -0.0405866 0.000739559)
(0.784311 -0.040063 0.00165943)
(0.793056 -0.0389579 0.00144872)
(0.8037 -0.0372904 8.22791e-05)
(0.81482 -0.034136 -0.00159229)
(0.822003 -0.0287367 -0.000792534)
(0.828174 -0.0189924 0.000339032)
(0.833446 0.00225186 0.000775217)
(0.818522 0.0316678 0.000904304)
(0.794597 0.0820568 -0.000615838)
(0.748854 0.141529 -0.00169604)
(0.709184 0.203269 0.00303682)
(0.684185 0.249515 0.000676419)
(0.630233 0.264454 -0.00332619)
(0.576828 0.261999 -0.000663959)
(0.515061 0.2615 0.00214095)
(0.451367 0.24283 0.000268431)
(0.384129 0.220815 -0.000187578)
(0.325981 0.183447 -0.000111272)
(0.275554 0.145463 0.00047726)
(0.235323 0.110986 0.00121265)
(0.213676 0.072746 -0.00250639)
(0.193979 0.0544135 0.000859657)
(0.1812 0.0382253 0.00234752)
(0.171225 0.0279235 -0.00178781)
(0.162594 0.0223324 -0.00150046)
(0.155026 0.0195856 0.000847573)
(0.146655 0.019183 0.000925041)
(0.137596 0.021693 -0.000216608)
(0.127037 0.0265194 -0.000517049)
(0.116419 0.0344853 4.75717e-05)
(0.103614 0.04113 0.000163306)
(0.093011 0.0511037 -2.91446e-05)
(0.0805489 0.0568984 -1.94274e-05)
(0.0699686 0.0632679 5.97747e-05)
(0.0585753 0.0658647 2.66867e-05)
(0.0497212 0.072778 -5.31391e-05)
(0.0388265 0.0749979 -3.68828e-05)
(0.0338575 0.089304 2.42937e-05)
(0.0249832 0.0869941 4.86043e-05)
(0.0203301 0.0925129 1.59166e-05)
(0.0139542 0.093658 -8.03106e-07)
(0.0106503 0.0980869 -1.56797e-05)
(1.66293 0.00241205 -1.10882e-09)
(1.50045 0.00620981 -6.3869e-10)
(1.4609 0.00507759 2.84265e-10)
(1.45473 -0.000267569 2.44616e-09)
(1.46148 -0.00260353 2.62499e-09)
(1.47946 -0.00141321 2.20555e-09)
(1.48923 -0.00266187 2.03159e-09)
(1.4991 -0.00114772 3.68069e-09)
(1.50109 -0.000473203 4.19776e-09)
(1.50256 -0.000316389 2.70636e-09)
(1.50232 -4.19108e-05 2.33053e-09)
(1.50072 -0.000258641 2.17856e-09)
(1.50134 -0.0004404 4.27769e-09)
(1.50432 -0.000654914 3.8531e-09)
(1.50946 -0.00104634 2.60156e-09)
(1.51418 -0.000893182 2.41021e-09)
(1.51881 -0.000677242 3.20882e-09)
(1.52712 -0.000423476 3.88214e-09)
(1.53441 -0.000404877 3.4415e-09)
(1.53912 -0.000573122 3.05498e-09)
(1.53826 -0.000692437 2.48164e-09)
(1.53348 -0.000675689 2.01703e-09)
(1.53254 -0.000842678 1.77372e-09)
(1.53104 -0.000917647 8.70276e-10)
(1.5299 -0.00102114 1.35234e-09)
(1.52882 -0.00105476 5.90789e-10)
(1.52757 -0.00108625 -1.83061e-09)
(1.52621 -0.00118395 -1.50688e-09)
(1.52561 -0.00134549 -4.69874e-09)
(1.52464 -0.00136642 -2.9704e-10)
(1.52234 -0.00147215 1.48289e-09)
(1.5202 -0.00152602 1.83445e-09)
(1.51765 -0.00156421 1.807e-09)
(1.51493 -0.00166227 8.88053e-10)
(1.51211 -0.00141786 2.93671e-10)
(1.50935 -0.00152554 -1.12789e-09)
(1.50677 -0.00160728 -1.74581e-09)
(1.50455 -0.00174747 -6.98801e-10)
(1.50324 -0.00174058 -2.29666e-09)
(1.50462 -0.00186016 1.75047e-09)
(1.50577 -0.00230193 8.1504e-09)
(1.5134 -0.00107569 -1.23163e-08)
(1.51376 0.00516139 -1.05452e-07)
(1.53415 0.0692977 -1.47223e-06)
(1.47136 0.259368 -3.59389e-06)
(0.881804 0.0971505 2.06321e-06)
(0.760795 -0.0343525 -4.57627e-05)
(0.733246 -0.0974931 3.43286e-05)
(0.735831 -0.116286 2.8577e-05)
(0.74244 -0.123932 -1.51859e-05)
(0.746354 -0.124478 -2.10981e-05)
(0.750095 -0.11821 -2.70842e-05)
(0.752389 -0.105801 2.90109e-05)
(0.760282 -0.092557 3.60262e-05)
(0.765124 -0.0803934 -5.96375e-05)
(0.78015 -0.0724605 -8.72354e-05)
(0.786985 -0.0611345 1.18374e-05)
(0.803679 -0.0516666 0.000141614)
(0.810516 -0.0409557 8.15868e-05)
(0.825062 -0.0319414 -0.000143809)
(0.829293 -0.0210186 -0.000106476)
(0.843206 -0.0107694 0.000103285)
(0.847509 0.00138089 -0.000145076)
(0.861624 0.0132966 4.58218e-05)
(0.863107 0.0260825 0.000514507)
(0.874948 0.0375452 -0.000293252)
(0.87501 0.0494075 -0.000529869)
(0.881031 0.0552542 0.000231901)
(0.878033 0.0586002 0.000334386)
(0.871977 0.0580392 9.04298e-05)
(0.858048 0.0512543 -0.000267592)
(0.841715 0.0326975 0.00100966)
(0.813565 0.00707738 -0.002719)
(0.802908 -0.0173032 -0.0016023)
(0.795806 -0.0312284 0.00477117)
(0.79842 -0.0419602 0.00199885)
(0.798227 -0.0487659 -0.00175387)
(0.808588 -0.0498903 -0.00275795)
(0.817768 -0.0503301 -0.00148208)
(0.828184 -0.0499373 0.000948891)
(0.839184 -0.0456954 0.00195747)
(0.849127 -0.0374373 0.000961022)
(0.854562 -0.0204076 -0.000522132)
(0.850076 0.00873011 -0.00069286)
(0.844204 0.051542 -0.000709963)
(0.804941 0.11255 -0.00209579)
(0.785778 0.187366 0.00330521)
(0.726422 0.244302 0.0041846)
(0.710884 0.301418 -0.00803877)
(0.669769 0.322095 -0.00255296)
(0.624764 0.324791 0.00579331)
(0.577789 0.325198 0.00303789)
(0.521448 0.310602 -0.00211509)
(0.454356 0.288343 -0.00044298)
(0.389143 0.250445 -0.000463891)
(0.321217 0.199097 -0.000898337)
(0.262553 0.146631 0.00165552)
(0.227212 0.0954331 -0.00261251)
(0.200081 0.0707275 0.000165764)
(0.184474 0.0487107 0.00256547)
(0.173148 0.03573 -0.000750714)
(0.163995 0.0297626 -0.00153035)
(0.154588 0.0272805 0.000276855)
(0.14466 0.0278812 0.000806487)
(0.134124 0.0316133 -5.30693e-05)
(0.122143 0.0369465 -0.000346213)
(0.111356 0.0457701 3.57601e-05)
(0.0987525 0.05325 0.000114456)
(0.0890281 0.0639272 -4.5023e-06)
(0.0774323 0.0699015 4.30418e-05)
(0.0677374 0.0762681 7.68812e-05)
(0.056867 0.0778456 1.16712e-06)
(0.0489719 0.0849704 -3.39938e-05)
(0.0387597 0.0853161 -2.19848e-05)
(0.0336311 0.0990714 6.25292e-06)
(0.0259645 0.095185 2.99239e-05)
(0.0220465 0.100715 2.45659e-05)
(0.0160812 0.10101 2.78529e-06)
(0.0129481 0.105162 -1.39347e-05)
(1.37904 -0.0112847 2.70823e-10)
(1.49613 -0.000977072 -3.621e-09)
(1.54551 0.0018084 -5.0913e-09)
(1.56185 -0.00110623 3.95921e-09)
(1.53215 -0.00235463 2.52277e-09)
(1.5275 -0.00234531 -5.37894e-10)
(1.50788 -0.00239173 -2.85542e-09)
(1.50509 -0.00134911 9.48546e-10)
(1.50956 -0.000996894 3.85202e-10)
(1.51218 -0.000282841 -1.5e-09)
(1.51533 9.27782e-05 -4.64729e-10)
(1.51894 7.88867e-05 -5.51545e-10)
(1.52523 -4.38563e-05 2.08462e-09)
(1.52506 -3.15978e-05 1.88283e-09)
(1.52472 -0.00029308 -1.32292e-09)
(1.5238 -8.49783e-05 -3.49859e-10)
(1.52261 0.000154517 2.21976e-09)
(1.52046 0.000629831 3.18389e-09)
(1.51747 0.000729979 2.31391e-09)
(1.5168 0.00125574 -3.1302e-10)
(1.51848 0.00149505 -1.15428e-10)
(1.52021 0.00179881 -2.04787e-09)
(1.52328 0.00179979 4.51007e-09)
(1.52744 0.00193673 3.26075e-10)
(1.5294 0.00214949 4.70941e-09)
(1.52967 0.00224025 3.36172e-09)
(1.52844 0.00223453 -5.18586e-09)
(1.52624 0.00210191 -8.43822e-09)
(1.52359 0.0020184 -1.02095e-08)
(1.52095 0.00189787 -3.6542e-09)
(1.51935 0.00161238 5.9116e-09)
(1.51823 0.00134087 1.05337e-08)
(1.51762 0.00118591 5.40647e-09)