/*--------------------------------*- C++ -*----------------------------------*\
| =========                 |                                                 |
| \\      /  F ield         | OpenFOAM: The Open Source CFD Toolbox           |
|  \\    /   O peration     | Version:  2.2.x                                 |
|   \\  /    A nd           | Web:      www.OpenFOAM.org                      |
|    \\/     M anipulation  |                                                 |
\*---------------------------------------------------------------------------*/
FoamFile
{
    version     2.0;
    format      ascii;
    class       volScalarField;
    location    "0.35";
    object      T;
}
// * * * * * * * * * * * * * * * * * * * * * * * * * * * * * * * * * * * * * //

dimensions      [0 0 0 1 0 0 0];

internalField   nonuniform List<scalar> 
14161
(
1
1
1
1
1
1
1
1
1
1
1
1
1
1
1
1
1
1
1
1
1
1
1
1
1
1
1
1
1
1
1
1
1
1
1
1
1
1
1
1
1
1
1
1
1
1
1
0.999999
0.999992
0.999986
0.999983
0.999165
0.940605
4.98536
10.6222
12.2847
12.6612
12.7674
12.7873
12.7859
12.7811
12.7725
12.7661
12.7681
12.7776
12.7932
12.8126
12.8368
12.8736
12.9155
12.9508
12.981
13.0024
13.015
13.0327
13.0515
13.0618
13.0698
13.0755
13.0692
13.0723
13.0909
13.1296
13.1765
13.2109
13.2359
13.2484
13.2506
13.2545
13.266
13.2812
13.2966
13.3104
13.3257
13.3467
13.3695
13.3899
13.4041
13.4157
13.4326
13.4537
13.4711
13.4832
13.4941
13.5121
13.5352
13.5574
13.5764
13.5943
13.6174
13.6452
13.6789
13.7209
13.7662
13.82
13.8902
13.9571
14.0024
14.0263
1
1
1
1
1
1
1
1
1
1
1
1
1
1
1
1
1
1
1
1
1
1
1
1
1
1
1
1
1
1
1
1
1
1
1
1
1
1
1
1
1
1
1
1
1
1
1
0.999998
0.99999
0.999983
0.99997
0.998935
0.933798
4.93376
10.6053
12.2752
12.6552
12.7608
12.7812
12.7815
12.778
12.7691
12.7658
12.771
12.7828
12.798
12.816
12.8406
12.8793
12.922
12.9578
12.9877
13.0072
13.0196
13.0378
13.0568
13.0666
13.0727
13.075
13.065
13.0682
13.0857
13.1255
13.1726
13.2074
13.233
13.2462
13.2492
13.254
13.2659
13.2806
13.2956
13.3102
13.3252
13.3469
13.3696
13.3884
13.4011
13.4122
13.4289
13.4503
13.4684
13.4816
13.4929
13.511
13.5341
13.5563
13.5758
13.5945
13.6184
13.6462
13.6789
13.7199
13.7652
13.8199
13.8902
13.957
14.0005
14.0231
1
1
1
1
1
1
1
1
1
1
1
1
1
1
1
1
1
1
1
1
1
1
1
1
1
1
1
1
1
1
1
1
1
1
1
1
1
1
1
1
1
1
1
1
1
1
1
0.999998
0.999988
0.999979
0.999968
0.998782
0.927679
4.87773
10.5917
12.2735
12.6584
12.7632
12.7815
12.7806
12.7768
12.769
12.7658
12.7704
12.7811
12.7957
12.8127
12.8384
12.8791
12.9221
12.9581
12.9877
13.005
13.0186
13.039
13.0593
13.0691
13.0747
13.0745
13.0616
13.0653
13.0837
13.125
13.1711
13.205
13.2294
13.2413
13.2461
13.2525
13.266
13.2812
13.2969
13.31
13.3253
13.3475
13.37
13.3879
13.4
13.4102
13.4259
13.4466
13.4651
13.4793
13.4915
13.5098
13.5328
13.5552
13.5746
13.5934
13.6179
13.6458
13.6778
13.7185
13.7638
13.8186
13.8882
13.9549
13.9963
14.0165
1
1
1
1
1
1
1
1
1
1
1
1
1
1
1
1
1
1
1
1
1
1
1
1
1
1
1
1
1
1
1
1
1
1
1
1
1
1
1
1
1
1
1
1
1
1
1
0.999996
0.999983
0.99996
0.999915
0.998686
0.928052
4.84745
10.5937
12.2881
12.6758
12.777
12.7919
12.7888
12.7834
12.7723
12.767
12.7688
12.7764
12.7881
12.803
12.8315
12.8751
12.9167
12.9523
12.981
12.9961
13.0123
13.036
13.0556
13.0656
13.072
13.0688
13.0553
13.0602
13.0814
13.1251
13.1697
13.2032
13.2273
13.2374
13.244
13.2528
13.2675
13.2826
13.2975
13.3077
13.323
13.3451
13.3667
13.3839
13.3955
13.4058
13.4214
13.4417
13.4606
13.4757
13.4896
13.5089
13.5322
13.5547
13.5733
13.5919
13.6162
13.6438
13.6756
13.7165
13.7618
13.8162
13.8852
13.9516
13.9909
14.0091
1
1
1
1
1
1
1
1
1
1
1
1
1
1
1
1
1
1
1
1
1
1
1
1
1
1
1
1
1
1
1
1
1
1
1
1
1
1
1
1
1
1
1
1
1
1
1
0.999996
0.999968
0.999887
0.999997
0.99953
0.918691
4.73386
10.566
12.2928
12.6862
12.7828
12.795
12.7914
12.7849
12.7716
12.7647
12.7652
12.7721
12.7832
12.8001
12.8361
12.8819
12.9203
12.9549
12.9805
12.9942
13.0169
13.043
13.0595
13.0683
13.0722
13.0631
13.053
13.0591
13.0855
13.1325
13.1746
13.2067
13.2288
13.235
13.2422
13.2521
13.2671
13.2823
13.296
13.3048
13.3205
13.3427
13.3637
13.3804
13.3915
13.402
13.4177
13.4379
13.4565
13.4715
13.4855
13.5061
13.5297
13.5515
13.5697
13.5881
13.6121
13.6395
13.6717
13.7132
13.7588
13.8128
13.8813
13.9467
13.9846
14.0007
1
1
1
1
1
1
1
1
1
1
1
1
1
1
1
1
1
1
1
1
1
1
1
1
1
1
1
1
1
1
1
1
1
1
1
1
1
1
1
1
1
1
1
1
1
1
1
0.999995
0.999877
0.999206
1.00072
1.0055
0.912351
4.56008
10.5138
12.2848
12.6862
12.7785
12.7891
12.7865
12.7782
12.7635
12.757
12.7588
12.7667
12.7785
12.8019
12.8441
12.8874
12.924
12.9558
12.9763
12.9923
13.019
13.0471
13.0605
13.0684
13.069
13.0521
13.0466
13.0552
13.0884
13.1375
13.1766
13.2064
13.2256
13.2303
13.2376
13.2479
13.2635
13.2792
13.2932
13.3024
13.3191
13.3418
13.3627
13.3791
13.3894
13.4003
13.4167
13.4367
13.4546
13.4682
13.4818
13.5025
13.5262
13.5472
13.565
13.5836
13.6068
13.6335
13.6657
13.7077
13.7537
13.8082
13.8758
13.9405
13.9772
13.9906
1
1
1
1
1
1
1
1
1
1
1
1
1
1
1
1
1
1
1
1
1
1
1
1
1
1
1
1
1
1
1
1
1
1
1
1
1
1
1
1
1
1
1
1
1
1
1
1
0.999957
0.999734
1.00416
1.02386
0.896054
4.39132
10.4746
12.2918
12.6939
12.7778
12.7901
12.7848
12.7685
12.7551
12.7495
12.7523
12.761
12.7743
12.8084
12.8547
12.8934
12.9296
12.957
12.9731
12.9957
13.0284
13.0513
13.0613
13.0654
13.0564
13.0361
13.0333
13.0463
13.0882
13.1364
13.1718
13.1992
13.2159
13.2212
13.2295
13.2406
13.2563
13.2739
13.2899
13.301
13.32
13.3429
13.3625
13.3775
13.3869
13.3989
13.4166
13.4362
13.453
13.465
13.4788
13.499
13.522
13.5422
13.5594
13.5782
13.6012
13.6272
13.6583
13.6995
13.7461
13.8022
13.8689
13.9334
13.9685
13.979
1
1
1
1
1
1
1
1
1
1
1
1
1
1
1
1
1
1
1
1
1
1
1
1
1
1
1
1
1
1
1
1
1
1
1
1
1
1
1
1
1
1
1
1
1
1
1
1
1.00003
1.0004
1.00469
1.0278
0.861627
4.15505
10.4209
12.3025
12.7036
12.7776
12.7863
12.7727
12.7543
12.7411
12.7377
12.7433
12.7532
12.7763
12.8191
12.8616
12.8993
12.9329
12.9561
12.9735
13.0048
13.0376
13.0521
13.0596
13.0572
13.0342
13.021
13.0215
13.0458
13.0929
13.1355
13.1685
13.1941
13.2097
13.2182
13.2271
13.2386
13.253
13.2689
13.2842
13.2978
13.319
13.3422
13.3602
13.3733
13.3823
13.3953
13.4143
13.4338
13.4497
13.461
13.4755
13.4955
13.5172
13.5365
13.553
13.5726
13.596
13.6209
13.6506
13.6902
13.7369
13.7941
13.8608
13.9247
13.9583
13.9646
1
1
1
1
1
1
1
1
1
1
1
1
1
1
1
1
1
1
1
1
1
1
1
1
1
1
1
1
1
1
1
1
1
1
1
1
1
1
1
1
1
1
1
1
1
1
1
1
1.00002
1.0003
1.00398
1.0211
0.816516
3.85364
10.3494
12.3068
12.7051
12.771
12.7705
12.7521
12.7324
12.7225
12.7248
12.7338
12.7499
12.7848
12.8271
12.8647
12.9014
12.9302
12.9507
12.9784
13.0156
13.0391
13.0497
13.052
13.0385
13.0163
13.0082
13.016
13.0536
13.1002
13.1365
13.1672
13.1896
13.2021
13.2137
13.2248
13.2364
13.2484
13.2618
13.2739
13.2902
13.3141
13.3364
13.3533
13.3642
13.3732
13.3874
13.4082
13.4284
13.4447
13.4561
13.4719
13.4923
13.5127
13.5306
13.5461
13.5666
13.59
13.6137
13.6422
13.6801
13.7262
13.784
13.851
13.9138
13.9467
13.9494
1
1
1
1
1
1
1
1
1
1
1
1
1
1
1
1
1
1
1
1
1
1
1
1
1
1
1
1
1
1
1
1
1
1
1
1
1
1
1
1
1
1
1
1
1
1
1
1
1
1.00015
1.00312
1.01251
0.772308
3.48316
10.2637
12.3057
12.6972
12.7581
12.7445
12.7217
12.7061
12.7041
12.7125
12.728
12.7583
12.7958
12.8309
12.867
12.8985
12.9242
12.9527
12.9922
13.0222
13.0368
13.0425
13.0362
13.0133
13.0004
12.9987
13.0189
13.0633
13.1052
13.1388
13.1649
13.1823
13.194
13.2075
13.2218
13.2328
13.2435
13.2541
13.2631
13.283
13.3092
13.3315
13.348
13.3557
13.365
13.3802
13.402
13.4225
13.4384
13.4503
13.4673
13.4879
13.507
13.5232
13.5385
13.5595
13.5827
13.6054
13.6332
13.669
13.7145
13.7726
13.8398
13.9013
13.9329
13.9318
1
1
1
1
1
1
1
1
1
1
1
1
1
1
1
1
1
1
1
1
1
1
1
1
1
1
1
1
1
1
1
1
1
1
1
1
1
1
1
1
1
1
1
1
1
1
1
1
0.999999
1.00004
1.00172
1.00061
0.731656
3.01475
10.1524
12.2885
12.6734
12.7268
12.7127
12.6929
12.6864
12.6906
12.7044
12.7341
12.7688
12.8016
12.8357
12.8658
12.892
12.9246
12.9664
12.9993
13.0189
13.0279
13.0216
13.0027
12.987
12.9837
12.9935
13.0225
13.0645
13.1041
13.1369
13.1616
13.1741
13.1857
13.2002
13.216
13.228
13.2386
13.2466
13.2569
13.2784
13.3052
13.327
13.3425
13.3473
13.3575
13.3741
13.3961
13.4154
13.4301
13.4435
13.4618
13.482
13.5001
13.5147
13.5304
13.5518
13.5745
13.597
13.6238
13.6571
13.7011
13.7594
13.8271
13.8873
13.9169
13.9138
1
1
1
1
1
1
1
1
1
1
1
1
1
1
1
1
1
1
1
1
1
1
1
1
1
1
1
1
1
1
1
1
1
1
1
1
1
1
1
1
1
1
1
1
1
1
1
1
0.999996
0.999823
0.996389
0.965719
0.727096
2.48021
10.0119
12.2349
12.6304
12.6879
12.6818
12.6742
12.6718
12.6829
12.7123
12.7435
12.7731
12.8053
12.8348
12.8593
12.8917
12.9356
12.9718
12.9946
13.0075
13.001
12.9853
12.9668
12.9638
12.9768
12.9987
13.0243
13.0614
13.1019
13.1348
13.1594
13.1684
13.1794
13.1928
13.2074
13.2202
13.2313
13.2381
13.2513
13.2758
13.3018
13.3223
13.3343
13.3394
13.3504
13.3682
13.3892
13.4072
13.4201
13.4353
13.4551
13.4751
13.4924
13.5055
13.522
13.5434
13.5652
13.5872
13.6127
13.6437
13.6866
13.7446
13.8126
13.8711
13.9
13.8946
1
1
1
1
1
1
1
1
1
1
1
1
1
1
1
1
1
1
1
1
1
1
1
1
1
1
1
1
1
1
1
1
1
1
1
1
1
1
1
1
1
1
1
1
1
1
1
0.999997
0.999983
1.00023
0.999543
0.987081
0.775591
1.8558
9.86665
12.0994
12.574
12.6566
12.6604
12.6557
12.662
12.6871
12.7172
12.7443
12.7738
12.803
12.8291
12.8598
12.9009
12.9411
12.9674
12.9832
12.9816
12.9653
12.9477
12.9412
12.9568
12.9789
13.0014
13.0238
13.0579
13.0979
13.1299
13.154
13.1632
13.1727
13.1836
13.1963
13.2086
13.2203
13.229
13.2468
13.2738
13.2982
13.3165
13.3251
13.3319
13.3435
13.3627
13.3821
13.3977
13.4097
13.427
13.4481
13.4679
13.4837
13.4954
13.5127
13.5335
13.5539
13.5753
13.5995
13.6292
13.6712
13.7284
13.7962
13.8519
13.8813
13.8761
1
1
1
1
1
1
1
1
1
1
1
1
1
1
1
1
1
1
1
1
1
1
1
1
1
1
1
1
1
1
1
1
1
1
1
1
1
1
1
1
1
1
1
1
1
1
1
1
0.999998
0.999851
0.998435
0.992215
0.799049
1.24385
9.66785
11.9435
12.505
12.6086
12.6271
12.6401
12.6633
12.689
12.7137
12.7392
12.7671
12.7957
12.8272
12.8659
12.9069
12.9349
12.9527
12.9597
12.9463
12.932
12.917
12.9255
12.9494
12.9747
13
13.0236
13.0555
13.091
13.1217
13.1443
13.1547
13.1638
13.1735
13.1834
13.195
13.207
13.2204
13.2437
13.2712
13.294
13.3094
13.3147
13.3236
13.3379
13.357
13.3741
13.3867
13.4
13.4194
13.4413
13.4599
13.4731
13.485
13.5031
13.5229
13.5412
13.5614
13.5843
13.6128
13.6543
13.7103
13.7765
13.8295
13.8609
13.8579
1
1
1
1
1
1
1
1
1
1
1
1
1
1
1
1
1
1
1
1
1
1
1
1
1
1
1
1
1
1
1
1
1
1
1
1
1
1
1
1
1
1
1
1
1
1
1
1
1.00001
0.999887
0.998618
0.991161
0.821713
0.899492
9.43032
11.7865
12.4318
12.5654
12.6062
12.6329
12.6579
12.6816
12.7068
12.7362
12.7664
12.7991
12.8368
12.8691
12.8944
12.9137
12.9238
12.9242
12.915
12.9022
12.8983
12.9129
12.9361
12.965
12.9949
13.0237
13.0558
13.0862
13.1108
13.1292
13.1424
13.1544
13.162
13.1696
13.1793
13.1911
13.2119
13.2412
13.2667
13.2867
13.2971
13.3046
13.3154
13.3327
13.3501
13.3646
13.3749
13.3905
13.4118
13.4333
13.45
13.4607
13.4744
13.4929
13.5111
13.5277
13.5455
13.5669
13.5949
13.636
13.691
13.7534
13.8055
13.8398
13.838
1
1
1
1
1
1
1
1
1
1
1
1
1
1
1
1
1
1
1
1
1
1
1
1
1
1
1
1
1
1
1
1
1
1
1
1
1
1
1
1
1
1
1
1
1
1
1
1
0.999999
0.999974
0.99945
0.991769
0.863429
1.06676
9.09214
11.6281
12.3835
12.5403
12.5944
12.6254
12.6528
12.682
12.709
12.7363
12.7713
12.8086
12.8351
12.8546
12.8676
12.8776
12.8858
12.8906
12.8882
12.8865
12.8923
12.9054
12.9262
12.955
12.9919
13.0249
13.0532
13.0753
13.0939
13.1124
13.1299
13.1405
13.1466
13.1525
13.1594
13.1764
13.206
13.2359
13.2599
13.2751
13.2815
13.2926
13.3081
13.3259
13.3416
13.352
13.3632
13.3813
13.4036
13.4236
13.4372
13.4471
13.4634
13.4819
13.4981
13.5128
13.5288
13.5484
13.576
13.616
13.6697
13.728
13.7799
13.8175
13.818
1
1
1
1
1
1
1
1
1
1
1
1
1
1
1
1
1
1
1
1
1
1
1
1
1
1
1
1
1
1
1
1
1
1
1
1
1
1
1
1
1
1
1
1
1
1
1
1
1
1
1.00003
1.00064
1.00481
1.48257
8.41965
11.4155
12.3336
12.5227
12.5882
12.6288
12.6577
12.6815
12.7035
12.7329
12.7691
12.796
12.8151
12.8296
12.836
12.8407
12.8495
12.8601
12.8676
12.875
12.8849
12.8961
12.917
12.9515
12.9901
13.0225
13.0465
13.0588
13.0774
13.0969
13.1125
13.1214
13.1275
13.1307
13.14
13.1654
13.2
13.2283
13.2491
13.256
13.2666
13.2812
13.2999
13.3173
13.3302
13.3374
13.3518
13.3723
13.3941
13.4113
13.4217
13.4341
13.452
13.4699
13.4841
13.4965
13.5117
13.5301
13.5561
13.5944
13.6462
13.7005
13.7528
13.7942
13.7969
1
1
1
1
1
1
1
1
1
1
1
1
1
1
1
1
1
1
1
1
1
1
1
1
1
1
1
1
1
1
1
1
1
1
1
1
1
1
1
1
1
1
1
1
1
1
1
1
1
1
1.00004
1.00066
1.01408
1.4203
7.49896
11.2091
12.3043
12.5219
12.5942
12.6329
12.6553
12.6718
12.6912
12.7225
12.7522
12.7729
12.7892
12.8011
12.8046
12.8105
12.8232
12.8376
12.8503
12.8629
12.8736
12.8885
12.9145
12.9542
12.9897
13.0181
13.0339
13.0453
13.0607
13.0789
13.0905
13.0991
13.1045
13.1072
13.124
13.1575
13.1906
13.2173
13.2316
13.2383
13.2518
13.2704
13.2898
13.3056
13.3131
13.3238
13.341
13.3626
13.3826
13.396
13.4053
13.4212
13.44
13.4562
13.468
13.4798
13.4942
13.5112
13.5356
13.5725
13.6206
13.6711
13.7239
13.7692
13.7745
1
1
1
1
1
1
1
1
1
1
1
1
1
1
1
1
1
1
1
1
1
1
1
1
1
1
1
1
1
1
1
1
1
1
1
1
1
1
1
1
1
1
1
1
1
1
1
1
1
1
1.00001
1.00025
1.00315
1.17922
6.49784
10.9625
12.2589
12.5175
12.5926
12.6223
12.6381
12.6533
12.6783
12.708
12.7301
12.7494
12.7663
12.7764
12.7827
12.7927
12.8089
12.8236
12.8394
12.8539
12.8654
12.886
12.9183
12.9538
12.9835
13.0066
13.0163
13.0284
13.0423
13.0563
13.0659
13.073
13.0792
13.0876
13.1122
13.1485
13.1802
13.2025
13.2106
13.2222
13.2381
13.2577
13.2764
13.2881
13.2952
13.3103
13.3303
13.3516
13.3679
13.3773
13.3899
13.4081
13.4269
13.4405
13.4499
13.462
13.4759
13.4918
13.5149
13.5493
13.5937
13.6404
13.6932
13.7426
13.7497
1
1
1
1
1
1
1
1
1
1
1
1
1
1
1
1
1
1
1
1
1
1
1
1
1
1
1
1
1
1
1
1
1
1
1
1
1
1
1
1
1
1
1
1
1
1
1
1
1
1
1.00001
0.999989
0.99448
0.955579
5.26101
10.638
12.1955
12.506
12.5838
12.6087
12.6253
12.6439
12.6675
12.6894
12.7081
12.7246
12.741
12.7565
12.7712
12.7848
12.7983
12.8136
12.8298
12.8449
12.8607
12.883
12.9131
12.9396
12.9618
12.9817
12.9944
13.0069
13.0205
13.0302
13.0374
13.0452
13.0559
13.0729
13.105
13.1389
13.1659
13.1821
13.193
13.2059
13.2232
13.2422
13.2571
13.2649
13.279
13.2976
13.319
13.3377
13.3488
13.3584
13.375
13.3946
13.4107
13.4214
13.4312
13.4433
13.4563
13.4717
13.494
13.5246
13.5655
13.6082
13.6613
13.7142
13.7222
1
1
1
1
1
1
1
1
1
1
1
1
1
1
1
1
1
1
1
1
1
1
1
1
1
1
1
1
1
1
1
1
1
1
1
1
1
1
1
1
1
1
1
1
1
1
1
1
1
1.00001
1.00015
1.00275
1.00432
0.777703
3.57797
10.1861
12.1186
12.5002
12.5875
12.613
12.6288
12.6436
12.6602
12.6778
12.695
12.7127
12.7279
12.7445
12.7582
12.7689
12.7794
12.792
12.8098
12.8298
12.8485
12.8695
12.8911
12.9122
12.9331
12.9524
12.9698
12.9851
12.9961
13.0015
13.0065
13.0173
13.0365
13.0657
13.0975
13.1262
13.1469
13.1613
13.1752
13.1903
13.2064
13.2206
13.2309
13.2446
13.2634
13.285
13.3057
13.3184
13.326
13.3409
13.3602
13.3796
13.3919
13.4
13.4109
13.424
13.4355
13.45
13.4718
13.4986
13.5351
13.5748
13.6292
13.6837
13.6915
1
1
1
1
1
1
1
1
1
1
1
1
1
1
1
1
1
1
1
1
1
1
1
1
1
1
1
1
1
1
1
1
1
1
1
1
1
1
1
1
1
1
1
1
1
1
1
1
1
1.00004
1.0006
1.0029
0.990509
0.779185
1.52367
9.63673
11.9932
12.4555
12.5492
12.5833
12.6067
12.6246
12.6401
12.6535
12.6654
12.6816
12.7014
12.7177
12.7306
12.7401
12.7488
12.7613
12.782
12.8062
12.8273
12.8466
12.8641
12.882
12.9026
12.9243
12.944
12.9582
12.9672
12.9722
12.9779
12.9945
13.0243
13.055
13.0851
13.1078
13.1261
13.143
13.1586
13.172
13.1837
13.1926
13.2052
13.2254
13.2488
13.2706
13.2856
13.2929
13.3055
13.3245
13.3449
13.3604
13.3694
13.3789
13.3899
13.4016
13.4134
13.4271
13.4485
13.4708
13.5031
13.5409
13.5959
13.6512
13.6574
1
1
1
1
1
1
1
1
1
1
1
1
1
1
1
1
1
1
1
1
1
1
1
1
1
1
1
1
1
1
1
1
1
1
1
1
1
1
1
1
1
1
1
1
1
1
1
1
1
1.00002
1.00032
1.00156
0.992744
0.863982
1.0702
9.09243
11.6627
12.3529
12.5096
12.5591
12.5834
12.5948
12.6021
12.61
12.6227
12.6397
12.6559
12.6713
12.6869
12.7015
12.7125
12.7274
12.7506
12.7766
12.7991
12.8199
12.836
12.8532
12.8728
12.895
12.914
12.9293
12.9405
12.9447
12.9562
12.9815
13.0134
13.0435
13.0682
13.0881
13.1077
13.1257
13.1383
13.1481
13.1545
13.1638
13.1835
13.2088
13.2326
13.2501
13.2584
13.2693
13.2871
13.3085
13.3269
13.3369
13.3446
13.3564
13.3691
13.3775
13.3885
13.4022
13.4238
13.4417
13.4702
13.5059
13.5613
13.6165
13.6196
1
1
1
1
1
1
1
1
1
1
1
1
1
1
1
1
1
1
1
1
1
1
1
1
1
1
1
1
1
1
1
1
1
1
1
1
1
1
1
1
1
1
1
1
1
1
1
1
1
1
1
1.00003
1.00017
1.00509
1.28128
7.89195
11.3024
12.2508
12.4468
12.4996
12.5227
12.5338
12.5423
12.5523
12.5702
12.5916
12.6099
12.6272
12.6455
12.6647
12.6798
12.6991
12.7226
12.7461
12.7684
12.7892
12.8047
12.8243
12.8481
12.8724
12.8926
12.9085
12.9166
12.9268
12.9448
12.9736
13.0014
13.0264
13.0465
13.0679
13.0885
13.1026
13.1128
13.1187
13.1233
13.1401
13.1661
13.1919
13.2124
13.2228
13.2319
13.2487
13.2701
13.2912
13.3031
13.3092
13.3212
13.3344
13.345
13.3521
13.363
13.3751
13.3961
13.4109
13.4363
13.4699
13.5256
13.5792
13.5776
1
1
1
1
1
1
1
1
1
1
1
1
1
1
1
1
1
1
1
1
1
1
1
1
1
1
1
1
1
1
1
1
1
1
1
1
1
1
1
1
1
1
1
1
1
1
1
1
1
1
0.999999
0.999997
0.999892
0.993481
1.00676
6.01831
10.7986
12.1522
12.4043
12.4577
12.4705
12.4795
12.4902
12.5053
12.5251
12.5474
12.5699
12.5915
12.6142
12.6376
12.6608
12.6841
12.7081
12.7318
12.7519
12.7686
12.7875
12.8075
12.8316
12.8544
12.8734
12.8872
12.8983
12.9132
12.9362
12.9599
12.982
13.001
13.0229
13.0471
13.0651
13.0759
13.0827
13.0861
13.0976
13.1209
13.1486
13.172
13.1856
13.193
13.2087
13.2297
13.2522
13.2674
13.2741
13.2837
13.2977
13.3117
13.3186
13.3245
13.3362
13.3462
13.3646
13.3784
13.4016
13.4333
13.4886
13.5393
13.5321
1
1
1
1
1
1
1
1
1
1
1
1
1
1
1
1
1
1
1
1
1
1
1
1
1
1
1
1
1
1
1
1
1
1
1
1
1
1
1
1
1
1
1
1
1
1
1
1
1
1
1
1.00009
1.00232
0.99853
0.764448
3.4379
10.1099
12.034
12.3888
12.4484
12.4507
12.4558
12.4672
12.4828
12.5019
12.5236
12.5482
12.5703
12.5937
12.6178
12.6447
12.6708
12.6958
12.7184
12.7346
12.7515
12.7704
12.7917
12.8118
12.8299
12.8457
12.8604
12.8763
12.8961
12.9173
12.938
12.9572
12.9765
12.9982
13.0209
13.0346
13.0428
13.0485
13.055
13.0745
13.1021
13.1281
13.1454
13.1539
13.1674
13.1873
13.2099
13.2288
13.2375
13.2447
13.2601
13.2766
13.2851
13.29
13.2948
13.308
13.3146
13.3298
13.345
13.3662
13.3965
13.4497
13.4966
13.4845
1
1
1
1
1
1
1
1
1
1
1
1
1
1
1
1
1
1
1
1
1
1
1
1
1
1
1
1
1
1
1
1
1
1
1
1
1
1
1
1
1
1
1
1
1
1
1
1
1
1.00001
1.00006
0.99986
0.998926
0.993125
0.832325
0.790995
9.25315
11.7624
12.2671
12.3671
12.398
12.4189
12.4413
12.4653
12.491
12.5179
12.5433
12.5672
12.5911
12.6166
12.6408
12.6615
12.6791
12.6921
12.7033
12.7158
12.734
12.7537
12.7716
12.7869
12.8016
12.8193
12.8409
12.8633
12.8863
12.9087
12.9269
12.9477
12.9694
12.9889
12.9994
13.0055
13.0128
13.0276
13.0535
13.0816
13.1027
13.114
13.1258
13.1442
13.1662
13.1872
13.1986
13.2053
13.2188
13.2378
13.2522
13.2557
13.2603
13.2638
13.2774
13.2802
13.2932
13.3091
13.33
13.3592
13.4079
13.4512
13.4366
1
1
1
1
1
1
1
1
1
1
1
1
1
1
1
1
1
1
1
1
1
1
1
1
1
1
1
1
1
1
1
1
1
1
1
1
1
1
1
1
1
1
1
1
1
1
1
1
1
1
1
1
0.999994
1.00007
0.999993
1.17291
7.92084
11.2569
12.1198
12.3065
12.3662
12.3979
12.424
12.4465
12.4678
12.489
12.5094
12.5291
12.551
12.5738
12.5938
12.6118
12.6267
12.6362
12.6464
12.6599
12.6788
12.6972
12.7151
12.7303
12.7464
12.7676
12.7932
12.8185
12.8442
12.868
12.8903
12.9148
12.939
12.9577
12.9658
12.9706
12.9818
13.005
13.0344
13.0589
13.0731
13.0839
13.1006
13.1213
13.143
13.1572
13.1645
13.1759
13.1948
13.2144
13.2223
13.224
13.2304
13.2314
13.2422
13.2434
13.2568
13.2717
13.2923
13.3198
13.3626
13.4043
13.3896
1
1
1
1
1
1
1
1
1
1
1
1
1
1
1
1
1
1
1
1
1
1
1
1
1
1
1
1
1
1
1
1
1
1
1
1
1
1
1
1
1
1
1
1
1
1
1
1
1
1
1
1
0.999978
0.999682
0.990426
0.950052
5.59752
10.6369
12.007
12.2651
12.3216
12.3485
12.3736
12.3946
12.413
12.4315
12.4491
12.4683
12.4926
12.5166
12.5368
12.5551
12.5703
12.5802
12.5919
12.6076
12.6264
12.645
12.6642
12.6804
12.6989
12.7194
12.7443
12.7717
12.8005
12.8272
12.8542
12.8831
12.9095
12.9274
12.9349
12.9417
12.96
12.9872
13.0137
13.0314
13.0417
13.0565
13.0749
13.0959
13.1126
13.1222
13.132
13.1499
13.1703
13.1845
13.1896
13.1913
13.1992
13.1975
13.2038
13.207
13.2199
13.2327
13.2516
13.2765
13.3137
13.3569
13.3419
1
1
1
1
1
1
1
1
1
1
1
1
1
1
1
1
1
1
1
1
1
1
1
1
1
1
1
1
1
1
1
1
1
1
1
1
1
1
1
1
1
1
1
1
1
1
1
1
1
1
1
0.999994
0.999788
0.995781
0.961256
0.723005
2.3476
9.70311
11.8476
12.2222
12.2848
12.3031
12.3243
12.3451
12.364
12.3829
12.4037
12.4244
12.4464
12.4682
12.488
12.5059
12.5196
12.5315
12.5447
12.563
12.5826
12.6025
12.6232
12.6423
12.6631
12.6854
12.7109
12.7387
12.7677
12.796
12.8259
12.8556
12.881
12.8977
12.9055
12.9176
12.9393
12.9649
12.9866
12.9992
13.0122
13.0268
13.0464
13.0649
13.0778
13.0874
13.1022
13.1236
13.1424
13.151
13.1556
13.1573
13.1652
13.1605
13.1641
13.171
13.1818
13.1927
13.2077
13.2296
13.263
13.3086
13.293
1
1
1
1
1
1
1
1
1
1
1
1
1
1
1
1
1
1
1
1
1
1
1
1
1
1
1
1
1
1
1
1
1
1
1
1
1
1
1
1
1
1
1
1
1
1
1
1
1
1
1
1
0.999995
0.999958
0.999833
0.985534
1.0473
8.41725
11.3114
12.0357
12.1941
12.2468
12.2785
12.3041
12.3269
12.349
12.3724
12.3967
12.4209
12.4421
12.4613
12.4779
12.4908
12.5037
12.5182
12.5377
12.5576
12.5781
12.5994
12.6198
12.6413
12.6642
12.6897
12.7169
12.7443
12.771
12.7983
12.825
12.8476
12.8634
12.8754
12.8908
12.912
12.9354
12.9537
12.9669
12.9789
12.9946
13.0147
13.0313
13.0416
13.0545
13.073
13.0947
13.1087
13.1158
13.1215
13.1219
13.1255
13.1204
13.1242
13.1349
13.1431
13.1518
13.1605
13.1805
13.2131
13.2596
13.2411
1
1
1
1
1
1
1
1
1
1
1
1
1
1
1
1
1
1
1
1
1
1
1
1
1
1
1
1
1
1
1
1
1
1
1
1
1
1
1
1
1
1
1
1
1
1
1
1
1
1
1
1
1
0.999996
0.999907
0.994144
0.982365
6.02064
10.675
11.8778
12.1411
12.2119
12.2391
12.2612
12.2836
12.3058
12.329
12.3522
12.3742
12.3948
12.4141
12.4293
12.4427
12.456
12.4712
12.4913
12.5124
12.5349
12.5589
12.5826
12.6065
12.6305
12.6553
12.6808
12.7059
12.7308
12.7563
12.7805
12.8011
12.8176
12.8351
12.8554
12.8792
12.9026
12.9189
12.931
12.9416
12.959
12.9791
12.9942
13.0056
13.023
13.0426
13.062
13.0736
13.0799
13.0865
13.0829
13.0813
13.0807
13.0854
13.0971
13.1024
13.1076
13.1113
13.1314
13.1631
13.2088
13.1859
1
1
1
1
1
1
1
1
1
1
1
1
1
1
1
1
1
1
1
1
1
1
1
1
1
1
1
1
1
1
1
1
1
1
1
1
1
1
1
1
1
1
1
1
1
1
1
1
1
1
1
1
0.999997
1.00002
1.00141
0.992413
0.765869
2.49927
9.63829
11.7055
12.09
12.1707
12.1886
12.2047
12.2267
12.2489
12.2718
12.2948
12.3169
12.3388
12.3593
12.3745
12.3903
12.4051
12.4221
12.4423
12.4644
12.4887
12.514
12.5397
12.5655
12.5907
12.615
12.639
12.6621
12.6858
12.7108
12.7328
12.752
12.7716
12.7928
12.8166
12.8429
12.8656
12.8829
12.8938
12.9055
12.9234
12.9423
12.9552
12.9712
12.9917
13.0104
13.0266
13.038
13.0429
13.047
13.0394
13.0366
13.041
13.047
13.0582
13.0592
13.0595
13.0619
13.0816
13.1119
13.1558
13.1281
1
1
1
1
1
1
1
1
1
1
1
1
1
1
1
1
1
1
1
1
1
1
1
1
1
1
1
1
1
1
1
1
1
1
1
1
1
1
1
1
1
1
1
1
1
1
1
1
1
1
1
1
1
1.00002
0.999983
0.999369
0.98477
0.93696
7.9209
11.1262
11.9076
12.0815
12.1268
12.146
12.1682
12.1901
12.2131
12.2372
12.2612
12.2851
12.3086
12.3281
12.3457
12.3624
12.3817
12.4029
12.426
12.4503
12.4753
12.5009
12.5267
12.5515
12.5754
12.5977
12.6189
12.6411
12.6644
12.6848
12.7039
12.7247
12.7482
12.7759
12.8052
12.829
12.8467
12.8576
12.871
12.889
12.9042
12.9198
12.9386
12.9599
12.9761
12.9906
13.0002
13.0026
13.0016
12.9957
12.9944
13.002
13.0092
13.017
13.0131
13.0097
13.0117
13.0303
13.0597
13.1009
13.0687
1
1
1
1
1
1
1
1
1
1
1
1
1
1
1
1
1
1
1
1
1
1
1
1
1
1
1
1
1
1
1
1
1
1
1
1
1
1
1
1
1
1
1
1
1
1
1
1
1
1
1
1
1
1.00001
0.999986
0.999802
0.99101
0.897592
5.10805
10.3619
11.7125
11.9985
12.0691
12.0919
12.1135
12.1321
12.1547
12.1785
12.2036
12.2283
12.2511
12.2707
12.2899
12.3105
12.3317
12.3549
12.3794
12.4044
12.4298
12.4547
12.479
12.503
12.5259
12.5472
12.5677
12.5892
12.6116
12.6333
12.6527
12.6754
12.7023
12.7344
12.7674
12.7947
12.8118
12.8235
12.838
12.853
12.8674
12.8862
12.906
12.9252
12.9394
12.951
12.9579
12.9571
12.9546
12.954
12.9543
12.962
12.9698
12.9705
12.9646
12.9582
12.9608
12.9775
13.006
13.0443
13.008
1
1
1
1
1
1
1
1
1
1
1
1
1
1
1
1
1
1
1
1
1
1
1
1
1
1
1
1
1
1
1
1
1
1
1
1
1
1
1
1
1
1
1
1
1
1
1
1
1
1
1
1
1
0.999998
0.999983
0.999457
0.987595
0.820432
1.23009
8.90302
11.439
11.9096
12.0077
12.0333
12.056
12.0705
12.0918
12.1146
12.1397
12.164
12.1864
12.2084
12.2312
12.2543
12.2784
12.303
12.3295
12.3567
12.383
12.4082
12.4322
12.4546
12.4759
12.4965
12.5168
12.5382
12.5605
12.5813
12.6013
12.6266
12.6572
12.693
12.7289
12.7588
12.7762
12.7898
12.8034
12.8139
12.8312
12.8513
12.8698
12.8865
12.8988
12.9068
12.9109
12.9091
12.9083
12.912
12.9149
12.9203
12.9274
12.9195
12.914
12.9056
12.909
12.9233
12.9504
12.9855
12.9443
1
1
1
1
1
1
1
1
1
1
1
1
1
1
1
1
1
1
1
1
1
1
1
1
1
1
1
1
1
1
1
1
1
1
1
1
1
1
1
1
1
1
1
1
1
1
1
1
1
1
1
1
1
1
1
0.999984
0.999281
0.984397
0.84089
6.55117
10.755
11.7365
11.9283
11.9712
12.0004
12.0267
12.0457
12.0671
12.091
12.114
12.1344
12.1559
12.1792
12.2025
12.2281
12.2553
12.2838
12.3122
12.3393
12.365
12.3894
12.4113
12.4319
12.4513
12.4704
12.491
12.5121
12.5323
12.5538
12.5816
12.6144
12.6523
12.6902
12.7204
12.7392
12.7532
12.7647
12.7756
12.793
12.8126
12.8295
12.8441
12.8542
12.8594
12.8624
12.8622
12.863
12.8696
12.8765
12.875
12.8782
12.8681
12.8631
12.8523
12.8553
12.8674
12.8935
12.9263
12.8816
1
1
1
1
1
1
1
1
1
1
1
1
1
1
1
1
1
1
1
1
1
1
1
1
1
1
1
1
1
1
1
1
1
1
1
1
1
1
1
1
1
1
1
1
1
1
1
1
1
1
1
1
1
1
1.00001
1.00007
0.999865
0.990133
0.85272
2.95977
9.5894
11.4895
11.8386
11.9184
11.9484
11.9707
11.9907
12.0112
12.0338
12.0575
12.0776
12.0989
12.1222
12.1464
12.1732
12.2011
12.2303
12.2595
12.2871
12.3141
12.3404
12.3639
12.3856
12.4052
12.4241
12.4446
12.4663
12.4892
12.5131
12.5421
12.5749
12.612
12.6494
12.6772
12.6959
12.7113
12.7245
12.737
12.7515
12.7696
12.7853
12.7985
12.8073
12.8107
12.8128
12.8166
12.821
12.8273
12.8362
12.8248
12.8233
12.8163
12.8112
12.7976
12.7991
12.8096
12.8349
12.865
12.8148
1
1
1
1
1
1
1
1
1
1
1
1
1
1
1
1
1
1
1
1
1
1
1
1
1
1
1
1
1
1
1
1
1
1
1
1
1
1
1
1
1
1
1
1
1
1
1
1
1
1
1
1
1
1
1
1.00001
1
0.999367
0.979543
0.84507
7.32475
10.8533
11.6598
11.8415
11.8858
11.9035
11.9241
11.9476
11.9718
11.996
12.0168
12.0391
12.0644
12.0913
12.1177
12.1453
12.1747
12.2049
12.2341
12.2626
12.2903
12.3158
12.3391
12.3599
12.3792
12.3996
12.4229
12.4469
12.4737
12.504
12.5361
12.5701
12.6027
12.6277
12.646
12.6655
12.6835
12.6963
12.7069
12.7226
12.7379
12.7512
12.7595
12.7615
12.7637
12.7723
12.7809
12.7851
12.7898
12.7696
12.7681
12.7633
12.7574
12.7414
12.7412
12.7507
12.7752
12.803
12.7482
1
1
1
1
1
1
1
1
1
1
1
1
1
1
1
1
1
1
1
1
1
1
1
1
1
1
1
1
1
1
1
1
1
1
1
1
1
1
1
1
1
1
1
1
1
1
1
1
1
1
1
1
1
1
1
1.00002
1.00004
0.999877
0.99414
0.862647
4.18326
9.94283
11.4422
11.7462
11.8235
11.8481
11.8668
11.8907
11.9147
11.9388
11.9608
11.9842
12.0092
12.0354
12.0618
12.0884
12.1169
12.1466
12.1767
12.2062
12.2348
12.2624
12.2883
12.3113
12.3325
12.3562
12.3808
12.4064
12.435
12.4651
12.4934
12.5231
12.5506
12.5727
12.5926
12.6178
12.6402
12.6532
12.6619
12.676
12.6908
12.7039
12.7109
12.7128
12.7188
12.7279
12.7399
12.739
12.7352
12.7146
12.7152
12.708
12.7008
12.6837
12.6822
12.6905
12.7132
12.7387
12.6785
1
1
1
1
1
1
1
1
1
1
1
1
1
1
1
1
1
1
1
1
1
1
1
1
1
1
1
1
1
1
1
1
1
1
1
1
1
1
1
1
1
1
1
1
1
1
1
1
1
1
1
1
1
1
1
1.00001
1.00002
1.00001
0.999422
0.9807
0.902325
7.91861
10.8714
11.5615
11.7298
11.7791
11.8047
11.8307
11.8543
11.8769
11.9001
11.9251
11.9508
11.9767
12.0019
12.0262
12.0538
12.0839
12.1161
12.1483
12.1787
12.2077
12.2352
12.2595
12.2844
12.312
12.3384
12.365
12.3937
12.4218
12.4457
12.4727
12.4993
12.5187
12.5412
12.5708
12.5955
12.6091
12.6171
12.6296
12.6435
12.6562
12.6617
12.6671
12.6765
12.6842
12.6946
12.6858
12.6777
12.6611
12.6623
12.6501
12.6412
12.6237
12.6215
12.6282
12.6488
12.6742
12.6108
1
1
1
1
1
1
1
1
1
1
1
1
1
1
1
1
1
1
1
1
1
1
1
1
1
1
1
1
1
1
1
1
1
1
1
1
1
1
1
1
1
1
1
1
1
1
1
1
1
1
1
1
1
1
1
1
1.00001
1
0.999774
0.991928
0.883667
5.01151
10.1275
11.374
11.6286
11.7023
11.7372
11.7643
11.792
11.8169
11.8419
11.8687
11.8953
11.9202
11.9435
11.9678
11.996
12.0263
12.0584
12.091
12.1234
12.1541
12.1808
12.2061
12.235
12.2655
12.2934
12.3207
12.3489
12.375
12.3974
12.4235
12.4486
12.4667
12.4912
12.5227
12.5483
12.5627
12.5708
12.5829
12.5958
12.6077
12.615
12.6229
12.6335
12.6383
12.6434
12.6301
12.6227
12.6058
12.6068
12.592
12.5806
12.562
12.5594
12.5641
12.5826
12.6084
12.5397
1
1
1
1
1
1
1
1
1
1
1
1
1
1
1
1
1
1
1
1
1
1
1
1
1
1
1
1
1
1
1
1
1
1
1
1
1
1
1
1
1
1
1
1
1
1
1
1
1
1
1
1
1
1
1
1
1
0.999997
0.99985
0.997351
0.922481
1.18546
8.2619
10.9262
11.4794
11.6202
11.6665
11.6956
11.7236
11.7514
11.7796
11.8091
11.8366
11.8607
11.8832
11.9097
11.94
11.9707
12.0029
12.0356
12.068
12.0977
12.1227
12.1507
12.1818
12.2143
12.2444
12.2733
12.301
12.3257
12.3479
12.3741
12.3982
12.4163
12.4426
12.4747
12.5005
12.5141
12.5243
12.5362
12.5463
12.5587
12.5699
12.5797
12.5894
12.5876
12.5874
12.5761
12.5679
12.5472
12.5478
12.5337
12.5185
12.4979
12.4953
12.4989
12.5155
12.5413
12.4689
1
1
1
1
1
1
1
1
1
1
1
1
1
1
1
1
1
1
1
1
1
1
1
1
1
1
1
1
1
1
1
1
1
1
1
1
1
1
1
1
1
1
1
1
1
1
1
1
1
1
1
1
1
1
1
1
1
1
0.999972
0.999537
0.985614
0.792294
5.51865
10.2175
11.3153
11.5263
11.5893
11.6285
11.6591
11.6899
11.7196
11.7482
11.7751
11.8001
11.8263
11.8554
11.8853
11.9151
11.9468
11.9793
12.0111
12.0396
12.0652
12.0954
12.1277
12.161
12.1925
12.2229
12.2503
12.2737
12.2969
12.3239
12.3475
12.3662
12.393
12.4255
12.452
12.465
12.4783
12.4875
12.4942
12.51
12.5257
12.536
12.5426
12.5327
12.5307
12.5205
12.5124
12.4872
12.4855
12.4728
12.4553
12.4328
12.4298
12.4326
12.4473
12.4716
12.394
1
1
1
1
1
1
1
1
1
1
1
1
1
1
1
1
1
1
1
1
1
1
1
1
1
1
1
1
1
1
1
1
1
1
1
1
1
1
1
1
1
1
1
1
1
1
1
1
1
1
1
1
1
1
1
1
1
1.00001
1.00002
0.999793
0.99785
0.896554
1.7307
8.54272
10.9222
11.3923
11.5122
11.5643
11.6005
11.6318
11.6597
11.6856
11.71
11.7345
11.7624
11.7943
11.8266
11.8578
11.8891
11.9204
11.9519
11.9808
12.0089
12.0406
12.0729
12.1063
12.1388
12.1704
12.198
12.2213
12.2468
12.2743
12.2972
12.3167
12.3429
12.3749
12.4011
12.4163
12.4316
12.437
12.4431
12.4605
12.4801
12.4899
12.4916
12.4761
12.4748
12.4638
12.455
12.4263
12.4217
12.4087
12.3901
12.3671
12.3629
12.365
12.3782
12.4009
12.3186
1
1
1
1
1
1
1
1
1
1
1
1
1
1
1
1
1
1
1
1
1
1
1
1
1
1
1
1
1
1
1
1
1
1
1
1
1
1
1
1
1
1
1
1
1
1
1
1
1
1
1
1
1
1
1
1
1
1
1.00001
0.999949
0.999315
0.980359
0.738573
5.81459
10.2202
11.231
11.4319
11.4873
11.5298
11.569
11.5962