/*--------------------------------*- C++ -*----------------------------------*\
| =========                 |                                                 |
| \\      /  F ield         | OpenFOAM: The Open Source CFD Toolbox           |
|  \\    /   O peration     | Version:  2.2.x                                 |
|   \\  /    A nd           | Web:      www.OpenFOAM.org                      |
|    \\/     M anipulation  |                                                 |
\*---------------------------------------------------------------------------*/
FoamFile
{
    version     2.0;
    format      ascii;
    class       surfaceScalarField;
    location    "2.15";
    object      phi;
}
// * * * * * * * * * * * * * * * * * * * * * * * * * * * * * * * * * * * * * //

dimensions      [1 0 -1 0 0 0 0];

internalField   nonuniform List<scalar> 
28084
(
0.000746225
0.000742995
0.000740222
0.00073789
0.000735977
0.000734458
0.000733314
0.000732521
0.000732056
0.000731877
0.000731963
0.000732312
0.000732858
0.000733582
0.000734502
0.000735563
0.000736637
0.000737875
0.000739246
0.000740653
0.000741983
0.000743118
0.000744495
0.000745896
0.000747295
0.000748641
0.000749786
0.00075054
0.000751428
0.000752299
0.000753075
0.000753837
0.000754463
0.000754804
0.00075501
0.000755056
0.000754952
0.000754641
0.000753917
0.000752973
0.000752334
0.000752027
0.000752115
0.00075088
0.000747046
0.000746399
0.000735123
0.000737202
0.000752465
0.000774826
0.00080445
0.000835871
0.000868384
0.000900093
0.000930769
0.000959564
0.000987118
0.00101257
0.00103603
0.00105825
0.00107822
0.00109684
0.00111437
0.00113079
0.00114588
0.00115933
0.00117132
0.00118169
0.0011907
0.00119859
0.00120527
0.00121056
0.00121482
0.00121848
0.00122149
0.00122403
0.00122613
0.00122761
0.00122793
0.00122708
0.00122539
0.00122258
0.00121843
0.00121349
0.00120841
0.00120301
0.00119758
0.00119162
0.00118598
0.00118077
0.00117555
0.00116996
0.0011633
0.00115743
0.0011519
0.00114712
0.00114345
0.00114101
0.00113972
0.00113977
0.00114208
0.00114646
0.00115247
0.00116047
0.00116772
0.00117825
0.0011871
0.00118317
0.00114954
0.00105751
0.000929882
0.000795495
0.000672491
0.000562179
0.000452784
0.00034903
0.000239831
0.000138471
3.71255e-06
3.23155e-06
0.000749741
2.77431e-06
0.000748791
2.33389e-06
0.000748269
1.915e-06
0.00074816
1.51836e-06
0.000748445
1.14438e-06
0.000749098
7.96479e-07
0.000750103
4.7377e-07
0.000751433
1.72458e-07
0.000753066
-9.02482e-08
0.000754953
-3.29112e-07
0.000757083
-5.57367e-07
0.000759439
-7.47185e-07
0.000761959
-8.78776e-07
0.000764623
-1.03373e-06
0.000767452
-1.15915e-06
0.000770363
-1.25956e-06
0.000773259
-1.28338e-06
0.000776267
-1.31547e-06
0.000779368
-1.35279e-06
0.000782442
-1.3856e-06
0.000785383
-1.36821e-06
0.000788094
-1.3122e-06
0.000790995
-1.24338e-06
0.000793863
-1.18077e-06
0.000796673
-1.12886e-06
0.000799351
-1.08157e-06
0.000801769
-9.82653e-07
0.000803758
-8.61074e-07
0.000805833
-7.41742e-07
0.00080782
-6.25659e-07
0.000809654
-4.93168e-07
0.00081141
-3.54297e-07
0.000812975
-2.23778e-07
0.000814233
-8.59405e-08
0.000815252
8.33537e-08
0.000816059
1.9751e-07
0.000816736
3.41053e-07
0.000817062
4.7085e-07
0.000816945
6.48841e-07
0.000816556
8.38589e-07
0.000816458
9.01604e-07
0.000816797
1.2786e-06
0.000817132
3.71729e-06
0.000815996
-1.26396e-06
0.000810901
1.08564e-05
0.000802012
-2.14595e-06
0.000787956
-1.50603e-05
0.000790451
-2.20802e-05
0.000808874
-2.95335e-05
0.000834647
-3.10418e-05
0.000866718
-3.19398e-05
0.000899099
-3.11029e-05
0.000931832
-3.00642e-05
0.000963166
-2.86866e-05
0.000993012
-2.70581e-05
0.00102063
-2.54559e-05
0.00104736
-2.38187e-05
0.00107184
-2.21156e-05
0.00109404
-2.00118e-05
0.00111539
-1.87694e-05
0.00113531
-1.73192e-05
0.00115391
-1.57711e-05
0.00117156
-1.42825e-05
0.00118811
-1.28229e-05
0.00120329
-1.16116e-05
0.00121676
-1.05044e-05
0.00122855
-9.52005e-06
0.00123854
-8.52591e-06
0.00124709
-7.34089e-06
0.0012545
-6.0926e-06
0.00126075
-4.71017e-06
0.00126593
-3.69447e-06
0.00127015
-2.98224e-06
0.00127362
-2.26769e-06
0.00127654
-1.59159e-06
0.00127831
-1.11829e-06
0.00127928
-7.44245e-08
0.00127981
8.59741e-07
0.00127907
1.48586e-06
0.00127694
2.29701e-06
0.00127441
3.45937e-06
0.00127037
4.12597e-06
0.00126496
4.27984e-06
0.00125892
4.88524e-06
0.00125301
5.33388e-06
0.00124673
5.9817e-06
0.00124018
6.23481e-06
0.0012332
5.85279e-06
0.0012265
5.81244e-06
0.00122062
6.18561e-06
0.00121444
6.20775e-06
0.00120779
5.38154e-06
0.00119988
4.97951e-06
0.0011931
4.11787e-06
0.00118663
3.26093e-06
0.00118109
2.41988e-06
0.0011765
1.35898e-06
0.00117293
-1.57504e-07
0.0011705
-1.7702e-06
0.00116966
-3.87698e-06
0.00117127
-5.08554e-06
0.00117413
-7.62534e-06
0.00117762
-7.59514e-06
0.00118386
-1.07842e-05
0.00118952
-9.35262e-06
0.00119372
4.40341e-06
0.00119213
3.41446e-05
0.00115865
9.36008e-05
0.00107661
0.000128845
0.000945536
0.000135217
0.000804828
0.000123401
0.000686332
0.000110594
0.000579733
0.000109646
0.000484423
0.000104002
0.000390326
0.000109389
0.00030142
0.000101463
0.000207168
0.000138529
0.000110907
5.11222e-06
4.18401e-06
0.000754437
3.2977e-06
0.000755736
2.44438e-06
0.000757436
1.63195e-06
0.000759523
8.63616e-07
0.000761979
1.4041e-07
0.00076478
-5.30296e-07
0.000767909
-1.14885e-06
0.000771337
-1.72379e-06
0.000775043
-2.22256e-06
0.000778974
-2.66616e-06
0.000783123
-3.08961e-06
0.000787465
-3.43161e-06
0.000791939
-3.66613e-06
0.000796523
-3.91866e-06
0.000801226
-4.13653e-06
0.000805974
-4.28667e-06
0.000810683
-4.28936e-06
0.000815444
-4.30173e-06
0.000820238
-4.32863e-06
0.000824946
-4.34433e-06
0.000829491
-4.25785e-06
0.000833797
-4.08284e-06
0.000838203
-3.88344e-06
0.000842512
-3.70116e-06
0.000846696
-3.55203e-06
0.000850678
-3.40009e-06
0.000854353
-3.14709e-06
0.000857613
-2.84274e-06
0.00086087
-2.54232e-06
0.00086396
-2.24352e-06
0.000866837
-1.91985e-06
0.000869565
-1.61204e-06
0.00087203
-1.28171e-06
0.000874132
-9.34507e-07
0.000875936
-6.06716e-07
0.000877569
-2.45618e-07
0.000878987
7.71628e-08
0.000880044
3.85966e-07
0.000880645
7.45555e-07
0.00088087
1.12463e-06
0.000881326
1.43647e-06
0.000882158
2.37336e-06
0.000882709
8.68633e-06
0.000881869
5.81105e-06
0.0008762
2.45071e-05
0.000860294
-4.70072e-06
0.000845075
-3.33374e-05
0.000845005
-4.76172e-05
0.000864452
-6.16391e-05
0.000893439
-6.30285e-05
0.00092773
-6.40026e-05
0.000962859
-6.18747e-05
0.000997635
-5.94124e-05
0.00103113
-5.63948e-05
0.0010622
-5.32767e-05
0.0010902
-4.98446e-05
0.00111668
-4.64255e-05
0.00114105
-4.36236e-05
0.00116327
-4.01958e-05
0.00118438
-3.75369e-05
0.00120391
-3.46466e-05
0.00122215
-3.14507e-05
0.00123949
-2.83574e-05
0.00125545
-2.54776e-05
0.00127012
-2.30323e-05
0.00128304
-2.07792e-05
0.00129417
-1.87548e-05
0.00130345
-1.66897e-05
0.00131115
-1.42451e-05
0.0013177
-1.19648e-05
0.00132312
-9.40331e-06
0.00132737
-7.32455e-06
0.00133076
-6.15854e-06
0.00133342
-3.83614e-06
0.0013351
-1.97651e-06
0.00133615
-1.24258e-06
0.00133641
9.13175e-07
0.00133593
2.9552e-06
0.00133433
3.79646e-06
0.00133136
5.78329e-06
0.00132756
8.16553e-06
0.0013224
9.37711e-06
0.00131614
9.40619e-06
0.00130911
1.06883e-05
0.00130185
1.18153e-05
0.0012945
1.30935e-05
0.0012869
1.35387e-05
0.00127899
1.24019e-05
0.00127113
1.25172e-05
0.00126387
1.3435e-05
0.00125634
1.3759e-05
0.00124866
1.17035e-05
0.00124003
1.08841e-05
0.00123205
8.96621e-06
0.00122446
7.42781e-06
0.00121772
5.97009e-06
0.00121205
3.77881e-06
0.00120733
5.08291e-07
0.00120404
-2.83105e-06
0.00120192
-6.18251e-06
0.00120217
-7.70421e-06
0.00120391
-1.35502e-05
0.00120518
-1.36166e-05
0.00120815
-1.49795e-05
0.00120925
-8.04534e-06
0.00119878
3.83998e-05
0.00116358
0.000116757
0.00107515
0.000225979
0.000926459
0.000270633
0.000790394
0.000254455
0.000677327
0.00023044
0.000581561
0.000206245
0.000495271
0.00020398
0.000416114
0.000193086
0.000337186
0.000203755
0.000259978
0.000197811
0.000177562
0.000249466
9.25512e-05
4.23048e-06
2.8875e-06
0.00076031
1.59927e-06
0.000763827
3.59082e-07
0.000767717
-8.22717e-07
0.00077197
-1.93866e-06
0.000776566
-2.98731e-06
0.000781487
-3.95534e-06
0.00078671
-4.84462e-06
0.000792211
-5.66406e-06
0.000797961
-6.37321e-06
0.000803911
-6.99174e-06
0.000810053
-7.57384e-06
0.000816356
-8.02963e-06
0.000822756
-8.33795e-06
0.000829238
-8.64361e-06
0.000835797
-8.91332e-06
0.000842358
-9.05771e-06
0.00084885
-8.9973e-06
0.000855347
-8.94231e-06
0.000861805
-8.92653e-06
0.000868122
-8.86859e-06
0.000874265
-8.64736e-06
0.000880162
-8.29152e-06
0.000886052
-7.90853e-06
0.000891771
-7.56326e-06
0.000897278
-7.25276e-06
0.000902517
-6.90893e-06
0.000907454
-6.46828e-06
0.000912049
-5.93622e-06
0.000916476
-5.39371e-06
0.000920645
-4.85789e-06
0.000924527
-4.27635e-06
0.000928138
-3.71586e-06
0.000931466
-3.14956e-06
0.000934461
-2.58542e-06
0.000937129
-2.01868e-06
0.000939584
-1.4079e-06
0.000941768
-8.53914e-07
0.000943565
-3.04278e-07
0.000944874
3.10424e-07
0.000945681
9.13635e-07
0.000946568
1.63272e-06
0.000947659
3.1527e-06
0.000948279
1.42116e-05
0.000947416
1.99455e-05
0.000941172
3.93491e-05
0.000914512
-4.64191e-06
0.000899376
-5.27048e-05
0.000901339
-7.65463e-05
0.000923056
-9.60927e-05
0.000955965
-9.81197e-05
0.000993932
-9.81548e-05
0.00103295
-9.46445e-05
0.00107105
-8.99808e-05
0.00110813
-8.49632e-05
0.00114237
-7.99987e-05
0.0011724
-7.4672e-05
0.00119912
-6.95746e-05
0.00122417
-6.5539e-05
0.00124662
-6.01451e-05
0.00126708
-5.53255e-05
0.00128566
-5.11248e-05
0.0013035
-4.61511e-05
0.00131977
-4.17197e-05
0.0013338
-3.75476e-05
0.00134732
-3.37813e-05
0.00135896
-3.0296e-05
0.00136882
-2.70773e-05
0.00137691
-2.39476e-05
0.00138342
-2.02753e-05
0.00138885
-1.69094e-05
0.00139337
-1.33585e-05
0.00139676
-1.02818e-05
0.00139921
-8.38484e-06
0.00140086
-4.92979e-06
0.00140103
-1.81821e-06
0.00140053
-2.85768e-07
0.0013995
2.89803e-06
0.00139776
5.97845e-06
0.00139509
7.44193e-06
0.00139121
1.04238e-05
0.0013862
1.37912e-05
0.00137986
1.57024e-05
0.00137243
1.60404e-05
0.00136441
1.77287e-05
0.00135602
1.9542e-05
0.0013475
2.13498e-05
0.00133882
2.2002e-05
0.00132985
2.03492e-05
0.0013206
2.05265e-05
0.00131179
2.17805e-05
0.00130261
2.22036e-05
0.00129337
1.93113e-05
0.00128415
1.79303e-05
0.00127509
1.49253e-05
0.00126617
1.25739e-05
0.00125806
1.0528e-05
0.00125097
6.8834e-06
0.0012445
2.36906e-06
0.00123997
-2.37766e-06
0.00123673
-7.33102e-06
0.00123525
-8.13152e-06
0.00123505
-1.63044e-05
0.00123308
-1.4849e-05
0.0012269
-4.18175e-06
0.00121261
2.70087e-05
0.00116417
0.000127249
0.0010581
0.000265907
0.000888131
0.000363039
0.000745421
0.000384665
0.00064457
0.000350916
0.000566054
0.000317206
0.000495194
0.000285742
0.0004261
0.000283128
0.000358226
0.000270435
0.000290668
0.000286262
0.000223159
0.000282903
0.000151173
0.000342033
7.64825e-05
1.1011e-06
-6.27375e-07
0.000767364
-2.29005e-06
0.000773061
-3.8923e-06
0.000779107
-5.41811e-06
0.00078549
-6.85866e-06
0.000792194
-8.20989e-06
0.000799202
-9.45163e-06
0.000806488
-1.05869e-05
0.000814031
-1.1624e-05
0.000821792
-1.25169e-05
0.000829733
-1.32817e-05
0.000837841
-1.39829e-05
0.000846073
-1.4522e-05
0.000854374
-1.48748e-05
0.000862731
-1.51875e-05
0.000871109
-1.54615e-05
0.000879456
-1.55555e-05
0.000887716
-1.53966e-05
0.00089592
-1.52243e-05
0.00090401
-1.51147e-05
0.000911918
-1.49204e-05
0.000919651
-1.45138e-05
0.000927127
-1.39214e-05
0.000934453
-1.32884e-05
0.000941515
-1.27456e-05
0.000948298
-1.22177e-05
0.000954825
-1.16215e-05
0.000961061
-1.0923e-05
0.00096697
-1.01205e-05
0.000972573
-9.2933e-06
0.000977821
-8.41835e-06
0.000982649
-7.56376e-06
0.00098709
-6.72027e-06
0.000991262
-5.8713e-06
0.00099518
-5.03481e-06
0.000998741
-4.1404e-06
0.00100197
-3.27536e-06
0.00100495
-2.39085e-06
0.0010075
-1.4814e-06
0.00100956
-5.30567e-07
0.00101109
4.16664e-07
0.00101229
1.50349e-06
0.00101357
3.86448e-06
0.00101431
2.02409e-05
0.00101381
4.47632e-05
0.00100734
5.41583e-05
0.000978553
-6.61677e-06
0.00095741
-7.44666e-05
0.000963624
-0.000109706
0.000991313
-0.000134411
0.00103264
-0.000137942
0.00107683
-0.000136035
0.00112083
-0.000130679
0.00116237
-0.000123278
0.00120186
-0.000116792
0.00123894
-0.000108721
0.00127097
-0.000100984
0.00129818
-9.29093e-05
0.00132347
-8.67639e-05
0.00134542
-7.92802e-05
0.00136657
-7.16659e-05
0.00138426
-6.61977e-05
0.00140166
-5.94825e-05
0.00141698
-5.39734e-05
0.00142877
-4.85675e-05
0.0014411
-4.32977e-05
0.00145091
-3.84139e-05
0.00145915
-3.3748e-05
0.00146588
-2.96189e-05
0.00147123
-2.50253e-05
0.0014755
-2.07511e-05
0.00147877
-1.63241e-05
0.00148079
-1.22511e-05
0.00148176
-9.34831e-06
0.00148226
-4.71513e-06
0.00148062
-7.04801e-07
0.00147829
1.85618e-06
0.00147542
6.04802e-06
0.0014718
1.00601e-05
0.0014674
1.2411e-05
0.00146199
1.62868e-05
0.00145552
2.0597e-05
0.00144767
2.30994e-05
0.00143884
2.40509e-05
0.00142935
2.61794e-05
0.00141943
2.86122e-05
0.00140947
3.09736e-05
0.00139936
3.17572e-05
0.00138903
2.98111e-05
0.00137807
3.01828e-05
0.00136732
3.15947e-05
0.0013565
3.1501e-05
0.00134569
2.82689e-05
0.00133515
2.63627e-05
0.00132469
2.22218e-05
0.00131395
1.91718e-05
0.00130399
1.67222e-05
0.00129549
1.1137e-05
0.00128719
5.35409e-06
0.0012817
1.96907e-07
0.0012767
-6.53105e-06
0.0012719
-5.5613e-06
0.00126697
-9.74406e-06
0.00125789
-3.41187e-07
0.00122755
4.47985e-05
0.00116881
0.00013312
0.00104801
0.000297419
0.000852222
0.000408958
0.000703146
0.00046455
0.000600774
0.00046394
0.0005282
0.0004224
0.000472283
0.000386718
0.000419326
0.000353912
0.000365036
0.000350867
0.00030828
0.000338045
0.000250835
0.000358318
0.000192343
0.000357682
0.000130669
0.00041852
6.53707e-05
-4.23882e-06
-6.32363e-06
0.000775602
-8.33411e-06
0.00078344
-1.02732e-05
0.000791602
-1.212e-05
0.000800078
-1.38649e-05
0.000808852
-1.54959e-05
0.00081791
-1.69885e-05
0.000827224
-1.83449e-05
0.000836771
-1.95735e-05
0.00084651
-2.06229e-05
0.000856413
-2.15058e-05
0.000866452
-2.22913e-05
0.000876577
-2.2882e-05
0.000886758
-2.32433e-05
0.000896954
-2.35242e-05
0.000907118
-2.37511e-05
0.000917223
-2.37511e-05
0.000927234
-2.34656e-05
0.00093711
-2.31176e-05
0.000946788
-2.28509e-05
0.000956281
-2.24657e-05
0.000965587
-2.18213e-05
0.000974615
-2.09695e-05
0.000983358
-2.00592e-05
0.000991721
-1.92501e-05
0.000999734
-1.8428e-05
0.00100756
-1.75022e-05
0.00101507
-1.64811e-05
0.00102223
-1.53702e-05
0.00102903
-1.42128e-05
0.00103536
-1.29638e-05
0.00104112
-1.17702e-05
0.00104635
-1.06268e-05
0.00105144
-9.43888e-06
0.00105619
-8.23528e-06
0.0010606
-7.02039e-06
0.00106462
-5.78229e-06
0.00106838
-4.50083e-06
0.00107171
-3.2076e-06
0.00107443
-1.86807e-06
0.00107661
-5.29022e-07
0.00107833
1.0991e-06
0.00107996
4.25897e-06
0.00108103
2.63221e-05
0.00108111
7.1506e-05
0.0010771
7.49276e-05
0.00106048
-1.28865e-05
0.00103512
-0.000102452
0.00104526
-0.00015196
0.00108259
-0.000179042
0.00113285
-0.000183229
0.00118311
-0.000178467
0.00123338
-0.000168606
0.00127842
-0.000157309
0.00132092
-0.000149437
0.00136046
-0.000138373
0.00139497
-0.000128977
0.0014258
-0.000116429
0.00145033
-0.00010745
0.00147025
-9.73802e-05
0.00149163
-8.77628e-05
0.00150892
-8.06711e-05
0.00152567
-7.16115e-05
0.00153856
-6.53669e-05
0.00154988
-5.82443e-05
0.00156081
-5.13728e-05
0.00156731
-4.5088e-05
0.00157395
-3.91396e-05
0.00157876
-3.36995e-05
0.00158206
-2.81747e-05
0.00158434
-2.29392e-05
0.00158585
-1.75292e-05
0.00158625
-1.26374e-05
0.00158582
-8.45417e-06
0.00158474
-2.91891e-06
0.001581
2.00707e-06
0.00157616
5.57177e-06
0.00157045
1.08721e-05
0.0015634
1.5768e-05
0.00155602
1.91026e-05
0.00154804
2.38734e-05
0.0015388
2.89673e-05
0.00152886
3.21411e-05
0.00151806
3.38175e-05
0.00150667
3.62041e-05
0.00149484
3.921e-05
0.00148251
4.2143e-05
0.00147029
4.30847e-05
0.00145778
4.11601e-05
0.00144504
4.15679e-05
0.00143188
4.29547e-05
0.00141908
4.22401e-05
0.0014064
3.88449e-05
0.0013934
3.66241e-05
0.00138072
3.13876e-05
0.00136825
2.7292e-05
0.00135669
2.47364e-05
0.00134673
1.63045e-05
0.00133697
1.01696e-05
0.00132828
6.43713e-06
0.00131885
-1.17289e-06
0.00130864
3.68363e-06
0.00128811
2.09801e-05
0.00125471
5.89372e-05
0.00117596
0.000166271
0.00102862
0.000328959
0.000822485
0.000446617
0.00066839
0.0005116
0.000562716
0.000537601
0.00048993
0.000520363
0.000439816
0.000475757
0.00040057
0.000441307
0.000358451
0.000410893
0.000314444
0.000408474
0.000266608
0.000396647
0.000217716
0.000420055
0.000166771
0.000423039
0.000113481
0.0004839
5.57521e-05
-1.17477e-05
-1.41602e-05
0.00078503
-1.64937e-05
0.000794965
-1.87467e-05
0.000805199
-2.08933e-05
0.000815726
-2.29212e-05
0.000826532
-2.4809e-05
0.000837599
-2.65303e-05
0.0008489
-2.80852e-05
0.000860413
-2.94794e-05
0.000872093
-3.06537e-05
0.000883921
-3.16332e-05
0.000895858
-3.24682e-05
0.000907837
-3.30752e-05
0.000919864
-3.34124e-05
0.000931865
-3.36257e-05
0.000943778
-3.37575e-05
0.000955613
-3.36093e-05
0.000967336
-3.31788e-05
0.000978864
-3.2621e-05
0.000990095
-3.21098e-05
0.00100114
-3.14784e-05
0.001012
-3.05376e-05
0.00102255
-2.94195e-05
0.00103272
-2.81954e-05
0.00104231
-2.70518e-05
0.00105155
-2.58442e-05
0.00106066
-2.45252e-05
0.0010694
-2.31356e-05
0.00107775
-2.16661e-05
0.00108572
-2.01343e-05
0.00109309
-1.85099e-05
0.00109981
-1.69013e-05
0.00110583
-1.53488e-05
0.00111181
-1.37845e-05
0.00111741
-1.21805e-05
0.00112262
-1.05988e-05
0.00112744
-8.89278e-06
0.00113195
-7.22086e-06
0.00113601
-5.51355e-06
0.00113936
-3.79232e-06
0.00114222
-2.04082e-06
0.0011446
2.45255e-07
0.00114649
3.95258e-06
0.00114808
2.99004e-05
0.00114898
8.5783e-05
0.00115003
9.94788e-05
0.0011501
-2.31917e-05
0.0011316
-0.000140339
0.00115962
-0.000204038
0.00121137
-0.000229579
0.00127287
-0.000234517
0.00133576
-0.000223486
0.00138908
-0.000209461
0.00143713
-0.000194728
0.0014837
-0.000182237
0.00152104
-0.000168079
0.00155283
-0.000156495
0.0015826
-0.000139902
0.00160397
-0.0001281
0.00161988
-0.000114722
0.00163792
-0.000103971
0.00165235
-9.37791e-05
0.0016647
-8.31322e-05
0.0016728
-7.53257e-05
0.00168268
-6.50468e-05
0.00168872
-5.7637e-05
0.00169321
-4.96856e-05
0.00169723
-4.27695e-05
0.00169917
-3.60902e-05
0.00170016
-2.95043e-05
0.0017002
-2.31012e-05
0.00169951
-1.67518e-05
0.00169793
-1.07893e-05
0.00169552
-5.13771e-06
0.0016921
1.21212e-06
0.00168663
7.22756e-06
0.00167959
1.2227e-05
0.00167157
1.82305e-05
0.00166194
2.39204e-05
0.00165167
2.85213e-05
0.00164094
3.38953e-05
0.00162924
3.95518e-05
0.00161681
4.34134e-05
0.00160417
4.57455e-05
0.00159051
4.85316e-05
0.00157613
5.18711e-05
0.00156138
5.53102e-05
0.00154657
5.6169e-05
0.00153214
5.50889e-05
0.00151694
5.51126e-05
0.00150133
5.59788e-05
0.00148604
5.54158e-05
0.0014708
5.17186e-05
0.00145523
4.87169e-05
0.00144045
4.24184e-05
0.0014262
3.70662e-05
0.00141225
3.43215e-05
0.00139955
2.49223e-05
0.00138614
1.91681e-05
0.00137164
1.84436e-05
0.00135346
1.96705e-05
0.00132593
3.66752e-05
0.00127174
0.00010041
0.0011767
0.000206795
0.00100756
0.000372916
0.000792923
0.00048318
0.00064076
0.000552432
0.000535117
0.000584598
0.000462948
0.000587985
0.000409085
0.000559939
0.000372218
0.000518195
0.000340968
0.000485651
0.000305659
0.000459016
0.000269539
0.000457582
0.00022881
0.000447725
0.000187827
0.000473403
0.000143617
0.00048081
9.72607e-05
0.000539619
4.6776e-05
-2.13795e-05
-2.40933e-05
0.000795655
-2.6726e-05
0.000807638
-2.92716e-05
0.000819898
-3.16982e-05
0.000832429
-3.39858e-05
0.000845222
-3.61088e-05
0.000858254
-3.80393e-05
0.000871499
-3.97702e-05
0.000884937
-4.13048e-05
0.000898518
-4.25781e-05
0.000912229
-4.36241e-05
0.000926024
-4.44797e-05
0.000939822
-4.50617e-05
0.000953651
-4.53531e-05
0.000967423
-4.54655e-05
0.000981048
-4.54464e-05
0.000994576
-4.51003e-05
0.00100798
-4.44944e-05
0.00102114
-4.3714e-05
0.00103388
-4.28818e-05
0.00104643
-4.19212e-05
0.0010588
-4.06469e-05
0.00107085
-3.92184e-05
0.00108243
-3.76487e-05
0.00109323
-3.61023e-05
0.00110369
-3.44538e-05
0.00111406
-3.26991e-05
0.00112399
-3.08759e-05
0.00113347
-2.89885e-05
0.00114257
-2.70462e-05
0.00115096
-2.50358e-05
0.00115861
-2.29501e-05
0.00116545
-2.08972e-05
0.00117229
-1.88701e-05
0.00117874
-1.68473e-05
0.00118473
-1.48128e-05
0.00119032
-1.26692e-05
0.0011955
-1.05633e-05
0.00120023
-8.48392e-06
0.00120429
-6.33083e-06
0.00120776
-4.07394e-06
0.00121063
-1.38118e-06
0.00121275
2.82069e-06
0.00121506
2.85724e-05
0.00121765
8.24025e-05
0.00122946
0.000116178
0.00126654
-5.14492e-05
0.00126117
-0.000191767
0.00132101
-0.000266555
0.00140029
-0.000292704
0.00147242
-0.000289612
0.00153186
-0.000269299
0.00158049
-0.0002537
0.00162444
-0.000233521
0.001665
-0.000214084
0.00169073
-0.000194016
0.00171569
-0.000178456
0.00173857
-0.000160013
0.00175665
-0.000145338
0.00176652
-0.000129196
0.00177835
-0.000115689
0.00178558
-0.000102732
0.00179396
-9.15704e-05
0.00179642
-8.11955e-05
0.00180283
-7.02642e-05
0.00180304
-6.11507e-05
0.00180399
-5.18153e-05
0.00180535
-4.37934e-05
0.00180409
-3.61502e-05
0.00180308
-2.85536e-05
0.00180099
-2.10445e-05
0.00179799
-1.38139e-05
0.00179421
-6.68487e-06
0.0017896
2.13503e-07
0.00178406
7.72422e-06
0.00177682
1.4782e-05
0.0017683
2.11687e-05
0.00175848
2.8059e-05
0.00174692
3.46364e-05
0.00173453
4.0341e-05
0.00172169
4.65345e-05
0.00170811
5.23418e-05
0.00169393
5.71653e-05
0.0016795
6.02776e-05
0.00166392
6.33251e-05
0.00164766
6.70207e-05
0.00163095
7.01211e-05
0.00161412
7.18964e-05
0.00159766
7.15544e-05
0.00158059
7.11389e-05
0.0015628
7.13768e-05
0.00154569
7.13103e-05
0.00152864
6.68945e-05
0.00151114
6.25604e-05
0.00149452
5.62158e-05
0.00147705
4.98681e-05
0.00145973
4.7494e-05
0.00144264
3.9742e-05
0.00142345
3.68525e-05
0.00139354
4.80655e-05
0.00135265
7.44663e-05
0.00128679
0.000131456
0.00116701
0.000270286
0.000967911
0.000421525
0.000762953
0.000525226
0.000614865
0.000588971
0.000512189
0.000624767
0.000438245
0.000638644
0.000385599
0.000625034
0.000350131
0.000591422
0.000322918
0.000553811
0.000296966
0.000522106
0.000267796
0.000500036
0.00023582
0.000498788
0.000199297
0.000492106
0.000163095
0.000519849
0.000124027
0.000531375
8.35812e-05
0.000586355
3.95864e-05
-3.30844e-05
-3.60741e-05
0.000807487
-3.89846e-05
0.000821465
-4.18014e-05
0.0008357
-4.44885e-05
0.000850186
-4.70144e-05
0.000864915
-4.93535e-05
0.000879863
-5.14726e-05
0.000895007
-5.33593e-05
0.000910323
-5.50087e-05
0.000925761
-5.63608e-05
0.00094131
-5.74445e-05
0.000956918
-5.8286e-05
0.000972493
-5.88055e-05
0.000988078
-5.90305e-05
0.00100358
-5.90088e-05
0.00101888
-5.878e-05
0.00103406
-5.82039e-05
0.00104909
-5.73777e-05
0.00106385
-5.63437e-05
0.00107808
-5.51514e-05
0.00109211
-5.37812e-05
0.00110594
-5.21331e-05
0.00111941
-5.03358e-05
0.00113235
-4.83963e-05
0.0011444
-4.63783e-05
0.00115609
-4.42367e-05
0.00116767
-4.19901e-05
0.00117874
-3.96699e-05
0.00118932
-3.73168e-05
0.00119945
-3.49039e-05
0.00120884
-3.24595e-05
0.00121744
-2.99079e-05
0.00122522
-2.7342e-05
0.00123288
-2.47216e-05
0.00124008
-2.21963e-05
0.00124679
-1.96715e-05
0.00125307
-1.70983e-05
0.0012589
-1.4568e-05
0.00126429
-1.20295e-05
0.00126913
-9.4237e-06
0.0012731
-6.66511e-06
0.00127631
-3.82936e-06
0.00127882
2.84681e-07
0.00128186
1.69738e-05
0.00128606
4.24373e-05
0.00130028
0.000118894
0.00139336
-0.000110748
0.00147821
-0.00026992
0.00157064
-0.000338349
0.00164302
-0.000352137
0.00169
-0.000340312
0.00172117
-0.000313231
0.00175377
-0.000291131
0.00178913
-0.000262716
0.00182013
-0.000239515
0.00183746
-0.000215001
0.00185608
-0.000193947
0.001868
-0.000173289
0.00188264
-0.000155262
0.00188863
-0.000138155
0.00189525
-0.000121707
0.00189504
-0.000107059
0.00190185
-9.47891e-05
0.00190085
-8.22442e-05
0.00190422
-7.24241e-05
0.00190279
-6.08287e-05
0.00189712
-5.11745e-05
0.00189568
-4.22849e-05
0.00189166
-3.37364e-05
0.00188861
-2.52993e-05
0.0018852
-1.6716e-05
0.00188086
-8.27544e-06
0.00187579
-1.64533e-07
0.00186963
7.85262e-06
0.00186218
1.62371e-05
0.00185329
2.44249e-05
0.00184295
3.2082e-05
0.0018314
3.98071e-05
0.00181826
4.72738e-05
0.00180417
5.39238e-05
0.00178965
6.09298e-05
0.00177428
6.69608e-05
0.00175872
7.28068e-05
0.00174265
7.66894e-05
0.00172583
8.01279e-05
0.00170821
8.41557e-05
0.00169016
8.6943e-05
0.00167181
8.94969e-05
0.00165365
9.00942e-05
0.00163535
8.88364e-05
0.00161558
8.85639e-05
0.00159672
8.96995e-05
0.00157732
8.425e-05
0.00155856
7.92548e-05
0.00153889
7.43174e-05
0.00151745
6.71506e-05
0.00149362
6.61822e-05
0.00146449
7.04924e-05
0.00142954
7.76779e-05
0.00136951
0.00011619
0.00127855
0.000194954
0.00113137
0.000330606
0.000913177
0.000475395
0.000718285
0.000569523
0.000584404
0.00062792
0.000488787
0.00066303
0.00041942
0.000677556
0.000368387
0.000674281
0.000329734
0.000652436
0.000302307
0.0006176
0.000279782
0.000583301
0.000256577
0.000554424
0.000232386
0.000536868
0.000204584
0.000535232
0.000172548
0.000531315
0.000141011
0.000560324
0.000106452
0.000575392
7.1212e-05
0.000625847
3.31679e-05
-4.68086e-05
-5.00508e-05
0.000820537
-5.32178e-05
0.000836454
-5.62856e-05
0.000852607
-5.92134e-05
0.000868993
-6.19603e-05
0.000885604
-6.44978e-05
0.000902419
-6.67853e-05
0.00091941
-6.88085e-05
0.000936552
-7.05461e-05
0.0009538
-7.19552e-05
0.000971137
-7.30521e-05
0.000988507
-7.38432e-05
0.00100582
-7.42762e-05
0.00102311
-7.43984e-05
0.0010403
-7.42122e-05
0.00105724
-7.37134e-05
0.00107404
-7.28894e-05
0.00109064
-7.17912e-05
0.00110692
-7.04646e-05
0.00112264
-6.88677e-05
0.00113813
-6.69965e-05
0.00115336
-6.49686e-05
0.00116818
-6.2746e-05
0.00118241
-6.03861e-05
0.0011957
-5.78494e-05
0.00120868
-5.51502e-05
0.00122141
-5.23639e-05
0.00123359
-4.95164e-05
0.00124521
-4.66339e-05
0.00125627
-4.36905e-05
0.00126658
-4.07335e-05
0.00127614
-3.77073e-05
0.00128509
-3.46206e-05
0.00129363
-3.14567e-05
0.00130155
-2.82358e-05
0.00130877
-2.51992e-05
0.00131562
-2.21481e-05
0.00132208
-1.91531e-05
0.00132818
-1.61013e-05
0.00133372
-1.30414e-05
0.00133825
-9.92402e-06
0.00134191
-6.95709e-06
0.00134501
-3.70967e-06
0.00134843
2.98268e-06
0.00135268
-5.09409e-05
0.00136348
3.03994e-05
0.00142288
-0.000204461
0.00168158
-0.000342086
0.00183351
-0.000385016
0.00188228
-0.000383118
0.00189615
-0.000374172
0.00190427
-0.000349237
0.00191665
-0.000320341
0.00192874
-0.000284377
0.00194606
-0.000257614
0.00196033
-0.000227881
0.00197288
-0.000203646
0.00197774
-0.000180683
0.00198869
-0.000158689
0.00198914
-0.000141143
0.00199038
-0.000124449
0.00198921
-0.000107807
0.00199264
-9.56728e-05
0.00199028
-7.97975e-05
0.00198846
-7.04977e-05
0.0019854
-5.84101e-05
0.00197736
-4.81493e-05
0.00197342
-3.90479e-05
0.00196788
-2.93395e-05
0.00196252
-1.99439e-05
0.00195751
-1.03258e-05
0.00195176
-9.09746e-07
0.00194519
8.08684e-06
0.00193747
1.71095e-05
0.00192855
2.63689e-05
0.00191818
3.57322e-05
0.00190638
4.45831e-05
0.00189351
5.32383e-05
0.00187906
6.13428e-05
0.0018638
6.8984e-05
0.00184783
7.64369e-05
0.00183086
8.30871e-05
0.00181403
8.9634e-05
0.00179661
9.43959e-05
0.00177859
9.84505e-05
0.00175996
0.000102808
0.00174094
0.000105571
0.00172146
0.000108112
0.00170229
0.000110455
0.00168216
0.000108321
0.00166108
0.000107852
0.00164
0.00011001
0.00161704
0.000104879
0.00159364
9.97029e-05
0.00156649
0.000100313
0.00153554
9.58413e-05
0.001498
9.99822e-05
0.00144227
0.000132646
0.0013675
0.000169068
0.00124748
0.000265061
0.0010594
0.000413584
0.000840605
0.000525391
0.000674337
0.000609007
0.000550157
0.000664878
0.000460195
0.000697195
0.000396211
0.00071409
0.000348854
0.000716266
0.000313391
0.000701822
0.000288224
0.000675124
0.000268208
0.000641056
0.000248622
0.000607824
0.000228527
0.000582555
0.000205783
0.000569206
0.000179737
0.000567071
0.000150754
0.000566098
0.00012226
0.000595634
9.12853e-05
0.000613459
6.06527e-05
0.000658889
2.78849e-05
-6.24936e-05
-6.59665e-05
0.000834819
-6.9369e-05
0.000852612
-7.26694e-05
0.000870623
-7.58199e-05
0.00088885
-7.87723e-05
0.000907285
-8.14879e-05
0.00092591
-8.39281e-05
0.000944693
-8.6065e-05
0.000963606
-8.78643e-05
0.000982614
-8.93126e-05
0.00100169
-9.04027e-05
0.00102076
-9.11086e-05
0.00103976
-9.14261e-05
0.00105872
-9.14188e-05
0.00107753
-9.1031e-05
0.00109607
-9.02147e-05
0.00111444
-8.9097e-05
0.00113256
-8.77092e-05
0.00115031
-8.60377e-05
0.00116752
-8.39734e-05
0.00118444
-8.16046e-05
0.001201
-7.91046e-05
0.00121706
-7.64373e-05
0.00123252
-7.36103e-05
0.00124715
-7.04913e-05
0.0012614
-6.71806e-05
0.00127522
-6.38031e-05
0.00128842
-6.03812e-05
0.00130099
-5.69194e-05
0.00131291
-5.3394e-05
0.00132413
-4.9891e-05
0.00133475
-4.62663e-05
0.00134483
-4.26354e-05
0.0013543
-3.89367e-05
0.00136302
-3.51868e-05
0.00137089
-3.14201e-05
0.00137792
-2.78416e-05
0.00138489
-2.42592e-05
0.00139145
-2.07207e-05
0.00139756
-1.72597e-05
0.00140265
-1.37935e-05
0.00140674
-1.04786e-05
0.00141037
-7.80057e-06
0.0014142
-7.62115e-06
0.00141868
-0.000110348
0.00143076
-0.000233134
0.00150471
-0.000360264
0.00180526
-0.000391457
0.00198432
-0.000398825
0.00202501
-0.000390856
0.00202383
-0.000387332
0.00203316
-0.000362615
0.00203552
-0.000335967
0.00203556
-0.000300931
0.00204231
-0.000269563
0.00205231
-0.000234526
0.00206119
-0.000208066
0.00206448
-0.000184084
0.00207727
-0.000158504
0.0020713
-0.000140491
0.00206802
-0.000124483
0.00207175
-0.000105619
0.00206608
-9.48091e-05
0.00206477
-7.66522e-05
0.00205825
-6.5892e-05
0.00205416
-5.43452e-05
0.00204759
-4.30995e-05
0.00204171
-3.32248e-05
0.00203624
-2.28388e-05
0.00202976
-1.27071e-05
0.00202345
-2.35136e-06
0.00201633
7.64999e-06
0.00200833
1.76827e-05
0.0019993
2.77865e-05
0.00198917
3.79728e-05
0.00197764
4.84571e-05
0.00196465
5.85752e-05
0.00195071
6.78678e-05
0.00193534
7.67753e-05
0.0019188
8.54497e-05
0.0019015
9.3124e-05
0.0018832
0.00010068
0.00186544
0.000107724
0.00184694
0.000113096
0.00182724
0.000117906
0.00180695
0.000122554
0.00178714
0.000125359
0.00176576
0.000128409
0.00174343
0.000131831
0.00172018
0.00013008
0.00169541
0.000130283
0.00166778
0.000134713
0.00163975
0.000132612
0.00160846
0.000129165
0.00156349
0.000140954
0.00150901
0.000150722
0.00143855
0.000173719
0.00132557
0.000255399
0.00115989
0.000357171
0.000954147
0.000484461
0.000758195
0.000579933
0.000616609
0.000649447
0.000508543
0.000698745
0.000429799
0.00072862