/*--------------------------------*- C++ -*----------------------------------*\
| =========                 |                                                 |
| \\      /  F ield         | OpenFOAM: The Open Source CFD Toolbox           |
|  \\    /   O peration     | Version:  2.2.x                                 |
|   \\  /    A nd           | Web:      www.OpenFOAM.org                      |
|    \\/     M anipulation  |                                                 |
\*---------------------------------------------------------------------------*/
FoamFile
{
    version     2.0;
    format      ascii;
    class       volVectorField;
    location    "2.15";
    object      U;
}
// * * * * * * * * * * * * * * * * * * * * * * * * * * * * * * * * * * * * * //

dimensions      [0 1 -1 0 0 0 0];

internalField   nonuniform List<vector> 
14161
(
(1.50287 9.26109e-07 4.74914e-22)
(1.5028 -2.19093e-06 5.19475e-22)
(1.50287 -4.21847e-07 1.10746e-21)
(1.50296 -2.54287e-07 9.91605e-22)
(1.50308 -2.56503e-07 1.04004e-21)
(1.50323 -8.55031e-08 9.45628e-22)
(1.50342 1.14909e-09 1.68358e-21)
(1.50363 1.18627e-07 9.53312e-22)
(1.50386 8.71257e-07 1.70093e-21)
(1.50409 -1.23389e-06 1.26021e-21)
(1.5044 1.31705e-06 1.54579e-21)
(1.50467 2.1748e-06 1.35233e-21)
(1.50492 -2.00975e-06 1.1155e-21)
(1.50532 -2.79989e-06 1.25046e-21)
(1.50566 1.2801e-05 1.28265e-21)
(1.5059 6.77228e-07 1.8888e-21)
(1.50615 -2.89149e-06 1.87536e-21)
(1.50677 -9.84808e-06 1.97918e-21)
(1.50716 9.01535e-06 2.61201e-21)
(1.50734 1.6152e-05 2.45564e-21)
(1.5074 2.02991e-06 2.62732e-21)
(1.50772 -1.34925e-05 2.82041e-21)
(1.50855 -5.83769e-06 2.66654e-21)
(1.50881 8.77143e-06 2.96904e-21)
(1.50895 2.34599e-05 2.98941e-21)
(1.50899 1.67408e-05 3.13373e-21)
(1.50891 8.78896e-06 3.08527e-21)
(1.50899 -2.24273e-05 3.11687e-21)
(1.50941 -5.66942e-06 3.7823e-21)
(1.50958 1.17887e-05 4.279e-21)
(1.50957 1.71331e-05 4.50513e-21)
(1.50948 1.6521e-05 4.81639e-21)
(1.50913 2.01504e-05 4.61904e-21)
(1.50846 3.48748e-05 7.21815e-21)
(1.50788 2.09563e-05 4.75531e-22)
(1.50716 2.08069e-05 1.39823e-20)
(1.50618 3.61778e-05 -8.58441e-21)
(1.50498 2.48225e-05 1.55447e-20)
(1.50364 4.39341e-05 -7.4144e-21)
(1.50238 2.31916e-05 2.69687e-20)
(1.50143 0.000142919 -1.43993e-20)
(1.50005 0.000251947 7.69208e-20)
(1.49757 0.00012024 -1.02908e-19)
(1.49273 0.00021445 1.0652e-19)
(1.49203 0.00223578 3.0666e-18)
(0.964705 0.00648688 1.18857e-17)
(0.561279 0.0075924 1.08545e-17)
(0.515088 0.00349304 7.37135e-18)
(0.514379 -0.00263225 4.15767e-18)
(0.527703 -0.00481445 2.92707e-18)
(0.542058 -0.00739101 8.01077e-19)
(0.56572 -0.00803152 7.16455e-20)
(0.587128 -0.00861401 -2.95843e-19)
(0.610673 -0.00829992 -2.67412e-19)
(0.632561 -0.00795579 -2.0789e-19)
(0.654308 -0.00757518 -2.9388e-19)
(0.675344 -0.00708973 -2.43731e-19)
(0.695657 -0.00660446 -3.30384e-19)
(0.714661 -0.00596225 -9.20223e-21)
(0.733098 -0.00574391 -3.00382e-20)
(0.749593 -0.00514885 -1.00067e-18)
(0.764831 -0.00487 -6.79215e-19)
(0.778579 -0.00443314 1.14214e-18)
(0.791211 -0.0039456 3.9169e-19)
(0.802593 -0.00346764 -1.82511e-18)
(0.812698 -0.00296952 -1.22666e-18)
(0.821176 -0.00256408 1.49017e-18)
(0.828593 -0.00225212 1.12229e-18)
(0.834699 -0.00210264 -1.74656e-18)
(0.840289 -0.00191177 -1.7695e-18)
(0.844883 -0.00169076 9.34767e-19)
(0.848816 -0.00134879 1.17499e-18)
(0.851327 -0.000940563 -5.69647e-19)
(0.853915 -0.000940092 -1.03909e-18)
(0.858598 -0.00121719 -4.93592e-19)
(0.860843 -0.00170324 3.22546e-19)
(0.863138 -0.0018811 3.60671e-19)
(0.869386 -0.00199102 -1.25846e-19)
(0.871783 -0.00189309 -4.48375e-19)
(0.873697 -0.0018838 -9.62956e-20)
(0.880095 -0.00190606 3.44672e-19)
(0.882868 -0.00185839 2.7093e-19)
(0.884366 -0.00159826 5.828e-21)
(0.885036 -0.00160531 1.40074e-19)
(0.892098 -0.00173664 2.70578e-19)
(0.894512 -0.00163181 4.88279e-19)
(0.896736 -0.00164138 5.57347e-19)
(0.89806 -0.00144695 6.03862e-19)
(0.895715 -0.00143763 8.85697e-19)
(0.905626 -0.00160198 9.51995e-19)
(0.908386 -0.00163333 1.12524e-18)
(0.910591 -0.00147219 1.15132e-18)
(0.909232 -0.00140641 1.52957e-18)
(0.917813 -0.00161294 1.47317e-18)
(0.921135 -0.00154385 1.94355e-18)
(0.927262 -0.00160026 2.1448e-18)
(0.931274 -0.00167071 2.6127e-18)
(0.938273 -0.00154728 2.962e-18)
(0.943399 -0.00142915 3.26604e-18)
(0.95013 -0.00152998 4.00204e-18)
(0.955012 -0.00146814 4.68339e-18)
(0.961894 -0.00148507 5.06793e-18)
(0.971594 -0.00110887 6.22248e-18)
(0.976941 -0.000378149 6.97596e-18)
(0.978714 0.000721508 7.22496e-18)
(0.975029 0.0025516 7.81529e-18)
(0.969403 0.0076701 8.08282e-18)
(0.911326 0.0191318 8.23072e-18)
(0.826252 0.0369131 6.35391e-18)
(0.686146 0.0519029 3.2407e-18)
(0.555451 0.0568717 2.7521e-18)
(0.446613 0.0538904 -6.00341e-19)
(0.362079 0.0446312 3.70527e-18)
(0.289952 0.03699 -5.2078e-19)
(0.231393 0.032465 8.57168e-18)
(0.175064 0.0295693 4.39113e-18)
(0.125905 0.0296212 2.69822e-17)
(0.077298 0.0235233 2.64846e-17)
(0.0360747 0.0355246 6.32204e-17)
(1.50287 1.27985e-08 4.92787e-22)
(1.5028 -2.36557e-06 6.99859e-22)
(1.50287 -1.0132e-06 1.29136e-21)
(1.50296 -9.76559e-07 4.062e-22)
(1.50308 -6.79091e-07 9.12501e-22)
(1.50323 -1.92632e-08 1.01929e-21)
(1.50342 -2.5322e-08 1.33093e-21)
(1.50363 6.35154e-07 1.141e-21)
(1.50386 1.33629e-06 1.7141e-21)
(1.50409 -2.15882e-06 1.28323e-21)
(1.5044 2.76408e-06 1.50034e-21)
(1.50467 6.09478e-06 1.04664e-21)
(1.50492 -3.48664e-06 1.34252e-21)
(1.50532 -3.77041e-06 1.05776e-21)
(1.50565 1.79024e-05 1.53247e-21)
(1.5059 5.10684e-06 2.15416e-21)
(1.50616 -6.02859e-06 2.29142e-21)
(1.50679 -1.65771e-05 2.00656e-21)
(1.50714 1.28276e-05 3.08343e-21)
(1.50732 2.69329e-05 2.46378e-21)
(1.50741 5.48508e-06 2.63408e-21)
(1.50776 -1.88624e-05 2.47375e-21)
(1.50855 -1.20877e-05 2.67458e-21)
(1.50881 7.53077e-06 3.04368e-21)
(1.50895 3.43667e-05 3.34156e-21)
(1.50897 4.06002e-05 3.29448e-21)
(1.50893 1.02698e-05 3.05253e-21)
(1.50902 -2.00769e-05 3.31727e-21)
(1.50943 -1.91479e-05 3.72563e-21)
(1.50958 1.55575e-05 4.93442e-21)
(1.50958 4.06644e-05 4.51272e-21)
(1.50948 4.77236e-05 5.40676e-21)
(1.50914 4.33144e-05 5.02697e-21)
(1.50854 4.93881e-05 6.38353e-21)
(1.50795 7.2471e-05 3.41038e-21)
(1.50721 8.21249e-05 1.00947e-20)
(1.50637 0.000114 4.53086e-21)
(1.50508 0.000134179 9.56893e-21)
(1.50366 0.000145842 -3.5128e-21)
(1.50235 0.000109842 2.55174e-20)
(1.50136 0.000222887 -1.51644e-20)
(1.49995 0.000249743 2.28949e-20)
(1.49711 0.00018154 -4.10958e-20)
(1.49256 0.000842264 1.15073e-19)
(1.48982 0.00898357 3.9251e-18)
(0.951662 0.0202725 1.148e-17)
(0.555971 0.0224757 1.03254e-17)
(0.510478 0.00672389 7.77106e-18)
(0.510073 -0.00788555 3.49599e-18)
(0.526908 -0.0154352 1.83653e-18)
(0.54255 -0.023119 3.13439e-19)
(0.567174 -0.0241335 -1.4777e-19)
(0.588408 -0.0248123 -2.61706e-19)
(0.611254 -0.0237519 -2.54124e-19)
(0.632678 -0.0224512 -1.83879e-19)
(0.653788 -0.0208317 -2.43341e-19)
(0.674334 -0.0191302 -2.9158e-19)
(0.694511 -0.0173796 -4.20288e-19)
(0.71299 -0.0155886 -2.81055e-20)
(0.731441 -0.0141073 7.10584e-20)
(0.748251 -0.0122943 -7.98634e-19)
(0.764185 -0.0111675 -7.32245e-19)
(0.778448 -0.00986435 7.76158e-19)
(0.791602 -0.00845942 4.52317e-19)
(0.803461 -0.0072718 -1.4523e-18)
(0.813841 -0.00615317 -1.18566e-18)
(0.822589 -0.00538848 1.11246e-18)
(0.830073 -0.00479677 1.01101e-18)
(0.836331 -0.00442463 -1.3201e-18)
(0.84194 -0.00423742 -1.59967e-18)
(0.846619 -0.00371365 5.49037e-19)
(0.850644 -0.00337309 1.09778e-18)
(0.853683 -0.00289202 -2.85423e-19)
(0.856668 -0.00252895 -9.7835e-19)
(0.861951 -0.00262944 -5.07159e-19)
(0.864226 -0.00219826 3.36882e-19)
(0.866339 -0.00218839 3.1493e-19)
(0.872359 -0.00266798 -1.29024e-19)
(0.874617 -0.00241769 -3.97297e-19)
(0.87639 -0.00221805 -7.32485e-20)
(0.882584 -0.00275024 2.84752e-19)
(0.885151 -0.00247983 2.50446e-19)
(0.886257 -0.00188791 4.18929e-20)
(0.886988 -0.00190953 1.61798e-19)
(0.894031 -0.00243197 2.72381e-19)
(0.896439 -0.00232776 4.98867e-19)
(0.89851 -0.00214949 5.477e-19)
(0.899796 -0.00181611 6.22313e-19)
(0.897461 -0.00181854 8.79379e-19)
(0.907666 -0.0027633 9.39143e-19)
(0.910335 -0.00267951 1.09174e-18)
(0.912352 -0.00202591 1.17859e-18)
(0.911098 -0.00160567 1.50235e-18)
(0.919658 -0.00229219 1.50953e-18)
(0.922949 -0.00209291 1.89817e-18)
(0.92926 -0.00245652 2.19306e-18)
(0.933332 -0.00238087 2.57038e-18)
(0.939969 -0.00202297 2.97839e-18)
(0.944996 -0.00199743 3.31031e-18)
(0.951914 -0.00227764 4.02269e-18)
(0.956871 -0.00239893 4.76256e-18)
(0.963192 -0.00249954 5.02865e-18)
(0.970822 -0.00104398 6.18902e-18)
(0.973278 -0.00123258 6.90054e-18)
(0.973972 0.00199781 7.23362e-18)
(0.959432 0.00402333 7.803e-18)
(0.938623 0.0118053 7.94863e-18)
(0.854059 0.0332682 7.50136e-18)
(0.739228 0.0629018 5.70922e-18)
(0.60192 0.104994 1.89911e-18)
(0.480206 0.114347 2.24635e-18)
(0.3833 0.0993681 -1.00717e-18)
(0.312125 0.0882419 3.10278e-18)
(0.250243 0.0777503 -3.8813e-19)
(0.200084 0.0758913 8.46525e-18)
(0.151857 0.070544 5.30167e-18)
(0.1098 0.0725594 2.51491e-17)
(0.0661696 0.0674689 2.52854e-17)
(0.028249 0.0839582 4.96415e-17)
(1.50287 1.37977e-07 5.51079e-22)
(1.5028 -3.19671e-06 8.64954e-23)
(1.50287 -1.88159e-06 6.61137e-22)
(1.50296 -1.45079e-06 1.04938e-21)
(1.50308 -1.33323e-06 1.15722e-21)
(1.50323 -1.71484e-07 6.19203e-22)
(1.50342 -2.44952e-07 9.41669e-22)
(1.50363 1.1957e-06 1.14897e-21)
(1.50386 2.54371e-06 1.76763e-21)
(1.50409 -3.01507e-06 1.29895e-21)
(1.50439 3.26373e-06 1.92978e-21)
(1.50467 1.02261e-05 4.5599e-23)
(1.50493 -5.05542e-06 1.18054e-21)
(1.50531 -5.00485e-06 2.03927e-21)
(1.50564 2.36813e-05 2.68327e-21)
(1.50591 1.20506e-05 2.43997e-21)
(1.50618 -1.29739e-05 2.72616e-21)
(1.50678 -1.97903e-05 2.87136e-21)
(1.50709 2.28086e-05 3.87906e-21)
(1.50729 4.03535e-05 3.25991e-21)
(1.50744 9.38681e-06 2.69458e-21)
(1.50781 -3.6806e-05 2.15409e-21)
(1.50854 -3.36318e-05 3.6585e-21)
(1.50881 2.65639e-05 3.81549e-21)
(1.50894 6.59259e-05 2.00439e-21)
(1.50898 6.6386e-05 3.38333e-21)
(1.50898 1.39457e-05 3.83176e-21)
(1.50909 -2.95826e-05 4.23289e-21)
(1.50946 -3.60818e-05 4.88367e-21)
(1.50959 2.0139e-05 6.0632e-21)
(1.50959 5.56789e-05 5.51138e-21)
(1.50952 6.93106e-05 6.10603e-21)
(1.5092 0.000105857 5.81291e-21)
(1.50865 0.000123993 6.71685e-21)
(1.50806 0.000136225 4.77772e-21)
(1.50741 0.000165625 7.8016e-21)
(1.50665 0.000188756 5.86846e-21)
(1.50548 0.000249581 7.72111e-21)
(1.50409 0.0002277 2.24679e-21)
(1.50288 0.00020324 1.40869e-20)
(1.5019 0.000137231 5.34391e-23)
(1.50042 0.000203216 3.9827e-22)
(1.49696 0.000267853 2.44043e-20)
(1.49329 0.00185074 3.27224e-19)
(1.48894 0.0190979 4.80227e-18)
(0.944988 0.0426417 1.12676e-17)
(0.55184 0.0412024 1.0134e-17)
(0.508911 0.0124105 7.52173e-18)
(0.505879 -0.0151758 3.48376e-18)
(0.527455 -0.0289141 1.43763e-18)
(0.543552 -0.0410177 3.82296e-19)
(0.570272 -0.0423657 -3.29343e-20)
(0.592624 -0.0427584 -2.60378e-19)
(0.616222 -0.0405718 -2.71643e-19)
(0.638943 -0.0380613 -2.21263e-19)
(0.660457 -0.0352119 -2.04969e-19)
(0.681566 -0.0324924 -2.03755e-19)
(0.701764 -0.0295714 -4.71101e-19)
(0.720504 -0.026767 -1.60398e-19)
(0.739329 -0.0247787 1.52818e-19)
(0.756277 -0.02228 -4.65743e-19)
(0.772879 -0.0200495 -7.53876e-19)
(0.787281 -0.0180264 2.96137e-19)
(0.800401 -0.0155759 4.78132e-19)
(0.812199 -0.0137421 -9.00422e-19)
(0.822167 -0.011973 -1.08653e-18)
(0.830685 -0.0106508 6.03362e-19)
(0.837766 -0.00961863 9.033e-19)
(0.843719 -0.00885337 -8.75233e-19)
(0.84895 -0.00831025 -1.37933e-18)
(0.853311 -0.00731428 3.04089e-19)
(0.857032 -0.00651979 8.79719e-19)
(0.859958 -0.00562392 -1.86349e-19)
(0.863032 -0.00531871 -7.59677e-19)
(0.867707 -0.00608822 -4.43253e-19)
(0.869939 -0.0057219 1.72543e-19)
(0.872273 -0.00551641 2.54135e-19)
(0.877724 -0.00644888 -8.78094e-20)
(0.879908 -0.00612563 -3.30088e-19)
(0.88182 -0.0057921 -5.03513e-20)
(0.887221 -0.00656702 2.1668e-19)
(0.889543 -0.00610811 2.22795e-19)
(0.890515 -0.00505715 8.61296e-20)
(0.891424 -0.00501329 1.78643e-19)
(0.897848 -0.00596267 2.72611e-19)
(0.900328 -0.00579283 4.81358e-19)
(0.902173 -0.0054181 5.46459e-19)
(0.903533 -0.00476886 6.42047e-19)
(0.90137 -0.00473711 8.57194e-19)
(0.911223 -0.00634056 9.24605e-19)
(0.913577 -0.0062419 1.05787e-18)
(0.915139 -0.00510716 1.21237e-18)
(0.915026 -0.00420557 1.46873e-18)
(0.922819 -0.00539046 1.52941e-18)
(0.926084 -0.00518228 1.85059e-18)
(0.932213 -0.0058747 2.2419e-18)
(0.936248 -0.0056547 2.51173e-18)
(0.942342 -0.00501601 3.01728e-18)
(0.947235 -0.00452285 3.33946e-18)
(0.953774 -0.00501093 4.09296e-18)
(0.958251 -0.00475064 4.62621e-18)
(0.963577 -0.00395438 5.39929e-18)
(0.968469 -0.0012677 5.72872e-18)
(0.963157 -0.00107308 6.86517e-18)
(0.95793 0.00568515 7.14632e-18)
(0.924263 0.0168196 7.54742e-18)
(0.866822 0.0375382 7.35417e-18)
(0.751187 0.0886069 6.07639e-18)
(0.618416 0.148078 4.75518e-18)
(0.4948 0.186196 1.05972e-18)
(0.401532 0.191873 1.78293e-18)
(0.327541 0.165522 -1.28913e-18)
(0.269682 0.143966 2.55817e-18)
(0.218755 0.126252 -5.54707e-19)
(0.175489 0.121158 7.56486e-18)
(0.134347 0.112723 4.94833e-18)
(0.0974416 0.115368 2.29195e-17)
(0.0586955 0.109726 2.4299e-17)
(0.0263645 0.129627 3.89516e-17)
(1.50287 6.54572e-07 2.10775e-22)
(1.5028 -3.87367e-06 9.34368e-22)
(1.50287 -2.58256e-06 1.29631e-21)
(1.50296 -2.17788e-06 1.65897e-21)
(1.50308 -2.16966e-06 1.87577e-22)
(1.50323 -3.90736e-07 3.96813e-22)
(1.50342 -6.50099e-07 8.0221e-22)
(1.50363 1.90059e-06 1.44025e-21)
(1.50386 3.89558e-06 1.45571e-21)
(1.50409 -2.65661e-06 7.98681e-22)
(1.50439 4.35374e-06 3.45422e-22)
(1.50467 1.36104e-05 4.04012e-22)
(1.50493 -5.32728e-06 1.35405e-21)
(1.5053 -4.73209e-06 2.80987e-21)
(1.50563 2.78561e-05 4.45548e-21)
(1.50592 2.47955e-05 4.16518e-21)
(1.50621 -2.05814e-05 4.63677e-21)
(1.50674 -3.07194e-05 4.71591e-21)
(1.50705 3.23545e-05 2.30942e-21)
(1.50728 6.27746e-05 6.59102e-21)
(1.50751 1.0978e-05 5.5997e-21)
(1.50789 -4.92922e-05 6.79343e-21)
(1.50849 -3.49375e-05 5.83022e-21)
(1.50877 2.95854e-05 6.61667e-21)
(1.50892 9.95119e-05 7.72916e-21)
(1.50901 7.64384e-05 5.07839e-21)
(1.50911 1.46878e-05 7.12e-21)
(1.50926 -2.32516e-05 7.95772e-21)
(1.50948 -2.56416e-05 7.64952e-21)
(1.50957 2.36049e-05 5.22873e-21)
(1.50962 7.26385e-05 6.45384e-21)
(1.50953 0.00010718 6.67171e-21)
(1.50928 0.000147824 7.24968e-21)
(1.5089 0.000176346 7.27967e-21)
(1.50841 0.000191673 7.10417e-21)
(1.50791 0.00022297 7.58014e-21)
(1.50723 0.000269045 7.30391e-21)
(1.50621 0.000314858 7.17831e-21)
(1.50499 0.000338612 8.17142e-21)
(1.50363 0.000328244 4.92282e-21)
(1.50226 0.000429064 1.00283e-20)
(1.50092 0.000489101 1.56034e-21)
(1.49683 0.000656251 3.3282e-20)
(1.49319 0.00292248 3.67971e-19)
(1.48277 0.0292042 4.77134e-18)
(0.93933 0.0714227 1.07204e-17)
(0.545725 0.0567007 9.25002e-18)
(0.509503 0.0170191 7.03473e-18)
(0.503705 -0.0243015 3.80123e-18)
(0.531631 -0.0459595 1.84465e-18)
(0.548988 -0.0620162 6.51755e-19)
(0.578975 -0.0645538 8.74784e-20)
(0.603534 -0.0638061 -1.63102e-19)
(0.62855 -0.0606257 -1.59033e-19)
(0.653473 -0.0562367 -2.02112e-19)
(0.676627 -0.051897 -1.57805e-19)
(0.698729 -0.0475196 -4.24977e-20)
(0.719667 -0.0429925 -2.43839e-19)
(0.739075 -0.0386729 -2.94819e-19)
(0.757759 -0.0351536 -2.88474e-20)
(0.773714 -0.031124 -3.13611e-20)
(0.790714 -0.0271217 -4.73705e-19)
(0.8043 -0.0238571 -2.79089e-19)
(0.816237 -0.0203068 2.26196e-19)
(0.827318 -0.0178865 -1.36042e-19)
(0.836201 -0.0153175 -6.68562e-19)
(0.844073 -0.0133015 -8.58483e-20)
(0.850356 -0.011644 4.74405e-19)
(0.855537 -0.0103241 -2.04876e-19)
(0.860012 -0.0095535 -7.88732e-19)
(0.863736 -0.00845274 -5.10844e-20)
(0.867029 -0.00773597 4.00545e-19)
(0.869714 -0.00713143 -3.01366e-20)
(0.87268 -0.00668546 -4.43479e-19)
(0.876994 -0.00698428 -3.00907e-19)
(0.879133 -0.0060993 -2.30053e-21)
(0.881476 -0.00575933 1.06884e-19)
(0.886445 -0.00656879 -3.75924e-20)
(0.888607 -0.00618455 -1.85789e-19)
(0.89062 -0.00571264 -6.01372e-20)
(0.895455 -0.00646696 8.87444e-20)
(0.897622 -0.00587434 1.47673e-19)
(0.898528 -0.00475367 1.4129e-19)
(0.89941 -0.0048728 1.82151e-19)
(0.905363 -0.0058847 2.61263e-19)
(0.907887 -0.00583902 4.39645e-19)
(0.909452 -0.00532062 5.31921e-19)
(0.910776 -0.004631 6.53066e-19)
(0.908831 -0.00481842 8.24447e-19)
(0.91806 -0.00670607 8.70106e-19)
(0.920005 -0.00656732 1.02675e-18)
(0.921026 -0.00504528 1.24199e-18)
(0.921934 -0.00426829 1.41375e-18)
(0.928945 -0.00567025 1.49472e-18)
(0.9322 -0.00551692 1.82248e-18)
(0.937843 -0.0063681 2.25499e-18)
(0.941514 -0.00606546 2.40479e-18)
(0.946868 -0.00524772 3.03614e-18)
(0.950503 -0.00573717 3.46482e-18)
(0.956009 -0.00553132 4.05352e-18)
(0.958902 -0.00514076 4.56952e-18)
(0.960502 -0.00460674 5.26896e-18)
(0.962372 0.00145402 5.81342e-18)
(0.939471 0.00418351 6.68219e-18)
(0.914608 0.0167298 6.83267e-18)
(0.842625 0.0411427 6.82547e-18)
(0.728073 0.0795328 6.09825e-18)
(0.596537 0.158597 3.73941e-18)
(0.474563 0.209963 3.20235e-18)
(0.390695 0.239516 3.36773e-19)
(0.329833 0.238206 1.05415e-18)
(0.280146 0.210642 -1.64699e-18)
(0.235408 0.186146 1.9889e-18)
(0.193585 0.164241 -1.04538e-18)
(0.155692 0.1579 6.03996e-18)
(0.120245 0.147762 3.34499e-18)
(0.0876768 0.151603 1.80551e-17)
(0.0536026 0.146749 1.87983e-17)
(0.0275882 0.167513 2.58828e-17)
(1.50287 4.18723e-07 2.63615e-22)
(1.5028 -4.52325e-06 1.62325e-21)
(1.50287 -3.25453e-06 1.02739e-22)
(1.50296 -2.76579e-06 1.27812e-21)
(1.50308 -1.87169e-06 1.1745e-21)
(1.50323 -3.78262e-07 1.78611e-21)
(1.50342 -1.31639e-06 1.45278e-21)
(1.50363 1.67152e-06 1.85483e-21)
(1.50385 4.16132e-06 1.86576e-21)
(1.50409 -2.32195e-06 6.6095e-22)
(1.50438 3.38654e-06 -1.46619e-21)
(1.50466 1.55086e-05 3.84091e-21)
(1.50494 -4.50965e-06 2.7417e-21)
(1.50528 -5.37934e-06 3.88607e-21)
(1.50561 2.79951e-05 2.73537e-21)
(1.50593 2.65464e-05 3.98704e-21)
(1.50625 -2.18021e-05 7.70004e-21)
(1.50668 -3.36827e-05 8.6271e-21)
(1.507 4.1336e-05 7.54423e-21)
(1.50728 7.01493e-05 2.50424e-21)
(1.5076 6.76865e-06 4.89523e-21)
(1.50797 -5.22344e-05 5.99044e-21)
(1.50839 -5.41285e-05 4.42441e-21)
(1.50864 3.71288e-05 6.5976e-21)
(1.50888 0.000114248 9.277e-21)
(1.50912 0.000104943 1.05074e-20)
(1.50933 2.4607e-05 9.29443e-21)
(1.50946 -2.37756e-05 7.09455e-21)
(1.50954 -1.67712e-05 8.27022e-21)
(1.50958 3.19517e-05 1.0469e-20)
(1.50961 8.94037e-05 9.38198e-21)
(1.50966 0.000153134 7.20717e-21)
(1.50948 0.000198252 8.25846e-21)
(1.50935 0.000224096 7.03325e-21)
(1.50904 0.00025318 6.58744e-21)
(1.50863 0.000266973 9.02579e-21)
(1.50808 0.000281707 8.1509e-21)
(1.50721 0.000330273 6.6366e-21)
(1.50609 0.0003904 8.05805e-21)
(1.50495 0.000458579 5.73728e-21)
(1.50333 0.000618111 8.54062e-21)
(1.50216 0.000827238 3.40679e-21)
(1.49779 0.00136146 2.29819e-20)
(1.49552 0.00480248 3.6807e-19)
(1.47694 0.0412041 4.38676e-18)
(0.963587 0.112563 1.01452e-17)
(0.54934 0.0788171 9.04667e-18)
(0.513744 0.0208713 7.08832e-18)
(0.506603 -0.0379256 4.09311e-18)
(0.543853 -0.0680366 2.2727e-18)
(0.564314 -0.0877092 9.42816e-19)
(0.598909 -0.0914847 2.69435e-19)
(0.625981 -0.0885362 -4.33622e-20)
(0.652595 -0.0833803 -7.97424e-20)
(0.679038 -0.0765927 -1.05986e-19)
(0.703451 -0.0715421 -1.82321e-19)
(0.725881 -0.064864 -1.25959e-19)
(0.746948 -0.0590881 -7.53386e-20)
(0.766319 -0.051627 -1.90256e-19)
(0.784865 -0.0458834 -2.63231e-19)
(0.798948 -0.0402026 -8.81429e-20)
(0.815692 -0.0344316 -1.50162e-19)
(0.827965 -0.0303504 -3.26353e-19)
(0.83865 -0.0255196 -1.56129e-19)
(0.84842 -0.0228541 -2.10583e-20)
(0.856058 -0.019838 -3.09194e-19)
(0.863312 -0.0173604 -2.69933e-19)
(0.868694 -0.0152602 8.33419e-20)
(0.873308 -0.0134501 -8.88237e-21)
(0.877169 -0.0123119 -3.82881e-19)
(0.880317 -0.0110628 -1.37032e-19)
(0.883266 -0.0102354 7.30645e-20)
(0.885589 -0.00946443 -4.35627e-20)
(0.888431 -0.00917104 -2.05158e-19)
(0.891634 -0.00980446 -2.05359e-19)
(0.893512 -0.00918688 -1.16379e-19)
(0.895519 -0.00899896 -4.59081e-20)
(0.89973 -0.00984735 -5.97158e-20)
(0.901871 -0.00945334 -1.24088e-19)
(0.903683 -0.00910686 -6.98617e-20)
(0.907953 -0.00990745 -1.50723e-22)
(0.909939 -0.00935418 8.47951e-20)
(0.910849 -0.00819653 1.33086e-19)
(0.911573 -0.0083012 1.59513e-19)
(0.916744 -0.00941212 2.37614e-19)
(0.919227 -0.00942723 3.7756e-19)
(0.920519 -0.00881469 5.0454e-19)
(0.921731 -0.00784941 6.37796e-19)
(0.920109 -0.00794081 7.64083e-19)
(0.928192 -0.00991878 8.23394e-19)
(0.929765 -0.0097297 9.8528e-19)
(0.930532 -0.00813094 1.22371e-18)
(0.931678 -0.00738303 1.41029e-18)
(0.937955 -0.00834048 1.5282e-18)
(0.940891 -0.0079033 1.86211e-18)
(0.945201 -0.0088759 2.19707e-18)
(0.948459 -0.00844438 2.4103e-18)
(0.952919 -0.00658489 2.96828e-18)
(0.95466 -0.00694706 3.47475e-18)
(0.958054 -0.00691811 3.94815e-18)
(0.958251 -0.00483517 4.51538e-18)
(0.949518 -0.0026772 5.18657e-18)
(0.942395 0.00846427 5.7065e-18)
(0.890117 0.0214917 6.38231e-18)
(0.82215 0.0447165 6.12974e-18)
(0.705224 0.0947703 5.3739e-18)
(0.570157 0.169796 4.39008e-18)
(0.450233 0.230995 2.04823e-18)
(0.371155 0.267609 1.96438e-18)
(0.318282 0.282185 -2.31083e-19)
(0.274721 0.270184 6.18016e-19)
(0.240786 0.241958 -1.78424e-18)
(0.205956 0.217777 1.48497e-18)
(0.172262 0.196758 -1.49783e-18)
(0.139719 0.189501 4.61061e-18)
(0.109372 0.178976 2.35394e-18)
(0.0811257 0.183849 1.23446e-17)
(0.0515079 0.179944 1.22608e-17)
(0.030534 0.200208 1.52636e-17)
(1.50286 3.32165e-07 1.03453e-21)
(1.5028 -5.24213e-06 4.3964e-22)
(1.50287 -3.95569e-06 1.72347e-21)
(1.50295 -3.63396e-06 -1.99794e-21)
(1.50308 -1.49141e-06 -4.64931e-22)
(1.50323 -1.07822e-06 -6.19136e-22)
(1.50342 -1.80324e-06 1.91431e-21)
(1.50363 1.66433e-06 4.97761e-21)
(1.50385 3.69286e-06 -2.97656e-21)
(1.5041 -1.58628e-06 1.08343e-21)
(1.50437 4.01841e-06 4.60104e-21)
(1.50465 1.42845e-05 -1.02212e-21)
(1.50496 -1.00152e-06 1.83021e-21)
(1.50527 -5.74409e-06 6.96044e-21)
(1.50558 2.93171e-05 4.41656e-21)
(1.50595 3.17098e-05 4.97738e-21)
(1.50629 -1.84999e-05 -4.62859e-22)
(1.50662 -3.21495e-05 1.03785e-20)
(1.50692 3.21784e-05 4.50277e-21)
(1.50733 8.87718e-05 4.21505e-21)
(1.5077 1.68935e-05 5.60416e-21)
(1.50802 -6.12701e-05 8.45518e-21)
(1.50826 -4.54387e-05 1.11524e-20)
(1.50848 4.56907e-05 9.86959e-21)
(1.50886 0.000107732 1.22162e-20)
(1.50929 7.90617e-05 1.30565e-20)
(1.50952 1.23385e-05 1.13033e-20)
(1.50961 3.63624e-06 1.01371e-20)
(1.50965 3.1216e-06 8.70535e-21)
(1.50964 4.81875e-05 6.89348e-21)
(1.50966 8.81728e-05 7.50436e-21)
(1.5098 0.000154691 6.0742e-21)
(1.50997 0.000239376 6.95306e-21)
(1.50993 0.000240375 6.54845e-21)
(1.50975 0.000250271 6.54588e-21)
(1.50944 0.000298521 6.56541e-21)
(1.50906 0.000320121 6.87423e-21)
(1.50846 0.000422729 6.03142e-21)
(1.50757 0.000525664 6.10635e-21)
(1.50652 0.000667348 4.134e-21)
(1.50539 0.000839965 7.18921e-21)
(1.50447 0.00115604 1.04969e-21)
(1.50135 0.002114 1.08988e-20)
(1.50002 0.00628231 3.32031e-19)
(1.48029 0.0518917 4.03651e-18)
(1.03565 0.153344 9.8366e-18)
(0.565504 0.103441 9.48227e-18)
(0.523605 0.0202067 7.6102e-18)
(0.522987 -0.0574761 4.57483e-18)
(0.56694 -0.0988012 2.7479e-18)
(0.593645 -0.119637 1.36777e-18)
(0.631916 -0.124692 5.54839e-19)
(0.661401 -0.117971 1.99436e-19)
(0.689127 -0.108343 -3.89356e-21)
(0.717456 -0.0977186 -3.90402e-21)
(0.74235 -0.0903082 -8.36975e-20)
(0.764332 -0.0795436 -1.69119e-19)
(0.785516 -0.0722235 -2.13681e-19)
(0.803056 -0.0615154 -1.81625e-19)
(0.821681 -0.0537621 -2.14583e-19)
(0.833538 -0.0455386 -2.2482e-19)
(0.850839 -0.0389541 -1.81414e-19)
(0.860846 -0.0341083 -1.95468e-19)
(0.872155 -0.0276554 -2.27673e-19)
(0.880898 -0.0243171 -1.72418e-19)
(0.886629 -0.0200349 -2.23735e-19)
(0.893588 -0.0173291 -2.74573e-19)
(0.898196 -0.0148393 -1.88846e-19)
(0.902162 -0.0131403 -1.14557e-19)
(0.905173 -0.0119109 -2.42951e-19)
(0.90758 -0.010883 -1.65711e-19)
(0.909747 -0.0102357 -1.37316e-19)
(0.911534 -0.00956691 -1.33866e-19)
(0.913689 -0.00937482 -1.49907e-19)
(0.915825 -0.00970129 -1.705e-19)
(0.91738 -0.00905235 -1.58466e-19)
(0.918867 -0.00900103 -1.46025e-19)
(0.921204 -0.00967491 -1.4383e-19)
(0.9233 -0.0090665 -1.33142e-19)
(0.924646 -0.00881485 -9.69169e-20)
(0.927256 -0.00940522 -5.86659e-20)
(0.928895 -0.00886088 -4.7924e-21)
(0.92991 -0.00781977 5.93585e-20)
(0.929923 -0.00799898 1.20618e-19)
(0.934025 -0.00915034 1.82518e-19)
(0.936211 -0.00951406 3.16616e-19)
(0.937068 -0.00886324 4.17279e-19)
(0.937962 -0.00784269 5.87495e-19)
(0.936464 -0.00816476 6.66498e-19)
(0.942862 -0.00993531 7.63988e-19)
(0.943995 -0.00959533 9.27253e-19)
(0.944568 -0.00787609 1.09173e-18)
(0.945369 -0.00744569 1.42226e-18)
(0.949576 -0.0084651 1.61451e-18)
(0.952082 -0.00820767 1.80823e-18)
(0.954587 -0.00930625 1.99194e-18)
(0.956288 -0.0084797 2.24443e-18)
(0.960874 -0.00683454 2.7972e-18)
(0.957034 -0.00836141 3.52538e-18)
(0.954808 -0.00697992 3.89727e-18)
(0.948295 -0.000404143 4.50315e-18)
(0.91917 0.00702414 4.99573e-18)
(0.885704 0.0256238 5.37629e-18)
(0.792271 0.0590641 5.60386e-18)
(0.67562 0.106553 4.85457e-18)
(0.543803 0.184331 3.43859e-18)
(0.42696 0.244562 2.74182e-18)
(0.352761 0.286421 1.01624e-18)
(0.303064 0.306895 1.18941e-18)
(0.267003 0.310072 -5.52122e-19)
(0.236179 0.293737 2.81437e-19)
(0.211618 0.266561 -1.77544e-18)
(0.183035 0.243911 9.80456e-19)
(0.155481 0.223699 -1.68729e-18)
(0.127516 0.216523 3.24156e-18)
(0.101402 0.206501 1.79773e-18)
(0.0770559 0.212029 7.04646e-18)
(0.0510397 0.209553 6.68537e-18)
(0.0340985 0.229159 7.76345e-18)
(1.50286 2.78067e-07 1.2022e-21)
(1.50279 -5.75106e-06 -3.01321e-22)
(1.50287 -4.09264e-06 1.41142e-21)
(1.50295 -3.25333e-06 -2.64905e-21)
(1.50308 -1.99331e-06 4.05661e-21)
(1.50323 -1.56671e-06 4.60545e-21)
(1.50341 -1.98751e-06 2.50163e-21)
(1.50362 1.35994e-06 8.39257e-21)
(1.50384 4.6141e-06 1.755e-21)
(1.5041 -1.73017e-06 3.13399e-21)
(1.50436 6.95259e-06 5.19936e-21)
(1.50464 1.53269e-05 9.21322e-21)
(1.50497 9.11417e-07 1.35117e-20)
(1.50526 -4.08808e-06 4.33375e-21)
(1.50554 3.02067e-05 1.25274e-21)
(1.50598 3.23442e-05 7.91909e-21)
(1.50632 -1.72569e-05 1.32426e-20)
(1.50658 -1.48046e-05 1.01725e-20)
(1.50683 3.41731e-05 8.8999e-21)
(1.50738 6.94636e-05 1.8213e-20)
(1.50781 2.31871e-05 1.42681e-20)
(1.50806 -5.27682e-05 1.16279e-20)
(1.50821 -7.46262e-06 1.18273e-20)
(1.50833 4.79842e-05 1.24365e-20)
(1.50886 9.78092e-05 6.93651e-21)
(1.50941 6.87034e-05 7.24615e-21)
(1.50963 3.66768e-05 8.12979e-21)
(1.50975 3.34731e-05 1.06718e-20)
(1.50978 2.1661e-05 8.67626e-21)
(1.50972 4.42417e-05 5.8894e-21)
(1.50975 8.53364e-05 7.02363e-21)
(1.50994 0.000144172 7.68006e-21)
(1.51043 0.000226052 7.20553e-21)
(1.51054 0.000255 6.91757e-21)
(1.5105 0.000285469 5.63648e-21)
(1.51035 0.000331933 4.86814e-21)
(1.51013 0.000363904 5.73993e-21)
(1.50972 0.000480242 5.39539e-21)
(1.50909 0.000682124 6.18554e-21)
(1.50862 0.000861283 4.50972e-21)
(1.50825 0.00113578 6.70868e-21)
(1.50779 0.00137694 2.60254e-22)
(1.50732 0.0025583 3.18742e-21)
(1.50684 0.00706048 2.49613e-19)
(1.48941 0.0577344 3.36724e-18)
(1.15051 0.183216 1.00618e-17)
(0.597344 0.126617 1.11816e-17)
(0.537042 0.0118068 9.27763e-18)
(0.564075 -0.0846795 5.59669e-18)
(0.605642 -0.137438 3.68122e-18)
(0.644674 -0.155355 2.36062e-18)
(0.684698 -0.156974 1.1028e-18)
(0.714694 -0.145014 5.63293e-19)
(0.743886 -0.133242 2.15051e-19)
(0.771364 -0.119074 4.47186e-20)
(0.794701 -0.107213 -7.16356e-20)
(0.813928 -0.0935608 -1.25946e-19)
(0.833439 -0.0833235 -2.55976e-19)
(0.848181 -0.0710729 -2.91618e-19)
(0.865036 -0.0620595 -2.87801e-19)
(0.873973 -0.0516705 -2.81527e-19)
(0.89045 -0.0444058 -2.03573e-19)
(0.895542 -0.0376751 -1.90963e-19)
(0.909743 -0.0317713 -2.05018e-19)
(0.913759 -0.0275319 -2.34719e-19)
(0.920705 -0.0224064 -2.65016e-19)
(0.925565 -0.0195567 -3.09485e-19)
(0.928976 -0.0166764 -3.01442e-19)
(0.932235 -0.0150872 -2.41914e-19)
(0.934414 -0.0137462 -2.71068e-19)
(0.935947 -0.0125493 -2.25296e-19)
(0.937125 -0.0116216 -2.04228e-19)
(0.938205 -0.0110617 -1.84234e-19)
(0.939348 -0.0110203 -1.62791e-19)
(0.940631 -0.0112233 -1.67686e-19)
(0.941977 -0.0108118 -1.60189e-19)
(0.942773 -0.0105931 -1.52396e-19)
(0.943843 -0.0109449 -1.44731e-19)
(0.945693 -0.010668 -1.39223e-19)
(0.946249 -0.0105329 -1.09379e-19)
(0.947534 -0.010869 -7.94872e-20)
(0.948855 -0.0104605 -2.65538e-20)
(0.949664 -0.00983923 4.22598e-20)
(0.948887 -0.00985562 1.02462e-19)
(0.951757 -0.0109788 1.66069e-19)
(0.953093 -0.0115047 2.8508e-19)
(0.953496 -0.0109183 3.8357e-19)
(0.954159 -0.010037 5.71458e-19)
(0.952119 -0.00997105 6.65561e-19)
(0.95636 -0.0111723 7.33979e-19)
(0.957293 -0.0113727 9.31702e-19)
(0.957792 -0.0103131 1.13199e-18)
(0.957508 -0.00880683 1.37858e-18)
(0.959223 -0.00930845 1.57267e-18)
(0.961831 -0.00909725 1.79717e-18)
(0.960873 -0.0100371 1.77554e-18)
(0.959511 -0.0101491 2.39148e-18)
(0.963341 -0.00684463 2.67737e-18)
(0.947563 -0.00593627 3.41709e-18)
(0.934566 -0.000214138 3.78981e-18)
(0.912318 0.0146137 4.32716e-18)
(0.851749 0.0334906 4.68603e-18)
(0.766734 0.0645411 4.65799e-18)
(0.643981 0.131324 4.1789e-18)
(0.516063 0.201775 3.36139e-18)
(0.406477 0.261321 1.92691e-18)
(0.337907 0.302899 1.54875e-18)
(0.291738 0.328077 3.75636e-19)
(0.258942 0.33747 6.78223e-19)
(0.230053 0.33047 -7.4694e-19)
(0.20918 0.309657 6.7053e-20)
(0.18725 0.284955 -1.42903e-18)
(0.164239 0.263641 5.97516e-19)
(0.140949 0.246092 -1.72243e-18)
(0.117438 0.239598 2.22842e-18)
(0.095177 0.230784 1.10047e-18)
(0.0743703 0.237089 3.43409e-18)
(0.0513271 0.236317 3.19347e-18)
(0.0380074 0.254767 3.58685e-18)
(1.50285 2.36687e-07 -2.35409e-21)
(1.50279 -6.22081e-06 -2.20129e-21)
(1.50286 -4.63825e-06 -7.61452e-23)
(1.50295 -3.81475e-06 -5.70831e-21)
(1.50307 -2.76707e-06 -1.06689e-21)
(1.50323 -1.92697e-06 4.4035e-21)
(1.50341 -1.47201e-06 5.23393e-21)
(1.50361 1.78713e-06 -1.66007e-21)
(1.50383 4.55249e-06 4.02509e-21)
(1.50411 -8.41838e-07 3.52898e-21)
(1.50436 9.18794e-06 7.67016e-21)
(1.50463 1.67725e-05 1.08093e-20)
(1.50499 2.22752e-06 1.96032e-20)
(1.50525 7.04588e-06 2.88341e-20)
(1.50551 2.83048e-05 2.80841e-20)
(1.506 2.76875e-05 1.78109e-20)
(1.50634 -1.18988e-05 2.18724e-20)
(1.50657 8.06518e-06 1.33979e-20)
(1.50677 3.42772e-05 1.8617e-20)
(1.5074 5.16731e-05 2.24179e-20)
(1.50788 1.62155e-05 1.27894e-20)
(1.50809 -3.27052e-05 1.06824e-20)