/*--------------------------------*- C++ -*----------------------------------*\
| =========                 |                                                 |
| \\      /  F ield         | OpenFOAM: The Open Source CFD Toolbox           |
|  \\    /   O peration     | Version:  2.2.x                                 |
|   \\  /    A nd           | Web:      www.OpenFOAM.org                      |
|    \\/     M anipulation  |                                                 |
\*---------------------------------------------------------------------------*/
FoamFile
{
    version     2.0;
    format      ascii;
    class       volVectorField;
    location    "1.7";
    object      U;
}
// * * * * * * * * * * * * * * * * * * * * * * * * * * * * * * * * * * * * * //

dimensions      [0 1 -1 0 0 0 0];

internalField   nonuniform List<vector> 
14161
(
(1.50223 9.63342e-07 4.11009e-22)
(1.50218 -1.7426e-06 4.21205e-22)
(1.50226 -2.96798e-07 9.24794e-22)
(1.50234 -4.39854e-07 4.11106e-22)
(1.50247 6.2581e-08 3.74235e-22)
(1.50264 4.70117e-07 1.12395e-22)
(1.50281 -5.54884e-07 1.00208e-21)
(1.50303 -4.36355e-07 6.03748e-22)
(1.50329 3.6831e-07 1.4287e-21)
(1.50353 6.32431e-07 1.16316e-21)
(1.50381 -2.17234e-07 1.76068e-21)
(1.50415 1.52483e-08 1.88234e-21)
(1.50447 -4.54104e-07 2.17236e-21)
(1.50485 4.07433e-06 2.70222e-21)
(1.50517 4.46525e-06 2.94613e-21)
(1.50547 -4.01661e-06 3.66153e-21)
(1.50601 -7.14146e-06 4.52368e-21)
(1.5064 1.27685e-05 5.12069e-21)
(1.50668 9.2839e-06 5.94533e-21)
(1.50692 -8.87741e-06 5.98729e-21)
(1.50765 -1.85978e-05 6.83252e-21)
(1.50813 6.83059e-06 7.35683e-21)
(1.50836 2.50006e-05 7.94044e-21)
(1.50843 1.28404e-05 8.22007e-21)
(1.50853 -1.63294e-05 8.36434e-21)
(1.50942 -2.00499e-05 9.56337e-21)
(1.50981 2.29106e-06 9.73043e-21)
(1.50995 2.11047e-05 9.98978e-21)
(1.51006 1.66823e-05 1.07377e-20)
(1.50998 2.38788e-05 1.11348e-20)
(1.50996 2.30586e-06 1.13092e-20)
(1.51004 -1.23047e-05 1.13903e-20)
(1.51027 -2.82317e-06 1.16803e-20)
(1.51024 1.8288e-05 1.19848e-20)
(1.51014 3.43746e-05 1.20489e-20)
(1.50986 3.40229e-05 1.2435e-20)
(1.5093 6.01513e-05 1.25467e-20)
(1.50811 7.23941e-05 1.17822e-20)
(1.50694 8.27401e-05 1.24402e-20)
(1.50571 7.66208e-05 1.62047e-20)
(1.50413 6.58348e-05 -3.16506e-21)
(1.5025 6.94169e-05 4.20456e-20)
(1.49992 -2.56056e-05 -1.28753e-20)
(1.49838 -1.63337e-05 3.74399e-20)
(1.49573 -0.000185111 -4.28344e-20)
(1.49432 0.000433684 9.34871e-19)
(1.44168 0.00382668 1.21386e-18)
(0.703087 0.00744635 1.15251e-17)
(0.528578 0.00635436 1.04397e-17)
(0.508597 0.00142177 7.32162e-18)
(0.511559 -0.00335462 4.87613e-18)
(0.527728 -0.00566332 3.19433e-18)
(0.543149 -0.00960711 7.64322e-19)
(0.56938 -0.0103676 3.13662e-19)
(0.592386 -0.0102189 -3.25865e-19)
(0.61772 -0.0101456 -6.95192e-20)
(0.641274 -0.00975371 -1.00597e-19)
(0.664608 -0.00874035 -1.3141e-19)
(0.687009 -0.0080697 -9.12482e-20)
(0.707513 -0.0070662 -8.84383e-20)
(0.727481 -0.00616888 -1.79068e-19)
(0.746147 -0.00555004 -2.84927e-19)
(0.762955 -0.00496747 -9.563e-20)
(0.779153 -0.00444427 6.58081e-20)
(0.793504 -0.00388363 -2.82962e-19)
(0.806658 -0.00349742 -5.67276e-19)
(0.817992 -0.00279686 -5.12163e-20)
(0.82726 -0.0020962 2.43517e-19)
(0.835305 -0.00189046 -3.20771e-19)
(0.842117 -0.00169499 -7.0915e-19)
(0.847816 -0.00146416 -1.4357e-19)
(0.851834 -0.000973067 2.3075e-19)
(0.855179 -0.000862182 -1.31874e-19)
(0.857734 -0.00111777 -3.99115e-19)
(0.859885 -0.00162559 -2.5407e-19)
(0.861473 -0.00168084 2.67993e-21)
(0.861974 -0.00204104 7.39079e-20)
(0.869957 -0.00221388 -4.16147e-20)
(0.871933 -0.00206028 -1.26358e-19)
(0.872913 -0.00212243 1.81221e-20)
(0.881804 -0.0022318 1.2167e-19)
(0.884726 -0.00217953 1.92159e-19)
(0.886993 -0.00221336 2.37016e-19)
(0.888727 -0.00178406 2.74467e-19)
(0.886081 -0.00179152 4.55661e-19)
(0.896218 -0.00191965 3.99491e-19)
(0.899118 -0.00184325 5.67516e-19)
(0.902239 -0.00187481 9.12379e-19)
(0.903803 -0.00164793 1.11719e-18)
(0.902927 -0.00153513 1.42175e-18)
(0.912474 -0.00191751 1.47623e-18)
(0.914377 -0.00155436 1.48047e-18)
(0.916362 -0.00153936 2.04228e-18)
(0.92521 -0.0020443 1.89178e-18)
(0.929744 -0.00151964 2.27305e-18)
(0.93438 -0.00153252 2.8095e-18)
(0.94379 -0.00163992 3.05657e-18)
(0.949831 -0.00170956 3.26995e-18)
(0.957015 -0.00160992 4.07285e-18)
(0.964721 -0.00146341 4.65602e-18)
(0.970522 -0.00158492 5.22521e-18)
(0.976522 -3.99632e-05 5.78124e-18)
(0.976938 0.00104696 6.11519e-18)
(0.97435 0.00462909 6.4146e-18)
(0.943884 0.0128226 6.52081e-18)
(0.861232 0.0288229 6.00281e-18)
(0.741045 0.0414985 3.74351e-18)
(0.607523 0.0499587 1.51244e-18)
(0.499043 0.049555 7.04392e-19)
(0.413476 0.0414958 1.07632e-19)
(0.347568 0.0335204 4.0093e-19)
(0.293067 0.0277139 -1.20046e-19)
(0.247447 0.0246891 4.91968e-19)
(0.205826 0.0219076 -1.70432e-19)
(0.167273 0.0209811 1.14743e-18)
(0.129486 0.0201409 2.26112e-19)
(0.093814 0.0207358 3.9422e-18)
(0.0581985 0.0175967 4.01722e-18)
(0.0263499 0.0266669 9.90618e-18)
(1.50223 1.04665e-08 4.1185e-22)
(1.50218 -2.01052e-06 7.33241e-22)
(1.50225 -3.41157e-07 1.15372e-21)
(1.50234 -4.87135e-07 3.01004e-22)
(1.50247 -2.44255e-07 4.51366e-22)
(1.50264 1.26351e-07 3.82829e-22)
(1.50281 -4.48412e-07 7.11846e-22)
(1.50303 -1.25196e-06 8.39282e-22)
(1.50329 1.09555e-06 1.60942e-21)
(1.50353 1.6773e-06 1.26602e-21)
(1.50381 8.62941e-07 1.76727e-21)
(1.50415 1.39237e-07 1.85767e-21)
(1.50447 -9.70152e-07 2.3373e-21)
(1.50485 6.4986e-06 2.11033e-21)
(1.50517 1.0732e-05 3.31596e-21)
(1.50548 -1.06658e-05 4.34049e-21)
(1.50601 -9.43278e-06 5.00599e-21)
(1.50639 2.14337e-05 5.3158e-21)
(1.50667 1.50891e-05 6.34753e-21)
(1.50695 -1.09699e-05 6.35058e-21)
(1.50767 -3.61826e-05 6.92346e-21)
(1.5081 5.5635e-06 7.32828e-21)
(1.50833 4.60877e-05 7.86156e-21)
(1.50842 1.99234e-05 8.23021e-21)
(1.5086 -9.5159e-06 8.90152e-21)
(1.50944 -4.72974e-05 9.29472e-21)
(1.5098 -1.86155e-07 9.3676e-21)
(1.50996 4.29331e-05 1.03134e-20)
(1.51004 5.49395e-05 1.04021e-20)
(1.50999 3.04386e-05 1.1319e-20)
(1.51 1.46039e-05 1.10317e-20)
(1.51011 -2.12485e-06 1.16877e-20)
(1.51032 -4.61733e-06 1.18003e-20)
(1.51025 2.20404e-05 1.19961e-20)
(1.51013 6.08189e-05 1.21598e-20)
(1.50986 8.81408e-05 1.27341e-20)
(1.50922 0.000104972 1.24945e-20)
(1.50809 0.000115516 1.19291e-20)
(1.50717 0.000113244 1.31703e-20)
(1.50597 0.000157525 1.45597e-20)
(1.50438 0.000181247 7.43015e-21)
(1.50274 0.000207187 1.84092e-20)
(1.50073 0.000199934 1.82064e-21)
(1.49857 -2.06645e-05 1.99432e-20)
(1.49492 -0.000140239 -4.92177e-20)
(1.49342 0.00246655 8.81274e-19)
(1.43703 0.0167031 6.48245e-18)
(0.697544 0.0242239 1.05722e-17)
(0.524902 0.0192934 9.27985e-18)
(0.506256 0.00114879 6.53986e-18)
(0.5095 -0.0119234 2.96956e-18)
(0.528723 -0.0171917 1.17081e-18)
(0.544155 -0.0261724 -3.42474e-19)
(0.570121 -0.0284517 -2.94312e-19)
(0.592782 -0.0277241 -3.59484e-19)
(0.617281 -0.0260257 -2.56832e-19)
(0.640432 -0.0244471 -2.49142e-19)
(0.66262 -0.0220823 -2.67441e-19)
(0.684902 -0.0197454 -2.28938e-19)
(0.705822 -0.017638 -1.99102e-19)
(0.726064 -0.0154179 -2.50652e-19)
(0.74534 -0.0132892 -3.51554e-19)
(0.762744 -0.0116406 -2.00285e-19)
(0.779343 -0.0103722 -5.49655e-21)
(0.794323 -0.00889238 -2.73937e-19)
(0.807617 -0.00776782 -5.42036e-19)
(0.819375 -0.00661682 -1.562e-19)
(0.829148 -0.0052477 1.86199e-19)
(0.837336 -0.0045004 -2.65306e-19)
(0.843928 -0.00429036 -6.62407e-19)
(0.849564 -0.00377032 -2.51799e-19)
(0.854081 -0.00311527 1.97751e-19)
(0.858105 -0.00268201 -6.30982e-20)
(0.861063 -0.00245273 -4.37386e-19)
(0.863267 -0.00226001 -2.54673e-19)
(0.864621 -0.00204839 1.13339e-20)
(0.865134 -0.00263577 7.12649e-20)
(0.873035 -0.00310848 -4.48842e-20)
(0.87466 -0.00267125 -1.23673e-19)
(0.875615 -0.00267998 1.77082e-20)
(0.884518 -0.00338483 1.02786e-19)
(0.88737 -0.00329919 1.92755e-19)
(0.88918 -0.00298586 2.37598e-19)
(0.890587 -0.00233131 2.96494e-19)
(0.888212 -0.00240956 4.37891e-19)
(0.898497 -0.00326124 4.25634e-19)
(0.901415 -0.00296529 5.56748e-19)
(0.904432 -0.00270839 8.91034e-19)
(0.905796 -0.002031 1.1312e-18)
(0.905011 -0.00169954 1.41547e-18)
(0.91443 -0.00253238 1.42116e-18)
(0.916252 -0.00200529 1.53441e-18)
(0.918608 -0.00182814 2.02056e-18)
(0.927257 -0.00323813 1.95318e-18)
(0.931572 -0.00241612 2.29108e-18)
(0.936356 -0.00189421 2.80998e-18)
(0.94571 -0.00285143 3.0774e-18)
(0.951841 -0.00248492 3.3831e-18)
(0.958629 -0.00304112 4.14966e-18)
(0.965631 -0.00189222 4.70169e-18)
(0.970009 -0.00187358 5.24509e-18)
(0.973207 0.000408823 5.67714e-18)
(0.967384 0.00216356 6.15846e-18)
(0.953896 0.0081047 6.42777e-18)
(0.899127 0.0203562 6.35438e-18)
(0.792276 0.0496072 5.36657e-18)
(0.663924 0.0885206 3.06363e-18)
(0.537187 0.103793 1.14999e-18)
(0.439449 0.0928361 5.35511e-19)
(0.366873 0.078266 3.93209e-20)
(0.310211 0.0670306 3.63025e-19)
(0.262179 0.0589475 -9.60541e-20)
(0.220963 0.0548067 5.1492e-19)
(0.183827 0.0513503 -5.08964e-20)
(0.149422 0.0528783 1.3101e-18)
(0.115576 0.0510254 6.74006e-19)
(0.0837132 0.0537811 4.11444e-18)
(0.0505369 0.051275 4.25343e-18)
(0.0207382 0.0633311 8.06016e-18)
(1.50223 3.44609e-07 4.61128e-22)
(1.50218 -2.64284e-06 2.26401e-22)
(1.50225 -9.92767e-07 5.21428e-22)
(1.50234 -9.65415e-07 7.43e-22)
(1.50247 -8.99679e-07 6.70443e-22)
(1.50264 -3.08345e-07 4.24426e-22)
(1.50281 -4.53111e-07 7.02287e-22)
(1.50303 -1.78175e-06 9.74895e-22)
(1.50328 1.75589e-06 1.87927e-21)
(1.50353 1.31258e-06 1.552e-21)
(1.50381 1.87407e-06 2.32226e-21)
(1.50415 -1.10715e-07 1.43028e-21)
(1.50447 -1.71662e-06 2.7366e-21)
(1.50484 1.0635e-05 4.0101e-21)
(1.50517 1.60356e-05 5.42e-21)
(1.50549 -1.43653e-05 5.35955e-21)
(1.506 -1.6187e-05 5.86554e-21)
(1.50636 3.24094e-05 6.34346e-21)
(1.50668 3.26451e-05 7.39372e-21)
(1.50701 -2.56946e-05 7.34303e-21)
(1.50765 -4.82186e-05 6.96743e-21)
(1.50803 1.10606e-05 7.68751e-21)
(1.50828 7.1998e-05 9.24125e-21)
(1.50847 3.94112e-05 8.50207e-21)
(1.50875 -2.92904e-05 8.09381e-21)
(1.50943 -6.44859e-05 8.78846e-21)
(1.50976 -3.94829e-07 9.25204e-21)
(1.50992 6.36292e-05 1.05969e-20)
(1.51002 8.56806e-05 1.13901e-20)
(1.51005 5.08609e-05 1.19882e-20)
(1.51014 2.43413e-05 1.18674e-20)
(1.51027 -1.3116e-05 1.26029e-20)
(1.51037 1.56732e-05 1.20014e-20)
(1.51025 6.11925e-05 1.30361e-20)
(1.51014 0.00011002 1.26516e-20)
(1.50992 0.000137669 1.32826e-20)
(1.50939 0.000216069 1.3333e-20)
(1.50846 0.000274355 1.30678e-20)
(1.50749 0.000301083 1.39401e-20)
(1.5063 0.000329135 1.4082e-20)
(1.50487 0.000362387 1.06881e-20)
(1.50371 0.000418866 1.59444e-20)
(1.50167 0.000357056 1.04926e-20)
(1.49976 0.000228376 1.14305e-20)
(1.49618 0.000266441 3.4133e-20)
(1.49561 0.00421594 9.38496e-19)
(1.4411 0.029129 6.8313e-18)
(0.700328 0.0478806 1.07406e-17)
(0.521872 0.0321981 9.14782e-18)
(0.506506 0.00257614 6.46976e-18)
(0.506817 -0.0204654 3.13242e-18)
(0.529889 -0.0324967 1.45203e-18)
(0.54789 -0.0458934 -1.97547e-19)
(0.576565 -0.0490317 -2.19103e-19)
(0.601124 -0.0468546 -3.32495e-19)
(0.625981 -0.0435156 -2.93223e-19)
(0.650171 -0.0406321 -2.72771e-19)
(0.671846 -0.0371983 -2.92177e-19)
(0.694938 -0.0341449 -2.63853e-19)
(0.716307 -0.0312636 -2.12807e-19)
(0.735784 -0.0275513 -2.20776e-19)
(0.755093 -0.0243227 -3.25069e-19)
(0.772388 -0.0212537 -2.79086e-19)
(0.788594 -0.0188723 -7.98895e-20)
(0.803246 -0.0163769 -2.07505e-19)
(0.816237 -0.0142716 -4.8792e-19)
(0.827536 -0.0126977 -2.60482e-19)
(0.837083 -0.0104382 8.00327e-20)
(0.844998 -0.00883872 -2.06714e-19)
(0.851008 -0.00808083 -5.84485e-19)
(0.856193 -0.00733565 -2.86667e-19)
(0.860519 -0.00625814 8.50303e-20)
(0.864604 -0.00559236 -5.88462e-20)
(0.867363 -0.00571916 -3.60205e-19)
(0.86944 -0.00547309 -2.38744e-19)
(0.87107 -0.00529679 -4.01941e-20)
(0.871063 -0.0064482 3.78732e-20)
(0.878687 -0.0073378 -4.02829e-20)
(0.880003 -0.00674605 -1.01975e-19)
(0.881022 -0.00668397 1.8907e-20)
(0.88941 -0.00790833 8.66673e-20)
(0.89207 -0.00779398 1.79826e-19)
(0.893659 -0.00700649 2.35807e-19)
(0.894909 -0.00594645 3.08721e-19)
(0.892746 -0.00621706 4.28886e-19)
(0.902263 -0.00765357 4.13663e-19)
(0.905303 -0.00717679 5.7248e-19)
(0.90826 -0.00660095 8.58423e-19)
(0.909589 -0.00536873 1.14537e-18)
(0.909408 -0.00474355 1.39743e-18)
(0.918005 -0.00605732 1.38478e-18)
(0.919914 -0.00541082 1.59404e-18)
(0.922925 -0.00512435 1.96227e-18)
(0.930349 -0.0069539 2.00718e-18)
(0.934712 -0.0058484 2.36525e-18)
(0.939619 -0.00491733 2.78175e-18)
(0.948015 -0.00605207 3.11172e-18)
(0.953477 -0.00525667 3.52278e-18)
(0.959394 -0.00521368 4.10771e-18)
(0.964423 -0.00346514 4.60959e-18)
(0.964732 -0.00284118 5.24483e-18)
(0.963659 0.00273429 5.64058e-18)
(0.941747 0.00852784 6.06533e-18)
(0.906932 0.0271767 6.0966e-18)
(0.809205 0.0581927 5.68863e-18)
(0.688281 0.123809 4.25612e-18)
(0.561544 0.167673 2.5412e-18)
(0.458439 0.177248 9.91314e-19)
(0.384616 0.155374 4.78222e-19)
(0.327048 0.130166 4.86665e-20)
(0.278844 0.111051 3.68827e-19)
(0.236715 0.0971099 -7.51985e-20)
(0.200484 0.0902081 5.2486e-19)
(0.167279 0.0837789 3.18723e-20)
(0.136183 0.0855678 1.27599e-18)
(0.105501 0.082636 8.20006e-19)
(0.0765203 0.0866655 3.90761e-18)
(0.0461194 0.083843 4.19244e-18)
(0.0200168 0.0985699 6.56819e-18)
(1.50223 7.75887e-07 8.04167e-23)
(1.50218 -3.4814e-06 9.23226e-22)
(1.50225 -1.48701e-06 9.75004e-22)
(1.50234 -1.58991e-06 1.0527e-21)
(1.50247 -9.44175e-07 1.51158e-22)
(1.50263 -1.11473e-06 3.23173e-22)
(1.50282 -1.65012e-07 9.41086e-22)
(1.50303 -6.50339e-07 1.27236e-21)
(1.50328 2.20576e-06 2.18961e-21)
(1.50353 2.45306e-06 1.36133e-21)
(1.50381 4.77796e-06 7.07173e-22)
(1.50414 -5.99451e-07 2.18408e-21)
(1.50447 -2.03807e-06 3.63514e-21)
(1.50483 1.55939e-05 4.95105e-21)
(1.50517 1.52699e-05 6.92703e-21)
(1.50552 -1.63894e-05 6.89933e-21)
(1.50597 -1.81592e-05 7.43065e-21)
(1.50632 4.05035e-05 7.57151e-21)
(1.5067 3.77133e-05 6.12428e-21)
(1.5071 -2.69589e-05 1.01253e-20)
(1.50759 -6.34289e-05 1.07214e-20)
(1.50793 3.30252e-05 1.09302e-20)
(1.50823 8.91092e-05 1.04734e-20)
(1.5086 5.54982e-05 1.15935e-20)
(1.50896 -3.88215e-05 1.16175e-20)
(1.50937 -9.11472e-05 1.05272e-20)
(1.50962 -5.32836e-06 1.30032e-20)
(1.50979 7.13011e-05 1.4055e-20)
(1.51004 0.000117417 1.30362e-20)
(1.51025 6.50671e-05 1.19705e-20)
(1.51039 2.40423e-05 1.33229e-20)
(1.51047 4.78803e-06 1.35279e-20)
(1.51048 2.98727e-05 1.38546e-20)
(1.51038 8.73164e-05 1.3764e-20)
(1.51022 0.000110997 1.3948e-20)
(1.51 0.00018254 1.46601e-20)
(1.50957 0.00028363 1.43684e-20)
(1.50892 0.000369476 1.42415e-20)
(1.50822 0.000436217 1.48487e-20)
(1.50725 0.000489093 1.46816e-20)
(1.50607 0.000582508 1.47428e-20)
(1.50498 0.000648203 1.5512e-20)
(1.50276 0.000683132 1.4006e-20)
(1.50075 0.000684275 1.01322e-20)
(1.49672 0.000811626 7.41482e-20)
(1.49604 0.00580695 9.30295e-19)
(1.44806 0.0419573 6.04216e-18)
(0.70147 0.0793642 1.12781e-17)
(0.519222 0.0457934 9.40291e-18)
(0.506724 0.00115326 6.59816e-18)
(0.5114 -0.0327996 3.40047e-18)
(0.538281 -0.0527082 1.88087e-18)
(0.558534 -0.0683951 3.05725e-20)
(0.587434 -0.0738975 -2.73055e-20)
(0.614769 -0.0707745 -1.84657e-19)
(0.642777 -0.0647139 -1.77651e-19)
(0.668977 -0.0587276 -1.9574e-19)
(0.691828 -0.0530895 -2.28712e-19)
(0.715325 -0.0475589 -2.78328e-19)
(0.736797 -0.0428534 -2.63439e-19)
(0.755215 -0.0373568 -1.91429e-19)
(0.773897 -0.033127 -2.50272e-19)
(0.789832 -0.0286386 -3.49341e-19)
(0.805244 -0.0248866 -2.12324e-19)
(0.818435 -0.0214208 -1.68185e-19)
(0.830631 -0.0179591 -3.57929e-19)
(0.840844 -0.01589 -3.58641e-19)
(0.849692 -0.0131567 -1.27522e-19)
(0.857092 -0.0103701 -1.71199e-19)
(0.86254 -0.009084 -4.15848e-19)
(0.867223 -0.00853079 -3.00187e-19)
(0.871178 -0.00800194 -1.11671e-19)
(0.875018 -0.00753968 -1.00762e-19)
(0.877741 -0.00686126 -2.45638e-19)
(0.879731 -0.00610731 -2.20452e-19)
(0.881271 -0.00573251 -1.08231e-19)
(0.88121 -0.00656708 -1.5664e-20)
(0.888462 -0.00750686 -4.60169e-20)
(0.889646 -0.00682229 -6.10517e-20)
(0.890705 -0.00681679 1.04761e-20)
(0.898526 -0.00821644 5.19811e-20)
(0.900965 -0.00801078 1.4617e-19)
(0.902346 -0.00686889 2.3816e-19)
(0.903622 -0.0057318 3.14773e-19)
(0.901329 -0.00621321 4.1259e-19)
(0.909761 -0.00792082 4.17531e-19)
(0.913001 -0.00760391 5.66302e-19)
(0.915788 -0.00695814 8.24924e-19)
(0.917096 -0.00563209 1.14656e-18)
(0.917228 -0.00501402 1.3392e-18)
(0.925002 -0.00628778 1.35563e-18)
(0.926982 -0.00576465 1.61656e-18)
(0.930616 -0.00562279 1.88049e-18)
(0.936446 -0.00707577 2.06094e-18)
(0.940837 -0.00597627 2.42078e-18)
(0.945174 -0.00556946 2.73691e-18)
(0.951113 -0.0065612 3.1751e-18)
(0.955217 -0.00546581 3.67518e-18)
(0.95889 -0.00558349 4.18079e-18)
(0.961588 -0.00167712 4.57834e-18)
(0.949434 -0.000188406 5.2284e-18)
(0.936795 0.00961902 5.53004e-18)
(0.88433 0.0257908 5.79343e-18)
(0.799709 0.0569896 5.34318e-18)
(0.669972 0.120753 4.34996e-18)
(0.544365 0.182923 2.79522e-18)
(0.45041 0.219734 1.73877e-18)
(0.384886 0.223515 7.14591e-19)
(0.335137 0.196607 3.42097e-19)
(0.290404 0.167002 9.17412e-20)
(0.25138 0.145357 3.58937e-19)
(0.215703 0.128874 5.8108e-21)
(0.183209 0.119429 5.34722e-19)
(0.153338 0.111955 9.77995e-20)
(0.124999 0.113954 1.1519e-18)
(0.0972067 0.110422 7.11782e-19)
(0.0711777 0.115889 3.22651e-18)
(0.0436649 0.113256 3.38332e-18)
(0.0215817 0.128972 4.59842e-18)
(1.50223 6.88416e-07 8.66164e-24)
(1.50218 -3.93711e-06 1.43627e-21)
(1.50225 -2.22973e-06 -4.28814e-22)
(1.50234 -2.22975e-06 1.01334e-21)
(1.50247 -1.62892e-06 8.44978e-22)
(1.50262 -7.40734e-07 2.50133e-21)
(1.50282 -1.46496e-06 1.57198e-21)
(1.50303 4.91077e-08 1.52391e-21)
(1.50327 1.12353e-06 2.56541e-21)
(1.50354 1.56343e-06 1.84517e-21)
(1.50382 6.07522e-06 -1.23244e-22)
(1.50413 1.85342e-08 5.77528e-21)
(1.50447 -1.86134e-06 5.49015e-21)
(1.50481 1.87672e-05 6.73411e-21)
(1.50517 1.83669e-05 5.3626e-21)
(1.50556 -1.71555e-05 7.28908e-21)
(1.50593 -1.67934e-05 1.11209e-20)
(1.50627 3.78403e-05 1.15256e-20)
(1.50676 3.95116e-05 1.09012e-20)
(1.50718 -3.06424e-05 7.05045e-21)
(1.50751 -4.77191e-05 9.2099e-21)
(1.50781 3.36973e-05 1.02747e-20)
(1.50823 9.05846e-05 9.07371e-21)
(1.50877 4.61139e-05 1.03343e-20)
(1.5091 -5.69916e-05 1.25182e-20)
(1.50933 -5.49549e-05 1.42947e-20)
(1.50946 3.88817e-05 1.3608e-20)
(1.50961 8.5292e-05 1.23603e-20)
(1.51019 0.000107476 1.42065e-20)
(1.5105 5.02883e-05 1.62096e-20)
(1.51062 3.13263e-05 1.52013e-20)
(1.51067 1.23351e-05 1.41828e-20)
(1.5107 4.42442e-05 1.52631e-20)
(1.51054 9.86331e-05 1.39155e-20)
(1.51043 0.000162281 1.40122e-20)
(1.51024 0.000214541 1.63429e-20)
(1.51004 0.000339759 1.58871e-20)
(1.50973 0.000474537 1.5212e-20)
(1.50949 0.000531526 1.62437e-20)
(1.50884 0.000601117 1.57161e-20)
(1.50784 0.000621142 1.594e-20)
(1.50677 0.00068588 1.60758e-20)
(1.50497 0.000815831 1.71391e-20)
(1.50303 0.000843325 1.22973e-20)
(1.49825 0.00146462 5.79473e-20)
(1.4969 0.00692404 6.04916e-19)
(1.46782 0.0482512 5.35433e-18)
(0.726879 0.118802 1.21041e-17)
(0.523976 0.0592971 1.00821e-17)
(0.509369 -0.00523157 6.99432e-18)
(0.530572 -0.0490738 3.66779e-18)
(0.556158 -0.0774795 2.24324e-18)
(0.58472 -0.0908746 3.03111e-19)
(0.61346 -0.0984975 1.38614e-19)
(0.642126 -0.0954335 -2.37623e-20)
(0.670084 -0.0872588 -1.22974e-19)
(0.695996 -0.0789595 -1.70661e-19)
(0.718474 -0.0718687 -1.82867e-19)
(0.74175 -0.0639654 -2.28185e-19)
(0.763094 -0.0578497 -2.86406e-19)
(0.780779 -0.0486742 -2.52798e-19)
(0.79922 -0.0428233 -2.02197e-19)
(0.813206 -0.0367806 -2.80027e-19)
(0.828412 -0.0311817 -2.85828e-19)
(0.840051 -0.0272185 -2.15361e-19)
(0.851393 -0.0232846 -2.75512e-19)
(0.860929 -0.0202129 -3.42358e-19)
(0.869132 -0.0173034 -2.3703e-19)
(0.87616 -0.0144259 -1.96575e-19)
(0.88144 -0.0120999 -2.85431e-19)
(0.885629 -0.0113199 -2.47956e-19)
(0.889193 -0.0109577 -2.01701e-19)
(0.892416 -0.0105438 -1.52619e-19)
(0.894646 -0.0100778 -1.69275e-19)
(0.896258 -0.00927077 -1.90002e-19)
(0.897295 -0.0091009 -1.33067e-19)
(0.896928 -0.00988764 -5.59932e-20)
(0.903416 -0.0111707 -3.66352e-20)
(0.904543 -0.0107027 -3.26483e-20)
(0.905577 -0.0108424 1.89262e-20)
(0.911944 -0.0126242 3.98679e-20)
(0.914317 -0.0125031 1.43302e-19)
(0.915411 -0.0113189 2.44384e-19)
(0.916594 -0.00987898 3.12201e-19)
(0.914435 -0.00993205 4.04257e-19)
(0.921193 -0.0117229 4.13968e-19)
(0.92467 -0.0117017 5.9459e-19)
(0.927175 -0.0110201 8.08109e-19)
(0.92832 -0.00959838 1.09332e-18)
(0.928476 -0.00886462 1.27911e-18)
(0.935131 -0.00995861 1.37111e-18)
(0.936789 -0.00926987 1.62389e-18)
(0.940397 -0.00894158 1.86539e-18)
(0.944966 -0.00910725 2.04347e-18)
(0.948684 -0.00753133 2.45101e-18)
(0.951101 -0.00774225 2.82408e-18)
(0.955767 -0.00757123 3.16521e-18)
(0.957596 -0.00590877 3.71125e-18)
(0.953833 -0.0057072 4.18355e-18)
(0.95157 0.00252918 4.58801e-18)
(0.916318 0.0102419 5.14116e-18)
(0.874713 0.0293934 5.20485e-18)
(0.777023 0.0666093 5.06458e-18)
(0.651001 0.130898 4.05361e-18)
(0.524617 0.199195 2.99487e-18)
(0.431398 0.245331 1.78376e-18)
(0.372592 0.263887 1.1825e-18)
(0.327142 0.254544 4.42266e-19)
(0.294238 0.22599 2.79476e-19)
(0.260365 0.197037 7.91701e-20)
(0.228727 0.173489 3.82558e-19)
(0.198119 0.156313 1.28955e-20)
(0.169506 0.146473 6.36394e-19)
(0.14255 0.13809 1.91924e-19)
(0.116693 0.140049 1.00071e-18)
(0.091363 0.136122 6.41624e-19)
(0.0680814 0.142448 2.39017e-18)
(0.0430779 0.140282 2.47515e-18)
(0.0243616 0.156396 3.0993e-18)
(1.50223 6.14421e-07 8.90316e-22)
(1.50218 -4.49082e-06 -4.02817e-23)
(1.50225 -3.04039e-06 1.06639e-21)
(1.50234 -3.22776e-06 -2.39211e-21)
(1.50247 -1.5363e-06 2.2041e-23)
(1.50262 -3.93669e-07 -1.63597e-21)
(1.50282 -1.43522e-06 9.99605e-22)
(1.50303 1.06337e-06 5.74937e-21)
(1.50325 2.03898e-06 -1.12598e-21)
(1.50353 2.10357e-06 1.70912e-21)
(1.50382 8.13475e-06 7.25404e-21)
(1.50413 3.44094e-06 2.19302e-21)
(1.50447 -3.56899e-06 5.00617e-21)
(1.50479 1.85979e-05 9.1787e-21)
(1.50518 1.6998e-05 8.14677e-21)
(1.50558 -1.51426e-05 8.36839e-21)
(1.5059 -1.90975e-06 6.21194e-21)
(1.50622 3.27852e-05 1.53698e-20)
(1.50681 2.61187e-05 1.00751e-20)
(1.50723 -3.47959e-05 1.03409e-20)
(1.50749 -1.70634e-05 1.21742e-20)
(1.5077 3.04866e-05 1.17211e-20)
(1.50823 7.51192e-05 1.50191e-20)
(1.50888 2.91244e-05 1.43793e-20)
(1.50918 -4.00989e-05 1.52213e-20)
(1.50935 -2.6341e-05 1.5366e-20)
(1.50938 3.56841e-05 1.47001e-20)
(1.50948 9.27026e-05 1.42192e-20)
(1.51033 7.60052e-05 1.33709e-20)
(1.51067 3.76077e-05 1.27773e-20)
(1.5108 4.67011e-05 1.44129e-20)
(1.51087 5.2107e-05 1.26404e-20)
(1.51089 5.60661e-05 1.45535e-20)
(1.51074 0.000118694 1.47727e-20)
(1.51068 0.000173138 1.51454e-20)
(1.51063 0.000251903 1.5783e-20)
(1.51077 0.000371138 1.65381e-20)
(1.51085 0.000463847 1.68461e-20)
(1.51078 0.000541137 1.73595e-20)
(1.51051 0.000668674 1.71286e-20)
(1.50975 0.000800892 1.89456e-20)
(1.50884 0.00101001 1.61587e-20)
(1.5078 0.00121216 2.57174e-20)
(1.50595 0.00153659 8.33638e-21)
(1.50188 0.00242622 3.62771e-20)
(1.50034 0.00736634 4.86843e-19)
(1.48173 0.0559982 5.5871e-18)
(0.778025 0.157283 1.28339e-17)
(0.53678 0.068538 1.09959e-17)
(0.51706 -0.0178315 7.75768e-18)
(0.562574 -0.0745499 4.38722e-18)
(0.583096 -0.110121 2.76633e-18)
(0.62158 -0.123238 1.35193e-18)
(0.651571 -0.127231 6.04944e-19)
(0.681062 -0.123793 3.30831e-19)
(0.707219 -0.110923 1.30394e-19)
(0.734538 -0.0974581 2.42412e-20)
(0.756863 -0.0880324 -7.42864e-20)
(0.779336 -0.076192 -9.48765e-20)
(0.799281 -0.0673371 -1.40633e-19)
(0.81704 -0.0556244 -1.81423e-19)
(0.83551 -0.0481186 -1.83388e-19)
(0.847308 -0.0403353 -1.6219e-19)
(0.862972 -0.0342937 -1.86731e-19)
(0.872524 -0.0293025 -1.88463e-19)
(0.884463 -0.024605 -2.10003e-19)
(0.891569 -0.0214417 -2.45284e-19)
(0.899855 -0.017357 -2.34395e-19)
(0.90596 -0.0150707 -1.9457e-19)
(0.910521 -0.0129375 -2.0948e-19)
(0.913961 -0.0115936 -1.50033e-19)
(0.916596 -0.0111427 -1.85652e-19)
(0.91902 -0.0109277 -1.69838e-19)
(0.920566 -0.0105164 -1.35779e-19)
(0.921536 -0.00984923 -1.44083e-19)
(0.922145 -0.00948547 -1.06806e-19)
(0.921266 -0.0099877 -6.82779e-20)
(0.925787 -0.0112075 -4.13734e-20)
(0.926919 -0.0109099 -6.16152e-21)
(0.927657 -0.0109444 2.79263e-20)
(0.931552 -0.0123603 6.95448e-20)
(0.933871 -0.0122368 1.63233e-19)
(0.934523 -0.0110932 2.3966e-19)
(0.935518 -0.00952783 3.34987e-19)
(0.932959 -0.00961111 4.24445e-19)
(0.937856 -0.0114878 3.9862e-19)
(0.941691 -0.012026 6.39316e-19)
(0.943581 -0.0115627 8.29354e-19)
(0.944583 -0.00982057 1.02816e-18)
(0.943835 -0.00872585 1.22961e-18)
(0.94844 -0.00964192 1.41613e-18)
(0.949748 -0.00938171 1.53322e-18)
(0.952299 -0.008774 1.91065e-18)
(0.954467 -0.00918297 2.06292e-18)
(0.958167 -0.00778312 2.45276e-18)
(0.956401 -0.00827765 2.89671e-18)
(0.956904 -0.00818777 3.22625e-18)
(0.955624 -0.00325335 3.65659e-18)
(0.934946 0.00109729 4.14943e-18)
(0.915647 0.0156121 4.46079e-18)
(0.846323 0.0379596 4.8318e-18)
(0.752806 0.0723137 4.42899e-18)
(0.627022 0.146754 3.7324e-18)
(0.5028 0.213498 2.6789e-18)
(0.413866 0.263256 1.82852e-18)
(0.358162 0.289218 1.12071e-18)
(0.318854 0.294384 7.43943e-19)
(0.286608 0.277406 2.83663e-19)
(0.262394 0.247032 3.2147e-19)
(0.234827 0.218643 4.7997e-20)
(0.208949 0.196325 4.07007e-19)
(0.182628 0.179894 -4.35224e-20)
(0.157524 0.169812 5.61331e-19)
(0.133357 0.161502 2.87254e-19)
(0.110108 0.163763 8.20246e-19)
(0.0871809 0.159753 7.48104e-19)
(0.0664147 0.16666 1.65239e-18)
(0.0435895 0.165349 1.6577e-18)
(0.0278413 0.181572 1.94377e-18)
(1.50222 4.38902e-07 1.70559e-21)
(1.50217 -5.09924e-06 -1.41361e-22)
(1.50225 -4.22941e-06 7.11936e-22)
(1.50234 -3.64951e-06 -2.71906e-21)
(1.50247 -1.97545e-06 5.58696e-21)
(1.50262 -1.02809e-06 6.52669e-21)
(1.50282 -1.33044e-06 2.96015e-21)
(1.50303 1.26002e-06 8.36516e-21)
(1.50325 2.78523e-06 2.47007e-21)
(1.50353 1.94891e-06 3.75581e-21)
(1.50382 8.35999e-06 8.27578e-21)
(1.50413 6.12631e-06 1.12989e-20)
(1.50447 -1.11591e-06 1.48984e-20)
(1.50477 1.62683e-05 6.6536e-21)
(1.50519 1.60505e-05 9.01045e-21)
(1.50559 -1.0865e-05 1.25153e-20)
(1.50588 1.19354e-05 1.71029e-20)
(1.50618 3.1579e-05 1.31453e-20)
(1.50684 1.47647e-05 1.47355e-20)
(1.50726 -2.06435e-05 2.05569e-20)
(1.50749 1.27606e-05 1.55671e-20)
(1.50764 4.06507e-05 1.48867e-20)
(1.50824 3.09556e-05 1.58498e-20)
(1.50891 1.09151e-05 1.60829e-20)
(1.50921 -4.33963e-06 1.11845e-20)
(1.50936 2.58979e-05 1.26184e-20)
(1.50935 5.27208e-05 1.35634e-20)
(1.50948 6.79204e-05 1.5139e-20)
(1.51044 2.73874e-05 1.30928e-20)
(1.51075 3.50037e-05 1.17708e-20)
(1.51092 7.50608e-05 1.45379e-20)
(1.51104 9.63158e-05 1.59153e-20)
(1.51108 0.000115069 1.64305e-20)
(1.51097 0.000155804 1.68868e-20)
(1.51098 0.000210607 1.66031e-20)
(1.51108 0.000262863 1.69331e-20)
(1.51163 0.000294538 1.82395e-20)
(1.51193 0.000372251 1.89044e-20)
(1.51215 0.000447044 1.98412e-20)
(1.51228 0.000571998 1.95625e-20)
(1.5123 0.000822832 2.15286e-20)
(1.51226 0.00106665 1.56529e-20)
(1.51219 0.00137712 2.27752e-20)
(1.5115 0.00146606 9.39945e-21)
(1.50999 0.00250035 3.00169e-20)
(1.50955 0.00738724 5.12478e-19)
(1.4911 0.0609502 5.8368e-18)
(0.904323 0.198079 1.3753e-17)
(0.553298 0.0745988 1.303e-17)
(0.532049 -0.041373 9.46399e-18)
(0.607264 -0.10637 6.02707e-18)
(0.632313 -0.143909 4.21861e-18)
(0.675489 -0.155766 2.9555e-18)
(0.707784 -0.15401 1.52774e-18)
(0.738324 -0.147846 1.07917e-18)
(0.758167 -0.131796 5.3518e-19)
(0.78673 -0.115988 3.87524e-19)
(0.806759 -0.103782 1.08991e-19)
(0.823922 -0.0883262 2.33827e-20)
(0.842525 -0.076913 -3.50189e-20)
(0.858317 -0.064746 -7.89712e-20)
(0.875454 -0.0556023 -9.65576e-20)
(0.884332 -0.0460999 -9.47354e-20)
(0.899993 -0.0397354 -1.11393e-19)
(0.905633 -0.0331779 -1.30812e-19)
(0.919222 -0.0275404 -1.62809e-19)
(0.922662 -0.0235756 -1.83859e-19)
(0.930654 -0.0201159 -1.95611e-19)
(0.935112 -0.0169535 -1.71535e-19)
(0.938438 -0.0150607 -1.76456e-19)
(0.941346 -0.0134537 -1.15031e-19)
(0.943104 -0.0129378 -1.17609e-19)
(0.944897 -0.0128288 -1.3745e-19)
(0.945966 -0.0126634 -1.22549e-19)
(0.946283 -0.0121299 -1.22294e-19)
(0.946689 -0.0115086 -1.11155e-19)
(0.945252 -0.0114162 -5.83106e-20)
(0.94792 -0.0124676 -1.70522e-20)
(0.949317 -0.012495 2.60886e-20)
(0.949382 -0.012613 4.44671e-20)
(0.951332 -0.0138373 4.9405e-20)
(0.953341 -0.0141505 1.9885e-19)
(0.95346 -0.0134074 2.69809e-19)
(0.954219 -0.0124154 3.49522e-19)
(0.951076 -0.0118241 4.31948e-19)
(0.954324 -0.013642 4.21886e-19)
(0.957283 -0.0145181 6.47033e-19)
(0.957882 -0.0141562 8.27012e-19)
(0.958327 -0.0125369 1.04487e-18)
(0.957087 -0.0104134 1.24458e-18)
(0.959004 -0.0115893 1.36797e-18)
(0.959508 -0.0109309 1.56693e-18)
(0.96135 -0.00955264 1.88454e-18)
(0.959539 -0.0097392 2.15223e-18)
(0.962686 -0.00801515 2.38552e-18)
(0.952138 -0.00779969 2.88557e-18)
(0.942854 -0.00460888 3.22851e-18)
(0.933824 0.00841098 3.61566e-18)
(0.883637 0.0203882 4.01013e-18)
(0.828292 0.0456648 4.08367e-18)
(0.718898 0.0913454 4.00883e-18)
(0.59706 0.164297 3.21596e-18)
(0.479671 0.231635 2.43956e-18)
(0.396818 0.279893 1.62884e-18)
(0.344687 0.309112 1.13995e-18)
(0.30954 0.321196 6.55843e-19)
(0.279882 0.315153 4.09721e-19)
(0.258823 0.294359 1.97174e-19)
(0.237847 0.265291 2.44396e-19)
(0.215344 0.237505 4.5728e-20)
(0.193117 0.216222 3.06659e-19)
(0.170123 0.200545 1.27169e-19)
(0.147842 0.190948 4.1435e-19)
(0.126055 0.183069 2.49552e-19)
(0.105096 0.185433 7.2566e-19)
(0.0842771 0.181567 5.60081e-19)
(0.06573 0.188917 1.05948e-18)
(0.0447641 0.188656 1.07806e-18)
(0.0316336 0.204679 1.31714e-18)
(1.50222 4.64539e-07 -2.83842e-21)
(1.50217 -5.51318e-06 -2.11197e-21)
(1.50225 -5.08212e-06 -1.62386e-21)
(1.50233 -3.43996e-06 -9.13117e-22)
(1.50246 -1.84903e-06 7.72785e-22)
(1.50261 -1.54436e-06 5.32546e-21)
(1.50281 -1.639e-07 7.92114e-21)
(1.50303 2.47007e-06 2.27073e-21)
(1.50324 3.12994e-06 6.36268e-21)
(1.50353 2.59501e-06 6.93384e-21)
(1.50381 8.10499e-06 1.11588e-20)
(1.50414 6.58223e-06 1.444e-20)
(1.50447 5.50447e-06 2.19731e-20)
(1.50476 1.22832e-05 3.02869e-20)
(1.5052 9.15435e-06 2.33854e-20)
(1.50559 4.97032e-06 1.96119e-20)
(1.50587 2.70242e-05 2.25604e-20)
(1.50617 1.31107e-05 1.60113e-20)
(1.50686 -6.97657e-06 2.05626e-20)
(1.50724 1.03731e-05 2.72986e-20)
(1.50747 4.64214e-05 1.4727e-20)
(1.50764 3.36847e-05 1.45847e-20)
(1.50829 -6.57873e-06 1.69599e-20)
(1.50892 -5.41333e-06 1.72437e-20)