/*--------------------------------*- C++ -*----------------------------------*\
| =========                 |                                                 |
| \\      /  F ield         | OpenFOAM: The Open Source CFD Toolbox           |
|  \\    /   O peration     | Version:  2.2.x                                 |
|   \\  /    A nd           | Web:      www.OpenFOAM.org                      |
|    \\/     M anipulation  |                                                 |
\*---------------------------------------------------------------------------*/
FoamFile
{
    version     2.0;
    format      ascii;
    class       volScalarField;
    location    "2.35";
    object      Bz;
}
// * * * * * * * * * * * * * * * * * * * * * * * * * * * * * * * * * * * * * //

dimensions      [1 0 -2 0 0 -1 0];

internalField   nonuniform List<scalar> 
14161
(
1.28985e-16
-3.44419e-17
1.56305e-16
-8.08038e-16
2.10488e-15
-3.3764e-15
3.52517e-15
-1.34822e-15
-2.13563e-14
5.98632e-14
-1.03101e-13
1.41731e-13
-1.89866e-13
1.8369e-13
-1.37026e-13
1.23349e-13
-1.26874e-13
1.23028e-13
-1.18924e-13
9.95174e-14
-1.48347e-13
1.78138e-13
4.25435e-13
-1.00638e-12
4.43645e-12
-5.59871e-12
-4.2984e-10
1.37193e-09
-7.02286e-09
1.54501e-08
-3.28371e-08
7.45628e-08
-1.16407e-07
8.58373e-08
1.67767e-07
-6.72877e-07
1.87155e-06
-2.68363e-06
2.00173e-06
-1.4629e-06
1.79881e-05
1.57864e-05
1.16216e-05
2.19566e-05
-0.000242142
5.14931e-05
0.0014962
-0.00060237
-0.0025889
-0.000507699
0.00313679
0.00219815
-0.00213253
-0.00392999
-0.00184203
0.00277709
0.00405889
0.000745985
-0.00323718
-0.00404726
-0.00138102
0.00322191
0.00435478
0.00126366
-0.00197423
-0.00298978
-0.00175254
0.00164197
0.00344395
0.00261569
0.000111831
-0.00146858
-0.00150661
-0.00107076
-0.00019214
0.00110407
0.00192398
0.00221593
0.00132981
-0.00129654
-0.00355082
-0.00395504
-0.00235
0.00202187
0.00538669
0.00543951
0.000598554
-0.00696313
-0.00833842
-0.00439364
0.00291671
0.00673101
0.00594582
0.0027556
-0.00339774
-0.00881225
-0.00651324
0.00168292
0.0118538
0.0129096
0.00497173
-0.00499759
-0.0103233
-0.0101529
-0.00505211
0.00292053
0.0102698
0.0101781
0.00474029
0.00168275
0.00699193
0.0307028
0.0876627
0.156179
0.208382
0.332072
0.510819
0.642175
0.859952
1.04495e-16
-4.96714e-17
1.72932e-16
-5.29137e-16
1.12075e-15
-1.73314e-15
1.19032e-15
5.34648e-15
-2.54085e-14
6.41928e-14
-1.0648e-13
1.4683e-13
-1.93991e-13
1.87382e-13
-1.41279e-13
1.32049e-13
-1.35262e-13
1.4102e-13
-1.44179e-13
1.65458e-13
-2.74213e-13
2.67708e-13
3.79969e-13
-1.27453e-12
4.42421e-12
-4.46389e-12
-3.33965e-10
9.0501e-10
-5.41463e-09
1.36569e-08
-2.80755e-08
6.05221e-08
-9.42453e-08
9.30966e-08
6.87928e-08
-3.64389e-07
7.15448e-07
-4.25524e-07
9.96248e-08
1.57497e-06
1.3187e-05
3.63419e-06
4.35313e-05
-2.77601e-05
-0.000324484
0.000325209
0.000791836
-0.000803004
-0.00149499
0.000439664
0.00242712
0.00147205
-0.00127804
-0.00260246
-0.00102612
0.00193805
0.00322686
0.00117997
-0.00178141
-0.00264066
-0.000421654
0.0020378
0.0029067
0.00114251
-0.00085598
-0.00174033
-0.00117065
7.07421e-05
0.00107173
0.00134517
0.000911912
0.000239645
-0.000451939
-0.00114392
-0.00145674
-0.000979687
0.000811331
0.00220281
0.00241894
0.000308024
-0.00303531
-0.00475801
-0.00264926
0.00174201
0.00560605
0.00732966
0.00225668
-0.00575765
-0.00810374
-0.00562053
0.00019422
0.00632311
0.00679972
0.00332609
-0.00309702
-0.00908303
-0.00816239
0.00132638
0.0119249
0.0125836
0.00612745
-0.00381669
-0.0095424
-0.0108323
-0.00679895
0.00457185
0.0089821
0.0110123
0.00543943
0.00132331
0.00427443
0.0301253
0.0758089
0.102869
0.125727
0.205651
0.324131
0.431595
0.580729
1.55168e-16
-4.91482e-17
1.81106e-16
1.22792e-16
-2.71209e-16
1.14681e-15
-2.59729e-15
1.27333e-14
-3.16842e-14
6.96482e-14
-1.09523e-13
1.59889e-13
-1.95623e-13
1.90905e-13
-1.48271e-13
1.41543e-13
-1.5078e-13
1.48739e-13
-1.93625e-13
2.76134e-13
-3.32762e-13
2.94226e-13
8.28543e-14
2.01483e-12
-1.32895e-11
4.62138e-12
-1.42181e-10
2.89212e-10
-2.29913e-09
9.5151e-09
-1.96227e-08
4.23393e-08
-7.24882e-08
7.96851e-08
-5.24104e-08
-9.42042e-08
1.5564e-07
-1.75544e-07
-4.33033e-07
1.60807e-06
8.11092e-06
-3.09908e-05
0.000104084
8.66047e-05
-0.0006243
-0.000175347
0.00146212
0.000813693
-0.00189097
-0.00225999
0.000416699
0.00261361
0.00165662
-0.00127345
-0.00281567
-0.00140404
0.00168088
0.00266043
0.00151676
-0.000653977
-0.00150505
-0.00114246
0.000333408
0.0017389
0.00191771
0.00118321
-0.000734109
-0.00213705
-0.00197711
0.00022658
0.00222455
0.00261678
0.00156936
-0.000601392
-0.00260375
-0.00265366
-0.000411705
0.00212569
0.00336482
0.00229613
-0.000842484
-0.00463329
-0.00487653
0.000267365
0.00512329
0.00720907
0.00486203
-0.00322947
-0.00727931
-0.00649701
-0.00218303
0.00541631
0.00792504
0.00384502
-0.00214303
-0.00897477
-0.0097011
0.00032534
0.0102956
0.0112005
0.00666638
-0.002163
-0.00852929
-0.0106392
-0.00385274
0.00357878
0.00925842
0.00914699
0.0024241
0.000618591
0.00740259
0.029375
0.0480573
0.0498724
0.0649231
0.120922
0.178231
0.253159
0.331887
2.95969e-16
-3.78999e-17
1.53189e-16
7.88994e-16
-2.1599e-15
3.83716e-15
-1.03864e-14
2.52536e-14
-4.62754e-14
7.91114e-14
-1.26573e-13
1.69366e-13
-1.94687e-13
1.92134e-13
-1.51024e-13
1.40196e-13
-1.40063e-13
1.22523e-13
-1.78447e-13
2.31174e-13
-2.55055e-13
3.07044e-13
-7.4507e-14
1.2011e-12
-8.34251e-12
-2.20948e-11
3.77034e-12
3.28416e-10
-1.19673e-09
4.53896e-09
-9.38217e-09
2.04207e-08
-3.49562e-08
3.75823e-08
-2.94448e-08
1.53179e-09
3.9039e-08
-1.08021e-07
1.36601e-07
-4.0018e-06
-1.63116e-05
-7.2295e-05
-3.73633e-05
0.000393021
-0.000446021
-0.00148624
7.68004e-05
0.00256336
0.00122052
-0.0032811
-0.00412138
0.000373549
0.00407206
0.00293822
-0.001986
-0.00511592
-0.00266474
0.00267184
0.00549079
0.00364858
-0.00168058
-0.00534493
-0.004506
0.00167106
0.00570891
0.00586366
0.00112565
-0.00372194
-0.00509435
-0.00121721
0.00236753
0.00415492
0.00345995
0.000364716
-0.00224363
-0.00327998
-0.00109911
0.00189103
0.00370299
0.00406537
0.000157272
-0.00345486
-0.00511572
-0.00243489
0.00339868
0.00652909
0.00497687
0.000589323
-0.00521478
-0.00604286
-0.00418363
0.00312332
0.00868384
0.00525673
-0.000185017
-0.00706011
-0.00792033
-0.00192519
0.00502178
0.0086931
0.00694789
0.000701501
-0.00658115
-0.00793663
-0.0040484
0.00194372
0.00561476
0.00534463
0.00254641
0.000799031
0.00782908
0.0196933
0.016708
0.0231015
0.0354698
0.0666922
0.0880312
0.135467
0.170695
3.99107e-16
4.41234e-18
1.75555e-16
1.48603e-15
-5.25461e-15
1.06426e-14
-1.75163e-14
3.51746e-14
-5.82635e-14
9.51547e-14
-1.367e-13
1.81909e-13
-1.92383e-13
1.78417e-13
-1.45249e-13
1.24772e-13
-1.08087e-13
8.4849e-14
-9.382e-14
1.12325e-13
-1.13603e-13
2.36548e-13
-1.59031e-13
-1.22554e-12
7.07614e-13
-1.80789e-11
7.20953e-11
-2.96262e-11
-2.25778e-10
1.47449e-09
-3.78005e-09
8.2543e-09
-1.26667e-08
1.51374e-08
-1.19347e-08
4.20553e-09
1.03841e-08
-1.79305e-08
3.52095e-08
-7.36356e-06
-3.50591e-05
-5.36769e-05
-8.24319e-05
7.87517e-05
0.000142615
-0.00020271
-0.0007519
0.00026735
0.00181667
0.000336797
-0.00191145
-0.00114587
0.00108227
0.00139598
-0.000447735
-0.00170918
-0.000593202
0.00127025
0.0022674
0.0012981
-0.000974901
-0.00256589
-0.00194478
0.00118668
0.00335572
0.00315739
-4.4e-05
-0.00229396
-0.00271596
-0.000606454
0.00147954
0.0025756
0.00245781
0.000254563
-0.00139705
-0.00220109
-0.00128596
0.00124764
0.00308798
0.00359553
0.00125552
-0.00214666
-0.00352661
-0.00280269
0.00155585
0.0046744
0.00386916
0.000631814
-0.00261114
-0.00413546
-0.00282301
0.00103342
0.00650575
0.00596331
0.00152651
-0.00325454
-0.00481245
-0.00364244
0.00148401
0.00702085
0.00755186
0.00242098
-0.00484206
-0.00657047
-0.00481937
0.0011504
0.00471137
0.00459672
0.000554946
0.000620195
0.00655552
0.00747046
0.00490399
0.0128712
0.0183914
0.0336536
0.0405245
0.0697556
0.0860337
3.1173e-16
5.29716e-17
4.57055e-16
2.35178e-15
-9.53301e-15
1.63217e-14
-2.74066e-14
4.98341e-14
-8.12938e-14
1.1864e-13
-1.51785e-13
1.92169e-13
-1.9343e-13
1.64729e-13
-1.0867e-13
6.17739e-14
-5.71853e-14
9.29918e-15
5.231e-15
2.8549e-14
4.22773e-16
-9.14048e-16
1.13192e-13
1.29757e-12
-5.12493e-12
1.63729e-11
6.57834e-12
-5.59896e-11
1.25339e-10
2.33955e-10
-1.17852e-09
3.88096e-09
-7.55935e-09
1.33944e-08
-2.42192e-08
3.62572e-08
-6.89482e-08
1.63145e-07
-4.42094e-07
-1.04939e-05
-4.59886e-05
-5.90415e-05
-2.77715e-06
-0.000138637
-0.000136168
0.000280265
0.000259631
-0.000662353
-0.000750161
0.000193028
0.000745007
0.000943123
0.00049381
-0.00135068
-0.00271844
-0.00129237
0.00209403
0.00262645
0.000623772
-0.00164245
-0.00170679
-0.000941886
0.000324352
0.00158662
0.00158119
0.000688225
-0.000525826
-0.000904144
-0.000860169
-0.000114351
0.000755881
0.000914835
0.000594513
-0.000160252
-0.000602906
-0.000716978
-0.000553911
0.0003811
0.00142068
0.00158564
0.00083527
-0.000493889
-0.0011976
-0.00116785
-5.93726e-05
0.00190054
0.00191619
0.0001501
-0.00160381
-0.00228018
-0.00179407
0.000513751
0.00289011
0.00367709
0.00128787
-0.00183095
-0.0035145
-0.00320591
-0.000211652
0.005487
0.00633034
0.00227937
-0.00290018
-0.00466909
-0.00252167
0.00137532
0.0038357
0.00169474
-0.00149581
0.00251637
0.00262771
0.00206514
0.0013945
0.00783002
0.00785517
0.0143245
0.0154473
0.0328402
0.0407846
-5.9116e-17
-5.48557e-16
2.3191e-16
4.28305e-15
-1.42007e-14
2.61278e-14
-4.65274e-14
7.63037e-14
-1.15768e-13
1.58694e-13
-1.77057e-13
2.13695e-13
-1.98245e-13
1.42887e-13
-4.5958e-14
-1.63966e-14
7.39873e-14
-1.26923e-13
9.4607e-14
-7.00376e-14
1.81186e-13
-4.30913e-13
1.45209e-12
-2.92645e-12
7.6955e-12
-1.01002e-11
3.14515e-12
-2.76486e-11
6.69961e-11
3.11742e-11
-8.09456e-10
2.38961e-09
-7.59126e-09
1.93767e-08
-4.4087e-08
7.29686e-08
-1.71208e-07
3.47467e-07
-1.15803e-06
-1.27359e-05
-5.52642e-05
-7.5539e-05
1.47529e-05
-8.12213e-05
-0.000326252
-6.8788e-06
0.000493667
-5.51226e-05
-0.000768587
-0.000351751
0.000174766
0.00095404
0.00178289
0.000427622
-0.00253123
-0.00252077
0.00141116
0.00330742
0.000916185
-0.00209677
-0.00204964
-0.000199056
0.00104829
0.00124518
0.000181852
-0.000490122
-9.11538e-05
0.000646502
0.000899182
0.000650312
6.01229e-05
-0.000274341
-0.000119644
-3.75981e-05
1.69928e-05
0.000164332
0.000310951
0.00040751
0.00010396
-0.000248229
-0.000258282
-0.000228105
-0.000267534
-0.000287855
-0.000253346
-0.000176229
0.000120355
0.000323319
1.51404e-05
-0.000348846
-0.000380501
-0.00025206
0.00114819
0.00216306
0.00135249
-0.000746831
-0.00268798
-0.00300096
-3.55307e-05
0.0037533
0.00384674
0.00112189
-0.00206497
-0.00285227
-0.00102753
0.00184076
0.00192872
-0.00116839
0.000127239
0.0014681
0.000218497
0.00108321
0.000145512
0.00430958
0.00222688
0.00427083
0.00279436
0.0128515
0.0168173
-8.36713e-16
-1.72287e-15
-1.25802e-15
7.2169e-15
-2.0966e-14
4.24195e-14
-7.53681e-14
1.18568e-13
-1.67535e-13
2.20464e-13
-2.26749e-13
2.5229e-13
-2.14942e-13
1.15327e-13
5.12232e-14
-1.25285e-13
2.85061e-13
-4.982e-13
2.66634e-13
-2.27877e-13
9.48729e-14
1.02964e-13
1.94999e-13
-1.49979e-12
6.9765e-12
-1.60189e-11
1.931e-11
-1.24133e-11
2.32277e-11
-6.10173e-11
1.93019e-11
1.67557e-10
-1.99086e-09
6.5192e-09
-1.98398e-08
3.47796e-08
-9.38275e-08
2.25996e-07
-1.26931e-06
-1.34138e-05
-6.50727e-05
-0.00010878
-2.31994e-05
0.000250858
-0.000239603
-0.00121652
-0.000308809
0.00230576
0.00153888
-0.00280327
-0.00420917
0.000315635
0.00588158
0.00492117
-0.00206252
-0.00697542
-0.00442098
0.0032502
0.00666319
0.0030301
-0.00296374
-0.00436372
-0.00300827
0.00127399
0.00259932
0.00225383
0.000177043
-0.00127082
-0.00141045
-0.000533717
0.000434809
0.00050156
0.000358916
0.000264151
-0.000317073
-0.00125175
-0.00159302
-8.867e-05
0.00152619
0.00134455
-0.000335121
-0.000996813
-0.000923828
-0.000432321
-0.000191963
-0.000461333
-0.000824441
-0.000892301
-0.00027664
0.000144102
0.000274146
0.000330375
0.000847425
0.00136994
0.00112145
-0.00023697
-0.00180812
-0.0017905
3.56562e-05
0.00209148
0.0019759
0.000135137
-0.00154225
-0.00153231
0.000325075
0.00189973
-0.000591678
-0.000495836
0.000775746
0.000862719
0.000151727
0.00121349
-0.000678979
0.0020674
-0.000166386
-0.000601519
-0.00347715
0.00283962
0.00488048
-1.76515e-15
-2.76413e-15
-3.91489e-15
1.19529e-14
-3.1965e-14
6.5899e-14
-1.11509e-13
1.6325e-13
-2.32625e-13
2.68636e-13
-3.04989e-13
3.16482e-13
-2.67627e-13
1.04571e-13
1.62755e-13
-4.10388e-13
7.23682e-13
-1.20887e-12
1.11622e-12
-9.5827e-13
3.59424e-13
1.09939e-13
-1.78222e-12
5.02184e-12
-1.24002e-11
1.30978e-11
-1.81556e-11
5.18541e-11
-3.86409e-11
9.61734e-11
-2.14267e-10
1.26185e-10
4.56428e-10
-6.13222e-10
-2.91608e-09
7.23513e-09
-3.56016e-08
1.14999e-07
-1.13094e-06
-1.17717e-05
-6.82724e-05
-6.67866e-05
-0.000261359
-8.30279e-06
0.000997894
0.000463048
-0.0032865
-0.00335397
0.00451434
0.00805533
-0.000548028
-0.010118
-0.00799827
0.00335466
0.0109361
0.0075076
-0.00279366
-0.00785209
-0.00669845
-0.000285582
0.00343816
0.00318812
0.00211839
0.00138313
-0.00283825
-0.00499639
-0.00411169
0.000719485
0.00309828
0.00229776
-0.00103519
-0.00304941
-0.0035328
-0.00137803
0.00266218
0.00347155
0.00119486
-0.0039923
-0.00492948
-0.00155944
0.00215707
0.00336818
0.00124115
-0.00193821
-0.00215761
-0.000714431
0.00058506
0.000618784
-0.000143037
-0.000509631
-0.000258782
0.00020456
0.00102782
0.0018142
0.00110366
-6.50722e-05
-0.00107889
-0.000995725
0.000266768
0.0015356
0.00106767
-0.000537554
-0.0012978
-0.000275828
0.00137342
-0.000192968
-0.000834492
0.000524999
0.000975221
0.000676412
-0.000221172
0.000677093
-0.00108563
0.00103514
-0.000853536
-0.00227696
-0.00530074
-0.000372726
0.000790523
-2.81314e-15
-2.7612e-15
-7.28334e-15
1.93707e-14
-4.57404e-14
9.62854e-14
-1.47555e-13
2.1205e-13
-3.05193e-13
3.65986e-13
-3.75048e-13
4.05257e-13
-3.34908e-13
1.16075e-13
2.36948e-13
-6.75482e-13
1.31029e-12
-2.26137e-12
3.03688e-12
-3.06056e-12
4.30149e-12
-4.47762e-12
-7.98211e-13
1.09444e-11
-2.97139e-11
4.85547e-11
-8.08974e-11
1.15701e-10
-1.34599e-10
2.07169e-10
-4.58123e-10
1.32106e-09
-6.89395e-10
-1.58027e-09
4.80714e-10
5.25042e-09
1.14991e-09
1.58766e-08
-1.03134e-06
-1.06539e-05
-5.21796e-05
-3.99821e-05
0.000174931
-0.000736452
-0.00123578
0.00256988
0.00424919
-0.00389215
-0.0104767
-0.000404637
0.0138839
0.0112885
-0.00471493
-0.0161304
-0.0128952
0.00206203
0.0115779
0.0131327
0.00720648
-0.00657116
-0.0130401
-0.0117588
-0.00104046
0.0107126
0.0124922
0.00450253
-0.00775126
-0.0106412
-0.00721423
0.00175428
0.00741222
0.00755761
0.0020177
-0.00606104
-0.00886721
-0.00250961
0.00489815
0.0062371
0.000968331
-0.00324907
-0.0036772
-0.00119211
0.000882128
0.00100275
-4.00457e-05
-0.000259975
0.000634685
0.000798582
8.72041e-05
-0.000861082
-0.00111442
-0.000421186
0.00105273
0.00247863
0.00192529
0.00054606
-0.00124947
-0.00136869
0.000323727
0.00117934
0.000187458
-0.000894564
-0.000846396
0.000602127
0.000396385
-0.000437893
6.18534e-06
0.000431659
-0.000159471
-0.000677418
-0.000952531
0.000273585
-0.000868092
0.000724009
-0.00081787
-0.00223504
-0.00448977
-0.000745946
8.87202e-06
-4.17862e-15
-2.39158e-15
-5.84033e-15
2.20669e-14
-6.09054e-14
1.18382e-13
-1.8345e-13
2.77446e-13
-3.7627e-13
4.55704e-13
-4.79248e-13
5.44741e-13
-4.29415e-13
2.82355e-13
9.40553e-14
-7.64532e-13
1.72655e-12
-3.04676e-12
5.73532e-12
-7.71105e-12
1.11837e-11
-1.46387e-11
2.074e-11
-2.13186e-11
1.47064e-11
1.82173e-12
-6.642e-11
2.14702e-10
-3.80121e-10
5.28086e-10
-1.12962e-09
3.11146e-09
-3.81242e-09
2.52868e-09
-1.24698e-08
3.13299e-08
-3.10494e-08
7.26501e-08
-8.19922e-07
-8.18332e-06
-4.27405e-05
-0.000109898
-0.000126487
0.0010232
-0.000388051
-0.00273136
0.00207347
0.00807748
-0.00260684
-0.0155196
-0.00847565
0.0136278
0.0190795
0.00707163
-0.0157814
-0.0204208
-0.0147303
0.00745979
0.0202176
0.0194618
0.00381665
-0.0176862
-0.0186595
-0.0126577
0.00870991
0.0151634
0.014893
0.00273952
-0.0120453
-0.0133979
-0.00735307
0.00941165
0.011763
0.00424611
-0.0060584
-0.00921534
-0.00437935
0.00188091
0.00648754
0.00408062
6.65605e-05
-0.00531705
-0.00587444
-0.00275911
0.00262625
0.00323422
0.0020655
-0.000471506
-0.00117471
-0.00163528
-0.00181798
-0.000743929
0.00182314
0.00456921
0.00322175
-0.000675661
-0.00281513
-0.00161604
0.000537467
0.000832709
-0.000935675
-0.00182901
0.00186094
0.00276345
0.00126554
0.000548894
0.000459722
-3.10868e-05
-0.000730922
-0.000603054
-0.00036722
0.000504715
-0.000437118
0.000533947
-0.000755875
-0.00209261
-0.00357705
-0.0010814
-0.000508064
-4.75844e-15
-2.65286e-15
-4.14325e-15
2.79721e-14
-7.48563e-14
1.39274e-13
-2.26618e-13
3.46027e-13
-4.52765e-13
6.02125e-13
-6.87588e-13
7.58171e-13
-8.0306e-13
6.14692e-13
-2.71579e-13
-4.5101e-13
1.51668e-12
-2.99772e-12
6.50275e-12
-1.08436e-11
1.44741e-11
-2.46901e-11
4.72705e-11
-6.98134e-11
8.52536e-11
-1.38868e-10
2.11319e-10
-1.9825e-10
1.91787e-10
-2.66467e-10
3.28725e-10
-6.8069e-10
2.33028e-09
3.33971e-09
-3.88069e-08
1.97721e-08
2.07638e-07
-7.06175e-07
5.7644e-08
-2.03902e-06
-4.15594e-05
0.000268045
-0.000509802
-0.00181224
0.000818174
0.00304894
0.000703781
0.0032987
0.0066272
-0.0101105
-0.0195841
-0.00753148
0.019472
0.0252543
0.0112761
-0.0160121
-0.0250358
-0.0243366
0.00476067
0.0240694
0.0241588
0.0102888
-0.0195239
-0.0230084
-0.0188495
0.00888635
0.0222503
0.0218777
0.00467363
-0.0166113
-0.0173665
-0.00647968
0.0105873
0.0102513
0.00314828
-0.00661978
-0.00894992
-0.00530549
0.00196389
0.00815789
0.0068512
0.000123059
-0.00814553
-0.00809498
0.00038429
0.0062993
0.00516429
-0.00028284
-0.00267964
-0.00265617
-0.00213758
-0.000769467
0.00339023
0.00619138
0.00196846
-0.00327053
-0.00352072
-0.000374315
0.00111801
-0.0022328
-0.000505539
0.00373684
0.00284412
-0.000469677
-0.0017773
-0.000958909
1.64057e-05
0.000449215
0.000427402
0.000592564
0.000389325
0.000671943
-0.000186165
0.000293991
-0.000722423
-0.00200152
-0.00285542
-0.00132417
-0.000873203
-4.27008e-15
-2.17619e-15
-4.58838e-15
3.73874e-14
-8.66412e-14
1.58687e-13
-2.78384e-13
4.17757e-13
-5.34211e-13
7.48465e-13
-8.89332e-13
9.67576e-13
-1.07792e-12
1.15688e-12
-9.60908e-13
4.19473e-13
3.03433e-13
-1.90133e-12
4.28148e-12
-8.11656e-12
1.15825e-11
-2.11227e-11
3.74131e-11
-5.1904e-11
6.26122e-11
-8.92409e-11
1.31908e-10
-9.91049e-11
1.68911e-11
4.04588e-11
-1.73568e-10
4.26673e-10
-1.69815e-09
1.22458e-08
-2.81883e-08
-3.82537e-08
4.70111e-07
-9.32072e-07
-4.24142e-06
2.94254e-05
-0.000237479
0.000262162
0.000921451
-0.00144401
-0.0039799
-0.000317562
0.00477022
0.00855344
0.0110487
-0.00198521
-0.0243323
-0.0235559
0.00299024
0.0284634
0.0294059
0.0134408
-0.0234836
-0.0340092
-0.0282228
0.0100808
0.029256
0.0294412
0.0104118
-0.0241814
-0.0286379
-0.0216255
0.0174256
0.0272433
0.0237161
-0.00506611
-0.0193784
-0.0176562
-0.00245681
0.0111192
0.00971458
0.00409047
-0.00953278
-0.0112943
-0.00677364
0.00996715
0.0140496
0.00836216
-0.00884251
-0.0106361
-0.00328415
0.00827232
0.00697819
-0.000672943
-0.00389994
-0.00341563
-0.00217944
0.0012801
0.00620817
0.00460346
-0.00253349
-0.00446609
-0.00040324
-0.000698993
-0.00156717
0.00167133
0.00300934
-7.1005e-05
-0.00417359
-0.00515362
-0.00339904
-0.00111488
0.000321995
0.000763067
0.000595494
0.000605071
0.000262635
0.000381937
-0.000199658
4.26075e-05
-0.000763583
-0.00187551
-0.00239528
-0.00145989
-0.00112667
-2.65013e-15
-1.84472e-15
-5.79973e-15
3.99018e-14
-8.61678e-14
1.6266e-13
-3.01886e-13
4.49733e-13
-5.91489e-13
8.57203e-13
-1.04618e-12
1.22413e-12
-1.60544e-12
1.72127e-12
-1.49988e-12
1.60166e-12
-1.22299e-12
2.9169e-13
6.11523e-13
-2.42981e-12
4.3098e-12
-6.8879e-12
1.2099e-11
-1.74055e-11
2.80888e-11
-4.82296e-11
6.42089e-11
-8.84219e-11
1.00667e-10
-1.16849e-10
1.14233e-10
3.56267e-10
-1.25156e-09
-6.92852e-12
1.35659e-08
-4.55604e-08
2.14212e-08
2.88701e-07
-1.16595e-06
-1.4382e-05
3.80585e-05
-0.000722208
0.00389581
0.00169869
-0.00915665
-0.0096472
0.000683561
0.0138997
0.0188
0.0123872
-0.0174421
-0.0340758
-0.0256082
0.0148625
0.0342973
0.0338604
0.00735142
-0.0358369
-0.0395187
-0.0226589
0.0221323
0.0341152
0.0330191
-0.00404899
-0.0326431
-0.0346536
-0.00720237
0.0270633
0.0302777
0.0139794
-0.0179967
-0.021521
-0.0154908
0.00877647
0.0162572
0.013699
-0.00569483
-0.0148566
-0.0126753
0.00659429
0.0168388
0.0117049
-0.00899483
-0.0119734
-0.00212862
0.00896248
0.00501045
-0.0026022
-0.00446163
-0.00394068
0.000510583
0.00595756
0.00441317
-0.00183654
-0.00324864
-0.00189887
-0.00092939
0.000492775
0.00198504
0.00127362
-0.00155499
-0.00306356
-0.00156098
0.00109552
0.00254038
0.00236575
0.00132913
0.000227258
-0.000213378
-0.000287897
-0.000322459
6.54954e-05
-0.000260698
-0.000122693
-0.000816401
-0.0017317
-0.00212217
-0.00150179
-0.00127671
-2.1898e-15
-2.4655e-15
-6.79517e-15
2.97895e-14
-7.1036e-14
1.41501e-13
-2.74773e-13
4.08202e-13
-5.88408e-13
8.47488e-13
-1.0685e-12
1.30323e-12
-1.71005e-12
1.98663e-12
-2.059e-12
2.24428e-12
-2.21456e-12
1.93411e-12
-1.04238e-12
5.90291e-14
1.42673e-12
-3.31067e-12
6.5446e-12
-1.11143e-11
2.5146e-11
-4.01105e-11
4.96539e-11
-8.22589e-11
1.49907e-10
-2.18091e-10
2.11251e-10
4.31305e-11
3.9014e-10
-5.73148e-09
1.3615e-08
3.32652e-09
-1.42553e-07
3.32301e-07
7.7311e-07
-4.67904e-05
0.000172338
-0.000427769
-0.0031399
0.0166645
-0.00143091
-0.0224369
-0.0196805
0.00569455
0.0268241
0.0301054
0.00931604
-0.0341022
-0.0403279
-0.0190027
0.0294454
0.0413855
0.0326615
-0.0218796
-0.0402614
-0.0324941
-0.00126723
0.0331239
0.0373313
0.0176415
-0.0289564
-0.0362228
-0.0247372
0.0214474
0.0315375
0.0250541
-0.012215
-0.0224868
-0.0197938
0.00292749
0.016413
0.014909
-0.0037359
-0.014024
-0.01091
0.00811063
0.0158272
0.00477321
-0.013208
-0.00824646
0.00677045
0.00600796
-0.000578345
-0.00436807
-0.00392643
0.00122
0.0049344
0.00295412
-0.00233892
-0.00343495
-0.00155434
0.000162582
0.00130675
0.00122197
-0.000134472
-0.0013439
-0.000555745
0.00237172
0.00545539
0.00668013
0.00529447
0.00257141
0.000588713
-0.000655104
-0.000857627
-0.000668477
-0.00033424
3.34065e-05
-0.000245125
-0.000182501
-0.000817129
-0.00161662
-0.00194188
-0.00152559
-0.00136894
-5.91209e-15
-6.49415e-15
-1.03039e-14
1.2024e-14
-5.09499e-14
9.59624e-14
-2.05915e-13
2.99302e-13
-4.75935e-13
6.84243e-13
-9.45302e-13
1.21689e-12
-1.57593e-12
1.93732e-12
-2.16428e-12
2.27684e-12
-2.53008e-12
2.40591e-12
-1.47716e-12
7.53752e-13
7.43726e-13
-2.9616e-12
5.62208e-12
-1.26764e-11
3.22622e-11
-5.45194e-11
6.98608e-11
-1.07947e-10
2.39506e-10
-4.43073e-10
5.45408e-10
-6.7679e-10
1.21544e-09
-2.03763e-09
6.33791e-11
3.14567e-09
5.12947e-08
-3.95037e-07
1.11705e-07
-2.35535e-05
-0.000203243
-0.000280434
-0.00469346
-0.00118511
0.0297777
-0.00337508
-0.0328059
-0.0261901
0.0142592
0.0386252
0.0318528
-0.013853
-0.0425981
-0.035548
0.0120659
0.0407453
0.0399061
-0.00596657
-0.0368376
-0.0322596
-0.0131108
0.0272297
0.0351255
0.0251772
-0.0229755
-0.0345232
-0.0283663
0.0150681
0.0297808
0.0254833
-0.00888692
-0.0218944
-0.018443
0.00457795
0.0142363
0.00879284
-0.008184
-0.0105853
0.000676438
0.0128053
0.00402037
-0.00924244
-0.00566068
0.00527489
0.00440697
-0.00142524
-0.00362193
-0.00134371
0.0025326
0.0024525
-0.000105791
-0.00234615
-0.00234939
-0.000234981
0.00093197
0.00116717
0.000479769
-0.000520829
-0.000763196
3.00283e-05
0.00134741
0.00194608
0.00172593
0.00073324
-0.000348952
-0.000903952
-0.00117665
-0.00103395
-0.000549291
-0.00016871
-5.12977e-05
0.000126829
-0.000132588
-0.000167682
-0.000821626
-0.00152231
-0.00182041
-0.0015655
-0.00143432
-1.32535e-14
-1.37236e-14
-1.52851e-14
-6.82258e-15
-3.79252e-14
4.40854e-14
-1.31197e-13
1.9428e-13
-3.51695e-13
4.82195e-13
-7.61066e-13
9.8208e-13
-1.28766e-12
1.66594e-12
-2.02013e-12
2.13724e-12
-2.45285e-12
2.32891e-12
-1.5782e-12
7.71369e-13
9.83735e-13
-3.67012e-12
6.68615e-12
-1.30895e-11
3.27138e-11
-5.42323e-11
7.21819e-11
-9.96712e-11
2.0572e-10
-4.60496e-10
7.71482e-10
-1.0608e-09
1.02993e-09
4.97996e-11
-6.79559e-10
-1.04354e-08
2.64047e-08
-6.63355e-08
-3.60135e-06
1.60047e-05
-0.000138647
-0.000206622
0.00186312
-0.00739133
-3.29857e-05
0.0334059
-0.0172679
-0.0389248
-0.0108331
0.0350694
0.0372453
-0.000634169
-0.0360316
-0.0350187
0.00679336
0.0374193
0.0379595
-0.00492445
-0.0344859
-0.0278738
-0.00528029
0.0241473
0.0282732
0.0173885
-0.0221527
-0.0300687
-0.0203506
0.0184922
0.0258647
0.0157096
-0.014381
-0.0173963
-0.00489781
0.0107227
0.00650146
-0.00623503
-0.00575964
0.00535237
0.00616768
-0.00269554
-0.00500385
-0.000799114
0.00220066
0.00108784
-0.00041494
-0.000721825
-3.36564e-06
0.000793275
-6.90065e-05
-0.00134283
-0.00142344
-0.000677459
0.000717165
0.00137883
0.00102263
0.000398586
1.37348e-05
0.000326249
0.0010058
0.00141369
0.000782593
-0.000872216
-0.00285145
-0.00370646
-0.00322966
-0.00228689
-0.00114311
-0.000349
4.98172e-05
0.000253248
0.000156345
0.000216128
-6.18096e-05
-0.000226145
-0.000863196
-0.001472
-0.00172251
-0.00158548
-0.00146729
-2.12752e-14
-2.15628e-14
-2.17547e-14
-1.94371e-14
-3.33789e-14
5.40057e-15
-7.89432e-14
9.4887e-14
-2.16205e-13
2.85912e-13
-5.35699e-13
7.09279e-13
-1.00448e-12
1.3559e-12
-1.72953e-12
1.94667e-12
-2.21732e-12
2.33904e-12
-2.184e-12
1.61756e-12
-4.49916e-13
-1.49916e-12
4.57327e-12
-9.86618e-12
1.82827e-11
-2.8946e-11
3.70944e-11
-5.09697e-11
1.03421e-10
-2.2469e-10
4.78386e-10
-6.22955e-10
3.9637e-10
3.10889e-10
1.8284e-10
-3.23508e-09
-1.77093e-09
7.34004e-08
-1.50741e-06
-1.52321e-07
-2.08605e-05
-9.84733e-05
7.52915e-05
0.000982865
-0.00546014
0.00950215
0.00500828
-0.028774
-0.00354023
0.0277974
0.0278405
-0.0113138
-0.0376208
-0.0308676
0.0155185
0.0384953
0.0361037
-0.0128416
-0.0375981
-0.0307251
0.00396177
0.0282377
0.0284216
0.00135648
-0.0262568
-0.0258321
0.00335788
0.0234012
0.0158143
-0.00842259
-0.0119636
0.000245103
0.00532119
-0.000802608
-0.00195086
0.00026322
0.00186329
6.73481e-05
-0.00349465
-0.002589
0.000947609
0.00192129
0.000661126
3.02309e-05
-0.000247112
-0.000544008
-0.000601179
-0.000857336
-0.000925935
-0.000324477
0.000570015
0.00124236
0.00137264
0.000813827
0.000254023
0.000140399
0.000587171
0.0012947
0.00184103
0.00187831
0.00134748
0.00029824
-0.000834863
-0.00134262
-0.00111068
-0.00056437
3.29311e-05
0.000221265
0.000355502
0.000344521
0.000173474
0.000178405
-0.000153238
-0.000379817
-0.000893466
-0.00143573
-0.00161926
-0.00155793
-0.00149255
-2.79764e-14
-2.81977e-14
-2.80386e-14
-2.73759e-14
-3.29786e-14
-1.64858e-14
-5.44103e-14
2.95982e-14
-1.28772e-13
1.52705e-13
-3.45348e-13
4.53624e-13
-7.35889e-13
1.00386e-12
-1.40149e-12
1.66769e-12
-1.96934e-12
2.42909e-12
-3.29022e-12
3.63134e-12
-4.03688e-12
4.76296e-12
-4.96053e-12
3.04474e-12
-2.70548e-13
-2.86401e-12
3.0088e-12
-6.80431e-13
-4.64978e-12
8.62136e-13
7.52978e-11
-2.29606e-10
4.03725e-10
-9.50111e-10
1.35999e-09
7.77465e-12
-8.18472e-11
7.34274e-08
2.93338e-07
-4.71904e-06
-4.24013e-06
-6.26072e-06
-0.000280081
0.000384563
0.000349634
-0.00424593
0.0116394
-0.0046952
-0.0299964
0.0107331
0.0380558
0.0135837
-0.0349951
-0.0378463
-0.000156263
0.0351645
0.0358441
-0.00424695
-0.0313803
-0.0269766
0.00340616
0.026032
0.0214934
-0.0115281
-0.020128
-0.00209636
0.0138781
0.00385588
-0.00593371
-0.00267386
0.00175325
0.00143979
-0.000638562
0.00052852
0.000589449
-0.00177422
-0.00228411
-0.00122578
4.31678e-05
0.00149249
0.00150662
0.000293992
-0.00049087
-0.000710664
-0.000967673
-0.000920211
-0.000659065
-0.000188831
0.000517227
0.0010873
0.00117631
0.000866825
0.00019856
-0.000318683
-0.000426594
-0.000212672
6.44788e-05
0.000198873
4.70546e-05
-0.000185334
-4.43837e-05
0.00042501
0.000702352
0.000644618
0.00054459
0.000490538
0.000403462
0.000406807
0.00033622
0.000163522
6.35132e-06
-4.95656e-06
-0.000311556
-0.000483556
-0.000903107
-0.00134149
-0.00152377
-0.00150704
-0.00148423
-3.26379e-14
-3.28683e-14
-3.26237e-14
-3.31032e-14
-3.25313e-14
-3.09279e-14
-3.88185e-14
-1.47031e-14
-6.93558e-14
4.60198e-14
-1.8284e-13
2.30803e-13
-4.52467e-13
6.2522e-13
-9.6364e-13
1.18433e-12
-1.44044e-12
1.73587e-12
-3.44184e-12
4.70162e-12
-7.08949e-12
1.18427e-11
-1.81248e-11
2.2575e-11
-2.47988e-11
2.78556e-11
-2.97922e-11
4.37739e-11
-9.06532e-11
1.6405e-10
-2.22211e-10
1.99825e-10
2.50704e-11
-1.46796e-10
-3.56453e-10
8.93496e-10
2.02145e-08
1.07621e-07
1.62652e-06
2.79782e-06
2.81844e-06
3.31665e-05
-1.93316e-05
-0.000246712
0.000475275
-0.000354202
-0.00212367
0.0113992
-0.0143147
-0.019223
0.0317459
0.0256445
-0.0222577
-0.0333732
-0.00294291
0.0258656
0.0244083
-0.00692928
-0.0217631
-0.0110021
0.0146592
0.0127915
-0.00527144
-0.0068749
0.000462037
0.00203474
-0.000308202
-0.000783595
5.92979e-05
0.000713789
0.001429
0.00045284
-0.000571946
-0.00120412
-0.00205118
-0.0012592
0.000473782
0.0011187
0.00102691
0.000541281
-0.000308798
-0.000863658
-0.000906172
-0.000858366
-0.000672029
-0.000227365
0.000304629
0.000807236
0.000977223
0.000724913
0.000129445
-0.000424863
-0.000788473
-0.000695882
-0.000472466
-0.00034108
-0.000582558
-0.00117628
-0.00198197
-0.00227396
-0.00182017
-0.000885493
0.000145204
0.000551535
0.000649074
0.000527855
0.000314031
0.000195728
3.39716e-05
-9.18018e-05
-0.000144852
-0.000154914
-0.000375057
-0.000455568
-0.000838444
-0.00125127
-0.0014638
-0.00149183
-0.00149698
-3.54856e-14
-3.56365e-14
-3.54766e-14
-3.65314e-14
-3.25599e-14
-3.97256e-14
-2.64823e-14
-4.58543e-14
-2.16251e-14
-4.56713e-14
-3.8359e-14
2.75784e-15
-1.24788e-13
1.58087e-13
-2.99927e-13
3.01903e-13
-1.90487e-13
-8.64946e-15
-1.60943e-14
6.84116e-13
-2.5661e-12
6.45626e-12
-1.3948e-11
2.11525e-11
-2.77768e-11
3.53517e-11
-3.89663e-11
3.96319e-11
-4.05313e-11
6.33407e-11
-1.3614e-10
1.39735e-10
-2.00683e-10
3.53596e-10
-7.78981e-10
1.60071e-09
2.95892e-08
2.29375e-07
1.88708e-06
7.4853e-06
8.77524e-06
2.48307e-05
0.000118425
-9.85697e-05
-0.000208356
0.0004756
-0.000650552
2.51529e-05
0.00150974
-0.00182373
0.00557652
-0.00584613
-0.0119863
0.0059566
0.0173556
0.00430008
-0.0140505
-0.0120442
0.00485597
0.0125016
-0.00196611
-0.00489062
0.000887329
-0.000579073
-0.000512098
0.00050513
2.1022e-05
0.000123988
0.000619787
0.000814374
0.000114371
-0.000947578
-0.00125242
-0.00107811
-0.000198783
0.000935082
0.0010519
0.000383216
-0.000228705
-0.000622435
-0.000836425
-0.000768731
-0.000534266
-0.000271322
8.96678e-05
0.000429223