/*--------------------------------*- C++ -*----------------------------------*\
| =========                 |                                                 |
| \\      /  F ield         | OpenFOAM: The Open Source CFD Toolbox           |
|  \\    /   O peration     | Version:  2.2.x                                 |
|   \\  /    A nd           | Web:      www.OpenFOAM.org                      |
|    \\/     M anipulation  |                                                 |
\*---------------------------------------------------------------------------*/
FoamFile
{
    version     2.0;
    format      ascii;
    class       volScalarField;
    location    "1.25";
    object      Bz;
}
// * * * * * * * * * * * * * * * * * * * * * * * * * * * * * * * * * * * * * //

dimensions      [1 0 -2 0 0 -1 0];

internalField   nonuniform List<scalar> 
14161
(
7.80888e-18
8.06918e-18
7.42278e-18
6.60171e-18
6.00063e-18
5.45073e-18
4.96386e-18
4.88863e-18
4.94749e-18
4.78991e-18
4.67467e-18
4.46802e-18
4.0395e-18
3.85407e-18
3.61722e-18
3.39143e-18
3.15789e-18
3.1109e-18
3.01726e-18
2.90142e-18
2.81269e-18
2.75655e-18
2.57964e-18
2.51639e-18
2.38609e-18
2.32988e-18
2.24299e-18
2.21717e-18
2.18364e-18
2.10821e-18
2.08764e-18
2.01005e-18
1.88533e-18
2.01398e-18
1.18685e-18
5.12916e-18
2.02752e-17
3.30117e-17
2.54086e-17
2.41216e-17
2.50381e-17
2.03387e-17
1.67298e-17
1.56672e-17
1.25088e-17
9.84599e-18
8.43867e-18
7.71502e-18
7.93134e-18
8.13639e-18
7.56805e-18
6.79147e-18
5.70918e-18
4.9855e-18
4.26793e-18
4.32111e-18
3.90813e-18
3.9749e-18
3.85992e-18
4.13269e-18
4.22028e-18
4.7604e-18
4.73138e-18
4.751e-18
4.6826e-18
4.59383e-18
4.1585e-18
4.44766e-18
4.00246e-18
4.40555e-18
3.20686e-18
4.58864e-18
4.30651e-18
6.57618e-18
8.25783e-18
1.18173e-17
1.38336e-17
1.71193e-17
2.11914e-17
2.66115e-17
2.55611e-17
1.89668e-17
1.25475e-17
8.55836e-18
4.50833e-18
3.53133e-18
2.96872e-18
1.61396e-18
7.14471e-19
-1.14487e-19
-4.41821e-19
-4.51216e-19
-4.7321e-19
-2.30688e-19
-1.20863e-18
-1.44223e-18
-9.9098e-19
-8.73804e-19
-1.43064e-18
-1.51348e-18
-8.54156e-19
-1.97235e-18
-1.69783e-18
-1.86808e-18
-2.99353e-18
-4.84277e-18
-5.6302e-18
-7.66638e-18
-1.07637e-17
-1.37727e-17
-1.7476e-17
-2.12045e-17
-2.51667e-17
-2.77962e-17
-2.81268e-17
-2.30475e-17
-2.59361e-17
-1.72118e-17
-5.21839e-17
3.99356e-17
3.59142e-17
3.0944e-17
2.6342e-17
2.41454e-17
2.23536e-17
2.20606e-17
2.40035e-17
2.41276e-17
2.40505e-17
2.34195e-17
2.21003e-17
2.10506e-17
1.9556e-17
1.89721e-17
1.87726e-17
1.89395e-17
1.86685e-17
1.85458e-17
1.81115e-17
1.76002e-17
1.69987e-17
1.64841e-17
1.516e-17
1.46917e-17
1.44066e-17
1.4131e-17
1.38809e-17
1.3357e-17
1.29515e-17
1.27357e-17
1.20037e-17
1.17048e-17
1.1505e-17
1.06596e-17
1.28795e-17
4.38369e-17
5.87649e-17
5.94237e-17
5.21757e-17
4.68631e-17
4.0318e-17
3.36857e-17
2.99731e-17
2.47366e-17
2.25383e-17
2.1275e-17
2.01933e-17
1.96424e-17
1.92432e-17
1.90531e-17
1.9129e-17
1.93191e-17
1.94275e-17
1.95437e-17
1.95514e-17
1.95159e-17
1.97457e-17
1.95545e-17
1.95645e-17
1.87773e-17
1.82101e-17
1.80187e-17
1.76278e-17
1.69202e-17
1.65375e-17
1.62931e-17
1.56197e-17
1.54658e-17
1.55356e-17
1.58875e-17
1.62336e-17
1.70405e-17
1.77841e-17
2.13775e-17
2.51529e-17
3.08838e-17
3.53701e-17
3.72785e-17
3.89682e-17
3.27782e-17
2.36369e-17
2.06997e-17
1.34193e-17
1.07397e-17
7.65529e-18
4.75769e-18
1.6495e-18
-6.55998e-19
-3.16366e-18
-3.30071e-18
-4.35845e-18
-3.06319e-18
-3.84241e-18
-3.28285e-18
-2.72429e-18
-2.31147e-18
-1.73106e-18
-1.23736e-18
-2.82771e-19
3.36521e-20
-1.50137e-19
-4.68124e-19
-8.02184e-19
-1.20743e-18
-1.51913e-18
-1.6915e-18
-1.90482e-18
-2.29683e-18
-4.26388e-18
-6.44014e-18
-1.61949e-17
-2.43843e-17
-3.39219e-17
-4.02626e-17
-4.75421e-17
-5.33704e-17
-6.33066e-17
-1.60125e-16
7.79501e-17
7.95804e-17
8.0192e-17
7.79392e-17
7.34439e-17
6.69517e-17
6.09684e-17
5.46698e-17
4.89674e-17
4.65097e-17
4.46674e-17
4.30349e-17
4.41768e-17
4.13396e-17
3.96842e-17
3.78972e-17
3.52712e-17
3.23069e-17
3.07314e-17
2.94786e-17
2.92475e-17
2.87248e-17
2.96448e-17
2.94529e-17
2.90326e-17
2.8764e-17
2.79228e-17
2.68504e-17
2.65781e-17
2.63223e-17
2.59756e-17
2.57771e-17
2.55023e-17
2.53835e-17
2.50886e-17
3.20185e-17
7.77448e-17
9.04576e-17
8.7554e-17
8.19258e-17
7.41902e-17
6.9309e-17
6.3413e-17
5.51102e-17
5.36837e-17
4.59654e-17
4.29981e-17
3.95969e-17
3.78066e-17
3.62177e-17
3.45535e-17
3.39122e-17
3.30752e-17
3.22021e-17
3.12901e-17
2.99342e-17
2.91258e-17
2.82294e-17
2.73842e-17
2.68046e-17
2.59541e-17
2.55166e-17
2.46258e-17
2.41776e-17
2.2901e-17
2.20699e-17
2.08759e-17
2.08359e-17
2.04808e-17
2.08634e-17
2.17515e-17
2.39526e-17
2.69567e-17
3.36366e-17
4.01195e-17
4.47097e-17
4.59801e-17
4.34752e-17
3.95206e-17
3.64424e-17
3.07568e-17
2.70589e-17
2.6563e-17
2.14601e-17
1.97744e-17
1.60153e-17
1.35473e-17
1.11091e-17
9.22784e-18
7.58839e-18
6.75087e-18
5.92978e-18
4.35891e-18
3.66069e-18
3.40432e-18
2.81308e-18
2.52106e-18
2.49705e-18
2.29326e-18
2.63918e-18
2.83899e-18
3.05066e-18
3.15793e-18
2.84339e-18
2.02623e-18
1.16688e-18
2.78819e-19
-1.33575e-18
-2.69651e-18
-4.87443e-18
-7.12382e-18
-1.91287e-17
-2.56293e-17
-4.02941e-17
-4.67462e-17
-6.03403e-17
-7.39523e-17
-6.93555e-17
-1.61278e-16
8.08777e-17
7.00275e-17
5.32975e-17
4.13176e-17
3.46061e-17
3.31877e-17
3.56248e-17
4.07342e-17
4.43714e-17
4.25094e-17
4.11951e-17
3.96761e-17
3.64735e-17
3.42506e-17
3.39139e-17
3.41534e-17
3.47808e-17
3.60831e-17
3.57685e-17
3.51425e-17
3.47038e-17
3.32894e-17
3.23259e-17
2.91446e-17
2.82544e-17
2.75537e-17
2.74932e-17
2.7547e-17
2.62095e-17
2.52314e-17
2.70641e-17
2.12782e-17
2.54941e-17
2.04302e-17
2.41839e-17
9.23318e-18
6.69926e-17
1.09273e-16
1.12504e-16
9.3493e-17
7.3409e-17
5.6647e-17
4.77234e-17
4.4079e-17
4.1401e-17
4.02934e-17
3.87203e-17
3.62012e-17
3.58653e-17
3.55196e-17
3.51416e-17
3.53035e-17
3.48585e-17
3.4115e-17
3.3135e-17
3.21372e-17
3.11142e-17
3.01459e-17
2.91664e-17
2.8827e-17
2.76572e-17
2.68417e-17
2.60076e-17
2.49495e-17
2.29629e-17
2.10696e-17
1.99733e-17
1.92754e-17
1.91374e-17
1.89726e-17
1.94913e-17
2.14684e-17
2.52247e-17
2.83889e-17
3.59452e-17
3.9683e-17
4.35327e-17
4.14651e-17
3.59998e-17
3.19265e-17
2.72443e-17
2.58122e-17
2.55498e-17
2.2902e-17
2.01423e-17
1.82068e-17
1.69709e-17
1.2865e-17
1.02499e-17
7.88645e-18
7.04583e-18
5.27135e-18
4.09513e-18
2.45548e-18
1.37222e-18
1.19454e-18
1.33716e-18
1.81859e-18
2.15027e-18
2.6446e-18
2.38098e-18
1.85643e-18
1.2069e-18
9.05468e-19
-4.45318e-19
-7.89568e-19
-3.32244e-18
-1.08679e-17
-2.00534e-17
-3.09038e-17
-4.05788e-17
-4.56086e-17
-4.89906e-17
-5.18879e-17
-5.4698e-17
-5.61015e-17
-6.93952e-17
-6.33652e-17
-1.39959e-16
8.38175e-17
9.12408e-17
1.01133e-16
1.04285e-16
9.744e-17
8.92291e-17
8.33654e-17
7.18673e-17
6.13507e-17
5.66982e-17
5.41485e-17
5.3312e-17
5.61852e-17
5.4181e-17
5.27406e-17
5.01904e-17
4.68301e-17
4.18476e-17
3.83553e-17
3.72208e-17
3.54364e-17
3.55846e-17
3.6883e-17
3.76464e-17
3.76483e-17
3.74165e-17
3.65097e-17
3.65097e-17
3.44511e-17
3.31628e-17
3.63017e-17
2.68025e-17
3.6246e-17
3.62222e-17
2.55859e-17
3.64065e-17
1.00303e-16
1.47733e-16
1.1548e-16
1.00345e-16
9.40729e-17
8.42591e-17
7.74757e-17
6.97426e-17
6.88325e-17
5.96563e-17
5.6299e-17
5.53631e-17
5.35959e-17
5.08545e-17
4.78937e-17
4.54517e-17
4.31143e-17
4.09515e-17
3.86942e-17
3.61775e-17
3.40369e-17
3.19153e-17
2.94887e-17
2.81998e-17
2.59673e-17
2.49953e-17
2.34495e-17
2.16177e-17
1.91262e-17
1.70265e-17
1.52508e-17
1.47231e-17
1.45175e-17
1.45475e-17
1.49002e-17
1.53092e-17
1.87538e-17
2.27036e-17
2.91782e-17
3.28059e-17
3.54539e-17
3.29934e-17
3.01135e-17
2.72489e-17
2.54385e-17
2.45156e-17
2.57203e-17
2.46331e-17
2.38538e-17
2.57716e-17
1.86263e-17
1.64478e-17
1.54757e-17
1.32912e-17
1.13648e-17
8.61594e-18
7.06475e-18
5.94184e-18
4.7114e-18
4.40545e-18
4.04976e-18
4.23512e-18
3.86636e-18
3.88601e-18
3.43522e-18
3.45238e-18
2.22536e-18
2.49336e-18
5.12627e-19
3.88139e-19
-4.09083e-18
-1.0455e-17
-1.89959e-17
-2.84609e-17
-3.46682e-17
-4.04147e-17
-4.31813e-17
-4.48524e-17
-4.67562e-17
-4.0131e-17
-5.05666e-17
-5.83012e-17
-1.00038e-16
9.3773e-17
8.12821e-17
5.94699e-17
4.34329e-17
3.32003e-17
3.23089e-17
3.57651e-17
4.15187e-17
4.53414e-17
4.38152e-17
4.23503e-17
4.06665e-17
3.73339e-17
3.41949e-17
3.35179e-17
3.31747e-17
3.34522e-17
3.40367e-17
3.40696e-17
3.36267e-17
3.29645e-17
3.27764e-17
3.09089e-17
2.82889e-17
2.75666e-17
2.67359e-17
2.58675e-17
2.50989e-17
2.51068e-17
2.43074e-17
2.35385e-17
2.23136e-17
2.27746e-17
2.04039e-17
2.21693e-17
1.55227e-17
6.37852e-17
9.08667e-17
9.30024e-17
8.75283e-17
7.35457e-17
6.50612e-17
5.44682e-17
4.89903e-17
4.45531e-17
4.08767e-17
3.77665e-17
3.42957e-17
3.15612e-17
2.90992e-17
2.72813e-17
2.51282e-17
2.33907e-17
2.15679e-17
1.97701e-17
1.8008e-17
1.64534e-17
1.46562e-17
1.28452e-17
1.12885e-17
9.77627e-18
8.6553e-18
7.91303e-18
8.5115e-18
9.17021e-18
1.03312e-17
9.91203e-18
8.68081e-18
7.35538e-18
6.85563e-18
6.92779e-18
7.75971e-18
9.18195e-18
1.26155e-17
1.58977e-17
1.97753e-17
2.31268e-17
2.22615e-17
2.15595e-17
2.10821e-17
2.18601e-17
2.14387e-17
2.30236e-17
2.25984e-17
2.36506e-17
1.94428e-17
1.6127e-17
2.84487e-17
1.52199e-17
1.08549e-17
1.04423e-17
9.3994e-18
9.02128e-18
7.0041e-18
4.37315e-18
3.91777e-18
4.31454e-18
4.5457e-18
4.57548e-18
4.04413e-18
4.11862e-18
3.69436e-18
2.90453e-18
3.03569e-18
1.22113e-18
1.10983e-18
-3.28249e-18
-8.63966e-18
-1.54778e-17
-2.43221e-17
-3.06944e-17
-3.55573e-17
-3.74525e-17
-3.742e-17
-3.35459e-17
-2.27207e-17
-3.19421e-17
-3.61458e-17
-4.10711e-17
4.40981e-17
5.0684e-17
6.27035e-17
7.07441e-17
6.72285e-17
6.16217e-17
5.65679e-17
4.87632e-17
4.03778e-17
3.63513e-17
3.45046e-17
3.36689e-17
3.48498e-17
3.45044e-17
3.33917e-17
3.10964e-17
2.89887e-17
2.54622e-17
2.19392e-17
2.07679e-17
1.9767e-17
1.91491e-17
1.89796e-17
1.98419e-17
2.00081e-17
1.98803e-17
1.99795e-17
1.91711e-17
1.84899e-17
1.77732e-17
1.75693e-17
1.75398e-17
1.69164e-17
1.68765e-17
1.65236e-17
2.12644e-17
5.56379e-17
6.86733e-17
7.22355e-17
6.73603e-17
5.98952e-17
5.23463e-17
4.78035e-17
4.39371e-17
4.07927e-17
3.73194e-17
3.37654e-17
2.9621e-17
2.63454e-17
2.34622e-17
2.12396e-17
1.92544e-17
1.72263e-17
1.55474e-17
1.42069e-17
1.25233e-17
1.1458e-17
1.01577e-17
8.95484e-18
7.82988e-18
6.99613e-18
5.99136e-18
5.85449e-18
5.34992e-18
5.31526e-18
5.17049e-18
5.61727e-18
5.69051e-18
5.48062e-18
5.29421e-18
5.15697e-18
5.19336e-18
5.49235e-18
7.4213e-18
8.92233e-18
1.38282e-17
1.45418e-17
1.40437e-17
1.28604e-17
1.3744e-17
1.58398e-17
1.67172e-17
1.88025e-17
1.95173e-17
2.33508e-17
2.44273e-17
3.35222e-17
1.58533e-17
-4.78127e-18
1.88368e-17
1.82229e-17
1.2792e-17
9.35856e-18
7.91834e-18
5.28122e-18
4.29572e-18
5.85127e-18
5.52498e-18
6.20244e-18
5.73375e-18
6.32921e-18
6.19783e-18
5.54494e-18
4.81423e-18
5.02735e-18
4.03909e-18
1.18147e-18
-1.94385e-18
-7.81791e-18
-1.53046e-17
-2.22158e-17
-2.97711e-17
-3.42439e-17
-3.36844e-17
-3.19006e-17
-1.72623e-17
-2.14714e-17
-2.84436e-17
-2.74838e-17
5.12923e-17
4.44956e-17
3.24642e-17
2.28039e-17
1.65474e-17
1.59396e-17
1.797e-17
2.09554e-17
2.31685e-17
2.22985e-17
2.14521e-17
1.99616e-17
1.87548e-17
1.6457e-17
1.55279e-17
1.48367e-17
1.45236e-17
1.43189e-17
1.44839e-17
1.42492e-17
1.37844e-17
1.3181e-17
1.28999e-17
1.19766e-17
1.10305e-17
1.06792e-17
1.02385e-17
9.75078e-18
9.66207e-18
9.18147e-18
8.61745e-18
8.43144e-18
7.97809e-18
7.6854e-18
7.20044e-18
9.44206e-18
2.44198e-17
4.43287e-17
5.28238e-17
5.32676e-17
4.32864e-17
3.62506e-17
3.00916e-17
2.73364e-17
2.27167e-17
1.95781e-17
1.73126e-17
1.51848e-17
1.33927e-17
1.2474e-17
1.13626e-17
1.03206e-17
9.11668e-18
7.79729e-18
6.61265e-18
5.40147e-18
4.28878e-18
3.55419e-18
2.83232e-18
2.42951e-18
2.39809e-18
2.48654e-18
2.15348e-18
2.085e-18
2.25477e-18
2.28897e-18
2.23493e-18
2.17999e-18
2.19112e-18
2.20936e-18
2.26486e-18
2.70116e-18
3.19384e-18
4.9436e-18
7.08507e-18
9.31625e-18
1.0042e-17
1.00285e-17
1.03296e-17
9.14345e-18
8.70694e-18
1.20564e-17
1.39091e-17
1.61522e-17
1.73896e-17
1.20125e-17
1.24486e-17
1.31416e-17
4.39103e-17
4.79801e-17
7.5175e-18
6.49803e-18
5.06401e-18
1.19268e-17
1.14871e-17
5.70124e-18
5.44016e-18
6.56913e-18
7.18468e-18
7.70793e-18
8.92916e-18
9.09287e-18
8.49569e-18
8.06009e-18
8.78705e-18
6.3998e-18
4.55402e-18
1.97827e-18
-1.57309e-18
-8.61916e-18
-1.72715e-17
-2.49295e-17
-3.06833e-17
-2.70144e-17
-2.36224e-17
-7.9473e-18
-8.88165e-18
-1.88521e-17
-1.45581e-17
1.17411e-17
1.38708e-17
1.90894e-17
2.34439e-17
2.28935e-17
2.10526e-17
1.91153e-17
1.63628e-17
1.33786e-17
1.16335e-17
1.09566e-17
1.01657e-17
1.01889e-17
1.02525e-17
9.53188e-18
8.57393e-18
7.67959e-18
6.63528e-18
5.49736e-18
4.82278e-18
4.46452e-18
4.15919e-18
4.24164e-18
4.21878e-18
4.13754e-18
4.09409e-18
4.00082e-18
3.89589e-18
3.68682e-18
3.51751e-18
3.31812e-18
3.26779e-18
3.18921e-18
3.25439e-18
2.8797e-18
3.29457e-18
6.30442e-18
2.95788e-17
2.85322e-17
2.38473e-17
1.97154e-17
1.74503e-17
1.57912e-17
1.52289e-17
1.39495e-17
1.24513e-17
1.15801e-17
1.05196e-17
9.9045e-18
9.36712e-18
8.75946e-18
8.20469e-18
7.23409e-18
6.55669e-18
5.8042e-18
5.51176e-18
5.1304e-18
4.75728e-18
4.51506e-18
4.32711e-18
4.37238e-18
4.3928e-18
4.47803e-18
4.46086e-18
4.34295e-18
4.11046e-18
3.75296e-18
3.75582e-18
3.74408e-18
3.56654e-18
3.60041e-18
3.39595e-18
5.1293e-18
5.46517e-18
7.61994e-18
9.18493e-18
9.8396e-18
9.82044e-18
1.72309e-18
1.15328e-17
8.76517e-18
2.00552e-18
-9.31614e-19
5.94451e-18
1.35102e-17
2.35049e-17
3.24545e-17
1.84155e-17
1.3037e-17
-1.58724e-17
-1.1289e-17
2.27074e-17
1.90906e-17
2.29533e-17
8.5523e-18
3.64076e-18
1.13419e-17
1.32009e-17
1.34413e-17
1.25982e-17
1.16797e-17
1.06741e-17
1.10978e-17
1.20254e-17
1.1603e-17
9.58156e-18
7.07206e-18
3.32251e-18
-1.4176e-18
-7.44892e-18
-1.41902e-17
-2.04735e-17
-2.36009e-17
-2.72841e-17
-2.42283e-17
-6.26374e-18
-4.00549e-19
-4.98518e-18
6.46026e-18
1.32216e-17
1.12988e-17
8.30305e-18
5.62712e-18
4.04076e-18
3.77916e-18
4.35577e-18
5.10397e-18
5.62106e-18
5.45302e-18
5.12393e-18
4.55355e-18
4.1667e-18
3.56624e-18
3.12222e-18
2.92469e-18
2.88339e-18
2.85175e-18
2.93055e-18
2.83828e-18
2.72556e-18
2.55954e-18
2.36886e-18
2.24502e-18
2.04827e-18
1.90119e-18
1.79671e-18
1.72149e-18
1.68386e-18
1.63621e-18
1.58992e-18
1.51966e-18
1.46202e-18
1.40527e-18
1.28878e-18
1.40207e-18
3.36307e-18
1.31515e-17
1.34611e-17
1.27046e-17
1.06934e-17
8.75083e-18
6.9906e-18
6.3413e-18
5.61705e-18
4.54363e-18
3.99254e-18
3.46588e-18
3.01185e-18
2.62285e-18
2.48959e-18
2.2483e-18
2.49313e-18
2.60178e-18
3.06596e-18
3.54682e-18
4.00548e-18
3.91136e-18
3.87855e-18
3.20563e-18
3.16488e-18
2.88639e-18
3.24042e-18
3.09734e-18
3.13297e-18
2.70083e-18
2.0686e-18
1.42978e-18
1.26249e-18
1.56981e-18
1.11048e-18
3.9006e-18
-7.06666e-19
8.25057e-18
6.34373e-18
3.81584e-18
2.80566e-18
-5.05147e-19
6.19545e-18
-9.91859e-18
-1.58199e-18
1.11447e-17
1.43601e-17
1.04047e-17
3.60238e-18
-6.83104e-18
-1.60194e-17
-7.55882e-18
1.59613e-17
4.23535e-17
4.47699e-17
6.67483e-17
9.84415e-18
6.98032e-18
1.18275e-17
1.37987e-17
1.50876e-17
1.32572e-17
1.44041e-17
1.70908e-17
1.67887e-17
1.34418e-17
1.02376e-17
1.1814e-17
1.23879e-17
1.23156e-17
8.27072e-18
2.63399e-18
-7.88768e-19
-5.43327e-18
-1.12085e-17
-1.78162e-17
-2.03329e-17
-1.82213e-17
-1.89437e-17
-5.60138e-18
7.28226e-19
-2.58563e-18
3.97482e-18
1.65182e-18
2.04e-18
2.99288e-18
3.96826e-18
3.96839e-18
3.67237e-18
3.40229e-18
2.85219e-18
2.32807e-18
1.9447e-18
1.74609e-18
1.63495e-18
1.60508e-18
1.65996e-18
1.45633e-18
1.30981e-18
1.15932e-18
9.4642e-19
7.68983e-19
6.16347e-19
5.80316e-19
5.72974e-19
5.9749e-19
6.16492e-19
6.17422e-19
5.82881e-19
5.57768e-19
5.42133e-19
5.05407e-19
4.66307e-19
4.42416e-19
4.43203e-19
4.41039e-19
4.55148e-19
3.8017e-19
5.93757e-19
2.24633e-18
9.01632e-18
8.64088e-18
7.90559e-18
6.05339e-18
5.1451e-18
3.91121e-18
3.72041e-18
3.26413e-18
2.84842e-18
2.79609e-18
2.63515e-18
2.60351e-18
2.8362e-18
3.02512e-18
3.18668e-18
3.17471e-18
3.55042e-18
4.20447e-18
4.73965e-18
5.56237e-18
5.79152e-18
5.31762e-18
4.44545e-18
3.69698e-18
3.45525e-18
3.53929e-18
4.26631e-18
4.6002e-18
5.08117e-18
4.67831e-18
3.82599e-18
2.8547e-18
1.68058e-18
4.34539e-18
-2.16253e-18
1.31796e-17
2.16512e-18
-7.20997e-18
1.19976e-17
1.18716e-18
1.64054e-17
-5.79742e-23
4.77132e-18
-1.53588e-17
-4.18975e-17
-3.72981e-17
-8.52645e-18
1.64831e-17
4.65265e-17
6.09509e-17
3.78151e-17
2.97375e-17
1.19282e-17
2.90532e-17
1.74905e-17
-4.69258e-17
5.90657e-17
3.28702e-17
-3.20953e-18
6.16232e-18
2.21651e-17
2.10399e-17
1.4977e-17
1.47026e-17
2.07626e-17
1.7748e-17
4.5984e-18
7.63503e-18
1.59094e-17
1.25442e-17
2.56491e-18
-3.66891e-19
-4.65132e-18
-8.58859e-18
-1.11853e-17
-1.36638e-17
-1.51325e-17
-1.32108e-17
-7.26575e-18
3.91382e-18
2.79132e-18
9.947e-18
1.92897e-18
1.61993e-18
1.22467e-18
8.03258e-19
5.87288e-19
5.73389e-19
6.7613e-19
7.4267e-19
8.80844e-19
8.42092e-19
7.66537e-19
6.59137e-19
5.77274e-19
4.80437e-19
4.35832e-19
4.33747e-19
4.42739e-19
4.84011e-19
5.29346e-19
5.4413e-19
5.44147e-19
5.18821e-19
4.82418e-19
4.41081e-19
4.24979e-19
3.8662e-19
3.73792e-19
3.64652e-19
3.94259e-19
3.72693e-19
3.94224e-19
4.0409e-19
3.94998e-19
3.80216e-19
3.27841e-19
5.02059e-19
1.77959e-18
6.28778e-18
5.5835e-18
5.41733e-18
4.23595e-18
3.56404e-18
2.66869e-18
2.43737e-18
2.45632e-18
2.21308e-18
2.5826e-18
2.37406e-18
2.90879e-18
2.89322e-18
3.10955e-18
3.58129e-18
3.25004e-18
2.70368e-18
3.24123e-18
4.77209e-18
6.35725e-18
7.26431e-18
6.74316e-18
5.61724e-18
4.46508e-18
3.03867e-18
2.37122e-18
2.65034e-18
4.0398e-18
4.69746e-18
6.28725e-18
5.18296e-18
4.03235e-18
4.01701e-18
-1.42622e-18
6.63276e-18
-4.98427e-18
-3.84632e-18
2.23046e-17
3.17867e-18
-2.92342e-18
-4.88918e-17
-8.78916e-18
4.86796e-17
6.6408e-17
7.25664e-17
2.67138e-17
-1.04391e-17
-3.66891e-17
-3.74216e-17
-2.49791e-17
-9.39876e-18
4.77696e-18
9.697e-19
1.01237e-17
-1.01963e-19
3.06242e-17
-5.32544e-17
3.57572e-17
2.55542e-17
4.55135e-17
5.33632e-17
1.32807e-17
2.90793e-18
4.66127e-18
5.80849e-17
3.06942e-17
1.38813e-17
1.36159e-17
1.21224e-17
3.26083e-17
2.44506e-17
1.04132e-17
1.11649e-17
1.43242e-17
4.01619e-18
-1.26994e-17
-2.36264e-17
-1.78864e-17
-1.35057e-17
1.19401e-18
2.50746e-18
1.06641e-17
1.63887e-19
2.24113e-19
3.72555e-19
4.8465e-19
5.19859e-19
4.96571e-19
4.75156e-19
3.92232e-19
3.18937e-19
2.72242e-19
2.59434e-19
2.77932e-19
2.99465e-19
3.77529e-19
3.62944e-19
3.37048e-19
3.07804e-19
2.94882e-19
2.47796e-19
2.14407e-19
2.16036e-19
2.02355e-19
2.17237e-19
2.16592e-19
2.38988e-19
2.79162e-19
2.76956e-19
2.73272e-19
2.57674e-19
2.22857e-19
2.19007e-19
2.50713e-19
2.16196e-19
1.9096e-19
1.71464e-19
3.48585e-19
1.1508e-18
4.4117e-18
5.96591e-18
7.07089e-18
4.97431e-18
3.57306e-18
2.08887e-18
1.26199e-18
1.79042e-18
1.98876e-18
2.24053e-18
1.99778e-18
2.83046e-18
4.02196e-18
4.46604e-18
3.96091e-18
2.44719e-18
8.55595e-19
9.1306e-19
2.95357e-18
5.4688e-18
7.65799e-18
9.28204e-18
7.63697e-18
5.90814e-18
3.45414e-18
1.45984e-18
1.07546e-18
2.7633e-18
5.45835e-18
6.9357e-18
7.35908e-18
8.27024e-18
1.73027e-18
5.35319e-18
-2.25944e-18
-1.08e-17
3.23634e-17
-6.66141e-17
1.81497e-18
7.73958e-17
8.78019e-17
-7.92109e-17
-2.2608e-16
-1.3616e-16
-4.70327e-17
3.72751e-18
4.64198e-17
3.6524e-17
1.71821e-17
3.46682e-18
-3.07459e-18
-2.80182e-18
-7.79913e-18
-2.45274e-18
-1.17217e-17
6.95454e-18
4.55187e-17
-2.54882e-17
3.22287e-17
6.51971e-17
2.03935e-17
-1.17949e-17
-1.46488e-17
5.32842e-17
-8.41856e-19
6.59568e-18
2.93614e-17
1.46364e-17
3.54257e-17
-6.17005e-19
3.39197e-18
3.60013e-17
1.88786e-17
-3.13104e-19
-6.72639e-18
-7.39856e-18
-1.3503e-17
-1.98685e-17
-1.35862e-17
5.25476e-19
3.22985e-18
1.08255e-17
3.41667e-19
2.89997e-19
2.653e-19
1.92e-19
1.45793e-19
1.56461e-19
1.4435e-19
2.1909e-19
2.97923e-19
2.86741e-19
2.818e-19
2.67522e-19
2.37228e-19
2.61009e-19
2.18155e-19
2.16891e-19
2.16504e-19
2.36286e-19
2.93364e-19
2.91626e-19
2.80928e-19
2.66948e-19
2.63857e-19
2.55987e-19
2.55787e-19
2.4273e-19
2.42895e-19
2.42167e-19
2.34338e-19
2.35851e-19
2.42232e-19
2.67937e-19
2.32464e-19
2.23507e-19
2.42336e-19
3.96267e-19
1.36898e-18
3.45804e-18
6.57118e-18
8.62897e-18
6.3143e-18
4.76302e-18
3.0578e-18
2.15057e-18
1.64797e-18
1.88415e-18
1.5923e-18
1.41597e-18
2.63621e-18
4.63455e-18
6.40993e-18
6.83425e-18
4.0356e-18
1.42096e-18
-1.17724e-18
8.6194e-19
3.52384e-18
7.21208e-18
9.7289e-18
8.63671e-18
7.39617e-18
4.29578e-18
3.89584e-18
1.79307e-18
4.22347e-18
6.18836e-18
7.85382e-18
1.06831e-17
8.02639e-18
1.35211e-17
3.34797e-18
4.33608e-18
-1.46682e-17
-4.74831e-17
1.61544e-16
-3.62981e-16
-3.94637e-16
1.53703e-16
3.63788e-16
3.82097e-16
1.04565e-16
-2.93231e-17
-1.20395e-16
-1.0706e-16
-7.61422e-17
-4.4801e-17
-2.40357e-17
-6.20773e-18
6.09082e-18
9.53513e-18
2.10858e-17
2.1217e-17
-1.96403e-17
9.65647e-17
5.09472e-17
-1.39569e-16
-2.08447e-17
1.36273e-16
-7.73291e-18
-4.83558e-17
8.04619e-18
7.74095e-17
5.07284e-17
-3.11141e-17
6.32745e-19
-1.04473e-17
3.04269e-17
6.11348e-17
-6.87048e-18
-1.23601e-17
1.70682e-17
2.43178e-17
1.6037e-17
2.92464e-18
-6.15812e-18
-8.70477e-18
2.51198e-18
3.76745e-18
1.03285e-17
3.61391e-20
7.95825e-20
7.88669e-20
1.39907e-19
2.08134e-19
2.3669e-19
2.58724e-19
2.30267e-19
1.40797e-19
1.6509e-19
1.88337e-19
1.95321e-19
2.27527e-19
2.38866e-19
2.63348e-19
2.81218e-19
2.87544e-19
2.73168e-19
2.44171e-19
2.24992e-19
2.25994e-19
2.39466e-19
2.40674e-19
2.50658e-19
2.70196e-19
2.69188e-19
2.53143e-19
2.45161e-19
2.4757e-19
2.41052e-19
2.44161e-19
2.27008e-19
2.35497e-19
2.2312e-19
2.18034e-19
2.39628e-19
2.68754e-19
1.29286e-18
2.09522e-18
1.10283e-18
5.94814e-18
6.40171e-18
4.49475e-18
1.1267e-18
-6.87616e-20
2.70466e-18
-6.49373e-19
-3.48958e-18
2.998e-18
7.6734e-18
9.99839e-18
9.76792e-18
4.69815e-18
1.69842e-18
-2.23549e-18
-1.48912e-21
2.52873e-18
7.49389e-18
7.98324e-18
8.64688e-18
7.62819e-18
2.71355e-18
1.30302e-17
-6.34107e-19
1.63662e-17
1.92047e-18
2.54728e-17
2.30988e-17
4.97467e-17
6.42111e-17
-8.87561e-17
4.81748e-16
-9.26755e-16
-2.28929e-16
1.3028e-15
1.13434e-15
7.23019e-17
-8.13799e-16
-6.65251e-16
-3.75814e-16
-7.34881e-17
9.95622e-17
1.64057e-16
1.57906e-16
1.263e-16
1.11863e-16
7.9545e-17
5.05646e-17
2.13079e-17
-3.85158e-18
-6.45424e-17
8.17819e-17
-1.98757e-16
-2.76256e-16
3.14195e-16
3.22723e-16
-1.11639e-16
-1.25528e-16
8.36044e-17
8.68127e-17
9.84037e-18
-4.27519e-17
-4.31456e-17
5.49213e-17
3.66907e-17
3.14083e-17
3.85978e-17
-4.2777e-17
-2.09068e-17
3.76643e-17
3.63731e-17
1.38367e-17
9.28602e-21
-8.5914e-18
-8.21485e-18
-6.38078e-18
2.77857e-18
3.81072e-18
9.25244e-18
2.80264e-19
2.32433e-19
1.82974e-19
1.52998e-19
1.78159e-19
1.94066e-19
2.24745e-19
2.61861e-19
3.03692e-19
2.96342e-19
2.24773e-19
2.55308e-19
2.84044e-19
2.26445e-19
2.36701e-19
2.37321e-19
2.42108e-19
2.14431e-19
2.34478e-19
2.70107e-19
2.75282e-19
2.72173e-19
2.72787e-19
2.72409e-19
2.31819e-19
2.41674e-19
2.13738e-19
2.17161e-19
2.12244e-19
2.11923e-19
2.04046e-19
2.03979e-19
2.07526e-19
1.98155e-19
1.91719e-19
2.22542e-19
1.4663e-19
4.98675e-19
2.32872e-18
-1.01741e-18
3.00709e-18
1.31534e-17
4.83306e-18
-2.28083e-18
-2.01482e-18
-1.1742e-18
-6.55236e-19
1.32147e-19
4.90426e-18
7.17992e-18
1.08192e-17
6.62352e-18
2.69196e-18
4.4611e-19
-4.84594e-19
2.70692e-18
3.11805e-18
8.45875e-18
2.97995e-18
5.28534e-18
6.34473e-18
1.66813e-18
3.89218e-17
-3.973e-17
1.99232e-16
-3.82091e-16
5.47695e-16
-4.10936e-16
-1.31852e-16
1.05179e-15
-1.42375e-15
1.01258e-15
1.68847e-15
-2.114e-15
-2.16644e-15
-1.99266e-16
7.06897e-16
9.83918e-16
7.50578e-16
4.44241e-16
1.91105e-16
-3.96236e-17
-1.98397e-16
-2.46266e-16
-2.44166e-16
-2.54655e-16
-2.04956e-16
-1.4497e-16
-9.44319e-17
-1.99851e-17
4.07674e-17
-1.89342e-17
4.74414e-16
1.93121e-16
-2.84337e-16
-1.63423e-16
5.86833e-17
6.59242e-17
-1.80104e-17
-5.35199e-17
-2.46323e-17
1.91799e-17
8.85152e-17
4.3111e-17
-8.43906e-18
1.0864e-17
-4.27976e-17
-7.47547e-18
6.36083e-17
3.15345e-17
-1.18764e-17
-1.92523e-17
-2.04917e-17
-2.1909e-17
-1.69499e-17
-8.68534e-18
3.45162e-18
3.87636e-18
1.59229e-17
6.61399e-20
1.59762e-19
2.27782e-19
2.45699e-19
2.25582e-19
2.36769e-19
2.47836e-19
2.41879e-19
2.43874e-19
2.50539e-19
2.57474e-19
2.62934e-19
2.67687e-19
2.72066e-19
2.4218e-19
2.61368e-19
2.61973e-19
2.89801e-19
2.82338e-19
2.30882e-19
2.21004e-19
2.32492e-19
2.2603e-19
2.15841e-19
2.00542e-19
2.05267e-19
2.19919e-19
2.09136e-19
2.12088e-19
1.8385e-19
1.94613e-19
1.77988e-19
1.61741e-19
1.62443e-19
1.4188e-19
2.33752e-19
1.56834e-19
4.00896e-19
2.28541e-18
-2.28178e-18
4.32581e-18
2.2041e-17
6.30437e-19
-1.12076e-17
-4.9163e-18
-2.35928e-19
3.29573e-18
4.6332e-18
5.67893e-18
8.58548e-18
9.80697e-18
1.14254e-18
-5.40193e-18
-3.0201e-18
1.5791e-18
5.85172e-18
8.2271e-18
-3.28269e-18
6.6209e-18
-1.42513e-17
1.89334e-17
-3.73602e-18
-8.48604e-18
1.11611e-16
-1.86386e-16
2.27698e-16
-1.16391e-16
-1.11575e-16
3.34337e-16
-4.38837e-16
3.70042e-16
7.13138e-16
-1.8309e-15
-1.06648e-15
1.75537e-15
1.96786e-15
2.25267e-16
-8.00791e-16
-1.05082e-15
-8.09468e-16
-5.98942e-16
-3.98507e-16
-1.88218e-16
4.34602e-17
1.77826e-16
2.31157e-16
2.44021e-16
2.10562e-16
1.80185e-16
1.6307e-16
3.13107e-17
2.20353e-16
-2.60083e-16
-4.67475e-16
6.35419e-17
1.60911e-16
-4.67378e-17
-7.94346e-17
3.64484e-18
4.0652e-17
3.88173e-17
2.7821e-17
-4.14516e-18
-4.23896e-17
-4.8689e-18
-1.96172e-18
1.0352e-17
7.71354e-17
3.33046e-17
-3.43842e-17
-3.18918e-17
-7.87919e-18
-7.4169e-18
-1.35372e-17
-2.06749e-17
-1.02753e-17
3.60042e-18
5.5259e-18
9.72519e-18
4.03743e-19
3.32127e-19
3.3177e-19
2.76506e-19
3.24137e-19
3.1003e-19
3.26621e-19
3.06138e-19
2.92019e-19
3.02976e-19
3.25866e-19
3.00118e-19
2.70692e-19
2.71846e-19
2.58139e-19
2.55561e-19
2.44349e-19
2.71717e-19
2.50483e-19
2.59424e-19
2.42058e-19
2.47353e-19
2.22254e-19
2.00179e-19
2.03222e-19
1.93369e-19
1.7421e-19
1.63428e-19
1.581e-19
1.5584e-19
1.56008e-19
1.4113e-19
1.29535e-19
1.5204e-19
1.21932e-19
1.97024e-19
2.74838e-19
-1.59148e-19
2.90988e-18
-1.63257e-17
3.09636e-17
4.52891e-17
-4.13851e-17
-6.00664e-17
9.71991e-20
4.40502e-17
3.34313e-17
-1.52823e-18
-8.4487e-18
4.04665e-18
-4.16297e-19
9.07462e-19
-1.21856e-17
1.04282e-17
6.18804e-19
9.6575e-18
-1.99827e-17
2.03862e-17
-2.98401e-17
3.21843e-17
-3.26484e-17
1.45534e-17
3.93608e-17
-4.36138e-17
4.80276e-17
-1.92814e-17
-6.18359e-17
2.07637e-16
-2.04227e-16
1.21979e-16
3.2816e-16
-7.16753e-16
1.96315e-16
1.13674e-15
7.79318e-16
-8.80188e-16
-1.3785e-15
-7.42964e-16
1.1208e-17
4.23251e-16
5.46353e-16
5.10841e-16
4.22109e-16
3.15975e-16
1.79926e-16
8.01992e-17
3.7947e-17
-2.30227e-17
-5.92814e-17
-1.15004e-16
-1.5382e-16
-2.06307e-16
-2.20124e-16
2.43689e-16
1.7816e-16
-5.97181e-17
-3.61095e-17
7.85422e-17
7.94417e-17
3.90773e-17
-3.50532e-18
-2.23762e-17
-1.97296e-17
1.19938e-17
3.05409e-17
2.58404e-17
5.69622e-17
2.19484e-17
-4.09055e-17
-2.96085e-17
1.14798e-17
2.75142e-17
1.62809e-17
2.4807e-18
-1.47607e-17
-1.11997e-17
3.48881e-18
4.61545e-18
1.24075e-17
2.23e-19
2.63453e-19
2.98189e-19
2.89304e-19
3.73319e-19
3.95173e-19
3.56193e-19
3.18213e-19
3.07668e-19
3.26516e-19
3.11487e-19
3.21093e-19
3.38478e-19
2.96619e-19
2.70702e-19
2.6301e-19
2.54303e-19
2.18983e-19
2.28123e-19
1.89637e-19
1.96208e-19
1.76164e-19
1.57987e-19
1.71702e-19
1.58189e-19
1.50692e-19
1.10133e-19
1.1362e-19
1.19298e-19
1.27605e-19
9.03592e-20
9.32716e-20
9.18737e-20
6.51426e-20
8.48201e-20
1.19936e-20
5.12081e-19
5.60727e-19
2.58777e-18
-1.13789e-17
1.74515e-17
6.89812e-17
-2.35053e-16
3.70566e-17
2.12513e-16
8.8431e-17
-7.74827e-17
-1.3303e-16
-2.54975e-17
8.05843e-17
3.21083e-17
1.38461e-17
-7.56619e-17
9.71192e-17
-7.77264e-17
6.51582e-17
-3.40929e-17
-3.49669e-17
9.88673e-17
-1.18694e-16
1.15648e-16
-2.88838e-17
-1.59791e-17
5.11114e-17
2.41161e-17
-1.00119e-16
1.07645e-16
-9.75931e-17
-4.63219e-17
1.43632e-16
-2.02117e-16
2.98523e-17
4.3831e-16
8.25478e-17
-6.45665e-16
-8.04137e-16
-8.80748e-18
6.61263e-16
6.91722e-16
4.34715e-16
1.91861e-16
-7.61865e-18
-1.46886e-16
-2.16552e-16
-2.26697e-16
-2.33979e-16
-1.82658e-16
-1.29256e-16
-7.64874e-17
-5.83375e-17
1.58741e-17
9.39123e-17
2.68374e-16
1.68477e-16
-6.80432e-17
-3.54618e-18
8.01806e-17
5.21263e-17
-5.02248e-18
-1.34073e-17
-2.2505e-17
6.21435e-18
2.47213e-17
3.48792e-17
2.10891e-17
1.53918e-17
6.51825e-18
-3.52966e-17
-1.51546e-17
3.82907e-17
5.09481e-17
3.2794e-17
1.78189e-17
1.45348e-18
-2.78034e-18
-9.02588e-18
2.77848e-18
3.86189e-18
1.28062e-17
4.60402e-19
4.45817e-19
4.45827e-19
4.20952e-19
3.84627e-19
3.91706e-19
3.45823e-19
2.75301e-19
3.20631e-19
3.60178e-19
3.53404e-19
3.46858e-19
2.9461e-19
3.22075e-19
2.63349e-19
2.35839e-19
2.21252e-19
1.34661e-19
1.973e-19
1.39982e-19
1.50839e-19
6.52033e-20
1.80935e-19
1.01727e-19
1.08861e-19
1.0365e-19
1.22434e-19
9.541e-20
1.20255e-19
7.43269e-20
7.95261e-20
9.21534e-20
8.68365e-20
6.42007e-20
9.70848e-20
-9.68932e-20
5.45226e-19
3.21624e-19
8.27653e-19
5.96093e-18
-2.10219e-17
4.514e-17
1.24883e-17
-6.69038e-17
-1.65283e-17
4.13475e-17
2.72879e-17
-8.38861e-18
-2.21357e-17
-4.03765e-18
2.36017e-17
-2.42591e-17
3.03167e-17
-4.39063e-17
4.57543e-17
-2.75373e-17
9.06917e-18
1.03262e-17
-6.19661e-18
5.33763e-17
-2.11214e-17
-3.91061e-17
1.22723e-16
-4.86747e-17
-4.23532e-17
-2.08512e-17
6.74374e-17
-1.50266e-16
1.35211e-16
-6.14917e-17
-6.86138e-17
1.83254e-16
-8.73886e-18
-2.8145e-16
-3.59976e-16
7.89437e-17
4.81459e-16
4.36157e-16
8.04823e-17
-1.73374e-16
-2.47325e-16
-2.66407e-16
-1.74926e-16
-9.92686e-17
-5.93765e-17
-5.21546e-17
-4.12711e-17
-1.88318e-17
1.96623e-17
6.09162e-17
1.48663e-16
1.11864e-16
2.48985e-17
-1.08606e-16
-3.77201e-17
4.40348e-17
-7.03183e-18
-4.90925e-17
-2.85909e-17
-6.62084e-18
6.58292e-18
2.20665e-17
1.33678e-17
-2.86667e-18
-1.17141e-17
-1.50182e-17
-2.92292e-17
-3.17977e-18
4.45707e-17
5.47857e-17
2.56545e-17
3.33808e-18
-9.1461e-19
-1.3546e-17
-2.12613e-19
-7.22405e-18
1.22305e-18
2.51472e-18
1.18504e-17
2.31416e-19
2.96418e-19
4.08322e-19
4.94306e-19
4.11834e-19
3.08894e-19
3.80876e-19
3.65336e-19
3.41192e-19
3.10184e-19
2.82729e-19
2.12245e-19
2.96936e-19
1.41733e-19
1.88906e-19
1.8917e-19
1.59379e-19
1.60888e-19
1.22232e-19
1.40125e-19
1.48841e-19
1.22616e-19
1.10021e-19
1.26831e-19
9.54606e-20
1.05804e-19
6.61402e-20
7.42206e-20
5.86865e-20
5.25219e-20