/*--------------------------------*- C++ -*----------------------------------*\
| =========                 |                                                 |
| \\      /  F ield         | OpenFOAM: The Open Source CFD Toolbox           |
|  \\    /   O peration     | Version:  2.2.x                                 |
|   \\  /    A nd           | Web:      www.OpenFOAM.org                      |
|    \\/     M anipulation  |                                                 |
\*---------------------------------------------------------------------------*/
FoamFile
{
    version     2.0;
    format      ascii;
    class       volScalarField;
    location    "0.4";
    object      rho;
}
// * * * * * * * * * * * * * * * * * * * * * * * * * * * * * * * * * * * * * //

dimensions      [1 -3 0 0 0 0 0];

internalField   nonuniform List<scalar> 
14161
(
1
1
1
1
1
1
1
1
1
1
1
1
1
1
1
1
1
1
1
1
1
1
1
1
1
1
1
1
1
1
1
1
1
1
1
1
1
1
1
1
1
1
1.31164
2.5438
2.8241
2.86796
2.88026
2.87936
2.8711
2.87438
2.88675
2.9064
2.91895
2.92
2.9176
2.91609
2.91916
2.92585
2.93099
2.93313
2.9337
2.93377
2.93349
2.93589
2.94043
2.94633
2.95434
2.96315
2.97137
2.97802
2.98279
2.9859
2.98797
2.98969
2.99147
2.99316
2.99459
2.99556
2.99627
2.99838
3.00216
3.00709
3.01352
3.0195
3.02581
3.03093
3.03451
3.03645
3.03684
3.03604
3.03481
3.03433
3.03536
3.0381
3.04233
3.04753
3.05263
3.05675
3.05913
3.05952
3.05802
3.05539
3.05236
3.04971
3.04814
3.04759
3.04733
3.04757
3.04744
3.04532
3.03962
3.02975
3.01519
2.99708
2.97603
2.94965
2.91051
2.83911
2.66948
1
1
1
1
1
1
1
1
1
1
1
1
1
1
1
1
1
1
1
1
1
1
1
1
1
1
1
1
1
1
1
1
1
1
1
1
1
1
1
1
1
0.999998
1.30983
2.54243
2.8243
2.86917
2.88182
2.88121
2.87267
2.87521
2.88773
2.90774
2.9204
2.92159
2.91899
2.91748
2.92056
2.92747
2.9328
2.93513
2.93589
2.93627
2.93622
2.93821
2.94246
2.94829
2.9563
2.96521
2.97353
2.9802
2.98489
2.98793
2.99
2.99177
2.99353
2.99515
2.99657
2.99763
2.99866
3.00107
3.00522
3.01077
3.01801
3.02632
3.03318
3.03764
3.04038
3.04158
3.04156
3.04047
3.03893
3.03815
3.03882
3.04124
3.04516
3.05005
3.05478
3.0585
3.06051
3.06055
3.05864
3.05568
3.05241
3.04956
3.04778
3.04695
3.04643
3.04641
3.04593
3.04349
3.03754
3.02756
3.01307
2.99515
2.97448
2.94854
2.91054
2.84103
2.6723
1
1
1
1
1
1
1
1
1
1
1
1
1
1
1
1
1
1
1
1
1
1
1
1
1
1
1
1
1
1
1
1
1
1
1
1
1
1
1
1
1
0.999992
1.30991
2.54494
2.8285
2.87341
2.88716
2.8862
2.87944
2.8817
2.89162
2.90965
2.92223
2.92373
2.92241
2.9209
2.92381
2.92984
2.93429
2.93606
2.93671
2.93731
2.93794
2.94061
2.94464
2.94983
2.95721
2.96595
2.97452
2.98172
2.98691
2.99014
2.99215
2.99379
2.99545
2.99696
2.99816
2.9989
2.99984
3.00242
3.00679
3.01309
3.02012
3.02678
3.03275
3.03725
3.04013
3.04146
3.04152
3.04052
3.03906
3.03835
3.03915
3.04175
3.04583
3.05083
3.0556
3.05931
3.06129
3.06131
3.05945
3.05657
3.05337
3.0506
3.04889
3.04811
3.04756
3.0475
3.04694
3.04445
3.0385
3.0286
3.01432
2.99673
2.97653
2.95073
2.91342
2.84538
2.67758
1
1
1
1
1
1
1
1
1
1
1
1
1
1
1
1
1
1
1
1
1
1
1
1
1
1
1
1
1
1
1
1
1
1
1
1
1
1
1
1
1
0.999982
1.30801
2.5303
2.81608
2.86273
2.87509
2.87259
2.86672
2.87159
2.88509
2.90483
2.91495
2.91528
2.91353
2.91321
2.91795
2.92489
2.92896
2.93058
2.93143
2.93213
2.93339
2.93651
2.94028
2.94541
2.95302
2.9617
2.96987
2.97665
2.98164
2.9849
2.98705
2.98873
2.99032
2.99167
2.99264
2.99304
2.99401
2.99637
2.99999
3.00544
3.01083
3.0162
3.02189
3.02644
3.02961
3.03142
3.032
3.03165
3.03075
3.03051
3.03187
3.03507
3.03977
3.04543
3.05093
3.0553
3.05773
3.05809
3.05659
3.05408
3.05124
3.0489
3.0476
3.04721
3.0469
3.04699
3.04648
3.04395
3.03796
3.02806
3.01396
2.99675
2.97716
2.9522
2.91611
2.84996
2.68331
1
1
1
1
1
1
1
1
1
1
1
1
1
1
1
1
1
1
1
1
1
1
1
1
1
1
1
1
1
1
1
1
1
1
1
1
1
1
1
1
1
0.999974
1.29238
2.5284
2.82833
2.87519
2.88672
2.88514
2.87907
2.88293
2.89563
2.91531
2.92699
2.92785
2.92601
2.92484
2.92862
2.93556
2.94022
2.94207
2.94272
2.94318
2.94328
2.94392
2.94734
2.95284
2.96049
2.96892
2.97674
2.98309
2.98759
2.99026
2.99193
2.99303
2.99374
2.9941
2.99409
2.99358
2.99375
2.99594
2.99991
3.00542
3.01188
3.01759
3.02275
3.02678
3.02942
3.03073
3.03092
3.03017
3.02888
3.02829
3.02929
3.03221
3.03668
3.04216
3.04745
3.05157
3.05382
3.0541
3.05271
3.05054
3.04807
3.0462
3.04535
3.04543
3.04545
3.04571
3.04531
3.04276
3.0368
3.02702
3.01323
2.99638
2.97714
2.95259
2.91765
2.85359
2.68865
1
1
1
1
1
1
1
1
1
1
1
1
1
1
1
1
1
1
1
1
1
1
1
1
1
1
1
1
1
1
1
1
1
1
1
1
1
1
1
1
1
0.999969
1.27404
2.50942
2.82453
2.86952
2.88042
2.87922
2.87235
2.87575
2.88765
2.90583
2.91603
2.91624
2.91445
2.91438
2.9189
2.92578
2.92992
2.93134
2.93153
2.9313
2.93162
2.93585
2.94172
2.94856
2.95667
2.96509
2.97248
2.97817
2.98228
2.98538
2.98794
2.98991
2.99138
2.99244
2.99308
2.99336
2.99484
2.9981
3.00296
3.00919
3.01652
3.02316
3.02805
3.03127
3.03303
3.03356
3.03313
3.03181
3.03016
3.0293
3.03004
3.0327
3.03689
3.04191
3.04658
3.05002
3.05159
3.05116
3.04906
3.04643
3.04387
3.04217
3.0416
3.0421
3.04249
3.04294
3.04263
3.04006
3.03412
3.02451
3.01116
2.9948
2.97598
2.95183
2.91744
2.85478
2.69216
1
1
1
1
1
1
1
1
1
1
1
1
1
1
1
1
1
1
1
1
1
1
1
1
1
1
1
1
1
1
1
1
1
1
1
1
1
1
1
1
1
0.999966
1.25481
2.49445
2.83215
2.8789
2.88886
2.88765
2.88144
2.88405
2.89508
2.91146
2.91987
2.91948
2.91763
2.91807
2.92303
2.92919
2.93205
2.93244
2.93168
2.9307
2.93313
2.93884
2.94582
2.95434
2.96336
2.97158
2.97788
2.98203
2.98453
2.98627
2.98846
2.9906
2.99248
2.99381
2.99443
2.99436
2.99577
2.99938
3.00492
3.01131
3.01798
3.02419
3.02893
3.03197
3.03348
3.03384
3.03327
3.03182
3.03028
3.02956
3.03044
3.03317
3.03732
3.04216
3.04652
3.04956
3.05072
3.04982
3.04728
3.0443
3.04148
3.03963
3.03887
3.03907
3.03924
3.03954
3.039
3.03621
3.0302
3.02073
3.00788
2.99217
2.97391
2.95022
2.91629
2.85469
2.69501
1
1
1
1
1
1
1
1
1
1
1
1
1
1
1
1
1
1
1
1
1
1
1
1
1
1
1
1
1
1
1
1
1
1
1
1
1
1
1
1
1
0.999965
1.23608
2.4685
2.82799
2.87497
2.88305
2.87991
2.8745
2.87819
2.89239
2.90869
2.91449
2.9136
2.91196
2.91373
2.9202
2.92614
2.92835
2.92861
2.92836
2.92874
2.93237
2.93779
2.94431
2.9522
2.96058
2.96827
2.97433
2.97823
2.98001
2.98139
2.9818
2.98284
2.98431
2.9854
2.98613
2.98677
2.9892
2.99357
2.99984
3.00687
3.01392
3.02053
3.02583
3.02931
3.03127
3.03206
3.03189
3.03078
3.02955
3.02923
3.03057
3.03365
3.03798
3.04279
3.047
3.04971
3.05043
3.04901
3.04607
3.04275
3.03983
3.03791
3.03704
3.03694
3.03669
3.03627
3.03489
3.03147
3.0252
3.01573
3.00335
2.98841
2.97083
2.94771
2.91415
2.85364
2.69604
1
1
1
1
1
1
1
1
1
1
1
1
1
1
1
1
1
1
1
1
1
1
1
1
1
1
1
1
1
1
1
1
1
1
1
1
1
1
1
1
1
0.999969
1.19721
2.42764
2.84056
2.88572
2.89185
2.88713
2.88185
2.88527
2.89953
2.9155
2.92055
2.91916
2.91647
2.91798
2.92482
2.93158
2.93438
2.93456
2.93333
2.93226
2.9353
2.94112
2.94774
2.95507
2.96257
2.9692
2.97412
2.97711
2.97864
2.97961
2.98096
2.98259
2.98375
2.98442
2.98458
2.98549
2.98825
2.99287
2.99921
3.00603
3.01267
3.01867
3.02329
3.02637
3.02827
3.02928
3.02942
3.02874
3.02812
3.02855
3.03055
3.03411
3.03875
3.04356
3.04768
3.05012
3.05043
3.04853
3.0452
3.04166
3.03876
3.03691
3.03606
3.03576
3.03522
3.03401
3.03146
3.02676
3.01956
3.00979
2.99773
2.98354
2.96669
2.94416
2.91079
2.8509
2.69497
1
1
1
1
1
1
1
1
1
1
1
1
1
1
1
1
1
1
1
1
1
1
1
1
1
1
1
1
1
1
1
1
1
1
1
1
1
1
1
1
1
0.999976
1.15402
2.38038
2.84746
2.88746
2.89035
2.88237
2.87496
2.87758
2.89312
2.90689
2.91042
2.90885
2.90814
2.91166
2.91848
2.92315
2.9241
2.92311
2.92189
2.92468
2.93136
2.93856
2.94601
2.95364
2.9609
2.96689
2.97114
2.97399
2.97617
2.97825
2.98055
2.98258
2.98398
2.98454
2.98489
2.98639
2.98956
2.99441
3.00062
3.00699
3.01281
3.01761
3.02098
3.023
3.02419
3.02485
3.02495
3.02453
3.0246
3.02595
3.02876
3.03306
3.03822
3.04332
3.04751
3.04972
3.04966
3.04739
3.04386
3.04026
3.03749
3.0358
3.03505
3.03461
3.03381
3.03192
3.02837
3.02256
3.01423
3.00347
2.99133
2.97776
2.9616
2.93963
2.9062
2.84674
2.69189
1
1
1
1
1
1
1
1
1
1
1
1
1
1
1
1
1
1
1
1
1
1
1
1
1
1
1
1
1
1
1
1
1
1
1
1
1
1
1
1
1
0.999985
1.10802
2.32379
2.86075
2.89601
2.89529
2.88131
2.87243
2.8783
2.89563
2.9071
2.90886
2.90719
2.90793
2.91229
2.91866
2.9217
2.92141
2.91943
2.91975
2.92529
2.93325
2.94092
2.94835
2.95553
2.96186
2.96673
2.97008
2.97254
2.97481
2.97718
2.97958
2.9814
2.98242
2.98251
2.98335
2.98599
2.99024
2.99595
3.00227
3.00836
3.01372
3.0178
3.02029
3.02159
3.02223
3.02241
3.02213
3.02153
3.02175
3.02336
3.02672
3.03156
3.03708
3.04243
3.04658
3.04856
3.04821
3.04572
3.04212
3.03866
3.03622
3.03485
3.03433
3.03386
3.03283
3.03028
3.02574
3.01896
3.0097
2.99814
2.98535
2.97165
2.95576
2.93423
2.90055
2.84068
2.687
1
1
1
1
1
1
1
1
1
1
1
1
1
1
1
1
1
1
1
1
1
1
1
1
1
1
1
1
1
1
1
1
1
1
1
1
1
1
1
1
1
0.999993
1.06236
2.26498
2.87335
2.90177
2.89233
2.87244
2.8664
2.8781
2.8962
2.9044
2.90464
2.90312
2.90421
2.909
2.91514
2.91732
2.91654
2.91549
2.91807
2.92547
2.93388
2.94137
2.94826
2.95448
2.95981
2.96384
2.96672
2.96904
2.97131
2.97357
2.97558
2.97694
2.9775
2.97801
2.98022
2.98411
2.98953
2.99605
3.00265
3.00871
3.01373
3.01723
3.01912
3.01998
3.02036
3.02034
3.01979
3.01924
3.01972
3.02158
3.02512
3.02999
3.03551
3.04082
3.04474
3.04641
3.0458
3.04315
3.0396
3.03637
3.03442
3.03352
3.03332
3.03286
3.03165
3.02851
3.02304
3.01541
3.00529
2.99319
2.97983
2.96565
2.94935
2.92802
2.89421
2.83442
2.68067
1
1
1
1
1
1
1
1
1
1
1
1
1
1
1
1
1
1
1
1
1
1
1
1
1
1
1
1
1
1
1
1
1
1
1
1
1
1
1
1
1
0.999998
1.02068
2.1974
2.88746
2.90665
2.88439
2.86483
2.86418
2.88135
2.89835
2.903
2.90182
2.90042
2.90184
2.90717
2.91247
2.91359
2.91286
2.91358
2.91903
2.9281
2.93638
2.9432
2.94902
2.95406
2.95829
2.96153
2.96404
2.96632
2.9685
2.97044
2.97188
2.97267
2.97322
2.97508
2.97852
2.98339
2.98951
2.99617
3.00265
3.00832
3.01274
3.01564
3.01706
3.01769
3.01798
3.01796
3.01747
3.01737
3.01836
3.02065
3.0245
3.02928
3.03446
3.03921
3.04247
3.04359
3.04261
3.03974
3.03629
3.03346
3.03217
3.03188
3.03222
3.03181
3.03041
3.02665
3.02022
3.01182
3.00105
2.98874
2.97506
2.96047
2.94316
2.92118
2.88701
2.8264
2.67298
1
1
1
1
1
1
1
1
1
1
1
1
1
1
1
1
1
1
1
1
1
1
1
1
1
1
1
1
1
1
1
1
1
1
1
1
1
1
1
1
1
1
1.00016
2.11043
2.89402
2.89998
2.87077
2.85649
2.86431
2.88532
2.89849
2.89982
2.89727
2.89604
2.89805
2.90411
2.90883
2.90953
2.90985
2.91278
2.92116
2.93078
2.938
2.94356
2.9482
2.95215
2.95564
2.95848
2.96087
2.96307
2.965
2.96654
2.96753
2.96814
2.96973
2.97285
2.97732
2.98298
2.98934
2.99579
3.00168
3.00657
3.01024
3.01257
3.01377
3.0144
3.01474
3.01482
3.01461
3.0152
3.01688
3.01979
3.02396
3.02868
3.03355
3.03766
3.04005
3.04036
3.03877
3.03562
3.03233
3.03005
3.02944
3.02988
3.03072
3.03041
3.02875
3.0243
3.01695
3.00792
2.99665
2.98428
2.9704
2.95543
2.93729
2.91415
2.87939
2.81858
2.6645
1
1
1
1
1
1
1
1
1
1
1
1
1
1
1
1
1
1
1
1
1
1
1
1
1
1
1
1
1
1
1
1
1
1
1
1
1
1
1
1
1
1
0.999699
2.00266
2.88864
2.88279
2.85643
2.85113
2.86929
2.89025
2.89738
2.89644
2.89189
2.89075
2.89456
2.90143
2.90581
2.90694
2.90892
2.91501
2.92494
2.93319
2.93879
2.94297
2.94635
2.94949
2.95263
2.95535
2.95764
2.95955
2.96109
2.96219
2.963
2.96457
2.96747
2.97168
2.97703
2.98305
2.98923
2.99506
3.00006
3.00399
3.00686
3.00862
3.00963
3.01024
3.01063
3.01073
3.01121
3.01282
3.01536
3.01905
3.02347
3.0281
3.03251
3.03586
3.03741
3.03689
3.03458
3.03107
3.02798
3.02631
3.02636
3.02751
3.02877
3.02858
3.02647
3.02132
3.0133
3.00356
2.99195
2.97972
2.9658
2.95043
2.93152
2.9067
2.87083
2.80909
2.65478
1
1
1
1
1
1
1
1
1
1
1
1
1
1
1
1
1
1
1
1
1
1
1
1
1
1
1
1
1
1
1
1
1
1
1
1
1
1
1
1
1
1
0.999718
1.89968
2.8569
2.85875
2.84237
2.85207
2.87786
2.89253
2.89409
2.88958
2.88422
2.88477
2.89267
2.89993
2.90364
2.90582
2.91037
2.91848
2.92762
2.93382
2.93777
2.94062
2.94318
2.94625
2.94937
2.95184
2.95372
2.95517
2.95626
2.95728
2.95905
2.96189
2.96594
2.97116
2.97705
2.98303
2.98872
2.99366
2.99761
3.00063
3.00277
3.0041
3.00488
3.00536
3.00562
3.006
3.00759
3.01021
3.01367
3.01807
3.02268
3.02712
3.03093
3.03348
3.03425
3.03303
3.03012
3.02639
3.02357
3.02247
3.02309
3.02485
3.02635
3.02626
3.02356
3.01753
3.00902
2.99865
2.987
2.97493
2.9611
2.94531
2.92566
2.89926
2.8623
2.80016
2.64479
1
1
1
1
1
1
1
1
1
1
1
1
1
1
1
1
1
1
1
1
1
1
1
1
1
1
1
1
1
1
1
1
1
1
1
1
1
1
1
1
1
1
0.999763
1.77875
2.80809
2.83481
2.83737
2.86186
2.88431
2.89016
2.88721
2.87861
2.87596
2.88288
2.89377
2.90006
2.90341
2.90726
2.9133
2.92099
2.92831
2.93246
2.935
2.93705
2.93968
2.94299
2.9457
2.94757
2.94885
2.94987
2.95116
2.95327
2.9562
2.96015
2.96522
2.97106
2.97697
2.9825
2.98732
2.99119
2.99417
2.99645
2.99808
2.99912
2.99969
2.99997
3.0002
3.0014
3.00394
3.00748
3.0118
3.01665
3.0213
3.02533
3.02843
3.03021
3.03032
3.02861
3.02533
3.02168
3.01923
3.01866
3.01976
3.02193
3.02344
3.02322
3.01991
3.01282
3.0039
2.99295
2.98154
2.96976
2.95612
2.93986
2.9193
2.89144
2.85277
2.78965
2.63401
1
1
1
1
1
1
1
1
1
1
1
1
1
1
1
1
1
1
1
1
1
1
1
1
1
1
1
1
1
1
1
1
1
1
1
1
1
1
1
1
1
1
0.999813
1.63466
2.73734
2.82009
2.84421
2.87083
2.88409
2.88233
2.87428
2.86899
2.87295
2.88655
2.89696
2.90149
2.90481
2.90885
2.91414
2.9214
2.92679
2.92934
2.93107
2.93311
2.93608
2.93899
2.94087
2.94209
2.94311
2.94468
2.94719
2.95042
2.95439
2.95929
2.965
2.97085
2.97624
2.98086
2.98458
2.98745
2.98967
2.99144
2.99278
2.99363
2.99404
2.99428
2.9951
2.99718
3.00056
3.00483
3.00972
3.01471
3.01914
3.02255
3.02489
3.02597
3.02556
3.02358
3.02019
3.01695
3.01503
3.01494
3.01645
3.01878
3.02008
3.01939
3.01533
3.00729
2.99792
2.98658
2.97552
2.96424
2.95083
2.93403
2.91248
2.8833
2.84315
2.77956
2.62284
1
1
1
1
1
1
1
1
1
1
1
1
1
1
1
1
1
1
1
1
1
1
1
1
1
1
1
1
1
1
1
1
1
1
1
1
1
1
1
1
1
1
0.99987
1.47045
2.64144
2.82005
2.85623
2.87257
2.87719
2.87032
2.86375
2.86574
2.87919
2.89386
2.90004
2.90229
2.90463
2.90779
2.91381
2.92013
2.92352
2.92508
2.9267
2.92872
2.93141
2.93369
2.93511
2.93631
2.93807
2.94096
2.94466
2.94883
2.95358
2.95905
2.96471
2.96987
2.97421
2.9777
2.98046
2.98257
2.98427
2.98573
2.98686
2.98759
2.98806
2.98887
2.99057
2.99347
2.99758
3.00236
3.00742
3.01225
3.01611
3.01871
3.02023
3.02073
3.01997
3.01784
3.01477
3.01225
3.01098
3.01127
3.01312
3.01536
3.0163
3.01473
3.00968
3.00098
2.99105
2.97963
2.96904
2.9583
2.94496
2.92775
2.90493
2.87452
2.83279
2.76806
2.6114
1
1
1
1
1
1
1
1
1
1
1
1
1
1
1
1
1
1
1
1
1
1
1
1
1
1
1
1
1
1
1
1
1
1
1
1
1
1
1
1
1
1
0.999927
1.29211
2.51372
2.82991
2.86597
2.87102
2.86837
2.86156
2.8614
2.87295
2.88938
2.89749
2.89914
2.90022
2.90142
2.90593
2.91282
2.91722
2.9188
2.91966
2.92059
2.92321
2.92622
2.92821
2.92963
2.93154
2.93476
2.93898
2.94344
2.94817
2.95335
2.95862
2.96336
2.96729
2.97049
2.97311
2.97517
2.97678
2.97817
2.97939
2.98039
2.98123
2.98233
2.98403
2.9866
2.99033
2.99493
2.99993
3.00487
3.00919
3.01215
3.01383
3.01457
3.01456
3.01363
3.01152
3.00919
3.00759
3.00703
3.00765
3.00965
3.01156
3.0119
3.00925
3.00303
2.99392
2.98332
2.97226
2.96215
2.95194
2.93852
2.92078
2.89651
2.86489
2.82177
2.75645
2.5993
1
1
1
1
1
1
1
1
1
1
1
1
1
1
1
1
1
1
1
1
1
1
1
1
1
1
1
1
1
1
1
1
1
1
1
1
1
1
1
1
1
1
0.999978
1.11432
2.34227
2.85225
2.87769
2.87475
2.86143
2.85717
2.86638
2.88357
2.89315
2.89505
2.89465
2.89487
2.89812
2.90476
2.90968
2.91153
2.91182
2.9123
2.91474
2.91851
2.92144
2.9234
2.92546
2.92873
2.93332
2.93824
2.94307
2.94787
2.95251
2.95663
2.96009
2.96297
2.96541
2.96743
2.96903
2.97035
2.97152
2.97264
2.97377
2.97523
2.97722
2.97985
2.98328
2.98759
2.99243
2.99734
3.00182
3.00525
3.00718
3.00794
3.00805
3.00758
3.00659
3.00493
3.00358
3.00295
3.00308
3.004
3.00588
3.00721
3.0066
3.00281
2.99554
2.98612
2.97505
2.96462
2.955
2.94512
2.93134
2.91293
2.88735
2.85427
2.80986
2.74352
2.58712
1
1
1
1
1
1
1
1
1
1
1
1
1
1
1
1
1
1
1
1
1
1
1
1
1
1
1
1
1
1
1
1
1
1
1
1
1
1
1
1
1
1
0.999998
1.00349
2.1212
2.86932
2.87968
2.85962
2.85025
2.85836
2.87719
2.88845
2.89031
2.88901
2.88706
2.88864
2.89521
2.90113
2.90374
2.90434
2.90465
2.90647
2.91069
2.91476
2.91767
2.92012
2.92318
2.92777
2.93306
2.93791
2.94227
2.94611
2.94954
2.95252
2.95505
2.95721
2.95909
2.9607
2.96209
2.96334
2.96457
2.96591
2.96764
2.96994
2.97285
2.97631
2.98038
2.985
2.9898
2.99424
2.99786
3.00029
3.00124
3.0013
3.00081
3.00006
2.99915
2.99836
2.99805
2.99832
2.99901
3.00014
3.00161
3.00216
3.00029
2.99536
2.98742
2.97767
2.96669
2.95678
2.94759
2.93774
2.92346
2.90419
2.87743
2.84262
2.7974
2.73115
2.57417
1
1
1
1
1
1
1
1
1
1
1
1
1
1
1
1
1
1
1
1
1
1
1
1
1
1
1
1
1
1
1
1
1
1
1
1
1
1
1
1
1
1
1
0.999813
1.84551
2.82846
2.8484
2.83891
2.85055
2.87188
2.88256
2.88293
2.87939
2.87671
2.87892
2.88636
2.8932
2.89593
2.89666
2.89699
2.89902
2.90372
2.90866
2.9121
2.91486
2.9181
2.92266
2.92793
2.93237
2.9359
2.93892
2.94173
2.94441
2.94671
2.94858
2.95023
2.95182
2.95338
2.95488
2.95632
2.95786
2.95979
2.96232
2.9655
2.96917
2.97322
2.97767
2.98224
2.98641
2.98991
2.99261
2.99414
2.99439
2.99397
2.99299
2.9922
2.99176
2.99196
2.99263
2.99371
2.99468
2.99579
2.9966
2.99612
2.99297
2.98705
2.9788
2.9687
2.95837
2.94885
2.93991
2.92964
2.91496
2.89441
2.86662
2.82998
2.78423
2.71799
2.56157
1
1
1
1
1
1
1
1
1
1
1
1
1
1
1
1
1
1
1
1
1
1
1
1
1
1
1
1
1
1
1
1
1
1
1
1
1
1
1
1
1
1
1
0.999848
1.56973
2.70734
2.81983
2.84161
2.8632
2.87493
2.87495
2.8701
2.86628
2.86843
2.87788
2.88634
2.88969
2.89054
2.89063
2.89226
2.89729
2.90313
2.90729
2.91046
2.91353
2.91709
2.92167
2.9257
2.92865
2.93107
2.93333
2.93557
2.93766
2.93942
2.94099
2.94259
2.94431
2.94612
2.94789
2.94974
2.9519
2.95459
2.95791
2.96174
2.96595
2.97037
2.97468
2.97847
2.98158
2.98415
2.98608
2.98691
2.98676
2.98597
2.98489
2.98434
2.98469
2.9858
2.98734
2.98898
2.99
2.99072
2.9906
2.98886
2.98477
2.97811
2.96964
2.95965
2.9501
2.94088
2.93192
2.92089
2.90562
2.88369
2.85475
2.81666
2.77106
2.70545
2.54815
1
1
1
1
1
1
1
1
1
1
1
1
1
1
1
1
1
1
1
1
1
1
1
1
1
1
1
1
1
1
1
1
1
1
1
1
1
1
1
1
1
1
1
0.999935
1.28493
2.52331
2.82517
2.85761
2.8664
2.86715
2.86243
2.86082
2.86347
2.87339
2.88098
2.88351
2.88395
2.88511
2.88737
2.89254
2.89831
2.90237
2.90517
2.90787
2.91056
2.91411
2.91774
2.92029
2.92229
2.92419
2.92615
2.92821
2.9301
2.93175
2.93339
2.93518
2.9372
2.93936
2.9416
2.94409
2.94696
2.95026
2.95409
2.9584
2.96279
2.96688
2.97033
2.97308
2.97524
2.97702
2.97832
2.97878
2.97847
2.97763
2.97685
2.97687
2.97801
2.97988
2.9821
2.98399
2.98483
2.98483
2.98342
2.98043
2.97565
2.96865
2.96021
2.95076
2.94183
2.93281
2.92342
2.91164
2.8952
2.87205
2.84181
2.80284
2.75749
2.69209
2.53508
1
1
1
1
1
1
1
1
1
1
1
1
1
1
1
1
1
1
1
1
1
1
1
1
1
1
1
1
1
1
1
1
1
1
1
1
1
1
1
1
1
1
1
0.999993
1.03245
2.24957
2.85261
2.87973
2.8712
2.85612
2.84974
2.85654
2.87016
2.878
2.87961
2.87928
2.87863
2.88047
2.88665
2.89281
2.89644
2.89849
2.90014
2.90232
2.90565
2.90917
2.91159
2.91323
2.91475
2.91657
2.91874
2.92082
2.92265
2.92441
2.92631
2.92849
2.93093
2.93354
2.93639
2.93951
2.94293
2.94668
2.9507
2.95475
2.95844
2.96164
2.96426
2.96619
2.96755
2.96871
2.96962
2.97
2.96984
2.96937
2.96917
2.96989
2.97167
2.97416
2.97675
2.9785
2.979
2.9779
2.97504
2.97098
2.96566
2.95873
2.95075
2.94211
2.93362
2.92462
2.91436
2.90174
2.88378
2.85937
2.82808
2.7889
2.74405
2.67918
2.52086
1
1
1
1
1
1
1
1
1
1
1
1
1
1
1
1
1
1
1
1
1
1
1
1
1
1
1
1
1
1
1
1
1
1
1
1
1
1
1
1
1
1
1
1
1.00014
1.84765
2.82742
2.85295
2.83888
2.83856
2.85153
2.86617
2.87178
2.87195
2.87033
2.87008
2.87317
2.88029
2.886
2.88908
2.89075
2.89166
2.89301
2.89645
2.90009
2.90257
2.90423
2.90566
2.90727
2.90951
2.91181
2.91389
2.9159
2.91803
2.92045
2.92305
2.92577
2.92871
2.93206
2.93573
2.93939
2.9429
2.94623
2.94933
2.95219
2.95472
2.9567
2.95798
2.95884
2.95959
2.96038
2.96104
2.96133
2.96149
2.96204
2.96339
2.9656
2.96854
2.97108
2.97234
2.97214
2.96972
2.96559
2.96073
2.95502
2.94868
2.94135
2.93364
2.92544
2.91606
2.90469
2.89082
2.87146
2.84568
2.81375
2.77483
2.73016
2.66509
2.50696
1
1
1
1
1
1
1
1
1
1
1
1
1
1
1
1
1
1
1
1
1
1
1
1
1
1
1
1
1
1
1
1
1
1
1
1
1
1
1
1
1
1
1
1
0.999905
1.47768
2.67028
2.81602
2.83271
2.84941
2.86051
2.86284
2.86058
2.85886
2.86059
2.86783
2.87539
2.87931
2.88085
2.88171
2.88271
2.88497
2.88846
2.89155
2.89366
2.89518
2.89678
2.89872
2.90115
2.90364
2.90576
2.90778
2.91003
2.91273
2.91565
2.91858
2.92158
2.92475
2.92807
2.93136
2.93443
2.93723
2.93984
2.94222
2.9444
2.9463
2.9478
2.94881
2.94956
2.95025
2.95115
2.95226
2.95321
2.95413
2.95545
2.95723
2.95972
2.96265
2.96482
2.96539
2.96391
2.96031
2.95535
2.9498
2.9441
2.93872
2.93205
2.92517
2.91711
2.9068
2.89438
2.8789
2.85828
2.83117
2.79906
2.7608
2.71631
2.65144
2.49159
1
1
1
1
1
1
1
1
1
1
1
1
1
1
1
1
1
1
1
1
1
1
1
1
1
1
1
1
1
1
1
1
1
1
1
1
1
1
1
1
1
1
1
1
0.999978
1.13934
2.39906
2.82152
2.85391
2.86113
2.86056
2.85538
2.85218
2.85572
2.86447
2.87012
2.87201
2.87228
2.87198
2.87303
2.87694
2.88115
2.88397
2.88572
2.88683
2.88803
2.89024
2.89322
2.89609
2.89851
2.90071
2.90287
2.90542
2.90839
2.91135
2.91422
2.91702
2.91977
2.92245
2.92502
2.92746
2.92975
2.93185
2.93369
2.93535
2.93693
2.93832
2.93939
2.94027
2.94113
2.94233
2.94396
2.94565
2.94734
2.94929
2.95132
2.95371
2.95608
2.95748
2.95717
2.95449
2.9499
2.94445
2.93847
2.93326
2.92869
2.92294
2.91658
2.90833
2.89679
2.88316
2.86594
2.84399
2.81608
2.78425
2.74655
2.70201
2.63639
2.47611
1
1
1
1
1
1
1
1
1
1
1
1
1
1
1
1
1
1
1
1
1
1
1
1
1
1
1
1
1
1
1
1
1
1
1
1
1
1
1
1
1
1
1
1
0.999999
1.00387
1.93765
2.83437
2.85633
2.84364
2.8379
2.84134
2.85181
2.86005
2.86347
2.86421
2.86367
2.86367
2.86558
2.86979
2.87339
2.87587
2.87769
2.87948
2.88122
2.88334
2.88609
2.8887
2.89106
2.89338
2.89588
2.89855
2.90115
2.90356
2.90581
2.90809
2.91047
2.91289
2.91517
2.91725
2.91918
2.92099
2.9227
2.92428
2.92579
2.92734
2.92886
2.93016
2.93133
2.93254
2.93412
2.93628
2.93865
2.94102
2.94333
2.94524
2.94691
2.94833
2.94883
2.94746
2.94404
2.93889
2.93313
2.92719
2.92265
2.9187
2.91388
2.90769
2.89874
2.88608
2.87097
2.85213
2.82892
2.80086
2.76951
2.73206
2.6875
2.62161
2.45913
1
1
1
1
1
1
1
1
1
1
1
1
1
1
1
1
1
1
1
1
1
1
1
1
1
1
1
1
1
1
1
1
1
1
1
1
1
1
1
1
1
1
1
1
1
1.00008
1.47398
2.66269
2.81867
2.82905
2.83998
2.84833
2.85198
2.85209
2.85111
2.85226
2.85653
2.86214
2.86567
2.86748
2.86845
2.86895
2.87015
2.87308
2.87661
2.87975
2.88219
2.88392
2.88525
2.88712
2.88971
2.89244
2.89493
2.89703
2.89887
2.90062
2.90255
2.90456
2.90654
2.9084
2.91015
2.9118
2.91336
2.91485
2.91635
2.91799
2.91974
2.9214
2.923
2.92466
2.92663
2.92921
2.93214
2.93477
2.93689
2.93818
2.93891
2.93916
2.93869
2.93655
2.93269
2.92758
2.92178
2.91629
2.9122
2.90885
2.90458
2.89813
2.88822
2.87454
2.85781
2.83751
2.81335
2.78572
2.75471
2.71718
2.67223
2.60497
2.44183
1
1
1
1
1
1
1
1
1
1
1
1
1
1
1
1
1
1
1
1
1
1
1
1
1
1
1
1
1
1
1
1
1
1
1
1
1
1
1
1
1
1
1
1
1
1
1.07374
2.33012
2.8188
2.84716
2.85072
2.84931
2.84542
2.84281
2.84423
2.84934
2.85412
2.85737
2.85962
2.86121
2.86262
2.86394
2.86594
2.86856
2.87108
2.87345
2.8757
2.8777
2.8793
2.8808
2.8827
2.88472
2.8868
2.88888
2.89081
2.89251
2.89409
2.8957
2.8974
2.8992
2.901
2.9027
2.90426
2.90579
2.9074
2.90919
2.9112
2.91329
2.91533
2.91741
2.91973
2.92248
2.92527
2.92766
2.92925
2.92981
2.92951
2.92857
2.92721
2.92477
2.92096
2.91619
2.91072
2.90582
2.90192
2.89898
2.89464
2.88766
2.87668
2.86198
2.84372
2.82233
2.79782
2.77074
2.73985
2.70191
2.65656
2.58829
2.42263
1
1
1
1
1
1
1
1
1
1
1
1
1
1
1
1
1
1
1
1
1
1
1
1
1
1
1
1
1
1
1
1
1
1
1
1
1
1
1
1
1
1
1
1
1
1
1.00147
1.7638
2.772
2.82948
2.82632
2.82975
2.83732
2.84412
2.8479
2.84925
2.84936
2.84897
2.85042
2.85404
2.85808
2.86136
2.86318
2.8637
2.86392
2.86501
2.86735
2.8702
2.87271
2.8745
2.87568
2.8767
2.87818
2.88014
2.88225
2.88412
2.88566
2.88701
2.88849
2.89023
2.89212
2.89399
2.89574
2.89741
2.89918
2.90112
2.90331
2.90578
2.90821
2.91049
2.91271
2.91506
2.9173
2.9192
2.92013
2.91995
2.91871
2.9169
2.91488
2.9125
2.90927
2.90497
2.90008
2.89569
2.89189
2.88873
2.88382
2.87608
2.86415
2.8484
2.82897
2.80701
2.78265
2.75586
2.72472
2.68613
2.63986
2.56976
2.40382
1
1
1
1
1
1
1
1
1
1
1
1
1
1
1
1
1
1
1
1
1
1
1
1
1
1
1
1
1
1
1
1
1
1
1
1
1
1
1
1
1
1
1
1
1
1
1.00005
1.2504
2.51144
2.81341
2.82645
2.83329
2.83839
2.84118
2.84333
2.84405
2.84355
2.84373
2.84571
2.84856
2.8516
2.85438
2.85642
2.85752
2.85803
2.85887
2.86061
2.8628
2.86493
2.8668
2.86821
2.86919
2.87031
2.87199
2.87385
2.87569
2.87736
2.87882
2.88025
2.88194
2.88381
2.88579
2.88777
2.88969
2.89161
2.89366
2.89595
2.89846
2.90086
2.90294
2.90475
2.90644
2.9079
2.90913
2.90949
2.90874
2.90695
2.90471
2.90236
2.90028
2.89779
2.89408
2.88989
2.88589
2.88192
2.87769
2.87201
2.86329
2.85045
2.83376
2.81372
2.79195
2.76787
2.74099
2.70928
2.66983
2.6222
2.55043
2.38332
1
1
1
1
1
1
1
1
1
1
1
1
1
1
1
1
1
1
1
1
1
1
1
1
1
1
1
1
1
1
1
1
1
1
1
1
1
1
1
1
1
1
1
1
1
1
1
1.0092
1.94831
2.80719
2.83075
2.82607
2.8248
2.82782
2.83329
2.83799
2.84089
2.84232
2.8428
2.843
2.84407
2.84624
2.84879
2.85117
2.85284
2.8537
2.85428
2.85537
2.85696
2.85878
2.86059
2.86206
2.86315
2.86435
2.86591
2.86771
2.8696
2.87134
2.87287
2.87444
2.87623
2.87822
2.88031
2.88237
2.88429
2.88618
2.8882
2.89038
2.89246
2.89419
2.8955
2.89645
2.8971
2.89767
2.8977
2.89673
2.89488
2.89256
2.89011
2.88838
2.88662
2.88357
2.88016
2.8763
2.87126
2.86569
2.85904
2.84927
2.83558
2.81837
2.79853
2.77726
2.75337
2.72616
2.6937
2.65332
2.60409
2.5306
2.36339
1
1
1
1
1
1
1
1
1
1
1
1
1
1
1
1
1
1
1
1
1
1
1
1
1
1
1
1
1
1
1
1
1
1
1
1
1
1
1
1
1
1
1
1
1
1
1
1.00017
1.35337
2.58317
2.81741
2.82212
2.82447
2.82794
2.83067
2.83313
2.83548
2.83694
2.83714
2.83665
2.83726
2.83921
2.84166
2.84418
2.84643
2.84776
2.8482
2.84852
2.84975
2.85158
2.85345
2.85508
2.85623
2.85704
2.85819
2.85987
2.86177
2.86366
2.86533
2.86684
2.86842
2.87022
2.87222
2.87424
2.8761
2.87778
2.87942
2.88111
2.88273
2.88404
2.88493
2.88531
2.88542
2.8855
2.88542
2.88458
2.88295
2.8807
2.87841
2.877
2.87578
2.87346
2.87057
2.86623
2.85959
2.85279
2.84485
2.83419
2.81991
2.8027
2.7835
2.76272
2.73885
2.71097
2.6774
2.63548
2.58427
2.50881
2.3425
1
1
1
1
1
1
1
1
1
1
1
1
1
1
1
1
1
1
1
1
1
1
1
1
1
1
1
1
1
1
1
1
1
1
1
1
1
1
1
1
1
1
1
1
1
1
1
1.00001
1.01637
2.03089
2.80067
2.82387
2.8194
2.81874
2.82077
2.82433
2.82804
2.83101
2.8327
2.83323
2.83307
2.83381
2.83552
2.8375
2.83931
2.84056
2.84122
2.84165
2.84269
2.84433
2.84613
2.84782
2.8491
2.84994
2.85075
2.85211
2.85373
2.85537
2.85693
2.85837
2.8598
2.86138
2.86317
2.86501
2.86672
2.86819
2.86948
2.87072
2.87189
2.87288
2.87351
2.87366
2.87357
2.87335
2.87319
2.87264
2.87133
2.86932
2.86734
2.86609
2.86521
2.86349
2.86037
2.85501
2.84699
2.83872
2.82928
2.81792
2.8037
2.78712
2.76868
2.74827
2.72435
2.69571
2.6612
2.6182
2.56513
2.48849
2.32308
1
1
1
1
1
1
1
1
1
1
1
1
1
1
1
1
1
1
1
1
1
1
1
1
1
1
1
1
1
1
1
1
1
1
1
1
1
1
1
1
1
1
1
1
1
1
1
1
1.00034
1.3689
2.58641
2.81445
2.81767
2.8177
2.81954
2.82194
2.82389
2.8255
2.82648
2.82669
2.82631
2.82693
2.8286
2.83063
2.83263
2.83427
2.83514
2.83535
2.83573
2.83685
2.83828
2.83972
2.84104
2.84206
2.84286
2.84391
2.84521
2.84657
2.84792
2.84917
2.8504
2.85173
2.85321
2.85478
2.8563
2.85763
2.85868
2.85962
2.8605
2.86132
2.8619
2.86204
2.86186
2.86151
2.86129
2.86108
2.86012
2.85849
2.85684
2.85559
2.85454
2.85268
2.84906
2.84243
2.83338
2.82365
2.81302
2.8013
2.78747
2.77175
2.754
2.73379
2.70944
2.67974
2.64365
2.5986
2.54421
2.46708
2.30291
1
1
1
1
1
1
1
1
1
1
1
1
1
1
1
1
1
1
1
1
1
1
1
1
1
1
1
1
1
1
1
1
1
1
1
1
1
1
1
1
1
1
1
1
1
1
1
1
1.00002
1.01821
1.99438
2.78912
2.81111
2.80921
2.81109
2.81396
2.81682
2.81958
2.82172
2.82268
2.82253
2.82209
2.82269
2.8241
2.82557
2.82683
2.82762
2.82796
2.82826
2.82925
2.83055
2.83186
2.83307
2.83397
2.8346
2.83524
2.83622
2.83736
2.83854
2.83966
2.84071
2.84176
2.84295
2.84425
2.84556
2.84674
2.84768
2.84845
2.84916
2.84984
2.85042
2.85064
2.85048
2.85015
2.84989
2.84992
2.84935
2.84813
2.84663
2.84484
2.84299
2.84057
2.83614
2.82867
2.81887
2.80784
2.79637
2.78446
2.77128
2.75633
2.73898
2.7187
2.69373
2.6628
2.62551
2.5795
2.52446
2.44731
2.28378
1
1
1
1
1
1
1
1
1
1
1
1
1
1
1
1
1
1
1
1
1
1
1
1
1
1
1
1
1
1
1
1
1
1
1
1
1
1
1
1
1
1
1
1
1
1
1
1
1
1.00046
1.2981
2.53312
2.80625
2.81001
2.80879
2.80996
2.81204
2.81362
2.81474
2.81515
2.81483
2.81484
2.81597
2.81758
2.8192
2.82057
2.82133
2.82146
2.82115
2.82143
2.82243
2.82356
2.82464
2.82549
2.8261
2.82665
2.82741
2.82831
2.82929
2.83023
2.83105
2.83184
2.83276
2.83385
2.83499
2.83603
2.83689
2.83757
2.83817
2.83873
2.83932
2.83963
2.83956
2.83925
2.839
2.83909
2.83887
2.83776
2.83589
2.83318
2.83018
2.82683
2.82177
2.81381
2.80364
2.79196
2.77999
2.76793
2.7553
2.74112
2.72386
2.70328
2.67763
2.64576
2.6069
2.55929
2.5036
2.42613
2.26457
1
1
1
1
1
1
1
1
1
1
1
1
1
1
1
1
1
1
1
1
1
1
1
1
1
1
1
1
1
1
1
1
1
1
1
1
1
1
1
1
1
1
1
1
1
1
1
1
1
1.00002
1.01337
1.86295
2.75657
2.79817
2.80155
2.80487
2.80714
2.80923
2.81084
2.81138
2.81075
2.80962
2.80955
2.8106
2.81192
2.81305
2.81372
2.81389
2.8137
2.81405
2.81497
2.81595
2.81677
2.81728
2.8175
2.81769
2.81836
2.81924
2.82013
2.82093
2.82161
2.82219
2.82287
2.82373
2.82469
2.82562
2.82645
2.82713
2.82767
2.82817
2.82871
2.82908
2.82908
2.82878
2.82847
2.82824
2.82787
2.82657
2.8241
2.82046
2.81627
2.81192
2.80648
2.79841
2.78823
2.7764
2.76416
2.7519
2.73935
2.72543
2.70788
2.68649
2.65951
2.62631
2.58681
2.53926
2.4841
2.40729
2.24384
1
1
1
1
1
1
1
1
1
1
1
1
1
1
1
1
1
1
1
1
1
1
1
1
1
1
1
1
1
1
1
1
1
1
1
1
1
1
1
1
1
1
1
1
1
1
1
1
1
1
1.00043
1.16249
2.42543
2.78939
2.79592
2.79782
2.80068
2.80241
2.80285
2.80258
2.80211
2.80247
2.80377
2.80529
2.80662
2.80744
2.80754
2.80691
2.80601
2.80608
2.80692
2.80784
2.80863
2.80917
2.8094
2.80943
2.80977
2.81037
2.81107
2.81173
2.81228
2.81277
2.81333
2.81401
2.81481
2.81565
2.81643
2.81709
2.81759
2.81805
2.81844
2.81871
2.81863
2.81821
2.81752
2.81672
2.81589
2.81425
2.81116
2.80675
2.80146
2.79626
2.79047
2.7827
2.77284
2.76127
2.74895
2.7364
2.72351
2.70916
2.69116
2.66925
2.64157
2.60714
2.5667
2.51925
2.46378
2.38654
2.22473
1
1
1
1
1
1
1
1
1
1
1
1
1
1
1
1
1
1
1
1
1
1
1
1
1
1
1
1
1
1
1
1
1
1
1
1
1
1
1
1
1
1
1
1
1
1
1
1
1
1
1.00002
1.00635
1.65646
2.68903
2.79589
2.79953
2.79976
2.79946
2.79938
2.79843
2.79692
2.79636
2.79701
2.79805
2.79899
2.79961
2.79979
2.79955
2.79905
2.79918
2.79976
2.8003
2.80069
2.80086
2.80072
2.80057
2.80095
2.8016
2.80224
2.80271
2.80307
2.8034
2.80378
2.80431
2.80497
2.80569
2.80635
2.80688
2.80727
2.80757
2.8077
2.80777
2.80756