/*--------------------------------*- C++ -*----------------------------------*\
| =========                 |                                                 |
| \\      /  F ield         | OpenFOAM: The Open Source CFD Toolbox           |
|  \\    /   O peration     | Version:  2.2.x                                 |
|   \\  /    A nd           | Web:      www.OpenFOAM.org                      |
|    \\/     M anipulation  |                                                 |
\*---------------------------------------------------------------------------*/
FoamFile
{
    version     2.0;
    format      ascii;
    class       surfaceScalarField;
    location    "0.25";
    object      cfmax;
}
// * * * * * * * * * * * * * * * * * * * * * * * * * * * * * * * * * * * * * //

dimensions      [0 3 -1 0 0 0 0];

internalField   nonuniform List<scalar> 
28084
(
0.000746224
0.000742988
0.000740213
0.000737877
0.000735962
0.000734443
0.000733299
0.000732503
0.000732031
0.000731856
0.00073195
0.000732288
0.00073284
0.000733581
0.000734484
0.000735523
0.000736673
0.00073791
0.00073921
0.000740553
0.000741918
0.000743286
0.000744639
0.000745961
0.000747237
0.000748455
0.000749601
0.000750665
0.000751637
0.000752509
0.000753273
0.000753923
0.000754452
0.000754856
0.00075513
0.000755271
0.000755275
0.00075514
0.000754862
0.00075444
0.000753871
0.000753155
0.000752287
0.000751267
0.000750093
0.000759361
0.00076899
0.000778936
0.000789157
0.000799616
0.000810269
0.000821069
0.000831998
0.000842932
0.000853968
0.000864968
0.000875854
0.000886771
0.000897497
0.000907912
0.000918577
0.000928769
0.000938566
0.000948526
0.000958178
0.000967176
0.000976355
0.000985413
0.000993468
0.00100242
0.00101081
0.00101799
0.00102464
0.00102988
0.00103282
0.00100976
0.000551329
0.000509647
0.000531642
0.000554906
0.000568495
0.000576978
0.000582393
0.000584564
0.000585045
0.000593095
0.000566869
0.000564883
0.000527371
0.000505647
0.000486243
0.000470839
0.000458739
0.000446331
0.000434949
0.000426137
0.000419199
0.000413438
0.000408532
0.00040449
0.000401389
0.000399441
0.000398673
0.000397639
0.000394016
0.000391659
0.000391544
0.000393269
0.000396255
0.000400078
0.000404725
0.000410563
0.000416169
0.000422295
0.000428664
0.000437339
0.000446078
0.000454989
0.00144509
0.00144283
0.00074974
0.00143752
0.000748785
0.0014292
0.000748259
0.00141793
0.000748147
0.00140381
0.000748429
0.00138695
0.000749083
0.0013675
0.000750087
0.0013456
0.000751415
0.00132142
0.000753039
0.00129524
0.000754933
0.00126731
0.000757068
0.00123765
0.000759414
0.00120646
0.000761942
0.00117395
0.000764622
0.00114033
0.000767426
0.00110579
0.000770325
0.00107054
0.000773292
0.00103476
0.0007763
0.000998644
0.000779324
0.000962354
0.000782341
0.000926057
0.000785328
0.000889901
0.000788266
0.000854024
0.000791134
0.000818551
0.000793916
0.000783594
0.000796595
0.000749254
0.000799159
0.000715618
0.000801594
0.000682761
0.00080389
0.000650748
0.000806036
0.000619631
0.000808025
0.000589454
0.000809849
0.000560249
0.000811502
0.000532043
0.00081298
0.000504851
0.000814277
0.000478683
0.000815391
0.000453541
0.000816319
0.000429562
0.000817059
0.000406603
0.000817608
0.000384648
0.000817967
0.000363683
0.000818132
0.000343686
0.000818105
0.000324635
0.000817884
0.000306504
0.000817468
0.000289268
0.000816856
0.000293381
0.000816048
0.000293616
0.000824821
0.000293879
0.00083393
0.000294172
0.000843335
0.000294498
0.000852991
0.000294849
0.000862863
0.000295232
0.000872903
0.000295647
0.000883069
0.000296093
0.000893346
0.00029658
0.000903611
0.000297091
0.000913953
0.000297646
0.000924252
0.000298249
0.00093439
0.000298873
0.000944581
0.000299557
0.00095459
0.000300327
0.0009642
0.000301117
0.000974054
0.000301933
0.000983518
0.000302916
0.000992559
0.000303933
0.0010015
0.000304964
0.00101045
0.000306226
0.00101876
0.000307526
0.00102697
0.000308905
0.00103526
0.000310592
0.00104266
0.000312248
0.00105086
0.000314096
0.00105872
0.000315997
0.00106526
0.000317836
0.00107207
0.000320111
0.00107796
0.000324791
0.00108215
0.000336191
0.00107662
0.000355547
0.000602434
0.000363865
0.000542052
0.000369697
0.000562927
0.000371989
0.000582346
0.00037289
0.000591983
0.000372288
0.00059734
0.000375966
0.000603342
0.000381005
0.000606364
0.000382094
0.000606877
0.00038463
0.000614771
0.000384402
0.000590186
0.000382529
0.0005869
0.000377354
0.000547781
0.000372214
0.000524318
0.000367544
0.000503052
0.000363654
0.000486015
0.000360491
0.000472823
0.000357264
0.000460258
0.00035644
0.000448382
0.00035741
0.000438703
0.000357838
0.000430697
0.0003581
0.000423941
0.00035896
0.00041836
0.000360393
0.000413696
0.000362137
0.000410004
0.000364069
0.000407418
0.000365968
0.000405801
0.000367656
0.000403964
0.00036896
0.000399766
0.000370843
0.000397043
0.000373133
0.000396384
0.000375774
0.000397554
0.000378781
0.000399928
0.000382112
0.000403068
0.000385751
0.000406985
0.00038962
0.000411967
0.000393736
0.000416567
0.000399053
0.000421607
0.000406207
0.000427239
0.000413799
0.000435778
0.000419312
0.00044428
0.000428724
0.000453321
0.00144566
0.00144319
0.000754435
0.00143766
0.00075573
0.00142913
0.000757426
0.00141766
0.00075951
0.00140336
0.000761963
0.00138633
0.000764765
0.00136724
0.000767892
0.00134582
0.000771318
0.00132207
0.000775016
0.0012962
0.000778956
0.00126837
0.000783108
0.0012388
0.00078744
0.0012077
0.000791922
0.00117525
0.00079652
0.00114168
0.000801204
0.00110718
0.000805943
0.00107195
0.000810708
0.00103618
0.000815468
0.00100006
0.000820197
0.000963764
0.00082487
0.000927444
0.000829463
0.000891257
0.000833953
0.00085534
0.00083832
0.000819819
0.000842545
0.000784807
0.000846613
0.000750406
0.000850509
0.000716703
0.000854219
0.000683774
0.000857733
0.000651685
0.00086104
0.000620488
0.000864134
0.000590228
0.000867006
0.000560939
0.000869652
0.000532644
0.000872067
0.000505363
0.000874248
0.000479104
0.000876192
0.000453869
0.000877898
0.000429658
0.000879365
0.000406461
0.000880592
0.000384535
0.000881578
0.000363669
0.000882325
0.000343772
0.000882833
0.000324822
0.000883101
0.000306793
0.00088313
0.000289659
0.000882922
0.000297909
0.000882475
0.000298311
0.000890746
0.000298719
0.000899328
0.000299135
0.000908183
0.000299562
0.000917267
0.000299991
0.000926542
0.000300428
0.00093596
0.000300874
0.000945489
0.000301324
0.000955092
0.000301792
0.000964695
0.000302263
0.000974317
0.000302747
0.000983916
0.000303259
0.000993309
0.000303774
0.00100273
0.000304307
0.00101195
0.000304916
0.00102087
0.000305527
0.00102975
0.00030614
0.00103853
0.000306863
0.00104687
0.000307651
0.00105479
0.000308416
0.00106298
0.000309365
0.00107065
0.000310391
0.00107781
0.000311417
0.00108534
0.000312783
0.0010922
0.00031416
0.00109915
0.000315755
0.00110694
0.00031751
0.00111313
0.000319188
0.00112015
0.000321763
0.00112683
0.000332813
0.00113241
0.000357547
0.00113291
0.000373599
0.000674906
0.000378648
0.000579233
0.00037918
0.000598737
0.000375219
0.000611809
0.000372516
0.000616646
0.000368155
0.000619439
0.00037485
0.00062546
0.000381244
0.000629196
0.000384213
0.000629878
0.000389545
0.000630286
0.000394279
0.000612488
0.000396324
0.000600903
0.000392008
0.000568
0.000385769
0.00054383
0.000379272
0.000520134
0.000372831
0.000501941
0.000366942
0.000487876
0.000362527
0.00047493
0.000362098
0.000462391
0.000363376
0.000451533
0.000363052
0.000442304
0.000362264
0.000434804
0.00036273
0.000428677
0.000364014
0.000423513
0.000365603
0.000419362
0.000367351
0.000416068
0.000369162
0.000413525
0.000370682
0.000410806
0.000371957
0.000406097
0.000373919
0.000403043
0.000376357
0.000401819
0.000379163
0.000402422
0.000382394
0.000404174
0.000386026
0.000406599
0.000390088
0.000409818
0.000394488
0.00041391
0.000399235
0.000417349
0.000405546
0.000421389
0.00041373
0.000426846
0.000422147
0.000435406
0.000428546
0.000444034
0.000439145
0.000453477
0.00144511
0.00144243
0.000760308
0.0014367
0.000763821
0.00142798
0.000767708
0.00141715
0.000771957
0.00140379
0.000776551
0.00138764
0.000781471
0.00136885
0.000786692
0.00134757
0.000792189
0.00132395
0.000797933
0.00129817
0.000803893
0.00127044
0.000810036
0.00124095
0.00081633
0.00120991
0.000822741
0.00117751
0.000829233
0.00114396
0.000835774
0.00110948
0.00084233
0.00107425
0.000848869
0.00103847
0.00085536
0.00100233
0.000861774
0.000965989
0.000868082
0.000929621
0.00087426
0.000893375
0.000880283
0.00085739
0.00088613
0.000821793
0.000891781
0.000786698
0.00089722
0.000752206
0.00090243
0.000718407
0.000907399
0.000685378
0.000912115
0.000653184
0.000916569
0.000621879
0.000920753
0.000591507
0.00092466
0.000562104
0.000928286
0.000533695
0.000931626
0.000506297
0.000934679
0.00047992
0.000937443
0.000454567
0.000939917
0.000430237
0.000942101
0.00040692
0.000943996
0.000384606
0.000945603
0.000363393
0.000946923
0.000343619
0.000947958
0.000324791
0.000948709
0.000306885
0.000949178
0.000289873
0.000949367
0.000302275
0.000949276
0.000302835
0.000957037
0.000303379
0.000965087
0.000303907
0.000973384
0.000304422
0.000981888
0.000304919
0.000990557
0.000305398
0.000999351
0.000305863
0.00100823
0.000306308
0.00101716
0.000306741
0.00102609
0.000307162
0.00103498
0.000307565
0.00104382
0.000307972
0.00105254
0.000308368
0.00106112
0.000308746
0.0010696
0.000309164
0.00107781
0.000309592
0.00108574
0.000309989
0.00109376
0.000310448
0.00110137
0.000310977
0.00110831
0.000311488
0.00111572
0.000312102
0.00112264
0.000312836
0.00112873
0.000313541
0.00113555
0.000314551
0.00114173
0.000315607
0.00114743
0.000316843
0.00115431
0.000318174
0.00116049
0.000319548
0.00116705
0.000323258
0.00117311
0.000348246
0.00117811
0.000401793
0.00117077
0.00040036
0.000750189
0.000392837
0.000621948
0.000384278
0.000632113
0.000375902
0.000642653
0.000369255
0.000642599
0.000367961
0.000643313
0.000375524
0.000648283
0.000382297
0.000650243
0.000384786
0.00065324
0.00039283
0.000635691
0.000399151
0.000625193
0.000405125
0.000601032
0.000404511
0.000579644
0.000398639
0.000558714
0.000390263
0.000537101
0.000382204
0.000517704
0.000374687
0.000502632
0.000369151
0.000489548
0.00036884
0.000476463
0.000369847
0.000464186
0.00036847
0.00045364
0.000366791
0.000445583
0.000367135
0.00043866
0.000368403
0.000432934
0.000369765
0.000428083
0.000371252
0.000423883
0.000372844
0.000420211
0.000374235
0.000416651
0.000375559
0.000411333
0.000377626
0.000407809
0.000380256
0.000405914
0.000383294
0.000405873
0.000386805
0.000406921
0.000390808
0.000408593
0.000395321
0.000411132
0.000400605
0.00041416
0.000406145
0.000416747
0.00041312
0.00042044
0.000421637
0.000426662
0.000430646
0.000435476
0.000437681
0.00044439
0.000448666
0.000454325
0.00144346
0.0014412
0.000767362
0.00143695
0.000773056
0.00142965
0.000779098
0.00141936
0.000785478
0.00140616
0.00079218
0.00139017
0.000799185
0.00137152
0.000806469
0.00135036
0.000814006
0.00132685
0.000821766
0.00130117
0.000829715
0.00127352
0.000837821
0.00124409
0.000846048
0.00121308
0.000854359
0.00118071
0.000862719
0.00114718
0.00087109
0.00111269
0.000879437
0.00107744
0.000887725
0.00104162
0.000895922
0.00100543
0.000903995
0.000969027
0.000911915
0.000932584
0.000919655
0.000896252
0.000927189
0.000860171
0.000934495
0.00082447
0.000941552
0.000789262
0.000948341
0.000754652
0.000954847
0.000720728
0.000961056
0.000687569
0.000966958
0.000655241
0.000972541
0.000623799
0.000977799
0.000593288
0.000982725
0.000563744
0.000987316
0.000535192
0.000991569
0.00050765
0.000995481
0.000481129
0.000999052
0.000455632
0.00100228
0.000431157
0.00100517
0.000407697
0.00100773
0.000385239
0.00100994
0.000363767
0.00101183
0.000343261
0.00101338
0.000324545
0.00101461
0.000306783
0.00101551
0.000289915
0.00101609
0.000306471
0.00101635
0.000307177
0.0010236
0.000307847
0.00103111
0.000308476
0.00103884
0.000309067
0.00104676
0.000309619
0.00105481
0.00031013
0.00106297
0.0003106
0.0010712
0.000311031
0.00107945
0.000311417
0.00108768
0.000311773
0.00109585
0.000312087
0.00110395
0.000312373
0.00111195
0.000312635
0.00111971
0.000312851
0.0011274
0.000313071
0.00113494
0.000313295
0.00114195
0.000313476
0.00114912
0.000313665
0.00115592
0.000313924
0.00116198
0.000314146
0.00116852
0.000314439
0.00117459
0.000314852
0.00117971
0.000315242
0.00118574
0.000315823
0.00119109
0.000316592
0.00119558
0.00031744
0.00120174
0.00031837
0.00120738
0.000319637
0.0012137
0.000325446
0.00121884
0.000369016
0.0012236
0.000460437
0.00120233
0.000430772
0.000775896
0.000409144
0.000674906
0.000392435
0.000666965
0.000376041
0.000661308
0.000366788
0.000663681
0.000370966
0.000663347
0.000378314
0.00066815
0.000383482
0.000665221
0.000387005
0.000669714
0.000396311
0.00063819
0.000404746
0.000626958
0.000410528
0.000602253
0.000411331
0.000583823
0.000406442
0.000565407
0.000398261
0.000547219
0.000389698
0.000529378
0.000381456
0.000513943
0.000375402
0.0005017
0.000375133
0.000488351
0.000375422
0.0004746
0.000372921
0.000462537
0.000370569
0.000454147
0.000371079
0.000446665
0.000372414
0.000440609
0.000373554
0.000435364
0.000374907
0.000430396
0.000376266
0.00042563
0.000377529
0.000421151
0.000378932
0.000415637
0.000381151
0.000411853
0.000384071
0.000409514
0.000387456
0.000408903
0.000391397
0.000409363
0.000395958
0.000410357
0.000401088
0.000412485
0.000406835
0.00041458
0.000412877
0.00041693
0.00042057
0.000420369
0.000429282
0.000427193
0.000438708
0.000436237
0.00044636
0.00044539
0.000457338
0.000455632
0.00144497
0.00144399
0.0007756
0.00143992
0.000783435
0.00143278
0.000791593
0.00142265
0.000800066
0.00140961
0.000808839
0.00139376
0.000817893
0.00137524
0.000827205
0.00135419
0.000836747
0.00133078
0.000846488
0.00130518
0.000856394
0.00127759
0.00086643
0.00124821
0.000876558
0.00121723
0.000886739
0.00118486
0.000896934
0.00115132
0.000907106
0.0011168
0.000917214
0.00108151
0.000927224
0.00104563
0.000937098
0.00100936
0.000946804
0.000972872
0.00095631
0.000936328
0.000965586
0.000899883
0.000974606
0.000863678
0.000983347
0.000827844
0.000991785
0.000792496
0.000999903
0.000757738
0.00100768
0.00072366
0.00101511
0.000690343
0.00102218
0.000657853
0.00102887
0.000626246
0.00103519
0.000595567
0.00104111
0.000565854
0.00104665
0.000537131
0.0010518
0.000509419
0.00105656
0.000482727
0.00106092
0.00045706
0.0010649
0.000432416
0.00106848
0.000408788
0.00107168
0.000386162
0.0010745
0.000364524
0.00107694
0.000343853
0.001079
0.000324127
0.0010807
0.000306491
0.00108203
0.000289787
0.00108299
0.000310486
0.00108359
0.000311327
0.00109032
0.000312109
0.00109728
0.000312829
0.00110445
0.000313485
0.00111177
0.00031408
0.00111921
0.00031461
0.00112673
0.000315075
0.00113429
0.000315476
0.00114186
0.000315809
0.00114938
0.000316084
0.00115684
0.000316299
0.00116419
0.000316451
0.00117141
0.000316565
0.00117842
0.000316618
0.00118525
0.000316619
0.00119195
0.000316628
0.00119822
0.000316574
0.00120442
0.000316493
0.00121037
0.00031647
0.0012157
0.000316387
0.00122127
0.000316353
0.00122647
0.000316431
0.00123069
0.000316468
0.00123575
0.000316615
0.00124012
0.000317007
0.00124348
0.000317482
0.00124872
0.000318136
0.00125313
0.000319589
0.00125813
0.000330278
0.00126391
0.000401625
0.00126855
0.000506963
0.00118647
0.000473186
0.000775157
0.000428121
0.000719152
0.000397618
0.000694604
0.000374445
0.000681192
0.000364369
0.0006786
0.000374461
0.000680293
0.000381948
0.000684399
0.000386247
0.00066993
0.000391514
0.000670133
0.000399734
0.000634558
0.000408308
0.000618349
0.000413587
0.00059961
0.000414875
0.000583843
0.000411776
0.000567378
0.00040455
0.000552506
0.000395971
0.000536508
0.00038768
0.000522291
0.000382116
0.000510144
0.000381916
0.00049645
0.00038128
0.000482055
0.000377789
0.000470067
0.000375101
0.000462004
0.000375897
0.000454242
0.000377065
0.000447732
0.000377955
0.000442022
0.000379064
0.000436411
0.000380176
0.00043039
0.000381433
0.000424821
0.000382973
0.00041927
0.00038533
0.000415207
0.000388524
0.000412434
0.000392309
0.000411315
0.000396695
0.000411285
0.000401689
0.000412074
0.000407455
0.000413874
0.000413252
0.000415114
0.000419711
0.000417598
0.000427984
0.000421215
0.000436821
0.000428364
0.000446464
0.000437655
0.000454581
0.00044694
0.000465444
0.000457247
0.0014487
0.00144789
0.000785028
0.00144398
0.00079496
0.001437
0.000805191
0.00142703
0.000815714
0.00141413
0.000826517
0.00139841
0.000837581
0.00138
0.000848881
0.00135905
0.000860389
0.00133573
0.000872075
0.0013102
0.000883901
0.00128265
0.000895831
0.0012533
0.000907824
0.00122233
0.00091984
0.00118995
0.000931838
0.00115638
0.000943776
0.00112181
0.000955614
0.00108645
0.000967312
0.00105049
0.000978833
0.00101412
0.000990141
0.00097752
0.0010012
0.000940847
0.00101199
0.000904262
0.00102247
0.000867907
0.00103261
0.000831912
0.00104241
0.000796395
0.00105183
0.00076146
0.00106086
0.000727201
0.00106949
0.000693697
0.00107769
0.000661016
0.00108548
0.000629215
0.00109283
0.000598341
0.00109974
0.000568431
0.00110621
0.000539511
0.00111224
0.000511601
0.00111782
0.000484713
0.00112296
0.00045885
0.00112767
0.000434012
0.00113193
0.00041019
0.00113577
0.000387374
0.00113918
0.000365546
0.00114216
0.000344687
0.00114472
0.000324775
0.00114687
0.000306016
0.00114862
0.000289494
0.00114996
0.000314312
0.0011509
0.000315275
0.0011571
0.000316158
0.00116351
0.000316955
0.0011701
0.000317666
0.00117683
0.00031829
0.00118365
0.000318827
0.00119053
0.000319274
0.00119742
0.000319633
0.00120429
0.000319903
0.00121111
0.000320086
0.00121784
0.000320183
0.00122442
0.000320193
0.00123088
0.000320148
0.00123711
0.00032003
0.00124309
0.000319806
0.00124897
0.000319581
0.00125442
0.00031929
0.00125967
0.000318915
0.0012648
0.000318599
0.0012693
0.000318214
0.00127376
0.00031782
0.00127807
0.000317548
0.00128153
0.000317222
0.00128555
0.000316943
0.00128896
0.000316909
0.00129119
0.000316845
0.00129503
0.000317057
0.00129782
0.000319388
0.00129952
0.000337547
0.00129895
0.000446245
0.00128311
0.000522486
0.00103327
0.000489803
0.000794978
0.000444649
0.000750612
0.000402917
0.000713216
0.000373108
0.000690648
0.000362811
0.000678174
0.000377102
0.000685948
0.000383786
0.000693592
0.00038879
0.000663408
0.000397349
0.000654123
0.000405607
0.000628151
0.000411949
0.000612266
0.000416384
0.000597375
0.000417855
0.000583517
0.000414999
0.000568764
0.000408888
0.000556025
0.00040109
0.000541543
0.000393286
0.000528604
0.000388336
0.00051605
0.00038831
0.000501293
0.000386579
0.000487086
0.000382459
0.000476546
0.000380181
0.000468852
0.000381258
0.000460699
0.0003822
0.000453778
0.000382897
0.000447741
0.000383573
0.000441011
0.000384549
0.000434061
0.000385904
0.000428259
0.000387684
0.000422639
0.000390235
0.000418343
0.000393624
0.00041534
0.000397559
0.000413928
0.000402328
0.000413603
0.000407667
0.000414332
0.000413529
0.000415368
0.00041976
0.00041595
0.000426592
0.000418311
0.00043526
0.000422505
0.000444279
0.000430068
0.000454006
0.000439616
0.000462372
0.00044906
0.000473064
0.000459063
0.00145354
0.00145288
0.000795653
0.00144912
0.000807633
0.00144229
0.00081989
0.00143246
0.000832419
0.00141969
0.000845207
0.0014041
0.000858235
0.0013858
0.000871481
0.00136494
0.000884914
0.00134168
0.000898502
0.00131621
0.000912208
0.0012887
0.000925991
0.00125935
0.000939811
0.00122838
0.000953624
0.00119597
0.000967386
0.00116235
0.000981054
0.00112771
0.000994585
0.00109226
0.00100794
0.0010562
0.00102107
0.00101971
0.00103395
0.000982963
0.00104653
0.000946137
0.00105879
0.000909385
0.0010707
0.000872851
0.00108223
0.000836668
0.00109335
0.000800954
0.00110404
0.000765815
0.0011143
0.000731345
0.00112409
0.000697625
0.00113342
0.000664725
0.00114227
0.000632703
0.00115063
0.000601605
0.00115851
0.000571471
0.00116589
0.000542327
0.00117278
0.000514193
0.00117917
0.000487082
0.00118508
0.000460998
0.00119049
0.00043594
0.00119543
0.000411901
0.00119988
0.00038887
0.00120386
0.00036683
0.00120738
0.000345761
0.00121043
0.000325642
0.00121303
0.000306446
0.00121518
0.00028904
0.00121689
0.000317939
0.00121816
0.000319012
0.00122383
0.000319982
0.00122969
0.000320846
0.0012357
0.000321599
0.00124183
0.00032224
0.00124802
0.00032277
0.00125425
0.000323187
0.00126047
0.000323492
0.00126664
0.000323684
0.00127274
0.000323765
0.00127874
0.000323738
0.00128455
0.000323596
0.00129024
0.000323371
0.00129569
0.00032306
0.00130084
0.000322625
0.00130588
0.00032214
0.00131052
0.000321595
0.00131483
0.000320944
0.00131908
0.000320304
0.00132275
0.000319631
0.00132608
0.000318861
0.00132955
0.000318223
0.0013323
0.000317546
0.00133473
0.000316854
0.00133733
0.00031633
0.001339
0.000315755
0.00134044
0.000315413
0.00134259
0.000318435
0.00134281
0.000352118
0.0013412
0.000482922
0.00130943
0.000517508
0.000926469
0.000497953
0.000815882
0.000463534
0.000787128
0.000410193
0.000729787
0.000366099
0.000691532
0.000361592
0.000675998
0.00037563
0.000677165
0.000384859
0.000681016
0.00039418
0.000651257
0.000404611
0.000639593
0.000410857
0.000622838
0.000415389
0.000610097
0.000419195
0.000596422
0.000420038
0.000583539
0.000417172
0.000570591
0.000412137
0.000559211
0.000405289
0.000545557
0.000398225
0.000533376
0.00039433
0.000520128
0.000394113
0.000504577
0.000391495
0.000491656
0.000387101
0.000482966
0.000385826
0.000474808
0.000387194
0.000466314
0.000387738
0.000459329
0.000387599
0.000452047
0.000388149
0.000444141
0.000389301
0.000437542
0.00039094
0.000431884
0.000392826
0.000425835
0.000395511
0.000421302
0.000398903
0.000418157
0.000403082
0.000416635
0.000408189
0.000416275
0.000413782
0.000416828
0.000419682
0.000416649
0.000426208
0.000417289
0.000433462
0.000419545
0.000442399
0.000424246
0.000451588
0.000432187
0.000461238
0.000441943
0.000469746
0.000451432
0.000480325
0.00046092
0.00145947
0.00145895
0.000807485
0.00145533
0.000821461
0.00144865
0.000835692
0.00143894
0.000850176
0.0014263
0.000864899
0.00141082
0.000879845
0.00139261
0.000894989
0.00137183
0.000910301
0.00134864
0.000925746
0.00132321
0.000941287
0.00129572
0.000956881
0.00126637
0.000972484
0.00123537
0.000988052
0.00120292
0.00100354
0.00116922
0.00101889
0.0011345
0.00103408
0.00109894
0.00104905
0.00106275
0.00106375
0.0010261
0.00107816
0.000989196
0.00109224
0.000952191
0.00110594
0.000915245
0.00111924
0.000878506
0.00113211
0.000842107
0.00114453
0.000806167
0.00115647
0.000770796
0.00116792
0.000736087
0.00117886
0.000702124
0.00118928
0.000668976
0.00119916
0.000636704
0.00120852
0.000605356
0.00121733
0.00057497
0.0012256
0.000545574
0.00123333
0.000517191
0.00124051
0.000489831
0.00124716
0.0004635
0.00125327
0.000438198
0.00125885
0.000413918
0.00126391
0.000390648
0.00126846
0.000368373
0.00127249
0.000347072
0.00127602
0.000326724
0.00127906
0.000307302
0.00128161
0.00028878
0.00128368
0.000321359
0.00128527
0.00032253
0.00129041
0.000323574
0.00129571
0.00032449
0.00130114
0.000325273
0.00130666
0.00032592
0.00131222
0.000326432
0.00131779
0.000326806
0.00132334
0.000327042
0.00132882
0.000327144
0.0013342
0.000327113
0.00133944
0.000326952
0.00134451
0.000326646
0.00134939
0.000326229
0.00135406
0.000325715
0.00135842
0.000325058
0.00136257
0.00032431
0.00136642
0.000323491
0.00136982
0.000322575
0.00137316
0.000321593
0.00137615
0.000320606
0.00137836
0.000319533
0.00138081
0.000318451
0.00138286
0.000317456
0.00138417
0.000316405
0.00138557
0.00031535
0.00138682
0.000314473
0.00138706
0.000316886
0.00138784
0.000320102
0.0013886
0.000377952
0.00138766
0.00049636
0.00129395
0.000512365
0.000889305
0.000492973
0.000833085
0.000463219
0.000807421
0.000405327
0.000740657
0.000355207
0.000694911
0.000359255
0.000672924
0.00037668
0.000665601
0.00039115
0.00066204
0.000401976
0.000645009
0.000410179
0.000635466
0.000414925
0.00062332
0.000419044
0.000612042
0.000422086
0.000597963
0.000422177
0.000585987
0.000419544
0.000573979
0.000415404
0.000562981
0.000409552
0.000550082
0.000403638
0.000537806
0.00040059
0.000522901
0.000399434
0.000508213
0.00039585
0.000497203
0.000392015
0.000488996
0.000392289
0.000480387
0.000393296
0.000471776
0.000392421
0.000463497
0.000392314
0.000455172
0.000393149
0.000447813
0.000394588
0.000441704
0.000396125
0.000435776
0.000397955
0.000429125
0.000400718
0.00042431
0.000404345
0.000421155
0.000408837
0.000419647
0.000413986
0.000419322
0.00041955
0.000418973
0.000425725
0.000417987
0.000432538
0.000418849
0.000440179
0.00042127
0.000449378
0.000426403
0.000458671
0.000434664
0.000468197
0.00044453
0.00047678
0.000453899
0.000487272
0.000462753
0.00146648
0.00146609
0.000820535
0.0014626
0.000836449
0.00145605
0.000852599
0.00144647
0.000868983
0.00143394
0.000885589
0.00141856
0.0009024
0.00140044
0.000919391
0.00137973
0.000936531
0.00135659
0.000953785
0.00133118
0.000971112
0.0013037
0.000988469
0.00127433
0.00100581
0.00124329
0.00102309
0.00121077
0.00104025
0.001177
0.00105725
0.00114216
0.00107405
0.00110647
0.00109059
0.00107012
0.00110683
0.00103331
0.00112273
0.000996213
0.00113825
0.000959001
0.00115336
0.000921836
0.00116801
0.000884865
0.00118219
0.000848222
0.00119587
0.00081203
0.00120903
0.000776398
0.00122164
0.000741422
0.00123369
0.000707187
0.00124517
0.000673765
0.00125607
0.000641215
0.00126639
0.000609588
0.00127611
0.000578923
0.00128525
0.00054925
0.00129379
0.00052059
0.00130174
0.000492956
0.00130911
0.000466353
0.0013159
0.000440783
0.00132212
0.000416237
0.00132777
0.000392706
0.00133286
0.000370172
0.0013374
0.000348618
0.00134139
0.000328019
0.00134486
0.000308351
0.00134779
0.000289586
0.00135021
0.000324563
0.00135212
0.00032582
0.00135672
0.000326927
0.00136146
0.000327881
0.00136631
0.00032868
0.00137121
0.000329321
0.00137614
0.000329802
0.00138106
0.000330122
0.00138593
0.000330279
0.00139071
0.000330275
0.00139536
0.000330121
0.00139986
0.000329808
0.00140417
0.000329339
0.00140825
0.000328721
0.0014121
0.000327979
0.00141568
0.000327102
0.00141896
0.000326101
0.00142194
0.000324986
0.00142455
0.000323788
0.00142692
0.000322496
0.00142895
0.000321155
0.00143063
0.000319797
0.00143173
0.000318328
0.00143293
0.000316912
0.00143387
0.000315572
0.00143366
0.000314127
0.00143431
0.000314478
0.00143442
0.000319407
0.0014333
0.000324602
0.00143135
0.000415057
0.00142203
0.000498351
0.00117543
0.000505421
0.000880623
0.000489307
0.000845752
0.000457168
0.000817834
0.000397491
0.000743728
0.000343515
0.000696115
0.000363421
0.000670238
0.000383005
0.000662295
0.000398265
0.000657021
0.000408403
0.000646306
0.000414922
0.000637489
0.000419638
0.000626829
0.000423823
0.000615839
0.000425912
0.000602624
0.00042566
0.000591354
0.000423422
0.000579882
0.000419719
0.000568236
0.000414096
0.000555244
0.00040818
0.000541347
0.000406137
0.000525944
0.00040392
0.000512523
0.000400223
0.000503056
0.000397974
0.000494421
0.000398559
0.000484802
0.000397711
0.000475376
0.000397042
0.00046665
0.000397364
0.000458808
0.000398588
0.000451813
0.000399901
0.000445978
0.000401233
0.00043865
0.000403267
0.000432331
0.000406159
0.000427528
0.000410097
0.00042475
0.000414622
0.000423257
0.000419418
0.000422222
0.000425351
0.000420915
0.000431564
0.000419852
0.000438705
0.000420669
0.000446748
0.000423391
0.000456151
0.000428982
0.000465627
0.00043745
0.00047495
0.000447099
0.000483562
0.000456271
0.000493924
0.000464526
0.00147454
0.00147427
0.000834816
0.00147091
0.000852607
0.00146448
0.000870615
0.00145502
0.00088884
0.00144259
0.000907271
0.00142731
0.000925891
0.00140927
0.000944674
0.00138862
0.000963588
0.00136551
0.000982597
0.00134012
0.00100166
0.00131263
0.00102073
0.00128324
0.00103975
0.00125214
0.00105869
0.00121954
0.00107748
0.00118565
0.00109608
0.00115069
0.00111444
0.00111484
0.00113251
0.00107832
0.00115024
0.00104131
0.00116758
0.001004
0.00118451
0.000966561
0.00120098
0.000929151
0.00121695
0.00089192
0.0012324
0.000855006
0.00124731
0.000818534
0.00126164
0.000782613
0.00127537
0.000747343
0.0012885
0.000712809
0.00130102
0.000679083
0.0013129
0.000646229
0.00132415
0.000614297
0.00133476
0.000583326
0.00134473
0.000553349
0.00135407
0.000524386
0.00136277
0.000496452
0.00137084
0.000469553
0.00137828
0.00044369
0.00138511
0.000418855
0.00139133
0.000395039
0.00139695
0.000372225
0.00140198
0.000350395
0.00140643
0.000329525
0.00141031
0.00030959
0.00141362
0.000290562
0.00141637
0.000327546
0.00141858
0.000328875
0.00142265
0.000330032
0.00142683
0.000331012
0.00143109
0.000331814
0.00143539
0.000332435
0.00143968
0.000332872
0.00144394
0.000333126
0.00144813
0.000333195
0.0014522
0.000333075
0.00145613
0.000332778
0.00145988
0.000332308
0.00146343
0.000331662
0.00146672
0.000330844
0.00146975
0.000329863
0.0014725
0.00032874
0.00147496
0.000327489
0.00147708
0.000326101
0.00147883
0.000324582
0.00148029
0.000322992
0.00148143
0.000321308
0.00148222
0.000319593
0.00148256
0.000317823
0.00148254
0.000316004
0.00148258
0.000314291
0.00148182
0.000312566
0.00148117
0.00031739
0.00148016
0.000321529
0.0014769
0.000336522
0.00147167
0.000453959
0.00144689
0.000505723
0.00102528
0.000495975
0.000880192
0.000478399
0.000851965
0.000441143
0.00080821
0.00037976
0.000734824
0.000339238
0.000694001
0.000371279
0.000671361
0.0003904
0.000664729
0.000404632
0.00066006
0.000414402
0.000651554
0.000420625
0.000642701
0.000425604
0.00063273
0.000429547
0.000622317
0.000430901
0.000609802
0.000430476
0.000598548
0.00042839
0.00058709
0.000424249
0.000574429
0.000418353
0.000560143
0.00041389
0.000545516
0.000411836
0.000530948
0.00040875
0.000519186
0.000405375
0.000509736
0.000403969
0.000499363
0.000403547
0.000488606
0.000402482
0.000479327
0.000402073
0.000470939
0.000402869
0.000463208
0.000403784
0.000456371
0.000404994
0.000449121
0.000406433
0.000441518
0.000408653
0.000435446
0.000412008
0.000431353
0.00041592
0.000428644
0.000419944
0.000426587
0.000424967
0.00042486
0.000430838
0.000422986
0.000437181
0.000422075
0.000444638
0.000422835
0.000453142
0.000425955
0.000462796
0.000432017
0.000472416
0.000440599
0.000481531
0.000449709
0.000490209
0.000458447
0.000500346
0.000466251
0.00148365
0.00148349
0.000850343
0.00148025
0.000869944
0.00147393
0.000889746
0.00146457
0.000909749
0.00145225
0.000929943
0.00143705
0.00095031
0.00141908
0.000970825
0.00139848
0.000991455
0.00137541
0.00101216