/*--------------------------------*- C++ -*----------------------------------*\
| =========                 |                                                 |
| \\      /  F ield         | OpenFOAM: The Open Source CFD Toolbox           |
|  \\    /   O peration     | Version:  2.2.x                                 |
|   \\  /    A nd           | Web:      www.OpenFOAM.org                      |
|    \\/     M anipulation  |                                                 |
\*---------------------------------------------------------------------------*/
FoamFile
{
    version     2.0;
    format      ascii;
    class       volScalarField;
    location    "0.25";
    object      p;
}
// * * * * * * * * * * * * * * * * * * * * * * * * * * * * * * * * * * * * * //

dimensions      [1 -1 -2 0 0 0 0];

internalField   nonuniform List<scalar> 
14161
(
0.2
0.2
0.2
0.2
0.2
0.2
0.2
0.2
0.2
0.2
0.2
0.2
0.2
0.2
0.2
0.2
0.2
0.2
0.2
0.2
0.2
0.2
0.2
0.2
0.2
0.2
0.2
0.2
0.2
0.2
0.2
0.2
0.199999
0.199998
0.199997
0.199995
0.199991
0.199986
0.19998
0.19997
0.199958
0.199942
0.199921
0.199895
0.199863
0.199824
0.199775
0.199711
0.199633
0.199537
0.199416
0.199266
0.199072
0.198851
0.198587
0.198222
0.197853
0.19732
0.19671
0.196106
0.195215
0.19404
0.192845
0.191535
0.18958
0.187561
0.185451
0.182479
0.17937
0.175917
0.171503
0.167194
0.162849
0.160025
0.158065
0.210616
1.35905
2.04192
1.90435
1.68406
1.5405
1.42154
1.31081
1.20231
1.13254
1.10773
1.20269
1.26556
1.43759
1.57464
1.69476
1.78221
1.85175
1.89785
1.91048
1.91398
1.93169
1.95775
1.9815
1.99894
2.01391
2.03291
2.05365
2.07333
2.08343
2.07263
2.06832
2.07499
2.086
2.10074
2.11639
2.13005
2.14029
2.13908
2.1347
2.13565
2.14411
2.14766
2.1636
0.2
0.2
0.2
0.2
0.2
0.2
0.2
0.2
0.2
0.2
0.2
0.2
0.2
0.2
0.2
0.2
0.2
0.2
0.2
0.2
0.2
0.2
0.2
0.2
0.2
0.2
0.2
0.2
0.2
0.2
0.2
0.2
0.199999
0.199998
0.199997
0.199995
0.199991
0.199987
0.19998
0.19997
0.199958
0.199942
0.199921
0.199895
0.199864
0.199824
0.199775
0.199713
0.199635
0.199538
0.199415
0.19927
0.19908
0.198855
0.198592
0.198229
0.197853
0.197347
0.196726
0.196086
0.195262
0.194063
0.192834
0.191549
0.189655
0.1876
0.185476
0.182536
0.179352
0.175924
0.171238
0.166735
0.16194
0.157121
0.151626
0.157942
1.22769
1.9914
1.81121
1.61505
1.48762
1.38848
1.30082
1.2085
1.14219
1.12259
1.20856
1.27723
1.44913
1.57243
1.68281
1.7646
1.83143
1.88208
1.90443
1.91432
1.9328
1.9595
1.98418
2.00437
2.02222
2.04224
2.06252
2.08067
2.08972
2.07952
2.07608
2.08327
2.09474
2.10991
2.12595
2.13964
2.14953
2.14752
2.14164
2.14093
2.14953
2.14966
2.16847
0.2
0.2
0.2
0.2
0.2
0.2
0.2
0.2
0.2
0.2
0.2
0.2
0.2
0.2
0.2
0.2
0.2
0.2
0.2
0.2
0.2
0.2
0.2
0.2
0.2
0.2
0.2
0.2
0.2
0.2
0.2
0.2
0.199999
0.199998
0.199997
0.199995
0.199991
0.199987
0.19998
0.199971
0.199958
0.199942
0.199922
0.199896
0.199865
0.199826
0.199777
0.199716
0.199638
0.199542
0.199422
0.199276
0.199092
0.198867
0.198603
0.198254
0.197856
0.197393
0.196758
0.196082
0.195316
0.194128
0.192861
0.191594
0.189827
0.187693
0.185561
0.182705
0.179384
0.175937
0.171133
0.166085
0.160505
0.153849
0.144982
0.148288
1.05229
1.94857
1.74828
1.59301
1.46227
1.3797
1.28523
1.21484
1.15213
1.16583
1.2292
1.32109
1.47305
1.58294
1.68094
1.75623
1.8234
1.87341
1.90273
1.92158
1.93748
1.96139
1.98587
2.00808
2.02839
2.04882
2.06793
2.08473
2.09236
2.08303
2.08051
2.08781
2.09948
2.11476
2.13062
2.14397
2.15286
2.14934
2.14105
2.14101
2.14946
2.14863
2.16831
0.2
0.2
0.2
0.2
0.2
0.2
0.2
0.2
0.2
0.2
0.2
0.2
0.2
0.2
0.2
0.2
0.2
0.2
0.2
0.2
0.2
0.2
0.2
0.2
0.2
0.2
0.2
0.2
0.2
0.2
0.2
0.2
0.199999
0.199998
0.199997
0.199995
0.199992
0.199987
0.19998
0.199971
0.199959
0.199943
0.199923
0.199898
0.199867
0.199828
0.19978
0.19972
0.199644
0.199549
0.19943
0.199287
0.199109
0.198887
0.198621
0.19829
0.197879
0.197429
0.196829
0.196102
0.195353
0.194241
0.192976
0.191706
0.190035
0.187882
0.185754
0.183007
0.179614
0.176255
0.171707
0.166431
0.160449
0.152825
0.14476
0.160258
0.851101
1.80659
1.66624
1.60265
1.45548
1.39916
1.27043
1.23221
1.18272
1.23876
1.28684
1.39838
1.50086
1.59352
1.67658
1.74508
1.80783
1.85958
1.89664
1.9239
1.93808
1.96049
1.98687
2.01237
2.03548
2.05657
2.07504
2.09069
2.09859
2.09106
2.08983
2.09764
2.10993
2.1256
2.14123
2.15354
2.15969
2.15175
2.14012
2.13999
2.14851
2.14806
2.16852
0.2
0.2
0.2
0.2
0.2
0.2
0.2
0.2
0.2
0.2
0.2
0.2
0.2
0.2
0.2
0.2
0.2
0.2
0.2
0.2
0.2
0.2
0.2
0.2
0.2
0.2
0.2
0.2
0.2
0.2
0.2
0.2
0.199999
0.199998
0.199997
0.199995
0.199992
0.199987
0.199981
0.199972
0.19996
0.199945
0.199925
0.1999
0.19987
0.199832
0.199785
0.199725
0.199652
0.199558
0.199444
0.199303
0.199128
0.19891
0.19865
0.198332
0.197932
0.197457
0.196914
0.19618
0.195385
0.194412
0.193165
0.191859
0.190279
0.18819
0.186104
0.183442
0.180142
0.17689
0.172606
0.167127
0.160635
0.15063
0.146732
0.164133
0.755373
1.60605
1.56715
1.60904
1.46295
1.40939
1.27395
1.25705
1.22516
1.32355
1.3816
1.48211
1.56646
1.63493
1.69191
1.7462
1.80712
1.86172
1.90403
1.93193
1.94266
1.96402
1.9921
2.02051
2.04501
2.06542
2.08195
2.09482
2.10159
2.09627
2.09645
2.10502
2.11775
2.13376
2.14914
2.16026
2.16217
2.1504
2.13851
2.138
2.1468
2.14833
2.16858
0.2
0.2
0.2
0.2
0.2
0.2
0.2
0.2
0.2
0.2
0.2
0.2
0.2
0.2
0.2
0.2
0.2
0.2
0.2
0.2
0.2
0.2
0.2
0.2
0.2
0.2
0.2
0.2
0.2
0.2
0.2
0.2
0.199999
0.199999
0.199997
0.199995
0.199992
0.199988
0.199982
0.199973
0.199962
0.199947
0.199928
0.199904
0.199874
0.199838
0.199792
0.199734
0.199662
0.199572
0.19946
0.199322
0.199152
0.198943
0.198688
0.198379
0.197994
0.19751
0.197
0.196294
0.195492
0.194617
0.193392
0.192069
0.190591
0.1886
0.186523
0.183991
0.180895
0.177823
0.173748
0.168491
0.162005
0.151917
0.153211
0.205141
0.883672
1.3375
1.49076
1.59191
1.48243
1.44205
1.30202
1.32932
1.33672
1.44156
1.50487
1.57572
1.63078
1.68346
1.72794
1.77745
1.8303
1.87928
1.91621
1.93948
1.94881
1.97157
2.00045
2.02991
2.05487
2.07481
2.08965
2.09939
2.10512
2.10311
2.1049
2.11404
2.12717
2.1421
2.15655
2.16655
2.16177
2.14696
2.13694
2.13628
2.14517
2.14852
2.16764
0.2
0.2
0.2
0.2
0.2
0.2
0.2
0.2
0.2
0.2
0.2
0.2
0.2
0.2
0.2
0.2
0.2
0.2
0.2
0.2
0.2
0.2
0.2
0.2
0.2
0.2
0.2
0.2
0.2
0.2
0.2
0.2
0.199999
0.199999
0.199998
0.199996
0.199993
0.199989
0.199983
0.199975
0.199964
0.199949
0.199931
0.199908
0.19988
0.199845
0.1998
0.199744
0.199675
0.199589
0.199481
0.199347
0.199184
0.198982
0.198731
0.198436
0.198069
0.197593
0.19711
0.196429
0.195661
0.194836
0.193648
0.192366
0.190984
0.189072
0.187015
0.184692
0.181783
0.178842
0.175292
0.170539
0.165784
0.163745
0.185223
0.421695
0.989327
1.2004
1.42245
1.54698
1.53094
1.50163
1.37643
1.45398
1.48893
1.56673
1.61488
1.66085
1.6994
1.73476
1.7683
1.81486
1.86048
1.90495
1.935
1.95074
1.96304
1.9867
2.01545
2.0429
2.06677
2.08512
2.09565
2.10394
2.10989
2.1092
2.11197
2.12139
2.13423
2.14978
2.1636
2.16915
2.15912
2.14314
2.13534
2.13521
2.14403
2.14812
2.16583
0.2
0.2
0.2
0.2
0.2
0.2
0.2
0.2
0.2
0.2
0.2
0.2
0.2
0.2
0.2
0.2
0.2
0.2
0.2
0.2
0.2
0.2
0.2
0.2
0.2
0.2
0.2
0.2
0.2
0.2
0.2
0.2
0.2
0.199999
0.199998
0.199996
0.199994
0.19999
0.199984
0.199977
0.199966
0.199953
0.199935
0.199913
0.199886
0.199853
0.199811
0.199757
0.199691
0.199609
0.199506
0.199378
0.199222
0.199029
0.19879
0.198505
0.198159
0.197701
0.197233
0.196597
0.195842
0.195054
0.193938
0.192697
0.191398
0.189585
0.187564
0.185471
0.182749
0.179891
0.176895
0.173085
0.167581
0.16658
0.188597
0.662312
1.07572
1.15369
1.36361
1.51884
1.5917
1.59398
1.52323
1.60396
1.62786
1.66589
1.69183
1.72086
1.74537
1.7714
1.80031
1.84432
1.88462
1.92421
1.94963
1.96247
1.98292
2.00498
2.03191
2.05755
2.07863
2.09058
2.09821
2.10877
2.11588
2.11456
2.1175
2.12648
2.13981
2.15641
2.1687
2.16773
2.15455
2.14028
2.13429
2.13488
2.14319
2.14695
2.16311
0.2
0.2
0.2
0.2
0.2
0.2
0.2
0.2
0.2
0.2
0.2
0.2
0.2
0.2
0.2
0.2
0.2
0.2
0.2
0.2
0.2
0.2
0.2
0.2
0.2
0.2
0.2
0.2
0.2
0.2
0.2
0.2
0.2
0.199999
0.199998
0.199997
0.199994
0.199991
0.199986
0.199979
0.199969
0.199957
0.19994
0.19992
0.199894
0.199863
0.199824
0.199774
0.199711
0.199633
0.199536
0.199416
0.199267
0.199084
0.198859
0.198586
0.198254
0.197847
0.197359
0.196784
0.196042
0.195268
0.194273
0.193041
0.19172
0.19017
0.188175
0.186027
0.183728
0.180765
0.177561
0.174088
0.167792
0.170255
0.245059
0.916138
1.11639
1.17364
1.37705
1.55145
1.6881
1.7087
1.67804
1.71506
1.71666
1.72798
1.73567
1.75356
1.77095
1.79713
1.82776
1.86994
1.90847
1.94241
1.96064
1.97555
1.99966
2.02268
2.04898
2.07096
2.0824
2.08916
2.10183
2.11458
2.11969
2.11692
2.12099
2.13112
2.14604
2.16108
2.16949
2.16302
2.14954
2.13816
2.13414
2.13563
2.14281
2.14462
2.15943
0.2
0.2
0.2
0.2
0.2
0.2
0.2
0.2
0.2
0.2
0.2
0.2
0.2
0.2
0.2
0.2
0.2
0.2
0.2
0.2
0.2
0.2
0.2
0.2
0.2
0.2
0.2
0.2
0.2
0.2
0.2
0.2
0.2
0.199999
0.199999
0.199997
0.199995
0.199992
0.199988
0.199982
0.199973
0.199961
0.199946
0.199928
0.199904
0.199875
0.199839
0.199793
0.199734
0.199661
0.199571
0.199458
0.199318
0.199147
0.198935
0.198678
0.198362
0.197985
0.197526
0.196967
0.196289
0.195504
0.194567
0.19342
0.192057
0.19055
0.188784
0.186596
0.184212
0.1815
0.178091
0.174587
0.171248
0.183709
0.393001
1.05232
1.16373
1.22446
1.44169
1.63882
1.79423
1.80727
1.76714
1.7727
1.76578
1.76281
1.76248
1.7772
1.79316
1.81977
1.85188
1.88991
1.9247
1.94903
1.96652
1.98872
2.01398
2.03924
2.06099
2.07357
2.08029
2.09324
2.10692
2.11851
2.11751
2.11711
2.12442
2.13727
2.15142
2.16179
2.16525
2.15662
2.14542
2.13705
2.13496
2.13773
2.14294
2.14142
2.15504
0.2
0.2
0.2
0.2
0.2
0.2
0.2
0.2
0.2
0.2
0.2
0.2
0.2
0.2
0.2
0.2
0.2
0.2
0.2
0.2
0.2
0.2
0.2
0.2
0.2
0.2
0.2
0.2
0.2
0.2
0.2
0.2
0.2
0.2
0.199999
0.199998
0.199997
0.199994
0.19999
0.199985
0.199977
0.199967
0.199954
0.199937
0.199916
0.199889
0.199856
0.199814
0.199761
0.199694
0.19961
0.199506
0.199376
0.199216
0.199024
0.198779
0.198483
0.198123
0.197696
0.197166
0.196516
0.19576
0.194857
0.193762
0.192459
0.190896
0.189254
0.187101
0.184696
0.182176
0.179099
0.175674
0.175941
0.199032
0.63077
1.13935
1.19358
1.31179
1.53416
1.74464
1.86731
1.85062
1.81086
1.79939
1.79093
1.78566
1.7849
1.79795
1.81435
1.83792
1.86848
1.90002
1.92605
1.95112
1.97658
2.00139
2.02544
2.04585
2.06017
2.0704
2.08309
2.09694
2.10985
2.11487
2.11388
2.11937
2.13102
2.14252
2.1518
2.15848
2.15851
2.15061
2.14209
2.13706
2.13669
2.14006
2.14295
2.13779
2.15027
0.2
0.2
0.2
0.2
0.2
0.2
0.2
0.2
0.2
0.2
0.2
0.2
0.2
0.2
0.2
0.2
0.2
0.2
0.2
0.2
0.2
0.2
0.2
0.2
0.2
0.2
0.2
0.2
0.2
0.2
0.2
0.2
0.2
0.2
0.2
0.199999
0.199998
0.199996
0.199993
0.199988
0.199982
0.199973
0.199962
0.199947
0.199928
0.199905
0.199876
0.199838
0.19979
0.19973
0.199655
0.19956
0.199441
0.199294
0.199112
0.198894
0.198615
0.198277
0.197867
0.197375
0.196763
0.196031
0.195143
0.194109
0.192845
0.191309
0.189653
0.187579
0.185178
0.182733
0.179504
0.174932
0.176019
0.228935
0.912957
1.18032
1.23527
1.43182
1.62973
1.84001
1.8963
1.85874
1.83653
1.81494
1.80283
1.79781
1.79985
1.81149
1.82633
1.84527
1.8712
1.89843
1.92501
1.95316
1.98113
2.00537
2.02635
2.04334
2.05752
2.07109
2.08448
2.09711
2.10626
2.10849
2.11426
2.12531
2.136
2.14286
2.14807
2.15192
2.1512
2.14597
2.13979
2.13866
2.13943
2.14124
2.14231
2.13366
2.14544
0.2
0.2
0.2
0.2
0.2
0.2
0.2
0.2
0.2
0.2
0.2
0.2
0.2
0.2
0.2
0.2
0.2
0.2
0.2
0.2
0.2
0.2
0.2
0.2
0.2
0.2
0.2
0.2
0.2
0.2
0.2
0.200001
0.200001
0.200001
0.200001
0.2
0.199999
0.199998
0.199996
0.199992
0.199987
0.19998
0.199971
0.199958
0.199943
0.199923
0.199898
0.199865
0.199823
0.19977
0.199703
0.199619
0.199514
0.199379
0.199215
0.199009
0.198762
0.198444
0.198059
0.197591
0.197023
0.196316
0.195461
0.194451
0.19323
0.191749
0.190005
0.187965
0.185509
0.182604
0.178876
0.173512
0.182736
0.370415
1.1055
1.24983
1.33228
1.55977
1.75559
1.89829
1.9007
1.85759
1.83925
1.81727
1.80506
1.8005
1.80201
1.80924
1.82288
1.83949
1.86287
1.88839
1.91922
1.94872
1.97662
1.99987
2.02005
2.03856
2.05433
2.06946
2.08258
2.09346
2.10024
2.10694
2.11751
2.1285
2.13589
2.13995
2.14199
2.14389
2.14291
2.14117
2.13911
2.14184
2.14258
2.14144
2.13988
2.12974
2.14132
0.2
0.2
0.2
0.2
0.2
0.2
0.2
0.2
0.2
0.2
0.2
0.2
0.2
0.2
0.2
0.2
0.2
0.2
0.2
0.2
0.2
0.2
0.2
0.2
0.2
0.2
0.2
0.2
0.2
0.2
0.200001
0.200001
0.200001
0.200001
0.200001
0.200001
0.200001
0.2
0.199999
0.199997
0.199993
0.199988
0.199981
0.199971
0.199958
0.199942
0.199922
0.199894
0.19986
0.199814
0.199757
0.199684
0.199591
0.199475
0.199326
0.199141
0.198911
0.198629
0.198269
0.197828
0.197291
0.196625
0.195805
0.194803
0.193618
0.192149
0.190387
0.188257
0.185724
0.182712
0.179444
0.180291
0.206622
0.633838
1.2325
1.30721
1.46374
1.69446
1.87069
1.9254
1.89239
1.86109
1.8337
1.81409
1.80246
1.79686
1.79704
1.80162
1.81476
1.83192
1.8568
1.88308
1.9146
1.94424
1.9712
1.99409
2.01501
2.03415
2.05079
2.06593
2.07781
2.08717
2.09611
2.10728
2.11801
2.12692
2.13229
2.1353
2.13583
2.13567
2.135
2.13562
2.13927
2.14408
2.14406
2.14052
2.13564
2.12741
2.1391
0.2
0.2
0.2
0.2
0.2
0.2
0.2
0.2
0.2
0.2
0.2
0.2
0.2
0.2
0.2
0.2
0.2
0.2
0.2
0.2
0.2
0.2
0.2
0.2
0.2
0.2
0.2
0.2
0.2
0.2
0.200001
0.200001
0.200001
0.200002
0.200002
0.200003
0.200003
0.200003
0.200003
0.200002
0.2
0.199996
0.199992
0.199985
0.199976
0.199964
0.199948
0.199927
0.199899
0.199863
0.199816
0.199754
0.199676
0.199576
0.199451
0.199286
0.199082
0.198824
0.198505
0.198094
0.19759
0.196964
0.196186
0.195216
0.194037
0.192578
0.190816
0.188705
0.186237
0.183173
0.178915
0.179624
0.230415
0.957014
1.29671
1.38612
1.62794
1.81682
1.92906
1.92289
1.87909
1.8578
1.83055
1.81178
1.79976
1.79289
1.79112
1.79239
1.80389
1.81999
1.84478
1.87071
1.90296
1.93475
1.96293
1.98712
2.009
2.02889
2.04659
2.06087
2.07131
2.08147
2.09334
2.10549
2.11474
2.12205
2.12647
2.12968
2.13034
2.12838
2.12866
2.13238
2.13953
2.14393
2.14353
2.13791
2.13167
2.12687
2.13916
0.2
0.2
0.2
0.2
0.2
0.2
0.2
0.2
0.2
0.2
0.2
0.2
0.2
0.2
0.2
0.2
0.2
0.2
0.2
0.2
0.2
0.2
0.2
0.2
0.2
0.2
0.2
0.2
0.2
0.200001
0.200001
0.200001
0.200002
0.200002
0.200003
0.200004
0.200005
0.200006
0.200007
0.200007
0.200007
0.200006
0.200003
0.2
0.199994
0.199987
0.199976
0.199962
0.199942
0.199915
0.19988
0.199832
0.19977
0.199689
0.199583
0.199449
0.199272
0.199048
0.198763
0.198402
0.197937
0.197356
0.196631
0.195716
0.194565
0.193146
0.191406
0.189228
0.186398
0.182337
0.175934
0.183909
0.390504
1.18057
1.39793
1.52687
1.76151
1.90517
1.93444
1.90055
1.87329
1.84625
1.82255
1.80555
1.79519
1.78966
1.78829
1.78934
1.80044
1.81641
1.83979
1.8636
1.89358
1.9247
1.95338
1.97887
2.00184
2.02293
2.0411
2.05419
2.0642
2.07602
2.08858
2.10055
2.10867
2.11509
2.11976
2.12349
2.12446
2.12291
2.12496
2.13122
2.13809
2.14146
2.14058
2.13448
2.12936
2.12744
2.14041
0.2
0.2
0.2
0.2
0.2
0.2
0.2
0.2
0.2
0.2
0.2
0.2
0.2
0.2
0.2
0.2
0.2
0.2
0.2
0.2
0.2
0.2
0.2
0.2
0.2
0.2
0.2
0.2
0.2
0.200001
0.200001
0.200002
0.200002
0.200003
0.200004
0.200006
0.200007
0.200009
0.200011
0.200013
0.200014
0.200015
0.200016
0.200016
0.200014
0.200011
0.200007
0.2
0.199988
0.199972
0.199949
0.199917
0.199873
0.199813
0.199733
0.199626
0.199488
0.199302
0.199063
0.198752
0.198354
0.197834
0.197175
0.196337
0.195265
0.193904
0.192145
0.189953
0.187346
0.184291
0.185922
0.213884
0.729972
1.37956
1.49155
1.69087
1.87107
1.94646
1.92895
1.88905
1.86214
1.83317
1.81098
1.79485
1.7841
1.77843
1.77677
1.77741
1.78924
1.80614
1.83002
1.85493
1.88562
1.91668
1.94552
1.97188
1.99507
2.01617
2.03349
2.04626
2.057
2.06873
2.08076
2.09259
2.10077
2.10795
2.11326
2.11645
2.11761
2.11949
2.12344
2.13007
2.13485
2.13694
2.13553
2.13058
2.12783
2.12862
2.14253
0.2
0.2
0.2
0.2
0.2
0.2
0.2
0.2
0.2
0.2
0.2
0.2
0.2
0.2
0.2
0.2
0.2
0.2
0.2
0.2
0.2
0.2
0.2
0.2
0.2
0.2
0.2
0.2
0.2
0.200001
0.200001
0.200002
0.200003
0.200004
0.200005
0.200007
0.200009
0.200012
0.200015
0.200019
0.200022
0.200026
0.20003
0.200033
0.200035
0.200038
0.20004
0.20004
0.200038
0.200033
0.200024
0.200009
0.199985
0.199949
0.199898
0.199826
0.199727
0.199593
0.199409
0.199165
0.19884
0.198416
0.197853
0.197123
0.196172
0.194969
0.193433
0.191488
0.188693
0.183414
0.182232
0.258968
1.09877
1.47834
1.6109
1.82857
1.94027
1.9454
1.90244
1.87714
1.84439
1.8197
1.80038
1.78734
1.77844
1.7725
1.76917
1.76838
1.77948
1.79506
1.81683
1.8401
1.87028
1.90299
1.9339
1.96175
1.98535
2.00671
2.02385
2.03722
2.0482
2.05919
2.07082
2.08282
2.09207
2.10116
2.10703
2.10964
2.11178
2.1167
2.12219
2.12787
2.13059
2.13115
2.12945
2.12602
2.12582
2.12967
2.14385
0.2
0.2
0.2
0.2
0.2
0.2
0.2
0.2
0.2
0.2
0.2
0.2
0.2
0.2
0.2
0.2
0.2
0.2
0.2
0.2
0.2
0.2
0.2
0.2
0.2
0.2
0.2
0.2
0.200001
0.200001
0.200001
0.200002
0.200003
0.200004
0.200006
0.200009
0.200012
0.200015
0.20002
0.200025
0.200031
0.200037
0.200044
0.200051
0.200058
0.200066
0.200074
0.200084
0.200092
0.200098
0.200106
0.20011
0.200108
0.200098
0.20008
0.200048
0.199997
0.199919
0.199805
0.199642
0.199415
0.199102
0.19868
0.198107
0.197346
0.196324
0.194972
0.193113
0.190418
0.18999
0.206298
0.570512
1.38865
1.59329
1.76034
1.91471
1.95521
1.92017
1.88824
1.85459
1.82593
1.80362
1.78881
1.77966
1.77235
1.76598
1.76139
1.76002
1.77041
1.78577
1.80625
1.82807
1.85719
1.88939
1.92062
1.94928
1.9733
1.99526
2.01269
2.02658
2.03761
2.0485
2.05987
2.07206
2.08323
2.09401
2.09994
2.1041
2.10848
2.11398
2.11943
2.12403
2.12572
2.12489
2.12285
2.12121
2.12391
2.12995
2.14349
0.2
0.2
0.2
0.2
0.2
0.2
0.2
0.2
0.2
0.2
0.2
0.2
0.2
0.2
0.2
0.2
0.2
0.2
0.2
0.2
0.2
0.2
0.2
0.2
0.2
0.2
0.2
0.2
0.200001
0.200001
0.200002
0.200002
0.200004
0.200005
0.200007
0.20001
0.200014
0.200019
0.200024
0.200031
0.200039
0.200048
0.200058
0.200069
0.200081
0.200095
0.20011
0.200128
0.200148
0.20017
0.200191
0.200215
0.20024
0.200259
0.20028
0.200294
0.200297
0.200283
0.200248
0.200183
0.200073
0.199903
0.199648
0.199278
0.19876
0.198056
0.197156
0.195913
0.193994
0.193663
0.208373
1.00836
1.57667
1.72693
1.88823
1.95749
1.93685
1.89534
1.86602
1.83328
1.80955
1.79045
1.77617
1.76509
1.75677
1.75025
1.74578
1.74572
1.75752
1.7738
1.79392
1.81469
1.84224
1.87349
1.9045
1.93375
1.95879
1.98193
1.99994
2.01433
2.02584
2.03749
2.04935
2.06174
2.07433
2.08569
2.09266
2.09997
2.10603
2.11113
2.1153
2.11848
2.11983
2.11884
2.11694
2.11668
2.12221
2.12891
2.14134
0.2
0.2
0.2
0.2
0.2
0.2
0.2
0.2
0.2
0.2
0.2
0.2
0.2
0.2
0.2
0.2
0.2
0.2
0.2
0.2
0.2
0.2
0.2
0.2
0.2
0.2
0.2
0.2
0.200001
0.200001
0.200002
0.200003
0.200004
0.200006
0.200009
0.200012
0.200016
0.200022
0.200029
0.200037
0.200047
0.200059
0.200073
0.200088
0.200104
0.200124
0.200147
0.200175
0.200205
0.200241
0.200282
0.200325
0.200378
0.20043
0.20049
0.200554
0.200618
0.200684
0.200734
0.200785
0.200816
0.200811
0.200747
0.200628
0.20041
0.200029
0.199386
0.198136
0.196792
0.206822
0.461177
1.40098
1.71124
1.83851
1.93863
1.94667
1.90296
1.87842
1.84434
1.81928
1.7966
1.77783
1.76257
1.75056
1.7419
1.73565
1.73148
1.73236
1.7437
1.75934
1.77671
1.79561
1.82253
1.85364
1.88527
1.91614
1.94272
1.96705
1.98559
2.00076
2.01338
2.02669
2.03993
2.05265
2.06519
2.07695
2.0862
2.09627
2.10301
2.10748
2.10989
2.11161
2.11308
2.11297
2.11233
2.11335
2.12019
2.12606
2.13742
0.2
0.2
0.2
0.2
0.2
0.2
0.2
0.2
0.2
0.2
0.2
0.2
0.2
0.2
0.2
0.2
0.2
0.2
0.2
0.2
0.2
0.2
0.2
0.2
0.2
0.2
0.2
0.2
0.200001
0.200001
0.200002
0.200003
0.200005
0.200007
0.20001
0.200014
0.200019
0.200025
0.200034
0.200044
0.200056
0.20007
0.200087
0.200106
0.200127
0.200152
0.200183
0.20022
0.200262
0.200313
0.200371
0.200437
0.200519
0.200601
0.200707
0.200824
0.200944
0.201098
0.201249
0.201409
0.201601
0.201785
0.201953
0.202109
0.202238
0.202282
0.202395
0.202605
0.203835
0.217036
0.933608
1.66185
1.81989
1.92267
1.94844
1.91543
1.88562
1.85799
1.82673
1.80293
1.78123
1.76315
1.74835
1.73688
1.72899
1.72374
1.72106
1.72145
1.72974
1.74392
1.75916
1.77735
1.80376
1.83404
1.86606
1.89837
1.92613
1.95118
1.97059
1.98751
2.00173
2.0166
2.03126
2.04457
2.05666
2.06862
2.08021
2.09143
2.0986
2.10262
2.10368
2.10425
2.10594
2.10714
2.10821
2.11097
2.11747
2.12168
2.13222
0.2
0.2
0.2
0.2
0.2
0.2
0.2
0.2
0.2
0.2
0.2
0.2
0.2
0.2
0.2
0.2
0.2
0.2
0.2
0.2
0.2
0.2
0.2
0.2
0.2
0.2
0.2
0.2
0.200001
0.200001
0.200002
0.200003
0.200005
0.200007
0.200011
0.200015
0.200021
0.200029
0.200038
0.20005
0.200064
0.200081
0.200101
0.200124
0.200149
0.200181
0.200218
0.200264
0.200315
0.200383
0.200456
0.200544
0.200653
0.200765
0.200915
0.201086
0.201264
0.2015
0.201756
0.202034
0.202389
0.20274
0.203167
0.203617
0.204125
0.204426
0.204539
0.20432
0.209583
0.384101
1.38793
1.79718
1.8935
1.94194
1.92887
1.88996
1.8661
1.83253
1.80726
1.78277
1.76238
1.74604
1.7334
1.72401
1.71708
1.71194
1.70892
1.70723
1.71352
1.72616
1.74086
1.75918
1.78563
1.81565
1.84752
1.88015
1.90889
1.93494
1.95592
1.97524
1.99114
2.0069
2.0224
2.03638
2.04887
2.06122
2.07322
2.08453
2.09229
2.09662
2.09749
2.09749
2.0993
2.10168
2.10451
2.10843
2.11364
2.11636
2.12618
0.2
0.2
0.2
0.2
0.2
0.2
0.2
0.2
0.2
0.2
0.2
0.2
0.2
0.2
0.2
0.2
0.2
0.2
0.2
0.2
0.2
0.2
0.2
0.2
0.2
0.2
0.2
0.200001
0.200001
0.200001
0.200002
0.200004
0.200005
0.200008
0.200012
0.200017
0.200023
0.200032
0.200043
0.200056
0.200072
0.200091
0.200114
0.20014
0.200171
0.200207
0.200251
0.200303
0.200367
0.200447
0.200533
0.200644
0.200776
0.200916
0.201109
0.201321
0.201559
0.201877
0.202205
0.202613
0.203113
0.203607
0.204271
0.204978
0.205756
0.206876
0.208225
0.210607
0.223921
0.855763
1.68682
1.88557
1.93795
1.93592
1.89304
1.87016
1.83617
1.80931
1.78476
1.76316
1.7451
1.73119
1.72105
1.71238
1.70468
1.69914
1.69506
1.69204
1.69743
1.70851
1.72308
1.74183
1.76814
1.7977
1.82852
1.86131
1.89133
1.91889
1.94211
1.96391
1.98147
1.9976
2.0129
2.02695
2.04014
2.05265
2.06446
2.0759
2.08447
2.08974
2.09148
2.09192
2.09421
2.09762
2.10185
2.10524
2.10876
2.11065
2.11985
0.2
0.2
0.2
0.2
0.2
0.2
0.2
0.2
0.2
0.2
0.2
0.2
0.2
0.2
0.2
0.2
0.2
0.2
0.2
0.2
0.2
0.2
0.2
0.2
0.2
0.2
0.2
0.200001
0.200001
0.200002
0.200002
0.200004
0.200006
0.200009
0.200013
0.200018
0.200026
0.200035
0.200047
0.200062
0.20008
0.200101
0.200127
0.200156
0.20019
0.200231
0.200281
0.200342
0.200415
0.200503
0.200602
0.200733
0.200886
0.201048
0.201278
0.201526
0.201805
0.202197
0.202608
0.203076
0.203726
0.20441
0.205213
0.206242
0.207231
0.208522
0.210501
0.215203
0.329117
1.34232
1.83452
1.92276
1.93401
1.89969
1.8734
1.84235
1.81098
1.78667
1.7654
1.74708
1.73054
1.71599
1.70449
1.69626
1.68985
1.68521
1.68106
1.67786
1.68298
1.69249
1.70686
1.7254
1.75059
1.77855
1.80873
1.84235
1.87405
1.90391
1.92952
1.95257
1.97075
1.98751
2.0024
2.01591
2.02933
2.04251
2.05476
2.06646
2.07564
2.08195
2.08546
2.08762
2.091
2.09531
2.09963
2.1009
2.10313
2.10459
2.11354
0.2
0.2
0.2
0.2
0.2
0.2
0.2
0.2
0.2
0.2
0.2
0.2
0.2
0.2
0.2
0.2
0.2
0.2
0.2
0.2
0.2
0.2
0.2
0.2
0.2
0.2
0.2
0.200001
0.200001
0.200002
0.200003
0.200004
0.200006
0.20001
0.200014
0.20002
0.200028
0.200038
0.200051
0.200067
0.200087
0.200111
0.200139
0.200171
0.200209
0.200254
0.20031
0.200376
0.200456
0.200551
0.200666
0.200807
0.200977
0.201167
0.201405
0.201708
0.202024
0.202427
0.202943
0.203476
0.204166
0.205057
0.205983
0.207225
0.208461
0.209782
0.211898
0.220096
0.747149
1.70339
1.92064
1.91903
1.89585
1.8662
1.83867
1.81082
1.78843
1.76871
1.75004
1.73183
1.71383
1.69838
1.68754
1.68054
1.67508
1.67074
1.66671
1.66379
1.66778
1.67429
1.68786
1.70689
1.73192
1.75932
1.78918
1.82387
1.85747
1.88845
1.91448
1.93841
1.95798
1.97617
1.99129
2.00425
2.0173
2.03123
2.04442
2.05652
2.06608
2.07341
2.07918
2.08409
2.08907
2.09384
2.09657
2.0961
2.09736
2.09848
2.10748
0.2
0.2
0.2
0.2
0.2
0.2
0.2
0.2
0.2
0.2
0.2
0.2
0.2
0.2
0.2
0.2
0.2
0.2
0.2
0.2
0.2
0.2
0.2
0.2
0.2
0.2
0.2
0.200001
0.200001
0.200002
0.200003
0.200004
0.200007
0.20001
0.200015
0.200021
0.20003
0.200041
0.200055
0.200073
0.200094
0.20012
0.20015
0.200186
0.200226
0.200276
0.200336
0.200408
0.200494
0.200599
0.200724
0.200872
0.20105
0.20127
0.201517
0.201832
0.20221
0.202607
0.203164
0.203797
0.20448
0.205447
0.206556
0.207852
0.209561
0.211426
0.213328
0.25882
1.2432
1.86159
1.91921
1.88694
1.86345
1.83232
1.80957
1.78959
1.7717
1.75221
1.73156
1.71097
1.69312
1.68002
1.67129
1.66672
1.66213
1.65695
1.65069
1.64768
1.65118
1.65575
1.66787
1.68714
1.71197
1.7391
1.76865
1.80359
1.83864
1.87016
1.89735
1.92308
1.94445
1.96404
1.97969
1.99243
2.00475
2.01899
2.03328
2.04629
2.05652
2.06493
2.07331
2.08095
2.08698
2.09081
2.09216
2.09083
2.09164
2.09305
2.10211
0.2
0.2
0.2
0.2
0.2
0.2
0.2
0.2
0.2
0.2
0.2
0.2
0.2
0.2
0.2
0.2
0.2
0.2
0.2
0.2
0.2
0.2
0.2
0.2
0.2
0.2
0.2
0.200001
0.200001
0.200002
0.200003
0.200005
0.200007
0.200011
0.200016
0.200023
0.200032
0.200044
0.200059
0.200078
0.200101
0.200129
0.200161
0.2002
0.200244
0.200296
0.200361
0.200438
0.200531
0.200643
0.200776
0.200931
0.201121
0.20136
0.201606
0.201941
0.202328
0.202741
0.203328
0.203976
0.204667
0.205656
0.206738
0.207988
0.20997
0.212413
0.213911
0.626492
1.67634
1.89893
1.87147
1.84644
1.82311
1.80073
1.78751
1.77127
1.75445
1.73326
1.71001
1.68947
1.6736
1.66295
1.65768
1.65424
1.64739
1.63951
1.63332
1.63135
1.63473
1.63795
1.64785
1.66622
1.69024
1.71706
1.74719
1.78274
1.8191
1.85111
1.87939
1.90683
1.92998
1.95086
1.96716
1.98059
1.9926
2.00668
2.02186
2.03592
2.0473
2.05759
2.06807
2.07677
2.08261
2.08585
2.08658
2.08582
2.08673
2.08883
2.09753
0.2
0.2
0.2
0.2
0.2
0.2
0.2
0.2
0.2
0.2
0.2
0.2
0.2
0.2
0.2
0.2
0.2
0.2
0.2
0.2
0.2
0.2
0.2
0.2
0.2
0.2
0.2
0.200001
0.200001
0.200002
0.200003
0.200005
0.200008
0.200012
0.200017
0.200025
0.200034
0.200047
0.200063
0.200083
0.200108
0.200138
0.200173
0.200214
0.200261
0.200317
0.200386
0.200469
0.200568
0.200685
0.200824
0.200991
0.20119
0.201432
0.201696
0.20204
0.202429
0.20285
0.20344
0.204076
0.204764
0.20576
0.206747
0.207789
0.209457
0.210374
0.220584
1.13903
1.82867
1.87415
1.82924
1.81164
1.79137
1.7779
1.76233
1.74523
1.72614
1.70733
1.68736
1.67112
1.65913
1.65214
1.64546
1.63746
1.62849
1.62094
1.61631
1.61525
1.6183
1.62123
1.62853
1.64408
1.66675
1.69439
1.72613
1.76243
1.79963
1.83198
1.86117
1.89001
1.91459
1.93652
1.95395
1.9688
1.98146
1.99538
2.01057
2.02545
2.03881
2.05105
2.06186
2.07009
2.07604
2.07929
2.08006
2.08039
2.0821
2.08529
2.09276
0.2
0.2
0.2
0.2
0.2
0.2
0.2
0.2
0.2
0.2
0.2
0.2
0.2
0.2
0.2
0.2
0.2
0.2
0.2
0.2
0.2
0.2
0.2
0.2
0.2
0.2
0.2
0.200001
0.200001
0.200002
0.200003
0.200005
0.200008
0.200012
0.200018
0.200026
0.200037
0.20005
0.200067
0.200089
0.200116
0.200147
0.200185
0.200229
0.200279
0.200338
0.200413
0.200501
0.200606
0.200729
0.200879
0.201056
0.20126
0.201506
0.20179
0.20214
0.202535
0.202961
0.203534
0.204143
0.204808
0.20572
0.206736
0.207941
0.210189
0.210996
0.510852
1.5774
1.84316
1.81054
1.78667
1.77553
1.76027
1.74963
1.7343
1.71721
1.69858
1.68329
1.66781
1.65769
1.64734
1.6368
1.62591
1.61614
1.60902
1.60298
1.60057
1.60079
1.6029
1.60521
1.60771
1.6207
1.64314
1.67183
1.70531
1.74252
1.78004
1.81228
1.84256
1.87283
1.89875
1.92183
1.94044
1.95719
1.97168
1.98601
2.0007
2.01568
2.03047
2.04306
2.05345
2.06165
2.06778
2.07128
2.07291
2.07477
2.07745
2.08138
2.08738
0.2
0.2
0.2
0.2
0.2
0.2
0.2
0.2
0.2
0.2
0.2
0.2
0.2
0.2
0.2
0.2
0.2
0.2
0.2
0.2
0.2
0.2
0.2
0.2
0.2
0.2
0.2
0.200001
0.200001
0.200002
0.200004
0.200006
0.200009
0.200013
0.200019
0.200028
0.200039
0.200053
0.200072
0.200095
0.200123
0.200157
0.200197
0.200244
0.200298
0.200362
0.200441
0.200536
0.200646
0.20078
0.200943
0.201122
0.201343
0.201609
0.201888
0.202255
0.202651
0.203094
0.203664
0.20425
0.204946
0.205828
0.206699
0.207528
0.206611
0.212985
1.00887
1.75332
1.80397
1.76495
1.75327
1.74257
1.7295
1.71697
1.69861
1.684
1.67167
1.66231
1.65411
1.64468
1.63089
1.616
1.60294
1.59419
1.58906
1.58608
1.58672
1.58642
1.58672
1.58583
1.5851
1.59709
1.62015
1.65014
1.6856
1.72269
1.75854
1.79234
1.82438
1.85574
1.88278
1.90712
1.92707
1.94609
1.96308
1.97848
1.99238
2.00623
2.02055
2.03338
2.04398
2.0526
2.0589
2.06274
2.06539
2.06883
2.07232
2.07616
2.07986
0.2
0.2
0.2
0.2
0.2
0.2
0.2
0.2
0.2
0.2
0.2
0.2
0.2
0.2
0.2
0.2
0.2
0.2
0.2
0.2
0.2
0.2
0.2
0.2
0.2
0.2
0.2
0.200001
0.200001
0.200002
0.200004
0.200006
0.200009
0.200014
0.20002
0.200029
0.200041
0.200056
0.200076
0.200101
0.200131
0.200168
0.200211
0.200261
0.200319
0.200388
0.200473
0.200573
0.200694
0.200839
0.201009
0.201202
0.201452
0.201708
0.202027
0.202411
0.202798
0.203305
0.203875
0.204449
0.205155
0.205878
0.206775
0.208178
0.208955
0.425065
1.45669
1.76814
1.74831
1.72156
1.7141
1.70792
1.6966
1.68333
1.66485
1.6535
1.64705
1.64414
1.63561
1.62451
1.6089
1.59242
1.58033
1.57336
1.5712
1.57193
1.57115
1.56822
1.56599
1.56524
1.56317
1.57497
1.59893
1.63072
1.66561
1.69985
1.73546
1.77345
1.80768
1.83886
1.86633
1.89224
1.9146
1.93588
1.95408
1.96984
1.98299
1.99564
2.00932
2.02228
2.03324
2.04236
2.04934
2.05431
2.05811
2.06329
2.06744
2.07008
2.0727
0.2
0.2
0.2
0.2
0.2
0.2
0.2
0.2
0.2
0.2
0.2
0.2
0.2
0.2
0.2
0.2
0.2
0.2
0.2
0.2
0.2
0.2
0.2
0.2
0.2
0.2
0.2
0.200001
0.200001
0.200002
0.200004
0.200006
0.200009
0.200014
0.200021
0.20003
0.200043
0.200059
0.200081
0.200107
0.200139
0.200178
0.200225
0.200279
0.200341
0.200416
0.200508
0.200617
0.200749
0.200905
0.201084
0.201306
0.20157
0.201844
0.20221
0.2026
0.203032
0.203588
0.204153
0.204814
0.205638
0.20647
0.207277
0.206024
0.211322
0.876339
1.65908
1.73424
1.71071
1.69258
1.68558
1.67365
1.65859
1.64231
1.63165
1.62707
1.62587
1.62262
1.61439
1.60149
1.5841
1.56925
1.55937
1.55502
1.55451
1.55378
1.55172
1.54671
1.54485
1.5455
1.54361
1.55553
1.57875
1.60847
1.64133
1.67581
1.71308
1.75572
1.79267
1.82233
1.84939
1.87672
1.90142
1.92388
1.94269
1.95928
1.97302
1.98525
1.99792
2.0109
2.02216
2.03188
2.03971
2.04615
2.05132
2.05712
2.06102
2.06238
2.06334
0.2
0.2
0.2
0.2
0.2
0.2
0.2
0.2
0.2
0.2
0.2
0.2
0.2
0.2
0.2
0.2
0.2
0.2
0.2
0.2
0.2
0.2
0.2
0.2
0.2
0.2
0.2
0.200001
0.200001
0.200002
0.200004
0.200006
0.20001
0.200015
0.200022
0.200032
0.200045
0.200062
0.200085
0.200113
0.200147
0.200189
0.200239
0.200297
0.200365
0.200446
0.200546
0.200667
0.200809
0.20098
0.201177
0.201429
0.201702
0.202025
0.202427
0.202832
0.203359
0.203961
0.204567
0.205334
0.206075
0.206879
0.208053
0.208526
0.361374
1.32078
1.67837
1.68162
1.66768
1.65516
1.65324
1.63995
1.62303
1.60852
1.60275
1.60148
1.59988
1.59415