/*--------------------------------*- C++ -*----------------------------------*\
| =========                 |                                                 |
| \\      /  F ield         | OpenFOAM: The Open Source CFD Toolbox           |
|  \\    /   O peration     | Version:  2.2.x                                 |
|   \\  /    A nd           | Web:      www.OpenFOAM.org                      |
|    \\/     M anipulation  |                                                 |
\*---------------------------------------------------------------------------*/
FoamFile
{
    version     2.0;
    format      ascii;
    class       volScalarField;
    location    "2.3";
    object      Bz;
}
// * * * * * * * * * * * * * * * * * * * * * * * * * * * * * * * * * * * * * //

dimensions      [1 0 -2 0 0 -1 0];

internalField   nonuniform List<scalar> 
14161
(
-3.39355e-20
-3.40736e-20
-3.39382e-20
-3.36445e-20
-3.24408e-20
-3.50838e-20
-3.2371e-20
-3.33638e-20
-3.36084e-20
-3.25821e-20
-3.43995e-20
-3.21219e-20
-3.41283e-20
-3.22149e-20
-3.30574e-20
-3.27378e-20
-3.31558e-20
-3.29683e-20
-3.28372e-20
-3.29537e-20
-3.29107e-20
-3.24174e-20
-3.24017e-20
-3.20376e-20
-3.21878e-20
-3.18938e-20
-3.16504e-20
-3.1637e-20
-3.13454e-20
-3.15181e-20
-3.10924e-20
-3.11202e-20
-3.09749e-20
-3.10028e-20
-3.08751e-20
-3.09132e-20
-3.08597e-20
-3.08793e-20
-3.08462e-20
-3.0907e-20
-3.07301e-20
-3.03431e-20
-2.73241e-20
2.38875e-21
2.31569e-19
3.12966e-18
1.15182e-17
1.71857e-17
1.13062e-17
9.3846e-18
9.04465e-18
9.05306e-18
8.37885e-18
7.60707e-18
6.4643e-18
5.2338e-18
4.0664e-18
3.25986e-18
2.8014e-18
2.05956e-18
1.43034e-18
1.1723e-18
1.03529e-18
9.61031e-19
7.96447e-19
6.58264e-19
5.47321e-19
4.71985e-19
4.43149e-19
4.05738e-19
3.42286e-19
3.11384e-19
2.38372e-19
2.05723e-19
2.1621e-19
1.56662e-19
1.74561e-19
3.09985e-20
-1.0967e-20
-3.9819e-20
-2.74479e-19
-2.25635e-19
-3.74229e-19
-8.90822e-19
-1.10258e-18
-2.11948e-18
-2.66235e-18
-3.4274e-18
-3.89971e-18
-4.92639e-18
-5.80497e-18
-6.39606e-18
-6.90238e-18
-6.96591e-18
-7.16919e-18
-7.06637e-18
-7.23585e-18
-7.42138e-18
-8.04725e-18
-8.38944e-18
-9.77739e-18
-9.77331e-18
-1.25613e-17
-1.18973e-17
-1.42584e-17
-1.24348e-17
-1.3347e-17
-1.05673e-17
-1.17024e-17
-8.27307e-18
-9.05629e-18
-5.30311e-18
-6.18955e-18
-4.12616e-18
-3.22785e-18
-5.64332e-18
8.79029e-18
1.0854e-17
8.27566e-19
4.10185e-20
4.19246e-20
4.18207e-20
4.09226e-20
4.10069e-20
4.03418e-20
4.20969e-20
3.86706e-20
4.25886e-20
3.89444e-20
4.23814e-20
3.88477e-20
4.31438e-20
4.03144e-20
4.01282e-20
3.93276e-20
4.13086e-20
4.01434e-20
4.03749e-20
3.94909e-20
3.99854e-20
4.03079e-20
3.95318e-20
4.0134e-20
4.11605e-20
4.1844e-20
4.03063e-20
4.14616e-20
3.98547e-20
4.15778e-20
4.03928e-20
4.10067e-20
4.12268e-20
4.12226e-20
4.07971e-20
4.12424e-20
4.09209e-20
4.10673e-20
4.10136e-20
4.11309e-20
4.09299e-20
4.08731e-20
4.18645e-20
4.80131e-20
8.34189e-20
1.02397e-19
1.06069e-17
1.22964e-17
9.45349e-18
7.68564e-18
6.03083e-18
3.72714e-18
2.36678e-18
1.61623e-18
1.47101e-18
1.30251e-18
1.08315e-18
8.38687e-19
6.84265e-19
6.63525e-19
5.85937e-19
5.61131e-19
5.27817e-19
4.74165e-19
4.45109e-19
4.10102e-19
4.04452e-19
2.56075e-19
2.70635e-19
1.21379e-19
1.13452e-19
-2.63639e-20
-2.22289e-19
-2.81006e-19
-4.35408e-19
-8.17393e-19
-1.03943e-18
-1.37747e-18
-1.87823e-18
-2.47566e-18
-3.90426e-18
-4.60219e-18
-6.51903e-18
-7.7642e-18
-9.42639e-18
-1.07169e-17
-1.15533e-17
-1.19307e-17
-1.22233e-17
-1.25738e-17
-1.26719e-17
-1.41347e-17
-1.07238e-17
-1.30128e-17
-1.28953e-17
-2.90561e-18
-1.60075e-17
4.00204e-19
-1.849e-17
-1.00863e-18
-1.23673e-17
4.98723e-18
-2.37577e-17
-6.7807e-18
-1.92803e-17
-4.22309e-17
-1.50289e-17
-2.64011e-17
-4.04368e-17
-4.88689e-17
-4.51914e-17
-5.91912e-19
9.77857e-18
-2.42408e-19
6.23353e-18
-3.55231e-18
-1.70406e-17
-1.2798e-17
-3.25071e-18
8.2174e-20
8.07654e-20
8.05967e-20
8.1146e-20
8.35317e-20
7.81298e-20
8.71239e-20
7.32699e-20
8.70773e-20
7.41735e-20
8.42161e-20
7.47561e-20
7.83927e-20
7.44372e-20
7.89315e-20
7.52574e-20
7.68844e-20
7.26349e-20
7.50689e-20
7.04626e-20
6.95382e-20
6.68967e-20
6.77023e-20
6.62483e-20
6.21062e-20
6.2366e-20
6.13448e-20
6.06834e-20
5.95939e-20
6.16451e-20
6.0194e-20
6.16159e-20
5.98785e-20
6.09119e-20
6.01633e-20
6.04619e-20
6.04318e-20
6.0261e-20
6.00819e-20
6.02438e-20
6.09897e-20
6.38947e-20
7.44478e-20
1.31173e-19
5.53138e-19
2.36223e-18
5.77744e-18
5.01831e-18
2.35784e-18
1.2447e-18
8.68681e-19
5.92574e-19
4.55312e-19
3.08406e-19
2.42689e-19
2.67506e-19
3.07548e-19
1.13197e-19
2.86186e-19
1.83002e-19
-5.77591e-20
4.73874e-19
-1.49121e-19
-1.13633e-19
1.74694e-19
-4.47291e-19
1.30323e-19
-8.49615e-19
-1.26701e-19
-1.10582e-18
-6.78313e-19
-1.3686e-18
-1.59912e-18
-2.26844e-18
-2.35666e-18
-3.80257e-18
-4.3672e-18
-5.10342e-18
-6.86654e-18
-7.62954e-18
-1.03105e-17
-1.1389e-17
-1.54612e-17
-1.98296e-17
-1.90899e-17
-2.04665e-17
-1.85917e-17
-2.26222e-17
-1.41219e-17
-2.14381e-17
-1.24674e-17
6.55876e-18
-7.40038e-17
1.11682e-16
-1.09763e-16
2.489e-17
3.7499e-18
-4.22438e-17
6.37806e-17
-5.63815e-17
-5.07676e-17
2.01194e-17
3.97812e-17
-1.9843e-17
1.2871e-16
4.85483e-17
-2.93038e-17
6.72999e-17
5.79281e-17
2.22576e-17
-8.50919e-17
-1.14937e-16
1.30185e-18
1.47773e-17
-3.19601e-17
-3.98047e-17
-2.40294e-17
-7.42347e-18
-4.49116e-19
-2.90343e-20
-2.78278e-20
-2.66069e-20
-2.66496e-20
-2.67115e-20
-2.77067e-20
-2.96571e-20
-2.62126e-20
-2.56048e-20
-2.14414e-20
-2.13861e-20
-2.14145e-20
-1.90603e-20
-1.59475e-20
-1.40027e-20
-6.56312e-21
-8.97745e-21
-3.52052e-21
-1.19703e-20
-1.77221e-22
1.37228e-21
5.53339e-21
6.66827e-21
1.00091e-20
1.48346e-20
1.32451e-20
1.73604e-20
1.99792e-20
2.38284e-20
2.10031e-20
2.25319e-20
2.36824e-20
2.48886e-20
2.52995e-20
2.63357e-20
2.69361e-20
2.6855e-20
2.77746e-20
2.80318e-20
2.82391e-20
2.83575e-20
2.85398e-20
3.84143e-20
1.26026e-19
6.59734e-19
4.0781e-18
5.49764e-18
4.4929e-18
2.18397e-18
1.25802e-18
-2.55742e-19
3.56702e-19
2.97352e-19
3.86241e-19
3.26311e-19
2.92163e-19
3.31148e-19
2.11504e-19
1.59259e-19
3.16003e-19
8.77126e-20
1.78299e-19
-1.68081e-20
1.05377e-19
-1.5393e-19
-5.80462e-21
-4.96072e-19
-6.11114e-19
-5.42781e-19
-7.57039e-19
-8.98263e-19
-1.27704e-18
-1.24418e-18
-1.86458e-18
-1.95567e-18
-2.48694e-18
-3.07928e-18
-3.87271e-18
-5.42041e-18
-7.51954e-18
-9.7476e-18
-1.34165e-17
-1.66225e-17
-1.91219e-17
-2.07658e-17
-1.8034e-17
-1.95206e-17
-1.52108e-17
-2.5715e-17
5.78386e-18
-2.07557e-17
-2.094e-17
3.78502e-17
-8.29889e-17
6.11592e-17
-1.84323e-17
4.9354e-18
-6.43341e-18
-9.52877e-17
1.4203e-16
3.13525e-17
-4.42553e-17
-8.79512e-17
-1.34527e-16
-8.59414e-17
-2.56156e-17
1.53861e-16
8.45244e-17
-3.2458e-17
-5.84921e-17
-6.70505e-17
1.38008e-17
2.0806e-17
-4.44697e-17
-4.88738e-17
-2.04773e-17
-1.67158e-18
1.52636e-18
1.74335e-18
6.32913e-20
6.56773e-20
6.48977e-20
6.74916e-20
6.04866e-20
8.07807e-20
7.62147e-20
8.81112e-20
7.86856e-20
9.66044e-20
7.52225e-20
1.01947e-19
1.02225e-19
1.01623e-19
1.06689e-19
9.86824e-20
1.11118e-19
1.11972e-19
1.18161e-19
1.12937e-19
1.15626e-19
1.17955e-19
1.18172e-19
1.19866e-19
1.22949e-19
1.26596e-19
1.26418e-19
1.25031e-19
1.26331e-19
1.31911e-19
1.33731e-19
1.32586e-19
1.35159e-19
1.36153e-19
1.34507e-19
1.37874e-19
1.38581e-19
1.3869e-19
1.3905e-19
1.39958e-19
1.38585e-19
1.42195e-19
1.45591e-19
2.22425e-19
7.69234e-19
5.03107e-18
6.28788e-18
4.7614e-18
1.50753e-18
4.7375e-19
-2.02996e-20
2.23863e-19
1.12502e-19
1.34539e-19
1.23676e-19
1.31425e-19
2.32867e-19
1.10938e-19
1.39268e-19
1.03602e-19
1.53227e-19
8.8392e-22
1.34844e-19
1.46572e-20
-1.09929e-19
-1.65643e-19
-1.69284e-19
-1.67935e-19
-3.56805e-19
-4.77352e-19
-5.77778e-19
-9.18709e-19
-9.56658e-19
-1.33762e-18
-1.66557e-18
-2.45844e-18
-2.65762e-18
-3.06706e-18
-5.52248e-18
-5.99845e-18
-1.26074e-17
-5.12507e-18
-1.94747e-17
-2.14849e-17
-1.40212e-17
-2.12038e-17
-7.76715e-18
-4.26148e-17
4.28877e-17
-1.65003e-17
-1.11886e-16
1.17374e-16
-7.91169e-17
2.74034e-17
1.01894e-16
-1.4856e-16
1.48058e-17
4.92534e-17
5.71819e-17
-8.3308e-17
-2.09141e-16
9.69724e-17
1.4015e-16
2.72144e-17
-6.1568e-17
2.72473e-17
6.43206e-17
-6.13293e-18
-5.55125e-19
4.34154e-17
5.41577e-17
3.6385e-17
-2.67703e-17
-3.15127e-17
-1.46897e-17
1.58747e-18
5.07831e-18
2.28662e-18
1.55072e-18
2.39839e-19
2.38597e-19
2.40316e-19
2.3721e-19
2.39812e-19
2.29771e-19
2.06361e-19
2.3683e-19
2.18228e-19
2.10094e-19
2.18777e-19
2.24442e-19
1.73776e-19
2.19496e-19
1.84663e-19
2.24308e-19
1.81754e-19
2.08671e-19
2.01439e-19
1.98078e-19
1.98257e-19
1.97148e-19
2.00758e-19
1.98545e-19
2.00999e-19
2.0084e-19
2.00934e-19
1.96563e-19
1.97534e-19
1.92913e-19
1.94972e-19
1.91434e-19
1.92253e-19
1.91287e-19
1.91467e-19
1.91936e-19
1.9243e-19
1.92973e-19
1.92967e-19
1.93003e-19
1.92976e-19
1.94123e-19
1.9739e-19
2.99171e-19
8.31447e-19
7.92549e-18
9.96898e-18
4.98137e-18
2.4907e-18
1.26125e-18
3.23725e-19
3.09043e-19
3.4592e-19
2.5549e-19
3.70591e-19
3.28793e-19
3.12882e-19
3.25018e-19
3.06314e-19
3.0336e-19
2.62226e-19
3.00089e-19
2.72732e-19
1.61387e-19
4.25181e-19
1.03848e-19
9.82372e-20
1.75226e-19
8.12809e-21
-5.18446e-22
-8.89232e-20
-2.47413e-19
-3.32738e-19
-4.79475e-19
-5.82417e-19
-9.80132e-19
-1.27768e-18
-1.82073e-18
-2.85919e-18
-3.62868e-18
-6.58739e-18
-9.29463e-18
-9.58404e-18
-2.10057e-17
-5.12463e-19
-2.74518e-17
-1.26706e-17
3.03119e-18
-4.17878e-17
3.44443e-17
-4.14241e-18
-6.21928e-18
-2.97338e-17
1.15299e-16
-2.61393e-16
1.42543e-16
2.47291e-16
-2.41729e-16
-2.22646e-16
1.92438e-16
2.98503e-16
7.68967e-17
-8.04844e-17
-8.14825e-17
-5.4706e-17
-4.38928e-18
-2.91414e-17
-1.45685e-17
4.75283e-17
6.6007e-17
5.00483e-17
4.32273e-18
-2.39942e-17
-6.21932e-18
1.60479e-18
5.10158e-18
1.98967e-18
1.99375e-18
1.55002e-18
2.09572e-19
2.02092e-19
1.98275e-19
1.98529e-19
1.99974e-19
2.04618e-19
1.78245e-19
1.84254e-19
1.84769e-19
1.59909e-19
1.72021e-19
1.4674e-19
1.82016e-19
1.43836e-19
1.33424e-19
1.1561e-19
1.32349e-19
1.24261e-19
1.23586e-19
1.31421e-19
1.30587e-19
1.31165e-19
1.3092e-19
1.34392e-19
1.27742e-19
1.28891e-19
1.30854e-19
1.37439e-19
1.41175e-19
1.3826e-19
1.42175e-19
1.46095e-19
1.4967e-19
1.51567e-19
1.53048e-19
1.54887e-19
1.55935e-19
1.57836e-19
1.58751e-19
1.61578e-19
1.60866e-19
1.62302e-19
1.40565e-19
1.98017e-19
4.98125e-19
5.45034e-18
7.38318e-18
5.51682e-18
1.1399e-18
1.14975e-18
1.20169e-18
1.21373e-18
1.20421e-18
1.19616e-18
1.07346e-18
1.01315e-18
9.67572e-19
8.79963e-19
8.31761e-19
8.58674e-19
8.55747e-19
9.27065e-19
8.94167e-19
8.83143e-19
8.19915e-19
6.26038e-19
6.69782e-19
6.55917e-19
6.35875e-19
4.45533e-19
3.77846e-19
4.2564e-19
3.8748e-19
4.71447e-19
4.5626e-19
4.01991e-19
3.22563e-19
7.03174e-20
-2.79141e-19
-9.00804e-19
-2.2838e-18
-2.62128e-18
-1.05684e-17
-3.96243e-18
-9.19721e-18
-1.48514e-17
5.70662e-19
-5.1153e-17
8.91881e-17
-9.97681e-17
4.30335e-17
-2.90299e-17
-7.07651e-17
5.67674e-17
1.26147e-16
1.26361e-16
-5.64255e-16
-1.91271e-16
5.65378e-16
2.88941e-17
-4.79608e-16
-2.30039e-16
-1.73323e-16
-1.45812e-16
-1.09438e-16
-6.28373e-17
-4.50319e-17
2.56765e-17
7.52279e-17
5.73295e-17
2.74132e-17
-1.01839e-17
-1.32428e-17
1.55874e-18
3.00375e-18
9.22828e-19
-1.04252e-18
-1.39402e-19
1.49802e-18
-3.42852e-20
-2.46665e-20
-2.26712e-20
-2.45456e-20
-2.62687e-20
-1.19541e-20
5.0412e-20
9.85156e-21
4.48722e-20
2.58688e-20
6.13304e-20
5.69145e-20
8.05108e-20
9.73027e-20
1.5184e-19
1.27334e-19
1.70678e-19
1.48849e-19
1.50041e-19
1.72558e-19
1.73766e-19
1.71701e-19
1.77456e-19
1.75246e-19
2.05961e-19
2.21086e-19
2.29343e-19
2.40862e-19
2.47942e-19
2.59461e-19
2.61166e-19
2.65552e-19
2.68669e-19
2.72755e-19
2.74218e-19
2.75336e-19
2.76773e-19
2.76027e-19
2.77334e-19
2.79215e-19
2.79114e-19
2.85052e-19
2.95509e-19
4.93515e-19
1.675e-18
8.20998e-18
1.14558e-17
8.44373e-18
4.58429e-18
2.77138e-18
2.8052e-18
3.01985e-18
2.94602e-18
3.04003e-18
2.54688e-18
2.19131e-18
1.88667e-18
1.64193e-18
1.21526e-18
1.14384e-18
9.48446e-19
9.00452e-19
8.57523e-19
9.19326e-19
8.78654e-19
8.21149e-19
7.82068e-19
6.64966e-19
7.05256e-19
8.33687e-19
7.39222e-19
5.7782e-19
5.42051e-19
5.78811e-19
7.0343e-19
7.74216e-19
8.28036e-19
9.18465e-19
7.31315e-19
1.25375e-18
-5.47833e-19
-2.73751e-19
-2.76218e-18
-6.00738e-18
-3.08673e-18
-1.76693e-17
3.93293e-17
-7.97853e-17
6.05487e-17
-4.42139e-18
-3.04753e-17
-4.19504e-17
2.00336e-16
-1.63887e-16
-3.23996e-16
-8.52386e-17
2.91304e-16
7.85628e-16
1.89585e-16
-7.30209e-16
-3.49709e-16
6.26227e-17
2.40269e-16
4.92538e-16
2.94829e-16
1.32e-16
-1.41839e-17
-4.81628e-17
1.60342e-17
2.02834e-17
-1.41333e-18
-1.4401e-17
-3.14327e-18
1.67059e-18
-8.50331e-20
-1.43686e-18
-1.41559e-18
-1.6882e-18
1.18016e-18
1.98138e-19
2.18904e-19
2.346e-19
2.65915e-19
2.61679e-19
2.85157e-19
3.0557e-19
2.9072e-19
3.38009e-19
3.34652e-19
3.67044e-19
3.81073e-19
3.88366e-19
4.1632e-19
4.13737e-19
4.61222e-19
4.36099e-19
4.79303e-19
5.08559e-19
4.87737e-19
5.11324e-19
5.27462e-19
5.33824e-19
5.40531e-19
5.2169e-19
5.16122e-19
5.14355e-19
5.16002e-19
5.02171e-19
5.12915e-19
5.01908e-19
5.08718e-19
5.01721e-19
5.06147e-19
4.99603e-19
4.99863e-19
5.01327e-19
5.02165e-19
5.03376e-19
5.02537e-19
5.02256e-19
5.06399e-19
5.27355e-19
6.5856e-19
1.61178e-18
5.96582e-18
1.8793e-17
1.77158e-17
1.4238e-17
1.08379e-17
1.08692e-17
1.00904e-17
8.50265e-18
7.7983e-18
5.34154e-18
4.31465e-18
3.48497e-18
2.59105e-18
2.11466e-18
1.80979e-18
1.49742e-18
1.2453e-18
1.07889e-18
9.47756e-19
9.80357e-19
9.4549e-19
9.78021e-19
9.52137e-19
9.25035e-19
9.14369e-19
9.12171e-19
9.05915e-19
8.55858e-19
9.12415e-19
8.23862e-19
8.37655e-19
9.30816e-19
9.78438e-19
1.18958e-18
3.0286e-19
2.524e-18
-1.24908e-18
3.06252e-18
-7.50688e-19
-1.26583e-18
8.23815e-18
-2.38476e-17
9.48169e-17
-5.98352e-17
-4.89504e-17
9.74537e-17
-2.33177e-16
2.69794e-17
2.07009e-16
5.26438e-16
3.24675e-16
-4.31932e-16
-7.2403e-16
-1.13801e-15
-1.76822e-17
1.57272e-15
3.89042e-16
2.72378e-16
3.05259e-16
-1.15367e-16
-9.78812e-17
-1.23103e-17
1.25222e-16
1.53584e-16
5.79911e-17
-5.32926e-18
-1.20339e-17
-1.03352e-18
-1.14123e-18
-4.10862e-18
-3.16759e-18
-1.82515e-18
-3.52034e-19
1.30313e-18
6.02237e-19
5.93088e-19
5.91915e-19
5.80812e-19
5.93056e-19
6.24419e-19
5.21426e-19
6.09064e-19
5.2638e-19
6.3068e-19
5.80404e-19
5.8197e-19
6.31343e-19
5.38801e-19
5.90224e-19
5.66552e-19
5.84669e-19
5.72613e-19
5.7569e-19
5.70164e-19
5.59643e-19
5.41956e-19
5.31865e-19
5.26207e-19
5.24034e-19
5.33994e-19
5.27858e-19
5.20666e-19
5.36821e-19
5.16652e-19
5.24957e-19
5.18416e-19
5.21659e-19
5.21164e-19
5.22627e-19
5.24608e-19
5.2362e-19
5.22279e-19
5.21823e-19
5.21703e-19
5.19844e-19
5.17451e-19
5.13229e-19
4.98994e-19
7.65578e-19
1.89671e-18
2.64356e-17
4.18201e-17
3.27653e-17
2.57101e-17
2.3002e-17
1.98223e-17
1.66984e-17
1.37077e-17
1.14355e-17
8.71836e-18
6.2706e-18
4.12367e-18
3.31541e-18
2.9555e-18
2.60285e-18
2.34182e-18
2.08939e-18
1.92035e-18
1.9251e-18
1.80986e-18
1.94002e-18
1.87177e-18
1.63093e-18
1.68944e-18
1.68576e-18
1.6835e-18
1.72017e-18
1.74085e-18
1.71768e-18
1.72018e-18
1.787e-18
1.81406e-18
1.80564e-18
1.65087e-18
2.24443e-18
1.37736e-18
-1.80736e-18
2.11704e-17
-3.77862e-17
1.08371e-16
-8.23527e-17
-4.69141e-17
1.42163e-17
-4.0559e-17
1.87959e-16
1.54394e-16
-2.43251e-16
-6.90008e-16
-6.15511e-16
-5.9866e-16
-4.75423e-17
1.13478e-15
5.08213e-16
7.22132e-16
4.74741e-16
-1.2001e-15
-8.33601e-17
-3.02397e-16
-7.93525e-16
-3.94791e-16
-8.39887e-17
-7.54581e-18
-1.40191e-17
-1.9796e-17
-1.69504e-17
-4.05341e-18
1.74398e-18
-3.40701e-18
-7.65752e-18
-3.94546e-18
-2.6398e-18
-1.01125e-18
7.09809e-19
5.87765e-19
5.80288e-19
5.80191e-19
5.87168e-19
5.7925e-19
5.31616e-19
5.67639e-19
5.69541e-19
5.8707e-19
5.39096e-19
5.13107e-19
5.49814e-19
4.95468e-19
5.38228e-19
4.77766e-19
4.818e-19
4.65227e-19
4.64436e-19
4.27955e-19
4.60108e-19
4.444e-19
4.58737e-19
4.76669e-19
4.80135e-19
4.9323e-19
4.85844e-19
5.01625e-19
5.18035e-19
5.09323e-19
5.31705e-19
5.23639e-19
5.30887e-19
5.26161e-19
5.33432e-19
5.34196e-19
5.36599e-19
5.40132e-19
5.43753e-19
5.41359e-19
5.46093e-19
5.4628e-19
5.43277e-19
5.36959e-19
5.86931e-19
9.40889e-19
4.56189e-18
1.83519e-17
6.49312e-17
5.01126e-17
3.42641e-17
2.87033e-17
1.93755e-17
1.7505e-17
1.43747e-17
1.11723e-17
8.45944e-18
6.65023e-18
5.03381e-18
4.20344e-18
3.78153e-18
3.56209e-18
3.16644e-18
2.90408e-18
2.49053e-18
2.64124e-18
2.2173e-18
2.50874e-18
2.4662e-18
1.88613e-18
1.68829e-18
2.00146e-18
2.11899e-18
2.25132e-18
2.1768e-18
2.24519e-18
2.22197e-18
2.28481e-18
2.36651e-18
1.98003e-18
3.25316e-18
-2.57803e-19
5.7118e-18
5.10014e-19
-1.30634e-18
3.09186e-17
-1.08094e-17
-1.08719e-16
8.50509e-17
4.26789e-17
-1.48611e-16
-5.23469e-16
-1.13095e-16
6.41264e-16
9.31195e-16
1.19353e-15
6.48191e-16
1.35149e-16
1.8147e-16
-9.41579e-16
7.84487e-17
-1.13739e-15
-1.37099e-15
6.41462e-16
-5.58755e-16
-6.71879e-16
1.92265e-16
2.88031e-16
-1.09074e-16
-2.28595e-16
-1.42426e-16
-7.11444e-17
-2.84839e-17
-7.53891e-18
-9.58614e-18
-9.31034e-18
-7.25638e-18
-9.45865e-19
2.91645e-19
2.32853e-19
5.44224e-19
5.443e-19
5.41323e-19
5.32204e-19
5.54416e-19
5.11007e-19
5.91248e-19
4.78791e-19
5.313e-19
4.95407e-19
5.87324e-19
5.03816e-19
5.65277e-19
5.06669e-19
5.426e-19
5.33765e-19
5.53576e-19
5.471e-19
5.75162e-19
5.62008e-19
5.7799e-19
6.0053e-19
5.95032e-19
5.93746e-19
6.02459e-19
5.95798e-19
6.12571e-19
5.89792e-19
6.21073e-19
6.1376e-19
6.28335e-19
6.26428e-19
6.28008e-19
6.32608e-19
6.31926e-19
6.33432e-19
6.30615e-19
6.30821e-19
6.30359e-19
6.29903e-19
6.34026e-19
6.25197e-19
5.87838e-19
6.75578e-19
9.69105e-19
3.704e-18
1.47167e-17
7.20539e-17
4.78195e-17
3.4492e-17
2.56647e-17
2.09528e-17
1.7662e-17
1.4122e-17
1.09511e-17
8.25957e-18
6.14367e-18
4.49789e-18
3.45126e-18
3.781e-18
3.66595e-18
3.29063e-18
3.14695e-18
2.1455e-18
2.28748e-18
2.47723e-18
2.05908e-18
1.90533e-18
1.2685e-18
5.79846e-19
1.11972e-18
1.80925e-18
1.92903e-18
2.01059e-18
2.03427e-18
2.00105e-18
2.15337e-18
1.84925e-18
2.72089e-18
5.93201e-19
4.68924e-18
1.91399e-18
-6.1249e-18
5.22196e-17
-1.32392e-16
1.21343e-16
2.82324e-17
-3.22985e-16
9.15953e-17
7.08025e-16
7.80097e-16
-3.15842e-16
-1.19522e-15
-1.65733e-15
-1.33599e-15
-1.16307e-15
-8.09786e-16
-4.04243e-16
-8.67058e-16
8.18167e-16
-8.70864e-16
3.61051e-16
1.43233e-15
-3.87556e-16
8.32898e-18
9.72618e-16
6.14174e-16
-1.37398e-16
-2.54048e-16
-1.48724e-16
-7.97423e-17
-3.26937e-17
-1.18294e-17
-1.18048e-17
-1.02799e-17
-6.28812e-18
-2.05514e-18
3.82506e-19
2.22323e-19
6.07699e-19
6.12373e-19
6.11583e-19
5.99418e-19
6.00024e-19
6.24208e-19
6.21754e-19
6.42181e-19
6.24547e-19
6.56692e-19
6.1189e-19
6.51314e-19
6.46488e-19
6.45997e-19
6.80195e-19
6.70208e-19
6.56709e-19
6.84447e-19
7.26899e-19
7.11118e-19
7.41145e-19
7.12941e-19
7.13187e-19
7.07247e-19
7.07208e-19
7.22316e-19
7.08309e-19
7.14899e-19
6.97273e-19
6.95245e-19
6.88869e-19
6.93272e-19
6.78696e-19
6.86542e-19
6.79161e-19
6.8633e-19
6.82409e-19
6.84282e-19
6.81733e-19
6.81459e-19
6.78859e-19
6.68653e-19
6.94045e-19
7.77149e-19
1.41288e-18
6.72745e-18
3.22827e-17
4.79719e-17
4.43588e-17
3.32342e-17
2.36155e-17
1.93371e-17
1.59825e-17
1.33471e-17
1.1316e-17
5.6732e-18
2.52715e-18
5.71284e-19
1.75675e-19
1.34127e-18
2.21844e-18
2.6414e-18
2.20031e-18
1.57314e-18
1.07621e-18
5.91891e-19
-1.38987e-19
-6.51246e-19
-8.68758e-19
-1.49656e-18
-1.30443e-18
-1.01687e-20
7.34259e-19
9.19007e-19
9.1815e-19
8.39889e-19
3.78312e-19
1.29323e-18
-1.90135e-18
5.43373e-18
-5.68853e-18
5.46402e-18
2.40289e-18
-2.73137e-17
5.18162e-17
-2.12151e-16
5.84688e-16
3.34658e-16
-1.30662e-15
-1.31304e-15
-6.58513e-16
7.35473e-16
1.70788e-15
1.48811e-15
1.43055e-15
8.12221e-16
1.01132e-15
8.20332e-16
1.77085e-16
1.26485e-15
-3.57622e-16
1.76017e-15
1.21169e-15
-8.91324e-16
5.90554e-16
1.1972e-15
-6.11224e-17
-5.79652e-16
-2.25576e-16
3.44571e-17
8.6124e-17
6.43945e-17
2.19772e-17
-5.24523e-19
-9.64718e-18
-7.3381e-18
-5.46986e-18
-5.29741e-19
1.20898e-18
6.46471e-19
6.50736e-19
6.78206e-19
6.80956e-19
6.47664e-19
7.18437e-19
5.6968e-19
6.5246e-19
6.43693e-19
7.43269e-19
6.09185e-19
7.64962e-19
6.19327e-19
7.57608e-19
7.33027e-19
7.5501e-19
7.47817e-19
7.29937e-19
7.46127e-19
7.47989e-19
7.39081e-19
7.06871e-19
7.08963e-19
7.02158e-19
7.11808e-19
7.00262e-19
7.09716e-19
7.04161e-19
6.94307e-19
6.93034e-19
6.96955e-19
6.93162e-19
6.88075e-19
6.82082e-19
6.82027e-19
6.78624e-19
6.79421e-19
6.74981e-19
6.74218e-19
6.71747e-19
6.72073e-19
6.68128e-19
6.69056e-19
6.84098e-19
1.14992e-18
4.44374e-18
2.25017e-17
4.02064e-17
4.44025e-17
3.89748e-17
2.82522e-17
2.12062e-17
1.5074e-17
1.16833e-17
8.77176e-18
4.3297e-18
9.15259e-19
-7.88503e-19
-1.011e-20
2.23811e-18
4.34163e-18
5.29491e-18
4.22654e-18
3.09715e-18
1.40713e-18
2.347e-19
-3.73007e-19
-1.17093e-18
-1.00485e-18
-1.33821e-18
-5.94921e-19
1.44709e-18
2.71181e-18
3.27347e-18
2.73638e-18
1.96073e-18
1.88214e-18
-4.16219e-19
2.67262e-18
-1.39573e-18
-4.80145e-18
1.74544e-17
-7.68769e-17
8.97293e-17
2.60651e-16
-9.63982e-16
-1.27269e-15
1.38912e-15
3.12733e-15
1.90034e-15
9.74527e-17
-7.65772e-16
-1.03385e-15
-9.55789e-16
-3.76249e-16
-6.45213e-16
1.76426e-16
-1.70954e-16
-1.42424e-16
3.39461e-16
-9.96263e-16
9.42445e-16
-7.82029e-16
-1.41974e-15
1.08575e-15
3.08287e-16
-9.96283e-16
-5.69776e-16
7.18277e-17
3.04074e-16
3.00808e-16
1.80823e-16
7.51864e-17
1.12861e-17
-7.97528e-18
-8.52408e-18
-6.4129e-18
-1.67218e-18
6.49716e-19
6.54917e-19
6.49094e-19
6.23465e-19
6.2803e-19
6.24602e-19
6.43335e-19
6.84901e-19
7.42463e-19
7.08024e-19
6.2845e-19
7.64837e-19
7.01463e-19
7.39828e-19
7.37278e-19
7.30093e-19
7.54906e-19
7.80253e-19
7.93707e-19
7.25801e-19
7.34961e-19
7.07446e-19
7.58836e-19
7.33532e-19
7.55715e-19
7.618e-19
7.49013e-19
7.36505e-19
7.04824e-19
7.02793e-19
6.86148e-19
6.88168e-19
6.72928e-19
6.661e-19
6.7377e-19
6.51215e-19
6.6268e-19
6.42257e-19
6.46226e-19
6.46749e-19
6.38463e-19
6.36492e-19
6.33746e-19
6.37755e-19
6.80193e-19
1.07915e-18
4.9321e-18
1.80602e-17
2.69425e-17
3.5215e-17
4.44655e-17
3.96455e-17
2.70365e-17
1.57351e-17
1.05892e-17
8.17624e-18
3.66457e-18
1.44531e-19
-1.06125e-18
1.46412e-18
5.148e-18
8.7122e-18
8.70055e-18
8.6356e-18
5.56863e-18
1.61197e-18
5.82755e-19
-1.13907e-18
-1.44959e-18
-7.92022e-19
-8.37738e-19
1.72724e-18
4.1554e-18
5.46615e-18
5.95471e-18
4.77198e-18
3.8831e-18
1.69128e-18
4.34215e-18
-2.57184e-18
1.1993e-19
2.71524e-17
-1.06236e-16
5.64608e-16
-1.39642e-15
6.91539e-16
2.75317e-15
-1.3203e-15
-2.58506e-15
-3.42958e-15
-1.55411e-15
-1.62085e-16
5.20341e-16
2.14107e-16
-4.4281e-16
-1.97657e-16
-8.70064e-16
-2.36637e-16
-8.43321e-16
-4.25623e-16
-5.15603e-16
-1.25312e-15
2.23057e-16
-1.84194e-15
-6.02624e-16
1.16518e-15
-7.10466e-16
-1.03751e-15
-5.34584e-17
4.4946e-16
4.85935e-16
3.26319e-16
1.27991e-16
3.47485e-17
-9.75966e-19
-8.31104e-18
-7.19947e-18
-7.56038e-18
-2.62182e-18
-1.63568e-18
7.12457e-19
6.87175e-19
6.75521e-19
6.90244e-19
6.89683e-19
7.96835e-19
7.39521e-19
8.80678e-19
7.96214e-19
8.18765e-19
7.7221e-19
6.6765e-19
8.49348e-19
7.25842e-19
7.72746e-19
7.19628e-19
7.57344e-19
6.76004e-19
6.43833e-19
6.80766e-19
6.71478e-19
6.85575e-19
6.45523e-19
6.93907e-19
6.49138e-19
6.56653e-19
6.07764e-19
6.21755e-19
6.2227e-19
6.1559e-19
6.06357e-19
5.9601e-19
6.09362e-19
5.93291e-19
5.86978e-19
5.81801e-19
5.78687e-19
5.72154e-19
5.69101e-19
5.61621e-19
5.62901e-19
5.59376e-19
5.66837e-19
6.4579e-19
1.06898e-18
7.07617e-18
1.08441e-17
1.9891e-17
2.73379e-17
4.29156e-17
4.69677e-17
4.1122e-17
3.21384e-17
2.79109e-17
8.78165e-18
5.78969e-18
4.44764e-21
-4.38233e-19
2.80102e-18
7.1814e-18
1.09799e-17
1.1767e-17
1.03958e-17
6.05576e-18
6.36291e-20
-2.02729e-18
-3.228e-18
-3.64991e-18
-2.31388e-18
3.80498e-19
3.94984e-18
6.95521e-18
9.54307e-18
8.09233e-18
5.80471e-18
3.45455e-18
3.00664e-18
-1.00346e-18
4.54439e-18
4.80507e-18
1.7288e-17
-1.65975e-18
7.32859e-16
-4.97049e-16
-3.52911e-15
-1.64783e-15
4.50644e-15
3.8066e-15
3.36309e-15
2.91031e-15
1.18566e-15
1.52753e-15
1.91001e-15
1.66101e-15
1.17521e-15
5.33648e-16
9.28971e-16
5.73931e-17
8.37819e-16
2.53055e-16
-1.50684e-16
8.09512e-16
-1.35236e-15
5.71942e-16
7.91216e-16
-1.18142e-15
-4.47261e-16
4.39758e-16
4.53951e-16
2.91863e-16
8.20819e-17
-6.05265e-17
-6.9659e-17
-3.88412e-17
-1.63282e-17
-7.47733e-18
-8.66458e-18
-5.20035e-18
1.79152e-18
7.67836e-19
8.11114e-19
7.97479e-19
7.85145e-19
7.60579e-19
6.72164e-19
6.55339e-19
6.77959e-19
5.80894e-19
7.82742e-19
5.73554e-19
7.8043e-19
5.87579e-19
7.41638e-19
5.77609e-19
6.79694e-19
5.54224e-19
6.80358e-19
6.4829e-19
6.0666e-19
5.49078e-19
5.86823e-19
5.70419e-19
5.85815e-19
5.53026e-19
5.50775e-19
5.60564e-19
5.62993e-19
5.55055e-19
5.41465e-19
5.50137e-19
5.34366e-19
5.18413e-19
5.16413e-19
5.08928e-19
5.04597e-19
5.00662e-19
4.86329e-19
4.84169e-19
4.74128e-19
4.73627e-19
4.72731e-19
4.92593e-19
6.47072e-19
8.98297e-19
8.00992e-18
1.04048e-18
1.38964e-17
2.00456e-17
3.85334e-17
3.87682e-17
6.37339e-17
6.20593e-17
2.81087e-17
1.81379e-17
1.1872e-17
7.93966e-18
5.95827e-18
9.08545e-18
9.25875e-18
1.22321e-17
1.38076e-17
1.15558e-17
5.89568e-18
1.63395e-18
-6.70595e-19
-2.38573e-18
1.9247e-18
4.4753e-18
6.95572e-18
8.51806e-18
9.38513e-18
1.02884e-17
9.4698e-18
6.28602e-18
4.4025e-18
6.09481e-18
-7.38011e-18
4.03803e-17
-8.4728e-17
3.25242e-16
-1.39084e-15
-6.05449e-16
9.24531e-15
4.33187e-15
7.68046e-17
-4.0745e-15
-6.27159e-15
-5.28914e-15
-3.87597e-15
-2.23293e-15
-2.14692e-15
-1.64686e-15
-1.03369e-15
-2.89958e-17
-2.00742e-16
4.11179e-16
-5.76984e-17
8.03352e-16
2.27011e-16
4.66818e-16
8.55228e-16
-7.27513e-16
1.37398e-15
1.57504e-16
-1.00118e-15
3.71679e-16
5.20807e-16
1.38426e-16
-2.5109e-17
-1.63635e-16
-2.07263e-16
-1.48789e-16
-8.02988e-17
-3.27168e-17
-1.40048e-17
-8.71558e-18
-4.48765e-18
-4.49523e-18
6.93222e-19
6.74077e-19
7.02122e-19
7.09689e-19
7.94812e-19
6.96226e-19
8.86411e-19
6.64215e-19
8.43241e-19
6.54489e-19
7.7961e-19
7.29676e-19
6.53696e-19
6.84645e-19
5.89276e-19
6.70725e-19
5.45704e-19
7.03024e-19
5.84862e-19
7.03e-19
5.98705e-19
6.68567e-19
6.13712e-19
5.95562e-19
5.58276e-19
5.88664e-19
5.47864e-19
5.39451e-19
5.19601e-19
5.03645e-19
5.00517e-19
4.70212e-19
4.41262e-19
4.4687e-19
4.17861e-19
4.05368e-19
4.02917e-19
3.99033e-19
3.96079e-19
3.89301e-19
3.86502e-19
3.90737e-19
4.195e-19
7.10871e-19
1.72614e-18
5.35187e-18
-1.82139e-18
8.81543e-18
1.14347e-17
3.50592e-17
1.99341e-17
6.03465e-17
4.89486e-17
9.26558e-18
3.89878e-17
3.94286e-17
2.48716e-17
5.15049e-18
1.36795e-18
-5.71446e-18
1.57263e-20
8.71421e-18
9.0748e-18
-5.93546e-20
6.1182e-18
4.51322e-18
-1.08563e-18
1.15453e-17
2.31793e-17
2.19138e-17
1.42519e-17
1.12719e-17
8.27526e-18
7.7974e-18
8.39375e-18
3.05334e-18
2.03327e-17
-1.38268e-17
4.06582e-17
-1.36292e-18
-1.38563e-16
5.11522e-15
-1.2411e-14
-1.38367e-14
-7.62103e-15
-2.49404e-15
2.37617e-15
4.17788e-15
2.7464e-15
1.63233e-15
-2.40712e-16
-4.15558e-16
-8.94925e-16
-1.07811e-15
-9.62743e-16
-6.8629e-16
-4.21715e-16
-7.30784e-16
-3.00949e-18
-4.47927e-16
2.95989e-16
5.35057e-16
-2.56206e-16
1.52595e-15
-5.597e-16
-5.33091e-16
7.51999e-16
3.12694e-16
-5.32693e-17
-1.20108e-16
-2.25444e-16
-2.47153e-16
-1.7928e-16
-9.78574e-17
-4.21922e-17
-1.67546e-17
-7.69261e-18
-4.65526e-18
-6.21907e-18
7.48966e-19
7.51145e-19
7.03581e-19
6.66281e-19
6.57153e-19
7.73461e-19
7.21217e-19
6.72716e-19
7.28077e-19
5.53489e-19
7.4813e-19
4.50973e-19
7.56005e-19
4.72675e-19
6.75874e-19
4.53639e-19
6.46314e-19
4.80164e-19
5.89519e-19
4.36507e-19
4.82765e-19
4.48393e-19
3.84724e-19
3.79336e-19
3.84008e-19
3.33236e-19
2.87553e-19
2.81815e-19
2.60075e-19
2.92311e-19
2.44523e-19
2.61279e-19
2.86366e-19
2.65882e-19
2.85568e-19
2.92222e-19
2.96562e-19
3.07491e-19
3.10209e-19
3.18157e-19
3.25951e-19
3.30383e-19
3.80905e-19
9.64596e-19
8.42742e-18
-1.35788e-18
-4.79745e-18
1.56728e-19
-1.61795e-17
6.80332e-17
-6.33109e-17
5.31282e-17
-4.16861e-17
-6.07274e-17
1.17545e-16
-4.45571e-17
-1.31484e-16
-9.86158e-17
-5.26642e-17
-2.79006e-17
-2.18457e-18
1.64665e-17
-1.14875e-17
-1.49885e-17
-1.50302e-17
-5.68449e-17
-1.68363e-17
3.72423e-17
2.25866e-17
2.16068e-17
1.5518e-17
2.58995e-17
4.04823e-17
4.37875e-17
4.60678e-17
3.86315e-17
6.09208e-17
-5.1725e-17
-6.17472e-17
3.06182e-16
-1.08006e-14
1.57736e-14
2.48992e-14
2.18087e-14
1.13509e-14
6.23177e-15
3.23811e-15
2.10302e-15
2.35867e-15
3.53218e-15
3.32883e-15
2.59548e-15
1.3441e-15
8.08783e-16
1.40917e-16
-1.18525e-16
-1.39335e-16
-5.66608e-16
-9.94675e-17
-7.7665e-16
2.73466e-17
-1.12377e-16
-2.14909e-16
1.13841e-15
-1.03486e-15
-9.86447e-18
9.01157e-16
6.11454e-17
-2.07057e-16
-1.62405e-16
-2.59541e-16
-2.61973e-16
-1.73983e-16
-8.06569e-17
-2.79767e-17
-9.66747e-18
-7.13655e-18
-4.57853e-18
-5.20619e-18
7.46323e-19
7.61758e-19
7.84803e-19
7.61287e-19
7.26836e-19
7.90006e-19
6.11164e-19
6.69517e-19
3.86389e-19
7.29517e-19
4.97305e-19
7.37762e-19
5.62211e-19
5.96122e-19
6.81294e-19
5.07682e-19
6.80316e-19
3.54834e-19
4.64167e-19
2.9e-19
4.25733e-19
1.58295e-19
3.65946e-19
2.11198e-19
2.62693e-19
2.14355e-19
2.87191e-19
2.4406e-19
2.92725e-19
2.79567e-19
2.67956e-19
3.16192e-19
3.00433e-19
3.27426e-19
3.10353e-19
3.40177e-19
3.46467e-19
3.5217e-19
3.59032e-19
3.58529e-19
3.62221e-19
3.5684e-19
3.93313e-19
8.30359e-19
2.36882e-17
-1.17884e-17
-1.41619e-17
-2.81967e-17
-1.26939e-16
1.69991e-16
-2.53374e-16
1.17819e-16
-2.61659e-16
-2.25048e-16
4.10296e-16
-1.06708e-15
-4.14579e-16
1.01409e-16
1.8556e-16
4.59169e-18
-8.52702e-17
-2.50346e-16
-2.68546e-16
-2.38596e-16
-2.16902e-16
-1.49754e-16
2.83703e-17
1.3975e-16
1.69882e-16
1.88254e-16
1.75934e-16
1.83102e-16
1.34607e-16
7.56159e-17
4.01259e-17
9.2824e-17
-2.20418e-16
-1.45251e-16
-2.62152e-15
1.84848e-14
-7.11786e-15
-2.93017e-14
-2.73543e-14
-1.75276e-14
-1.06586e-14
-6.42368e-15
-5.59596e-15
-5.00633e-15
-3.72795e-15
-2.30976e-15
-6.1732e-16
5.92164e-16
6.68701e-16
8.1115e-16
7.15018e-16
6.57192e-16
4.04661e-16
7.34044e-17
-5.89238e-18
-6.92005e-16
-1.9522e-16
-7.30883e-16
-3.60994e-16
3.11254e-16
-1.55392e-15
4.90614e-16
7.15787e-16
-4.48114e-16
-2.89574e-16
-1.04489e-16
-1.96998e-16
-1.67719e-16
-8.10175e-17
-1.83861e-17
1.17446e-18
-1.05257e-19
-4.44576e-18
-6.01157e-18
-8.34165e-18
4.47017e-19
5.10553e-19
5.74741e-19
6.67025e-19
7.96368e-19
3.53441e-19
6.58413e-19
3.67611e-19
6.46372e-19
3.77065e-19
6.78141e-19