/*--------------------------------*- C++ -*----------------------------------*\
| =========                 |                                                 |
| \\      /  F ield         | OpenFOAM: The Open Source CFD Toolbox           |
|  \\    /   O peration     | Version:  2.2.x                                 |
|   \\  /    A nd           | Web:      www.OpenFOAM.org                      |
|    \\/     M anipulation  |                                                 |
\*---------------------------------------------------------------------------*/
FoamFile
{
    version     2.0;
    format      ascii;
    class       volScalarField;
    location    "2.05";
    object      T;
}
// * * * * * * * * * * * * * * * * * * * * * * * * * * * * * * * * * * * * * //

dimensions      [0 0 0 1 0 0 0];

internalField   nonuniform List<scalar> 
14161
(
0.957627
0.966559
0.963897
0.96409
0.9634
0.962802
0.96207
0.961326
0.960572
0.959858
0.959116
0.958409
0.957751
0.95715
0.956602
0.956098
0.955693
0.955292
0.955029
0.954857
0.954858
0.954875
0.955001
0.955211
0.955537
0.956012
0.95644
0.957034
0.957863
0.958736
0.959513
0.960482
0.961663
0.962973
0.964247
0.965496
0.96649
0.967655
0.96906
0.969704
0.969834
0.968839
0.966533
0.961856
0.957709
0.95476
1.29938
2.48084
2.53844
2.53917
2.53385
2.53945
2.53775
2.53832
2.53597
2.53142
2.52666
2.52423
2.51981
2.51393
2.50528
2.49902
2.49397
2.48885
2.48248
2.4763
2.46996
2.46191
2.45853
2.4552
2.45137
2.44725
2.44305
2.4367
2.42656
2.41446
2.40345
2.39019
2.38018
2.37735
2.38075
2.39011
2.40221
2.42742
2.44937
2.47061
2.48574
2.49583
2.50997
2.52261
2.53058
2.536
2.54285
2.53907
2.53771
2.52889
2.54022
2.5726
2.6075
2.64743
2.6879
2.73718
2.77677
2.82173
2.86362
2.90358
2.94166
2.97454
3.00536
3.03293
3.05721
3.0784
3.09732
3.11269
3.12621
3.13404
3.14493
3.14423
3.13656
0.957683
0.966625
0.963899
0.964079
0.963413
0.962808
0.962053
0.96133
0.960596
0.959889
0.959112
0.958408
0.95776
0.957157
0.956612
0.956109
0.955704
0.955307
0.955046
0.954875
0.954867
0.954884
0.955008
0.955209
0.955561
0.955986
0.956466
0.957071
0.957902
0.958785
0.959582
0.96054
0.961738
0.963048
0.96423
0.965347
0.966152
0.96693
0.967792
0.968018
0.967417
0.965065
0.959963
0.950792
0.930604
0.973426
1.82935
2.90999
2.95109
2.93993
2.91194
2.89914
2.87606
2.86374
2.84696
2.82876
2.81285
2.79737
2.78077
2.76376
2.74528
2.73127
2.71789
2.70644
2.69535
2.68454
2.67527
2.66384
2.65005
2.63781
2.62715
2.61819
2.60985
2.6038
2.59779
2.5864
2.5674
2.54848
2.53473
2.53115
2.53689
2.56448
2.593
2.61981
2.63096
2.63351
2.64127
2.66981
2.70991
2.74792
2.79009
2.81687
2.83372
2.85998
2.88489
2.91856
2.95862
2.99718
3.0312
3.05366
3.06973
3.08928
3.11071
3.13193
3.14618
3.15318
3.15859
3.16324
3.16611
3.16811
3.16718
3.1652
3.16393
3.16096
3.16196
3.15785
3.15749
3.14839
3.13394
0.957755
0.966625
0.963958
0.964146
0.963449
0.962848
0.962114
0.961375
0.960628
0.959889
0.959152
0.958451
0.957798
0.957198
0.956637
0.956126
0.955714
0.955312
0.955047
0.954885
0.954876
0.95489
0.955011
0.955225
0.955543
0.95597
0.956414
0.957018
0.957806
0.958666
0.959415
0.960336
0.961606
0.962896
0.964241
0.965744
0.966981
0.968559
0.970515
0.972724
0.975039
0.978585
0.98225
0.989315
1.00207
1.05436
2.35731
3.00333
2.98716
3.00365
2.97048
2.95846
2.93238
2.91735
2.89605
2.87285
2.85396
2.83373
2.81439
2.79601
2.77805
2.7597
2.74469
2.72891
2.71303
2.69752
2.68186
2.67074
2.66421
2.66167
2.65546
2.6477
2.63371
2.61621
2.59996
2.58753
2.57837
2.5725
2.56677
2.55983
2.5361
2.53713
2.57994
2.6239
2.67575
2.75205
2.80044
2.82522
2.83043
2.87364
2.94168
3.02493
3.09926
3.16286
3.20441
3.21323
3.2153
3.23026
3.24453
3.25986
3.27287
3.27668
3.28067
3.28581
3.28627
3.28508
3.28109
3.27394
3.26411
3.256
3.24029
3.22421
3.20966
3.19608
3.18287
3.17074
3.16108
3.14484
3.12771
0.957805
0.966652
0.963979
0.964164
0.96346
0.962862
0.962129
0.961383
0.960627
0.9599
0.959185
0.958454
0.957799
0.9572
0.956635
0.956151
0.955732
0.955328
0.955047
0.954871
0.954856
0.954867
0.954997
0.955201
0.955537
0.955984
0.956407
0.95705
0.957858
0.958761
0.959569
0.960543
0.961713
0.963012
0.964137
0.965149
0.966048
0.96672
0.967587
0.968246
0.968321
0.967848
0.96797
0.966266
0.965801
0.974858
2.34338
2.98166
2.99805
3.01156
2.98169
2.97078
2.94363
2.92845
2.90575
2.88103
2.86298
2.84016
2.8208
2.80169
2.78442
2.76609
2.74836
2.73374
2.72456
2.71341
2.70462
2.69486
2.68222
2.66556
2.6566
2.6514
2.65013
2.6476
2.64374
2.63191
2.60734
2.57829
2.56299
2.56055
2.58433
2.63796
2.6816
2.70838
2.69852
2.68539
2.738
2.8313
2.93579
3.05206
3.10878
3.13716
3.13893
3.15635
3.1853
3.21606
3.24386
3.25684
3.26649
3.27497
3.28679
3.30101
3.31306
3.31581
3.31534
3.31341
3.30659
3.29911
3.28547
3.27151
3.25576
3.2363
3.21558
3.19724
3.18106
3.1646
3.1551
3.13721
3.12314
0.957905
0.966699
0.964015
0.96419
0.963492
0.962898
0.96217
0.961419
0.960664
0.959919
0.95919
0.95847
0.957821
0.95724
0.956684
0.956179
0.955724
0.955309
0.955014
0.95484
0.954822
0.954835
0.954938
0.955135
0.955477
0.955875
0.956291
0.956889
0.957601
0.958452
0.959208
0.960119
0.961224
0.962602
0.96403
0.965626
0.967473
0.969055
0.971312
0.974404
0.978863
0.983166
0.990146
0.994436
0.997128
0.981047
2.39278
2.98723
2.98949
3.00883
2.978
2.96656
2.94111
2.92328
2.89872
2.87539
2.85537
2.83097
2.81347
2.79269
2.77831
2.75928
2.74647
2.73013
2.71247
2.69586
2.68114
2.66976
2.66553
2.6623
2.65569
2.64858
2.63387
2.61556
2.59717
2.58545
2.57794
2.57879
2.58847
2.58581
2.57461
2.55399
2.5829
2.63039
2.72762
2.83123
2.88895
2.93312
2.9606
2.95719
3.01463
3.0768
3.12502
3.17568
3.21429
3.22162
3.23351
3.24494
3.2567
3.27002
3.28274
3.29008
3.29954
3.30635
3.3136
3.3152
3.3106
3.30256
3.28904
3.27357
3.25407
3.23252
3.2106
3.19166
3.17496
3.15803
3.14605
3.12635
3.11948
0.957952
0.96672
0.964031
0.964215
0.963505
0.962901
0.962175
0.961438
0.960677
0.959927
0.959201
0.958468
0.957814
0.957213
0.956655
0.956173
0.955723
0.95531
0.955006
0.95484
0.954794
0.954793
0.954897
0.955094
0.955418
0.95584
0.956272
0.956831
0.95765
0.958538
0.959415
0.960357
0.961432
0.962754
0.963881
0.96498
0.965968
0.967016
0.967936
0.969129
0.97076
0.97166
0.974636
0.980174
0.98777
0.992358
2.52163
3.02127
3.02435
3.04214
2.9925
2.98155
2.95429
2.9344
2.90307
2.8771
2.84737
2.81931
2.80027
2.76996
2.75345
2.72723
2.71177
2.69064
2.67676
2.66563
2.65397
2.64638
2.63637
2.61958
2.60559
2.59731
2.5898
2.59096
2.59413
2.58851
2.5696
2.5335
2.50619
2.50188
2.51694
2.59116
2.64808
2.71503
2.74228
2.73274
2.75784
2.84245
2.90947
2.96418
3.03556
3.05345
3.08875
3.10703
3.13323
3.17258
3.21619
3.23843
3.25279
3.25698
3.26439
3.27851
3.29473
3.30376
3.31312
3.31461
3.31095
3.30244
3.28891
3.27188
3.25045
3.22663
3.20306
3.18286
3.16547
3.14765
3.13428
3.11759
3.11942
0.958063
0.966766
0.964064
0.964236
0.963544
0.96293
0.962185
0.961436
0.960674
0.959958
0.959235
0.958498
0.957838
0.957207
0.956633
0.956138
0.955684
0.955269
0.954977
0.954792
0.954755
0.954737
0.954772
0.954948
0.955236
0.955632
0.956009
0.956506
0.957218
0.957954
0.958787
0.959602
0.960592
0.961912
0.963301
0.964859
0.966591
0.968627
0.970853
0.973894
0.978493
0.984326
0.990815
1.00124
1.01668
1.02066
2.56568
3.06581
3.02956
3.0464
2.97801
2.96011
2.91571
2.88963
2.84822
2.81966
2.78062
2.75742
2.73704
2.70273
2.68378
2.65372
2.64137
2.62015
2.61033
2.59099
2.57515
2.55942
2.55468
2.54759
2.54302
2.53991
2.53139
2.51152
2.48856
2.47731
2.47341
2.47935
2.49256
2.49273
2.48133
2.47642
2.47256
2.55994
2.64249
2.77291
2.81154
2.87099
2.88768
2.89587
2.93215
2.95914
3.01562
3.05652
3.11134
3.14168
3.17316
3.20038
3.2249
3.24491
3.26087
3.26916
3.28015
3.29113
3.30509
3.3128
3.31488
3.30484
3.28719
3.26732
3.24418
3.2167
3.19235
3.1698
3.15167
3.13448
3.12548
3.11857
3.12324
0.958108
0.966784
0.964076
0.964257
0.963553
0.962932
0.962202
0.961454
0.960682
0.95994
0.959218
0.958508
0.957821
0.957182
0.956604
0.956103
0.955643
0.955218
0.954935
0.95473
0.954693
0.954662
0.954684
0.954854
0.955129
0.95555
0.955929
0.956449
0.957137
0.958007
0.958949
0.959834
0.960847
0.962066
0.963263
0.964479
0.965748
0.966862
0.967663
0.968351
0.968218
0.968604
0.967773
0.968731
0.957927
1.00342
2.04699
2.95556
2.95509
2.95618
2.87501
2.84437
2.79765
2.77045
2.7207
2.69726
2.65553
2.64197
2.6226
2.58684
2.57925
2.551
2.54278
2.52032
2.51779
2.49911
2.49726
2.48099
2.47275
2.46382
2.45234
2.44187
2.43584
2.43421
2.43585
2.43317
2.42425
2.40456
2.36611
2.36534
2.35524
2.43442
2.46105
2.55741
2.59518
2.69671
2.69358
2.74092
2.78746
2.83348
2.87255
2.92562
2.94435
2.98961
3.02391
3.07191
3.11542
3.16438
3.19901
3.22165
3.23538
3.24897
3.26582
3.28225
3.29954
3.30907
3.31334
3.30434
3.28717
3.26375
3.23677
3.20816
3.1812
3.161
3.14319
3.1311
3.12494
3.12376
3.13035
0.958212
0.966825
0.964104
0.964274
0.963568
0.962942
0.96222
0.961478
0.960702
0.959945
0.959201
0.958486
0.957809
0.957175
0.956593
0.956067
0.955601
0.955158
0.954833
0.954603
0.95455
0.954488
0.95449
0.954623
0.95485
0.955197
0.955568
0.95598
0.9565
0.95725
0.958018
0.958781
0.95964
0.960678
0.962036
0.96346
0.964809
0.966114
0.967551
0.969223
0.970389
0.970627
0.968982
0.965914
0.960547
0.975255
1.36269
2.68184
2.80689
2.73583
2.68562
2.67019
2.6458
2.63823
2.59629
2.59672
2.5605
2.56701
2.53425
2.51903
2.51524
2.48708
2.48056
2.4609
2.46184
2.44223
2.43959
2.4218
2.42103
2.40806
2.40572
2.40163
2.39689
2.38862
2.37634
2.36341
2.35191
2.3479
2.34069
2.34505
2.32747
2.37524
2.35763
2.45671
2.52615
2.58517
2.64356
2.65193
2.69906
2.75054
2.76686
2.80923
2.84334
2.90348
2.95348
3.01418
3.05832
3.10945
3.14884
3.18556
3.2146
3.23222
3.24797
3.26373
3.28214
3.29658
3.31046
3.30696
3.28846
3.26281
3.23446
3.20655
3.17964
3.16087
3.14348
3.13353
3.12823
3.13338
3.13882
0.958255
0.966839
0.964112
0.964282
0.963581
0.96295
0.96221
0.961461
0.960688
0.959924
0.959194
0.95847
0.95778
0.957133
0.956546
0.956029
0.955542
0.955075
0.954738
0.954499
0.954422
0.954356
0.954342
0.954449
0.954659
0.955016
0.955372
0.95581
0.956385
0.957214
0.958104
0.958945
0.959909
0.96103
0.96234
0.963645
0.964842
0.965861
0.967339
0.969223
0.970842
0.971888
0.97135
0.969148
0.964576
0.966439
0.97298
2.35975
2.69229
2.62936
2.60896
2.58157
2.55887
2.55433
2.53308
2.5374
2.50602
2.51446
2.47855
2.48681
2.45234
2.45922
2.4332
2.43616
2.41557
2.41609
2.39921
2.39821
2.38435
2.38026
2.37321
2.36919
2.36223
2.35559
2.3489
2.3425
2.33522
2.32068
2.30359
2.28174
2.30407
2.2849
2.40106
2.43954
2.54955
2.50788
2.55658
2.5944
2.61385
2.64139
2.67422
2.71115
2.77031
2.80791
2.86143
2.90648
2.97751
3.04209
3.10452
3.15161
3.18419
3.2078
3.22624
3.24383
3.26428
3.28108
3.29807
3.3013
3.29048
3.2662
3.23622
3.20927
3.17999
3.16317
3.14628
3.13942
3.1348
3.14333
3.14391
0.958345
0.966875
0.964136
0.964294
0.963575
0.962927
0.96222
0.961475
0.960699
0.95993
0.959175
0.958462
0.957762
0.957107
0.956492
0.955948
0.955436
0.954973
0.954606
0.95434
0.954208
0.954125
0.954076
0.954082
0.954244
0.954504
0.954851
0.955164
0.95557
0.956217
0.956862
0.957503
0.958164
0.959105
0.960084
0.961023
0.961986
0.962954
0.96396
0.964968
0.965327
0.966357
0.968327
0.972129
0.973208
0.975292
1.07417
2.59633
2.75305
2.66046
2.6302
2.58434
2.55862
2.53309
2.5323
2.50617
2.51208
2.4772
2.48343
2.44949
2.45888
2.42834
2.43444
2.41441
2.41859
2.4022
2.40242
2.38648
2.3835
2.37319
2.37205
2.36633
2.36165
2.35647
2.35117
2.34125
2.33351
2.313
2.2984
2.27797
2.30762
2.29566
2.39298
2.45851
2.5332
2.4852
2.52874
2.5604
2.53988
2.54537
2.60314
2.63052
2.69516
2.72206
2.77609
2.81999
2.89705
2.96188
3.02981
3.09375
3.14791
3.18303
3.20599
3.22496
3.24422
3.26434
3.28163
3.29195
3.29247
3.27243
3.24221
3.21385
3.18333
3.16928
3.15269
3.14957
3.14466
3.14797
3.14604
0.958385
0.966885
0.964142
0.964297
0.963587
0.962957
0.962207
0.961452
0.960675
0.959904
0.959141
0.95842
0.957703
0.957035
0.95641
0.955869
0.95535
0.95486
0.954458
0.954178
0.954008
0.953912
0.95384
0.953813
0.953945
0.954173
0.954529
0.954857
0.955315
0.955938
0.956761
0.957564
0.958401
0.95942
0.960582
0.961823
0.963104
0.964468
0.966358
0.969008
0.971581
0.975495
0.981669
0.992826
1.00404
1.01065
1.14678
2.43148
2.63802
2.66176
2.59481
2.55618
2.52937
2.52587
2.49816
2.50819
2.47891
2.49939
2.46125
2.47427
2.4396
2.4494
2.42501
2.43206
2.41523
2.41989
2.40325
2.40125
2.38961
2.38451
2.38313
2.37639
2.3714
2.36333
2.3559
2.34724
2.34153
2.32442
2.30977
2.28792
2.32004
2.3247
2.43836
2.51399
2.46881
2.51714
2.54025
2.50706
2.46299
2.47834
2.54791
2.5636
2.59393
2.62754
2.70101
2.7537
2.82744
2.89556
2.96497
3.04596
3.10589
3.15056
3.18027
3.19945
3.22216
3.24284
3.26283
3.27722
3.28608
3.27615
3.25047
3.22082
3.18956
3.1768
3.16127
3.15843
3.15208
3.1496
3.14665
0.958457
0.966911
0.964154
0.964295
0.96358
0.962954
0.962202
0.961441
0.96066
0.959879
0.95911
0.958377
0.957654
0.956973
0.956332
0.95577
0.955212
0.954704
0.954276
0.953959
0.953726
0.953598
0.953473
0.95338
0.953401
0.953536
0.953776
0.954004
0.954296
0.954758
0.95527
0.955804
0.956295
0.956935
0.95759
0.958268
0.959005
0.959357
0.959869
0.960172
0.9612
0.960883
0.958341
0.951245
0.938374
0.968334
0.998568
2.18306
2.51314
2.5405
2.61789
2.56327
2.57847
2.54463
2.54743
2.53731
2.51945
2.5248
2.48983
2.49217
2.46137
2.46617
2.4443
2.45129
2.43394
2.43798
2.41975
2.42046
2.40591
2.4056
2.39884
2.39633
2.38915
2.38189
2.37544
2.37032
2.35843
2.34088
2.31135
2.3174
2.30993
2.4334
2.48873
2.54382
2.50425
2.55247
2.49521
2.46728
2.46697
2.50526
2.50739
2.48983
2.51092
2.54809
2.61226
2.67643
2.7471
2.82541
2.90593
2.98798
3.04612
3.1103
3.15498
3.18327
3.20453
3.22594
3.24538
3.25979
3.27015
3.26974
3.25471
3.22814
3.19891
3.18565
3.16724
3.16295
3.1562
3.14997
3.14554
0.958491
0.966914
0.964157
0.964293
0.963574
0.962937
0.962178
0.961408
0.960627
0.959845
0.959057
0.958308
0.95759
0.956891
0.956228
0.955651
0.955071
0.954549
0.954091
0.953745
0.953469
0.953303
0.953154
0.953022
0.952972
0.953059
0.953251
0.9535
0.953807
0.954251
0.954879
0.955484
0.956131
0.956952
0.957866
0.958822
0.959394
0.95973
0.960412
0.962554
0.965333
0.967362
0.971423
0.974449
0.973212
1.04081
1.27242
2.21565
2.37942
2.54773
2.64538
2.62258
2.64461
2.59271
2.59331
2.55287
2.56067
2.51649
2.5254
2.48554
2.48462
2.46064
2.44449
2.44295
2.42914
2.43164
2.41495
2.41233
2.40136
2.39942
2.39393
2.3913
2.38491
2.38033
2.37088
2.36443
2.34796
2.3348
2.31313
2.3193
2.34798
2.44347
2.56371
2.51921
2.54405
2.52143
2.51569
2.4577
2.49646
2.49676
2.47144
2.48265
2.51342
2.53013
2.54232
2.60022
2.65986
2.72918
2.81287
2.88677
2.97154
3.0615
3.12864
3.16984
3.19253
3.21303
3.23129
3.24705
3.25902
3.26514
3.25801
3.23799
3.21078
3.1916
3.17239
3.16551
3.15673
3.14851
3.14206
0.958538
0.966927
0.964159
0.964284
0.963559
0.962924
0.96216
0.961378
0.960594
0.959805
0.959012
0.958245
0.957508
0.956784
0.956106
0.955508
0.954903
0.954349
0.953856
0.953454
0.95312
0.952885
0.952673
0.952478
0.952358
0.952301
0.952359
0.952502
0.952633
0.952842
0.953177
0.953504
0.953742
0.954104
0.954559
0.955165
0.955625
0.955939
0.956174
0.958279
0.960043
0.960475
0.962152
0.967435
0.977355
1.06982
1.95274
2.16987
2.23831
2.33711
2.58092
2.561
2.60635
2.55268
2.55797
2.50359
2.52074
2.47838
2.49539
2.45183
2.46062
2.4194
2.4236
2.40494
2.41727
2.40058
2.40094
2.3871
2.38496
2.38077
2.37778
2.37425
2.36782
2.36246
2.35894
2.34782
2.33461
2.31516
2.31072
2.30471
2.40862
2.50596
2.56387
2.4807
2.52904
2.56007
2.5084
2.47094
2.45551
2.48675
2.48572
2.50544
2.48756
2.53168
2.55081
2.57931
2.64034
2.695
2.77189
2.84199
2.93326
3.0143
3.09278
3.14388
3.17267
3.19175
3.21152
3.2279
3.24148
3.25126
3.254
3.24619
3.22065
3.20169
3.17899
3.16505
3.15548
3.14569
3.1376
0.958563
0.966926
0.964158
0.964278
0.963546
0.962901
0.962126
0.961342
0.960539
0.959754
0.958948
0.958164
0.957416
0.95668
0.95598
0.955347
0.954731
0.95415
0.953618
0.953171
0.952784
0.952491
0.95223
0.951988
0.951809
0.951711
0.951675
0.951745
0.951868
0.952044
0.952346
0.952682
0.953048
0.953405
0.953759
0.953817
0.953853
0.954703
0.955335
0.95456
0.94915
0.945138
0.942056
0.939946
0.945007
0.967842
2.07408
2.15475
2.20241
2.22971
2.34123
2.44384
2.594
2.5304
2.59179
2.52628
2.54382
2.50068
2.51425
2.46618
2.4734
2.42804
2.43062
2.4098
2.42213
2.4069
2.40871
2.39312
2.39064
2.38538
2.38581
2.37996
2.37577
2.36986
2.36478
2.34854
2.33852
2.32468
2.31105
2.31962
2.49198
2.526
2.50775
2.53146
2.59345
2.51
2.47032
2.4621
2.51487
2.48198
2.45311
2.44441
2.46177
2.48691
2.50453
2.51436
2.57574
2.62837
2.70313
2.77975
2.8699
2.95394
3.04431
3.11524
3.15365
3.17119
3.1937
3.21045
3.22653
3.23667
3.24244
3.24075
3.22835
3.20949
3.18202
3.16745
3.15413
3.1415
3.132
0.958591
0.966927
0.964153
0.964261
0.963522
0.962877
0.962098
0.961303
0.960497
0.959699
0.95888
0.95808
0.95731
0.956563
0.955817
0.955149
0.954517
0.953888
0.953311
0.952812
0.952356
0.951977
0.951642
0.951323
0.951044
0.950833
0.950678
0.950562
0.950539
0.950494
0.950502
0.950471
0.950551
0.950551
0.95063
0.950713
0.950731
0.950904
0.951102
0.952041
0.952268
0.954468
0.95284
0.946315
1.01449
1.22859
2.22939
2.21797
2.22817
2.25076
2.27129
2.36782
2.44088
2.61319
2.54551
2.59536
2.53494
2.54877
2.49808
2.50697
2.45744
2.46107
2.42543
2.43276
2.41982
2.4217
2.41554
2.41034
2.40383
2.40179
2.40063
2.3979
2.39508
2.38606
2.37645
2.36285
2.35536
2.33943
2.34411
2.44259
2.56102
2.49617
2.56788
2.56172
2.50902
2.43318
2.46079
2.5258
2.54328
2.49997
2.46594
2.48186
2.5022
2.50589
2.50423
2.52444
2.55007
2.60175
2.66435
2.7465
2.83727
2.92485
3.00814
3.08341
3.13529
3.15846
3.18399
3.20172
3.21594
3.22709
3.23625
3.23377
3.2342
3.21404
3.18908
3.17028
3.1515
3.13953
3.12991
0.958602
0.96692
0.964147
0.964249
0.963502
0.962844
0.962058
0.961259
0.96043
0.959623
0.958798
0.957982
0.957191
0.956437
0.955657
0.954951
0.954287
0.953632
0.953
0.952444
0.95195
0.951488
0.951069
0.95068
0.950346
0.950062
0.949796
0.949609
0.949446
0.949389
0.949357
0.949328
0.94927
0.949237
0.949347
0.949378
0.949237
0.948774
0.948306
0.948468
0.947827
0.948495
0.948594
0.945991
1.04761
1.96503
2.24328
2.22908
2.22407
2.22658
2.24187
2.25412
2.39567
2.41483
2.60937
2.54568
2.5899
2.51992
2.53192
2.47286
2.47821
2.42872
2.43026
2.40613
2.42291
2.40756
2.40971
2.39759
2.3984
2.39299
2.3928
2.39148
2.39072
2.38518
2.38099
2.36288
2.35285
2.34159
2.4301
2.55151
2.56196
2.5892
2.63397
2.53814
2.47489
2.44248
2.49374
2.49616
2.47019
2.43691
2.45037
2.4848
2.47149
2.46375
2.45893
2.49146
2.50616
2.5506
2.60479
2.67803
2.77606
2.87334
2.96343
3.04653
3.11322
3.1451
3.17008
3.19022
3.20341
3.21412
3.22453
3.22469
3.2325
3.21775
3.19813
3.17219
3.14934
3.13834
3.12777
0.958617
0.966912
0.964132
0.964222
0.963469
0.962806
0.962014
0.961208
0.960373
0.959536
0.958715
0.957873
0.957057
0.956283
0.955479
0.954716
0.954019
0.953337
0.952633
0.951997
0.951453
0.950908
0.950364
0.949877
0.949457
0.94906
0.948644
0.948258
0.947949
0.947664
0.947438
0.947139
0.94663
0.946244
0.945826
0.945338
0.945082
0.944959
0.945013
0.944332
0.942687
0.939811
0.938737
0.949157
1.00814
2.17733
2.24187
2.23781
2.23885
2.24363
2.22122
2.20801
2.27194
2.31667
2.48042
2.50374
2.60037
2.51414
2.55595
2.46534
2.47724
2.41522
2.4242
2.39049
2.40533
2.39967
2.40013
2.38931
2.38673
2.38766
2.3865
2.38881
2.39115
2.38655
2.38002
2.37618
2.37777
2.44417
2.58397
2.55196
2.6304
2.58284
2.59064
2.5408
2.55161
2.55874
2.55042
2.50427
2.4701
2.46849
2.49659
2.50858
2.49219
2.47271
2.47972
2.4975
2.52579
2.54865
2.58865
2.64349
2.72428
2.80947
2.90905
3.00024
3.08485
3.12728
3.15315
3.17542
3.19071
3.20017
3.21014
3.21665
3.21989
3.21515
3.20569
3.17763
3.14823
3.13614
3.12434
0.958594
0.966885
0.964108
0.964195
0.963433
0.96276
0.961961
0.961146
0.9603
0.959441
0.958615
0.957756
0.956916
0.95611
0.955293
0.954477
0.95372
0.95301
0.952263
0.951556
0.950918
0.950323
0.949687
0.949089
0.948585
0.948121
0.947585
0.947056
0.946604
0.946167
0.945942
0.945647
0.945157
0.944759
0.944439
0.944191
0.944069
0.943792
0.9433
0.942016
0.942
0.939922
0.93529
0.997945
1.14771
2.26372
2.27528
2.27236
2.26386
2.24945
2.22984
2.24292
2.25393
2.24029
2.34821
2.40549
2.55936
2.4811
2.54688
2.44294
2.46915
2.40197
2.41115
2.38202
2.39873
2.39086
2.39053
2.38344
2.38127
2.38365
2.38461
2.39769
2.40773
2.40876
2.43403
2.48844
2.60619
2.64649
2.7619
2.63401
2.64669
2.56248
2.51195
2.49574
2.54223
2.5367
2.49469
2.45148
2.45041
2.47092
2.47915
2.46636
2.4484
2.45114
2.47311
2.47617
2.49057
2.51358
2.54812
2.60327
2.67902
2.7677
2.8701
2.96835
3.05704
3.1113
3.14008
3.16195
3.17977
3.18963
3.2016
3.21056
3.20887
3.2153
3.20912
3.18483
3.15007
3.13409
3.12087
0.9586
0.966867
0.964083
0.964162
0.963394
0.962715
0.961907
0.961086
0.960226
0.959348
0.958506
0.957629
0.95676
0.955917
0.955085
0.954214
0.953396
0.952636
0.951846
0.951053
0.950308
0.949633
0.948918
0.948195
0.947547
0.946964
0.946346
0.9456
0.944966
0.944322
0.943901
0.943331
0.942626
0.941568
0.940786
0.939831
0.939385
0.938694
0.93827
0.937602
0.93928
0.940971
0.936629
1.03491
1.87951
2.2789
2.27798
2.28458
2.27898
2.27547
2.24653
2.23792
2.23294
2.24981
2.23818
2.34383
2.35711
2.55344
2.45996
2.5449
2.4433
2.47493
2.41626
2.42981
2.41701
2.42824
2.43031
2.43799
2.45254
2.44835
2.49406
2.54876
2.61906
2.66077
2.77525
2.79434
2.87996
2.84063
2.85075
2.78711
2.74003
2.64222
2.58051
2.563
2.56455
2.54471
2.5181
2.5103
2.50959
2.50951
2.49039
2.47681
2.47555
2.48782
2.48675
2.49559
2.49785
2.51768
2.53211
2.57382
2.63282
2.71505
2.81943
2.92677
3.02493
3.09686
3.12881
3.15037
3.17036
3.18025
3.19213
3.19765
3.20107
3.20673
3.20606
3.19069
3.15392
3.13222
3.11731
0.95855
0.966825
0.964043
0.964121
0.963346
0.962657
0.961838
0.961005
0.96014
0.959241
0.958371
0.957492
0.956583
0.9557
0.954849
0.953933
0.953056
0.952232
0.951403
0.950518
0.949683
0.948939
0.948155
0.947314
0.946514
0.945833
0.945118
0.944214
0.94341
0.942681
0.942046
0.941605
0.941026
0.940047
0.939521
0.939106
0.939004
0.939356
0.939407
0.939799
0.939313
0.939386
0.947367
1.04625
2.19733
2.28672
2.27177
2.27306
2.27573
2.27533
2.26953
2.25387
2.24106
2.22986
2.2498
2.25024
2.35452
2.36738
2.55995
2.45645
2.55278
2.47031
2.48409
2.46563
2.51334
2.5385
2.60174
2.65917
2.71975
2.77426
2.84342
2.8939
2.96604
3.02187
3.03668
3.04179
3.03194
2.98591
2.94115
2.88607
2.81687
2.71988
2.64631
2.60319
2.5676
2.5362
2.52182
2.52125
2.51195
2.48863
2.4628
2.45809
2.4679
2.47457
2.47094
2.46908
2.48134
2.50174
2.5326
2.56743
2.61836
2.69232
2.786
2.89219
2.99156
3.07591
3.11768
3.13782
3.16143
3.17252
3.18334
3.18579
3.19964
3.1922
3.20301
3.19139
3.1566
3.12963
3.11403
0.958534
0.966794
0.964004
0.964077
0.963296
0.9626
0.961769
0.960928
0.960045
0.959136
0.958234
0.957348
0.956393
0.955475
0.954595
0.953645
0.952697
0.951795
0.950919
0.949948
0.949023
0.948157
0.947309
0.946322
0.945403
0.944566
0.94374
0.942776
0.941736
0.940782
0.939822
0.939279
0.93843
0.937145
0.93583
0.934353
0.933179
0.931325
0.929009
0.9265
0.919973
0.912188
0.959583
1.06133
2.22236
2.28671
2.29577
2.3014
2.2886
2.27184
2.26553
2.2759
2.30081
2.29722
2.22399
2.19511
2.27427
2.38067
2.5157
2.50465
2.63618
2.59518
2.67962
2.76968
2.82333
2.88098
2.94247
3.01315
3.04955
3.07828
3.08232
3.09347
3.09221
3.10065
3.09727
3.08132
3.06699
3.03704
3.00293
2.95917
2.90898
2.85643
2.79494
2.70423
2.6345
2.59977
2.58599
2.56649
2.53806
2.5058
2.49095
2.49127
2.49431
2.48768
2.48677
2.4854
2.49116
2.49591
2.51033
2.5392
2.59085
2.66024
2.74866
2.85198
2.95887
3.05006
3.10546
3.12516
3.14862
3.16422
3.1733
3.18165
3.18719
3.18127
3.19723
3.18703
3.15958
3.12495
3.10919
0.95846
0.966737
0.963946
0.96402
0.963233
0.962528
0.961687
0.960835
0.959938
0.959012
0.958081
0.957182
0.95619
0.955225
0.954299
0.95334
0.952314
0.951335
0.950402
0.949378
0.948335
0.94735
0.946417
0.945354
0.94428
0.943248
0.94236
0.941349
0.940043
0.938929
0.937859
0.937095
0.936362
0.935336
0.933633
0.932782
0.93197
0.930897
0.930896
0.931774
0.934283
0.931424
1.02576
1.73568
2.29258
2.30114
2.31138
2.31411
2.30282
2.29111
2.29422
2.30512
2.31114
2.29471
2.24944
2.26956
2.36211
2.44175
2.54224
2.78972
2.85976
2.93756
2.97099
3.05809
3.07065
3.08608
3.08401
3.11235
3.11956
3.13333
3.13003
3.12598
3.11629
3.10977
3.10304
3.09059
3.07791
3.05907
3.03443
3.0037
2.96788
2.92798
2.87049
2.78446
2.69505
2.62869
2.59668
2.5729
2.54265
2.51621
2.50272
2.49696
2.48737
2.47339
2.47508
2.48653
2.49386
2.50119
2.50946
2.53584
2.57544
2.63453
2.71438
2.81126
2.92237
3.02072
3.091
3.11357
3.13543
3.15563
3.16372
3.17238
3.17385
3.17995
3.18316
3.18022
3.16081
3.11926
3.10379
0.95842
0.96669
0.963889
0.96396
0.963169
0.962458
0.961605
0.960735
0.959829
0.958886
0.957931
0.957004
0.956002
0.954981
0.953995
0.953017
0.951916
0.950849
0.949848
0.948784
0.947616
0.946493
0.945474
0.94435
0.94309
0.941892
0.940882
0.939772
0.938367
0.936996
0.935752
0.93455
0.933879
0.932849
0.931236
0.930016
0.929126
0.928935
0.929044
0.929257
0.931777
0.939493
1.04439
2.18199
2.30881
2.29688
2.29903
2.29545
2.28776
2.28853
2.30736
2.32535
2.32596
2.29944
2.30601
2.39664
2.55192
2.65148
2.90235
3.05108
3.07208
3.07763
3.08994
3.09875
3.10731
3.10859
3.1132
3.11503
3.11015
3.11564
3.11864
3.1155
3.11228
3.10784
3.09965
3.08952
3.0797
3.06894
3.05406
3.03316
3.00748
2.97693
2.93731
2.88027
2.79906
2.71306
2.65117
2.61191
2.58444
2.56378
2.54304
2.51891
2.50068
2.49211
2.49298
2.49309
2.48935
2.49091
2.50209
2.52355
2.556
2.60624
2.67799
2.77118
2.88427
2.99062
3.07279
3.10392
3.12464
3.14653
3.15589
3.16093
3.16919
3.17086
3.17048
3.17429
3.15676
3.11434
3.09924
0.958321
0.966616
0.963814
0.963887
0.963094
0.962375
0.961511
0.960617
0.959711
0.958756
0.957766
0.956798
0.955803
0.954713
0.95367
0.952662
0.951511
0.950357
0.94926
0.948161
0.94686
0.94562
0.944469
0.943306
0.941871
0.940536
0.939284
0.938128
0.936732
0.935033
0.933598
0.932156
0.931293
0.93008
0.928399
0.926053
0.923682
0.920343
0.917015
0.910884
0.903079
0.944111
1.0324
2.22174
2.29656
2.30498
2.31558
2.30565
2.29559
2.29606
2.31861
2.34197
2.34455
2.31914
2.38318
2.57588
2.79162
2.95969
3.11566
3.11884
3.10726
3.11194
3.0987
3.10252
3.09906
3.09674
3.09071
3.09363
3.09197
3.09021
3.09515
3.09707
3.09964
3.09779
3.0934
3.08609
3.07633
3.06825
3.06053
3.04882
3.03085
3.00732
2.97725
2.93768
2.87878
2.79368
2.70625
2.64132
2.60051
2.57441
2.54923
2.52516
2.50553
2.499
2.49618
2.49294
2.49835
2.50242
2.5093
2.52289
2.54671
2.58689
2.64938
2.73528
2.84656
2.95823
3.0509
3.09329
3.11443
3.13665
3.15024
3.15182
3.16355
3.15234
3.16739
3.16128
3.15018
3.1106
3.09292
0.95825
0.96655
0.96374
0.963812
0.963016
0.96229
0.961415
0.960497
0.959577
0.958629
0.957607
0.956594
0.955587
0.95445
0.953333
0.952268
0.951109
0.949854
0.948644
0.94747
0.946123
0.944749
0.943424
0.942163
0.940701
0.939159
0.93767
0.936481
0.935067
0.933122
0.931461
0.929892
0.928575
0.927646
0.926437
0.924307
0.922899
0.922083
0.922341
0.924763
0.922176
1.02502
1.66626
2.3076
2.31366
2.33179
2.34097
2.32795
2.3107
2.31465
2.34053
2.38153
2.4039
2.40774
2.55767
2.83566
3.01028
3.12268
3.11962
3.10946
3.11083
3.10034
3.0891
3.08811
3.08439
3.08043
3.07581
3.0756
3.07257
3.07064
3.07415
3.08072
3.08617
3.08943
3.08629
3.08234
3.07519
3.06677
3.0593
3.05107
3.03996
3.02386
3.00177
2.97396
2.93459
2.86795
2.78174
2.70401
2.64836
2.61045
2.57637
2.55144
2.53122
2.51531
2.50502
2.50023
2.49782
2.4996
2.50351
2.51405
2.53428
2.57013
2.6267
2.70692
2.81341
2.92689
3.02742
3.08126
3.10525
3.12826
3.14227
3.14356
3.14893
3.14726
3.15874
3.14596
3.14462
3.10582
3.08555
0.95813
0.96646
0.96365
0.963725
0.962929
0.962194
0.961312
0.960383
0.959428
0.95849
0.957424
0.95637
0.955348
0.954193
0.953003
0.951851
0.950684
0.949317
0.947989
0.946752
0.945391
0.943832
0.942339
0.941007
0.93952
0.937727
0.936106
0.934653
0.933196
0.931463
0.929382
0.927744
0.926189
0.925405
0.924369
0.923214
0.921459
0.921208
0.921233
0.922856
0.932999
1.04246
2.19075
2.3244
2.30841
2.3205
2.33199
2.3294
2.31053
2.31045
2.34556
2.41919
2.48157
2.57391
2.86487
3.04111
3.09844
3.11616
3.09192
3.08698
3.0821
3.07717
3.07785
3.08113
3.07544
3.07029
3.06497
3.0635
3.06078
3.05537
3.05415
3.0574
3.06332
3.07071
3.0704
3.07108
3.06717
3.06238
3.05774
3.05191
3.04309
3.03097
3.01391
2.99259
2.9642
2.92241
2.85494
2.77151
2.6988
2.63912
2.59477
2.56269
2.53835
2.52079
2.50955
2.50602
2.50669
2.50814
2.51036
2.51686
2.53247
2.56339
2.61185
2.68319
2.78095
2.8922
3.00115
3.06679
3.09563
3.11876
3.13282
3.13477
3.13769
3.14154
3.1436
3.13382
3.13542
3.0993
3.07927
0.958026
0.966375
0.963558
0.963636
0.962836
0.962092
0.961207
0.960268
0.959283
0.958328
0.957253
0.956155
0.955078
0.953939
0.952663
0.951426
0.950217
0.948807
0.947378
0.945996
0.944615
0.942936
0.94132
0.939792
0.938276
0.936374
0.934571
0.932802
0.931437
0.929761
0.927463
0.925622
0.923812
0.922194
0.920709
0.918919
0.915286
0.911454
0.902781
0.891122
0.93887
1.03342
2.24448
2.31456
2.31564
2.33377
2.35566
2.35617
2.3375
2.33804
2.40673
2.54765
2.67732
2.88631
3.09638
3.1014
3.11588
3.09662
3.07872
3.07228
3.0585
3.05897
3.06298
3.06359
3.05799
3.05681
3.0567
3.05521
3.0525
3.04634
3.04309
3.04066
3.04254
3.04928
3.05532
3.06061
3.05994
3.05825
3.0533
3.04944
3.0434
3.03437
3.02147
3.00381
2.98144
2.95191
2.90722
2.83509
2.75061
2.68257
2.63032
2.58968
2.5594
2.539
2.52501
2.51747
2.51147
2.50729
2.5078
2.51627
2.53197
2.55842
2.59901
2.6613
2.74973
2.85843
2.97063
3.05098
3.08571
3.10705
3.12435
3.12477
3.12887
3.12736
3.1336
3.12042
3.12563
3.09221
3.07143
0.957882
0.966268
0.963453
0.963535
0.962731
0.961977
0.961094
0.960149
0.959136
0.958137
0.957083
0.955928
0.954792
0.953652
0.952311
0.950982
0.949722
0.94832
0.94674
0.945217
0.94376
0.942073
0.94026
0.938541
0.93695
0.935107
0.932996
0.931073
0.929411
0.927701
0.925544
0.923185
0.921219
0.919646
0.918541
0.917005
0.915714
0.915891
0.918248
0.912742
1.01931
1.64003
2.35456
2.34371
2.33852
2.34952
2.37924
2.39797
2.39414
2.39147
2.52661
2.76637
2.92737
3.07516
3.11645
3.10451
3.0932
3.08166
3.07562
3.0721
3.05794
3.05629
3.05564
3.05261
3.0449
3.04434
3.04419
3.0433
3.03998
3.03522
3.03171
3.0304
3.02886
3.02857
3.03273
3.04165
3.04379
3.04752
3.0424
3.04189
3.03827
3.0332