/*--------------------------------*- C++ -*----------------------------------*\
| =========                 |                                                 |
| \\      /  F ield         | OpenFOAM: The Open Source CFD Toolbox           |
|  \\    /   O peration     | Version:  2.2.x                                 |
|   \\  /    A nd           | Web:      www.OpenFOAM.org                      |
|    \\/     M anipulation  |                                                 |
\*---------------------------------------------------------------------------*/
FoamFile
{
    version     2.0;
    format      ascii;
    class       volScalarField;
    location    "0.8";
    object      Bx;
}
// * * * * * * * * * * * * * * * * * * * * * * * * * * * * * * * * * * * * * //

dimensions      [1 0 -2 0 0 -1 0];

internalField   nonuniform List<scalar> 
14161
(
1.00003
1.00003
1.00003
1.00004
1.00004
1.00005
1.00006
1.00008
1.00009
1.0001
1.00011
1.00011
1.00011
1.0001
1.00008
1.00004
0.99997
0.999873
0.999736
0.999552
0.999311
0.999003
0.998619
0.99815
0.997591
0.99693
0.996167
0.995294
0.994311
0.993216
0.992014
0.990703
0.989293
0.98779
0.986203
0.984535
0.982809
0.981029
0.979203
0.977344
0.975474
0.973599
0.971733
0.969887
0.968065
0.966244
0.964412
0.962594
0.960682
0.958775
0.956889
0.955807
0.956562
0.961238
0.975151
0.994457
1.01624
1.03794
1.05639
1.07188
1.08549
1.0983
1.11069
1.12254
1.13365
1.14421
1.15427
1.16343
1.1715
1.1791
1.18708
1.19526
1.20254
1.20901
1.2156
1.22308
1.23206
1.24115
1.24936
1.25697
1.26496
1.27402
1.28436
1.2943
1.30263
1.3093
1.31474
1.31914
1.3227
1.3238
1.32021
1.311
1.29263
1.26069
1.21116
1.14332
1.06322
0.978565
0.896227
0.821471
0.754685
0.695005
0.641272
0.592731
0.548147
0.507078
0.468872
0.432891
0.398532
0.365287
0.332675
0.29985
0.26608
0.230552
0.192466
0.15188
0.104892
0.0649786
0.0170352
1.00003
1.00003
1.00003
1.00004
1.00004
1.00005
1.00006
1.00008
1.00009
1.0001
1.00011
1.00011
1.00011
1.0001
1.00008
1.00004
0.999971
0.999874
0.999738
0.999555
0.999314
0.999006
0.998623
0.998156
0.997597
0.996938
0.996176
0.995304
0.994322
0.993228
0.992026
0.990716
0.989309
0.987805
0.986219
0.984554
0.982829
0.981047
0.979225
0.97737
0.975503
0.973633
0.971776
0.969928
0.968094
0.966264
0.964429
0.962552
0.960729
0.958918
0.957595
0.958207
0.962087
0.969663
0.985326
1.00621
1.02748
1.04669
1.06352
1.07857
1.09257
1.10579
1.11839
1.13012
1.14097
1.15121
1.16092
1.16955
1.17727
1.18468
1.19235
1.20004
1.2073
1.2141
1.2206
1.22806
1.23678
1.246
1.25476
1.26307
1.27119
1.2801
1.28931
1.29728
1.3036
1.30882
1.31295
1.3162
1.31626
1.31202
1.30304
1.28606
1.25921
1.21898
1.16247
1.09016
1.01028
0.932148
0.8612
0.795522
0.735142
0.680089
0.629585
0.583055
0.53982
0.499441
0.461396
0.425178
0.390395
0.356679
0.323515
0.290091
0.255684
0.219317
0.180194
0.140178
0.0964171
0.0615486
0.0191421
1.00003
1.00003
1.00003
1.00004
1.00004
1.00005
1.00006
1.00008
1.00009
1.0001
1.00011
1.00011
1.00011
1.0001
1.00008
1.00004
0.999975
0.99988
0.999745
0.999563
0.999323
0.999018
0.998637
0.998173
0.997617
0.996962
0.996203
0.995336
0.994358
0.993267
0.992069
0.990763
0.989361
0.987859
0.986279
0.984619
0.982897
0.981117
0.979301
0.977453
0.97559
0.97373
0.971878
0.970041
0.968231
0.966415
0.964569
0.962724
0.961005
0.959386
0.959183
0.961388
0.969526
0.980227
0.997607
1.01833
1.03788
1.05494
1.06998
1.08385
1.09736
1.11042
1.12302
1.13473
1.14595
1.15661
1.16639
1.17508
1.18337
1.19127
1.199
1.20633
1.21379
1.22155
1.22876
1.2368
1.24561
1.25489
1.26426
1.27321
1.28164
1.28938
1.29565
1.30016
1.30413
1.30718
1.30906
1.30683
1.30068
1.28828
1.26644
1.23304
1.18379
1.12057
1.04753
0.973776
0.903416
0.841689
0.786434
0.734719
0.68584
0.63949
0.595564
0.554021
0.514581
0.477095
0.441178
0.406639
0.373152
0.340135
0.307049
0.273649
0.239705
0.204879
0.16786
0.131012
0.0906548
0.0586119
0.0193585
1.00003
1.00003
1.00003
1.00004
1.00004
1.00005
1.00006
1.00008
1.00009
1.0001
1.00011
1.00012
1.00011
1.0001
1.00008
1.00005
0.999982
0.999888
0.999756
0.999576
0.999339
0.999038
0.998661
0.998202
0.99765
0.997003
0.996249
0.99539
0.994417
0.993336
0.992143
0.990847
0.989449
0.987957
0.986381
0.984729
0.983014
0.98124
0.97943
0.97759
0.975736
0.973882
0.972045
0.97024
0.968469
0.966678
0.964846
0.963052
0.961149
0.959412
0.958829
0.959578
0.967482
0.976341
0.993148
1.01196
1.03022
1.04626
1.06145
1.07632
1.09075
1.10514
1.11908
1.13239
1.14513
1.15707
1.16791
1.17781
1.18749
1.19661
1.20501
1.21271
1.22068
1.22923
1.23735
1.24559
1.25416
1.26261
1.27121
1.27962
1.28747
1.29318
1.29676
1.29966
1.30172
1.30051
1.29498
1.28384
1.26491
1.23501
1.19172
1.13277
1.06096
0.980993
0.907803
0.848565
0.797388
0.752141
0.709171
0.667809
0.628169
0.58976
0.552296
0.515979
0.480889
0.446959
0.413868
0.381608
0.349972
0.318751
0.287588
0.256177
0.224223
0.191478
0.156854
0.123618
0.0868019
0.0573597
0.0214838
1.00003
1.00003
1.00003
1.00004
1.00004
1.00005
1.00006
1.00008
1.00009
1.00011
1.00011
1.00012
1.00012
1.00011
1.00009
1.00005
0.999993
0.999901
0.999772
0.999596
0.999364
0.999068
0.998698
0.998246
0.997703
0.997063
0.99632
0.99547
0.99451
0.993441
0.992261
0.990977
0.98959
0.988112
0.986544
0.984902
0.983194
0.98143
0.979628
0.977797
0.97595
0.974101
0.972283
0.9705
0.968758
0.967016
0.965217
0.963429
0.961519
0.959936
0.958997
0.958548
0.960981
0.964663
0.97512
0.992617
1.00969
1.027
1.044
1.06169
1.07922
1.0966
1.11331
1.12934
1.14439
1.15819
1.17044
1.18174
1.19321
1.20433
1.21406
1.22272
1.2319
1.24188
1.25178
1.2608
1.26924
1.27643
1.28322
1.28927
1.29339
1.29508
1.29693
1.29667
1.29203
1.28251
1.26544
1.23912
1.19967
1.14168
1.06597
0.978267
0.8983
0.834216
0.784255
0.742804
0.707989
0.67666
0.64411
0.61131
0.578564
0.546042
0.513632
0.481644
0.450041
0.419008
0.388366
0.358325
0.328661
0.299131
0.269551
0.239745
0.209659
0.179239
0.147287
0.1177
0.0843892
0.0573894
0.0246943
1.00003
1.00003
1.00003
1.00004
1.00004
1.00005
1.00006
1.00008
1.00009
1.00011
1.00012
1.00012
1.00012
1.00012
1.0001
1.00006
1.00001
0.999919
0.999794
0.999623
0.999399
0.99911
0.99875
0.998308
0.997778
0.997149
0.996421
0.995584
0.994642
0.993588
0.992428
0.99116
0.989792
0.988331
0.986781
0.985154
0.983454
0.981705
0.979912
0.978087
0.976244
0.974404
0.972583
0.970799
0.96904
0.96731
0.965541
0.963756
0.961876
0.960276
0.958806
0.957624
0.955662
0.955313
0.958264
0.974305
0.991993
1.01222
1.03323
1.05614
1.07969
1.10209
1.1225
1.141
1.15812
1.17357
1.18705
1.19948
1.21157
1.22287
1.23281
1.24186
1.2509
1.26036
1.26943
1.27671
1.28286
1.28744
1.29173
1.29446
1.29588
1.29568
1.29188
1.2839
1.26878
1.24404
1.20693
1.15345
1.08273
0.995863
0.905999
0.832847
0.775774
0.730434
0.694118
0.665135
0.641149
0.617153
0.591463
0.564417
0.536409
0.508055
0.479368
0.45077
0.422117
0.393698
0.365245
0.337175
0.309201
0.281219
0.253072
0.224792
0.196569
0.168552
0.139239
0.112981
0.0830643
0.0584169
0.0288597
1.00003
1.00003
1.00003
1.00004
1.00004
1.00005
1.00007
1.00008
1.00009
1.00011
1.00012
1.00013
1.00013
1.00012
1.00011
1.00008
1.00003
0.999943
0.999824
0.999661
0.999445
0.999167
0.998818
0.99839
0.997874
0.997264
0.996554
0.99574
0.994818
0.993788
0.99265
0.991408
0.990064
0.988625
0.987098
0.985494
0.983816
0.982082
0.980297
0.978483
0.976648
0.974804
0.97296
0.971145
0.969366
0.967591
0.965765
0.963887
0.961858
0.96003
0.958069
0.956107
0.952028
0.949858
0.950612
0.966911
0.988795
1.01401
1.03933
1.06632
1.09262
1.11745
1.14024
1.16095
1.18001
1.19696
1.21146
1.22442
1.23661
1.2478
1.25767
1.26642
1.27372
1.28038
1.28676
1.29201
1.29532
1.2964
1.29749
1.29704
1.29327
1.28534
1.27171
1.25043
1.21751
1.1689
1.10192
1.01702
0.922744
0.843071
0.780835
0.729671
0.688958
0.656517
0.630642
0.609591
0.59056
0.570471
0.548875
0.525728
0.501497
0.476389
0.45055
0.424421
0.397836
0.371366
0.344708
0.318321
0.291738
0.265103
0.238381
0.211684
0.185297
0.159726
0.132991
0.10968
0.0829101
0.0604925
0.0338541
1.00003
1.00003
1.00003
1.00004
1.00004
1.00005
1.00007
1.00008
1.0001
1.00011
1.00013
1.00014
1.00014
1.00014
1.00012
1.0001
1.00005
0.999973
0.999862
0.999708
0.999502
0.999237
0.998904
0.998493
0.997998
0.997411
0.996725
0.995937
0.995044
0.994044
0.992937
0.991726
0.990415
0.989006
0.987509
0.985931
0.984283
0.982568
0.980799
0.978998
0.977166
0.975309
0.973446
0.971602
0.969765
0.96792
0.965988
0.964
0.96182
0.959713
0.957533
0.955553
0.951824
0.949436
0.952757
0.969344
0.995325
1.02473
1.05378
1.08507
1.11561
1.14403
1.16942
1.19228
1.21294
1.23126
1.24664
1.25969
1.27019
1.27836
1.28567
1.29226
1.29692
1.29999
1.302
1.30257
1.30243
1.30174
1.2979
1.291
1.2778
1.25653
1.22512
1.1806
1.11905
1.03877
0.945347
0.862512
0.79462
0.739556
0.695471
0.659348
0.629838
0.605738
0.58669
0.569522
0.552798
0.534539
0.515119
0.494216
0.472302
0.449416
0.425781
0.401712
0.376957
0.352076
0.326728
0.301614
0.276219
0.250886
0.225557
0.200376
0.175771
0.152555
0.12823
0.10741
0.0835846
0.0633148
0.0394182
1.00003
1.00003
1.00003
1.00004
1.00005
1.00006
1.00007
1.00008
1.0001
1.00012
1.00013
1.00014
1.00015
1.00015
1.00014
1.00012
1.00008
1.00001
0.999907
0.999764
0.999573
0.999324
0.99901
0.998621
0.998151
0.99759
0.996936
0.99618
0.995323
0.99436
0.993294
0.992122
0.990853
0.989485
0.988029
0.986486
0.98487
0.983185
0.981443
0.979651
0.977819
0.975957
0.974078
0.972184
0.970274
0.968343
0.966298
0.964188
0.961825
0.959596
0.9576
0.955927
0.953289
0.95384
0.959824
0.979504
1.01326
1.05001
1.08509
1.12064
1.15356
1.18387
1.21131
1.23607
1.25674
1.27275
1.28461
1.29445
1.30069
1.30518
1.30806
1.31106
1.31262
1.3123
1.31107
1.30841
1.30308
1.29608
1.28248
1.26176
1.23183
1.18933
1.13151
1.05615
0.965629
0.879384
0.809351
0.75283
0.70711
0.669654
0.638423
0.612052
0.590064
0.57127
0.555096
0.539391
0.523657
0.506567
0.488735
0.469407
0.449133
0.427652
0.405374
0.382538
0.359046
0.335467
0.311379
0.28744
0.263091
0.2389
0.214841
0.191064
0.168112
0.147069
0.125088
0.106271
0.0851592
0.0669123
0.0454675
1.00003
1.00003
1.00003
1.00004
1.00005
1.00006
1.00007
1.00008
1.0001
1.00012
1.00014
1.00015
1.00016
1.00016
1.00016
1.00014
1.00011
1.00005
0.999961
0.999832
0.999658
0.999429
0.999137
0.998775
0.998334
0.997808
0.997189
0.996476
0.99566
0.994746
0.993727
0.992609
0.991388
0.990076
0.988669
0.987178
0.985604
0.983962
0.982253
0.980482
0.978658
0.9768
0.974897
0.972959
0.970989
0.968971
0.96681
0.964504
0.961911
0.959367
0.957166
0.955425
0.955352
0.965998
0.980508
1.01073
1.04905
1.09116
1.13103
1.17003
1.20537
1.23707
1.26355
1.28459
1.2996
1.31016
1.31635
1.32219
1.32444
1.32596
1.32406
1.32259
1.32074
1.31794
1.31131
1.30143
1.28506
1.2618
1.23147
1.18956
1.134
1.06225
0.976948
0.888364
0.816987
0.760406
0.714817
0.678309
0.647855
0.62203
0.599791
0.580592
0.563278
0.547088
0.532383
0.517043
0.501582
0.48484
0.467682
0.449114
0.429956
0.409631
0.388626
0.366872
0.34441
0.32182
0.298658
0.275652
0.252202
0.229052
0.206139
0.183612
0.162089
0.142954
0.123203
0.106094
0.0873398
0.0709866
0.0517196
1.00003
1.00003
1.00003
1.00004
1.00005
1.00006
1.00007
1.00009
1.0001
1.00012
1.00014
1.00016
1.00018
1.00018
1.00018
1.00017
1.00015
1.0001
1.00002
0.999913
0.999758
0.999552
0.999287
0.998957
0.998551
0.998065
0.997491
0.996827
0.996064
0.995207
0.994248
0.993194
0.992039
0.990793
0.989451
0.988027
0.986516
0.98493
0.983268
0.981539
0.979746
0.977897
0.975984
0.97402
0.971994
0.9699
0.967625
0.965149
0.96235
0.959649
0.957661
0.955761
0.960796
0.986083
1.01821
1.06333
1.10569
1.14944
1.18784
1.22398
1.25585
1.28383
1.30578
1.32052
1.33026
1.33551
1.33709
1.33817
1.33654
1.33668
1.33236
1.32734
1.31699
1.30326
1.28426
1.25909
1.22564
1.18108
1.12518
1.05467
0.971067
0.883386
0.813522
0.75836
0.713711
0.678778
0.650538
0.627154
0.606981
0.58926
0.573698
0.558869
0.544214
0.52942
0.515178
0.499954
0.484873
0.468476
0.451852
0.433775
0.415329
0.395621
0.375419
0.354428
0.332822
0.311069
0.288712
0.266513
0.24385
0.221624
0.199715
0.178281
0.157914
0.140334
0.12272
0.107138
0.0903276
0.0757259
0.0583694
1.00003
1.00003
1.00003
1.00004
1.00005
1.00006
1.00007
1.00009
1.00011
1.00013
1.00015
1.00017
1.00019
1.00021
1.00021
1.00021
1.00019
1.00016
1.0001
1.00001
0.999874
0.999695
0.999462
0.999167
0.998804
0.998365
0.997846
0.997237
0.996542
0.995749
0.994867
0.993886
0.992815
0.991648
0.990393
0.989051
0.987627
0.986119
0.984529
0.982871
0.981139
0.979336
0.977454
0.975503
0.973459
0.971329
0.968998
0.966391
0.963456
0.96085
0.959485
0.959924
0.978792
1.00667
1.07114
1.12982
1.17818
1.22072
1.25498
1.28424
1.30727
1.32619
1.33751
1.34445
1.34761
1.34914
1.34837
1.34597
1.34099
1.33181
1.31953
1.30111
1.27904
1.25055
1.21334
1.16459
1.10444
1.03134
0.94684
0.864544
0.797319
0.74424
0.701239
0.668411
0.642615
0.622081
0.605315
0.590672
0.577673
0.566301
0.554883
0.543181
0.530713
0.51701
0.502932
0.487522
0.472329
0.455959
0.439626
0.421896
0.404058
0.384846
0.365355
0.344966
0.32407
0.302967
0.28128
0.259776
0.237832
0.216433
0.195394
0.174915
0.155534
0.139144
0.123426
0.109279
0.0940981
0.0810895
0.0653977
1.00003
1.00003
1.00003
1.00004
1.00005
1.00006
1.00008
1.00009
1.00011
1.00014
1.00016
1.00019
1.00021
1.00023
1.00024
1.00025
1.00024
1.00022
1.00018
1.00011
1.00001
0.999859
0.999664
0.999411
0.999097
0.998712
0.998254
0.997714
0.997093
0.996384
0.995587
0.9947
0.993725
0.992661
0.991512
0.990278
0.988959
0.987561
0.986083
0.984534
0.982906
0.981206
0.979424
0.977565
0.975591
0.97355
0.971335
0.968738
0.966153
0.964202
0.963601
0.968112
0.98782
1.02707
1.09974
1.15857
1.2179
1.25949
1.29435
1.3188
1.33786
1.34796
1.35239
1.35519
1.35601
1.35279
1.34457
1.33268
1.31691
1.29604
1.26934
1.23315
1.18806
1.13499
1.07045
0.992646
0.908016
0.834488
0.772744
0.722209
0.681703
0.650371
0.626317
0.607655
0.593312
0.581707
0.572206
0.563396
0.556044
0.548081
0.539706
0.530241
0.519706
0.507128
0.493679
0.47869
0.46379
0.447661
0.431568
0.414029
0.396532
0.377534
0.358489
0.338459
0.31811
0.29751
0.276412
0.255545
0.2343
0.213696
0.193472
0.173888
0.155412
0.139868
0.125653
0.112792
0.0989143
0.0872966
0.0730558
1.00004
1.00003
1.00004
1.00004
1.00005
1.00006
1.00008
1.0001
1.00012
1.00014
1.00017
1.0002
1.00023
1.00026
1.00028
1.0003
1.0003
1.0003
1.00028
1.00023
1.00016
1.00005
0.999892
0.999689
0.999429
0.999108
0.99872
0.998262
0.997725
0.997114
0.996417
0.995643
0.994782
0.993843
0.992821
0.991722
0.990541
0.989287
0.98796
0.986565
0.9851
0.983577
0.981973
0.980305
0.978541
0.976785
0.974933
0.972872
0.971516
0.971126
0.97316
0.982641
1.00678
1.04673
1.09877
1.15225
1.20784
1.2518
1.29619
1.32395
1.34405
1.3507
1.3534
1.35174
1.34318
1.32938
1.30959
1.28185
1.2471
1.20541
1.1527
1.08831
1.0157
0.934604
0.860776
0.795281
0.741688
0.695624
0.658865
0.629937
0.607344
0.590109
0.576793
0.566818
0.559126
0.553306
0.547613
0.543145
0.538419
0.533
0.526738
0.519092
0.509978
0.498612
0.485874
0.471494
0.45686
0.44121
0.425558
0.408466
0.391474
0.372849
0.354324
0.334635
0.314766
0.294565
0.273985
0.253667
0.233057
0.213173
0.193685
0.174927
0.157262
0.142298
0.129164
0.117362
0.104538
0.094111
0.08111
1.00004
1.00003
1.00004
1.00004
1.00005
1.00006
1.00008
1.0001
1.00012
1.00015
1.00018
1.00021
1.00025
1.00029
1.00032
1.00035
1.00037
1.00038
1.00038
1.00037
1.00033
1.00026
1.00015
1
0.999804
0.999556
0.999249
0.998882
0.998448
0.997944
0.997368
0.996719
0.995997
0.995202
0.994333
0.993397
0.992391
0.991325
0.990192
0.989005
0.98776
0.98647
0.985111
0.983748
0.98231
0.980972
0.979541
0.978401
0.977939
0.97859
0.981797
0.994955
1.01794
1.05371
1.08654
1.12803
1.1697
1.20313
1.24962
1.28282
1.31539
1.32607
1.32704
1.31374
1.29095
1.25869
1.21557
1.16104
1.09889
1.02834
0.94891
0.876378
0.81287
0.757463
0.709479
0.670136
0.637954
0.61219
0.590979
0.57449
0.5618
0.55226
0.54519
0.539745
0.536146
0.532926
0.530219
0.527791
0.524541
0.520733
0.515812
0.509431
0.501387
0.491191
0.479253
0.465662
0.451408
0.436141
0.420786
0.404082
0.387531
0.369372
0.351468
0.332241
0.312963
0.293191
0.273195
0.253469
0.233535
0.214402
0.195606
0.177598
0.160684
0.146076
0.133709
0.122776
0.110826
0.101489
0.0896796
1.00004
1.00003
1.00004
1.00004
1.00005
1.00007
1.00008
1.00011
1.00013
1.00016
1.00019
1.00023
1.00027
1.00032
1.00036
1.00041
1.00045
1.00048
1.00051
1.00052
1.00051
1.00049
1.00043
1.00035
1.00022
1.00005
0.999842
0.999576
0.999258
0.998877
0.998438
0.997934
0.997371
0.996745
0.996056
0.995315
0.994521
0.993678
0.992784
0.991848
0.990866
0.989855
0.988817
0.987806
0.986758
0.985793
0.985023
0.984727
0.984846
0.986614
0.991424
1.00923
1.03295
1.06011
1.08289
1.11443
1.1436
1.16876
1.20281
1.23348
1.26419
1.27101
1.26577
1.23009
1.18012
1.11435
1.04313
0.961649
0.889291
0.826132
0.772275
0.725113
0.685394
0.651786
0.623465
0.599895
0.580109
0.564527
0.552264
0.542724
0.535488
0.529949
0.526054
0.523177
0.521153
0.519189
0.517853
0.516014
0.513782
0.510706
0.506577
0.500939
0.493632
0.484326
0.473099
0.460367
0.446769
0.432186
0.417442
0.401385
0.385389
0.367811
0.350511
0.331743
0.313051
0.293598
0.274049
0.254765
0.235363
0.216812
0.19855
0.181098
0.164881
0.150576
0.138853
0.128782
0.117706
0.109395
0.0986625
1.00004
1.00003
1.00004
1.00005
1.00006
1.00007
1.00009
1.00011
1.00014
1.00017
1.00021
1.00025
1.0003
1.00035
1.00041
1.00047
1.00053
1.00059
1.00064
1.00069
1.00072
1.00075
1.00075
1.00073
1.00068
1.00061
1.0005
1.00035
1.00015
0.999913
0.999627
0.999292
0.998911
0.998482
0.998005
0.997486
0.99693
0.996336
0.995706
0.995047
0.994361
0.993665
0.992962
0.992301
0.991621
0.991033
0.990864
0.990809
0.991314
0.993227
0.998943
1.01644
1.04162
1.06463
1.08484
1.10764
1.12477
1.13937
1.15485
1.16486
1.1681
1.16083
1.12421
1.05839
0.97921
0.905354
0.842141
0.789106
0.741537
0.701753
0.668444
0.640276
0.616097
0.595394
0.578042
0.563824
0.551709
0.541646
0.533791
0.527771
0.523005
0.519446
0.516666
0.514579
0.512783
0.5111
0.509756
0.507979
0.505877
0.502934
0.499058
0.493826
0.487049
0.478408
0.467827
0.45562
0.442463
0.428274
0.413944
0.398413
0.382863
0.365881
0.349198
0.331016
0.313021
0.294081
0.2751
0.256342
0.237583
0.219712
0.20212
0.185382
0.169936
0.156147
0.145012
0.135665
0.125303
0.117832
0.108085
1.00004
1.00004
1.00004
1.00005
1.00006
1.00007
1.00009
1.00012
1.00015
1.00018
1.00022
1.00027
1.00033
1.00039
1.00046
1.00053
1.00062
1.0007
1.00079
1.00087
1.00096
1.00103
1.0011
1.00115
1.0012
1.00122
1.00122
1.00119
1.00113
1.00105
1.00093
1.00079
1.00061
1.0004
1.00016
0.999882
0.999584
0.999267
0.998923
0.998562
0.998177
0.997813
0.997437
0.997117
0.996774
0.996607
0.996692
0.996944
0.997885
1.00008
1.00632
1.02034
1.04382
1.06705
1.08514
1.09754
1.10113
1.10279
1.09848
1.08674
1.05611
1.00509
0.930397
0.864103
0.810397
0.763278
0.723418
0.689889
0.661087
0.636326
0.614811
0.596769
0.581897
0.568941
0.557688
0.548186
0.540086
0.532973
0.526993
0.522109
0.518516
0.515751
0.513341
0.511219
0.509128
0.507148
0.505169
0.50298
0.500514
0.497374
0.493465
0.488401
0.482024
0.474009
0.464195
0.452594
0.439926
0.426116
0.412306
0.397284
0.382182
0.365775
0.349597
0.331927
0.314542
0.296054
0.277575
0.259199
0.240968
0.223677
0.206694
0.190581
0.175797
0.162429
0.151702
0.142921
0.133247
0.126564
0.1178
1.00004
1.00004
1.00004
1.00005
1.00006
1.00008
1.0001
1.00012
1.00015
1.00019
1.00024
1.0003
1.00036
1.00043
1.00052
1.00061
1.00071
1.00082
1.00094
1.00107
1.0012
1.00134
1.00148
1.00162
1.00176
1.00188
1.002
1.00211
1.00221
1.0023
1.00237
1.00243
1.00247
1.00248
1.00249
1.00248
1.00246
1.00243
1.00241
1.00236
1.00229
1.00224
1.00221
1.00217
1.00215
1.00225
1.00259
1.00315
1.00475
1.00779
1.0178
1.03154
1.0546
1.07542
1.08506
1.089
1.08681
1.07756
1.05147
1.0026
0.931781
0.852451
0.791472
0.748762
0.713372
0.685368
0.660816
0.639794
0.621261
0.60567
0.591765
0.579517
0.568984
0.56004
0.552073
0.545066
0.538933
0.533535
0.528921
0.524497
0.520868
0.517595
0.514602
0.51176
0.508925
0.506189
0.503436
0.50062
0.497525
0.493905
0.489575
0.484288
0.477852
0.469966
0.460551
0.449363
0.437222
0.423765
0.410411
0.395876
0.381276
0.365466
0.349829
0.332778
0.316071
0.298229
0.280388
0.262508
0.244832
0.228166
0.211839
0.196405
0.182268
0.169442
0.159112
0.150843
0.141845
0.135813
0.127916
1.00004
1.00004
1.00004
1.00005
1.00006
1.00008
1.0001
1.00013
1.00016
1.00021
1.00026
1.00032
1.00039
1.00048
1.00058
1.00069
1.00081
1.00096
1.00111
1.00129
1.00147
1.00167
1.00189
1.00211
1.00235
1.0026
1.00285
1.00311
1.00338
1.00364
1.00391
1.00418
1.00445
1.00472
1.005
1.00527
1.00553
1.00581
1.00609
1.00637
1.00666
1.00692
1.00717
1.00742
1.00759
1.00782
1.00828
1.00884
1.01055
1.01361
1.02813
1.04542
1.06882
1.08321
1.08457
1.08358
1.06984
1.04003
0.986205
0.906939
0.822204
0.761278
0.720733
0.689855
0.666644
0.64766
0.632123
0.618492
0.606301
0.595366
0.585718
0.576859
0.568782
0.561819
0.555712
0.550106
0.544967
0.539785
0.535366
0.530526
0.526441
0.522503
0.518745
0.515173
0.511671
0.508208
0.504671
0.501117
0.497281
0.493099
0.488351
0.482785
0.476204
0.46837
0.459199
0.448379
0.436527
0.423373
0.410296
0.396121
0.381929
0.366582
0.351359
0.334821
0.31867
0.301435
0.284219
0.266865
0.249683
0.233531
0.217761
0.202924
0.189327
0.176983
0.166959
0.159037
0.150673
0.145205
0.138163
1.00004
1.00004
1.00004
1.00005
1.00006
1.00008
1.00011
1.00014
1.00017
1.00022
1.00028
1.00035
1.00043
1.00053
1.00064
1.00077
1.00093
1.0011
1.0013
1.00152
1.00176
1.00203
1.00232
1.00264
1.00299
1.00336
1.00375
1.00417
1.00461
1.00507
1.00555
1.00605
1.00656
1.00709
1.00765
1.00822
1.00878
1.00935
1.00993
1.01052
1.01114
1.01175
1.01231
1.01287
1.01335
1.01396
1.01494
1.01643
1.01993
1.02628
1.0458
1.06372
1.0855
1.08901
1.08591
1.07227
1.04082
0.98556
0.902544
0.816182
0.755348
0.714275
0.685045
0.663937
0.647623
0.634475
0.623505
0.613867
0.605367
0.597378
0.590254
0.583732
0.577651
0.571836
0.566381
0.561037
0.556083
0.550511
0.545835
0.540117
0.535311
0.530437
0.525701
0.521135
0.516692
0.512334
0.507976
0.503592
0.499067
0.494261
0.488927
0.482887
0.475953
0.467915
0.458733
0.448113
0.436436
0.423637
0.410743
0.396867
0.383026
0.368083
0.353277
0.337262
0.32167
0.305045
0.28852
0.271705
0.255042
0.239403
0.22417
0.209945
0.196891
0.185069
0.175388
0.167769
0.160051
0.155067
0.148788
1.00004
1.00004
1.00004
1.00005
1.00007
1.00009
1.00011
1.00014
1.00018
1.00024
1.0003
1.00037
1.00047
1.00058
1.00071
1.00086
1.00104
1.00125
1.00149
1.00176
1.00206
1.0024
1.00278
1.0032
1.00366
1.00416
1.0047
1.00529
1.0059
1.00656
1.00726
1.008
1.00876
1.00954
1.01035
1.01122
1.01209
1.01295
1.01383
1.01469
1.0156
1.01656
1.0175
1.01843
1.01925
1.02026
1.02178
1.02433
1.02986
1.04109
1.06438
1.07765
1.09474
1.08897
1.07814
1.04671
0.993007
0.909103
0.823173
0.763017
0.721623
0.692834
0.671994
0.656595
0.644849
0.635371
0.627497
0.620602
0.614401
0.608556
0.602876
0.597288
0.59187
0.586529
0.581356
0.5759
0.570757
0.564568
0.559254
0.552884
0.54714
0.541232
0.535388
0.529666
0.524093
0.518651
0.513291
0.507927
0.502578
0.497053
0.491162
0.484702
0.477467
0.469235
0.45996
0.449426
0.437832
0.425352
0.4125
0.398882
0.38532
0.370716
0.356277
0.340731
0.325639
0.309581
0.293719
0.277413
0.261282
0.246035
0.231228
0.217512
0.204903
0.193546
0.184164
0.17675
0.169615
0.165062
0.159498
1.00004
1.00004
1.00005
1.00006
1.00007
1.00009
1.00012
1.00015
1.0002
1.00025
1.00032
1.0004
1.00051
1.00063
1.00078
1.00096
1.00117
1.00141
1.00169
1.00202
1.00238
1.0028
1.00327
1.00379
1.00436
1.00499
1.00569
1.00643
1.00723
1.00808
1.00899
1.00996
1.01097
1.01202
1.01308
1.01419
1.01535
1.01653
1.01769
1.01886
1.02005
1.02121
1.02242
1.02364
1.02464
1.0258
1.02717
1.02996
1.03366
1.05202
1.06324
1.10004
1.0958
1.08177
1.05601
1.00295
0.923354
0.836124
0.776628
0.734596
0.705998
0.685031
0.669892
0.658304
0.649307
0.642026
0.635928
0.630621
0.625862
0.621342
0.616932
0.612286
0.607358
0.602292
0.597546
0.592458
0.58767
0.581483
0.575694
0.568738
0.561891
0.554731
0.547757
0.540784
0.53396
0.527268
0.520732
0.514232
0.507854
0.501395
0.494736
0.487659
0.479989
0.471497
0.462082
0.451531
0.439989
0.427673
0.414932
0.401541
0.388224
0.373927
0.359823
0.344713
0.330068
0.314518
0.299255
0.283469
0.26788
0.253011
0.238642
0.22544
0.213276
0.202438
0.19342
0.18623
0.179672
0.175491
0.170581
1.00005
1.00004
1.00005
1.00006
1.00007
1.00009
1.00012
1.00016
1.00021
1.00027
1.00034
1.00044
1.00055
1.00069
1.00086
1.00106
1.0013
1.00158
1.0019
1.00228
1.00271
1.00321
1.00376
1.00439
1.00508
1.00584
1.00668
1.00759
1.00857
1.00962
1.01073
1.01192
1.01316
1.01446
1.0158
1.01716
1.01856
1.02002
1.02148
1.02295
1.02441
1.02584
1.02731
1.02894
1.03058
1.03273
1.03613
1.04257
1.05343
1.08172
1.09467
1.1127
1.0976
1.07167
1.01738
0.938496
0.853326
0.793874
0.752448
0.723547
0.702386
0.686812
0.674918
0.665631
0.65817
0.651992
0.64678
0.64204
0.637729
0.633541
0.629556
0.625702
0.621364
0.616567
0.611929
0.607016
0.60286
0.59719
0.591619
0.584716
0.57771
0.570023
0.562081
0.553967
0.54591
0.537929
0.530121
0.522422
0.514865
0.507347
0.499757
0.49194
0.483691
0.474835
0.465161
0.454537
0.443031
0.430788
0.418151
0.404902
0.391774
0.377741
0.363961
0.349294
0.335091
0.320078
0.305398
0.2902
0.275136
0.260647
0.246655
0.233893
0.222091
0.211699
0.202976
0.19598
0.18991
0.186054
0.181743
1.00005
1.00004
1.00005
1.00006
1.00008
1.0001
1.00013
1.00017
1.00022
1.00028
1.00037
1.00047
1.00059
1.00075
1.00094
1.00116
1.00143
1.00174
1.00212
1.00255
1.00305
1.00362
1.00426
1.00499
1.00579
1.00669
1.00767
1.00874
1.00989
1.01113
1.01245
1.01384
1.01531
1.01685
1.01843
1.02005
1.0217
1.02339
1.02511
1.02682
1.0285
1.03012
1.03167
1.03316
1.03451
1.03599
1.03892
1.04358
1.06294
1.08191
1.12388
1.10665
1.06829
1.02383
0.942923
0.865988
0.806354
0.768079
0.740178
0.720045
0.704609
0.692747
0.683312
0.675647
0.669252
0.663698
0.658814
0.654322
0.649966
0.645781
0.641488
0.637618
0.63372
0.629165
0.62476
0.619651
0.615848
0.610869
0.605784
0.599221
0.592672
0.585184
0.577164
0.568484
0.559625
0.550517
0.541566
0.532646
0.523888
0.515189
0.506543
0.497809
0.488835
0.479443
0.469413
0.458648
0.447115
0.434878
0.422302
0.409093
0.396137
0.382337
0.368854
0.354587
0.340765
0.326229
0.312041
0.297379
0.282768
0.268668
0.25502
0.242683
0.231241
0.22132
0.212944
0.206217
0.200606
0.197004
0.193266
1.00005
1.00004
1.00005
1.00006
1.00008
1.0001
1.00013
1.00018
1.00023
1.0003
1.00039
1.0005
1.00064
1.00081
1.00102
1.00126
1.00156
1.00192
1.00233
1.00282
1.00338
1.00403
1.00476
1.00558
1.0065
1.00753
1.00865
1.00986
1.01118
1.0126
1.01411
1.0157
1.01737
1.01912
1.02093
1.02279
1.02468
1.02658
1.02852
1.0305
1.03246
1.0344
1.03639
1.03844
1.04095
1.04455
1.05128
1.06419
1.09326
1.12529
1.12502
1.08934
1.04772
0.966909
0.887821
0.827856
0.788914
0.761272
0.741187
0.725644
0.713276
0.702951
0.694211
0.686695
0.680157
0.674367
0.669027
0.664507
0.659948
0.655768
0.651404
0.647205
0.643683
0.639542
0.635688
0.630575
0.626908
0.622448
0.617867
0.611644
0.605689
0.598587
0.590858
0.582348
0.573538
0.563957
0.554348
0.544509
0.534643
0.524739
0.514913
0.505076
0.495213
0.4851
0.474586
0.463522
0.451891
0.439625
0.427116
0.413908
0.401123
0.387506
0.374299
0.360383
0.346927
0.33286
0.319133
0.305011
0.290896
0.277245
0.263949
0.251959
0.240808
0.231248
0.22318
0.216702
0.211458
0.208083
0.204814
1.00005
1.00005
1.00005
1.00006
1.00008
1.00011
1.00014
1.00019
1.00025
1.00032
1.00042
1.00054
1.00069
1.00087
1.0011
1.00137
1.0017
1.00209
1.00255
1.00309
1.00372
1.00444
1.00525
1.00618
1.00721
1.00835
1.00961
1.01097
1.01245
1.01403
1.01572
1.0175
1.01935
1.02128
1.02329
1.02535
1.02746
1.02956
1.03169
1.03384
1.03601
1.03823
1.04053
1.043
1.04583
1.05078
1.05917
1.08322
1.10654
1.12179
1.09716
1.05306
0.980788
0.902601
0.845769
0.80696
0.780837
0.76132
0.746318
0.734038
0.723655
0.714396
0.705944
0.698261
0.691196
0.685075
0.679028
0.674343
0.669542
0.665166
0.660842
0.656211
0.652661
0.648817
0.645304
0.640397
0.636907
0.632729
0.628534
0.622549
0.617296
0.610765
0.603483
0.595287
0.58669
0.577215
0.567583
0.557155
0.546559
0.53566
0.524723
0.513832
0.502989
0.492038
0.480943
0.469422
0.457652
0.445224
0.432787
0.419515
0.406861
0.393388
0.38044
0.36684
0.353702
0.340026
0.326665
0.312996
0.299347
0.286108
0.273208
0.261552
0.250761
0.241568
0.233819
0.227627
0.222711
0.219555
0.216688
1.00005
1.00005
1.00005
1.00007
1.00009
1.00011
1.00015
1.0002
1.00026
1.00034
1.00044
1.00057
1.00073
1.00093
1.00118
1.00148
1.00184
1.00226
1.00277
1.00336
1.00405
1.00485
1.00575
1.00676
1.0079
1.00916
1.01054
1.01205
1.01368
1.01541
1.01726
1.01921
1.02124
1.02334
1.02551
1.02774
1.03001
1.0323
1.03458
1.03689
1.0392
1.04166
1.04419
1.047
1.05095
1.05699
1.07385
1.09783
1.1243
1.10801
1.0573
0.99725
0.918784
0.864357
0.82393
0.798741
0.779455
0.765132
0.753405
0.743405
0.734642
0.726738
0.719129
0.711822
0.704477
0.698258
0.691229
0.685604
0.680321
0.675279
0.670813
0.665758
0.661695
0.657957
0.654392
0.649456
0.645915
0.641984
0.63801
0.63217
0.627521
0.621605
0.615002
0.607317
0.599009
0.589736
0.580104
0.569568
0.558547
0.547083
0.535567
0.523885
0.512094
0.500289
0.488447
0.476313
0.46426
0.451547
0.439097
0.425735
0.413203
0.399798
0.387108
0.373749
0.360893
0.347577
0.334611
0.32148
0.308354
0.295646
0.283098
0.271698
0.261161
0.252213
0.244672
0.238722
0.234034
0.23108
0.228539
1.00005
1.00005
1.00006
1.00007
1.00009
1.00012
1.00016
1.00021
1.00027
1.00036
1.00047
1.00061
1.00078
1.001
1.00126
1.00158
1.00197
1.00244
1.00299
1.00363
1.00438
1.00524
1.00623
1.00733
1.00857
1.00994
1.01145
1.01309
1.01485
1.01673
1.01872
1.02082
1.02301
1.02527
1.02758
1.02994
1.03234
1.03476
1.03717
1.03956
1.04199
1.04442
1.04689
1.05017
1.0552
1.06661
1.08837
1.1212
1.10956
1.06115
1.01077
0.932533
0.878496
0.837574
0.812824
0.793685
0.779734
0.768236
0.758604
0.750196
0.74236
0.735429
0.729038
0.72273
0.715731
0.710211
0.703574
0.696953
0.691356
0.685638
0.681084
0.676012
0.671224
0.667404
0.663719
0.65854
0.654509
0.650779
0.646965
0.641224
0.636888
0.631315
0.62553
0.618238
0.610337
0.60135
0.59192
0.581359
0.570668
0.558955
0.547141
0.534783
0.522391
0.509727
0.497183
0.48427
0.471824
0.458688
0.446186
0.43276
0.42032
0.406983
0.394556
0.381419
0.36884