/*--------------------------------*- C++ -*----------------------------------*\
| =========                 |                                                 |
| \\      /  F ield         | OpenFOAM: The Open Source CFD Toolbox           |
|  \\    /   O peration     | Version:  2.2.x                                 |
|   \\  /    A nd           | Web:      www.OpenFOAM.org                      |
|    \\/     M anipulation  |                                                 |
\*---------------------------------------------------------------------------*/
FoamFile
{
    version     2.0;
    format      ascii;
    class       volScalarField;
    location    "0.8";
    object      Ma;
}
// * * * * * * * * * * * * * * * * * * * * * * * * * * * * * * * * * * * * * //

dimensions      [0 0 0 0 0 0 0];

internalField   nonuniform List<scalar> 
14161
(
2.5983
2.59829
2.5983
2.59832
2.59837
2.59844
2.59853
2.59861
2.59872
2.59881
2.59884
2.59885
2.59884
2.59877
2.59861
2.59831
2.59784
2.59714
2.59617
2.59487
2.59314
2.59095
2.58823
2.5849
2.58096
2.57631
2.57097
2.56486
2.55803
2.55047
2.5422
2.53329
2.52373
2.51365
2.50308
2.4921
2.48081
2.46926
2.45751
2.44569
2.43396
2.42222
2.41056
2.39917
2.38831
2.37726
2.36632
2.35596
2.3447
2.32986
2.30892
2.27466
1.76936
0.947242
0.675289
0.613904
0.609894
0.627143
0.64917
0.670102
0.688501
0.705732
0.72269
0.73946
0.755884
0.771626
0.786547
0.800873
0.814493
0.826578
0.837995
0.848438
0.858671
0.86851
0.878137
0.887574
0.896922
0.90648
0.916955
0.92788
0.939086
0.950725
0.962559
0.974104
0.984306
0.99252
0.996523
0.997595
0.995526
0.987494
0.970582
0.94477
0.906444
0.853823
0.785993
0.707325
0.628759
0.557254
0.496244
0.444961
0.40244
0.36639
0.335106
0.30792
0.283229
0.26073
0.240604
0.222105
0.204261
0.18724
0.170859
0.154597
0.137926
0.120451
0.101755
0.0819406
0.0614573
0.0400545
0.0256468
2.5983
2.59829
2.5983
2.59832
2.59837
2.59844
2.59853
2.59861
2.59872
2.59881
2.59884
2.59885
2.59884
2.59878
2.59861
2.59831
2.59784
2.59717
2.59619
2.59488
2.59317
2.59097
2.58825
2.58494
2.581
2.57637
2.57104
2.56494
2.55814
2.55056
2.54232
2.53339
2.52387
2.51378
2.50322
2.49225
2.48096
2.4694
2.45768
2.44587
2.43415
2.42243
2.41083
2.39937
2.38846
2.37744
2.36642
2.35574
2.34443
2.32997
2.31179
2.29158
1.80682
0.967383
0.691817
0.629488
0.624235
0.639058
0.659437
0.679369
0.697519
0.714786
0.731748
0.748402
0.764514
0.77987
0.79448
0.808565
0.821803
0.833493
0.844681
0.85515
0.865431
0.875611
0.885328
0.89502
0.904742
0.914642
0.925616
0.937243
0.948491
0.959859
0.970186
0.978756
0.98552
0.990093
0.992357
0.991171
0.983377
0.967232
0.941875
0.904403
0.853613
0.790475
0.717894
0.64135
0.569929
0.50828
0.457697
0.414214
0.377288
0.345569
0.317653
0.293087
0.270408
0.249442
0.230378
0.212641
0.195418
0.178978
0.163097
0.147332
0.131305
0.114576
0.0972523
0.0796064
0.0631108
0.0466526
0.0442938
2.5983
2.59829
2.5983
2.59832
2.59837
2.59844
2.59853
2.59861
2.59872
2.59882
2.59885
2.59887
2.59885
2.59878
2.59864
2.59835
2.59788
2.59719
2.59623
2.59494
2.59322
2.59105
2.58835
2.58507
2.58113
2.57652
2.5712
2.56514
2.55835
2.55081
2.54259
2.53369
2.52419
2.51412
2.5036
2.49262
2.48136
2.46981
2.45812
2.44633
2.43461
2.42297
2.41138
2.40003
2.38921
2.37816
2.36712
2.35673
2.34531
2.33183
2.31879
2.31238
1.84581
0.986233
0.705394
0.639756
0.632739
0.645098
0.664261
0.683499
0.701472
0.718676
0.735497
0.75197
0.768032
0.783354
0.798114
0.812302
0.825581
0.837536
0.848854
0.859789
0.870175
0.88077
0.890752
0.901033
0.911346
0.922034
0.933722
0.945677
0.956669
0.966627
0.974306
0.979828
0.983222
0.98426
0.982272
0.973007
0.956743
0.930153
0.89245
0.842506
0.778376
0.70744
0.63715
0.57273
0.517049
0.470676
0.431357
0.39628
0.365235
0.337223
0.311467
0.288171
0.266387
0.24595
0.227106
0.209452
0.192315
0.175794
0.159669
0.143791
0.128206
0.112818
0.0983367
0.0840704
0.0730577
0.0624113
0.0667196
2.5983
2.59829
2.5983
2.59832
2.59837
2.59844
2.59853
2.59862
2.59873
2.59882
2.59887
2.59888
2.59888
2.59882
2.59866
2.59837
2.59794
2.59725
2.59631
2.59502
2.59333
2.59118
2.58852
2.58526
2.58137
2.57681
2.57153
2.56551
2.55876
2.55128
2.5431
2.53425
2.5248
2.51476
2.50427
2.49334
2.4821
2.47058
2.45894
2.44719
2.43545
2.42383
2.41239
2.40134
2.39038
2.37938
2.36862
2.35831
2.34622
2.3316
2.31611
2.3011
1.83358
0.981292
0.70081
0.633883
0.625979
0.636767
0.656576
0.676347
0.694951
0.71285
0.730409
0.747672
0.764744
0.781223
0.79725
0.812429
0.826565
0.839466
0.851812
0.863941
0.875139
0.886152
0.896792
0.907729
0.91912
0.930237
0.941587
0.951803
0.96062
0.968245
0.973328
0.975951
0.976127
0.970019
0.957947
0.935627
0.901602
0.85287
0.792443
0.721185
0.64798
0.579523
0.523782
0.481051
0.445749
0.414865
0.387047
0.361135
0.337546
0.315375
0.293891
0.273607
0.254026
0.235386
0.217927
0.201233
0.184771
0.169131
0.154408
0.140065
0.126815
0.113746
0.103194
0.0924537
0.0863202
0.0795728
0.0867484
2.5983
2.59829
2.5983
2.59833
2.59838
2.59844
2.59853
2.59862
2.59873
2.59883
2.59888
2.5989
2.59889
2.59884
2.59871
2.59843
2.59801
2.59735
2.59642
2.59515
2.59351
2.5914
2.58878
2.58558
2.58173
2.57722
2.57201
2.56607
2.55939
2.552
2.54389
2.53512
2.52573
2.51578
2.50533
2.49447
2.48327
2.47181
2.4602
2.44846
2.43667
2.42515
2.41401
2.40287
2.39193
2.38128
2.37079
2.36035
2.34831
2.33417
2.3171
2.2865
1.78937
0.958492
0.683376
0.617323
0.60918
0.619284
0.640021
0.661369
0.682246
0.703075
0.723651
0.743863
0.763394
0.78222
0.800248
0.817029
0.832769
0.847682
0.862125
0.875986
0.889187
0.901537
0.913083
0.924465
0.935862
0.945564
0.953965
0.959957
0.965061
0.968865
0.970225
0.966155
0.956865
0.939992
0.911485
0.869493
0.813351
0.74336
0.667074
0.592688
0.528779
0.481687
0.447413
0.419378
0.395003
0.372812
0.351578
0.331805
0.313067
0.294765
0.276436
0.258879
0.241964
0.225659
0.209796
0.194264
0.179309
0.165041
0.151585
0.13888
0.127694
0.117371
0.110444
0.102882
0.100723
0.0964515
0.105028
2.59831
2.59829
2.5983
2.59833
2.59838
2.59844
2.59854
2.59862
2.59873
2.59884
2.5989
2.59894
2.59894
2.59889
2.59877
2.59853
2.59811
2.59747
2.59659
2.59536
2.59375
2.5917
2.58914
2.58601
2.58225
2.57785
2.57271
2.56687
2.56031
2.55302
2.54504
2.53639
2.5271
2.51726
2.5069
2.49613
2.48498
2.47362
2.46203
2.4503
2.43854
2.42715
2.41589
2.4046
2.39368
2.38328
2.37279
2.36224
2.35042
2.33603
2.31582
2.2703
1.74335
0.934265
0.665755
0.60234
0.595015
0.606699
0.62966
0.654986
0.680513
0.705479
0.729728
0.752851
0.774985
0.79623
0.816285
0.834778
0.851871
0.868232
0.883989
0.898419
0.911953
0.924174
0.934714
0.943953
0.952743
0.959913
0.964601
0.966012
0.967007
0.966055
0.958495
0.944065
0.9195
0.881887
0.829983
0.762037
0.686249
0.611237
0.541034
0.488343
0.451163
0.422702
0.39975
0.379284
0.360446
0.342448
0.325307
0.309318
0.293393
0.277296
0.261511
0.246432
0.231783
0.217263
0.202899
0.188847
0.17542
0.162708
0.150792
0.139531
0.130797
0.123094
0.119328
0.114342
0.115009
0.112512
0.121727
2.59831
2.59829
2.59831
2.59833
2.59838
2.59845
2.59854
2.59865
2.59874
2.59885
2.59894
2.59897
2.59899
2.59895
2.59884
2.59861
2.59824
2.59766
2.59679
2.59562
2.59409
2.5921
2.58963
2.58658
2.58294
2.57865
2.57366
2.56795
2.56153
2.55439
2.54657
2.53805
2.52893
2.51924
2.50902
2.49836
2.48733
2.47603
2.4645
2.45288
2.4412
2.42958
2.4181
2.40689
2.39588
2.38502
2.37417
2.36317
2.35096
2.33524
2.31178
2.25574
1.71139
0.918623
0.655249
0.596666
0.592542
0.609163
0.635535
0.664526
0.693568
0.721443
0.748543
0.77432
0.79902
0.822824
0.845333
0.865549
0.883388
0.900355
0.915923
0.929407
0.941244
0.951256
0.95935
0.965565
0.970647
0.973399
0.972417
0.969604
0.961721
0.949101
0.927945
0.89455
0.846938
0.784227
0.710949
0.635112
0.561889
0.5058
0.465541
0.434801
0.410896
0.390198
0.371505
0.354191
0.337864
0.322103
0.307084
0.292513
0.277875
0.263774
0.250236
0.236922
0.223683
0.210382
0.197515
0.185127
0.173334
0.161901
0.151598
0.142112
0.135621
0.130378
0.129083
0.1261
0.128791
0.127635
0.137024
2.59831
2.59829
2.59831
2.59835
2.59838
2.59847
2.59854
2.59865
2.59877
2.59888
2.59897
2.59902
2.59905
2.59902
2.59894
2.59875
2.59841
2.59787
2.59707
2.59596
2.59449
2.59261
2.59023
2.58732
2.58383
2.57967
2.57485
2.56933
2.5631
2.55616
2.54853
2.54023
2.5313
2.52178
2.51176
2.50126
2.4904
2.47916
2.46773
2.45623
2.44452
2.43274
2.4211
2.4099
2.39853
2.38708
2.37559
2.36435
2.35151
2.33409
2.30886
2.25028
1.70568
0.916235
0.655763
0.599681
0.600835
0.624194
0.654519
0.687638
0.720384
0.751782
0.782685
0.812182
0.840263
0.866742
0.891172
0.911635
0.92927
0.944078
0.957552
0.967966
0.976601
0.983742
0.987573
0.988909
0.987105
0.983946
0.973745
0.96124
0.939929
0.908556
0.86407
0.804809
0.733872
0.658755
0.587361
0.528515
0.485803
0.455017
0.430989
0.409941
0.390423
0.372317
0.35515
0.339105
0.323811
0.309213
0.295045
0.28103
0.267397
0.254555
0.242135
0.229869
0.217839
0.20601
0.194568
0.183153
0.172538
0.162493
0.153809
0.145887
0.141637
0.138511
0.139221
0.137713
0.141872
0.141797
0.151092
2.59831
2.5983
2.59831
2.59835
2.59839
2.59847
2.59855
2.59866
2.59878
2.5989
2.59901
2.59908
2.59912
2.59912
2.59906
2.5989
2.5986
2.59812
2.59737
2.59635
2.595
2.59322
2.59098
2.58823
2.58489
2.58093
2.57633
2.57102
2.56503
2.55834
2.55097
2.54292
2.53427
2.525
2.51522
2.50493
2.49426
2.48323
2.47191
2.4604
2.44871
2.43694
2.42519
2.41354
2.40176
2.3899
2.37784
2.36586
2.35201
2.33352
2.30854
2.25516
1.72961
0.932037
0.667375
0.612499
0.621342
0.654716
0.69249
0.732262
0.769846
0.805473
0.841
0.873961
0.90312
0.928201
0.950098
0.966687
0.980699
0.991943
1.00027
1.00638
1.00948
1.01163
1.00878
1.00286
0.989594
0.975505
0.953833
0.920923
0.877848
0.82192
0.753643
0.679887
0.609021
0.548742
0.506363
0.476436
0.453627
0.434569
0.416945
0.399489
0.381581
0.363731
0.346575
0.330331
0.315157
0.300781
0.286989
0.273843
0.261432
0.249411
0.237504
0.225667
0.214235
0.203221
0.192972
0.182833
0.173611
0.164757
0.157542
0.150933
0.148457
0.147243
0.149395
0.148993
0.154175
0.155018
0.164045
2.59831
2.5983
2.59831
2.59835
2.59841
2.59848
2.59856
2.59867
2.59879
2.59894
2.59906
2.59916
2.59922
2.59923
2.59919
2.59908
2.59884
2.59842
2.59777
2.59684
2.5956
2.59396
2.59189
2.58933
2.58619
2.58247
2.57811
2.5731
2.56739
2.56103
2.55397
2.54628
2.53792
2.52901
2.51952
2.50954
2.49912
2.48833
2.47718
2.46574
2.45408
2.44238
2.43045
2.41839
2.40623
2.39419
2.38133
2.36806
2.35277
2.33184
2.30291
2.24773
1.78351
0.974602
0.695413
0.645349
0.66335
0.708763
0.756276
0.802776
0.8442
0.882397
0.917371
0.947152
0.969636
0.987889
1.00345
1.01408
1.02228
1.03036
1.03021
1.03235
1.02603
1.01962
1.00489
0.987514
0.962161
0.927703
0.885099
0.828897
0.762132
0.691791
0.624084
0.562691
0.520503
0.492508
0.472943
0.456869
0.442268
0.427868
0.412887
0.396638
0.379455
0.361372
0.343917
0.327559
0.312208
0.297553
0.283649
0.270491
0.25802
0.246223
0.234942
0.223948
0.2134
0.203116
0.193598
0.184226
0.17603
0.168249
0.162365
0.156844
0.155702
0.156202
0.159413
0.159869
0.165741
0.167343
0.175981
2.59831
2.5983
2.59831
2.59836
2.59841
2.59848
2.59859
2.59868
2.59882
2.59896
2.59911
2.59923
2.59933
2.59936
2.59936
2.5993
2.59912
2.59877
2.59823
2.59742
2.59631
2.59483
2.59295
2.59061
2.58773
2.58429
2.58023
2.57556
2.57021
2.56423
2.55755
2.55028
2.54234
2.53385
2.52476
2.51519
2.50513
2.49465
2.48379
2.47257
2.46109
2.44934
2.43735
2.42513
2.4127
2.4002
2.38654
2.37256
2.35513
2.33178
2.29286
2.17689
1.80792
1.07479
0.756991
0.714097
0.738595
0.789035
0.838537
0.884334
0.923336
0.958144
0.985364
1.00519
1.0188
1.02814
1.03817
1.04267
1.04571
1.04727
1.03903
1.03243
1.01569
0.993539
0.964758
0.927726
0.879874
0.820655
0.755887
0.688624
0.623506
0.565269
0.525153
0.49953
0.483062
0.471365
0.461378
0.451336
0.440316
0.427347
0.413082
0.397655
0.380318
0.3613
0.342759
0.325904
0.310588
0.296296
0.282957
0.270267
0.258039
0.24631
0.235116
0.224392
0.214284
0.204619
0.195878
0.187322
0.180098
0.173167
0.168333
0.163679
0.163433
0.165193
0.16923
0.170358
0.176665
0.178847
0.187022
2.59832
2.5983
2.59832
2.59836
2.59842
2.59849
2.59859
2.59871
2.59884
2.599
2.59915
2.5993
2.59945
2.59953
2.59957
2.59954
2.59942
2.59918
2.59876
2.59809
2.59714
2.59585
2.5942
2.59211
2.58954
2.58642
2.58274
2.57846
2.57356
2.56802
2.56185
2.55505
2.54766
2.53966
2.53113
2.52205
2.51249
2.50245
2.49201
2.4812
2.47001
2.45849
2.44663
2.4345
2.42195
2.40897
2.39526
2.38076
2.36071
2.33518
2.28821
2.16392
1.81677
1.21619
0.865396
0.820608
0.839822
0.879713
0.922742
0.961695
0.993634
1.0174
1.0317
1.03858
1.04636
1.04535
1.05223
1.04937
1.04976
1.03266
1.018
0.989529
0.957417
0.914563
0.861997
0.801384
0.737073
0.670932
0.606611
0.553809
0.517619
0.494642
0.48146
0.473548
0.468296
0.462895
0.457401
0.450131
0.440584
0.429626
0.416904
0.401887
0.384641
0.365732
0.346892
0.329277
0.313206
0.298396
0.284793
0.271977
0.259786
0.248276
0.237407
0.227023
0.21728
0.208044
0.199799
0.191822
0.18538
0.179142
0.175187
0.171272
0.171599
0.174155
0.178832
0.180515
0.187066
0.189644
0.197337
2.59832
2.59831
2.59832
2.59837
2.59843
2.5985
2.59861
2.59873
2.59888
2.59903
2.59921
2.59938
2.59957
2.59971
2.59981
2.59983
2.5998
2.59965
2.59935
2.59885
2.59809
2.59703
2.59564
2.59384
2.59161
2.58886
2.58562
2.5818
2.57741
2.57243
2.56684
2.56067
2.5539
2.54656
2.53867
2.53026
2.52136
2.51198
2.50217
2.49198
2.48136
2.47038
2.45904
2.44729
2.43505
2.42259
2.40983
2.39482
2.37417
2.34891
2.29309
2.17104
1.7817
1.31447
0.987398
0.935434
0.937832
0.964106
0.997981
1.02095
1.04048
1.04488
1.04887
1.04385
1.05211
1.04083
1.04258
1.02591
1.009
0.974761
0.934071
0.88539
0.828742
0.768613
0.703883
0.639746
0.579658
0.533319
0.500403
0.481722
0.471589
0.466414
0.464118
0.463115
0.461839
0.459338
0.455486
0.449222
0.441378
0.431697
0.419771
0.405379
0.388622
0.36986
0.350873
0.333099
0.317053
0.302281
0.28866
0.275793
0.263592
0.25215
0.241385
0.231217
0.221768
0.212905
0.205097
0.197631
0.191853
0.186172
0.182937
0.179674
0.18036
0.183232
0.188316
0.190433
0.197074
0.199871
0.207098
2.59832
2.59831
2.59832
2.59837
2.59843
2.59853
2.59862
2.59876
2.59891
2.59909
2.59929
2.59948
2.5997
2.59989
2.60006
2.60017
2.60022
2.60018
2.60003
2.59971
2.59918
2.59836
2.59727
2.59581
2.59397
2.59169
2.58892
2.58568
2.58189
2.57757
2.57266
2.56723
2.56122
2.55469
2.5476
2.54
2.53191
2.52352
2.51463
2.50532
2.49559
2.4855
2.47493
2.46415
2.45351
2.44315
2.4319
2.41725
2.40181
2.37924
2.31898
2.15902
1.74387
1.32684
1.09292
1.04105
1.02691
1.02681
1.04991
1.04532
1.05812
1.0361
1.03919
1.02248
1.02561
0.998475
0.981853
0.944725
0.896879
0.840691
0.780796
0.716718
0.655533
0.593755
0.544375
0.506327
0.479379
0.464411
0.456672
0.454405
0.453822
0.454669
0.456081
0.457049
0.45715
0.456191
0.453053
0.448356
0.442071
0.433535
0.422573
0.409192
0.393474
0.375666
0.356824
0.338853
0.322656
0.307805
0.294167
0.281345
0.269241
0.257923
0.247241
0.237219
0.227892
0.219229
0.21167
0.204558
0.199255
0.194016
0.191378
0.188694
0.189669
0.192456
0.197715
0.200161
0.206779
0.209662
0.216457
2.59833
2.59831
2.59835
2.59838
2.59844
2.59854
2.59865
2.59879
2.59895
2.59914
2.59936
2.5996
2.59984
2.6001
2.60034
2.60056
2.60072
2.6008
2.60079
2.60067
2.60038
2.59986
2.5991
2.59803
2.59664
2.59485
2.59264
2.59006
2.587
2.5834
2.57929
2.57471
2.56965
2.56406
2.55794
2.55135
2.54438
2.53726
2.52961
2.52153
2.5129
2.50397
2.49478
2.48622
2.47738
2.46928
2.45934
2.44798
2.43497
2.4101
2.32408
2.13028
1.5782
1.29044
1.14591
1.10592
1.08667
1.06866
1.06321
1.03132
1.03262
0.997398
0.994205
0.956478
0.937155
0.891262
0.843136
0.780711
0.71809
0.656095
0.594818
0.545236
0.506592
0.476351
0.457821
0.446933
0.441474
0.44176
0.443143
0.446352
0.448833
0.451462
0.453757
0.454667
0.45499
0.454015
0.451369
0.447682
0.442121
0.434461
0.424496
0.412187
0.397619
0.381002
0.36279
0.344612
0.328242
0.313325
0.299698
0.286972
0.275039
0.263961
0.25352
0.243823
0.234716
0.226325
0.219007
0.212212
0.207289
0.202429
0.200303
0.198087
0.199325
0.201771
0.207008
0.209738
0.216267
0.219136
0.225485
2.59833
2.59832
2.59835
2.59838
2.59847
2.59855
2.59867
2.59883
2.599
2.5992
2.59944
2.59972
2.60001
2.60031
2.60064
2.60096
2.60126
2.6015
2.60166
2.60176
2.60171
2.60152
2.60115
2.60052
2.59962
2.59842
2.59687
2.59503
2.59277
2.59
2.58681
2.58323
2.57934
2.57486
2.5699
2.56454
2.55909
2.55338
2.54726
2.54066
2.53327
2.52602
2.51905
2.51266
2.50598
2.49951
2.49246
2.48572
2.47288
2.44095
2.32176
2.03847
1.49479
1.25238
1.17471
1.15205
1.13781
1.12072
1.10126
1.05243
1.00112
0.938767
0.891702
0.82498
0.776193
0.709476
0.651322
0.589107
0.538235
0.499119
0.46945
0.450404
0.438691
0.431509
0.429098
0.430125
0.430656
0.434304
0.437716
0.442133
0.445937
0.449049
0.451119
0.452052
0.452686
0.451991
0.450197
0.447199
0.442387
0.435638
0.426671
0.415417
0.401981
0.386508
0.369287
0.351567
0.335164
0.320231
0.306611
0.293945
0.282142
0.271274
0.261003
0.251553
0.242539
0.234313
0.227084
0.22048
0.215775
0.211206
0.209479
0.207632
0.209135
0.211135
0.216229
0.219206
0.22558
0.228342
0.234278
2.59833
2.59832
2.59836
2.59841
2.59847
2.59856
2.5987
2.59885
2.59906
2.59929
2.59955
2.59985
2.60019
2.60057
2.60097
2.60139
2.60184
2.60225
2.60264
2.60298
2.60324
2.60338
2.6034
2.60327
2.60294
2.60242
2.60159
2.60053
2.59912
2.59736
2.59525
2.59288
2.5902
2.58711
2.5835
2.57961
2.57575
2.57171
2.56729
2.56236
2.5568
2.5517
2.54697
2.54259
2.53777
2.53293
2.52985
2.52389
2.50947
2.46206
2.28801
1.90122
1.40263
1.22959
1.17726
1.16134
1.14766
1.12404
1.08076
1.00561
0.903256
0.806049
0.716786
0.641459
0.58087
0.530507
0.494143
0.465836
0.445497
0.432603
0.424355
0.420485
0.419605
0.419837
0.420723
0.42585
0.43036
0.43545
0.439455
0.443323
0.446889
0.449455
0.451194
0.451773
0.451843
0.450951
0.449319
0.446504
0.442214
0.436202
0.42821
0.418091
0.405779
0.391392
0.375154
0.357921
0.341513
0.326588
0.313012
0.300465
0.288855
0.27826
0.268259
0.259163
0.250356
0.242426
0.23535
0.22898
0.22446
0.220171
0.218812
0.217256
0.21901
0.22054
0.22542
0.228568
0.234744
0.237362
0.242915
2.59836
2.59834
2.59836
2.59841
2.59848
2.59859
2.59872
2.5989
2.59911
2.59936
2.59966
2.60001
2.60041
2.60084
2.60134
2.60187
2.60245
2.60306
2.60369
2.60428
2.60489
2.60544
2.60595
2.60635
2.60662
2.60679
2.60675
2.60656
2.60618
2.60556
2.60466
2.60361
2.60235
2.60081
2.59882
2.59664
2.59446
2.59229
2.58978
2.58696
2.58368
2.5808
2.5781
2.57554
2.57258
2.5706
2.56924
2.56439
2.54831
2.47984
2.25724
1.75021
1.34251
1.22001
1.17227
1.15393
1.12984
1.0844
1.00572
0.880015
0.743694
0.619345
0.52533
0.475215
0.448505
0.433352
0.423807
0.41784
0.414417
0.413439
0.413338
0.413592
0.416701
0.420575
0.423966
0.428233
0.432275
0.436448
0.440331
0.443995
0.447003
0.449378
0.450917
0.451671
0.451787
0.451066
0.449565
0.447118
0.443311
0.437898
0.430657
0.421432
0.410176
0.396936
0.38191
0.365528
0.349282
0.334324
0.320692
0.308163
0.296634
0.286229
0.276383
0.267523
0.258836
0.251151
0.24415
0.237929
0.233482
0.22939
0.228319
0.226943
0.228858
0.229969
0.234598
0.237852
0.2438
0.246247
0.251417
2.59836
2.59835
2.59837
2.59842
2.59849
2.59861
2.59876
2.59894
2.59917
2.59944
2.59978
2.60017
2.60063
2.60115
2.60174
2.6024
2.60314
2.60394
2.60481
2.60573
2.60668
2.60767
2.60868
2.60968
2.61065
2.61156
2.61245
2.61325
2.61396
2.61458
2.61507
2.61537
2.61559
2.61562
2.61563
2.61546
2.61507
2.61475
2.61449
2.61396
2.61323
2.61256
2.61184
2.611
2.61031
2.61021
2.6102
2.60576
2.58586
2.4942
2.23245
1.66304
1.33449
1.22156
1.17057
1.13127
1.08576
1.00237
0.875422
0.718467
0.567336
0.458679
0.412253
0.400946
0.398354
0.400552
0.40226
0.404641
0.40607
0.409553
0.413641
0.417452
0.421219
0.425127
0.428941
0.432903
0.436623
0.439995
0.443342
0.446143
0.448915
0.450898
0.452332
0.452976
0.453065
0.452339
0.450797
0.448419
0.444859
0.439837
0.433117
0.424546
0.414067
0.401717
0.387675
0.372218
0.356459
0.341542
0.327969
0.315573
0.304212
0.294026
0.28441
0.275872
0.267388
0.26002
0.253113
0.247046
0.242643
0.238728
0.237907
0.236641
0.23861
0.239426
0.243804
0.247079
0.252759
0.255009
0.259807
2.59837
2.59835
2.59837
2.59843
2.59851
2.59862
2.59878
2.59898
2.59924
2.59954
2.5999
2.60035
2.60087
2.60147
2.60217
2.60297
2.60387
2.60489
2.60601
2.60727
2.60861
2.61006
2.61162
2.61328
2.61497
2.61674
2.61863
2.62048
2.62236
2.62436
2.62638
2.62817
2.63002
2.63218
2.63423
2.63607
2.63765
2.63929
2.64153
2.64393
2.64588
2.64756
2.64887
2.64967
2.65075
2.65095
2.65028
2.64312
2.60719
2.49044
2.13396
1.62952
1.33979
1.21932
1.15037
1.09261
1.00385
0.874313
0.71136
0.54985
0.431852
0.389686
0.379098
0.38452
0.389654
0.395285
0.400396
0.405528
0.409987
0.414171
0.418433
0.422689
0.427009
0.430976
0.435021
0.438791
0.442257
0.445016
0.447898
0.44961
0.45199
0.453725
0.455103
0.455692
0.455809
0.455119
0.453535
0.451167
0.447774
0.443141
0.43696
0.429042
0.419279
0.407703
0.394496
0.379901
0.364612
0.349765
0.336142
0.323799
0.312512
0.302453
0.292964
0.284656
0.276337
0.26926
0.262388
0.256425
0.252009
0.24822
0.247568
0.246351
0.248258
0.248904
0.253039
0.256242
0.261629
0.263695
0.268155
2.59837
2.59836
2.59838
2.59844
2.59853
2.59866
2.59883
2.59903
2.59931
2.59964
2.60005
2.60053
2.60112
2.60182
2.60263
2.60358
2.60467
2.60591
2.60734
2.60892
2.61068
2.61263
2.61478
2.61712
2.6196
2.6223
2.62524
2.6282
2.63138
2.63488
2.63853
2.64204
2.64554
2.64949
2.65396
2.6583
2.66235
2.66575
2.66976
2.6749
2.68035
2.68498
2.68916
2.69223
2.69556
2.69706
2.69728
2.69251
2.6398
2.51656
2.02713
1.63825
1.33885
1.20418
1.10939
1.01679
0.879393
0.712549
0.54563
0.424562
0.384024
0.37322
0.381703
0.389277
0.39717
0.404251
0.409762
0.414111
0.41801
0.422126
0.426359
0.430659
0.434976
0.439104
0.442884
0.446008
0.44877
0.450729
0.453168
0.453863
0.455892
0.457341
0.458664
0.459164
0.459295
0.458685
0.457155
0.454731
0.45138
0.446889
0.441029
0.433607
0.424452
0.413578
0.401108
0.387295
0.372583
0.35804
0.344421
0.332165
0.320942
0.31098
0.30162
0.293533
0.285392
0.278612
0.271776
0.265916
0.261479
0.257796
0.257233
0.256048
0.257836
0.258424
0.26231
0.265369
0.270418
0.272295
0.276376
2.59838
2.59836
2.5984
2.59846
2.59855
2.59868
2.59885
2.59908
2.59938
2.59974
2.60019
2.60073
2.6014
2.60218
2.60312
2.60422
2.60551
2.60701
2.60871
2.61067
2.61288
2.61535
2.61812
2.62118
2.62452
2.62822
2.63225
2.63641
2.64095
2.64592
2.65127
2.6568
2.66232
2.66782
2.6739
2.68099
2.68795
2.69438
2.69991
2.70638
2.71443
2.72272
2.73094
2.73824
2.74403
2.74759
2.74873
2.74251
2.66049
2.54913
1.83698
1.63866
1.31943
1.15972
1.03906
0.890496
0.7189
0.547252
0.424899
0.386518
0.375531
0.386121
0.394304
0.403056
0.410762
0.417257
0.422668
0.427146
0.430575
0.433648
0.436659
0.439822
0.443145
0.446817
0.450638
0.453888
0.456975
0.458717
0.460938
0.460529
0.462014
0.462841
0.463944
0.464154
0.464123
0.463479
0.461944
0.459424
0.455984
0.451551
0.445924
0.438891
0.430283
0.420043
0.408282
0.395205
0.381122
0.366897
0.353271
0.34107
0.329851
0.319951
0.310668
0.30273
0.294719
0.288155
0.281354
0.275578
0.271098
0.267476
0.266923
0.265737
0.267376
0.267968
0.271585
0.274431
0.279115
0.280837
0.284649
2.59838
2.59837
2.59841
2.59847
2.59856
2.59871
2.5989
2.59914
2.59947
2.59985
2.60035
2.60095
2.60169
2.60258
2.60364
2.60491
2.60641
2.60816
2.61018
2.61252
2.61519
2.61822
2.62164
2.62542
2.62964
2.63434
2.63946
2.64491
2.65091
2.6573
2.66415
2.67156
2.67941
2.68723
2.69469
2.70323
2.71335
2.72307
2.73228
2.7405
2.74845
2.75819
2.77108
2.78232
2.78916
2.79229
2.78878
2.76426
2.63214
2.47159
1.70293
1.62801
1.25983
1.07217
0.915661
0.731289
0.555225
0.430098
0.392972
0.382464
0.394161
0.402176
0.411416
0.419361
0.42608
0.431696
0.436309
0.440299
0.443501
0.445979
0.448153
0.450347
0.452892
0.45598
0.459426
0.462742
0.466115
0.467856
0.469974
0.469047
0.470138
0.470009
0.470766
0.470556
0.470214
0.469428
0.467842
0.465212
0.461584
0.457066
0.4515
0.444686
0.43646
0.426709
0.415513
0.403071
0.389642
0.375877
0.362375
0.350216
0.338962
0.329099
0.319858
0.312029
0.304133
0.297709
0.290971
0.285275
0.280774
0.277207
0.276631
0.275425
0.276893
0.277544
0.280862
0.283477
0.287777
0.289343
0.292788
2.59839
2.59837
2.59842
2.59848
2.59859
2.59873
2.59895
2.5992
2.59954
2.59997
2.60052
2.60117
2.60199
2.60298
2.60417
2.60562
2.60732
2.60935
2.6117
2.61444
2.61757
2.62116
2.62526
2.62978
2.6349
2.6406
2.6468
2.65351
2.66101
2.66904
2.67718
2.68629
2.69623
2.70661
2.71656
2.72632
2.73784
2.75149
2.76382
2.77529
2.78467
2.796
2.81008
2.82739
2.83927
2.84705
2.85497
2.80244
2.72548
2.1851
1.84147
1.4678
1.15164
0.951982
0.750449
0.563814
0.434833
0.39774
0.390024
0.401965
0.41051
0.419589
0.427487
0.434307
0.439917
0.444816
0.448886
0.452376
0.455577
0.458105
0.46039
0.462184
0.46375
0.46586
0.46839
0.471134
0.474596
0.476671
0.479287
0.478818
0.479997
0.478999
0.479363
0.478624
0.477952
0.476814
0.475075
0.472261
0.468371
0.463618
0.457946
0.451188
0.443178
0.433805
0.423091
0.411192
0.398329
0.385067
0.371796
0.359661
0.348359
0.338517
0.32929
0.321519
0.313706
0.307341
0.300676
0.295037
0.290535
0.287003
0.286368
0.285113
0.286367
0.287109
0.29011
0.292478
0.296374
0.297806
0.30106
2.59841
2.59838
2.59843
2.59849
2.59861
2.59877
2.59899
2.59926
2.59964
2.60011
2.60067
2.60141
2.6023
2.6034
2.60474
2.60636
2.60829
2.61057
2.61324
2.61638
2.61999
2.62416
2.62888
2.63419
2.64017
2.64689
2.65418
2.66217
2.67109
2.68077
2.69054
2.70108
2.7129
2.72557
2.73829
2.74971
2.76285
2.77877
2.79451
2.80818
2.81873
2.83291
2.85064
2.86615
2.87141
2.87037
2.85083
2.73371
2.64854
1.87485
1.77131
1.2391
0.975678
0.772997
0.574491
0.442461
0.402905
0.399427
0.411925
0.42124
0.42992
0.437385
0.443674
0.449119
0.453545
0.457317
0.460843
0.463875
0.466753
0.469403
0.471398
0.473998
0.47543
0.476617
0.47809
0.479922
0.482923
0.484867
0.48764
0.487766
0.489414
0.488447
0.488867
0.487744
0.487042
0.485494
0.483571
0.480493
0.476316
0.471264
0.465363
0.4585
0.450537
0.441381
0.431034
0.419584
0.407195
0.394412
0.381422
0.369409
0.358033
0.348187
0.338936
0.331158
0.323386
0.317003
0.310412
0.304837
0.300369
0.29686
0.296125
0.294803
0.295827
0.296697
0.299375
0.301497
0.304989
0.30628
0.309206
2.59842
2.5984
2.59843
2.59852
2.59864
2.5988
2.59903
2.59933
2.59972
2.60023
2.60087
2.60165
2.60264
2.60385
2.60532
2.6071
2.60925
2.61179
2.61482
2.61834
2.62243
2.62715
2.63252
2.63859
2.64545
2.65311
2.6615
2.67072
2.68089
2.69198
2.70377
2.71584
2.72901
2.74349
2.75866
2.77368
2.78789
2.80405
2.82291
2.83958
2.85382
2.8723
2.89548
2.91166
2.92114
2.9297
2.87028
2.8484
2.1814
1.99925
1.38414
1.00667
0.796367
0.59139
0.454604
0.412043
0.409219
0.422574
0.432591
0.441552
0.448818
0.454637
0.45933
0.463329
0.466799
0.469615
0.47231
0.475326
0.477584
0.480414
0.48222
0.484376
0.48666
0.487883
0.48841
0.488946
0.491306
0.493045
0.495592
0.496049
0.49814
0.497536
0.498372
0.496995
0.496652
0.494923
0.493075
0.489834
0.485443
0.480071
0.473839
0.466732
0.458648
0.449534
0.439379
0.428249
0.416219
0.403866
0.391179
0.379381
0.36795
0.358083
0.348774
0.340932
0.33317
0.326728
0.320205
0.314693
0.310274
0.306747
0.305883
0.30449
0.30528
0.306248
0.308614
0.310472
0.313561
0.314738
0.317494
2.59843
2.59841
2.59846
2.59853
2.59866
2.59884
2.59908
2.59941
2.59982
2.60036
2.60105
2.60189
2.60297
2.60428
2.60591
2.60786
2.61024
2.61306
2.61639
2.62032
2.62488
2.63013
2.63614
2.64297
2.65068
2.65927
2.66868
2.67915
2.69057
2.70286
2.71628
2.7305
2.74496
2.76063
2.77775
2.79558
2.81295
2.82971
2.84819
2.86737
2.88885
2.91347
2.93401
2.94542
2.95203
2.93621
2.84211
2.62884
2.06248
1.55178
1.03523
0.800898
0.600785
0.462543
0.418213
0.41581
0.430614
0.441464
0.450719
0.45818
0.464088
0.46875
0.472634
0.475855
0.478698
0.481325
0.48291
0.486223
0.48788
0.490884
0.49293
0.494165
0.496478
0.498483
0.498997
0.498441
0.500189
0.501676
0.503742
0.504103
0.50631
0.506256
0.507592
0.506002
0.505942
0.50396
0.502635
0.499808
0.495522
0.490023
0.483459
0.475963
0.467601
0.458355
0.448211
0.437252
0.425452
0.413479
0.401103
0.389574
0.378115
0.368201
0.358781
0.350816
0.343019
0.336496
0.330036
0.324578
0.320186
0.3166
0.315653
0.314217
0.314779
0.315807
0.317867
0.319486
0.322179
0.323266
0.325654
2.59843
2.59842
2.59847
2.59855
2.59868
2.59888
2.59913
2.59947
2.59991
2.60049
2.60123
2.60214
2.60329
2.60473
2.60649
2.60862
2.61121
2.61431
2.61797
2.62229
2.6273
2.63312
2.63976
2.64733
2.65582
2.66533
2.6758
2.68741
2.70004
2.71364
2.72827
2.74426
2.76089
2.77757
2.79582
2.81562
2.83585
2.8545
2.87258
2.89467
2.9222
2.94663
2.96288
2.97261
2.97463
2.89805
2.90483
2.25081
1.82132
1.08522
0.811501
0.617993
0.478475
0.433707
0.428479
0.445627
0.456511
0.465593
0.472491
0.477361
0.481217
0.48428
0.486736
0.488696
0.490244
0.492939
0.493594
0.496631
0.498066
0.500887
0.50292
0.5043
0.505574
0.508047
0.508885
0.508085
0.509587
0.510963
0.512344
0.512235
0.514246
0.514751
0.516564
0.514896
0.515107
0.512915
0.511919
0.509726
0.50603
0.500657
0.493911
0.486125
0.477437
0.467909
0.457616
0.446661
0.434949
0.423302
0.411202
0.399943
0.388504
0.378518
0.368936
0.360823
0.352964
0.346343
0.33992
0.334463
0.330074
0.32643
0.325477
0.323974
0.324303
0.325328
0.327076
0.328482
0.330754
0.331821
0.333843
2.59844
2.59843
2.59848
2.59856
2.59871
2.5989
2.59918
2.59954
2.60001
2.60063
2.60141
2.6024
2.60364
2.60517
2.60708
2.60939
2.61219
2.61555
2.61953
2.62423
2.6297
2.63604
2.6433
2.65157
2.66085
2.67124
2.68271
2.69541
2.70916
2.72415
2.73994
2.75723
2.77564
2.79411
2.81326
2.83419
2.85594
2.87611
2.8969
2.92166
2.94986
2.96945
2.97919
2.98641
2.94555
2.93425
2.44818
2.08353
1.17195
0.822928
0.629126
0.48974
0.441688
0.437843
0.456108
0.468453
0.478585
0.486103
0.491594
0.495297
0.497582
0.499739
0.501664
0.502441
0.502493
0.504637
0.505235
0.507118
0.508929
0.510594
0.512819
0.514499
0.51461
0.517126
0.518338
0.5177
0.519094
0.520823
0.521515
0.520806
0.522378
0.523109
0.525261
0.523707
0.524279
0.521927
0.521107
0.51925
0.5162
0.511098
0.504538
0.496869
0.488032
0.47824
0.467666
0.456559
0.444781
0.433386
0.42149
0.410482
0.399084
0.38904
0.379249
0.370956
0.362989
0.356246
0.34981
0.344321
0.339946
0.336291
0.335406
0.333791
0.333901
0.33489
0.33628
0.337537
0.339356
0.340427
0.341938
2.59845
2.59843
2.59849
2.59859
2.59873
2.59895
2.59924
2.59961
2.60012