/*--------------------------------*- C++ -*----------------------------------*\
| =========                 |                                                 |
| \\      /  F ield         | OpenFOAM: The Open Source CFD Toolbox           |
|  \\    /   O peration     | Version:  2.2.x                                 |
|   \\  /    A nd           | Web:      www.OpenFOAM.org                      |
|    \\/     M anipulation  |                                                 |
\*---------------------------------------------------------------------------*/
FoamFile
{
    version     2.0;
    format      ascii;
    class       surfaceScalarField;
    location    "1.9";
    object      cfmax;
}
// * * * * * * * * * * * * * * * * * * * * * * * * * * * * * * * * * * * * * //

dimensions      [0 3 -1 0 0 0 0];

internalField   nonuniform List<scalar> 
28084
(
0.000747501
0.000744229
0.000741502
0.000739208
0.000737363
0.000735918
0.00073488
0.000734194
0.000733828
0.000733783
0.00073404
0.000734522
0.000735206
0.000736159
0.00073725
0.000738411
0.000739668
0.000741226
0.000742731
0.000744169
0.000745588
0.000747262
0.000748933
0.000750392
0.000751768
0.000752973
0.000754106
0.000755505
0.000756658
0.000757565
0.000758357
0.000758979
0.000759273
0.000759475
0.00075953
0.00075941
0.00075905
0.000758422
0.000757516
0.000756494
0.000755312
0.000753855
0.000752111
0.000749092
0.00074708
0.000745333
0.000437892
0.000396888
0.000397888
0.000404787
0.000414201
0.000423862
0.000435229
0.00044614
0.000457198
0.000468083
0.000478657
0.000488825
0.000498998
0.000508586
0.000517969
0.000526959
0.000535478
0.000543391
0.000550751
0.000557538
0.000563668
0.000569107
0.000573923
0.000578174
0.00058188
0.000584973
0.000587386
0.000589247
0.000590932
0.000592692
0.000593244
0.000593447
0.000593621
0.000593613
0.000592438
0.000590878
0.000589957
0.000587789
0.000584551
0.000582314
0.000579001
0.000576925
0.000571066
0.000569939
0.000567935
0.000565837
0.000563173
0.000560574
0.00056316
0.000562384
0.000564647
0.00056592
0.000567515
0.000569663
0.000575365
0.000578625
0.000583084
0.000584664
0.000589957
0.000577597
0.000558196
0.000526165
0.000497102
0.00047226
0.000456628
0.000445566
0.000439076
0.000434748
0.000433045
0.000432018
0.00043231
0.000432864
0.00144732
0.00144437
0.000751023
0.00143921
0.000750035
0.00143092
0.000749563
0.00141972
0.000749496
0.00140569
0.000749853
0.00138894
0.000750589
0.00136958
0.000751704
0.00134779
0.000753148
0.00132374
0.000754889
0.00129768
0.000756922
0.00126987
0.000759228
0.00124033
0.000761732
0.00120926
0.000764404
0.00117685
0.000767313
0.00114333
0.000770315
0.00110885
0.000773349
0.00107373
0.000776442
0.00103801
0.000779786
0.0010019
0.000783022
0.000965589
0.000786151
0.000929435
0.000789233
0.000893326
0.0007925
0.000857405
0.000795696
0.000821825
0.000798637
0.000786727
0.000801423
0.000752306
0.000803976
0.000718767
0.000806429
0.00068587
0.000809082
0.000653723
0.000811416
0.000622465
0.000813464
0.000592078
0.000815323
0.000562596
0.000816965
0.000534182
0.000818168
0.00050677
0.000819253
0.000480382
0.000820165
0.000455022
0.000820821
0.000430792
0.000821181
0.000407558
0.000821199
0.000385391
0.000820846
0.000364166
0.000820365
0.000343838
0.000819944
0.000324338
0.000818908
0.000305718
0.000817416
0.000288277
0.000814399
0.000290047
0.000812813
0.000286549
0.000806479
0.000288684
0.000474514
0.000289417
0.000429254
0.000292496
0.00043009
0.000294497
0.000437171
0.000297976
0.000446893
0.000300292
0.000456557
0.000302524
0.000467921
0.000304893
0.000478863
0.000307293
0.000489584
0.000309296
0.000500377
0.000311319
0.000510845
0.000313356
0.000520986
0.000315196
0.000531075
0.00031707
0.00054072
0.000318864
0.000550005
0.00032067
0.000558839
0.000322313
0.000567129
0.000323937
0.000574777
0.000325648
0.000581808
0.000327217
0.000588192
0.000328726
0.000593889
0.000330271
0.00059889
0.000331907
0.000603234
0.000333572
0.00060699
0.000335194
0.000610206
0.000336789
0.000612852
0.000338464
0.000614788
0.000340397
0.000616136
0.000342391
0.00061717
0.000344355
0.000618302
0.000346386
0.000618296
0.000348462
0.000617866
0.000350943
0.000617452
0.000353654
0.000616785
0.000356365
0.000615082
0.000359199
0.000613006
0.000361777
0.000611712
0.000364619
0.000609054
0.000367528
0.000605296
0.00037019
0.000602766
0.000373013
0.000599093
0.000375847
0.000596546
0.000378917
0.000590363
0.000382053
0.000589488
0.000385142
0.000587002
0.000388295
0.000584253
0.000391482
0.000581102
0.000394775
0.000577968
0.000398126
0.000580143
0.0004015
0.000579011
0.000405047
0.000580984
0.000408472
0.000581667
0.000412265
0.000582895
0.000416739
0.000584274
0.000421099
0.000588737
0.000425356
0.000591015
0.000429118
0.000594144
0.000431586
0.000591203
0.000432151
0.00059105
0.000432267
0.000573786
0.000431768
0.000555387
0.000422435
0.000520234
0.000411301
0.000491428
0.000401642
0.000466945
0.000394216
0.000451842
0.00038995
0.000441078
0.000388272
0.000434618
0.000389628
0.000430749
0.000391488
0.000429562
0.000395477
0.000429228
0.000398386
0.000430211
0.000407574
0.0004309
0.0014479
0.00144472
0.000755726
0.00143934
0.000756992
0.00143085
0.000758746
0.00141946
0.00076088
0.00140523
0.000763413
0.00138831
0.000766304
0.00136933
0.000769545
0.00134801
0.000773096
0.0013244
0.000776921
0.00129864
0.000781008
0.00127093
0.00078534
0.00124149
0.000789843
0.00121051
0.000794487
0.00117815
0.000799321
0.00114467
0.000804213
0.00111024
0.000809108
0.00107516
0.000814031
0.00103943
0.000819124
0.0010033
0.000824075
0.000967013
0.00082889
0.000930843
0.000833629
0.000894696
0.000838455
0.000858719
0.000843142
0.000823076
0.000847535
0.000787937
0.000851727
0.00075349
0.000855642
0.000719879
0.000859442
0.000686895
0.00086329
0.000654659
0.000866779
0.000623307
0.000869955
0.000592839
0.000872872
0.000563289
0.000875525
0.000534793
0.000877689
0.000507303
0.000879679
0.000480828
0.000881414
0.00045533
0.000882841
0.000430853
0.000883967
0.00040743
0.00088466
0.000385325
0.000884959
0.000364239
0.000885047
0.000344006
0.000885015
0.000324582
0.000884266
0.000306168
0.000883265
0.000288932
0.000880478
0.000292352
0.00087903
0.000289034
0.00086825
0.000290426
0.000512595
0.000291236
0.000462091
0.000296456
0.000462415
0.000300138
0.000470157
0.000304726
0.000480639
0.000307583
0.000490797
0.000309865
0.000502497
0.000311908
0.00051376
0.000313972
0.000524647
0.000315774
0.000535311
0.000317729
0.000545892
0.000319683
0.000555851
0.000321318
0.000566073
0.000322916
0.000575643
0.000324411
0.000584735
0.000325923
0.000593259
0.000327257
0.000601151
0.000328532
0.000608375
0.000329875
0.000614911
0.000331153
0.000620779
0.000332286
0.000625979
0.000333449
0.000630454
0.000334731
0.000634194
0.000336109
0.000637342
0.000337496
0.000639978
0.00033886
0.000642059
0.000340222
0.000643388
0.000341763
0.000644135
0.000343367
0.000644566
0.000345128
0.000645157
0.000346886
0.000644459
0.000349055
0.000643384
0.000351708
0.000642298
0.000354718
0.000640833
0.000357624
0.000638655
0.000360606
0.000636026
0.000363325
0.000634281
0.000366397
0.000631272
0.000369413
0.00062715
0.000372229
0.000624537
0.000375175
0.000620647
0.000378077
0.000617598
0.000380979
0.000611222
0.000384141
0.000610086
0.000387241
0.000607312
0.000390531
0.000604089
0.000393594
0.000600542
0.000396596
0.000596932
0.000399795
0.000598235
0.000402939
0.00059687
0.000406328
0.000597816
0.000409347
0.000597707
0.000412616
0.000597985
0.000416341
0.000598555
0.00042115
0.000600763
0.000424788
0.000600178
0.000427918
0.000601289
0.000427697
0.000587678
0.000428295
0.000585449
0.000431255
0.000562265
0.000436889
0.000533446
0.000436378
0.000502224
0.000427599
0.000478969
0.00041631
0.000460438
0.000407539
0.000447868
0.000402884
0.000437899
0.000400282
0.000432005
0.00040243
0.000428256
0.000404317
0.000427427
0.000409318
0.000427518
0.000412483
0.000429145
0.000423599
0.00043084
0.00144735
0.00144396
0.000761609
0.00143838
0.000765096
0.00142969
0.000769046
0.00141894
0.000773348
0.00140567
0.000778028
0.00138963
0.000783047
0.00137094
0.000788385
0.00134976
0.000794013
0.00132627
0.000799898
0.00130062
0.000806012
0.001273
0.000812343
0.00124364
0.000818818
0.00121273
0.000825414
0.00118041
0.000832142
0.00114694
0.000838901
0.00111256
0.000845642
0.00107749
0.000852388
0.00104171
0.000859176
0.00100556
0.000865828
0.00096927
0.000872333
0.00093304
0.000878723
0.000896823
0.000885061
0.000860765
0.000891181
0.000825045
0.000897033
0.000789862
0.000902619
0.000755356
0.000907975
0.000721606
0.000913113
0.000688496
0.000918059
0.000656156
0.00092266
0.000624684
0.000926943
0.000594126
0.000930904
0.000564481
0.00093457
0.000535888
0.00093774
0.000508288
0.00094064
0.000481695
0.000943218
0.000456089
0.000945489
0.000431498
0.000947364
0.000407899
0.000948724
0.000385366
0.000949694
0.000364094
0.000950393
0.000343995
0.000950716
0.000324712
0.000950561
0.000306574
0.000949866
0.000289443
0.000947099
0.000294154
0.000946159
0.000293434
0.000936066
0.000292239
0.00055151
0.000293586
0.000495158
0.000301179
0.00049568
0.000307145
0.000505391
0.000312754
0.000516422
0.00031646
0.000527589
0.00031879
0.000539772
0.000320397
0.000551591
0.000322072
0.000563037
0.000323587
0.000573713
0.000325245
0.000584445
0.000326919
0.000593891
0.000328326
0.000603929
0.000329717
0.000613053
0.000330839
0.000621561
0.000331907
0.000629405
0.000332747
0.000636531
0.000333518
0.000643107
0.000334314
0.000648906
0.000335172
0.000654131
0.000335962
0.000658705
0.000336662
0.000662564
0.000337503
0.00066571
0.000338557
0.000668237
0.000339653
0.000670261
0.000340744
0.000671728
0.000341878
0.000672486
0.000343078
0.000672593
0.000344429
0.000672451
0.000345866
0.000672626
0.000347274
0.000671332
0.000349764
0.000669703
0.000352471
0.000668158
0.000355658
0.000666043
0.000358738
0.000663468
0.000361764
0.000660331
0.000364712
0.00065837
0.000368008
0.000654988
0.000371151
0.000650574
0.000374138
0.000648032
0.00037724
0.00064396
0.000380121
0.000640258
0.000382856
0.000633678
0.00038609
0.000632119
0.000389263
0.00062885
0.000392608
0.00062517
0.000395552
0.000621171
0.000398133
0.0006172
0.000401376
0.000617704
0.000404315
0.000616278
0.000407377
0.000615768
0.000409918
0.000614161
0.000412852
0.000612553
0.000416156
0.000612079
0.000419537
0.000612741
0.000421609
0.000603343
0.000422076
0.000601818
0.000422612
0.000580754
0.000426719
0.000569378
0.000434773
0.000535483
0.000445507
0.000504661
0.000449368
0.000482011
0.000442717
0.000466192
0.000431172
0.000454181
0.000421967
0.000444435
0.000416216
0.000436247
0.000412624
0.000430937
0.000414607
0.000427221
0.000416183
0.000426405
0.000422065
0.000426561
0.000425757
0.000428857
0.000437822
0.000431595
0.00144569
0.00144274
0.000768673
0.00143864
0.000774346
0.00143138
0.000780456
0.00142116
0.000786892
0.00140805
0.000793685
0.00139216
0.0008008
0.00137362
0.0008082
0.00135256
0.000815877
0.00132918
0.000823791
0.00130363
0.000831905
0.00127608
0.000840203
0.00124678
0.000848622
0.00121592
0.000857146
0.00118361
0.000865735
0.00115016
0.000874328
0.00111579
0.000882911
0.00108068
0.000891451
0.00104486
0.000899896
0.00100868
0.000908209
0.000972348
0.000916418
0.000936011
0.00092444
0.000899687
0.000932226
0.000863535
0.000939748
0.000827747
0.000947004
0.000792502
0.000954091
0.000757896
0.000960855
0.000723943
0.000967267
0.000690661
0.000973289
0.00065819
0.000978969
0.000626595
0.000984326
0.000595937
0.00098937
0.000566191
0.000994028
0.000537467
0.000998272
0.000509739
0.00100212
0.00048301
0.00100557
0.000457285
0.00100866
0.000432545
0.0010113
0.000408812
0.00101342
0.000386103
0.00101507
0.000364363
0.00101639
0.000343886
0.00101724
0.000324808
0.00101781
0.000306895
0.00101749
0.000289982
0.00101534
0.000296686
0.00101484
0.000299196
0.00100828
0.000294304
0.000593603
0.0002973
0.000529753
0.000307365
0.000531349
0.000315913
0.000544413
0.000322352
0.00055605
0.00032691
0.000569598
0.000329777
0.000581911
0.000331032
0.000593934
0.000332492
0.000605089
0.000333356
0.000614956
0.000334357
0.000625258
0.000335201
0.000634443
0.000335883
0.000643754
0.000336643
0.000652073
0.000337065
0.000659789
0.000337609
0.000666838
0.000337827
0.000672903
0.00033796
0.000679026
0.000338132
0.000684154
0.000338521
0.000688547
0.000338886
0.00069257
0.000339262
0.000695768
0.000339718
0.000698372
0.000340397
0.000700344
0.000341226
0.000701762
0.000342034
0.000702665
0.00034284
0.000702846
0.000343825
0.000702355
0.000344985
0.000701517
0.000346126
0.000701317
0.000348378
0.000699622
0.000351366
0.000697618
0.000354229
0.000695882
0.000357608
0.000693461
0.000360818
0.000690721
0.000363913
0.000687086
0.000367094
0.000686348
0.000370553
0.000682268
0.000373833
0.000676911
0.000376988
0.000675059
0.000380223
0.000670255
0.000383141
0.000665261
0.000385731
0.000658478
0.000388972
0.000656952
0.000392199
0.000653004
0.000395505
0.000648364
0.00039836
0.000643531
0.000400705
0.000638839
0.000403821
0.000639135
0.000406542
0.00063687
0.000409212
0.000634633
0.00041094
0.000631595
0.000413286
0.000626667
0.000416302
0.000623022
0.000416826
0.000622023
0.000417924
0.000599974
0.000419138
0.000596223
0.000419727
0.00056591
0.000428528
0.00053631
0.000445161
0.000504592
0.000454867
0.000482183
0.0004571
0.000466875
0.000450767
0.000456349
0.000441062
0.000448494
0.00043276
0.000441534
0.000427572
0.000434891
0.000424015
0.000430482
0.000426048
0.000427155
0.0004275
0.000426523
0.000434011
0.000426797
0.000438367
0.000429478
0.000450889
0.00043294
0.0014472
0.00144554
0.000776923
0.00144161
0.000784742
0.00143452
0.000792971
0.00142446
0.000801505
0.00141151
0.000810374
0.00139576
0.000819546
0.00137734
0.000828977
0.0013564
0.000838666
0.00133312
0.000848574
0.00130765
0.000858654
0.00128016
0.000868889
0.00125091
0.000879218
0.00122007
0.000889645
0.00118777
0.000900061
0.00115431
0.000910449
0.00111993
0.000920855
0.00108475
0.000931135
0.00104887
0.000941236
0.00101265
0.000951161
0.000976231
0.000961057
0.000939765
0.000970652
0.000903296
0.000979894
0.000867009
0.000988788
0.000831197
0.000997401
0.000795838
0.001006
0.000761063
0.00101412
0.000726899
0.00102175
0.000693431
0.00102895
0.000660776
0.00103572
0.000629037
0.00104208
0.000598278
0.00104814
0.000568417
0.00105396
0.000539538
0.00105924
0.000511657
0.00106403
0.000484772
0.00106835
0.000458894
0.00107223
0.000433991
0.00107566
0.000410101
0.00107862
0.000387236
0.00108093
0.000365319
0.00108293
0.000344337
0.00108456
0.000324866
0.00108576
0.000307234
0.00108595
0.000290751
0.00108494
0.000299088
0.00108468
0.000306243
0.00107973
0.00029645
0.000642001
0.00030294
0.000567562
0.000316178
0.000571732
0.000327547
0.000587184
0.000334893
0.000601726
0.00033953
0.000616049
0.00034217
0.000628006
0.000342387
0.00063936
0.000342795
0.000649739
0.000342734
0.000658666
0.00034293
0.000668271
0.000342973
0.00067706
0.000342843
0.000685702
0.000342814
0.000693666
0.000342439
0.000700379
0.000342319
0.000707191
0.000341997
0.000712299
0.000341586
0.000718225
0.000341376
0.000722726
0.000341381
0.000726439
0.000341253
0.000729873
0.000341401
0.000732338
0.000341602
0.000735236
0.000341897
0.000738409
0.000342402
0.000740424
0.000342945
0.000741792
0.000343478
0.000742025
0.00034427
0.000741114
0.000345307
0.000739314
0.000346447
0.00074074
0.000349716
0.000738788
0.000352889
0.000736196
0.000355879
0.000735375
0.00035947
0.000732358
0.000362803
0.0007289
0.000365945
0.000724139
0.00036939
0.000722212
0.000372948
0.000717404
0.000376339
0.000711159
0.000379653
0.000708097
0.000383056
0.000702393
0.000386113
0.000696366
0.000388647
0.000689041
0.000391894
0.000686039
0.000395043
0.000680979
0.000398356
0.000675259
0.000400956
0.000669503
0.000403213
0.000663044
0.000406131
0.000661892
0.000408232
0.00065769
0.000410561
0.000652139
0.000411793
0.00064869
0.000413329
0.000635714
0.000415314
0.000625452
0.000415047
0.000623951
0.000414553
0.000591624
0.000418583
0.000575079
0.000425433
0.000536757
0.000443732
0.000504943
0.000456243
0.000482341
0.000462529
0.000467938
0.000462423
0.000457144
0.000456481
0.000449918
0.000448396
0.00044457
0.000441771
0.000438876
0.000437413
0.000433857
0.000434422
0.000430272
0.000436752
0.000427617
0.000438309
0.000427311
0.000445217
0.000427863
0.000450423
0.00043059
0.000463219
0.000434509
0.00145093
0.00144944
0.000786365
0.00144568
0.000796284
0.00143874
0.000806591
0.00142884
0.000817181
0.00141603
0.000828085
0.00140041
0.000839273
0.00138211
0.000850697
0.00136128
0.000862361
0.00133808
0.000874225
0.00131267
0.000886233
0.00128524
0.000898367
0.00125601
0.000910574
0.00122519
0.000922854
0.00119287
0.000935076
0.0011594
0.000947228
0.00112496
0.000959415
0.0010897
0.000971398
0.00105374
0.000983128
0.00101746
0.000994644
0.000980922
0.00100619
0.000944304
0.00101734
0.000907643
0.00102803
0.000871226
0.00103829
0.000835323
0.00104821
0.000799825
0.00105825
0.000764844
0.00106768
0.000730473
0.00107654
0.000696799
0.00108491
0.000663947
0.00109275
0.000632032
0.00110014
0.000601152
0.00110717
0.000571154
0.00111413
0.000542102
0.0011205
0.000514034
0.0011262
0.000486967
0.0011314
0.000460904
0.0011361
0.000435852
0.00114034
0.000411776
0.00114413
0.000388745
0.00114731
0.000366715
0.00115021
0.000345619
0.00115274
0.000325452
0.00115481
0.000307603
0.00115612
0.000291706
0.00115728
0.000301514
0.00115779
0.000314037
0.00115374
0.000298789
0.000722712
0.000311593
0.000606485
0.000328911
0.000617202
0.000342845
0.000637174
0.000349556
0.000652312
0.000352996
0.000668227
0.000354615
0.000680626
0.000353759
0.000691421
0.000352534
0.000700518
0.000351888
0.000709244
0.000351119
0.000717283
0.000350321
0.000725306
0.000349582
0.00073265
0.000348604
0.000739585
0.000347582
0.000744708
0.0003465
0.000750924
0.000345907
0.000754264
0.000345122
0.000761734
0.000344598
0.000769458
0.000344125
0.00077535
0.00034353
0.000782476
0.000343358
0.000785835
0.000343334
0.000789089
0.000343323
0.000791008
0.000343495
0.000791849
0.000343724
0.000792111
0.000343878
0.000791205
0.000344295
0.000789362
0.00034495
0.000786458
0.000348263
0.000786112
0.000351777
0.000783143
0.000355203
0.000779364
0.000358492
0.000777085
0.000362191
0.000773028
0.000365636
0.000768855
0.000368756
0.000763005
0.000372432
0.000759167
0.000376035
0.000753491
0.000379497
0.000746463
0.000383071
0.000741627
0.000386579
0.000734775
0.000389737
0.000727585
0.000392343
0.000719553
0.000395603
0.000714075
0.000398442
0.000708055
0.000401578
0.000700841
0.000404036
0.000693369
0.000406081
0.000685831
0.000408531
0.00068104
0.000409782
0.000677149
0.000411971
0.000663847
0.000412819
0.000654647
0.000411956
0.000639153
0.000413114
0.000620414
0.000414194
0.000614202
0.000414868
0.000570993
0.000426649
0.000538506
0.000443118
0.00050625
0.000456053
0.000484029
0.00046464
0.000469432
0.000468307
0.00045955
0.000466829
0.00045211
0.000461059
0.00044656
0.000454605
0.000442271
0.000449312
0.000437586
0.00044604
0.000433626
0.000443916
0.000430628
0.000446753
0.000428471
0.000448659
0.000428441
0.000455913
0.000429327
0.00046197
0.000431921
0.000474886
0.000436078
0.00145577
0.00145444
0.000797005
0.00145083
0.000808976
0.00144404
0.000821313
0.00143428
0.000833914
0.0014216
0.000846809
0.0014061
0.000859967
0.00138792
0.000873343
0.00136717
0.00088694
0.00134404
0.000900716
0.0013187
0.000914611
0.00129129
0.000928609
0.00126209
0.000942653
0.00123125
0.000956747
0.0011989
0.000970743
0.0011654
0.000984621
0.00113089
0.000998545
0.00109551
0.00101219
0.00105946
0.00102553
0.0010231
0.00103861
0.00098642
0.00105175
0.00094962
0.00106441
0.000912782
0.00107655
0.000876184
0.00108819
0.000840147
0.00109941
0.000804445
0.0011108
0.00076925
0.00112149
0.000734651
0.00113155
0.000700753
0.0011411
0.000667692
0.00114998
0.000635575
0.00115838
0.000604535
0.00116638
0.000574347
0.00117437
0.000545107
0.00118181
0.000516821
0.00118847
0.000489548
0.00119457
0.000463293
0.00120011
0.000438061
0.00120515
0.000413833
0.00120977
0.000390637
0.00121398
0.000368585
0.00121776
0.000347347
0.00122115
0.000327303
0.00122455
0.00030821
0.00122796
0.000293183
0.00123204
0.000305845
0.00123294
0.000318324
0.00123582
0.000301236
0.000889184
0.000324754
0.000661175
0.000346177
0.000670313
0.000358504
0.00069766
0.000365817
0.000712868
0.00036726
0.000729189
0.00036677
0.000740431
0.000364125
0.000746852
0.000362195
0.000754332
0.000360669
0.000762479
0.000358923
0.00076827
0.000357077
0.000775147
0.000355383
0.000780123
0.000353344
0.000786045
0.000351832
0.000788152
0.000349969
0.000799479
0.00034928
0.000803975
0.000348118
0.000817302
0.000347006
0.000822901
0.00034614
0.000826737
0.000345209
0.000833427
0.000344784
0.000835161
0.00034451
0.00083688
0.000344291
0.000837639
0.000344195
0.000837376
0.000344115
0.000836379
0.00034395
0.000834414
0.000344098
0.000831738
0.00034713
0.000827896
0.00035069
0.000825977
0.000354396
0.000822107
0.000357984
0.000817437
0.000361684
0.000813742
0.000365544
0.000808837
0.000369116
0.000804146
0.00037241
0.000797231
0.00037604
0.000791961
0.000379596
0.000785383
0.000383044
0.000777341
0.000386496
0.00077066
0.000389957
0.00076242
0.00039308
0.000753905
0.00039581
0.000744639
0.00039887
0.00073657
0.00040148
0.000730396
0.000404201
0.00072023
0.000406676
0.000711166
0.000408362
0.000701974
0.000410875
0.000691303
0.000410937
0.000685128
0.000411365
0.000662594
0.000412472
0.000653133
0.000411183
0.000633016
0.0004109
0.000604405
0.000416176
0.000580158
0.000427868
0.000538117
0.00044417
0.000508091
0.000456617
0.000486606
0.000465673
0.000472299
0.000470781
0.000462246
0.000472687
0.000454514
0.000470344
0.000448984
0.000465264
0.000444944
0.000459915
0.000440628
0.000455996
0.000437039
0.000453749
0.000433649
0.000452581
0.000431116
0.000455997
0.000429454
0.000458513
0.000429737
0.000466266
0.000431023
0.000473149
0.00043346
0.00048596
0.000437686
0.00146171
0.00146051
0.000808853
0.00145705
0.000822823
0.0014504
0.00083714
0.00144078
0.0008517
0.00142822
0.000866537
0.00141284
0.000881614
0.00139475
0.000896899
0.00137409
0.000912384
0.00135101
0.000928022
0.00132571
0.000943764
0.00129833
0.000959582
0.00126912
0.000975419
0.00123825
0.000991282
0.00120587
0.00100701
0.00117231
0.00102259
0.00113769
0.0010382
0.0011022
0.00105347
0.00106602
0.00106839
0.00102955
0.00108301
0.000992699
0.00109769
0.000955676
0.0011118
0.000918657
0.00112535
0.000881872
0.00113835
0.000845641
0.00115089
0.000809709
0.00116356
0.00077428
0.00117548
0.000739433
0.00118672
0.000705288
0.00119738
0.000671997
0.00120734
0.000639646
0.00121675
0.000608386
0.00122572
0.000577996
0.00123458
0.000548529
0.00124301
0.000520031
0.00125066
0.000492534
0.00125772
0.000466077
0.00126417
0.000440667
0.00127009
0.000416302
0.00127565
0.000392932
0.00128082
0.000370777
0.00128525
0.000349684
0.00128978
0.000329651
0.00129481
0.000310124
0.00129987
0.00029433
0.00130646
0.000314973
0.00130801
0.000318313
0.00132487
0.00030302
0.00117421
0.000344156
0.000739063
0.000367255
0.00073026
0.00037882
0.00076477
0.000382591
0.000777503
0.000382497
0.000791696
0.000378602
0.000799197
0.000373275
0.000803094
0.00037192
0.000809265
0.00036859
0.000815448
0.000365974
0.000817071
0.000362955
0.000824336
0.000360648
0.000824314
0.000357371
0.000832704
0.000356114
0.000835105
0.000353281
0.000852437
0.000352331
0.000857762
0.000350563
0.000865367
0.000348748
0.000872103
0.000347889
0.000873659
0.000346749
0.000879695
0.000346123
0.000880586
0.000345587
0.00088036
0.000345164
0.000880393
0.000344802
0.00087886
0.000344456
0.000876877
0.000344061
0.000873878
0.000346562
0.000870263
0.000350233
0.000865493
0.000353936
0.000861651
0.000357794
0.000856837
0.000361682
0.000851356
0.000365658
0.000846096
0.000369622
0.000840504
0.000373349
0.000835236
0.000376982
0.000827202
0.000380448
0.000820505
0.000383974
0.000812904
0.000387473
0.000803833
0.000390753
0.000795832
0.000394224
0.000785575
0.000397185
0.000776004
0.000399654
0.00076499
0.000402605
0.000755147
0.000404789
0.000748018
0.000407459
0.000732199
0.000409863
0.000720399
0.000409992
0.000708518
0.000411614
0.000691016
0.000411307
0.000686064
0.000410657
0.000654376
0.000412064
0.000639149
0.000411211
0.000610881
0.000414226
0.000572162
0.000431155
0.000537408
0.000445581
0.00050946
0.000457584
0.000489897
0.000466402
0.000475841
0.000472277
0.000465735
0.000475682
0.000458017
0.000476024
0.000452181
0.000473595
0.000448113
0.000469465
0.000444566
0.000464787
0.000440672
0.000462081
0.000437621
0.000460748
0.000434491
0.000460545
0.000432165
0.000464577
0.00043072
0.00046787
0.000431201
0.000476171
0.000432833
0.000483809
0.000435124
0.000496443
0.000439372
0.00146872
0.00146766
0.000821921
0.00146433
0.000837833
0.00145781
0.000854073
0.00144831
0.000870538
0.00143587
0.000887264
0.00142059
0.000904207
0.00140259
0.00092135
0.001382
0.000938674
0.00135897
0.00095612
0.0013337
0.000973661
0.00130633
0.000991254
0.0012771
0.00100884
0.00124618
0.00102642
0.00121376
0.00104384
0.00118012
0.00106109
0.00114537
0.00107832
0.00110975
0.00109517
0.00107344
0.00111165
0.00103681
0.0011278
0.00099976
0.00114394
0.000962487
0.00115945
0.00092527
0.00117438
0.000888289
0.00118872
0.000851826
0.00120262
0.000815633
0.00121648
0.000779925
0.00122955
0.000744806
0.00124194
0.000710393
0.00125366
0.000676863
0.00126476
0.000644259
0.00127519
0.000612725
0.00128519
0.00058207
0.00129496
0.00055233
0.0013041
0.000523594
0.00131256
0.00049589
0.00132056
0.000469209
0.00132804
0.000443588
0.00133489
0.000419018
0.00134134
0.000395448
0.0013473
0.000373
0.0013524
0.000351859
0.00135735
0.000331632
0.00136301
0.000312199
0.00136904
0.000293378
0.00137516
0.000327549
0.00137973
0.000330651
0.00139148
0.000331284
0.00136896
0.000367847
0.000876054
0.000378765
0.000785707
0.000386318
0.000821036
0.000389584
0.000836625
0.00038938
0.000849036
0.000386932
0.000855144
0.00038294
0.000859249
0.000379684
0.000863442
0.000374657
0.000866561
0.000372004
0.000862189
0.000367186
0.000872114
0.000365247
0.000869875
0.00036118
0.000881719
0.000359498
0.000888452
0.000356681
0.000899209
0.000354431
0.000906589
0.000352849
0.000908486
0.000350484
0.000918585
0.000349659
0.000918794
0.000348179
0.00092306
0.000347286
0.000923495
0.000346683
0.000922059
0.000346074
0.000921161
0.00034545
0.000918239
0.000344815
0.000915418
0.000346546
0.000911555
0.000350435
0.000906806
0.000354278
0.000901082
0.000358158
0.000895834
0.000362188
0.000889675
0.000366253
0.00088296
0.000370451
0.000876029
0.000374448
0.000869982
0.000378242
0.000863265
0.000382021
0.000853748
0.000385496
0.000845927
0.000389036
0.000836187
0.000392562
0.000826181
0.000395599
0.000817485
0.000398906
0.000804279
0.000402045
0.0007934
0.000404215
0.000780365
0.000406912
0.000767634
0.000408202
0.000757741
0.000409912
0.000733383
0.000412204
0.000719091
0.000411625
0.000709312
0.000412068
0.000683121
0.000411518
0.000673071
0.00040913
0.000634693
0.000412294
0.000605903
0.000419115
0.000569359
0.000433247
0.000535992
0.00044704
0.000510712
0.00045808
0.000492622
0.000466959
0.00047992
0.000473436
0.000470245
0.000477289
0.000462366
0.000479082
0.000456048
0.000478795
0.000451636
0.000476493
0.000448169
0.000472992
0.000444529
0.000469245
0.00044111
0.000467661
0.000438288
0.000467241
0.000435443
0.000468009
0.000433257
0.000472636
0.000432063
0.000476797
0.000432719
0.000485636
0.000434614
0.000494035
0.000436856
0.000506516
0.000441125
0.00147679
0.00147586
0.000836221
0.00147265
0.000854013
0.00146626
0.000872116
0.00145687
0.000890427
0.00144454
0.000908983
0.00142935
0.000927737
0.00141143
0.000946684
0.0013909
0.000965792
0.00136791
0.000984989
0.00134266
0.00100428
0.00131529
0.0010236
0.00128602
0.00104288
0.00125504
0.00106213
0.00122255
0.00108119
0.00118882
0.00110008
0.00115392
0.00111885
0.00111813
0.00113725
0.00108169
0.00115525
0.00104486
0.00117293
0.00100757
0.00119042
0.000970079
0.00120728
0.00093263
0.00122357
0.00089543
0.00123933
0.000858666
0.00125458
0.000822177
0.00126945
0.00078616
0.00128359
0.000750769
0.00129706
0.000716107
0.00130992
0.0006823
0.00132216
0.000649436
0.00133373
0.00061756
0.00134475
0.000586569
0.00135529
0.000556541
0.00136509
0.000527536
0.0013742
0.000499593
0.00138284
0.000472664
0.00139142
0.000446776
0.00139921
0.000421941
0.00140634
0.000398101
0.00141297
0.000375609
0.00141904
0.000354116
0.00142502
0.000333509
0.0014311
0.000313789
0.00143742
0.000295229
0.00144323
0.000338057
0.00144867
0.000371502
0.00145409
0.00044273
0.00141676
0.000399453
0.00104411
0.000393039
0.000844552
0.00039414
0.00086243
0.000393522
0.000874861
0.000394273
0.000887252
0.000392775
0.000897661
0.000391274
0.000904507
0.000386836
0.000909758
0.000380141
0.000910223
0.000377353
0.000906038
0.000371447
0.00091562
0.000368678
0.000917008
0.000365186
0.000920934
0.000362123
0.000933883
0.000359892
0.000933947
0.000355974
0.000951544
0.0003548
0.00095067
0.000352553
0.000959122
0.000351126
0.000961937
0.000349782
0.000962958
0.000348661
0.000962648
0.00034776
0.00096089
0.000346898
0.000958874
0.000346022
0.000954675
0.00034687
0.000951032
0.00035101
0.000946247
0.000355131
0.000940123
0.00035934
0.000933457
0.000363321
0.000927786
0.000367414
0.000919539
0.0003715
0.000911577
0.000375768
0.000903341
0.000379716
0.000896594
0.000383683
0.000887745
0.000387495
0.000876638
0.000390972
0.000868672
0.00039441
0.000855354
0.000398017
0.00084415
0.00040072
0.000834842
0.00040386
0.00081607
0.000406749
0.000802035
0.000408289
0.000787563
0.000410543
0.00076576
0.000411617
0.000755902
0.000412351
0.000730764
0.000413628
0.000712224
0.00041217
0.000697666
0.00041043
0.000661773
0.000411153
0.000637561
0.000412578
0.000596885
0.000424834
0.000562542
0.000437124
0.000534683
0.00044829
0.000512613
0.000458419
0.000496055
0.000466978
0.000484394
0.000473581
0.000475029
0.000478181
0.000467213
0.000480947
0.000461005
0.000481971
0.0004563
0.000481362
0.000452722
0.000479503
0.000448966
0.000476524
0.000445577
0.000473757
0.00044238
0.000473129
0.000439636
0.000473503
0.000436991
0.000475063
0.000434776
0.000480229
0.000433672
0.000485252
0.000434336
0.000494581