/*--------------------------------*- C++ -*----------------------------------*\
| =========                 |                                                 |
| \\      /  F ield         | OpenFOAM: The Open Source CFD Toolbox           |
|  \\    /   O peration     | Version:  2.2.x                                 |
|   \\  /    A nd           | Web:      www.OpenFOAM.org                      |
|    \\/     M anipulation  |                                                 |
\*---------------------------------------------------------------------------*/
FoamFile
{
    version     2.0;
    format      ascii;
    class       surfaceScalarField;
    location    "1.9";
    object      phi;
}
// * * * * * * * * * * * * * * * * * * * * * * * * * * * * * * * * * * * * * //

dimensions      [1 0 -1 0 0 0 0];

internalField   nonuniform List<scalar> 
28084
(
0.000746226
0.000742996
0.000740224
0.000737892
0.000735982
0.000734462
0.000733315
0.000732533
0.000732061
0.000731878
0.00073197
0.000732316
0.000732877
0.000733582
0.000734514
0.00073558
0.000736704
0.000737873
0.000739239
0.000740636
0.000742002
0.000743145
0.000744521
0.000745929
0.000747342
0.000748662
0.000749734
0.000750449
0.000751399
0.000752283
0.000753097
0.000753872
0.000754562
0.000754931
0.000755127
0.000755172
0.000755057
0.000754795
0.000754234
0.000753318
0.000752186
0.000751458
0.000750982
0.000750776
0.000749559
0.000755436
0.000746818
0.000738308
0.000746315
0.00076473
0.000788451
0.000820393
0.000854104
0.000886944
0.000919177
0.000949846
0.000979502
0.00100675
0.00103173
0.00105486
0.00107596
0.00109548
0.00111325
0.00112937
0.00114408
0.0011578
0.0011701
0.00118056
0.00118947
0.00119728
0.00120405
0.00120969
0.00121412
0.00121746
0.00122024
0.00122311
0.00122535
0.00122596
0.00122612
0.00122468
0.00122256
0.00121998
0.00121709
0.0012137
0.00120921
0.00120484
0.00120008
0.00119443
0.00118809
0.00118252
0.00117699
0.00117187
0.00116613
0.00116056
0.00115609
0.00115213
0.00114903
0.00114672
0.00114562
0.00114533
0.00114651
0.00114969
0.00115337
0.00116045
0.0011681
0.00117489
0.00116543
0.00111034
0.00101183
0.000885664
0.000763127
0.000657329
0.00056162
0.000473904
0.000384587
0.000298255
0.000206045
0.000118902
3.71255e-06
3.23208e-06
0.000749742
2.77366e-06
0.000748792
2.33416e-06
0.000748271
1.91602e-06
0.000748162
1.51902e-06
0.000748449
1.14373e-06
0.000749102
7.9613e-07
0.000750105
4.75513e-07
0.000751445
1.7427e-07
0.00075307
-9.57405e-08
0.000754956
-3.25651e-07
0.000757089
-5.53496e-07
0.000759445
-7.52714e-07
0.000761979
-8.95231e-07
0.000764626
-1.01511e-06
0.000767462
-1.14938e-06
0.000770383
-1.26184e-06
0.00077332
-1.30818e-06
0.000776266
-1.30212e-06
0.000779355
-1.34257e-06
0.000782421
-1.38955e-06
0.0007854
-1.38801e-06
0.000788125
-1.31058e-06
0.000791023
-1.24259e-06
0.000793902
-1.17865e-06
0.000796726
-1.1361e-06
0.000799364
-1.08315e-06
0.000801702
-9.95183e-07
0.000803667
-8.56901e-07
0.000805798
-7.42075e-07
0.000807812
-6.18835e-07
0.000809684
-5.01649e-07
0.000811476
-3.64762e-07
0.000813077
-2.33396e-07
0.000814322
-9.74634e-08
0.000815368
5.03912e-08
0.000816196
1.982e-07
0.000816806
3.44621e-07
0.00081722
4.9732e-07
0.000817282
6.43364e-07
0.000816936
7.98149e-07
0.000816467
9.12943e-07
0.000816267
1.01555e-06
0.000816264
1.62855e-06
0.000816208
-7.22303e-06
0.000815193
7.05355e-06
0.00081807
8.43428e-06
0.000806332
-7.82005e-06
0.000797157
-1.82409e-05
0.000805003
-2.35609e-05
0.000825263
-3.17769e-05
0.000851726
-3.36883e-05
0.000884407
-3.29635e-05
0.000918367
-3.24931e-05
0.000951249
-3.11691e-05
0.000981905
-2.89278e-05
0.00101031
-2.69895e-05
0.00103786
-2.50064e-05
0.00106388
-2.31212e-05
0.00108811
-2.12085e-05
0.00111123
-1.95859e-05
0.00113245
-1.79013e-05
0.00115211
-1.61921e-05
0.00117005
-1.4651e-05
0.00118638
-1.35649e-05
0.00120122
-1.23528e-05
0.00121481
-1.09927e-05
0.00122702
-9.65585e-06
0.00123745
-8.54486e-06
0.00124615
-7.4284e-06
0.00125345
-6.10878e-06
0.00125967
-4.65558e-06
0.00126506
-3.72568e-06
0.00126968
-3.06995e-06
0.00127326
-2.36278e-06
0.0012756
-1.96846e-06
0.00127736
-9.72465e-07
0.00127845
-1.79511e-07
0.0012783
9.13431e-08
0.00127761
1.34947e-06
0.00127502
2.24611e-06
0.00127158
2.84207e-06
0.00126778
3.53589e-06
0.00126401
4.33539e-06
0.00125964
4.8804e-06
0.00125383
5.28367e-06
0.00124842
6.04566e-06
0.00124244
6.43832e-06
0.00123584
5.72151e-06
0.00122853
6.05788e-06
0.00122231
5.85745e-06
0.00121603
6.33805e-06
0.00120966
6.02409e-06
0.00120263
4.7994e-06
0.00119607
4.36709e-06
0.00119085
3.41546e-06
0.00118607
2.46552e-06
0.00118213
1.03479e-06
0.00117861
-2.30092e-07
0.00117677
-1.4266e-06
0.00117527
-3.53344e-06
0.00117483
-4.40335e-06
0.00117701
-7.24275e-06
0.0011788
-8.0376e-06
0.00118303
-6.23766e-06
0.00118518
1.07018e-05
0.00117646
5.67697e-05
0.00113495
0.000100176
0.00103773
0.00012667
0.000902208
0.000122371
0.000777581
0.000105716
0.000672114
9.56545e-05
0.000579334
8.77415e-05
0.00049484
8.95201e-05
0.000417674
8.655e-05
0.000338812
9.24492e-05
0.000262616
8.73865e-05
0.000180571
0.000119254
9.64534e-05
5.11246e-06
4.18489e-06
0.000754438
3.29651e-06
0.000755737
2.44489e-06
0.000757438
1.6337e-06
0.000759526
8.65469e-07
0.000761983
1.39351e-07
0.000764784
-5.31883e-07
0.000767912
-1.14568e-06
0.000771348
-1.72048e-06
0.000775047
-2.23061e-06
0.00077898
-2.66251e-06
0.00078313
-3.08007e-06
0.000787471
-3.44736e-06
0.000791958
-3.69316e-06
0.000796529
-3.88862e-06
0.00080124
-4.11271e-06
0.000805994
-4.30486e-06
0.000810732
-4.32566e-06
0.000815448
-4.2782e-06
0.000820226
-4.31152e-06
0.000824924
-4.34694e-06
0.000829501
-4.29026e-06
0.000833837
-4.08678e-06
0.00083824
-3.87032e-06
0.000842557
-3.7004e-06
0.000846731
-3.5584e-06
0.000850666
-3.39678e-06
0.00085427
-3.16203e-06
0.000857538
-2.83906e-06
0.00086084
-2.54246e-06
0.000863968
-2.23552e-06
0.000866869
-1.92543e-06
0.000869635
-1.61769e-06
0.000872144
-1.31008e-06
0.000874277
-9.83253e-07
0.000876137
-6.18684e-07
0.000877714
-2.68294e-07
0.000879088
7.45512e-08
0.000880225
4.05849e-07
0.000880946
7.07479e-07
0.000881205
1.06904e-06
0.000881201
1.43129e-06
0.000881445
1.92204e-06
0.000881775
3.13107e-06
0.000882036
-1.14566e-05
0.000881215
1.69636e-05
0.000879969
1.74283e-05
0.000859891
-1.54441e-05
0.000853207
-3.82956e-05
0.000861775
-4.98596e-05
0.000882828
-6.4273e-05
0.00091463
-6.75471e-05
0.000950159
-6.59001e-05
0.000987428
-6.33154e-05
0.00102255
-5.98799e-05
0.00105462
-5.59429e-05
0.00108387
-5.29287e-05
0.00111116
-4.96128e-05
0.00113657
-4.60525e-05
0.00115926
-4.23358e-05
0.00118111
-3.90406e-05
0.00120119
-3.57803e-05
0.00122024
-3.25231e-05
0.00123778
-2.95382e-05
0.00125374
-2.70246e-05
0.00126852
-2.45758e-05
0.00128149
-2.18209e-05
0.001293
-1.90971e-05
0.00130292
-1.66542e-05
0.00131079
-1.43724e-05
0.00131712
-1.20925e-05
0.0013224
-9.67919e-06
0.00132682
-7.64314e-06
0.00133042
-5.57953e-06
0.00133318
-3.63545e-06
0.00133504
-2.80757e-06
0.00133646
-9.9591e-07
0.00133665
9.20874e-07
0.00133572
1.50779e-06
0.00133433
3.93175e-06
0.00133062
5.59643e-06
0.00132607
6.4775e-06
0.0013211
7.96823e-06
0.00131584
9.92073e-06
0.00131001
1.08199e-05
0.00130301
1.18112e-05
0.00129635
1.3133e-05
0.00128912
1.39051e-05
0.00128151
1.21243e-05
0.00127337
1.28366e-05
0.00126561
1.2984e-05
0.0012582
1.39751e-05
0.00125072
1.31789e-05
0.00124282
1.03275e-05
0.00123556
9.57464e-06
0.00122864
7.67763e-06
0.00122252
6.22901e-06
0.00121743
2.84363e-06
0.00121281
7.33171e-07
0.00120953
-1.28125e-06
0.00120684
-5.94328e-06
0.00120412
-6.79757e-06
0.00120422
-1.15684e-05
0.00120398
-1.05523e-05
0.00120047
3.37574e-06
0.00118869
5.3708e-05
0.00114194
0.000155733
0.00103806
0.000236824
0.000895639
0.000251507
0.000769232
0.000227729
0.000668544
0.000198447
0.000582984
0.000180133
0.000505992
0.000164967
0.000434533
0.000168594
0.000367681
0.000162992
0.000299041
0.000174765
0.000230974
0.00017177
0.000157454
0.000216066
8.19061e-05
4.23085e-06
2.88837e-06
0.000760311
1.59773e-06
0.000763828
3.59254e-07
0.000767719
-8.20526e-07
0.000771972
-1.93603e-06
0.00077657
-2.98797e-06
0.000781492
-3.95923e-06
0.000786717
-4.84091e-06
0.000792218
-5.66068e-06
0.000797965
-6.3817e-06
0.000803919
-6.98739e-06
0.000810061
-7.55999e-06
0.000816363
-8.0581e-06
0.000822773
-8.37103e-06
0.000829249
-8.6031e-06
0.000835808
-8.8764e-06
0.00084237
-9.09744e-06
0.000848889
-9.04163e-06
0.000855357
-8.91672e-06
0.000861796
-8.89703e-06
0.000868101
-8.85732e-06
0.000874264
-8.69041e-06
0.000880215
-8.30671e-06
0.000886094
-7.89827e-06
0.000891799
-7.55753e-06
0.000897262
-7.26173e-06
0.00090248
-6.93496e-06
0.000907397
-6.48744e-06
0.000912013
-5.93326e-06
0.000916466
-5.3865e-06
0.000920661
-4.85212e-06
0.000924574
-4.27927e-06
0.000928237
-3.74736e-06
0.000931623
-3.19626e-06
0.000934623
-2.6129e-06
0.000937298
-2.01955e-06
0.000939674
-1.42699e-06
0.000941845
-8.28466e-07
0.000943689
-2.76003e-07
0.00094509
3.15405e-07
0.00094604
9.86126e-07
0.000946548
1.59236e-06
0.000947249
2.44421e-06
0.000947805
4.38835e-06
0.000948025
-1.18754e-05
0.000947348
3.5002e-05
0.000947256
2.39208e-05
0.000919651
-2.37344e-05
0.000911547
-5.91799e-05
0.000922831
-8.143e-05
0.000947674
-9.9564e-05
0.00098316
-0.000104568
0.00101823
-0.000101294
0.00105736
-9.48931e-05
0.00109566
-8.93301e-05
0.00113173
-8.27864e-05
0.00116505
-7.8785e-05
0.0011945
-7.34168e-05
0.00122097
-6.78801e-05
0.00124319
-6.236e-05
0.00126432
-5.74235e-05
0.00128315
-5.30894e-05
0.00130128
-4.83369e-05
0.00131797
-4.38947e-05
0.00133241
-3.97871e-05
0.00134649
-3.58803e-05
0.00135827
-3.18015e-05
0.00136835
-2.75919e-05
0.00137726
-2.39056e-05
0.0013842
-2.0503e-05
0.00138949
-1.72806e-05
0.00139368
-1.38642e-05
0.00139696
-1.08966e-05
0.00139945
-7.73607e-06
0.00140082
-4.68361e-06
0.00140145
-2.79669e-06
0.001402
-1.07967e-08
0.00140107
3.11038e-06
0.00139903
4.38718e-06
0.00139681
7.74257e-06
0.00139217
1.01107e-05
0.00138654
1.1407e-05
0.00138034
1.36006e-05
0.00137352
1.63878e-05
0.00136595
1.78194e-05
0.00135743
1.94956e-05
0.00134938
2.13034e-05
0.00134092
2.22697e-05
0.0013321
2.01897e-05
0.00132292
2.0667e-05
0.00131394
2.11481e-05
0.00130498
2.2359e-05
0.00129622
2.11252e-05
0.00128724
1.73079e-05
0.00127907
1.59902e-05
0.00127025
1.31216e-05
0.00126226
1.11472e-05
0.00125565
6.17954e-06
0.00124952
2.96879e-06
0.00124464
1.13592e-06
0.00124071
-6.26065e-06
0.00123581
-7.13346e-06
0.00123157
-8.03717e-06
0.00122441
1.09714e-06
0.00119989
5.16188e-05
0.00114389
0.000159177
0.00102542
0.000299481
0.000858637
0.000363627
0.000738465
0.000352201
0.000648339
0.000313229
0.000574012
0.000275486
0.000508666
0.000251657
0.000445608
0.000231945
0.000384154
0.000237455
0.000324124
0.000231336
0.000262999
0.000248601
0.000202116
0.000247626
0.000137258
0.000298334
7.00411e-05
1.10155e-06
-6.2637e-07
0.000767365
-2.29085e-06
0.000773063
-3.89163e-06
0.00077911
-5.41672e-06
0.000785492
-6.85637e-06
0.000792197
-8.20945e-06
0.000799209
-9.45578e-06
0.000806495
-1.05822e-05
0.000814031
-1.162e-05
0.000821796
-1.25239e-05
0.000829745
-1.32769e-05
0.000837849
-1.39691e-05
0.000846081
-1.45538e-05
0.000854388
-1.48999e-05
0.000862743
-1.51473e-05
0.000871124
-1.54253e-05
0.000879461
-1.55919e-05
0.00088775
-1.54294e-05
0.000895939
-1.52135e-05
0.000904026
-1.50682e-05
0.000911899
-1.4908e-05
0.000919644
-1.45598e-05
0.000927192
-1.39413e-05
0.000934505
-1.33012e-05
0.000941564
-1.27404e-05
0.00094827
-1.22304e-05
0.000954787
-1.16504e-05
0.000961033
-1.09514e-05
0.000966958
-1.01205e-05
0.000972582
-9.27754e-06
0.00097784
-8.43751e-06
0.000982709
-7.57192e-06
0.000987203
-6.74742e-06
0.00099141
-5.90822e-06
0.000995295
-5.03788e-06
0.000998824
-4.16778e-06
0.00100202
-3.26539e-06
0.00100494
-2.36158e-06
0.00100753
-1.48732e-06
0.00100967
-5.58007e-07
0.00101134
4.06017e-07
0.00101253
1.36204e-06
0.00101358
2.69836e-06
0.0010144
5.25857e-06
0.00101465
-1.31516e-05
0.00101418
6.06915e-05
0.00101745
3.16923e-05
0.000986592
-3.46731e-05
0.000978492
-8.3761e-05
0.000994602
-0.00011671
0.00102763
-0.000134789
0.00107024
-0.00014331
0.00110757
-0.000139214
0.00114706
-0.00012942
0.00118734
-0.000122866
0.00122585
-0.000112449
0.00126059
-0.000105854
0.00129011
-9.75012e-05
0.00131789
-8.94896e-05
0.00134063
-8.19176e-05
0.00136167
-7.48356e-05
0.00137993
-6.92634e-05
0.00139752
-6.25445e-05
0.00141335
-5.65308e-05
0.00142621
-5.0766e-05
0.00143991
-4.53984e-05
0.00145029
-4.03069e-05
0.00145917
-3.49039e-05
0.00146716
-2.99281e-05
0.00147296
-2.551e-05
0.00147727
-2.1366e-05
0.00148011
-1.70315e-05
0.00148187
-1.29134e-05
0.00148272
-8.92034e-06
0.00148241
-5.1097e-06
0.00148146
-1.86363e-06
0.00148039
2.11922e-06
0.00147793
6.24761e-06
0.00147436
8.55608e-06
0.00147086
1.28212e-05
0.0014652
1.59755e-05
0.00145818
1.76714e-05
0.00145006
2.0676e-05
0.00144121
2.40531e-05
0.0014318
2.5912e-05
0.00142149
2.82543e-05
0.00141164
3.06705e-05
0.00140155
3.16812e-05
0.00139132
2.96138e-05
0.00138057
2.99485e-05
0.00136986
3.05279e-05
0.00135913
3.17597e-05
0.0013486
3.00047e-05
0.0013383
2.56957e-05
0.00132845
2.39837e-05
0.00131768
2.01545e-05
0.00130797
1.77388e-05
0.00129979
1.12622e-05
0.00129181
6.42231e-06
0.00128463
6.04929e-06
0.0012776
-2.23592e-06
0.0012697
-4.67502e-07
0.00125337
1.69478e-05
0.00122359
5.73587e-05
0.00115159
0.000171814
0.00101011
0.00032703
0.000825372
0.000420084
0.00069492
0.000453697
0.000606811
0.000426359
0.000546892
0.000378478
0.000495437
0.000338644
0.000444414
0.000313308
0.00039316
0.000292191
0.000340994
0.000298829
0.000287396
0.000292497
0.000233072
0.000313763
0.00017853
0.000315146
0.000121444
0.000368716
6.12746e-05
-4.23842e-06
-6.32272e-06
0.000775603
-8.33446e-06
0.000783442
-1.02723e-05
0.000791604
-1.21201e-05
0.00080008
-1.38633e-05
0.000808854
-1.54925e-05
0.000817917
-1.69904e-05
0.000827232
-1.83426e-05
0.00083677
-1.95703e-05
0.000846518
-2.06272e-05
0.000856425
-2.15036e-05
0.000866461
-2.22758e-05
0.000876589
-2.29089e-05
0.000886768
-2.32618e-05
0.000896965
-2.34918e-05
0.000907143
-2.37153e-05
0.000917226
-2.37699e-05
0.00092726
-2.3501e-05
0.000937138
-2.31284e-05
0.00094684
-2.27929e-05
0.000956253
-2.24494e-05
0.000965576
-2.18485e-05
0.000974664
-2.09963e-05
0.000983431
-2.00934e-05
0.000991817
-1.92564e-05
0.000999708
-1.84369e-05
0.00100753
-1.75178e-05
0.00101505
-1.6517e-05
0.00102223
-1.53734e-05
0.00102906
-1.42017e-05
0.00103541
-1.29977e-05
0.00104122
-1.17743e-05
0.00104643
-1.06346e-05
0.00105152
-9.46628e-06
0.00105628
-8.26168e-06
0.00106067
-7.043e-06
0.00106466
-5.78898e-06
0.00106829
-4.53928e-06
0.00107167
-3.2754e-06
0.00107451
-1.93569e-06
0.00107682
-6.21892e-07
0.00107873
7.14163e-07
0.0010802
2.50522e-06
0.00108122
5.7564e-06
0.00108133
-1.6686e-05
0.00108111
8.94602e-05
0.0010831
3.93583e-05
0.00105925
-5.03603e-05
0.00105478
-0.000116715
0.00108172
-0.000159843
0.0011221
-0.000173471
0.00116845
-0.000182626
0.00121547
-0.000177858
0.00125938
-0.000164095
0.00130356
-0.000156961
0.0013464
-0.000143809
0.0013841
-0.000134188
0.00141421
-0.000122134
0.00144138
-0.000111545
0.00146431
-0.000101984
0.00148632
-9.19166e-05
0.00150363
-8.43987e-05
0.00151977
-7.48011e-05
0.00153387
-6.75803e-05
0.00154493
-6.03591e-05
0.00155754
-5.35213e-05
0.00156545
-4.72063e-05
0.00157285
-4.09152e-05
0.00157926
-3.4816e-05
0.0015829
-2.91361e-05
0.0015855
-2.38375e-05
0.00158647
-1.854e-05
0.0015862
-1.3195e-05
0.00158524
-8.46531e-06
0.00158303
-4.14561e-06
0.00157959
3.84424e-07
0.0015759
5.64727e-06
0.00157087
1.0513e-05
0.00156491
1.44057e-05
0.0015592
1.9549e-05
0.00155177
2.3707e-05
0.00154257
2.58415e-05
0.00153242
2.9447e-05
0.00152132
3.3374e-05
0.0015097
3.55843e-05
0.00149728
3.8472e-05
0.00148497
4.13759e-05
0.00147258
4.26038e-05
0.00146021
4.07078e-05
0.00144776
4.09766e-05
0.00143444
4.15465e-05
0.0014211
4.23872e-05
0.00140862
4.04106e-05
0.00139647
3.58781e-05
0.00138404
3.38261e-05
0.00137124
2.87962e-05
0.00135917
2.58811e-05
0.00134904
1.88704e-05
0.00133867
1.29038e-05
0.00132618
1.41677e-05
0.00131268
1.39518e-05
0.00129206
2.91949e-05
0.00124343
8.97744e-05
0.00115706
0.000199437
0.000998102
0.000357425
0.000799505
0.000457908
0.000663898
0.000508259
0.00057333
0.000513535
0.000509808
0.000477703
0.000466057
0.00042949
0.000428131
0.00039011
0.000387951
0.000365742
0.000345525
0.000346001
0.000301365
0.000353357
0.000254748
0.000347288
0.000207159
0.000371132
0.000158455
0.000375634
0.000107764
0.000430321
5.36148e-05
-1.17474e-05
-1.41597e-05
0.000785031
-1.64939e-05
0.000794967
-1.87464e-05
0.000805202
-2.08953e-05
0.000815728
-2.29199e-05
0.000826533
-2.48035e-05
0.000837605
-2.65306e-05
0.000848909
-2.8086e-05
0.000860412
-2.94744e-05
0.000872105
-3.06597e-05
0.000883933
-3.1634e-05
0.000895863
-3.24526e-05
0.000907852
-3.30934e-05
0.000919868
-3.34331e-05
0.000931873
-3.36096e-05
0.000943815
-3.37198e-05
0.000955613
-3.36135e-05
0.000967356
-3.32107e-05
0.000978898
-3.26478e-05
0.000990184
-3.20656e-05
0.0010011
-3.14377e-05
0.00101197
-3.05413e-05
0.00102257
-2.94575e-05
0.00103279
-2.82402e-05
0.00104248
-2.70698e-05
0.00105155
-2.58539e-05
0.00106063
-2.45491e-05
0.00106938
-2.31707e-05
0.00107775
-2.16733e-05
0.00108577
-2.01351e-05
0.00109318
-1.85202e-05
0.00109995
-1.69027e-05
0.00110587
-1.53694e-05
0.00111185
-1.38148e-05
0.00111746
-1.22297e-05
0.00112268
-1.06105e-05
0.0011275
-8.97621e-06
0.00113186
-7.2859e-06
0.00113591
-5.60961e-06
0.00113953
-3.92105e-06
0.00114253
-2.13003e-06
0.00114508
-4.00283e-07
0.00114702
1.83136e-06
0.00114809
5.72172e-06
0.0011485
-1.8598e-05
0.00114899
0.000110861
0.00115327
4.36484e-05
0.00115315
-7.65081e-05
0.00115027
-0.00015696
0.00119391
-0.000207556
0.00124868
-0.000223118
0.00130691
-0.000227207
0.00136771
-0.000220449
0.00141814
-0.000204021
0.00146531
-0.000191969
0.00150472
-0.000175493
0.00153951
-0.000162478
0.00156796
-0.000146821
0.00159197
-0.000133556
0.00161166
-0.000121133
0.00163079
-0.00010743
0.00164416
-9.75799e-05
0.00165737
-8.54227e-05
0.0016677
-7.73411e-05
0.00167519
-6.84591e-05
0.00168379
-5.98092e-05
0.0016876
-5.19044e-05
0.00169261
-4.46073e-05
0.00169603
-3.76709e-05
0.001697
-3.08766e-05
0.00169719
-2.43701e-05
0.00169594
-1.80672e-05
0.00169369
-1.1363e-05
0.00169066
-5.41662e-06
0.00168658
-6.51863e-07
0.00168122
5.27233e-06
0.00167493
1.16253e-05
0.00166764
1.7025e-05
0.00165942
2.2704e-05
0.00165086
2.88048e-05
0.00164122
3.35294e-05
0.00163004
3.63775e-05
0.00161813
4.05472e-05
0.00160496
4.48409e-05
0.00159123
4.73793e-05
0.00157699
5.07112e-05
0.00156227
5.39279e-05
0.00154732
5.52374e-05
0.00153246
5.42957e-05
0.00151763
5.45331e-05
0.00150203
5.42961e-05
0.00148592
5.47475e-05
0.0014708
5.3105e-05
0.00145616
4.80694e-05
0.0014413
4.64717e-05
0.00142604
3.94168e-05
0.00141161
3.57105e-05
0.00139683
3.22344e-05
0.00138078
2.59601e-05
0.00135824
3.5307e-05
0.00132266
6.26745e-05
0.00126949
0.000116234
0.00115994
0.000249795
0.000974634
0.000398411
0.000779186
0.000493188
0.000641005
0.000548525
0.00054539
0.000571806
0.000481048
0.000557341
0.000438226
0.000515688
0.000406379
0.000469792
0.000375424
0.000432736
0.000342668
0.000410109
0.000306432
0.000392794
0.000267973
0.000401113
0.000226648
0.000396214
0.000184152
0.000422091
0.000140198
0.000430079
9.49334e-05
0.000484198
4.63614e-05
-2.13792e-05
-2.40929e-05
0.000795656
-2.67264e-05
0.00080764
-2.92716e-05
0.000819901
-3.17008e-05
0.000832432
-3.39859e-05
0.000845223
-3.61036e-05
0.00085826
-3.80388e-05
0.000871509
-3.9775e-05
0.000884937
-4.12992e-05
0.000898533
-4.25848e-05
0.000912241
-4.36324e-05
0.000926025
-4.44665e-05
0.000939837
-4.50702e-05
0.000953652
-4.53788e-05
0.000967429
-4.54699e-05
0.000981091
-4.54099e-05
0.000994574
-4.50939e-05
0.00100798
-4.45239e-05
0.00102116
-4.37423e-05
0.00103399
-4.28652e-05
0.0010464
-4.18837e-05
0.00105876
-4.06369e-05
0.0010708
-3.92457e-05
0.00108245
-3.7709e-05
0.00109345
-3.6134e-05
0.00110373
-3.44667e-05
0.00111403
-3.27173e-05
0.00112398
-3.09068e-05
0.00113349
-2.89985e-05
0.00114263
-2.70497e-05
0.00115106
-2.50267e-05
0.00115877
-2.29413e-05
0.00116546
-2.09178e-05
0.00117229
-1.8918e-05
0.00117875
-1.69167e-05
0.00118478
-1.48586e-05
0.00119038
-1.27823e-05
0.00119547
-1.06541e-05
0.00120012
-8.572e-06
0.00120444
-6.48513e-06
0.00120823
-4.22011e-06
0.00121118
-1.94829e-06
0.00121326
7.97128e-07
0.00121475
4.94533e-06
0.00121652
-2.30004e-05
0.00121846
0.000109159
0.00122864
4.60181e-05
0.00124873
-0.000120433
0.00127459
-0.000211812
0.00135337
-0.000266691
0.00143833
-0.000286214
0.00151413
-0.000277921
0.00156673
-0.0002667
0.00161107
-0.000242692
0.00164739
-0.000224888
0.00167443
-0.000204893
0.0017026
-0.000187219
0.00172366
-0.000168322
0.00174196
-0.000151305
0.00175566
-0.00013597
0.0017692
-0.000119392
0.00177669
-0.000106716
0.00178468
-9.44608e-05
0.00179213
-8.36405e-05
0.0017929
-7.3067e-05
0.00179599
-6.29757e-05
0.00179602
-5.37035e-05
0.00179753
-4.56937e-05
0.00179787
-3.77734e-05
0.00179589
-3.02794e-05
0.00179342
-2.27939e-05
0.00179007
-1.53027e-05
0.00178602
-7.3737e-06
0.00178114
-2.81785e-07
0.0017753
5.6589e-06
0.00176803
1.25742e-05
0.00175954
1.99393e-05
0.00175031
2.63178e-05
0.00174017
3.30969e-05
0.00172936
4.00086e-05
0.00171741
4.54942e-05
0.00170469
4.94506e-05
0.0016912
5.40106e-05
0.00167646
5.84177e-05
0.0016614
6.16719e-05
0.00164576
6.51615e-05
0.00162932
6.8662e-05
0.00161235
7.01667e-05
0.00159524
6.99939e-05
0.00157778
7.06649e-05
0.00156033
6.93976e-05
0.00154245
6.93127e-05
0.00152516
6.83314e-05
0.00150796
6.27739e-05
0.00149037
6.15806e-05
0.00147199
5.47879e-05
0.00145344
5.07186e-05
0.00142976
5.64805e-05
0.00139942
6.05553e-05
0.00135348
8.86305e-05
0.00127378
0.000172846
0.00114411
0.000302552
0.000940377
0.000445974
0.00074905
0.000536705
0.000617175
0.000588827
0.000525802
0.000612878
0.00046143
0.000614665
0.00041384
0.000589308
0.00038247
0.000546774
0.000357083
0.000502761
0.000330334
0.000469156
0.000302804
0.000448709
0.000271372
0.000434283
0.000237712
0.000443826
0.000201151
0.000440444
0.000163415
0.000467692
0.000123815
0.000479013
8.33096e-05
0.000530881
4.00233e-05
-3.30841e-05
-3.60742e-05
0.000807488
-3.89846e-05
0.000821467
-4.18016e-05
0.000835703
-4.44903e-05
0.000850189
-4.70158e-05
0.000864916
-4.93496e-05
0.00087987
-5.14732e-05
0.000895015
-5.33662e-05
0.000910324
-5.50017e-05
0.000925777
-5.63648e-05
0.000941319
-5.74582e-05
0.000956916
-5.82798e-05
0.00097251
-5.88054e-05
0.000988079
-5.90497e-05
0.00100358
-5.90247e-05
0.00101893
-5.8756e-05
0.00103406
-5.8193e-05
0.0010491
-5.73954e-05
0.00106386
-5.63725e-05
0.0010782
-5.5156e-05
0.0010921
-5.3738e-05
0.0011059
-5.21106e-05
0.00111935
-5.03466e-05
0.00113235
-4.84501e-05
0.00114462
-4.64226e-05
0.00115616
-4.42652e-05
0.00116766
-4.20088e-05
0.00117876
-3.97107e-05
0.00118935
-3.73202e-05
0.00119953
-3.49168e-05
0.00120897
-3.24486e-05
0.00121761
-2.98994e-05
0.00122517
-2.73385e-05
0.0012328
-2.47671e-05
0.00124004
-2.22876e-05
0.00124686
-1.97508e-05
0.00125318
-1.71872e-05
0.00125898
-1.46356e-05
0.00126426
-1.20858e-05
0.0012693
-9.49697e-06
0.00127369
-6.83269e-06
0.00127712
-4.16378e-06
0.00127971
-1.19711e-06
0.00128211
3.06155e-06
0.00128537
-3.31092e-05
0.00128876
8.65347e-05
0.00131287
1.84547e-05
0.00141076
-0.000200252
0.00149939
-0.000297196
0.00160984
-0.000342208
0.00167435
-0.000339745
0.00170652
-0.000322324
0.00173507
-0.000302021
0.00176532
-0.000270058
0.00179341
-0.000251235
0.00181811
-0.000227274
0.00184263
-0.000204597
0.00185617
-0.000183947
0.00186807
-0.000161341
0.00187465
-0.000144264
0.00188225
-0.000127731
0.00188967
-0.000111033
0.00188895
-9.96405e-05
0.00189379
-8.49063e-05
0.00188814
-7.34809e-05
0.00188952
-6.35109e-05
0.00188815
-5.26907e-05
0.00188603
-4.38505e-05
0.00188385
-3.53839e-05
0.00187964
-2.71651e-05
0.00187484
-1.87887e-05
0.00186962
-1.02128e-05
0.00186393
-1.42962e-06
0.00185738
6.81528e-06
0.00184984
1.4287e-05
0.00184123
2.20308e-05
0.00183125
3.01341e-05
0.00182048
3.77581e-05
0.00180879
4.55275e-05
0.00179622
5.28799e-05
0.00178245
5.92202e-05
0.00176838
6.44102e-05
0.00175359
6.91055e-05
0.00173755
7.37627e-05
0.00172118
7.80713e-05
0.00170406
8.14799e-05
0.001686
8.53407e-05
0.00166792
8.74047e-05
0.00164916
8.73398e-05
0.00163002
8.82098e-05
0.00161066
8.64028e-05
0.00159107
8.6104e-05
0.00157127
8.67339e-05
0.00155095
8.08394e-05
0.00152917
8.0429e-05
0.00150345
7.89261e-05
0.00147416
7.96625e-05
0.00142912
0.000104749
0.00136706
0.000139524
0.00126865
0.000218418
0.00110282
0.000377344
0.000882428
0.000494505
0.00071261
0.00057825
0.000589882
0.000628133
0.00050388
0.000653214
0.000441659
0.000660501
0.000395813
0.000646082
0.000364502
0.000614748
0.000340902
0.000573677
0.000319102
0.000530503
0.000296855
0.00050076
0.000271987
0.000482483
0.000243561
0.000471032
0.000212732
0.000481816
0.000179276
0.000480384
0.000145126
0.00050857
0.000109243
0.00052269
7.30147e-05
0.000571215
3.46361e-05
-4.68081e-05
-5.00508e-05
0.000820538
-5.32177e-05
0.000836456
-5.62861e-05
0.00085261
-5.92148e-05
0.000868997
-6.19627e-05
0.000885607
-6.44938e-05
0.000902424
-6.67868e-05
0.000919414
-6.88149e-05
0.000936556
-7.05376e-05
0.000953818
-7.19555e-05
0.000971141
-7.3068e-05
0.000988505
-7.38453e-05
0.00100583
-7.42689e-05
0.00102311
-7.44076e-05
0.0010403
-7.42278e-05
0.00105728
-7.37125e-05
0.00107404
-7.28753e-05
0.00109064
-7.1792e-05
0.00110692
-7.04764e-05
0.00112275
-6.88897e-05
0.00113813
-6.69784e-05
0.00115333
-6.49406e-05
0.00116814
-6.2744e-05
0.00118238
-6.04306e-05
0.0011959
-5.79218e-05
0.00120878
-5.52141e-05
0.00122145
-5.23887e-05
0.00123364
-4.95278e-05
0.00124527
-4.66383e-05
0.00125638
-4.3711e-05
0.00126676
-4.07525e-05
0.00127632
-3.77189e-05
0.00128496
-3.46208e-05
0.00129342
-3.14683e-05
0.00130137
-2.83361e-05
0.00130878
-2.52932e-05
0.00131573
-2.2229e-05
0.00132218
-1.91773e-05
0.00132813
-1.61732e-05
0.00133379
-1.31589e-05
0.00133874
-1.02827e-05
0.00134245
-7.15979e-06
0.00134531
-4.16934e-06
0.00134822
7.31202e-09
0.00135166
-5.6824e-05
0.00135675
-1.36705e-05
0.0013796
-7.33819e-05
0.0015078
-0.000311255
0.00179573
-0.00036245
0.00188221
-0.000374068
0.00189326
-0.000367161
0.00190062
-0.000352152
0.00190781
-0.000330543
0.00191498
-0.000296262
0.00192576
-0.000271999
0.00194233
-0.000243252
0.00195937
-0.000214304
0.00196525
-0.000192088
0.00196788
-0.000168889
0.00197649
-0.000147671
0.00197497
-0.000132176
0.00198167
-0.000113276
0.00197594
-9.902e-05
0.00197633
-8.37111e-05
0.00197095
-7.15451e-05
0.00197048
-6.15375e-05
0.00196954
-4.97528e-05
0.00196389
-4.02141e-05
0.00195909
-3.10008e-05
0.00195271
-2.20252e-05
0.00194623
-1.28235e-05
0.0019395
-3.35382e-06
0.00193219
6.17816e-06
0.00192407
1.56501e-05
0.00191512
2.47116e-05
0.00190543
3.33685e-05
0.00189424
4.2204e-05
0.00188212
5.09902e-05
0.00186903
5.9671e-05
0.00185501
6.72509e-05
0.00183968
7.43151e-05
0.00182447
8.07919e-05
0.0018084
8.57533e-05
0.00179108
9.08052e-05
0.00177339
9.61596e-05
0.00175485
9.93033e-05
0.00173564
0.000103093
0.00171644
0.000106265
0.00169624
0.000106456
0.00167565
0.000107216
0.00165429
0.000105933
0.00163137
0.000105588
0.00160501
0.000109647
0.00157723
0.000106538
0.00154582
0.000109772
0.00150289
0.000124294
0.00144674
0.000140754
0.00135664
0.000205413
0.00122044
0.00030486
0.00102733
0.000439124
0.000819766
0.00054745
0.000665845
0.000617411
0.000557169
0.000664429
0.000477235
0.000690384
0.000421337
0.000699103
0.000378984
0.000691862
0.000347111
0.000669738
0.000324069
0.000636659
0.000304461
0.000596103
0.000285135
0.000555601
0.000265584
0.000529284
0.000242847
0.000513373
0.000217145
0.000504692
0.000189156
0.000516229
0.000158993
0.000516619
0.000128516
0.000545128
9.61973e-05
0.000561361
6.4026e-05
0.000606142
3.00736e-05
-6.24926e-05
-6.59656e-05
0.000834819
-6.93697e-05
0.000852614
-7.26701e-05
0.000870626
-7.58216e-05
0.000888854
-7.87746e-05
0.000907292
-8.14848e-05
0.000925914
-8.39298e-05
0.000944695
-8.60701e-05
0.000963618
-8.78579e-05
0.000982631
-8.93111e-05
0.00100168
-9.04138e-05
0.00102076
-9.11157e-05
0.00103978
-9.14147e-05
0.00105872
-9.14132e-05
0.00107753
-9.10463e-05
0.0010961
-9.02349e-05
0.00111445
-8.90829e-05
0.00113256
-8.76928e-05
0.00115031
-8.60469e-05
0.00116758
-8.40008e-05
0.00118444
-8.16064e-05
0.00120097
-7.90666e-05
0.00121701
-7.64073e-05
0.00123248
-7.36386e-05
0.0012473
-7.05872e-05
0.00126156
-6.72811e-05
0.00127534
-6.38349e-05
0.00128853
-6.03596e-05
0.00130105
-5.69079e-05
0.00131299
-5.34068e-05
0.00132426
-4.98855e-05
0.00133481
-4.63314e-05
0.00134472
-4.26687e-05
0.00135409
-3.89635e-05
0.00136279
-3.51808e-05
0.00137068
-3.15134e-05
0.00137801
-2.79177e-05
0.00138501
-2.43984e-05
0.00139152
-2.08277e-05
0.00139762
-1.73152e-05
0.00140324
-1.38292e-05
0.00140771
-1.04549e-05
0.00141124
-7.28321e-06
0.0014144
-4.42393e-06
0.00141847
-7.91053e-05
0.00142456
-0.000141996
0.00144823
-0.000364616
0.00158221
-0.000398784
0.00187039
-0.000374926
0.00195438
-0.000380445
0.0019938
-0.000372154
0.00200134
-0.000359257
0.00200847
-0.000342218
0.00201359
-0.000316018
0.0020207
-0.0002835
0.00203091
-0.000253166
0.0020422
-0.000222539
0.00204992
-0.000196957
0.0020512
-0.000173132
0.00205727
-0.000149593
0.00204837
-0.000132758
0.00205348
-0.000110029
0.00204693
-9.58018e-05
0.00204795
-8.30787e-05
0.00204824
-6.83796e-05
0.00204027
-5.66561e-05
0.00203715
-4.53893e-05
0.00203138
-3.50316e-05
0.00202496
-2.49228e-05
0.00201801
-1.5516e-05
0.00201121
-5.4611e-06
0.00200279
4.91129e-06
0.00199409
1.55058e-05
0.00198488
2.60876e-05
0.00197533
3.66737e-05
0.00196476
4.62825e-05
0.00195246
5.59117e-05
0.0019392
6.55915e-05
0.00192501
7.51905e-05
0.0019096
8.30267e-05
0.00189278
9.08238e-05
0.00187636
9.84405e-05
0.00185859
0.000103862
0.0018397
0.000109303
0.00182095
0.000115346
0.00180086
0.000118298
0.00177965
0.00012187
0.00175784
0.000127335
0.00173468
0.000127499
0.00171066
0.000128886
0.00168288
0.00013195
0.00165256
0.000132448
0.00161466
0.000142353
0.00156921
0.000149526
0.00151259
0.000165453
0.00142685
0.000215213
0.00130452
0.000276563
0.0011304
0.00039985
0.000919256
0.000512583
0.000744833
0.000593311
0.00061547
0.000656002
0.000517242
0.000697261
0.000447417
0.000720369