/*--------------------------------*- C++ -*----------------------------------*\
| =========                 |                                                 |
| \\      /  F ield         | OpenFOAM: The Open Source CFD Toolbox           |
|  \\    /   O peration     | Version:  2.2.x                                 |
|   \\  /    A nd           | Web:      www.OpenFOAM.org                      |
|    \\/     M anipulation  |                                                 |
\*---------------------------------------------------------------------------*/
FoamFile
{
    version     2.0;
    format      ascii;
    class       volScalarField;
    location    "0.8";
    object      p;
}
// * * * * * * * * * * * * * * * * * * * * * * * * * * * * * * * * * * * * * //

dimensions      [1 -1 -2 0 0 0 0];

internalField   nonuniform List<scalar> 
14161
(
0.2
0.2
0.2
0.2
0.2
0.2
0.2
0.2
0.2
0.2
0.2
0.2
0.2
0.2
0.2
0.2
0.2
0.2
0.2
0.2
0.2
0.2
0.2
0.2
0.2
0.2
0.199986
0.259606
1.28684
1.71076
1.73566
1.75044
1.76255
1.77098
1.77524
1.78284
1.79014
1.79738
1.80595
1.81421
1.82312
1.83177
1.8396
1.84606
1.85066
1.85448
1.85842
1.86154
1.86419
1.86648
1.86862
1.8709
1.87299
1.87554
1.8785
1.88169
1.88571
1.89033
1.89497
1.89928
1.90348
1.90729
1.91173
1.9172
1.9227
1.92837
1.9335
1.93794
1.94225
1.94565
1.94864
1.95112
1.95361
1.95543
1.95771
1.9592
1.96061
1.96284
1.96572
1.96924
1.9733
1.97713
1.98138
1.98576
1.99032
1.9948
1.99929
2.00372
2.00764
2.01237
2.01748
2.02257
2.02817
2.03428
2.04083
2.04759
2.05417
2.0602
2.06595
2.07099
2.07508
2.07823
2.08066
2.08243
2.08409
2.08678
2.08838
2.08968
2.09182
2.09519
2.09981
2.10456
2.11012
2.11483
2.1177
2.12022
2.12291
2.12507
2.12557
0.2
0.2
0.2
0.2
0.2
0.2
0.2
0.2
0.2
0.2
0.2
0.2
0.2
0.2
0.2
0.2
0.2
0.2
0.2
0.2
0.2
0.2
0.2
0.2
0.2
0.2
0.199976
0.285498
1.29827
1.71739
1.74451
1.76231
1.77626
1.78443
1.7866
1.78956
1.79336
1.80035
1.80789
1.8147
1.82288
1.83171
1.83932
1.8468
1.85358
1.85919
1.86327
1.86638
1.86886
1.871
1.873
1.87511
1.87744
1.88035
1.88368
1.88782
1.89253
1.89796
1.90348
1.90866
1.91319
1.91695
1.92027
1.92422
1.92904
1.93427
1.93977
1.94452
1.94923
1.9529
1.95628
1.95877
1.96039
1.96201
1.96337
1.96469
1.96603
1.96804
1.97049
1.97388
1.97787
1.98205
1.98645
1.99078
1.99523
1.99949
2.00357
2.0077
2.01188
2.01645
2.02131
2.02665
2.03258
2.03891
2.04544
2.05209
2.05862
2.06487
2.07068
2.07579
2.08003
2.08329
2.08573
2.08678
2.08807
2.08792
2.08988
2.09139
2.09399
2.09771
2.10258
2.10771
2.11203
2.1155
2.11956
2.1223
2.12386
2.12549
2.12585
0.2
0.2
0.2
0.2
0.2
0.2
0.2
0.2
0.2
0.2
0.2
0.2
0.2
0.2
0.2
0.2
0.2
0.2
0.2
0.2
0.2
0.2
0.2
0.2
0.2
0.2
0.199974
0.256595
1.26931
1.71553
1.7392
1.75137
1.76186
1.76897
1.77514
1.78632
1.79426
1.80266
1.81272
1.82331
1.83378
1.84245
1.8496
1.85505
1.85813
1.86136
1.86485
1.86796
1.87063
1.87291
1.87487
1.87672
1.87853
1.88065
1.88323
1.88656
1.89065
1.89468
1.89941
1.90448
1.90942
1.91507
1.92079
1.92619
1.93115
1.9355
1.94049
1.94507
1.94926
1.95336
1.95723
1.9606
1.96376
1.96666
1.96868
1.97173
1.97471
1.97751
1.98012
1.9825
1.98542
1.98882
1.99289
1.99724
2.00219
2.00683
2.01154
2.01615
2.0201
2.02416
2.02815
2.03246
2.03799
2.04288
2.04861
2.05509
2.06166
2.06804
2.07365
2.07863
2.08254
2.08542
2.08727
2.08842
2.08861
2.08816
2.08924
2.09036
2.09257
2.09572
2.09974
2.10402
2.10839
2.11261
2.11531
2.11824
2.12069
2.12246
2.12291
0.2
0.2
0.2
0.2
0.2
0.2
0.2
0.2
0.2
0.2
0.2
0.2
0.2
0.2
0.2
0.2
0.2
0.2
0.2
0.2
0.2
0.2
0.2
0.2
0.2
0.2
0.199961
0.280235
1.29488
1.71563
1.74174
1.75755
1.77245
1.78244
1.78661
1.7913
1.79525
1.80037
1.80817
1.81575
1.82311
1.83097
1.83876
1.84525
1.85139
1.85716
1.86163
1.86514
1.86825
1.87085
1.87336
1.87591
1.87846
1.88129
1.88465
1.88855
1.89317
1.8981
1.90307
1.90786
1.91228
1.91612
1.91995
1.92407
1.9285
1.93303
1.93777
1.9423
1.94642
1.95005
1.95338
1.95608
1.95849
1.96101
1.9628
1.96458
1.96683
1.96949
1.9723
1.97549
1.979
1.98315
1.98765
1.99244
1.99763
2.00219
2.0069
2.01132
2.01524
2.01903
2.02308
2.02741
2.03177
2.03745
2.04384
2.05091
2.05809
2.06515
2.07158
2.07703
2.08145
2.08476
2.08708
2.0883
2.08886
2.08892
2.08853
2.08911
2.09114
2.09411
2.09823
2.10211
2.10625
2.11009
2.11269
2.11524
2.11736
2.11897
2.11938
0.2
0.2
0.2
0.2
0.2
0.2
0.2
0.2
0.2
0.2
0.2
0.2
0.2
0.2
0.2
0.2
0.2
0.2
0.2
0.2
0.2
0.2
0.2
0.2
0.2
0.2
0.199967
0.246859
1.2701
1.71359
1.73946
1.75198
1.76319
1.77109
1.77851
1.7885
1.79513
1.80405
1.81433
1.82472
1.83434
1.84249
1.84907
1.85419
1.85748
1.86102
1.8647
1.8678
1.87047
1.87272
1.87485
1.87679
1.87865
1.88085
1.88347
1.88675
1.89042
1.89482
1.89995
1.90536
1.91074
1.91638
1.92167
1.92665
1.93129
1.93624
1.94107
1.94573
1.95023
1.95469
1.95841
1.96178
1.96474
1.96704
1.96956
1.97192
1.97408
1.97622
1.97823
1.9807
1.98352
1.98696
1.99079
1.9948
1.99921
2.00284
2.00654
2.01054
2.01421
2.01805
2.02221
2.02686
2.03237
2.03815
2.0444
2.05093
2.05749
2.06383
2.06964
2.07464
2.0788
2.08195
2.08429
2.08562
2.08619
2.08725
2.08761
2.08813
2.08983
2.09256
2.09624
2.10007
2.1039
2.10754
2.11024
2.11268
2.11452
2.11584
2.11586
0.2
0.2
0.2
0.2
0.2
0.2
0.2
0.2
0.2
0.2
0.2
0.2
0.2
0.2
0.2
0.2
0.2
0.2
0.2
0.2
0.2
0.2
0.2
0.2
0.2
0.2
0.199949
0.278132
1.28816
1.71378
1.7414
1.75654
1.77096
1.78141
1.78735
1.7922
1.79612
1.80127
1.8084
1.81615
1.82363
1.83128
1.83856
1.84516
1.8513
1.85709
1.8611
1.86454
1.8677
1.87038
1.873
1.8756
1.87821
1.88107
1.88444
1.88824
1.89262
1.89729
1.90208
1.90661
1.91085
1.91484
1.91893
1.92308
1.92737
1.93184
1.93634
1.94087
1.94507
1.94906
1.95257
1.95554
1.9585
1.96098
1.96319
1.96513
1.96736
1.96986
1.97253
1.97549
1.97858
1.98212
1.98566
1.98978
1.99298
1.99662
2.0007
2.00523
2.00975
2.0143
2.01912
2.02428
2.03004
2.03602
2.04212
2.04829
2.05457
2.06076
2.0666
2.07185
2.07644
2.08017
2.08298
2.08475
2.08557
2.08677
2.08693
2.08708
2.08843
2.0909
2.09433
2.09808
2.10169
2.10506
2.1076
2.10974
2.11123
2.11207
2.11194
0.2
0.2
0.2
0.2
0.2
0.2
0.2
0.2
0.2
0.2
0.2
0.2
0.2
0.2
0.2
0.2
0.2
0.2
0.2
0.2
0.2
0.2
0.2
0.2
0.2
0.2
0.199966
0.239301
1.26103
1.71314
1.74089
1.75339
1.76484
1.77375
1.78195
1.78956
1.79665
1.80582
1.81582
1.82571
1.83451
1.84216
1.84804
1.85299
1.85625
1.85969
1.86356
1.86661
1.86928
1.87164
1.87384
1.87582
1.87791
1.88034
1.88306
1.88621
1.89016
1.895
1.90065
1.9063
1.91189
1.91713
1.92205
1.9267
1.93137
1.93588
1.94042
1.94509
1.94948
1.95376
1.9576
1.96056
1.96348
1.96613
1.96814
1.96963
1.97106
1.97233
1.97407
1.97561
1.97768
1.98079
1.98429
1.98845
1.99261
1.99679
2.00094
2.00516
2.00939
2.01376
2.01849
2.02364
2.02939
2.03544
2.04181
2.04824
2.05463
2.06077
2.06637
2.0713
2.07544
2.07869
2.08108
2.08258
2.08349
2.08455
2.08505
2.08552
2.08672
2.08909
2.0923
2.09584
2.09921
2.10227
2.10459
2.10641
2.10755
2.10795
2.10729
0.2
0.2
0.2
0.2
0.2
0.2
0.2
0.2
0.2
0.2
0.2
0.2
0.2
0.2
0.2
0.2
0.2
0.2
0.2
0.2
0.2
0.2
0.2
0.2
0.2
0.2
0.199945
0.270189
1.27405
1.71323
1.74288
1.75771
1.77111
1.7814
1.78755
1.7919
1.7961
1.80161
1.80865
1.81635
1.82391
1.83137
1.83862
1.84504
1.8511
1.85671
1.86072
1.86404
1.86701
1.86977
1.87238
1.87494
1.8775
1.88029
1.88336
1.88674
1.89056
1.89496
1.89969
1.90433
1.9089
1.9132
1.91739
1.92159
1.92596
1.93037
1.93473
1.93932
1.94385
1.94806
1.95183
1.95515
1.95811
1.96055
1.96255
1.96425
1.96562
1.96713
1.96821
1.97005
1.97262
1.97614
1.98049
1.98549
1.99034
1.99495
1.99907
2.00307
2.00728
2.01176
2.01662
2.02198
2.0277
2.03377
2.04014
2.04649
2.05265
2.05852
2.06387
2.06858
2.07259
2.07575
2.07813
2.07987
2.08099
2.08214
2.08289
2.08343
2.08464
2.0869
2.08988
2.09316
2.09627
2.09898
2.10102
2.10244
2.10312
2.10311
2.10143
0.2
0.2
0.2
0.2
0.2
0.2
0.2
0.2
0.2
0.2
0.2
0.2
0.2
0.2
0.2
0.2
0.2
0.2
0.2
0.2
0.2
0.2
0.2
0.2
0.2
0.2
0.199969
0.232799
1.24063
1.71365
1.74317
1.75566
1.76683
1.77625
1.78411
1.79062
1.79834
1.80722
1.81685
1.82601
1.83426
1.84094
1.84658
1.85144
1.85462
1.85811
1.8618
1.86504
1.8677
1.87029
1.87252
1.87498
1.87721
1.87964
1.88241
1.8858
1.89011
1.8952
1.90078
1.90649
1.91174
1.91655
1.92103
1.9252
1.9294
1.93358
1.93792
1.9421
1.94653
1.95006
1.95344
1.95668
1.95869
1.96026
1.96173
1.96296
1.96419
1.96533
1.96694
1.96918
1.97164
1.97482
1.97891
1.98363
1.98846
1.99316
1.99739
2.00163
2.00608
2.01077
2.01568
2.02107
2.02672
2.03279
2.0391
2.04546
2.05169
2.0576
2.063
2.06772
2.07166
2.07477
2.07709
2.07874
2.07967
2.08047
2.08107
2.08161
2.08259
2.08462
2.08732
2.09025
2.09307
2.09542
2.09712
2.09813
2.09838
2.09776
2.09524
0.2
0.2
0.2
0.2
0.2
0.2
0.2
0.2
0.2
0.2
0.2
0.2
0.2
0.2
0.2
0.2
0.2
0.2
0.2
0.2
0.2
0.2
0.2
0.2
0.2
0.2
0.199951
0.257568
1.25135
1.71412
1.74564
1.76005
1.77189
1.78071
1.78656
1.79085
1.79524
1.8012
1.80847
1.81611
1.82387
1.83082
1.83799
1.84423
1.85007
1.85549
1.85931
1.86299
1.86597
1.86864
1.87108
1.87343
1.87582
1.87843
1.88115
1.88408
1.88776
1.8922
1.89726
1.90225
1.90704
1.91161
1.91581
1.91988
1.92416
1.92825
1.93274
1.93675
1.94065
1.94429
1.94773
1.95025
1.95226
1.95414
1.95625
1.95829
1.96015
1.96185
1.96387
1.96642
1.96889
1.97189
1.9759
1.98056
1.98553
1.99054
1.99504
1.99952
2.00414
2.0091
2.01402
2.01946
2.02521
2.03133
2.03766
2.04405
2.05026
2.05615
2.06152
2.06619
2.07006
2.07309
2.07533
2.07692
2.07776
2.07825
2.07858
2.07891
2.07985
2.08178
2.08426
2.08696
2.08945
2.09146
2.09278
2.09332
2.0931
2.09179
2.08832
0.2
0.2
0.2
0.2
0.2
0.2
0.2
0.2
0.2
0.2
0.2
0.2
0.2
0.2
0.2
0.2
0.2
0.2
0.2
0.2
0.2
0.2
0.2
0.2
0.2
0.2
0.199978
0.224985
1.21228
1.71507
1.74628
1.7586
1.76915
1.77821
1.78557
1.79251
1.80014
1.80839
1.81701
1.82517
1.83214
1.83847
1.84403
1.84891
1.85247
1.85633
1.85987
1.86338
1.86597
1.86897
1.87132
1.87346
1.87572
1.87841
1.88134
1.88458
1.88849
1.89292
1.89802
1.90265
1.9071
1.91122
1.91473
1.91805
1.9215
1.92511
1.9291
1.93318
1.93686
1.94078
1.94465
1.94796
1.95054
1.95272
1.95473
1.95651
1.95821
1.95965
1.9614
1.96383
1.96627
1.96943
1.97344
1.97815
1.98316
1.98815
1.9927
1.99729
2.00203
2.00732
2.01238
2.01799
2.02389
2.03002
2.03631
2.04261
2.04874
2.05458
2.05995
2.06459
2.06841
2.07137
2.07353
2.075
2.07571
2.07601
2.07612
2.07623
2.07708
2.07881
2.081
2.08337
2.08552
2.08717
2.08809
2.08819
2.08731
2.08538
2.08091
0.2
0.2
0.2
0.2
0.2
0.2
0.2
0.2
0.2
0.2
0.2
0.2
0.2
0.2
0.2
0.2
0.2
0.2
0.2
0.2
0.2
0.2
0.2
0.2
0.2
0.2
0.19997
0.238716
1.21493
1.71555
1.74882
1.76142
1.77154
1.77945
1.78561
1.79036
1.79516
1.80151
1.80887
1.81651
1.82386
1.83064
1.83722
1.8434
1.84884
1.85372
1.85772
1.86097
1.86439
1.867
1.86933
1.87148
1.87395
1.87644
1.87883
1.8814
1.88464
1.88844
1.89278
1.89708
1.90089
1.9047
1.90821
1.91168
1.91536
1.91905
1.92357
1.9275
1.93182
1.9364
1.94095
1.94494
1.94804
1.9505
1.95235
1.95413
1.95582
1.95728
1.95888
1.96152
1.9638
1.96712
1.97115
1.97599
1.98107
1.98604
1.99068
1.99541
2.00025
2.00569
2.01072
2.0164
2.02232
2.02838
2.0345
2.04061
2.04657
2.05224
2.05755
2.06221
2.06608
2.06907
2.07124
2.07265
2.07325
2.07339
2.07326
2.07319
2.07382
2.07538
2.07729
2.07936
2.08117
2.08246
2.08296
2.08252
2.08101
2.07845
2.07296
0.2
0.2
0.2
0.2
0.2
0.2
0.2
0.2
0.2
0.2
0.2
0.2
0.2
0.2
0.2
0.2
0.2
0.2
0.2
0.2
0.2
0.2
0.2
0.2
0.2
0.2
0.19999
0.215038
1.17752
1.71634
1.74972
1.76106
1.77143
1.77974
1.78707
1.79374
1.79989
1.80644
1.81361
1.82021
1.82661
1.83233
1.83759
1.84268
1.84639
1.85031
1.85399
1.85647
1.85955
1.86182
1.86393
1.86605
1.86849
1.87099
1.87348
1.87625
1.87969
1.88374
1.88864
1.89338
1.89793
1.90235
1.90617
1.90989
1.91389
1.91743
1.922
1.92561
1.92982
1.93429
1.93875
1.94255
1.94564
1.94827
1.95024
1.95216
1.95395
1.95545
1.95684
1.95936
1.96134
1.9646
1.96848
1.97337
1.97852
1.98346
1.98817
1.993
1.99791
2.00345
2.00859
2.01443
2.02049
2.0266
2.03269
2.03874
2.04461
2.05017
2.0554
2.06
2.0638
2.0667
2.06878
2.07009
2.07057
2.07057
2.07013
2.06991
2.07037
2.07168
2.07328
2.07501
2.07647
2.07738
2.07749
2.07632
2.07431
2.07107
2.06455
0.2
0.2
0.2
0.2
0.2
0.2
0.2
0.2
0.2
0.2
0.2
0.2
0.2
0.2
0.2
0.2
0.2
0.2
0.2
0.2
0.2
0.2
0.2
0.2
0.2
0.2
0.199993
0.213615
1.16373
1.71749
1.75095
1.76206
1.7717
1.77962
1.78549
1.7905
1.79554
1.80165
1.80816
1.81462
1.82053
1.82616
1.83186
1.83717
1.84156
1.84646
1.84917
1.85276
1.85573
1.85816
1.86034
1.86267
1.86507
1.86727
1.8695
1.8722
1.87568
1.87992
1.88504
1.89025
1.89512
1.90005
1.90393
1.90789
1.91185
1.91541
1.91987
1.92321
1.92741
1.93181
1.93613
1.93979
1.94282
1.94537
1.94731
1.94921
1.95094
1.95236
1.95355
1.95596
1.95758
1.96083
1.96462
1.96954
1.9748
1.97978
1.98463
1.98964
1.99479
2.00047
2.00584
2.01192
2.01815
2.02432
2.03037
2.03631
2.04201
2.0474
2.0525
2.05699
2.06073
2.06368
2.06573
2.06701
2.06744
2.06727
2.06651
2.06615
2.06646
2.06752
2.06881
2.0702
2.07129
2.07179
2.0714
2.06969
2.06711
2.06316
2.05559
0.2
0.2
0.2
0.2
0.2
0.2
0.2
0.2
0.2
0.2
0.2
0.2
0.2
0.2
0.2
0.2
0.2
0.2
0.2
0.2
0.2
0.2
0.2
0.2
0.2
0.2
0.200001
0.201694
1.13182
1.71514
1.75049
1.76157
1.77195
1.77975
1.78604
1.79086
1.79542
1.8008
1.80654
1.81247
1.81825
1.82369
1.82942
1.83439
1.83909
1.84373
1.84662
1.85091
1.85394
1.85676
1.85918
1.86162
1.86392
1.86594
1.86796
1.87048
1.87371
1.87763
1.88227
1.88715
1.89174
1.8965
1.9001
1.9041
1.90795
1.91156
1.91595
1.91948
1.92381
1.92831
1.93274
1.9365
1.93957
1.94206
1.94404
1.94596
1.94772
1.94926
1.95046
1.95293
1.95442
1.95772
1.96144
1.9664
1.97169
1.9767
1.98166
1.98676
1.99207
1.99784
2.00338
2.00955
2.0158
2.0219
2.02782
2.0336
2.03913
2.04437
2.04937
2.05378
2.05745
2.06029
2.06233
2.0636
2.06403
2.06362
2.0626
2.06208
2.06223
2.06301
2.06398
2.06497
2.06567
2.06582
2.0648
2.06261
2.05946
2.05477
2.04613
0.2
0.2
0.2
0.2
0.2
0.2
0.2
0.2
0.2
0.2
0.2
0.2
0.2
0.2
0.2
0.2
0.2
0.2
0.2
0.2
0.2
0.2
0.2
0.2
0.2
0.2
0.200002
0.198602
1.1108
1.71464
1.7509
1.76131
1.77111
1.77829
1.78386
1.78811
1.79233
1.7973
1.80295
1.80881
1.81475
1.82036
1.8258
1.83077
1.83576
1.83951
1.84367
1.84763
1.85067
1.85346
1.85592
1.85839
1.86048
1.86231
1.86414
1.86647
1.86937
1.87289
1.87704
1.88152
1.88606
1.89058
1.89443
1.89869
1.9022
1.90634
1.91049
1.91426
1.9187
1.9233
1.92782
1.93175
1.9351
1.93763
1.93985
1.94195
1.94383
1.94548
1.94675
1.94923
1.95066
1.95398
1.95771
1.96262
1.96798
1.9731
1.97822
1.98346
1.98902
1.99487
2.00057
2.00681
2.01306
2.01906
2.02482
2.03042
2.03576
2.04086
2.04573
2.05004
2.05364
2.05642
2.05841
2.05958
2.0599
2.05937
2.05815
2.05746
2.05745
2.05794
2.05859
2.05921
2.0595
2.05925
2.05767
2.05496
2.05124
2.0458
2.03601
0.2
0.2
0.2
0.2
0.2
0.2
0.2
0.2
0.2
0.2
0.2
0.2
0.2
0.2
0.2
0.2
0.2
0.2
0.2
0.2
0.2
0.2
0.2
0.2
0.2
0.2
0.200002
0.198364
1.07063
1.70558
1.7455
1.75579
1.76546
1.7727
1.77811
1.78241
1.78639
1.79116
1.79673
1.803
1.80953
1.81604
1.82158
1.8268
1.83191
1.83594
1.84082
1.84425
1.84763
1.8505
1.85317
1.85574
1.8578
1.85965
1.86147
1.86389
1.86669
1.86991
1.87373
1.87791
1.88234
1.88658
1.89072
1.89495
1.89826
1.90285
1.90641
1.91037
1.91483
1.91941
1.92387
1.92781
1.9313
1.9338
1.93612
1.93833
1.94015
1.94176
1.94305
1.94539
1.94679
1.95004
1.95379
1.95862
1.96407
1.96937
1.97469
1.98007
1.98595
1.99186
1.9977
2.00397
2.01016
2.016
2.02157
2.02694
2.03206
2.03699
2.0417
2.04588
2.0494
2.05215
2.0541
2.05524
2.05551
2.05494
2.05361
2.05268
2.05245
2.05265
2.05296
2.05316
2.05306
2.05228
2.0501
2.04685
2.04252
2.03633
2.02536
0.2
0.2
0.2
0.2
0.2
0.2
0.2
0.2
0.2
0.2
0.2
0.2
0.2
0.2
0.2
0.2
0.2
0.2
0.2
0.2
0.2
0.2
0.2
0.2
0.2
0.2
0.200002
0.198439
1.03809
1.69712
1.74284
1.75289
1.76207
1.76871
1.77397
1.77801
1.78288
1.78765
1.79329
1.79952
1.806
1.8122
1.81753
1.82326
1.82764
1.83262
1.83732
1.84078
1.84435
1.84727
1.85017
1.85268
1.85473
1.85664
1.85855
1.86116
1.86376
1.86674
1.87025
1.87415
1.87848
1.88258
1.88683
1.89075
1.89443
1.89896
1.90231
1.90635
1.91071
1.91522
1.91959
1.92353
1.92705
1.92952
1.93202
1.9343
1.93596
1.93747
1.93891
1.94106
1.94254
1.94568
1.94944
1.95417
1.95966
1.96511
1.97061
1.97613
1.98235
1.98826
1.99426
2.00056
2.00669
2.01243
2.01782
2.02297
2.02787
2.03265
2.03719
2.04126
2.0447
2.04741
2.04933
2.05043
2.05067
2.05004
2.04841
2.04724
2.04678
2.04671
2.04669
2.04653
2.04598
2.04469
2.04193
2.03811
2.03322
2.02628
2.01408
0.2
0.2
0.2
0.2
0.2
0.2
0.2
0.2
0.2
0.2
0.2
0.2
0.2
0.2
0.2
0.2
0.2
0.2
0.2
0.2
0.2
0.2
0.2
0.2
0.2
0.2
0.200002
0.198524
1.00276
1.68696
1.74076
1.75065
1.7598
1.76649
1.77166
1.77611
1.78112
1.78571
1.79073
1.79653
1.80263
1.80845
1.81402
1.81967
1.82425
1.82963
1.83358
1.83749
1.84107
1.8441
1.84711
1.84953
1.8516
1.85344
1.85542
1.85773
1.86
1.86277
1.86595
1.86959
1.87381
1.87799
1.88243
1.88589
1.89042
1.89425
1.89781
1.90183
1.90609
1.91053
1.91485
1.91887
1.92223
1.92494
1.92766
1.92989
1.93144
1.93277
1.93452
1.93639
1.93802
1.94098
1.94475
1.94943
1.95494
1.96056
1.96633
1.97208
1.97856
1.98445
1.99063
1.99695
2.00295
2.00849
2.01365
2.01857
2.02321
2.02786
2.03225
2.03621
2.03958
2.04224
2.04412
2.04516
2.04535
2.04462
2.0428
2.04141
2.04068
2.04032
2.03994
2.03936
2.03838
2.03655
2.03323
2.02876
2.02329
2.01568
2.00213
0.2
0.2
0.2
0.2
0.2
0.2
0.2
0.2
0.2
0.2
0.2
0.2
0.2
0.2
0.2
0.2
0.2
0.2
0.2
0.2
0.2
0.2
0.2
0.2
0.2
0.2
0.200002
0.198634
0.960432
1.67834
1.73809
1.74814
1.75748
1.7646
1.76968
1.77499
1.77941
1.78366
1.788
1.79324
1.79909
1.80483
1.81049
1.81588
1.82124
1.82584
1.82991
1.8341
1.83765
1.84094
1.84388
1.84629
1.84837
1.85016
1.85228
1.85406
1.85611
1.8586
1.86144
1.86487
1.86889
1.8731
1.87739
1.88134
1.886
1.88938
1.89307
1.89703
1.90109
1.90542
1.9098
1.91384
1.91701
1.9199
1.92277
1.92488
1.92642
1.92755
1.92978
1.93123
1.93314
1.93596
1.93981
1.94444
1.94993
1.9557
1.96173
1.96773
1.97435
1.98019
1.98642
1.99271
1.99859
2.00403
2.00905
2.01377
2.01818
2.02268
2.02693
2.03078
2.03408
2.03668
2.0385
2.03948
2.03963
2.03879
2.03681
2.03519
2.03416
2.03344
2.03267
2.03169
2.03027
2.02787
2.02399
2.01883
2.01272
2.00453
1.98961
0.2
0.2
0.2
0.2
0.2
0.2
0.2
0.2
0.2
0.2
0.2
0.2
0.2
0.2
0.2
0.2
0.2
0.2
0.2
0.2
0.2
0.2
0.2
0.2
0.2
0.2
0.200002
0.198748
0.912099
1.67041
1.73534
1.74491
1.75488
1.76192
1.76773
1.77343
1.7772
1.78104
1.78479
1.78952
1.79518
1.80104
1.80649
1.81214
1.81725
1.82143
1.82593
1.83016
1.83383
1.83738
1.84028
1.84272
1.84474
1.84669
1.84848
1.84999
1.85189
1.85417
1.85673
1.85985
1.86367
1.86791
1.87193
1.87663
1.88054
1.88405
1.88776
1.89167
1.89564
1.89979
1.90418
1.90821
1.91128
1.91439
1.91729
1.91928
1.92099
1.92208
1.92462
1.92575
1.928
1.93085
1.93471
1.93929
1.94472
1.95062
1.95684
1.96309
1.96979
1.97564
1.98186
1.98804
1.99376
1.99899
2.00387
2.00846
2.01269
2.01703
2.02115
2.0249
2.02814
2.03068
2.03246
2.03338
2.03349
2.03254
2.03044
2.02857
2.02724
2.02614
2.02496
2.02357
2.02166
2.01869
2.01424
2.00834
2.00155
1.99283
1.97649
0.2
0.2
0.2
0.2
0.2
0.2
0.2
0.2
0.2
0.2
0.2
0.2
0.2
0.2
0.2
0.2
0.2
0.2
0.2
0.2
0.2
0.2
0.2
0.2
0.2
0.2
0.200001
0.198873
0.858344
1.66167
1.73291
1.74193
1.75206
1.75942
1.76625
1.77047
1.77443
1.77786
1.78114
1.78556
1.79109
1.79682
1.80244
1.80787
1.81239
1.81704
1.82169
1.82597
1.82997
1.83359
1.83653
1.83893
1.84094
1.84286
1.84423
1.84574
1.84748
1.84949
1.85178
1.85455
1.85804
1.86217
1.86642
1.87117
1.87461
1.87833
1.88206
1.8859
1.88975
1.89377
1.89812
1.90177
1.90509
1.9085
1.91117
1.91311
1.91495
1.91663
1.91893
1.9203
1.92273
1.92566
1.92951
1.93399
1.93934
1.94531
1.95165
1.95813
1.96487
1.97066
1.97684
1.9829
1.98844
1.99348
1.99819
2.00262
2.00672
2.01095
2.01495
2.01858
2.02174
2.02421
2.02594
2.02682
2.02687
2.02581
2.02361
2.02147
2.0198
2.0183
2.01669
2.01485
2.01243
2.00889
2.00388
1.99721
1.98973
1.98052
1.96275
0.2
0.2
0.2
0.2
0.2
0.2
0.2
0.2
0.2
0.2
0.2
0.2
0.2
0.2
0.2
0.2
0.2
0.2
0.2
0.2
0.2
0.2
0.2
0.2
0.2
0.2
0.200001
0.199005
0.800334
1.65097
1.73035
1.73872
1.74914
1.75734
1.7629
1.76725
1.77133
1.77417
1.77735
1.78154
1.78677
1.79251
1.79801
1.80275
1.80757
1.81243
1.81717
1.82155
1.82576
1.82934
1.83227
1.83463
1.8369
1.83837
1.83978
1.84126
1.84286
1.8446
1.84656
1.84893
1.85223
1.85604
1.86079
1.86453
1.86828
1.87205
1.87588
1.87965
1.88324
1.88721
1.89135
1.8948
1.89838
1.90201
1.90447
1.90675
1.9086
1.91112
1.91305
1.91474
1.91734
1.92038
1.92421
1.92856
1.93373
1.93971
1.94611
1.9528
1.95946
1.96521
1.97133
1.97725
1.98259
1.98744
1.99197
1.99624
2.00018
2.0043
2.00819
2.01178
2.01489
2.01732
2.01902
2.01987
2.01986
2.01873
2.01642
2.014
2.01197
2.01003
2.00796
2.00565
2.00271
1.99859
1.99303
1.98554
1.97733
1.96767
1.94844
0.2
0.2
0.2
0.2
0.2
0.2
0.2
0.2
0.2
0.2
0.2
0.2
0.2
0.2
0.2
0.2
0.2
0.2
0.2
0.2
0.2
0.2
0.2
0.2
0.2
0.2
0.200001
0.199143
0.737713
1.63732
1.72782
1.73564
1.74622
1.75371
1.75951
1.76408
1.7675
1.77057
1.77364
1.77754
1.78239
1.78788
1.79284
1.79778
1.80272
1.80755
1.81223
1.81671
1.82091
1.82446
1.82738
1.83009
1.83203
1.83352
1.83501
1.83642
1.83792
1.83926
1.84092
1.84309
1.84597
1.84983
1.85395
1.85764
1.8616
1.86536
1.8692
1.87282
1.87634
1.88039
1.88388
1.88752
1.89134
1.89479
1.89738
1.90028
1.90224
1.90535
1.90701
1.90917
1.91191
1.91505
1.91878
1.92295
1.92793
1.93382
1.94021
1.94705
1.9535
1.95923
1.96529
1.97105
1.97619
1.98084
1.98521
1.98932
1.99317
1.99718
2.00097
2.00448
2.00756
2.00996
2.01163
2.01246
2.01239
2.01118
2.00877
2.00609
2.00366
2.00127
1.99873
1.99593
1.99249
1.98778
1.98165
1.97332
1.96441
1.95429
1.93363
0.2
0.2
0.2
0.2
0.2
0.2
0.2
0.2
0.2
0.2
0.2
0.2
0.2
0.2
0.2
0.2
0.2
0.2
0.2
0.2
0.2
0.2
0.2
0.2
0.2
0.2
0.200001
0.199284
0.670578
1.61963
1.72487
1.73235
1.74218
1.75013
1.75597
1.76006
1.76393
1.76688
1.76979
1.77341
1.77794
1.78278
1.78785
1.79289
1.79768
1.80233
1.80694
1.81145
1.8156
1.81911
1.82235
1.82481
1.82662
1.82837
1.82986
1.83124
1.83247
1.83356
1.83499
1.83692
1.83961
1.84305
1.8464
1.85039
1.85439
1.8582
1.862
1.86541
1.86904
1.87289
1.87624
1.87998
1.88393
1.88711
1.8903
1.89338
1.89607
1.89914
1.90105
1.90349
1.90633
1.90959
1.91319
1.91716
1.92189
1.9276
1.93395
1.94081
1.94696
1.95272
1.95871
1.9643
1.96924
1.97372
1.97794
1.9819
1.98571
1.98959
1.99327
1.99671
1.99975
2.00214
2.0038
2.0046
2.00449
2.00319
2.00065
1.99772
1.99487
1.99199
1.98895
1.98562
1.98164
1.97632
1.96961
1.96042
1.95079
1.94037
1.91819
0.2
0.2
0.2
0.2
0.2
0.2
0.2
0.2
0.2
0.2
0.2
0.2
0.2
0.2
0.2
0.2
0.2
0.2
0.2
0.2
0.2
0.2
0.2
0.2
0.2
0.2
0.200001
0.19942
0.599928
1.59614
1.72092
1.72827
1.73765
1.74564
1.75125
1.75642
1.7601
1.76298
1.7662
1.76943
1.77307
1.77758
1.78267
1.78758
1.79218
1.79668
1.80128
1.80572
1.80976
1.81363
1.81651
1.81876
1.82091
1.82267
1.82428
1.8256
1.82639
1.82743
1.82888
1.83057
1.83303
1.83535
1.83871
1.84265
1.84657
1.85048
1.85424
1.85769
1.86161
1.86486
1.86843
1.87228
1.87607
1.87955
1.88334
1.88628
1.88993
1.89263
1.89492
1.89767
1.9006
1.90392
1.9074
1.91118
1.91559
1.921
1.92719
1.9339
1.93974
1.94557
1.95152
1.95692
1.96169
1.96603
1.97015
1.97399
1.97776
1.98153
1.98511
1.98847
1.99148
1.99385
1.9955
1.9963
1.99615
1.99476
1.99207
1.98892
1.98563
1.98225
1.97868
1.97477
1.97025
1.96432
1.95699
1.94707
1.93662
1.92594
1.90233
0.2
0.2
0.2
0.2
0.2
0.2
0.2
0.2
0.2
0.2
0.2
0.2
0.2
0.2
0.2
0.2
0.2
0.2
0.2
0.2
0.2
0.2
0.2
0.2
0.2
0.2
0.200001
0.199549
0.528761
1.56547
1.71499
1.72333
1.73223
1.74045
1.74732
1.75228
1.75624
1.75983
1.76231
1.76483
1.7682
1.77256
1.7774
1.78206
1.78642
1.79085
1.79525
1.79956
1.8039
1.8071
1.80996
1.81248
1.81457
1.81667
1.81813
1.81902
1.82013
1.82124
1.82239
1.82408
1.82548
1.82772
1.83081
1.83452
1.8384
1.84242
1.84612
1.85
1.85375
1.85696
1.86059
1.86444
1.8682
1.872
1.87603
1.87944
1.88344
1.8861
1.88876
1.89169
1.8947
1.89803
1.90133
1.90501
1.90901
1.91399
1.91986
1.92625
1.9319
1.93782
1.9437
1.94894
1.95357
1.95779
1.9619
1.96561
1.96933
1.973
1.97649
1.97977
1.98271
1.98507
1.98671
1.98749
1.9873
1.9858
1.98296
1.97961
1.9759
1.97203
1.96794
1.96341
1.95833
1.95179
1.94382
1.93321
1.92198
1.91094
1.88595
0.2
0.2
0.2
0.2
0.2
0.2
0.2
0.2
0.2
0.2
0.2
0.2
0.2
0.2
0.2
0.2
0.2
0.2
0.2
0.2
0.2
0.2
0.2
0.2
0.2
0.2
0.2
0.199667
0.459043
1.52556
1.70938
1.71785
1.72703
1.73618
1.7429
1.74862
1.75287
1.75558
1.75761
1.76029
1.76364
1.76762
1.77187
1.77633
1.78046
1.78474
1.78886
1.79318
1.79657
1.79988
1.80283
1.80562
1.80804
1.80965
1.81116
1.81252
1.81351
1.81448
1.81575
1.81664
1.818
1.82009
1.82286
1.82628
1.83022
1.83425
1.83806
1.84231
1.84554
1.84904
1.85288
1.85652
1.86034
1.86446
1.86839
1.87269
1.87636
1.87935
1.88235
1.88545
1.88854
1.89183
1.8949
1.89836
1.90201
1.90651
1.91195
1.91791
1.92351
1.92951
1.93527
1.94038
1.94494
1.94908
1.95321
1.95678
1.96047
1.96406
1.96747
1.97067
1.97354
1.97586
1.97748
1.97823
1.97801
1.97637
1.97338
1.96986
1.96577
1.96141
1.95679
1.95161
1.94592
1.93876
1.93016
1.9189
1.9069
1.89543
1.86906
0.2
0.2
0.2
0.2
0.2
0.2
0.2
0.2
0.2
0.2
0.2
0.2
0.2
0.2
0.2
0.2
0.2
0.2
0.2
0.2
0.2
0.2
0.2
0.2
0.2
0.2
0.2
0.199773
0.392074
1.47271
1.70392
1.71328
1.72199
1.73135
1.73874
1.74434
1.74799
1.75035
1.75309
1.75608
1.7591
1.76244
1.7663
1.77029
1.77405
1.77823
1.78184
1.78536
1.78886
1.79224
1.79528
1.79783
1.80034
1.80249
1.80425
1.80536
1.80656
1.80765
1.80837
1.80933
1.81082
1.81278
1.81523
1.81851
1.82217
1.8262
1.83057
1.83394
1.8375
1.84131
1.845
1.84861
1.85246
1.85672
1.86088
1.86551
1.86896
1.87243
1.87577
1.87894
1.88212
1.88509
1.88793
1.89107
1.89444
1.89853
1.90352
1.90887
1.91448
1.92055
1.9262
1.93124
1.9358
1.93983
1.94398
1.94749
1.95116
1.9547
1.95803
1.96114
1.96393
1.96621
1.96781
1.9685
1.9682
1.9664
1.96328
1.95955
1.9551
1.95027
1.94509
1.93924
1.93288
1.92508
1.91595
1.90403
1.89126
1.87933
1.85158
0.2
0.2
0.2
0.2
0.2
0.2
0.2
0.2
0.2
0.2
0.2
0.2
0.2
0.2
0.2
0.2
0.2
0.2
0.2
0.2
0.2
0.2
0.2
0.2
0.2
0.2
0.2
0.199865
0.327845
1.40384
1.698
1.70791
1.71668
1.72606
1.73388
1.73911
1.74272
1.74596
1.74913
1.75174
1.75414
1.75688
1.7602
1.76392
1.76741
1.77066
1.77407
1.77749
1.78076
1.78388
1.78697
1.78991
1.79267
1.79502
1.7966
1.79845
1.79957
1.80045
1.80139
1.80264
1.80416
1.80592
1.80812
1.81101
1.81441
1.81874
1.82224
1.82597
1.82968
1.83339
1.83698
1.84065
1.84463
1.84878
1.85339
1.85757
1.86131
1.86514
1.86878
1.87213
1.87525
1.87779
1.88038
1.88321
1.88623
1.88996
1.89457
1.89924
1.9049
1.91102
1.91664
1.9216
1.92611
1.93016
1.93434
1.93784
1.94147
1.94491
1.94813
1.95115
1.95385
1.95606
1.95758
1.95818
1.9578
1.95585
1.95263
1.94868
1.94391
1.93863
1.93289
1.92636
1.91932
1.91091
1.90125
1.88872
1.87516
1.86272
1.83364
0.2
0.2
0.2
0.2
0.2
0.2
0.2
0.2
0.2
0.2
0.2
0.2
0.2
0.2
0.2
0.2
0.2
0.2
0.2
0.2
0.2
0.2
0.2
0.2
0.2
0.2
0.2
0.19994
0.267479
1.30518
1.68888
1.70534
1.71332
1.72208
1.72884
1.73402
1.73832
1.74228
1.74502
1.74727
1.74929
1.75159
1.7542
1.75695
1.75974
1.76281
1.76594
1.76915
1.77239
1.77585
1.77894
1.78199
1.78451
1.78717
1.78952
1.79122
1.79265
1.79385
1.79508
1.79644
1.79775
1.79928
1.80122
1.80367
1.80703
1.81047
1.81419
1.818
1.82173
1.82532
1.82884
1.83267
1.83666
1.84074
1.84519
1.84916
1.85325
1.8573
1.8611
1.86474
1.86772
1.86988
1.87226
1.87468
1.8774
1.88075
1.885
1.8892
1.89486
1.90097
1.90656
1.91147
1.91595
1.92019
1.92433
1.92784
1.9314
1.93475
1.93789
1.94082
1.9434
1.94553
1.94696
1.94748
1.94703
1.94497
1.94167
1.93751
1.93241
1.92668
1.92038
1.91316
1.90539
1.89639
1.88617
1.87294
1.85854
1.8455
1.8153
0.2
0.2
0.2
0.2
0.2
0.2
0.2
0.2
0.2
0.2
0.2
0.2
0.2
0.2
0.2
0.2
0.2
0.2
0.2
0.2
0.2
0.2
0.2
0.2
0.2
0.2
0.2
0.199992
0.215396
1.17882
1.68597
1.70579
1.71167
1.71865
1.72485
1.73001
1.73492
1.73827
1.74094
1.74308
1.74476
1.74605
1.74782
1.74987
1.75197
1.75477
1.7579
1.76119
1.76447
1.76775
1.77083
1.7738
1.777
1.77962
1.78208
1.78429
1.78611
1.78778
1.7893
1.79055
1.79166
1.7928
1.79453
1.79663
1.79917
1.80226
1.80574
1.80958
1.81327
1.81697
1.82075
1.82452
1.82813
1.83227
1.83621
1.84029
1.84456
1.84876
1.8527
1.85652
1.85925
1.86139
1.86357
1.86551
1.86791
1.87107
1.87481
1.87881
1.8843
1.89035
1.89591
1.90082
1.90532
1.90978
1.91382
1.91738
1.92091
1.9242
1.92724
1.93005
1.9325
1.93452
1.93583
1.93628
1.93572
1.93358
1.9302
1.92585
1.92042
1.91426
1.90739
1.89953
1.89105
1.88137
1.87049
1.85669
1.84149
1.82779
1.79611
0.2
0.2
0.2
0.2
0.2
0.2
0.2
0.2
0.2
0.2
0.2
0.2
0.2
0.2
0.2
0.2
0.2
0.2
0.2
0.2
0.2
0.2
0.2
0.2
0.2
0.2
0.2
0.200001
0.198878
1.02868
1.67675
1.70393
1.70679
1.71352
1.71994
1.72597
1.73111
1.73471
1.73711
1.73811
1.73939
1.74024
1.7414
1.74274
1.7444
1.74701
1.75008
1.75335
1.75639
1.75954
1.76298
1.76608
1.76917
1.77218
1.77495
1.77734
1.77968
1.78178
1.78344
1.78479
1.78582
1.787
1.78802
1.78933
1.79126
1.79374
1.79673
1.80038
1.80443
1.8083
1.81188
1.81537
1.81928
1.82296
1.82671
1.83084
1.83516
1.83941
1.8436
1.84752
1.84981
1.85217
1.85431
1.85602
1.85783
1.86117
1.86403
1.868
1.87337
1.87933
1.88484
1.8898
1.89436
1.89893
1.90289
1.90654
1.91007
1.91327
1.91618
1.91882
1.9211
1.92299
1.92416
1.9245
1.92382
1.92163
1.91814
1.91362
1.90784
1.90124
1.89384
1.88536
1.87614
1.86581
1.85428
1.83989
1.82382
1.80944
1.77696
0.2
0.2
0.2
0.2
0.2
0.2
0.2
0.2
0.2
0.2
0.2
0.2
0.2
0.2
0.2
0.2
0.2
0.2
0.2
0.2
0.2
0.2
0.2
0.2
0.2
0.2
0.2
0.200001
0.199187
0.875279
1.65447
1.70064
1.70213
1.70907
1.71727
1.72338
1.72758
1.7297
1.73146
1.73231
1.73337
1.73396
1.73468
1.73586
1.73751
1.73953
1.74257
1.74558
1.74877
1.75155
1.75464
1.75795
1.76125
1.7644
1.76738
1.77035
1.77293
1.77512
1.77697
1.77853
1.77971
1.78017
1.78075
1.78165
1.78299
1.78469
1.7874
1.79086
1.79463
1.79843
1.80205
1.80594
1.80954
1.81296
1.81666
1.82067
1.82498
1.8293
1.83367
1.83731
1.83985
1.84237
1.84441
1.84605
1.84773
1.85081
1.85317
1.85707
1.86236
1.86803
1.8735
1.87857
1.88308
1.88768
1.89158
1.8953
1.89883
1.90193
1.9047
1.90715
1.90928
1.91101
1.91202
1.91226
1.91144
1.9092
1.90563
1.90092
1.89483
1.88781
1.87991
1.87085
1.86085
1.84986
1.83765
1.82268
1.80587
1.79073
1.75697
0.2
0.2
0.2
0.2
0.2
0.2
0.2
0.2
0.2
0.2
0.2
0.2
0.2
0.2
0.2
0.2
0.2
0.2
0.2
0.2
0.2
0.2
0.2
0.2
0.2
0.2
0.2
0.2
0.199447
0.702398
1.62651
1.70335
1.70358
1.70699
1.7122
1.71612
1.71976
1.72225
1.72452
1.72572
1.72648
1.72759
1.72839
1.72908
1.73032
1.73202
1.73442
1.73707
1.74036
1.74383
1.74722
1.75039
1.75354
1.75672
1.75975
1.76261
1.76521
1.76753
1.76941
1.77067
1.77166
1.77247
1.77314
1.7737
1.77441
1.7759
1.77796
1.78061
1.78384
1.78775
1.7917
1.79551
1.79901
1.80247
1.80615
1.81011
1.81413
1.81856
1.82293
1.82607
1.82926
1.83208
1.83398
1.83555
1.83769
1.8401
1.84239
1.84596
1.8511