/*--------------------------------*- C++ -*----------------------------------*\
| =========                 |                                                 |
| \\      /  F ield         | OpenFOAM: The Open Source CFD Toolbox           |
|  \\    /   O peration     | Version:  2.2.x                                 |
|   \\  /    A nd           | Web:      www.OpenFOAM.org                      |
|    \\/     M anipulation  |                                                 |
\*---------------------------------------------------------------------------*/
FoamFile
{
    version     2.0;
    format      ascii;
    class       volScalarField;
    location    "2.3";
    object      T;
}
// * * * * * * * * * * * * * * * * * * * * * * * * * * * * * * * * * * * * * //

dimensions      [0 0 0 1 0 0 0];

internalField   nonuniform List<scalar> 
14161
(
0.995389
0.995543
0.995346
0.994988
0.994504
0.993832
0.992931
0.991875
0.990728
0.989271
0.987526
0.98572
0.983889
0.981348
0.978937
0.976739
0.973406
0.97124
0.969586
0.966136
0.963716
0.963117
0.962193
0.960951
0.96045
0.960688
0.961599
0.963331
0.965837
0.969895
0.975319
0.981852
0.990265
1.00535
1.02132
1.03969
1.05777
1.07059
1.08991
1.09828
2.44311
2.93665
2.97417
2.97915
2.96581
2.96022
2.94415
2.93262
2.91999
2.90873
2.89638
2.88489
2.8755
2.86661
2.85576
2.84337
2.83155
2.82054
2.81146
2.80492
2.79776
2.78832
2.77568
2.76543
2.7574
2.75119
2.74727
2.74298
2.7347
2.72305
2.71387
2.70454
2.69636
2.693
2.68982
2.68485
2.67665
2.66939
2.66146
2.65707
2.65562
2.6508
2.641
2.61777
2.58883
2.56724
2.55007
2.53383
2.54049
2.55186
2.54101
2.5291
2.50529
2.47376
2.43887
2.41779
2.39537
2.37274
2.33867
2.29674
2.25978
2.22242
2.18741
2.15525
2.11489
2.06518
2.02687
1.99111
1.95897
1.9701
1.97484
2.01249
2.19816
2.39603
2.55084
2.74776
2.90365
2.93253
2.91238
0.995386
0.995542
0.995345
0.994986
0.994502
0.993828
0.992933
0.991876
0.990722
0.989268
0.987526
0.985723
0.983879
0.981377
0.978978
0.976616
0.973601
0.971399
0.969284
0.966151
0.964121
0.962941
0.96182
0.960857
0.960342
0.960588
0.961401
0.963056
0.965606
0.969621
0.974945
0.981538
0.990114
1.00523
1.02068
1.03849
1.05672
1.06947
1.09048
1.10323
2.45369
2.94442
2.9796
2.98456
2.96947
2.96259
2.94544
2.93426
2.92029
2.90836
2.8943
2.88285
2.87168
2.86186
2.85156
2.83865
2.82817
2.82009
2.81066
2.80191
2.79429
2.7848
2.77318
2.76495
2.75798
2.74977
2.74596
2.73939
2.73251
2.7216
2.71264
2.70497
2.69625
2.68946
2.68245
2.67464
2.66533
2.65676
2.64961
2.64412
2.63748
2.63079
2.62232
2.60946
2.59438
2.57841
2.56183
2.54427
2.53749
2.52975
2.5198
2.50707
2.48956
2.47855
2.44589
2.41752
2.38975
2.35808
2.32149
2.29181
2.26121
2.22829
2.19398
2.14926
2.09932
2.05387
2.02253
2.00439
2.0087
2.0836
2.20887
2.43104
2.75184
2.90567
2.96193
3.02861
3.08757
3.09049
3.13388
0.995386
0.995541
0.995343
0.994986
0.994499
0.993826
0.992937
0.991872
0.990711
0.989268
0.987524
0.985721
0.983867
0.981411
0.978938
0.976575
0.973865
0.971234
0.969018
0.966416
0.964099
0.962424
0.961485
0.960806
0.960236
0.960345
0.960933
0.962298
0.964869
0.968908
0.973985
0.980521
0.989375
1.00445
1.01874
1.03525
1.05393
1.07005
1.09306
1.11092
2.46307
2.9515
2.99094
2.99333
2.97738
2.97041
2.95133
2.93935
2.92495
2.91049
2.89658
2.88221
2.87068
2.85851
2.84624
2.83488
2.82339
2.81565
2.80663
2.79476
2.78761
2.7823
2.77235
2.76387
2.75577
2.74489
2.73852
2.73431
2.72996
2.72028
2.71174
2.70365
2.69394
2.68554
2.67713
2.66585
2.65357
2.64389
2.63653
2.63066
2.62357
2.61651
2.60834
2.60172
2.59441
2.58663
2.57667
2.5635
2.54444
2.5176
2.50008
2.48214
2.47834
2.47275
2.44807
2.42532
2.38197
2.34669
2.31386
2.28477
2.25504
2.22729
2.18675
2.13189
2.09144
2.0662
2.0561
2.0653
2.13823
2.28572
2.51607
2.76585
3.04785
3.14848
3.11504
3.09575
3.08239
3.06644
3.09949
0.995387
0.995541
0.995345
0.99499
0.994491
0.993823
0.992943
0.991867
0.990697
0.989275
0.987529
0.985707
0.98384
0.981441
0.978885
0.976497
0.974115
0.971107
0.968688
0.966708
0.964234
0.961838
0.961091
0.960682
0.96018
0.959753
0.960158
0.961182
0.963624
0.967615
0.972567
0.978709
0.987623
1.00148
1.01429
1.02896
1.04888
1.06742
1.09155
1.10606
2.46601
2.95579
3.00149
3.00346
2.98443
2.97754
2.95548
2.94251
2.92709
2.91246
2.89862
2.88445
2.87181
2.85865
2.84629
2.83223
2.81916
2.80919
2.79855
2.78753
2.77731
2.77076
2.76183
2.75141
2.74166
2.73221
2.72628
2.72158
2.71625
2.70621
2.69771
2.69022
2.68183
2.67545
2.66718
2.65463
2.63918
2.62848
2.62199
2.61371
2.60874
2.60193
2.58913
2.57882
2.57426
2.5693
2.56138
2.55159
2.5365
2.50685
2.48675
2.46837
2.45722
2.45615
2.431
2.4139
2.3759
2.33747
2.30623
2.27432
2.24686
2.21647
2.17524
2.12805
2.10132
2.09103
2.11892
2.20124
2.37744
2.65387
2.88071
3.09809
3.22325
3.23901
3.18849
3.13253
3.09435
3.0727
3.09341
0.99539
0.995543
0.995346
0.994996
0.994484
0.993824
0.992953
0.991864
0.990684
0.989283
0.987539
0.985693
0.98382
0.981476
0.978888
0.976431
0.974174
0.971076
0.968475
0.966803
0.964286
0.961614
0.96071
0.960418
0.959902
0.958889
0.95899
0.959738
0.961906
0.965624
0.970346
0.975877
0.984289
0.995648
1.00665
1.02061
1.0402
1.06409
1.09052
1.10964
2.47122
2.9606
3.00908
3.01782
2.99564
2.98898
2.96315
2.94659
2.92842
2.91148
2.89548
2.87872
2.86555
2.8521
2.84054
2.82654
2.81203
2.80043
2.79141
2.78036
2.76794
2.75602
2.74455
2.73197
2.7227
2.71575
2.70856
2.70232
2.69495
2.68349
2.67338
2.66744
2.6599
2.65708
2.64981
2.63637
2.61845
2.60605
2.59789
2.58846
2.5788
2.57525
2.56531
2.55163
2.54644
2.53933
2.53005
2.51866
2.50706
2.49048
2.46944
2.44976
2.43943
2.43664
2.40677
2.39005
2.36212
2.33012
2.29593
2.26557
2.23402
2.19925
2.1679
2.14453
2.12983
2.16232
2.26979
2.46095
2.72816
2.96479
3.11438
3.21034
3.26307
3.24993
3.2043
3.13968
3.09577
3.07943
3.0816
0.995395
0.995547
0.995349
0.995002
0.99448
0.993826
0.992965
0.991867
0.99067
0.989293
0.987553
0.985692
0.983791
0.981508
0.97891
0.976467
0.974152
0.970989
0.968571
0.966631
0.964024
0.961628
0.960452
0.959716
0.959152
0.957955
0.957574
0.958021
0.959468
0.962735
0.966868
0.971624
0.978506
0.987059
0.99652
1.00984
1.02762
1.05729
1.08703
1.11732
2.47674
2.96928
3.01631
3.02515
2.99962
2.9914
2.96254
2.94338
2.92319
2.9058
2.88716
2.86803
2.85501
2.84078
2.82662
2.80736
2.79029
2.77731
2.7661
2.75268
2.73603
2.71881
2.70476
2.6965
2.68598
2.67758
2.6706
2.66201
2.6493
2.63641
2.62725
2.62205
2.61418
2.60641
2.60405
2.59856
2.58669
2.57163
2.55789
2.54578
2.53324
2.52515
2.52632
2.51301
2.5041
2.49671
2.48639
2.47244
2.46269
2.45463
2.44319
2.42774
2.41277
2.40152
2.37087
2.35492
2.33388
2.31539
2.28914
2.25495
2.21917
2.19189
2.17713
2.16908
2.21407
2.33931
2.54858
2.78108
3.01157
3.10765
3.18454
3.23339
3.24685
3.24056
3.20463
3.15088
3.10437
3.08036
3.07464
0.995402
0.995553
0.995354
0.99501
0.99448
0.993829
0.992977
0.991877
0.990655
0.989305
0.987567
0.985692
0.983772
0.981522
0.978949
0.97651
0.973972
0.9711
0.968738
0.966134
0.963527
0.961694
0.960134
0.958595
0.957755
0.956831
0.956098
0.95592
0.956609
0.958692
0.961806
0.965381
0.970166
0.976627
0.984464
0.995147
1.01162
1.04345
1.07242
1.11614
2.47121
2.97619
3.02332
3.02278
2.99208
2.98187
2.9518
2.92878
2.9072
2.88784
2.86419
2.84147
2.82266
2.806
2.78614
2.76076
2.7396
2.72623
2.7108
2.69315
2.67655
2.65689
2.64036
2.63353
2.62575
2.61341
2.60437
2.59244
2.58174
2.5695
2.55948
2.55126
2.54321
2.53047
2.51968
2.52646
2.52586
2.51648
2.5035
2.4824
2.46904
2.45565
2.45701
2.45316
2.4463
2.43831
2.42873
2.4189
2.40944
2.40563
2.39645
2.38977
2.37157
2.35719
2.33545
2.31994
2.30502
2.29234
2.27332
2.24498
2.21775
2.19938
2.21714
2.26732
2.40572
2.62812
2.84495
3.0395
3.10054
3.14835
3.18319
3.21295
3.22393
3.22889
3.2036
3.15936
3.10739
3.07394
3.06229
0.995411
0.995562
0.99536
0.995019
0.994487
0.993831
0.992988
0.991892
0.990653
0.989321
0.98758
0.985696
0.983783
0.981518
0.978941
0.976493
0.973731
0.97118
0.968799
0.965509
0.96301
0.961641
0.960027
0.95719
0.955965
0.955022
0.954376
0.953695
0.953099
0.953588
0.955273
0.957257
0.959856
0.963527
0.969681
0.977351
0.989419
1.01609
1.04839
1.09791
2.43115
2.9574
3.0335
3.00732
2.98548
2.95678
2.92855
2.8996
2.87484
2.8473
2.81967
2.78925
2.76238
2.73817
2.71152
2.68559
2.66343
2.64681
2.6294
2.61134
2.58868
2.57509
2.56389
2.55238
2.54343
2.53512
2.52451
2.51344
2.50039
2.48999
2.48063
2.47019
2.4594
2.44687
2.433
2.42701
2.43989
2.43942
2.43116
2.41812
2.39505
2.38135
2.37338
2.37726
2.37313
2.36778
2.36216
2.35533
2.35062
2.35057
2.34317
2.33538
2.32017
2.30911
2.29563
2.28721
2.2815
2.27123
2.26304
2.24984
2.22464
2.25537
2.33866
2.47724
2.69163
2.89608
3.03441
3.08888
3.11228
3.13067
3.16606
3.19134
3.20815
3.21963
3.20526
3.15929
3.1053
3.0705
3.05742
0.995424
0.995573
0.99537
0.99503
0.994502
0.993833
0.993002
0.991911
0.990661
0.989334
0.987606
0.985705
0.983808
0.981536
0.978939
0.976504
0.973632
0.971168
0.968888
0.965113
0.96257
0.961516
0.959976
0.955902
0.953879
0.952833
0.952212
0.95116
0.949524
0.947583
0.947282
0.947064
0.947205
0.947755
0.949821
0.954751
0.960546
0.976255
1.0023
1.06242
2.29001
2.94161
3.04231
2.97442
2.96193
2.91632
2.86881
2.82843
2.7964
2.76416
2.73327
2.70801
2.67618
2.64627
2.62821
2.60548
2.5803
2.55973
2.54555
2.52371
2.5074
2.49369
2.48271
2.47283
2.46603
2.45925
2.44804
2.43864
2.42872
2.41671
2.40919
2.40283
2.39344
2.37372
2.3621
2.35458
2.35823
2.37053
2.36516
2.35621
2.34009
2.32185
2.31455
2.31421
2.31731
2.31296
2.31024
2.30642
2.30518
2.30621
2.30293
2.29882
2.28663
2.27986
2.27195
2.26841
2.26973
2.26333
2.2745
2.28578
2.3061
2.4135
2.56206
2.7425
2.93374
3.01478
3.06827
3.0815
3.0881
3.11334
3.14291
3.17026
3.20044
3.21667
3.19888
3.14866
3.09813
3.06951
3.05797
0.995441
0.995587
0.995383
0.995044
0.994524
0.993837
0.993018
0.991933
0.990671
0.989342
0.987653
0.985709
0.983816
0.981592
0.978954
0.976453
0.973682
0.971184
0.968689
0.964885
0.962401
0.961198
0.959538
0.954953
0.951987
0.950544
0.949821
0.948536
0.946571
0.941421
0.938066
0.935142
0.932364
0.929019
0.924713
0.924733
0.922187
0.925973
0.924685
0.981022
1.98127
2.90913
3.0476
2.91808
2.89123
2.82117
2.75465
2.71778
2.69203
2.66315
2.63686
2.61462
2.5916
2.5653
2.54468
2.52937
2.51663
2.49271
2.4688
2.45222
2.43839
2.42117
2.40914
2.40443
2.39578
2.39002
2.38146
2.37111
2.36757
2.36254
2.35649
2.34805
2.34187
2.33449
2.31755
2.30842
2.30317
2.30402
2.31773
2.31398
2.30364
2.28471
2.2773
2.27297
2.2728
2.2757
2.27391
2.27611
2.27927
2.28122
2.2796
2.28414
2.27901
2.27149
2.27013
2.27656
2.28956
2.30231
2.33852
2.40497
2.48812
2.64573
2.80168
2.95731
3.01652
3.04267
3.04298
3.05401
3.06189
3.08824
3.11657
3.15728
3.19506
3.20724
3.18868
3.13992
3.09426
3.06717
3.05342
0.99546
0.995604
0.995397
0.995061
0.994548
0.993847
0.993034
0.99197
0.990683
0.989351
0.987702
0.985719
0.983822
0.981682
0.978953
0.976415
0.973846
0.971175
0.968225
0.964886
0.962467
0.960545
0.958484
0.95403
0.950402
0.94834
0.947259
0.945476
0.942687
0.935435
0.929373
0.92345
0.917159
0.909646
0.898806
0.8919
0.88153
0.867816
0.818167
0.837846
1.40928
2.78092
3.02887
2.80769
2.7579
2.68977
2.63247
2.60587
2.58268
2.56226
2.54058
2.52116
2.50402
2.48636
2.46716
2.457
2.44164
2.42208
2.40336
2.39245
2.37806
2.37204
2.35807
2.34403
2.33987
2.33348
2.32556
2.31398
2.312
2.31296
2.30859
2.30351
2.30014
2.29657
2.28908
2.26751
2.26101
2.25893
2.27464
2.28162
2.28065
2.26887
2.24991
2.24852
2.25
2.25612
2.25628
2.26297
2.26923
2.2742
2.27538
2.28923
2.30061
2.29749
2.29956
2.32547
2.37131
2.42353
2.50619
2.61708
2.72631
2.88094
2.9574
3.00164
3.00958
3.01206
3.02092
3.02138
3.03555
3.06463
3.10262
3.15334
3.18616
3.19538
3.17329
3.13566
3.09615
3.06333
3.0498
0.995483
0.995624
0.995416
0.99508
0.994573
0.993864
0.993051
0.992012
0.990705
0.989358
0.987759
0.985752
0.983836
0.981759
0.978945
0.976394
0.973952
0.971013
0.967654
0.964771
0.962423
0.959534
0.956779
0.952836
0.949497
0.946721
0.944049
0.941342
0.937314
0.929685
0.92273
0.914774
0.905022
0.893373
0.877523
0.864401
0.844087
0.812377
0.708894
0.620708
0.711611
2.35902
2.93268
2.69371
2.63799
2.57984
2.54023
2.51152
2.48579
2.47022
2.45058
2.43659
2.42025
2.40398
2.39197
2.38212
2.36887
2.35387
2.34047
2.32956
2.32883
2.32038
2.31316
2.3046
2.29834
2.29453
2.28418
2.27808
2.2685
2.27461
2.27339
2.2682
2.26426
2.26405
2.25837
2.24614
2.23227
2.2295
2.23895
2.2597
2.26277
2.26136
2.24704
2.24238
2.24603
2.25388
2.25564
2.27214
2.28241
2.29258
2.30068
2.32315
2.35284
2.37699
2.41293
2.47329
2.53587
2.62057
2.7103
2.84643
2.94363
2.97221
2.99683
2.98121
2.98833
2.99243
2.98469
2.98792
3.01272
3.04862
3.10159
3.14593
3.17312
3.18167
3.16308
3.13398
3.09336
3.06038
3.04879
0.995508
0.995648
0.995441
0.995102
0.994601
0.99389
0.993069
0.992054
0.990752
0.989362
0.987814
0.985808
0.983845
0.981796
0.978985
0.976346
0.973971
0.971016
0.967207
0.964639
0.96231
0.958723
0.954825
0.951251
0.948544
0.945461
0.940934
0.936981
0.930921
0.924298
0.917133
0.908796
0.898072
0.883285
0.863913
0.846194
0.826626
0.799691
0.741538
0.712673
0.820199
2.18386
2.81226
2.64227
2.5942
2.5253
2.47839
2.44295
2.41485
2.39518
2.38414
2.36979
2.36228
2.34815
2.33525
2.32652
2.32107
2.31039
2.29634
2.28733
2.28895
2.28861
2.28133
2.2742
2.27159
2.27141
2.26613
2.25227
2.24934
2.25016
2.25208
2.25036
2.24621
2.24533
2.24309
2.24277
2.2314
2.22731
2.23263
2.25046
2.2616
2.26544
2.26636
2.25855
2.26873
2.28172
2.28791
2.31267
2.33794
2.36682
2.39938
2.44539
2.49839
2.54362
2.59094
2.66341
2.73169
2.83426
2.93373
2.96804
2.99701
2.96912
2.96407
2.96551
2.96869
2.95873
2.95259
2.97052
3.00363
3.04685
3.09072
3.13198
3.16237
3.17015
3.16115
3.12842
3.08849
3.05774
3.0493
0.995537
0.995675
0.995469
0.995125
0.994633
0.993929
0.993084
0.992099
0.990806
0.989381
0.987853
0.985892
0.983853
0.981763
0.979109
0.976355
0.973947
0.971012
0.967025
0.964458
0.962126
0.958009
0.953177
0.949682
0.947714
0.944457
0.93893
0.931905
0.925681
0.919031
0.910929
0.904086
0.894923
0.879934
0.861071
0.838835
0.821504
0.797425
0.749022
0.72884
0.924191
1.79861
2.67313
2.61738
2.55344
2.49508
2.45178
2.41372
2.38311
2.35419
2.34341
2.33376
2.33028
2.32503
2.31539
2.30846
2.30177
2.29314
2.28495
2.27447
2.26836
2.27399
2.26988
2.26571
2.26163
2.26245
2.26504
2.24999
2.24298
2.2432
2.2476
2.24515
2.24669
2.24841
2.25157
2.25208
2.25438
2.25006
2.25718
2.27116
2.29296
2.30348
2.32089
2.3311
2.34352
2.37326
2.39157
2.43777
2.48248
2.53289
2.57529
2.62365
2.68107
2.74883
2.79354
2.86535
2.93964
2.98353
3.02512
2.98921
2.96642
2.95172
2.94801
2.94608
2.93744
2.93055
2.94446
2.97451
3.00333
3.03558
3.07607
3.11933
3.15007
3.16513
3.15665
3.11912
3.08172
3.05761
3.05242
0.995568
0.995705
0.995502
0.995152
0.994668
0.993974
0.993108
0.992142
0.990876
0.989408
0.987873
0.986021
0.983862
0.981743
0.979257
0.9764
0.973845
0.970913
0.967028
0.964163
0.96161
0.957622
0.952175
0.948339
0.946748
0.943445
0.937231
0.928069
0.921517
0.914723
0.906269
0.9015
0.892895
0.881888
0.862239
0.843671
0.826556
0.800784
0.785801
0.825025
1.02103
1.89436
2.32311
2.50003
2.56647
2.48824
2.45729
2.42537
2.39312
2.36322
2.34647
2.33912
2.33234
2.32971
2.32202
2.30883
2.30315
2.2968
2.29424
2.28552
2.27668
2.27135
2.27624
2.27502
2.2699
2.26905
2.27042
2.26742
2.25713
2.25682
2.25937
2.26795
2.27187
2.27807
2.28635
2.29553
2.30793
2.32916
2.32836
2.35209
2.38038
2.40696
2.44735
2.47627
2.51734
2.54153
2.57167
2.62265
2.68102
2.74629
2.79952
2.83542
2.8825
2.95104
2.99652
2.99882
3.03624
3.01816
2.99915
2.96282
2.94947
2.93707
2.92962
2.92332
2.9137
2.92749
2.9522
2.97293
2.99419
3.02221
3.06243
3.10669
3.14132
3.15712
3.14687
3.11011
3.07568
3.05738
3.05313
0.995603
0.995738
0.995538
0.995184
0.994707
0.994024
0.993145
0.99218
0.990959
0.989441
0.987908
0.986136
0.983906
0.981732
0.979389
0.976455
0.973718
0.970781
0.967225
0.963865
0.960753
0.956785
0.951821
0.947591
0.945382
0.941702
0.935375
0.925394
0.918253
0.911661
0.903847
0.900242
0.892214
0.88409
0.866069
0.851248
0.834349
0.820169
0.820052
0.918732
1.55505
2.19115
2.25303
2.35185
2.49028
2.5448
2.4974
2.46094
2.43549
2.39929
2.3758
2.36523
2.35121
2.34674
2.34325
2.32585
2.31966
2.31532
2.31121
2.3097
2.2945
2.28636
2.28785
2.29178
2.28913
2.29395
2.29757
2.29783
2.30352
2.3053
2.30805
2.32929
2.34131
2.35393
2.374
2.39155
2.42157
2.46019
2.48164
2.52299
2.5463
2.58323
2.63361
2.68638
2.7438
2.78151
2.80989
2.85543
2.89361
2.95393
3.00624
3.03107
3.03947
3.04048
3.05926
3.04836
3.02851
3.00026
2.97918
2.95006
2.93453
2.92182
2.91292
2.9067
2.91371
2.93247
2.94947
2.96534
2.9834
3.01237
3.05382
3.1009
3.13641
3.1476
3.13515
3.1
3.07145
3.05552
3.05187
0.995642
0.995775
0.995579
0.995222
0.994749
0.99408
0.993188
0.992228
0.991041
0.989504
0.987941
0.986234
0.983968
0.981745
0.979456
0.976551
0.973583
0.970635
0.967439
0.963595
0.959878
0.955694
0.951572
0.947314
0.943869
0.939323
0.933161
0.923624
0.916321
0.909982
0.902947
0.899481
0.892227
0.885366
0.870618
0.858717
0.845478
0.833836
0.841747
0.880345
1.92741
2.18939
2.18592
2.25009
2.34729
2.47812
2.51907
2.514
2.47925
2.44957
2.41776
2.40049
2.39027
2.37957
2.36408
2.36073
2.35399
2.34799
2.34003
2.34098
2.34263
2.3197
2.32423
2.33308
2.32732
2.34606
2.35437
2.35698
2.38413
2.39935
2.40826
2.45086
2.47031
2.51002
2.54001
2.57253
2.6126
2.65307
2.7061
2.75271
2.78271
2.82092
2.86456
2.92003
2.96825
2.99995
3.02933
3.05312
3.07461
3.08384
3.08196
3.08031
3.08194
3.07036
3.0566
3.03851
3.01765
2.98998
2.96257
2.94106
2.92346
2.91047
2.9032
2.90296
2.91306
2.93031
2.94344
2.95472
2.97701
3.0102
3.0534
3.0992
3.12945
3.13868
3.12093
3.0934
3.07015
3.05283
3.04885
0.995685
0.995815
0.995623
0.995266
0.994795
0.994139
0.993247
0.992271
0.991123
0.989592
0.987991
0.986304
0.984056
0.981775
0.979452
0.976692
0.973525
0.970553
0.967447
0.96335
0.959228
0.954882
0.951076
0.94717
0.942501
0.937102
0.930784
0.922271
0.915069
0.90876
0.902417
0.899326
0.892721
0.885218
0.873393
0.867237
0.865694
0.86926
0.941118
1.21186
2.1219
2.24388
2.2334
2.23157
2.28035
2.36297
2.49556
2.54635
2.5712
2.51999
2.49153
2.46612
2.4463
2.42565
2.41225
2.40251
2.40265
2.39863
2.3747
2.38792
2.39745
2.37671
2.39564
2.3994
2.39704
2.44016
2.45676
2.48032
2.52248
2.55673
2.59146
2.61818
2.66768
2.71154
2.75943
2.81277
2.84608
2.8901
2.93214
2.9672
3.00771
3.04285
3.08138
3.10226
3.10002
3.09437
3.10121
3.11525
3.12272
3.11598
3.10085
3.08487
3.07049
3.06598
3.0526
3.03693
3.00601
2.98084
2.95292
2.935
2.91984
2.90515
2.89728
2.9008
2.91185
2.92697
2.93879
2.94999
2.97376
3.00962
3.05095
3.09159
3.12079
3.13062
3.11628
3.09192
3.06774
3.05069
3.04751
0.995732
0.995859
0.995672
0.995318
0.994843
0.994204
0.993325
0.992318
0.9912
0.989692
0.988064
0.986348
0.984196
0.981817
0.979494
0.976796
0.973495
0.970482
0.967343
0.963132
0.958611
0.954261
0.950879
0.946631
0.941339
0.93468
0.928309
0.921124
0.914198
0.907933
0.902749
0.899518
0.893554
0.884271
0.875621
0.872475
0.873237
0.883949
0.979192
1.56357
2.2226
2.26186
2.24485
2.25304
2.2619
2.32032
2.39199
2.50112
2.55994
2.5813
2.53728
2.509
2.48469
2.44874
2.43895
2.43125
2.43743
2.4437
2.41293
2.45227
2.46661
2.45411
2.49797
2.516
2.53364
2.572
2.62028
2.65453
2.70642
2.7608
2.80223
2.83761
2.88526
2.9289
2.97284
3.02296
3.0574
3.08067
3.09118
3.10006
3.11397
3.13246
3.14626
3.13928
3.12836
3.12569
3.13114
3.1313
3.12004
3.10765
3.09422
3.08431
3.0705
3.06444
3.04518
3.02933
3.00068
2.97411
2.94849
2.93081
2.91226
2.89857
2.89355
2.90126
2.91243
2.92462
2.93735
2.94987
2.97235
3.00687
3.04465
3.08143
3.11019
3.12419
3.11614
3.08882
3.06368
3.04849
3.04718
0.995784
0.995907
0.995724
0.995379
0.994894
0.994274
0.99341
0.992387
0.991281
0.989807
0.988143
0.98643
0.984363
0.981905
0.979536
0.976903
0.973498
0.970418
0.967215
0.962979
0.958155
0.953834
0.950591
0.946154
0.939271
0.932841
0.926757
0.920889
0.913632
0.907453
0.902694
0.899571
0.894503
0.882519
0.875199
0.870005
0.866838
0.870493
0.939852
1.8273
2.29809
2.30671
2.28748
2.28604
2.27834
2.27204
2.3257
2.36536
2.47178
2.51808
2.56257
2.49718
2.49445
2.4402
2.46015
2.44408
2.46969
2.48954
2.47837
2.53431
2.57428
2.58295
2.63043
2.67562
2.70847
2.75134
2.81142
2.86968
2.91696
2.95833
3.00429
3.03583
3.06593
3.09195
3.10984
3.12409
3.12773
3.13391
3.13972
3.14505
3.154
3.15458
3.14829
3.13877
3.13205
3.12977
3.12823
3.12727
3.11485
3.1038
3.09059
3.08163
3.06657
3.05681
3.03857
3.02053
2.99629
2.97214
2.94504
2.92351
2.90396
2.89126
2.89361
2.90357
2.91339
2.92357
2.93645
2.95201
2.97189
3.00158
3.03705
3.06954
3.09787
3.11674
3.11085
3.08458
3.06075
3.04953
3.05011
0.99584
0.995961
0.995782
0.995445
0.994953
0.994351
0.9935
0.99247
0.991368
0.98994
0.988231
0.986551
0.984525
0.982002
0.979607
0.977035
0.973543
0.970347
0.967068
0.962873
0.957873
0.953458
0.950172
0.945512
0.937582
0.931367
0.925864
0.920666
0.913793
0.907113
0.901457
0.898287
0.893285
0.883157
0.875933
0.867141
0.860066
0.875439
0.955103
2.00946
2.31005
2.32404
2.31141
2.30003
2.28358
2.26933
2.26371
2.26903
2.33621
2.40295
2.52243
2.48499
2.53112
2.44973
2.51113
2.50972
2.56291
2.60199
2.60902
2.67426
2.73063
2.7681
2.8097
2.86069
2.91147
2.95641
3.00862
3.04729
3.07241
3.0899
3.10417
3.11579
3.12927
3.13915
3.14351
3.14607
3.14714
3.14867
3.15203
3.15177
3.15043
3.14586
3.14115
3.13675
3.13617
3.13072
3.12341
3.11767
3.1044
3.09483
3.08709
3.08258
3.0641
3.05101
3.03184
3.01255
2.993
2.96942
2.93842
2.91562
2.89572
2.88925
2.89663
2.90419
2.91243
2.92148
2.93517
2.95237
2.97125
2.99644
3.02831
3.05792
3.08687
3.10661
3.10415
3.08027
3.05784
3.05029
3.0519
0.995902
0.99602
0.995845
0.995516
0.995023
0.994431
0.993602
0.99256
0.991471
0.990084
0.988341
0.986667
0.984689
0.982127
0.979696
0.977138
0.97363
0.970295
0.966948
0.962791
0.957752
0.953125
0.949673
0.944657
0.936405
0.93017
0.925118
0.920595
0.914514
0.906025
0.899888
0.895025
0.891268
0.886136
0.88121
0.877453
0.875253
0.928124
1.12326
2.17042
2.34167
2.34237
2.33467
2.32577
2.30483
2.28684
2.27239
2.2736
2.29922
2.30671
2.45463
2.52331
2.58556
2.57114
2.63378
2.66261
2.70806
2.769
2.80705
2.86622
2.91727
2.96351
2.99838
3.03667
3.06906
3.08566
3.10054
3.11321
3.12077
3.12525
3.13149
3.13849
3.14334
3.14612
3.14293
3.14262
3.14219
3.14302
3.14588
3.14772
3.14454
3.13884
3.13606
3.13356
3.13156
3.12433
3.11461
3.10596
3.09643
3.09266
3.08503
3.07859
3.06083
3.04417
3.02396
3.006
2.98779
2.96396
2.93355
2.9098
2.89352
2.89163
2.89698
2.90363
2.9112
2.91974
2.93386
2.9526
2.97241
2.99357
3.01992
3.04742
3.07619
3.09524
3.09729
3.0763
3.05713
3.05255
3.05513
0.995968
0.996085
0.995913
0.995593
0.995101
0.994516
0.993715
0.992664
0.991583
0.990242
0.988506
0.986776
0.984854
0.982317
0.9798
0.977183
0.973837
0.970253
0.966863
0.962779
0.957711
0.952858
0.949042
0.943858
0.93568
0.929308
0.924433
0.920373
0.914542
0.904025
0.897407
0.892374
0.889416
0.887625
0.887405
0.887847
0.894999
0.984968
1.41758
2.31611
2.36862
2.35373
2.33876
2.32294
2.30582
2.29559
2.28188
2.29742
2.31719
2.32063
2.46444
2.6296
2.70511
2.76764
2.82743
2.86486
2.91487
2.96138
3.0042
3.03355
3.05711
3.07972
3.09785
3.1119
3.11826
3.12103
3.1261
3.13056
3.13322
3.13337
3.13301
3.13424
3.13536
3.13755
3.13795
3.13859
3.13871
3.13768
3.13844
3.13886
3.13701
3.13347
3.13361
3.12837
3.12507
3.11498
3.10323
3.09731
3.09175
3.09019
3.07763
3.06986
3.05392
3.03647
3.01748
3.00132
2.98263
2.9607
2.93115
2.90803
2.89525
2.89386
2.8976
2.90293
2.90898
2.91914
2.93551
2.95401
2.97444
2.99454
3.01776
3.04337
3.06659
3.0835
3.0859
3.06897
3.05504
3.05275
3.05451
0.996041
0.996156
0.995987
0.995678
0.99519
0.994611
0.993836
0.992794
0.991701
0.990407
0.988693
0.986925
0.985026
0.982542
0.979926
0.977257
0.97413
0.970383
0.966754
0.96284
0.957773
0.952748
0.948335
0.943148
0.935249
0.928858
0.923664
0.919771
0.913846
0.901938
0.895101
0.890452
0.886795
0.886091
0.886467
0.888772
0.897797
0.998669
1.67336
2.3591
2.36162
2.34722
2.33496
2.32798
2.32637
2.32692
2.31931
2.35506
2.39848
2.41899
2.67351
2.76065
2.90464
2.9836
3.01982
3.04638
3.06667
3.08381
3.09658
3.10451
3.11017
3.12056
3.12932
3.13044
3.12959
3.12463
3.12253
3.12166
3.12348
3.12632
3.13003
3.1308
3.12943
3.12962
3.12943
3.13049
3.13181
3.1311
3.13038
3.12955
3.12918
3.12648
3.12595
3.11973
3.11389
3.10391
3.0949
3.09305
3.08713
3.08343
3.07033
3.06069
3.04609
3.03246
3.01671
2.99936
2.97891
2.95766
2.92905
2.9086
2.89754
2.89358
2.8954
2.89829
2.90439
2.9175
2.93512
2.95368
2.97475
2.99555
3.01675
3.03668
3.05569
3.06999
3.07308
3.06446
3.0563
3.05499
3.05739
0.99612
0.996234
0.996067
0.995769
0.995288
0.994716
0.993967
0.992944
0.991837
0.990592
0.988883
0.987106
0.985243
0.982799
0.980091
0.977476
0.974423
0.97053
0.966735
0.962812
0.957997
0.952662
0.947688
0.942429
0.935155
0.928449
0.922304
0.918673
0.91265
0.900474
0.893184
0.888349
0.883671
0.879663
0.877877
0.875944
0.87834
0.95845
1.88107
2.38821
2.37998
2.36757
2.361
2.3572
2.35298
2.36266
2.36106
2.42949
2.53067
2.57242
2.84068
2.99515
3.07889
3.09889
3.10991
3.11571
3.12239
3.12501
3.12737
3.12752
3.12751
3.12668
3.12708
3.12326
3.12432
3.12311
3.12033
3.11749
3.11539
3.11648
3.11933
3.12084
3.11912
3.11858
3.11848
3.11875
3.12075
3.12139
3.12104
3.12129
3.12193
3.11896
3.11858
3.11274
3.1064
3.09795
3.09287
3.08883
3.08115
3.07775
3.06474
3.05297
3.03832
3.02719
3.01159
2.99356
2.97374
2.95424
2.93038
2.91246
2.90142
2.89675
2.89593
2.89764
2.90405
2.91769
2.93244
2.94973
2.96964
2.99091
3.01184
3.03029
3.04938
3.06243
3.06553
3.05955
3.05302
3.0529
3.05688
0.996206
0.996319
0.996156
0.995868
0.995399
0.994832
0.99411
0.993103
0.992
0.990791
0.989089
0.987323
0.985498
0.983062
0.980324
0.977764
0.974737
0.970681
0.966819
0.962945
0.95828
0.952562
0.947152
0.941974
0.935456
0.92791
0.920905
0.91675
0.910077
0.900909
0.890742
0.884553
0.87901
0.871584
0.864801
0.853883
0.85541
0.938248
2.0171
2.36684
2.37914
2.37796
2.37628
2.37234
2.37485
2.41351
2.42507
2.52781
2.68498
2.82459
3.03253
3.11874
3.13607
3.13285
3.13417
3.13646
3.13518
3.13076
3.12697
3.12516
3.12598
3.12439
3.12444
3.12
3.1174
3.1156
3.11193
3.10866
3.10516
3.10498
3.10712
3.11002
3.11
3.10938
3.10955
3.10954
3.1119
3.11442
3.11462
3.11462
3.11532
3.11225
3.11123
3.10516
3.09897
3.09306
3.08905
3.08114
3.07251
3.06875
3.05594
3.04473
3.03084
3.02264
3.00786
2.99155
2.97236
2.9523
2.92939
2.90997
2.89728
2.89127
2.88996
2.89387
2.9023
2.913
2.92668
2.94517
2.96663
2.9877
3.00664
3.02331
3.03971
3.05258
3.05787
3.05419
3.05123
3.05371
3.0576
0.9963
0.996411
0.996253
0.995976
0.99552
0.994961
0.994264
0.993278
0.992187
0.991005
0.989333
0.987579
0.985769
0.983364
0.980633
0.978089
0.975054
0.970905
0.967053
0.96328
0.958583
0.952545
0.946775
0.942017
0.935842
0.927028
0.919589
0.912994
0.907981
0.901259
0.8881
0.879979
0.874296
0.868013
0.863425
0.864688
0.930709
1.12836
2.20154
2.38408
2.38609
2.38448
2.39021
2.3903
2.40068
2.49534
2.55218
2.66254
2.86952
3.05375
3.13279
3.14817
3.1392
3.13362
3.1291
3.12759
3.12547
3.12138
3.11848
3.11543
3.11453
3.11221
3.11252
3.1104
3.10789
3.10835
3.10585
3.10406
3.10068
3.09871
3.09759
3.09792
3.09788
3.09654
3.09739
3.09647
3.09819
3.10248
3.10376
3.10348
3.10524
3.10298
3.10176
3.09659
3.09446
3.09073
3.08545
3.07563
3.0663
3.06044
3.04939
3.04111
3.02812
3.01957
3.00222
2.98499
2.96668
2.95023
2.93016
2.91139
2.8983
2.89011
2.8909
2.89892
2.90527
2.91168
2.92048
2.93571
2.95706
2.97887
2.99868
3.01667
3.03416
3.0481
3.0541
3.04997
3.04626
3.04993
3.05562
0.996401
0.996511
0.996359
0.996092
0.995652
0.995103
0.994431
0.993472
0.992394
0.991235
0.989623
0.987865
0.986059
0.983763
0.981042
0.978434
0.975414
0.971284
0.967431
0.963689
0.95889
0.952599
0.946621
0.942122
0.936108
0.926239
0.918091
0.909631
0.905487
0.898002
0.889066
0.874517
0.868598
0.864118
0.860848
0.862733
0.9647
1.38722
2.30945
2.38284
2.38131
2.38501
2.40813
2.42895
2.45247
2.62568
2.72579
2.88372
3.0721
3.13496
3.14898
3.13656
3.12723
3.11836
3.11622
3.11473
3.11321
3.10997
3.10709
3.10402
3.10268
3.10105
3.10014
3.10005
3.09791
3.09839
3.09602
3.09416
3.09138
3.08887
3.08564
3.0827
3.08424
3.08335
3.08648
3.08607
3.08737
3.09323
3.09551
3.09512
3.09655
3.09501
3.09393
3.09082
3.09098
3.08567
3.0796
3.06758
3.05559
3.04703
3.03815
3.03506
3.02314
3.01396
2.99769
2.98262
2.96685
2.95093
2.9265
2.90527
2.88839
2.87846
2.88268
2.89281
2.89937
2.90855
2.91901
2.93307
2.95304
2.97349
2.99177
3.00928
3.02451
3.03591
3.0432
3.04261
3.04349
3.05027
3.05689
0.996512
0.996619
0.996474
0.996219
0.995795
0.995261
0.994614
0.993686
0.992626
0.991492
0.989948
0.98818
0.986415
0.984227
0.981515
0.978823
0.975868
0.971868
0.967891
0.964142
0.959263
0.952811
0.946752
0.942268
0.936203
0.925993
0.916715
0.907865
0.901181
0.895357
0.888156
0.870918
0.859398
0.852569
0.849189
0.850101
0.957396
1.61406
2.3357
2.36957
2.37547
2.38891
2.4323
2.52346
2.59094
2.77808
2.92974
3.08248
3.13343
3.13957
3.13326
3.12563
3.11643
3.11116
3.10791
3.10536
3.10364
3.10186
3.10025
3.09704
3.09445
3.093
3.09078
3.09035
3.08808
3.08745
3.08494
3.08283
3.08064
3.07755
3.07439
3.06959
3.07136
3.06933
3.07095
3.07037
3.07091
3.07696
3.08032
3.08058
3.08269
3.08208
3.08387
3.08261
3.08381
3.07867
3.0739
3.06257
3.04906
3.0401
3.03445
3.03345
3.02126
3.01073
2.99291
2.9752
2.95809
2.94465
2.9264
2.90736
2.8888
2.87956
2.88287
2.89202
2.89827
2.90665
2.91758
2.92905
2.94311
2.96163
2.98024
3.00095
3.01931
3.03188
3.03974
3.03912
3.03931
3.04686
3.05364
0.996632
0.996737
0.996601
0.996358
0.995951
0.995436
0.994815
0.993918
0.992884
0.991786
0.990304
0.988547
0.98684
0.984744
0.982028
0.979329
0.976459
0.972614
0.96849
0.964637
0.959897
0.9534
0.947314
0.942321
0.936086
0.926613
0.9159
0.906328
0.897189
0.891663
0.881911
0.871619
0.847785
0.830473
0.820591
0.821709
0.89332
1.82077
2.34854
2.36105
2.37379
2.41394
2.49705
2.647
2.80221
2.96925
3.08647
3.12689
3.12473
3.12661
3.12023
3.11328
3.10868
3.10572
3.10271
3.09962
3.09787
3.0962
3.09424
3.09126
3.08665
3.08429
3.08154
3.08075
3.07915
3.07862
3.07668
3.07462
3.072
3.06787
3.0639
3.05855
3.05893
3.05652
3.05635
3.05722
3.05763
3.06268
3.06853
3.07088
3.07317
3.07291
3.07668
3.07586
3.07692
3.07052
3.06533
3.05354
3.04134
3.03492
3.02746
3.02442
3.01123
3.00148
2.98666
2.9739
2.95869
2.94401