/*--------------------------------*- C++ -*----------------------------------*\
| =========                 |                                                 |
| \\      /  F ield         | OpenFOAM: The Open Source CFD Toolbox           |
|  \\    /   O peration     | Version:  2.2.x                                 |
|   \\  /    A nd           | Web:      www.OpenFOAM.org                      |
|    \\/     M anipulation  |                                                 |
\*---------------------------------------------------------------------------*/
FoamFile
{
    version     2.0;
    format      ascii;
    class       surfaceScalarField;
    location    "2.85";
    object      phi;
}
// * * * * * * * * * * * * * * * * * * * * * * * * * * * * * * * * * * * * * //

dimensions      [1 0 -1 0 0 0 0];

internalField   nonuniform List<scalar> 
28084
(
0.000743269
0.000748717
0.000750223
0.000748944
0.000741238
0.000726866
0.000723715
0.000729173
0.000739955
0.000747653
0.000748937
0.000745865
0.000744738
0.00074773
0.000760075
0.000781943
0.000808535
0.000834491
0.000852572
0.000876327
0.000954123
0.00122153
0.00124954
0.00124815
0.00125509
0.00126995
0.00130067
0.0013478
0.00135984
0.0013673
0.001371
0.0013695
0.00136815
0.00136713
0.00136748
0.00137037
0.00137656
0.00137318
0.00136643
0.00135772
0.00135044
0.00133948
0.00132403
0.00130176
0.0012735
0.00126002
0.00124674
0.00123253
0.00121942
0.00120507
0.00118387
0.00114919
0.00111048
0.00108386
0.00108041
0.00109813
0.00112957
0.0011688
0.0012017
0.00122289
0.00123602
0.0012406
0.00123594
0.00123798
0.00124845
0.00126357
0.00128448
0.00130986
0.00133939
0.00137155
0.00140602
0.00144164
0.00147042
0.00148518
0.00149634
0.00150248
0.0015003
0.00148674
0.00146271
0.00143407
0.00140157
0.00136499
0.00132472
0.0012808
0.00124257
0.00121884
0.00119287
0.00116494
0.00112504
0.00107612
0.00101965
0.000959666
0.000919423
0.000895876
0.000889136
0.000893386
0.000908454
0.000918
0.000917646
0.000913946
0.000903515
0.000883131
0.000854033
0.00081983
0.000783154
0.000745527
0.000706095
0.000668186
0.000633646
0.000602268
0.000563744
0.000516974
0.000439784
0.000355775
0.000283754
0.000226149
0.000173209
0.00014242
-1.6722e-06
-1.13044e-05
0.000768339
-4.59212e-06
0.000748101
1.09767e-05
0.000714483
1.45749e-05
0.00069167
1.79073e-05
0.000679411
2.24462e-06
0.000700342
-7.45905e-06
0.000726917
-1.02359e-05
0.000750762
-7.96128e-06
0.000776194
-2.91788e-06
0.00077484
-8.03662e-07
0.000771042
-2.76529e-06
0.000763684
-5.19908e-06
0.000755585
-1.11355e-05
0.000756176
-1.73578e-05
0.00076733
-2.2293e-05
0.000787881
-2.42401e-05
0.000812862
-2.05688e-05
0.000827548
-2.45591e-05
0.000837387
-0.000101107
0.000849647
-0.000301345
0.000896008
-3.52843e-05
0.00086683
-1.76953e-05
0.000745065
-4.29237e-06
0.000679448
-2.97735e-06
0.000663208
-5.24274e-06
0.000654639
-4.21621e-06
0.000647407
-2.54575e-06
0.00063483
-6.312e-06
0.00060628
-4.87052e-06
0.000567843
-5.0662e-06
0.00053769
-6.4925e-06
0.000527507
-2.44743e-06
0.000529457
1.11281e-06
0.000540821
1.91533e-06
0.000554552
4.0348e-06
0.000569427
8.48044e-06
0.000587625
6.01538e-06
0.000607512
2.8133e-06
0.000619839
3.06868e-06
0.000628662
4.92129e-06
0.00062938
4.12368e-06
0.000627999
7.35879e-06
0.000618721
9.27885e-06
0.000614235
-7.83116e-06
0.000614658
-7.92748e-06
0.000623863
-5.77459e-06
0.000635058
-2.28285e-06
0.000646836
3.37332e-06
0.000658195
1.44281e-05
0.000672463
3.04461e-05
0.000698345
3.93747e-05
0.000739361
3.43423e-05
0.000784085
1.79388e-05
0.000829014
5.93582e-06
0.000865416
-3.45244e-06
0.000896435
-1.09408e-05
0.000922198
-1.46799e-05
0.000942978
-1.41152e-05
0.000959996
-1.28899e-05
0.000975849
-1.28151e-05
0.000991822
-1.45435e-05
0.00100792
-1.72245e-05
0.00102343
-1.86833e-05
0.00103744
-1.90645e-05
0.00104979
-1.90383e-05
0.00106088
-1.99964e-05
0.00107097
-2.22699e-05
0.00107866
-2.48875e-05
0.00108384
-2.83695e-05
0.00108635
-3.05388e-05
0.00108223
-2.8381e-05
0.00107006
-2.35049e-05
0.00105048
-1.85052e-05
0.0010257
-1.17065e-05
0.00100067
-4.8577e-06
0.000978269
3.04669e-06
0.000956442
1.26081e-05
0.00093432
1.725e-05
0.000910162
2.13255e-05
0.000881173
2.69081e-05
0.000845173
3.34846e-05
0.000808388
4.1471e-05
0.000773132
4.58374e-05
0.000744856
4.43767e-05
0.000719341
4.7921e-05
0.000699087
4.34729e-05
0.000677808
4.12621e-05
0.000652308
3.93618e-05
0.000617792
3.9294e-05
0.000586056
3.50407e-05
0.000558513
2.93527e-05
0.00054374
1.90698e-05
0.000535518
1.26615e-05
0.000523857
1.02423e-05
0.000510108
7.44218e-06
0.000498125
5.61764e-06
0.000487221
5.40355e-06
0.000476134
5.86535e-06
0.000464842
9.41873e-06
0.000454845
1.70116e-05
0.000447598
2.60234e-05
0.000441323
3.35064e-05
0.00043457
3.81276e-05
0.0004242
3.93906e-05
0.000411922
3.74765e-05
0.000396856
3.44739e-05
0.000377963
3.26166e-05
0.000356246
3.56918e-05
0.000331902
5.27036e-05
0.000309331
6.26115e-05
0.000287269
8.10113e-05
0.000264714
7.72125e-05
0.000242533
6.52076e-05
0.000214742
5.02181e-05
0.000176283
4.18352e-05
0.000134909
1.57043e-05
9.21369e-05
0.000124422
6.16285e-05
-2.68417e-05
6.80215e-06
0.000716601
5.15046e-05
0.000759542
4.84966e-05
0.000820124
2.09609e-05
0.000863617
-2.46145e-05
0.00088569
-4.76996e-05
0.000859868
-3.40282e-05
0.000815439
-2.41278e-05
0.000788145
-6.50935e-06
0.000772912
-1.46808e-06
0.000785104
3.37276e-06
0.000801028
-2.58881e-06
0.000813825
-5.9225e-06
0.000828054
-2.01763e-05
0.000842185
-3.27777e-05
0.000858407
-4.01228e-05
0.000880125
-4.08334e-05
0.000910494
-3.62956e-05
0.0009469
-3.85916e-05
0.000989427
-0.000174998
0.00102765
-0.000286834
0.00102648
6.83046e-05
0.000757536
5.8214e-05
0.000557683
1.77565e-05
0.000484603
4.59752e-06
0.00046301
7.1795e-06
0.00045262
1.60398e-05
0.000441417
2.29126e-05
0.000427884
2.42033e-05
0.000421837
1.34667e-05
0.00042543
8.58085e-07
0.000442941
-6.32861e-06
0.000471712
-1.00889e-05
0.000505178
-1.14524e-05
0.000535945
-1.32008e-05
0.000563827
-1.5196e-05
0.000589746
-1.54694e-05
0.000613768
-1.46633e-05
0.000634268
-1.60486e-05
0.000651021
-1.55719e-05
0.000664164
-1.53189e-05
0.000672417
6.10963e-06
0.000676821
6.41723e-06
0.000686669
8.15467e-06
0.00069098
-1.58197e-05
0.000692313
-1.57712e-05
0.000697385
-1.29181e-05
0.000703311
-9.20892e-06
0.000711344
-5.02133e-06
0.000720561
-1.02178e-05
0.000730885
-1.04911e-05
0.000742657
-7.96818e-06
0.000757292
-1.22763e-05
0.000774764
-1.69977e-05
0.000793232
-2.25308e-05
0.000810133
-2.77144e-05
0.000825839
-3.16783e-05
0.000839356
-3.3099e-05
0.000850263
-3.38712e-05
0.000858683
-3.24385e-05
0.000865359
-3.07881e-05
0.000871335
-3.06055e-05
0.000876225
-3.00874e-05
0.000878898
-2.78147e-05
0.000878736
-2.52888e-05
0.000875536
-2.3189e-05
0.000868513
-2.1615e-05
0.00085759
-2.11521e-05
0.00084406
-2.1915e-05
0.000828306
-1.98444e-05
0.000810905
-1.64419e-05
0.000792515
-9.67565e-06
0.000774537
-1.09428e-06
0.000758271
4.71788e-06
0.000743904
1.09405e-05
0.00073075
1.64483e-05
0.000713978
2.25602e-05
0.000692839
3.10616e-05
0.000667333
3.63886e-05
0.000637236
4.3333e-05
0.000604226
4.84249e-05
0.000568764
5.63579e-05
0.000534756
6.16334e-05
0.000498575
6.89395e-05
0.000461762
6.8348e-05
0.000421135
7.35135e-05
0.000380483
7.01357e-05
0.000337965
7.49508e-05
0.000296073
7.10415e-05
0.000259661
6.9976e-05
0.000230183
5.92369e-05
0.000206163
4.67811e-05
0.000190506
3.42536e-05
0.00017858
2.75107e-05
0.00016789
2.16696e-05
0.000158846
1.64215e-05
0.000152951
1.41409e-05
0.000147234
1.42542e-05
0.000141726
1.44267e-05
0.000136915
1.66834e-05
0.000133056
2.59947e-05
0.000130426
3.76361e-05
0.000129673
4.81044e-05
0.000130798
5.2935e-05
0.000131585
5.59175e-05
0.000132973
5.70332e-05
0.000131954
5.7386e-05
0.000127414
5.97798e-05
0.000119782
6.50117e-05
0.000108676
8.13703e-05
9.95682e-05
8.96432e-05
9.2485e-05
0.000103996
8.8403e-05
0.000102665
8.68067e-05
0.000100297
8.46168e-05
8.45004e-05
7.67069e-05
7.31153e-05
6.40519e-05
3.21126e-05
4.52733e-05
0.000170414
2.47336e-05
1.71974e-05
-4.25328e-05
0.000842378
-6.19989e-05
0.000781724
-2.8609e-05
0.000674376
1.73524e-05
0.000620505
4.51592e-05
0.000607636
5.8086e-05
0.000659643
2.41546e-05
0.000751887
-1.2412e-05
0.000833498
-3.06932e-05
0.000856073
-3.10621e-05
0.000848273
-1.94179e-05
0.000829552
-2.41631e-05
0.000817302
-2.63452e-05
0.00081851
-3.95833e-05
0.000824479
-5.39834e-05
0.000845902
-6.87472e-05
0.000877266
-7.65637e-05
0.000906873
-8.14059e-05
0.000923439
-8.50238e-05
0.000935802
-0.000205087
0.000939368
-2.34313e-05
0.00063578
0.000268737
0.000385763
0.000130752
0.000304448
2.56136e-05
0.000266967
1.17371e-05
0.00025259
2.00421e-05
0.000250823
3.03118e-05
0.000250693
2.65213e-05
0.000253704
1.31935e-05
0.000262249
-1.29507e-05
0.000277951
-3.64917e-05
0.00030072
-4.62599e-05
0.000327731
-4.61888e-05
0.000358088
-4.1794e-05
0.000391589
-4.00702e-05
0.000427652
-3.9688e-05
0.000464957
-3.77706e-05
0.000502743
-3.14797e-05
0.000537664
-2.78656e-05
0.000569575
-2.33726e-05
0.000600979
-1.6295e-05
0.00062895
-2.98298e-06
0.000654721
1.42745e-06
0.000678576
5.76075e-06
0.000698512
-2.21816e-05
0.000716846
-2.32622e-05
0.000741458
-2.33057e-05
0.000766746
-2.0738e-05
0.000791839
-2.06408e-05
0.000817125
-2.28247e-05
0.000841846
-2.46485e-05
0.000863304
-2.43688e-05
0.000881657
-2.86056e-05
0.000899382
-3.16809e-05
0.000916381
-3.66111e-05
0.000933765
-4.01726e-05
0.000948465
-4.25256e-05
0.000959139
-4.23671e-05
0.000966715
-4.12542e-05
0.000973257
-3.82541e-05
0.00097859
-3.44393e-05
0.000983466
-3.11664e-05
0.000989098
-2.69686e-05
0.000993582
-2.06079e-05
0.000995777
-1.41597e-05
0.000994817
-8.42745e-06
0.000989389
-4.60466e-06
0.000978564
-2.16672e-06
0.00096345
-2.10531e-06
0.000943038
-1.60923e-07
0.000917967
1.57872e-06
0.000888962
5.60169e-06
0.000856911
1.19925e-05
0.00082421
1.5238e-05
0.000790714
2.37153e-05
0.000761798
3.19911e-05
0.000728621
4.02736e-05
0.000695333
5.13801e-05
0.000659965
5.89596e-05
0.000622523
6.93089e-05
0.000585286
7.48398e-05
0.000548992
8.65591e-05
0.000514629
9.387e-05
0.000477783
0.000106683
0.000441162
0.000108145
0.000396765
0.000116736
0.000349125
0.000113279
0.000297812
0.00011507
0.000248139
0.000105472
0.000207488
9.90288e-05
0.000172194
7.94519e-05
0.000141253
6.14819e-05
0.000117095
4.7594e-05
9.27354e-05
3.8321e-05
7.37309e-05
2.89786e-05
6.19026e-05
2.28585e-05
5.46837e-05
1.97735e-05
5.0914e-05
1.85491e-05
4.70341e-05
1.64832e-05
4.26263e-05
1.90498e-05
4.02491e-05
2.79622e-05
3.78902e-05
3.90884e-05
3.61185e-05
5.03118e-05
3.53435e-05
5.43194e-05
3.53968e-05
5.91819e-05
3.6409e-05
6.38899e-05
3.41625e-05
6.78795e-05
3.02242e-05
7.42849e-05
2.57652e-05
7.83989e-05
2.04252e-05
9.20324e-05
1.79879e-05
9.7618e-05
1.92202e-05
0.000108429
2.23821e-05
0.000104907
2.38682e-05
0.000104731
2.85206e-05
8.94388e-05
2.95873e-05
8.11489e-05
2.80503e-05
3.98699e-05
2.28305e-05
0.000182533
9.37067e-06
-7.80452e-05
1.40934e-05
0.000661904
8.07814e-05
0.000749036
6.35209e-05
0.000857347
2.62671e-05
0.000925875
-4.10364e-05
0.000964018
-7.85083e-05
0.000929086
-6.14051e-05
0.000861657
-4.28206e-05
0.000818079
-3.23043e-05
0.000792959
-1.92247e-05
0.000791951
-1.75477e-05
0.000807665
-2.85587e-05
0.000827563
-3.14107e-05
0.000848297
-5.67484e-05
0.000879414
-7.95199e-05
0.000906548
-9.91563e-05
0.00093821
-9.84328e-05
0.000964947
-9.86456e-05
0.00099952
-9.06932e-05
0.00103195
2.00036e-05
0.00105109
0.000265846
0.000910691
0.000345823
0.000534215
0.000154225
0.000433554
3.71997e-05
0.00040123
1.68537e-05
0.000378076
2.1468e-05
0.00035846
2.49423e-05
0.00034572
1.12437e-05
0.000344593
-1.28937e-05
0.000351767
-4.56072e-05
0.000371613
-7.13639e-05
0.000401981
-8.24298e-05
0.000437829
-8.36864e-05
0.000476693
-7.96236e-05
0.000518348
-7.74269e-05
0.000562043
-7.6902e-05
0.000606224
-7.24592e-05
0.000649685
-6.23959e-05
0.00068986
-5.63055e-05
0.000728405
-4.87935e-05
0.000765901
-3.83256e-05
0.000800049
-2.57491e-05
0.000830713
-1.83575e-05
0.000854156
-1.32421e-05
0.000870388
-4.77622e-05
0.00088465
-4.95038e-05
0.000910164
-4.98317e-05
0.000934434
-4.7319e-05
0.000957369
-4.58759e-05
0.000980904
-4.28022e-05
0.00100385
-4.0339e-05
0.00102569
-3.96032e-05
0.00104476
-4.23334e-05
0.00106303
-4.59761e-05
0.00108116
-4.89112e-05
0.00109923
-5.06373e-05
0.00111482
-5.12499e-05
0.00112526
-5.05811e-05
0.00113235
-4.86046e-05
0.00113776
-4.49602e-05
0.00114157
-3.97915e-05
0.00114653
-3.34647e-05
0.00115362
-2.53127e-05
0.00116169
-1.49684e-05
0.00117132
-3.89464e-06
0.00118283
6.45718e-06
0.00119323
1.33038e-05
0.00120048
1.9366e-05
0.00120287
2.1904e-05
0.0011981
2.66102e-05
0.00118482
3.05175e-05
0.00116603
3.50537e-05
0.0011385
4.19781e-05
0.00110597
4.18979e-05
0.00106359
5.45371e-05
0.00101312
6.00948e-05
0.00096056
6.96525e-05
0.000904541
8.15118e-05
0.000846062
8.82578e-05
0.000786755
9.99567e-05
0.000732325
0.000104627
0.000678093
0.000118267
0.000625793
0.000125581
0.000568723
0.000145938
0.000513875
0.000151958
0.000456155
0.000166397
0.000398081
0.000163705
0.000337865
0.000158716
0.000276008
0.000143734
0.00022435
0.000133636
0.000178109
0.000107093
0.000139381
8.91847e-05
0.000109065
7.02893e-05
8.01055e-05
5.29267e-05
6.35744e-05
3.83428e-05
5.72914e-05
2.76877e-05
5.4797e-05
2.35932e-05
5.3325e-05
2.12296e-05
5.12374e-05
1.73955e-05
5.01759e-05
2.05104e-05
5.09567e-05
2.95942e-05
5.2358e-05
4.09112e-05
5.19221e-05
5.23986e-05
4.82676e-05
5.56155e-05
4.10169e-05
6.36634e-05
3.30159e-05
7.03961e-05
2.74303e-05
7.48725e-05
2.22887e-05
8.23325e-05
1.75737e-05
8.5101e-05
1.29226e-05
9.54134e-05
1.11016e-05
9.85889e-05
1.10399e-05
0.000109259
1.22433e-05
9.94179e-05
1.24145e-05
9.92175e-05
1.35888e-05
8.32469e-05
1.3739e-05
7.64201e-05
1.30289e-05
4.29113e-05
9.94946e-06
0.00018192
-5.62402e-07
4.12683e-05
-6.66185e-05
0.000935861
-0.000104669
0.000839263
-6.9317e-05
0.000684475
7.94634e-08
0.000618385
5.09251e-05
0.00061048
7.82899e-05
0.000685749
3.4074e-05
0.000822477
-2.04591e-05
0.000933546
-4.60625e-05
0.000960009
-5.25469e-05
0.00095239
-5.14087e-05
0.000937145
-5.76119e-05
0.000931974
-6.76238e-05
0.000943214
-7.96615e-05
0.000968377
-9.90792e-05
0.00101401
-0.00011565
0.00107
-0.000132174
0.00112733
-0.000140986
0.00117925
-0.000122837
0.00121078
0.000121848
0.00123572
0.000618231
0.00119716
0.000427819
0.000951821
0.000180539
0.000774932
5.98058e-05
0.000664461
3.40263e-05
0.000588017
3.2262e-05
0.000532105
2.57749e-05
0.000493126
1.43808e-07
0.000478043
-3.94997e-05
0.000484444
-8.32292e-05
0.00050731
-0.000116336
0.000536096
-0.000129034
0.000569213
-0.000131428
0.000606313
-0.000127222
0.000646626
-0.000123308
0.000689335
-0.000119837
0.000732736
-0.000111537
0.000774934
-9.7967e-05
0.00081473
-8.80886e-05
0.00085291
-7.5624e-05
0.000890318
-6.02976e-05
0.000926923
-4.42553e-05
0.000961872
-3.3199e-05
0.000992344
-2.68688e-05
0.00101876
-7.32432e-05
0.00104406
-7.46826e-05
0.00108023
-7.3402e-05
0.00111621
-7.16631e-05
0.0011491
-6.88343e-05
0.00117869
-6.33024e-05
0.00120543
-5.74563e-05
0.00123045
-5.52245e-05
0.00125402
-5.6807e-05
0.00127458
-5.95577e-05
0.00129285
-6.08105e-05
0.0013082
-6.09926e-05
0.00131866
-5.98983e-05
0.00132572
-5.85839e-05
0.00133059
-5.55968e-05
0.00133249
-5.11616e-05
0.00133254
-4.56128e-05
0.00133218
-3.8295e-05
0.00133318
-3.01155e-05
0.00133406
-2.05804e-05
0.00133697
-1.00021e-05
0.00134245
1.50234e-06
0.00135021
1.10803e-05
0.00135844
2.18267e-05
0.00136369
3.21e-05
0.00136735
4.27289e-05
0.00136802
5.60239e-05
0.00136432
6.67038e-05
0.00135686
8.43602e-05
0.00134311
9.17971e-05
0.00132732
0.000105725
0.00130055
0.000112719
0.00126677
0.000121
0.00122087
0.000131943
0.0011646
0.000135518
0.001097
0.00014953
0.00102077
0.000152754
0.000936478
0.0001709
0.000848629
0.00017588
0.000760049
0.000198305
0.000679583
0.000205415
0.000602066
0.000223512
0.000530008
0.000224933
0.000458
0.000211677
0.000385822
0.000192335
0.000319872
0.00017689
0.000256148
0.000141942
0.000198501
0.000121547
0.000150979
9.02699e-05
0.000108001
6.19161e-05
8.14767e-05
4.28183e-05
6.97003e-05
3.03643e-05
6.68024e-05
2.61577e-05
7.06466e-05
2.11487e-05
7.88124e-05
1.55548e-05
8.80224e-05
1.79151e-05
9.93552e-05
2.88689e-05
0.000109676
4.42628e-05
0.000115611
6.03739e-05
0.00011566
6.54818e-05
0.000109267
7.13668e-05
9.59728e-05
7.78559e-05
7.62345e-05
8.21062e-05
5.65354e-05
8.94535e-05
3.84656e-05
9.07354e-05
2.56738e-05
9.9348e-05
1.87393e-05
0.00010019
1.57524e-05
0.000109558
1.49298e-05
9.60296e-05
1.33523e-05
9.4324e-05
1.3694e-05
7.67567e-05
1.12296e-05
7.08247e-05
7.14132e-06
4.63912e-05
1.62028e-06
0.00017443
-7.78417e-06
-0.000142551
6.10466e-06
0.00060129
9.58507e-05
0.000719917
6.02625e-05
0.000874372
1.62148e-05
0.00095998
-5.50147e-05
0.00100793
-0.000108134
0.000968696
-9.7579e-05
0.000880805
-6.76751e-05
0.000822298
-5.61679e-05
0.000789192
-4.99847e-05
0.000784105
-5.62386e-05
0.000800926
-6.95959e-05
0.000820038
-8.31114e-05
0.000843598
-0.000110202
0.000873747
-0.000144884
0.000907735
-0.000170134
0.000925755
-0.00018651
0.000934209
-0.000181751
0.00093383
-0.000164937
0.000923492
0.000106738
0.00093309
0.000807492
0.000982251
0.000581721
0.00108187
0.000288788
0.00103269
0.000137378
0.000983617
8.91399e-05
0.000972749
6.81555e-05
0.000950936
3.8554e-05
0.000925072
-9.83619e-06
0.000900692
-6.55071e-05
0.000892485
-0.000115271
0.000901628
-0.000154488
0.000923867
-0.000168783
0.000951772
-0.000173897
0.000980124
-0.000171094
0.00101027
-0.000166626
0.00104151
-0.000159648
0.00106969
-0.000147682
0.00109323
-0.000131482
0.00111481
-0.000118789
0.00113616
-0.000103607
0.00115788
-8.62283e-05
0.00118043
-6.69433e-05
0.00120534
-5.41273e-05
0.00123128
-4.75155e-05
0.00125588
-0.000105902
0.00127293
-0.000108143
0.00129725
-0.000104758
0.00131991
-0.000100395
0.00134175
-9.50036e-05
0.00136162
-8.81955e-05
0.00137812
-8.11009e-05
0.00139467
-7.67108e-05
0.00141362
-7.34299e-05
0.0014331
-7.13094e-05
0.00145285
-7.01845e-05
0.00147215
-6.81088e-05
0.00148821
-6.46297e-05
0.00150011
-6.06563e-05
0.0015082
-5.55196e-05
0.00151242
-4.9371e-05
0.00151145
-4.29088e-05
0.00150611
-3.49733e-05
0.00149718
-2.79362e-05
0.00148804
-2.01458e-05
0.00147752
-1.3305e-05
0.00146845
-4.91751e-06
0.00146255
4.82066e-06
0.00146169
1.57244e-05
0.00146312
2.83629e-05
0.00146715
4.24647e-05
0.00147217
5.9703e-05
0.00147857
7.72162e-05
0.00148539
9.80099e-05
0.00148417
0.000115569
0.00147748
0.000136621
0.00146138
0.000155348
0.00144049
0.000172956
0.00140889
0.00019384
0.00136634
0.000204745
0.00131374
0.00022699
0.00124804
0.000233769
0.00117135
0.000254029
0.00108742
0.00025222
0.000994246
0.000271657
0.000900147
0.000273465
0.000805042
0.000292354
0.000716372
0.000295969
0.0006288
0.000278505
0.000539065
0.000258084
0.000449102
0.000239439
0.0003609
0.000194388
0.000277994
0.000167744
0.000206832
0.000119782
0.000148359
7.56912e-05
0.000111179
4.70464e-05
9.43218e-05
2.78058e-05
9.076e-05
1.86521e-05
9.81512e-05
1.19607e-05
0.00011258
4.91282e-06
0.000127783
7.64796e-06
0.000141775
2.25022e-05
0.000154197
4.33947e-05
0.000163652
6.65967e-05
0.000168243
7.91102e-05
0.000165278
9.2235e-05
0.000155238
9.96039e-05
0.000141406
0.000102652
0.000120795
0.000104927
9.14889e-05
0.000100531
6.6821e-05
0.000105147
4.75679e-05
0.000102224
3.50051e-05
0.000109686
3.05654e-05
9.24191e-05
2.53362e-05
9.19539e-05
2.0582e-05
7.48518e-05
1.59349e-05
7.04379e-05
1.07952e-05
5.01945e-05
3.40921e-06
0.000159971
-8.56217e-06
6.60937e-05
-9.58295e-05
0.0010338
-0.000137311
0.000910799
-9.76943e-05
0.000732189
-3.27509e-05
0.00066587
2.75386e-05
0.000662729
6.76218e-05
0.000743309
3.96437e-05
0.000894658
-3.03177e-05
0.00101567
-6.3028e-05
0.0010484
-8.32214e-05
0.00104735
-8.76657e-05
0.00103853
-9.61722e-05
0.00103655
-0.000105959
0.00105389
-0.000123919
0.00110813
-0.000156324
0.00119364
-0.000175885
0.00125585
-0.000186973
0.00131569
-0.000180019
0.0013811
-0.000180768
0.0014653
3.53261e-05
0.00154402
0.000665493
0.00164714
0.000596057
0.00148889
0.000324658
0.0013407
0.000146431
0.00134059
0.000117188
0.00138451
9.97778e-05
0.00142315
6.3342e-05
0.00144829
-6.45196e-06
0.00145887
-8.33054e-05
0.00144341
-0.000148771
0.00141438
-0.000190224
0.0013919
-0.000204148
0.001383
-0.000204369
0.00137816
-0.000199684
0.00137945
-0.00019232
0.00139018
-0.000180773
0.00140521
-0.000165677
0.00142208
-0.000148462
0.00143918
-0.000135481
0.00145675
-0.000120213
0.0014754
-0.000105398
0.00149476
-8.79899e-05
0.00151506
-7.43444e-05
0.00153392
-6.2972e-05
0.00155471
-0.000128555
0.00157137
-0.000128505
0.00159728
-0.00012432
0.00161889
-0.000118661
0.0016407
-0.000111852
0.00166319
-0.000106565
0.00168513
-0.000102238
0.00170891
-9.8308e-05
0.00173364
-9.25083e-05
0.00175752
-8.80398e-05
0.00178239
-8.50415e-05
0.00180847
-8.00547e-05
0.00183406
-7.35798e-05
0.00185122
-6.61963e-05
0.0018616
-5.62734e-05
0.00186947
-4.63458e-05
0.0018747
-3.56252e-05
0.00187271
-2.59134e-05
0.00186947
-1.7107e-05
0.00186547
-9.82685e-06
0.00186198
-5.65016e-06
0.00185631
-7.56247e-07
0.00184844
6.22262e-06
0.00183662
1.394e-05
0.00182253
2.55441e-05
0.00181056
4.05272e-05
0.00180183
5.76203e-05
0.00179129
7.90546e-05
0.00177773
0.000101451
0.00175813
0.000126886
0.00173555
0.000152678
0.0017064
0.000181901
0.00167585
0.00021049
0.00163866
0.000242886
0.00159617
0.000266863
0.00154703
0.000300334
0.00148642
0.000313955
0.00141652
0.000343803
0.00133534
0.000343778
0.00124647
0.000363936
0.00115507
0.000359847
0.00105662
0.000376545
0.000955845
0.000382403
0.00085657
0.000367183
0.000747077
0.000348427
0.000631223
0.000328371
0.000516904
0.0002725
0.000401691
0.00023066
0.000295559
0.000160769
0.000212916
9.43889e-05
0.000159591
5.11601e-05
0.000133016
2.06969e-05
0.000122654
4.06056e-06
0.000125158
-2.92485e-06
0.000135813
-7.73167e-06
0.000152269
-4.03318e-06
0.000167455
1.35338e-05
0.00017712
3.87583e-05
0.000185081
6.8595e-05
0.000193049
8.84504e-05
0.000199902
0.000106838
0.000200109
0.00012164
0.000191897
0.00013419
0.000175342
0.000132241
0.000158403
0.00012234
0.00013528
0.000119623
0.0001041
0.000106684
7.94723e-05
0.000111641
6.05235e-05
9.26956e-05
4.75417e-05
9.14674e-05
3.74899e-05
7.55746e-05
2.94059e-05
7.36697e-05
2.15023e-05
5.76844e-05
1.02021e-05
0.000144671
-3.17556e-06
-0.000201817
-1.50972e-05
0.000554915
0.000100112
0.000686316
5.39898e-05
0.000873397
-8.6457e-06
0.000974806
-7.61829e-05
0.00102322
-0.000130834
0.000989234
-0.000122522
0.000900202
-9.24515e-05
0.000834059
-7.92319e-05
0.000799599
-8.38021e-05
0.00080015
-9.71437e-05
0.000824996
-0.000115325
0.000857977
-0.000140788
0.000897634
-0.000171917
0.000944488
-0.000214443
0.000998874
-0.000241635
0.00102289
-0.000265009
0.00102262
-0.000278337
0.00098899
-0.00028546
0.000927673
-0.000110363
0.00084964
0.000769495
0.000840718
0.000690048
0.00114788
0.000316602
0.00140726
0.000112916
0.00150887
9.80414e-05
0.00157095
8.90696e-05
0.00159833
6.17269e-05
0.00161254
1.42044e-05
0.00162853
-4.83528e-05
0.00164594
-0.00012473
0.00168
-0.000180604
0.00169541
-0.000209813
0.00170531
-0.00021624
0.00171195
-0.00021454
0.00171032
-0.000209687
0.0017138
-0.000197267
0.00172152
-0.000179251
0.00173489
-0.000159667
0.00175185
-0.000146106
0.00177416
-0.000131482
0.00179844
-0.000117265
0.00181975
-0.000100338
0.00183871
-8.81499e-05
0.0018561
-7.36497e-05
0.00187167
-0.000150204
0.00188503
-0.000147669
0.00190961
-0.00014337
0.00193303
-0.000139883
0.00195771
-0.000133369
0.0019835
-0.000129397
0.00200783
-0.000126754
0.00203384
-0.000123312
0.00205913
-0.000119766
0.00208337
-0.000114814
0.0021062
-0.00010882
0.00212745
-0.000100066
0.00214463
-8.95207e-05
0.00215431
-7.85272e-05
0.00215571
-6.71788e-05
0.00215159
-5.49227e-05
0.00214463
-4.36864e-05
0.00213443
-3.28436e-05
0.0021221
-2.28459e-05
0.00210771
-1.2157e-05
0.00209161
-4.19176e-06
0.00207209
4.87509e-06
0.00205571
1.52466e-05
0.00204391
2.60918e-05
0.00203437
3.75971e-05
0.00202295
5.44368e-05
0.00200812
7.3161e-05
0.00199294
9.84487e-05
0.00197465
0.000121054
0.00195026
0.00015166
0.00191641
0.000178811
0.00188024
0.000216196
0.00184054
0.00025256
0.00179663
0.000294349
0.00174993
0.000329269
0.00170051
0.000370126
0.001644
0.000391457
0.00157531
0.000428252
0.00148911
0.000430468
0.00139691
0.000459964
0.00130347
0.000460106
0.0011964
0.000473162
0.00106757
0.000485939
0.000954816
0.000477392
0.000839246
0.000461019
0.000725676
0.000447305
0.000612521
0.000384921
0.000495786
0.000320987
0.000380801
0.00022084
0.000281999
0.000124874
0.000214361
6.29356e-05
0.000176288
1.84533e-05
0.000158414
-6.26009e-06
0.000155294
-1.85039e-05
0.00015927
-2.06882e-05
0.000164041
-1.12667e-05
0.000170569
6.85422e-06
0.000177053
3.12558e-05
0.000185974
6.15124e-05
0.000200469
8.77261e-05
0.000218699
0.000114893
0.000229545
0.000139312
0.000233403
0.000153172
0.000227401
0.00015781
0.000211898
0.000156295
0.000193517
0.000146298
0.00016975
0.000125549
0.000139404
0.000121076
0.000102748
9.81023e-05
7.71484e-05
9.46619e-05
6.00606e-05
7.92208e-05
4.65827e-05
8.07229e-05
3.58695e-05
6.70246e-05
2.04838e-05
0.000133735
3.67492e-06
8.45224e-05
-0.000124114
0.00112194
-0.000168177
0.000987344
-0.00013077
0.000809875
-7.17858e-05
0.000752852
-2.04143e-05
0.000759042
2.34925e-05
0.000832107
1.11632e-05
0.000963256
-5.19272e-05
0.00105679
-8.50762e-05
0.00108277
-0.000114368
0.00108571
-0.000132311
0.00108407
-0.000147813
0.00109268
-0.000171796
0.00111984
-0.000194012
0.00118541
-0.000229459
0.00127335
-0.000241329
0.00134176
-0.000242023
0.00141627
-0.000231474
0.00150094
-0.000223738
0.00160063
-0.000110454
0.00173369
0.000413295
0.00194459
0.000423752
0.00236499
0.000189689
0.00225442
7.27327e-05
0.00201715
8.41208e-05
0.00195682
8.44467e-05
0.00191592
5.53958e-05
0.0018887
1.91759e-05
0.00187457
-5.41939e-05
0.00187645
-0.000126861
0.00187461
-0.00018294
0.00185336
-0.000214943
0.00183275
-0.000220096
0.00182726
-0.000220751
0.0018236
-0.000215117
0.00183262
-0.00020616
0.00185027
-0.000193099
0.00187311
-0.000176839
0.00190058
-0.000164507
0.00193518
-0.000147692
0.00197459
-0.000130482
0.00201185
-0.000110934
0.00204642
-9.56691e-05
0.00207676
-7.72232e-05
0.00209863
-0.000165972
0.00211746
-0.00016534
0.00215614
-0.000162398
0.00219396
-0.000160454
0.00223025
-0.000154102
0.00226575
-0.00015127
0.00229675
-0.000147428
0.00232714
-0.000143272
0.00235146
-0.000139176
0.00237234
-0.000133274
0.00239107
-0.000124037
0.00240484
-0.000113064
0.0024102
-0.000100081
0.00240648
-8.67873e-05
0.00239607
-7.4515e-05
0.00238514
-6.237e-05
0.00236935
-5.01517e-05
0.00234631
-3.8874e-05
0.00232064
-2.65929e-05
0.00229501
-1.41278e-05
0.00226926
-3.17934e-06
0.00224556
8.25674e-06
0.0022215
2.16495e-05
0.00220359
3.71416e-05
0.00219116
5.29927e-05
0.00218176
7.29661e-05
0.00217031
9.48762e-05
0.00215269
0.000121999
0.00213428
0.000149923
0.0021175
0.000183083
0.00209987
0.000216229
0.00207698
0.000260135
0.0020453
0.000303097
0.0020081
0.000351168
0.00196066
0.000393211
0.00191054
0.000437313
0.00183669
0.000472323
0.00176168
0.000516615
0.00168747
0.000518917
0.00160228
0.000564892
0.00150023
0.000590991
0.00138777
0.00058972
0.00126786
0.000602654
0.00115074
0.000590533
0.00103067
0.000574169
0.000915364
0.000563748
0.000797869
0.000501511
0.000673763
0.00042364
0.000546911
0.000294
0.000427713
0.00016991
0.000326602
8.63847e-05
0.000263673
2.45775e-05
0.000230795
-8.68667e-06
0.000215448
-2.26649e-05
0.000208854
-2.51978e-05
0.000203326
-1.58117e-05
0.000201539
7.34929e-08
0.000204216
1.78676e-05
0.000211815
4.44768e-05
0.000221914
7.76417e-05
0.000234078
0.000111855
0.000247818
0.000146037
0.00025839
0.000170184
0.000261159
0.000178911
0.000251044
0.000183146
0.000230781
0.000178912
0.00020915
0.000162619
0.000184823
0.00014522
0.000152563
0.000111679
0.00012086
0.000103813
9.48811e-05
8.58642e-05
7.11997e-05
9.17357e-05
5.20949e-05
7.92625e-05
2.97539e-05
0.000128371
9.51939e-06
-0.000247788
-4.34851e-05
0.000533295
4.30841e-05
0.000661669
1.80131e-05
0.000854453
-4.03836e-05
0.000961726
-9.80816e-05
0.00100624
-0.000142806
0.000984039
-0.000136553
0.000921121
-0.000113004
0.000870436
-0.000105391
0.00085466
-0.000118114
0.000872156
-0.000140009
0.000904733
-0.000162605
0.000949877
-0.000203852
0.00100762
-0.00023908
0.00106291
-0.000285586
0.00112123
-0.000316556
0.00114993
-0.000341252
0.00114698
-0.000353205
0.0010914
-0.000377789
0.000977475
-0.000353585
0.000800102
-7.04711e-05
0.000559495
0.000501267
0.000426941
0.000429351
0.000598334
0.000128753
0.000887414
0.000117247
0.00110999
0.000101717
0.00130625
4.74339e-05
0.00149728
-8.986e-06
0.00157226
-6.79932e-05
0.00159416
-0.000114188
0.00162746
-0.000161309
0.00168259
-0.000192048
0.0017502
-0.000203126
0.00183037
-0.000212721
0.00191409
-0.000210404
0.00199053
-0.000205073
0.00207218
-0.000201845
0.00215249
-0.000195562
0.00223029
-0.00019021
0.00230396
-0.000174363
0.0023598
-0.000156495
0.00239709
-0.00013473
0.0024263
-0.000113921
0.00244457
-9.14907e-05
0.00244882
-0.000197348
0.00244969
-0.00019531
0.00246429
-0.00018948
0.00247748
-0.000183951
0.00249179
-0.000174952
0.00250914
-0.000170216
0.00252105
-0.000164233
0.0025364
-0.000159057
0.00254377
-0.000152561
0.00254462
-0.000143794
0.00253888
-0.000132792
0.00252729
-0.000122664
0.00251022
-0.0001074
0.00249066
-9.21606e-05
0.00247311
-7.76971e-05
0.00245366
-6.49285e-05
0.00242998
-5.22776e-05
0.00240085
-4.06862e-05
0.00237311
-2.68587e-05
0.00234875
-1.41168e-05
0.00232551
-5.60371e-07
0.0023088
1.43742e-05
0.00229618
2.97126e-05
0.00228676
4.80276e-05
0.00227646
6.81211e-05
0.00226476
9.04659e-05
0.00225143
0.000113541
0.00223687
0.000141086
0.00221964
0.000170621
0.002199
0.000208519
0.00217626
0.000246864
0.00215143
0.00029735
0.00211806
0.000354504
0.00208777
0.000398721
0.0020504
0.000454036
0.0019882
0.000505771
0.00193937
0.000551462
0.0018725
0.000602241
0.00179058
0.000614643
0.00170401
0.00067272
0.00161971
0.000709768
0.00154517
0.00070816
0.00144733
0.000724866
0.00133075
0.000706619
0.00121614
0.000693108
0.00110219
0.000686098
0.000982752
0.000627642
0.000862863
0.000540726
0.000744477
0.000394816
0.000622012
0.000236731
0.000496751
0.000126379
0.000400217
4.72933e-05
0.000343152
2.07438e-06
0.000312269
-1.54959e-05
0.000293364