/*--------------------------------*- C++ -*----------------------------------*\
| =========                 |                                                 |
| \\      /  F ield         | OpenFOAM: The Open Source CFD Toolbox           |
|  \\    /   O peration     | Version:  2.2.x                                 |
|   \\  /    A nd           | Web:      www.OpenFOAM.org                      |
|    \\/     M anipulation  |                                                 |
\*---------------------------------------------------------------------------*/
FoamFile
{
    version     2.0;
    format      ascii;
    class       volScalarField;
    location    "2.85";
    object      rho;
}
// * * * * * * * * * * * * * * * * * * * * * * * * * * * * * * * * * * * * * //

dimensions      [1 -3 0 0 0 0 0];

internalField   nonuniform List<scalar> 
14161
(
1.01733
1.02524
1.02725
1.02578
1.02641
1.01649
1.01169
1.01816
1.02886
1.03801
1.03652
1.03271
1.02556
1.02626
1.03848
1.06264
1.09273
1.12632
1.14856
1.14223
1.18215
2.00931
2.13681
2.05998
2.00308
1.99579
1.99807
2.03588
2.08289
2.1147
2.13456
2.11747
2.07518
2.04446
2.03908
2.04972
2.08257
2.13228
2.14362
2.15523
2.16266
2.17672
2.18024
2.18746
2.20252
2.20062
2.21609
2.23426
2.25904
2.30186
2.36875
2.45042
2.56081
2.67933
2.76954
2.87054
2.97249
3.05399
3.10099
3.11159
3.0963
3.05897
2.99946
2.92593
2.87738
2.83663
2.803
2.77714
2.74947
2.71514
2.67723
2.63977
2.60907
2.56921
2.52808
2.5021
2.48037
2.45113
2.45246
2.45861
2.47988
2.52826
2.58526
2.66179
2.73331
2.8323
2.9339
3.01793
3.06009
3.07052
3.04912
2.99669
2.95718
2.94821
2.96522
3.00446
3.06768
3.13626
3.15592
3.15588
3.14728
3.13231
3.12204
3.12569
3.14372
3.16884
3.18591
3.18737
3.187
3.19623
3.24004
3.33248
3.37556
3.37113
3.3497
3.38147
3.3922
3.37558
3.43595
1.03359
1.0449
1.02879
1.0026
0.978456
0.947583
0.954992
0.975244
1.02607
1.04185
1.04098
1.03545
1.02282
1.01831
1.02698
1.04659
1.07678
1.10475
1.11736
1.11123
1.17704
1.94768
2.23105
2.44209
2.56883
2.58459
2.59861
2.62947
2.66112
2.66456
2.63298
2.59375
2.58989
2.60185
2.61538
2.61731
2.61336
2.6017
2.58194
2.56002
2.51376
2.46366
2.44149
2.4451
2.45968
2.48602
2.5223
2.5633
2.60647
2.66037
2.72365
2.79033
2.81075
2.82116
2.82778
2.8282
2.82196
2.80837
2.78843
2.76127
2.73494
2.71089
2.69149
2.67717
2.66697
2.65532
2.64543
2.63719
2.62729
2.61645
2.60948
2.61187
2.62394
2.63707
2.65301
2.67167
2.68928
2.70716
2.72446
2.73985
2.75082
2.76533
2.78157
2.8076
2.84538
2.89917
2.95245
2.9886
3.00861
3.02978
3.05055
3.09078
3.14499
3.1697
3.17389
3.1693
3.15949
3.14664
3.13349
3.1253
3.12001
3.12634
3.14653
3.16721
3.18499
3.19562
3.20585
3.21851
3.23847
3.26898
3.30786
3.33589
3.34594
3.36349
3.38547
3.42068
3.42225
3.37692
3.43798
0.990198
0.986854
1.02279
1.08111
1.14586
1.15557
1.12473
1.08673
1.04348
1.02936
1.03457
1.04114
1.04938
1.05945
1.07551
1.09494
1.12002
1.14957
1.18314
1.22388
1.36062
2.40106
2.93152
3.18956
3.20824
3.21852
3.22467
3.23604
3.24167
3.24808
3.23676
3.19822
3.15321
3.1104
3.07505
3.04577
3.02212
3.00189
2.98245
2.97741
2.97352
2.96729
2.97111
2.96877
2.96791
2.95778
2.94444
2.93106
2.91708
2.90325
2.88666
2.86853
2.85002
2.82835
2.8094
2.79013
2.77361
2.75854
2.74477
2.7318
2.72186
2.71641
2.71337
2.71163
2.71352
2.71632
2.71838
2.72214
2.72805
2.73846
2.75045
2.76134
2.77151
2.77986
2.78981
2.79212
2.79555
2.80343
2.8117
2.81922
2.82417
2.83608
2.84904
2.87225
2.89679
2.92938
2.95688
2.98234
3.01285
3.04923
3.0682
3.09243
3.10584
3.11582
3.12142
3.12613
3.12691
3.12767
3.12794
3.12629
3.12381
3.12411
3.13029
3.14046
3.15472
3.1702
3.18948
3.21136
3.234
3.25364
3.27465
3.29519
3.31268
3.34746
3.37122
3.39705
3.39654
3.33432
3.40062
1.0622
1.09631
1.01975
0.908152
0.841358
0.834048
0.880072
0.968462
1.05532
1.0692
1.0574
1.03536
1.03042
1.02298
1.03269
1.05145
1.07937
1.10152
1.12633
1.13746
1.35801
2.49652
2.88141
2.9823
2.99993
3.04182
3.05569
3.05986
3.04993
3.02144
2.97978
2.93838
2.90726
2.87924
2.85761
2.83793
2.82
2.80326
2.78568
2.77502
2.764
2.75382
2.74806
2.73866
2.73914
2.73748
2.7312
2.72719
2.72675
2.72906
2.73378
2.73955
2.74766
2.75257
2.75846
2.76061
2.75754
2.75393
2.75077
2.7493
2.74874
2.75037
2.75233
2.75301
2.75416
2.75471
2.75401
2.75637
2.75964
2.7678
2.77849
2.79142
2.80589
2.82046
2.83057
2.84496
2.86798
2.88071
2.89343
2.9045
2.91681
2.93104
2.94444
2.95629
2.96112
2.97755
2.98807
3.00384
3.02478
3.04695
3.05375
3.07055
3.0813
3.095
3.1071
3.11325
3.11794
3.11473
3.10715
3.0963
3.09077
3.09151
3.09893
3.11393
3.13315
3.15346
3.17889
3.20138
3.22262
3.24577
3.26791
3.29454
3.31873
3.34577
3.35975
3.37365
3.36074
3.26002
3.36249
0.948304
0.926095
0.99736
1.08275
1.16235
1.20292
1.1639
1.10012
1.04024
0.995046
0.995363
1.00469
1.00987
1.02708
1.05028
1.07961
1.10241
1.1277
1.15554
1.18427
1.2851
2.40989
2.80402
2.87512
2.91554
2.93466
2.93507
2.94033
2.95061
2.95379
2.94855
2.93836
2.93123
2.92405
2.91385
2.90082
2.88901
2.87592
2.86325
2.85177
2.83968
2.83093
2.82224
2.81096
2.79893
2.79183
2.77861
2.76547
2.75848
2.75151
2.74718
2.74083
2.73836
2.73664
2.7367
2.73753
2.73699
2.73409
2.73277
2.73204
2.73242
2.73451
2.73546
2.73401
2.72777
2.71828
2.70529
2.69001
2.67468
2.66341
2.66316
2.66819
2.68424
2.69862
2.72087
2.74634
2.76706
2.78362
2.79813
2.81503
2.83555
2.85629
2.87723
2.89946
2.92096
2.94574
2.96024
2.98297
3.00416
3.02212
3.02475
3.04724
3.0666
3.08379
3.10103
3.10536
3.10228
3.08715
3.06104
3.04294
3.03396
3.03697
3.0507
3.0767
3.10689
3.13698
3.1668
3.19194
3.21615
3.24123
3.26595
3.29085
3.31239
3.33017
3.3387
3.33212
3.29692
3.22759
3.33039
1.10038
1.16246
1.04517
0.884816
0.807103
0.819074
0.884361
1.00804
1.10266
1.11497
1.10378
1.0798
1.07471
1.07515
1.089
1.1152
1.14678
1.18513
1.21313
1.24334
1.37482
2.39839
2.8651
2.91806
2.92216
2.93872
2.93067
2.92524
2.93776
2.93641
2.92298
2.90316
2.88816
2.88423
2.87876
2.87101
2.86448
2.85969
2.85482
2.84851
2.84162
2.83162
2.82296
2.80995
2.80195
2.80451
2.78659
2.77362
2.76248
2.75373
2.74873
2.7451
2.73928
2.73327
2.7305
2.72986
2.72756
2.7265
2.72621
2.72757
2.73164
2.73622
2.73938
2.73697
2.73251
2.7298
2.72189
2.71229
2.69856
2.68676
2.67184
2.6618
2.65857
2.6576
2.66493
2.67671
2.68732
2.70524
2.72486
2.74662
2.76697
2.78764
2.80812
2.83483
2.8624
2.89087
2.91509
2.93703
2.96667
2.98543
2.98862
3.02019
3.04368
3.06641
3.08991
3.09653
3.0874
3.06605
3.0332
3.01153
2.99902
2.99076
2.99189
3.00489
3.03412
3.0796
3.12773
3.15895
3.19057
3.21272
3.2419
3.26795
3.28986
3.30214
3.30132
3.26849
3.24283
3.22247
3.29861
0.890966
0.846252
0.95093
1.06002
1.15709
1.20031
1.1535
1.06637
0.992494
0.930557
0.922543
0.926732
0.937207
0.953008
0.982658
0.998304
0.997701
0.988714
0.962061
0.936371
0.900673
1.87181
2.44973
2.62683
2.71895
2.73865
2.76687
2.78502
2.79947
2.80699
2.81518
2.82247
2.82511
2.83248
2.83473
2.83187
2.82415
2.81707
2.81063
2.80532
2.79995
2.78989
2.77358
2.75867
2.73733
2.71904
2.69307
2.67276
2.65732
2.64095
2.62268
2.60283
2.58234
2.56451
2.54971
2.53811
2.52678
2.51641
2.50751
2.50061
2.49955
2.50054
2.50282
2.50648
2.50915
2.51176
2.51251
2.51342
2.51177
2.50698
2.50307
2.50055
2.49897
2.49651
2.49138
2.49734
2.49779
2.52216
2.54323
2.57655
2.61389
2.66252
2.70601
2.74769
2.77944
2.80898
2.83607
2.85265
2.88289
2.91662
2.93425
2.98278
3.01792
3.04934
3.08078
3.09488
3.08826
3.07237
3.04769
3.02786
3.01016
2.9973
2.98765
2.98506
2.98588
2.99869
3.04021
3.09482
3.14756
3.17639
3.20974
3.23043
3.25409
3.2606
3.25647
3.23535
3.22996
3.21506
3.26504
1.13372
1.22516
1.08644
0.908978
0.837543
0.847826
0.908762
1.03453
1.11607
1.12743
1.11825
1.09722
1.09311
1.10798
1.15575
1.19541
1.21436
1.23038
1.239
1.26729
1.35995
2.10061
2.58856
2.68894
2.65028
2.5884
2.56977
2.57724
2.61213
2.65347
2.67545
2.68155
2.67294
2.63903
2.61321
2.593
2.57209
2.55498
2.53996
2.52876
2.5196
2.51036
2.49789
2.49017
2.48182
2.48335
2.47095
2.46607
2.46751
2.46861
2.47062
2.47106
2.47002
2.46848
2.46591
2.46592
2.46003
2.45453
2.4455
2.43576
2.42236
2.40778
2.39463
2.38274
2.37495
2.37021
2.36734
2.36374
2.36432
2.36438
2.36441
2.36769
2.36529
2.37268
2.37734
2.39222
2.40115
2.42588
2.44837
2.48395
2.5112
2.55422
2.58849
2.63918
2.68358
2.72434
2.76594
2.7907
2.81693
2.84584
2.86478
2.92366
2.97612
3.0204
3.06095
3.0887
3.09481
3.08933
3.07542
3.06379
3.05157
3.03687
3.01564
3.00268
2.98635
2.98305
2.98539
3.00861
3.06546
3.12155
3.16818
3.19629
3.21468
3.22001
3.22212
3.22291
3.22703
3.20945
3.2259
0.833346
0.77065
0.886508
1.01999
1.11759
1.15527
1.11276
1.02328
0.937292
0.869592
0.865231
0.874237
0.893785
0.920245
0.96348
0.989666
0.985029
0.956294
0.898497
0.809371
0.674216
1.1674
1.84279
2.12805
2.26165
2.24641
2.24412
2.25911
2.31438
2.37916
2.44559
2.47761
2.47594
2.46775
2.44928
2.43294
2.41959
2.40431
2.38664
2.37063
2.36083
2.35426
2.34662
2.34773
2.34888
2.35545
2.34659
2.34674
2.35217
2.35865
2.36795
2.38243
2.38994
2.39997
2.40346
2.40902
2.4028
2.39179
2.37065
2.34849
2.3191
2.29732
2.26706
2.24564
2.22173
2.19936
2.18889
2.1875
2.18855
2.1931
2.19983
2.21542
2.22787
2.23934
2.24509
2.26059
2.27537
2.30292
2.32765
2.36521
2.38476
2.41791
2.43639
2.4818
2.53502
2.59152
2.66424
2.7073
2.74426
2.77154
2.78853
2.84308
2.90951
2.97481
3.02941
3.07194
3.08833
3.09452
3.09353
3.08588
3.08057
3.07501
3.06531
3.04533
3.0137
2.99773
2.98399
2.97874
2.99368
3.03706
3.10514
3.1564
3.1869
3.20324
3.20961
3.22135
3.23545
3.20907
3.20379
1.14942
1.26387
1.13075
0.958387
0.898852
0.899493
0.936767
1.0258
1.07435
1.07373
1.06641
1.05461
1.05612
1.07617
1.12799
1.16067
1.17582
1.18594
1.19141
1.1855
1.21855
1.65627
2.75472
3.13682
3.03932
2.84489
2.73414
2.65811
2.57628
2.4571
2.36305
2.26894
2.21346
2.21446
2.21553
2.23429
2.26176
2.28654
2.29091
2.29482
2.29964
2.3003
2.30363
2.30788
2.30406
2.31282
2.31959
2.32789
2.34138
2.35608
2.3701
2.38928
2.39305
2.39819
2.4004
2.39803
2.38956
2.37221
2.35253
2.33297
2.30041
2.26977
2.23255
2.2088
2.17835
2.16291
2.14432
2.13967
2.14332
2.16014
2.15435
2.15569
2.14963
2.15775
2.1675
2.19172
2.20871
2.23713
2.25077
2.25904
2.26419
2.30515
2.3267
2.37016
2.42876
2.45735
2.52442
2.58658
2.6356
2.66983
2.69131
2.75032
2.83038
2.91663
2.98716
3.03566
3.06059
3.07921
3.07994
3.08209
3.085
3.0855
3.08398
3.0785
3.06051
3.03265
3.00658
2.98578
2.98198
2.99609
3.0381
3.09963
3.152
3.18564
3.2048
3.22887
3.25424
3.21702
3.19812
0.788651
0.711814
0.81389
0.947605
1.03388
1.06847
1.03778
0.97078
0.89899
0.855933
0.857379
0.868556
0.894258
0.92736
0.970952
0.999972
0.995042
0.959748
0.878429
0.744626
0.544855
0.330468
0.914215
1.05857
1.13802
1.23028
1.3519
1.43719
1.47248
1.51883
1.58174
1.66229
1.75893
1.87358
1.97574
2.07378
2.16573
2.24154
2.3023
2.36239
2.40267
2.41746
2.43377
2.43468
2.4196
2.41573
2.41184
2.40897
2.41382
2.41583
2.41696
2.42695
2.42536
2.41758
2.40448
2.38601
2.36084
2.33101
2.3019
2.26971
2.23249
2.19831
2.17071
2.14064
2.12284
2.11455
2.11209
2.12093
2.11901
2.1276
2.12223
2.13067
2.12112
2.12621
2.11515
2.11893
2.11044
2.13533
2.11767
2.13152
2.15247
2.16418
2.15817
2.19547
2.2637
2.30029
2.36165
2.42305
2.49248
2.54881
2.58751
2.65056
2.73516
2.82468
2.91059
2.97881
3.01363
3.03202
3.03515
3.0346
3.0439
3.05698
3.07178
3.07774
3.07612
3.06496
3.04288
3.01217
2.98693
2.97886
2.99073
3.03209
3.09522
3.15447
3.18943
3.22666
3.26497
3.23206
3.20567
1.13763
1.25849
1.13839
0.995377
0.955741
0.94665
0.955745
0.992355
1.01664
1.01136
1.00648
1.00105
1.00801
1.02547
1.05753
1.07832
1.09045
1.09275
1.08823
1.06376
0.994812
1.11104
1.57016
2.09675
2.73486
2.86484
2.82131
2.73641
2.6057
2.51418
2.42286
2.31295
2.32176
2.37814
2.41544
2.45873
2.49867
2.50977
2.51796
2.5204
2.51945
2.51043
2.48951
2.46349
2.44372
2.40951
2.37566
2.34343
2.31515
2.28577
2.2631
2.24034
2.21755
2.18885
2.16392
2.13447
2.11574
2.09061
2.0755
2.05534
2.04218
2.0304
2.02044
2.0049
2.00712
2.00805
2.01057
2.01478
2.01931
2.03404
2.03992
2.0541
2.0472
2.05124
2.03832
2.04316
2.03396
2.04291
2.03385
2.03339
2.04362
2.03751
2.04151
2.08713
2.12739
2.15369
2.21963
2.28403
2.37177
2.44124
2.47583
2.52682
2.59826
2.70665
2.84889
2.92484
2.97238
2.99269
2.99632
3.00295
3.01472
3.02124
3.03281
3.04876
3.06443
3.07551
3.06928
3.04691
3.01595
2.98291
2.98465
2.99529
3.02764
3.09993
3.15914
3.21644
3.26788
3.25207
3.22709
0.777592
0.708857
0.792627
0.901369
0.969809
0.998325
0.982513
0.951106
0.915389
0.894276
0.896792
0.905159
0.928276
0.955418
0.979544
1.00272
0.997524
0.973305
0.916722
0.813644
0.650155
0.715732
1.06328
1.24087
1.24902
1.30467
1.34529
1.36435
1.39006
1.46171
1.54494
1.63311
1.73928
1.83056
1.89358
1.95908
2.02745
2.05486
2.07969
2.09314
2.09957
2.09924
2.09361
2.08213
2.07671
2.07626
2.07314
2.06543
2.05536
2.04262
2.02955
2.02257
2.01539
2.01236
2.00752
2.00458
2.00072
2.00051
1.99877
2.00156
1.99997
1.99938
1.99642
1.99572
1.99225
1.98881
1.98372
1.98648
1.98574
1.99295
1.99948
2.01234
2.0134
2.01845
2.01407
2.01703
2.0162
2.01945
2.01807
2.00939
1.99433
1.99373
1.98053
1.99798
2.02334
2.04604
2.10544
2.1574
2.27057
2.39576
2.4519
2.4841
2.53288
2.61293
2.77527
2.87231
2.92226
2.96455
2.98404
3.00774
3.02298
3.0229
3.0205
3.02836
3.056
3.0809
3.09262
3.08733
3.06492
3.03241
2.9996
2.99895
3.00985
3.05465
3.11852
3.19594
3.26433
3.26662
3.26511
1.09141
1.20625
1.11622
0.992021
0.963809
0.96736
0.966478
0.976907
0.977555
0.97274
0.969149
0.969388
0.981335
0.990353
1.00323
1.02334
1.02855
1.0275
1.01598
1.01681
1.0844
1.44435
2.11661
2.60263
2.51012
2.30351
2.20453
2.15046
2.14276
2.19904
2.29804
2.35125
2.3485
2.34317
2.32104
2.27758
2.25407
2.23121
2.21529
2.20204
2.19362
2.18437
2.17192
2.15832
2.14677
2.13568
2.14074
2.13304
2.11969
2.1056
2.0992
2.09996
2.099
2.10567
2.10769
2.11029
2.11228
2.1188
2.1207
2.12505
2.12262
2.12019
2.10847
2.10413
2.09372
2.0799
2.06764
2.06418
2.05928
2.06172
2.06619
2.06571
2.06377
2.05861
2.05328
2.05036
2.05105
2.05406
2.05065
2.04663
2.03177
2.02039
2.00897
2.01213
2.02586
2.04591
2.07736
2.10143
2.18266
2.34559
2.46828
2.52477
2.58068
2.66437
2.79696
2.90522
2.99111
3.02374
3.01481
3.01104
3.02947
3.04832
3.05354
3.05731
3.05588
3.06718
3.08125
3.0853
3.07886
3.0553
3.0184
2.99743
2.98852
3.00413
3.0577
3.15502
3.25246
3.26815
3.29629
0.833192
0.771106
0.828999
0.910504
0.947689
0.970571
0.972341
0.963749
0.951881
0.942075
0.940847
0.946869
0.962947
0.975086
0.984364
1.00239
1.00772
0.989368
0.948189
0.906562
0.90755
1.34158
1.88395
1.99442
2.18008
2.18664
2.22001
2.24322
2.23135
2.20344
2.24781
2.28167
2.28884
2.28315
2.27247
2.26188
2.25725
2.2547
2.25721
2.25949
2.26046
2.25939
2.25529
2.24765
2.24169
2.23764
2.23288
2.22627
2.22238
2.21994
2.21965
2.22139
2.22446
2.22727
2.23052
2.23579
2.24463
2.25643
2.26897
2.28045
2.28978
2.29493
2.29738
2.29899
2.2976
2.29122
2.29107
2.29149
2.2983
2.3046
2.30756
2.30319
2.28876
2.26982
2.25162
2.23583
2.21785
2.20295
2.18175
2.16517
2.13474
2.10432
2.08003
2.07836
2.08465
2.10126
2.13835
2.15722
2.19669
2.31923
2.45035
2.517
2.57532
2.65046
2.77718
2.89676
2.98194
3.00975
3.01939
3.03571
3.04818
3.04861
3.04636
3.04821
3.05533
3.073
3.08777
3.09306
3.09109
3.07772
3.04253
3.00317
2.98246
2.9871
3.0239
3.11461
3.23312
3.26448
3.32827
1.04164
1.11017
1.0507
0.976534
0.954064
0.953553
0.959451
0.964636
0.969567
0.970652
0.971747
0.972978
0.98374
0.996206
1.00389
1.01775
1.03064
1.02144
0.994072
1.00462
1.03072
1.57453
2.24467
2.43445
2.47557
2.48779
2.52215
2.54403
2.54293
2.52277
2.50492
2.48757
2.48856
2.4944
2.49736
2.49769
2.49914
2.49974
2.49814
2.49819
2.50019
2.50194
2.50137
2.50256
2.50241
2.49189
2.4942
2.49644
2.4976
2.50132
2.50632
2.51194
2.51926
2.52641
2.53705
2.54387
2.55387
2.5638
2.57408
2.58418
2.59861
2.61564
2.63305
2.64873
2.65598
2.66694
2.67368
2.67849
2.67685
2.67367
2.65786
2.64024
2.61076
2.57854
2.53775
2.49569
2.44898
2.40506
2.36713
2.34114
2.29074
2.2505
2.21405
2.19182
2.17443
2.18934
2.21654
2.23404
2.28201
2.37443
2.48321
2.54163
2.6019
2.67231
2.7918
2.92356
3.00097
3.0228
3.04828
3.062
3.06862
3.06446
3.06063
3.06223
3.07244
3.08954
3.09865
3.10048
3.09751
3.08458
3.05721
3.01717
2.97609
2.97264
2.99091
3.06848
3.19378
3.24714
3.33477
0.908616
0.865791
0.893954
0.934767
0.955187
0.963341
0.966554
0.963261
0.964317
0.964486
0.966874
0.971082
0.995877
1.01262
1.02457
1.03109
1.03521
1.02156
0.998664
1.00171
1.02348
1.73576
2.43324
2.61921
2.70627
2.76784
2.78968
2.77553
2.75163
2.71321
2.68448
2.65889
2.65679
2.66517
2.67097
2.67275
2.67283
2.67351
2.6745
2.67665
2.68207
2.68631
2.68699
2.68621
2.6856
2.67941
2.68614
2.69399
2.7052
2.71554
2.72816
2.73896
2.75182
2.76412
2.77703
2.78911
2.80204
2.8172
2.83268
2.84786
2.86346
2.87417
2.88444
2.89019
2.89523
2.89968
2.90219
2.90277
2.8996
2.89323
2.8803
2.86306
2.84221
2.8155
2.78509
2.75102
2.70486
2.63984
2.57394
2.50872
2.45001
2.39699
2.32564
2.3012
2.29032
2.30017
2.2928
2.28766
2.33209
2.41137
2.50102
2.56633
2.61128
2.67521
2.77619
2.90484
2.99746
3.04288
3.0826
3.08825
3.0866
3.07773
3.07414
3.07575
3.08415
3.09649
3.10335
3.10318
3.0989
3.0862
3.06336
3.03038
2.983
2.96714
2.9748
3.0265
3.14175
3.22537
3.33061
1.00239
1.01976
0.996768
0.966422
0.953837
0.948516
0.95131
0.955667
0.959913
0.966128
0.970203
0.979533
1.00347
1.01863
1.02983
1.03681
1.04019
1.02931
1.01784
1.01896
1.05608
1.90561
2.59827
2.74666
2.80339
2.84533
2.84373
2.83058
2.81088
2.80296
2.80678
2.80795
2.80649
2.80276
2.80346
2.80474
2.80779
2.81267
2.81981
2.82795
2.8376
2.84301
2.84942
2.84873
2.8576
2.85417
2.86283
2.87643
2.89042
2.90465
2.92015
2.93514
2.94989
2.96162
2.9706
2.97651
2.98053
2.98517
2.99038
2.99715
3.00283
3.00838
3.01077
3.01254
3.0098
3.0067
3.00212
2.99642
2.98525
2.97331
2.9576
2.93888
2.91554
2.88706
2.85821
2.82699
2.798
2.75731
2.70975
2.65661
2.59256
2.5114
2.4154
2.3617
2.32079
2.32795
2.33204
2.35757
2.39467
2.44537
2.51187
2.5692
2.61108
2.66454
2.76232
2.90226
3.00874
3.06653
3.09729
3.10729
3.10652
3.09611
3.08896
3.08818
3.09328
3.10193
3.10728
3.10771
3.10086
3.08943
3.06885
3.04232
3.00347
2.965
2.96715
2.99231
3.0962
3.19826
3.3242
0.942806
0.930603
0.939857
0.951852
0.960318
0.959847
0.959367
0.959256
0.962509
0.964938
0.964928
0.973666
1.0017
1.01946
1.03098
1.04497
1.04841
1.04119
1.03442
1.0338
1.08489
2.02186
2.72051
2.85347
2.90659
2.94124
2.93766
2.93101
2.92867
2.92969
2.92992
2.92978
2.92496
2.9158
2.91409
2.91743
2.92246
2.92868
2.93612
2.94346
2.9513
2.95239
2.95619
2.95821
2.96509
2.96687
2.97383
2.98594
3.00007
3.01491
3.03043
3.04352
3.05077
3.05363
3.05356
3.05287
3.05231
3.05379
3.05803
3.06282
3.06573
3.06641
3.06504
3.06185
3.05637
3.05169
3.04479
3.03793
3.02742
3.01913
3.00621
2.9905
2.96817
2.93872
2.90937
2.87643
2.84411
2.80754
2.76634
2.7232
2.67658
2.60447
2.51203
2.44588
2.38418
2.35504
2.3439
2.3647
2.39481
2.43922
2.50251
2.55525
2.59814
2.65588
2.74661
2.88807
3.0105
3.07924
3.09679
3.11663
3.11737
3.10713
3.09962
3.09487
3.09918
3.10665
3.11203
3.1113
3.1052
3.0941
3.07619
3.05529
3.01877
2.96766
2.96726
2.97117
3.05632
3.15595
3.316
0.970424
0.975956
0.968059
0.957575
0.951674
0.94797
0.949503
0.95143
0.957695
0.971342
0.977255
0.991948
1.02872
1.03115
1.03522
1.04716
1.05316
1.04795
1.04303
1.04024
1.11103
2.17764
2.75765
2.912
2.9532
2.97851
2.9832
2.98713
2.98924
2.98984
2.98646
2.9853
2.98255
2.98236
2.98897
2.99435
3.00093
3.01023
3.0186
3.02604
3.03228
3.03091
3.03522
3.0342
3.03478
3.03176
3.04068
3.05335
3.06562
3.08119
3.09515
3.10424
3.10697
3.10786
3.10711
3.10685
3.10818
3.11167
3.11579
3.11603
3.11498
3.11204
3.10728
3.10118
3.09322
3.08538
3.07699
3.06768
3.05609
3.04159
3.02841
3.01633
2.99664
2.9753
2.94736
2.9215
2.89068
2.85149
2.80893
2.76551
2.72571
2.66811
2.59594
2.51584
2.43779
2.38573
2.35976
2.36722
2.37977
2.41387
2.47482
2.52522
2.57875
2.64269
2.73728
2.8707
2.99514
3.07688
3.08424
3.10915
3.11578
3.11116
3.10556
3.09992
3.10264
3.11066
3.11778
3.11654
3.11019
3.09902
3.08212
3.06138
3.0307
2.97722
2.96597
2.95493
3.01982
3.12956
3.29746
0.951708
0.952585
0.955718
0.957592
0.957943
0.956568
0.954985
0.954497
0.9595
0.974496
0.980522
0.995088
1.03531
1.03401
1.03411
1.04328
1.05397
1.05097
1.04892
1.05204
1.16625
2.45449
2.91805
3.01808
3.02796
3.03122
3.02212
3.01448
3.00342
2.99762
2.98978
2.99016
2.99429
3.00272
3.01006
3.01694
3.0238
3.03348
3.041
3.05018
3.05688
3.06327
3.06859
3.0721
3.07405
3.07824
3.08304
3.09127
3.10091
3.11534
3.12456
3.13073
3.13242
3.13276
3.13096
3.12902
3.12883
3.12971
3.13212
3.1326
3.13122
3.12864
3.12193
3.11235
3.10188
3.09219
3.08122
3.06856
3.05407
3.03823
3.02701
3.01508
3.00329
2.98601
2.96364
2.93983
2.91399
2.88345
2.844
2.79742
2.75524
2.7154
2.66477
2.58859
2.49557
2.42919
2.39268
2.37946
2.37478
2.39861
2.44305
2.4782
2.55326
2.62587
2.71152
2.82722
2.94787
3.06285
3.06687
3.09026
3.10832
3.10693
3.10454
3.09922
3.10154
3.1086
3.11733
3.11811
3.11186
3.09978
3.08157
3.06086
3.03372
2.98454
2.9627
2.93776
2.99281
3.10139
3.27582
0.956199
0.959111
0.957735
0.955177
0.95384
0.952872
0.95223
0.952113
0.957165
0.970035
0.973521
0.99673
1.04424
1.04695
1.04732
1.05144
1.05784
1.05332
1.04711
1.04432
1.19469
2.54757
2.75428
2.85298
2.88205
2.88773
2.90965
2.93873
2.95126
2.96036
2.97202
2.9869
2.99661
3.01068
3.02702
3.04053
3.05381
3.06511
3.07385
3.07993
3.08372
3.08675
3.08894
3.0922
3.0859
3.09355
3.09579
3.10071
3.10805
3.11456
3.12102
3.12799
3.13402
3.13913
3.14095
3.1415
3.14152
3.14175
3.14276
3.14417
3.1432
3.13863
3.13027
3.11946
3.10779
3.09653
3.08383
3.06973
3.05233
3.03394
3.01994
3.00788
2.99587
2.98101
2.96188
2.94103
2.91942
2.8951
2.86792
2.83369
2.79371
2.75069
2.70497
2.65405
2.58309
2.51503
2.45775
2.41308
2.39347
2.38922
2.41212
2.45749
2.50717
2.5806
2.66515
2.76673
2.8758
3.00728
3.03533
3.0592
3.08788
3.09283
3.0941
3.09429
3.09757
3.10266
3.11069
3.11587
3.11191
3.10045
3.08517
3.06565
3.03957
2.99382
2.95654
2.91895
2.96873
3.07379
3.25371
0.952421
0.954578
0.955654
0.956068
0.956201
0.955514
0.954674
0.953376
0.958881
0.97693
0.983804
1.00899
1.05051
1.05123
1.04952
1.05254
1.0539
1.04862
1.03657
1.02329
1.08624
2.05447
2.68536
2.96852
2.94145
2.93756
2.95704
2.98451
2.98443
2.97648
2.96644
2.96698
2.97019
2.9831
3.00408
3.02686
3.05172
3.07512
3.09397
3.10601
3.11483
3.12179
3.13001
3.1378
3.14096
3.1477
3.14779
3.14727
3.14726
3.14914
3.15335
3.15702
3.15697
3.15599
3.15566
3.15955
3.16615
3.17207
3.17452
3.17271
3.16862
3.16415
3.1561
3.14447
3.13096
3.1173
3.10156
3.08387
3.06241
3.03827
3.01548
2.99306
2.97708
2.96173
2.94308
2.92495
2.90657
2.88602
2.86557
2.8425
2.81814
2.78677
2.75198
2.71089
2.65456
2.59782
2.5393
2.49567
2.46339
2.43646
2.46728
2.46607
2.49579
2.53999
2.60587
2.6952
2.79637
2.92337
2.99507
3.02091
3.06207
3.07612
3.08127
3.0845
3.08814
3.09238
3.0983
3.10747
3.10746
3.09895
3.08642
3.06853
3.04281
3.00077
2.95034
2.90194
2.94531
3.04738
3.23238
0.952926
0.955249
0.954695
0.954464
0.95429
0.953622
0.953362
0.952464
0.959373
0.980963
0.988727
1.01136
1.04764
1.04853
1.0471
1.04909
1.04961
1.043
1.02683
0.99489
0.998193
1.38756
1.92151
2.50919
2.69697
2.73361
2.70847
2.69454
2.65035
2.60847
2.61246
2.63217
2.6703
2.71799
2.7701
2.82408
2.87575
2.92172
2.9492
2.96151
2.96583
2.96787
2.96366
2.96079
2.94855
2.95971
2.96806
2.97714
2.98633
2.99189
2.99226
2.99073
2.98916
2.99489
3.01598
3.03886
3.04922
3.05191
3.04868
3.04162
3.04062
3.04652
3.04899
3.05232
3.0496
3.04562
3.0395
3.03543
3.02494
3.00864
2.98995
2.96595
2.94696
2.92953
2.90796
2.89333
2.87668
2.86107
2.84597
2.83097
2.81498
2.79541
2.77415
2.74497
2.71096
2.67308
2.62152
2.57824
2.54326
2.51278
2.53297
2.49288
2.5156
2.53686
2.57789
2.63875
2.72529
2.83297
2.92461
2.97971
3.02695
3.04203
3.05444
3.06487
3.07357
3.08057
3.08449
3.09318
3.09968
3.09482
3.08463
3.06859
3.04349
3.00421
2.94726
2.88171
2.92157
3.02122
3.21209
0.952661
0.954442
0.954074
0.95444
0.955343
0.955479
0.956612
0.959178
0.971311
1.0025
1.01518
1.03775
1.06209
1.05836
1.05264
1.05175
1.04949
1.03753
1.01517
0.980618
0.984434
1.16982
1.99458
2.54754
2.50024
2.32082
2.22634
2.21731
2.21908
2.19713
2.14843
2.18724
2.20311
2.19148
2.17715
2.17098
2.16889
2.17507
2.1903
2.22315
2.26341
2.31573
2.38009
2.44617
2.50037
2.55598
2.59017
2.62453
2.65524
2.67752
2.69517
2.70808
2.71207
2.7093
2.69603
2.66932
2.63713
2.62867
2.63371
2.65941
2.70605
2.76028
2.80611
2.84904
2.88301
2.91497
2.93687
2.9441
2.9343
2.91961
2.90107
2.87965
2.86289
2.85193
2.83443
2.82615
2.81622
2.81073
2.80192
2.79681
2.79094
2.78591
2.77717
2.75876
2.73108
2.70754
2.67132
2.62931
2.58452
2.55252
2.5545
2.52918
2.5444
2.56206
2.57689
2.60907
2.66506
2.74483
2.83935
2.92032
2.97476
3.0082
3.02841
3.04951
3.06682
3.07641
3.08102
3.08697
3.09433
3.09035
3.08069
3.0664
3.04109
3.00449
2.94652
2.86363
2.8982
2.99516
3.19346
0.952935
0.954022
0.953567
0.954233
0.954388
0.955411
0.958377
0.962836
0.977695
1.00951
1.0233
1.04647
1.06432
1.05935
1.05243
1.04883
1.04362
1.02973
1.00467
0.961554
0.905445
0.94984
1.28788
1.31691
1.48472
1.79325
1.92057
1.95755
1.93034
1.87458
1.84783
1.84384
1.83617
1.81739
1.80183
1.79872
1.79793
1.8157
1.86067
1.91834
1.98546
2.04498
2.08181
2.0867
2.08526
2.07097
2.06224
2.06045
2.06118
2.0684
2.08275
2.10775
2.13724
2.15456
2.17626
2.19818
2.21862
2.27672
2.33751
2.4093
2.48937
2.54531
2.57371
2.58128
2.57064
2.57349
2.60154
2.63783
2.66048
2.67313
2.67067
2.66566
2.66243
2.67063
2.68903
2.71624
2.73028
2.74061
2.73873
2.73289
2.72688
2.72105
2.71093
2.70547
2.69658
2.68676
2.67523
2.66239
2.63477
2.59347
2.55438
2.51696
2.53538
2.55851
2.58008
2.60077
2.64724
2.7064
2.77666
2.85607
2.91601
2.95933
2.99016
3.01536
3.04182
3.05858
3.0602
3.06424
3.07601
3.07912
3.07289
3.06095
3.03604
2.99963
2.94242
2.84477
2.87376
2.96774
3.17588
0.952939
0.954407
0.954278
0.953947
0.952634
0.952997
0.955885
0.960681
0.977732
1.00618
1.0246
1.05026
1.06278
1.05863
1.05213
1.04702
1.03938
1.01925
0.982253
0.915612
0.820417
0.802072
1.03834
1.52521
1.93715
2.01049
1.98275
1.92694
1.86836
1.88269
1.92697
1.94085
1.92399
1.90317
1.88196
1.87097
1.87761
1.86628
1.85253
1.85089
1.84766
1.83185
1.8213
1.82886
1.84429
1.84741
1.84518
1.84496
1.84824
1.8606
1.88913
1.9348
1.97959
2.02248
2.07885
2.11701
2.16234
2.21936
2.2798
2.33225
2.36397
2.39335
2.40999
2.42346
2.4211
2.41647
2.39933
2.39577
2.40099
2.39171
2.38347
2.37232
2.37776
2.39009
2.41779
2.47268
2.52582
2.58192
2.62359
2.65304
2.67002
2.67337
2.66853
2.65798
2.64734
2.63616
2.62993
2.62584
2.6207
2.60589
2.57547
2.53874
2.52903
2.54948
2.58305
2.5872
2.62144
2.66255
2.71314
2.78405
2.84733
2.90478
2.94448
2.98055
3.01628
3.04424
3.04951
3.05248
3.06602
3.06948
3.06693
3.05579
3.03155
2.99104
2.93423
2.82459
2.8463
2.93808
3.16036
0.953347
0.95474
0.954494
0.954119
0.954063
0.956277
0.962525
0.973622
0.99843
1.02794
1.05138
1.06739
1.07031
1.0639
1.05613
1.04933
1.03733
1.01368
0.96834
0.891983
0.796421
0.827208
1.41292
2.05396
2.01449
1.9379
1.89047
1.87572
1.88692
1.92042
1.92888
1.93761
1.93776
1.92964
1.92057
1.90515
1.87687
1.84173
1.80145
1.76751
1.74718
1.73732
1.73034
1.73024
1.73187
1.73094
1.72915
1.73056
1.73698
1.74286
1.75435
1.77695
1.80808
1.84497
1.88435
1.92082
1.96274
1.99829
2.04365
2.10211
2.15396
2.18947
2.21032
2.21553
2.21649
2.20412
2.17873
2.16144
2.16227
2.17577
2.20503
2.24957
2.28812
2.32192
2.34477
2.39282
2.42917
2.48379
2.52886
2.55143
2.57261
2.59715
2.62324
2.63672
2.62844
2.6166
2.6085
2.60174
2.59095
2.58211
2.56836
2.54588
2.51957
2.52445
2.54999
2.56909
2.59553
2.62756
2.66616
2.72676
2.78363
2.84587
2.89057
2.93269
2.97502
3.01145
3.02034
3.02579
3.04283
3.04929
3.05072
3.04071
3.01903
2.97597
2.9212
2.8038
2.81663
2.90934
3.14678
0.953755
0.955032
0.954366
0.954475
0.954808
0.95782
0.966621
0.980004
1.00762
1.03678
1.05592
1.07068
1.06906
1.06286
1.05684
1.048
1.03218
1.00492
0.953813
0.887373
0.837492
0.916094
1.74356
2.56296
2.6092
2.50424
2.37217
2.28958
2.23618
2.21045
2.18569
2.15173
2.1179
2.09871
2.08397
2.07341
2.07806
2.07978
2.07772
2.07528
2.06727
2.05236
2.03322
2.01974
2.00838
1.99235
1.96676
1.9399
1.92006
1.90762
1.90351
1.90443
1.90494
1.90722
1.90848
1.91476
1.92187
1.92876
1.94288
1.96666
1.99846
2.02054
2.02625
2.02361
2.0259
2.02532
2.01651
2.01037
2.00826
2.0203
2.05807
2.12126
2.17438
2.20665
2.2423
2.30182
2.34456
2.39894
2.47269
2.52511
2.55206
2.56861
2.5853
2.60629
2.62019
2.62636
2.62233
2.60921
2.59187
2.5736
2.56098
2.54537
2.52439
2.51608
2.52689
2.54659
2.57286
2.60263
2.63506
2.68551
2.73617
2.79637
2.83866
2.88219
2.93261
2.96878
2.9925
3.0014
3.01884
3.02863
3.03269
3.02584
3.00738
2.96212
2.90656
2.78312
2.78386
2.87966
3.13392
0.954109
0.955603
0.955211
0.953616
0.952954
0.955563
0.964412
0.978343
1.00322
1.03614
1.0572
1.06544
1.06626
1.06232
1.05735
1.04987
1.03376
1.0028
0.943543
0.905092
0.888687
1.01983
1.9104
2.63222
2.75773
2.69472
2.57914
2.49214
2.43206
2.39273
2.36425
2.34356
2.32652
2.30843
2.28401
2.27321
2.26272
2.23542
2.21014
2.19788
2.1877
2.18015
2.17136
2.15833
2.14512
2.12964
2.1138
2.09676
2.08105
2.07027
2.05968
2.04835
2.03675
2.02539
2.01832
2.01478
2.01287
2.01782
2.02628
2.03773
2.04774
2.04517
2.04375
2.03585
2.04456
2.0552
2.05967
2.04955
2.06245
2.10618
2.13291
2.16257
2.22352
2.26101
2.29719
2.34602
2.37115
2.40419
2.4436
2.47552
2.49148
2.50303
2.5292
2.56954
2.61319
2.63914
2.64024
2.6259
2.59988
2.58411
2.56906
2.55042
2.53066
2.50639
2.5055
2.52003
2.54656
2.58042
2.61058
2.65138
2.69536
2.75317
2.79341
2.83758
2.89042
2.92842
2.96189
2.98378
3.00268
3.0131
3.01878
3.01332
2.99302
2.94666
2.88889
2.76406
2.75547
2.84326
3.11478
0.95436
0.955796
0.955138
0.954671
0.956167
0.962393
0.979815
0.999475
1.02548
1.06555
1.074
1.07132
1.06824
1.06407
1.05962
1.05416
1.0384
1.00082
0.942112
0.926012
0.929212
1.22521
2.04689
2.55193
2.7708
2.7311
2.6373
2.52838
2.44888
2.40663
2.37499
2.35301
2.3296
2.31914
2.30444
2.28044
2.26271
2.24911
2.24035
2.23535
2.22932
2.22758
2.22759
2.22317
2.21196
2.19772
2.18303
2.16478
2.14241
2.12135
2.10485
2.09462
2.09032
2.08803
2.08983
2.09403
2.1003
2.11077
2.12208
2.12391
2.12396
2.12183
2.11949
2.12228
2.13598
2.14673
2.13984
2.14665
2.1755
2.17566
2.18102
2.23207
2.2878
2.29987
2.3361
2.38787
2.41443
2.43769