/*--------------------------------*- C++ -*----------------------------------*\
| =========                 |                                                 |
| \\      /  F ield         | OpenFOAM: The Open Source CFD Toolbox           |
|  \\    /   O peration     | Version:  2.2.x                                 |
|   \\  /    A nd           | Web:      www.OpenFOAM.org                      |
|    \\/     M anipulation  |                                                 |
\*---------------------------------------------------------------------------*/
FoamFile
{
    version     2.0;
    format      ascii;
    class       volScalarField;
    location    "1.65";
    object      Bx;
}
// * * * * * * * * * * * * * * * * * * * * * * * * * * * * * * * * * * * * * //

dimensions      [1 0 -2 0 0 -1 0];

internalField   nonuniform List<scalar> 
14161
(
1.00219
1.00153
1.00169
1.00176
1.00187
1.002
1.00215
1.00233
1.00252
1.00273
1.00298
1.0032
1.00347
1.00379
1.004
1.00428
1.00467
1.00499
1.00517
1.00547
1.00587
1.00622
1.00648
1.00661
1.00683
1.00717
1.00741
1.00756
1.00761
1.00761
1.00759
1.00756
1.00746
1.00728
1.00701
1.00656
1.00591
1.00501
1.00402
1.00273
1.00135
0.999708
0.997974
0.99596
0.993793
0.991754
0.99043
0.979419
0.954257
0.940771
0.942709
0.957205
0.978589
1.00559
1.03187
1.05922
1.08422
1.10756
1.129
1.14783
1.1644
1.17886
1.19164
1.20292
1.21294
1.22133
1.22842
1.23491
1.2406
1.24565
1.25017
1.25431
1.25818
1.26117
1.26384
1.26646
1.26924
1.2723
1.27569
1.27865
1.28213
1.2859
1.28971
1.29301
1.29597
1.29934
1.30305
1.3066
1.31019
1.31345
1.31717
1.32147
1.32495
1.32942
1.33464
1.33894
1.34356
1.34874
1.35388
1.35956
1.36499
1.36882
1.37069
1.3646
1.34424
1.28015
1.16117
1.01457
0.861853
0.730341
0.619366
0.526205
0.441562
0.366236
0.290477
0.223638
0.147058
0.0967648
0.019307
1.00219
1.00153
1.00169
1.00176
1.00187
1.002
1.00215
1.00233
1.00252
1.00273
1.00298
1.0032
1.00348
1.00378
1.00401
1.0043
1.00467
1.00497
1.00518
1.00548
1.0059
1.00624
1.00645
1.0066
1.00685
1.00718
1.00744
1.00759
1.00763
1.0076
1.0076
1.00758
1.00751
1.00734
1.00705
1.00657
1.00593
1.0052
1.00421
1.00292
1.00139
0.999768
0.998045
0.99585
0.99389
0.990379
0.988067
0.975743
0.945148
0.936157
0.939627
0.956138
0.979799
1.0082
1.03413
1.0608
1.08497
1.10707
1.12749
1.14536
1.16183
1.17595
1.18888
1.20015
1.2102
1.219
1.22662
1.23341
1.2394
1.24465
1.24948
1.25386
1.25791
1.2618
1.26536
1.26857
1.2716
1.27464
1.27787
1.28072
1.28396
1.28772
1.29114
1.29407
1.29711
1.30035
1.3041
1.30772
1.31134
1.31481
1.31843
1.32256
1.32631
1.33065
1.33575
1.33997
1.34468
1.34995
1.35514
1.36015
1.36379
1.36497
1.36086
1.34491
1.30234
1.22101
1.08511
0.932918
0.798032
0.685087
0.585789
0.498918
0.418116
0.345773
0.273383
0.210293
0.138697
0.0929653
0.0220227
1.00219
1.00153
1.00169
1.00176
1.00187
1.002
1.00215
1.00233
1.00252
1.00273
1.00297
1.0032
1.00348
1.00377
1.00401
1.00432
1.00466
1.00495
1.00519
1.00552
1.0059
1.00621
1.00641
1.0066
1.0069
1.00721
1.00746
1.00758
1.00763
1.00763
1.00765
1.00764
1.00758
1.00741
1.00714
1.00673
1.00621
1.0055
1.00444
1.00334
1.00202
1.00049
0.998544
0.996299
0.994547
0.99009
0.989464
0.969672
0.936488
0.932494
0.936014
0.958752
0.984764
1.01728
1.04518
1.07313
1.09744
1.12005
1.1403
1.15854
1.17464
1.18868
1.20137
1.21169
1.22114
1.22898
1.236
1.24205
1.24746
1.25214
1.25622
1.26017
1.26366
1.26736
1.27064
1.27391
1.27699
1.28024
1.28344
1.28651
1.28964
1.29322
1.29619
1.29891
1.30185
1.30481
1.30852
1.31213
1.31578
1.31934
1.32309
1.32711
1.3309
1.33527
1.33996
1.34415
1.3487
1.3533
1.35696
1.35946
1.36028
1.35371
1.33786
1.29801
1.20519
1.07997
0.926293
0.796179
0.693516
0.605123
0.524105
0.451501
0.382474
0.318746
0.253872
0.196873
0.131455
0.0893701
0.0228514
1.00219
1.00153
1.00169
1.00176
1.00187
1.002
1.00215
1.00233
1.00252
1.00274
1.00297
1.00321
1.00348
1.00375
1.00402
1.00433
1.00464
1.00494
1.00521
1.00554
1.00588
1.00616
1.0064
1.00663
1.00693
1.00723
1.00747
1.0076
1.00764
1.00768
1.00773
1.00773
1.00768
1.00756
1.00736
1.00705
1.00659
1.00591
1.00505
1.00416
1.00296
1.00142
0.999535
0.99722
0.995538
0.990188
0.992453
0.967792
0.931534
0.936214
0.936343
0.968778
0.997547
1.03367
1.06538
1.09564
1.12138
1.14553
1.16611
1.18417
1.19913
1.21267
1.22368
1.23253
1.24039
1.24641
1.25218
1.25679
1.26102
1.26466
1.26771
1.27076
1.27362
1.27684
1.27971
1.28262
1.28521
1.288
1.29087
1.29384
1.29659
1.29983
1.30212
1.30492
1.30789
1.31031
1.31377
1.31718
1.32075
1.32444
1.32812
1.33207
1.33605
1.34067
1.34447
1.3481
1.35173
1.35349
1.35573
1.35394
1.34612
1.32584
1.27756
1.191
1.05091
0.904356
0.791042
0.695677
0.619252
0.545677
0.477291
0.413834
0.352245
0.295278
0.237169
0.185863
0.126533
0.0870981
0.0250204
1.00218
1.00153
1.00169
1.00176
1.00187
1.00199
1.00216
1.00233
1.00252
1.00274
1.00296
1.00321
1.00348
1.00374
1.00404
1.00434
1.00461
1.00493
1.00525
1.00556
1.00585
1.00612
1.00642
1.0067
1.00697
1.00722
1.00744
1.00759
1.00769
1.00777
1.00785
1.00788
1.00785
1.00778
1.00766
1.00742
1.00706
1.00658
1.00595
1.00518
1.00421
1.003
1.00149
0.999411
0.997537
0.992151
0.993819
0.97254
0.935934
0.948957
0.948156
0.991495
1.02465
1.06372
1.09886
1.12991
1.15642
1.18005
1.19969
1.21608
1.22924
1.24146
1.2497
1.25827
1.26417
1.26917
1.27392
1.27705
1.27989
1.28234
1.28441
1.28653
1.28855
1.29103
1.29331
1.29576
1.29779
1.30031
1.30284
1.30542
1.30782
1.31038
1.3122
1.31498
1.3179
1.31984
1.32309
1.32639
1.33002
1.33352
1.33703
1.34059
1.34434
1.34824
1.35041
1.35179
1.35357
1.35302
1.35028
1.33884
1.31247
1.26313
1.16048
1.01376
0.857913
0.755966
0.675283
0.61274
0.556565
0.496656
0.437804
0.382081
0.32705
0.275751
0.223254
0.176877
0.123988
0.0872776
0.0300126
1.00218
1.00153
1.00169
1.00175
1.00187
1.00199
1.00215
1.00232
1.00251
1.00274
1.00295
1.00321
1.00347
1.00372
1.00404
1.00435
1.00458
1.0049
1.00527
1.00558
1.00581
1.00609
1.00644
1.00677
1.007
1.00719
1.0074
1.00762
1.00778
1.00793
1.00802
1.00807
1.00808
1.00805
1.008
1.0079
1.00771
1.00743
1.00707
1.00661
1.00603
1.00525
1.00424
1.00278
1.00087
0.996983
0.995677
0.985017
0.961159
0.971665
0.98365
1.03249
1.07215
1.11071
1.14592
1.17586
1.20264
1.22445
1.24158
1.25534
1.26604
1.27583
1.28124
1.28869
1.29189
1.29621
1.29924
1.30055
1.30214
1.30335
1.30495
1.30629
1.30762
1.30949
1.31129
1.31322
1.31477
1.31649
1.31824
1.32015
1.32177
1.3234
1.325
1.32748
1.33038
1.33196
1.33466
1.33768
1.34126
1.34403
1.34628
1.34865
1.35021
1.35179
1.35219
1.35209
1.35071
1.34399
1.32766
1.29804
1.23468
1.1299
0.972363
0.820504
0.718666
0.648871
0.590904
0.548857
0.503138
0.456013
0.404799
0.356008
0.30654
0.260196
0.212608
0.170482
0.123143
0.089377
0.0364123
1.00218
1.00153
1.00169
1.00175
1.00186
1.00199
1.00215
1.00232
1.00251
1.00273
1.00295
1.00322
1.00347
1.00371
1.00404
1.00436
1.00457
1.00487
1.00528
1.0056
1.0058
1.00607
1.00646
1.00681
1.00705
1.00722
1.00739
1.00763
1.00788
1.00807
1.00819
1.00828
1.00834
1.00837
1.00841
1.00845
1.00848
1.00851
1.00854
1.00853
1.00853
1.00852
1.00832
1.00831
1.00741
1.00798
1.00549
1.01075
1.00533
1.01296
1.05001
1.09372
1.14361
1.18053
1.20991
1.23234
1.25151
1.26833
1.28064
1.29199
1.29991
1.30774
1.31244
1.31668
1.31911
1.32039
1.32223
1.32231
1.32348
1.32414
1.32514
1.32593
1.32699
1.32828
1.32959
1.33094
1.33241
1.33352
1.33473
1.33613
1.33731
1.33829
1.3397
1.34135
1.34364
1.34496
1.34656
1.34864
1.35075
1.35203
1.35263
1.35314
1.35317
1.35276
1.3518
1.34628
1.33661
1.31555
1.27391
1.20668
1.08697
0.925682
0.783237
0.686763
0.61871
0.567968
0.52987
0.498277
0.460051
0.422288
0.377017
0.334249
0.289405
0.247206
0.203776
0.165364
0.122825
0.0921121
0.0444794
1.00217
1.00152
1.00168
1.00175
1.00186
1.00199
1.00215
1.00231
1.00251
1.00273
1.00294
1.00321
1.00346
1.0037
1.00404
1.00435
1.00456
1.00487
1.00528
1.0056
1.0058
1.00607
1.00647
1.00683
1.00708
1.00725
1.00742
1.00765
1.00796
1.00819
1.00837
1.00851
1.00863
1.00873
1.00885
1.009
1.00922
1.00951
1.0099
1.01038
1.01096
1.0117
1.01255
1.0141
1.01492
1.02062
1.0189
1.04815
1.07498
1.08044
1.14078
1.17767
1.21632
1.24512
1.26787
1.28553
1.29893
1.30956
1.31718
1.32646
1.33302
1.33629
1.34077
1.34038
1.34301
1.3409
1.34163
1.34128
1.34133
1.34141
1.34165
1.34219
1.34287
1.34367
1.34458
1.34545
1.34657
1.34717
1.34782
1.34856
1.34941
1.34982
1.3506
1.35162
1.35264
1.35337
1.3535
1.35357
1.35411
1.35425
1.3538
1.35358
1.3517
1.34624
1.34024
1.32299
1.29241
1.24627
1.15848
1.03266
0.875377
0.745273
0.65408
0.591902
0.547247
0.510182
0.484747
0.456828
0.427023
0.394563
0.354824
0.317061
0.276341
0.23789
0.19822
0.163077
0.124781
0.0964776
0.0531759
1.00216
1.00152
1.00168
1.00175
1.00186
1.00199
1.00214
1.00231
1.00251
1.00272
1.00294
1.00321
1.00345
1.00371
1.00403
1.00432
1.00457
1.0049
1.00527
1.00555
1.00581
1.00612
1.00647
1.00683
1.00711
1.00732
1.00747
1.0077
1.00802
1.00832
1.00855
1.00875
1.00894
1.00913
1.00933
1.0096
1.01003
1.01054
1.0112
1.01219
1.01333
1.01476
1.01669
1.0196
1.02262
1.02937
1.03325
1.07072
1.16107
1.19022
1.25854
1.26983
1.28407
1.29184
1.30691
1.32108
1.33236
1.34265
1.34872
1.3553
1.36039
1.35723
1.36158
1.35793
1.36006
1.35841
1.35701
1.3566
1.35528
1.35472
1.35471
1.35516
1.3554
1.35556
1.35592
1.35618
1.35668
1.35697
1.35707
1.35728
1.3576
1.35755
1.35753
1.35771
1.35754
1.35706
1.35677
1.35568
1.35473
1.35381
1.35029
1.34591
1.33795
1.32071
1.29938
1.26269
1.19554
1.10202
0.963331
0.811871
0.698844
0.619429
0.563946
0.524294
0.492145
0.469527
0.448377
0.425196
0.399859
0.370644
0.335613
0.301699
0.26473
0.229698
0.193624
0.161284
0.126843
0.100961
0.0624297
1.00216
1.00152
1.00168
1.00174
1.00185
1.00199
1.00213
1.00231
1.00251
1.0027
1.00294
1.0032
1.00344
1.00372
1.00401
1.00429
1.00458
1.00491
1.00522
1.00553
1.00585
1.00616
1.00646
1.00682
1.00714
1.00739
1.00754
1.00775
1.00808
1.00844
1.00875
1.00899
1.00924
1.0095
1.00979
1.01018
1.01074
1.01144
1.01227
1.01328
1.01448
1.0159
1.01767
1.01974
1.02173
1.02428
1.02806
1.05492
1.17755
1.29441
1.35573
1.35469
1.3494
1.34405
1.34529
1.35017
1.3579
1.36739
1.37487
1.37656
1.37999
1.37367
1.3773
1.37375
1.37394
1.37394
1.36994
1.36872
1.36729
1.36638
1.36587
1.36557
1.36534
1.3649
1.36448
1.36422
1.36407
1.36373
1.36318
1.36248
1.36186
1.36135
1.36042
1.36016
1.35951
1.35824
1.35657
1.35383
1.34867
1.34417
1.33377
1.31712
1.29829
1.26287
1.20801
1.13517
1.0133
0.868975
0.741938
0.647351
0.580136
0.533299
0.499831
0.473447
0.452747
0.438257
0.419072
0.401482
0.378245
0.352685
0.321162
0.290456
0.256648
0.224572
0.191722
0.161841
0.130761
0.107056
0.0724265
1.00215
1.00151
1.00167
1.00174
1.00185
1.00198
1.00212
1.0023
1.0025
1.00269
1.00294
1.00318
1.00343
1.00371
1.00398
1.00427
1.0046
1.0049
1.00517
1.00553
1.00588
1.00616
1.00645
1.00682
1.00715
1.00739
1.00759
1.00784
1.00816
1.00855
1.00891
1.00924
1.00954
1.00985
1.01026
1.0108
1.01145
1.01214
1.01314
1.01441
1.01571
1.01728
1.01913
1.02156
1.02482
1.02923
1.04223
1.05768
1.17186
1.33062
1.3561
1.36947
1.36497
1.3635
1.36396
1.36715
1.37514
1.37968
1.38817
1.38698
1.38766
1.38861
1.38589
1.38684
1.38205
1.3808
1.37859
1.37627
1.37498
1.37363
1.37276
1.37201
1.37162
1.37094
1.37027
1.36942
1.36873
1.36782
1.36666
1.36525
1.36389
1.36264
1.36049
1.35879
1.35592
1.35142
1.34613
1.33903
1.3259
1.31264
1.29013
1.2526
1.2071
1.13752
1.02869
0.908458
0.774085
0.671941
0.595587
0.538569
0.499909
0.472336
0.452665
0.43594
0.42444
0.411654
0.396562
0.380602
0.359271
0.335733
0.307508
0.27953
0.248751
0.219569
0.190126
0.162852
0.134886
0.113374
0.0828618
1.00214
1.00151
1.00167
1.00173
1.00184
1.00197
1.00212
1.0023
1.00249
1.00269
1.00293
1.00315
1.00342
1.00372
1.00395
1.00425
1.00461
1.00488
1.00516
1.00553
1.00588
1.00616
1.00648
1.00682
1.00713
1.0074
1.00767
1.00796
1.00828
1.00862
1.00901
1.00941
1.00977
1.01018
1.01069
1.01131
1.01197
1.01259
1.01321
1.01404
1.01519
1.01647
1.01768
1.01908
1.02003
1.02267
1.0252
1.08413
1.16091
1.21417
1.26877
1.32382
1.34509
1.36064
1.36748
1.3723
1.38023
1.38552
1.39268
1.38954
1.3917
1.39287
1.39098
1.3904
1.38571
1.38329
1.38161
1.3795
1.37828
1.37654
1.37525
1.37428
1.37366
1.37284
1.37204
1.37081
1.36987
1.36838
1.36617
1.36382
1.36048
1.35748
1.3529
1.34692
1.34066
1.33017
1.31492
1.29928
1.27174
1.23407
1.18761
1.11266
1.02096
0.91079
0.779513
0.682522
0.604681
0.541692
0.499068
0.468271
0.445901
0.430751
0.417921
0.409281
0.400795
0.391078
0.378931
0.364801
0.345611
0.323513
0.297743
0.271842
0.243601
0.216892
0.190463
0.165809
0.140535
0.120951
0.0938438
1.00213
1.0015
1.00166
1.00172
1.00183
1.00196
1.00211
1.00229
1.00247
1.00268
1.00292
1.00313
1.00341
1.0037
1.00394
1.00425
1.00459
1.00487
1.00518
1.00552
1.00585
1.00617
1.00649
1.0068
1.0071
1.00744
1.00777
1.00811
1.00841
1.0087
1.00907
1.00951
1.00993
1.01042
1.01097
1.01153
1.01204
1.01262
1.01326
1.01389
1.01464
1.01538
1.0162
1.01709
1.0178
1.01959
1.02533
1.08223
1.13266
1.14308
1.19811
1.26943
1.33042
1.35591
1.37074
1.37386
1.38031
1.38605
1.38915
1.39046
1.39168
1.39282
1.38915
1.38781
1.38346
1.382
1.37979
1.37806
1.37663
1.37495
1.37392
1.37296
1.37189
1.37065
1.36921
1.36702
1.3647
1.36206
1.35774
1.35297
1.34541
1.33842
1.32785
1.31187
1.29723
1.27407
1.23868
1.19999
1.14626
1.06792
0.984418
0.872838
0.762894
0.674977
0.600987
0.538395
0.495451
0.46225
0.438151
0.421717
0.410276
0.401139
0.394223
0.389261
0.382116
0.374737
0.363624
0.351025
0.333158
0.312959
0.289648
0.265842
0.239958
0.215476
0.191611
0.169334
0.146663
0.12914
0.105311
1.00212
1.00149
1.00165
1.00172
1.00182
1.00195
1.0021
1.00228
1.00245
1.00267
1.0029
1.00313
1.0034
1.00367
1.00394
1.00424
1.00455
1.00486
1.00518
1.00548
1.00581
1.00618
1.00651
1.00677
1.00707
1.00743
1.00785
1.00823
1.00853
1.00879
1.00911
1.00952
1.01004
1.01059
1.01111
1.01159
1.01208
1.01258
1.01306
1.01351
1.014
1.01452
1.01526
1.01605
1.01783
1.02002
1.04525
1.09671
1.12383
1.12909
1.15388
1.19574
1.26927
1.31284
1.34353
1.35525
1.36887
1.37592
1.37972
1.38426
1.38375
1.38554
1.38026
1.37895
1.37561
1.37515
1.37285
1.3714
1.36943
1.36761
1.36675
1.36496
1.36269
1.36041
1.35763
1.35317
1.3471
1.34157
1.33154
1.32076
1.30507
1.28571
1.26473
1.23168
1.19214
1.14647
1.0797
1.00354
0.917738
0.813092
0.725578
0.649812
0.584485
0.528338
0.486082
0.453905
0.429483
0.412463
0.400356
0.392022
0.385693
0.380561
0.377596
0.373252
0.368415
0.361764
0.351821
0.339574
0.322958
0.304087
0.28287
0.261123
0.237624
0.215385
0.19388
0.173792
0.153401
0.137574
0.11669
1.00211
1.00149
1.00164
1.00171
1.00181
1.00194
1.00209
1.00226
1.00244
1.00266
1.00288
1.00312
1.00338
1.00364
1.00393
1.00422
1.0045
1.00486
1.00519
1.00543
1.00576
1.00619
1.00655
1.00678
1.00704
1.00742
1.00791
1.00829
1.00859
1.00884
1.00912
1.00953
1.0101
1.01067
1.01114
1.01157
1.01199
1.01241
1.01275
1.01302
1.01324
1.01336
1.01319
1.01229
1.01214
1.00773
1.04572
1.09888
1.098
1.10338
1.11474
1.13512
1.18169
1.23456
1.29566
1.32445
1.35037
1.35403
1.36594
1.37208
1.37234
1.37339
1.36994
1.36743
1.36588
1.36391
1.36073
1.35989
1.35706
1.35393
1.35111
1.34741
1.34224
1.33601
1.32944
1.31963
1.30448
1.29088
1.26993
1.24422
1.21224
1.16801
1.12415
1.06364
0.988869
0.914109
0.82303
0.741544
0.670321
0.609924
0.558199
0.508943
0.473132
0.443796
0.420483
0.403212
0.391007
0.382409
0.376483
0.372779
0.369353
0.367503
0.364972
0.362039
0.357772
0.351684
0.342556
0.331158
0.315633
0.298042
0.278594
0.258611
0.237183
0.216851
0.197351
0.179283
0.161113
0.147181
0.128926
1.00209
1.00148
1.00163
1.0017
1.0018
1.00193
1.00208
1.00224
1.00243
1.00265
1.00285
1.0031
1.00335
1.00362
1.00393
1.00418
1.00448
1.00486
1.00516
1.00541
1.00578
1.00619
1.00652
1.00677
1.00707
1.0075
1.00792
1.00829
1.00856
1.00887
1.00922
1.0097
1.01018
1.01068
1.01111
1.01149
1.01185
1.01221
1.01251
1.01282
1.01313
1.01337
1.01355
1.01371
1.01404
1.01638
1.05027
1.08104
1.08005
1.08472
1.09068
1.10442
1.12471
1.16177
1.22208
1.27701
1.3158
1.33586
1.35192
1.35732
1.36044
1.3596
1.35758
1.35302
1.35129
1.34775
1.34298
1.33893
1.33472
1.32849
1.32023
1.31234
1.29998
1.28547
1.26797
1.24695
1.21598
1.18075
1.13974
1.08688
1.02897
0.955228
0.879985
0.806944
0.731037
0.668962
0.615812
0.566856
0.526071
0.484006
0.458064
0.432246
0.411337
0.396038
0.384019
0.375056
0.368739
0.364658
0.362288
0.36033
0.359194
0.358235
0.356454
0.354217
0.350195
0.344219
0.335122
0.323574
0.308809
0.292563
0.274848
0.25672
0.237477
0.219053
0.201478
0.185362
0.169243
0.156845
0.140955
1.00208
1.00147
1.00162
1.00169
1.00179
1.00192
1.00207
1.00222
1.00242
1.00262
1.00284
1.00309
1.00332
1.00361
1.0039
1.00416
1.00449
1.00482
1.00511
1.00542
1.00578
1.00614
1.00645
1.00677
1.00713
1.00752
1.0079
1.00823
1.00859
1.00892
1.00936
1.00978
1.01018
1.01057
1.01098
1.01135
1.01168
1.012
1.01234
1.0127
1.01307
1.01351
1.01409
1.0156
1.018
1.03035
1.06621
1.08069
1.08043
1.08527
1.08732
1.09656
1.10558
1.12687
1.15767
1.21738
1.27372
1.31767
1.3282
1.33767
1.33976
1.33914
1.33701
1.3312
1.32539
1.32194
1.31308
1.30231
1.29252
1.27884
1.25938
1.24043
1.21463
1.18024
1.14171
1.09832
1.04303
0.977905
0.912246
0.838609
0.774134
0.709632
0.65473
0.609116
0.566131
0.527487
0.4917
0.463703
0.443427
0.419705
0.403214
0.389717
0.378991
0.370725
0.364101
0.359634
0.356526
0.354948
0.353928
0.353449
0.353227
0.352301
0.351056
0.348706
0.344917
0.339013
0.330201
0.319
0.305089
0.289882
0.273543
0.257014
0.239748
0.223253
0.207377
0.192838
0.178297
0.167289
0.153548
1.00206
1.00146
1.00161
1.00167
1.00178
1.0019
1.00205
1.00221
1.0024
1.00259
1.00282
1.00306
1.00331
1.00358
1.00385
1.00414
1.00446
1.00475
1.00505
1.0054
1.00575
1.00605
1.00638
1.00675
1.00716
1.00752
1.00783
1.00819
1.00857
1.00902
1.00944
1.00981
1.01014
1.01045
1.01077
1.01113
1.01146
1.01178
1.01203
1.01223
1.01231
1.01244
1.01204
1.01295
1.01102
1.03486
1.07062
1.07241
1.07268
1.07685
1.0797
1.08675
1.09284
1.10443
1.11986
1.15348
1.20081
1.26392
1.2861
1.30774
1.30812
1.30792
1.30567
1.29765
1.28455
1.27331
1.25724
1.23572
1.2106
1.18366
1.14441
1.10119
1.05515
0.993994
0.927861
0.859245
0.797255
0.734703
0.683731
0.636629
0.596765
0.559934
0.52526
0.495344
0.469698
0.449871
0.429901
0.41152
0.39955
0.38631
0.376583
0.368996
0.362566
0.358277
0.354829
0.352502
0.351045
0.350209
0.349838
0.349929
0.349788
0.34917
0.347977
0.345387
0.34132
0.335117
0.326515
0.315834
0.302759
0.288583
0.27341
0.258203
0.242669
0.227815
0.213495
0.200567
0.18772
0.178186
0.166383
1.00205
1.00145
1.0016
1.00166
1.00177
1.00189
1.00203
1.00219
1.00238
1.00257
1.0028
1.00302
1.00328
1.00355
1.00379
1.00412
1.00444
1.00467
1.00499
1.0054
1.00576
1.00599
1.00631
1.00676
1.0072
1.00754
1.00779
1.00811
1.00855
1.00906
1.00948
1.00983
1.01013
1.01037
1.01063
1.01093
1.01128
1.01155
1.01166
1.01165
1.01152
1.01124
1.01038
1.00968
1.00722
1.02358
1.0518
1.04948
1.05373
1.05668
1.06234
1.06763
1.07362
1.08107
1.09255
1.10755
1.14071
1.18637
1.23609
1.26389
1.26535
1.26146
1.2538
1.23965
1.21104
1.18249
1.15099
1.10873
1.05813
1.00939
0.94681
0.875943
0.816841
0.757568
0.704116
0.658647
0.61798
0.582037
0.550832
0.520873
0.49589
0.474292
0.456258
0.439032
0.422544
0.409594
0.398453
0.387319
0.378981
0.371118
0.36442
0.3599
0.355731
0.353035
0.350944
0.349832
0.349282
0.348949
0.348861
0.348771
0.348476
0.34778
0.346304
0.343591
0.339434
0.333176
0.324747
0.314368
0.302022
0.288741
0.274727
0.260944
0.247284
0.234183
0.221361
0.209707
0.197973
0.189391
0.17914
1.00203
1.00144
1.00159
1.00165
1.00175
1.00187
1.002
1.00217
1.00235
1.00254
1.00277
1.003
1.00326
1.00349
1.00377
1.0041
1.00437
1.00461
1.00499
1.00539
1.00569
1.00595
1.00631
1.00677
1.00718
1.00747
1.00777
1.00813
1.00861
1.00909
1.00949
1.00979
1.01005
1.01031
1.01059
1.01094
1.01127
1.01152
1.01175
1.01195
1.01213
1.01245
1.01288
1.01386
1.01855
1.03778
1.05645
1.05253
1.05444
1.05447
1.05661
1.05915
1.06406
1.06949
1.07712
1.08897
1.10543
1.12497
1.17715
1.19198
1.19745
1.18219
1.1505
1.12172
1.07499
1.02122
0.966392
0.90463
0.83645
0.782194
0.730215
0.682447
0.640042
0.60554
0.572752
0.543444
0.518541
0.494778
0.478548
0.461987
0.446861
0.433757
0.421165
0.411269
0.400856
0.392467
0.384685
0.377778
0.371336
0.365739
0.360731
0.357224
0.354512
0.35291
0.351641
0.350859
0.350029
0.349457
0.34919
0.34888
0.348437
0.347645
0.346029
0.343305
0.33925
0.33328
0.325315
0.315331
0.303749
0.29142
0.278478
0.265759
0.253404
0.241334
0.229561
0.218891
0.208234
0.200828
0.192188
1.00201
1.00142
1.00157
1.00163
1.00173
1.00185
1.00198
1.00215
1.00232
1.00252
1.00273
1.00297
1.00322
1.00344
1.00375
1.00406
1.0043
1.00459
1.00496
1.00531
1.0056
1.00593
1.00632
1.00672
1.00706
1.0074
1.00774
1.00818
1.00863
1.00904
1.0094
1.0097
1.01001
1.0103
1.01064
1.01096
1.01124
1.01149
1.01176
1.01201
1.01241
1.01285
1.01395
1.01447
1.02694
1.04966
1.05908
1.05575
1.05605
1.05541
1.0559
1.05599
1.05739
1.05889
1.06265
1.06258
1.0676
1.06966
1.08461
1.08327
1.07501
1.03319
0.98272
0.925089
0.86709
0.80971
0.758623
0.712923
0.668937
0.63144
0.599174
0.570242
0.542975
0.518926
0.50102
0.484084
0.469482
0.455836
0.44281
0.433904
0.423544
0.416074
0.407779
0.400545
0.393267
0.38698
0.380941
0.37577
0.370979
0.36677
0.362854
0.359974
0.357546
0.35585
0.354288
0.35335
0.35211
0.351242
0.350526
0.349972
0.349286
0.348338
0.346747
0.344245
0.340425
0.334868
0.327507
0.317893
0.306971
0.295119
0.282677
0.270751
0.259572
0.2488
0.238415
0.228925
0.219262
0.212715
0.205293
1.00199
1.00141
1.00156
1.00161
1.00171
1.00183
1.00196
1.00212
1.00229
1.00249
1.00269
1.00293
1.00316
1.00341
1.00371
1.00397
1.00422
1.00456
1.00492
1.00519
1.0055
1.0059
1.00631
1.00666
1.00695
1.00729
1.00772
1.00817
1.00858
1.00894
1.00929
1.00964
1.01
1.01037
1.01071
1.01103
1.01129
1.01154
1.01183
1.0121
1.01243
1.01241
1.01319
1.01217
1.02957
1.05307
1.05082
1.05032
1.05027
1.0501
1.05043
1.05005
1.049
1.0495
1.0495
1.04127
1.03145
1.01453
0.9853
0.949446
0.892205
0.838056
0.78846
0.743735
0.703804
0.666016
0.633294
0.603946
0.57596
0.550691
0.528818
0.512251
0.496785
0.481869
0.468593
0.458418
0.447802
0.439815
0.430561
0.423706
0.416171
0.410106
0.404813
0.399817
0.394733
0.389994
0.385426
0.38118
0.377022
0.373182
0.369364
0.366232
0.363509
0.361563
0.359405
0.357943
0.356187
0.354781
0.353398
0.352348
0.35128
0.350054
0.348273
0.34564
0.341785
0.336234
0.329048
0.319982
0.310057
0.298979
0.287709
0.277169
0.267372
0.257841
0.248503
0.23947
0.230373
0.224633
0.218405
1.00197
1.0014
1.00154
1.0016
1.00169
1.0018
1.00194
1.00209
1.00226
1.00245
1.00266
1.00289
1.0031
1.00337
1.00366
1.00387
1.00416
1.00453
1.00484
1.00509
1.00543
1.00588
1.0063
1.00656
1.00685
1.00723
1.00773
1.00818
1.00855
1.00884
1.00918
1.00957
1.01003
1.01044
1.01077
1.01104
1.01129
1.01152
1.01172
1.01185
1.01192
1.01161
1.01167
1.00996
1.02185
1.04381
1.03929
1.04143
1.0418
1.04282
1.0434
1.04319
1.04113
1.04113
1.03401
1.01717
0.974922
0.927567
0.854116
0.782297
0.736207
0.697241
0.665095
0.636534
0.611036
0.587568
0.565459
0.548199
0.531474
0.516796
0.501561
0.488195
0.477579
0.467119
0.457312
0.449811
0.442105
0.436751
0.430507
0.425594
0.42053
0.415661
0.411603
0.407369
0.403353
0.399079
0.395084
0.391143
0.387061
0.383215
0.379384
0.375797
0.372601
0.370066
0.367018
0.364762
0.362632
0.36047
0.358377
0.356616
0.355
0.353296
0.35119
0.348377
0.344553
0.339323
0.332713
0.324542
0.315488
0.305189
0.294762
0.284771
0.275609
0.266595
0.258073
0.249811
0.241907
0.237062
0.231864
1.00195
1.00138
1.00152
1.00157
1.00167
1.00178
1.00191
1.00205
1.00223
1.0024
1.00262
1.00283
1.00305
1.00333
1.00357
1.00379
1.00414
1.00449
1.00473
1.005
1.00541
1.00583
1.00617
1.00646
1.00679
1.00724
1.00769
1.00811
1.00842
1.00876
1.00913
1.0096
1.01007
1.01046
1.01079
1.01107
1.0114
1.01176
1.01223
1.01286
1.01394
1.01561
1.01782
1.02536
1.04031
1.04873
1.04474
1.04507
1.04403
1.04365
1.04223
1.04071
1.03325
1.02597
1.0045
0.97333
0.89448
0.804473
0.727702
0.681698
0.645675
0.62009
0.597368
0.57961
0.564192
0.551199
0.538221
0.52614
0.515316
0.505234
0.495619
0.485752
0.477091
0.470274
0.462623
0.457158
0.450821
0.445774
0.440837
0.436023
0.431994
0.427323
0.423596
0.419453
0.415848
0.411751
0.408086
0.404452
0.400346
0.396176
0.392077
0.387923
0.384263
0.38117
0.37729
0.374242
0.371229
0.368202
0.365385
0.362714
0.360346
0.358036
0.355448
0.352248
0.348181
0.342966
0.336665
0.329092
0.32064
0.311139
0.301462
0.292491
0.284236
0.276311
0.268714
0.261378
0.25419
0.24973
0.245182
1.00193
1.00136
1.0015
1.00155
1.00164
1.00175
1.00188
1.00202
1.00219
1.00237
1.00258
1.00276
1.00301
1.00328
1.00348
1.00374
1.00408
1.00436
1.00462
1.00495
1.00534
1.00571
1.00601
1.00634
1.00676
1.0072
1.0076
1.00794
1.00829
1.00867
1.00916
1.00962
1.01004
1.0104
1.01072
1.01104
1.01135
1.01167
1.01196
1.01226
1.012
1.01271
1.01029
1.02698
1.04876
1.04683
1.04582
1.04562
1.04492
1.04413
1.04005
1.03704
1.02442
0.99878
0.95626
0.885879
0.788158
0.715832
0.664445
0.630336
0.605171
0.586318
0.570968
0.557977
0.547258
0.538435
0.530611
0.523178
0.516295
0.509927
0.503586
0.497432
0.490504
0.484999
0.478238
0.472543
0.466724
0.461138
0.456529
0.451349
0.447439
0.442827
0.439077
0.43499
0.431213
0.427315
0.423317
0.420028
0.415991
0.411613
0.407442
0.402619
0.398263
0.394334
0.389676
0.385754
0.381837
0.37801
0.374326
0.370765
0.367523
0.364356
0.361095
0.35738
0.353057
0.347966
0.342083
0.335192
0.327504
0.31905
0.310388
0.301928
0.294159
0.286407
0.279213
0.272352
0.266324
0.262235
0.258604
1.0019
1.00134
1.00148
1.00153
1.00161
1.00172
1.00184
1.00199
1.00214
1.00232
1.00251
1.00271
1.00295
1.00318
1.00339
1.00369
1.00399
1.00422
1.0045
1.00488
1.00524
1.00554
1.00585
1.00623
1.0067
1.00713
1.00745
1.00778
1.00816
1.00866
1.00917
1.00963
1.00998
1.01032
1.01067
1.01101
1.0113
1.01152
1.01162
1.01149
1.01098
1.01056
1.00745
1.01742
1.03956
1.03548
1.03738
1.03721
1.03812
1.03616
1.03009
1.01935
1.00084
0.948126
0.877877
0.784318
0.714062
0.66569
0.632843
0.609291
0.592222
0.578738
0.567902
0.559034
0.551686
0.545403
0.540088
0.535296
0.53047
0.52599
0.521122
0.516561
0.510597
0.505426
0.499448
0.493025
0.487271
0.480937
0.475845
0.470428
0.465581
0.460816
0.456501
0.45226
0.447967
0.444115
0.439598
0.436255
0.432406
0.427757
0.423387
0.418011
0.413122
0.408436
0.403222
0.398533
0.393757
0.389028
0.384519
0.380185
0.376111
0.372091
0.368101
0.363761
0.359012
0.35371
0.347812
0.34132
0.334196
0.326598
0.318566
0.310716
0.303629
0.296638
0.290214
0.284397
0.279375
0.275227
0.272277
1.00188
1.00132
1.00145
1.0015
1.00159
1.00168
1.00181
1.00194
1.00209
1.00228
1.00244
1.00265
1.00289
1.00307
1.00332
1.00362
1.00386
1.00408
1.00442
1.0048
1.00512
1.00537
1.00571
1.00618
1.00664
1.007
1.00728
1.00764
1.00811
1.00866
1.00915
1.00954
1.00991
1.01029
1.01066
1.01108
1.01152
1.012
1.01251
1.01334
1.01481
1.01679
1.02498
1.0399
1.05024
1.04363
1.04308
1.04079
1.03817
1.03552
1.02123
0.99221
0.953412
0.87061
0.784418
0.719713
0.673854
0.64303
0.620123
0.604619
0.592763
0.583735
0.576282
0.570352
0.565161
0.560872
0.556752
0.553102
0.549282
0.545669
0.54148
0.537491
0.532503
0.527304
0.522002
0.51541
0.50946
0.502707
0.496661
0.490703
0.484712
0.478892
0.473882
0.469112
0.46413
0.460293
0.455536
0.451946
0.448241
0.443561
0.439343
0.433769
0.42835
0.422972
0.417112
0.411699
0.406245
0.40092
0.395766
0.390647
0.385667
0.380761
0.375914
0.370907
0.365755
0.360363
0.35474
0.34886
0.342439
0.335732
0.32856
0.321367
0.3149
0.308343
0.302054
0.296464
0.292041
0.287908
0.286017
1.00185
1.0013
1.00143
1.00147
1.00155
1.00165
1.00177
1.00189
1.00204
1.00221
1.00238
1.00259
1.00279
1.00298
1.00325
1.00353
1.00372
1.00398
1.00433
1.00468
1.00493
1.00521
1.00563
1.00608
1.00647
1.00679
1.00714
1.00757
1.00809
1.00858
1.009
1.00941
1.00984
1.01025
1.01074
1.01117
1.01155
1.01188
1.0122
1.0121
1.01308
1.01095
1.02754
1.04615
1.0458
1.04388
1.04367
1.04089
1.0319
1.01979
0.999933
0.939637
0.864707
0.779882
0.722209
0.681228
0.654012
0.633532
0.619021
0.608066
0.599979
0.593472
0.588111
0.583691
0.579744
0.576286
0.572833
0.569691
0.566443
0.563367
0.559826
0.55621
0.552099
0.547393
0.542742
0.536516
0.530205
0.523315
0.516453
0.510152
0.503862
0.497527
0.491735
0.486674
0.481052
0.476759
0.471652
0.467474
0.46353
0.458665
0.454319
0.448804
0.443067
0.437554
0.431306
0.425456
0.419389
0.413467
0.407652
0.401923
0.396332
0.390764
0.385278
0.379743
0.374139
0.368433
0.362615
0.356675
0.350572
0.344439
0.337819
0.331072
0.325154
0.319171
0.31385
0.308898
0.30541
0.301404
0.300284
1.00182
1.00128
1.0014
1.00144
1.00152
1.00161
1.00172
1.00184
1.00199
1.00214
1.00231
1.00251
1.00268
1.0029
1.00316
1.00338
1.00359
1.00388
1.0042
1.00448
1.00474
1.00508
1.00549
1.00589
1.00621
1.00658
1.00701
1.00752
1.00801
1.00843
1.00881
1.00924
1.00973
1.01029
1.01075
1.01107
1.0113
1.01132
1.01117
1.01064
1.01033
1.00711
1.01614
1.03823
1.03314
1.03411
1.03202
1.02927
1.01262
0.980293
0.935953
0.851715
0.776221
0.722837
0.687515
0.661988
0.644285
0.631132
0.621512
0.614137
0.608419
0.603838
0.599906
0.596523
0.593405
0.590502
0.587588
0.584706
0.581819
0.57893
0.576142
0.572897
0.569434
0.565283
0.561415
0.556351
0.550544
0.543936
0.536769
0.529841
0.52313
0.516098
0.509314
0.503304
0.497323
0.492277
0.486907
0.48215
0.478215
0.473323
0.468877
0.463626
0.457679
0.451899
0.44532
0.439165
0.43262
0.426172
0.419799
0.413538
0.407222
0.401006
0.394885
0.388895
0.382896
0.376916
0.371013
0.365288
0.359859
0.354522
0.348639
0.34252
0.337154
0.331704
0.326963
0.321852
0.31882
0.314589
0.314392
1.00178
1.00125
1.00137
1.00141
1.00148
1.00157
1.00167
1.00179
1.00193
1.00207
1.00224
1.00241
1.00259
1.00281
1.00303
1.00322
1.00347
1.00375
1.00402
1.00426
1.00456
1.00493
1.00531
1.00561
1.00594
1.00637
1.00691
1.00745
1.00786
1.00821
1.00862
1.00914
1.00976
1.01034
1.01085
1.01136
1.01182
1.01241
1.01345
1.01507
1.01748
1.02666
1.04014
1.05107
1.04352
1.04077
1.03321
1.01717
0.993757
0.926429
0.847711
0.775414
0.726548
0.693325
0.670355
0.654109
0.642045
0.633163
0.626425
0.621266
0.617156
0.61377
0.610869
0.608262
0.605878
0.603522
0.601265
0.598867
0.596541
0.593793
0.591431
0.58874
0.58582
0.581817
0.578536
0.574071
0.569095
0.562891
0.555759
0.548205
0.541354
0.53439
0.527505
0.520922