/*--------------------------------*- C++ -*----------------------------------*\
| =========                 |                                                 |
| \\      /  F ield         | OpenFOAM: The Open Source CFD Toolbox           |
|  \\    /   O peration     | Version:  2.2.x                                 |
|   \\  /    A nd           | Web:      www.OpenFOAM.org                      |
|    \\/     M anipulation  |                                                 |
\*---------------------------------------------------------------------------*/
FoamFile
{
    version     2.0;
    format      ascii;
    class       volScalarField;
    location    "1.65";
    object      Bz;
}
// * * * * * * * * * * * * * * * * * * * * * * * * * * * * * * * * * * * * * //

dimensions      [1 0 -2 0 0 -1 0];

internalField   nonuniform List<scalar> 
14161
(
2.46798e-19
2.46906e-19
2.47103e-19
2.46232e-19
2.46671e-19
2.4601e-19
2.47241e-19
2.46915e-19
2.48321e-19
2.47499e-19
2.48425e-19
2.47986e-19
2.48615e-19
2.49127e-19
2.49522e-19
2.5033e-19
2.50828e-19
2.51678e-19
2.52456e-19
2.52868e-19
2.54404e-19
2.54277e-19
2.54996e-19
2.55439e-19
2.55315e-19
2.56596e-19
2.56781e-19
2.56598e-19
2.57467e-19
2.58394e-19
2.59124e-19
2.59523e-19
2.5972e-19
2.59121e-19
2.60726e-19
2.55893e-19
2.67232e-19
2.37925e-19
3.0507e-19
1.70433e-19
4.18538e-19
2.92166e-20
5.22251e-19
-2.07445e-19
9.08024e-19
-1.06645e-18
2.20948e-18
1.58795e-17
1.65719e-17
1.28977e-17
7.266e-18
4.38082e-18
1.43075e-18
6.14421e-19
-2.69218e-19
2.91674e-20
6.49618e-20
4.01327e-20
1.71137e-20
1.67194e-20
1.44285e-19
1.2395e-19
-1.43756e-19
-1.25416e-19
2.93037e-19
4.02397e-19
-2.40273e-19
-4.45542e-19
3.05673e-19
6.88298e-19
-1.33976e-19
-5.24454e-19
2.38855e-19
6.62619e-19
3.86642e-19
8.66199e-20
1.93109e-19
3.68703e-19
5.3834e-19
6.38047e-19
4.86453e-19
6.05741e-19
8.26639e-19
1.01876e-18
1.06587e-18
1.09006e-18
1.11872e-18
1.80826e-18
2.05841e-18
2.5413e-18
2.43536e-18
2.65237e-18
3.28607e-18
3.31453e-18
3.64926e-18
4.60789e-18
4.63855e-18
5.36022e-18
6.16455e-18
6.96122e-18
7.44255e-18
8.25061e-18
8.74489e-18
9.28106e-18
8.94209e-18
8.26566e-18
4.65496e-18
1.89262e-18
7.24823e-19
8.38654e-19
2.34313e-19
7.76085e-19
4.23252e-21
1.13828e-18
3.11999e-19
2.79805e-18
2.5773e-18
1.22406e-17
1.31934e-17
2.47161e-19
2.47191e-19
2.47327e-19
2.47187e-19
2.4726e-19
2.46554e-19
2.48068e-19
2.47597e-19
2.49066e-19
2.4818e-19
2.4906e-19
2.48638e-19
2.49592e-19
2.50157e-19
2.51461e-19
2.52139e-19
2.53745e-19
2.52912e-19
2.54518e-19
2.5501e-19
2.55371e-19
2.55797e-19
2.5662e-19
2.57507e-19
2.58153e-19
2.58152e-19
2.57629e-19
2.58593e-19
2.59393e-19
2.60074e-19
2.60211e-19
2.60567e-19
2.60585e-19
2.60213e-19
2.60935e-19
2.59277e-19
2.63698e-19
2.55698e-19
2.71678e-19
2.43353e-19
2.91873e-19
2.08303e-19
3.32363e-19
1.49506e-19
4.37828e-19
-5.12674e-19
3.10498e-18
1.45754e-17
1.54134e-17
1.18059e-17
6.15078e-18
2.53108e-18
6.42453e-19
3.72813e-19
9.66831e-21
7.87635e-20
1.03793e-19
1.02377e-19
5.53818e-20
2.03728e-20
1.21995e-19
1.69013e-19
-5.53455e-20
-1.21276e-19
2.15028e-19
4.15491e-19
-1.32724e-19
-3.93699e-19
2.45446e-19
5.75964e-19
-2.01747e-20
-3.99243e-19
1.18484e-19
6.65916e-19
4.26926e-19
6.38504e-20
1.89616e-19
3.75221e-19
5.27047e-19
5.9838e-19
5.24536e-19
5.7114e-19
8.0738e-19
9.89491e-19
1.0543e-18
1.06782e-18
1.1369e-18
1.71029e-18
2.06656e-18
2.47297e-18
2.46247e-18
2.63895e-18
3.271e-18
3.3539e-18
3.67602e-18
4.55744e-18
4.63864e-18
5.45788e-18
6.10403e-18
7.00857e-18
7.4988e-18
8.30747e-18
8.71099e-18
9.3531e-18
8.75336e-18
7.40132e-18
3.84481e-18
1.79446e-18
7.08077e-19
9.09649e-19
3.68271e-19
9.27961e-19
1.97782e-19
1.40618e-18
6.78595e-19
3.51738e-18
3.6473e-18
1.05592e-17
1.11327e-17
2.47366e-19
2.47891e-19
2.48553e-19
2.48254e-19
2.47763e-19
2.48181e-19
2.49141e-19
2.48468e-19
2.49711e-19
2.49713e-19
2.50015e-19
2.49657e-19
2.5092e-19
2.52578e-19
2.53875e-19
2.54642e-19
2.54799e-19
2.56903e-19
2.56683e-19
2.57633e-19
2.57279e-19
2.57915e-19
2.59339e-19
2.59319e-19
2.5956e-19
2.6167e-19
2.61247e-19
2.61995e-19
2.62355e-19
2.62803e-19
2.62797e-19
2.63143e-19
2.62925e-19
2.6348e-19
2.63078e-19
2.62902e-19
2.63381e-19
2.62111e-19
2.6605e-19
2.58152e-19
2.70203e-19
2.51441e-19
2.76061e-19
2.49153e-19
2.66724e-19
4.17353e-19
3.21931e-18
1.46801e-17
1.54993e-17
1.13537e-17
6.53926e-18
2.60178e-18
9.42767e-19
5.36443e-19
3.91593e-20
1.01179e-19
1.15263e-19
1.15051e-19
1.14953e-19
2.77592e-20
5.08194e-20
1.81472e-19
2.88116e-20
-1.28626e-19
8.77932e-20
3.67004e-19
-3.67809e-23
-3.03489e-19
1.2623e-19
4.53903e-19
6.60769e-20
-2.89564e-19
7.96639e-20
5.56389e-19
4.18164e-19
1.35509e-19
2.07086e-19
3.55988e-19
4.72591e-19
5.74867e-19
5.24897e-19
5.83379e-19
7.82999e-19
9.83154e-19
1.04188e-18
1.05183e-18
1.12749e-18
1.64695e-18
2.04856e-18
2.43514e-18
2.46333e-18
2.61435e-18
3.26108e-18
3.31845e-18
3.66583e-18
4.53722e-18
4.73221e-18
5.52104e-18
6.1324e-18
7.09261e-18
7.60233e-18
8.30298e-18
8.64411e-18
8.99502e-18
7.86365e-18
6.12571e-18
3.14904e-18
1.60093e-18
6.33297e-19
9.13994e-19
3.83902e-19
9.95158e-19
2.91786e-19
1.52056e-18
8.03219e-19
3.61567e-18
3.79186e-18
9.14132e-18
9.53706e-18
2.5055e-19
2.50729e-19
2.50352e-19
2.49899e-19
2.48591e-19
2.50645e-19
2.50765e-19
2.50101e-19
2.52092e-19
2.51584e-19
2.50775e-19
2.52376e-19
2.52901e-19
2.55569e-19
2.57569e-19
2.57965e-19
2.56536e-19
2.60614e-19
2.59064e-19
2.60676e-19
2.60398e-19
2.63527e-19
2.61724e-19
2.63113e-19
2.65153e-19
2.64011e-19
2.66907e-19
2.68135e-19
2.67479e-19
2.66401e-19
2.66844e-19
2.66523e-19
2.66687e-19
2.66534e-19
2.66358e-19
2.66431e-19
2.66009e-19
2.66389e-19
2.67284e-19
2.65513e-19
2.66561e-19
2.66265e-19
2.68696e-19
2.65344e-19
2.62398e-19
5.54362e-19
3.19652e-18
1.4327e-17
1.5508e-17
1.15376e-17
6.88236e-18
3.40873e-18
1.43802e-18
6.98428e-19
1.61985e-19
2.16005e-19
1.36736e-19
9.55549e-20
1.24894e-19
6.45509e-20
3.94923e-21
7.85452e-20
1.10946e-19
-1.58147e-20
-5.83763e-20
1.82523e-19
1.3272e-19
-1.11068e-19
-3.32518e-20
1.94847e-19
1.32047e-19
-1.0491e-19
5.53454e-20
3.29803e-19
3.45305e-19
2.07522e-19
2.54608e-19
3.10193e-19
3.74993e-19
4.77417e-19
4.82776e-19
5.60925e-19
7.12409e-19
9.21701e-19
1.0003e-18
1.01987e-18
1.10156e-18
1.51809e-18
1.9688e-18
2.2774e-18
2.38051e-18
2.55453e-18
3.20147e-18
3.28852e-18
3.76865e-18
4.38539e-18
4.693e-18
5.67006e-18
6.255e-18
7.07311e-18
7.60832e-18
8.27371e-18
8.39639e-18
8.03291e-18
6.16057e-18
4.33308e-18
2.4687e-18
1.33465e-18
6.46306e-19
9.54673e-19
4.87055e-19
1.04935e-18
4.43839e-19
1.62234e-18
8.81461e-19
3.28946e-18
3.29546e-18
6.97958e-18
7.2232e-18
2.52224e-19
2.52058e-19
2.51645e-19
2.52474e-19
2.51485e-19
2.52777e-19
2.52232e-19
2.54048e-19
2.53925e-19
2.53702e-19
2.51569e-19
2.57722e-19
2.55254e-19
2.60514e-19
2.6073e-19
2.62961e-19
2.65571e-19
2.67277e-19
2.66278e-19
2.65133e-19
2.66814e-19
2.67251e-19
2.66509e-19
2.67574e-19
2.69319e-19
2.70175e-19
2.70078e-19
2.70382e-19
2.71208e-19
2.72519e-19
2.70678e-19
2.70149e-19
2.70536e-19
2.69165e-19
2.68328e-19
2.69977e-19
2.69798e-19
2.69454e-19
2.69969e-19
2.69974e-19
2.68912e-19
2.72338e-19
2.65899e-19
2.78947e-19
2.51384e-19
5.72481e-19
2.9667e-18
1.42252e-17
1.60578e-17
1.23792e-17
7.39775e-18
4.23434e-18
1.88322e-18
9.99304e-19
4.49463e-19
3.79064e-19
3.12833e-19
2.22863e-19
1.69974e-19
1.48503e-19
8.6206e-20
2.20478e-20
7.51533e-20
7.9732e-20
-2.29384e-20
2.85943e-20
1.02564e-19
3.32684e-20
-2.75753e-20
4.37792e-20
1.0863e-19
-3.20212e-20
4.34159e-20
1.97302e-19
2.43989e-19
2.14386e-19
2.69701e-19
3.06454e-19
3.21948e-19
4.21355e-19
4.40392e-19
5.46725e-19
6.96746e-19
8.75065e-19
9.81574e-19
1.00719e-18
1.11866e-18
1.47263e-18
1.87836e-18
2.20232e-18
2.26669e-18
2.56003e-18
3.16318e-18
3.35842e-18
3.63796e-18
4.50647e-18
4.75921e-18
5.75519e-18
6.33821e-18
7.11457e-18
7.57883e-18
7.9402e-18
7.44898e-18
6.20468e-18
4.32883e-18
3.07562e-18
1.8475e-18
1.10645e-18
7.59818e-19
1.00448e-18
6.89055e-19
1.11625e-18
6.27312e-19
1.675e-18
8.12879e-19
2.97387e-18
2.74197e-18
4.99511e-18
5.14551e-18
2.55584e-19
2.54773e-19
2.54603e-19
2.53458e-19
2.54487e-19
2.56392e-19
2.54953e-19
2.63795e-19
2.5739e-19
2.56599e-19
2.64417e-19
2.59224e-19
2.62947e-19
2.69689e-19
2.65924e-19
2.70576e-19
2.66524e-19
2.7501e-19
2.69041e-19
2.71418e-19
2.73116e-19
2.71428e-19
2.73917e-19
2.74377e-19
2.73228e-19
2.74229e-19
2.74699e-19
2.74713e-19
2.74274e-19
2.7247e-19
2.7323e-19
2.72579e-19
2.73731e-19
2.73905e-19
2.73998e-19
2.74597e-19
2.74965e-19
2.75291e-19
2.7535e-19
2.76159e-19
2.75388e-19
2.7708e-19
2.7246e-19
2.83633e-19
2.4457e-19
5.21889e-19
2.85283e-18
1.40451e-17
1.79162e-17
1.41087e-17
8.32415e-18
5.55628e-18
2.82172e-18
1.77449e-18
1.07827e-18
7.45644e-19
5.32913e-19
3.67191e-19
2.20301e-19
1.18603e-19
5.3401e-20
-1.25942e-20
6.57021e-21
2.65135e-20
-2.78474e-20
-3.9722e-20
-1.81864e-20
8.42026e-21
-1.5661e-20
-2.77139e-20
2.7384e-20
-2.86053e-20
-7.45961e-21
1.08713e-19
1.63821e-19
1.78594e-19
2.51362e-19
2.68117e-19
3.00334e-19
4.05772e-19
4.25425e-19
5.29235e-19
6.64624e-19
8.64059e-19
9.69056e-19
1.04173e-18
1.16399e-18
1.45449e-18
1.79447e-18
2.09391e-18
2.218e-18
2.46584e-18
3.04136e-18
3.42525e-18
3.4566e-18
4.64862e-18
5.031e-18
5.85193e-18
6.39419e-18
7.03069e-18
7.28886e-18
6.92624e-18
5.69222e-18
4.22202e-18
2.90307e-18
2.22348e-18
1.29135e-18
1.06041e-18
7.43088e-19
1.04397e-18
6.37114e-19
1.18554e-18
7.55139e-19
1.6099e-18
9.75102e-19
2.51893e-18
2.24767e-18
3.61427e-18
3.76951e-18
2.58393e-19
2.57352e-19
2.56517e-19
2.57936e-19
2.60843e-19
2.62941e-19
2.60749e-19
2.69607e-19
2.6493e-19
2.63324e-19
2.68488e-19
2.68665e-19
2.74035e-19
2.73454e-19
2.72129e-19
2.76235e-19
2.79542e-19
2.77682e-19
2.77773e-19
2.82538e-19
2.77672e-19
2.76624e-19
2.7771e-19
2.79309e-19
2.746e-19
2.77862e-19
2.78334e-19
2.79092e-19
2.79023e-19
2.762e-19
2.7784e-19
2.79229e-19
2.79464e-19
2.79721e-19
2.79214e-19
2.78986e-19
2.78736e-19
2.78847e-19
2.78582e-19
2.80256e-19
2.78609e-19
2.78812e-19
2.76386e-19
2.82096e-19
2.47192e-19
5.31189e-19
2.6784e-18
1.38234e-17
2.13726e-17
1.72067e-17
1.04909e-17
7.94652e-18
4.86575e-18
3.08793e-18
1.79257e-18
1.14608e-18
7.24957e-19
4.40184e-19
2.35243e-19
1.01378e-19
-7.30431e-21
-3.21131e-20
4.30665e-21
5.37273e-20
3.40762e-20
-1.66131e-20
-1.93098e-20
6.26465e-21
1.4355e-20
3.19432e-20
4.92415e-20
3.37076e-20
2.34833e-20
1.33814e-19
1.75345e-19
2.12906e-19
2.7273e-19
2.90938e-19
3.67472e-19
4.36431e-19
4.67292e-19
5.82097e-19
6.96427e-19
9.05959e-19
1.03462e-18
1.04579e-18
1.38319e-18
1.46799e-18
1.80446e-18
2.09155e-18
2.23891e-18
2.54689e-18
2.93569e-18
3.46779e-18
3.66214e-18
4.62597e-18
5.0947e-18
5.80422e-18
6.27572e-18
6.58577e-18
6.22329e-18
5.21028e-18
3.78012e-18
2.82721e-18
1.95341e-18
1.56477e-18
1.047e-18
9.97424e-19
6.83852e-19
1.01417e-18
6.92321e-19
1.1796e-18
8.08825e-19
1.42715e-18
9.58052e-19
2.01437e-18
1.85992e-18
2.38303e-18
2.47384e-18
2.56895e-19
2.60098e-19
2.60278e-19
2.6416e-19
2.65339e-19
2.71869e-19
2.72733e-19
2.7046e-19
2.74672e-19
2.74958e-19
2.78921e-19
2.80204e-19
2.88825e-19
2.8707e-19
2.85987e-19
2.81068e-19
2.82733e-19
2.79858e-19
2.82965e-19
2.86179e-19
2.79352e-19
2.80906e-19
2.82097e-19
2.8239e-19
2.8617e-19
2.81378e-19
2.78537e-19
2.82007e-19
2.79082e-19
2.85914e-19
2.8025e-19
2.82966e-19
2.79682e-19
2.8195e-19
2.79322e-19
2.77897e-19
2.79304e-19
2.78035e-19
2.78323e-19
2.79489e-19
2.78785e-19
2.79235e-19
2.76769e-19
2.77549e-19
2.74149e-19
4.35524e-19
2.42198e-18
1.1909e-17
2.60179e-17
2.23842e-17
1.51332e-17
1.14095e-17
7.67663e-18
4.77053e-18
3.26597e-18
1.99213e-18
1.13639e-18
7.60857e-19
4.73419e-19
2.99131e-19
1.11339e-19
4.86279e-20
9.34799e-20
1.98882e-19
1.68875e-19
1.27302e-19
1.13231e-19
9.96328e-20
1.19513e-19
1.31499e-19
1.72055e-19
1.38575e-19
1.13133e-19
2.00772e-19
2.34636e-19
2.88065e-19
3.25782e-19
3.49606e-19
4.40702e-19
5.00344e-19
5.33095e-19
6.25188e-19
7.60334e-19
9.17923e-19
1.0592e-18
1.14239e-18
1.38028e-18
1.57117e-18
1.87373e-18
2.0674e-18
2.27506e-18
2.60094e-18
3.0315e-18
3.50147e-18
3.7965e-18
4.65553e-18
5.01239e-18
5.63099e-18
5.74752e-18
5.40393e-18
4.51874e-18
3.4527e-18
2.49801e-18
1.86942e-18
1.38964e-18
1.11844e-18
8.40885e-19
8.72631e-19
6.39939e-19
8.89263e-19
5.86215e-19
1.03338e-18
1.04114e-18
1.49374e-18
1.10776e-18
1.58539e-18
1.50252e-18
1.70593e-18
1.74319e-18
2.65324e-19
2.69379e-19
2.72315e-19
2.82345e-19
2.78517e-19
2.81737e-19
2.78133e-19
2.76923e-19
2.81995e-19
2.86171e-19
2.85957e-19
2.90727e-19
2.90425e-19
2.84507e-19
2.9077e-19
2.86716e-19
2.81082e-19
2.84851e-19
2.83459e-19
2.80303e-19
2.83233e-19
2.84058e-19
2.80858e-19
2.81602e-19
2.76362e-19
2.81696e-19
2.8053e-19
2.85569e-19
2.74902e-19
2.86752e-19
2.76373e-19
2.83944e-19
2.78193e-19
2.79904e-19
2.77167e-19
2.77211e-19
2.77332e-19
2.76935e-19
2.75937e-19
2.76143e-19
2.75588e-19
2.75198e-19
2.74215e-19
2.73886e-19
2.66345e-19
3.07398e-19
1.58752e-18
6.19639e-18
3.44368e-17
3.17075e-17
2.03312e-17
1.40906e-17
1.08806e-17
7.02291e-18
4.66492e-18
2.89156e-18
1.76254e-18
1.12103e-18
8.30171e-19
5.07763e-19
3.37825e-19
1.92865e-19
2.03381e-19
2.92145e-19
2.88249e-19
2.54984e-19
2.52232e-19
2.35995e-19
1.56179e-19
1.69612e-19
2.13549e-19
1.95363e-19
1.91159e-19
2.23363e-19
2.36468e-19
3.08062e-19
3.5307e-19
3.67854e-19
4.35542e-19
5.28829e-19
5.89258e-19
6.66306e-19
7.76024e-19
9.1405e-19
1.02691e-18
1.14683e-18
1.44343e-18
1.62125e-18
1.87951e-18
2.02775e-18
2.30868e-18
2.68567e-18
3.05313e-18
3.56317e-18
3.8078e-18
4.65703e-18
4.75146e-18
4.91599e-18
4.51514e-18
3.82735e-18
2.92351e-18
2.2024e-18
1.62399e-18
1.3253e-18
9.90086e-19
8.77984e-19
7.67973e-19
7.62396e-19
4.22261e-19
7.37636e-19
4.99251e-19
9.45973e-19
8.85268e-19
1.40049e-18
9.04854e-19
1.25245e-18
1.21484e-18
1.45297e-18
1.49623e-18
2.86229e-19
2.85784e-19
2.84651e-19
2.92317e-19
2.98571e-19
2.92221e-19
2.80938e-19
2.89002e-19
2.83907e-19
3.02898e-19
2.85135e-19
3.00313e-19
2.87368e-19
2.78835e-19
2.91862e-19
2.8389e-19
2.81305e-19
2.77866e-19
2.81498e-19
2.77882e-19
2.77093e-19
2.7395e-19
2.78023e-19
2.76281e-19
2.74904e-19
2.7742e-19
2.72681e-19
2.74229e-19
2.75293e-19
2.68053e-19
2.71443e-19
2.65557e-19
2.68747e-19
2.69324e-19
2.68562e-19
2.67037e-19
2.66212e-19
2.63917e-19
2.62009e-19
2.57075e-19
2.54952e-19
2.47895e-19
2.51286e-19
2.3961e-19
2.40261e-19
2.99436e-19
5.88313e-19
3.29237e-18
2.57175e-17
4.00669e-17
2.30041e-17
1.67026e-17
1.28556e-17
7.29336e-18
4.90993e-18
3.2711e-18
2.01954e-18
1.29405e-18
9.3334e-19
6.04943e-19
4.39187e-19
2.45389e-19
2.25328e-19
2.87341e-19
3.01831e-19
2.45186e-19
2.60744e-19
2.09629e-19
1.13406e-19
1.29731e-19
1.72922e-19
1.49971e-19
1.40765e-19
1.51913e-19
1.93144e-19
2.51291e-19
3.00498e-19
3.44502e-19
3.7816e-19
4.27566e-19
5.7105e-19
6.40731e-19
7.12102e-19
9.25256e-19
1.04588e-18
1.12205e-18
1.40768e-18
1.62919e-18
1.91015e-18
2.11101e-18
2.39357e-18
2.69267e-18
3.06016e-18
3.52918e-18
3.68452e-18
4.21731e-18
3.94659e-18
3.64861e-18
2.98585e-18
2.37554e-18
1.86991e-18
1.43823e-18
1.09871e-18
9.3755e-19
7.90972e-19
7.6198e-19
6.69803e-19
6.44949e-19
4.88139e-19
7.32441e-19
4.28049e-19
8.14971e-19
8.61929e-19
1.31369e-18
9.39561e-19
9.86097e-19
9.40289e-19
9.18659e-19
8.97562e-19
2.96064e-19
2.93989e-19
2.96701e-19
2.95641e-19
2.90247e-19
2.84787e-19
3.00067e-19
2.91658e-19
2.83625e-19
2.84065e-19
2.84343e-19
2.87089e-19
2.83617e-19
2.75975e-19
2.74915e-19
2.77306e-19
2.71769e-19
2.68492e-19
2.69206e-19
2.71312e-19
2.66476e-19
2.71357e-19
2.67402e-19
2.62757e-19
2.58045e-19
2.53363e-19
2.59855e-19
2.60932e-19
2.55336e-19
2.64196e-19
2.53105e-19
2.53793e-19
2.47048e-19
2.49426e-19
2.4563e-19
2.43199e-19
2.43426e-19
2.37307e-19
2.37617e-19
2.35567e-19
2.34857e-19
2.33352e-19
2.30814e-19
2.31989e-19
2.26595e-19
2.4743e-19
5.6254e-19
3.50126e-18
1.73763e-17
3.34038e-17
2.6401e-17
1.90349e-17
1.37695e-17
6.54442e-18
4.83537e-18
3.30852e-18
2.07797e-18
1.37086e-18
8.50958e-19
5.78856e-19
4.01536e-19
2.05668e-19
1.42218e-19
2.5169e-19
1.22185e-19
1.59645e-19
1.77313e-19
7.46711e-20
7.57998e-21
1.22511e-20
4.74778e-20
5.97324e-20
6.33132e-20
7.78747e-20
1.04802e-19
1.50232e-19
2.10163e-19
2.79539e-19
2.80911e-19
3.24378e-19
5.28365e-19
5.67769e-19
6.39109e-19
9.37178e-19
1.00331e-18
1.12212e-18
1.40594e-18
1.61347e-18
1.92592e-18
2.14802e-18
2.48539e-18
2.65918e-18
3.00344e-18
3.24068e-18
3.10801e-18
3.29421e-18
2.74675e-18
2.32112e-18
1.83546e-18
1.47569e-18
1.12403e-18
9.42167e-19
7.85904e-19
7.28577e-19
6.6443e-19
6.14205e-19
4.60713e-19
5.06327e-19
4.33067e-19
5.79353e-19
4.94545e-19
8.85518e-19
8.71267e-19
9.3203e-19
9.56062e-19
9.95133e-19
1.09615e-18
1.09425e-18
1.09846e-18
2.77695e-19
2.791e-19
2.85339e-19
2.65261e-19
2.73036e-19
2.63501e-19
2.86637e-19
2.61999e-19
2.71959e-19
2.77599e-19
2.75316e-19
2.65094e-19
2.70755e-19
2.64661e-19
2.6661e-19
2.64066e-19
2.60226e-19
2.53671e-19
2.54582e-19
2.52296e-19
2.55152e-19
2.51144e-19
2.418e-19
2.36462e-19
2.35078e-19
2.34387e-19
2.31716e-19
2.25232e-19
2.36497e-19
2.26641e-19
2.29397e-19
2.2515e-19
2.22195e-19
2.20981e-19
2.14793e-19
2.11913e-19
2.10783e-19
2.09777e-19
2.04725e-19
2.09938e-19
2.14938e-19
2.17201e-19
2.13377e-19
2.15001e-19
2.10187e-19
2.30996e-19
4.31821e-19
1.8576e-18
1.34295e-17
2.13188e-17
2.30528e-17
1.88997e-17
1.32083e-17
7.21734e-18
3.9271e-18
2.68409e-18
1.60065e-18
7.99232e-19
4.69258e-19
2.08532e-19
1.02071e-19
-9.82053e-21
-1.0371e-20
2.40482e-21
-1.47418e-19
-1.47149e-19
-4.51609e-20
-1.49539e-19
-1.58141e-19
-1.65676e-19
-1.13967e-19
-8.99884e-20
-6.9799e-20
-5.07871e-20
-5.74329e-21
1.02767e-20
1.14064e-19
1.32385e-19
2.03009e-19
2.7864e-19
4.2133e-19
5.52326e-19
6.59679e-19
8.8575e-19
9.76404e-19
1.19426e-18
1.41964e-18
1.58191e-18
1.94343e-18
2.14173e-18
2.36085e-18
2.41178e-18
2.55537e-18
2.44462e-18
2.28587e-18
2.13483e-18
1.74984e-18
1.35066e-18
1.09387e-18
9.14919e-19
7.25608e-19
6.5784e-19
5.92817e-19
5.63627e-19
5.53428e-19
4.63702e-19
3.4304e-19
4.12642e-19
4.1238e-19
4.48507e-19
5.78851e-19
8.23896e-19
9.09858e-19
9.15962e-19
9.52529e-19
1.17504e-18
1.1898e-18
1.18409e-18
1.22102e-18
2.52036e-19
2.53834e-19
2.63818e-19
2.43769e-19
2.43807e-19
2.48675e-19
2.50999e-19
2.43334e-19
2.55427e-19
2.49247e-19
2.52921e-19
2.53032e-19
2.47399e-19
2.54202e-19
2.45179e-19
2.41573e-19
2.36283e-19
2.34678e-19
2.34044e-19
2.29866e-19
2.26955e-19
2.08027e-19
2.14663e-19
2.13045e-19
2.1156e-19
2.16782e-19
2.09494e-19
2.08984e-19
1.93391e-19
1.96123e-19
1.94189e-19
1.93407e-19
1.78407e-19
1.80909e-19
1.70339e-19
1.72286e-19
1.67515e-19
1.71461e-19
1.75925e-19
1.72939e-19
1.73033e-19
1.71762e-19
1.76073e-19
1.7635e-19
1.69044e-19
1.98357e-19
5.37643e-19
2.92043e-18
7.43948e-18
1.09482e-17
1.63879e-17
1.74014e-17
1.36802e-17
7.76112e-18
3.67288e-18
1.73892e-18
7.18095e-19
2.36441e-19
9.84441e-20
-6.96074e-20
-5.96157e-20
-1.98746e-19
-1.69693e-19
-9.30391e-20
-2.53554e-19
-2.79454e-19
-2.0458e-19
-2.25599e-19
-1.82785e-19
-1.71966e-19
-2.01413e-19
-1.42217e-19
-1.10041e-19
-8.49037e-20
-3.0473e-20
-6.36973e-20
1.6764e-20
6.71033e-20
1.60039e-19
2.30192e-19
3.69746e-19
5.23348e-19
7.08256e-19
8.75578e-19
9.49817e-19
1.18472e-18
1.40809e-18
1.49139e-18
1.84346e-18
1.94388e-18
1.94412e-18
1.90903e-18
1.77257e-18
1.57722e-18
1.40467e-18
1.20288e-18
9.57103e-19
7.81633e-19
6.36593e-19
5.48382e-19
4.86053e-19
4.74878e-19
4.21763e-19
4.5329e-19
4.66218e-19
3.53572e-19
2.93602e-19
3.90462e-19
2.90404e-19
4.26114e-19
3.60644e-19
5.57258e-19
8.59187e-19
9.66284e-19
7.1533e-19
6.92591e-19
7.4408e-19
9.99614e-19
1.0845e-18
2.23267e-19
2.23497e-19
2.30843e-19
2.26056e-19
2.13702e-19
2.3544e-19
2.00096e-19
2.41253e-19
2.44193e-19
2.32715e-19
2.26487e-19
2.2784e-19
2.20302e-19
2.44537e-19
2.2234e-19
2.18428e-19
2.07287e-19
1.98874e-19
2.09257e-19
1.99141e-19
1.84417e-19
1.75328e-19
1.74209e-19
1.75421e-19
1.8084e-19
1.67101e-19
1.65937e-19
1.49475e-19
1.41886e-19
1.44072e-19
1.39176e-19
1.35499e-19
1.30418e-19
1.2248e-19
1.20145e-19
1.18211e-19
1.26776e-19
1.16442e-19
1.30233e-19
1.16102e-19
1.19392e-19
9.94635e-20
9.11769e-20
8.68178e-20
9.50528e-20
1.27742e-19
3.7797e-19
1.78726e-18
3.40172e-18
4.69098e-18
8.51033e-18
1.22008e-17
1.2358e-17
8.88259e-18
4.53149e-18
1.63318e-18
4.55804e-19
1.09426e-19
8.06312e-20
2.43163e-20
-8.05312e-21
-1.05618e-19
-7.04168e-20
-9.82626e-20
-2.39227e-19
-1.2009e-19
-9.33577e-20
-1.11871e-19
-1.0098e-19
-6.04592e-20
-1.42398e-19
-1.10169e-19
-1.11534e-19
-6.33654e-20
-2.56452e-20
-3.84403e-20
6.73789e-21
5.73691e-20
1.95394e-19
2.18057e-19
4.4101e-19
5.04817e-19
7.24006e-19
8.34005e-19
9.58884e-19
1.15194e-18
1.25782e-18
1.35452e-18
1.47405e-18
1.49919e-18
1.44967e-18
1.15286e-18
1.13807e-18
9.35552e-19
6.94537e-19
6.78605e-19
6.03341e-19
4.8372e-19
4.18963e-19
3.78428e-19
3.4024e-19
2.86516e-19
3.16572e-19
3.84657e-19
3.73958e-19
3.91565e-19
2.16015e-19
1.95755e-19
2.42882e-19
1.29884e-19
2.47256e-19
2.39002e-19
3.7875e-19
3.70847e-19
4.81062e-19
5.2895e-19
5.96455e-19
6.38402e-19
5.83288e-19
2.0203e-19
1.97451e-19
1.784e-19
2.01476e-19
2.06358e-19
2.18665e-19
2.20953e-19
2.43417e-19
1.88208e-19
2.15805e-19
2.12598e-19
2.01826e-19
2.07355e-19
2.06126e-19
2.03811e-19
1.91462e-19
1.86069e-19
1.69756e-19
1.61522e-19
1.56711e-19
1.50308e-19
1.53956e-19
1.32445e-19
1.34798e-19
1.25718e-19
1.17234e-19
9.89303e-20
8.90503e-20
8.89727e-20
7.45563e-20
7.59935e-20
6.45103e-20
6.64418e-20
6.77272e-20
6.52712e-20
6.09497e-20
6.28055e-20
6.45662e-20
6.64598e-20
5.40879e-20
6.62554e-20
4.90188e-20
4.54609e-20
4.38146e-20
4.9583e-20
4.45697e-20
9.84543e-20
6.22092e-19
1.0442e-18
1.236e-18
2.98238e-18
5.71403e-18
7.67856e-18
7.43348e-18
4.65676e-18
1.91819e-18
2.99619e-19
1.58619e-20
-9.76914e-20
-1.04715e-19
-1.09805e-19
-2.05454e-19
-1.07634e-19
3.52034e-20
-1.70712e-19
-1.78425e-19
-2.06741e-19
-1.6603e-19
-1.58863e-19
-8.61776e-20
-5.6334e-20
-1.34118e-19
-1.45571e-19
-1.13061e-19
-1.72294e-20
-7.68407e-20
3.94572e-20
6.8214e-20
2.07302e-19
2.76067e-19
4.58008e-19
5.30342e-19
7.37783e-19
7.4493e-19
9.20091e-19
9.87394e-19
1.06736e-18
1.08832e-18
1.01196e-18
8.91234e-19
8.57465e-19
6.29783e-19
5.26388e-19
5.21538e-19
4.68036e-19
4.03767e-19
2.89671e-19
2.48979e-19
2.76085e-19
2.47004e-19
2.26614e-19
2.3219e-19
2.62719e-19
3.07329e-19
3.10726e-19
2.99389e-19
2.08179e-19
2.73198e-19
2.35526e-19
2.1523e-19
1.28247e-19
3.97853e-19
4.15389e-19
3.80612e-19
4.76149e-19
6.06404e-19
5.32391e-19
4.3525e-19
4.72696e-19
1.85384e-19
1.80362e-19
1.75408e-19
1.86268e-19
1.97968e-19
2.01167e-19
2.05785e-19
2.21436e-19
1.88845e-19
2.01198e-19
1.34368e-19
1.59854e-19
1.88324e-19
1.59343e-19
1.69913e-19
1.47017e-19
1.40454e-19
1.19295e-19
1.27395e-19
1.1213e-19
9.1001e-20
9.87191e-20
8.88271e-20
7.82314e-20
4.84382e-20
5.92042e-20
4.20176e-20
4.16233e-20
3.73939e-20
2.6743e-20
2.43812e-20
7.5455e-21
1.47805e-20
1.88203e-21
1.45825e-20
5.83556e-21
1.77558e-20
3.02743e-21
1.97526e-20
5.3236e-21
1.65642e-20
4.76845e-22
-5.32278e-22
-3.13548e-21
-7.31415e-21
-8.51935e-20
-3.8274e-19
-4.65742e-19
-3.06895e-19
-1.13779e-19
9.80369e-19
2.1478e-18
3.50065e-18
4.0465e-18
3.52653e-18
1.62494e-18
3.89334e-20
-4.61308e-19
-4.96095e-19
-3.60104e-19
-3.85642e-19
-2.02131e-19
-1.09739e-19
-1.35042e-19
-2.63207e-19
-1.82732e-19
-2.78145e-19
-1.52658e-19
-1.1752e-19
-1.21524e-19
-9.67295e-20
-1.05298e-19
-1.91854e-19
-1.82702e-19
-4.56463e-20
-1.19671e-19
7.10269e-20
1.75162e-19
2.09715e-19
2.74268e-19
3.46609e-19
5.22959e-19
7.44642e-19
6.61098e-19
8.10598e-19
7.86726e-19
6.11907e-19
6.65924e-19
7.02108e-19
5.99935e-19
4.9704e-19
3.7897e-19
3.03887e-19
2.58072e-19
1.88584e-19
1.83213e-19
8.76685e-20
1.41132e-19
2.14771e-19
1.81482e-19
1.9951e-19
1.90724e-19
2.1531e-19
2.10857e-19
1.89614e-19
3.26111e-19
3.0659e-19
3.49388e-19
5.46936e-20
2.1708e-19
1.82558e-19
3.28233e-19
2.64934e-19
6.04893e-19
7.68079e-19
7.44111e-19
6.5173e-19
8.35485e-19
9.31425e-19
1.90675e-19
2.06038e-19
1.90688e-19
1.59884e-19
1.56134e-19
1.57622e-19
1.7662e-19
1.49082e-19
1.51245e-19
1.53083e-19
1.35788e-19
1.33515e-19
1.1791e-19
1.20054e-19
9.09459e-20
7.91676e-20
7.94782e-20
1.00907e-19
4.31831e-20
2.07204e-20
1.54911e-20
4.45489e-20
1.2472e-20
6.9141e-21
-1.90726e-20
1.40073e-21
-1.41757e-21
-6.97899e-21
-1.95339e-20
-3.17419e-20
-2.12154e-20
-3.98755e-20
-4.45208e-20
-3.70669e-20
-4.0212e-20
-4.38811e-20
-4.9107e-20
-6.50286e-20
-6.16216e-20
-7.48796e-20
-6.98046e-20
-6.53605e-20
-5.54976e-20
-5.92333e-20
-8.9518e-20
-3.29944e-19
-1.10994e-18
-1.10977e-18
-9.66414e-19
-8.82961e-19
-1.5567e-19
2.85236e-19
7.75416e-19
1.16091e-18
1.10131e-18
5.41761e-19
-5.12538e-19
-8.79696e-19
-7.16378e-19
-5.52832e-19
-3.73386e-19
-2.22362e-19
-1.54223e-19
-2.43672e-19
-3.53681e-19
-2.1377e-19
-2.13315e-19
-1.39703e-19
-7.29722e-20
-1.69125e-19
-1.19206e-19
-1.73791e-19
-2.02333e-19
-2.49536e-19
-4.81635e-20
-1.30215e-19
1.39464e-19
1.42237e-19
2.07397e-19
2.81974e-19
1.86445e-19
3.4655e-19
5.86026e-19
5.08527e-19
5.19335e-19
5.0587e-19
3.94522e-19
2.97447e-19
3.98895e-19
3.89624e-19
2.51454e-19
6.28994e-20
1.41494e-19
5.5163e-21
6.49847e-20
4.62011e-20
2.4518e-20
1.11701e-19
1.19689e-19
8.28019e-20
1.22177e-19
1.24739e-19
1.5835e-19
2.34831e-19
1.67552e-19
2.59185e-19
3.27592e-19
4.68361e-19
-4.14522e-20
-7.59077e-20
6.00194e-20
3.11339e-19
1.71893e-19
3.47113e-20
1.67259e-20
1.77379e-20
7.20027e-20
8.2804e-20
-3.24285e-20
1.33745e-19
1.31664e-19
1.52773e-19
1.30815e-19
1.69288e-19
1.35057e-19
1.29668e-19
1.03757e-19
9.82045e-20
8.95703e-20
9.81479e-20
7.8518e-20
5.7843e-20
6.2414e-20
2.63326e-20
2.43254e-20
1.60404e-20
1.86316e-20
-1.99489e-20
-9.18638e-21
-5.00554e-20
-3.56404e-20
-7.52497e-20
-7.03176e-20
-7.61673e-20
-6.53361e-20
-8.28955e-20
-8.57758e-20
-9.73543e-20
-9.25312e-20
-8.26879e-20
-8.50206e-20
-1.02158e-19
-9.17009e-20
-1.03138e-19
-1.09256e-19
-1.04031e-19
-1.08397e-19
-1.07196e-19
-1.20059e-19
-1.2116e-19
-1.15461e-19
-1.09259e-19
-1.21571e-19
-1.91048e-19
-7.70368e-19
-1.96381e-18
-2.223e-18
-2.16746e-18
-2.02431e-18
-2.19626e-18
-1.94667e-18
-1.40325e-18
-8.94098e-19
-8.0476e-19
-1.11354e-18
-1.7767e-18
-1.79447e-18
-1.43146e-18
-8.30673e-19
-5.59603e-19
-3.83069e-19
-3.19879e-19
-3.68018e-19
-3.79224e-19
-2.16864e-19
-2.2294e-19
-1.15132e-19
-7.63904e-20
-1.92928e-19
-1.70743e-19
-1.60491e-19
-1.78413e-19
-2.80957e-19
-2.72388e-20
-1.20418e-19
1.37268e-19
1.0671e-19
9.91156e-20
1.84128e-19
1.50615e-19
3.79592e-19
3.31239e-19
4.50112e-19
4.29278e-19
2.97265e-19
3.26606e-19
4.17036e-19
3.42963e-19
2.83662e-19
3.75831e-20
2.20087e-20
8.20743e-20
-9.29675e-20
-2.8099e-20
2.52789e-20
2.73566e-20
5.71805e-20
6.95048e-20
9.81919e-20
7.87502e-20
7.98255e-20
8.22312e-20
1.89871e-19
1.20611e-19
1.11083e-19
3.38763e-19
1.13541e-19
2.47503e-19
3.46504e-19
-3.46701e-20
2.13924e-19
4.46331e-19
4.35936e-19
1.50849e-19
2.12687e-19
2.9719e-19
2.97118e-19
3.14897e-19
1.36243e-19
1.33109e-19
1.3451e-19
1.00493e-19
1.33237e-19
1.22435e-19
8.74955e-20
6.20911e-20
4.26403e-20
6.56554e-20
4.65574e-20
3.69935e-20
1.62268e-20
-1.91088e-20
-4.61129e-20
-4.62806e-20
-5.3558e-20
-1.04854e-19
-1.02957e-19
-1.0618e-19
-1.05138e-19
-1.32844e-19
-1.43176e-19
-1.27176e-19
-1.31084e-19
-1.37944e-19
-1.53556e-19
-1.51388e-19
-1.5173e-19
-1.39493e-19
-1.68967e-19
-1.53349e-19
-1.47725e-19
-1.59622e-19
-1.52278e-19
-1.49422e-19
-1.48784e-19
-1.42519e-19
-1.45829e-19
-1.47469e-19
-1.46131e-19
-1.46261e-19
-1.4847e-19
-1.731e-19
-3.2665e-19
-1.39463e-18
-2.462e-18
-2.5576e-18
-2.54748e-18
-2.51561e-18
-2.50127e-18
-2.37305e-18
-2.21957e-18
-1.95558e-18
-2.00098e-18
-2.26098e-18
-2.65601e-18
-2.79826e-18
-2.11991e-18
-1.36126e-18
-9.77141e-19
-5.87651e-19
-3.67128e-19
-4.53344e-19
-3.8744e-19
-1.59518e-19
-1.80078e-19
-3.48902e-20
-6.33538e-20
-1.73244e-19
-1.908e-19
-8.40077e-20
-1.31705e-19
-3.06915e-19
3.4493e-20
-1.75292e-19
1.82862e-19
5.15676e-20
-4.96501e-20
7.42254e-20
9.47052e-20
1.99445e-19
2.33426e-19
3.61508e-19
4.27908e-19
3.81347e-19
1.46245e-19
1.12796e-19
1.79555e-19
7.49457e-20
-8.21471e-21
-7.05426e-20
-7.67954e-20
-1.17108e-19
-3.19336e-20
1.72317e-20
2.99027e-21
1.21524e-20
1.13547e-20
8.11006e-20
5.34225e-20
4.88434e-20
5.83912e-20
4.52077e-20
2.34099e-19
2.06662e-19
2.79034e-19
1.09709e-19
-2.55726e-20
4.19906e-19
5.88893e-19
2.74648e-19
1.29875e-19
1.12917e-19
2.01512e-19
2.33608e-19
1.5772e-19
1.89774e-19
2.3127e-19
1.30911e-19
1.30698e-19
1.33171e-19
9.62587e-20
7.41477e-20
7.10362e-20
2.85662e-20
-7.593e-21
-3.13978e-21
2.83387e-21
-4.10718e-21
-2.23677e-20
-9.77999e-20
-9.49583e-20
-1.14322e-19
-1.3595e-19
-1.45038e-19
-2.07206e-19
-1.77899e-19
-1.78495e-19
-1.94082e-19
-2.20059e-19
-1.82015e-19
-2.14154e-19
-2.02415e-19
-1.96088e-19
-1.84916e-19
-2.02947e-19
-1.85396e-19
-2.02498e-19
-2.02817e-19
-1.72857e-19
-1.91435e-19
-1.82802e-19
-2.01493e-19
-1.80305e-19
-1.94109e-19
-1.90557e-19
-1.76482e-19
-1.83473e-19
-1.73812e-19
-1.71692e-19
-1.74624e-19
-2.22633e-19
-5.79204e-19
-2.39183e-18
-3.18783e-18
-3.04163e-18
-3.01439e-18
-2.97625e-18
-2.8811e-18
-2.78742e-18
-2.67741e-18
-2.58649e-18
-2.6622e-18
-2.90619e-18
-3.29102e-18
-3.28424e-18
-2.96698e-18
-1.94356e-18
-1.22968e-18
-8.66521e-19
-3.53328e-19
-4.13358e-19
-4.68299e-19
-4.16432e-20
-1.4545e-19
1.91093e-20
-5.88191e-20
-2.583e-19
-9.27257e-20
-1.97218e-20
-1.70625e-19
-1.85079e-19
-2.40672e-20
-9.52973e-20
-4.87356e-21
2.2276e-20
5.83045e-20
1.4328e-19
6.80077e-20
1.81679e-19
2.17014e-19
2.89117e-19
4.12857e-19
3.03437e-19
3.04742e-19
-1.60553e-19
9.94608e-20
1.448e-19
-8.10841e-20
-1.11542e-19
-1.52235e-19
-7.52966e-20
-2.76012e-20
-2.17694e-20
-1.42945e-20
8.32915e-22
-3.80526e-21
3.83013e-20
7.88361e-21
-5.05478e-20
-3.057e-20
6.5955e-20
1.32554e-19
2.79922e-20
9.84377e-20
4.31893e-19
-1.38489e-19
2.08525e-19
1.12132e-19
2.78354e-20
3.76412e-20
-9.65194e-20
-2.3412e-19
-4.37998e-19
-5.19213e-19
-4.77779e-19
-4.74245e-19
-4.29726e-20
-1.72849e-20
3.78189e-20
1.21297e-19
6.33641e-20
-1.97254e-20
3.03336e-20
-4.54993e-20
-2.88979e-20
-1.09311e-19
-9.24389e-20
-2.03737e-19
-1.72329e-19
-2.59117e-19
-2.00608e-19
-2.1749e-19
-2.55389e-19
-2.45205e-19
-2.57169e-19
-2.38104e-19
-2.26536e-19
-2.40687e-19
-2.35029e-19
-2.19971e-19
-2.38582e-19
-2.32019e-19
-2.41951e-19
-2.23745e-19
-2.24928e-19
-2.15818e-19
-2.09951e-19
-1.96362e-19
-2.15768e-19
-1.81034e-19