/*--------------------------------*- C++ -*----------------------------------*\
| =========                 |                                                 |
| \\      /  F ield         | OpenFOAM: The Open Source CFD Toolbox           |
|  \\    /   O peration     | Version:  2.2.x                                 |
|   \\  /    A nd           | Web:      www.OpenFOAM.org                      |
|    \\/     M anipulation  |                                                 |
\*---------------------------------------------------------------------------*/
FoamFile
{
    version     2.0;
    format      ascii;
    class       surfaceScalarField;
    location    "1.65";
    object      phi;
}
// * * * * * * * * * * * * * * * * * * * * * * * * * * * * * * * * * * * * * //

dimensions      [1 0 -1 0 0 0 0];

internalField   nonuniform List<scalar> 
28084
(
0.000746228
0.000742993
0.000740222
0.00073789
0.000735983
0.000734478
0.000733329
0.000732524
0.00073206
0.000731906
0.000731995
0.000732337
0.000732892
0.000733618
0.000734519
0.000735572
0.000736733
0.000737943
0.000739252
0.00074061
0.00074196
0.000743337
0.0007447
0.000746021
0.000747262
0.000748448
0.000749603
0.000750679
0.000751658
0.000752526
0.000753279
0.000753911
0.000754416
0.00075479
0.000755028
0.00075507
0.00075507
0.000754966
0.00075468
0.000754169
0.000753483
0.000752758
0.000751911
0.000750802
0.000749582
0.000757644
0.00073106
0.000720337
0.000746901
0.000781881
0.000819403
0.000852119
0.000882645
0.000911019
0.000939122
0.00096634
0.00099264
0.00101735
0.00103945
0.00106049
0.00107907
0.00109488
0.0011089
0.00112156
0.0011327
0.00114258
0.00115162
0.0011599
0.00116734
0.00117372
0.00117899
0.00118364
0.00118767
0.00119103
0.0011934
0.00119488
0.00119536
0.00119536
0.00119439
0.00119281
0.00119073
0.00118799
0.00118412
0.00117958
0.00117468
0.00116913
0.00116317
0.00115701
0.00115085
0.00114486
0.00113818
0.00113037
0.00112484
0.00112155
0.00111902
0.00111696
0.00111561
0.00111414
0.00111034
0.00110879
0.00111152
0.00112135
0.0011364
0.00117222
0.00116399
0.00107413
0.000961488
0.000864842
0.000790375
0.000733819
0.000687809
0.000646988
0.00060539
0.000560518
0.000507612
0.00044457
0.00035762
0.000220361
3.70861e-06
3.23755e-06
0.000749753
2.77826e-06
0.000748801
2.33793e-06
0.000748285
1.90994e-06
0.000748181
1.50633e-06
0.000748454
1.15295e-06
0.000749089
8.08232e-07
0.000750113
4.69463e-07
0.000751472
1.63015e-07
0.000753086
-8.72539e-08
0.000754959
-3.35222e-07
0.000757112
-5.49574e-07
0.000759484
-7.39427e-07
0.00076201
-9.05949e-07
0.000764679
-1.03355e-06
0.000767484
-1.14399e-06
0.0007704
-1.23796e-06
0.000773375
-1.29782e-06
0.000776357
-1.33557e-06
0.000779387
-1.36449e-06
0.000782417
-1.37046e-06
0.000785395
-1.34573e-06
0.000788341
-1.3129e-06
0.000791215
-1.27443e-06
0.000793994
-1.21039e-06
0.000796632
-1.14055e-06
0.000799169
-1.05504e-06
0.000801613
-9.63459e-07
0.000803919
-8.62971e-07
0.000806074
-7.54848e-07
0.000808062
-6.3778e-07
0.000809877
-5.17307e-07
0.000811508
-3.87245e-07
0.000812959
-2.46921e-07
0.000814229
-1.06404e-07
0.000815309
7.98609e-09
0.000816181
1.40132e-07
0.000816856
2.90866e-07
0.000817343
4.62532e-07
0.00081759
6.10757e-07
0.000817759
7.28451e-07
0.000817699
9.1019e-07
0.000817462
1.0959e-06
0.000817027
1.14142e-06
0.000816249
-8.16263e-06
0.000815304
2.3232e-05
0.000823844
9.00551e-06
0.000837051
-2.54776e-05
0.000863794
-3.37281e-05
0.000891825
-3.66226e-05
0.000920547
-3.1464e-05
0.000949415
-2.98547e-05
0.000979488
-2.79425e-05
0.00100719
-2.76011e-05
0.00103214
-2.68057e-05
0.00105598
-2.59721e-05
0.00107908
-2.4501e-05
0.00110235
-2.22031e-05
0.00112469
-2.13227e-05
0.00114552
-1.86992e-05
0.00116617
-1.62322e-05
0.00118473
-1.46335e-05
0.00120031
-1.31348e-05
0.00121454
-1.18844e-05
0.00122709
-1.05826e-05
0.00123778
-9.30854e-06
0.00124719
-8.09079e-06
0.00125588
-6.96075e-06
0.00126367
-5.8302e-06
0.00127056
-4.51644e-06
0.00127675
-3.74451e-06
0.0012817
-3.07428e-06
0.00128533
-2.24635e-06
0.00128807
-1.1546e-06
0.00128992
-3.90768e-07
0.00129065
-7.34033e-08
0.00129036
5.32401e-09
0.0012893
8.38741e-07
0.00128762
1.35046e-06
0.00128503
1.73544e-06
0.00128193
2.36488e-06
0.00127873
3.342e-06
0.00127518
4.07827e-06
0.00127135
4.28404e-06
0.00126702
4.92444e-06
0.00126231
5.47567e-06
0.00125698
6.10175e-06
0.00125112
6.20022e-06
0.00124486
5.23162e-06
0.00123881
5.74567e-06
0.00123218
6.811e-06
0.00122529
4.50587e-06
0.00121973
2.27528e-06
0.00121375
1.58671e-06
0.00121015
1.46904e-06
0.00120709
9.78344e-07
0.00120244
1.94217e-06
0.00119952
4.05489e-06
0.00119448
1.54772e-06
0.00118805
-3.5317e-06
0.00118621
-1.08005e-05
0.00119039
-1.64337e-05
0.00120452
-3.65397e-05
0.00122695
1.09836e-05
0.00116062
9.25622e-05
0.00102455
0.000115574
0.000868766
9.84414e-05
0.000749906
7.56175e-05
0.000669376
5.74435e-05
0.00060994
4.67619e-05
0.000564094
4.03674e-05
0.000524091
4.03673e-05
0.000486574
4.36363e-05
0.000447738
5.22527e-05
0.000405931
6.32617e-05
0.000358311
8.7664e-05
0.000298604
0.00013828
0.000225564
0.000222024
0.000150219
5.10571e-06
4.19579e-06
0.000754441
3.29617e-06
0.000755742
2.44297e-06
0.000757434
1.6397e-06
0.000759514
8.75567e-07
0.000761983
1.32349e-07
0.00076481
-5.47614e-07
0.000767921
-1.13992e-06
0.000771318
-1.70277e-06
0.000775043
-2.23745e-06
0.00077902
-2.70553e-06
0.000783158
-3.06847e-06
0.000787457
-3.41509e-06
0.00079196
-3.71524e-06
0.000796582
-3.92641e-06
0.000801252
-4.10338e-06
0.000806002
-4.24743e-06
0.000810772
-4.31941e-06
0.000815513
-4.34547e-06
0.000820247
-4.35176e-06
0.000824929
-4.30461e-06
0.000829519
-4.20482e-06
0.000834015
-4.08594e-06
0.000838388
-3.95082e-06
0.000842611
-3.77081e-06
0.000846643
-3.56715e-06
0.000850511
-3.33954e-06
0.000854232
-3.09882e-06
0.000857758
-2.84183e-06
0.000861078
-2.56781e-06
0.000864172
-2.27533e-06
0.000867037
-1.97478e-06
0.000869667
-1.67268e-06
0.000872052
-1.34736e-06
0.000874153
-1.00075e-06
0.000876006
-6.78259e-07
0.000877753
-3.51677e-07
0.000879218
-2.3206e-08
0.000880402
3.03284e-07
0.000881271
6.67082e-07
0.000881943
9.98247e-07
0.0008825
1.41345e-06
0.000882863
1.83689e-06
0.000883079
2.02597e-06
0.00088311
-1.68305e-05
0.000882993
7.87324e-06
0.000892628
-1.88956e-05
0.00095301
-5.31929e-05
0.000999977
-6.25838e-05
0.00101398
-6.63446e-05
0.001027
-6.21919e-05
0.00104339
-5.94301e-05
0.00106074
-5.43777e-05
0.00107977
-5.28664e-05
0.00110029
-5.1739e-05
0.00112157
-5.11784e-05
0.00114187
-4.87812e-05
0.00116341
-4.44859e-05
0.00118472
-4.20078e-05
0.00120495
-3.66423e-05
0.00122428
-3.11758e-05
0.00124067
-2.80712e-05
0.00125367
-2.50758e-05
0.00126506
-2.23756e-05
0.00127481
-1.97258e-05
0.00128295
-1.72573e-05
0.00129024
-1.49123e-05
0.00129682
-1.28516e-05
0.00130253
-1.08843e-05
0.00130713
-8.35525e-06
0.00131066
-6.98089e-06
0.00131412
-5.60192e-06
0.00131634
-3.92431e-06
0.00131788
-2.03168e-06
0.00131893
-6.53651e-07
0.00131936
2.61542e-07
0.00131916
5.24056e-07
0.00131882
2.41074e-06
0.00131865
3.71405e-06
0.00131834
4.50447e-06
0.00131712
5.9018e-06
0.00131582
7.58185e-06
0.00131371
9.02214e-06
0.00131065
9.54841e-06
0.00130672
1.08461e-05
0.00130216
1.2059e-05
0.00129731
1.32856e-05
0.00129146
1.28592e-05
0.00128497
1.16975e-05
0.00127817
1.24266e-05
0.00127108
1.23273e-05
0.00126387
1.03561e-05
0.00125724
5.82151e-06
0.00125048
4.6462e-06
0.00124572
6.12139e-06
0.00124193
3.72557e-06
0.00123866
7.91398e-06
0.00123633
1.11529e-05
0.00123099
3.76937e-06
0.00122172
-7.54554e-06
0.00121669
-2.53132e-05
0.00121909
-3.97559e-05
0.00123437
3.13767e-05
0.00116093
0.000149841
0.00101626
0.000250355
0.000846053
0.000236784
0.000720107
0.000180899
0.000616981
0.000136502
0.000528658
0.000104205
0.000452052
8.68114e-05
0.000387135
7.72627e-05
0.000331201
7.85235e-05
0.000286621
8.49212e-05
0.000249396
9.97302e-05
0.000219219
0.000123296
0.00019091
0.000161348
0.000156951
0.000214637
0.000115087
0.000373903
7.52179e-05
4.22276e-06
2.89734e-06
0.000760319
1.60723e-06
0.000763832
3.67105e-07
0.000767731
-8.25963e-07
0.000771992
-1.94773e-06
0.000776577
-2.97452e-06
0.000781475
-3.94128e-06
0.00078672
-4.8598e-06
0.000792251
-5.67267e-06
0.000797978
-6.37015e-06
0.000803911
-7.00114e-06
0.000810082
-7.56784e-06
0.000816413
-8.04275e-06
0.000822804
-8.3879e-06
0.00082926
-8.65972e-06
0.000835822
-8.86521e-06
0.0008424
-9.00921e-06
0.000848939
-9.04492e-06
0.000855414
-9.00942e-06
0.00086183
-8.9424e-06
0.000868146
-8.79021e-06
0.000874338
-8.56387e-06
0.00088037
-8.30431e-06
0.000886217
-8.01813e-06
0.00089186
-7.66452e-06
0.000897256
-7.27198e-06
0.000902442
-6.84032e-06
0.000907421
-6.39546e-06
0.00091215
-5.9234e-06
0.000916622
-5.42992e-06
0.000920808
-4.91522e-06
0.000924704
-4.37535e-06
0.000928279
-3.81707e-06
0.000931608
-3.27173e-06
0.000934672
-2.72647e-06
0.000937384
-2.13511e-06
0.000939737
-1.5319e-06
0.000941818
-9.35384e-07
0.000943748
-4.16384e-07
0.000945464
1.43802e-07
0.000946699
7.1166e-07
0.000947539
1.24155e-06
0.000948086
1.75023e-06
0.000948523
2.07651e-06
0.000948667
-2.64766e-05
0.000948153
-5.10967e-05
0.00095586
-6.77675e-05
0.000965423
-7.04408e-05
0.000990021
-7.79513e-05
0.00101328
-8.43697e-05
0.00103656
-8.0876e-05
0.00106237
-8.03203e-05
0.00108891
-7.78313e-05
0.00111669
-7.72611e-05
0.0011452
-7.3896e-05
0.00117291
-7.24179e-05
0.00119894
-6.81211e-05
0.00122451
-6.28587e-05
0.00124658
-5.96015e-05
0.001266
-5.19842e-05
0.00128365
-4.43536e-05
0.00129804
-4.0012e-05
0.00131012
-3.55644e-05
0.0013214
-3.14607e-05
0.00133126
-2.76861e-05
0.00133959
-2.41259e-05
0.00134614
-2.07411e-05
0.00135101
-1.762e-05
0.00135434
-1.446e-05
0.00135646
-1.15824e-05
0.00135812
-8.9536e-06
0.00135986
-6.91951e-06
0.00136094
-4.70791e-06
0.0013611
-2.04187e-06
0.0013607
1.77525e-07
0.0013595
1.6338e-06
0.00135702
2.01469e-06
0.00135401
4.66658e-06
0.00135008
7.01846e-06
0.00134623
7.63126e-06
0.00134187
9.61799e-06
0.00133685
1.1773e-05
0.00133162
1.39638e-05
0.00132595
1.50989e-05
0.00131959
1.68321e-05
0.00131275
1.84997e-05
0.00130573
2.03015e-05
0.00129836
2.04079e-05
0.00129071
1.88647e-05
0.00128303
1.94096e-05
0.00127494
1.85882e-05
0.00126701
1.69616e-05
0.00125937
1.05758e-05
0.00125177
8.28838e-06
0.00124563
9.12328e-06
0.00124086
6.79354e-06
0.00123844
1.43292e-05
0.00122992
2.10951e-05
0.00122452
9.51163e-06
0.00121336
-9.90772e-06
0.00120977
-4.04117e-05
0.00121389
3.56145e-05
0.00111632
0.000179364
0.0009175
0.000323222
0.000742105
0.000378446
0.000639983
0.000341862
0.000586581
0.000271507
0.000537586
0.000214982
0.000476889
0.000169912
0.000405112
0.000142852
0.000329783
0.000121676
0.000264548
0.000115671
0.000211949
0.000115228
0.000166698
0.000128339
0.000128889
0.000157554
9.95611e-05
0.000203646
7.71032e-05
0.000255221
5.77885e-05
0.000450505
3.82714e-05
1.08869e-06
-6.13e-07
0.000767367
-2.28828e-06
0.000773069
-3.89006e-06
0.000779106
-5.40582e-06
0.000785479
-6.84125e-06
0.000792201
-8.21481e-06
0.000799233
-9.46797e-06
0.000806502
-1.05828e-05
0.000814009
-1.15997e-05
0.000821797
-1.25363e-05
0.000829785
-1.33278e-05
0.000837875
-1.3953e-05
0.000846067
-1.45006e-05
0.000854408
-1.49503e-05
0.000862799
-1.5231e-05
0.000871156
-1.53953e-05
0.000879477
-1.54929e-05
0.000887781
-1.54594e-05
0.000895987
-1.53118e-05
0.000904049
-1.51191e-05
0.000911974
-1.48092e-05
0.000919731
-1.44045e-05
0.000927275
-1.39499e-05
0.000934579
-1.34571e-05
0.000941621
-1.28736e-05
0.000948375
-1.22341e-05
0.000954855
-1.15386e-05
0.000961076
-1.08411e-05
0.000966994
-1.00957e-05
0.000972606
-9.32785e-06
0.000977871
-8.52054e-06
0.000982792
-7.71342e-06
0.000987372
-6.883e-06
0.000991583
-6.02494e-06
0.000995372
-5.12392e-06
0.000998904
-4.27795e-06
0.00100216
-3.43852e-06
0.00100502
-2.55836e-06
0.00100747
-1.66133e-06
0.00100959
-7.74724e-07
0.00101148
5.22301e-08
0.00101308
8.28134e-07
0.00101422
1.68883e-06
0.0010151
2.59669e-06
0.00101588
-3.42086e-05
0.00101619
-6.41353e-05
0.00102324
-9.36398e-05
0.00102116
-9.30913e-05
0.00101218
-0.000100664
0.00102713
-0.000109675
0.00105396
-0.000107144
0.00108462
-0.000107444
0.00111539
-0.000104597
0.00114543
-0.000102988
0.0011751
-9.80437e-05
0.00120328
-9.56003e-05
0.00123011
-8.89845e-05
0.0012559
-8.24288e-05
0.00127943
-7.71747e-05
0.00130105
-6.66643e-05
0.00131933
-5.61948e-05
0.0013348
-5.05345e-05
0.00134903
-4.44153e-05
0.00136036
-3.87666e-05
0.00136879
-3.38384e-05
0.00137683
-2.9175e-05
0.00138351
-2.47219e-05
0.00138865
-2.05968e-05
0.00139315
-1.65221e-05
0.00139646
-1.31154e-05
0.001398
-9.4983e-06
0.00139811
-6.4137e-06
0.00139692
-3.76404e-06
0.00139488
-5.14634e-07
0.00139216
2.57842e-06
0.00138894
4.48252e-06
0.00138518
5.68282e-06
0.00138111
8.73447e-06
0.00137656
1.18622e-05
0.00137236
1.30816e-05
0.00136777
1.52307e-05
0.00136263
1.77665e-05
0.0013572
2.07552e-05
0.00135123
2.21971e-05
0.00134424
2.39717e-05
0.00133607
2.58476e-05
0.00132719
2.77198e-05
0.00131791
2.77891e-05
0.0013084
2.61967e-05
0.00129899
2.66247e-05
0.00128954
2.57055e-05
0.00128039
2.41493e-05
0.00127262
1.61967e-05
0.00126254
1.25126e-05
0.00125521
1.08722e-05
0.00125048
1.55414e-05
0.00124713
2.00123e-05
0.00124042
3.2446e-05
0.00122573
1.38268e-05
0.00122191
-1.31055e-05
0.00121461
5.86967e-05
0.00111344
0.00023726
0.000870194
0.000355108
0.000682607
0.000426511
0.000568728
0.000432904
0.000509525
0.000392213
0.000482988
0.000334025
0.000460243
0.000288315
0.000426266
0.000246226
0.000382317
0.000208703
0.000329861
0.000174657
0.00026545
0.000160929
0.000198711
0.000152991
0.00014471
0.000157533
0.000105884
0.000179826
7.55241e-05
0.000223015
5.70024e-05
0.000275196
4.27191e-05
0.000490008
2.66656e-05
-4.2509e-06
-6.31134e-06
0.000775608
-8.32064e-06
0.000783445
-1.02596e-05
0.000791616
-1.21233e-05
0.000800104
-1.38706e-05
0.000808868
-1.54794e-05
0.000817897
-1.69709e-05
0.000827234
-1.83658e-05
0.000836811
-1.95802e-05
0.00084654
-2.06182e-05
0.000856419
-2.15162e-05
0.000866481
-2.22932e-05
0.000876646
-2.2891e-05
0.000886815
-2.33061e-05
0.000896988
-2.35494e-05
0.000907172
-2.36908e-05
0.0009173
-2.36963e-05
0.000927309
-2.3531e-05
0.000937183
-2.32281e-05
0.000946878
-2.28509e-05
0.000956385
-2.23372e-05
0.000965686
-2.17059e-05
0.000974723
-2.10005e-05
0.00098345
-2.02451e-05
0.000991859
-1.93795e-05
0.000999929
-1.84376e-05
0.00100769
-1.74302e-05
0.00101513
-1.64172e-05
0.00102222
-1.53387e-05
0.00102893
-1.42435e-05
0.00103528
-1.31101e-05
0.0010412
-1.19449e-05
0.00104672
-1.07642e-05
0.00105186
-9.59154e-06
0.00105658
-8.38725e-06
0.00106083
-7.14535e-06
0.00106464
-5.8961e-06
0.00106821
-4.69499e-06
0.00107155
-3.52715e-06
0.00107438
-2.33775e-06
0.00107665
-1.13944e-06
0.00107855
-5.93283e-08
0.00108002
1.04755e-06
0.00108111
2.28557e-06
0.00108141
-4.13747e-05
0.00108075
-6.62972e-05
0.0010864
-8.92304e-05
0.00105769
-0.000108293
0.00103127
-0.000127099
0.00104684
-0.000139925
0.00108031
-0.000138179
0.00112138
-0.000137516
0.00116169
-0.000133736
0.00120059
-0.000131382
0.00123694
-0.000125185
0.00127027
-0.000120787
0.00130033
-0.000112014
0.00132848
-0.000103997
0.00135466
-9.47341e-05
0.00137709
-8.19057e-05
0.00139695
-6.95512e-05
0.00141031
-6.16274e-05
0.00142518
-5.3257e-05
0.00143511
-4.62257e-05
0.00144272
-4.01049e-05
0.00144931
-3.41814e-05
0.00145501
-2.85197e-05
0.00145903
-2.34395e-05
0.00146189
-1.8425e-05
0.0014635
-1.37343e-05
0.00146428
-9.04754e-06
0.00146343
-5.22258e-06
0.00146123
-1.73419e-06
0.00145827
2.38743e-06
0.00145394
6.36675e-06
0.00144877
8.92478e-06
0.00144328
1.07623e-05
0.00143742
1.38446e-05
0.0014311
1.7685e-05
0.0014252
1.94145e-05
0.00141914
2.17108e-05
0.00141215
2.4671e-05
0.00140528
2.85285e-05
0.00139831
3.0551e-05
0.00138944
3.2425e-05
0.00137983
3.45623e-05
0.00136991
3.65751e-05
0.00135986
3.64939e-05
0.00134958
3.46758e-05
0.00133918
3.50793e-05
0.00132844
3.28475e-05
0.00131826
3.38896e-05
0.0013067
2.31216e-05
0.00129866
1.68714e-05
0.00129056
1.34381e-05
0.0012834
2.2029e-05
0.00127875
3.45303e-05
0.00127139
3.64401e-05
0.00125416
2.28463e-05
0.0012503
9.01194e-05
0.00118126
0.000303426
0.00094182
0.000425559
0.000746427
0.000469344
0.000594653
0.000486438
0.00049427
0.000460484
0.0004472
0.000416244
0.000422294
0.000369507
0.000401686
0.00033353
0.00037826
0.000299743
0.000349015
0.000273774
0.000314058
0.000241761
0.000270868
0.000214663
0.000218311
0.000191428
0.000160608
0.000187443
0.000117982
0.000198053
8.34005e-05
0.000237409
5.9722e-05
0.000291716
4.14715e-05
0.000517943
2.46247e-05
-1.17635e-05
-1.41458e-05
0.000785035
-1.64881e-05
0.00079497
-1.87417e-05
0.000805204
-2.08803e-05
0.00081573
-2.28961e-05
0.000826544
-2.48126e-05
0.000837627
-2.65435e-05
0.000848923
-2.80913e-05
0.00086042
-2.94545e-05
0.000872118
-3.06711e-05
0.000883972
-3.16787e-05
0.0008959
-3.24627e-05
0.000907883
-3.30582e-05
0.000919904
-3.34875e-05
0.000931919
-3.36804e-05
0.000943855
-3.36932e-05
0.000955678
-3.35636e-05
0.000967386
-3.32386e-05
0.000978923
-3.27342e-05
0.000990214
-3.21129e-05
0.00100127
-3.13494e-05
0.00101208
-3.04409e-05
0.00102259
-2.94319e-05
0.00103272
-2.83535e-05
0.00104248
-2.71661e-05
0.00105187
-2.58644e-05
0.00106087
-2.44906e-05
0.0010695
-2.30902e-05
0.00107772
-2.16467e-05
0.00108553
-2.01504e-05
0.00109292
-1.86338e-05
0.00109985
-1.70947e-05
0.0011063
-1.55124e-05
0.00111228
-1.39148e-05
0.00111786
-1.2323e-05
0.00112298
-1.07452e-05
0.00112758
-9.1152e-06
0.00113161
-7.46888e-06
0.00113539
-5.81139e-06
0.00113891
-4.27996e-06
0.00114212
-2.64741e-06
0.00114461
-1.05422e-06
0.00114667
5.88551e-07
0.00114839
2.44423e-06
0.00114957
-4.73647e-05
0.00115058
-4.21281e-05
0.00115664
-6.57456e-05
0.00116106
-0.00012415
0.00113425
-0.00016055
0.00113902
-0.000180795
0.00117118
-0.000178221
0.00121343
-0.000174578
0.001257
-0.00016832
0.00130144
-0.000165073
0.0013422
-0.000157489
0.00137882
-0.000148985
0.00140983
-0.00013893
0.00143915
-0.000126406
0.00146745
-0.000113284
0.00149167
-9.46738e-05
0.00151343
-8.2752e-05
0.00152694
-7.19616e-05
0.00154434
-6.13406e-05
0.00155427
-5.24641e-05
0.00156178
-4.54329e-05
0.00157035
-3.82602e-05
0.00157619
-3.14828e-05
0.00158077
-2.50498e-05
0.00158328
-1.92714e-05
0.00158497
-1.3305e-05
0.0015862
-7.31164e-06
0.00158516
-2.9916e-06
0.00158192
1.61138e-06
0.00157779
6.34481e-06
0.00157136
1.1146e-05
0.00156364
1.44977e-05
0.00155452
1.68948e-05
0.00154515
2.00882e-05
0.00153598
2.46359e-05
0.00152643
2.75831e-05
0.00151623
2.9946e-05
0.00150542
3.31394e-05
0.00149344
3.85294e-05
0.00148243
4.07892e-05
0.00146969
4.25049e-05
0.00145675
4.47258e-05
0.00144365
4.68439e-05
0.00143108
4.66795e-05
0.00141783
4.46857e-05
0.00140475
4.48408e-05
0.00139158
4.38911e-05
0.00137867
4.15057e-05
0.00136621
3.06573e-05
0.00135315
2.3539e-05
0.00134424
1.77902e-05
0.00133548
2.89273e-05
0.00132653
5.13548e-05
0.00131263
4.03448e-05
0.00130739
9.46706e-05
0.00125314
0.000331522
0.00103067
0.000499951
0.000837053
0.000577778
0.000690606
0.000570206
0.00058538
0.000534342
0.000494877
0.000486584
0.00043697
0.000438343
0.000407624
0.000394093
0.000385254
0.000363604
0.000361861
0.000335708
0.000336399
0.000317602
0.000308453
0.000294388
0.000275339
0.00027193
0.000234795
0.000233263
0.0001862
0.000221451
0.000139005
0.00022146
9.93604e-05
0.000256016
7.09067e-05
0.000309258
4.69408e-05
0.000543753
2.66892e-05
-2.13987e-05
-2.40785e-05
0.000795658
-2.67156e-05
0.000807648
-2.92618e-05
0.000819909
-3.1689e-05
0.000832439
-3.39761e-05
0.000845236
-3.61057e-05
0.000858281
-3.8034e-05
0.000871524
-3.97844e-05
0.000884966
-4.1303e-05
0.000898552
-4.2588e-05
0.00091226
-4.36578e-05
0.000926072
-4.44898e-05
0.0009399
-4.5062e-05
0.000953693
-4.54161e-05
0.000967465
-4.55193e-05
0.000981143
-4.53919e-05
0.000994649
-4.50801e-05
0.00100801
-4.45455e-05
0.00102116
-4.38017e-05
0.00103403
-4.2883e-05
0.00104659
-4.18186e-05
0.00105889
-4.05873e-05
0.00107083
-3.92221e-05
0.00108234
-3.77703e-05
0.00109341
-3.6195e-05
0.0011041
-3.44938e-05
0.00111434
-3.26914e-05
0.00112412
-3.08506e-05
0.00113346
-2.89818e-05
0.00114231
-2.70603e-05
0.00115069
-2.50954e-05
0.00115859
-2.31035e-05
0.00116597
-2.11012e-05
0.00117285
-1.90687e-05
0.00117919
-1.70082e-05
0.001185
-1.49419e-05
0.00119041
-1.29317e-05
0.00119538
-1.08976e-05
0.00119975
-8.85239e-06
0.00120362
-6.78292e-06
0.00120698
-4.74836e-06
0.00120997
-2.74993e-06
0.00121258
-7.51447e-07
0.00121475
1.19856e-06
0.00121622
-5.35839e-05
0.00121726
-5.19603e-05
0.00122218
-4.27726e-05
0.00117833
-0.000128731
0.00113717
-0.000192171
0.00115968
-0.000223011
0.00120184
-0.000221993
0.00125789
-0.000218741
0.0013183
-0.000208021
0.00138074
-0.000202944
0.00143682
-0.000194001
0.00149365
-0.000178467
0.0015414
-0.000166462
0.00157932
-0.000149448
0.00161821
-0.000133407
0.00164633
-0.000109712
0.00167775
-9.73009e-05
0.00169561
-8.27389e-05
0.00170775
-6.9744e-05
0.00172204
-6.09448e-05
0.00173599
-5.02007e-05
0.00174206
-4.2236e-05
0.00175037
-3.42237e-05
0.00175371
-2.69107e-05
0.00175474
-1.99617e-05
0.00175591
-1.17592e-05
0.00175642
-4.13842e-06
0.00175552
8.38367e-07
0.00175366
6.76969e-06
0.00174955
1.24578e-05
0.00174282
1.87973e-05
0.00173485
2.28692e-05
0.00172535
2.54985e-05
0.00171414
2.96201e-05
0.0017034
3.52688e-05
0.00169075
3.91953e-05
0.00167652
4.27018e-05
0.00166261
4.5278e-05
0.00164791
5.26111e-05
0.00162921
5.50187e-05
0.00161307
5.67838e-05
0.00159618
5.85139e-05
0.00157834
6.06271e-05
0.00156036
6.00878e-05
0.00154228
5.77001e-05
0.00152394
5.77198e-05
0.00150528
5.63954e-05
0.00148849
5.40473e-05
0.00147208
3.93394e-05
0.00145746
3.18453e-05
0.00144312
2.58881e-05
0.00143197
4.12124e-05
0.00141554
5.66436e-05
0.00140171
9.67154e-05
0.00136986
0.000320422
0.00115878
0.000526942
0.000891988
0.000647364
0.000756793
0.000683415
0.000659404
0.000661042
0.000582107
0.000593129
0.000518956
0.000517296
0.000462386
0.000462601
0.000420011
0.000418298
0.000387921
0.000389562
0.000359786
0.00036468
0.000333683
0.000351362
0.000307497
0.000334883
0.00027851
0.000319941
0.000244739
0.000279398
0.000205911
0.000260382
0.000159481
0.000249732
0.000115981
0.000280455
8.22164e-05
0.000330406
5.17977e-05
0.000571633
2.76946e-05
-3.31042e-05
-3.606e-05
0.000807492
-3.89731e-05
0.000821472
-4.17891e-05
0.000835714
-4.44833e-05
0.000850209
-4.70177e-05
0.000864927
-4.93442e-05
0.000879856
-5.14709e-05
0.000895015
-5.33674e-05
0.000910355
-5.50096e-05
0.000925802
-5.63797e-05
0.000941341
-5.74757e-05
0.00095695
-5.82951e-05
0.000972569
-5.88245e-05
0.000988122
-5.90816e-05
0.00100361
-5.90503e-05
0.00101898
-5.87441e-05
0.00103414
-5.82057e-05
0.00104911
-5.74205e-05
0.00106385
-5.63922e-05
0.00107826
-5.51372e-05
0.0010923
-5.371e-05
0.00110603
-5.21116e-05
0.00111936
-5.03414e-05
0.00113222
-4.84542e-05
0.0011446
-4.64453e-05
0.00115655
-4.42926e-05
0.001168
-4.20232e-05
0.00117891
-3.96848e-05
0.00118931
-3.73236e-05
0.0011992
-3.49208e-05
0.00120856
-3.24738e-05
0.00121739
-2.99922e-05
0.00122569
-2.74857e-05
0.00123342
-2.49631e-05
0.0012406
-2.24459e-05
0.00124723
-1.99194e-05
0.00125327
-1.73345e-05
0.00125874
-1.4783e-05
0.00126377
-1.22607e-05
0.00126842
-9.77941e-06
0.00127247
-7.31014e-06
0.00127585
-4.80021e-06
0.00127872
-2.22235e-06
0.00128128
1.51797e-07
0.00128314
-5.83951e-05
0.00128415
-1.37922e-05
0.00128868
-7.18634e-06
0.00130889
-0.0001522
0.00127976
-0.000234546
0.00132888
-0.000279712
0.00140577
-0.000283677
0.00149891
-0.00028184
0.00158625
-0.000264524
0.00165141
-0.000259335
0.00170448
-0.00024458
0.00175251
-0.000219566
0.00178647
-0.000204995
0.00181711
-0.000178509
0.00184037
-0.000160703
0.00185335
-0.00012952
0.00187033
-0.000110858
0.00187734
-9.59411e-05
0.00188416
-8.10465e-05
0.00189533
-6.70109e-05
0.00189739
-5.62927e-05
0.00189971
-4.50385e-05
0.00190112
-3.58453e-05
0.00189937
-2.8325e-05
0.00189828
-2.03272e-05
0.00189681
-1.03041e-05
0.00189387
-2.03562e-06
0.00188993
5.35774e-06
0.00188526
1.27676e-05
0.00188011
1.94309e-05
0.00187286
2.75046e-05
0.0018645
3.35524e-05
0.00185525
3.60746e-05
0.00184494
4.2442e-05
0.00183339
4.99865e-05
0.00182096
5.38011e-05
0.00180771
5.8756e-05
0.00179325
6.48716e-05
0.00177807
7.00446e-05
0.0017621
7.35548e-05
0.00174374
7.6092e-05
0.00172574
7.82248e-05
0.00170688
8.02648e-05
0.00168786
7.95471e-05
0.00166908
7.71584e-05
0.00165092
7.52935e-05
0.00163151
7.31029e-05
0.00161258
6.82726e-05
0.00159579
5.33203e-05
0.00157821
4.24585e-05
0.00156015
4.17465e-05
0.00154609
5.36669e-05
0.0015342
9.12421e-05
0.00151493
0.000310646
0.00132074
0.000587192
0.00107932
0.000663091
0.000872887
0.00074575
0.00070901
0.000761262
0.00061378
0.00072441
0.000555455
0.000650118
0.000506118
0.000560582
0.00045389
0.000496446
0.000410222
0.000446923
0.000378678
0.000415955
0.000351932
0.000391807
0.000326913
0.000381013
0.000302836
0.000368485
0.000277537
0.000358067
0.000249078
0.000324677
0.000216331
0.000303213
0.00017457
0.000283471
0.000130161
0.000311514
9.17745e-05
0.000355648
5.71207e-05
0.000600554
2.98602e-05
-4.68306e-05
-5.00366e-05
0.000820543
-5.32097e-05
0.000836461
-5.62782e-05
0.000852614
-5.91965e-05
0.000869001
-6.19428e-05
0.000885618
-6.44996e-05
0.000902451
-6.68043e-05
0.000919436
-6.88127e-05
0.000936557
-7.05478e-05
0.000953827
-7.19707e-05
0.000971167
-7.30835e-05
0.000988549
-7.38668e-05
0.0010059
-7.43075e-05
0.00102316
-7.44327e-05
0.00104033
-7.42359e-05
0.00105735
-7.37115e-05
0.00107412
-7.2904e-05
0.00109066
-7.18262e-05
0.00110693
-7.04676e-05
0.00112283
-6.88323e-05
0.00113832
-6.69956e-05
0.00115344
-6.49802e-05
0.00116812
-6.27684e-05
0.00118231
-6.03913e-05
0.00119596
-5.7875e-05
0.00120912
-5.52284e-05
0.00122173
-5.24487e-05
0.00123378
-4.95554e-05
0.00124519
-4.66554e-05
0.00125609
-4.37158e-05
0.00126641
-4.07365e-05
0.00127616
-3.77177e-05
0.00128533
-3.46809e-05
0.00129393
-3.1633e-05
0.0013019
-2.85802e-05
0.00130926
-2.55037e-05
0.00131602
-2.2407e-05
0.00132203
-1.93266e-05
0.00132755
-1.62715e-05
0.0013327
-1.32434e-05
0.00133732
-1.02166e-05
0.0013415
-7.23906e-06
0.00134527
-4.08015e-06
0.00134874
-1.00799e-06
0.00135135
-6.30356e-05
0.00135331
-4.04542e-05
0.00135836
1.46733e-05
0.00138476
-0.000202341
0.00146144
-0.000310718
0.0016287
-0.000371262
0.0017304
-0.000370227
0.00178885
-0.000346213
0.00183808
-0.00031823
0.00188014
-0.000305154
0.00191288
-0.000280956
0.0019395
-0.000249868
0.0019584
-0.00022624
0.00197266
-0.000198352
0.00198537
-0.000172633
0.00198493
-0.000143489
0.00199342
-0.000115968
0.0019938
-0.000102366
0.00199713
-8.19587e-05
0.00199727
-7.12541e-05
0.00199965
-5.7893e-05
0.00199869
-4.40549e-05
0.00199643
-3.50803e-05
0.00199563
-2.64107e-05
0.00199205
-1.72556e-05
0.00198807
-7.04531e-06
0.00198304
2.15812e-06
0.00197711
1.03702e-05
0.00197067
1.93994e-05
0.00196383
2.69371e-05
0.00195599
3.62445e-05
0.00194591
4.38266e-05
0.00193594
4.7749e-05
0.00192557
5.51379e-05
0.00191331
6.38262e-05
0.00189994
6.88688e-05
0.00188603
7.49453e-05
0.00187082
8.20238e-05
0.00185457
8.9356e-05
0.00183727
9.30501e-05
0.00181878
9.59571e-05
0.00180061
9.8725e-05
0.00178296
0.000100454
0.00176572
9.90582e-05
0.00174676
9.70755e-05
0.0017275
9.4287e-05
0.00170995
9.10979e-05
0.00169149
8.57883e-05
0.001674
7.15833e-05
0.00165906
5.63371e-05
0.0016441
5.40649e-05
0.00163236
7.45767e-05
0.00158672
0.000288551
0.00139925
0.000552616
0.00110078
0.000793436
0.000916361
0.000826895
0.000819955
0.000841319
0.000714549
0.000820006
0.00062861
0.000774051
0.000561989
0.000702601
0.000507739
0.000604696
0.000461365
0.00052929
0.00041746
0.000473938
0.000380844
0.00044115
0.00035019
0.000416782
0.000323348
0.000407029
0.000299206
0.000396656
0.000275045
0.00039003
0.000247943
0.000365225
0.000216891
0.000346604
0.000178885
0.000321753
0.00013897
0.000346989
0.000101317
0.000384303
6.1073e-05
0.000631747
2.86331e-05
-6.25176e-05
-6.59525e-05
0.000834824
-6.9358e-05
0.00085262
-7.2659e-05
0.000870632
-7.58074e-05
0.00088886
-7.87707e-05
0.000907307
-8.14819e-05
0.000925925
-8.39193e-05
0.000944713
-8.60776e-05
0.000963648
-8.78886e-05
0.000982659
-8.93317e-05
0.00100171
-9.042e-05
0.00102079
-9.11418e-05
0.00103984
-9.14698e-05
0.00105876
-9.14305e-05
0.00107755
-9.10305e-05
0.00109617
-9.02564e-05
0.00111451
-8.91324e-05
0.00113257
-8.77232e-05
0.00115033
-8.59904e-05
0.0011677
-8.39308e-05
0.0011846
-8.16445e-05
0.00120107
-7.91553e-05
0.00121705
-7.64538e-05
0.00123251
-7.35409e-05
0.00124739
-7.04697e-05
0.00126173
-6.72671e-05
0.00127548
-6.39281e-05
0.00128861
-6.04652e-05
0.00130107
-5.69538e-05
0.00131286
-5.34268e-05
0.00132411
-4.98631e-05
0.00133477
-4.62614e-05
0.00134481
-4.26334e-05
0.00135423
-3.89925e-05
0.00136306
-3.53843e-05
0.00137126
-3.17583e-05
0.00137871
-2.81095e-05
0.00138545
-2.4475e-05
0.00139127
-2.08371e-05
0.00139654
-1.73045e-05
0.00140167
-1.37994e-05
0.0014063
-1.02783e-05
0.00141037
-6.69097e-06
0.00141359
-3.31033e-06
0.00141582
-6.83689e-05
0.00141711
-6.74808e-05
0.00141943
-8.30867e-05
0.00143403
-0.000363675
0.00179469
-0.00040572
0.00194867
-0.000425039
0.00198026
-0.000415881
0.00198774
-0.00038648
0.00200344
-0.000355033
0.0020209
-0.000327692
0.00203441
-0.00029796
0.00205039
-0.000265996
0.00206593
-0.000237264
0.00206756
-0.000207792
0.00207537
-0.00017401
0.00206836
-0.000151244
0.00207497
-0.000115013
0.00206369
-9.59075e-05
0.00206638
-8.5482e-05
0.00207344
-7.13625e-05
0.00206622
-5.65345e-05
0.0020596
-4.37217e-05
0.00205481
-3.23374e-05
0.00205016
-2.31307e-05
0.00204403
-1.3245e-05
0.00203707
-2.42244e-06
0.00202994
7.70298e-06
0.00202302
1.59777e-05
0.00201601
2.57738e-05
0.00200833
3.57915e-05
0.00199984
4.52684e-05
0.0019911
5.38782e-05
0.00198144
5.9807e-05
0.00197086
6.84084e-05
0.00195844
7.79103e-05
0.00194458
8.43569e-05
0.00193025
9.15698e-05
0.00191463
9.98104e-05
0.00189756
0.000108482
0.0018799
0.000112009
0.00186097
0.000114348
0.00184148
0.000117517
0.00182336
0.000119954
0.00180415
0.000118663
0.00178524
0.00011616
0.00176768
0.000113206
0.00175026
0.000108957
0.00173369
0.00010102
0.00172109
8.6733e-05
0.00169368
6.83071e-05
0.0016581
0.00010223
0.00155504
0.00026298
0.00134961
0.00058865
0.00108618
0.000737133
0.000921757
0.000888716
0.000773314
0.0009315
0.000693722
0.000926889
0.000627917
0.000886657
0.00056736
0.000828508
0.00051364
0.000749355