/*--------------------------------*- C++ -*----------------------------------*\
| =========                 |                                                 |
| \\      /  F ield         | OpenFOAM: The Open Source CFD Toolbox           |
|  \\    /   O peration     | Version:  2.2.x                                 |
|   \\  /    A nd           | Web:      www.OpenFOAM.org                      |
|    \\/     M anipulation  |                                                 |
\*---------------------------------------------------------------------------*/
FoamFile
{
    version     2.0;
    format      ascii;
    class       volScalarField;
    location    "3.2";
    object      p;
}
// * * * * * * * * * * * * * * * * * * * * * * * * * * * * * * * * * * * * * //

dimensions      [1 -1 -2 0 0 0 0];

internalField   nonuniform List<scalar> 
14161
(
0.2
0.2
0.2
0.2
0.2
0.2
0.2
0.2
0.2
0.2
0.2
0.2
0.2
0.2
0.2
0.2
0.199991
0.207795
1.19818
1.64806
1.66423
1.67543
1.6869
1.69759
1.70774
1.71733
1.72654
1.73531
1.74382
1.75177
1.75933
1.76642
1.77323
1.77962
1.78578
1.7915
1.79697
1.80204
1.80686
1.81132
1.8156
1.81955
1.82336
1.82687
1.83027
1.8335
1.83678
1.84004
1.84331
1.84659
1.84988
1.85317
1.85646
1.85976
1.86305
1.86635
1.86964
1.87295
1.87626
1.87958
1.88291
1.88626
1.88962
1.89299
1.89636
1.89974
1.90312
1.90651
1.90991
1.91333
1.91677
1.92023
1.92372
1.92722
1.93072
1.93423
1.93773
1.94123
1.94473
1.94825
1.95179
1.95535
1.95894
1.96252
1.96612
1.96978
1.97347
1.97718
1.9809
1.98464
1.98835
1.99199
1.99566
1.99935
2.00307
2.00674
2.01037
2.01412
2.0179
2.02167
2.02543
2.02915
2.03283
2.03645
2.04
2.04349
2.04689
2.05022
2.05343
2.05649
2.05939
2.06212
2.06465
2.06694
2.06895
2.07065
2.07187
2.07265
2.07344
0.2
0.2
0.2
0.2
0.2
0.2
0.2
0.2
0.2
0.2
0.2
0.2
0.2
0.2
0.2
0.2
0.19999
0.207799
1.20095
1.64874
1.6646
1.67583
1.68735
1.6981
1.7083
1.71793
1.72719
1.73599
1.74453
1.7525
1.76008
1.76719
1.774
1.78039
1.78657
1.79229
1.79776
1.80282
1.80765
1.81211
1.81639
1.82034
1.82415
1.82766
1.83106
1.83427
1.83753
1.84078
1.84404
1.8473
1.85057
1.85386
1.85714
1.86042
1.8637
1.86699
1.87027
1.87356
1.87687
1.88017
1.8835
1.88684
1.8902
1.89356
1.89693
1.9003
1.90368
1.90707
1.91047
1.91389
1.91733
1.9208
1.92429
1.92779
1.9313
1.93481
1.93832
1.94182
1.94533
1.94885
1.9524
1.95597
1.95955
1.96314
1.96675
1.97042
1.97411
1.97783
1.98156
1.98528
1.98898
1.99265
1.99628
1.99995
2.00365
2.00734
2.01097
2.01473
2.0185
2.02228
2.02603
2.02974
2.03341
2.03702
2.04056
2.04403
2.04741
2.0507
2.05388
2.05691
2.05977
2.06246
2.06494
2.06718
2.06912
2.0708
2.07217
2.07319
2.07377
0.2
0.2
0.2
0.2
0.2
0.2
0.2
0.2
0.2
0.2
0.2
0.2
0.2
0.2
0.2
0.2
0.199989
0.207757
1.20157
1.64838
1.66427
1.67544
1.68689
1.69758
1.70773
1.71731
1.72652
1.73528
1.74379
1.75174
1.7593
1.76639
1.7732
1.77959
1.78575
1.79147
1.79693
1.802
1.80682
1.81129
1.81556
1.81952
1.82332
1.82684
1.83024
1.83347
1.83675
1.84001
1.84328
1.84656
1.84984
1.85313
1.85642
1.8597
1.86299
1.86627
1.86955
1.87285
1.87615
1.87945
1.88277
1.88611
1.88946
1.89282
1.89618
1.89954
1.90291
1.90629
1.90968
1.91308
1.91651
1.91996
1.92343
1.92692
1.93042
1.93391
1.9374
1.94089
1.9444
1.94792
1.95145
1.95501
1.95859
1.96218
1.96579
1.96947
1.97319
1.97692
1.98066
1.98436
1.98802
1.99167
1.99533
1.999
2.00267
2.00634
2.00997
2.01371
2.01747
2.02123
2.02497
2.02867
2.03233
2.03593
2.03946
2.04292
2.04628
2.04956
2.05272
2.05573
2.05856
2.06121
2.06364
2.06583
2.06774
2.06931
2.07047
2.07118
2.07187
0.2
0.2
0.2
0.2
0.2
0.2
0.2
0.2
0.2
0.2
0.2
0.2
0.2
0.2
0.2
0.2
0.199988
0.207647
1.20268
1.64808
1.66415
1.67535
1.68679
1.69746
1.70759
1.71717
1.72636
1.73512
1.74361
1.75155
1.7591
1.76619
1.77298
1.77936
1.78552
1.79124
1.7967
1.80176
1.80657
1.81104
1.8153
1.81927
1.82306
1.82658
1.82997
1.8332
1.83647
1.83973
1.84299
1.84626
1.84953
1.85282
1.8561
1.85938
1.86266
1.86594
1.86922
1.87251
1.8758
1.87911
1.88243
1.88576
1.88911
1.89247
1.89583
1.8992
1.90257
1.90595
1.90935
1.91276
1.91619
1.91964
1.92312
1.9266
1.93009
1.93358
1.93706
1.94054
1.94403
1.94754
1.95106
1.95459
1.95815
1.96174
1.96533
1.96899
1.9727
1.97642
1.98015
1.98384
1.9875
1.99116
1.99483
1.99852
2.00221
2.0059
2.00955
2.01328
2.01703
2.02078
2.0245
2.02818
2.0318
2.03537
2.03886
2.04227
2.04558
2.0488
2.0519
2.05484
2.0576
2.06018
2.06254
2.06466
2.06648
2.06798
2.06907
2.06967
2.07014
0.2
0.2
0.2
0.2
0.2
0.2
0.2
0.2
0.2
0.2
0.2
0.2
0.2
0.2
0.2
0.2
0.199987
0.207468
1.20352
1.64779
1.66402
1.67526
1.68668
1.69735
1.70747
1.71703
1.72622
1.73496
1.74344
1.75137
1.75891
1.766
1.77278
1.77916
1.7853
1.79102
1.79646
1.80152
1.80632
1.81079
1.81505
1.81901
1.82279
1.82632
1.8297
1.83293
1.83619
1.83944
1.8427
1.84596
1.84924
1.85251
1.85579
1.85906
1.86233
1.8656
1.86888
1.87216
1.87545
1.87875
1.88205
1.88538
1.88872
1.89207
1.89542
1.89878
1.90214
1.90551
1.90889
1.91228
1.9157
1.91915
1.92261
1.92609
1.92957
1.93305
1.93653
1.94001
1.94349
1.94699
1.95049
1.95401
1.95757
1.96115
1.96472
1.96838
1.97207
1.97579
1.9795
1.98317
1.98683
1.9905
1.99417
1.99787
2.00156
2.00525
2.0089
2.01263
2.01637
2.02009
2.02379
2.02745
2.03105
2.03458
2.03804
2.04141
2.04468
2.04784
2.05088
2.05374
2.05642
2.0589
2.06114
2.06312
2.06478
2.06609
2.06696
2.06726
2.06735
0.2
0.2
0.2
0.2
0.2
0.2
0.2
0.2
0.2
0.2
0.2
0.2
0.2
0.2
0.2
0.2
0.199987
0.207215
1.2041
1.64743
1.66383
1.67512
1.68653
1.69719
1.70728
1.71683
1.726
1.73473
1.74319
1.75112
1.75864
1.76572
1.77249
1.77887
1.785
1.79072
1.79615
1.80121
1.806
1.81047
1.81472
1.81868
1.82245
1.82598
1.82935
1.83259
1.83584
1.83908
1.84234
1.84559
1.84885
1.85212
1.85538
1.85865
1.86191
1.86516
1.86842
1.87169
1.87496
1.87825
1.88154
1.88486
1.88819
1.89152
1.89486
1.89821
1.90156
1.90492
1.90829
1.91167
1.91508
1.91851
1.92196
1.92543
1.9289
1.93237
1.93584
1.93931
1.94278
1.94626
1.94976
1.95327
1.95681
1.96039
1.96395
1.9676
1.97129
1.97499
1.97869
1.98235
1.98601
1.98968
1.99336
1.99704
2.00074
2.00442
2.00808
2.0118
2.01552
2.01923
2.02291
2.02654
2.03011
2.0336
2.03702
2.04033
2.04354
2.04664
2.04959
2.05236
2.05493
2.05728
2.05938
2.06119
2.06267
2.06377
2.06441
2.06448
2.06409
0.2
0.2
0.2
0.2
0.2
0.2
0.2
0.2
0.2
0.2
0.2
0.2
0.2
0.2
0.2
0.2
0.199987
0.206896
1.20445
1.64706
1.66361
1.67495
1.68634
1.69699
1.70705
1.71658
1.72573
1.73445
1.74289
1.7508
1.75831
1.76538
1.77214
1.77851
1.78463
1.79034
1.79575
1.80081
1.80558
1.81006
1.81428
1.81825
1.82201
1.82553
1.8289
1.83214
1.83537
1.83861
1.84186
1.8451
1.84836
1.85161
1.85486
1.85811
1.86135
1.86459
1.86784
1.87109
1.87434
1.87761
1.88089
1.88419
1.8875
1.89082
1.89415
1.89748
1.90082
1.90417
1.90752
1.9109
1.91429
1.91771
1.92115
1.9246
1.92805
1.93151
1.93497
1.93843
1.94189
1.94536
1.94884
1.95234
1.95588
1.95945
1.963
1.96664
1.97032
1.97402
1.9777
1.98136
1.98502
1.98869
1.99237
1.99605
1.99974
2.00342
2.00707
2.01077
2.01448
2.01817
2.02181
2.02541
2.02894
2.03239
2.03575
2.039
2.04214
2.04515
2.048
2.05065
2.05309
2.05529
2.05723
2.05885
2.06012
2.06098
2.06133
2.06095
2.06004
0.2
0.2
0.2
0.2
0.2
0.2
0.2
0.2
0.2
0.2
0.2
0.2
0.2
0.2
0.2
0.2
0.199987
0.206503
1.20434
1.64664
1.66333
1.67473
1.68608
1.69672
1.70676
1.71627
1.7254
1.7341
1.74251
1.75041
1.7579
1.76496
1.77171
1.77807
1.78416
1.78987
1.79526
1.8003
1.80506
1.80953
1.81375
1.81771
1.82146
1.82497
1.82834
1.83157
1.83479
1.83802
1.84125
1.84449
1.84773
1.85097
1.8542
1.85743
1.86066
1.86388
1.86711
1.87034
1.87357
1.87682
1.88009
1.88336
1.88666
1.88996
1.89327
1.89658
1.8999
1.90323
1.90658
1.90994
1.91332
1.91672
1.92014
1.92357
1.92701
1.93045
1.9339
1.93734
1.94079
1.94425
1.94772
1.95121
1.95474
1.9583
1.96185
1.96548
1.96915
1.97284
1.97651
1.98017
1.98383
1.9875
1.99118
1.99486
1.99854
2.00222
2.00587
2.00955
2.01325
2.01691
2.02052
2.02407
2.02755
2.03094
2.03424
2.03742
2.04047
2.04338
2.04611
2.04863
2.05092
2.05295
2.05469
2.05609
2.0571
2.05765
2.05767
2.05684
2.05528
0.2
0.2
0.2
0.2
0.2
0.2
0.2
0.2
0.2
0.2
0.2
0.2
0.2
0.2
0.2
0.2
0.199987
0.206051
1.2037
1.64617
1.663
1.67445
1.68577
1.69639
1.7064
1.71588
1.72499
1.73367
1.74204
1.74993
1.7574
1.76445
1.77118
1.77753
1.78359
1.78928
1.79465
1.79969
1.80443
1.80889
1.81309
1.81705
1.82078
1.82429
1.82764
1.83087
1.83408
1.8373
1.84051
1.84374
1.84696
1.85018
1.8534
1.85661
1.85981
1.86301
1.86622
1.86942
1.87264
1.87587
1.87911
1.88236
1.88563
1.88891
1.8922
1.89549
1.89879
1.9021
1.90543
1.90877
1.91213
1.91551
1.91891
1.92232
1.92575
1.92917
1.9326
1.93604
1.93947
1.94292
1.94638
1.94987
1.95339
1.95694
1.96048
1.96411
1.96777
1.97144
1.97511
1.97877
1.98243
1.9861
1.98977
1.99345
1.99713
2.0008
2.00444
2.0081
2.01176
2.01539
2.01897
2.02249
2.02592
2.02925
2.03247
2.03557
2.03852
2.04132
2.04392
2.04629
2.04841
2.05025
2.05177
2.05292
2.05365
2.05386
2.05342
2.05219
2.04995
0.2
0.2
0.2
0.2
0.2
0.2
0.2
0.2
0.2
0.2
0.2
0.2
0.2
0.2
0.2
0.2
0.199988
0.205559
1.20275
1.64568
1.66262
1.67412
1.6854
1.696
1.70597
1.71543
1.72451
1.73316
1.74151
1.74937
1.75682
1.76385
1.77055
1.77689
1.78291
1.78858
1.79392
1.79895
1.80367
1.80811
1.8123
1.81624
1.81996
1.82346
1.8268
1.83002
1.83322
1.83642
1.83962
1.84283
1.84603
1.84923
1.85243
1.85562
1.8588
1.86198
1.86516
1.86834
1.87153
1.87473
1.87794
1.88117
1.88442
1.88767
1.89093
1.8942
1.89748
1.90077
1.90407
1.90739
1.91072
1.91408
1.91746
1.92085
1.92425
1.92766
1.93108
1.9345
1.93792
1.94136
1.94481
1.94829
1.9518
1.95535
1.95888
1.96249
1.96615
1.96981
1.97348
1.97714
1.9808
1.98446
1.98813
1.9918
1.99547
1.99913
2.00274
2.00637
2.01001
2.0136
2.01713
2.0206
2.02397
2.02724
2.03039
2.03339
2.03624
2.03891
2.04137
2.04358
2.04551
2.04713
2.04841
2.04928
2.0497
2.04957
2.04859
2.04681
2.0439
0.2
0.2
0.2
0.2
0.2
0.2
0.2
0.2
0.2
0.2
0.2
0.2
0.2
0.2
0.2
0.2
0.199989
0.205032
1.20126
1.64514
1.66218
1.67371
1.68494
1.69552
1.70545
1.71489
1.72394
1.73257
1.74088
1.74872
1.75614
1.76315
1.76982
1.77613
1.78212
1.78776
1.79307
1.79808
1.80277
1.80721
1.81137
1.8153
1.819
1.82248
1.82582
1.82902
1.8322
1.83539
1.83857
1.84176
1.84494
1.84812
1.85129
1.85445
1.85761
1.86076
1.86391
1.86706
1.87022
1.8734
1.87658
1.87978
1.88299
1.88621
1.88945
1.89269
1.89594
1.89921
1.90248
1.90577
1.90908
1.91241
1.91576
1.91913
1.92252
1.92591
1.92931
1.93271
1.93612
1.93955
1.943
1.94647
1.94997
1.9535
1.95703
1.96063
1.96427
1.96794
1.9716
1.97526
1.97892
1.98258
1.98625
1.98992
1.99358
1.99723
2.00083
2.00444
2.00805
2.01162
2.01512
2.01855
2.02188
2.02509
2.02816
2.03106
2.03379
2.03632
2.03861
2.04063
2.04235
2.04372
2.04473
2.04529
2.04538
2.04475
2.04322
2.04082
2.03713
0.2
0.2
0.2
0.2
0.2
0.2
0.2
0.2
0.2
0.2
0.2
0.2
0.2
0.2
0.2
0.2
0.199991
0.204481
1.19921
1.64457
1.66167
1.67322
1.68441
1.69497
1.70486
1.71427
1.72329
1.7319
1.74017
1.74798
1.75536
1.76235
1.76899
1.77527
1.78121
1.78682
1.7921
1.79708
1.80174
1.80615
1.81029
1.8142
1.81789
1.82135
1.82467
1.82786
1.83102
1.83419
1.83735
1.84051
1.84366
1.84681
1.84995
1.85309
1.85621
1.85934
1.86245
1.86558
1.86871
1.87185
1.875
1.87816
1.88134
1.88453
1.88774
1.89095
1.89417
1.89741
1.90065
1.90391
1.90719
1.91049
1.91381
1.91716
1.92052
1.92389
1.92727
1.93066
1.93406
1.93748
1.94092
1.94438
1.94787
1.95139
1.95491
1.9585
1.96214
1.96579
1.96945
1.97311
1.97677
1.98043
1.98409
1.98775
1.9914
1.99503
1.9986
2.00218
2.00575
2.00927
2.01272
2.01609
2.01934
2.02247
2.02544
2.02824
2.03085
2.03325
2.03538
2.03721
2.03872
2.03986
2.04059
2.04082
2.04051
2.03945
2.03736
2.03441
2.02992
0.2
0.2
0.2
0.2
0.2
0.2
0.2
0.2
0.2
0.2
0.2
0.2
0.2
0.2
0.2
0.2
0.199992
0.203912
1.19655
1.64396
1.66109
1.67266
1.6838
1.69433
1.70419
1.71357
1.72255
1.73114
1.73935
1.74713
1.75448
1.76144
1.76803
1.77428
1.78018
1.78575
1.79099
1.79594
1.80057
1.80495
1.80907
1.81295
1.81661
1.82006
1.82335
1.82652
1.82966
1.8328
1.83593
1.83906
1.84218
1.8453
1.84841
1.85152
1.85461
1.8577
1.86078
1.86387
1.86696
1.87007
1.87318
1.87631
1.87945
1.88261
1.88578
1.88896
1.89214
1.89534
1.89855
1.90178
1.90503
1.9083
1.91159
1.91491
1.91824
1.92159
1.92496
1.92834
1.93173
1.93514
1.93856
1.94201
1.94549
1.94899
1.95251
1.9561
1.95973
1.96338
1.96704
1.9707
1.97436
1.97802
1.98167
1.98533
1.98896
1.99257
1.99612
1.99967
2.0032
2.00667
2.01006
2.01336
2.01654
2.01958
2.02245
2.02513
2.02761
2.02985
2.0318
2.03343
2.03471
2.03558
2.036
2.03591
2.03514
2.03362
2.03092
2.02737
2.02194
0.2
0.2
0.2
0.2
0.2
0.2
0.2
0.2
0.2
0.2
0.2
0.2
0.2
0.2
0.2
0.200001
0.199994
0.203326
1.19321
1.64328
1.66043
1.67201
1.68309
1.69359
1.70342
1.71278
1.72172
1.73028
1.73844
1.74619
1.75349
1.76042
1.76697
1.77317
1.77902
1.78456
1.78975
1.79465
1.79925
1.8036
1.80768
1.81154
1.81516
1.81858
1.82184
1.82499
1.8281
1.83121
1.83431
1.8374
1.8405
1.84358
1.84665
1.84972
1.85278
1.85583
1.85888
1.86192
1.86498
1.86804
1.87111
1.8742
1.8773
1.88042
1.88355
1.88669
1.88984
1.893
1.89617
1.89937
1.90258
1.90582
1.90908
1.91236
1.91567
1.91901
1.92235
1.92571
1.92909
1.93249
1.9359
1.93934
1.9428
1.94628
1.94981
1.9534
1.95702
1.96067
1.96433
1.96799
1.97165
1.97531
1.97896
1.98261
1.98623
1.98983
1.99334
1.99687
2.00036
2.00379
2.00712
2.01036
2.01346
2.01641
2.01919
2.02175
2.0241
2.02617
2.02793
2.02934
2.03036
2.03095
2.03106
2.03053
2.02933
2.0273
2.024
2.01995
2.01352
0.2
0.2
0.2
0.2
0.2
0.2
0.2
0.2
0.2
0.2
0.2
0.2
0.2
0.2
0.2
0.200001
0.199995
0.202725
1.18915
1.64253
1.6597
1.67126
1.68229
1.69276
1.70256
1.71189
1.7208
1.72932
1.73743
1.74513
1.75239
1.75928
1.76578
1.77194
1.77773
1.78322
1.78836
1.79322
1.79778
1.80208
1.80612
1.80994
1.81353
1.81691
1.82014
1.82326
1.82633
1.8294
1.83247
1.83553
1.83858
1.84162
1.84466
1.84769
1.8507
1.85371
1.85672
1.85972
1.86273
1.86574
1.86877
1.87181
1.87487
1.87794
1.88103
1.88412
1.88723
1.89036
1.89349
1.89665
1.89983
1.90303
1.90625
1.90951
1.91279
1.9161
1.91942
1.92277
1.92613
1.92951
1.93292
1.93635
1.93981
1.94326
1.94679
1.95038
1.954
1.95765
1.96131
1.96497
1.96862
1.97228
1.97592
1.97955
1.98317
1.98674
1.99022
1.99371
1.99716
2.00053
2.00382
2.00698
2.01001
2.01286
2.01552
2.01796
2.02016
2.02206
2.02362
2.02479
2.02556
2.02584
2.02559
2.02465
2.023
2.02041
2.01643
2.01193
2.00441
0.2
0.2
0.2
0.2
0.2
0.2
0.2
0.2
0.2
0.2
0.2
0.2
0.2
0.2
0.2
0.200003
0.199997
0.202113
1.1843
1.6417
1.65887
1.6704
1.68138
1.69183
1.7016
1.7109
1.71978
1.72826
1.73631
1.74397
1.75117
1.75802
1.76446
1.77057
1.7763
1.78173
1.78682
1.79163
1.79613
1.80039
1.80438
1.80815
1.8117
1.81504
1.81822
1.82131
1.82434
1.82738
1.8304
1.83342
1.83643
1.83943
1.84242
1.8454
1.84837
1.85133
1.85428
1.85724
1.8602
1.86316
1.86614
1.86913
1.87214
1.87516
1.8782
1.88126
1.88432
1.8874
1.8905
1.89361
1.89675
1.89992
1.90311
1.90633
1.90958
1.91286
1.91616
1.91949
1.92284
1.92621
1.92961
1.93303
1.93647
1.93993
1.94347
1.94706
1.95068
1.95433
1.95799
1.96166
1.96533
1.96899
1.97264
1.97627
1.97988
1.98345
1.9869
1.99037
1.99379
1.99713
2.00035
2.00344
2.00637
2.00912
2.01165
2.01395
2.01597
2.01767
2.01901
2.01993
2.02042
2.02042
2.0197
2.01841
2.01623
2.01308
2.00837
2.00344
1.99478
0.2
0.2
0.2
0.2
0.2
0.2
0.2
0.2
0.2
0.2
0.2
0.2
0.2
0.2
0.2
0.200005
0.199995
0.201487
1.17859
1.64081
1.65796
1.66944
1.68037
1.69079
1.70053
1.70981
1.71864
1.72707
1.73507
1.74268
1.74983
1.75662
1.763
1.76905
1.77472
1.78008
1.7851
1.78985
1.79429
1.7985
1.80243
1.80616
1.80965
1.81295
1.81608
1.81913
1.82211
1.82511
1.82809
1.83106
1.83402
1.83697
1.83991
1.84284
1.84575
1.84866
1.85156
1.85446
1.85737
1.86028
1.86321
1.86615
1.8691
1.87207
1.87506
1.87807
1.88108
1.88412
1.88717
1.89024
1.89334
1.89646
1.89962
1.9028
1.90602
1.90927
1.91255
1.91586
1.91919
1.92255
1.92594
1.92936
1.93278
1.93625
1.93979
1.94338
1.947
1.95065
1.95431
1.95797
1.96163
1.96528
1.96892
1.97254
1.97612
1.97965
1.98308
1.98651
1.98988
1.99316
1.99632
1.99933
2.00218
2.00482
2.00724
2.0094
2.01126
2.01278
2.01391
2.0146
2.0148
2.01443
2.01339
2.01165
2.00899
2.00531
1.99982
1.99446
1.9847
0.2
0.2
0.2
0.2
0.2
0.2
0.2
0.2
0.2
0.2
0.2
0.2
0.2
0.2
0.2
0.200008
0.199983
0.200837
1.17192
1.63986
1.65696
1.66837
1.67925
1.68964
1.69934
1.70858
1.71737
1.72576
1.73371
1.74126
1.74835
1.75508
1.76138
1.76736
1.77295
1.77824
1.78319
1.78787
1.79225
1.79639
1.80027
1.80394
1.80738
1.81063
1.81371
1.81671
1.81965
1.82259
1.82552
1.82844
1.83135
1.83424
1.83712
1.83999
1.84285
1.8457
1.84854
1.85139
1.85423
1.85709
1.85996
1.86284
1.86574
1.86865
1.87158
1.87453
1.8775
1.88048
1.88349
1.88652
1.88957
1.89265
1.89576
1.89891
1.9021
1.90532
1.90858
1.91187
1.91519
1.91855
1.92194
1.92534
1.92875
1.93224
1.93579
1.93939
1.94302
1.94667
1.95033
1.954
1.95767
1.96132
1.96496
1.96856
1.97213
1.97562
1.97902
1.98241
1.98573
1.98893
1.99201
1.99493
1.99766
2.00019
2.00247
2.00448
2.00616
2.00747
2.00836
2.0088
2.00873
2.00796
2.00656
2.00436
2.00119
1.997
1.9907
1.98482
1.97396
0.2
0.2
0.2
0.2
0.2
0.2
0.2
0.2
0.2
0.2
0.2
0.2
0.2
0.2
0.2
0.200017
0.199966
0.200166
1.1642
1.63882
1.65585
1.66718
1.67803
1.68838
1.69805
1.70726
1.71599
1.72432
1.73221
1.73969
1.74671
1.75337
1.75959
1.76549
1.771
1.77621
1.78108
1.78569
1.79
1.79407
1.79789
1.80149
1.80487
1.80806
1.81108
1.81403
1.81691
1.8198
1.82267
1.82553
1.82838
1.83121
1.83403
1.83683
1.83963
1.84241
1.8452
1.84798
1.85076
1.85355
1.85636
1.85918
1.86201
1.86487
1.86774
1.87063
1.87355
1.87648
1.87943
1.88241
1.88542
1.88846
1.89153
1.89465
1.8978
1.901
1.90423
1.9075
1.91081
1.91416
1.91754
1.92092
1.92434
1.92785
1.93141
1.93501
1.93864
1.94229
1.94595
1.94962
1.95328
1.95693
1.96056
1.96416
1.96771
1.97116
1.97455
1.97791
1.98118
1.98433
1.98734
1.99018
1.99282
1.99524
1.99738
1.99922
2.00073
2.00182
2.00249
2.00265
2.00222
2.00112
1.99932
1.99665
1.99295
1.98824
1.98118
1.97463
1.96279
0.2
0.2
0.2
0.2
0.2
0.2
0.2
0.2
0.2
0.2
0.2
0.2
0.2
0.2
0.2
0.200045
0.199887
0.199513
1.15532
1.63767
1.65462
1.66593
1.67673
1.68705
1.69667
1.70583
1.71449
1.72275
1.73055
1.73796
1.7449
1.75148
1.75761
1.76343
1.76885
1.77397
1.77876
1.78328
1.78751
1.79151
1.79524
1.79878
1.80208
1.80521
1.80816
1.81104
1.81387
1.8167
1.81951
1.8223
1.82508
1.82785
1.8306
1.83334
1.83607
1.83879
1.84151
1.84422
1.84694
1.84966
1.8524
1.85515
1.85791
1.8607
1.86351
1.86634
1.86919
1.87207
1.87497
1.8779
1.88086
1.88386
1.88689
1.88997
1.8931
1.89627
1.89948
1.90274
1.90604
1.90939
1.91274
1.91612
1.91957
1.92308
1.92665
1.93025
1.93389
1.93754
1.9412
1.94487
1.94853
1.95217
1.95579
1.95938
1.96291
1.96633
1.96971
1.97304
1.97626
1.97935
1.98228
1.98503
1.98757
1.98986
1.99186
1.99353
1.99484
1.99572
1.99614
1.99603
1.99524
1.9938
1.99157
1.98845
1.9842
1.97896
1.97114
1.96393
1.95098
0.2
0.2
0.2
0.2
0.2
0.2
0.2
0.2
0.2
0.2
0.2
0.2
0.2
0.2
0.2
0.200055
0.199798
0.198924
1.14513
1.63638
1.65331
1.66461
1.67535
1.68563
1.6952
1.70429
1.71286
1.72103
1.72873
1.73606
1.74291
1.74939
1.75543
1.76115
1.76647
1.77151
1.7762
1.78063
1.78478
1.78869
1.79234
1.7958
1.79903
1.80209
1.80497
1.80778
1.81054
1.8133
1.81604
1.81876
1.82147
1.82416
1.82684
1.8295
1.83216
1.83481
1.83745
1.8401
1.84275
1.8454
1.84807
1.85075
1.85345
1.85618
1.85892
1.8617
1.86449
1.86731
1.87016
1.87304
1.87595
1.8789
1.8819
1.88494
1.88803
1.89117
1.89436
1.89761
1.9009
1.90423
1.90758
1.91097
1.91444
1.91796
1.92153
1.92515
1.92879
1.93245
1.93613
1.93981
1.94349
1.94715
1.95079
1.95438
1.9579
1.96129
1.96465
1.96794
1.9711
1.97412
1.97696
1.9796
1.98201
1.98415
1.98599
1.98748
1.98858
1.98923
1.9894
1.98894
1.98785
1.98603
1.98338
1.97979
1.97498
1.9692
1.96065
1.95273
1.93877
0.2
0.2
0.2
0.2
0.2
0.2
0.2
0.2
0.2
0.2
0.2
0.2
0.2
0.2
0.2
0.200058
0.199736
0.198447
1.13352
1.63491
1.65192
1.66321
1.67389
1.68412
1.69362
1.70263
1.7111
1.71918
1.72678
1.73401
1.74077
1.74715
1.7531
1.75872
1.76394
1.76887
1.77346
1.77779
1.78182
1.78563
1.78919
1.79254
1.79569
1.79866
1.80146
1.80421
1.80692
1.80962
1.8123
1.81496
1.8176
1.82023
1.82284
1.82544
1.82802
1.8306
1.83317
1.83574
1.83831
1.84089
1.84348
1.84609
1.84872
1.85137
1.85405
1.85676
1.8595
1.86226
1.86505
1.86788
1.87075
1.87365
1.87659
1.87959
1.88263
1.88572
1.88888
1.89209
1.89535
1.89866
1.902
1.9054
1.90887
1.91239
1.91596
1.91957
1.92321
1.92687
1.93055
1.93423
1.93791
1.94157
1.9452
1.9488
1.95228
1.95566
1.95901
1.96226
1.96538
1.96833
1.9711
1.97366
1.97596
1.97797
1.97966
1.98098
1.98188
1.98231
1.98222
1.98144
1.98002
1.97781
1.97473
1.97064
1.96527
1.95892
1.94966
1.94103
1.92592
0.2
0.2
0.2
0.2
0.2
0.2
0.2
0.2
0.2
0.2
0.2
0.2
0.2
0.2
0.2
0.200047
0.19972
0.198117
1.12028
1.63329
1.65043
1.66172
1.67236
1.68255
1.69199
1.70092
1.70928
1.71723
1.72474
1.73187
1.73852
1.74479
1.75064
1.75615
1.76126
1.76608
1.77056
1.77478
1.77872
1.78242
1.78588
1.78913
1.79219
1.79507
1.79778
1.80046
1.80309
1.80572
1.80833
1.81091
1.81348
1.81603
1.81857
1.82109
1.8236
1.8261
1.8286
1.8311
1.83359
1.8361
1.83862
1.84115
1.84371
1.84628
1.84889
1.85152
1.85418
1.85687
1.8596
1.86237
1.86518
1.86804
1.87094
1.87389
1.8769
1.87998
1.88312
1.88632
1.88959
1.8929
1.89626
1.89968
1.90316
1.90669
1.91026
1.91387
1.91751
1.92116
1.92483
1.9285
1.93217
1.93582
1.93944
1.94299
1.94641
1.94976
1.95306
1.95625
1.95928
1.96214
1.96481
1.96725
1.96943
1.9713
1.97283
1.97396
1.97465
1.97485
1.97446
1.97339
1.97163
1.96903
1.96552
1.96095
1.95501
1.9481
1.93816
1.92879
1.91268
0.2
0.2
0.2
0.2
0.2
0.2
0.2
0.2
0.2
0.2
0.2
0.2
0.2
0.2
0.2
0.200032
0.199817
0.197913
1.10516
1.6315
1.64887
1.6602
1.67082
1.68094
1.69033
1.69918
1.70746
1.71529
1.72266
1.72965
1.73614
1.74232
1.74805
1.75343
1.75842
1.76313
1.76748
1.77159
1.77539
1.77898
1.78232
1.78546
1.78841
1.7912
1.79382
1.79642
1.79898
1.80153
1.80407
1.80658
1.80907
1.81154
1.81399
1.81643
1.81885
1.82125
1.82365
1.82605
1.82844
1.83084
1.83325
1.83569
1.83816
1.84066
1.84319
1.84576
1.84837
1.851
1.85368
1.85641
1.85917
1.86199
1.86486
1.86779
1.87078
1.87383
1.87694
1.88011
1.88333
1.8866
1.88993
1.89332
1.89677
1.90027
1.90383
1.90741
1.91104
1.91469
1.91836
1.92205
1.92574
1.9294
1.93303
1.93657
1.93997
1.94334
1.94663
1.9498
1.95279
1.9556
1.95819
1.96054
1.96259
1.96432
1.96568
1.96662
1.96711
1.9671
1.96633
1.96499
1.96284
1.95986
1.95589
1.95083
1.94432
1.93682
1.92622
1.91611
1.89889
0.2
0.2
0.2
0.2
0.2
0.2
0.2
0.2
0.2
0.2
0.2
0.2
0.2
0.2
0.2
0.199984
0.200012
0.197916
1.08793
1.62951
1.64727
1.65867
1.6693
1.67935
1.68861
1.69739
1.7055
1.71316
1.72038
1.72724
1.73359
1.73964
1.74521
1.75043
1.75526
1.75982
1.76403
1.76802
1.77168
1.77513
1.77834
1.78137
1.7842
1.78688
1.78941
1.79192
1.79443
1.79691
1.79938
1.80183
1.80426
1.80667
1.80907
1.81145
1.81381
1.81615
1.81848
1.8208
1.82311
1.82541
1.82773
1.83007
1.83243
1.83482
1.83725
1.83972
1.84224
1.8448
1.84741
1.85007
1.85279
1.85555
1.85838
1.86126
1.86421
1.86721
1.87028
1.87342
1.87662
1.87988
1.88321
1.8866
1.89006
1.89356
1.89712
1.90072
1.90435
1.908
1.91167
1.91535
1.91902
1.92267
1.92627
1.92976
1.93316
1.93652
1.93978
1.9429
1.94583
1.94857
1.95108
1.95331
1.95525
1.95684
1.95804
1.95879
1.95906
1.95876
1.95776
1.95608
1.9536
1.95021
1.94579
1.94022
1.93314
1.92503
1.91379
1.9029
1.8847
0.2
0.2
0.2
0.2
0.2
0.2
0.2
0.2
0.2
0.2
0.2
0.2
0.2
0.2
0.2
0.200002
0.200003
0.198291
1.06906
1.62734
1.64572
1.65715
1.66769
1.67764
1.68679
1.69546
1.70339
1.71087
1.71791
1.7246
1.73077
1.73664
1.74206
1.74715
1.75186
1.7563
1.76039
1.76425
1.7678
1.77115
1.77424
1.77716
1.77987
1.78243
1.78483
1.78721
1.78958
1.79193
1.79426
1.79657
1.79886
1.80114
1.80341
1.80568
1.80794
1.81019
1.81245
1.8147
1.81696
1.81923
1.82151
1.82379
1.82609
1.82841
1.83075
1.83313
1.83555
1.83801
1.84054
1.84313
1.84578
1.84849
1.85128
1.85412
1.85703
1.86001
1.86307
1.86619
1.86938
1.87264
1.87598
1.87938
1.88285
1.88636
1.88992
1.89352
1.89715
1.9008
1.90448
1.90817
1.91186
1.91552
1.91911
1.92258
1.92599
1.92934
1.93258
1.93565
1.93853
1.94119
1.9436
1.94573
1.94752
1.94896
1.94997
1.95054
1.9506
1.94998
1.94872
1.9467
1.94386
1.94006
1.93517
1.92909
1.92147
1.91275
1.9009
1.88925
1.86998
0.2
0.2
0.2
0.2
0.2
0.2
0.2
0.2
0.2
0.2
0.2
0.2
0.2
0.2
0.2
0.200014
0.199995
0.199027
1.04734
1.62565
1.64422
1.65555
1.66597
1.67589
1.6849
1.69338
1.70118
1.70849
1.7153
1.72179
1.72779
1.73348
1.73869
1.74356
1.74803
1.75222
1.7561
1.75976
1.76315
1.76635
1.76933
1.77215
1.77476
1.77724
1.77956
1.78186
1.78418
1.78645
1.78869
1.79089
1.79308
1.79524
1.79738
1.79951
1.80163
1.80375
1.80587
1.808
1.81014
1.8123
1.81448
1.81669
1.81894
1.82122
1.82354
1.8259
1.82831
1.83076
1.83326
1.83582
1.83843
1.84111
1.84386
1.84668
1.84956
1.85251
1.85554
1.85865
1.86183
1.86508
1.86841
1.87181
1.87527
1.8788
1.88236
1.88596
1.88959
1.89324
1.89691
1.9006
1.90427
1.90791
1.91148
1.91493
1.91835
1.92167
1.92487
1.92789
1.93071
1.93329
1.93562
1.93763
1.9393
1.94058
1.94142
1.94179
1.94162
1.94074
1.93918
1.93683
1.93361
1.9294
1.92406
1.91747
1.9093
1.89997
1.88753
1.87508
1.85495
0.2
0.2
0.2
0.2
0.2
0.2
0.2
0.2
0.2
0.2
0.2
0.2
0.2
0.2
0.199999
0.20004
0.199962
0.199873
1.02265
1.62447
1.64273
1.65381
1.66414
1.67393
1.68278
1.69112
1.69877
1.70595
1.71262
1.7189
1.72471
1.73019
1.73517
1.73986
1.74412
1.7481
1.75177
1.75517
1.75833
1.76128
1.76407
1.76669
1.76916
1.77149
1.7737
1.77591
1.77817
1.78038
1.78258
1.78475
1.78689
1.78901
1.79111
1.7932
1.79528
1.79735
1.79942
1.80148
1.80356
1.80564
1.80774
1.80987
1.81203
1.81422
1.81645
1.81873
1.82105
1.82343
1.82586
1.82834
1.83089
1.83351
1.83619
1.83894
1.84176
1.84466
1.84764
1.85069
1.85383
1.85705
1.86035
1.86373
1.86718
1.8707
1.87427
1.87788
1.88152
1.88518
1.88886
1.89255
1.89623
1.89987
1.90343
1.9069
1.91032
1.91364
1.91681
1.91978
1.92254
1.92504
1.92727
1.92917
1.9307
1.93182
1.93248
1.93264
1.93219
1.93106
1.92919
1.92651
1.92291
1.91828
1.91247
1.90537
1.89665
1.8867
1.87371
1.86054
1.83938
0.2
0.2
0.2
0.2
0.2
0.2
0.2
0.2
0.2
0.2
0.2
0.2
0.2
0.2
0.199998
0.200068
0.199774
0.198449
0.996773
1.62291
1.64148
1.6526
1.66311
1.67261
1.68109
1.68888
1.69601
1.70287
1.70914
1.71521
1.7209
1.72621
1.73111
1.73571
1.73988
1.74374
1.74727
1.75053
1.75358
1.7564
1.75905
1.76153
1.76387
1.76607
1.76814
1.77022
1.77238
1.77449
1.77657
1.77864
1.78068
1.7827
1.78471
1.78671
1.78869
1.79067
1.79265
1.79462
1.7966
1.79859
1.8006
1.80263
1.8047
1.8068
1.80895
1.81114
1.81339
1.81569
1.81804
1.82046
1.82295
1.82551
1.82815
1.83086
1.83365
1.83652
1.83947
1.8425
1.84561
1.8488
1.85208
1.85545
1.85889
1.86241
1.86598
1.86959
1.87321
1.87686
1.88052
1.88418
1.88784
1.89145
1.89496
1.89843
1.90183
1.90512
1.90825
1.91117
1.91387
1.91631
1.91844
1.92023
1.92163
1.92259
1.92309
1.92307
1.92233
1.92094
1.91875
1.91572
1.91174
1.90668
1.9004
1.89279
1.88352
1.87296
1.85947
1.84555
1.8235
0.2
0.2
0.2
0.2
0.2
0.2
0.2
0.2
0.2
0.2
0.2
0.2
0.2
0.2
0.199999
0.200161
0.199387
0.196287
0.970063
1.61814
1.63904
1.64952
1.6599
1.66975
1.67844
1.68628
1.69339
1.70003
1.70609
1.71189
1.71732
1.7224
1.72716
1.73155
1.73554
1.73922
1.74258
1.74565
1.74851
1.75115
1.75363
1.75594
1.75813
1.7602
1.76215
1.76413
1.76621
1.76823
1.77023
1.77219
1.77413
1.77605
1.77796
1.77985
1.78174
1.78362
1.78549
1.78736
1.78924
1.79114
1.79306
1.795
1.79698
1.799
1.80107
1.80318
1.80534
1.80755
1.80982
1.81215
1.81455
1.81704
1.81961
1.82227
1.82502
1.82786
1.83078
1.83379
1.83688
1.84006
1.84332
1.84667
1.8501
1.85361
1.85719
1.8608
1.86443
1.86809
1.87176
1.87543
1.87908
1.88266
1.88617
1.88963
1.89301
1.89626
1.89934
1.9022
1.90482
1.90716
1.9092
1.91086
1.91212
1.91292
1.91324
1.91297
1.91201
1.91033
1.90784
1.90446
1.90009
1.8946
1.88785
1.87972
1.86993
1.85873
1.84479
1.83019
1.80707
0.2
0.2
0.2
0.2
0.2
0.2
0.2
0.2
0.2
0.2
0.2
0.2
0.2
0.2
0.199999
0.200065
0.199929
0.196677
0.939747
1.61205
1.63692
1.64807
1.65818
1.66764
1.67593
1.68354
1.69048
1.69693
1.70281
1.70836
1.71353
1.71834
1.72285
1.72696
1.73075
1.73415
1.7373
1.74013
1.74279
1.74522
1.74751
1.74965
1.75167
1.75358
1.75538
1.75722
1.75921
1.76111
1.76299
1.76485
1.76669
1.76851
1.77033
1.77214
1.77395
1.77575
1.77755
1.77936
1.78117
1.78301
1.78486
1.78675
1.78868
1.79065
1.79265
1.79471
1.79682
1.79898
1.8012
1.80349
1.80586
1.8083
1.81082
1.81343
1.81613
1.81892
1.8218
1.82477
1.82784
1.83099
1.83424
1.83757
1.841
1.8445
1.84807
1.85168
1.85532
1.85898
1.86264
1.8663
1.86993
1.87348
1.87698
1.88043
1.88378
1.88699
1.89001
1.89281
1.89535
1.89761
1.89954
1.90108
1.90219
1.90282
1.90296
1.90243
1.90124
1.89926
1.89646
1.89272
1.88796
1.88204
1.87483
1.86619
1.85588
1.84408
1.8297
1.81432
1.79033
0.2
0.2
0.2
0.2
0.2
0.2
0.2
0.2
0.2
0.2
0.2
0.2
0.2
0.2
0.199998
0.200018
0.199024
0.205658
0.89748
1.60657
1.63422
1.64596
1.65622
1.66543
1.67343
1.68076
1.68741
1.69346
1.69906
1.70423
1.70906
1.71353
1.71774
1.72157
1.72514
1.72834
1.7313
1.73397
1.73648
1.73877
1.74094
1.74296
1.74487
1.74668
1.74838
1.75015
1.75209
1.75394
1.75576
1.75756
1.75934
1.76109
1.76283
1.76456
1.76628
1.76799
1.7697
1.77141
1.77312
1.77486
1.77663
1.77842
1.78025
1.78212
1.78404
1.78601
1.78803
1.79011
1.79226
1.79448
1.79677
1.79916
1.80163
1.8042
1.80686
1.80961
1.81246
1.8154
1.81843
1.82155
1.82478
1.8281
1.83151
1.83501
1.83857
1.84218
1.84583
1.84949
1.85316
1.85681
1.86041
1.86394
1.86743
1.87086
1.87417
1.87733
1.88029
1.88302
1.88549
1.88766
1.88948
1.89089
1.89185
1.89232
1.89226
1.89147
1.89002
1.88775
1.88462
1.88053
1.87537
1.86903
1.86135
1.85221
1.84139
1.82901
1.81418
1.79809
1.77309
0.2
0.2
0.2
0.2
0.2
0.2
0.2
0.2
0.2
0.2
0.2
0.2
0.2
0.2
0.2
0.200047
0.199314
0.214378
0.84817
1.60451
1.63249
1.64433
1.65436
1.66298
1.67048
1.67733
1.68361
1.68937
1.6947
1.6996
1.70421
1.70849
1.71251
1.71615
1.71955
1.72255
1.72533
1.72782
1.73013
1.73223
1.73421
1.73604
1.73777
1.7394
1.74092
1.74256
1.74438
1.7461
1.74781
1.7495
1.75117
1.75282
1.75446
1.75609
1.75772
1.75935
1.76098
1.76262
1.76428
1.76596
1.76766
1.76939
1.77116
1.77298
1.77485
1.77678
1.77876
1.78082
1.78293
1.78512
1.78739
1.78974
1.79218
1.79471
1.79734
1.80007
1.80288
1.80579
1.80878
1.81186
1.81504
1.81832
1.8217
1.82518
1.82873
1.83235
1.836
1.83967
1.84334
1.84697
1.85054
1.85406
1.85752
1.86091
1.86417
1.86728
1.87017
1.87283
1.87522
1.87729
1.879
1.88028
1.88109
1.88139
1.88111
1.88011
1.87837
1.87581
1.87234
1.86788
1.86233
1.85556
1.84741
1.83779
1.82645
1.81351
1.79822
1.78138
1.7555
0.2
0.2
0.2
0.2
0.2