/*--------------------------------*- C++ -*----------------------------------*\
| =========                 |                                                 |
| \\      /  F ield         | OpenFOAM: The Open Source CFD Toolbox           |
|  \\    /   O peration     | Version:  2.2.x                                 |
|   \\  /    A nd           | Web:      www.OpenFOAM.org                      |
|    \\/     M anipulation  |                                                 |
\*---------------------------------------------------------------------------*/
FoamFile
{
    version     2.0;
    format      ascii;
    class       surfaceScalarField;
    location    "0.7";
    object      phi;
}
// * * * * * * * * * * * * * * * * * * * * * * * * * * * * * * * * * * * * * //

dimensions      [1 0 -1 0 0 0 0];

internalField   nonuniform List<scalar> 
28084
(
0.000746224
0.000742988
0.000740213
0.000737877
0.000735962
0.000734443
0.000733299
0.000732503
0.000732031
0.000731856
0.00073195
0.000732288
0.00073284
0.000733581
0.000734484
0.000735523
0.000736673
0.00073791
0.00073921
0.000740553
0.000741918
0.000743286
0.000744639
0.000745961
0.000747237
0.000748455
0.000749601
0.000750665
0.000751637
0.000768016
0.000753459
0.00073749
0.000724582
0.00071529
0.00070899
0.000704742
0.000701649
0.000699028
0.000696434
0.000693622
0.000690481
0.000686978
0.000683122
0.000678933
0.000674424
0.000678493
0.000682585
0.000686624
0.000690561
0.000694357
0.000697984
0.000701428
0.000704689
0.000707782
0.000710734
0.00071357
0.000716315
0.000718975
0.000721543
0.000723985
0.000726247
0.000728256
0.000729923
0.000731155
0.000731859
0.000731939
0.000731298
0.000729895
0.00072772
0.000724787
0.000721124
0.000716765
0.000711743
0.000706086
0.000699813
0.000692938
0.000685469
0.000677414
0.000668788
0.000659613
0.000649922
0.000639755
0.000629163
0.000618196
0.000606909
0.000595353
0.000583579
0.000571638
0.00055958
0.000547457
0.000535323
0.000523237
0.000511259
0.000499452
0.000487883
0.00047662
0.000465731
0.000455285
0.000445348
0.000435981
0.000427237
0.000419155
0.000411755
0.00040503
0.000398936
0.000393379
0.0003882
0.00038316
0.000377913
0.000371987
0.000364751
0.00035539
0.000342882
0.000325976
0.00030321
0.000272945
0.000233482
0.000183227
3.7119e-06
3.23513e-06
0.00074974
2.77572e-06
0.000748785
2.33538e-06
0.000748259
1.91574e-06
0.000748147
1.51833e-06
0.000748429
1.14451e-06
0.000749083
7.95452e-07
0.000750087
4.72133e-07
0.000751415
1.7529e-07
0.000753039
-9.458e-08
0.000754933
-3.37226e-07
0.000757068
-5.52641e-07
0.000759414
-7.41055e-07
0.000761942
-9.02918e-07
0.000764622
-1.03889e-06
0.000767426
-1.14981e-06
0.000770325
-1.23667e-06
0.000773292
-1.30061e-06
0.0007763
-1.34287e-06
0.000779324
-1.36477e-06
0.000782341
-1.36768e-06
0.000785328
-1.353e-06
0.000788266
-1.32213e-06
0.000791134
-1.27648e-06
0.000793916
-1.21739e-06
0.000796595
-1.14619e-06
0.000799159
-1.06412e-06
0.000801594
-9.72358e-07
0.00080389
-8.53903e-05
0.000806036
1.50227e-05
0.000597704
2.03791e-05
0.000618873
1.64506e-05
0.000652059
1.1285e-05
0.000674554
7.11848e-06
0.000683547
4.40324e-06
0.00068192
2.91187e-06
0.000673592
2.278e-06
0.000661878
2.18779e-06
0.000649185
2.41573e-06
0.000637096
2.81065e-06
0.000626501
3.27503e-06
0.000617735
3.74947e-06
0.000610727
4.20288e-06
0.000605162
4.62678e-06
0.000600616
-3.84548e-06
0.000596658
-3.78615e-06
0.000599843
-3.69891e-06
0.000603223
-3.61736e-06
0.000606525
-3.55233e-06
0.000609528
-3.50643e-06
0.00061208
-3.47722e-06
0.000614103
-3.4584e-06
0.000615595
-3.4409e-06
0.000616607
-3.41397e-06
0.000617229
-3.36629e-06
0.000617556
-3.28695e-06
0.00061767
-3.1661e-06
0.000617611
-2.99548e-06
0.000617374
-2.76881e-06
0.000616908
-2.48183e-06
0.000616123
-2.13173e-06
0.000614922
-1.71912e-06
0.000613215
-1.24776e-06
0.000610955
-7.18279e-07
0.000608113
-1.27507e-07
0.000604707
5.3039e-07
0.000600798
1.21678e-06
0.000596482
1.91243e-06
0.000591824
2.60865e-06
0.000586865
3.30024e-06
0.000581625
3.98461e-06
0.0005761
4.66087e-06
0.000570274
5.32891e-06
0.000564122
5.98852e-06
0.000557626
6.63863e-06
0.000550776
7.27701e-06
0.000543576
7.90007e-06
0.000536041
8.50319e-06
0.00052819
9.08101e-06
0.000520044
9.62794e-06
0.000511626
1.01386e-05
0.000502951
1.06081e-05
0.000494037
1.10318e-05
0.000484896
1.14056e-05
0.000475544
1.17259e-05
0.000465993
1.19894e-05
0.000456258
1.21928e-05
0.000446351
1.23331e-05
0.000436284
1.24076e-05
0.000426068
1.24136e-05
0.000415712
1.23491e-05
0.000405228
1.22122e-05
0.000394623
1.20016e-05
0.000383907
1.17168e-05
0.000373089
1.13579e-05
0.000362177
1.09261e-05
0.000351179
1.04241e-05
0.000340102
9.85647e-06
0.000328952
9.23018e-06
0.000317731
8.55571e-06
0.000306441
7.84796e-06
0.00029508
7.1276e-06
0.000283642
6.42285e-06
0.00027212
5.77144e-06
0.000260502
5.22311e-06
0.00024877
4.84242e-06
0.000236903
4.71192e-06
0.000224871
4.9356e-06
0.00021263
5.64208e-06
0.000200116
6.98716e-06
0.000187237
9.15434e-06
0.000173858
1.23515e-05
0.000159782
1.68003e-05
0.000144736
2.27151e-05
0.000128351
3.02638e-05
0.000110136
3.95047e-05
8.94791e-05
5.03264e-05
6.56624e-05
0.000183266
3.79343e-05
5.11203e-06
4.19073e-06
0.000754435
3.30115e-06
0.00075573
2.44751e-06
0.000757426
1.63381e-06
0.00075951
8.63806e-07
0.000761963
1.40861e-07
0.000764765
-5.32086e-07
0.000767892
-1.15259e-06
0.000771318
-1.71876e-06
0.000775016
-2.22922e-06
0.000778956
-2.6832e-06
0.000783108
-3.08049e-06
0.00078744
-3.42139e-06
0.000791922
-3.70676e-06
0.00079652
-3.93789e-06
0.000801204
-4.11651e-06
0.000805943
-4.24472e-06
0.000810708
-4.32493e-06
0.000815468
-4.35978e-06
0.000820197
-4.35211e-06
0.00082487
-4.30488e-06
0.000829463
-4.22114e-06
0.000833953
-4.10392e-06
0.00083832
-3.95627e-06
0.000842545
-3.78114e-06
0.000846613
-3.58139e-06
0.000850509
-3.35973e-06
0.000854219
-3.11873e-06
0.000857733
4.96472e-05
0.00086104
4.1659e-06
0.000797191
5.57772e-06
0.00079329
8.09227e-06
0.000796625
9.72565e-06
0.000798056
1.07238e-05
0.000795781
1.12541e-05
0.000790593
1.14124e-05
0.000783686
1.12998e-05
0.000775943
1.10274e-05
0.000767933
1.06961e-05
0.000760046
1.03816e-05
0.000752556
1.01322e-05
0.000745639
9.97475e-06
0.000739385
9.92372e-06
0.000733811
9.99004e-06
0.000728893
-5.54576e-06
0.000724601
-5.80854e-06
0.000728308
-5.95076e-06
0.000732157
-6.00349e-06
0.000736039
-5.97655e-06
0.000739805
-5.8747e-06
0.000743316
-5.70078e-06
0.00074646
-5.45636e-06
0.000749171
-5.14203e-06
0.000751423
-4.75775e-06
0.000753227
-4.30331e-06
0.000754627
-3.77877e-06
0.000755675
-3.185e-06
0.000756425
-2.52432e-06
0.000756914
-1.80122e-06
0.000757151
-1.02294e-06
0.000757112
-1.99196e-07
0.000756735
6.53918e-07
0.000755927
1.5479e-06
0.000754564
2.48219e-06
0.000752534
3.44942e-06
0.000749746
4.44491e-06
0.000746129
5.46239e-06
0.000741645
6.49282e-06
0.000736284
7.5286e-06
0.000730062
8.56443e-06
0.000723013
9.59681e-06
0.000715175
1.06234e-05
0.000706586
1.16423e-05
0.000697276
1.26514e-05
0.000687267
1.36479e-05
0.000676576
1.46278e-05
0.000665222
1.55862e-05
0.000653227
1.65171e-05
0.000640628
1.74136e-05
0.000627471
1.82689e-05
0.000613812
1.90761e-05
0.000599715
1.98284e-05
0.000585244
2.05196e-05
0.000570463
2.1144e-05
0.00055543
2.16963e-05
0.000540199
2.21719e-05
0.000524817
2.25663e-05
0.000509329
2.28759e-05
0.000493774
2.30972e-05
0.000478189
2.32276e-05
0.000462607
2.32654e-05
0.000447056
2.32096e-05
0.000431559
2.30607e-05
0.000416138
2.28201e-05
0.000400806
2.24908e-05
0.000385575
2.20774e-05
0.000370451
2.15864e-05
0.000355436
2.10268e-05
0.000340527
2.041e-05
0.000325716
1.97511e-05
0.000310987
1.90696e-05
0.000296322
1.83906e-05
0.000281692
1.77467e-05
0.000267066
1.71804e-05
0.000252407
1.67475e-05
0.000237672
1.65208e-05
0.000222815
1.65958e-05
0.00020779
1.70959e-05
0.00019255
1.81792e-05
0.00017705
2.00445e-05
0.000161247
2.29347e-05
0.000145103
2.71363e-05
0.000128577
3.29696e-05
0.000111622
4.07643e-05
9.41721e-05
5.08103e-05
7.61207e-05
6.32678e-05
5.72892e-05
7.80529e-05
3.73868e-05
0.000221226
1.59986e-05
4.23053e-06
2.89594e-06
0.000760308
1.6045e-06
0.000763821
3.63709e-07
0.000767708
-8.19269e-07
0.000771957
-1.93779e-06
0.000776551
-2.98585e-06
0.000781471
-3.95817e-06
0.000786692
-4.85036e-06
0.000792189
-5.6589e-06
0.000797933
-6.38124e-06
0.000803893
-7.01579e-06
0.000810036
-7.56192e-06
0.00081633
-8.01992e-06
0.000822741
-8.39094e-06
0.000829233
-8.67693e-06
0.000835774
-8.88057e-06
0.00084233
-9.00514e-06
0.000848869
-9.05446e-06
0.00085536
-9.03276e-06
0.000861774
-8.9446e-06
0.000868082
-8.79475e-06
0.00087426
-8.58811e-06
0.000880283
-8.32963e-06
0.00088613
-8.02421e-06
0.000891781
-7.67665e-06
0.00089722
-7.29157e-06
0.00090243
-6.87338e-06
0.000907399
-6.42625e-06
0.000912115
3.64464e-05
0.000916569
1.3588e-05
0.000904741
1.31838e-05
0.000889959
1.48542e-05
0.000882281
1.61879e-05
0.000877244
1.70814e-05
0.000872525
1.75675e-05
0.000867652
1.77008e-05
0.00086264
1.75628e-05
0.00085747
1.72478e-05
0.000852099
1.68425e-05
0.000846536
1.64133e-05
0.000840854
1.60022e-05
0.000835157
1.5629e-05
0.000829543
1.52957e-05
0.000824073
1.49928e-05
0.000818769
-8.3597e-06
0.000813613
-8.68383e-06
0.000815175
-8.89621e-06
0.000816904
-8.97958e-06
0.000818671
-8.9321e-06
0.000820344
-8.75621e-06
0.000821799
-8.4557e-06
0.000822927
-8.0347e-06
0.000823654
-7.49723e-06
0.000823944
-6.84692e-06
0.000823799
-6.08677e-06
0.000823252
-5.21899e-06
0.00082236
-4.24514e-06
0.00082118
-3.16639e-06
0.000819761
-1.98435e-06
0.000818127
-7.01562e-07
0.000816267
6.79538e-07
0.00081413
2.15606e-06
0.000811645
3.71984e-06
0.000808727
5.35922e-06
0.000805286
7.06172e-06
0.00080123
8.815e-06
0.000796485
1.06057e-05
0.000790999
1.24193e-05
0.000784749
1.42424e-05
0.000777735
1.60642e-05
0.000769977
1.78758e-05
0.000761507
1.96694e-05
0.000752355
2.14382e-05
0.000742547
2.31743e-05
0.000732098
2.48693e-05
0.000721016
2.65132e-05
0.000709304
2.80955e-05
0.000696968
2.96051e-05
0.000684021
3.10311e-05
0.000670489
3.23634e-05
0.000656408
3.35932e-05
0.000641826
3.47125e-05
0.000626795
3.5715e-05
0.000611366
3.65952e-05
0.00059559
3.73489e-05
0.000579515
3.79726e-05
0.000563185
3.84641e-05
0.000546641
3.8822e-05
0.000529924
3.90464e-05
0.000513074
3.91385e-05
0.000496126
3.91011e-05
0.000479118
3.89384e-05
0.000462081
3.86565e-05
0.000445046
3.82629e-05
0.000428038
3.77676e-05
0.000411079
3.71821e-05
0.000394186
3.65206e-05
0.000377371
3.57996e-05
0.000360642
3.50385e-05
0.000343999
3.42602e-05
0.000327437
3.34917e-05
0.000310941
3.2765e-05
0.000294492
3.21189e-05
0.000278063
3.16008e-05
0.000261621
3.12698e-05
0.000245127
3.12003e-05
0.000228541
3.14873e-05
0.00021182
3.2252e-05
0.000194926
3.36492e-05
0.000177823
3.58746e-05
0.000160487
3.91707e-05
0.000142901
4.38298e-05
0.000125063
5.01899e-05
0.000106979
5.8619e-05
8.86547e-05
6.94798e-05
7.00813e-05
8.30507e-05
5.12027e-05
9.93776e-05
3.1854e-05
0.000237249
1.16864e-05
1.10116e-06
-6.16603e-07
0.000767362
-2.2826e-06
0.000773056
-3.88528e-06
0.000779098
-5.41361e-06
0.000785478
-6.85736e-06
0.00079218
-8.20725e-06
0.000799185
-9.45512e-06
0.000806469
-1.05941e-05
0.000814006
-1.16187e-05
0.000821766
-1.25248e-05
0.000829715
-1.33097e-05
0.000837821
-1.39723e-05
0.000846048
-1.45125e-05
0.000854359
-1.49319e-05
0.000862719
-1.5233e-05
0.00087109
-1.54195e-05
0.000879437
-1.54961e-05
0.000887725
-1.54679e-05
0.000895922
-1.53411e-05
0.000903995
-1.51222e-05
0.000911915
-1.48178e-05
0.000919655
-1.44351e-05
0.000927189
-1.39811e-05
0.000934495
-1.34628e-05
0.000941552
-1.28871e-05
0.000948341
-1.22606e-05
0.000954847
-1.15896e-05
0.000961056
-1.08801e-05
0.000966958
-3.33215e-05
0.000972541
2.96961e-05
0.000834333
2.82203e-05
0.000847546
2.56973e-05
0.000868555
2.3905e-05
0.00088291
2.28383e-05
0.000888791
2.22696e-05
0.000888215
2.19692e-05
0.000883633
2.17801e-05
0.000876873
2.16187e-05
0.000869141
2.14513e-05
0.000861236
2.12712e-05
0.000853681
2.10817e-05
0.000846779
2.08866e-05
0.00084064
2.06858e-05
0.000835222
2.04751e-05
0.00083037
-9.39388e-06
0.000825862
-9.75147e-06
0.00082688
-9.96002e-06
0.000828301
-1.00105e-05
0.000829877
-9.89994e-06
0.000831376
-9.62865e-06
0.000832595
-9.19942e-06
0.000833379
-8.61671e-06
0.000833636
-7.88585e-06
0.000833335
-7.01203e-06
0.000832501
-5.99926e-06
0.000831202
-4.84951e-06
0.000829531
-3.56225e-06
0.000827583
-2.13439e-06
0.000825437
-5.61047e-07
0.000823144
1.16505e-06
0.000820719
3.03337e-06
0.000818132
5.03175e-06
0.000815307
7.14956e-06
0.000812138
9.37414e-06
0.000808512
1.16905e-05
0.000804329
1.40821e-05
0.000799518
1.65314e-05
0.000794037
1.90203e-05
0.000787877
2.15316e-05
0.000781056
2.40502e-05
0.000773601
2.65633e-05
0.000765544
2.90591e-05
0.000756909
3.15265e-05
0.000747705
3.39535e-05
0.00073793
3.63271e-05
0.000727574
3.86326e-05
0.000716622
4.08543e-05
0.000705067
4.2976e-05
0.00069291
4.49823e-05
0.000680168
4.68586e-05
0.000666867
4.8592e-05
0.000653044
5.01714e-05
0.000638738
5.15876e-05
0.000623992
5.28326e-05
0.000608844
5.39004e-05
0.000593331
5.47863e-05
0.000577487
5.54873e-05
0.000561348
5.60024e-05
0.000544947
5.63327e-05
0.000528318
5.64815e-05
0.000511497
5.64547e-05
0.000494518
5.62606e-05
0.000477413
5.59101e-05
0.000460215
5.5417e-05
0.000442951
5.47977e-05
0.000425648
5.40715e-05
0.000408328
5.32607e-05
0.000391012
5.23905e-05
0.000373712
5.14891e-05
0.000356437
5.05884e-05
0.000339191
4.97239e-05
0.000321968
4.89355e-05
0.000304757
4.8269e-05
0.00028754
4.7777e-05
0.00027029
4.75219e-05
0.000252979
4.75786e-05
0.000235572
4.80396e-05
0.000218033
4.90202e-05
0.000200328
5.06661e-05
0.000182428
5.31609e-05
0.000164311
5.67341e-05
0.000145967
6.16667e-05
0.0001274
6.82918e-05
0.000108625
7.69879e-05
8.96654e-05
8.81647e-05
7.05377e-05
0.000102223
5.12323e-05
0.000119418
3.16551e-05
0.00024895
1.15202e-05
-4.23855e-06
-6.31051e-06
0.0007756
-8.32484e-06
0.000783435
-1.02651e-05
0.000791593
-1.21158e-05
0.000800066
-1.38623e-05
0.000808839
-1.54915e-05
0.000817893
-1.69919e-05
0.000827205
-1.83535e-05
0.000836747
-1.95684e-05
0.000846488
-2.06308e-05
0.000856394
-2.15365e-05
0.00086643
-2.22836e-05
0.000876558
-2.28719e-05
0.000886739
-2.33029e-05
0.000896934
-2.35801e-05
0.000907106
-2.3708e-05
0.000917214
-2.36927e-05
0.000927224
-2.35412e-05
0.000937098
-2.32614e-05
0.000946804
-2.2862e-05
0.00095631
-2.2352e-05
0.000965586
-2.17408e-05
0.000974606
-2.10377e-05
0.000983347
-2.02521e-05
0.000991785
-1.93932e-05
0.000999903
-1.847e-05
0.00100768
-1.74907e-05
0.00101511
-1.64634e-05
0.00102218
1.60658e-05
0.00102887
2.55597e-05
0.000953918
2.40754e-05
0.000951148
2.40908e-05
0.000957724
2.47747e-05
0.00096232
2.56245e-05
0.000962526
2.63358e-05
0.000959159
2.67929e-05
0.000953527
2.69917e-05
0.000946591
2.69793e-05
0.000938997
2.68202e-05
0.000931221
2.65778e-05
0.00092364
2.63062e-05
0.000916522
2.60467e-05
0.000910019
2.58283e-05
0.000904169
2.56699e-05
0.000898924
-9.40806e-06
0.000894178
-9.99946e-06
0.000894761
-1.03629e-05
0.000895605
-1.04982e-05
0.000896513
-1.04035e-05
0.000897276
-1.008e-05
0.000897711
-9.53366e-06
0.000897678
-8.77398e-06
0.000897095
-7.81317e-06
0.000895939
-6.66425e-06
0.000894241
-5.33946e-06
0.000892069
-3.84898e-06
0.000889514
-2.20031e-06
0.000886661
-3.98282e-07
0.000883578
1.55329e-06
0.000880291
3.66049e-06
0.00087679
5.92672e-06
0.000873027
8.34897e-06
0.000868924
1.09184e-05
0.000864382
1.36221e-05
0.000859295
1.64438e-05
0.00085357
1.93645e-05
0.000847139
2.23645e-05
0.000839966
2.54234e-05
0.00083205
2.85222e-05
0.00082342
3.1644e-05
0.000814119
3.47731e-05
0.000804198
3.78953e-05
0.0007937
4.09959e-05
0.000782656
4.40593e-05
0.000771079
4.70682e-05
0.000758976
5.00035e-05
0.000746342
5.28449e-05
0.000733182
5.55719e-05
0.000719503
5.81642e-05
0.000705327
6.06032e-05
0.000690686
6.28718e-05
0.000675617
6.49548e-05
0.000660162
6.68392e-05
0.00064436
6.85136e-05
0.000628245
6.99687e-05
0.000611849
7.11972e-05
0.000595198
7.21943e-05
0.000578319
7.29575e-05
0.000561236
7.34877e-05
0.000543976
7.37887e-05
0.000526564
7.38678e-05
0.000509025
7.37361e-05
0.000491384
7.3408e-05
0.000473666
7.29021e-05
0.000455892
7.22403e-05
0.000438083
7.14487e-05
0.000420258
7.05568e-05
0.000402431
6.95979e-05
0.000384617
6.86088e-05
0.000366822
6.76301e-05
0.000349049
6.67057e-05
0.000331295
6.58838e-05
0.00031355
6.52173e-05
0.000295797
6.47646e-05
0.000278015
6.45919e-05
0.000260174
6.47756e-05
0.000242244
6.54063e-05
0.000224189
6.65939e-05
0.000205975
6.84749e-05
0.000187572
7.12201e-05
0.000168957
7.50438e-05
0.000150116
8.02114e-05
0.000131049
8.70433e-05
0.000111768
9.59154e-05
9.22943e-05
0.000107261
7.26509e-05
0.000121581
5.28477e-05
0.000139367
3.28412e-05
0.000260467
1.24185e-05
-1.17471e-05
-1.41455e-05
0.000785028
-1.64831e-05
0.00079496
-1.87378e-05
0.000805191
-2.08888e-05
0.000815714
-2.29165e-05
0.000826517
-2.48033e-05
0.000837581
-2.65337e-05
0.000848881
-2.80945e-05
0.000860389
-2.94749e-05
0.000872075
-3.06667e-05
0.000883901
-3.16643e-05
0.000895831
-3.24647e-05
0.000907824
-3.30674e-05
0.00091984
-3.34741e-05
0.000931838
-3.36888e-05
0.000943776
-3.37173e-05
0.000955614
-3.3567e-05
0.000967312
-3.3247e-05
0.000978833
-3.27672e-05
0.000990141
-3.21385e-05
0.0010012
-3.13724e-05
0.00101199
-3.0481e-05
0.00102247
-2.9476e-05
0.00103261
-2.83697e-05
0.00104241
-2.71736e-05
0.00105183
-2.5899e-05
0.00106086
-2.45569e-05
0.00106949
-2.31573e-05
0.00107769
-2.2426e-06
0.00108548
3.43699e-05
0.000982741
3.10194e-05
0.000987482
2.96447e-05
0.00100102
2.97694e-05
0.00101005
3.05198e-05
0.00101266
3.13489e-05
0.0010104
3.20044e-05
0.00100515
3.24044e-05
0.000998198
3.2553e-05
0.000990427
3.24956e-05
0.000982446
3.22931e-05
0.000974705
3.20069e-05
0.000967501
3.1689e-05
0.000960983
3.1378e-05
0.000955157
3.10984e-05
0.000949929
-9.00723e-06
0.000945138
-9.69784e-06
0.00094479
-1.01201e-05
0.00094473
-1.02634e-05
0.000944726
-1.01228e-05
0.000944551
-9.69987e-06
0.000944006
-9.0028e-06
0.000942945
-8.04508e-06
0.000941288
-6.84341e-06
0.000939021
-5.41526e-06
0.000936188
-3.77629e-06
0.000932875
-1.93864e-06
0.00092919
9.02727e-08
0.000925236
2.30805e-06
0.000921094
4.71056e-06
0.000916809
7.29714e-06
0.000912373
1.00676e-05
0.000907735
1.3018e-05
0.000902806
1.61388e-05
0.000897475
1.94153e-05
0.00089163
2.28276e-05
0.000885169
2.63529e-05
0.000878023
2.99669e-05
0.000870155
3.3645e-05
0.000861563
3.73647e-05
0.000852272
4.11055e-05
0.000842326
4.48491e-05
0.000831769
4.85789e-05
0.000820638
5.22778e-05
0.000808958
5.59282e-05
0.000796738
5.95102e-05
0.000783978
6.30024e-05
0.000770674
6.6382e-05
0.000756826
6.96258e-05
0.000742446
7.27114e-05
0.000727556
7.5618e-05
0.000712191
7.83263e-05
0.000696394
8.08194e-05
0.00068021
8.30821e-05
0.00066368
8.51015e-05
0.000646843
8.68663e-05
0.000629733
8.83676e-05
0.00061238
8.95992e-05
0.000594812
9.0558e-05
0.000577055
9.12442e-05
0.000559136
9.16623e-05
0.000541082
9.18207e-05
0.000522918
9.17321e-05
0.000504669
9.1414e-05
0.000486358
9.08884e-05
0.000468005
9.0182e-05
0.00044963
8.93262e-05
0.000431252
8.8357e-05
0.000412885
8.73144e-05
0.000394541
8.6243e-05
0.000376228
8.51909e-05
0.000357948
8.42102e-05
0.000339698
8.33566e-05
0.00032147
8.269e-05
0.000303247
8.22746e-05
0.000285009
8.2181e-05
0.000266727
8.24876e-05
0.000248369
8.32839e-05
0.000229901
8.46759e-05
0.000211287
8.67915e-05
0.000192492
8.97898e-05
0.000173488
9.38696e-05
0.000154257
9.92796e-05
0.00013479
0.000106325
0.000115093
0.000115369
9.5181e-05
0.000126852
7.5076e-05
0.000141342
5.47959e-05
0.000159557
3.43346e-05
0.000272861
1.35553e-05
-2.13788e-05
-2.40774e-05
0.000795653
-2.67144e-05
0.000807633
-2.92614e-05
0.00081989
-3.16915e-05
0.000832419
-3.39798e-05
0.000845207
-3.61035e-05
0.000858235
-3.80425e-05
0.000871481
-3.97797e-05
0.000884914
-4.13012e-05
0.000898502
-4.25963e-05
0.000912208
-4.36576e-05
0.000925991
-4.44808e-05
0.000939811
-4.5065e-05
0.000953624
-4.54121e-05
0.000967386
-4.55266e-05
0.000981054
-4.54156e-05
0.000994585
-4.50881e-05
0.00100794
-4.45551e-05
0.00102107
-4.38289e-05
0.00103395
-4.29229e-05
0.00104653
-4.18513e-05
0.00105879
-4.06288e-05
0.0010707
-3.92703e-05
0.00108223
-3.77905e-05
0.00109335
-3.6204e-05
0.00110404
-3.45247e-05
0.0011143
-3.2766e-05
0.00112409
-3.09405e-05
0.00113342
1.18044e-06
0.00114227
3.7885e-05
0.00103963
3.36488e-05
0.0010447
3.24131e-05
0.00105869
3.30973e-05
0.00106758
3.44777e-05
0.0010698
3.58556e-05
0.00106713
3.69379e-05
0.00106148
3.76434e-05
0.00105417
3.79902e-05
0.00104608
3.8043e-05
0.00103782
3.78847e-05
0.00102986
3.75989e-05
0.0010225
3.72585e-05
0.00101589
3.692e-05
0.00101002
3.66221e-05
0.00100479
-7.59581e-06
0.00100002
-8.40223e-06
0.00099904
-8.88699e-06
0.000998315
-9.03658e-06
0.000997598
-8.84481e-06
0.000996654
-8.31447e-06
0.000995281
-7.45726e-06
0.000993337
-6.29186e-06
0.000990749
-4.84111e-06
0.000987516
-3.12864e-06
0.000983697
-1.17571e-06
0.00097939
1.00111e-06
0.00097471
3.39158e-06
0.000969767
5.99137e-06
0.00096464
8.80014e-06
0.000959368
1.18186e-05
0.000953941
1.5047e-05
0.000948301
1.84816e-05
0.000942354
2.21126e-05
0.000935985
2.59239e-05
0.000929081
2.98935e-05
0.000921544
3.39955e-05
0.000913307
3.82017e-05
0.000904341
4.24841e-05
0.000894653
4.68165e-05
0.000884276
5.11749e-05
0.000873261
5.55378e-05
0.000861656
5.9885e-05
0.000849502
6.41961e-05
0.000836825
6.84497e-05
0.000823632
7.26224e-05
0.000809922
7.6689e-05
0.00079569
8.06232e-05
0.000780936
8.43983e-05
0.000765671
8.79889e-05
0.000749917
9.13711e-05
0.00073371
9.45236e-05
0.00071709
9.7427e-05
0.000700103
0.000100064
0.000682789
0.000102421
0.000665186
0.000104484
0.000647326
0.000106244
0.000629239
0.000107694
0.000610952
0.00010883
0.000592492
0.000109654
0.000573885
0.00011017
0.000555158
0.000110389
0.000536336
0.000110325
0.000517445
0.000109999
0.000498506
0.000109438
0.000479542
0.000108672
0.000460572
0.000107738
0.000441614
0.000106679
0.000422683
0.00010554
0.000403792
0.000104374
0.000384948
0.000103237
0.000366154
0.000102188
0.00034741
0.00010129
0.000328705
0.00010061
0.000310026
0.000100219
0.000291351
0.000100192
0.000272652
0.000100611
0.000253898
0.000101564
0.000235052
0.000103155
0.000216076
0.000105504
0.000196933
0.000108761
0.00017759
0.000113109
0.000158021
0.00011878
0.00013821
0.00012606
0.000118156
0.000135298
9.78681e-05
0.000146925
7.7363e-05
0.000161542
5.66627e-05
0.000180067
3.57878e-05
0.000286368
1.46736e-05
-3.30838e-05
-3.60577e-05
0.000807485
-3.89715e-05
0.000821461
-4.17898e-05
0.000835692
-4.44792e-05
0.000850176
-4.70084e-05
0.000864899
-4.9349e-05
0.000879845
-5.14759e-05
0.000894989
-5.33677e-05
0.000910301
-5.50069e-05
0.000925746
-5.63799e-05
0.000941287
-5.74773e-05
0.000956881
-5.82936e-05
0.000972484
-5.88272e-05
0.000988052
-5.90801e-05
0.00100354
-5.90575e-05
0.00101889
-5.87677e-05
0.00103408
-5.82215e-05
0.00104905
-5.7432e-05
0.00106375
-5.6414e-05
0.00107816
-5.51836e-05
0.00109224
-5.37579e-05
0.00110594
-5.21546e-05
0.00111924
-5.03917e-05
0.00113211
-4.8487e-05
0.00114453
-4.64579e-05
0.00115647
-4.43214e-05
0.00116792
-4.20936e-05
0.00117886
-3.97897e-05
0.00118928
-9.23787e-07
0.00119916
4.20696e-05
0.00109334
3.67736e-05
0.00110044
3.55359e-05
0.00111589
3.66767e-05
0.00112509
3.86106e-05
0.00112711
4.04905e-05
0.00112409
4.1976e-05
0.00111811
4.2977e-05
0.0011105
4.35183e-05
0.00110216
4.36797e-05
0.00109371
4.35644e-05
0.00108563
4.32775e-05
0.00107821
4.29118e-05
0.0010716
4.25399e-05
0.00106576
4.2212e-05
0.00106057
-5.45735e-06
0.00105584
-6.35179e-06
0.00105419
-6.87319e-06
0.00105277
-7.00345e-06
0.0010513
-6.73543e-06
0.00104955
-6.07401e-06
0.00104731
-5.03514e-06
0.00104445
-3.64315e-06
0.00104091
-1.92699e-06
0.0010367
8.38524e-08
0.00103189
2.36381e-06
0.00102659
4.89402e-06
0.00102093
7.66225e-06
0.00101501
1.06633e-05
0.00100893
1.38969e-05
0.00100272
1.73647e-05
0.000996351
2.1067e-05
0.000989768
2.49996e-05
0.000982868
2.91519e-05
0.000975529
3.35057e-05
0.000967635
3.80362e-05
0.000959087
4.27142e-05
0.000949821
4.75079e-05
0.000939812
5.23859e-05
0.000929073
5.73185e-05
0.000917642
6.22791e-05
0.000905574
6.72433e-05
0.000892922
7.2188e-05
0.000879729
7.70902e-05
0.00086602
8.19254e-05
0.000851805
8.6667e-05
0.000837082
9.12865e-05
0.000821848
9.57542e-05
0.000806103
0.00010004
0.000789861
0.000104117
0.000773146
0.000107956
0.000755997
0.000111535
0.000738455
0.000114832
0.000720565
0.000117828
0.000702371
0.000120506
0.000683908
0.000122851
0.000665209
0.000124854
0.000646303
0.000126505
0.000627218
0.000127802
0.000607979
0.000128746
0.000588613
0.000129342
0.000569146
0.000129603
0.000549605
0.000129547
0.000530013
0.000129196
0.000510394
0.000128581
0.000490768
0.000127738
0.000471157
0.000126708
0.000451577
0.00012554
0.000432045
0.000124288
0.000412573
0.000123009
0.000393169
0.000121768
0.000373837
0.000120632
0.000354577
0.000119671
0.000335379
0.000118959
0.000316231
0.000118574
0.00029711
0.000118595
0.000277991
0.000119109
0.000258841
0.000120205
0.000239622
0.000121984
0.000220294
0.000124563
0.000200819
0.000128079
0.000181157
0.000132704
0.000161279
0.00013865
0.000141162
0.000146186
0.000120796
0.000155642
0.000100185
0.000167427
7.93432e-05
0.00018215
5.82922e-05
0.000200885
3.70718e-05
0.000300971
1.56813e-05
-4.68079e-05
-5.00336e-05
0.000820535
-5.3203e-05
0.000836449
-5.6273e-05
0.000852599
-5.92028e-05
0.000868983
-6.19543e-05
0.000885589
-6.44928e-05
0.0009024
-6.67879e-05
0.000919391
-6.88132e-05
0.000936531
-7.05474e-05
0.000953785
-7.19738e-05
0.000971112
-7.30807e-05
0.000988469
-7.38611e-05
0.00100581
-7.43128e-05
0.00102309
-7.44377e-05
0.00104025
-7.42418e-05
0.00105725
-7.37349e-05
0.00107405
-7.29294e-05
0.00109059
-7.18409e-05
0.00110683
-7.04866e-05
0.00112273
-6.88857e-05
0.00113825
-6.70584e-05
0.00115336
-6.50257e-05
0.00116801
-6.28087e-05
0.00118219
-6.04286e-05
0.00119587
-5.7906e-05
0.00120903
-5.52611e-05
0.00122164
-5.25128e-05
0.00123369
-4.96791e-05
0.00124517
-5.18545e-06
0.00125607
4.56958e-05
0.00114505
3.95932e-05
0.00115506
3.85401e-05
0.00117251
4.02233e-05
0.00118209
4.2736e-05
0.00118379
4.512e-05
0.00118028
4.70056e-05
0.0011738
4.8299e-05
0.00116574
4.90338e-05
0.00115703
4.93061e-05
0.00114832
4.924e-05
0.00114009
4.89623e-05
0.00113263
4.85849e-05
0.00112605
4.81956e-05
0.0011203
4.78552e-05
0.0011152
-2.55747e-06
0.00111054
-3.518e-06
0.00110824
-4.05222e-06
0.00110611
-4.13944e-06
0.00110389
-3.77298e-06
0.00110132
-2.96077e-06
0.0010982
-1.72377e-06
0.00109441
-9.21978e-08
0.0010899
1.89959e-06
0.0010847
4.21789e-06
0.00107889
6.83321e-06
0.00107261
9.7235e-06
0.00106598
1.28756e-05
0.00105913
1.62843e-05
0.00105214
1.99502e-05
0.00104503
2.38754e-05
0.00103778
2.80607e-05
0.00103032
3.25013e-05
0.00102252
3.7185e-05
0.00101428
4.20911e-05
0.00100546
4.71918e-05
0.000995969
5.24539e-05
0.000985745
5.78419e-05
0.000974769
6.33206e-05
0.000963059
6.88569e-05
0.000950659
7.44211e-05
0.000937626
7.99858e-05
0.000924015
8.55253e-05
0.000909869
9.10134e-05
0.000895211
9.64228e-05
0.00088005
0.000101724
0.000864381
0.000106884
0.000848202
0.000111872
0.000831514
0.000116654
0.000814331
0.000121199
0.00079668
0.000125478
0.000778602
0.000129464
0.00076014
0.000133134
0.000741341
0.000136468
0.000722249
0.000139445
0.000702902
0.000142052
0.000683332
0.000144275
0.00066357
0.000146106
0.000643643
0.000147541
0.00062358
0.000148583
0.000603407
0.000149238
0.000583153
0.00014952
0.000562842
0.000149449
0.000542501
0.000149051
0.000522153
0.000148361
0.00050182
0.000147419
0.000481522
0.000146272
0.000461278
0.000144974
0.000441104
0.000143586
0.000421012
0.000142173
0.000401013
0.000140806
0.000381111
0.000139559
0.000361304
0.000138512
0.000341586
0.000137744
0.000321944
0.000137342
0.000302357
0.000137389
0.000282799
0.000137976
0.000263237
0.000139196
0.000243635
0.000141148
0.000223951
0.000143944
0.000204143
0.000147714
0.000184171
0.000152615
0.000163999
0.000158844
0.0001436
0.000166649
0.000122959
0.000176337
0.000102074
0.000188292
8.09546e-05
0.000203105
5.96245e-05
0.000221961
3.81361e-05
0.000316558
1.6543e-05
-6.24921e-05
-6.59478e-05
0.000834816
-6.93531e-05
0.000852607
-7.26565e-05
0.000870615
-7.58091e-05
0.00088884
-7.87653e-05
0.000907271
-8.14839e-05
0.000925891
-8.39282e-05
0.000944674
-8.60669e-05
0.000963588
-8.78744e-05
0.000982597
-8.93305e-05
0.00100166
-9.0421e-05
0.00102073
-9.11374e-05
0.00103975
-9.14766e-05
0.00105869
-9.14407e-05
0.00107748
-9.10365e-05
0.00109608
-9.02749e-05
0.00111444
-8.91707e-05
0.00113251
-8.77415e-05
0.00115024
-8.60076e-05
0.00116758
-8.39913e-05
0.00118451
-8.17161e-05
0.00120098
-7.92063e-05
0.00121695
-7.64868e-05
0.0012324
-7.35821e-05
0.00124731
-7.05164e-05
0.00126164
-6.7313e-05
0.00127537
-6.39942e-05
0.0012885
-6.05808e-05
0.00130102
-9.27071e-06
0.0013129
4.83707e-05
0.00119919
4.17652e-05
0.00121202
4.12593e-05
0.00123091
4.36911e-05
0.00124017
4.68734e-05
0.00124103
4.97906e-05
0.00123669
5.20746e-05
0.00122948
5.36456e-05
0.00122084
5.45559e-05
0.00121168
5.49245e-05
0.00120268
5.49001e-05
0.00119431
5.46328e-05
0.00118683
5.4254e-05
0.00118032
5.38655e-05
0.00117468
5.35372e-05
0.00116971
1.11759e-06
0.00116516
1.08061e-07
0.00116225
-4.19384e-07
0.00115945
-4.43371e-07
0.00115648
4.05034e-08
0.00115309
1.01985e-06
0.00114908
2.46875e-06
0.00114434
4.35128e-06
0.00113883
6.62723e-06
0.00113263
9.25785e-06
0.00112582
1.22106e-05
0.00111855
1.54619e-05
0.00111097
1.89986e-05
0.00110319
2.28163e-05
0.0010953
2.69162e-05
0.00108731
3.13019e-05
0.00107918
3.59738e-05
0.00107083
4.09265e-05
0.00106215
4.61459e-05
0.00105298
5.16086e-05
0.00104323
5.72834e-05
0.00103278
6.31331e-05
0.00102158
6.91186e-05
0.00100963
7.5201e-05
0.000996942
8.13439e-05
0.000983573
8.75144e-05
0.000969581
9.36823e-05
0.000955023
9.98188e-05
0.000939939
0.000105895
0.000924352
0.00011188
0.000908266
0.00011774
0.000891676
0.000123441
0.000874576
0.000128946
0.000856967
0.000134219
0.000838865
0.000139226
0.000820299
0.000143937
0.000801308
0.000148321
0.00078194
0.000152353
0.00076224
0.00015601
0.000742254
0.000159272
0.00072202
0.000162123
0.000701572
0.000164548
0.00068094
0.00016654
0.000660155
0.000168094
0.000639244
0.000169212
0.000618238
0.000169904
0.000597165
0.000170184
0.000576053
0.000170076