/*--------------------------------*- C++ -*----------------------------------*\
| =========                 |                                                 |
| \\      /  F ield         | OpenFOAM: The Open Source CFD Toolbox           |
|  \\    /   O peration     | Version:  2.1.1                                 |
|   \\  /    A nd           | Web:      www.OpenFOAM.org                      |
|    \\/     M anipulation  |                                                 |
\*---------------------------------------------------------------------------*/
FoamFile
{
    version     2.0;
    format      ascii;
    class       surfaceScalarField;
    location    "3.14";
    object      cfmax;
}
// * * * * * * * * * * * * * * * * * * * * * * * * * * * * * * * * * * * * * //

dimensions      [0 3 -1 0 0 0 0];

internalField   nonuniform List<scalar> 
19800
(
0.0496746
0.040598
0.0556361
0.0438997
0.0516195
0.0450866
0.0483066
0.0486842
0.046133
0.0491261
0.0440936
0.0471006
0.0428275
0.0445116
0.0414731
0.0421989
0.0405934
0.0394525
0.0400316
0.0367455
0.0403072
0.0390475
0.0403797
0.0424856
0.0398441
0.0447264
0.0395139
0.0468931
0.0395977
0.0489165
0.0397234
0.0509779
0.0398948
0.0529746
0.0400948
0.0548884
0.0401438
0.0568404
0.0404463
0.0589921
0.0411269
0.0610435
0.0426542
0.0621595
0.0483323
0.0620087
0.0590645
0.0594369
0.0603337
0.0547773
0.0603468
0.0537641
0.0601411
0.0540401
0.0601177
0.0541375
0.0599373
0.0543601
0.0598655
0.0543687
0.0597081
0.0545998
0.0597044
0.0546405
0.0596718
0.0548922
0.0596606
0.0549629
0.0596912
0.0552296
0.059589
0.0552927
0.059655
0.0555592
0.0596166
0.0557219
0.0595367
0.0560519
0.0595677
0.0562942
0.0595385
0.0566885
0.0595829
0.0570819
0.0597769
0.0575441
0.0599959
0.0580078
0.0602906
0.0586023
0.0606672
0.0590086
0.0611137
0.0597206
0.0616138
0.0600415
0.0621068
0.060835
0.062629
0.061135
0.0631198
0.0620034
0.0635919
0.0623506
0.0640999
0.063155
0.0645558
0.0634836
0.064985
0.0640915
0.0653324
0.0643073
0.0656197
0.0647252
0.0658306
0.0648904
0.0660949
0.0652458
0.0663209
0.0655059
0.0664774
0.065824
0.0665967
0.0661253
0.066728
0.0664507
0.0668148
0.0667149
0.0668686
0.0669404
0.0668727
0.0671672
0.0668612
0.0672428
0.0668609
0.0672718
0.0670074
0.0672534
0.0670399
0.0673788
0.0670156
0.0674094
0.0671173
0.0675921
0.0673673
0.0676582
0.0679585
0.0681924
0.0686765
0.0687852
0.0694926
0.0694799
0.0703675
0.0701975
0.0714522
0.070644
0.0731579
0.0712181
0.0746763
0.072288
0.0755555
0.0732636
0.0754782
0.0736154
0.0742458
0.0727878
0.0709316
0.0709173
0.0661231
0.0674418
0.0600341
0.0625508
0.0546173
0.0563399
0.0484603
0.0511355
0.0443662
0.0452914
0.0414986
0.0413218
0.0401768
0.0389833
0.0389738
0.0375678
0.0382321
0.0369452
0.0376469
0.0372014
0.0371424
0.0370358
0.0367176
0.0369798
0.0363432
0.0365985
0.0359934
0.0363438
0.0357277
0.0359236
0.0356469
0.0510454
0.0414468
0.0560144
0.0451712
0.0514475
0.0459112
0.0483205
0.0492093
0.0460322
0.0495887
0.0440072
0.0475339
0.0426942
0.0449437
0.0411646
0.0426239
0.0404365
0.0398695
0.040274
0.0371891
0.0407338
0.0384768
0.0404924
0.0416172
0.0398675
0.0436992
0.0396588
0.0458223
0.0395693
0.0477608
0.0395961
0.0498601
0.0397487
0.0517456
0.039968
0.0535901
0.040064
0.0553831
0.0403006
0.0573732
0.0409014
0.0594561
0.0422281
0.0609146
0.0454026
0.0613399
0.0560877
0.0598014
0.0600397
0.055126
0.0602663
0.0530191
0.0601946
0.0530652
0.0601757
0.0532503
0.0600642
0.0534433
0.0600962
0.0535408
0.0600417
0.0537771
0.0601136
0.0538922
0.0601234
0.0541622
0.0602012
0.0542831
0.0602031
0.0545328
0.0602023
0.0546173
0.0603023
0.054871
0.0602306
0.0550348
0.0601679
0.055297
0.060183
0.0554985
0.0600905
0.0558928
0.0600347
0.0562928
0.0600171
0.0567623
0.0600544
0.0572107
0.0601949
0.0577425
0.0604324
0.0581839
0.0607468
0.0588639
0.0611762
0.0592378
0.0615847
0.0600025
0.0620651
0.0604018
0.0625511
0.0612911
0.0631208
0.0617172
0.063684
0.0625499
0.064218
0.0629046
0.0647132
0.0635706
0.0651154
0.0638118
0.0654862
0.064274
0.06575
0.0645766
0.0659243
0.0649126
0.0661076
0.0651898
0.0662744
0.0655481
0.0664223
0.0658115
0.066513
0.0661037
0.0665787
0.0663725
0.066657
0.0665953
0.0667088
0.066789
0.0667268
0.0668744
0.0667047
0.0669282
0.0666265
0.0669414
0.0667247
0.0668867
0.0667517
0.0670282
0.0666939
0.0671127
0.0667739
0.0672543
0.0671513
0.0671878
0.0678771
0.0679113
0.0686943
0.0685358
0.0696832
0.0693579
0.0706451
0.0701763
0.0720303
0.070645
0.074088
0.071495
0.0755901
0.0728893
0.0757001
0.0737087
0.075041
0.0732082
0.0735014
0.0722964
0.069972
0.070736
0.0646451
0.0671419
0.0592124
0.0613785
0.0520328
0.0560365
0.0472048
0.0490322
0.0431093
0.0443694
0.040983
0.0407034
0.039702
0.0384384
0.0387421
0.0376974
0.0380627
0.0376527
0.0375442
0.0372947
0.0371493
0.0372132
0.0368331
0.0368101
0.0364761
0.0364722
0.036158
0.036011
0.035807
0.0522448
0.0426114
0.0560159
0.0463492
0.0511377
0.0466522
0.0481864
0.0498453
0.0457563
0.0500359
0.0437869
0.0479555
0.0424754
0.0453609
0.0408842
0.0430039
0.0406372
0.0403182
0.0405776
0.0377509
0.0409684
0.0378362
0.040601
0.0407139
0.0398413
0.0427078
0.0394243
0.0447801
0.0392432
0.0467386
0.0392797
0.0487002
0.0393985
0.0504999
0.0396307
0.0522535
0.0398631
0.053921
0.0400946
0.055797
0.0407091
0.0576957
0.0417017
0.0594351
0.0437544
0.0602261
0.0509592
0.0595398
0.0589996
0.0560568
0.0599496
0.0524461
0.059885
0.0520132
0.0599482
0.0522717
0.0599042
0.0524572
0.0600343
0.0526296
0.0600717
0.0528732
0.0602264
0.0530694
0.0603151
0.0533568
0.0604711
0.0535363
0.0605196
0.0537931
0.0605593
0.053921
0.0606181
0.0541694
0.0605989
0.0543575
0.0606246
0.0546187
0.0606077
0.0548337
0.060538
0.0551642
0.0605246
0.0555221
0.060514
0.0560284
0.060509
0.056502
0.0604698
0.0570869
0.06042
0.0575001
0.0604903
0.0580234
0.0607905
0.0584084
0.0610651
0.0590719
0.0615274
0.059574
0.0619659
0.0604514
0.0625526
0.0609682
0.0631535
0.0617821
0.0638037
0.062182
0.0643307
0.0628474
0.0648511
0.063215
0.0652546
0.0637577
0.0654781
0.0641474
0.0657096
0.0645339
0.0659202
0.064883
0.0661108
0.0652321
0.0662006
0.0655007
0.0662957
0.0657802
0.0664061
0.0660091
0.0664539
0.0662418
0.0664994
0.0663906
0.0665323
0.066487
0.0665072
0.0665855
0.0664186
0.0666112
0.0662478
0.0666075
0.0663108
0.0665385
0.0663703
0.0666492
0.0662921
0.06677
0.0663657
0.0669361
0.0669324
0.0667735
0.0676421
0.0675176
0.0685881
0.0683341
0.0697032
0.0694123
0.0708832
0.0703317
0.0727241
0.0707617
0.0745746
0.0721179
0.0750585
0.0731461
0.0752193
0.073333
0.0752241
0.0733395
0.0733691
0.0726114
0.0693432
0.0709105
0.0636578
0.065674
0.056623
0.060501
0.0511794
0.0537678
0.0460632
0.0483393
0.0423937
0.0435865
0.0402719
0.0400548
0.0392018
0.0386135
0.038383
0.0383338
0.0378115
0.0377353
0.0374012
0.0375346
0.0370719
0.0371076
0.0367598
0.0366899
0.0364663
0.0361912
0.0361434
0.0535658
0.043982
0.0559658
0.0478056
0.0510184
0.0476216
0.0478791
0.0506286
0.0454098
0.0505631
0.0434664
0.0484497
0.0421811
0.0457976
0.0410175
0.043386
0.0409103
0.0408855
0.0410237
0.0384693
0.041207
0.037105
0.0407627
0.0398237
0.0399723
0.0418199
0.0393115
0.0439036
0.0387464
0.0457634
0.0387067
0.0476009
0.0388372
0.0493296
0.0391218
0.0509593
0.0394792
0.0524662
0.0397972
0.0542324
0.0402841
0.0561432
0.0411175
0.0577886
0.0427018
0.0588409
0.0472275
0.0588704
0.0566419
0.0568233
0.059206
0.0522154
0.0592699
0.0510333
0.0594403
0.0511964
0.0595067
0.0514151
0.0597121
0.051653
0.0598436
0.0518983
0.0600795
0.0521623
0.060242
0.052453
0.0604569
0.0526941
0.060561
0.0529625
0.0606799
0.0531541
0.0607345
0.0534162
0.060782
0.0536314
0.0608864
0.0539325
0.0608657
0.0541864
0.0608324
0.0544508
0.0608421
0.0548227
0.0608784
0.0552774
0.0609272
0.0557695
0.0609106
0.0562941
0.060838
0.0567551
0.0606812
0.0573145
0.060598
0.0576529
0.0607276
0.0581289
0.0610871
0.0586949
0.0614574
0.0595021
0.0620295
0.0600929
0.0626274
0.0608246
0.0632801
0.061285
0.0638775
0.0619733
0.064416
0.0624741
0.0648764
0.0631231
0.0652328
0.0636183
0.0655022
0.0641607
0.0656354
0.0645324
0.0658473
0.0648787
0.0660489
0.0652032
0.0661383
0.0654433
0.0661991
0.0656658
0.0662838
0.0658433
0.0663157
0.0660136
0.0663066
0.06613
0.0662562
0.0662289
0.0661477
0.0663024
0.0660212
0.0663023
0.0658195
0.0662623
0.0659169
0.0661685
0.0659976
0.0663218
0.0659126
0.0663941
0.0659814
0.0665158
0.0665939
0.0662274
0.0674995
0.0670387
0.0686822
0.0680017
0.0701339
0.0692534
0.0712426
0.0702167
0.072944
0.0710461
0.0746318
0.0719554
0.0761497
0.0732321
0.0760539
0.0740502
0.0753588
0.0735335
0.0722854
0.072165
0.0678254
0.0688629
0.0619917
0.0655034
0.0559544
0.0591135
0.0495709
0.0533229
0.0448126
0.0471124
0.0414025
0.0430489
0.0398921
0.0401334
0.0388042
0.0392383
0.0380892
0.0383599
0.0376489
0.0379901
0.0373169
0.0375051
0.0370426
0.0370193
0.0367784
0.0364648
0.036427
0.0543609
0.0452427
0.0561833
0.0489834
0.0507892
0.0484078
0.0476208
0.0513852
0.0450152
0.0511665
0.0431287
0.049022
0.0423229
0.0462766
0.0413293
0.0438252
0.0411926
0.0415196
0.0415272
0.0392311
0.0415751
0.0368843
0.0409488
0.0391094
0.0404104
0.0411523
0.0397417
0.0431116
0.0390232
0.0448212
0.0382724
0.046522
0.0381658
0.0480742
0.0384484
0.0496845
0.0388713
0.0511806
0.0392944
0.0527526
0.0397702
0.0544924
0.0405267
0.0562046
0.0418207
0.0574555
0.0445252
0.0578027
0.052401
0.0565945
0.0579307
0.0525548
0.0584829
0.050264
0.0587116
0.0500553
0.058896
0.0503544
0.0591655
0.0506219
0.0593851
0.0508918
0.0596929
0.0511883
0.0599129
0.0514791
0.0601955
0.0517691
0.0603584
0.0520502
0.0605507
0.0523069
0.0606672
0.0525976
0.0607651
0.052858
0.0609473
0.0531886
0.0609762
0.0535078
0.0609737
0.0537896
0.0610184
0.0541634
0.0610826
0.0545818
0.0611463
0.0550986
0.0611596
0.055601
0.0611397
0.0560699
0.0610292
0.0566088
0.0608868
0.0570505
0.0607052
0.0576468
0.0608007
0.0579917
0.0610505
0.0586147
0.0615572
0.0591761
0.0621195
0.0597972
0.062769
0.0603118
0.0633291
0.0610772
0.0638625
0.0616738
0.0643424
0.0624241
0.064764
0.0630381
0.0651178
0.0636598
0.0654218
0.0641449
0.0656303
0.0645517
0.0658136
0.0648226
0.0659432
0.0651151
0.066047
0.0653121
0.0660936
0.0654729
0.0660989
0.065634
0.0660594
0.0658086
0.0659746
0.0659263
0.0658816
0.0659789
0.0657478
0.0659838
0.0655897
0.0659551
0.065393
0.0658901
0.0654718
0.0657828
0.0655823
0.0658809
0.0654764
0.0659563
0.0654963
0.066007
0.0661572
0.0656719
0.0671865
0.0666045
0.0686713
0.067636
0.0701593
0.0690687
0.0714611
0.0702683
0.0734995
0.0708684
0.0754452
0.0724517
0.075867
0.0735968
0.0749458
0.0736293
0.0733383
0.07255
0.0711288
0.0712307
0.0668892
0.0695257
0.0605851
0.0638262
0.0536308
0.0582219
0.0488192
0.0517003
0.04382
0.0477767
0.0411189
0.0426456
0.0393982
0.0407233
0.0384243
0.0392451
0.0377815
0.0386244
0.0373946
0.0379808
0.0371585
0.0374317
0.0369074
0.036781
0.0366883
0.054666
0.0462497
0.0559019
0.0493421
0.0506126
0.0485871
0.0477654
0.0519932
0.0454987
0.0517867
0.0437575
0.0497688
0.0428017
0.0469046
0.0417712
0.044377
0.041661
0.0420638
0.0422532
0.0396195
0.0422617
0.0369435
0.0417244
0.0386626
0.0410551
0.0405516
0.040285
0.042308
0.0395559
0.043947
0.03871
0.0454605
0.0379088
0.0468938
0.0376886
0.0484052
0.0381747
0.0499183
0.0386405
0.051411
0.0391356
0.0529834
0.0399157
0.054648
0.0410371
0.0560111
0.0429079
0.0565228
0.0482549
0.0559627
0.0558595
0.0533245
0.0576467
0.0497439
0.0578101
0.0490972
0.0581512
0.0493116
0.0584643
0.0495768
0.0587681
0.0498477
0.0591245
0.050164
0.0594143
0.0504419
0.0597577
0.0507789
0.0599697
0.051084
0.0602229
0.0514047
0.0603944
0.0517206
0.0605646
0.0520445
0.0607842
0.0524056
0.0609158
0.0527703
0.060994
0.0531149
0.0610998
0.0534802
0.0611658
0.0539267
0.0612732
0.0544178
0.0612921
0.0548956
0.0612883
0.0553812
0.0612101
0.0558587
0.0611327
0.0563343
0.0611022
0.0569139
0.0609898
0.0574249
0.0609545
0.0579526
0.0611735
0.0583215
0.0616282
0.0588141
0.0621731
0.0593525
0.0626551
0.0601914
0.0631892
0.0608764
0.0637286
0.061708
0.0642168
0.062406
0.0646625
0.0630778
0.0650313
0.0636546
0.0653624
0.0641156
0.0656234
0.0644739
0.0657893
0.0647237
0.0658568
0.0649956
0.0658686
0.0651273
0.0659002
0.0652888
0.0658239
0.065471
0.0656901
0.0656274
0.0655605
0.0656845
0.0654463
0.0657104
0.0652967
0.0656531
0.065087
0.0655709
0.0648831
0.0654545
0.0649654
0.0652915
0.065051
0.065388
0.0649485
0.0653846
0.0649751
0.0654238
0.0657762
0.0650645
0.0670454
0.0660243
0.0687038
0.0672751
0.070439
0.0688858
0.0717847
0.0700712
0.0736537
0.0711593
0.0745511
0.0728842
0.0746932
0.0734407
0.0751162
0.0731444
0.0738124
0.0729424
0.0702213
0.0719216
0.0651768
0.0672568
0.0598384
0.0632782
0.0540717
0.0578086
0.0469723
0.052766
0.0432592
0.0459161
0.0406872
0.0431993
0.0391973
0.0408619
0.0380592
0.0397098
0.0375074
0.0387305
0.0372706
0.0380223
0.0371235
0.0372835
0.0368679
0.054571
0.0471732
0.0555612
0.0494957
0.0509986
0.0485918
0.0484385
0.0522798
0.0463785
0.0522796
0.0446652
0.0505734
0.0436577
0.0476805
0.0428121
0.0449348
0.0427882
0.0424497
0.0433819
0.0397054
0.0432653
0.0369761
0.0423972
0.0380229
0.0415069
0.0397577
0.0407574
0.0415283
0.0399785
0.0430837
0.0390964
0.0444615
0.0382483
0.0458281
0.0374587
0.0472699
0.0374131
0.0487471
0.0379599
0.0501975
0.0385007
0.0516669
0.0392796
0.0531809
0.0402938
0.0545173
0.0419132
0.0553328
0.0454559
0.0551473
0.0532234
0.053446
0.0565297
0.0496752
0.0570629
0.0483658
0.0574831
0.0484285
0.0578025
0.0486591
0.0581745
0.0489382
0.0585287
0.049212
0.0588694
0.0494886
0.0592233
0.0497964
0.0594818
0.0501099
0.0597751
0.0504681
0.0599866
0.0508061
0.0602264
0.0512056
0.0604622
0.0515898
0.060666
0.0519988
0.0608488
0.0523916
0.0609974
0.0528053
0.0610902
0.0532573
0.0612145
0.053721
0.0612714
0.0542515
0.0612634
0.0547307
0.0612089
0.055221
0.0611919
0.0557122
0.0612442
0.0563088
0.0612447
0.0568938
0.0612323
0.057393
0.0610855
0.0579109
0.0612085
0.0581793
0.0615224
0.0585552
0.0618923
0.0593508
0.0624239
0.0600626
0.0629685
0.0609331
0.0635494
0.0616844
0.0641214
0.0624336
0.064609
0.0630539
0.0650197
0.0635808
0.0652958
0.0639636
0.0655168
0.0643364
0.0656827
0.0646215
0.0657079
0.0648172
0.0655966
0.0649454
0.0655521
0.0651149
0.065437
0.0653035
0.0652856
0.0653723
0.0651128
0.0654083
0.0649166
0.0653443
0.0647323
0.0652419
0.0645309
0.0650567
0.0643632
0.0648701
0.0644413
0.0646754
0.0645423
0.06472
0.0644277
0.0647416
0.0644332
0.0647657
0.0653258
0.0643501
0.0666775
0.0655077
0.0685367
0.0669933
0.070199
0.0687219
0.0718503
0.070033
0.0736847
0.071361
0.0754296
0.0727603
0.075637
0.0735815
0.0748808
0.0735198
0.0722172
0.0724382
0.068881
0.069834
0.0646954
0.0677882
0.0591062
0.0628867
0.0513462
0.057771
0.0475465
0.0504317
0.0433153
0.0474995
0.040753
0.0430228
0.0391544
0.0410902
0.0380005
0.0397405
0.0370619
0.0388176
0.0369474
0.0379535
0.0371313
0.0543132
0.0480505
0.055816
0.0496545
0.0520585
0.0486839
0.0492419
0.0524071
0.0473989
0.052737
0.0457059
0.0511504
0.0446211
0.048377
0.0438497
0.0454255
0.0437328
0.0429286
0.0439892
0.0400819
0.0436455
0.0372809
0.0428015
0.0374064
0.0420072
0.0391327
0.0412282
0.0407958
0.0403698
0.0422326
0.0394946
0.043546
0.0386479
0.0448851
0.0378436
0.0462483
0.0370879
0.0476848
0.0372096
0.0490798
0.0378069
0.0504855
0.0385341
0.0518607
0.0395071
0.0530655
0.0410288
0.0539472
0.0435031
0.0541541
0.0496162
0.0530599
0.0551426
0.0500951
0.0564097
0.0479507
0.0568623
0.0476878
0.0572743
0.0479261
0.0576741
0.0482099
0.0580398
0.0484826
0.0584153
0.0487904
0.058715
0.0490949
0.0589995
0.0494021
0.0592953
0.0497143
0.0595172
0.0500259
0.0597876
0.050377
0.0600396
0.0507662
0.0603103
0.0512156
0.0605369
0.0516365
0.0607235
0.0520959
0.0608796
0.0525485
0.0610349
0.0530358
0.0611072
0.0535602
0.0611795
0.0540401
0.0611676
0.0545865
0.0612085
0.0550795
0.0612814
0.0556627
0.0613628
0.0562604
0.0613816
0.056724
0.0612942
0.0572565
0.0611293
0.0576981
0.0610003
0.0580153
0.0612097
0.0586291
0.0616505
0.0592212
0.0621977
0.060082
0.0628375
0.0608575
0.0634816
0.0616409
0.0640896
0.0623185
0.0645799
0.0629167
0.0649858
0.0634247
0.0652329
0.063821
0.0653268
0.0641638
0.0654059
0.064454
0.0653832
0.0647101
0.065263
0.0648315
0.065122
0.0649368
0.0649417
0.0650407
0.0647687
0.0650325
0.0645729
0.0650021
0.064361
0.0648345
0.0641701
0.0646302
0.0640025
0.0644116
0.063806
0.0641884
0.0638564
0.0639605
0.0639354
0.0640127
0.0638336
0.0640521
0.0637918
0.0639646
0.0648133
0.0637676
0.0663879
0.0649094
0.0683895
0.0663713
0.0702414
0.068365
0.0722652
0.0696463
0.0745974
0.0713229
0.0752231
0.0728553
0.0744369
0.0737127
0.0730419
0.0726448
0.0717764
0.0716476
0.0686907
0.0711733
0.0637876
0.0666361
0.0579196
0.0623397
0.0525961
0.0570288
0.0461995
0.0521719
0.0433493
0.0460727
0.0407177
0.0438199
0.0391849
0.0413117
0.0378811
0.040121
0.0368879
0.0389642
0.037933
0.054041
0.0488277
0.0559136
0.0496183
0.0523131
0.0486855
0.0497059
0.0519938
0.0478902
0.0531814
0.0462047
0.0515482
0.0450835
0.0488368
0.0445035
0.0458533
0.0444633
0.0433051
0.0445872
0.0404598
0.0442013
0.0376456
0.0433581
0.0368623
0.0424972
0.0384897
0.0415823
0.0400032
0.0406854
0.0414052
0.0398145
0.0427073
0.0389562
0.0440148
0.0381544
0.0453324
0.0373786
0.0467134
0.0366345
0.0480645
0.0370904
0.0493841
0.0377698
0.0506492
0.038685
0.0517639
0.0400767
0.0526064
0.0421399
0.052931
0.046665
0.0524214
0.0531707
0.0504702
0.0554635
0.0478532
0.0560551
0.0471573
0.056634
0.0472833
0.0570326
0.0475027
0.0574418
0.0478063
0.0578615
0.0481176
0.0582054
0.0484374
0.0585454
0.0487822
0.0588544
0.0491048
0.0590633
0.049446
0.0593237
0.0497954
0.0595468
0.0501404
0.0598332
0.0505208
0.060073
0.0509187
0.0602823
0.0513702
0.0604854
0.0518226
0.0606521
0.0523165
0.0607793
0.0528431
0.060885
0.0533868
0.060954
0.0539847
0.0610327
0.0545036
0.0611258
0.0551151
0.061268
0.0557288
0.0612997
0.0561872
0.0612594
0.0567868
0.0611677
0.0573274
0.0609669
0.0577908
0.0608169
0.0584178
0.0610377
0.0585862
0.0614997
0.0592988
0.0621392
0.0599816
0.0628298
0.0607537
0.0634903
0.0614826
0.064079
0.0621715
0.0645108
0.0627811
0.0647983
0.0632984
0.0649898
0.0637066
0.0650856
0.0640499
0.0650887
0.0643511
0.0649192
0.064516
0.0648193
0.0645299
0.0646416
0.0646794
0.0644412
0.0646578
0.0642274
0.064583
0.0639936
0.0643907
0.0637857
0.0641647
0.063566
0.0639005
0.0633538
0.0636794
0.0631598
0.0634554
0.0631901
0.0632535
0.063213
0.06327
0.0631623
0.0632765
0.0632495
0.0631479
0.0643559
0.0628445
0.066075
0.0641332
0.0683879
0.0659168
0.0700208
0.0678607
0.0722438
0.0696114
0.0736687
0.0712366
0.0743039
0.0729107
0.0740854
0.0734025
0.0740084
0.0729456
0.0714853
0.072874
0.0673821
0.0691118
0.0634149
0.0662939
0.0578828
0.0626022
0.0495404
0.0571098
0.046763
0.0498116
0.0429988
0.0474589
0.0410618
0.043421
0.0392628
0.0418156
0.037918
0.0401544
0.0389102
0.0540036
0.0494747
0.0560117
0.0497313
0.0533355
0.0487797
0.0500481
0.0511598
0.0484969
0.0531657
0.0465473
0.0516538
0.0456951
0.0490619
0.0451604
0.0461864
0.0450419
0.0436187
0.0449825
0.0408042
0.0444537
0.0380637
0.0435642
0.0363176
0.0426996
0.0378949
0.04182
0.0393212
0.0409367
0.040673
0.040077
0.0419289
0.0392182
0.0432109
0.0384033
0.0444898
0.037594
0.045817
0.0368544
0.0471027
0.0364452
0.0483325
0.037101
0.0494933
0.0379816
0.0505289
0.0392321
0.0513572
0.040965
0.0518158
0.0443394
0.0515704
0.0506364
0.0503839
0.0539714
0.0478866
0.0549851
0.046797
0.0556602
0.0466643
0.0561281
0.0468656
0.0565716
0.0471594
0.0570132
0.047483
0.0574315
0.0478191
0.0578292
0.0481715
0.0581876
0.0485212
0.0585181
0.0488864
0.0588334
0.0492594
0.0590711
0.0496274
0.0593484
0.0500178
0.0595578
0.0503891
0.0597738
0.050781
0.0599833
0.0511924
0.0601589
0.0516536
0.0603226
0.0521883
0.0604867
0.0527139
0.0606383
0.0533144
0.060776
0.0538805
0.060893
0.0545066
0.0610828
0.0550962
0.0611099
0.0556068
0.0610974
0.056245
0.0610564
0.0568334
0.0610142
0.0573913
0.0609351
0.0580719
0.0606648
0.058423
0.0609089
0.0587779
0.0614266
0.0592114
0.0620911
0.0599041
0.0627849
0.0606336
0.0634045
0.0614065
0.0639006
0.0621381
0.0642692
0.0627645
0.0644824
0.0632835
0.0645904
0.063678
0.0646997
0.0639453
0.0646708
0.0641638
0.0644903
0.0642088
0.0642875
0.064233
0.064084
0.0642242
0.0638704
0.0641217
0.0636164
0.0639545
0.0633502
0.063712
0.0631134
0.0634443
0.0628839
0.0631688
0.0626641
0.0628889
0.062432
0.0626382
0.0624833
0.062398
0.0625162
0.0624164
0.0624815
0.0624652
0.062417
0.062162
0.0636257
0.0622408
0.0654284
0.0635979
0.0675664
0.0654433
0.0696068
0.0676599
0.0718214
0.0690485
0.0740967
0.0711872
0.0748224
0.072719
0.0745551
0.0729824
0.0722903
0.0732787
0.0701357
0.0707549
0.067524
0.0698746
0.0627376
0.0664173
0.0558908
0.0618316
0.0515459
0.0562435
0.0458697
0.0518768
0.0433584
0.0463936
0.0407689
0.0441612
0.0392395
0.0416879
0.040308
0.0536198
0.050515
0.0560868
0.0500282
0.05313
0.0490792
0.0499332
0.0502137
0.0486405
0.0528191
0.0469073
0.0516413
0.0460941
0.0492161
0.0457528
0.0464553
0.0455326
0.0438427
0.045347
0.0411199
0.0448089
0.0384051
0.0439144
0.0360642
0.0430626
0.0372863
0.0421489
0.0386232
0.0411611
0.0399216
0.0402682
0.0411938
0.0393796
0.0424679
0.0385756
0.0437224
0.0377845
0.0449843
0.0370609
0.0461725
0.0364934
0.0472954
0.0364785
0.0483622
0.0373587
0.0493446
0.0385318
0.0501886
0.040059
0.0507727
0.0425537
0.0508337
0.0476568
0.0500334
0.052099
0.0480843
0.0536646
0.0466435
0.054319
0.0461973
0.0549717
0.0463268
0.0554252
0.0465615
0.0558829
0.0468876
0.0563475
0.0472401
0.0567872
0.047594
0.057207
0.0479551
0.0576203
0.0483214
0.0580036
0.0487032
0.0583435
0.049089
0.0586915
0.0494792
0.0589503
0.0498777
0.059205
0.0503034
0.0594004
0.0507141
0.0595506
0.0511576
0.0597287
0.0516398
0.0599217
0.0521348
0.0601176
0.0527328
0.0603049
0.0532685
0.0604616
0.0539127
0.0606524
0.0545276
0.0607264
0.0551165
0.0607849
0.0557691
0.0607967
0.0564393
0.0608525
0.0570647
0.0609238
0.0577022
0.0608512
0.0581728
0.0607773
0.058756
0.0607986
0.0588986
0.0613077
0.0592524
0.0619277
0.059877
0.0625581
0.0606548
0.063126
0.0614739
0.063592
0.0622235
0.063918
0.0628407
0.0641153
0.0632875
0.0642026
0.0635894
0.0642726
0.063756
0.0641719
0.0638704
0.0640159
0.0638049
0.063782
0.0638059
0.063524
0.0636974
0.0632602
0.0635127
0.0629728
0.0633136
0.0626768
0.0629899
0.0623563
0.0626894
0.0621016
0.0623624
0.0618668
0.0620728
0.061656
0.0618269
0.0617711
0.0616015
0.061564
0.0616535
0.061603
0.0615708
0.0616792
0.0614069
0.0629076
0.0613572
0.064907
0.0627717
0.0673569
0.064798
0.0694363
0.0668022
0.0720672
0.0689749
0.073348
0.0703028
0.0736808
0.0723416
0.0724728
0.0733639
0.0723515
0.0717955
0.0704428
0.0721568
0.066398
0.0690226
0.0618504
0.0659157
0.0569819
0.0616197
0.0496043
0.0570135
0.0463904
0.0501505
0.0428011
0.0471505
0.040932
0.0436983
0.0419454
0.0531726
0.0520779
0.05582
0.0501669
0.0538082
0.0497015
0.0499545
0.050556
0.0490333
0.0521968
0.0473097
0.0514487
0.046645
0.049217
0.0459929
0.046691
0.0457344
0.0441353
0.045347
0.0415715
0.0447891
0.0386707
0.0439791
0.0364717
0.0430391
0.0366877
0.04209
0.0379941
0.0411497
0.0392749
0.0403055
0.0405445
0.0394976
0.0418282
0.0387186
0.0430381
0.0379136
0.044197
0.0371789
0.0452492
0.036598
0.0462641
0.035998
0.047269
0.0368691
0.0482375
0.0380209
0.0491191
0.0394413
0.0498309
0.0414569
0.0502086
0.0454144
0.0498319
0.0500174
0.0484891
0.0520691
0.0466871
0.0529159
0.0459985
0.0536519
0.0458972
0.0541322
0.046083
0.0545803
0.046404
0.0550661
0.0467399
0.0555472
0.0470869
0.0560241
0.0474552
0.0565043
0.0478145
0.0569479
0.0481777
0.0573629
0.0485702
0.0577441
0.0489621
0.0580896
0.0493678
0.0584157
0.0497783
0.0586901
0.0502136
0.0589223
0.050686
0.0591354
0.0512096
0.0593402
0.0517014
0.0595603
0.0522595
0.0597254
0.052836
0.0599471
0.0534213
0.0601213
0.0539758
0.060239
0.054604
0.0603416
0.0552245
0.0604324
0.0558882
0.0605708
0.0565725
0.06072
0.0571989
0.0607418
0.0578066
0.0607694
0.05846
0.0605912
0.0588354
0.0605842
0.0590707
0.0609864
0.0593508
0.061564
0.059982
0.0621838
0.0608045
0.0627493
0.0616012
0.063222
0.0622892
0.0635516
0.0628456
0.0637197
0.0631987
0.0637837
0.0633612
0.0637949
0.0634769
0.0636343
0.0634958
0.0634868
0.0633739
0.0631465
0.0633249
0.062878
0.0631377
0.062524
0.0629381
0.0621959
0.0626215
0.0618462
0.0622969
0.0615092
0.061961
0.0612441
0.0616198
0.060994
0.0613318
0.0607972
0.0610517
0.0608511
0.0607835
0.0607915
0.0607985
0.0607908
0.060815
0.0607689
0.060274
0.0622581
0.0604969
0.0644065
0.0619831
0.0670144
0.0641809
0.0689719
0.0667375
0.0707051
0.0684594
0.0728121
0.0706472
0.073414
0.0726296
0.0730643
0.0720345
0.0717987
0.0725983
0.0692667
0.0707966
0.0663339
0.0690119
0.061675
0.0663205
0.0548717
0.0614348
0.0504204
0.0556726
0.0455911
0.0511006
0.0431083
0.0465852
0.0441723
0.0526521
0.0537216
0.0555451
0.0507686
0.054118
0.0503738
0.0502087
0.0507262
0.0489467
0.0514076
0.0473301
0.0510661
0.0467023
0.0490388
0.0463194
0.0468368
0.0459491
0.0443689
0.045374
0.0418496
0.0447384
0.0390648
0.04392
0.0369186
0.0430583
0.0361052
0.0421441
0.0374022
0.0412009
0.0386411
0.0403567
0.0399065
0.0395367
0.0412017
0.0387181
0.0423583
0.0379126
0.043414
0.0372279
0.0443595
0.0366445
0.0452964
0.0359524
0.0462544
0.0365179
0.0472391
0.0376884
0.048186
0.0390588
0.0490407
0.0408607
0.0496687
0.0438532
0.049676
0.047985
0.0488642
0.0503845
0.0470629
0.0515183
0.0461152
0.0521978
0.0457489
0.0528017
0.0457787
0.0532428
0.046048
0.0537088
0.0463857
0.0542003
0.0467097
0.0547211
0.0470257
0.0552551
0.0473616
0.0557341
0.0477538
0.0561844
0.0481178
0.0565892
0.0484929
0.0569816
0.0488881
0.0573203
0.0493122
0.057659
0.0497416
0.0579464
0.0502041
0.0582656
0.0506916
0.058523
0.0512629
0.0588177
0.0518253
0.0590596
0.0524163
0.0592516
0.0529775
0.0594337
0.0535209
0.059598
0.0541413
0.059703
0.0547165
0.0598729
0.0554238
0.0600469
0.0561444
0.0602354
0.056781
0.0603464
0.0574585
0.0604655
0.0581025
0.0604501
0.058633
0.0603367
0.0591588
0.0602562
0.0593522
0.0606454
0.0595966
0.0612077
0.0602587
0.0618519
0.0609909
0.0624638
0.0617127
0.0629233
0.0623373
0.0631897
0.06278
0.0632976
0.0630126
0.0633389
0.0631197
0.0633029
0.0631854
0.063081
0.0631221
0.0627857
0.0629873
0.0624337
0.0628582
0.0621089
0.0625969
0.0617173
0.062296
0.0613466
0.0619617
0.0609664
0.0616477
0.0606249
0.0612953
0.0603478
0.0609182
0.0600619
0.0605783
0.0598336
0.0602697
0.0600014
0.0599209
0.0596442
0.0599025
0.0597098
0.0596705
0.0600013
0.0594094
0.0613734
0.0594803
0.0637086
0.0610787
0.0662794
0.0636422
0.0683705
0.0662205
0.0712665
0.0681567
0.0727175
0.0703077
0.0725488
0.0708445
0.0726463
0.0722035
0.0714032
0.071965
0.0695382
0.0712861
0.0662835
0.0696866
0.0604459
0.0662492
0.0556065
0.0608387
0.0495102
0.0562117
0.046064
0.0503831
0.0469723
0.0520933
0.0554778
0.055611
0.0513785
0.0547235
0.0511565
0.0515628
0.0517047
0.0498239
0.0511626
0.0479537
0.0508459
0.0473793
0.0489947
0.0464802
0.0471026
0.045808
0.0445388
0.045279
0.0419901
0.0446177
0.039354
0.0439401
0.037217
0.0431574
0.0355889
0.0422236
0.0368
0.0412364
0.0379869
0.0403412
0.0392374
0.0394731
0.0405555
0.0386582
0.0416847
0.0378923
0.0426536
0.0372561
0.0434935
0.0366347
0.0443478
0.0358023
0.0452867
0.0363262
0.0463526
0.0375268
0.0474375
0.0388959
0.0484785
0.0405931
0.0493416
0.042867
0.0497397
0.0462247
0.0492831
0.0487896
0.0478539
0.0500871
0.0464716
0.0508408
0.0458554
0.0515316
0.0456997
0.0520034
0.045823
0.0524529
0.0461573
0.0529591
0.0464854
0.0534756
0.0467404
0.0540151
0.0470613
0.0545542
0.0473886
0.0550355
0.0477472
0.0554871
0.0481283
0.0558795
0.048513
0.0562394
0.0489284
0.0565874
0.0493443
0.0569389
0.0497964
0.0572726
0.0502573
0.0576291
0.0508238
0.0579953
0.0513842
0.0582716
0.0520063
0.0585457
0.0525859
0.058767
0.0531687
0.0589033
0.0537447
0.0590109
0.0543643
0.0591968
0.0550079
0.059362
0.0556836
0.0595739
0.0562714
0.0597588
0.0569293
0.0599207
0.0575493
0.060035
0.0582132
0.0600674
0.0589229
0.0599547
0.0594248
0.0598062
0.059745
0.0601811
0.0599515
0.0608045
0.0604965
0.0615055
0.0611659
0.0620943
0.0618334
0.0624989
0.0623685
0.0627225
0.0627333
0.0627888
0.0629245
0.0627734
0.0629418
0.062615
0.062955
0.0623408
0.0627897
0.0619911
0.0626073
0.0616064
0.0623444
0.0611698
0.0620336
0.0607137
0.0617138
0.0603974
0.0613046
0.0600131
0.0609875
0.0596732
0.0605868
0.0593896
0.0601481
0.0591145
0.0597995
0.0588535
0.059349
0.0588337
0.0589396
0.058739
0.0588322
0.0587546
0.0587817
0.0588001
0.0582907
0.0603758
0.0585899
0.0629929
0.0603874
0.0661673
0.0630389
0.0685061
0.065493
0.0698798
0.0670822
0.0708838
0.0691791
0.0723143
0.0719195
0.0728963
0.0716782
0.0720881
0.0730993
0.0696929
0.0716549
0.0657623
0.0692965
0.060208
0.0657163
0.0542337
0.0608442
0.049816
0.0552653
0.0509399
0.0512073
0.05731
0.0556909
0.052066
0.0558812
0.0520573
0.0531826
0.0526109
0.0501374
0.0511071
0.0483181
0.050159
0.0477328
0.0485749
0.0469282
0.046921
0.0458119
0.04471
0.0451675
0.0421469
0.0444708
0.0398195
0.0438862
0.0377022
0.0430471
0.0360122
0.0420799
0.0364062
0.0411279
0.0374399
0.0401802
0.0386326
0.0392834
0.0398835
0.0383924
0.0409773
0.0376619
0.0418896
0.0370645
0.0426731
0.0363709
0.0435307
0.0354097
0.0445585
0.0363283
0.045756
0.0375925
0.0470288
0.0389756
0.0482622
0.040547
0.0493505
0.0423817
0.049942
0.0447209
0.0497588
0.0471745
0.0487591
0.0486648
0.0471743
0.0495502
0.0462618
0.0502075
0.045916
0.0507255
0.0458606
0.0511815
0.0460507
0.0517316
0.046339
0.0522669
0.0466326
0.0528235
0.0469278
0.0533506
0.0472018
0.0538714
0.0475373
0.0543464
0.0478609
0.0547591
0.048266
0.0551269
0.0486644
0.0554656
0.0490584
0.0558092
0.0494826
0.0561231
0.0499258
0.0564907
0.0504372
0.0568545
0.0509417
0.0572021
0.0515324
0.0575451
0.0520861
0.0578019
0.0527197
0.0580329
0.0533443
0.0582434
0.053992
0.0584313
0.0546161
0.0586055
0.0552681
0.0587574
0.0558116
0.0589837
0.0564664
0.0591364
0.0570545
0.059338
0.0577847
0.059483
0.0585738
0.059589
0.0591499
0.0595616
0.0597797
0.0593601
0.0602436
0.059783
0.0602174
0.0604231
0.0606738
0.061094
0.061327
0.0616542
0.0619476
0.0620118
0.0624236
0.0621797
0.0627163
0.0622
0.0628427
0.0621428
0.0628105
0.0618853
0.0627117
0.0615953
0.0624567
0.0611146
0.0622091
0.0606593
0.0618659
0.0600528
0.0615101
0.0596591
0.0610243
0.0593799
0.0606112
0.0590116
0.0602579
0.0586646
0.0597713
0.0583601
0.0593188