/*--------------------------------*- C++ -*----------------------------------*\
| =========                 |                                                 |
| \\      /  F ield         | OpenFOAM: The Open Source CFD Toolbox           |
|  \\    /   O peration     | Version:  2.1.1                                 |
|   \\  /    A nd           | Web:      www.OpenFOAM.org                      |
|    \\/     M anipulation  |                                                 |
\*---------------------------------------------------------------------------*/
FoamFile
{
    version     2.0;
    format      ascii;
    class       volScalarField;
    location    "3.14";
    object      rho;
}
// * * * * * * * * * * * * * * * * * * * * * * * * * * * * * * * * * * * * * //

dimensions      [1 -3 0 0 0 0 0];

internalField   nonuniform List<scalar> 
10000
(
3.5319
3.09298
3.25559
3.77196
4.02764
4.17912
4.29144
4.37439
4.45989
4.49974
4.43641
4.35577
4.38915
4.48953
4.57607
4.64928
4.71309
4.78192
4.89356
5.03659
5.09912
4.98453
4.54996
3.48658
2.85631
2.84291
2.88657
2.93533
2.96853
3.01534
3.04579
3.08185
3.10332
3.12747
3.14533
3.15641
3.16543
3.15404
3.14526
3.10563
3.0598
2.99549
2.93004
2.86766
2.80921
2.75439
2.69772
2.64468
2.59036
2.54559
2.5055
2.47261
2.44348
2.422
2.40397
2.38952
2.37974
2.375
2.37534
2.37946
2.39473
2.42126
2.4523
2.48861
2.52159
2.55718
2.59636
2.64176
2.6868
2.72359
2.7552
2.7767
2.7626
2.72328
2.66423
2.57445
2.45391
2.30675
2.13229
1.99429
1.90461
1.87005
1.88896
1.97235
2.18249
2.46879
2.96031
3.541
4.14443
4.60575
4.95311
5.20983
5.42164
5.56905
5.70705
5.81756
5.93249
6.02676
6.11083
6.16359
3.53652
3.10342
3.26629
3.7696
4.01524
4.16659
4.27068
4.35422
4.44151
4.45871
4.36841
4.30697
4.37618
4.4834
4.57184
4.65308
4.73134
4.81544
4.91687
5.06392
5.17422
5.13829
4.86778
4.04728
3.07648
2.94738
2.98201
3.0344
3.07076
3.11626
3.14501
3.18144
3.20308
3.2287
3.24684
3.26719
3.27931
3.27719
3.27637
3.24375
3.20842
3.15776
3.09478
3.02296
2.95725
2.88977
2.82222
2.75647
2.68797
2.63047
2.57721
2.53709
2.49897
2.46783
2.44193
2.41864
2.40282
2.39131
2.38529
2.3861
2.39626
2.41683
2.44464
2.481
2.51279
2.54359
2.57795
2.61551
2.66125
2.70708
2.74576
2.77844
2.80313
2.78303
2.74006
2.66873
2.56097
2.43272
2.27305
2.09737
1.95199
1.881
1.87363
1.90661
2.00574
2.24993
2.59518
3.06002
3.74702
4.25064
4.70633
5.05465
5.272
5.45819
5.61198
5.73639
5.85456
5.95375
6.04645
6.11597
3.52356
3.13605
3.29432
3.75637
3.99682
4.14996
4.25283
4.33374
4.42375
4.41727
4.30761
4.27272
4.37165
4.47787
4.57244
4.6586
4.75587
4.84782
4.94514
5.08432
5.22012
5.25338
5.08254
4.5258
3.46184
3.07324
3.07483
3.13001
3.16973
3.21198
3.2399
3.2747
3.2956
3.32097
3.33762
3.36113
3.37558
3.38346
3.38787
3.36229
3.3402
3.30345
3.25019
3.1943
3.12889
3.05767
2.97743
2.89296
2.80971
2.73896
2.67078
2.61885
2.56757
2.52639
2.48824
2.45743
2.42989
2.41201
2.40314
2.39872
2.40106
2.41549
2.43935
2.47204
2.50278
2.53321
2.56448
2.59782
2.63731
2.68389
2.73292
2.77314
2.80624
2.83496
2.80553
2.7542
2.66461
2.542
2.40259
2.23101
2.04973
1.93207
1.88805
1.87524
1.93206
2.02406
2.31913
2.68903
3.29578
3.83493
4.38443
4.83403
5.10593
5.3271
5.49999
5.64209
5.75816
5.86693
5.96321
6.04357
3.47319
3.1127
3.2703
3.72289
3.971
4.12553
4.23146
4.31079
4.39601
4.36117
4.24551
4.25137
4.37053
4.48468
4.57528
4.66946
4.7756
4.88257
4.97639
5.09642
5.2445
5.32389
5.24373
4.88593
3.98312
3.25005
3.17197
3.2219
3.26373
3.30152
3.32917
3.36109
3.38143
3.40572
3.4213
3.44398
3.45662
3.46922
3.47592
3.45891
3.45147
3.42807
3.38487
3.34388
3.28529
3.22013
3.1476
3.05343
2.9604
2.87254
2.78904
2.72203
2.65231
2.59774
2.54464
2.50429
2.46969
2.44338
2.42532
2.41461
2.41568
2.41963
2.4343
2.46166
2.49261
2.52419
2.55596
2.58716
2.62285
2.66326
2.71281
2.76261
2.80126
2.83246
2.86203
2.82971
2.7631
2.65774
2.52103
2.37005
2.18167
2.03184
1.92154
1.86765
1.8836
1.93349
2.14357
2.39058
2.85537
3.35796
3.996
4.49904
4.87682
5.15967
5.35747
5.51989
5.6425
5.76638
5.87149
5.96091
3.3582
3.06034
3.21005
3.68381
3.93947
4.10146
4.21054
4.28778
4.35827
4.29
4.19481
4.25614
4.3882
4.48808
4.58182
4.67575
4.78247
4.89884
5.00455
5.1067
5.24257
5.35078
5.35802
5.13382
4.48126
3.53152
3.28578
3.31096
3.35231
3.38602
3.4148
3.44373
3.46501
3.48756
3.50095
3.5209
3.53008
3.54399
3.55047
3.54154
3.54276
3.52881
3.50237
3.46971
3.42606
3.36509
3.30117
3.2193
3.1367
3.04082
2.94105
2.85295
2.76279
2.68866
2.61797
2.56345
2.51843
2.4853
2.46036
2.4425
2.43223
2.43165
2.43784
2.45401
2.48079
2.5171
2.55035
2.58308
2.61577
2.65284
2.69574
2.74511
2.79454
2.83213
2.86053
2.89134
2.8509
2.77575
2.65471
2.5062
2.33667
2.16698
1.9976
1.89602
1.88035
1.91236
2.01599
2.14709
2.51365
2.95325
3.54192
4.00979
4.56056
4.94404
5.19013
5.38847
5.53275
5.66427
5.76383
5.85671
3.22207
2.99608
3.17284
3.64093
3.89915
4.07126
4.19028
4.26415
4.31911
4.22184
4.16188
4.26401
4.39914
4.49936
4.58798
4.67798
4.77832
4.89528
5.01037
5.11103
5.22834
5.34875
5.40135
5.28388
4.84366
3.94292
3.43604
3.397
3.43566
3.46744
3.4965
3.52311
3.54578
3.56601
3.57836
3.59481
3.60105
3.61324
3.61786
3.61475
3.61848
3.6106
3.59615
3.56974
3.53957
3.48734
3.43615
3.36502
3.29736
3.21903
3.12311
3.01973
2.90695
2.80822
2.7191
2.64667
2.5864
2.53845
2.50433
2.47955
2.4614
2.45088
2.44849
2.45442
2.47548
2.50919
2.54547
2.58062
2.61572
2.65073
2.68808
2.72909
2.77852
2.82518
2.86074
2.88854
2.9174
2.87244
2.78006
2.64335
2.47993
2.30996
2.11893
1.98008
1.91866
1.88536
1.94358
1.99465
2.29884
2.58575
3.02276
3.51008
4.2071
4.62844
4.93417
5.19114
5.37277
5.53199
5.64371
5.74305
3.08667
2.9538
3.14087
3.59594
3.86461
4.0329
4.15802
4.23315
4.26889
4.18217
4.16625
4.27373
4.40816
4.50578
4.58909
4.67975
4.77792
4.88662
4.99342
5.09087
5.19796
5.31922
5.39359
5.35147
5.08605
4.36823
3.62683
3.48566
3.51071
3.54168
3.57301
3.59708
3.62132
3.63815
3.65252
3.66471
3.67013
3.67901
3.68188
3.68384
3.68678
3.68101
3.67275
3.65461
3.63391
3.59352
3.5565
3.49772
3.44786
3.38135
3.29849
3.19866
3.07936
2.95873
2.84916
2.75654
2.67606
2.61321
2.56297
2.52453
2.49845
2.47887
2.46957
2.46695
2.47641
2.50398
2.54268
2.57984
2.6159
2.65151
2.68664
2.72302
2.76219
2.80889
2.85386
2.88921
2.91472
2.94264
2.88495
2.77921
2.62426
2.46011
2.26876
2.0872
1.94659
1.8774
1.89996
1.93019
2.11708
2.28422
2.61998
3.07653
3.7593
4.15318
4.64252
4.9944
5.20153
5.40299
5.53217
5.6392
2.97929
2.91017
3.07766
3.51013
3.82302
3.99237
4.12999
4.21609
4.24537
4.16801
4.17998
4.27295
4.40584
4.50241
4.59028
4.6809
4.77339
4.87435
4.96886
5.05938
5.15466
5.27076
5.35267
5.35184
5.20204
4.68923
3.88195
3.57891
3.56164
3.59063
3.62474
3.65287
3.67809
3.69703
3.71547
3.72618
3.73341
3.74027
3.74343
3.74728
3.74765
3.7444
3.74064
3.72507
3.70945
3.68157
3.6556
3.60976
3.57398
3.51657
3.44674
3.35218
3.24868
3.13148
3.00814
2.89349
2.79231
2.70815
2.63914
2.58436
2.54316
2.51547
2.49549
2.48925
2.49087
2.50565
2.53728
2.58011
2.61727
2.65165
2.6848
2.71861
2.75377
2.79002
2.83325
2.87796
2.91293
2.93854
2.96223
2.8963
2.77875
2.6215
2.44367
2.25788
2.05659
1.92675
1.89717
1.91523
1.99661
2.06059
2.34661
2.68671
3.19487
3.65592
4.31506
4.64229
4.95677
5.19504
5.35702
5.49867
2.90478
2.86986
3.01873
3.44471
3.75408
3.94588
4.10034
4.18697
4.20536
4.14142
4.16774
4.2722
4.40324
4.50066
4.58827
4.67725
4.76528
4.85555
4.93647
5.01742
5.10455
5.21337
5.29786
5.31859
5.21979
4.88378
4.16646
3.68227
3.60205
3.61818
3.64793
3.68045
3.7056
3.727
3.74805
3.76391
3.77778
3.79151
3.79746
3.80412
3.80489
3.80417
3.80068
3.78903
3.77959
3.75815
3.74235
3.70879
3.68586
3.63683
3.58038
3.49859
3.40824
3.31119
3.18737
3.06448
2.94054
2.83285
2.73984
2.66294
2.6029
2.5595
2.53448
2.51782
2.51223
2.51542
2.5378
2.57758
2.61677
2.65021
2.68295
2.71507
2.74738
2.77927
2.81325
2.85307
2.89739
2.93472
2.96522
2.98308
2.91244
2.79196
2.6117
2.43337
2.21883
2.04108
1.93644
1.87124
1.92065
1.92444
2.16137
2.38504
2.64478
3.21003
3.92893
4.19924
4.66398
4.92586
5.16153
5.35123
2.87278
2.84336
2.96324
3.3889
3.67531
3.91344
4.09552
4.1699
4.18416
4.1429
4.18247
4.28572
4.40285
4.49203
4.58158
4.66967
4.75231
4.83136
4.89951
4.97013
5.05084
5.1527
5.23675
5.2698
5.20752
4.97828
4.40452
3.8101
3.65058
3.64115
3.66408
3.69727
3.72445
3.74686
3.7662
3.78415
3.80133
3.81777
3.83284
3.84795
3.85394
3.85764
3.85502
3.84848
3.84207
3.82548
3.81506
3.79115
3.77498
3.73527
3.69322
3.62311
3.54872
3.46922
3.36174
3.25653
3.12447
2.99339
2.8733
2.76987
2.6864
2.62356
2.58007
2.55482
2.54052
2.53761
2.5427
2.57011
2.61052
2.64709
2.68046
2.71276
2.74375
2.77349
2.80192
2.83321
2.87381
2.92407
2.96186
2.99146
3.00602
2.92364
2.78114
2.61035
2.41164
2.21144
2.01402
1.87966
1.88643
1.8886
2.03735
2.1443
2.33139
2.73719
3.3225
3.72072
4.29831
4.59438
4.9197
5.13268
2.84923
2.79479
2.88422
3.34358
3.6333
3.86073
4.05415
4.14029
4.15863
4.1507
4.19529
4.28846
4.40188
4.49049
4.57184
4.65609
4.72929
4.79802
4.85587
4.91939
4.99719
5.09289
5.17129
5.20658
5.16575
4.99528
4.56076
3.95809
3.70538
3.66484
3.67759
3.70713
3.73748
3.76136
3.78059
3.79943
3.81768
3.83579
3.85604
3.87393
3.88685
3.89773
3.90047
3.90063
3.89832
3.89171
3.88603
3.87039
3.85769
3.83014
3.79887
3.74242
3.68201
3.61727
3.52657
3.43134
3.30956
3.18125
3.03915
2.90892
2.79737
2.70943
2.64503
2.60089
2.57668
2.56467
2.56281
2.57222
2.60178
2.64091
2.67774
2.71111
2.74128
2.77011
2.79858
2.82696
2.85959
2.90215
2.94904
2.9848
3.02113
3.02024
2.93012
2.79262
2.60786
2.40885
2.17009
1.99816
1.9315
1.87089
1.94759
1.96493
2.15175
2.41467
2.73404
3.213
3.89018
4.21497
4.61734
4.85595
2.84069
2.73858
2.81276
3.21515
3.58197
3.79765
3.99771
4.09352
4.14031
4.16734
4.22045
4.29819
4.39016
4.47259
4.55165
4.62744
4.69148
4.75047
4.80261
4.86392
4.94065
5.0274
5.09448
5.12356
5.09077
4.96066
4.63333
4.10257
3.77223
3.69473
3.6905
3.71377
3.74685
3.77423
3.79549
3.8159
3.83462
3.85381
3.8758
3.89553
3.91271
3.92538
3.93507
3.94219
3.94789
3.94913
3.9474
3.94314
3.93068
3.9114
3.8874
3.84714
3.79816
3.74956
3.67697
3.59262
3.47924
3.36594
3.22487
3.07782
2.93958
2.8235
2.73345
2.66704
2.62338
2.60046
2.59249
2.59165
2.60514
2.63543
2.67286
2.70977
2.73939
2.76971
2.7994
2.82793
2.85622
2.88761
2.92969
2.97593
3.01113
3.04137
3.04657
2.95375
2.8014
2.60741
2.38246
2.19101
2.0129
1.85174
1.88817
1.88826
2.04382
2.18498
2.36575
2.73172
3.35785
3.77324
4.23968
4.52398
2.82171
2.67393
2.75068
3.06309
3.50093
3.7307
3.92121
4.02521
4.07754
4.15889
4.24477
4.31867
4.39463
4.46584
4.53361
4.59645
4.64741
4.6934
4.7404
4.79934
4.87141
4.94739
4.99968
5.01621
4.98324
4.87533
4.62923
4.20296
3.83802
3.71954
3.70131
3.71591
3.74843
3.78175
3.80666
3.82782
3.8489
3.87197
3.89376
3.915
3.9346
3.95156
3.9658
3.97532
3.98486
3.99292
4.00011
4.00078
3.99629
3.99047
3.97004
3.95004
3.91268
3.8748
3.81762
3.74487
3.64656
3.54161
3.4147
3.27045
3.11593
2.97315
2.85327
2.75803
2.68902
2.64773
2.62817
2.62307
2.622
2.63706
2.66848
2.7075
2.7423
2.77361
2.80599
2.83321
2.85751
2.88286
2.91162
2.95734
3.00141
3.03602
3.07786
3.06963
2.9683
2.80251
2.58622
2.3613
2.12995
1.93069
1.90977
1.87591
1.94473
2.04629
2.14442
2.38636
2.782
3.21649
3.80268
4.15906
2.80321
2.62103
2.66471
2.83769
3.31845
3.60291
3.80537
3.93654
4.05333
4.15705
4.23777
4.32439
4.39649
4.45822
4.51296
4.56078
4.59631
4.62992
4.67141
4.7281
4.79307
4.85423
4.88592
4.88285
4.84369
4.7459
4.56073
4.24695
3.90368
3.73974
3.70299
3.70848
3.74022
3.78014
3.81334
3.83813
3.8632
3.8857
3.91003
3.93449
3.9546
3.97426
3.99221
4.00799
4.02091
4.03407
4.04449
4.05051
4.05702
4.05482
4.04341
4.03586
4.00433
3.97938
3.93764
3.88015
3.80562
3.708
3.5967
3.46604
3.31778
3.16141
3.01272
2.88585
2.78719
2.71913
2.67909
2.65872
2.65347
2.65357
2.67425
2.71108
2.7483
2.78194
2.81631
2.84725
2.86632
2.88575
2.91023
2.93925
2.98378
3.03212
3.06732
3.09906
3.09418
2.98236
2.80194
2.56916
2.32354
2.11774
2.01916
1.87155
1.88777
1.90739
2.00215
2.14696
2.38379
2.72938
3.30888
3.72402
2.79032
2.56305
2.53721
2.61761
3.05729
3.44251
3.64635
3.82318
4.00399
4.14254
4.21327
4.2777
4.34993
4.43336
4.48997
4.52099
4.53986
4.56415
4.59699
4.64685
4.69966
4.73924
4.74764
4.72756
4.67376
4.58209
4.43626
4.22838
3.96591
3.76411
3.70103
3.69424
3.71708
3.76145
3.80787
3.84229
3.87234
3.8982
3.92435
3.94657
3.97021
3.99099
4.01168
4.03053
4.04794
4.06763
4.08188
4.09314
4.10046
4.10308
4.10508
4.10102
4.08591
4.0713
4.04903
4.00693
3.95522
3.86823
3.77249
3.65725
3.51786
3.37026
3.20918
3.05162
2.9202
2.81858
2.74928
2.70996
2.69104
2.68789
2.69286
2.71885
2.7561
2.79231
2.82881
2.86478
2.88767
2.89726
2.91473
2.93571
2.96189
3.00621
3.04956
3.09003
3.12983
3.10996
2.99058
2.79041
2.5597
2.35011
2.14365
1.9054
1.86263
1.8518
1.92426
2.03394
2.15136
2.35962
2.73669
3.15669
2.80509
2.53079
2.42956
2.48174
2.79608
3.24897
3.55374
3.77646
3.95365
4.06227
4.15812
4.21839
4.29351
4.36967
4.42083
4.45222
4.4678
4.48346
4.51275
4.55819
4.59301
4.60245
4.58174
4.53152
4.46547
4.38829
4.2868
4.163
3.9985
3.79714
3.69256
3.67724
3.69175
3.73274
3.78271
3.82978
3.86711
3.90074
3.92978
3.95317
3.97738
3.99947
4.02356
4.04648
4.06733
4.09219
4.1124
4.13003
4.14064
4.14653
4.14716
4.14825
4.15036
4.14407
4.13627
4.10509
4.07706
4.00717
3.9308
3.84054
3.71035
3.56985
3.42369
3.25557
3.08971
2.95379
2.8508
2.78265
2.74545
2.73007
2.72659
2.7333
2.76678
2.80561
2.84234
2.87961
2.90864
2.92248
2.92478
2.93844
2.95944
2.98023
3.02797
3.07999
3.11796
3.14578
3.12981
2.99264
2.79109
2.54469
2.30827
2.0616
1.95696
1.88436
1.88308
1.95029
2.004
2.09332
2.32177
2.65344
2.86115
2.53638
2.34183
2.38596
2.57378
3.0126
3.46739
3.75681
3.92658
4.02981
4.09796
4.18308
4.2693
4.32156
4.34979
4.35598
4.35657
4.36614
4.39377
4.41497
4.42102
4.40139
4.34969
4.27992
4.22283
4.17843
4.13488
4.08178
3.99665
3.83939
3.68923
3.64835
3.65479
3.69088
3.74799
3.80325
3.8482
3.88505
3.91947
3.94981
3.9761
4.00208
4.02688
4.05173
4.0737
4.10042
4.12366
4.14682
4.16298
4.17438
4.18113
4.18516
4.19058
4.19781
4.19523
4.18184
4.17232
4.12693
4.06924
4.00405
3.89529
3.76484
3.62383
3.46761
3.2958
3.12348
2.98474
2.88181
2.81373
2.77678
2.76565
2.76459
2.77803
2.81696
2.85294
2.88788
2.92354
2.95082
2.9469
2.94897
2.95842
2.97405
3.00076
3.0394
3.0852
3.13113
3.16377
3.13509
3.00299
2.77812
2.52998
2.31712
2.1301
1.91432
1.87028
1.8775
1.89789
1.98534
2.10554
2.30403
2.94091
2.56856
2.28832
2.32234
2.428
2.80019
3.32531
3.65877
3.87526
4.05084
4.158
4.19641
4.23185
4.24941
4.23653
4.23729
4.24212
4.25045
4.24536
4.23698
4.20638
4.15068
4.07145
4.01228
3.99281
3.99336
4.00279
4.00618
3.97919
3.86858
3.70343
3.62833
3.62223
3.64377
3.6934
3.75432
3.81252
3.85533
3.89352
3.92412
3.95301
3.98094
4.01283
4.04286
4.06709
4.09446
4.1212
4.14513
4.16853
4.18611
4.19892
4.21325
4.22496
4.22552
4.23098
4.23675
4.23447
4.21219
4.17522
4.13569
4.05479
3.94445
3.81614
3.66071
3.50349
3.33026
3.15286
3.0109
2.90963
2.84328
2.81301
2.80234
2.79784
2.82335
2.85893
2.89438
2.93136
2.96559
2.97326
2.96511
2.96265
2.9757
2.99352
3.00543
3.05432
3.11402
3.14585
3.1738
3.15593
3.0077
2.78593
2.54602
2.34348
2.07743
1.92307
1.87187
1.8513
1.90815
1.98219
2.05453
3.0247
2.61018
2.2712
2.2671
2.36643
2.67399
3.11489
3.45746
3.7216
3.92179
4.0546
4.12533
4.12803
4.09885
4.07705
4.05341
4.03548
4.02434
4.00882
3.99543
3.95043
3.8697
3.79866
3.77643
3.78764
3.83764
3.89609
3.9404
3.94977
3.87192
3.71832
3.60982
3.58815
3.6017
3.64004
3.69397
3.74788
3.80031
3.84547
3.8855
3.91825
3.94771
3.97399
4.00667
4.0373
4.07476
4.10655
4.13681
4.16282
4.1839
4.20072
4.22004
4.23158
4.24446
4.25337
4.25903
4.26689
4.26733
4.25141
4.23611
4.18639
4.1021
3.99092
3.85338
3.69644
3.53275
3.35435
3.17457
3.03178
2.92859
2.87122
2.84294
2.8321
2.83212
2.86204
2.89892
2.93258
2.97209
2.99018
2.98983
2.9794
2.98575
2.99154
2.99438
3.02487
3.06461
3.10289
3.15912
3.18653
3.16307
3.01923
2.78471
2.53097
2.2959
2.07282
1.90611
1.82609
1.8638
1.89841
1.9528
3.12962
2.67585
2.29749
2.23488
2.30259
2.56322
2.86217
3.20132
3.47
3.69251
3.77801
3.81308
3.80735
3.77452
3.74045
3.72415
3.73578
3.77053
3.77326
3.75976
3.71424
3.64622
3.60849
3.60906
3.64514
3.72914
3.81928
3.88556
3.912
3.86187
3.72267
3.59154
3.55159
3.5564
3.58557
3.6306
3.67876
3.72185
3.76295
3.80704
3.85258
3.89516
3.93177
3.96231
3.98688
4.01879
4.05771
4.09747
4.13673
4.16641
4.18958
4.21031
4.23041
4.24896
4.26425
4.2786
4.28552
4.28939
4.29463
4.29796
4.26981
4.21935
4.13709
4.02638
3.88537
3.7238
3.54824
3.36785
3.18581
3.04312
2.94578
2.8953
2.87021
2.85851
2.87055
2.89565
2.93908
2.97436
3.00271
3.0121
3.00181
3.00155
2.99602
2.9945
3.01387
3.02037
3.06527
3.13891
3.16659
3.19458
3.17395
3.01882
2.79167
2.5487
2.33101
2.06738
1.88663
1.86677
1.85412
1.88216
3.22236
2.76147
2.34849
2.22224
2.24572
2.44567
2.71672
3.01777
3.24637
3.38593
3.42339
3.41334
3.3939
3.39175
3.41446
3.46894
3.53661
3.57542
3.58329
3.58463
3.53082
3.47147
3.45766
3.48626
3.5587
3.66537
3.7647
3.8383
3.87326
3.84149
3.71727
3.56844
3.51241
3.50739
3.52767
3.56581
3.60796
3.64782
3.68473
3.71766
3.75657
3.79816
3.84492
3.88545
3.9239
3.95628
3.98223
4.01761
4.06144
4.10707
4.1472
4.18558
4.21607
4.24442
4.26401
4.27813
4.29099
4.30295
4.30811
4.31265
4.31891
4.29304
4.25104
4.17523
4.05516
3.91112
3.73737
3.56576
3.37753
3.19324
3.05247
2.9653
2.91421
2.89798
2.88886
2.9017
2.94822
2.98058
3.01326
3.0366
3.02806
3.02375
3.01323
3.00802
3.0133
3.00603
3.03342
3.08371
3.11507
3.17415
3.19686
3.18765
3.03875
2.80737
2.56425
2.3131
2.06203
1.92089
1.84167
1.83213
3.22736
2.82276
2.41737
2.22676
2.20264
2.3248
2.5763
2.82192
3.00536
3.08756
3.10002
3.10044
3.10811
3.15097
3.21771
3.30966
3.39512
3.4465
3.45087
3.44091
3.39023
3.3546
3.36484
3.41693
3.52137
3.6331
3.72574
3.79715
3.83175
3.80523
3.69007
3.5364
3.46543
3.45439
3.46513
3.49609
3.53138
3.56755
3.60322
3.63916
3.67051
3.70727
3.74052
3.78152
3.82157
3.86785
3.90678
3.94304
3.97384
4.01592
4.06273
4.11268
4.16167
4.20766
4.24171
4.27037
4.29068
4.30509
4.32078
4.32885
4.32924
4.32661
4.32391
4.2769
4.19335
4.08049
3.9272
3.7599
3.5789
3.38679
3.19449
3.06066
2.98098
2.93566
2.91475
2.93312
2.95225
2.9909
3.02611
3.05814
3.05953
3.05591
3.04132
3.03182
3.0241
3.00728
3.0255
3.03271
3.06088
3.13655
3.17715
3.20677
3.19436
3.0284
2.79453
2.52599
2.321
2.07958
1.87354
1.83224
3.21497
2.87434
2.51071
2.26109
2.16151
2.23178
2.4116
2.59903
2.75585
2.83552
2.86787
2.88286
2.92065
2.97909
3.07411
3.18838
3.27604
3.33277
3.34309
3.31445
3.27269
3.27105
3.32404
3.39673
3.51814
3.61914
3.70364
3.76598
3.79817
3.76854
3.65724
3.49605
3.41163
3.39377
3.40145
3.42451
3.45534
3.48792
3.52135
3.55361
3.58772
3.61999
3.65446
3.68976
3.73095
3.77012
3.8111
3.85169
3.89223
3.92335
3.9693
4.0164
4.07077
4.13136
4.18663
4.23552
4.27231
4.30104
4.32034
4.3317
4.33762
4.34172
4.33777
4.33524
4.29151
4.22375
4.10498
3.94867
3.76342
3.58796
3.38831
3.19833
3.06905
2.99448
2.96637
2.96029
2.96975
3.00486
3.04464
3.07721
3.09502
3.1001
3.07679
3.06225
3.04405
3.02246
3.0287
3.01181
3.01952
3.07518
3.12446
3.18027
3.18851
3.1862
3.04897
2.79866
2.57615
2.31034
2.01166
1.88513
3.17871
2.89444
2.6247
2.32537
2.13809
2.16591
2.25943
2.44095
2.58907
2.66444
2.69543
2.74825
2.81284
2.88931
2.96676
3.07084
3.15332
3.20995
3.21796
3.20791
3.19446
3.21635
3.30064
3.4014
3.52696
3.61403
3.68981
3.7384
3.76506
3.72828
3.61896
3.45605
3.35969
3.33395
3.33944
3.3623
3.39102
3.42419
3.45615
3.48679
3.51591
3.5456
3.57466
3.60816
3.6452
3.68419
3.72139
3.7578
3.79507
3.83944
3.88502
3.92895
3.97369
4.02829
4.09197
4.15648
4.21153
4.25843
4.29699
4.32203
4.3364
4.3478
4.35531
4.35232
4.34476
4.31309
4.24012
4.11419
3.94701
3.77376
3.58621
3.37936
3.19852
3.09156
3.02133
2.99447
3.0093
3.01381
3.06303
3.09167
3.13173
3.14948
3.11622
3.09854
3.07391
3.04735
3.0366
3.01238
3.00801
3.03161
3.05703
3.12304
3.16462
3.2011
3.19345
3.0335
2.81298
2.54847
2.3155
2.08146
3.14412
2.93609
2.71576
2.38657
2.12577
2.09623
2.15154
2.29121
2.42979
2.48523
2.56162
2.63995
2.7364
2.83242
2.93082
3.00547
3.04587
3.08194
3.09187
3.11096
3.15465
3.22556
3.31902
3.42584
3.53403
3.6207
3.68199
3.71973
3.73702
3.69617
3.58528
3.41915
3.31711
3.28523
3.28677
3.30869
3.33649
3.37043
3.40268
3.43246
3.46003
3.48698
3.51487
3.54489
3.57787
3.61178
3.64586
3.68104
3.71975
3.75972
3.80511
3.8498
3.89876
3.94521
3.99346
4.05121
4.11834
4.1842
4.24493
4.29085
4.3267
4.34844
4.36028
4.36774
4.36548
4.35486
4.33731
4.25484
4.12523
3.96062
3.76285
3.57442
3.37477
3.21017
3.09971
3.05992
3.0353
3.04273
3.07789
3.11104
3.1524
3.18268
3.16272
3.15434
3.11656
3.08452
3.05665
3.02518
3.0169
3.01565
3.00761
3.04055
3.1015
3.17022
3.17472
3.17787
3.06656
2.81822
2.56549
2.31908
3.11653
2.94816
2.7112
2.44677
2.16682
2.06352
2.07958
2.19508
2.32201
2.40323
2.49798
2.58066
2.6707
2.77937
2.88145
2.93955
2.9591
2.95953
2.9897
3.04875
3.14453
3.25053
3.35222
3.45687
3.55289
3.63189
3.67967
3.70728
3.71305
3.66841
3.55297
3.38401
3.28148
3.24802
3.24732
3.26684
3.29198
3.32585
3.35873
3.38817
3.41457
3.44155
3.46799
3.49623
3.52516
3.55543
3.58567
3.61695
3.65181
3.69042
3.73228
3.77412
3.81392
3.85697
3.9002
3.95356
4.00707
4.06764
4.14572
4.22584
4.28183
4.32484
4.35188
4.36943
4.37823
4.3812
4.36559
4.342
4.25839
4.12753
3.94235
3.74934
3.55801
3.35398
3.20199
3.12419
3.06785
3.06898
3.09149
3.1177
3.15734
3.19998
3.20804
3.20717
3.15531
3.11831
3.08331
3.04641
3.02407
3.0148
2.98483
2.99148
3.02291
3.08253
3.13145
3.17506
3.18245
3.04861
2.81704
2.54368
3.08482
2.93718
2.72316
2.51696
2.20822
2.06389
2.0449
2.09688
2.25867
2.33934
2.43238
2.55452
2.63638
2.72963
2.79972
2.85937
2.89308
2.91345
2.95399
3.03472
3.16446
3.30865
3.4095
3.49412
3.57487
3.64459
3.68244
3.70268
3.69485
3.64317
3.52243
3.34958
3.25039
3.21976
3.21993
3.23719
3.25926
3.29248
3.32546
3.35576
3.38206
3.40845
3.43417
3.46099
3.48817
3.51594
3.54224
3.57013
3.60165
3.63662
3.67423
3.71282
3.75207
3.78961
3.82778
3.8736
3.92298
3.97934
4.0424
4.10865
4.18761
4.26341
4.31985
4.36057
4.38102
4.38968
4.38852
4.3709
4.34564
4.26081
4.11377
3.92954
3.73241
3.53117
3.32135
3.20712
3.1189
3.09128
3.11125
3.11372
3.15629
3.19588
3.22887
3.24029
3.19868
3.16448
3.11818
3.07548
3.04308
3.0165
2.98204
2.97558
2.98057
2.99463
3.04667
3.12749
3.15397
3.15615
3.05985
2.81697
3.05589
2.93145
2.7429
2.57489
2.27822
2.09342
2.02262
2.04661
2.16526
2.27696
2.38408
2.4964
2.60147
2.66888
2.72437
2.77982
2.85127
2.90397
2.96467
3.04336
3.18212
3.34629
3.45327
3.52625
3.59327
3.65325
3.68301
3.69699
3.68044
3.61969
3.49318
3.31979
3.22442
3.19516
3.19761
3.21367
3.23348
3.26371
3.29648
3.32715
3.35518
3.38136
3.40756
3.43438
3.46138
3.48826
3.51418
3.53916
3.56622
3.59684
3.63021
3.66589
3.70145
3.73499
3.76671
3.80146
3.84284
3.89307
3.94847
4.00361
4.06572
4.13592
4.23159
4.31482
4.36306
4.38925
4.39664
4.39483
4.37427
4.34077
4.24668
4.09924
3.90338
3.69699
3.46738
3.30661
3.17296
3.12614
3.11653
3.10587
3.14468
3.18654
3.23971
3.26408
3.23479
3.20697
3.15072
3.10751
3.06404
3.02661
2.9862
2.97748
2.95164
2.94869
2.97012
3.0299
3.0863
3.1381
3.14699
3.04624
3.02932
2.89516
2.72754
2.56997
2.33742
2.11549
2.00628
2.01649
2.10376
2.21982
2.31899
2.43946
2.54569
2.63387
2.69067
2.77917
2.86827
2.95115
3.0321
3.13436
3.25422
3.38912
3.49292
3.5542
3.6089
3.65961
3.67905
3.68736
3.6656
3.59629
3.46447
3.29436
3.20326
3.17442
3.17817
3.19427
3.2133
3.24094
3.27298
3.30334
3.33098
3.3574
3.3831
3.40971
3.43632
3.46328
3.49001
3.51593
3.54313
3.57233
3.60389
3.63685
3.66906
3.69798
3.72558
3.75421
3.78787
3.82805
3.87197
3.92344
3.97845
4.0351
4.1055
4.1953
4.30275
4.36469
4.397
4.40584
4.39862
4.37432
4.33332
4.24163
4.05796
3.85395
3.64483
3.43859
3.26788
3.18237
3.12889
3.11346
3.14313
3.17992
3.24128
3.2731
3.27001
3.25748
3.20678
3.15737
3.09938
3.05023
3.00831
2.97829
2.94995
2.93132
2.93211
2.94719
2.99216
3.05616
3.11393
3.11494
3.00812
2.87468
2.72634
2.57154
2.40423
2.16858
2.02808
2.01927
2.09033
2.17908
2.29925
2.43567
2.5569
2.64077
2.70645
2.79839
2.90293
3.01267
3.11293
3.21696
3.32348
3.42766
3.50925
3.57001
3.61841
3.66073
3.67772
3.67865
3.65175
3.57493
3.43835
3.27498
3.19066
3.16307
3.16447
3.18014
3.1996
3.2245
3.25515
3.28354
3.3108
3.33799
3.36622
3.39487
3.42459
3.45204
3.47984
3.50462
3.52964
3.55601
3.58573
3.61788
3.64942
3.67755
3.70315
3.728
3.75548
3.78725
3.82257
3.86197
3.90198
3.94977
4.00774
4.07413
4.16222
4.27517
4.36624
4.4071
4.40845
4.39561
4.36676
4.32291
4.20418
4.02075
3.82066
3.60581
3.39381
3.26106
3.17092
3.13255
3.14769
3.17106
3.22881
3.27776
3.30141
3.3036
3.26312
3.21242
3.1422
3.08013
3.03568
2.99736
2.95463
2.93461
2.91024
2.89787
2.9122
2.95545
3.02086
3.08482
2.99464
2.86437
2.73365
2.58378
2.43197
2.22843
2.06701
2.029
2.08131
2.13786
2.26855
2.40802
2.55168
2.66762
2.79479
2.92009
3.04536
3.14843
3.24636
3.34153
3.40974
3.4578
3.51022
3.57239
3.6267
3.66725
3.6824
3.67653
3.64299
3.55837
3.41717
3.26277
3.18618
3.15823
3.16002
3.1772
3.19762
3.2192
3.24701
3.27679
3.30507
3.33363
3.36216
3.39166
3.42177
3.44807
3.47634
3.5022
3.52843
3.55463
3.58333
3.61289
3.64166
3.66805
3.69276
3.7162
3.74085
3.7686
3.79659
3.82519
3.85651
3.88963
3.92937
3.98522
4.05568
4.1429
4.24998
4.36081
4.40245
4.40239
4.38566
4.35884
4.30458
4.17411
3.97028
3.76013
3.55821
3.3794
3.25625
3.18914
3.17809
3.18728
3.22488
3.28624
3.32979
3.34601
3.3275
3.29279
3.22236
3.14305
3.07917
3.02666
2.97857
2.93835
2.90912
2.87706
2.86679
2.8792
2.91795
2.98566
2.99141
2.85864
2.73439
2.59385
2.45035
2.28164
2.11737
2.06355
2.07926
2.11248
2.25119
2.41798
2.59052
2.76407
2.94551
3.1116
3.22503
3.31962
3.40015
3.45361
3.46617
3.48189
3.51435
3.56877
3.63668
3.67787
3.69606
3.68029
3.63488
3.54228
3.3905
3.25251
3.18481
3.16166
3.15855
3.17437
3.19551
3.21633
3.24295
3.27367
3.30503
3.33496
3.36376
3.39469
3.42483
3.45466
3.48477
3.5141
3.54139
3.56711
3.59216
3.61875
3.64471
3.67013
3.69292
3.71604
3.73945
3.76401
3.7878
3.80899
3.83173
3.85688
3.88717
3.91798
3.97121
4.04599
4.13056
4.23292
4.34974
4.40041
4.39881
4.37879
4.34192
4.28108
4.1282
3.92294
3.7015
3.51795
3.36178
3.25296
3.22061
3.21376
3.23437
3.28569
3.34607
3.37749
3.37663
3.35965
3.30173
3.21617
3.12783
3.05759
3.00066
2.9566
2.91149
2.87985
2.84721
2.83002
2.84228
2.87744
3.0086
2.86191
2.73541
2.60646
2.4785
2.31373
2.15087
2.1007
2.076
2.11098
2.2573
2.43612
2.64419
2.86587
3.07166
3.20556
3.3266
3.41263
3.46223
3.48132
3.48992
3.50235
3.52861
3.57405
3.64764
3.68989
3.70949
3.68928
3.63205
3.52291
3.35967
3.23739
3.18125
3.16367
3.1627
3.17843
3.19983
3.21964
3.24582
3.27725
3.30757
3.33717
3.36848
3.40016
3.42981
3.46113
3.49338
3.52492
3.55387
3.58203
3.60876
3.63548
3.65975
3.68291
3.70322
3.72647
3.74962
3.772
3.79099
3.80668
3.82301
3.8393
3.86084
3.89028
3.9208
3.97181
4.0426
4.12291
4.22061
4.34303
4.38896
4.38529
4.36193
4.32855
4.23493
4.05402
3.82558
3.65063
3.4822
3.35188
3.28423
3.25928
3.26764
3.29929
3.35669
3.40144
3.41955
3.41342
3.37621
3.31509
3.21979
3.11651
3.04081
2.98201
2.93077
2.88142
2.84226
2.80816
2.78991
2.79683
3.10165
2.90704
2.76006
2.61895
2.4971
2.33997
2.18502
2.13529
2.08278
2.1238
2.28026
2.45467
2.65441
2.85345
2.99743
3.10812
3.21934
3.29699
3.34073
3.39523
3.4245
3.48488
3.54548
3.59024
3.6466
3.69542
3.71384
3.69311
3.61625
3.49224
3.32961
3.22049
3.17864
3.16773
3.17135
3.18386
3.20077
3.22587
3.25493
3.28158
3.30648
3.33604
3.36794
3.39703
3.42418
3.45668
3.49105
3.52303
3.55408
3.585
3.61277
3.63932
3.66624
3.69037
3.71238
3.7367
3.75822
3.78098
3.80129
3.81633
3.82612
3.83635
3.85012
3.87235
3.9017
3.93206
3.97328
4.03591
4.11274
4.21889
4.32988
4.37059
4.36374
4.34741
4.28161
4.17604
3.97599
3.77137
3.58761
3.42999
3.34054
3.30244
3.29769
3.31215
3.3589
3.40869
3.43703
3.44779
3.43137
3.38872
3.30885
3.19528
3.08886
3.0084
2.94872
2.89483
2.8483
2.80152
2.76411
2.74755
3.39284
3.08589
2.85952
2.66816
2.51703
2.35675
2.22787
2.18072
2.1194
2.18504
2.35596
2.4895
2.64295
2.75359
2.83315
2.87785
2.92447
2.94958
3.00864
3.10394
3.20406
3.3169
3.45377
3.54323
3.59532
3.65298
3.68912
3.66098
3.56974
3.44921
3.29964
3.20876
3.17512
3.17223
3.18097
3.18704
3.207
3.23679
3.26271
3.28047
3.30503
3.33654
3.36585
3.39045
3.41708
3.45088
3.48412
3.51519
3.5483
3.58209
3.60996
3.63759
3.66608
3.69046
3.71126
3.73457
3.7587
3.78069
3.80213
3.81983
3.83335
3.84369
3.85522
3.86718
3.88959
3.91637
3.93693
3.96832
4.03229
4.11108
4.24196
4.33284
4.35526
4.33688
4.31783
4.23269
4.07973
3.86771
3.69355
3.53492
3.41555
3.34721
3.3234
3.32894
3.36672
3.4168
3.45836
3.47817
3.47524
3.4506
3.39494
3.30516
3.18443
3.06873
2.97923
2.91318
2.85857
2.8107
2.76123
2.72333
3.59761
3.29297
3.0224
2.78185
2.57141
2.39951
2.29552
2.24455
2.20221
2.29568
2.45427
2.53595
2.60038
2.61381
2.56987
2.43854
2.36905
2.32709
2.36162
2.46225
2.60658
2.79751
3.02016
3.22513
3.36244
3.47345
3.53006
3.53709
3.46993
3.37612
3.26839
3.20823
3.18778
3.19599
3.19281
3.19981
3.22465
3.2522
3.26857
3.28536
3.31334
3.34486
3.36733
3.38909
3.41758
3.449
3.47982
3.50768
3.54029
3.57408
3.60344
3.63304
3.66355
3.68648
3.70639
3.72779
3.75079
3.77112
3.7959
3.81088
3.828
3.84399
3.85919
3.87815
3.88986
3.90353
3.92387
3.92901
3.96114
4.02571
4.1282
4.24722
4.32193
4.33493
4.32514
4.26078
4.15159
3.98615
3.80825
3.63353
3.49151
3.39209
3.35107
3.34963
3.37449
3.422
3.46606
3.49706
3.50717
3.49992
3.46476
3.40036
3.30432
3.17831
3.05415
2.95929
2.88765
2.82845
2.7769
2.72555
3.66102
3.41511
3.15071
2.89467
2.64951
2.46052
2.37013
2.31601
2.32945
2.43117
2.52406
2.55033
2.5223
2.43034
2.25615
2.08379
2.04767
2.02167
2.01028
2.0247
2.05977
2.13035
2.26773
2.45801
2.63842
2.84012
3.0135
3.14302
3.22843
3.21901
3.16634
3.15608
3.19195
3.21096
3.20219
3.22746
3.25724
3.27295
3.27643
3.30161
3.33524
3.35919
3.37429
3.40119
3.43218
3.45647
3.48132
3.51085
3.54229
3.57292
3.60183
3.63083
3.66017
3.68317
3.70146
3.72016
3.74011
3.758
3.77715
3.7946
3.81047
3.83017
3.85174
3.87408
3.89814
3.90283
3.90756
3.91816
3.91885
3.95294
4.03992
4.18286
4.28893
4.30862
4.29597
4.27199
4.183
4.05271
3.88597
3.71921
3.57481
3.45892
3.39606
3.37904
3.39032
3.43221
3.4803
3.52138
3.53839
3.53809
3.51889
3.47574
3.40673
3.30867