/*--------------------------------*- C++ -*----------------------------------*\
| =========                 |                                                 |
| \\      /  F ield         | OpenFOAM: The Open Source CFD Toolbox           |
|  \\    /   O peration     | Version:  2.2.x                                 |
|   \\  /    A nd           | Web:      www.OpenFOAM.org                      |
|    \\/     M anipulation  |                                                 |
\*---------------------------------------------------------------------------*/
FoamFile
{
    version     2.0;
    format      ascii;
    class       volScalarField;
    location    "0.6";
    object      p;
}
// * * * * * * * * * * * * * * * * * * * * * * * * * * * * * * * * * * * * * //

dimensions      [1 -1 -2 0 0 0 0];

internalField   nonuniform List<scalar> 
14161
(
0.199975
0.199977
0.199971
0.199962
0.19995
0.199933
0.19991
0.19988
0.199842
0.199793
0.199733
0.199659
0.19957
0.199462
0.199336
0.199187
0.199017
0.198822
0.198604
0.198361
0.198093
0.197802
0.197489
0.197155
0.196795
0.196426
0.196055
0.195647
0.195237
0.194844
0.194427
0.193997
0.193628
0.193295
0.192925
0.19253
0.192189
0.191945
0.19166
0.191316
0.191075
0.190873
0.190739
0.190589
0.19044
0.190351
0.190231
0.190159
0.190157
0.190302
0.190654
0.191289
0.192414
0.194349
0.197078
0.2001
0.204407
0.205613
0.466998
1.46892
1.69455
1.73139
1.68009
1.6443
1.56259
1.49599
1.42531
1.36613
1.31074
1.25227
1.19792
1.14814
1.10242
1.0662
1.03552
1.01293
0.994326
0.989007
0.988498
0.989294
0.990212
1.01224
1.00005
0.993139
0.986584
0.981748
0.978167
0.954396
0.9399
0.926728
0.921897
0.938335
1.18719
1.41048
1.60376
1.72142
1.78788
1.8333
1.86798
1.89464
1.9152
1.93105
1.9455
1.95877
1.97
1.97946
1.98747
1.99543
2.00306
2.01011
2.01669
2.02326
2.0296
2.03624
2.04182
2.04684
2.05067
2.05281
2.05656
0.199975
0.199977
0.199971
0.199963
0.19995
0.199933
0.19991
0.19988
0.199842
0.199793
0.199733
0.199659
0.199569
0.199462
0.199335
0.199187
0.199017
0.198823
0.198605
0.198362
0.198094
0.197803
0.197489
0.197153
0.196794
0.196426
0.196056
0.195645
0.195237
0.194845
0.194425
0.193995
0.193642
0.193294
0.192904
0.192531
0.192211
0.191944
0.19165
0.191311
0.191048
0.190823
0.190678
0.190521
0.190384
0.190297
0.190251
0.190306
0.190379
0.190575
0.190898
0.191559
0.192575
0.193969
0.195468
0.198004
0.201941
0.20438
0.464819
1.44113
1.69352
1.70611
1.63848
1.59516
1.51839
1.4547
1.38741
1.32869
1.27885
1.22495
1.17423
1.13116
1.09006
1.05736
1.02842
1.00732
0.989901
0.984598
0.983599
0.98366
0.984666
1.00496
0.992607
0.984929
0.978405
0.974472
0.973168
0.953864
0.94493
0.936169
0.951978
1.00766
1.21797
1.41669
1.58582
1.70175
1.77324
1.82271
1.86038
1.88938
1.91185
1.92938
1.9452
1.95964
1.97169
1.98155
1.98981
1.99801
2.00577
2.01291
2.01941
2.0257
2.03152
2.03771
2.04254
2.04648
2.04983
2.05107
2.05568
0.199975
0.199977
0.199971
0.199963
0.19995
0.199933
0.19991
0.19988
0.199842
0.199793
0.199733
0.199659
0.19957
0.199463
0.199336
0.199188
0.199018
0.198824
0.198605
0.198362
0.198095
0.197804
0.197489
0.197156
0.196797
0.196428
0.196057
0.195648
0.19524
0.194846
0.194419
0.194001
0.193647
0.193285
0.192878
0.192532
0.192233
0.191924
0.1916
0.191279
0.191018
0.190787
0.19062
0.190427
0.190252
0.190138
0.190088
0.190063
0.190108
0.190249
0.190481
0.19099
0.191851
0.192973
0.194546
0.196635
0.200408
0.205305
0.416022
1.37811
1.69939
1.67577
1.6026
1.54916
1.48297
1.4237
1.35575
1.29922
1.25433
1.20052
1.1529
1.1169
1.07864
1.04872
1.02151
1.0016
0.983238
0.978767
0.977929
0.977168
0.977328
0.995014
0.984387
0.977384
0.972416
0.971092
0.971823
0.964576
0.958799
0.96824
1.01854
1.15242
1.31876
1.46639
1.59362
1.68978
1.76511
1.81829
1.85829
1.88902
1.91253
1.93091
1.94706
1.9614
1.97326
1.98295
1.99107
1.99918
2.00678
2.01387
2.02028
2.02655
2.03196
2.03716
2.04109
2.04413
2.04692
2.0474
2.05218
0.199975
0.199977
0.199971
0.199963
0.19995
0.199933
0.19991
0.19988
0.199842
0.199794
0.199733
0.19966
0.19957
0.199463
0.199337
0.199189
0.199019
0.198825
0.198607
0.198364
0.198097
0.197806
0.197492
0.197158
0.196801
0.196433
0.196056
0.19565
0.195245
0.194846
0.19441
0.194009
0.193642
0.193254
0.192869
0.192537
0.19224
0.191905
0.191528
0.191226
0.19096
0.190738
0.190513
0.190253
0.190024
0.189891
0.189802
0.189755
0.189717
0.189771
0.189878
0.190177
0.19062
0.191515
0.192115
0.193516
0.194025
0.199803
0.303968
1.27356
1.69531
1.62779
1.5243
1.45717
1.41229
1.36951
1.30034
1.2534
1.2203
1.16369
1.12445
1.09305
1.05757
1.03031
1.00554
0.988704
0.969987
0.96666
0.966924
0.966019
0.964411
0.980147
0.975965
0.973172
0.971389
0.976853
0.975376
0.991695
0.996209
1.05659
1.1583
1.31797
1.45894
1.55767
1.64421
1.71136
1.77884
1.82776
1.86502
1.8935
1.91564
1.93344
1.9491
1.96317
1.9748
1.98436
1.99257
2.00085
2.00841
2.0153
2.02131
2.02697
2.03147
2.03558
2.03848
2.04057
2.0427
2.04257
2.04795
0.199975
0.199977
0.199971
0.199963
0.19995
0.199933
0.19991
0.19988
0.199842
0.199794
0.199734
0.19966
0.199571
0.199464
0.199338
0.199191
0.19902
0.198827
0.198609
0.198367
0.1981
0.197809
0.197497
0.197158
0.196806
0.196443
0.196055
0.195653
0.195258
0.194844
0.194408
0.194023
0.19364
0.193221
0.192861
0.192541
0.192219
0.19186
0.191486
0.191168
0.190868
0.190648
0.190362
0.190016
0.189797
0.189625
0.189524
0.189396
0.189251
0.189082
0.189013
0.188913
0.188936
0.188821
0.188641
0.187431
0.185727
0.18362
0.188871
1.06425
1.71407
1.57656
1.45534
1.37394
1.33943
1.31557
1.24508
1.20841
1.18632
1.12421
1.09885
1.06043
1.03516
1.01051
0.986485
0.973547
0.95524
0.953212
0.954272
0.954874
0.956453
0.971065
0.977353
0.978159
0.975003
0.997939
1.00386
1.0518
1.08678
1.21909
1.35031
1.48369
1.56737
1.62012
1.67166
1.72577
1.78499
1.83085
1.86551
1.89263
1.91422
1.93205
1.94779
1.96184
1.97353
1.98335
1.99192
2.00053
2.0083
2.0153
2.0211
2.02633
2.03011
2.03311
2.03499
2.03625
2.03778
2.03723
2.04355
0.199975
0.199977
0.199971
0.199963
0.19995
0.199933
0.19991
0.199881
0.199842
0.199795
0.199735
0.199661
0.199572
0.199465
0.199339
0.199193
0.199023
0.19883
0.198612
0.198371
0.198105
0.197815
0.197502
0.197161
0.196817
0.196448
0.196053
0.195663
0.195272
0.194838
0.194415
0.194032
0.193627
0.193205
0.192845
0.192532
0.192187
0.191783
0.19143
0.191096
0.190786
0.190501
0.190152
0.189785
0.189532
0.189288
0.189141
0.188937
0.188615
0.188244
0.187909
0.187399
0.186589
0.186279
0.18531
0.182845
0.178968
0.176137
0.17586
0.732968
1.66701
1.51468
1.39398
1.31564
1.28103
1.25771
1.2008
1.17145
1.14932
1.08936
1.07293
1.02438
1.01011
0.989005
0.963817
0.953878
0.938399
0.941394
0.945353
0.949956
0.960764
0.970198
0.987462
0.997398
1.00005
1.04502
1.07172
1.17254
1.27024
1.41354
1.53246
1.6038
1.63869
1.6748
1.70785
1.75871
1.80314
1.84355
1.87312
1.89758
1.91729
1.93389
1.94879
1.9623
1.97371
1.98336
1.99224
2.00105
2.00872
2.01563
2.02089
2.02519
2.02804
2.02995
2.0309
2.03152
2.03249
2.03169
2.03879
0.199976
0.199977
0.199971
0.199963
0.19995
0.199933
0.199911
0.199881
0.199843
0.199795
0.199735
0.199662
0.199573
0.199467
0.199342
0.199195
0.199026
0.198834
0.198617
0.198376
0.19811
0.197821
0.197508
0.197171
0.196828
0.196452
0.196059
0.19568
0.195277
0.194835
0.194427
0.194036
0.193609
0.193195
0.192831
0.192509
0.192143
0.191718
0.191352
0.191001
0.19071
0.190369
0.189961
0.189564
0.189225
0.188928
0.188761
0.188424
0.187914
0.187416
0.186924
0.186142
0.184716
0.183592
0.181812
0.180908
0.179873
0.178331
0.192622
0.413136
1.45948
1.47311
1.36994
1.28752
1.24978
1.20344
1.16528
1.13888
1.11406
1.06291
1.04777
0.999993
0.987003
0.97386
0.947496
0.94051
0.928797
0.937792
0.946456
0.952245
0.974299
0.984075
1.01126
1.03745
1.05896
1.14922
1.23192
1.36271
1.48101
1.58545
1.64074
1.66613
1.68602
1.70967
1.73459
1.77749
1.81391
1.85039
1.87801
1.90086
1.91968
1.93583
1.95034
1.96322
1.97401
1.98349
1.99233
2.00094
2.00831
2.01492
2.01965
2.02313
2.02517
2.02614
2.02632
2.02637
2.02688
2.02606
2.03395
0.199976
0.199977
0.199971
0.199963
0.19995
0.199934
0.199911
0.199881
0.199844
0.199796
0.199737
0.199664
0.199575
0.19947
0.199345
0.199199
0.199031
0.198839
0.198623
0.198383
0.198119
0.19783
0.197517
0.197185
0.196835
0.196458
0.196074
0.195697
0.195273
0.194844
0.194446
0.194043
0.193589
0.193184
0.192824
0.192481
0.19209
0.191665
0.191277
0.19093
0.190628
0.190246
0.189755
0.189349
0.188971
0.188623
0.188339
0.187881
0.187167
0.186632
0.186017
0.185278
0.184762
0.183446
0.181508
0.179201
0.176118
0.17534
0.190293
0.4645
1.08924
1.27838
1.33788
1.26843
1.23123
1.18189
1.13776
1.11538
1.08332
1.0393
1.03101
0.981825
0.966938
0.960682
0.9386
0.933215
0.922212
0.939886
0.956386
0.962294
1.00202
1.02012
1.07439
1.13757
1.2109
1.33145
1.44486
1.55821
1.63498
1.67192
1.68996
1.70243
1.71904
1.73607
1.76213
1.79457
1.82722
1.85852
1.88356
1.90449
1.92235
1.93768
1.95102
1.96279
1.97313
1.98259
1.99159
2.00026
2.00744
2.01367
2.01786
2.02054
2.02189
2.02199
2.02159
2.02114
2.02133
2.0206
2.02914
0.199976
0.199977
0.199971
0.199963
0.199951
0.199934
0.199911
0.199882
0.199844
0.199797
0.199738
0.199666
0.199578
0.199473
0.199348
0.199203
0.199036
0.198845
0.198631
0.198392
0.198128
0.19784
0.19753
0.197199
0.196846
0.196471
0.196094
0.195709
0.195277
0.19486
0.194464
0.194042
0.193581
0.193181
0.19282
0.192447
0.192019
0.191605
0.191229
0.19091
0.190537
0.190087
0.189616
0.189197
0.188783
0.188508
0.188048
0.187413
0.186761
0.186217
0.185595
0.184814
0.184131
0.182777
0.180462
0.177145
0.173038
0.170025
0.201741
0.458721
0.994561
1.0956
1.27806
1.23811
1.22472
1.18281
1.13395
1.11189
1.06306
1.0299
1.01841
0.97472
0.962297
0.956485
0.936754
0.940742
0.932229
0.959452
0.987678
1.00559
1.07757
1.13043
1.21413
1.32707
1.4284
1.53728
1.62377
1.67343
1.69576
1.706
1.71436
1.72566
1.73992
1.75669
1.78097
1.80891
1.83798
1.86535
1.88756
1.90643
1.92375
1.93823
1.95071
1.96195
1.97209
1.98143
1.99046
1.99892
2.00577
2.01146
2.01509
2.01713
2.01789
2.01733
2.01661
2.01573
2.01575
2.01525
2.02424
0.199976
0.199977
0.199972
0.199963
0.199951
0.199934
0.199912
0.199883
0.199845
0.199798
0.19974
0.199668
0.19958
0.199476
0.199353
0.199208
0.199042
0.198853
0.19864
0.198402
0.19814
0.197854
0.197544
0.197215
0.196863
0.19649
0.196116
0.195719
0.195293
0.194883
0.194477
0.19403
0.193584
0.193189
0.192817
0.192405
0.191953
0.191571
0.191221
0.190867
0.190429
0.189939
0.189511
0.189121
0.188771
0.188413
0.187833
0.187047
0.186403
0.185894
0.185409
0.18501
0.184363
0.183311
0.18161
0.180901
0.180824
0.199098
0.255598
0.71767
0.857651
0.91313
1.05218
1.16648
1.21988
1.1942
1.14533
1.13279
1.05936
1.0417
1.00973
0.982499
0.979977
0.970944
0.947759
0.972367
0.98537
1.01743
1.07737
1.12914
1.2303
1.33342
1.43176
1.53568
1.6202
1.67245
1.69819
1.71125
1.71726
1.72229
1.73056
1.74209
1.75424
1.77255
1.79454
1.82015
1.84624
1.87038
1.8905
1.90791
1.92407
1.93745
1.94898
1.95974
1.96967
1.97894
1.98815
1.99654
2.00317
2.00833
2.0115
2.01301
2.01335
2.01233
2.0115
2.01034
2.01032
2.01006
2.01913
0.199976
0.199978
0.199972
0.199964
0.199951
0.199935
0.199912
0.199884
0.199847
0.1998
0.199742
0.19967
0.199584
0.19948
0.199357
0.199214
0.19905
0.198862
0.19865
0.198414
0.198153
0.19787
0.197562
0.197234
0.196882
0.196515
0.19614
0.195734
0.195318
0.194915
0.19449
0.194024
0.1936
0.193217
0.192809
0.19235
0.191931
0.191565
0.191226
0.190814
0.19029
0.189851
0.18947
0.189096
0.188797
0.188357
0.187646
0.187026
0.186497
0.186012
0.185745
0.185377
0.184859
0.183771
0.182717
0.182128
0.183218
0.204351
0.454793
0.857254
0.853427
0.866322
0.942515
1.08714
1.19632
1.22343
1.16264
1.17957
1.07031
1.07973
1.0092
1.00276
1.01744
1.01446
1.00643
1.05302
1.09372
1.16191
1.25647
1.35137
1.44978
1.54879
1.62466
1.67381
1.69768
1.70989
1.71682
1.72159
1.72591
1.73221
1.74141
1.75128
1.76557
1.78354
1.80467
1.82829
1.85199
1.87355
1.89225
1.9089
1.92399
1.93651
1.94767
1.95812
1.96783
1.97677
1.98571
1.99355
1.99974
2.00423
2.00696
2.00808
2.00814
2.00696
2.00608
2.00465
2.00463
2.00458
2.01333
0.199976
0.199978
0.199972
0.199964
0.199952
0.199935
0.199913
0.199885
0.199848
0.199802
0.199744
0.199673
0.199587
0.199485
0.199363
0.199222
0.199059
0.198872
0.198663
0.198429
0.19817
0.197889
0.197583
0.197256
0.196905
0.196548
0.196164
0.195757
0.195355
0.194948
0.194492
0.194044
0.193637
0.193224
0.192781
0.192334
0.191944
0.191592
0.191193
0.190716
0.190259
0.189868
0.189486
0.189166
0.18874
0.188215
0.187607
0.187086
0.18666
0.186327
0.185979
0.185523
0.184605
0.183969
0.18257
0.181398
0.182052
0.195474
0.669626
0.881544
0.876054
0.862989
0.877497
0.966819
1.09314
1.2026
1.20364
1.25557
1.11751
1.13143
1.03639
1.06238
1.09141
1.0918
1.154
1.20809
1.30348
1.38661
1.48214
1.57096
1.63462
1.67586
1.69558
1.70535
1.71233
1.7158
1.71984
1.72391
1.72966
1.73813
1.74689
1.75883
1.77364
1.79171
1.81197
1.83416
1.85598
1.87521
1.89223
1.90775
1.92157
1.93313
1.94389
1.95423
1.96408
1.97312
1.9821
1.98955
1.99538
1.99928
2.00176
2.00263
2.00255
2.00132
2.00034
1.99862
1.99868
1.9988
2.00703
0.199977
0.199978
0.199972
0.199964
0.199952
0.199936
0.199914
0.199886
0.199849
0.199804
0.199747
0.199677
0.199592
0.19949
0.19937
0.199231
0.199069
0.198885
0.198678
0.198446
0.19819
0.197911
0.197608
0.197281
0.196938
0.19658
0.196189
0.195794
0.195404
0.194964
0.19451
0.194092
0.193673
0.193232
0.192764
0.192357
0.191992
0.191587
0.191116
0.190673
0.190282
0.18994
0.189595
0.189202
0.188691
0.188156
0.187668
0.187256
0.187024
0.186715
0.186349
0.185732
0.185321
0.185022
0.184984
0.184686
0.196514
0.265869
0.766965
0.886381
0.887271
0.875374
0.87538
0.921384
1.00874
1.16603
1.25193
1.31484
1.1971
1.19774
1.12488
1.19497
1.23459
1.27368
1.35494
1.4324
1.5239
1.59368
1.64914
1.67889
1.69339
1.70099
1.7043
1.7042
1.70806
1.71126
1.71648
1.7222
1.73017
1.73881
1.74986
1.76303
1.77908
1.79708
1.81689
1.83773
1.85822
1.87631
1.89243
1.90702
1.91986
1.93084
1.94137
1.95141
1.96099
1.96955
1.97812
1.98492
1.99032
1.99362
1.99591
1.9967
1.9966
1.99538
1.99424
1.9923
1.9925
1.99284
2.00019
0.199977
0.199978
0.199973
0.199965
0.199953
0.199937
0.199915
0.199887
0.199851
0.199806
0.19975
0.199681
0.199597
0.199497
0.199378
0.19924
0.199081
0.198899
0.198694
0.198465
0.198213
0.197936
0.197636
0.197311
0.196977
0.196613
0.196223
0.195846
0.195445
0.194986
0.194556
0.194154
0.193706
0.193218
0.192796
0.19242
0.192008
0.191544
0.191067
0.190679
0.190366
0.190031
0.189663
0.189171
0.188743
0.188297
0.187862
0.18752
0.187263
0.186908
0.186544
0.186207
0.186033
0.186054
0.18644
0.187976
0.205569
0.435739
0.866291
0.89448
0.894636
0.895726
0.894187
0.924535
1.00384
1.10326
1.30286
1.3779
1.32997
1.30589
1.31923
1.38529
1.43295
1.50169
1.56147
1.61772
1.65755
1.6796
1.69136
1.69722
1.699
1.69496
1.69613
1.69736
1.70248
1.70688
1.71254
1.71942
1.72728
1.73739
1.75027
1.76497
1.78221
1.80034
1.81975
1.83928
1.85796
1.87447
1.88951
1.90291
1.91486
1.92588
1.93648
1.94677
1.95644
1.96495
1.97316
1.97944
1.98456
1.98748
1.9897
1.99051
1.99036
1.98904
1.98776
1.98567
1.98602
1.98653
1.99328
0.199977
0.199978
0.199973
0.199965
0.199953
0.199937
0.199916
0.199889
0.199853
0.199809
0.199753
0.199685
0.199603
0.199504
0.199387
0.199251
0.199094
0.198916
0.198713
0.198488
0.198239
0.197966
0.19767
0.197351
0.197015
0.196651
0.196272
0.195899
0.195477
0.195039
0.194629
0.194203
0.193713
0.193262
0.192879
0.192469
0.19201
0.191509
0.191081
0.190754
0.190417
0.190056
0.189619
0.189255
0.188922
0.188591
0.18819
0.187728
0.187283
0.186817
0.186481
0.186158
0.18596
0.185517
0.185176
0.185971
0.202381
0.645781
0.923583
0.924612
0.919431
0.914035
0.9027
0.95028
1.0197
1.11678
1.39296
1.48352
1.49769
1.47366
1.54017
1.56887
1.60983
1.64553
1.66449
1.67784
1.68844
1.69259
1.6929
1.68754
1.6881
1.68831
1.68877
1.6905
1.69554
1.70019
1.7073
1.71476
1.7242
1.73531
1.74869
1.76435
1.78209
1.80075
1.82038
1.83974
1.85772
1.87361
1.88777
1.90034
1.91182
1.92274
1.933
1.943
1.95209
1.96015
1.96771
1.97348
1.97837
1.98107
1.98327
1.98415
1.98387
1.98239
1.98104
1.97895
1.97946
1.98012
1.98625
0.199977
0.199979
0.199973
0.199966
0.199954
0.199938
0.199917
0.19989
0.199855
0.199811
0.199757
0.19969
0.199609
0.199512
0.199398
0.199264
0.19911
0.198934
0.198735
0.198514
0.198269
0.198
0.197709
0.197394
0.197059
0.196701
0.196334
0.195952
0.195527
0.195111
0.194705
0.194246
0.193763
0.193356
0.192958
0.192504
0.192001
0.191549
0.191193
0.190807
0.190406
0.189987
0.189657
0.189405
0.189174
0.188854
0.188357
0.187851
0.187265
0.186761
0.186482
0.186004
0.185504
0.185323
0.185649
0.194955
0.24567
0.775461
0.930689
0.93919
0.942769
0.941406
0.929438
1.00075
1.11246
1.2508
1.53221
1.62499
1.64306
1.64322
1.66675
1.67044
1.6756
1.68424
1.68647
1.68515
1.68191
1.67978
1.6793
1.67892
1.67752
1.67721
1.68027
1.68244
1.68789
1.69385
1.70086
1.70888
1.71864
1.73088
1.74475
1.76098
1.77898
1.79758
1.81683
1.83572
1.85293
1.86811
1.88168
1.89414
1.90595
1.91736
1.92784
1.93785
1.94658
1.95443
1.96149
1.96702
1.97182
1.97452
1.97672
1.97758
1.9771
1.97551
1.97417
1.97216
1.97285
1.97355
1.97932
0.199978
0.199979
0.199974
0.199966
0.199955
0.199939
0.199919
0.199892
0.199858
0.199815
0.199761
0.199696
0.199616
0.199521
0.199409
0.199278
0.199127
0.198955
0.19876
0.198544
0.198302
0.198039
0.197753
0.197443
0.197113
0.196763
0.196401
0.19601
0.1956
0.195196
0.194782
0.19431
0.193863
0.193471
0.193027
0.192509
0.192067
0.191685
0.191296
0.190831
0.190347
0.190006
0.189776
0.189584
0.189263
0.188908
0.188362
0.18789
0.187422
0.187141
0.186866
0.186544
0.186251
0.18666
0.187762
0.205059
0.373026
0.859244
0.933957
0.940676
0.95642
0.965695
0.967125
1.08372
1.26537
1.45813
1.67242
1.72939
1.71417
1.70767
1.69691
1.69311
1.68605
1.68171
1.67484
1.67136
1.66943
1.66647
1.66535
1.6641
1.6648
1.66594
1.66896
1.67147
1.67738
1.68429
1.69253
1.70168
1.71297
1.72526
1.73984
1.75673
1.77557
1.79485
1.81455
1.83355
1.85025
1.86468
1.87774
1.89021
1.90188
1.91317
1.9233
1.93276
1.94087
1.94845
1.95503
1.96047
1.96524
1.96802
1.97006
1.9708
1.97009
1.96843
1.96708
1.96527
1.96616
1.96696
1.97239
0.199978
0.199979
0.199974
0.199967
0.199955
0.19994
0.19992
0.199894
0.19986
0.199818
0.199766
0.199702
0.199624
0.199531
0.199422
0.199294
0.199146
0.198978
0.198788
0.198576
0.19834
0.198084
0.197802
0.1975
0.197176
0.196834
0.19647
0.196087
0.195689
0.195291
0.194865
0.194416
0.193987
0.193567
0.193086
0.192605
0.192204
0.191842
0.191391
0.19083
0.19041
0.190138
0.189938
0.189629
0.189271
0.18875
0.188336
0.187991
0.187742
0.187452
0.18708
0.186393
0.185846
0.18578
0.186536
0.208093
0.582896
0.9424
0.951382
0.951375
0.971328
1.01122
1.03637
1.2425
1.45415
1.65712
1.75653
1.75294
1.72492
1.71106
1.69479
1.6822
1.67328
1.6667
1.66127
1.65604
1.65226
1.64964
1.64874
1.64942
1.65038
1.65253
1.65671
1.66041
1.66727
1.67497
1.68344
1.6927
1.70364
1.7161
1.73073
1.74745
1.76589
1.78529
1.80503
1.8245
1.8417
1.85663
1.87019
1.88334
1.89557
1.90702
1.91708
1.92624
1.93408
1.94162
1.94795
1.95348
1.95832
1.9613
1.96316
1.96371
1.96281
1.96114
1.95987
1.95842
1.95954
1.96038
1.96559
0.199979
0.19998
0.199975
0.199967
0.199956
0.199942
0.199922
0.199896
0.199863
0.199822
0.199771
0.199709
0.199633
0.199542
0.199436
0.199311
0.199168
0.199004
0.198819
0.198612
0.198384
0.198133
0.197859
0.197565
0.197248
0.196911
0.196554
0.19618
0.195796
0.195391
0.194969
0.194543
0.194116
0.193682
0.193191
0.192753
0.192379
0.191965
0.191441
0.190963
0.190582
0.190337
0.19002
0.189614
0.189072
0.188697
0.188382
0.18813
0.187819
0.187444
0.186725
0.185985
0.185437
0.184812
0.19199
0.23211
0.768081
0.955063
0.9669
0.966806
0.990305
1.08757
1.15794
1.44155
1.6425
1.76206
1.76747
1.73368
1.7173
1.6959
1.68076
1.66896
1.65929
1.65137
1.6446
1.63895
1.63489
1.63246
1.63155
1.63415
1.63577
1.63919
1.64329
1.64728
1.65357
1.66129
1.67037
1.68045
1.69246
1.70614
1.72173
1.73905
1.75812
1.77797
1.79798
1.81769
1.83502
1.85018
1.86411
1.87755
1.88995
1.90132
1.91097
1.91975
1.92729
1.9347
1.9408
1.94646
1.95136
1.95446
1.95604
1.9563
1.95527
1.9537
1.95255
1.95151
1.95286
1.95378
1.95884
0.199979
0.19998
0.199975
0.199968
0.199957
0.199943
0.199924
0.199899
0.199867
0.199827
0.199777
0.199716
0.199642
0.199555
0.199451
0.199331
0.199191
0.199033
0.198854
0.198653
0.198432
0.198188
0.197923
0.197637
0.197328
0.197
0.196653
0.19629
0.195908
0.195507
0.195099
0.194682
0.194266
0.193819
0.193356
0.19293
0.19253
0.192075
0.19159
0.191181
0.190805
0.190458
0.190025
0.189452
0.189042
0.188773
0.188579
0.188346
0.188024
0.187699
0.187478
0.187592
0.187962
0.189008
0.206306
0.370422
0.86102
0.949513
0.975216
0.992132
1.03057
1.21808
1.3647
1.64166
1.76116
1.77182
1.73899
1.72171
1.69829
1.68048
1.66522
1.65261
1.64236
1.6341
1.62745
1.62245
1.61854
1.61619
1.61525
1.61853
1.62043
1.62437
1.62778
1.6325
1.63972
1.64812
1.65778
1.6681
1.67975
1.69297
1.7082
1.72551
1.74494
1.76539
1.78594
1.80632
1.82442
1.84031
1.85492
1.86889
1.88171
1.89335
1.90315
1.91207
1.91963
1.92706
1.93312
1.93894
1.94399
1.94725
1.94849
1.94859
1.94757
1.94619
1.9452
1.94464
1.94625
1.94727
1.95231
0.199979
0.199981
0.199976
0.199969
0.199958
0.199944
0.199925
0.199901
0.19987
0.199831
0.199783
0.199724
0.199653
0.199568
0.199468
0.199352
0.199217
0.199065
0.198892
0.198699
0.198486
0.19825
0.197995
0.197717
0.197419
0.197103
0.196765
0.196413
0.196037
0.195649
0.19525
0.194846
0.194424
0.19399
0.193552
0.193118
0.192693
0.192232
0.191812
0.191395
0.190997
0.190534
0.190026
0.189522
0.189189
0.188956
0.188769
0.188437
0.18811
0.187631
0.187207
0.18676
0.18643
0.187411
0.207754
0.61635
0.954999
0.970863
1.01028
1.05673
1.13016
1.40289
1.60093
1.75959
1.77601
1.74319
1.72493
1.70045
1.68148
1.66438
1.64982
1.63771
1.62762
1.61958
1.61347
1.6089
1.60493
1.60218
1.60051
1.60195
1.60405
1.60867
1.61221
1.61739
1.62426
1.63238
1.64219
1.6528
1.66488
1.67882
1.69474
1.71259
1.73244
1.75344
1.77444
1.79535
1.81402
1.83045
1.84555
1.85992
1.87309
1.88492
1.89481
1.90398
1.91169
1.91922
1.92529
1.9312
1.93644
1.93972
1.94062
1.94074
1.93982
1.9386
1.9378
1.93772
1.93967
1.94079
1.94591
0.19998
0.199981
0.199976
0.19997
0.199959
0.199946
0.199928
0.199904
0.199874
0.199837
0.19979
0.199733
0.199665
0.199583
0.199487
0.199375
0.199246
0.1991
0.198933
0.198749
0.198544
0.198319
0.198074
0.197807
0.197523
0.197217
0.196893
0.19655
0.196188
0.195814
0.195422
0.195026
0.194614
0.194189
0.193769
0.193337
0.192888
0.192446
0.192032
0.191624
0.191171
0.190672
0.190175
0.189737
0.189354
0.189064
0.18867
0.18816
0.187507
0.186859
0.186084
0.184869
0.184001
0.192768
0.24863
0.796766
0.967667
0.979982
1.05402
1.16313
1.32038
1.60396
1.75148
1.77751
1.74586
1.72791
1.70256
1.68313
1.66523
1.6498
1.63657
1.62528
1.6158
1.60805
1.60204
1.59744
1.59333
1.59024
1.5877
1.58757
1.58899
1.59362
1.59691
1.60246
1.60919
1.61749
1.62722
1.63816
1.65056
1.66471
1.68075
1.69862
1.71854
1.73983
1.76149
1.78317
1.80284
1.82013
1.83591
1.85067
1.86403
1.87599
1.88605
1.89553
1.90348
1.91112
1.91725
1.92321
1.92847
1.93166
1.93239
1.93265
1.93196
1.93092
1.93044
1.931
1.93317
1.93445
1.93961
0.19998
0.199982
0.199977
0.19997
0.199961
0.199947
0.19993
0.199907
0.199878
0.199842
0.199797
0.199743
0.199677
0.199599
0.199507
0.1994
0.199277
0.199137
0.19898
0.198805
0.198609
0.198396
0.198162
0.197909
0.197638
0.197345
0.197037
0.196707
0.196362
0.196
0.195623
0.195236
0.194839
0.19443
0.194007
0.193583
0.193139
0.192705
0.192275
0.191848
0.191354
0.190875
0.190412
0.189967
0.189603
0.189231
0.188771
0.188163
0.187709
0.18739
0.187181
0.187568
0.189233
0.209946
0.441601
0.916912
0.985526
1.01791
1.15176
1.34052
1.56259
1.74128
1.77454
1.74449
1.72566
1.70226
1.68301
1.66579
1.65044
1.63707
1.62529
1.61478
1.60569
1.59805
1.59191
1.58706
1.58276
1.57931
1.57608
1.57495
1.57537
1.57942
1.58223
1.58774
1.59458
1.60279
1.61214
1.62298
1.635
1.64876
1.66469
1.68274
1.70289
1.72459
1.74701
1.76941
1.79027
1.80842
1.82509
1.84031
1.85405
1.86628
1.87669
1.88652
1.89471
1.9025
1.90876
1.91483
1.92005
1.92326
1.92399
1.92445
1.924
1.9232
1.9231
1.92421
1.92651
1.9279
1.93267
0.199981
0.199982
0.199978
0.199971
0.199962
0.199949
0.199932
0.199911
0.199883
0.199848
0.199805
0.199753
0.199691
0.199616
0.199529
0.199427
0.199311
0.199179
0.19903
0.198864
0.19868
0.19848
0.198259
0.198022
0.197765
0.19749
0.197198
0.196885
0.196559
0.196212
0.195854
0.195482
0.195101
0.194707
0.194291
0.193867
0.193446
0.193007
0.19256
0.192122
0.19165
0.19115
0.190677
0.190225
0.189845
0.189378
0.18874
0.188081
0.187296
0.186257
0.184764
0.183459
0.184705
0.205268
0.69713
0.986125
1.0281
1.13555
1.3118
1.55501
1.73113
1.77146
1.74617
1.72417
1.70111
1.68058
1.66335
1.64829
1.63512
1.6235
1.61313
1.60363
1.59499
1.58736
1.58113
1.57608
1.57189
1.56859
1.56521
1.56355
1.56297
1.56623
1.56793
1.5726
1.57954
1.5869
1.59721
1.60792
1.62005
1.63356
1.64931
1.6674
1.6876
1.7095
1.73233
1.75509
1.77699
1.79589
1.81348
1.82925
1.84353
1.85614
1.86699
1.87713
1.88548
1.89338
1.89984
1.90608
1.91116
1.91441
1.91525
1.91592
1.91569
1.91529
1.91563
1.91709
1.91939
1.92092
1.92507
0.199982
0.199983
0.199979
0.199972
0.199963
0.199951
0.199935
0.199914
0.199888
0.199855
0.199814
0.199765
0.199705
0.199635
0.199552
0.199457
0.199348
0.199224
0.199085
0.198929
0.198759
0.198571
0.198366
0.198146
0.197906
0.197652
0.197378
0.197088
0.19678
0.196456
0.19612
0.195768
0.195407
0.195029
0.194634
0.19422
0.193799
0.193364
0.192898
0.192433
0.191961
0.19143
0.190861
0.190334
0.189865
0.189338
0.188653
0.188098
0.187502
0.187114
0.187083
0.188149
0.207325
0.31834
0.879289
1.0385
1.11742
1.3031
1.53361
1.71462
1.76315
1.74193
1.72174
1.6983
1.67852
1.66107
1.64625
1.63315
1.62135
1.61077
1.60125
1.59255
1.58446
1.57705
1.57076
1.56555
1.56137
1.55809
1.55459
1.55262
1.55156
1.55379
1.55444
1.55757
1.56391
1.57029
1.58045
1.5914
1.60406
1.61785
1.63347
1.65119
1.67112
1.69299
1.7161
1.73943
1.76262
1.78253
1.80105
1.81714
1.83224
1.84515
1.85675
1.86711
1.87568
1.8838
1.8905
1.89694
1.90188
1.90511
1.90611
1.90688
1.90709
1.90705
1.9077
1.90927
1.91151
1.91321
1.91576
0.199982
0.199983
0.199979
0.199974
0.199965
0.199953
0.199938
0.199918
0.199893
0.199862
0.199823
0.199777
0.199721
0.199655
0.199578
0.199489
0.199387
0.199272
0.199143
0.199
0.198843
0.19867
0.198483
0.19828
0.198062
0.19783
0.197579
0.197315
0.19703
0.196734
0.196423
0.1961
0.195765
0.19541
0.195043
0.19465
0.194242
0.193815
0.193369
0.192913
0.192456
0.191987
0.191468
0.190941
0.190448
0.189991
0.189445
0.1888
0.188085
0.186859
0.185878
0.186209
0.218431
0.572038
1.07398
1.11662
1.33539
1.51821
1.71292
1.76605
1.74234
1.72059
1.6955
1.6748
1.65635
1.64076
1.62786
1.61692
1.60696
1.59761
1.58892
1.58101
1.57382
1.56703
1.56095
1.55563
1.55138
1.54805
1.54449
1.54235
1.5409
1.54228
1.54199
1.54379
1.54915
1.55466
1.56406
1.57455
1.58719
1.60119
1.61705
1.63484
1.65445
1.67609
1.69942
1.7233
1.74764
1.76867
1.788
1.80464
1.82024
1.83339
1.84573
1.85627
1.86526
1.87379
1.88077
1.8874
1.8921
1.89536
1.89654
1.89752
1.89804
1.89834
1.89939
1.90102
1.90326
1.90484
1.90705
0.199983
0.199984
0.19998
0.199975
0.199966
0.199955
0.199941
0.199922
0.199898
0.199869
0.199833
0.199789
0.199737
0.199676
0.199605
0.199523
0.199429
0.199324
0.199206
0.199077
0.198933
0.198778
0.19861
0.198427
0.198234
0.198024
0.197802
0.197565
0.197312
0.197048
0.196768
0.196481
0.196178
0.19586
0.195524
0.195163
0.194785
0.194374
0.193949
0.193498
0.193062
0.19259
0.192038
0.191369
0.190639
0.189898
0.189082
0.18809
0.187177
0.185962
0.185579
0.19979
0.26385
0.874529
1.1473
1.27232
1.51042
1.69362
1.75581
1.74774
1.71288
1.6952
1.67111
1.65444
1.63869
1.62477
1.6129
1.60292
1.5941
1.58557
1.57748
1.56997
1.56326
1.55691
1.551
1.54576
1.54125
1.53778
1.53444
1.53213
1.53027
1.53099
1.53015
1.5309
1.53551
1.53979
1.54797
1.55771
1.57008
1.58426
1.60022
1.61786
1.63742
1.6587
1.68191
1.70614
1.7315
1.75388
1.77419
1.79163
1.8078
1.82126
1.83424
1.84478
1.85451
1.86335
1.87078
1.87751
1.88205
1.88541
1.88686
1.88812
1.88907
1.88978
1.89126
1.89286
1.89496
1.89663
1.89793
0.199984
0.199985
0.199981
0.199976
0.199968
0.199958
0.199944
0.199927
0.199904
0.199877
0.199843
0.199803
0.199755
0.199699
0.199634
0.199559
0.199474
0.199379
0.199274
0.199158
0.199031
0.198894
0.198746
0.198588
0.198419
0.198238
0.198048
0.197842
0.197628
0.197399
0.197162
0.196915
0.196654
0.196382
0.196085
0.195774
0.195439
0.195078
0.1947
0.194367
0.19404
0.19368
0.193235
0.192744
0.19225
0.191847
0.191407
0.190918
0.190309
0.189757
0.189407
0.212616
0.556951
1.19018
1.27029
1.52087
1.6857
1.75188
1.74728
1.70488
1.68828
1.66266
1.64605
1.63123
1.61855
1.60703
1.59675
1.58784
1.58009
1.57271
1.56552
1.55868
1.55233
1.54652
1.54113
1.53599
1.5311
1.52725
1.52393
1.52137
1.51943
1.51953
1.51822
1.51824
1.52254
1.52575
1.53271
1.54152
1.5533
1.56698
1.58282
1.60045
1.61981
1.641
1.66394
1.6881
1.71419
1.73777
1.7593
1.77759
1.7945
1.80862
1.82211
1.83286
1.84348
1.85243
1.86061
1.86752
1.87201
1.87558
1.87724
1.87883
1.88019
1.88115
1.88296
1.88456
1.88643
1.88797
1.88903
0.199985
0.199986
0.199982
0.199977
0.19997
0.19996
0.199947
0.199931
0.199911
0.199885
0.199854
0.199818
0.199774
0.199723
0.199664
0.199597
0.199522
0.199438
0.199346
0.199245
0.199135
0.199018
0.198892
0.19876
0.198618
0.198471
0.198313
0.198148
0.197975
0.19779
0.197603
0.197404
0.197198
0.196979
0.196741
0.196495
0.196223
0.195943
0.195658
0.195409
0.195127
0.194777
0.194331
0.193854
0.193323
0.192769
0.192149
0.1917
0.19133
0.191484
0.205218
0.257258
0.983429
1.31274
1.47418
1.66861
1.75242
1.7371
1.71119
1.68345
1.6613
1.64166
1.62529
1.61202
1.60098
1.59123
1.58227
1.5741
1.5667
1.55995
1.55353
1.54711
1.54089
1.53564
1.5307
1.52566
1.52076
1.51642
1.51272
1.50987
1.50782
1.50766
1.50599
1.50584
1.50965
1.51219
1.51796
1.52607
1.53695
1.54995
1.56528
1.58287
1.60234
1.62339
1.64592
1.66971
1.69553
1.71979
1.74289
1.7625
1.78058
1.79572
1.80991
1.82114
1.83223
1.84121
1.85038
1.85729
1.86188
1.86563
1.86762
1.86961
1.87133
1.87251
1.87443
1.8759
1.87762
1.87913
1.87956
0.199985
0.199986
0.199983
0.199979
0.199972
0.199963
0.199951
0.199936
0.199917
0.199894
0.199866
0.199833
0.199794
0.199748