/*--------------------------------*- C++ -*----------------------------------*\
| =========                 |                                                 |
| \\      /  F ield         | OpenFOAM: The Open Source CFD Toolbox           |
|  \\    /   O peration     | Version:  2.2.x                                 |
|   \\  /    A nd           | Web:      www.OpenFOAM.org                      |
|    \\/     M anipulation  |                                                 |
\*---------------------------------------------------------------------------*/
FoamFile
{
    version     2.0;
    format      ascii;
    class       volScalarField;
    location    "0.08";
    object      By;
}
// * * * * * * * * * * * * * * * * * * * * * * * * * * * * * * * * * * * * * //

dimensions      [1 0 -2 0 0 -1 0];

internalField   nonuniform List<scalar> 
255
(
1.41047
1.41047
1.41047
1.41047
1.41047
1.41047
1.41047
1.41047
1.41047
1.41047
1.41047
1.41047
1.41047
1.41047
1.41047
1.41047
1.41047
1.41047
1.41047
1.41047
1.41047
1.41047
1.41047
1.41047
1.41047
1.41047
1.41047
1.41047
1.41047
1.41047
1.41047
1.41047
2.49405
4.86374
5.38603
5.426
5.42666
5.42693
5.42705
5.42708
5.42709
5.42711
5.42712
5.42715
5.42719
5.42721
5.42719
5.42715
5.42714
5.42715
5.42715
5.42714
5.42713
5.42711
5.42706
5.42701
5.42699
5.42698
5.42699
5.42701
5.42701
5.42699
5.42695
5.42689
5.42685
5.42682
5.42682
5.42684
5.42689
5.42695
5.42698
5.427
5.42698
5.42696
5.42692
5.42687
5.42681
5.42676
5.4267
5.42663
5.42653
5.42635
5.426
5.42539
5.42439
5.42273
5.41994
5.41523
5.40758
5.39563
5.37735
5.34981
5.30925
5.25119
5.17026
5.06048
4.91629
4.73632
4.55966
4.41412
4.29961
4.21329
4.15039
4.10688
4.0779
4.05936
4.04753
4.04072
4.03792
4.03717
4.03714
4.03719
4.03687
4.03592
4.0344
4.03251
4.03064
4.029
4.02742
4.02553
4.02299
4.01947
4.0146
4.00771
3.99887
3.98788
3.97369
3.95524
3.93258
3.90921
3.88953
3.87413
3.86252
3.85411
3.84824
3.84429
3.84176
3.84021
3.83933
3.83892
3.83875
3.8387
3.8387
3.83872
3.83877
3.83882
3.83885
3.83888
3.83889
3.8389
3.8389
3.83888
3.83886
3.83884
3.83883
3.83882
3.83881
3.8388
3.83879
3.83878
3.83877
3.83876
3.83876
3.83876
3.83876
3.83876
3.83875
3.83875
3.83874
3.83873
3.83872
3.83872
3.83873
3.83874
3.83876
3.83877
3.83878
3.83878
3.83879
3.83879
3.83879
3.83879
3.8388
3.83881
3.83883
3.83884
3.83884
3.83883
3.83882
3.8388
3.83878
3.83877
3.83876
3.83876
3.83877
3.83878
3.83878
3.83878
3.83877
3.83876
3.83874
3.83873
3.83873
3.83874
3.83876
3.83877
3.83879
3.83881
3.83881
3.83881
3.83881
3.8388
3.83879
3.8388
3.8388
3.83878
3.83878
3.83882
3.83886
3.83879
3.83869
3.83876
3.83783
3.80647
3.50566
2.17125
1.41047
1.41047
1.41047
1.41047
1.41047
1.41047
1.41047
1.41047
1.41047
1.41047
1.41047
1.41047
1.41047
1.41047
1.41047
1.41047
1.41047
1.41047
1.41047
1.41047
1.41047
1.41047
1.41047
1.41047
1.41047
1.41047
1.41047
1.41047
1.41047
)
;

boundaryField
{
    front-back
    {
        type            empty;
    }
    inlet-outlet
    {
        type            calculated;
        value           nonuniform List<scalar> 2(1.41047 1.41047);
    }
    top-down
    {
        type            empty;
    }
}


// ************************************************************************* //
