/*--------------------------------*- C++ -*----------------------------------*\
| =========                 |                                                 |
| \\      /  F ield         | OpenFOAM: The Open Source CFD Toolbox           |
|  \\    /   O peration     | Version:  2.2.x                                 |
|   \\  /    A nd           | Web:      www.OpenFOAM.org                      |
|    \\/     M anipulation  |                                                 |
\*---------------------------------------------------------------------------*/
FoamFile
{
    version     2.0;
    format      ascii;
    class       volScalarField;
    location    "0.08";
    object      p;
}
// * * * * * * * * * * * * * * * * * * * * * * * * * * * * * * * * * * * * * //

dimensions      [1 -1 -2 0 0 0 0];

internalField   nonuniform List<scalar> 
255
(
1
1
1
1
1
1
1
1
1
1
1
1
1
1
1
1
1
1
1
1
1
1
1
1
1
1
1
1
1
1
1
1
28.693
119.06
141.708
143.521
143.554
143.563
143.567
143.567
143.565
143.565
143.566
143.568
143.571
143.572
143.573
143.573
143.571
143.57
143.568
143.567
143.567
143.567
143.567
143.567
143.567
143.566
143.566
143.566
143.567
143.567
143.567
143.567
143.567
143.567
143.568
143.568
143.569
143.571
143.572
143.573
143.573
143.573
143.572
143.572
143.57
143.57
143.569
143.569
143.57
143.571
143.572
143.573
143.577
143.589
143.608
143.634
143.672
143.736
143.838
143.989
144.205
144.512
144.939
145.507
146.231
147.098
147.928
148.592
149.095
149.473
149.725
149.905
150.021
150.107
150.151
150.17
150.187
150.19
150.192
150.195
150.199
150.203
150.206
150.209
150.211
150.216
150.229
150.243
150.257
150.271
150.292
150.318
150.353
150.395
150.452
150.524
150.614
150.707
150.784
150.844
150.888
150.921
150.944
150.958
150.966
150.97
150.973
150.978
150.981
150.982
150.982
150.982
150.98
150.978
150.977
150.978
150.978
150.98
150.981
150.982
150.983
150.983
150.983
150.983
150.982
150.981
150.98
150.979
150.978
150.977
150.977
150.978
150.978
150.978
150.978
150.978
150.977
150.977
150.976
150.976
150.977
150.978
150.979
150.98
150.981
150.981
150.981
150.981
150.981
150.981
150.981
150.981
150.982
150.982
150.982
150.981
150.98
150.979
150.978
150.977
150.977
150.977
150.977
150.978
150.978
150.978
150.977
150.976
150.975
150.975
150.975
150.975
150.977
150.978
150.979
150.979
150.98
150.98
150.979
150.979
150.978
150.978
150.978
150.978
150.979
150.98
150.981
150.979
150.975
150.977
150.894
148.922
130.134
52.9334
20
20
20
20
20
20
20
20
20
20
20
20
20
20
20
20
20
20
20
20
20
20
20
20
20
20
20
20
20
)
;

boundaryField
{
    front-back
    {
        type            empty;
    }
    inlet-outlet
    {
        type            zeroGradient;
    }
    top-down
    {
        type            empty;
    }
}


// ************************************************************************* //
