/*--------------------------------*- C++ -*----------------------------------*\
| =========                 |                                                 |
| \\      /  F ield         | OpenFOAM: The Open Source CFD Toolbox           |
|  \\    /   O peration     | Version:  2.2.x                                 |
|   \\  /    A nd           | Web:      www.OpenFOAM.org                      |
|    \\/     M anipulation  |                                                 |
\*---------------------------------------------------------------------------*/
FoamFile
{
    version     2.0;
    format      ascii;
    class       surfaceScalarField;
    location    "1.2";
    object      phi;
}
// * * * * * * * * * * * * * * * * * * * * * * * * * * * * * * * * * * * * * //

dimensions      [1 0 -1 0 0 0 0];

internalField   nonuniform List<scalar> 
28084
(
0.000742173
0.000754247
0.000758626
0.000750542
0.000742967
0.0007207
0.000711924
0.000712584
0.000720957
0.000725938
0.000743252
0.00075156
0.000751178
0.000740018
0.000727535
0.000716601
0.000713793
0.000718482
0.000727102
0.000733397
0.000741675
0.000748411
0.000751956
0.000752457
0.000749515
0.000746251
0.000742055
0.000737029
0.00073579
0.000737305
0.000739315
0.000740832
0.000742266
0.00074202
0.000744155
0.000748469
0.000789462
0.000853098
0.0008425
0.000812316
0.000783963
0.00076716
0.000758301
0.000754509
0.000755702
0.000770373
0.000788028
0.000808207
0.000830018
0.000853009
0.000876033
0.000896976
0.000915178
0.000929847
0.000943594
0.000958224
0.000974055
0.000991909
0.00101246
0.00103493
0.00105749
0.00108085
0.00110392
0.00112605
0.00114798
0.00116934
0.00119008
0.00121135
0.00123276
0.00125178
0.00126814
0.00128099
0.00129326
0.0013052
0.00130367
0.00129374
0.00126964
0.00120005
0.00106551
0.000897297
0.000752971
0.00063201
0.000530505
0.000442069
0.000364674
0.000299446
0.000249334
0.000214926
0.000195063
0.000183403
0.000178547
0.000178271
0.000186251
0.000200124
0.000217517
0.000233928
0.000249772
0.000263694
0.000272681
0.000275932
0.000275783
0.000272995
0.000271386
0.000273211
0.000280502
0.000295179
0.000316264
0.000341079
0.000364255
0.000384117
0.000395667
0.000402187
0.00040091
0.000389791
0.000362213
0.000310587
0.000231042
0.000131124
-2.6547e-06
-1.88153e-05
0.000786698
-1.90329e-06
0.000752591
1.64051e-05
0.000716608
7.12596e-06
0.000700653
2.13408e-05
0.000689869
1.1148e-05
0.000700843
3.09691e-06
0.00072839
-1.03109e-05
0.000755989
-6.6207e-06
0.00078143
-9.52392e-06
0.000797042
-5.97822e-06
0.000779689
-9.60214e-07
0.00074748
4.85151e-06
0.000721226
7.72971e-06
0.000706265
5.66086e-06
0.000704717
4.30252e-07
0.000718354
-3.48938e-06
0.00073863
-1.96685e-06
0.000758426
-4.13785e-06
0.000768377
-6.28224e-06
0.000769527
-1.8685e-06
0.000764828
-1.22971e-06
0.000757583
-1.18157e-07
0.000754815
-6.30102e-07
0.000754762
-1.67262e-06
0.000754702
-9.9886e-07
0.000751866
-1.67376e-06
0.000748348
-2.07321e-06
0.000745045
-2.88825e-06
0.000741148
-2.97079e-06
0.000735188
-1.66749e-06
0.000727631
-1.44059e-08
0.000720368
2.18409e-06
0.000715986
-4.36945e-07
0.000716745
-2.62656e-06
0.000719802
-3.94372e-05
0.000727317
-6.70995e-05
0.000753301
1.15472e-05
0.000684418
3.33184e-05
0.00067496
3.24456e-05
0.000668608
2.22456e-05
0.000667659
1.12394e-05
0.000670351
4.73541e-06
0.000680089
-9.37583e-07
0.000693903
-1.4904e-05
0.000710103
-1.91534e-05
0.000737642
-2.19778e-05
0.000764858
-2.3726e-05
0.000791871
-2.49938e-05
0.000818378
-2.51816e-05
0.000843381
-2.46961e-05
0.000866695
-2.33747e-05
0.000889106
-2.26056e-05
0.000910976
-2.21744e-05
0.000932684
-2.24435e-05
0.000954343
-2.35941e-05
0.00097583
-2.53816e-05
0.000996213
-2.79918e-05
0.00101482
-2.9416e-05
0.00103235
-2.76123e-05
0.00104826
-2.63235e-05
0.00106328
-2.48382e-05
0.00107775
-2.322e-05
0.00109082
-2.09971e-05
0.00110268
-1.97154e-05
0.00111389
-1.90668e-05
0.00112354
-1.9905e-05
0.00113164
-2.09902e-05
0.00113673
-1.75065e-05
0.00114104
-1.25732e-05
0.00114269
-1.1639e-05
0.00114062
-1.42805e-05
0.00113504
-1.41386e-05
0.00112393
3.97914e-07
0.00111005
1.10682e-05
0.00109882
3.40959e-05
0.00107993
8.54939e-05
0.00105513
0.000148577
0.00102171
0.000179561
0.000982666
0.000151798
0.000928012
0.000125238
0.000826471
0.000102461
0.000716529
8.76662e-05
0.000618468
7.77467e-05
0.000550658
7.07014e-05
0.000500406
5.63405e-05
0.000450132
3.66514e-05
0.000407057
1.68598e-05
0.000371826
5.50126e-06
0.000341983
-4.19338e-06
0.000316062
-1.09278e-05
0.000292235
-1.99405e-05
0.000273461
-2.58274e-05
0.000262112
-2.88295e-05
0.000257318
-2.72927e-05
0.000256831
-2.47876e-05
0.000257973
-2.23992e-05
0.000257682
-1.89863e-05
0.000253953
-1.58125e-05
0.000250008
-1.3279e-05
0.000245295
-1.1489e-05
0.000238205
-9.65309e-06
0.000229399
-6.8133e-06
0.000223402
-5.13368e-06
0.000222719
-4.61837e-06
0.00022684
-4.45242e-06
0.000237624
-4.40062e-06
0.00025408
-3.44896e-06
0.000273573
-9.61345e-07
0.000292511
5.49894e-06
0.000309452
8.14417e-06
0.000325319
1.30797e-05
0.000337199
1.91639e-05
0.000344631
2.95246e-05
0.000345889
4.64539e-05
0.000337683
6.51558e-05
0.000304414
7.58573e-05
0.000230222
9.79065e-05
0.000129326
-4.75091e-05
1.34935e-05
0.000676105
6.24111e-05
0.000751534
5.4475e-05
0.000841222
1.37082e-05
0.000866582
-1.09037e-05
0.000863744
-3.94313e-05
0.000834382
-4.51824e-05
0.000780983
-3.42062e-05
0.000747294
-1.55543e-05
0.000739899
1.60103e-05
0.00074175
3.6761e-05
0.000778554
3.02773e-05
0.000837772
1.24639e-05
0.00087667
1.9007e-06
0.000878507
-1.38376e-05
0.000867479
-2.23823e-05
0.000834061
-1.35767e-05
0.000807466
-5.69299e-06
0.000802369
1.07844e-06
0.000811165
4.25531e-06
0.00083293
1.07918e-05
0.000871093
2.04574e-06
0.000902862
-2.93074e-06
0.000918931
-6.16829e-06
0.000923344
-7.61247e-06
0.000922526
-4.46688e-06
0.000922276
-2.74721e-06
0.000925412
-5.71843e-07
0.000930796
2.12292e-06
0.000940377
5.13618e-06
0.000953854
8.00488e-06
0.000971703
8.07079e-06
0.000991013
5.26704e-06
0.00101023
1.52988e-07
0.00102605
-6.69783e-06
0.00103673
-6.16469e-05
0.00103813
3.00944e-06
0.00108858
1.84643e-05
0.00109092
3.55648e-05
0.00106235
3.04475e-05
0.00103985
1.86782e-05
0.00102486
2.56873e-06
0.00101905
-7.79343e-06
0.00101786
-1.57973e-05
0.00101667
-4.14671e-05
0.00101507
-4.61446e-05
0.00102141
-4.94955e-05
0.00103004
-5.15498e-05
0.00104011
-5.26061e-05
0.00105154
-5.24829e-05
0.00106317
-5.17101e-05
0.00107544
-5.04925e-05
0.00108779
-4.96456e-05
0.00110091
-4.9036e-05
0.00111436
-4.88839e-05
0.00112788
-4.89577e-05
0.0011408
-4.90849e-05
0.00115348
-5.03539e-05
0.00116679
-4.9599e-05
0.00118048
-4.58572e-05
0.0011932
-4.26322e-05
0.0012053
-3.91106e-05
0.00121857
-3.54808e-05
0.00123226
-3.22583e-05
0.00124618
-2.91232e-05
0.00126017
-2.64656e-05
0.00127455
-2.49998e-05
0.00128894
-2.42573e-05
0.00129831
-1.82793e-05
0.00130356
-9.7432e-06
0.00130654
-5.92499e-06
0.0013057
-3.87285e-06
0.00129869
2.12637e-07
0.00128362
1.38623e-05
0.0012582
3.40206e-05
0.00123006
6.5862e-05
0.00119332
0.000128603
0.00115513
0.000196688
0.00110808
0.000241441
0.0010565
0.00025997
0.000986552
0.000239082
0.000905319
0.00020021
0.000816774
0.000157067
0.000726782
0.000131033
0.000651677
0.000124483
0.000583729
0.000104874
0.000530459
7.63715e-05
0.000492604
4.54989e-05
0.000461965
2.62729e-05
0.00043505
1.09532e-05
0.000407997
-2.37759e-06
0.000380566
-1.92798e-05
0.000355702
-3.18646e-05
0.000336503
-3.78795e-05
0.000321397
-3.8093e-05
0.000309302
-3.34157e-05
0.000298754
-2.71579e-05
0.000289377
-2.47069e-05
0.00028061
-2.19951e-05
0.000271556
-1.86501e-05
0.000262612
-1.55072e-05
0.000252567
-1.29574e-05
0.000241983
-9.41164e-06
0.00023414
-5.88745e-06
0.000231703
-4.51688e-06
0.000234401
-3.95282e-06
0.000243681
-3.48599e-06
0.000258633
-1.85015e-06
0.000276988
1.22635e-06
0.000295515
6.19452e-06
0.000312473
9.99188e-06
0.000328572
1.58059e-05
0.000340419
2.39012e-05
0.000345959
3.82123e-05
0.00034238
7.3096e-05
0.000322535
0.000126461
0.000286662
0.000152886
0.00020988
0.000196329
0.000112527
3.34506e-05
-6.48893e-05
0.000882556
-6.87873e-05
0.000792432
-1.72289e-05
0.000676164
7.40108e-06
0.000626253
5.35255e-05
0.000611403
7.39526e-05
0.000649809
5.19199e-05
0.000749117
-6.67406e-06
0.000844373
-2.922e-05
0.000890593
-4.02142e-05
0.000896238
-5.30118e-05
0.000861824
-4.73021e-05
0.000781672
-1.32155e-05
0.000716144
4.94249e-06
0.000698345
1.96865e-05
0.000706999
2.00444e-05
0.000746692
5.71243e-06
0.000798519
-5.84005e-06
0.000831597
-1.29637e-05
0.000843502
-2.90093e-05
0.000841744
-2.5203e-05
0.000823042
-2.04921e-05
0.000797939
-1.10369e-05
0.000785911
-6.44037e-06
0.000785425
-4.31801e-06
0.000792841
-4.18849e-06
0.000802677
-5.14834e-06
0.000811231
-7.4178e-06
0.000816641
-1.03046e-05
0.000818123
-1.27884e-05
0.00081534
-1.27419e-05
0.000807326
-1.25488e-05
0.000796098
-9.53639e-06
0.000785988
-8.39593e-06
0.000781393
-7.78139e-06
0.000776873
-0.000114237
0.000770524
-2.76557e-06
0.000600493
5.13687e-05
0.000596837
6.10182e-05
0.000623433
4.72559e-05
0.00065466
2.4079e-05
0.000682557
2.72059e-06
0.000709063
-8.2243e-06
0.000738384
-1.60221e-05
0.000769109
-4.9258e-05
0.000797125
-5.59451e-05
0.000834385
-6.04703e-05
0.000868002
-6.40486e-05
0.00089886
-6.59526e-05
0.000927615
-6.69134e-05
0.000954727
-6.68627e-05
0.000980495
-6.67213e-05
0.00100538
-6.63664e-05
0.00102973
-6.6026e-05
0.00105368
-6.5945e-05
0.00107737
-6.60671e-05
0.0011007
-6.62262e-05
0.0011233
-6.72659e-05
0.00114515
-6.59385e-05
0.00116583
-6.12896e-05
0.00118451
-5.78755e-05
0.00120131
-5.41504e-05
0.0012161
-5.02916e-05
0.00122878
-4.68993e-05
0.00124073
-4.35985e-05
0.0012527
-4.01296e-05
0.00126398
-3.53799e-05
0.00127609
-3.00835e-05
0.00128892
-2.01599e-05
0.00130143
-7.63916e-06
0.00131091
2.85696e-06
0.0013125
1.26378e-05
0.00130313
2.60038e-05
0.00128714
4.52324e-05
0.00125366
7.56873e-05
0.00121164
0.000112345
0.00115652
0.000184189
0.00109719
0.000257793
0.00103723
0.000317382
0.00098356
0.000346487
0.000929158
0.000331309
0.000869673
0.000290182
0.000798398
0.000234681
0.000717992
0.00020272
0.00063101
0.000183573
0.000555598
0.000148017
0.000495467
0.000112627
0.000446592
7.32754e-05
0.000404005
4.89595e-05
0.000363998
3.04659e-05
0.000324293
1.23698e-05
0.000292558
-9.96342e-06
0.000270684
-2.62069e-05
0.000257084
-3.4341e-05
0.000248221
-3.62772e-05
0.000242918
-3.20126e-05
0.0002394
-2.64874e-05
0.000237429
-2.53129e-05
0.000236527
-2.35779e-05
0.000230632
-2.00637e-05
0.000224833
-1.63551e-05
0.000218086
-1.3797e-05
0.000210664
-1.02438e-05
0.00020534
-5.46955e-06
0.00020415
-3.56073e-06
0.000208023
-2.97296e-06
0.000217433
-2.2057e-06
0.000231385
-2.98756e-07
0.00024856
2.87033e-06
0.000266878
5.9971e-06
0.000283664
1.17157e-05
0.000296895
2.02262e-05
0.000305136
3.34993e-05
0.000306394
5.84195e-05
0.000294857
0.000103452
0.000265835
0.000190289
0.000223599
0.000227318
0.000160382
0.000279017
8.48084e-05
-0.000100075
1.94666e-05
0.000615811
8.90106e-05
0.000738618
7.27423e-05
0.000891727
2.10101e-05
0.000941771
-1.45243e-05
0.000925538
-6.56178e-05
0.000915323
-7.58611e-05
0.000853153
-6.32775e-05
0.000781545
-3.22641e-05
0.000763891
4.41077e-06
0.000761829
4.1172e-05
0.000803046
3.85285e-05
0.000891765
1.31152e-05
0.000957789
-5.4851e-06
0.000975038
-2.72548e-05
0.000965168
-4.3483e-05
0.000927278
-3.08406e-05
0.000883029
-2.03054e-05
0.000866968
-1.11753e-05
0.000883828
-6.8699e-06
0.000915543
7.1198e-06
0.000958024
-7.775e-06
0.00100792
-1.39152e-05
0.00103548
-1.72552e-05
0.00104516
-1.79154e-05
0.00104391
-1.66586e-05
0.0010393
-1.31149e-05
0.00103541
-9.86571e-06
0.00103762
-5.52148e-06
0.00104515
-1.41855e-06
0.00106001
3.83832e-06
0.00108126
3.83842e-06
0.00110739
2.34729e-06
0.00113509
-5.64006e-09
0.00115966
-1.6178e-06
0.00117921
5.09807e-05
0.00119327
5.16268e-06
0.00128658
2.7319e-05
0.00122167
3.16267e-05
0.00116318
2.02556e-05
0.00112802
-7.00305e-07
0.00111369
-2.41795e-05
0.00111215
-3.67077e-05
0.00110997
-4.33059e-05
0.00110862
-8.66435e-05
0.00110514
-9.09024e-05
0.0011079
-9.35061e-05
0.0011129
-9.55183e-05
0.00111973
-9.61719e-05
0.00112854
-9.58996e-05
0.00113884
-9.50271e-05
0.00115038
-9.40984e-05
0.00116343
-9.3038e-05
0.00117771
-9.18899e-05
0.00119279
-9.10008e-05
0.00120859
-9.01475e-05
0.00122497
-8.92954e-05
0.00124183
-8.91121e-05
0.00125861
-8.61612e-05
0.00127331
-8.01688e-05
0.00128606
-7.43638e-05
0.0013008
-6.8784e-05
0.00131502
-6.41813e-05
0.00132797
-6.07825e-05
0.00134035
-5.7214e-05
0.0013504
-5.42078e-05
0.00135767
-4.88678e-05
0.00136123
-4.21674e-05
0.00136138
-2.83043e-05
0.00135729
-7.33376e-06
0.00134908
1.40837e-05
0.00133432
3.06911e-05
0.00130655
5.96328e-05
0.00127589
9.08016e-05
0.00123413
0.000137206
0.00118993
0.000179772
0.00113773
0.000252595
0.00107423
0.000321131
0.00101602
0.000380416
0.000968807
0.000409733
0.000924441
0.000405123
0.000873378
0.000373643
0.000810689
0.000328331
0.00074062
0.000284437
0.00065813
0.000249928
0.000577855
0.000201826
0.000507966
0.000161002
0.000446432
0.000115797
0.00038954
8.50886e-05
0.000339191
5.57513e-05
0.000296305
2.62095e-05
0.000267333
-4.90914e-06
0.000248951
-2.58588e-05
0.000237078
-3.7186e-05
0.0002306
-4.04842e-05
0.000229664
-3.92965e-05
0.000230805
-3.43695e-05
0.000235602
-2.93326e-05
0.000239972
-2.76106e-05
0.000239795
-2.37778e-05
0.000235692
-1.96926e-05
0.000230144
-1.66494e-05
0.000224787
-1.25514e-05
0.000221336
-6.68718e-06
0.000220667
-3.8958e-06
0.000224101
-2.53314e-06
0.000232997
-1.15857e-06
0.000246142
8.97119e-07
0.000261661
4.14222e-06
0.00027841
8.3213e-06
0.000294145
1.64227e-05
0.00030581
2.89925e-05
0.00031162
5.13292e-05
0.000301607
8.91148e-05
0.000271764
0.000140873
0.000221563
0.000238062
0.000171785
0.000276858
0.000114088
0.000337684
6.58909e-05
5.92206e-05
-0.000101142
0.000977506
-0.00012248
0.000851782
-5.47257e-05
0.000678572
-7.52273e-07
0.000598838
5.9825e-05
0.000582024
9.20561e-05
0.000635779
8.79849e-05
0.000787719
-1.86792e-07
0.000933829
-4.50938e-05
0.00100406
-7.10935e-05
0.0010012
-9.7532e-05
0.00095506
-8.94983e-05
0.000848353
-3.89795e-05
0.000755389
-1.10251e-05
0.000730221
1.44536e-05
0.000741947
2.55046e-05
0.000797628
1.05971e-05
0.000884144
-8.40982e-06
0.000951197
-3.01683e-05
0.000981652
-4.51934e-05
0.000985429
-5.14996e-05
0.000964591
-4.81226e-05
0.000927978
-3.10928e-05
0.000903916
-2.11462e-05
0.000894145
-1.3854e-05
0.000896939
-1.06047e-05
0.000910836
-1.17771e-05
0.000928993
-1.25815e-05
0.000946917
-1.64486e-05
0.000961385
-2.03934e-05
0.000971171
-2.1287e-05
0.000974263
-2.29205e-05
0.000970171
-2.09243e-05
0.00096433
-1.91137e-05
0.000960661
-1.56978e-05
0.000958728
-4.42384e-05
0.000956526
7.35526e-05
0.000799001
8.88326e-05
0.00078154
6.83221e-05
0.000790311
3.61053e-05
0.000811785
1.19425e-06
0.000839229
-2.40596e-05
0.000869816
-3.94252e-05
0.000902161
-4.49853e-05
0.000934886
-9.48873e-05
0.00096156
-0.000101493
0.000994585
-0.000105785
0.00102442
-0.00010913
0.00105234
-0.000110877
0.00107835
-0.000111541
0.00110339
-0.000111763
0.0011283
-0.000111714
0.00115319
-0.00011111
0.00117814
-0.000110269
0.00120274
-0.000109462
0.00122706
-0.000108399
0.00125152
-0.000106937
0.00127644
-0.00010499
0.00130083
-0.000100149
0.00132326
-9.6555e-05
0.00134404
-9.04667e-05
0.00136588
-8.45359e-05
0.0013889
-7.96167e-05
0.00141033
-7.41564e-05
0.00142914
-6.81605e-05
0.0014463
-6.1127e-05
0.00146209
-5.23764e-05
0.00147565
-3.88357e-05
0.00148697
-1.92203e-05
0.00149663
6.95755e-06
0.00150169
4.34676e-05
0.00149251
6.4463e-05
0.00146743
0.000105473
0.00143097
0.000141009
0.00138098
0.000196342
0.00131721
0.000251349
0.00124038
0.000317786
0.00115931
0.000376248
0.00109195
0.000434276
0.00104067
0.000465139
0.00100117
0.000471508
0.000961727
0.000448085
0.000916043
0.000417084
0.000858489
0.000372405
0.000783765
0.000326787
0.000702902
0.000269511
0.000618995
0.000223939
0.00053593
0.000170099
0.000450197
0.000128539
0.0003724
8.07329e-05
0.00031159
4.01109e-05
0.000274388
3.90787e-07
0.000253484
-2.66186e-05
0.000243742
-4.33882e-05
0.000236995
-4.93742e-05
0.000234088
-5.27309e-05
0.000235286
-4.86631e-05
0.000238309
-3.95558e-05
0.000240669
-3.21446e-05
0.000238656
-2.76687e-05
0.000235
-2.3002e-05
0.000231376
-1.95451e-05
0.00022876
-1.57459e-05
0.000226573
-9.65623e-06
0.000226521
-5.97364e-06
0.000230505
-3.26646e-06
0.00023925
-4.34314e-07
0.000251725
2.87169e-06
0.000266261
6.24961e-06
0.000281115
1.22124e-05
0.000293979
2.27532e-05
0.000300636
4.83268e-05
0.000300551
8.64541e-05
0.000287635
0.000139894
0.000253714
0.000185567
0.000200479
0.000279725
0.000151191
0.000300743
0.000102591
0.000379175
5.7375e-05
-0.000157206
1.4272e-05
0.000567029
0.000102558
0.00071762
7.70905e-05
0.000924365
2.61891e-05
0.00100779
-2.13705e-05
0.000985841
-0.000102472
0.000985696
-0.000112673
0.000913879
-8.73605e-05
0.000821313
-5.19843e-05
0.000786788
-2.40919e-05
0.000778619
2.08568e-05
0.00081901
3.74765e-05
0.00091851
7.5314e-06
0.00101054
-1.63994e-05
0.00105057
-4.22106e-05
0.00105003
-7.22472e-05
0.00102226
-7.15772e-05
0.0009764
-4.66548e-05
0.000941541
-3.48373e-05
0.000942162
-2.38878e-05
0.000965773
-9.89753e-06
0.00101372
-1.34604e-05
0.00107865
-2.27013e-05
0.00112001
-3.11795e-05
0.00114008
-3.36477e-05
0.00114347
-3.46545e-05
0.00113441
-3.28621e-05
0.00111341
-2.69544e-05
0.00109905
-2.45484e-05
0.00110289
-1.98996e-05
0.00111218
-1.25187e-05
0.00112872
-1.05427e-05
0.00115549
-9.35562e-06
0.00118007
-1.07212e-05
0.00119844
-8.21069e-06
0.00120954
0.000113849
0.00121459
0.000100787
0.00124041
8.50019e-05
0.00110697
5.15128e-05
0.0010229
1.36938e-05
0.000987468
-2.64641e-05
0.000983402
-5.43739e-05
0.00100838
-7.09612e-05
0.00104599
-7.10687e-05
0.00108337
-0.000128447
0.00111894
-0.000133222
0.00116156
-0.000136165
0.00120136
-0.000138768
0.00123699
-0.000139993
0.00126746
-0.000140455
0.00129467
-0.000140324
0.0013211
-0.000139772
0.00134594
-0.000138377
0.00136949
-0.00013682
0.00139062
-0.000135378
0.00141063
-0.000133701
0.00143053
-0.000131028
0.0014504
-0.000127411
0.00146955
-0.000121065
0.00148689
-0.00011687
0.00150463
-0.000112559
0.00152231
-0.000106568
0.00153644
-0.000101085
0.0015475
-9.47037e-05
0.00155912
-8.75301e-05
0.00157116
-7.87402e-05
0.00158197
-6.62863e-05
0.00158943
-4.8593e-05
0.00159449
-2.27857e-05
0.00159977
1.7061e-05
0.00159912
6.96979e-05
0.00158958
0.000105465
0.00157836
0.000161665
0.00152142
0.000210986
0.00145969
0.000278571
0.00139082
0.000340969
0.00133064
0.000393449
0.00127603
0.000435979
0.00122095
0.000483251
0.00117453
0.000509328
0.00114187
0.000521797
0.00111333
0.000508202
0.00107389
0.000495576
0.00102053
0.000459532
0.000947188
0.000417381
0.000859777
0.00035861
0.000757305
0.000313367
0.000646264
0.000249791
0.000536515
0.000192878
0.00043263
0.00011878
0.000357676
5.87087e-05
0.000311716
5.51072e-06
0.00028465
-2.68477e-05
0.000269411
-4.78886e-05
0.00026025
-5.71147e-05
0.000255647
-6.10771e-05
0.000255002
-5.95469e-05
0.000254578
-4.80279e-05
0.000252568
-3.77233e-05
0.000251007
-3.15943e-05
0.00024872
-2.57392e-05
0.000244654
-2.17906e-05
0.000239601
-1.76641e-05
0.000236974
-1.26562e-05
0.000237572
-9.70875e-06
0.000241681
-5.9747e-06
0.000249093
-1.895e-06
0.000258628
4.1228e-06
0.00026938
1.02085e-05
0.000281205
2.03011e-05
0.000292158
3.52368e-05
0.000295979
7.0354e-05
0.000291386
0.000125226
0.000273965
0.00019328
0.000239533
0.000230468
0.000193478
0.000312995
0.000143087
0.000322872
9.83039e-05
0.000414021
5.46762e-05
7.30755e-05
-0.000134727
0.00106587
-0.000166026
0.0009193
-9.48295e-05
0.000705541
-2.39008e-05
0.000601804
3.74554e-05
0.00058285
8.54391e-05
0.000645326
9.90947e-05
0.000831552
1.01935e-05
0.00102011
-5.72743e-05
0.00111387
-0.000104058
0.00111697
-0.000135014
0.00106522
-0.000131326
0.000946169
-7.52152e-05
0.000830675
-3.96627e-05
0.000790571
-1.02411e-05
0.000805275
1.13993e-05
0.000868703
1.50007e-05
0.000990159
-1.66691e-05
0.00111034
-4.08283e-05
0.00117479
-6.91334e-05
0.00119129
-7.17812e-05
0.00117851
-7.4014e-05
0.00113303
-6.01936e-05
0.00108379
-4.4314e-05
0.00105478
-3.45388e-05
0.00104979
-2.45767e-05
0.00105924
-1.90352e-05
0.00108082
-2.15102e-05
0.00111003
-2.58899e-05
0.00113638
-2.82122e-05
0.00115518
-3.00602e-05
0.00117179
-3.14134e-05
0.00118688
-2.99998e-05
0.00119728
-2.47989e-05
0.00120588
-1.60003e-05
0.00121648
8.78337e-05
0.00122915
0.000244428
0.0012815
0.000178227
0.00123265
9.7261e-05
0.0011736
2.24046e-05
0.00114535
-5.05971e-05
0.00115512
-9.28463e-05
0.00118465
-0.000110437
0.00122209
-0.000109802
0.00125652
-0.000173588
0.00128864
-0.000176585
0.00132624
-0.000176195
0.0013608
-0.000175254
0.00139213
-0.000172928
0.00141907
-0.000172259
0.00144339
-0.000169867
0.00146757
-0.00016725
0.00148949
-0.000164229
0.00150915
-0.000161452
0.00152648
-0.000159587
0.0015423
-0.000157297
0.00155787
-0.00015341
0.00157271
-0.000147794
0.0015852
-0.000140564
0.00159645
-0.00013478
0.00160938
-0.000127175
0.00162286
-0.000119167
0.00163718
-0.000112835
0.0016502
-0.000107267
0.00166141
-0.000100338
0.00167285
-9.0189e-05
0.00168345
-7.60624e-05
0.00169307
-5.60016e-05
0.0017004
-2.24142e-05
0.00170257
2.87997e-05
0.00169998
8.63504e-05
0.00170407
0.000171427
0.00168539
0.00023065
0.00167248
0.000285406
0.00163984
0.000345698
0.0016017
0.000403707
0.00155693
0.000456903
0.00151743
0.000493432
0.00147792
0.000527207
0.00142735
0.000545981
0.00137949
0.000566703
0.00132973
0.000563686
0.00127581
0.000571349
0.00121016
0.00055163
0.00112992
0.000525705
0.00104106
0.000474193
0.000940002
0.000424013
0.00082799
0.000349834
0.00070512
0.000270659
0.00057863
0.000169783
0.000468355
8.79269e-05
0.000392808
2.06763e-05
0.000346006
-2.164e-05
0.000321241
-4.92029e-05
0.000307283
-6.18105e-05
0.000298179
-6.485e-05
0.000291784
-6.3552e-05
0.000286701
-5.40499e-05
0.000280635
-4.41845e-05
0.000274809
-3.69388e-05
0.000268454
-2.94827e-05
0.000259768
-2.40408e-05
0.00024994
-1.81909e-05
0.000244074
-1.35787e-05
0.000242478
-1.10536e-05
0.000244343
-7.09958e-06
0.000249338
-1.83375e-06
0.000255921
6.29929e-06
0.000264443
1.45314e-05
0.000276032
3.02389e-05
0.000284162
5.20125e-05
0.00028452
9.6477e-05
0.000276943
0.000163778
0.000258857
0.000238462
0.000227006
0.0002751
0.000184288
0.000343684
0.000131658
0.000346464
8.86957e-05
0.000447643
4.69271e-05
-0.000211778
-6.93807e-06
0.000535449
0.000100308
0.000698793
7.73565e-05
0.000948802
2.09488e-05
0.00106536
-4.00179e-05
0.00105389
-0.00013809
0.00103992
-0.000162113
0.000970457
-0.000115084
0.000867244
-8.12078e-05
0.000814775
-5.94596e-05
0.000801276
-1.41836e-05
0.000836535
2.78115e-05
0.000929043
-1.45415e-06
0.00105718
-3.77566e-05
0.00112281
-6.46369e-05
0.00113703
-0.000107281
0.00113494
-0.000121746
0.00108581
-9.38549e-05
0.00102616
-6.66718e-05
0.00101083
-6.44919e-05
0.00103627
-3.63131e-05
0.00107859
-1.25162e-05
0.00113298
-2.87628e-05
0.00119144
-4.17262e-05
0.00122291
-4.78233e-05
0.0012266
-4.90102e-05
0.00121238
-5.38171e-05
0.00119445
-5.62774e-05
0.00117624
-4.531e-05
0.00116106
-4.07203e-05
0.00115807
-3.56316e-05
0.00116296
-3.42538e-05
0.0011784
-3.32878e-05
0.00120005
-3.25772e-05
0.00122102
-2.48285e-05
0.00123985
3.98739e-05
0.00125848
0.00030132
0.0012826
0.000239374
0.0012817
0.000134293
0.001265
1.92652e-05
0.00126752
-7.67554e-05
0.0013022
-0.000128103
0.00135621
-0.000142728
0.00140309
-0.000140406
0.00144042
-0.000211289
0.0014717
-0.000213615
0.00151037
-0.000211627
0.00154385
-0.000209251
0.00157204
-0.000204283
0.00159246
-0.00020233
0.00160871
-0.00019717
0.00162376
-0.000191743
0.00163514
-0.000186605
0.00164502
-0.000182379
0.00165534
-0.000180701
0.00166689
-0.000178922
0.00167944
-0.000174764
0.00169333
-0.000168117
0.00170212
-0.000160637
0.00170765
-0.000153144
0.00171319
-0.000143378
0.00171814
-0.000134694
0.00172333
-0.000127843
0.00172688
-0.000121863
0.00172778
-0.00011361
0.00172935
-0.000102174
0.00172953
-8.54724e-05
0.00173166
-6.097e-05
0.00173039
-2.16203e-05
0.00172303
2.68675e-05
0.0017146
0.000113357
0.00169577
0.000195558
0.00168416
0.000274387
0.00165455
0.000331625
0.00162787
0.000398797
0.00158713
0.000454535
0.001537
0.000507401
0.00150247
0.000554454
0.00147729
0.000581126
0.00144218
0.00060041
0.00138861
0.000625905
0.00133424
0.000629202
0.00128026
0.000648441
0.00121473
0.000637946
0.00114222
0.000627135
0.00106374
0.000589201
0.000988476
0.0005488
0.000911102
0.000475957
0.000834499
0.000379148
0.000740731
0.000249429
0.00063169
0.000139738
0.000523071
4.89916e-05
0.000450817
-6.73889e-06
0.000408628
-4.29538e-05
0.00038663
-5.94637e-05
0.000371253
-6.37598e-05
0.000357596
-6.22271e-05
0.00034472
-5.46097e-05
0.000331958
-4.62148e-05
0.000319437
-3.85245e-05
0.000305644
-2.97537e-05
0.000290644
-2.3548e-05
0.000275349
-1.63598e-05
0.000264744
-1.17249e-05
0.00025994
-9.67038e-06
0.000260368
-6.35065e-06
0.000264431
-7.94043e-07
0.000268706
7.29469e-06
0.000273366
2.00398e-05
0.000277494
4.21187e-05
0.00027908
7.09559e-05
0.00027588
0.000122208
0.000264283
0.000199308
0.000245755
0.000279133
0.0002174
0.000319557
0.000175864
0.000372001
0.000124404
0.000372017
8.2323e-05
0.000474934
4.17297e-05
7.41964e-05
-0.000166896
0.00114666
-0.000213797
0.000989266
-0.000136331
0.000745758
-7.07558e-05
0.000620969
-4.1335e-06
0.000598792
5.92948e-05
0.000662011
9.13469e-05
0.000869509
1.35512e-05
0.00110571
-7.63029e-05
0.00123716
-0.000136618
0.00125484
-0.000167557
0.00119945
-0.000179463
0.00106964
-0.000120515
0.000921909
-8.29439e-05
0.000863547
-6.04986e-05
0.000877076
-1.89927e-05
0.000940613
6.11274e-06
0.00108604
-2.36367e-05
0.00125791
-5.66818e-05
0.00138477
-9.78881e-05
0.00143053
-0.000111618
0.00142468
-0.000110537
0.00137995
-9.2365e-05
0.00131592
-7.62549e-05
0.00126376
-6.1486e-05
0.00122247
-4.48138e-05
0.00119465
-3.30409e-05
0.00120784
-2.52114e-05
0.00123937
-2.77015e-05
0.00128124
-3.48566e-05
0.0013216
-4.47876e-05
0.00135836
-4.93064e-05
0.00137763
-5.01176e-05
0.00138526
-4.7594e-05
0.00138971
-3.92682e-05
0.0013937
2.1241e-05
0.00140406
0.000301964
0.00142623
0.000257237
0.00148415
0.00013738
0.00148654
-7.52119e-06
0.00151121
-0.0001248
0.00155283
-0.00016853
0.00158663
-0.000173131
0.0016132
-0.000165735
0.00163125
-0.000246445
0.0016439
-0.00024637
0.00166001
-0.000240696
0.00167612
-0.000233305
0.0016916
-0.000223866
0.00170668
-0.000220773
0.00172147
-0.000213392
0.00173173
-0.000208176
0.00174172
-0.000203655
0.0017515
-0.000200603
0.00176099
-0.000199762
0.00177296
-0.000198861
0.0017855
-0.000194664
0.00180062
-0.000187449
0.00181267
-0.000178546
0.00181873
-0.000169039
0.00182204
-0.000158156
0.00182708
-0.000147715
0.00183204
-0.000136224
0.00182805
-0.000126541
0.00181979
-0.000116554
0.00181756
-0.000104559
0.00181929
-8.65372e-05
0.00181835
-5.97011e-05
0.00181601
-2.24533e-05
0.00180828
3.96081e-05
0.00178527
0.000125253
0.00177066
0.000230138
0.00173557
0.000309201
0.00170271
0.00038262
0.00162784
0.000450332
0.00157926
0.000499354
0.00155251
0.000551975
0.00151072
0.000600719
0.00147273
0.000639086
0.0014495
0.000658548
0.00142173
0.000683615
0.00138248
0.000694667
0.00133966
0.000715161
0.00128451
0.000708008
0.00123299
0.000696765
0.00117856
0.00066679
0.0011276
0.000630324
0.0010759
0.000576862
0.00101814
0.000492516
0.000948795
0.000360365
0.000859843
0.000215571
0.000746227
9.55762e-05
0.000649193
1.9981e-05
0.000582204
-2.5102e-05
0.000535636
-4.71603e-05
0.000501981
-5.48485e-05
0.000474975
-5.33232e-05
0.000448796
-4.66072e-05
0.000421638
-3.99156e-05
0.000395723
-3.38185e-05
0.000368886
-2.51928e-05
0.000340473
-2.0069e-05
0.000312739
-1.37675e-05
0.000290573
-8.48057e-06
0.000277012
-6.31508e-06
0.000271874
-2.76499e-06
0.000272521
2.80566e-06
0.000275222
1.3425e-05
0.000277847
3.03253e-05
0.000280053
5.63287e-05
0.000278716
9.19751e-05
0.000271515
0.000147889
0.000257791
0.000230369
0.000237145
0.000316905
0.000209905
0.000361539
0.000170867
0.000399631
0.000121153
0.000398647
7.86735e-05
0.000498462
3.86879e-05
-0.000264988
-3.34454e-05
0.000517371
8.59294e-05
0.000684603
7.68999e-05
0.000956557
-1.4861e-05
0.00111453
-7.29214e-05
0.00111219
-0.000176089
0.0011018
-0.000222525
0.00102646
-0.000160693
0.00090718
-0.000128882
0.000846759
-9.76269e-05
0.000818371
-4.67761e-05
0.000825958
1.0772e-05
0.000917896
-6.71913e-06
0.00107134
-6.52203e-05
0.0011795
-0.000103288
0.00120536
-0.000141388
0.00122737
-0.00017702
0.00118115
-0.000159536
0.00109919
-0.000119132
0.00105934
-0.000106203
0.00106448
-7.59342e-05
0.00109458
-4.15628e-05
0.00114937
-2.68911e-05
0.00121573
-3.96922e-05
0.00127776
-5.78103e-05
0.00128445
-6.85414e-05
0.0012786
-6.93674e-05
0.00125228
-7.49528e-05
0.00119782
-7.34997e-05
0.00114226
-6.59008e-05
0.0011246
-6.17378e-05
0.00112948
-5.62097e-05
0.00113527
-5.10787e-05
0.00115233
-4.57183e-05
0.00117626
-3.73144e-05
0.00120396
1.26666e-05
0.00123162
0.000242363
0.0012542
0.000268131
0.00127635
0.000122773
0.00129258
-3.88761e-05
0.00134831
-0.000145562
0.00142275
-0.000178734
0.00149168
-0.000179722
0.00154719
-0.000171049
0.00159329
-0.00025613
0.00163296
-0.000258348
0.00167439
-0.000255034
0.00170912
-0.000249077
0.00173974
-0.000244246
0.00177393
-0.000238163
0.00179754
-0.00023118
0.00181027
-0.000228974
0.00183074
-0.00022691
0.00185174
-0.000226255
0.00186377
-0.000224194
0.00187163
-0.000221568
0.0018804
-0.00021566
0.00189377
-0.000207728
0.00191041
-0.000196488
0.00193035
-0.00018383
0.00195051
-0.000173933
0.00197143
-0.000160853
0.00199017
-0.000148803
0.00199428
-0.000135628
0.00198195
-0.00012362
0.00197367
-0.000108331
0.00196474
-8.65491e-05
0.00194878
-5.53876e-05
0.00193755
-1.40984e-05
0.00192137
5.45286e-05
0.00187522
0.000149108
0.00184992
0.000254741
0.00182304
0.000365816
0.00174338
0.000435273
0.0016737
0.000505224
0.0016325
0.000554565
0.00161305
0.00059222
0.0015652
0.000632795
0.00152498
0.00067455
0.00151035
0.000700365
0.00150476
0.000725727
0.00149068
0.000744171
0.00146792
0.000758
0.00143196
0.0007534
0.00139444
0.000743175
0.00135256
0.000719825
0.00131017
0.000694232
0.00126034
0.00065325
0.00120547
0.000586746
0.0011456
0.000477704
0.00107749
0.000314428
0.00100816
0.000164696
0.000934598
7.02245e-05
0.000867806
1.36292e-05
0.000809857
-1.76448e-05