/*--------------------------------*- C++ -*----------------------------------*\
| =========                 |                                                 |
| \\      /  F ield         | OpenFOAM: The Open Source CFD Toolbox           |
|  \\    /   O peration     | Version:  2.2.x                                 |
|   \\  /    A nd           | Web:      www.OpenFOAM.org                      |
|    \\/     M anipulation  |                                                 |
\*---------------------------------------------------------------------------*/
FoamFile
{
    version     2.0;
    format      ascii;
    class       volScalarField;
    location    "0.8";
    object      By;
}
// * * * * * * * * * * * * * * * * * * * * * * * * * * * * * * * * * * * * * //

dimensions      [1 0 -2 0 0 -1 0];

internalField   nonuniform List<scalar> 
14161
(
-2.74349e-07
-8.79962e-08
3.5924e-08
-8.18203e-08
-3.23822e-07
1.17365e-07
-5.55554e-08
-4.85755e-07
2.09904e-08
-7.9427e-08
-5.48199e-07
3.65678e-07
-5.73727e-07
-2.76281e-08
1.55331e-07
-1.14528e-06
4.9069e-07
8.07621e-07
-1.32943e-06
-5.40863e-07
1.06847e-06
3.72699e-06
2.89337e-08
-4.15914e-06
1.2401e-06
3.07471e-06
7.06934e-06
8.57648e-06
-5.19637e-06
4.20983e-07
6.91399e-06
1.01233e-05
1.55156e-05
1.02988e-05
9.48533e-06
1.64986e-05
2.88808e-05
3.80078e-05
4.2307e-05
4.79783e-05
6.69773e-05
7.1337e-05
8.58107e-05
0.000102329
0.000106557
0.000112258
0.000124718
0.000141217
5.88716e-05
0.000294849
3.37382e-05
0.00184179
0.00415193
-0.0133007
-0.0241213
-0.0229597
-0.0194947
-0.0148111
-0.012557
-0.0117476
-0.0118863
-0.0104458
-0.00797124
-0.00604229
-0.00525975
-0.00321458
-0.00178071
-0.00125508
-0.000805826
-0.000773178
-0.000945676
-0.00162587
-0.00188726
-0.00138967
-0.00180576
-0.00318074
-0.00237131
-0.00211466
-0.00260409
-0.00187953
-0.00208117
-0.00390597
-0.00347571
-0.00317858
-0.00539426
-0.00261034
-0.0020368
-0.00406343
-0.00283446
-0.00241102
-0.00343832
0.0012205
-0.00309568
-0.0143226
0.0122005
0.0269426
0.0474052
0.0720793
0.0768142
0.0670412
0.0572251
0.0505839
0.046643
0.0439484
0.0428074
0.0421147
0.041971
0.0401437
0.0390062
0.0344845
0.027044
0.0225462
0.0200237
0.0165636
0.0146432
0.0134599
0.0137603
0.0151442
0.015236
-5.6901e-07
-1.42899e-07
-1.47566e-08
-2.30798e-07
-3.81223e-07
9.5224e-09
1.39142e-07
-1.04437e-06
-2.58231e-07
2.73182e-08
-2.79642e-07
2.125e-07
-1.27408e-06
-4.58098e-07
-1.59941e-07
-8.4721e-07
1.06221e-06
8.5236e-07
-2.27708e-06
-1.13626e-06
3.67898e-06
9.20286e-06
1.83742e-06
-8.71986e-06
-1.8785e-07
6.45591e-06
1.47377e-05
2.23242e-05
-1.01251e-05
-3.17087e-06
1.37912e-05
3.3084e-05
4.38755e-05
3.59044e-05
3.22351e-05
5.48461e-05
8.93933e-05
0.000109404
0.000129848
0.000154849
0.000223821
0.000231608
0.000274597
0.000326107
0.000370924
0.000331494
0.000419326
0.000209506
0.00048385
6.08276e-05
0.000276401
0.000666478
-0.00563346
-0.0212974
-0.0314983
-0.0424154
-0.046196
-0.0411061
-0.0371304
-0.0368219
-0.0370327
-0.0336968
-0.0275132
-0.0212646
-0.019554
-0.0136984
-0.00906128
-0.00680935
-0.00505209
-0.00445849
-0.0044217
-0.0051246
-0.00588716
-0.00458556
-0.00513257
-0.00675249
-0.00651495
-0.00588032
-0.00667605
-0.00565226
-0.00572428
-0.0108954
-0.010591
-0.010393
-0.01498
-0.0101813
-0.00767627
-0.0126876
-0.010528
-0.0107824
-0.00892327
0.00100686
-0.00836072
-0.0165797
0.026652
0.0895041
0.143812
0.157847
0.14554
0.127642
0.111214
0.0990577
0.0903752
0.0836912
0.0809072
0.0793037
0.0802116
0.0810604
0.0836682
0.0826481
0.0758458
0.0656564
0.0565112
0.0483915
0.0433645
0.0401948
0.0402851
0.0421046
0.0420337
-8.86181e-07
-2.7297e-07
-2.80904e-07
-2.79125e-07
-4.75595e-07
-1.84498e-07
-9.03312e-08
-1.24862e-06
-5.76954e-07
-6.72225e-08
-1.6155e-07
-5.94968e-07
-1.21039e-06
-1.07168e-06
-1.32279e-06
-3.65887e-07
1.85152e-06
2.12314e-07
-4.13334e-06
-1.37239e-06
6.62878e-06
1.51337e-05
1.83757e-06
-1.30216e-05
1.00825e-06
1.04988e-05
2.66401e-05
3.42871e-05
-1.48626e-05
-7.36497e-06
2.99576e-05
6.19457e-05
7.35687e-05
5.67615e-05
6.25688e-05
9.21799e-05
0.000138587
0.000170757
0.000229601
0.000283012
0.00034929
0.00039916
0.000478831
0.000525604
0.000617914
0.000593185
0.000711785
0.000406266
0.000826723
-0.000439681
0.000243597
-0.00308345
-0.0272673
-0.0347933
-0.0473008
-0.0661542
-0.0774667
-0.073495
-0.0680309
-0.0672871
-0.0658472
-0.0604553
-0.0489534
-0.0391803
-0.0352166
-0.0248996
-0.017008
-0.0128365
-0.00885828
-0.00719249
-0.00713662
-0.00851293
-0.00966929
-0.0085201
-0.00874752
-0.0101834
-0.0103351
-0.00995525
-0.0104018
-0.00899771
-0.00956629
-0.0166252
-0.0155398
-0.0157404
-0.021329
-0.016621
-0.0129044
-0.0205218
-0.017778
-0.0169549
-0.010438
0.00600497
-0.00322989
0.00120991
0.135226
0.22067
0.246948
0.24546
0.223261
0.195416
0.170242
0.152216
0.139816
0.130691
0.126345
0.124196
0.125902
0.125124
0.124715
0.118989
0.113043
0.101663
0.090262
0.0795204
0.0724356
0.0675115
0.0666553
0.0691407
0.0693393
-1.1169e-06
-3.66343e-07
-4.87387e-07
-3.97567e-07
-4.19485e-07
-1.89663e-07
-7.06796e-07
-1.01296e-06
-8.50859e-07
-2.66162e-07
-1.6953e-07
-1.52332e-06
-1.58747e-06
-1.52256e-06
-1.80648e-06
-2.97692e-07
1.67533e-06
3.84409e-07
-4.98614e-06
-1.93274e-06
8.94363e-06
1.88894e-05
4.23003e-06
-1.47397e-05
1.51848e-06
1.51903e-05
3.84379e-05
3.98397e-05
-1.22995e-05
-9.94806e-06
3.61425e-05
8.52487e-05
0.000105303
8.8577e-05
7.58743e-05
0.000116798
0.000186769
0.000259189
0.000322146
0.000382387
0.000451488
0.00061454
0.000693791
0.000760865
0.000920472
0.00102881
0.00118994
0.0010576
0.00124129
-3.80853e-05
0.000553642
-0.00422286
-0.0202227
-0.0498648
-0.0722808
-0.0993462
-0.1197
-0.115842
-0.107665
-0.100582
-0.0947067
-0.0814169
-0.062265
-0.0535513
-0.0454807
-0.0305938
-0.0217121
-0.0162289
-0.0107582
-0.00877132
-0.00904927
-0.0112216
-0.012946
-0.0121483
-0.0130269
-0.0146097
-0.0147932
-0.0141865
-0.014772
-0.013634
-0.0152587
-0.023668
-0.0223635
-0.0221914
-0.0274344
-0.0239882
-0.0194324
-0.0308248
-0.028451
-0.0218523
-0.00804088
0.0131527
0.040093
0.155797
0.303037
0.34887
0.338726
0.30593
0.269622
0.237643
0.210879
0.190362
0.175353
0.1646
0.158678
0.154015
0.154922
0.155015
0.156389
0.150177
0.143245
0.130594
0.117948
0.106528
0.0987329
0.0927331
0.0908733
0.0937153
0.0938487
-1.41718e-06
-4.81194e-07
-5.70237e-07
-6.60991e-07
-3.3227e-07
-7.32539e-07
-1.04878e-06
-1.24738e-06
-1.02205e-06
-8.87214e-08
-2.99842e-07
-1.79364e-06
-2.22583e-06
-2.32598e-06
-1.77023e-06
-1.30132e-07
9.01741e-07
7.74386e-07
-4.6202e-06
-2.29649e-06
1.06473e-05
1.94837e-05
7.47138e-06
-1.3486e-05
-4.74997e-07
2.0197e-05
4.4163e-05
4.64887e-05
-1.48098e-06
-1.35424e-05
4.54599e-05
0.000118336
0.000142885
0.000105541
9.56529e-05
0.000142981
0.000225062
0.000317825
0.000391995
0.000492076
0.000581209
0.000753782
0.000902193
0.00105822
0.00129845
0.00153766
0.00186968
0.00214685
0.00232199
0.00236918
0.00258033
-0.000607837
0.00695907
-0.0601483
-0.119235
-0.152625
-0.177841
-0.174127
-0.155667
-0.146194
-0.131736
-0.104812
-0.0812737
-0.0733257
-0.053086
-0.0372874
-0.0325374
-0.0236329
-0.0128267
-0.00979465
-0.0095945
-0.0131102
-0.0158859
-0.0162843
-0.0158676
-0.0186836
-0.019995
-0.0190419
-0.0195125
-0.0173663
-0.0202496
-0.0298069
-0.0283298
-0.027362
-0.0330233
-0.0303813
-0.0232333
-0.0370304
-0.0340898
-0.0241554
-0.00200457
0.0413186
0.180919
0.38695
0.48895
0.469124
0.420426
0.372761
0.325454
0.285033
0.253407
0.229416
0.211388
0.198596
0.191285
0.185378
0.184128
0.18115
0.181228
0.174984
0.168799
0.155948
0.14342
0.130833
0.122418
0.115552
0.11292
0.115962
0.116524
-1.61159e-06
-5.9979e-07
-7.6275e-07
-5.82827e-07
-5.4003e-07
-1.32259e-06
-8.59599e-07
-1.42954e-06
-1.00091e-06
-8.59875e-07
-5.42771e-07
-1.7823e-06
-2.59528e-06
-2.34143e-06
-2.6696e-06
1.90629e-07
6.57218e-07
-1.10066e-06
-3.55178e-06
-2.32563e-06
1.07662e-05
2.09886e-05
1.14259e-05
-7.66141e-06
-2.74494e-06
2.18468e-05
5.18576e-05
4.88883e-05
8.5394e-06
-3.35317e-06
6.30215e-05
0.000128266
0.000158564
0.000129238
0.000108186
0.000150002
0.000251739
0.000359056
0.000458987
0.000570554
0.000694993
0.000848208
0.00108083
0.00131213
0.00159873
0.00195509
0.00239542
0.00334076
0.00376302
0.00547874
0.00562873
0.00787398
0.0488977
-0.0897069
-0.197861
-0.22967
-0.249312
-0.234579
-0.201023
-0.187584
-0.163813
-0.124238
-0.0914836
-0.0762809
-0.0598962
-0.0448777
-0.0346659
-0.023776
-0.0142767
-0.0104134
-0.011272
-0.0140317
-0.0174217
-0.0207116
-0.021104
-0.0207
-0.0244226
-0.0231351
-0.0240035
-0.0234088
-0.0258407
-0.0346296
-0.0341644
-0.0328742
-0.0393559
-0.0367125
-0.02771
-0.0402607
-0.0358496
-0.0196777
0.0115555
0.134398
0.4214
0.602319
0.642318
0.588025
0.496426
0.421228
0.366748
0.325318
0.291911
0.264574
0.243337
0.227899
0.217982
0.21003
0.208008
0.204597
0.204246
0.19719
0.191139
0.17824
0.166119
0.153035
0.144292
0.136532
0.133405
0.136364
0.1372
-1.8743e-06
-7.382e-07
-8.7026e-07
-7.56992e-07
-8.21184e-07
-1.12862e-06
-1.24155e-06
-1.34082e-06
-1.4667e-06
-1.53129e-06
-1.23279e-06
-1.72865e-06
-3.04195e-06
-2.41863e-06
-1.88245e-06
-1.12312e-06
-1.12299e-06
-1.06968e-06
-1.81094e-06
-4.54932e-07
8.91768e-06
2.03793e-05
1.72799e-05
-1.23198e-06
-6.54067e-06
2.27162e-05
5.13813e-05
5.39921e-05
2.84976e-05
1.8869e-05
7.05792e-05
0.000139409
0.000158586
0.00014992
0.000126718
0.000158014
0.000253442
0.000385295
0.000517167
0.000624241
0.000759871
0.000924218
0.00113741
0.00140926
0.00174556
0.00219513
0.00276506
0.00352988
0.00454072
0.00794046
0.00780547
0.0183206
0.0908467
-0.144922
-0.309776
-0.330893
-0.320296
-0.276146
-0.235013
-0.219249
-0.188939
-0.14444
-0.102732
-0.0880982
-0.0637906
-0.0430293
-0.0371521
-0.0308661
-0.0167481
-0.0132049
-0.0135266
-0.0161684
-0.0214813
-0.0206872
-0.0226001
-0.0240271
-0.0265509
-0.0272159
-0.0269087
-0.0262468
-0.0291308
-0.0383616
-0.0396943
-0.0354029
-0.039563
-0.0385046
-0.0267191
-0.0392933
-0.0321953
-0.00326913
0.0991175
0.358065
0.624178
0.75235
0.760849
0.695142
0.584726
0.482277
0.410433
0.362346
0.327583
0.299356
0.276859
0.259229
0.246461
0.236087
0.231472
0.226316
0.225091
0.217603
0.211497
0.198137
0.185591
0.172303
0.1636
0.155124
0.151812
0.154698
0.155992
-2.07861e-06
-8.12054e-07
-9.76337e-07
-8.12678e-07
-9.81869e-07
-1.20857e-06
-1.33708e-06
-1.82292e-06
-2.07045e-06
-1.48063e-06
-1.61369e-06
-2.16552e-06
-3.2316e-06
-2.40903e-06
-1.31452e-06
-2.27099e-06
-3.24554e-06
-8.30881e-07
-6.10682e-07
-7.40759e-07
8.70363e-06
1.90185e-05
1.87908e-05
4.54735e-06
-3.04363e-06
2.34191e-05
5.33782e-05
5.62447e-05
4.37612e-05
4.1921e-05
8.48378e-05
0.000128312
0.000154335
0.000154605
0.000152605
0.000161614
0.000240671
0.000387652
0.000498332
0.000625444
0.000732692
0.000910032
0.00111187
0.00138795
0.00175834
0.00225024
0.00290576
0.0037742
0.00480333
0.00734323
0.00866979
0.0138472
0.061002
-0.222587
-0.395857
-0.403498
-0.377541
-0.327851
-0.269967
-0.246859
-0.202962
-0.154364
-0.115451
-0.0901254
-0.0684779
-0.0429982
-0.0277853
-0.0275813
-0.021383
-0.0176027
-0.0183072
-0.0212288
-0.0252181
-0.0257965
-0.027095
-0.0264744
-0.027474
-0.028867
-0.0299128
-0.0271419
-0.0303687
-0.0380178
-0.0378354
-0.0342625
-0.0362672
-0.0326923
-0.0184591
-0.0227605
0.00270939
0.100308
0.326548
0.596648
0.775995
0.841754
0.832035
0.771102
0.670977
0.547079
0.460361
0.404516
0.364938
0.333575
0.308899
0.28893
0.273795
0.261382
0.254393
0.24765
0.245464
0.237285
0.231176
0.217432
0.204362
0.190194
0.180943
0.171706
0.167988
0.170467
0.17333
-2.17775e-06
-9.79773e-07
-1.1587e-06
-7.17111e-07
-1.19473e-06
-1.62964e-06
-1.55574e-06
-1.80126e-06
-2.24677e-06
-1.78815e-06
-2.4762e-06
-2.61167e-06
-3.6926e-06
-1.92941e-06
-1.85233e-06
-3.22565e-06
-3.21584e-06
-1.36485e-06
-7.24789e-08
-8.45254e-07
9.036e-06
1.70876e-05
2.07754e-05
9.51165e-06
4.83746e-06
1.89847e-05
5.0122e-05
6.01914e-05
6.95749e-05
6.49234e-05
0.000106116
0.000124554
0.000138302
0.000156654
0.000159138
0.00017056
0.000231356
0.000359314
0.000445157
0.000546133
0.000652848
0.000726078
0.00084996
0.000956996
0.00117697
0.00132512
0.00168641
0.00167416
0.00214084
0.00128115
0.00237818
-0.00186215
-0.103138
-0.455517
-0.426079
-0.416734
-0.381408
-0.337953
-0.288907
-0.254228
-0.203323
-0.153139
-0.121209
-0.0941123
-0.0682565
-0.0446613
-0.027848
-0.0246578
-0.019768
-0.017927
-0.0210112
-0.0222234
-0.0271287
-0.0290829
-0.0284767
-0.0274638
-0.0257078
-0.0275946
-0.0284018
-0.0249124
-0.0272171
-0.0347686
-0.0309866
-0.0248779
-0.0201527
-0.00564104
0.0287063
0.0656036
0.1729
0.34215
0.559136
0.724082
0.82965
0.873782
0.870878
0.823612
0.731904
0.60569
0.509534
0.445156
0.401775
0.368406
0.34215
0.320131
0.302785
0.28849
0.27905
0.27011
0.266447
0.257162
0.250806
0.236655
0.223201
0.207787
0.197543
0.187238
0.183046
0.185545
0.189762
-2.39785e-06
-1.13119e-06
-1.20147e-06
-8.62808e-07
-1.53868e-06
-1.54884e-06
-2.13787e-06
-1.79018e-06
-2.93049e-06
-2.28981e-06
-3.22594e-06
-2.96735e-06
-3.42925e-06
-1.66132e-06
-2.43344e-06
-4.04206e-06
-3.8318e-06
-2.01213e-06
7.76745e-07
1.00294e-07
7.1542e-06
1.4019e-05
1.72365e-05
1.64667e-05
1.77417e-05
1.64721e-05
4.45495e-05
6.44177e-05
8.12651e-05
8.89282e-05
0.000104072
0.000117941
0.000125522
0.00013709
0.000167424
0.000171881
0.000229057
0.000294465
0.000377884
0.000428087
0.000506594
0.000515362
0.000569653
0.000549357
0.000543981
0.000432803
0.000414883
9.51495e-06
0.000395393
-0.00158592
-0.000467935
-0.0108257
-0.394617
-0.670431
-0.543119
-0.42633
-0.383521
-0.338903
-0.299669
-0.249529
-0.198609
-0.147784
-0.116682
-0.0925751
-0.0633543
-0.036212
-0.0266721
-0.0228381
-0.0178217
-0.0178874
-0.0225776
-0.0238605
-0.0286862
-0.0297486
-0.0285047
-0.0252617
-0.0213198
-0.0216393
-0.0242114
-0.0170456
-0.0165067
-0.021901
-0.00663701
0.0258557
0.0559602
0.112831
0.211314
0.284219
0.395084
0.542404
0.688937
0.798201
0.864924
0.879958
0.876466
0.84065
0.765492
0.64874
0.546262
0.47867
0.433422
0.399221
0.372485
0.349764
0.33143
0.315729
0.304237
0.293307
0.288051
0.277597
0.270687
0.255916
0.24196
0.2252
0.213747
0.202451
0.198036
0.200851
0.206106
-2.52559e-06
-1.17164e-06
-1.34417e-06
-1.07586e-06
-1.688e-06
-1.75893e-06
-2.08378e-06
-2.32989e-06
-3.5465e-06
-2.47128e-06
-3.17061e-06
-3.6492e-06
-3.98352e-06
-2.26638e-06
-2.36974e-06
-4.02359e-06
-5.25029e-06
-4.02408e-06
1.43882e-06
2.23416e-06
8.08193e-06
1.11419e-05
1.31452e-05
2.21579e-05
2.97938e-05
1.71326e-05
3.57036e-05
6.94014e-05
9.16599e-05
0.000111669
0.000117241
0.000110681
0.000115169
0.000139892
0.000164219
0.000190688
0.000203825
0.00025429
0.000280562
0.00031861
0.000318311
0.000326087
0.000278596
0.00023013
0.000125538
-5.79769e-05
-0.00020075
-0.000899158
-0.000731502
-0.00360119
0.000453786
-0.0441132
-0.617756
-0.775766
-0.673727
-0.536649
-0.431215
-0.350809
-0.304328
-0.261581
-0.201132
-0.157846
-0.114453
-0.0863174
-0.0613762
-0.0296141
-0.0191819
-0.0201007
-0.0158227
-0.0185586
-0.0241624
-0.0258058
-0.0287147
-0.029425
-0.0268134
-0.0201008
-0.0120326
-0.00666486
-0.00658803
0.010369
0.0364273
0.0590747
0.11081
0.192539
0.267163
0.318473
0.397612
0.483008
0.558723
0.64888
0.744054
0.816608
0.865189
0.883367
0.877667
0.846151
0.779481
0.675135
0.572855
0.504638
0.459052
0.425361
0.399014
0.376872
0.35862
0.34242
0.329398
0.31652
0.30966
0.297938
0.290283
0.274721
0.260345
0.242275
0.229776
0.217729
0.213437
0.216703
0.22257
-2.65177e-06
-1.3195e-06
-1.52408e-06
-1.28141e-06
-1.58338e-06
-2.00183e-06
-2.70866e-06
-2.59271e-06
-3.0247e-06
-3.55626e-06
-3.66651e-06
-3.66231e-06
-5.12049e-06
-3.66807e-06
-1.8547e-06
-4.51993e-06
-5.98717e-06
-3.62244e-06
7.20158e-07
4.05994e-06
9.90677e-06
1.04767e-05
5.4894e-06
2.2939e-05
3.94561e-05
2.55281e-05
2.90856e-05
6.80414e-05
0.00010394
0.000112351
0.000105236
9.40591e-05
0.000114332
0.000135138
0.000160738
0.000192354
0.00020274
0.000211606
0.000196039
0.000212644
0.000171401
0.000138736
1.10883e-05
-0.000120448
-0.000394471
-0.00072038
-0.00127678
-0.0022053
-0.0033594
-0.0050142
-0.00535386
-0.181399
-0.728156
-0.800025
-0.755387
-0.678124
-0.550355
-0.405426
-0.3515
-0.285846
-0.213808
-0.172174
-0.118416
-0.0762892
-0.0515324
-0.027877
-0.0126747
-0.0183228
-0.0127136
-0.0177261
-0.0236355
-0.0264531
-0.0262628
-0.0218907
-0.0155856
0.00512863
0.0261622
0.0589705
0.0847764
0.135796
0.21061
0.264938
0.313635
0.376283
0.445655
0.493297
0.540836
0.587295
0.642423
0.703284
0.767293
0.82032
0.856831
0.871553
0.865341
0.834268
0.776176
0.686493
0.591569
0.524513
0.479636
0.447285
0.421933
0.40102
0.383462
0.367877
0.353939
0.339968
0.331772
0.318938
0.310305
0.293842
0.27884
0.259617
0.246095
0.233464
0.229435
0.233096
0.239363
-2.75973e-06
-1.4121e-06
-1.71589e-06
-1.28744e-06
-2.04822e-06
-2.33869e-06
-2.62714e-06
-3.0023e-06
-2.95824e-06
-3.94977e-06
-4.10724e-06
-5.00338e-06
-6.20428e-06
-3.43837e-06
-2.69933e-06
-4.56929e-06
-6.42375e-06
-4.70084e-06
-1.15103e-06
4.7573e-06
1.1715e-05
1.0647e-05
3.93245e-06
1.71478e-05
4.08779e-05
3.76724e-05
3.28057e-05
6.25686e-05
0.000112334
0.000123926
9.94269e-05
9.35999e-05
0.000114619
0.000132913
0.000155872
0.000200247
0.000222943
0.000193645
0.000171047
0.000143568
0.000101567
8.18483e-05
2.87412e-05
2.02927e-05
-7.58083e-05
-0.000106931
-0.000278205
-0.0001023
-0.000721767
0.000406346
-0.00101845
-0.339375
-0.788649
-0.815086
-0.792297
-0.757417
-0.672989
-0.534468
-0.430256
-0.32428
-0.248385
-0.173145
-0.128184
-0.0692538
-0.035739
-0.0286423
-0.00787294
-0.0147663
-0.00898765
-0.0122777
-0.0160906
-0.0108672
0.00424588
0.0253366
0.0579059
0.110026
0.172934
0.246667
0.283619
0.325976
0.38486
0.44267
0.482337
0.518076
0.553017
0.581747
0.614245
0.647537
0.684617
0.727381
0.773019
0.812863
0.841339
0.852698
0.846368
0.818462
0.767499
0.688971
0.603939
0.539413
0.495961
0.4653
0.441398
0.422196
0.405758
0.391275
0.37743
0.363088
0.353505
0.339433
0.329751
0.3123
0.296858
0.276701
0.262402
0.249418
0.245662
0.24976
0.256328
-2.87012e-06
-1.47611e-06
-1.72236e-06
-1.80837e-06
-2.02709e-06
-2.52167e-06
-2.81687e-06
-3.11226e-06
-3.37501e-06
-4.3935e-06
-5.05128e-06
-5.37265e-06
-5.49908e-06
-5.38356e-06
-4.49308e-06
-5.02164e-06
-5.12533e-06
-5.5848e-06
-4.65591e-06
6.61376e-06
1.55179e-05
8.93456e-06
4.73874e-06
1.27466e-05
3.83285e-05
4.53973e-05
4.37352e-05
5.73039e-05
0.000105151
0.000113918
9.67408e-05
9.33454e-05
0.000116263
0.000135494
0.000152313
0.000191595
0.000213002
0.000201362
0.000160308
0.000134023
0.000102228
9.95994e-05
7.42516e-05
0.000143964
0.000244721
0.000415927
0.000698911
0.00165173
0.00175566
0.00492448
0.00127942
-0.507728
-0.823146
-0.827506
-0.81667
-0.797121
-0.753724
-0.675761
-0.557394
-0.407896
-0.293726
-0.183512
-0.145494
-0.0620939
-0.0107649
-0.017036
0.00377479
-0.000532392
0.00903739
0.0290249
0.0421704
0.0755784
0.13254
0.198897
0.253045
0.298478
0.344012
0.408519
0.454994
0.486016
0.515625
0.541091
0.566719
0.588388
0.611652
0.631874
0.654476
0.678967
0.706445
0.737644
0.771861
0.802656
0.823853
0.83147
0.823298
0.798047
0.753977
0.686882
0.612065
0.550635
0.508919
0.479944
0.457802
0.44051
0.425595
0.412504
0.399804
0.385653
0.37483
0.360042
0.349498
0.331282
0.315451
0.29439
0.27925
0.265931
0.262405
0.266853
0.273655
-2.96824e-06
-1.55716e-06
-1.97288e-06
-2.13866e-06
-2.15733e-06
-2.53645e-06
-3.16387e-06
-3.28223e-06
-4.08261e-06
-5.21907e-06
-5.19493e-06
-6.981e-06
-4.34115e-06
-6.21188e-06
-6.90777e-06
-5.94073e-06
-4.60034e-06
-5.17384e-06
-6.76917e-06
4.58666e-06
1.22517e-05
8.75485e-06
1.26762e-05
9.60967e-06
2.94134e-05
5.48611e-05
5.56954e-05
5.37205e-05
9.38651e-05
0.000111631
0.000106503
9.85027e-05
0.000120486
0.000141988
0.000156985
0.000190128
0.000212078
0.00021589
0.000163305
0.000135217
8.66753e-05
7.27256e-05
6.75257e-05
0.000145872
9.36081e-05
0.00022885
-0.000127135
0.00032606
-0.0012367
0.00239707
-0.0344951
-0.65546
-0.842017
-0.836025
-0.830899
-0.818488
-0.798209
-0.760783
-0.6807
-0.545844
-0.367474
-0.210535
-0.129242
-0.0370802
0.0154347
0.0262315
0.040648
0.0646001
0.0991073
0.165563
0.219949
0.258069
0.306057
0.362581
0.417815
0.455247
0.485544
0.517014
0.543731
0.567518
0.583382
0.599798
0.615324
0.62701
0.642361
0.658532
0.676335
0.695948
0.717414
0.741568
0.766869
0.789691
0.805054
0.809007
0.799279
0.777125
0.739252
0.682324
0.617009
0.559588
0.519653
0.492109
0.471742
0.456399
0.443085
0.431706
0.419956
0.406936
0.395495
0.380424
0.369088
0.349953
0.33366
0.311669
0.295888
0.282409
0.279121
0.283869
0.290883
-3.09222e-06
-1.69362e-06
-2.14897e-06
-2.08283e-06
-2.25053e-06
-2.79244e-06
-3.67072e-06
-3.76104e-06
-3.95872e-06
-5.84105e-06
-5.83721e-06
-6.59271e-06
-5.29847e-06
-8.16563e-06
-9.29293e-06
-5.19833e-06
-5.33395e-06
-6.44298e-06
-4.65879e-06
3.06254e-06
6.8372e-06
5.12791e-06
1.62722e-05
1.6104e-05
2.03734e-05
5.09271e-05
7.40447e-05
5.38168e-05
6.29114e-05
9.66069e-05
0.000115927
0.000105903
0.000134959
0.000153527
0.000184375
0.000190067
0.000188557
0.000192882
0.000167228
0.000156048
0.000140196
0.000122572
7.34612e-05
8.05116e-05
-5.70708e-05
-0.000286194
-0.000796522
-0.00143432
-0.00245453
-0.00210942
-0.167949
-0.738139
-0.845108
-0.841699
-0.840178
-0.834361
-0.826889
-0.807333
-0.76992
-0.672812
-0.470961
-0.229577
-0.0592551
0.0122165
0.0812994
0.138165
0.185719
0.236506
0.269443
0.323575
0.37954
0.42234
0.45555
0.487984
0.515313
0.538591
0.560168
0.577681
0.594572
0.605256
0.618211
0.631269
0.642406
0.651039
0.663202
0.676262
0.690325
0.706027
0.723323
0.742169
0.760949
0.776005
0.786013
0.786878
0.777195
0.757806
0.725213
0.676958
0.619591
0.566318
0.528622
0.502607
0.484005
0.470403
0.458715
0.449016
0.438459
0.426792
0.415586
0.40087
0.388782
0.368889
0.352238
0.329502
0.313189
0.299515
0.296347
0.301226
0.308342
-3.22509e-06
-1.80355e-06
-2.22772e-06
-2.34112e-06
-2.51574e-06
-3.17367e-06
-3.65084e-06
-4.54271e-06
-4.49448e-06
-5.31943e-06
-6.89076e-06
-8.15705e-06
-6.17903e-06
-8.1722e-06
-9.25157e-06
-7.67113e-06
-8.46682e-06
-8.71759e-06
-2.11034e-06
9.3125e-07
3.27015e-06
3.83319e-06
1.37837e-05
2.09561e-05
1.70085e-05
4.06253e-05
7.88648e-05
7.67494e-05
5.43629e-05
7.43759e-05
0.000118608
0.000124799
0.000146997
0.000163176
0.000211663
0.000209901
0.000200515
0.000159761
0.000203542
0.000196233
0.000255294
0.000251892
0.000315076
0.000362349
0.000389526
0.000300622
0.000379782
-7.13055e-06
0.000738315
-0.000276622
-0.321032
-0.802579
-0.849466
-0.848914
-0.852142
-0.849393
-0.84556
-0.836907
-0.815843
-0.725254
-0.511435
-0.187565
0.0307639
0.151396
0.224079
0.279242
0.332474
0.386255
0.419728
0.45406
0.483516
0.508095
0.531928
0.555384
0.575675
0.589256
0.601854
0.615175
0.626686
0.632632
0.643031
0.65423
0.663532
0.67013
0.678748
0.68889
0.699725
0.712061
0.725802
0.740128
0.753564
0.763174
0.768929
0.768116
0.758969
0.741048
0.712392
0.67076
0.620141
0.571726
0.536623
0.512115
0.49503
0.482903
0.472702
0.464509
0.455281
0.445158
0.43461
0.420653
0.407973
0.387455
0.370549
0.347061
0.330257
0.316408
0.31332
0.31821
0.325401
-3.35483e-06
-1.87552e-06
-2.23641e-06
-2.63009e-06
-2.83454e-06
-3.68198e-06
-3.76312e-06
-4.40138e-06
-4.87666e-06
-6.42681e-06
-6.98263e-06
-7.77371e-06
-7.72473e-06
-9.97108e-06
-1.03192e-05
-7.92685e-06
-1.01285e-05
-9.30268e-06
-4.32918e-06
-3.57681e-06
-2.22055e-07
4.91139e-06
1.08e-05
2.04417e-05
2.44052e-05
2.75519e-05
6.39585e-05
7.66499e-05
6.95587e-05
6.79011e-05
0.000112028
0.000121784
0.000122203
0.000169963
0.000242693
0.000241973
0.000214837
0.000184157
0.000216526
0.000272687
0.000417784
0.000476017
0.000613645
0.000745686
0.00102946
0.00122793
0.00198395
0.00212706
0.00448137
0.00129526
-0.483948
-0.842236
-0.856801
-0.85738
-0.858509
-0.85564
-0.849041
-0.840328
-0.813023
-0.688729
-0.389734
-0.0286618
0.17861
0.294019
0.365399
0.41568
0.45268
0.483979
0.512431
0.538051
0.560467
0.576828
0.588712
0.603853
0.617388
0.628614
0.634754
0.643518
0.650467
0.652702
0.660358
0.669002
0.67636
0.682002
0.688032
0.69643
0.70534
0.715668
0.726687
0.736545
0.744702
0.750248
0.754208
0.753666
0.744726
0.727434
0.701363
0.665106
0.62004
0.57637
0.543861
0.520965
0.50519
0.494115
0.485303
0.478401
0.470733
0.462248
0.452771
0.439746
0.426775
0.40617
0.3891
0.365052
0.347891
0.333872
0.33077
0.335458
0.342589
-3.49287e-06
-1.99943e-06
-2.41335e-06
-2.75049e-06
-3.45405e-06
-3.41918e-06
-4.04304e-06
-5.17516e-06
-5.54251e-06
-6.27498e-06
-7.67842e-06
-8.57965e-06
-8.88352e-06
-1.03187e-05
-1.06179e-05
-1.01415e-05
-1.18819e-05
-1.14713e-05
-4.24113e-06
-7.7012e-06
-3.20468e-06
3.98345e-06
4.0813e-06
1.76739e-05
3.71993e-05
2.89296e-05
3.70393e-05
7.00662e-05
9.09792e-05
8.09028e-05
0.000100185
0.000134328
0.000138431
0.000154718
0.000233218
0.000254633
0.000236507
0.000221663
0.000251726
0.000258063
0.00034277
0.000366702
0.00047739
0.00035707
0.000511158
0.000181296
0.000667145
-0.000567723
0.00211048
-0.0300809
-0.644268
-0.858249
-0.859817
-0.860267
-0.860673
-0.85828
-0.843308
-0.819746
-0.749588
-0.517997
-0.140682
0.153697
0.309953
0.397693
0.452874
0.490926
0.521613
0.548978
0.568578
0.589174
0.607754
0.620354
0.62908
0.63731
0.644643
0.653189
0.655219
0.66066
0.66233
0.666853
0.67275
0.680127
0.687317
0.694136
0.698797
0.705709
0.711644
0.71851
0.726173
0.732342
0.737688
0.741521
0.74334
0.741948
0.732902
0.716319
0.692015
0.659915
0.619705
0.580708
0.550709
0.529255
0.514463
0.504433
0.496829
0.491058
0.484881
0.477949
0.469705
0.457698
0.444857
0.424471
0.407406
0.382814
0.365202
0.350956
0.347745
0.352099
0.359145
-3.6263e-06
-2.15295e-06
-2.72199e-06
-2.71937e-06
-3.29393e-06
-4.05062e-06
-4.46583e-06
-5.1137e-06
-5.76844e-06
-7.36279e-06
-8.09588e-06
-8.79247e-06
-1.01152e-05
-1.20314e-05
-1.17903e-05
-1.2489e-05
-1.23989e-05
-1.33997e-05
-8.61649e-06
-1.07327e-05
-8.54524e-06
1.89133e-06
1.40857e-06
1.00335e-05
3.78108e-05
3.41638e-05
2.02169e-05
5.34061e-05
0.000103501
9.65831e-05
7.95663e-05
0.000112417
0.000169509
0.000190355
0.000201318
0.000241433
0.000265441
0.000295049
0.000299911
0.000284202
0.000286657
0.000369222
0.00038383
0.0003139
0.000262932
4.5522e-05
-0.000144715
-0.00095261
-0.000215816
-0.172555
-0.747101
-0.856322
-0.856233
-0.857653
-0.858328
-0.854648
-0.82894
-0.759582
-0.58725
-0.225068
0.111775
0.300615
0.40737
0.474373
0.516181
0.547422
0.568412
0.587498
0.60235
0.617623
0.631864
0.643907
0.653227
0.661378
0.665421
0.672278
0.677824
0.678439
0.684535
0.68847
0.690939
0.694733
0.697607
0.702457
0.704924
0.710916
0.715843
0.721476
0.727512
0.732452
0.736301
0.737279
0.736473
0.733551
0.72402
0.707491
0.684706
0.6556
0.619776
0.585045
0.557361
0.537201
0.523123
0.513952
0.507401
0.502655
0.497922
0.492535
0.485648
0.474822
0.462487
0.442681
0.425769
0.400795
0.382789
0.36837
0.365083
0.368957
0.375802
-3.79463e-06
-2.27345e-06
-2.84491e-06
-2.98707e-06
-3.76675e-06
-3.95244e-06
-4.81177e-06
-5.73349e-06
-6.58703e-06
-7.28876e-06
-8.76098e-06
-9.84724e-06
-1.11214e-05
-1.22173e-05
-1.30099e-05
-1.48575e-05
-1.46192e-05
-1.38808e-05
-1.32755e-05
-1.32688e-05
-1.27532e-05
-2.57702e-06
-1.08503e-06
7.16793e-07
2.52846e-05
3.64905e-05
2.36079e-05
4.08603e-05
9.09501e-05
0.000108285
8.00512e-05
9.33301e-05
0.000177437
0.000223784
0.000210705
0.000226321
0.000278699
0.000325175
0.000323804
0.000371401
0.000336184
0.000370311
0.00037548
0.000579907
0.000643294
0.00123699
0.00118566
0.00277486
-0.000198434
-0.358451
-0.827166
-0.859706
-0.857684
-0.855869
-0.850631
-0.838093
-0.787837
-0.610732
-0.279666
0.0705524
0.282868
0.406462
0.481621
0.529426
0.559288
0.582451
0.598714
0.61317
0.624198
0.636186
0.648161
0.659735
0.670583
0.68064
0.687704
0.694325
0.699563
0.700715
0.702093
0.704724
0.704918
0.70581
0.708422
0.714188
0.717613
0.72296
0.72568
0.728043
0.73117
0.732881
0.734312
0.734034
0.732737
0.728139
0.718153
0.702016
0.679747
0.652597
0.620399
0.589069
0.563734
0.544803
0.531525
0.522978
0.517136
0.513328
0.509984
0.506015
0.500541
0.490888
0.479287
0.4603
0.44365
0.41847
0.399927
0.3853
0.381835
0.38503
0.391636
-3.9499e-06
-2.39206e-06
-2.96006e-06
-3.1452e-06
-3.6635e-06
-4.41816e-06
-5.1506e-06
-5.84838e-06
-6.93313e-06
-8.31791e-06
-9.39869e-06
-1.05082e-05
-1.23682e-05
-1.38291e-05
-1.51895e-05
-1.61621e-05
-1.67641e-05
-1.69238e-05
-1.82554e-05
-1.56941e-05
-1.82589e-05
-1.25793e-05
3.46742e-07
-1.36901e-06
6.20389e-06
1.887e-05
2.97308e-05
4.43613e-05
6.70208e-05
9.24419e-05
9.45378e-05
8.93394e-05
0.000141382
0.000212456
0.000243393
0.00023616
0.00025399
0.000317395
0.000362282
0.000441222
0.000421534
0.000476239
0.000387571
0.000644666
0.000385903
0.000823948
0.000133509
0.00344367
-0.0225199
-0.585943
-0.854652
-0.860173
-0.858332
-0.853863
-0.836845
-0.784842
-0.661545
-0.324716
0.0398948
0.268568
0.400083
0.482807
0.533452
0.567984
0.590659
0.608737
0.621627
0.633069
0.642896
0.652774
0.662787
0.672504
0.682691
0.693614
0.703951
0.712066
0.719831
0.723276
0.724804
0.727227
0.72675
0.726567
0.726437
0.727965
0.729039
0.73177
0.733184
0.734337
0.73603
0.736963
0.738784
0.737505
0.732677
0.725978
0.715455
0.699945
0.678178
0.651734
0.621664
0.593122
0.570025
0.552277
0.539751
0.53124
0.526085
0.523324
0.521137
0.518662
0.514644
0.506169
0.495574
0.477548
0.461463
0.436223
0.417134
0.40241
0.398739
0.401208
0.407533
-4.12075e-06
-2.51891e-06
-3.05664e-06
-3.34259e-06
-4.1575e-06
-4.48782e-06
-5.53656e-06
-6.4145e-06
-7.67408e-06
-8.37784e-06
-1.00889e-05
-1.18945e-05
-1.31428e-05
-1.4466e-05
-1.66222e-05
-1.88026e-05
-1.93102e-05
-2.03531e-05
-2.2236e-05
-2.17381e-05
-1.83055e-05
-2.3313e-05
-7.72761e-06
-5.07959e-06
-6.99859e-06
9.21395e-06
3.18162e-05
4.82255e-05
4.99663e-05
7.37576e-05
9.18829e-05
0.000105956
0.000144133
0.000186432
0.000211824
0.000220461
0.00021383
0.000251312
0.000261539
0.000286582
0.00032863
0.000362022
0.000233174
5.23726e-05
-0.000280586
-0.000502324
-0.00158316
-0.00193255
-0.161993
-0.744737
-0.863601
-0.862301
-0.859024
-0.844744
-0.808913
-0.659114
-0.364977
0.00266347
0.252173
0.394753
0.480964
0.53576
0.571008
0.595931
0.613493
0.628201
0.639942
0.650437
0.659925
0.66822
0.676897
0.685379
0.694332
0.704374
0.714806
0.724688
0.733562
0.737931
0.743092
0.743729
0.744376
0.743465
0.741625
0.742536
0.743907
0.74643
0.747148
0.747061
0.746041
0.744722
0.742256
0.737332
0.732469
0.725814
0.715859
0.70049
0.679106