/*--------------------------------*- C++ -*----------------------------------*\
| =========                 |                                                 |
| \\      /  F ield         | OpenFOAM: The Open Source CFD Toolbox           |
|  \\    /   O peration     | Version:  2.2.x                                 |
|   \\  /    A nd           | Web:      www.OpenFOAM.org                      |
|    \\/     M anipulation  |                                                 |
\*---------------------------------------------------------------------------*/
FoamFile
{
    version     2.0;
    format      ascii;
    class       surfaceScalarField;
    location    "0.8";
    object      cfmax;
}
// * * * * * * * * * * * * * * * * * * * * * * * * * * * * * * * * * * * * * //

dimensions      [0 3 -1 0 0 0 0];

internalField   nonuniform List<scalar> 
28084
(
0.00124399
0.00123856
0.00123396
0.00123011
0.00122696
0.00122449
0.00122267
0.00122144
0.00122077
0.00122063
0.00122095
0.0012217
0.00122285
0.00122433
0.00122612
0.00122815
0.0012304
0.00123283
0.00123542
0.00123806
0.00124072
0.00124339
0.00124617
0.0012489
0.00125149
0.00125393
0.00125621
0.00125832
0.00126053
0.00126237
0.00126391
0.00126519
0.00126625
0.00126713
0.0012679
0.00126814
0.00126811
0.00126774
0.001267
0.00126588
0.00126444
0.00126246
0.0012601
0.00125753
0.00125458
0.00126883
0.00128364
0.00129889
0.00131403
0.00132968
0.00134663
0.00136231
0.000913129
0.000864019
0.000880525
0.000902497
0.000926465
0.00094901
0.00097023
0.000993049
0.0010161
0.0010385
0.0010587
0.00107804
0.00109722
0.00111219
0.00112459
0.00113524
0.00114353
0.00115116
0.00115658
0.00116115
0.00116425
0.00116542
0.0011674
0.00117215
0.00117225
0.00117166
0.00117092
0.00116841
0.00116864
0.00116654
0.00116227
0.00116311
0.00115862
0.00115278
0.00114872
0.00115319
0.00116014
0.00117964
0.00122932
0.00122071
0.00122573
0.00120436
0.0011211
0.00107048
0.00102446
0.000985182
0.000952315
0.000927061
0.00090775
0.000892866
0.000881355
0.000872647
0.000865936
0.000859939
0.000853735
0.00084614
0.000838474
0.000831123
0.000824828
0.000819915
0.000816786
0.000815374
0.000818166
0.00082262
0.000834747
0.000856621
0.00289048
0.0028859
0.00124986
0.0028753
0.00124823
0.00285869
0.00124738
0.0028362
0.00124722
0.00280804
0.00124775
0.00277441
0.0012489
0.0027356
0.00125066
0.00269194
0.00125299
0.00264372
0.00125581
0.00259153
0.00125911
0.00253585
0.00126285
0.00247673
0.00126696
0.00241457
0.00127141
0.00234977
0.00127616
0.00228276
0.00128111
0.00221393
0.00128626
0.00214368
0.00129156
0.00207239
0.00129697
0.00200039
0.00130247
0.00192799
0.00130792
0.00185562
0.00131332
0.00178354
0.00131865
0.00171203
0.00132398
0.00164122
0.00132918
0.0015714
0.00133415
0.00150276
0.00133887
0.00143557
0.00134335
0.00136995
0.00134755
0.00130592
0.00135176
0.00124364
0.00135549
0.00118317
0.00135884
0.00112467
0.00136182
0.00106814
0.0013645
0.00101368
0.00136689
0.000961201
0.00136909
0.000910712
0.00137068
0.000862509
0.0013719
0.000816314
0.00137265
0.000772103
0.00137296
0.000729849
0.00137283
0.000689473
0.00137227
0.000651039
0.00137103
0.000614462
0.00136942
0.000579662
0.00136741
0.000587574
0.001365
0.000587737
0.00137838
0.000587867
0.00139206
0.00058797
0.00140622
0.00058834
0.00142035
0.000588625
0.00143516
0.000588797
0.00145133
0.000585411
0.00146597
0.000591103
0.00100703
0.000602242
0.000945735
0.000605058
0.000962066
0.000610644
0.000982877
0.000614572
0.00100433
0.000618736
0.00102672
0.000623439
0.0010473
0.000628431
0.00106942
0.000633701
0.00109076
0.000637432
0.00111168
0.00064099
0.00113191
0.000645284
0.00114961
0.000648615
0.00116753
0.000651065
0.00118207
0.000653542
0.00119403
0.000655876
0.00120366
0.00065858
0.00121142
0.000661752
0.00121787
0.000665061
0.00122232
0.000668323
0.00122596
0.000671236
0.00122843
0.000674513
0.00122941
0.000679239
0.00122958
0.00068336
0.00123367
0.000686956
0.00123302
0.000691384
0.00123165
0.000696211
0.00122925
0.000701396
0.00122687
0.00070671
0.00122681
0.00071317
0.00122238
0.000719182
0.00121776
0.000726007
0.00121757
0.000733514
0.00121061
0.000739959
0.00120455
0.000746645
0.00120095
0.000754227
0.0012025
0.000763314
0.00121198
0.000773639
0.00122788
0.000785393
0.00126214
0.000789509
0.00126376
0.000798197
0.00125913
0.000801147
0.00122886
0.000797558
0.00111086
0.000791301
0.00105985
0.000771896
0.00100849
0.000756563
0.000965198
0.000744727
0.000931843
0.000734057
0.000905911
0.000726517
0.000885501
0.000722438
0.000869372
0.000721725
0.000856626
0.000722661
0.000846373
0.000725128
0.000838595
0.00072826
0.000832221
0.000731545
0.000827049
0.000734602
0.000822641
0.000737817
0.000819815
0.000741484
0.000819193
0.000745494
0.000819588
0.000751424
0.000819783
0.000756862
0.000820299
0.000763667
0.000822477
0.000770966
0.000827155
0.000781897
0.000832583
0.000791043
0.000842872
0.00080669
0.000861782
0.00289162
0.0028866
0.00125769
0.00287557
0.00125981
0.00285855
0.00126266
0.00283567
0.00126618
0.00280714
0.00127031
0.00277317
0.00127505
0.00273511
0.00128035
0.00269239
0.00128616
0.00264504
0.00129246
0.00259344
0.00129918
0.00253797
0.0013063
0.00247904
0.00131373
0.00241704
0.00132144
0.00235236
0.00132939
0.00228545
0.00133751
0.00221671
0.00134573
0.00214651
0.00135406
0.00207524
0.00136242
0.00200323
0.00137077
0.00193082
0.00137903
0.0018584
0.00138712
0.00178626
0.00139508
0.00171467
0.00140295
0.00164376
0.00141059
0.00157383
0.00141792
0.00150507
0.00142491
0.00143775
0.00143155
0.00137199
0.00143783
0.00130781
0.00144401
0.00124536
0.00144963
0.00118472
0.00145476
0.00112605
0.00145943
0.00106936
0.00146371
0.00101472
0.0014676
0.000962055
0.00147123
0.000911355
0.00147416
0.000862673
0.00147661
0.000815997
0.00147851
0.000771944
0.00147993
0.000729902
0.00148079
0.000689737
0.00148111
0.000651512
0.00148064
0.000615128
0.00147977
0.00058054
0.00147835
0.000596647
0.0014765
0.000597148
0.00148887
0.000597555
0.00150146
0.000597872
0.00151471
0.000598514
0.00152765
0.000598893
0.00154103
0.000600191
0.00155553
0.000608607
0.00156915
0.000600526
0.00105938
0.000609739
0.00099601
0.000615307
0.00101098
0.00062246
0.00103254
0.000625591
0.00105458
0.000629217
0.00107732
0.000634186
0.00110006
0.000639467
0.00112265
0.000645114
0.0011456
0.000646117
0.00116618
0.000648159
0.00118654
0.000652913
0.00120412
0.000654381
0.00122103
0.000655127
0.00123578
0.000657742
0.00124743
0.000659426
0.00125676
0.000661454
0.00126349
0.000664367
0.00126824
0.000667821
0.00127182
0.000671022
0.0012743
0.000674063
0.0012756
0.000677314
0.00127523
0.000681592
0.00127527
0.000685332
0.00127837
0.000688619
0.0012766
0.000692489
0.00127413
0.00069773
0.00127118
0.000703337
0.00126731
0.000707201
0.00126652
0.000713692
0.00126064
0.00071993
0.00125473
0.000725103
0.00125304
0.000732999
0.00124454
0.000741134
0.0012382
0.000745908
0.00123807
0.000754757
0.00124121
0.000766225
0.00124963
0.000778304
0.00126694
0.000793407
0.00130451
0.000791547
0.00129383
0.000785247
0.00127648
0.000781801
0.00114562
0.000776649
0.00106886
0.000771023
0.00100182
0.000763044
0.000954976
0.000752076
0.000920088
0.00074123
0.00089157
0.000734729
0.000867456
0.00073029
0.000847725
0.000728748
0.000831811
0.00072818
0.000818449
0.000728722
0.000807389
0.000730485
0.000798865
0.000733632
0.000792556
0.000739366
0.000789514
0.000745448
0.000790212
0.000749147
0.000792722
0.000754134
0.000796183
0.000761051
0.000801207
0.000767097
0.000807249
0.000772407
0.000812384
0.00078147
0.000817668
0.000788253
0.000823509
0.000803365
0.000830726
0.000811654
0.000843021
0.000828661
0.00086181
0.00289052
0.00288508
0.00126748
0.00287366
0.0012733
0.00285625
0.00127981
0.00283464
0.00128692
0.002808
0.00129464
0.0027758
0.00130291
0.00273832
0.0013117
0.00269588
0.00132098
0.00264878
0.00133069
0.0025974
0.00134077
0.00254213
0.00135121
0.00248333
0.00136193
0.00242145
0.00137289
0.00235688
0.00138398
0.00229004
0.00139521
0.00222131
0.00140652
0.00215112
0.00141781
0.00207983
0.00142907
0.00200776
0.00144026
0.00193528
0.00145127
0.00186277
0.00146205
0.00179051
0.00147261
0.00171878
0.00148296
0.00164772
0.00149302
0.00157762
0.00150268
0.00150867
0.0015119
0.00144118
0.00152071
0.00137521
0.00152904
0.00131083
0.00153713
0.00124816
0.00154461
0.0011873
0.00155153
0.00112841
0.00155788
0.00107149
0.00156375
0.00101662
0.00156913
0.000963725
0.00157418
0.00091279
0.00157847
0.000863874
0.00158213
0.000816986
0.00158521
0.000772042
0.00158771
0.000729456
0.00158954
0.000689564
0.00159082
0.000651601
0.00159133
0.000615465
0.00159109
0.000581133
0.00159034
0.000605485
0.00158904
0.00060624
0.0016005
0.000606906
0.00161201
0.000607369
0.00162343
0.000608225
0.00163469
0.000608424
0.00164597
0.00061008
0.00165636
0.000618498
0.00166554
0.000607546
0.00111263
0.000622273
0.00105056
0.00062812
0.00106728
0.000637252
0.00109255
0.000641684
0.00111748
0.00064672
0.00114238
0.000652962
0.00116904
0.000659189
0.00119704
0.000661505
0.00122192
0.000663641
0.00123937
0.000668883
0.00126385
0.000668967
0.00128004
0.000669278
0.00129102
0.00067221
0.00130859
0.000673136
0.00131778
0.0006736
0.00132644
0.000674863
0.00133229
0.000677361
0.00133565
0.000680576
0.00133751
0.00068359
0.00133838
0.000686035
0.00133787
0.000688989
0.00133632
0.000693248
0.00133503
0.000696877
0.00133688
0.000699716
0.00133408
0.000704395
0.00133065
0.000710839
0.00132726
0.000716477
0.00132203
0.000720433
0.00132052
0.000727279
0.0013123
0.000733761
0.00130622
0.000739321
0.00130515
0.000747062
0.00129833
0.000755706
0.00129247
0.000759314
0.00129768
0.000768451
0.00129879
0.000779184
0.00131002
0.000790689
0.00131897
0.000806163
0.00135833
0.000800748
0.00134526
0.000788216
0.00124289
0.00079852
0.00110561
0.000794169
0.00101701
0.000784677
0.000958837
0.000772906
0.000918946
0.000760161
0.000890144
0.000749766
0.000866636
0.000742925
0.00084625
0.000738187
0.000828677
0.00073521
0.000813186
0.000734291
0.000799738
0.000735832
0.000789297
0.00073825
0.00078179
0.000740966
0.000776611
0.000743819
0.000773886
0.00074892
0.000773283
0.000753707
0.00077511
0.000759954
0.000778744
0.000768573
0.000784827
0.000777908
0.00079233
0.000784525
0.00080026
0.000796422
0.000808147
0.000804341
0.000817175
0.000822039
0.000826662
0.000831483
0.000841265
0.000850804
0.000861106
0.00288721
0.00288263
0.00127924
0.00287416
0.00128869
0.0028596
0.00129879
0.00283907
0.00130947
0.00281274
0.0013207
0.00278086
0.00133245
0.00274366
0.00134469
0.00270145
0.00135736
0.00265458
0.00137043
0.0026034
0.00138386
0.00254828
0.00139757
0.00248962
0.00141151
0.00242782
0.00142564
0.0023633
0.0014399
0.00229647
0.00145418
0.00222775
0.00146846
0.00215751
0.00148272
0.00208613
0.00149685
0.00201398
0.00151082
0.00194137
0.00152456
0.00186871
0.00153798
0.00179628
0.0015511
0.00172436
0.00156391
0.0016531
0.00157635
0.00158278
0.00158831
0.00151361
0.00159974
0.00144584
0.00161068
0.0013796
0.00162105
0.00131497
0.00163096
0.00125202
0.00164032
0.00119088
0.00164899
0.00113172
0.00165705
0.00107453
0.0016645
0.00101936
0.00167138
0.0009662
0.00167773
0.000914987
0.00168345
0.000865783
0.00168835
0.000818606
0.00169262
0.00077341
0.00169621
0.000730169
0.00169909
0.000688984
0.00170134
0.000651332
0.00170287
0.000615513
0.00170348
0.000581474
0.00170345
0.000614109
0.00170281
0.000615061
0.00171363
0.000615978
0.0017245
0.000616607
0.00173464
0.000617384
0.00174388
0.000617092
0.00175362
0.000619494
0.00176034
0.000606833
0.0017716
0.000606378
0.00117356
0.000633599
0.00110718
0.000643639
0.00113151
0.000657907
0.00116471
0.000665678
0.00119517
0.000670622
0.00122495
0.000679643
0.00125302
0.000684738
0.00127508
0.000685677
0.00129767
0.000684798
0.00132137
0.000685138
0.00133302
0.000685449
0.00134668
0.000682393
0.00136303
0.000682575
0.00137307
0.000682569
0.00138127
0.000682398
0.00139037
0.000683119
0.00139649
0.000684201
0.00139862
0.000686118
0.00139852
0.000688229
0.00139663
0.000689932
0.00139483
0.000691939
0.00139325
0.000694837
0.00138854
0.000698225
0.00138965
0.000702145
0.00138625
0.000708138
0.00138238
0.000715189
0.00138043
0.00072105
0.00137439
0.000724921
0.00137264
0.000732217
0.00136659
0.00073936
0.00136117
0.000745054
0.00136428
0.000753442
0.00135653
0.000762217
0.0013492
0.000766388
0.00135192
0.000776276
0.00134834
0.000786544
0.00134878
0.000801307
0.00137549
0.00081586
0.00136362
0.000817604
0.00134739
0.000820784
0.00117426
0.000840343
0.00106902
0.000829929
0.000998447
0.000804585
0.000947446
0.000784315
0.000907321
0.000770304
0.000878102
0.000759373
0.000856869
0.000752392
0.000839911
0.000747708
0.000825088
0.000744886
0.000811196
0.000742855
0.00079836
0.000742629
0.000787442
0.000743566
0.000778899
0.000745721
0.00077257
0.000747769
0.000768598
0.000751806
0.00076677
0.000756755
0.000767012
0.000764279
0.000770093
0.000773699
0.000775078
0.000785072
0.000782199
0.000794448
0.000790178
0.000808543
0.000798963
0.000818921
0.00081007
0.000838228
0.000821309
0.000850279
0.000838447
0.000872483
0.000859584
0.00289024
0.00288821
0.00129298
0.00288009
0.001306
0.00286587
0.00131963
0.00284566
0.00133379
0.00281965
0.00134848
0.00278804
0.00136365
0.0027511
0.00137926
0.00270913
0.00139529
0.00266244
0.00141168
0.00261142
0.00142836
0.00255642
0.0014453
0.00249786
0.00146244
0.00243612
0.00147968
0.00237161
0.00149699
0.00230476
0.00151431
0.00223599
0.00153156
0.00216565
0.00154871
0.00209417
0.00156567
0.00202186
0.00158236
0.00194909
0.00159878
0.00187623
0.00161482
0.00180357
0.00163045
0.0017314
0.00164567
0.00165987
0.00166044
0.00158928
0.00167466
0.00151984
0.0016883
0.00145174
0.00170132
0.00138517
0.00171373
0.00132022
0.00172545
0.00125696
0.00173655
0.0011955
0.00174703
0.001136
0.00175677
0.00107848
0.00176581
0.00102297
0.00177416
0.000969475
0.00178182
0.000917962
0.00178888
0.000868428
0.00179515
0.000820934
0.00180057
0.000775421
0.00180529
0.000731883
0.00180928
0.000690249
0.00181252
0.00065071
0.00181502
0.000615269
0.00181681
0.00058161
0.00181756
0.000622553
0.00181765
0.000623858
0.00182784
0.000624894
0.00183842
0.000625586
0.00184855
0.000626149
0.00185742
0.000626186
0.00186659
0.00062682
0.00187221
0.000589722
0.00188134
0.000607987
0.00124961
0.000653882
0.0011784
0.000671547
0.00122531
0.000691885
0.00126067
0.000699929
0.00128906
0.000700952
0.00131832
0.000703983
0.00134007
0.000704828
0.00136537
0.000699128
0.00138869
0.000695168
0.00140921
0.000694229
0.00142233
0.000690435
0.00143433
0.0006877
0.0014483
0.000688785
0.00145968
0.000687809
0.0014679
0.000686294
0.00147389
0.000685815
0.00148475
0.000686362
0.00148601
0.000688402
0.00148731
0.000690576
0.00148445
0.000691818
0.00148042
0.000693442
0.00147697
0.000696635
0.00147322
0.000699744
0.00147549
0.000705444
0.00147278
0.00071187
0.00146889
0.000719274
0.00146863
0.000725409
0.00146269
0.000729193
0.00145797
0.000736728
0.00145226
0.00074447
0.00144476
0.000750645
0.00144134
0.000758889
0.00143072
0.000768276
0.00141967
0.000769614
0.00141083
0.000777817
0.00140458
0.000788511
0.00139784
0.000810398
0.00140332
0.000813157
0.00139121
0.000833321
0.00126886
0.00087601
0.00117069
0.000880794
0.00109688
0.000853154
0.00103391
0.000819724
0.000970349
0.000796388
0.000919304
0.000777736
0.000883886
0.000766798
0.000858573
0.000761069
0.000840073
0.000757419
0.000825923
0.000755064
0.000813948
0.000752852
0.000803317
0.000752383
0.000793396
0.00075245
0.000784119
0.000752786
0.00077617
0.000754002
0.000770492
0.000757664
0.000767152
0.000761584
0.00076619
0.000769186
0.00076806
0.000779169
0.000772241
0.000791598
0.000778149
0.000802079
0.000784095
0.000817894
0.000792472
0.00083101
0.000803953
0.000851464
0.000816393
0.00086667
0.000834923
0.000891845
0.000857178
0.0028977
0.002896
0.0013087
0.00288821
0.00132521
0.0028743
0.0013423
0.0028544
0.00135989
0.00282868
0.00137795
0.00279733
0.00139647
0.00276063
0.00141541
0.00271885
0.00143472
0.00267235
0.00145435
0.00262146
0.00147425
0.00256656
0.00149436
0.00250804
0.0015146
0.00244631
0.00153494
0.0023818
0.00155526
0.00231489
0.00157553
0.00224602
0.0015957
0.00217556
0.00161568
0.0021039
0.0016354
0.00203141
0.00165481
0.00195842
0.00167386
0.00188529
0.00169244
0.00181235
0.00171053
0.00173986
0.00172817
0.00166803
0.00174521
0.00159711
0.00176165
0.00152733
0.00177745
0.00145889
0.00179254
0.00139192
0.00180689
0.00132657
0.00182045
0.00126295
0.00183328
0.00120112
0.00184552
0.00114124
0.00185692
0.00108334
0.00186752
0.00102744
0.00187731
0.00097354
0.00188633
0.000921668
0.0018946
0.000871794
0.00190221
0.00082392
0.00190896
0.000778069
0.00191488
0.000734179
0.00191996
0.00069222
0.0019243
0.00065215
0.00192793
0.000614703
0.00193082
0.000581461
0.00193296
0.000630757
0.00193437
0.000632544
0.00194465
0.000634009
0.00195537
0.000635198
0.00196641
0.000636075
0.00197745
0.000637071
0.0019884
0.000636253
0.00199858
0.000629937
0.00200736
0.000623996
0.00135699
0.000696599
0.00127591
0.000718257
0.00133599
0.000725767
0.0013845
0.000726269
0.0014098
0.00072181
0.0014445
0.000724356
0.00146151
0.000719949
0.00148465
0.000712979
0.00149069
0.000703849
0.00151353
0.000701133
0.00152506
0.000695131
0.00153429
0.000691725
0.00153997
0.000687882
0.0015555
0.000684069
0.00156114
0.00068096
0.00157109
0.000680184
0.00158308
0.000681106
0.00158823
0.0006821
0.00158804
0.000683733
0.00158695
0.000684504
0.00158233
0.00068579
0.00157496
0.000687724
0.00156827
0.000693475
0.00156853
0.000700459
0.00156569
0.000707827
0.00156023
0.000715145
0.00155658
0.000721239
0.00154769
0.000724555
0.00153807
0.000731687
0.00153069
0.000739481
0.00151878
0.000743746
0.00150238
0.000750841
0.00148874
0.000760203
0.00147476
0.000760598
0.00146011
0.000768607
0.00144583
0.000782472
0.00143645
0.000792966
0.00141271
0.000802844
0.00131263
0.000890597
0.00123564
0.000924383
0.00118331
0.00092128
0.00112517
0.000891786
0.00106874
0.000850656
0.00100744
0.00081694
0.000945128
0.000792294
0.000905022
0.000775691
0.000875141
0.000767735
0.000852042
0.000763828
0.000834824
0.000762458
0.000821326
0.000761356
0.000810267
0.000761429
0.00080056
0.000761436
0.000791786
0.000761506
0.000783922
0.000761144
0.000776912
0.000764083
0.000772035
0.000767271
0.000769827
0.000774551
0.000770081
0.000785222
0.000772713
0.000796926
0.000777654
0.000808155
0.000782863
0.000825241
0.000790849
0.000840511
0.000802136
0.000863318
0.000814745
0.000882101
0.000833594
0.000907524
0.000856327
0.00290738
0.00290598
0.00132641
0.0028985
0.00134635
0.00288489
0.00136681
0.00286527
0.00138774
0.00283981
0.00140912
0.00280871
0.00143092
0.00277222
0.0014531
0.00273063
0.00147563
0.00268427
0.00149843
0.00263348
0.00152147
0.00257865
0.00154467
0.00252017
0.00156799
0.00245842
0.00159131
0.00239384
0.0016146
0.00232685
0.00163778
0.00225784
0.00166079
0.00218721
0.00168355
0.00211534
0.00170599
0.00204259
0.00172807
0.00196933
0.00174964
0.00189592
0.00177072
0.00182265
0.00179128
0.00174978
0.00181126
0.00167758
0.00183055
0.00160629
0.00184913
0.0015361
0.00186707
0.00146725
0.00188418
0.00139982
0.00190043
0.00133404
0.0019158
0.00127
0.00193037
0.00120775
0.0019443
0.00114742
0.00195736
0.00108908
0.00196948
0.00103273
0.00198069
0.000978399
0.00199104
0.000926103
0.00200056
0.000875857
0.00200928
0.000827597
0.00201743
0.000781347
0.00202456
0.000737093
0.00203088
0.00069476
0.00203636
0.000654352
0.00204118
0.000615733
0.00204524
0.000581239
0.00204851
0.000639037
0.00205131
0.000641272
0.00206241
0.000643303
0.00207378
0.000645681
0.00208599
0.000647509
0.00209949
0.000651034
0.00211762
0.000651027
0.00214095
0.000629292
0.00218
0.000651015
0.00180738
0.000728801
0.00145481
0.000756257
0.00151365
0.000761129
0.00153896
0.000755615
0.00155646
0.000745876
0.00158101
0.000742489
0.00158463
0.000731999
0.00158757
0.000719547
0.00158806
0.000712357
0.0016103
0.000706312
0.0016195
0.000698171
0.00162709
0.000691683
0.00164879
0.000686765
0.00166461
0.000685441
0.00166396
0.000682027
0.00167142
0.000681458
0.00167813
0.000682346
0.00168383
0.000683414
0.00168189
0.000685064
0.00167824
0.000685174
0.00167239
0.000685783
0.00166616
0.000690693
0.00165672
0.000697897
0.00165362
0.00070441
0.00164606
0.000711191
0.0016398
0.000719332
0.00163133
0.000725358
0.0016197
0.000729076
0.00160455
0.000735171
0.00158963
0.000742761
0.00157516
0.000746757
0.00155641
0.000752591
0.00153537
0.000760206
0.00151416
0.000758331
0.00148124
0.000761832
0.00144847
0.00076502
0.00140333
0.000779259
0.0013251
0.000857157
0.00124759
0.00092283
0.00120189
0.000962866
0.00117013
0.000959103
0.0011411
0.000930724
0.00110266
0.000884586
0.00105132
0.000838433
0.000983471
0.000808332
0.000933819
0.000790155
0.000899092
0.000778485
0.000873015
0.000772866
0.000851746
0.000770904
0.000835337
0.000769654
0.000822081
0.000769837
0.000810726
0.000769879
0.00080083
0.000770316
0.000792483
0.000769136
0.000785381
0.000771394
0.000779706
0.00077417
0.000776291
0.000780939
0.000775146
0.000790099
0.000775631
0.00080196
0.000778038
0.000815008
0.000782215
0.000833479
0.000790049
0.000850336
0.000800837
0.000875442
0.000813407
0.000895532
0.000832453
0.000922071
0.000856846
0.00291924
0.00291812
0.00134614
0.00291092
0.0013694
0.00289759
0.00139316
0.00287825
0.00141735
0.00285303
0.00144196
0.00282215
0.00146696
0.00278585
0.00149232
0.00274443
0.00151797
0.00269818
0.00154388
0.00264748
0.00157
0.00259269
0.00159622
0.0025342
0.0016225
0.00247241
0.00164877
0.00240774
0.00167497
0.00234062
0.00170098
0.00227144
0.00172675
0.00220058
0.00175223
0.00212845
0.00177732
0.00205542
0.00180196
0.00198183
0.0018261
0.00190806
0.00184961
0.00183441
0.00187254
0.00176114
0.0018948
0.0016885
0.00191629
0.00161678
0.00193698
0.00154614
0.00195699
0.0014768
0.00197606
0.00140888
0.00199419
0.00134261
0.00201136
0.00127806
0.00202765
0.00121539
0.00204322
0.00115456
0.0020579
0.0010957
0.00207153
0.00103883
0.00208414
0.00098402
0.00209578
0.000931248
0.00210652
0.000880561
0.00211641
0.000831869
0.00212583
0.00078518
0.00213419
0.000740508
0.00214165
0.000697791
0.00214834
0.000656994
0.0021543
0.000618091
0.00215968
0.000580954
0.00216451
0.000647009
0.00216902
0.000649906
0.00218104
0.000652502
0.00219341
0.000655076
0.00220859
0.000657885
0.0022226
0.000661653
0.00224558
0.000665922
0.00227064
0.000650821
0.00228596
0.000776943
0.00213624
0.000795286
0.00169722
0.000791219
0.00165074
0.000785674
0.00165392
0.000773635
0.00167201
0.000769924
0.00169891
0.000757289
0.00169809
0.000741515
0.00168646
0.00072888
0.00168547
0.000722231
0.00169472
0.000716939
0.0017323
0.000704122
0.0017335
0.000700374
0.00173129
0.000694623
0.0017643
0.000691919
0.00176517
0.000689552
0.00176264
0.00068857
0.0017665
0.000689345
0.00176777
0.000689942
0.00176567
0.000691483
0.00176101
0.000691828
0.00175326
0.000694538
0.001745
0.000702569
0.00172951
0.000710325
0.00172161
0.000717347
0.00171198
0.000724598
0.00169904
0.000733015
0.00168748
0.0007383
0.00167467
0.000740512
0.00165557
0.000746167
0.00163646
0.000750235
0.00161541
0.000753892
0.00157687
0.000758145
0.00154246
0.000762685
0.00150306
0.000753849
0.00145068
0.000752714
0.00138819
0.00076243
0.00131343
0.000836722
0.00123406
0.000894473
0.00118903
0.00094218
0.00116639
0.000964094
0.00114677
0.000969708
0.0011243
0.00095432
0.00110258
0.000913009
0.00105859
0.000866018
0.00100705
0.000826104
0.000959128
0.000804279
0.000922812
0.000792658
0.000895572
0.000785359
0.000874256
0.000781354
0.000855902
0.000779097
0.000839632
0.000778889
0.00082569
0.000778523
0.000813926
0.000779116
0.000804167
0.000778152
0.000796162
0.000780005
0.000789689
0.000782064
0.000785212
0.0007878
0.000782721
0.000795536
0.000780921
0.000806742
0.000781182
0.000821778
0.000784061
0.000841466
0.000791569
0.000859648
0.000801869
0.000886421
0.000813842
0.000905344
0.00083368
0.00093555
0.000857929
0.00293325
0.0029324
0.00136789
0.00292546
0.00139439
0.00291239
0.00142135
0.00289329
0.00144871
0.00286831
0.00147646
0.00283764
0.00150457
0.00280152
0.00153301
0.00276023
0.00156173
0.00271409
0.00159066
0.00266345
0.00161975
0.00260866
0.00164893
0.00255014
0.00167814
0.00248827
0.00170725
0.00242349
0.00173625
0.00235618
0.00176503
0.00228677
0.00179352
0.00221566
0.00182165
0.00214323
0.00184933
0.00206986
0.00187649
0.00199591
0.00190303
0.00192175
0.00192894
0.00184765
0.00195423
0.0017739
0.00197871
0.00170078
0.00200234
0.00162857
0.00202506
0.00155742
0.00204707
0.00148754
0.00206807
0.00141908
0.00208803
0.00135227
0.00210699
0.00128719
0.00212495
0.00122398
0.00214217
0.00116261
0.00215838
0.00110319
0.00217346
0.00104576
0.00218743
0.000990396
0.00220037
0.000937104
0.00221229
0.00088592
0.00222338
0.000836753
0.00223392
0.000789576
0.00224344
0.000744405
0.00225195
0.000701224
0.00225964
0.000659956
0.00226651
0.000620608
0.00227264
0.000583082
0.00227817
0.000654012
0.00228311
0.000657023
0.00229351
0.000659655
0.00230406
0.000662388
0.00231491
0.000665281
0.00232598
0.000668614
0.00234401
0.000675143
0.00235222
0.000838844
0.00235429
0.000941567
0.00200068
0.000847003
0.00183909
0.00080869
0.00176071
0.000800626
0.00172551
0.000791151
0.0017354
0.000782928
0.00174282
0.000773262
0.0017498
0.000758184
0.00175178
0.000745011
0.00175289
0.000735039
0.00177298
0.000729091
0.00180132
0.000717415
0.00180245
0.000705033
0.00180465
0.000703007
0.00182984
0.00070075
0.00182789
0.000697284
0.00182928
0.00069695
0.00183277
0.00069776
0.00182934
0.000697546
0.00182717
0.000697922
0.00182177
0.000697989
0.00181052
0.000705205
0.00179849
0.000713387
0.00178064
0.000721769
0.00177064
0.000727647
0.00175936
0.0007325
0.00173903
0.000740756
0.0017221
0.000746245
0.00170245
0.000748501
0.0016671
0.000755049
0.00162305
0.00075947
0.00159371
0.000756975
0.001538
0.000752896
0.00148491
0.000750577
0.0014189
0.000743723
0.00134587
0.000764004
0.00126561
0.000815668
0.00119883
0.000861853
0.0011632
0.000912097
0.00114597
0.0009451
0.00114196
0.000962802
0.00112249
0.000969179
0.00110462
0.000956143
0.00108447
0.000926523
0.00105467
0.00088448
0.00101344
0.000845772
0.000972654
0.000819116
0.000939526
0.000804721
0.000913381
0.000798103
0.000892427
0.000794394
0.000875359
0.000790968
0.000859558
0.000789297
0.000844174
0.000788093
0.000830538
0.000788542
0.000819265
0.000787813
0.000809957
0.000789278
0.000802245
0.000790471
0.000796541
0.000795467
0.00079256
0.000802088
0.000788861
0.00081296
0.000787482
0.000828438
0.00078943
0.000849562
0.000795779
0.000868837
0.00080546
0.000896423
0.000816905
0.000914776
0.000835916
0.000948422
0.000859448
0.00294939
0.00294878
0.0013917
0.00294209
0.00142133
0.00292926
0.00145139
0.00291039
0.00148182
0.00288562
0.00151262
0.00285514
0.00154375
0.00281918
0.00157518
0.002778
0.00160686
0.00273194
0.00163873
0.00268134
0.00167072
0.00262654
0.00170275
0.00256796
0.00173477
0.00250598
0.00176669
0.00244103
0.00179844
0.00237352
0.00182987
0.00230385
0.00186099
0.00223244
0.00189169
0.00215966
0.00192189
0.00208588
0.00195152
0.00201153
0.00198042
0.00193692
0.00200862
0.00186233
0.00203617
0.00178807
0.00206283
0.0017144
0.00208856
0.00164164
0.00211329
0.00156993
0.00213718
0.00149946
0.00216008
0.00143042
0.00218184
0.00136302
0.00220251
0.00129736
0.00222213
0.00123355
0.00224096
0.00117157
0.00225863
0.00111154
0.00227511
0.0010535
0.0022904
0.000997519
0.00230462
0.000943659
0.0023177
0.000891907
0.00232991
0.000842193
0.00234156
0.000794459
0.00235205
0.000748752
0.00236156
0.000705016
0.00237015
0.000663244
0.00237789
0.000623316
0.00238482
0.000585217
0.00239094
0.000660224
0.00239648
0.000663229
0.00240537
0.000666023
0.00241579
0.000668419
0.00242614
0.000671613
0.00243808
0.000673578
0.00245544
0.000684009
0.00246919
0.000911291
0.00246393
0.000969484
0.00199578
0.000916522
0.00193304
0.000850133
0.00190093
0.000818857
0.00182325
0.000800628
0.0017996
0.00079101
0.00179945
0.000779116
0.00180965
0.000762827
0.00181797
0.000752648
0.00182105
0.000746062
0.00186363
0.000732147
0.00187037
0.000721121
0.00186671
0.000709519
0.00187887
0.00070524
0.00190167
0.000703652
0.00189897
0.000701271
0.00189954
0.000699875
0.00189547
0.000699967
0.00188942
0.000699337
0.0018848
0.000698746
0.00187809
0.000702191
0.00186759
0.000710489
0.00184844
0.0007195
0.00182847
0.000729219
0.00180814
0.00073569
0.00178831
0.000740572
0.00174301
0.000748495
0.00170836
0.000750405
0.00167762
0.00074651
0.00161874
0.000745243
0.00156553
0.000744183
0.00150324
0.000738355
0.00143348
0.000743031
0.00135758
0.000758828
0.00128364
0.000780434
0.00122278
0.000807348
0.00117332
0.000838164
0.00114207
0.000876267
0.00112782
0.000915299
0.00111502
0.000941819
0.00111479
0.000958603
0.00110479
0.000963387
0.00109048
0.000955456
0.00107298
0.000934605
0.00105059
0.000894684
0.00101831
0.000861187
0.000982959
0.000833542
0.000953432
0.000816996
0.000929453
0.000808408
0.000909026
0.000805254
0.00089193
0.000802585
0.000876872
0.00080072
0.000862003
0.000798547
0.000847674
0.000798847
0.000834958
0.00079829
0.00082466
0.000799111
0.000815834
0.000799306
0.00080861
0.000803588
0.000803078
0.000809372
0.000797662
0.000820155
0.000795317
0.00083608
0.000796638
0.000857942
0.000801982
0.000878015
0.000810597
0.000905953
0.000820919
0.000923798
0.000838901
0.000960866
0.000861281
0.00296761
0.00296722
0.00141759
0.00296076
0.00145024
0.00294816
0.00148329
0.00292952
0.00151669
0.00290494
0.00155043
0.00287463
0.00158448
0.0028388
0.00161882
0.00279774
0.00165335
0.00275173
0.00168804
0.00270114
0.00172284
0.0026463
0.00175766
0.00258764
0.00179243
0.00252551
0.00182702
0.00246037
0.00186139
0.0023926
0.00189545
0.00232264
0.00192913
0.0022509
0.00196229
0.00217772
0.00199492
0.00210352
0.00202691
0.00202868
0.00205814
0.00195357
0.00208857
0.00187846
0.00211826
0.00180363
0.00214705
0.00172937
0.00217481
0.00165598
0.00220152
0.00158366
0.00222719
0.00151256
0.00225194
0.00144288
0.00227545
0.00137483
0.0022978
0.00130853
0.00231901
0.00124405
0.00233938
0.00118141
0.00235847
0.00112072
0.00237631
0.00106202
0.0023929
0.00100539
0.00240835
0.000950904
0.00242257
0.000898506
0.00243586
0.000848208
0.00244846
0.000799847
0.00245987
0.000753523
0.00247016
0.000709194
0.00247948
0.000666759
0.00248768