/*--------------------------------*- C++ -*----------------------------------*\
| =========                 |                                                 |
| \\      /  F ield         | OpenFOAM: The Open Source CFD Toolbox           |
|  \\    /   O peration     | Version:  2.2.x                                 |
|   \\  /    A nd           | Web:      www.OpenFOAM.org                      |
|    \\/     M anipulation  |                                                 |
\*---------------------------------------------------------------------------*/
FoamFile
{
    version     2.0;
    format      ascii;
    class       volScalarField;
    location    "0.8";
    object      p;
}
// * * * * * * * * * * * * * * * * * * * * * * * * * * * * * * * * * * * * * //

dimensions      [1 -1 -2 0 0 0 0];

internalField   nonuniform List<scalar> 
14161
(
0.199836
0.199873
0.199853
0.199829
0.199792
0.19975
0.199694
0.199623
0.199542
0.199445
0.199329
0.199199
0.199042
0.198869
0.19868
0.198467
0.198242
0.197993
0.197715
0.197418
0.197127
0.19688
0.196586
0.196208
0.195841
0.195525
0.195244
0.195044
0.19477
0.194393
0.194149
0.193963
0.193875
0.193759
0.193631
0.1935
0.193508
0.193572
0.193716
0.193962
0.194249
0.19465
0.19528
0.195881
0.196552
0.197345
0.198217
0.199015
0.200081
0.201442
0.202706
0.201987
0.920223
1.58484
1.6311
1.57012
1.53564
1.48901
1.44885
1.4081
1.36338
1.31872
1.27483
1.23592
1.20214
1.16997
1.14648
1.13095
1.11973
1.11397
1.11196
1.11194
1.11263
1.11821
1.12027
1.12134
1.1053
1.10347
1.10449
1.10056
1.10536
1.08913
1.08292
1.08788
1.06398
1.05453
1.06825
1.03664
1.02
0.987788
0.931131
0.859646
0.864472
0.868411
0.997815
1.07648
1.2335
1.36853
1.49415
1.59187
1.6632
1.7181
1.76375
1.80191
1.83544
1.86623
1.89525
1.92409
1.95233
1.97979
2.00311
2.02453
2.04018
2.05262
2.05887
2.06765
2.06578
2.07092
2.07378
0.199836
0.199874
0.199853
0.199827
0.199794
0.199748
0.199694
0.199625
0.199539
0.199446
0.199334
0.199196
0.199042
0.198871
0.198673
0.198471
0.198241
0.197992
0.197715
0.197418
0.197128
0.196877
0.196581
0.196208
0.195844
0.195528
0.195247
0.195035
0.194761
0.194391
0.19415
0.193962
0.193872
0.193748
0.193622
0.193492
0.193475
0.193551
0.193688
0.193918
0.194189
0.194608
0.195204
0.195827
0.196498
0.197257
0.198184
0.199103
0.200094
0.201648
0.201422
0.202212
0.816612
1.56967
1.61623
1.55744
1.52509
1.47998
1.4401
1.39872
1.35421
1.31127
1.26882
1.23106
1.19724
1.16688
1.14383
1.12835
1.11675
1.11101
1.10768
1.10717
1.10742
1.11123
1.11282
1.11603
1.0989
1.09625
1.09651
1.09302
1.0965
1.07968
1.07376
1.07972
1.05446
1.04993
1.06302
1.03008
1.01471
0.979131
0.932253
0.869182
0.860841
0.88142
1.09153
1.27774
1.43099
1.55946
1.64798
1.71319
1.76346
1.80271
1.83589
1.86356
1.88816
1.91175
1.93338
1.95554
1.97594
1.99659
2.01274
2.02788
2.04269
2.05421
2.06141
2.07003
2.06816
2.07285
2.07607
0.199836
0.199874
0.199852
0.199829
0.199792
0.19975
0.199691
0.199626
0.199546
0.199444
0.19933
0.199192
0.199044
0.198872
0.198676
0.198469
0.198244
0.197988
0.197712
0.19742
0.197128
0.196874
0.196572
0.196207
0.195846
0.195532
0.195242
0.195024
0.194749
0.19439
0.194144
0.193954
0.193853
0.193721
0.193592
0.193448
0.19342
0.19349
0.193595
0.193787
0.194048
0.194433
0.194997
0.195628
0.196289
0.19708
0.198064
0.198902
0.200071
0.201609
0.202122
0.202464
0.883492
1.57734
1.62904
1.57745
1.54603
1.49615
1.44974
1.40273
1.3553
1.30683
1.26457
1.22669
1.18971
1.16004
1.13535
1.11861
1.10671
1.10137
1.09923
1.09954
1.10064
1.10443
1.10605
1.10744
1.09156
1.08885
1.08805
1.08437
1.08585
1.07153
1.06602
1.07126
1.05006
1.04749
1.05537
1.02483
1.00896
0.972977
0.920743
0.866409
0.865716
1.03701
1.27081
1.46276
1.60193
1.69221
1.75513
1.80147
1.83828
1.86739
1.8917
1.91016
1.92607
1.94029
1.9524
1.96482
1.97849
1.99186
2.00498
2.01922
2.03157
2.04299
2.05171
2.06012
2.05928
2.06613
2.06946
0.199836
0.199874
0.199852
0.199827
0.199794
0.199749
0.199691
0.199625
0.19954
0.199447
0.199335
0.199196
0.199039
0.198869
0.198684
0.198469
0.198233
0.197988
0.197716
0.197423
0.197129
0.196867
0.19656
0.196205
0.195847
0.195529
0.195236
0.194996
0.194727
0.19439
0.194136
0.193939
0.193814
0.193672
0.193541
0.193388
0.193322
0.193359
0.193435
0.193609
0.193821
0.194119
0.19466
0.195249
0.195892
0.19667
0.197652
0.198844
0.200622
0.201976
0.205329
0.206227
0.94246
1.58924
1.63691
1.57165
1.5372
1.48209
1.43343
1.38412
1.33551
1.28871
1.24823
1.20003
1.16993
1.14561
1.11173
1.0979
1.0873
1.08295
1.08146
1.08389
1.08513
1.08882
1.09059
1.09309
1.07612
1.07296
1.07161
1.06632
1.06697
1.05266
1.04793
1.05217
1.03276
1.03051
1.03876
1.00368
0.98679
0.950741
0.920933
0.850895
0.943329
1.26791
1.5047
1.65774
1.74197
1.80014
1.84134
1.87312
1.89832
1.91823
1.93356
1.94543
1.95621
1.96521
1.9718
1.9789
1.98789
1.99736
2.00651
2.01802
2.0287
2.03773
2.04436
2.05286
2.05139
2.05939
2.06333
0.199836
0.199874
0.199853
0.199829
0.199793
0.199747
0.199693
0.199623
0.199544
0.199446
0.199328
0.199198
0.199046
0.19887
0.198676
0.198474
0.198243
0.197984
0.197711
0.197422
0.19713
0.196859
0.196548
0.196207
0.195852
0.195528
0.195228
0.194959
0.194694
0.194403
0.194131
0.193915
0.193746
0.193603
0.193443
0.193303
0.19319
0.193171
0.193214
0.193321
0.193479
0.1937
0.194043
0.194572
0.19512
0.195841
0.196584
0.19779
0.199728
0.20127
0.206746
0.204961
0.953712
1.61647
1.65014
1.56336
1.51738
1.45283
1.40056
1.34855
1.29672
1.25196
1.21161
1.17075
1.14582
1.11167
1.08755
1.07367
1.06137
1.0547
1.05311
1.05839
1.06153
1.06471
1.06581
1.07238
1.05497
1.05084
1.04977
1.042
1.04273
1.03096
1.02722
1.02934
1.01349
1.00991
1.0161
0.98841
0.976705
0.955584
0.916905
0.88621
1.18272
1.44288
1.60498
1.70965
1.78067
1.83119
1.8693
1.89769
1.91978
1.9372
1.9508
1.96111
1.96946
1.97654
1.98235
1.98756
1.99318
1.99952
2.00818
2.01639
2.02612
2.03388
2.03887
2.04709
2.0437
2.05227
2.05634
0.199836
0.199875
0.199852
0.199829
0.199793
0.199749
0.199691
0.199626
0.199544
0.199443
0.19933
0.199197
0.199039
0.198874
0.198685
0.198471
0.198239
0.197979
0.197709
0.197432
0.19713
0.196849
0.196537
0.196202
0.195854
0.195525
0.195213
0.194921
0.194656
0.194397
0.194134
0.193889
0.193671
0.193488
0.193336
0.193182
0.193037
0.192944
0.192922
0.192952
0.193021
0.193178
0.193359
0.193688
0.194171
0.194713
0.19537
0.196019
0.19772
0.199063
0.204237
0.202662
0.911394
1.61104
1.63095
1.50508
1.44687
1.38661
1.34047
1.2918
1.25288
1.21574
1.1701
1.13121
1.11262
1.07362
1.05671
1.04403
1.03222
1.02156
1.01872
1.0208
1.02471
1.02876
1.03134
1.03819
1.02259
1.01973
1.01841
1.01009
1.00935
1.00426
1.00111
1.00224
0.992526
0.991635
1.00361
0.984262
0.973706
0.963906
0.923362
1.11544
1.36965
1.49832
1.57457
1.67153
1.76759
1.83698
1.87652
1.90533
1.92772
1.94497
1.95796
1.9684
1.97715
1.98382
1.98784
1.99243
1.99722
2.00208
2.00896
2.0153
2.02434
2.03006
2.03469
2.04144
2.03656
2.04366
2.04798
0.199837
0.199874
0.199853
0.199829
0.199792
0.199751
0.199694
0.199626
0.199543
0.199446
0.199327
0.199197
0.199046
0.198869
0.198687
0.198477
0.198234
0.197981
0.197713
0.197427
0.197131
0.196844
0.196528
0.196181
0.195851
0.195521
0.195195
0.194892
0.194613
0.194386
0.194135
0.193834
0.193578
0.19336
0.193189
0.193027
0.19287
0.192699
0.192574
0.192483
0.192453
0.192424
0.192417
0.192427
0.192476
0.192552
0.192467
0.192559
0.192507
0.192885
0.193836
0.195441
0.800932
1.56671
1.5625
1.39582
1.34536
1.32181
1.27488
1.23321
1.2096
1.19035
1.11472
1.08658
1.06858
1.04128
1.02232
1.01373
1.00382
0.990658
0.986463
0.987383
0.98871
0.995583
1.00054
1.00469
0.993779
0.990138
0.989371
0.984127
0.983913
0.983954
0.979533
0.987929
0.988481
0.989108
1.00366
0.99281
0.985716
0.984948
1.1959
1.37587
1.47226
1.47209
1.53657
1.60301
1.72422
1.81566
1.87048
1.90353
1.92623
1.94384
1.9588
1.96993
1.97863
1.98563
1.99059
1.99438
1.99853
2.00283
2.0089
2.01388
2.02084
2.02604
2.03024
2.03597
2.03111
2.03802
2.0401
0.199837
0.199875
0.199853
0.19983
0.199794
0.19975
0.199694
0.199626
0.199541
0.199448
0.199333
0.199198
0.19904
0.198876
0.198687
0.198475
0.198239
0.197983
0.197709
0.197421
0.19714
0.19684
0.196506
0.196165
0.195842
0.195517
0.19517
0.194856
0.194566
0.194357
0.194095
0.193777
0.193468
0.193227
0.193022
0.19286
0.192683
0.192498
0.19223
0.192038
0.191842
0.191704
0.191486
0.191313
0.191146
0.190778
0.190072
0.189379
0.188005
0.187079
0.181654
0.178592
0.279827
1.35055
1.48646
1.32425
1.26969
1.24199
1.19754
1.17743
1.17028
1.13488
1.07581
1.04855
1.04153
1.00081
0.985452
0.987337
0.971592
0.962945
0.958992
0.959792
0.963593
0.96649
0.972154
0.980035
0.971363
0.971307
0.968236
0.967543
0.971172
0.976037
0.977116
0.982616
0.991473
0.998767
1.02404
1.04767
1.11412
1.30703
1.45495
1.53829
1.49556
1.47059
1.51135
1.56065
1.68333
1.782
1.85256
1.89132
1.91776
1.93741
1.95328
1.96552
1.97551
1.98326
1.98873
1.99337
1.99743
2.00139
2.00743
2.01142
2.01948
2.02375
2.02829
2.0329
2.02781
2.031
2.03526
0.199838
0.199875
0.199853
0.19983
0.199795
0.199751
0.199693
0.199626
0.199547
0.199448
0.199328
0.199201
0.199048
0.198876
0.198681
0.198475
0.198244
0.197985
0.197712
0.197426
0.19713
0.196832
0.196494
0.196152
0.195834
0.195512
0.195145
0.194822
0.194523
0.194307
0.194032
0.193695
0.193351
0.193085
0.192845
0.19268
0.192489
0.192262
0.191891
0.19158
0.191268
0.19092
0.190527
0.189947
0.189315
0.188248
0.186604
0.184673
0.181736
0.179134
0.17148
0.166353
0.266445
0.951518
1.25902
1.28934
1.22011
1.20251
1.1175
1.13891
1.12618
1.10481
1.05495
1.01544
1.00289
1.00345
0.954475
0.957014
0.951574
0.9461
0.944514
0.944016
0.949714
0.950986
0.96069
0.96918
0.964242
0.966805
0.967126
0.967086
0.971949
0.980319
0.984236
1.00898
1.03375
1.08229
1.17914
1.3099
1.45203
1.57256
1.6369
1.58692
1.53869
1.50573
1.49885
1.54962
1.65282
1.75641
1.83226
1.87637
1.90593
1.92672
1.94414
1.95783
1.96913
1.97827
1.98484
1.99053
1.9951
1.99909
2.00537
2.00888
2.01681
2.02104
2.02499
2.0298
2.02311
2.02537
2.03069
0.199838
0.199876
0.199854
0.19983
0.199794
0.199752
0.199696
0.199628
0.199543
0.19945
0.199334
0.1992
0.199045
0.198883
0.198688
0.198475
0.19824
0.197981
0.19771
0.197423
0.197139
0.196832
0.196475
0.196135
0.195819
0.195504
0.195124
0.194787
0.194477
0.194244
0.193957
0.193585
0.193228
0.19294
0.192677
0.192492
0.192298
0.192011
0.191616
0.191202
0.190846
0.190424
0.190009
0.189474
0.188835
0.18806
0.187014
0.185899
0.184877
0.184351
0.181182
0.186455
0.536437
0.815776
1.02206
1.18378
1.20581
1.16436
1.15255
1.11867
1.11174
1.0715
1.03207
1.0014
0.987482
0.987361
0.950406
0.949764
0.941847
0.938959
0.940195
0.937508
0.943313
0.947428
0.958086
0.968094
0.962212
0.969309
0.973856
0.97773
0.995541
1.03481
1.06154
1.15352
1.25238
1.38401
1.49136
1.60723
1.69345
1.71887
1.66313
1.60111
1.55331
1.53289
1.5465
1.57776
1.64628
1.74122
1.82036
1.865
1.89506
1.91623
1.93396
1.94842
1.96032
1.97028
1.97817
1.98516
1.99054
1.99496
2.00154
2.00488
2.0132
2.01726
2.02194
2.0263
2.01965
2.022
2.02659
0.199839
0.199876
0.199855
0.199829
0.199797
0.199753
0.199696
0.199628
0.199547
0.199449
0.199335
0.199207
0.199051
0.198877
0.198685
0.198482
0.198243
0.197987
0.197708
0.197418
0.197139
0.19683
0.196464
0.196119
0.195796
0.195482
0.195109
0.194751
0.194428
0.194178
0.193863
0.193462
0.193101
0.192802
0.192524
0.192304
0.192101
0.191796
0.191354
0.190921
0.190509
0.190068
0.189553
0.189
0.188361
0.187558
0.186649
0.18518
0.183962
0.181599
0.177662
0.176304
0.610489
0.868734
0.934985
1.08823
1.17965
1.20535
1.18199
1.14305
1.12144
1.08806
1.0215
0.998916
1.00335
0.971497
0.949085
0.953788
0.943188
0.944656
0.944765
0.943793
0.945732
0.955
0.965983
0.981677
0.983043
1.01493
1.04307
1.07293
1.16757
1.26154
1.37634
1.476
1.57325
1.66963
1.73091
1.76368
1.76308
1.72852
1.67604
1.62649
1.59078
1.57279
1.57754
1.59746
1.65531
1.73569
1.81422
1.85912
1.88705
1.90758
1.92469
1.93891
1.95105
1.96156
1.97056
1.97858
1.98504
1.99012
1.99716
2.00073
2.00967
2.01381
2.01898
2.02354
2.01685
2.01899
2.02339
0.19984
0.199877
0.199855
0.199832
0.199797
0.199753
0.199697
0.199627
0.19955
0.199454
0.199338
0.199205
0.199049
0.198885
0.19869
0.198475
0.198241
0.197994
0.197712
0.197417
0.197135
0.196824
0.196461
0.196105
0.195764
0.195446
0.195096
0.194715
0.194375
0.1941
0.193763
0.193342
0.192982
0.19267
0.192371
0.19213
0.191915
0.191595
0.191167
0.190737
0.190353
0.189962
0.189592
0.189197
0.188876
0.188474
0.188465
0.18815
0.189401
0.188665
0.19692
0.275714
0.770752
0.888933
0.885785
0.978631
1.10162
1.21709
1.19067
1.19236
1.11476
1.10641
1.04008
0.988941
1.01639
0.983926
0.953982
0.962328
0.950606
0.955607
0.956177
0.960389
0.972438
0.993528
1.02411
1.07054
1.11083
1.20888
1.30396
1.39815
1.48612
1.58264
1.66458
1.72804
1.76093
1.78135
1.78808
1.77913
1.75775
1.72676
1.6833
1.64431
1.61315
1.60072
1.61005
1.62559
1.67256
1.73694
1.81041
1.85408
1.88093
1.90029
1.91631
1.92965
1.94154
1.95232
1.962
1.97093
1.97801
1.98375
1.99134
1.99534
2.00511
2.00952
2.01524
2.02031
2.01364
2.01564
2.02028
0.199841
0.199878
0.199856
0.199832
0.199797
0.199753
0.1997
0.199632
0.19955
0.199455
0.19934
0.199207
0.199056
0.198887
0.198688
0.198483
0.198249
0.197993
0.197708
0.197417
0.197131
0.196812
0.196455
0.196096
0.19574
0.195403
0.195068
0.194682
0.194318
0.194001
0.193651
0.193241
0.192872
0.192543
0.192232
0.191982
0.191731
0.191396
0.19098
0.190586
0.190261
0.189949
0.189698
0.189563
0.189536
0.189643
0.190115
0.190802
0.192603
0.194486
0.204282
0.464044
0.884372
0.910891
0.890749
0.903527
0.977924
1.14399
1.18963
1.21346
1.1331
1.13835
1.03838
0.993421
1.02937
1.00738
0.972569
0.985211
0.974752
0.990426
1.00865
1.03179
1.09827
1.1635
1.27437
1.36014
1.44178
1.51952
1.60578
1.6792
1.73189
1.76142
1.77985
1.78954
1.79311
1.78873
1.7814
1.76893
1.7508
1.72518
1.69434
1.6632
1.63979
1.62777
1.63649
1.64986
1.68844
1.74238
1.80699
1.84959
1.87572
1.89402
1.90891
1.92125
1.93247
1.94304
1.95312
1.96255
1.97023
1.9767
1.98502
1.98959
2.00035
2.00514
2.01136
2.01688
2.01019
2.0121
2.01706
0.199842
0.199878
0.199857
0.199831
0.199798
0.199757
0.199701
0.199634
0.199553
0.199456
0.199342
0.199206
0.199062
0.198896
0.198696
0.198476
0.198252
0.197999
0.197714
0.197415
0.197121
0.196792
0.196441
0.196093
0.195719
0.195363
0.195027
0.194654
0.194258
0.193897
0.193537
0.193141
0.192761
0.192422
0.192099
0.191859
0.191545
0.191188
0.190762
0.190421
0.190115
0.189829
0.189606
0.189439
0.189324
0.189223
0.189193
0.188913
0.188848
0.186976
0.191941
0.593907
0.915216
0.926259
0.90635
0.90209
0.910116
0.948091
1.08259
1.16091
1.17826
1.13479
1.07457
1.04586
1.04376
1.05082
1.01033
1.05305
1.05795
1.14024
1.20613
1.31227
1.3996
1.4846
1.56749
1.64098
1.70023
1.7363
1.75718
1.77392
1.78319
1.78866
1.79043
1.78702
1.78251
1.7779
1.77041
1.75889
1.74353
1.72426
1.70206
1.6788
1.66148
1.65362
1.65999
1.67306
1.706
1.74878
1.80418
1.84588
1.87145
1.88852
1.90225
1.91345
1.92385
1.93406
1.94395
1.95337
1.96156
1.96888
1.97761
1.9829
1.99465
1.99989
2.00674
2.0127
2.00631
2.0081
2.01325
0.199843
0.199879
0.199857
0.199834
0.1998
0.199757
0.199702
0.199635
0.199554
0.199456
0.199347
0.199215
0.199065
0.198896
0.198697
0.198486
0.198257
0.197998
0.19772
0.197426
0.197109
0.196768
0.196432
0.196084
0.195701
0.195324
0.194978
0.194617
0.194191
0.193796
0.193423
0.193032
0.192646
0.192297
0.191982
0.19173
0.191382
0.190946
0.190563
0.190244
0.189957
0.189695
0.189455
0.189194
0.188896
0.188552
0.187814
0.186651
0.184343
0.181452
0.179222
0.702672
0.919897
0.928125
0.916181
0.910461
0.898075
0.898295
0.97989
1.04095
1.19056
1.11951
1.15359
1.12882
1.10467
1.14459
1.16118
1.27423
1.34633
1.42544
1.50935
1.58794
1.65912
1.70697
1.73723
1.75822
1.77192
1.77827
1.77848
1.77957
1.77557
1.77772
1.78016
1.77616
1.77418
1.76824
1.76071
1.75079
1.73876
1.72382
1.70734
1.69086
1.67977
1.67559
1.68141
1.69355
1.72045
1.75544
1.80316
1.84238
1.86706
1.88323
1.89592
1.90615
1.91572
1.92532
1.93473
1.94392
1.95225
1.96029
1.96957
1.97568
1.9886
1.99437
2.00192
2.0083
2.00214
2.00379
2.00918
0.199844
0.19988
0.199859
0.199835
0.199801
0.199758
0.199704
0.199636
0.199557
0.199464
0.19935
0.199218
0.199067
0.198902
0.198707
0.198493
0.198259
0.197995
0.197726
0.197436
0.19711
0.196767
0.196411
0.196061
0.19569
0.195293
0.194917
0.194553
0.194145
0.193711
0.193308
0.192919
0.192523
0.192162
0.191844
0.191572
0.191206
0.190717
0.190356
0.190067
0.189828
0.189654
0.189491
0.189424
0.189282
0.189297
0.188988
0.189725
0.188759
0.19424
0.27147
0.819359
0.938847
0.939323
0.929878
0.921293
0.90375
0.900227
0.90682
0.937648
1.12671
1.21793
1.2745
1.26932
1.33855
1.39115
1.44615
1.54192
1.61123
1.66398
1.6988
1.72387
1.73983
1.75124
1.75918
1.76247
1.76472
1.76359
1.76492
1.76516
1.76419
1.76611
1.76577
1.7639
1.7622
1.7577
1.75199
1.74431
1.73498
1.72279
1.71097
1.70042
1.69372
1.69306
1.69891
1.70951
1.73105
1.76104
1.80178
1.83834
1.86244
1.87828
1.89005
1.89933
1.90812
1.91682
1.92557
1.93432
1.94252
1.95114
1.96081
1.96787
1.98188
1.98809
1.99638
2.00309
1.99734
1.99888
2.00434
0.199845
0.199881
0.19986
0.199836
0.199802
0.199758
0.199707
0.199641
0.199561
0.199466
0.199354
0.199224
0.199075
0.198905
0.198715
0.198502
0.198267
0.198006
0.197726
0.197433
0.197106
0.196759
0.196415
0.196041
0.195667
0.195275
0.194859
0.194467
0.19408
0.193655
0.193207
0.192792
0.192384
0.191999
0.191667
0.191358
0.190982
0.190503
0.190135
0.18985
0.189653
0.189536
0.189494
0.189505
0.189549
0.1898
0.190186
0.19125
0.192125
0.198969
0.435099
0.90937
0.948035
0.940109
0.933224
0.921606
0.913523
0.913255
0.931265
0.971389
1.16889
1.39425
1.47907
1.51744
1.57281
1.61166
1.65153
1.67943
1.70275
1.7176
1.73083
1.73842
1.74302
1.7429
1.74331
1.74586
1.74857
1.74841
1.75029
1.75018
1.75172
1.75072
1.75069
1.75028
1.74971
1.74659
1.74291
1.73757
1.73061
1.72199
1.71391
1.70742
1.70378
1.70448
1.71309
1.72244
1.74048
1.76665
1.80143
1.83482
1.85797
1.8734
1.88433
1.89289
1.90089
1.90885
1.9168
1.92497
1.93286
1.94167
1.95146
1.95955
1.97447
1.98129
1.99034
1.99743
1.99216
1.9936
1.99906
0.199847
0.199882
0.199861
0.199838
0.199803
0.199762
0.199709
0.199643
0.199564
0.19947
0.199359
0.199231
0.199083
0.198913
0.198723
0.19851
0.198276
0.198015
0.197739
0.197438
0.197109
0.196762
0.1964
0.196014
0.19565
0.195265
0.194809
0.194382
0.193991
0.193585
0.193117
0.192669
0.192255
0.191842
0.191485
0.191095
0.190685
0.190255
0.189896
0.189569
0.189312
0.189086
0.188983
0.188773
0.188545
0.188317
0.187857
0.188114
0.187043
0.191802
0.592342
0.934926
0.952696
0.946776
0.945602
0.938248
0.932964
0.944784
0.996226
1.12183
1.40517
1.60698
1.66255
1.6673
1.67913
1.68846
1.69635
1.70314
1.70676
1.70656
1.70772
1.71164
1.71477
1.71858
1.71903
1.72029
1.72282
1.72496
1.72833
1.73201
1.73589
1.73451
1.73516
1.73585
1.73624
1.73491
1.73287
1.72907
1.72488
1.72033
1.71637
1.71314
1.71101
1.71275
1.7207
1.73047
1.74658
1.77103
1.80054
1.83126
1.85319
1.86851
1.8788
1.88676
1.89399
1.9014
1.90838
1.91582
1.92332
1.93192
1.94193
1.9508
1.96644
1.97387
1.98366
1.99107
1.98632
1.98767
1.99302
0.199848
0.199883
0.199862
0.199839
0.199806
0.199764
0.199711
0.199647
0.199569
0.199475
0.199365
0.199238
0.199091
0.198922
0.198733
0.198521
0.198286
0.198027
0.197744
0.197445
0.197112
0.196756
0.196402
0.19601
0.195613
0.195225
0.194777
0.194311
0.19389
0.193484
0.19301
0.19253
0.192102
0.191736
0.191306
0.190789
0.190358
0.189959
0.189597
0.189224
0.188868
0.188513
0.18815
0.187566
0.186801
0.185641
0.184333
0.182146
0.179241
0.177157
0.69595
0.933126
0.946315
0.944441
0.946844
0.946962
0.94632
0.978946
1.10765
1.32962
1.61372
1.72581
1.71604
1.70942
1.70223
1.70003
1.69589
1.69172
1.6877
1.68315
1.68
1.67839
1.68075
1.68607
1.68857
1.69208
1.69668
1.70377
1.70713
1.71337
1.71518
1.71706
1.71778
1.71847
1.71903
1.71922
1.71922
1.71824
1.71761
1.71565
1.71503
1.71432
1.71476
1.71788
1.72577
1.73723
1.75144
1.77411
1.79985
1.82741
1.84825
1.86311
1.8736
1.88093
1.8874
1.89407
1.90029
1.90697
1.91391
1.92215
1.93226
1.94165
1.95787
1.96589
1.97645
1.98419
1.98011
1.98136
1.98657
0.19985
0.199884
0.199864
0.199841
0.199808
0.199767
0.199715
0.199651
0.199573
0.199481
0.199372
0.199246
0.199099
0.198932
0.198744
0.198532
0.198295
0.198041
0.197758
0.19745
0.197119
0.196764
0.196395
0.196003
0.195583
0.195178
0.194746
0.194265
0.193801
0.193367
0.192897
0.192389
0.19193
0.191553
0.191097
0.190516
0.190044
0.189631
0.18926
0.188906
0.18868
0.188345
0.188025
0.187689
0.187489
0.187126
0.187775
0.187004
0.192187
0.27723
0.831573
0.940424
0.942792
0.942586
0.946751
0.961014
0.980909
1.0634
1.31168
1.56594
1.74154
1.74549
1.71898
1.70646
1.69522
1.68636
1.67966
1.67506
1.66965
1.66502
1.65998
1.65537
1.65375
1.65464
1.6575
1.66032
1.66632
1.67199
1.67696
1.68175
1.68731
1.69267
1.69617
1.69918
1.70171
1.70455
1.70641
1.70706
1.70755
1.70751
1.70818
1.71006
1.7134
1.71809
1.72625
1.74089
1.75557
1.77596
1.79892
1.82343
1.84316
1.85763
1.86802
1.87527
1.88111
1.88703
1.89246
1.89826
1.90463
1.91235
1.92251
1.93216
1.94884
1.95743
1.96877
1.97684
1.97338
1.97457
1.97965
0.199851
0.199885
0.199865
0.199843
0.19981
0.19977
0.199718
0.199655
0.199578
0.199487
0.199379
0.199254
0.199109
0.198943
0.198756
0.198546
0.198311
0.198054
0.197771
0.197461
0.19713
0.196765
0.196397
0.196011
0.195572
0.195127
0.194702
0.194249
0.193729
0.193233
0.192768
0.192284
0.191778
0.19131
0.190822
0.190281
0.189723
0.189233
0.188796
0.188406
0.188103
0.187752
0.187309
0.186836
0.186534
0.185933
0.186061
0.185132
0.192284
0.445677
0.886164
0.93288
0.931752
0.934158
0.94011
0.968719
1.05942
1.23369
1.54837
1.73485
1.75114
1.72059
1.7029
1.68713
1.6759
1.66927
1.66309
1.65933
1.65526
1.65147
1.64657
1.64101
1.63554
1.6314
1.62998
1.63041
1.63304
1.6399
1.64508
1.6536
1.66095
1.66888
1.67466
1.67734
1.68055
1.68387
1.68747
1.69098
1.69433
1.69717
1.70069
1.70429
1.70855
1.71583
1.72466
1.74023
1.75552
1.77516
1.79629
1.81904
1.8375
1.85185
1.86233
1.86983
1.87506
1.88022
1.88472
1.8897
1.89544
1.90258
1.91272
1.92235
1.93937
1.94847
1.96061
1.96897
1.96625
1.96739
1.97243
0.199853
0.199887
0.199867
0.199845
0.199813
0.199773
0.199722
0.19966
0.199584
0.199494
0.199387
0.199263
0.19912
0.198956
0.19877
0.198561
0.198328
0.198071
0.197788
0.197475
0.197147
0.196785
0.196397
0.196014
0.195575
0.195104
0.194658
0.194206
0.193666
0.193128
0.192618
0.192175
0.191671
0.191101
0.190538
0.190006
0.189421
0.188877
0.18838
0.187927
0.187499
0.187176
0.186662
0.186023
0.185182
0.183876
0.182212
0.179708
0.181638
0.635827
0.901559
0.924691
0.925324
0.933141
0.952107
1.00671
1.24243
1.49941
1.72015
1.74934
1.71901
1.70008
1.68145
1.66826
1.65823
1.65151
1.64579
1.642
1.63793
1.63424
1.62995
1.62516
1.62077
1.61526
1.61078
1.60747
1.60759
1.61105
1.61595
1.62491
1.63108
1.64129
1.64902
1.65516
1.66104
1.66682
1.67233
1.67791
1.68281
1.6869
1.69044
1.695
1.70188
1.71046
1.72041
1.73605
1.75191
1.77196
1.79322
1.81428
1.83173
1.8459
1.85639
1.86399
1.86907
1.87344
1.87705
1.88128
1.88634
1.89285
1.90289
1.9123
1.9295
1.93906
1.95207
1.96065
1.9587
1.95987
1.96487
0.199855
0.199888
0.199869
0.199847
0.199816
0.199776
0.199726
0.199665
0.19959
0.199501
0.199396
0.199274
0.199132
0.198971
0.198786
0.198579
0.198349
0.198092
0.19781
0.1975
0.19716
0.196809
0.196416
0.196004
0.195574
0.195098
0.194633
0.194157
0.193599
0.193032
0.192494
0.192042
0.191541
0.190943
0.190277
0.189684
0.189119
0.188526
0.187979
0.187417
0.186917
0.186536
0.186064
0.185581
0.184799
0.184647
0.182813
0.186198
0.248375
0.771924
0.894766
0.907041
0.920137
0.934163
1.01055
1.14569
1.48295
1.69593
1.74412
1.71459
1.6947
1.67635
1.6622
1.65281
1.64569
1.63994
1.63476
1.63049
1.62608
1.62221
1.61784
1.61339
1.60908
1.60346
1.59692
1.59129
1.58883
1.58767
1.59098
1.59688
1.60366
1.61494
1.62354
1.63217
1.63872
1.64442
1.65063
1.65748
1.66413
1.67051
1.67678
1.68477
1.69239
1.70113
1.71319
1.72899
1.74593
1.76719
1.7887
1.80893
1.82577
1.83959
1.85016
1.85792
1.86303
1.86643
1.86933
1.8729
1.8773
1.88324
1.89299
1.90201
1.91928
1.92918
1.94307
1.95184
1.95074
1.95198
1.95689
0.199857
0.19989
0.199871
0.19985
0.199819
0.19978
0.19973
0.19967
0.199597
0.19951
0.199406
0.199286
0.199146
0.198987
0.198805
0.198601
0.198372
0.198118
0.197837
0.197529
0.197189
0.196831
0.196451
0.196025
0.195574
0.195093
0.194626
0.194116
0.193527
0.192957
0.1924
0.191926
0.191383
0.190747
0.190057
0.189442
0.188857
0.188316
0.187817
0.187455
0.1871
0.186839
0.186632
0.186644
0.186768
0.187714
0.187971
0.197431
0.554714
0.887641
0.904245
0.904424
0.930711
0.973782
1.16513
1.44417
1.68357
1.74053
1.7102
1.68944
1.66985
1.65524
1.64398
1.63564
1.62849
1.62293
1.61867
1.61473
1.61183
1.60783
1.60471
1.60099
1.5972
1.59228
1.58632
1.58103
1.57535
1.57075
1.57222
1.57406
1.57785
1.58649
1.59441
1.60611
1.61441
1.62273
1.63084
1.63975
1.64852
1.65622
1.66402
1.67133
1.68004
1.691
1.70383
1.72059
1.73858
1.76082
1.78282
1.80309
1.81946
1.83308
1.84361
1.85148
1.8563
1.85932
1.86166
1.86458
1.86833
1.87373
1.88305
1.89154
1.90865
1.91889
1.93357
1.9426
1.94235
1.94372
1.94855
0.199859
0.199892
0.199873
0.199852
0.199822
0.199784
0.199735
0.199676
0.199604
0.199519
0.199418
0.1993
0.199162
0.199006
0.198827
0.198626
0.1984
0.198149
0.19787
0.197561
0.197229
0.19687
0.196476
0.196039
0.195597
0.195152
0.194658
0.194079
0.193481
0.192894
0.192326
0.191825
0.191217
0.190464
0.189818
0.189191
0.188615
0.188073
0.187597
0.187045
0.186446
0.185437
0.184553
0.18331
0.181907
0.179553
0.176754
0.178864
0.703506
0.893278
0.910627
0.917256
0.957881
1.10269
1.41119
1.65732
1.73925
1.70927
1.68674
1.66591
1.6492
1.63701
1.62669
1.6189
1.61319
1.60813
1.60446
1.60114
1.59899
1.59547
1.59309
1.58928
1.58567
1.5817
1.57692
1.57235
1.56584
1.55992
1.55745
1.55554
1.55692
1.56266
1.56973
1.58101
1.58991
1.59922
1.60782
1.61611
1.62584
1.6355
1.64541
1.65582
1.66762
1.68033
1.6941
1.71017
1.72974
1.75273
1.7759
1.79653
1.81275
1.8262
1.83683
1.84473
1.84947
1.85244
1.854
1.85624
1.85927
1.86423
1.87299
1.88087
1.89768
1.90818
1.92333
1.93278
1.93361
1.9351
1.93986
0.199861
0.199894
0.199876
0.199855
0.199825
0.199788
0.199741
0.199683
0.199613
0.199529
0.19943
0.199315
0.199181
0.199027
0.198852
0.198654
0.198432
0.198184
0.197906
0.197602
0.197281
0.196918
0.196515
0.196076
0.195645
0.195198
0.194678
0.194057
0.193468
0.19287
0.192351
0.191718
0.190941
0.190192
0.189543
0.188955
0.1885
0.188115
0.187606
0.187109
0.186496
0.186133
0.186435
0.186871
0.188359
0.189429
0.202955
0.40377
0.85955
0.910505
0.915685
0.967654
1.07563
1.39043
1.62997
1.72991
1.70069
1.67689
1.65366
1.63762
1.6246
1.61558
1.60833
1.6031
1.59847
1.594
1.59099
1.58771
1.58526
1.58294
1.58049
1.57742
1.57425
1.57158
1.56768
1.5637
1.55799
1.55243
1.54631
1.5412
1.54155
1.54319
1.54755
1.55603
1.5642
1.576
1.5851
1.5948
1.60639
1.61797
1.62997
1.641
1.65204
1.66504
1.68044
1.69864
1.71955
1.74327
1.76745
1.78861
1.80508
1.81864
1.82945
1.83751
1.84237
1.8455
1.8463
1.84796
1.85023
1.85474
1.86281
1.87003
1.88651
1.89713
1.91251
1.92262
1.92451
1.92611
1.93093
0.199864
0.199896
0.199878
0.199858
0.199829
0.199793
0.199747
0.199691
0.199622
0.199541
0.199444
0.199331
0.199201
0.199051
0.19888
0.198687
0.198468
0.198224
0.197947
0.197665
0.197341
0.19697
0.196567
0.196139
0.195734
0.19526
0.194667
0.194083
0.193487
0.192996
0.192372
0.191598
0.190722
0.189979
0.189328
0.18873
0.188416
0.187942
0.187231
0.186498
0.185198
0.184251
0.183324
0.182231
0.180542
0.178581
0.181459
0.651059
0.89224
0.918557
0.935978
1.06113
1.35186
1.61072
1.73222
1.70298
1.67515
1.64958
1.63057
1.61673
1.607
1.59933
1.59389
1.58892
1.58512
1.58087
1.57815
1.57491
1.57214
1.56985
1.56717
1.56498
1.5622
1.56016
1.55691
1.55388
1.54913
1.5443
1.5377
1.5313
1.52891
1.52705
1.52868
1.53451
1.54145
1.55302
1.5619
1.57256
1.58325
1.59511
1.60743
1.62008
1.6337
1.64938
1.66688
1.6867
1.70812
1.73187
1.75671
1.77899
1.79636
1.8104
1.82156
1.82991
1.83516
1.83841
1.83862
1.83978
1.84122
1.84516
1.85244
1.85902
1.87516
1.88576
1.90129
1.91209
1.915
1.91685
1.92159
0.199867
0.199898
0.199881
0.199862
0.199833
0.199798
0.199753
0.199699
0.199632
0.199553
0.199459
0.19935
0.199223
0.199078
0.198912
0.198724
0.198512
0.19827
0.198006
0.197735
0.197409
0.197032
0.196637
0.196255
0.195841
0.195308
0.194717
0.194141
0.19358
0.19314
0.19248
0.191456
0.190587
0.189806
0.189148
0.188519
0.188237
0.187701
0.186927
0.186109
0.185057
0.184529
0.184395
0.185332
0.185437
0.195913
0.329261
0.825406
0.908491
0.934006
1.04673
1.2889
1.59266
1.72153
1.69337
1.66533
1.63997
1.62215
1.61025
1.60271
1.59507
1.58708
1.58144
1.57657
1.5727
1.56917
1.56611
1.56264
1.55948
1.55735
1.55482
1.55315
1.55034
1.54849
1.54571
1.54347
1.53952
1.53535
1.53006
1.52436
1.51867
1.51401
1.51431
1.51715
1.52167
1.53109
1.5394
1.55099
1.56234
1.57444
1.58788
1.60256
1.61814
1.63474
1.6518
1.67168
1.69427
1.71922
1.74572
1.76931
1.78746
1.80191
1.81335
1.82207
1.82763
1.83086
1.83077
1.83153
1.83244
1.83545
1.84202
1.84788
1.86363
1.87424
1.88982
1.90144
1.90525
1.90729
1.91189
0.19987
0.199901
0.199884
0.199865
0.199838
0.199804
0.19976
0.199708
0.199643
0.199567
0.199476
0.199371
0.199248
0.199107
0.198944
0.19877
0.198562
0.198323
0.198077
0.197818
0.197485
0.197112
0.196738
0.196404
0.195976
0.195373
0.194811
0.194255
0.193759
0.193308
0.192594
0.191472
0.190593
0.189744
0.188978
0.188273
0.187821
0.187225
0.186291
0.185188
0.183549
0.182113
0.180733
0.178766
0.176822
0.181901
0.616678
0.886709
0.921478
1.02841
1.29724
1.56875
1.72882
1.69758
1.66681
1.63854
1.61872
1.60392
1.59402
1.58514
1.57789
1.57131
1.56641
1.56143
1.55674
1.55295
1.54951
1.54749
1.54498
1.54351
1.54162
1.54036
1.53797
1.53632
1.5347
1.53223
1.52933
1.52565
1.52156
1.517
1.51039
1.50421
1.50279
1.50209
1.50436
1.51182
1.5185
1.53059
1.54083
1.5534
1.56669
1.58114
1.59694
1.61442
1.63352
1.65528
1.67998
1.70663
1.73423
1.75896
1.77815
1.79317
1.80504
1.81419
1.81993
1.8232
1.82305
1.82342
1.82375
1.82574
1.83133
1.83657
1.8519
1.86249
1.87822
1.89057
1.89502
1.89738
1.9016
0.199873
0.199903
0.199887
0.199869
0.199843
0.19981
0.199768
0.199717
0.199655
0.199582
0.199495
0.199394
0.199276
0.199139
0.198984
0.198821
0.198616
0.198386
0.198159
0.197913
0.197571