/*--------------------------------*- C++ -*----------------------------------*\
| =========                 |                                                 |
| \\      /  F ield         | OpenFOAM: The Open Source CFD Toolbox           |
|  \\    /   O peration     | Version:  2.2.x                                 |
|   \\  /    A nd           | Web:      www.OpenFOAM.org                      |
|    \\/     M anipulation  |                                                 |
\*---------------------------------------------------------------------------*/
FoamFile
{
    version     2.0;
    format      ascii;
    class       volVectorField;
    location    "0.5";
    object      U;
}
// * * * * * * * * * * * * * * * * * * * * * * * * * * * * * * * * * * * * * //

dimensions      [0 1 -1 0 0 0 0];

internalField   nonuniform List<vector> 
14161
(
(1.5 -2.26773e-16 -2.34905e-37)
(1.5 -1.20378e-18 -1.10849e-22)
(1.5 -2.37003e-17 -1.10849e-22)
(1.5 5.21973e-16 -1.10849e-22)
(1.5 8.7746e-16 -1.10849e-22)
(1.5 9.53273e-16 -2.23243e-22)
(1.5 9.22776e-16 5.83238e-23)
(1.5 2.79338e-16 -5.44789e-23)
(1.5 -1.44162e-16 3.0215e-23)
(1.5 -1.51669e-16 -9.69078e-23)
(1.5 -1.83155e-16 -1.03919e-22)
(1.5 -5.18565e-16 -1.03731e-22)
(1.5 -4.0138e-16 -1.59781e-22)
(1.5 -1.0163e-15 -4.68308e-23)
(1.5 -4.29088e-16 -1.03245e-22)
(1.5 8.02505e-18 -1.03208e-22)
(1.5 4.71279e-16 -1.59309e-22)
(1.5 3.12433e-16 -1.59526e-22)
(1.5 -1.80463e-16 -1.59747e-22)
(1.5 6.89053e-17 -2.16203e-22)
(1.5 -9.95587e-17 -2.16615e-22)
(1.5 -3.52983e-16 -1.61482e-22)
(1.5 -2.426e-16 -1.90142e-22)
(1.5 -4.60215e-17 -1.9096e-22)
(1.5 -2.84465e-16 -2.46748e-22)
(1.5 3.68437e-16 -2.19453e-22)
(1.5 3.62574e-16 -2.19974e-22)
(1.5 3.18604e-16 -2.20463e-22)
(1.5 -1.76119e-17 -2.21013e-22)
(1.5 -2.55145e-16 -2.21389e-22)
(1.5 -3.4503e-16 -1.80671e-22)
(1.5 -2.95873e-16 -1.94748e-22)
(1.5 -1.34609e-16 -1.95035e-22)
(1.5 -3.10783e-16 -1.95281e-22)
(1.5 -4.49834e-16 -1.88604e-22)
(1.5 -4.15146e-16 -1.95532e-22)
(0.656966 -0.00755716 -2.10201e-22)
(0.495065 -0.002429 -2.1638e-22)
(0.493699 -0.000366784 -2.19221e-22)
(0.491116 0.00107461 -1.52977e-22)
(0.487218 0.00222669 -1.50567e-22)
(0.482476 0.00305711 -1.47218e-22)
(0.477369 0.00353955 -1.4413e-22)
(0.472277 0.00372288 -4.11681e-24)
(0.467435 0.00370561 -2.12232e-22)
(0.462774 0.00366653 9.72266e-22)
(0.458313 0.0034903 9.66887e-22)
(0.454124 0.00331232 2.05658e-21)
(0.450163 0.00318422 3.11488e-21)
(0.446377 0.00312452 3.06606e-21)
(0.442714 0.0031319 4.15689e-21)
(0.439129 0.00319312 5.15345e-21)
(0.435588 0.00328963 6.16689e-21)
(0.432067 0.00340249 6.08427e-21)
(0.428552 0.00351567 6.00804e-21)
(0.425033 0.00361772 5.95545e-21)
(0.421506 0.00370234 5.9051e-21)
(0.417967 0.00376797 5.85608e-21)
(0.41441 0.00381685 5.6669e-21)
(0.41083 0.00385356 5.74719e-21)
(0.407221 0.00388361 5.7026e-21)
(0.403576 0.00391201 5.66237e-21)
(0.399888 0.0039426 4.27814e-21)
(0.396151 0.00397878 4.53688e-21)
(0.392357 0.00402547 4.53261e-21)
(0.38849 0.00408388 3.43586e-21)
(0.384559 0.00414696 3.43063e-21)
(0.380565 0.00421119 3.42545e-21)
(0.376514 0.0042748 3.69809e-21)
(0.372409 0.004337 3.13783e-21)
(0.368256 0.00439745 3.41369e-21)
(0.36406 0.00445599 3.9752e-21)
(0.359825 0.00451252 4.54382e-21)
(0.355557 0.00456697 3.38649e-21)
(0.351261 0.00461925 4.25773e-21)
(0.346943 0.00466932 3.66411e-21)
(0.342604 0.00471711 3.67837e-21)
(0.338249 0.0047626 3.67354e-21)
(0.333877 0.00480568 3.66784e-21)
(0.329487 0.00484624 4.28647e-21)
(0.325075 0.00488403 4.2788e-21)
(0.320635 0.00491871 3.62124e-21)
(0.31616 0.00494975 3.60702e-21)
(0.311641 0.00497651 3.58807e-21)
(0.30707 0.0049981 3.56279e-21)
(0.302439 0.00501341 2.12917e-21)
(0.297742 0.00502124 1.36627e-21)
(0.292978 0.00502025 2.04258e-21)
(0.288146 0.00500911 4.67231e-22)
(0.283252 0.00498651 1.91709e-21)
(0.278306 0.00495129 1.80877e-21)
(0.273321 0.00490247 1.68078e-21)
(0.268314 0.00483928 -1.39521e-22)
(0.263308 0.00476124 1.40673e-21)
(0.258325 0.00466814 1.22243e-21)
(0.253392 0.00456014 1.02174e-21)
(0.248534 0.00443785 8.06585e-22)
(0.243778 0.00430245 5.78678e-22)
(0.239146 0.00415598 3.39373e-22)
(0.23466 0.00400156 -1.40894e-21)
(0.230332 0.00384387 2.40902e-21)
(0.226168 0.00368959 2.14236e-21)
(0.222164 0.003548 -2.46971e-22)
(0.2183 0.00343165 -5.21348e-22)
(0.214538 0.00335718 -7.94069e-22)
(0.210818 0.00334616 1.14922e-21)
(0.207053 0.00342614 -5.78538e-21)
(0.203121 0.00363176 -8.26158e-21)
(0.198862 0.00400597 -6.18617e-21)
(0.194067 0.00460115 -6.35466e-21)
(0.188476 0.00548011 -4.17356e-21)
(0.181769 0.00671625 -6.63158e-21)
(0.173567 0.00839251 -6.70206e-21)
(0.163429 0.0105977 -1.65517e-20)
(0.15087 0.0134186 -6.26594e-21)
(0.135376 0.0169256 -6.22732e-21)
(0.116454 0.021143 -3.02024e-20)
(0.0937186 0.026017 -2.98651e-20)
(0.0808058 0.0844316 -2.93751e-20)
(1.5 -2.03046e-16 -3.14124e-38)
(1.5 -2.26106e-16 4.38944e-22)
(1.5 -7.15398e-17 5.46975e-22)
(1.5 4.54737e-16 3.24521e-22)
(1.5 1.1309e-15 3.23409e-22)
(1.5 1.10834e-15 3.77452e-22)
(1.5 1.14507e-15 3.14945e-22)
(1.5 4.0607e-16 3.14147e-22)
(1.5 -9.28248e-17 3.95719e-22)
(1.5 -1.79375e-16 2.98593e-22)
(1.5 -3.81098e-16 3.0546e-22)
(1.5 -7.64527e-16 3.03218e-22)
(1.5 -5.26827e-16 4.09536e-22)
(1.5 -9.60127e-16 2.92814e-23)
(1.5 -2.52515e-16 -1.31536e-22)
(1.5 6.34472e-17 -7.69243e-23)
(1.5 4.91797e-16 -7.62017e-23)
(1.5 2.8951e-16 -2.88821e-22)
(1.5 -9.4212e-17 -2.85365e-22)
(1.5 -2.03831e-16 -4.94173e-22)
(1.5 -3.24145e-16 -4.4038e-22)
(1.5 -4.89206e-16 -4.94237e-22)
(1.5 -3.22641e-16 -6.50607e-22)
(1.5 1.41348e-16 -6.51572e-22)
(1.5 7.18994e-17 -4.47968e-22)
(1.5 5.47952e-16 -4.52427e-22)
(1.5 5.45861e-16 -5.60227e-22)
(1.5 7.03655e-16 -5.6473e-22)
(1.5 4.45323e-16 -6.45489e-22)
(1.5 1.94598e-16 -5.45768e-22)
(1.5 -3.97462e-16 -6.76043e-22)
(1.5 -4.17955e-16 -6.01534e-22)
(1.5 -5.30195e-17 -6.0356e-22)
(1.5 -3.10044e-17 -6.55822e-22)
(1.5 -4.27798e-16 -6.63434e-22)
(1.5 -4.78436e-16 -6.39004e-22)
(0.607601 0.00319215 -8.59185e-22)
(0.446184 0.00330818 -6.84036e-22)
(0.434805 0.00343502 -6.78979e-22)
(0.426743 0.00378227 -4.57034e-22)
(0.420683 0.00417419 -7.52582e-22)
(0.416094 0.00448468 -6.08167e-22)
(0.412468 0.00466227 -6.15581e-22)
(0.409394 0.00472094 -7.69967e-22)
(0.406591 0.004712 -7.75249e-22)
(0.403839 0.0041169 -2.09443e-21)
(0.400955 0.00397031 7.32169e-23)
(0.397835 0.00394137 -7.42044e-22)
(0.394498 0.00397268 -4.22946e-21)
(0.390987 0.00405205 -4.08702e-21)
(0.387354 0.00417082 -5.16342e-21)
(0.383649 0.00431862 -7.99026e-21)
(0.379908 0.00448436 -1.02021e-20)
(0.376151 0.00465755 -9.41431e-21)
(0.372378 0.00482931 -9.84506e-21)
(0.36858 0.00499304 -6.14499e-21)
(0.364736 0.00514482 -6.07389e-21)
(0.360827 0.00528336 -6.03759e-21)
(0.356834 0.00540943 -7.82029e-21)
(0.352743 0.00552476 -1.02129e-20)
(0.348552 0.0056307 -8.9847e-21)
(0.344273 0.00572944 -1.14217e-20)
(0.339914 0.00582656 -1.01933e-20)
(0.335479 0.00592663 -7.72413e-21)
(0.330982 0.00603283 -1.14537e-20)
(0.326448 0.0061464 -6.42771e-21)
(0.32188 0.00626289 -6.40351e-21)
(0.317286 0.00638016 -5.09163e-21)
(0.312674 0.00649711 -7.63943e-21)
(0.308052 0.00661323 -8.24076e-21)
(0.303424 0.00672824 -8.8326e-21)
(0.298799 0.00684193 -8.07392e-21)
(0.29418 0.00695407 -8.64185e-21)
(0.289574 0.00706439 -8.5289e-21)
(0.284986 0.00717255 -8.04697e-21)
(0.280419 0.0072782 -7.90664e-21)
(0.275876 0.00738095 -7.95233e-21)
(0.271357 0.00748035 -7.78048e-21)
(0.266861 0.00757591 -7.59474e-21)
(0.262384 0.00766705 -5.88175e-21)
(0.257917 0.00775309 -7.22243e-21)
(0.253453 0.00783325 -7.00193e-21)
(0.248977 0.00790662 -3.54656e-21)
(0.244478 0.00797223 -3.37573e-21)
(0.239939 0.00802883 -6.58446e-21)
(0.235345 0.00807507 -1.17292e-21)
(0.230683 0.00810954 -8.21851e-21)
(0.225938 0.0081308 -4.27324e-21)
(0.221099 0.00813744 5.28394e-21)
(0.216158 0.0081282 -5.481e-22)
(0.211106 0.00810195 -3.91612e-22)
(0.205938 0.00805783 -1.78299e-22)
(0.200654 0.0079952 -8.60723e-21)
(0.19525 0.00791365 -8.15661e-21)
(0.189726 0.00781302 1.51816e-21)
(0.184083 0.00769334 -3.07075e-21)
(0.178321 0.0075549 -2.76799e-21)
(0.17244 0.00739833 -7.67977e-21)
(0.166437 0.00722469 3.45479e-21)
(0.160312 0.00703581 2.73308e-21)
(0.154062 0.0068346 2.7831e-21)
(0.147685 0.00662559 -1.56889e-20)
(0.141179 0.00641561 -1.54354e-20)
(0.134547 0.00621468 -5.05617e-21)
(0.12779 0.00603722 -1.22458e-20)
(0.120917 0.00590348 -4.53642e-21)
(0.113935 0.00584136 3.26571e-21)
(0.106857 0.00588857 1.96888e-20)
(0.0996885 0.00609504 1.93714e-20)
(0.0924319 0.00652542 4.3824e-22)
(0.0850736 0.00726125 2.02504e-20)
(0.0775777 0.00840211 3.98048e-20)
(0.0698763 0.0100645 3.69478e-20)
(0.0618613 0.0123771 5.51169e-20)
(0.0533787 0.0154696 4.65735e-20)
(0.04423 0.0194513 9.02733e-21)
(0.0341857 0.024372 5.23773e-20)
(0.0230314 0.0301797 1.59414e-20)
(0.0217152 0.0950782 -2.16339e-20)
(1.5 -2.3007e-16 2.18062e-22)
(1.5 -4.08839e-16 -2.16865e-22)
(1.5 8.43177e-17 -3.22521e-22)
(1.5 4.53782e-16 -3.20437e-22)
(1.5 1.46048e-15 -2.1026e-22)
(1.5 1.66322e-15 -2.64423e-22)
(1.5 1.34069e-15 -2.58427e-22)
(1.5 6.64961e-16 -2.59483e-22)
(1.5 -8.45426e-17 -1.00727e-22)
(1.5 -4.18388e-16 -1.037e-22)
(1.5 -9.47824e-16 3.11859e-22)
(1.5 -9.27546e-16 -3.29442e-22)
(1.5 -8.82286e-16 -2.32927e-22)
(1.5 -7.99486e-16 -3.45562e-23)
(1.5 -4.00371e-16 1.68623e-22)
(1.5 -2.38313e-16 6.30788e-23)
(1.5 6.52714e-17 5.90355e-23)
(1.5 1.49206e-16 -4.86676e-23)
(1.5 -1.56602e-16 3.3502e-22)
(1.5 -4.97057e-16 1.26606e-22)
(1.5 -1.78733e-16 -2.73589e-22)
(1.5 -8.89554e-17 -7.11806e-22)
(1.5 -9.61357e-18 -4.57311e-22)
(1.5 3.12275e-16 -8.375e-22)
(1.5 2.84048e-16 -1.40653e-21)
(1.5 5.22625e-16 -1.39183e-21)
(1.5 7.98602e-16 -1.51817e-21)
(1.5 1.07465e-15 -1.63921e-21)
(1.5 1.15719e-15 -1.56982e-21)
(1.5 8.92983e-16 -1.36338e-21)
(1.5 2.76782e-16 -1.39801e-21)
(1.5 9.75025e-17 -1.33873e-21)
(1.5 8.94517e-17 -1.42315e-21)
(1.5 3.06744e-16 -1.31942e-21)
(1.5 -1.88597e-16 -1.40582e-21)
(1.5 -5.03014e-16 -1.35197e-21)
(0.660941 0.0104391 -1.10162e-21)
(0.492155 0.00836372 -1.18833e-21)
(0.487503 0.00781903 -1.21939e-21)
(0.482954 0.00769229 -1.24571e-21)
(0.478111 0.00765859 -1.257e-21)
(0.473178 0.00763137 -9.24796e-22)
(0.46831 0.00758989 -1.17301e-21)
(0.463612 0.00753816 -1.17777e-21)
(0.459172 0.00748819 -9.38506e-22)
(0.455038 0.00802473 2.89991e-21)
(0.450875 0.00825925 5.26201e-21)
(0.446738 0.00845524 8.48246e-21)
(0.442684 0.00866304 1.02046e-20)
(0.438748 0.00888739 1.04581e-20)
(0.434949 0.00912486 8.72163e-21)
(0.43129 0.00937207 1.14214e-20)
(0.42776 0.0096264 1.11487e-20)
(0.424338 0.00988504 1.09393e-20)
(0.420994 0.0101443 1.17144e-20)
(0.417694 0.0103999 5.79529e-21)
(0.414404 0.0106481 5.78172e-21)
(0.411091 0.0108861 9.12294e-22)
(0.407725 0.011113 2.8912e-21)
(0.404274 0.011329 2.88741e-21)
(0.400707 0.0115343 -3.01301e-21)
(0.396984 0.0117274 2.89444e-21)
(0.393095 0.0119084 2.87219e-21)
(0.389044 0.0120785 -5.06999e-21)
(0.384832 0.0122377 -5.11034e-21)
(0.380461 0.0123865 -5.10855e-21)
(0.375937 0.0125256 -5.11799e-21)
(0.371265 0.0126549 -3.09825e-21)
(0.36645 0.0127747 -1.10626e-21)
(0.361498 0.0128856 -1.60453e-22)
(0.356415 0.0129883 -1.33255e-21)
(0.351206 0.0130837 6.75968e-22)
(0.345879 0.0131726 3.19326e-21)
(0.340442 0.013256 7.97162e-22)
(0.334904 0.0133346 7.46542e-22)
(0.329273 0.0134093 4.90538e-21)
(0.323557 0.0134808 1.63463e-22)
(0.317763 0.0135498 -4.85373e-23)
(0.311896 0.0136168 -1.44401e-21)
(0.30596 0.0136821 3.28168e-21)
(0.299955 0.0137458 -8.02849e-22)
(0.293881 0.0138079 -1.03036e-21)
(0.287735 0.0138679 -1.15147e-21)
(0.281511 0.0139251 4.10045e-21)
(0.275204 0.0139787 -1.90249e-21)
(0.268809 0.0140277 -7.59613e-21)
(0.262319 0.0140708 -1.90097e-21)
(0.25573 0.0141067 -1.42257e-20)
(0.24904 0.014134 -1.03011e-20)
(0.242246 0.0141517 -9.98891e-21)
(0.23535 0.0141588 -1.63644e-20)
(0.228354 0.0141544 -5.19726e-21)
(0.22126 0.0141382 -1.29025e-20)
(0.214073 0.0141099 2.43664e-21)
(0.206795 0.0140696 -5.65339e-21)
(0.19943 0.0140174 -9.79023e-21)
(0.19198 0.0139538 -7.80645e-22)
(0.184445 0.0138791 -5.70533e-21)
(0.17682 0.0137943 -9.90325e-21)
(0.169102 0.0137005 -9.17356e-21)
(0.161281 0.0135999 2.06486e-21)
(0.153347 0.0134954 1.02262e-21)
(0.145289 0.0133922 8.63711e-23)
(0.137095 0.0132977 -3.38962e-21)
(0.128753 0.0132236 -1.68978e-20)
(0.120258 0.013187 -2.29954e-20)
(0.111607 0.0132125 -2.12214e-20)
(0.102806 0.0133357 -5.03235e-20)
(0.0938708 0.0136062 -1.09741e-20)
(0.0848278 0.0140917 8.69095e-21)
(0.0757127 0.0148826 5.02733e-20)
(0.0665687 0.0160952 5.62829e-21)
(0.0574413 0.0178735 1.06792e-20)
(0.0483693 0.0203861 2.02546e-20)
(0.0393745 0.0238146 -2.77396e-20)
(0.0304485 0.0283287 1.62731e-19)
(0.0215406 0.0340357 1.66326e-19)
(0.0125608 0.040921 1.22899e-21)
(0.0108604 0.107813 -1.99134e-20)
(1.5 -5.14597e-17 -2.16065e-22)
(1.5 -2.19492e-16 8.70116e-25)
(1.5 3.06473e-16 3.22183e-22)
(1.5 5.93219e-16 3.22359e-22)
(1.5 1.47479e-15 -9.99784e-23)
(1.5 2.25188e-15 -5.04464e-22)
(1.5 1.49887e-15 -4.81234e-22)
(1.5 8.51069e-16 -4.64404e-22)
(1.5 -6.76821e-16 -4.35843e-22)
(1.5 -1.34747e-15 -5.10914e-22)
(1.5 -1.70283e-15 -8.11741e-22)
(1.5 -1.31529e-15 -1.17033e-21)
(1.5 -1.15925e-15 -1.12133e-21)
(1.5 -1.06347e-15 -1.07475e-21)
(1.5 -3.27381e-16 -2.60396e-22)
(1.5 -6.26239e-17 -1.49481e-22)
(1.5 8.27875e-17 -3.07904e-22)
(1.5 3.72181e-17 -5.5923e-22)
(1.5 -2.84687e-16 -1.65156e-21)
(1.5 -3.62223e-16 -4.82749e-22)
(1.5 -1.66545e-16 -1.88272e-22)
(1.5 -8.53893e-17 2.8266e-22)
(1.5 -5.35797e-17 1.76383e-22)
(1.5 1.21774e-16 6.21398e-22)
(1.5 6.21076e-17 6.9638e-22)
(1.5 3.4251e-16 2.29267e-22)
(1.5 5.2704e-16 7.61956e-22)
(1.5 9.48359e-16 1.37004e-21)
(1.5 1.0677e-15 1.25523e-21)
(1.5 1.06639e-15 7.05309e-22)
(1.5 9.44511e-16 6.97138e-22)
(1.5 6.238e-16 6.88562e-22)
(1.5 2.55576e-16 6.8193e-22)
(1.5 1.40807e-16 6.73957e-22)
(1.5 4.4219e-19 7.54211e-22)
(1.5 -2.20355e-16 7.48862e-22)
(0.644264 0.00817754 4.68709e-22)
(0.475346 0.0101521 1.3382e-21)
(0.468904 0.0106557 1.32933e-21)
(0.463348 0.0109829 1.08052e-21)
(0.458209 0.0111753 1.02677e-21)
(0.453502 0.0112636 8.70313e-22)
(0.44916 0.0112941 1.2757e-21)
(0.445081 0.0113064 7.52093e-22)
(0.44117 0.0113219 2.37821e-22)
(0.437202 0.0113942 -3.04134e-21)
(0.433237 0.0115814 -2.99464e-21)
(0.429258 0.0118054 -1.04589e-20)
(0.42527 0.0120417 -1.13297e-20)
(0.421292 0.0122815 -1.02762e-20)
(0.417349 0.0125248 -1.30132e-20)
(0.413456 0.0127764 -9.94722e-21)
(0.40962 0.0130419 -1.35766e-20)
(0.405834 0.013324 -9.56551e-21)
(0.402086 0.0136212 -1.13869e-20)
(0.398357 0.0139287 -1.66029e-21)
(0.394626 0.0142401 2.21098e-21)
(0.390877 0.0145501 4.1443e-21)
(0.387095 0.0148563 6.1094e-21)
(0.383276 0.0151592 8.06812e-21)
(0.379419 0.0154614 1.40169e-20)
(0.375534 0.015766 1.79762e-20)
(0.371618 0.0160709 1.59297e-20)
(0.367671 0.0163738 2.58199e-20)
(0.363693 0.0166735 2.55855e-20)
(0.359685 0.0169692 2.93125e-20)
(0.35565 0.0172605 2.88794e-20)
(0.351588 0.0175468 2.63481e-20)
(0.347499 0.0178274 2.79324e-20)
(0.343381 0.0181016 1.69401e-20)
(0.339231 0.0183688 1.75607e-20)
(0.335046 0.0186281 1.7107e-20)
(0.330824 0.0188787 2.09797e-20)
(0.32656 0.0191197 1.6004e-20)
(0.322251 0.0193503 1.52907e-20)
(0.317891 0.0195699 1.50239e-20)
(0.313477 0.0197778 1.44068e-20)
(0.309002 0.0199737 1.3764e-20)
(0.304458 0.0201572 1.41954e-20)
(0.299836 0.0203282 1.01343e-20)
(0.295125 0.0204865 9.55575e-21)
(0.290312 0.0206319 8.9652e-21)
(0.285384 0.0207643 8.3711e-21)
(0.280326 0.0208836 8.10126e-21)
(0.275124 0.0209897 7.45465e-21)
(0.269766 0.0210825 1.70899e-20)
(0.264238 0.021162 4.77374e-21)
(0.258533 0.0212283 3.32843e-21)
(0.252641 0.0212818 2.56638e-20)
(0.246559 0.0213231 1.69649e-20)
(0.240286 0.0213531 2.67025e-20)
(0.233822 0.0213732 2.41231e-20)
(0.22717 0.021385 1.01518e-21)
(0.220334 0.0213902 8.14183e-21)
(0.213319 0.0213909 -7.52967e-21)
(0.206129 0.0213889 -1.89343e-20)
(0.198769 0.0213863 -1.72987e-20)
(0.191241 0.021385 -1.2151e-20)
(0.183545 0.0213867 -1.19287e-20)
(0.175678 0.0213935 -1.16595e-20)
(0.167636 0.0214076 -1.27054e-20)
(0.159413 0.0214318 -1.19924e-20)
(0.151 0.0214701 -1.08077e-20)
(0.142391 0.0215284 -1.55952e-20)
(0.133579 0.0216156 -2.15703e-20)
(0.124563 0.0217449 -9.0998e-21)
(0.115348 0.0219362 -1.03047e-20)
(0.105946 0.0222186 -5.33761e-22)
(0.0963822 0.0226345 -6.3914e-20)
(0.0866933 0.023244 1.39454e-20)
(0.0769291 0.0241303 -8.84432e-20)
(0.0671517 0.0254055 -3.03299e-20)
(0.0574316 0.0272146 -1.07468e-19)
(0.0478411 0.0297357 -1.15646e-19)
(0.0384446 0.033172 -3.23808e-20)
(0.0292848 0.0377278 -9.54806e-20)
(0.0203667 0.0435582 6.63174e-20)
(0.0116442 0.0507024 -9.30662e-20)
(0.0101383 0.114439 -7.62936e-20)
(1.5 1.19727e-16 -2.14595e-22)
(1.5 1.15622e-16 2.14399e-22)
(1.5 7.79979e-16 -4.19987e-22)
(1.5 9.44222e-16 4.17187e-22)
(1.5 1.34075e-15 7.95214e-22)
(1.5 1.87537e-15 1.94085e-21)
(1.5 1.45212e-15 1.73064e-21)
(1.5 4.37669e-16 9.35912e-22)
(1.5 -1.0845e-15 1.69986e-21)
(1.5 -1.85868e-15 1.45288e-21)
(1.5 -1.72321e-15 -3.0705e-22)
(1.5 -1.52828e-15 1.86533e-21)
(1.5 -1.24277e-15 1.74121e-21)
(1.5 -1.22503e-15 1.56636e-21)
(1.5 -2.69635e-16 6.46469e-22)
(1.5 5.12197e-18 5.05791e-22)
(1.5 -2.61202e-16 1.76686e-21)
(1.5 -2.34505e-16 1.68723e-21)
(1.5 -3.9703e-16 2.11622e-21)
(1.5 -5.23727e-16 4.7122e-22)
(1.5 -6.1574e-16 3.0611e-22)
(1.5 -6.97899e-16 1.56233e-22)
(1.5 -4.8991e-16 -5.74274e-22)
(1.5 -2.46576e-16 -7.55436e-22)
(1.5 -2.13714e-16 -4.80968e-22)
(1.5 -1.0021e-17 -1.9847e-22)
(1.5 2.03979e-16 -5.09917e-22)
(1.5 5.9306e-16 -9.81156e-22)
(1.5 7.61206e-16 -7.67523e-22)
(1.5 8.25061e-16 -5.70746e-23)
(1.5 7.76271e-16 -1.05997e-22)
(1.5 4.17022e-16 -2.36373e-22)
(1.5 5.80781e-17 -1.11308e-22)
(1.5 -6.55879e-17 -3.97516e-22)
(1.5 -7.09445e-17 -5.10732e-22)
(1.5 -2.58214e-16 -2.07882e-22)
(0.645482 0.0128925 -2.78047e-22)
(0.474011 0.0142979 -1.44004e-21)
(0.467302 0.0147625 -1.41075e-22)
(0.461608 0.0150078 -7.21852e-22)
(0.45638 0.0150285 -1.08627e-21)
(0.45163 0.0149347 -1.67877e-22)
(0.447291 0.0148429 7.4229e-22)
(0.44328 0.0148224 -1.06436e-21)
(0.439524 0.0148921 -1.01451e-21)
(0.43591 0.0150668 2.42904e-21)
(0.432264 0.0153875 3.25741e-21)
(0.428575 0.0157565 6.81252e-21)
(0.42487 0.0161306 -2.57115e-22)
(0.421176 0.0164921 -1.25668e-22)
(0.417514 0.0168407 1.75514e-21)
(0.4139 0.0171861 7.10423e-21)
(0.410334 0.0175403 1.06666e-20)
(0.40681 0.0179113 6.90753e-21)
(0.403309 0.0182997 6.82369e-21)
(0.399812 0.0186998 3.11676e-21)
(0.396295 0.0191026 3.1072e-21)
(0.392738 0.0194989 6.76137e-21)
(0.389128 0.0198829 6.79833e-21)
(0.385451 0.0202529 3.10781e-21)
(0.381695 0.0206099 -5.94479e-22)
(0.377853 0.0209566 3.25712e-21)
(0.373925 0.0212954 -4.19464e-22)
(0.369912 0.0216274 -3.93722e-21)
(0.365819 0.0219526 -3.58294e-21)
(0.361652 0.0222713 -6.90774e-21)
(0.357416 0.0225841 -6.27998e-21)
(0.353119 0.0228916 -5.61033e-21)
(0.348768 0.0231947 -2.87011e-21)
(0.344369 0.0234942 -4.33377e-21)
(0.339928 0.0237908 2.28839e-21)
(0.335452 0.0240847 -1.2542e-21)
(0.330945 0.024376 3.6348e-21)
(0.326412 0.0246644 1.23784e-20)
(0.321857 0.0249494 4.18451e-21)
(0.317283 0.0252303 4.698e-21)
(0.31269 0.0255063 -3.38909e-21)
(0.308076 0.0257766 1.71593e-20)
(0.303438 0.02604 1.03208e-20)
(0.298767 0.0262954 8.06794e-21)
(0.294054 0.0265417 -1.00823e-21)
(0.289285 0.0267777 4.41106e-21)
(0.284446 0.027002 1.89853e-20)
(0.27952 0.0272137 -1.37951e-21)
(0.274488 0.0274117 4.36537e-21)
(0.269334 0.0275953 3.67921e-22)
(0.264041 0.0277641 1.12174e-20)
(0.258594 0.027918 1.0463e-20)
(0.25298 0.0280574 1.19229e-20)
(0.24719 0.0281835 1.79612e-20)
(0.241215 0.0282979 1.29925e-20)
(0.235051 0.028403 3.83904e-20)
(0.228694 0.0285015 3.43189e-20)
(0.222144 0.0285967 3.78793e-20)
(0.215401 0.0286921 3.27081e-20)
(0.208464 0.0287914 4.06797e-20)
(0.201333 0.0288981 3.37948e-20)
(0.194008 0.0290156 2.82381e-20)
(0.186485 0.0291472 2.72484e-20)
(0.178761 0.0292957 5.51003e-21)
(0.170829 0.0294642 5.3053e-21)
(0.162683 0.0296555 2.32212e-20)
(0.154314 0.0298734 1.85214e-20)
(0.145715 0.0301222 1.36637e-20)
(0.136883 0.0304087 1.92564e-20)
(0.127816 0.0307426 -8.28508e-21)
(0.11852 0.0311391 1.60885e-20)
(0.109011 0.031621 1.36983e-20)
(0.0993139 0.0322228 -5.68208e-20)
(0.0894672 0.0329958 -7.24064e-20)
(0.0795229 0.0340137 -1.16761e-20)
(0.0695462 0.0353797 -1.66867e-20)
(0.0596127 0.0372336 3.17191e-20)
(0.049803 0.039755 -2.37592e-20)
(0.0401934 0.0431588 -2.78975e-20)
(0.0308434 0.0476727 -2.48714e-19)
(0.0217807 0.0534881 -4.01458e-20)
(0.0129857 0.0606944 -8.21276e-20)
(0.0118203 0.120378 -7.58894e-20)
(1.5 1.56413e-16 2.36375e-22)
(1.5 1.60656e-16 -5.16261e-23)
(1.5 1.1177e-15 2.87921e-22)
(1.5 1.64667e-15 -5.08691e-22)
(1.5 1.62162e-15 -2.00609e-21)
(1.5 9.50096e-16 -4.19576e-21)
(1.5 1.01487e-15 -3.77435e-21)
(1.5 2.0273e-16 -2.7067e-21)
(1.5 -9.11824e-16 -4.98044e-21)
(1.5 -1.68828e-15 -4.69157e-21)
(1.5 -1.6779e-15 -2.92622e-21)
(1.5 -1.52597e-15 -5.80384e-21)
(1.5 -1.45436e-15 -6.68333e-21)
(1.5 -1.03079e-15 -4.96494e-21)
(1.5 -6.01321e-16 -5.01226e-21)
(1.5 -6.76071e-16 -4.69111e-21)
(1.5 -7.52346e-16 -7.27885e-21)
(1.5 -5.6991e-16 -4.78786e-21)
(1.5 -5.18027e-16 -6.15349e-21)
(1.5 -4.76142e-16 -6.56133e-21)
(1.5 -5.48419e-16 -6.27976e-21)
(1.5 -6.63315e-16 -6.01036e-21)
(1.5 -4.72175e-16 -5.09536e-21)
(1.5 -5.9759e-16 -4.87075e-21)
(1.5 -6.39418e-16 -4.05818e-21)
(1.5 -3.45181e-16 -3.4454e-21)
(1.5 -6.68398e-17 -3.17532e-21)
(1.5 1.35662e-16 -3.22787e-21)
(1.5 5.13083e-16 -3.29316e-21)
(1.5 4.47938e-16 -3.53355e-21)
(1.5 4.69732e-16 -3.45262e-21)
(1.5 1.97374e-16 -3.68551e-21)
(1.5 -2.15823e-16 -3.60408e-21)
(1.5 -3.41354e-16 -3.68417e-21)
(1.5 -2.32156e-16 -3.61427e-21)
(1.5 -1.35736e-16 -3.55024e-21)
(0.658911 0.0152953 -2.72153e-21)
(0.481419 0.0179586 -2.82762e-21)
(0.475522 0.0188385 -3.63494e-21)
(0.470214 0.0192137 -4.43799e-21)
(0.465072 0.0191945 -4.83102e-21)
(0.460198 0.0189983 -4.7743e-21)
(0.455611 0.0188163 -3.10248e-21)
(0.451299 0.0187466 -4.57011e-21)
(0.447247 0.0188024 -2.69435e-21)
(0.44338 0.0193542 -9.13208e-21)
(0.439484 0.0198503 -4.18264e-21)
(0.435601 0.0203386 2.2822e-21)
(0.431759 0.0208058 8.68981e-21)
(0.427984 0.0212414 1.00525e-20)
(0.424291 0.0216514 8.08299e-21)
(0.420687 0.0220532 -2.20814e-21)
(0.417167 0.0224662 4.38344e-21)
(0.413714 0.0229029 -5.77314e-21)
(0.410302 0.0233653 -5.77394e-21)
(0.406904 0.0238469 -9.16893e-21)
(0.403489 0.024336 -1.24951e-20)
(0.400027 0.0248204 -1.244e-20)
(0.396491 0.0252907 -8.94091e-21)
(0.392865 0.0257428 -5.38816e-21)
(0.389142 0.0261776 -8.78342e-21)
(0.385317 0.0265974 -1.90626e-20)
(0.381389 0.0270045 -1.52981e-20)
(0.377359 0.0274002 -1.50581e-20)
(0.373231 0.0277845 -1.83478e-20)
(0.369009 0.0281574 -1.80645e-20)
(0.3647 0.0285191 -1.77358e-20)
(0.360308 0.0288702 -1.73583e-20)
(0.355839 0.0292116 -1.13742e-20)
(0.351299 0.0295446 -2.02744e-20)
(0.346695 0.0298703 -1.00812e-20)
(0.342032 0.0301898 -1.81199e-20)
(0.337317 0.0305037 -2.4223e-20)
(0.332557 0.0308129 -1.48866e-20)
(0.327756 0.0311178 -1.38174e-20)
(0.322922 0.0314189 -1.07399e-20)
(0.318057 0.0317162 -1.22542e-20)
(0.313164 0.0320099 -1.42782e-20)
(0.308242 0.0322998 -2.28303e-20)
(0.303288 0.0325852 -7.78324e-21)
(0.298296 0.0328657 -7.21865e-21)
(0.293257 0.0331403 -1.84653e-21)
(0.288159 0.033408 -1.33581e-20)
(0.282989 0.0336678 6.12997e-21)
(0.277733 0.0339187 1.06237e-20)
(0.272376 0.0341598 1.91433e-20)
(0.266904 0.0343906 1.8268e-20)
(0.261302 0.034611 1.73684e-20)
(0.255559 0.0348215 6.2687e-21)
(0.249665 0.0350233 -2.90638e-21)
(0.243612 0.0352182 -1.19245e-20)
(0.237393 0.035409 -2.81455e-20)
(0.231005 0.0355992 -1.98545e-20)
(0.224443 0.0357926 -1.1968e-20)
(0.217706 0.0359938 -5.69852e-21)
(0.210791 0.0362073 -1.87003e-20)
(0.203695 0.0364376 -1.09573e-20)
(0.196415 0.0366892 -5.03545e-21)
(0.188945 0.0369662 1.49777e-20)
(0.181278 0.0372723 -1.79376e-20)
(0.173406 0.0376109 3.51704e-20)
(0.165319 0.0379851 -2.44453e-21)
(0.157009 0.0383981 1.09978e-21)
(0.148466 0.0388534 -1.46481e-21)
(0.139683 0.0393558 -3.81256e-20)
(0.130659 0.0399122 1.02919e-20)
(0.121398 0.0405333 -1.09289e-20)
(0.111912 0.0412365 1.82119e-20)
(0.102223 0.0420491 7.67029e-20)
(0.0923663 0.0430136 -1.57464e-20)
(0.0823913 0.0441938 4.42486e-20)
(0.0723596 0.0456835 -1.01079e-19)
(0.0623453 0.0476148 -5.34089e-20)
(0.0524295 0.0501659 3.1555e-20)
(0.0426921 0.0535596 -7.56341e-20)
(0.0332003 0.0580426 6.51597e-20)
(0.0239938 0.0638339 -1.75088e-19)
(0.015072 0.0710598 -1.6101e-20)
(0.0142111 0.12676 2.59412e-20)
(1.5 4.55275e-16 1.60876e-21)
(1.5 3.25281e-16 1.7002e-21)
(1.5 9.30545e-16 1.37137e-21)
(1.5 1.53379e-15 1.15384e-21)
(1.5 1.51929e-15 4.00053e-21)
(1.5 4.29197e-16 5.14891e-21)
(1.5 3.09556e-16 3.45149e-21)
(1.5 -6.32563e-17 5.63835e-21)
(1.5 -1.04109e-15 3.85141e-21)
(1.5 -1.80289e-15 3.60447e-21)
(1.5 -1.65108e-15 3.21549e-21)
(1.5 -1.64121e-15 4.27568e-21)
(1.5 -1.40465e-15 5.24124e-21)
(1.5 -7.09513e-16 1.09147e-21)
(1.5 -6.76345e-16 -1.33783e-21)
(1.5 -9.48361e-16 -9.54675e-22)
(1.5 -1.13181e-16 8.31743e-22)
(1.5 -2.29841e-16 -5.01178e-23)
(1.5 -1.93952e-16 1.38845e-22)
(1.5 -2.44538e-16 1.84948e-21)
(1.5 -3.03228e-16 2.09875e-21)
(1.5 -7.21443e-16 2.28127e-21)
(1.5 -9.37788e-16 2.45091e-21)
(1.5 -9.41774e-16 2.62226e-21)
(1.5 -5.00862e-16 1.02295e-21)
(1.5 -3.21195e-16 8.38887e-22)
(1.5 -3.65654e-16 9.4496e-22)
(1.5 6.67369e-17 1.33684e-21)
(1.5 2.97711e-16 9.68942e-22)
(1.5 1.62287e-16 3.14358e-22)
(1.5 2.11047e-17 6.90598e-22)
(1.5 -2.43229e-16 1.04118e-21)
(1.5 -4.24517e-16 1.36208e-21)
(1.5 -6.06899e-16 1.52063e-21)
(1.5 -3.94727e-16 1.65202e-21)
(1.5 -4.3823e-17 1.90883e-21)
(0.654802 0.0177919 1.75848e-21)
(0.474676 0.0217125 2.70443e-21)
(0.46808 0.0229903 4.53544e-21)
(0.462553 0.0234953 6.32971e-21)
(0.457471 0.0234587 5.88787e-21)
(0.452816 0.0232035 3.99472e-21)
(0.448512 0.0229886 3.72625e-21)
(0.444476 0.0229359 3.45654e-21)
(0.440635 0.0230523 3.05137e-21)
(0.436824 0.0233923 3.02361e-21)
(0.433007 0.0239066 -3.25134e-21)
(0.429187 0.0244632 -1.26798e-20)
(0.425378 0.0249971 -1.5827e-20)
(0.421601 0.0254863 -2.19996e-20)
(0.417872 0.0259391 -2.17598e-20)
(0.414199 0.0263801 -2.47367e-20)
(0.410579 0.0268355 -2.12517e-20)
(0.407001 0.0273217 -1.46337e-20)
(0.403448 0.0278416 -1.7905e-20)
(0.399903 0.0283871 -2.1227e-20)
(0.396351 0.028945 -8.06247e-21)
(0.392778 0.0295027 -1.14377e-20)
(0.389172 0.0300513 -1.48449e-20)
(0.385523 0.0305862 -1.4856e-20)
(0.381825 0.0311074 -1.4878e-20)
(0.378073 0.0316174 -4.89208e-21)
(0.374266 0.0321187 1.64028e-21)
(0.370406 0.0326125 1.24836e-21)
(0.366494 0.0330985 7.63521e-21)
(0.362532 0.0335759 3.4129e-21)
(0.35852 0.0340437 2.71633e-21)
(0.354461 0.0345013 1.97948e-21)
(0.350355 0.0349487 -3.24518e-22)
(0.346202 0.0353858 -1.20847e-21)
(0.342004 0.0358128 -4.31745e-21)
(0.33776 0.0362297 -4.13567e-21)
(0.333472 0.0366365 -1.30653e-20)
(0.329139 0.0370332 -5.50367e-21)
(0.324763 0.0374198 -6.97655e-21)
(0.320345 0.0377965 -7.22939e-21)
(0.315882 0.0381635 -5.68376e-21)
(0.311373 0.038521 -4.43407e-21)
(0.306815 0.0388692 -9.98333e-21)
(0.302201 0.0392081 -9.75303e-21)
(0.297523 0.0395378 -9.47709e-21)
(0.292772 0.0398583 -8.65926e-21)
(0.287935 0.0401694 -9.13709e-21)
(0.283 0.0404712 -7.36944e-21)
(0.277954 0.0407636 2.15383e-20)
(0.272784 0.0410467 3.95321e-20)
(0.267477 0.0413211 1.8056e-20)
(0.262023 0.0415876 4.6764e-20)
(0.256412 0.0418477 2.1376e-20)
(0.250637 0.0421035 6.87866e-20)
(0.244693 0.042358 5.67633e-20)
(0.238576 0.0426147 5.46512e-20)
(0.232283 0.0428782 4.30331e-20)
(0.225813 0.0431534 3.42186e-20)
(0.219166 0.0434457 2.76532e-20)
(0.21234 0.0437605 1.95602e-20)
(0.205334 0.0441035 7.92114e-20)
(0.198145 0.0444798 5.05687e-20)
(0.190767 0.0448944 1.57616e-20)
(0.183194 0.0453515 3.89329e-20)
(0.175419 0.045855 -4.13457e-22)
(0.167431 0.0464081 3.14504e-20)
(0.15922 0.0470138 2.51409e-20)
(0.150778 0.0476747 2.82097e-20)
(0.142096 0.048394 1.34368e-20)
(0.133172 0.0491762 2.78704e-21)
(0.124005 0.0500286 -2.19918e-20)
(0.114607 0.0509635 5.47269e-20)
(0.104996 0.0520019 1.48894e-20)
(0.0952024 0.053178 4.8391e-21)
(0.0852704 0.0545462 1.76566e-20)
(0.0752571 0.0561903 1.44091e-19)
(0.0652325 0.0582342 -1.185e-19)
(0.0552761 0.0608523 -1.14477e-19)
(0.0454692 0.0642731 -2.54229e-20)
(0.035884 0.0687603 -4.20943e-20)
(0.0265686 0.0745554 -2.09929e-19)
(0.0175368 0.0818086 -1.25524e-19)
(0.0169228 0.133827 2.55434e-19)
(1.5 3.9396e-16 -1.94899e-21)
(1.5 6.79965e-16 -2.18966e-21)
(1.5 7.2253e-16 -2.22101e-21)
(1.5 9.26099e-16 -4.83193e-21)
(1.5 1.21516e-15 -6.25133e-21)
(1.5 8.03808e-16 -5.8672e-21)
(1.5 2.46056e-16 -3.85188e-21)
(1.5 -2.19563e-16 -6.44616e-21)
(1.5 -7.98913e-16 -5.68626e-21)
(1.5 -1.6204e-15 -5.61525e-21)
(1.5 -1.71325e-15 -4.85626e-21)
(1.5 -1.8468e-15 -4.28503e-21)
(1.5 -1.44716e-15 -1.08707e-21)
(1.5 -9.08417e-16 4.49404e-21)
(1.5 -4.55403e-16 7.10204e-21)
(1.5 -2.23026e-16 6.98812e-21)
(1.5 4.65021e-16 9.279e-21)
(1.5 5.55764e-16 6.71481e-21)
(1.5 4.2551e-16 8.00325e-21)
(1.5 -2.51669e-16 1.02978e-20)
(1.5 -7.99083e-16 7.91318e-21)
(1.5 -1.0404e-15 6.69476e-21)
(1.5 -1.24751e-15 6.71993e-21)
(1.5 -1.09247e-15 7.12801e-21)
(1.5 -5.04654e-16 9.44025e-21)
(1.5 -2.68529e-16 9.20007e-21)
(1.5 -3.95507e-16 8.99611e-21)
(1.5 -6.55691e-17 9.07896e-21)
(1.5 -1.91891e-16 9.54214e-21)
(1.5 -2.42392e-16 1.00213e-20)
(1.5 -4.17829e-16 9.74658e-21)
(1.5 -6.85068e-16 9.7849e-21)
(1.5 -6.35831e-16 9.53606e-21)
(1.5 -5.74111e-16 9.84558e-21)
(1.5 -5.37145e-16 9.31485e-21)
(1.5 -4.90267e-16 9.08049e-21)
(0.664804 0.0225497 7.58593e-21)
(0.477333 0.0265503 5.01945e-21)
(0.470718 0.0278003 5.23243e-21)
(0.465163 0.0282053 6.88689e-21)
(0.460011 0.0280035 7.06917e-21)
(0.45525 0.0275994 7.13705e-21)
(0.450823 0.0273054 5.04338e-21)
(0.446674 0.0272527 7.89105e-21)
(0.442766 0.027431 7.75522e-21)
(0.43901 0.0280192 1.97312e-21)
(0.435235 0.0286925 2.05715e-21)
(0.431465 0.0293769 2.14735e-21)
(0.427728 0.030017 -6.72865e-21)
(0.424045 0.0305948 8.43713e-21)
(0.420431 0.0311251 8.47722e-21)
(0.416886 0.0316399 1.4579e-20)
(0.413401 0.0321709 1.76257e-20)
(0.409956 0.0327364 1.45194e-20)
(0.406527 0.0333381 1.45091e-20)
(0.403088 0.0339636 2.69176e-20)
(0.399613 0.0345945 1.43581e-20)