/*--------------------------------*- C++ -*----------------------------------*\
| =========                 |                                                 |
| \\      /  F ield         | OpenFOAM: The Open Source CFD Toolbox           |
|  \\    /   O peration     | Version:  2.2.x                                 |
|   \\  /    A nd           | Web:      www.OpenFOAM.org                      |
|    \\/     M anipulation  |                                                 |
\*---------------------------------------------------------------------------*/
FoamFile
{
    version     2.0;
    format      ascii;
    class       surfaceScalarField;
    location    "2.25";
    object      cfmax;
}
// * * * * * * * * * * * * * * * * * * * * * * * * * * * * * * * * * * * * * //

dimensions      [0 3 -1 0 0 0 0];

internalField   nonuniform List<scalar> 
28084
(
0.00124808
0.00124186
0.00123731
0.00123353
0.0012305
0.00122814
0.00122644
0.00122536
0.00122484
0.00122482
0.00122528
0.00122616
0.00122742
0.00122899
0.00123079
0.00123284
0.00123509
0.00123755
0.00124004
0.00124254
0.00124503
0.0012475
0.00124994
0.00125233
0.00125466
0.00125676
0.00125869
0.00126047
0.00126203
0.00126337
0.00126441
0.00126522
0.00126573
0.00126597
0.00126576
0.00126526
0.00126413
0.001263
0.0012609
0.00125819
0.00125447
0.00125106
0.0012462
0.00124301
0.000831032
0.000765083
0.00077541
0.000794324
0.00081627
0.000840128
0.000860184
0.000881597
0.000903134
0.000923279
0.000942637
0.000961921
0.000980781
0.000998805
0.00101586
0.00103125
0.00104573
0.00105943
0.0010724
0.00108416
0.00109472
0.00110407
0.00111242
0.00111963
0.00112607
0.00113172
0.00113658
0.00114064
0.00114368
0.00114521
0.00114567
0.00114541
0.00114376
0.00114157
0.00113969
0.00113783
0.00113523
0.00113232
0.00112873
0.00112478
0.00112093
0.00111622
0.00111113
0.00110546
0.00109991
0.00109356
0.00108733
0.00108271
0.00107708
0.00107085
0.00106543
0.00105932
0.00105866
0.00105812
0.00106146
0.00107013
0.00109482
0.00112034
0.00115799
0.00118442
0.00119508
0.00120987
0.00122847
0.00123457
0.00116749
0.00109319
0.00105088
0.00102261
0.00100662
0.000996431
0.000987656
0.000975934
0.000960679
0.000927917
0.00289568
0.00288985
0.00125397
0.00287948
0.00125156
0.00286293
0.00125078
0.00284053
0.0012507
0.0028125
0.00125132
0.00277897
0.00125264
0.00274029
0.00125456
0.00269669
0.00125701
0.00264857
0.00125997
0.00259643
0.00126346
0.00254079
0.00126735
0.00248168
0.00127158
0.00241948
0.00127617
0.0023546
0.00128099
0.00228748
0.001286
0.00221854
0.00129116
0.00214815
0.0012965
0.00207664
0.00130193
0.00200438
0.00130733
0.00193172
0.00131266
0.001859
0.00131788
0.00178658
0.00132299
0.00171468
0.00132799
0.00164359
0.00133284
0.00157346
0.00133754
0.00150452
0.00134191
0.00143697
0.001346
0.00137095
0.00134986
0.0013066
0.00135338
0.001244
0.00135659
0.00118329
0.0013594
0.0011245
0.00136187
0.00106767
0.00136395
0.00101285
0.00136563
0.000960082
0.00136681
0.000909353
0.00136765
0.000860886
0.00136793
0.000814348
0.00136751
0.000769799
0.00136655
0.000727093
0.001365
0.000686496
0.00136218
0.00064683
0.00135946
0.000610705
0.00135469
0.000589626
0.00135222
0.000577626
0.000905595
0.000584638
0.000835441
0.000591208
0.000848848
0.000601592
0.000868997
0.000606775
0.00088845
0.000610666
0.000907616
0.000613787
0.000927771
0.000617555
0.000948301
0.000621626
0.000969302
0.000623603
0.000989992
0.000626875
0.00100951
0.000628811
0.0010283
0.000631793
0.00104612
0.000633851
0.00106271
0.000635625
0.00107952
0.000637457
0.00109497
0.000639489
0.00110891
0.000641594
0.00112202
0.00064369
0.00113424
0.000645763
0.00114513
0.000647858
0.00115503
0.000649902
0.00116392
0.000651876
0.00117096
0.00065387
0.00117751
0.000656058
0.00118324
0.00065841
0.00118799
0.000660947
0.00119209
0.000663575
0.00119548
0.000666268
0.00119779
0.000669085
0.00119873
0.0006721
0.00119843
0.000675983
0.00119753
0.000679771
0.00119516
0.000683641
0.00119219
0.00068825
0.00118932
0.000692899
0.00118727
0.000697739
0.00118391
0.000702613
0.00118024
0.000707746
0.00117588
0.000713197
0.00117106
0.000718866
0.00116623
0.000724658
0.00116035
0.000730742
0.00115408
0.000736853
0.00114752
0.000743291
0.00114111
0.000749698
0.00113356
0.000756193
0.00112632
0.000763173
0.00112067
0.000770206
0.00111372
0.000776718
0.00110712
0.000783525
0.00110116
0.000790531
0.0010938
0.000797813
0.00109269
0.000806977
0.00109143
0.000817032
0.00109216
0.000826556
0.00110383
0.000837046
0.00112119
0.000847942
0.00114421
0.000859504
0.00118156
0.000871673
0.00120689
0.000884636
0.00121834
0.000898143
0.001239
0.000912275
0.00123838
0.000886566
0.00115342
0.000874046
0.00107531
0.000870727
0.00101036
0.00083521
0.000964395
0.000818866
0.000934631
0.000808956
0.000918726
0.000809145
0.00091284
0.000809016
0.000909852
0.000819268
0.000905849
0.000837766
0.00089994
0.000877753
0.000897224
0.00289683
0.00289055
0.00126182
0.00287975
0.00126316
0.00286279
0.0012661
0.00284
0.0012697
0.00281159
0.00127398
0.00277772
0.00127885
0.00273981
0.0012843
0.00269715
0.00129031
0.00264989
0.0012968
0.00259834
0.00130367
0.00254296
0.00131092
0.00248401
0.00131853
0.00242194
0.00132639
0.00235719
0.00133443
0.00229018
0.00134261
0.00222133
0.0013509
0.00215099
0.00135924
0.0020795
0.00136763
0.00200723
0.0013759
0.00193454
0.00138402
0.00186178
0.00139196
0.00178929
0.00139969
0.00171732
0.00140722
0.00164613
0.0014145
0.00157589
0.00142154
0.00150683
0.00142816
0.00143915
0.0014344
0.00137298
0.0014403
0.00130848
0.00144577
0.00124572
0.00145084
0.00118484
0.00145542
0.00112586
0.00145954
0.00106889
0.00146322
0.00101393
0.00146633
0.000960975
0.00146896
0.000910025
0.00147094
0.00086104
0.00147263
0.000814202
0.00147354
0.000769972
0.00147359
0.000727568
0.00147308
0.000688038
0.00147161
0.000648349
0.00147005
0.000615874
0.00146613
0.000617611
0.00146194
0.00058307
0.000987309
0.000604209
0.000907735
0.000613381
0.00092401
0.000620699
0.000941357
0.000622495
0.000957206
0.000623559
0.000976486
0.000625693
0.000997304
0.000628644
0.00101716
0.000630499
0.00103821
0.000632358
0.00105902
0.000633329
0.00107807
0.000635539
0.00109723
0.000637169
0.00111592
0.000639337
0.00113355
0.000640797
0.00114962
0.000642047
0.00116356
0.000643525
0.00117711
0.00064487
0.00118961
0.000646162
0.00120118
0.000647456
0.00121152
0.000648733
0.00122059
0.000650026
0.00122912
0.000651069
0.00123639
0.00065242
0.00124226
0.000653889
0.0012477
0.000655684
0.00125171
0.000657665
0.0012551
0.000659751
0.00125795
0.000661812
0.00125918
0.000663906
0.00125948
0.000666139
0.0012586
0.000669972
0.00125689
0.000673606
0.0012536
0.000677478
0.00124941
0.000681839
0.0012452
0.000686553
0.00124162
0.000691448
0.0012371
0.000696052
0.00123188
0.000701229
0.00122615
0.000706848
0.00121984
0.000712382
0.0012135
0.000718058
0.00120653
0.000723937
0.0011991
0.000729685
0.00119137
0.00073619
0.00118404
0.00074223
0.00117554
0.000747976
0.00116711
0.000754252
0.00116105
0.000760531
0.00115218
0.000766443
0.00114474
0.000772949
0.00113661
0.000779278
0.00112954
0.000784554
0.00112698
0.000792344
0.00112432
0.000803168
0.00112742
0.000811859
0.00113297
0.000821724
0.00114952
0.000831644
0.00117221
0.00084467
0.00120601
0.000858894
0.00122949
0.000876472
0.00123499
0.000881781
0.00122755
0.000871456
0.00117199
0.000840106
0.00108146
0.000859483
0.00100452
0.000854788
0.000945565
0.000839282
0.000903561
0.000826876
0.000875567
0.000818007
0.000860984
0.00082257
0.0008537
0.000831715
0.000852544
0.000849877
0.00085384
0.000868981
0.000856019
0.000943249
0.000861757
0.00289572
0.00288904
0.00127165
0.00287783
0.0012767
0.00286049
0.00128329
0.00283897
0.00129051
0.00281246
0.00129834
0.00278036
0.0013068
0.00274304
0.00131579
0.00270066
0.00132523
0.00265367
0.0013351
0.00260232
0.00134541
0.00254712
0.00135605
0.00248832
0.00136691
0.00242641
0.00137799
0.00236176
0.00138924
0.00229481
0.00140057
0.00222596
0.00141191
0.00215563
0.00142325
0.0020841
0.00143454
0.00201178
0.00144565
0.00193901
0.00145653
0.00186617
0.00146714
0.00179357
0.00147747
0.00172146
0.00148751
0.00165011
0.00149721
0.0015797
0.00150655
0.00151046
0.0015154
0.00144258
0.00152375
0.00137622
0.00153167
0.00131151
0.00153909
0.00124854
0.001546
0.00118745
0.00155232
0.00112826
0.00155811
0.00107105
0.00156335
0.00101583
0.00156799
0.000962597
0.00157207
0.000911522
0.00157543
0.000862378
0.00157817
0.000815134
0.00158038
0.000769942
0.00158209
0.000727667
0.00158342
0.000688461
0.00158457
0.000650081
0.00158853
0.000616803
0.00158929
0.000646384
0.00159058
0.000591232
0.00111324
0.000612624
0.000998563
0.000624523
0.00101763
0.000631842
0.00103565
0.000632306
0.00105254
0.00063415
0.00106873
0.000634223
0.00108808
0.00063525
0.00110587
0.000635787
0.00112616
0.000635733
0.00114499
0.00063642
0.00116317
0.000637686
0.00117969
0.00063834
0.00119645
0.000639125
0.00121289
0.000638945
0.00122654
0.000639408
0.00123964
0.000640435
0.00125192
0.000641017
0.00126217
0.000641783
0.00127194
0.000642824
0.00128144
0.000643938
0.0012896
0.000645123
0.00129675
0.00064648
0.00130287
0.000648064
0.00130801
0.000649917
0.00131217
0.000651887
0.00131547
0.000654004
0.00131765
0.000656174
0.0013192
0.000658416
0.00131964
0.000660618
0.00131851
0.000663619
0.00131626
0.000668335
0.00131362
0.000672605
0.00130899
0.000676649
0.00130344
0.000681143
0.00129772
0.000686083
0.00129298
0.000691459
0.00128737
0.000696225
0.00128001
0.000701536
0.00127299
0.000707565
0.0012654
0.000713239
0.00125746
0.000719179
0.00124942
0.000725233
0.00124095
0.000731102
0.00123193
0.000737737
0.00122394
0.000743766
0.00121396
0.000749298
0.00120407
0.000754988
0.00119575
0.00076102
0.00118678
0.000766409
0.00117732
0.000772579
0.00116856
0.000778866
0.00116028
0.00078283
0.00115813
0.000791178
0.0011561
0.000802148
0.00115614
0.000811664
0.00116204
0.000820834
0.00117888
0.000828791
0.00120201
0.00084696
0.00124051
0.00085927
0.00124594
0.000870669
0.0012491
0.000865092
0.00116788
0.00082727
0.00107428
0.000883178
0.000988301
0.000903439
0.000943908
0.00089142
0.000913401
0.00086634
0.000890541
0.000849262
0.000871063
0.000835196
0.000850197
0.000841918
0.00084009
0.000848958
0.000839733
0.000867497
0.000843599
0.00088471
0.000847322
0.000970325
0.000852134
0.0028924
0.00288658
0.00128344
0.00287835
0.00129213
0.00286386
0.00130233
0.00284341
0.00131312
0.00281723
0.00132453
0.00278544
0.00133643
0.00274838
0.00134883
0.00270626
0.00136174
0.0026595
0.00137504
0.00260834
0.00138863
0.00255328
0.00140253
0.00249461
0.00141669
0.0024328
0.00143099
0.0023682
0.00144535
0.00230127
0.00145975
0.0022324
0.00147412
0.00216202
0.00148842
0.00209042
0.00150257
0.002018
0.00151649
0.00194511
0.00153011
0.00187212
0.00154336
0.00179936
0.00155625
0.00172706
0.00156874
0.00165551
0.00158081
0.00158488
0.00159242
0.0015154
0.00160349
0.00144728
0.00161394
0.00138066
0.00162386
0.00131568
0.0016332
0.00125245
0.00164192
0.00119107
0.00165002
0.00113164
0.00165744
0.00107416
0.00166422
0.00101867
0.00167039
0.000965225
0.00167584
0.000913796
0.00168062
0.000864393
0.00168472
0.000817109
0.00168807
0.000771797
0.00169098
0.000728699
0.00169334
0.000688172
0.00169548
0.000652107
0.00170066
0.000616455
0.00170214
0.000636831
0.00170532
0.000599534
0.00136067
0.000620517
0.00111733
0.000630909
0.00111665
0.000635034
0.00112826
0.000635706
0.00113941
0.000638221
0.00115303
0.00064015
0.001167
0.000642657
0.00118228
0.00064421
0.00119815
0.00064387
0.0012134
0.00064488
0.00123066
0.00064637
0.00124629
0.000646916
0.00126242
0.000647631
0.00127777
0.000647198
0.0012916
0.000647383
0.00130454
0.000648213
0.00131536
0.000648385
0.00132577
0.000648986
0.0013348
0.000650423
0.00134308
0.000652071
0.00135023
0.000653709
0.00135624
0.000655454
0.00136135
0.000657478
0.00136571
0.000659548
0.00136895
0.000661407
0.00137126
0.000663196
0.00137229
0.000664953
0.00137233
0.000666694
0.00137137
0.000668464
0.00136913
0.000673621
0.00136547
0.000678662
0.00136156
0.000683039
0.00135587
0.000687121
0.00134905
0.000691099
0.00134213
0.00069584
0.00133627
0.000701
0.00132935
0.00070569
0.00132184
0.000710607
0.00131376
0.000716542
0.00130541
0.00072247
0.00129659
0.00072844
0.00128811
0.000734475
0.00127834
0.000740338
0.00126851
0.000746941
0.00126048
0.000752847
0.00124973
0.000758271
0.00123942
0.000763151
0.00123075
0.000768858
0.00122032
0.000774514
0.001211
0.000780748
0.00120143
0.000788397
0.0011938
0.000789833
0.00119192
0.000796736
0.00118941
0.000806332
0.00118912
0.000816002
0.00119767
0.000826498
0.00121622
0.000839281
0.00124397
0.000853776
0.00126601
0.000860878
0.00126488
0.000854737
0.00120375
0.000834569
0.00108706
0.000895049
0.000990714
0.000912015
0.00093672
0.00091917
0.000907154
0.000906035
0.000884865
0.000888829
0.000871309
0.000882538
0.000862981
0.000863383
0.000856035
0.000859902
0.000848574
0.000862688
0.000847097
0.00088487
0.000849723
0.00089939
0.000848993
0.000990426
0.000852355
0.00289546
0.00289217
0.00129722
0.00288429
0.00130949
0.00287015
0.00132323
0.00285002
0.00133751
0.00282415
0.00135234
0.00279264
0.00136772
0.00275584
0.00138357
0.00271395
0.00139978
0.00266738
0.00141636
0.00261639
0.0014333
0.00256146
0.00145047
0.00250289
0.00146778
0.00244109
0.0014852
0.00237651
0.00150268
0.00230958
0.00152013
0.00224067
0.00153746
0.0021702
0.00155466
0.00209849
0.00157164
0.00202592
0.00158832
0.00195286
0.00160463
0.00187967
0.0016205
0.00180668
0.0016359
0.00173413
0.0016508
0.00166231
0.0016652
0.00159141
0.00167906
0.00152164
0.0016923
0.00145321
0.00170485
0.00138628
0.00171672
0.001321
0.00172796
0.00125746
0.00173849
0.00119575
0.00174833
0.00113598
0.00175741
0.00107819
0.00176575
0.00102238
0.00177346
0.000968673
0.00178036
0.000916919
0.00178649
0.000867233
0.00179191
0.000819685
0.00179675
0.000774228
0.00180103
0.000730814
0.00180503
0.000689546
0.00180868
0.00065144
0.00181504
0.000616213
0.00181889
0.000608811
0.00182285
0.000623753
0.00128682
0.000629803
0.00114149
0.000637202
0.0011496
0.000643765
0.00116749
0.000648566
0.00118374
0.000652467
0.00120181
0.000655839
0.00122084
0.000659542
0.00123915
0.000662149
0.0012588
0.000663731
0.00127816
0.000667653
0.00129761
0.000669639
0.0013161
0.000671938
0.0013353
0.000670122
0.00134902
0.0006683
0.00135867
0.000671058
0.00137438
0.00067044
0.00138476
0.00066899
0.00139288
0.000669464
0.00140158
0.000669745
0.00140819
0.000670097
0.00141381
0.000670789
0.00141812
0.000671857
0.00142195
0.000673024
0.00142512
0.000674114
0.00142685
0.000675007
0.00142771
0.000675973
0.00142796
0.0006768
0.00142723
0.000677344
0.00142602
0.000680143
0.0014219
0.000685791
0.00141728
0.000691262
0.00141253
0.000696369
0.00140616
0.000700807
0.00139876
0.000706015
0.00139182
0.000711413
0.00138556
0.000717466
0.00137793
0.000722945
0.00136974
0.000728636
0.00136105
0.000734955
0.00135239
0.000741227
0.0013431
0.000747031
0.00133347
0.000753083
0.00132259
0.000758915
0.00131161
0.000765504
0.00130283
0.000771358
0.00129133
0.000776606
0.0012802
0.000781191
0.00127079
0.000786056
0.0012593
0.00079136
0.00124924
0.000797069
0.00123914
0.00080425
0.00123437
0.000803154
0.00123004
0.000810351
0.00122769
0.000820666
0.0012306
0.000830898
0.00124591
0.000839813
0.00126052
0.000851141
0.00129088
0.000853595
0.00128832
0.0008448
0.0012404
0.000855246
0.00111823
0.000911916
0.00102117
0.000937477
0.000969635
0.000939285
0.000931444
0.000939096
0.000901014
0.000922573
0.000881525
0.000903939
0.000864341
0.000900421
0.000856771
0.000887802
0.000855158
0.000880846
0.000852193
0.000883105
0.000854069
0.000904338
0.00085914
0.000915297
0.0008578
0.00100727
0.000858474
0.00290294
0.00289998
0.00131299
0.00289242
0.00132875
0.00287857
0.00134595
0.00285876
0.00136368
0.00283319
0.00138194
0.00280196
0.00140065
0.00276537
0.00141978
0.00272369
0.00143935
0.00267731
0.00145923
0.00262646
0.00147934
0.0025716
0.00149967
0.00251308
0.00152014
0.00245133
0.00154067
0.00238674
0.00156118
0.00231974
0.00158162
0.00225073
0.00160187
0.00218011
0.00162189
0.00210826
0.00164165
0.0020355
0.00166104
0.00196222
0.00168001
0.00188878
0.00169844
0.0018155
0.00171632
0.00174266
0.00173359
0.00167051
0.00175027
0.00159929
0.00176635
0.00152916
0.00178169
0.00146038
0.00179632
0.0013931
0.00181015
0.00132744
0.00182323
0.00126354
0.00183557
0.00120146
0.00184711
0.00114131
0.00185788
0.00108314
0.00186777
0.00102699
0.00187692
0.000972887
0.00188529
0.000920795
0.00189292
0.000870794
0.00189964
0.000822781
0.00190534
0.00077681
0.00190988
0.000732836
0.00191318
0.000691253
0.00191489
0.000650807
0.00191541
0.000615649
0.00191213
0.000624017
0.00190775
0.000628512
0.00129573
0.000644486
0.0011815
0.00065324
0.00119809
0.000666862
0.00122457
0.000674341
0.00124886
0.000679012
0.00127166
0.000682943
0.00129289
0.000687766
0.00131338
0.000689342
0.00133305
0.0006899
0.00135695
0.000690839
0.00137442
0.000692019
0.00139401
0.000687823
0.00140968
0.000687501
0.00141939
0.000683418
0.00143638
0.000683009
0.00144581
0.000681556
0.00145362
0.00067974
0.00146586
0.00067879
0.00147301
0.000677789
0.00147946
0.000677399
0.00148493
0.000677381
0.00148823
0.000677645
0.0014906
0.000678045
0.00149228
0.000678572
0.0014932
0.000678958
0.00149334
0.000679567
0.00149292
0.000680301
0.00149144
0.000681029
0.00148904
0.000686775
0.00148538
0.000692929
0.00147973
0.000698819
0.00147388
0.000704922
0.00146621
0.000710026
0.00145809
0.000715834
0.00144957
0.0007212
0.00144125
0.000727312
0.00143195
0.000733747
0.00142315
0.00073956
0.00141293
0.000745865
0.00140316
0.000752851
0.0013927
0.000759255
0.0013825
0.000765441
0.00137027
0.000771284
0.00135824
0.000777528
0.00134822
0.000783796
0.00133656
0.00078936
0.00132515
0.00079366
0.00131441
0.000798565
0.00130332
0.000803687
0.00129376
0.000809538
0.00128259
0.000817641
0.00127914
0.00081667
0.00127698
0.000822754
0.00127427
0.000831397
0.00128192
0.000838906
0.00129151
0.000846004
0.00130824
0.000855116
0.00130392
0.00085068
0.00128145
0.000876104
0.00115262
0.000937531
0.00105767
0.000960534
0.00100051
0.000973511
0.000962478
0.000972958
0.000934924
0.000954111
0.000909078
0.000934165
0.000888129
0.00091659
0.000870705
0.000913714
0.000858857
0.000907694
0.000856683
0.00090108
0.000856936
0.000899903
0.000858063
0.000924166
0.000867473
0.000933981
0.000866481
0.00102505
0.000866396
0.00291263
0.00290998
0.00133075
0.00290273
0.00134993
0.00288918
0.00137053
0.00286966
0.00139161
0.0028443
0.00141319
0.00281334
0.00143519
0.00277699
0.00145761
0.0027355
0.00148037
0.00268923
0.00150343
0.00263851
0.00152672
0.00258373
0.00155018
0.00252525
0.00157373
0.00246348
0.00159727
0.00239884
0.00162076
0.00233174
0.00164412
0.00226259
0.00166723
0.00219179
0.00169004
0.00211973
0.00171252
0.00204674
0.00173458
0.0019732
0.00175613
0.00189946
0.00177709
0.00182583
0.00179738
0.00175264
0.00181699
0.00168011
0.0018359
0.0016085
0.00185412
0.00153798
0.0018716
0.00146878
0.00188821
0.00140108
0.00190399
0.00133501
0.00191893
0.00127068
0.001933
0.00120819
0.00194624
0.00114761
0.00195863
0.00108901
0.00197016
0.00103248
0.00198084
0.000977959
0.00199069
0.000925469
0.00199974
0.000875025
0.00200798
0.000826578
0.00201529
0.000779957
0.00202167
0.000735413
0.00202712
0.000693406
0.00203051
0.000652502
0.00203303
0.000616545
0.00202998
0.000605613
0.00202713
0.000622047
0.00137739
0.000652983
0.00124545
0.000663949
0.00127066
0.000680306
0.00130303
0.000689356
0.00133129
0.000694964
0.00135753
0.000698512
0.00138343
0.000703276
0.0014056
0.00070395
0.00142646
0.000703769
0.00144963
0.000704757
0.001469
0.000703038
0.00148672
0.000699629
0.00150157
0.000693341
0.00151647
0.000690354
0.00153282
0.000689506
0.00154094
0.000687526
0.00154894
0.000685257
0.00156211
0.000683674
0.00156854
0.000682546
0.00157543
0.00068109
0.00158274
0.000681183
0.00158485
0.000681407
0.00158641
0.000681485
0.00158715
0.00068169
0.00158723
0.000681692
0.00158622
0.00068188
0.00158529
0.000682131
0.00158269
0.000684307
0.00158006
0.000691222
0.00157537
0.000697915
0.00156939
0.000704365
0.00156233
0.00071064
0.00155272
0.000716195
0.00154276
0.000722498
0.00153295
0.000728491
0.00152344
0.00073489
0.00151153
0.000741423
0.00149963
0.000747666
0.00148756
0.000754108
0.00147494
0.000761519
0.0014629
0.000768192
0.00145041
0.000774514
0.00143683
0.000780485
0.00142288
0.000786535
0.00140996
0.000792743
0.00139742
0.000798141
0.0013844
0.00080242
0.00137132
0.000806834
0.00135942
0.000811594
0.0013472
0.000817909
0.0013349
0.000823074
0.00132675
0.000823326
0.0013257
0.000829895
0.00132002
0.000836122
0.00131769
0.000844324
0.00133264
0.000852379
0.00132808
0.000855289
0.00129648
0.000879174
0.00119188
0.000945485
0.00109778
0.000985021
0.00104016
0.000996713
0.00100966
0.00100743
0.000975752
0.000998089
0.000942798
0.00097541
0.000919778
0.000950998
0.000896194
0.000931864
0.000878566
0.000926663
0.000864587
0.00092427
0.000859758
0.000921121
0.000860563
0.000915795
0.000862296
0.000944082
0.000871114
0.000953982
0.000872098
0.00104439
0.000873679
0.00292451
0.00292215
0.00135054
0.00291517
0.00137305
0.0029019
0.00139695
0.00288266
0.0014213
0.00285759
0.0014461
0.00282683
0.00147134
0.00279063
0.00149696
0.00274932
0.00152286
0.00270319
0.00154904
0.00265255
0.00157541
0.00259781
0.00160191
0.00253932
0.00162846
0.00247752
0.00165496
0.0024128
0.00168135
0.00234556
0.00170758
0.00227624
0.00173348
0.00220522
0.00175902
0.0021329
0.00178414
0.00205963
0.00180881
0.00198577
0.00183288
0.00191168
0.0018563
0.00183766
0.00187898
0.00176405
0.00190089
0.00169109
0.00192199
0.00161905
0.0019423
0.00154807
0.00196184
0.0014784
0.00198043
0.00141023
0.00199809
0.00134369
0.00201484
0.00127888
0.00203067
0.00121592
0.00204558
0.00115487
0.00205958
0.00109582
0.00207271
0.00103879
0.00208493
0.000983833
0.00209627
0.000930958
0.00210673
0.000880153
0.00211639
0.000831331
0.0021253
0.000784588
0.00213382
0.000739536
0.00214053
0.000696333
0.0021459
0.000654914
0.00214978
0.000614869
0.0021486
0.000621029
0.00214883
0.000618416
0.00146746
0.000684194
0.00132588
0.000698701
0.0013663
0.000711937
0.00140692
0.000716345
0.00143783
0.000716478
0.00146784
0.000718062
0.00149929
0.000723354
0.00152557
0.000722205
0.00154297
0.000719343
0.00156848
0.000718898
0.0015841
0.000713395
0.00159514
0.000707856
0.0016069
0.000700666
0.00161641
0.00069442
0.00163532
0.000691292
0.00164145
0.000688118
0.00164275
0.00068573
0.00165384
0.000682147
0.00166057
0.000679427
0.00166648
0.000677366
0.00167858
0.000676861
0.00168049
0.000676425
0.00168073
0.000676138
0.00168027
0.000675786
0.00167921
0.000675551
0.00167736
0.000675133
0.00167513
0.000674796
0.00167243
0.000681874
0.00166823
0.000689802
0.00166297
0.000697409
0.00165559
0.000705
0.00164839
0.000712106
0.00163871
0.000718615
0.00162724
0.000726668
0.00161699
0.000733554
0.00160832
0.000740953
0.00159671
0.000747908
0.00158447
0.000754802
0.00157178
0.000762249
0.00155924
0.000770052
0.00154613
0.000777039
0.00153385
0.000784217
0.00151913
0.000790802
0.0015034
0.000796443
0.00148859
0.000802944
0.00147492
0.00080877
0.00145934
0.000812637
0.00144402
0.000816684
0.00142946
0.000821405
0.00141385
0.000826978
0.00139691
0.000830541
0.00138376
0.0008291
0.00137368
0.000832649
0.00136581
0.000837
0.00135987
0.000846332
0.00135138
0.000846005
0.00133181
0.000865366
0.00122449
0.000956877
0.001134
0.000988133
0.00107568
0.00102468
0.00104276
0.00103877
0.00101804
0.00103186
0.000990832
0.00102058
0.000965271
0.000995604
0.000936256
0.000967478
0.000909794
0.000947217
0.000889209
0.000941022
0.00087319
0.000940171
0.000865549
0.00093922
0.00086521
0.000932379
0.000866627
0.000964141
0.000874608
0.000971397
0.000878856
0.00106346
0.000881543
0.00293856
0.00293645
0.00137236
0.00292974
0.00139809
0.00291674
0.00142521
0.00289774
0.00145275
0.00287291
0.00148073
0.00284235
0.00150907
0.00280637
0.00153774
0.00276518
0.00156676
0.00271912
0.00159599
0.00266856
0.00162535
0.00261383
0.0016548
0.00255531
0.00168429
0.00249343
0.00171367
0.00242859
0.00174288
0.00236118
0.0017719
0.00229165
0.00180053
0.00222037
0.00182872
0.00214774
0.00185643
0.00207414
0.00188364
0.00199991
0.00191016
0.00192542
0.00193598
0.00185098
0.00196099
0.00177689
0.00198514
0.00170346
0.0020084
0.00163091
0.00203077
0.00155942
0.00205231
0.00148924
0.00207283
0.00142053
0.00209233
0.00135345
0.00211085
0.00128813
0.00212837
0.00122465
0.00214492
0.0011631
0.00216054
0.00110353
0.00217524
0.001046
0.00218907
0.000990516
0.00220198
0.000937163
0.00221413
0.000885954
0.00222529
0.000836856
0.00223621
0.000789911
0.00224712
0.000745045
0.00225836
0.000702101
0.00227049
0.000661433
0.00228577
0.000621878
0.00230398
0.000635263
0.00231481
0.000627975
0.00196591
0.000693743
0.00149298
0.000730149
0.00156011
0.000747025
0.00160488
0.00074776
0.00161463
0.000741324
0.00162616
0.00074076
0.00164978
0.000739328
0.00166208
0.000731595
0.00166403
0.000727569
0.00167786
0.000724528
0.00168816
0.000718473
0.00170394
0.000712546
0.00170452
0.000699384
0.00170201
0.000698405
0.00172094
0.000693288
0.00173466
0.000689403
0.00173733
0.00068957
0.0017436
0.000685039
0.00175814
0.000681685
0.00176346
0.000679949
0.00177485
0.000678662
0.00177689
0.000677807
0.00177742
0.000677331
0.00177554
0.000676851
0.00177257
0.000676355
0.00176945
0.000675503
0.00176571
0.000678441
0.00176067
0.000686036
0.00175465
0.000693673
0.00174763
0.000701479
0.00173778
0.000709682
0.00172866
0.000717396
0.00171802
0.00072405
0.00170523
0.000732097
0.00169169
0.000740398
0.00168321
0.000748958
0.00167083
0.00075627
0.00165834
0.000763013
0.00164451
0.000770923
0.00163197
0.000779378
0.00161786
0.000785114
0.00160278
0.000792087
0.00158724
0.000798631
0.00157051
0.00080349
0.00155445
0.000809313
0.00153886
0.000814378
0.00152156
0.000817501
0.00150363
0.000819524
0.00148628
0.000822987
0.00146527
0.000827479
0.00144522
0.000827678
0.00142838
0.000825147
0.00141322
0.000827583
0.00140018
0.000830797
0.00138172
0.000830505
0.00134107
0.000853115
0.00125302
0.000934131
0.00116522
0.000994469
0.00110579
0.00102747
0.00107012
0.00105998
0.00104464
0.00106736
0.00101649
0.00106079
0.000994154
0.00104299
0.000972418
0.00101336
0.000944438
0.0009846
0.000915414
0.000963819
0.000894122
0.000956336
0.000878469
0.000956135
0.000869294
0.000956884
0.000868717
0.000949966
0.000870384
0.000982636
0.000878351
0.000987996
0.000885074
0.00108312
0.000886511
0.00295472
0.00295286
0.00139623
0.00294639
0.00142511
0.00293364
0.00145533
0.00291488
0.00148596
0.00289023
0.00151697
0.00285988
0.00154836
0.00282407
0.00158007
0.00278301
0.00161203
0.00273705
0.00164419
0.00268651
0.0016765
0.00263177
0.00170883
0.0025732
0.00174116
0.0025112
0.00177335
0.00244621
0.00180529
0.00237858
0.00183702
0.00230878
0.0018683
0.0022372
0.00189909
0.00216423
0.00192931
0.00209024
0.00195898
0.00201561
0.00198789
0.00194067
0.00201601
0.00186575
0.00204329
0.00179115
0.00206963
0.00171719
0.00209502
0.00164408
0.0021194
0.00157204
0.00214284
0.00150127
0.00216528
0.00143198
0.00218658
0.0013643
0.00220681
0.00129838
0.00222597
0.00123433
0.00224408
0.00117221
0.00226123
0.00111209
0.00227744
0.00105402
0.00229272
0.00099798
0.00230711
0.000944069
0.00232057
0.000892433
0.00233315
0.000842939
0.00234519
0.000795616
0.00235685
0.000750679
0.00236851
0.000707723
0.0023799
0.000667328
0.00239419
0.000627776
0.00240256
0.000633657
0.00240722
0.000737304
0.00237908
0.000772381
0.00183787
0.000776874
0.00173287
0.000782119
0.00174648
0.000776798
0.00175875
0.000767918
0.00177573
0.000764637
0.00177701
0.000757677
0.0017789
0.000748043
0.00178596
0.000743397
0.00179417
0.000739282
0.00180064
0.000730428
0.00182888
0.000722305
0.00182005
0.000713118
0.00182747
0.000708348
0.00184422
0.000705155
0.00186758
0.000700933
0.00186817
0.000699871
0.00186574
0.000696166
0.00187682
0.000691656
0.0018814
0.000690364
0.00188325
0.000689023
0.00188494
0.00068832
0.00188519
0.000687307
0.00188152
0.000686447
0.00187715
0.000685561
0.00187215
0.000685224
0.00186623
0.000692902
0.00185948
0.000700797
0.0018512
0.000708643
0.00184204
0.000716413
0.00182868
0.000724943
0.00181657
0.000732835
0.00180447
0.000739492
0.00178955
0.000747217
0.00177373
0.000755626
0.0017609
0.000763939
0.00174677
0.00077129
0.00173164
0.000778001
0.00171524
0.000785551
0.0017003
0.00079379
0.00168277
0.000799572
0.00166467
0.000805393
0.00164607
0.000811215
0.00162665
0.000816052
0.00160661
0.000821119
0.00158735
0.000825108
0.00156666
0.000826868
0.00154528
0.000827909
0.0015249
0.000828478
0.00150059
0.000830947
0.00147876
0.00082755
0.00145346
0.000821821
0.00141864
0.000818519
0.00138763
0.000814021
0.00133154
0.000824824
0.00124621
0.000917552
0.00115905
0.000980769
0.00109794
0.00104416
0.00108048
0.00107679
0.00106412
0.00108786
0.00104711
0.00108848
0.00102739
0.00107509
0.00100355
0.00105797
0.000981962
0.00102922
0.000954175
0.000999949
0.000924588
0.00097906
0.000902644
0.000970435
0.000886976
0.000970386
0.000875828
0.000972739
0.000874247
0.000966957
0.000875629
0.000999406
0.000883409
0.00100509
0.000890337
0.00110193
0.000892022
0.00297298
0.00297133
0.00142219
0.0029651
0.00145408
0.00295256
0.00148732
0.00293403
0.0015209
0.00290959
0.00155488
0.00287941
0.00158921
0.00284372
0.00162381
0.00280278
0.00165866
0.00275689
0.00169369
0.00270637
0.00172881
0.0026516
0.00176392
0.00259294
0.001799
0.0025308
0.0018339
0.00246562
0.00186853
0.00239775
0.00190285
0.00232765
0.00193672
0.00225573
0.00197002
0.00218238
0.00200267
0.00210796
0.00203472
0.00203285
0.00206597
0.00195741
0.00209632
0.00188197
0.00212578
0.00180681
0.00215425
0.00173226
0.00218168
0.00165854
0.00220804
0.00158589
0.00223331
0.00151448
0.00225762
0.00144454
0.00228069
0.00137621
0.00230258
0.00130963
0.00232334
0.00124494
0.00234293
0.00118221
0.00236148
0.00112146
0.00237914
0.00106276
0.00239584
0.00100618
0.00241163
0.000951791
0.00242681
0.000899386
0.00244109
0.000849388
0.00245486
0.000801627
0.00246861
0.000756047
0.00248373
0.000712119
0.00249838
0.000671039
0.00252196
0.000630472
0.00253105
0.000644234
0.0025391
0.000977809
0.00250983
0.000837774
0.00205489
0.000804554
0.00190338
0.000802014
0.00185308
0.000795259