/*--------------------------------*- C++ -*----------------------------------*\
| =========                 |                                                 |
| \\      /  F ield         | OpenFOAM: The Open Source CFD Toolbox           |
|  \\    /   O peration     | Version:  2.2.x                                 |
|   \\  /    A nd           | Web:      www.OpenFOAM.org                      |
|    \\/     M anipulation  |                                                 |
\*---------------------------------------------------------------------------*/
FoamFile
{
    version     2.0;
    format      ascii;
    class       surfaceScalarField;
    location    "0.04";
    object      phi;
}
// * * * * * * * * * * * * * * * * * * * * * * * * * * * * * * * * * * * * * //

dimensions      [1 0 -1 0 0 0 0];

internalField   nonuniform List<scalar> 
1023
(
0
0
0
0
0
0
0
0
0
0
0
0
0
0
0
0
0
0
0
0
0
0
0
0
0
0
0
0
0
0
0
0
0
0
0
0
0
0
0
0
0
0
0
0
0
0
0
0
0
0
0
0
0
0
0
0
0
0
0
0
0
0
0
0
0
0
0
0
0
0
0
0
0
0
0
0
0
0
0
0
0
0
0
0
0
0
0
0
0
0
0
0
0
0
0
0
0
0
0
0
0
0
0
0
0
0
0
0
0
0
0
0
0
0
0
0
0
0
0
0
0
0
0
0
0
0
0
0
0
0
0
0
0
0
0
0
0
0
0
0
0
0
0
0
0
0
0
0
0
0
0
0
0
0
0
0
0
0
0
0
0
0
0
0
0
0
0
0
0
0
0
0
0
0
0
0
0
0
0
0
0
0
0
0
0
0
0
0
0
0
0
0
0
0
0
0
0
0
0
0
0
0
0
0
0
0
0
0
0
0
0
0
0
0
0
0
0
0
0
0
0
0
0
0
0
0
0
0
0
0
0
0
0
0
0
0
0
0
0
0
0
0
0
0
0
0
0
0
0
0
0
0
0
0
0
0
0
0
0
0
0
0
0
0
0
0
0
0
0
0
0
0
0
0
0
0
0
0
0
0
0
0
0
0
0
0
0
0
0
0
0
0
0
0
0
0
0
0
0
0
0
0
0
0
0
0
0
0
0
0
0
0
0
0
0
0
1.66533e-16
6.10623e-16
1.4988e-15
3.66374e-15
8.79852e-15
2.09555e-14
4.96825e-14
1.16407e-13
2.70561e-13
6.22113e-13
1.41656e-12
3.194e-12
7.13118e-12
1.57641e-11
3.44994e-11
7.47347e-11
1.60226e-10
3.39918e-10
7.13456e-10
1.48128e-09
3.04157e-09
6.17541e-09
1.2395e-08
2.45893e-08
4.82012e-08
9.33409e-08
1.78513e-07
3.37076e-07
6.28216e-07
1.15522e-06
2.09528e-06
3.74687e-06
6.60322e-06
1.14631e-05
1.95925e-05
3.29517e-05
5.4501e-05
8.85909e-05
0.000141427
0.000221572
0.000340417
0.0005125
0.000755523
0.0010899
0.00153774
0.0021212
0.00286048
0.00377175
0.00486572
0.00614755
0.00761952
0.0092801
0.0109064
0.0124497
0.0139349
0.0153842
0.0168055
0.0182066
0.0195896
0.0209517
0.0222814
0.0235816
0.02483
0.0260247
0.027142
0.0281757
0.0291232
0.0299417
0.0306846
0.0312905
0.0317907
0.0322231
0.0325187
0.032743
0.0329324
0.0330242
0.0330813
0.0331362
0.033147
0.0331362
0.0331285
0.0331012
0.0330217
0.0328546
0.0325629
0.0321129
0.0317229
0.0314228
0.0312177
0.0310802
0.0309895
0.0309416
0.0309118
0.0309037
0.0309021
0.030902
0.0309096
0.0309233
0.0309297
0.0309303
0.0309296
0.0309275
0.0309175
0.0309047
0.0308991
0.0308983
0.0308995
0.0309077
0.0309322
0.0309873
0.0310933
0.0312796
0.0314582
0.0315817
0.0316556
0.0316913
0.0317033
0.0317024
0.0316886
0.0316434
0.0315439
0.0313856
0.0312629
0.0311782
0.0311276
0.0311007
0.0310927
0.0310959
0.0311101
0.0311535
0.0312519
0.0313572
0.0314061
0.0313631
0.0310642
0.0300384
0.0267486
0.0168469
-0.0103615
-0.0751207
-0.13822
-0.165781
-0.175678
-0.179068
-0.180154
-0.180414
-0.180523
-0.18059
-0.180559
-0.180526
-0.180528
-0.180511
-0.180392
-0.180069
-0.179516
-0.179084
-0.178865
-0.178775
-0.178723
-0.178802
-0.179353
-0.180761
-0.183384
-0.187738
-0.194521
-0.204536
-0.218704
-0.238111
-0.263877
-0.296594
-0.327824
-0.353013
-0.372387
-0.386868
-0.397461
-0.40509
-0.410334
-0.413627
-0.4155
-0.416491
-0.417098
-0.417598
-0.418079
-0.418877
-0.420101
-0.421013
-0.421201
-0.420829
-0.419884
-0.419344
-0.4198
-0.422544
-0.424785
-0.425566
-0.425379
-0.423261
-0.419751
-0.418138
-0.417796
-0.417659
-0.417754
-0.415499
-0.410146
-0.403016
-0.396637
-0.393033
-0.39197
-0.39434
-0.4059
-0.425453
-0.437808
-0.44142
-0.441843
-0.442497
-0.443692
-0.445185
-0.447578
-0.450659
-0.452094
-0.452458
-0.452269
-0.45121
-0.449402
-0.446398
-0.442092
-0.437239
-0.431687
-0.425692
-0.419514
-0.413037
-0.406372
-0.399496
-0.392385
-0.385074
-0.377507
-0.369662
-0.361598
-0.353296
-0.3447
-0.335855
-0.32678
-0.317417
-0.307779
-0.297905
-0.287739
-0.277286
-0.266584
-0.25558
-0.244288
-0.23273
-0.220856
-0.2087
-0.196244
-0.183477
-0.17041
-0.157021
-0.143316
-0.129275
-0.114917
-0.100394
-0.0863619
-0.0729391
-0.0602955
-0.0486444
-0.0381995
-0.0291326
-0.021539
-0.0154196
-0.0106818
-0.00715988
-0.00464544
-0.00291969
-0.0017794
-0.0010528
-0.00060545
-0.000338848
-0.000184771
-9.82756e-05
-5.10365e-05
-2.59028e-05
-1.28592e-05
-6.24918e-06
-2.97496e-06
-1.38827e-06
-6.35421e-07
-2.8542e-07
-1.25882e-07
-5.45394e-08
-2.32228e-08
-9.72205e-09
-4.00322e-09
-1.62191e-09
-6.46791e-10
-2.53956e-10
-9.82073e-11
-3.74152e-11
-1.40473e-11
-5.19818e-12
-1.89693e-12
-6.82787e-13
-2.42251e-13
-8.42659e-14
-2.93099e-14
-9.65894e-15
-3.66374e-15
-4.44089e-16
0
0
0
0
0
0
0
0
0
0
0
0
0
0
0
0
0
0
0
0
0
0
0
0
0
0
0
0
0
0
0
0
0
0
0
0
0
0
0
0
0
0
0
0
0
0
0
0
0
0
0
0
0
0
0
0
0
0
0
0
0
0
0
0
0
0
0
0
0
0
0
0
0
0
0
0
0
0
0
0
0
0
0
0
0
0
0
0
0
0
0
0
0
0
0
0
0
0
0
0
0
0
0
0
0
0
0
0
0
0
0
0
0
0
0
0
0
0
0
0
0
0
0
0
0
0
0
0
0
0
0
0
0
0
0
0
0
0
0
0
0
0
0
0
0
0
0
0
0
0
0
0
0
0
0
0
0
0
0
0
0
0
0
0
0
0
0
0
0
0
0
0
0
0
0
0
0
0
0
0
0
0
0
0
0
0
0
0
0
0
0
0
0
0
0
0
0
0
0
0
0
0
0
0
0
0
0
0
0
0
0
0
0
0
0
0
0
0
0
0
0
0
0
0
0
0
0
0
0
0
0
0
0
0
0
0
0
0
0
0
0
0
0
0
0
0
0
0
0
0
0
0
0
0
0
0
0
0
0
0
0
0
0
0
0
0
0
0
0
0
0
0
0
0
0
0
0
0
0
0
0
0
0
0
0
0
0
0
0
0
0
0
0
0
0
0
0
0
0
0
0
0
0
0
0
0
0
0
0
0
0
0
0
0
0
0
0
0
0
0
0
0
0
0
0
0
0
0
0
0
0
0
0
0
0
0
0
0
0
0
0
0
0
0
0
0
0
0
0
0
0
0
0
0
0
0
0
0
0
0
0
0
0
0
0
0
0
0
0
0
0
0
0
0
0
0
0
0
0
0
0
0
0
0
0
0
0
0
0
0
0
0
0
0
0
0
0
0
0
0
0
)
;

boundaryField
{
    front-back
    {
        type            empty;
        value           nonuniform 0();
    }
    inlet-outlet
    {
        type            calculated;
        value           uniform 0;
    }
    top-down
    {
        type            empty;
        value           nonuniform 0();
    }
}


// ************************************************************************* //
