/*--------------------------------*- C++ -*----------------------------------*\
| =========                 |                                                 |
| \\      /  F ield         | OpenFOAM: The Open Source CFD Toolbox           |
|  \\    /   O peration     | Version:  2.2.x                                 |
|   \\  /    A nd           | Web:      www.OpenFOAM.org                      |
|    \\/     M anipulation  |                                                 |
\*---------------------------------------------------------------------------*/
FoamFile
{
    version     2.0;
    format      ascii;
    class       volScalarField;
    location    "3";
    object      By;
}
// * * * * * * * * * * * * * * * * * * * * * * * * * * * * * * * * * * * * * //

dimensions      [1 0 -2 0 0 -1 0];

internalField   nonuniform List<scalar> 
14161
(
-5.14416e-06
-1.32291e-06
-1.21243e-06
-1.05347e-06
-1.14784e-06
-9.08636e-07
-8.99035e-07
-1.27868e-06
5.52572e-07
-2.32995e-06
-1.3005e-06
2.78204e-06
-2.95366e-06
-3.94677e-06
7.51627e-06
-8.99506e-07
-1.33549e-05
1.74207e-07
2.02647e-05
-5.9495e-06
-1.00672e-05
-5.8012e-06
3.37225e-06
3.00763e-05
1.36307e-05
-1.45143e-05
-2.45179e-05
6.08833e-06
2.16216e-05
2.93658e-05
3.26019e-05
3.60355e-05
3.5612e-05
3.20807e-05
7.51617e-05
9.49936e-05
0.000125182
0.000182963
0.000222393
0.000323525
0.000269201
0.000292843
0.00013164
0.000635497
0.00333984
0.00756998
0.00182871
-0.00357208
-0.00944173
-0.0124211
-0.0133668
-0.013361
-0.0126538
-0.0118248
-0.0107997
-0.00970107
-0.00875024
-0.00760249
-0.00665956
-0.00579951
-0.00502204
-0.00421232
-0.00355503
-0.00311197
-0.00261427
-0.00235283
-0.00212042
-0.00207466
-0.0017315
-0.00146178
-0.00161029
-0.00179175
-0.00201737
-0.00245005
-0.00239697
-0.00240593
-0.00200617
-0.00188003
-0.00218001
-0.00170952
-0.00157122
-0.00195858
-0.00163918
-0.00142388
-0.00125515
-0.00113678
-0.00118356
-0.00141968
-0.00162076
-0.001249
-0.00115008
-0.00156108
-0.00129023
-0.00124518
-0.00167582
-0.00132984
-0.00114508
-0.00144797
-0.00136271
-0.00135403
-0.00125557
-0.0011985
-0.00112008
-0.00147567
-0.00119376
-0.0001174
0.00111884
0.00439572
0.0118715
0.0308377
0.0584987
0.0856733
0.104767
0.10093
0.0864234
0.0812592
0.0763987
0.0736673
0.0702834
-9.32336e-06
-2.9977e-06
-3.76501e-06
-3.04221e-06
-2.94252e-06
-2.44765e-06
-2.88968e-06
-3.05264e-06
1.68248e-06
-5.9026e-06
-4.16125e-06
7.55961e-06
-1.00338e-05
-7.29247e-06
2.31885e-05
-2.81627e-06
-3.15417e-05
3.16654e-06
4.5049e-05
-6.03411e-06
-3.40565e-05
-2.08848e-05
2.17496e-05
7.27671e-05
4.13744e-05
-4.2291e-05
-6.46209e-05
9.68315e-07
4.57879e-05
7.07801e-05
9.0617e-05
0.000109223
0.000112493
0.00011561
0.000182117
0.000238923
0.000340618
0.00042218
0.000550439
0.000703624
0.000809215
0.000874425
0.000754367
0.00215142
0.012512
0.0190601
0.00348602
-0.0119843
-0.0297955
-0.0395588
-0.0413487
-0.0408716
-0.0385105
-0.0363911
-0.0330402
-0.0304888
-0.0279562
-0.024322
-0.0220435
-0.0195971
-0.0170344
-0.0148561
-0.0128528
-0.0113536
-0.0100212
-0.0090479
-0.00827252
-0.00778493
-0.00697198
-0.00634268
-0.00600638
-0.00582674
-0.00570094
-0.00562854
-0.00551525
-0.00624165
-0.00577396
-0.00545849
-0.00662518
-0.00570412
-0.00514996
-0.00642991
-0.00554683
-0.00489443
-0.00453323
-0.00421223
-0.00433192
-0.00511278
-0.00540903
-0.00432207
-0.00389111
-0.00521738
-0.0046165
-0.00420454
-0.00552386
-0.00453298
-0.00401734
-0.00493695
-0.00468265
-0.00469259
-0.00426395
-0.00442268
-0.00361433
-0.00439514
-0.00285118
0.000731257
0.00374993
0.0120695
0.0316131
0.0792284
0.170345
0.256045
0.282061
0.263726
0.235426
0.218875
0.199314
0.18084
0.167982
-1.33415e-05
-5.14228e-06
-6.32579e-06
-4.82732e-06
-4.47727e-06
-3.99198e-06
-5.69159e-06
-5.0638e-06
3.25813e-06
-1.06324e-05
-6.59673e-06
1.29681e-05
-1.69821e-05
-9.87589e-06
3.54752e-05
-5.42775e-06
-5.18038e-05
1.00657e-05
6.03194e-05
-2.39728e-06
-6.29381e-05
-3.38026e-05
6.07623e-05
0.000117418
5.9806e-05
-7.0708e-05
-9.53045e-05
4.9124e-06
7.95418e-05
0.000142724
0.00017012
0.000199198
0.000200647
0.000237065
0.000302361
0.000426578
0.000564481
0.000665679
0.000909705
0.00112423
0.00152341
0.00162526
0.00179206
0.00574605
0.0291762
0.0332518
0.00427282
-0.0269735
-0.0558567
-0.0715355
-0.0733295
-0.0708313
-0.0656746
-0.0617221
-0.0558701
-0.0517885
-0.0476602
-0.0417341
-0.0380801
-0.0338598
-0.0293952
-0.0258088
-0.0222444
-0.0194246
-0.0172179
-0.0152419
-0.0137326
-0.0125908
-0.0114614
-0.010427
-0.010075
-0.0101661
-0.0108496
-0.0104338
-0.00979774
-0.0101672
-0.00925479
-0.00858101
-0.009577
-0.00865396
-0.00772849
-0.0094508
-0.00829643
-0.00705856
-0.00657249
-0.00615032
-0.00641034
-0.00800468
-0.00818888
-0.00652493
-0.00581414
-0.00776264
-0.00712258
-0.00645319
-0.00819996
-0.00693494
-0.00583214
-0.00743227
-0.00724836
-0.00707552
-0.00646839
-0.00601473
-0.0053483
-0.00544033
-0.00238242
0.00598085
0.0150718
0.0393612
0.0908487
0.193809
0.326999
0.401994
0.412596
0.386118
0.352049
0.333509
0.311753
0.281262
0.268607
-1.77789e-05
-7.6008e-06
-8.63332e-06
-6.94773e-06
-6.56353e-06
-5.61214e-06
-8.06444e-06
-7.09475e-06
3.7875e-06
-1.43081e-05
-9.20556e-06
1.6666e-05
-2.22812e-05
-1.33015e-05
4.4845e-05
-5.57955e-06
-6.35329e-05
1.27372e-05
7.65457e-05
2.14009e-06
-9.21161e-05
-4.01793e-05
9.53895e-05
0.000152453
6.86494e-05
-9.2361e-05
-0.000113976
8.93666e-06
0.000112129
0.000208838
0.000248315
0.000255293
0.000249106
0.000300056
0.000383008
0.000543152
0.0007016
0.00094406
0.00125337
0.00164644
0.00222494
0.00253795
0.00328354
0.0102693
0.0490678
0.0522135
0.00446888
-0.0494851
-0.0893182
-0.108517
-0.111609
-0.105146
-0.0966982
-0.0889907
-0.079276
-0.0720408
-0.0647431
-0.0557186
-0.0494978
-0.043009
-0.037459
-0.0329142
-0.0278855
-0.0242726
-0.0215011
-0.0191439
-0.0174961
-0.016496
-0.0157314
-0.0146697
-0.0139071
-0.0136233
-0.0141159
-0.013491
-0.0128518
-0.0134517
-0.0126562
-0.0119289
-0.0126597
-0.0121326
-0.0113078
-0.0128654
-0.0117434
-0.0103511
-0.00977813
-0.00909989
-0.00952335
-0.0117131
-0.011936
-0.00999399
-0.00929818
-0.0111894
-0.010693
-0.00983131
-0.0115521
-0.0105599
-0.00926078
-0.0102979
-0.0105058
-0.0096585
-0.00911465
-0.00751709
-0.00528513
-0.00301148
0.00241152
0.019188
0.0460253
0.0986421
0.20358
0.361142
0.472553
0.527898
0.516252
0.477966
0.440132
0.418847
0.402122
0.363542
0.352855
-2.22468e-05
-1.04174e-05
-1.1084e-05
-8.68611e-06
-8.35545e-06
-7.30513e-06
-9.85049e-06
-8.06659e-06
2.61931e-06
-1.71522e-05
-9.15171e-06
1.68012e-05
-2.58377e-05
-1.2564e-05
4.93649e-05
-9.89024e-06
-6.81817e-05
8.73044e-06
9.00338e-05
-2.56532e-07
-0.000112357
-3.34983e-05
0.000123717
0.000165015
5.82451e-05
-9.21493e-05
-9.56577e-05
4.8894e-06
0.000126818
0.000247947
0.000306509
0.000329312
0.0003484
0.00040864
0.000524458
0.000678601
0.000899197
0.00123712
0.00166406
0.00215762
0.00290269
0.0037567
0.00545585
0.0159368
0.0725721
0.0727465
0.000405714
-0.0824134
-0.13153
-0.153919
-0.157286
-0.144675
-0.132423
-0.120593
-0.106202
-0.0966376
-0.0852109
-0.0732737
-0.0653945
-0.0555097
-0.0478537
-0.0425687
-0.0363045
-0.0310598
-0.0272834
-0.0241814
-0.0218519
-0.0205956
-0.0195561
-0.018438
-0.0171318
-0.0171845
-0.0181793
-0.0179123
-0.0173304
-0.0174151
-0.0163936
-0.0153227
-0.01543
-0.0147866
-0.01411
-0.0153149
-0.0142659
-0.0128009
-0.0127183
-0.0115826
-0.0116787
-0.0141174
-0.0145512
-0.0125291
-0.011761
-0.0137953
-0.0135848
-0.0127568
-0.0140456
-0.0129286
-0.0110813
-0.0125446
-0.0122861
-0.0105502
-0.00919919
-0.00705389
-0.00144032
0.00584358
0.0203949
0.0552736
0.121955
0.23106
0.381081
0.514201
0.584611
0.609978
0.587147
0.544546
0.50765
0.485493
0.475897
0.433968
0.42738
-2.49191e-05
-1.18129e-05
-1.29066e-05
-1.0582e-05
-1.07714e-05
-8.68583e-06
-1.195e-05
-1.00394e-05
3.34108e-07
-1.81185e-05
-9.42696e-06
1.36008e-05
-2.5947e-05
-1.35072e-05
4.61667e-05
-8.4258e-06
-7.03249e-05
9.92488e-06
9.54592e-05
1.90869e-06
-0.00010728
-3.32114e-05
0.000128706
0.000154699
4.80953e-05
-5.88426e-05
-5.42678e-05
1.20128e-05
0.000129487
0.00030264
0.000351518
0.00035932
0.000397979
0.000471386
0.00062172
0.000813137
0.00107019
0.00145538
0.00195129
0.00265438
0.00365856
0.00482331
0.00735058
0.0224731
0.0959329
0.0945262
-0.0119578
-0.12572
-0.181975
-0.204918
-0.205954
-0.186849
-0.169169
-0.150018
-0.129625
-0.116009
-0.100025
-0.0852315
-0.0738259
-0.0621172
-0.052624
-0.0463597
-0.0399909
-0.0344137
-0.0300392
-0.0264351
-0.0236905
-0.0223795
-0.0218419
-0.0210391
-0.0199895
-0.0191898
-0.0198178
-0.0192788
-0.0188318
-0.018954
-0.0181546
-0.0172376
-0.0173765
-0.0166683
-0.0166533
-0.0173668
-0.0162213
-0.0150186
-0.0156276
-0.0146442
-0.0145922
-0.017396
-0.0177766
-0.0157942
-0.0150356
-0.0167013
-0.0166535
-0.0154372
-0.0164805
-0.0157864
-0.0137216
-0.0137892
-0.0125349
-0.00934886
-0.00688006
-0.00208445
0.00936706
0.0308548
0.0658375
0.136739
0.269938
0.416579
0.542119
0.622548
0.658119
0.665641
0.638675
0.595218
0.561168
0.539264
0.533226
0.495524
0.490726
-2.69189e-05
-1.42126e-05
-1.58529e-05
-1.28261e-05
-1.21573e-05
-1.06248e-05
-1.38845e-05
-8.64249e-06
-5.0277e-06
-1.73398e-05
-7.60926e-06
7.18643e-06
-2.34059e-05
-8.3982e-06
3.59866e-05
-5.30761e-06
-6.19872e-05
1.01506e-05
8.27335e-05
-7.14748e-07
-8.64075e-05
-2.22464e-05
0.00011427
0.000120371
2.80111e-05
-1.39754e-05
-8.29973e-06
2.43905e-05
0.000126364
0.000296891
0.000383721
0.000377793
0.000429317
0.000522712
0.00067109
0.000906137
0.00119345
0.00155957
0.00208403
0.00281319
0.00386164
0.00543259
0.00866405
0.0274391
0.108774
0.102578
-0.0425389
-0.182567
-0.246176
-0.263019
-0.251874
-0.226455
-0.202411
-0.177808
-0.153864
-0.134763
-0.115161
-0.0986537
-0.0843109
-0.0701143
-0.0589146
-0.0508453
-0.0438141
-0.0384044
-0.0327011
-0.0285536
-0.0256115
-0.0244101
-0.0239315
-0.0232999
-0.0222762
-0.021443
-0.0219719
-0.021702
-0.0211806
-0.0211026
-0.0205805
-0.0197524
-0.0194785
-0.0185816
-0.0184838
-0.0185707
-0.0177494
-0.016827
-0.0175311
-0.0168411
-0.0169545
-0.0193215
-0.0193534
-0.0176027
-0.0164985
-0.0181244
-0.0185591
-0.0174113
-0.0174374
-0.0161884
-0.0135896
-0.0122976
-0.0110651
-0.0052957
0.00259239
0.0146018
0.037834
0.0879385
0.165156
0.298695
0.456169
0.578801
0.652253
0.693613
0.712996
0.704602
0.675151
0.633883
0.604193
0.583265
0.578715
0.545962
0.544116
-2.95996e-05
-1.67396e-05
-1.8214e-05
-1.44228e-05
-1.37753e-05
-1.45977e-05
-1.36192e-05
-9.92138e-06
-1.21557e-05
-1.43976e-05
-7.59325e-06
-4.08448e-07
-1.89691e-05
-7.14482e-06
2.16038e-05
-5.5443e-06
-4.3352e-05
1.40561e-05
5.46908e-05
2.95489e-06
-5.41368e-05
-6.21451e-07
8.87381e-05
8.43418e-05
3.3538e-05
2.4923e-05
3.96476e-05
5.41274e-05
0.000131443
0.000250453
0.000346922
0.000401337
0.000456147
0.000565062
0.000725771
0.000955809
0.00123577
0.00158974
0.00211969
0.00288217
0.00376267
0.00490426
0.00750806
0.0197263
0.0756778
0.103748
-0.0869924
-0.241231
-0.304572
-0.310734
-0.289636
-0.255698
-0.223883
-0.19506
-0.171148
-0.145824
-0.12422
-0.105493
-0.0898216
-0.0740355
-0.0614104
-0.0523386
-0.0452602
-0.0392411
-0.033428
-0.0296721
-0.0267752
-0.0254415
-0.0249506
-0.0244264
-0.0234581
-0.0227962
-0.0229124
-0.0225315
-0.022155
-0.022003
-0.0216381
-0.0212534
-0.0208431
-0.0199618
-0.0198274
-0.0198333
-0.0192265
-0.0186238
-0.0189453
-0.0182923
-0.0188073
-0.0207016
-0.0204339
-0.0197398
-0.0179231
-0.0186455
-0.0184455
-0.0171849
-0.0155815
-0.0148547
-0.0114604
-0.00762206
-0.00344537
0.0069291
0.0255075
0.0545216
0.104047
0.203033
0.346758
0.490211
0.608149
0.681413
0.724156
0.746693
0.751122
0.733784
0.70259
0.665813
0.639677
0.619981
0.617156
0.589912
0.590387
-3.2031e-05
-1.89364e-05
-2.01349e-05
-1.69038e-05
-1.68995e-05
-1.63341e-05
-1.36159e-05
-1.30439e-05
-1.71159e-05
-1.24844e-05
-8.08835e-06
-9.23498e-06
-1.33643e-05
-1.32124e-06
5.64373e-06
-1.13699e-05
-1.26546e-05
1.41199e-05
1.93579e-05
-4.46939e-06
-1.12285e-05
2.5288e-05
4.78723e-05
4.10045e-05
3.76981e-05
3.86114e-05
7.34021e-05
0.000115648
0.000146293
0.000171813
0.000234176
0.000365543
0.000461573
0.000571336
0.000704466
0.000898506
0.00109952
0.00133506
0.00168843
0.00211895
0.00246395
0.00292962
0.0036979
0.00743817
0.0242997
0.0249381
-0.189247
-0.310693
-0.351812
-0.348681
-0.325576
-0.286239
-0.246123
-0.213599
-0.183572
-0.153367
-0.129979
-0.108526
-0.0916404
-0.0741361
-0.0613076
-0.0507735
-0.0441815
-0.039428
-0.0342328
-0.030004
-0.0271173
-0.0257891
-0.0255682
-0.0252209
-0.0246439
-0.0240067
-0.0236816
-0.0231683
-0.0228683
-0.022597
-0.0223722
-0.0221395
-0.0214216
-0.0204719
-0.0201542
-0.0197327
-0.0193977
-0.0194173
-0.0193887
-0.0184518
-0.019267
-0.0205108
-0.0198957
-0.0190725
-0.0175398
-0.0166557
-0.0171445
-0.0153529
-0.011513
-0.0096166
-0.00406188
0.00583488
0.015996
0.0374449
0.0777546
0.143461
0.245386
0.387746
0.531806
0.635038
0.706151
0.75128
0.774162
0.782295
0.776379
0.755879
0.726163
0.692981
0.669865
0.651335
0.649064
0.625906
0.626847
-3.35354e-05
-2.05818e-05
-2.21999e-05
-1.86671e-05
-1.84484e-05
-1.77338e-05
-1.66805e-05
-1.39142e-05
-1.9757e-05
-1.25097e-05
-7.10687e-06
-1.84954e-05
-7.66078e-06
5.98534e-06
-1.27977e-05
-1.4919e-05
2.12792e-05
1.17831e-05
-1.94156e-05
-9.89936e-06
4.4692e-05
4.71942e-05
7.10924e-06
-3.28566e-07
2.72711e-05
7.01259e-05
0.000135585
0.000183873
0.000149338
0.000107288
0.000143597
0.000292812
0.000471705
0.000612362
0.00071538
0.000837582
0.000991871
0.00114379
0.00133021
0.00141984
0.00155229
0.00175333
0.0016418
-0.00117465
-0.0306668
-0.159115
-0.361586
-0.346094
-0.35364
-0.351268
-0.332579
-0.299636
-0.260866
-0.225457
-0.189374
-0.155788
-0.130732
-0.108902
-0.0902579
-0.0726314
-0.0599134
-0.0491955
-0.0426628
-0.0377971
-0.0328313
-0.0282849
-0.025087
-0.0244996
-0.0247852
-0.0249541
-0.0248142
-0.0241993
-0.0233749
-0.0227889
-0.0224042
-0.0222319
-0.0222492
-0.0220657
-0.021289
-0.0203526
-0.0200608
-0.0193543
-0.0196223
-0.0192875
-0.0186475
-0.0173402
-0.0177607
-0.018465
-0.0172401
-0.0172307
-0.0153296
-0.0123474
-0.0124591
-0.00989971
-0.00151352
0.0039566
0.0136114
0.0358368
0.0630103
0.107793
0.188688
0.313048
0.43886
0.570019
0.663229
0.726436
0.769513
0.794663
0.80793
0.808754
0.796219
0.773298
0.746308
0.715603
0.695362
0.678168
0.676316
0.657219
0.658974
-3.60556e-05
-2.27253e-05
-2.41446e-05
-1.99517e-05
-2.06684e-05
-2.0136e-05
-1.8623e-05
-1.55497e-05
-2.21784e-05
-1.38282e-05
-7.04329e-06
-2.80912e-05
-3.08765e-06
1.24212e-05
-3.35968e-05
-1.28746e-05
4.64322e-05
8.07045e-06
-5.27011e-05
-1.04305e-05
8.80771e-05
6.971e-05
-2.19746e-05
-4.89564e-05
2.04138e-05
0.000106278
0.000191251
0.000210425
0.000147226
6.29567e-05
5.13958e-05
0.00017465
0.00034897
0.00054696
0.00066833
0.000704976
0.00072635
0.00074446
0.000642683
0.000464419
0.000207143
-0.000296053
-0.0021962
-0.0159713
-0.108537
-0.467386
-0.531721
-0.416032
-0.359911
-0.351132
-0.328829
-0.301111
-0.269018
-0.231326
-0.191002
-0.156284
-0.129447
-0.105927
-0.0870529
-0.0692806
-0.0562377
-0.046536
-0.0402879
-0.0351745
-0.0306897
-0.0269584
-0.0248461
-0.0244496
-0.0248243
-0.024903
-0.0246713
-0.0239415
-0.0228321
-0.0223958
-0.0220206
-0.0215146
-0.0213131
-0.0208029
-0.0194245
-0.0189986
-0.0182129
-0.017079
-0.0177195
-0.0176323
-0.0164435
-0.014439
-0.0144427
-0.0151522
-0.0126818
-0.012235
-0.00987803
-0.00313697
1.02302e-05
0.00454895
0.0195446
0.0374039
0.0580756
0.103697
0.164876
0.255565
0.371466
0.502379
0.607471
0.686103
0.748029
0.78623
0.810201
0.82395
0.830313
0.824455
0.810664
0.789694
0.76491
0.736457
0.71855
0.701811
0.699611
0.683044
0.684427
-3.67224e-05
-2.36272e-05
-2.56823e-05
-2.27407e-05
-2.41128e-05
-2.04279e-05
-1.96808e-05
-2.02693e-05
-2.39571e-05
-1.18813e-05
-1.02265e-05
-3.57712e-05
5.0973e-06
9.38442e-06
-4.73641e-05
-6.04904e-06
6.07555e-05
9.05325e-07
-7.67587e-05
3.10718e-07
0.00011294
7.66844e-05
-5.35275e-05
-8.03443e-05
1.32993e-05
0.000151632
0.00024461
0.00022309
0.000119499
3.61125e-05
2.6808e-05
0.000103431
0.000236707
0.0004207
0.000543551
0.000484402
0.00043854
0.000203617
-0.000116475
-0.000479975
-0.00127259
-0.00276529
-0.00850549
-0.037666
-0.225815
-0.689129
-0.664218
-0.499145
-0.412664
-0.38787
-0.346917
-0.311949
-0.276186
-0.234791
-0.192686
-0.156943
-0.12834
-0.103479
-0.0842827
-0.0654821
-0.051662
-0.0430177
-0.0364313
-0.0312742
-0.0270336
-0.0242641
-0.0233939
-0.0233802
-0.0237792
-0.0237368
-0.0233292
-0.022415
-0.0210636
-0.0206837
-0.0201286
-0.0192073
-0.0188538
-0.0178415
-0.0158567
-0.0161269
-0.0152184
-0.013625
-0.0142538
-0.0145945
-0.0126482
-0.00971374
-0.0077353
-0.0083119
-0.00312457
0.00136451
0.0046912
0.0177855
0.0307486
0.041522
0.0696928
0.111048
0.156214
0.240586
0.341209
0.442993
0.555587
0.643482
0.708995
0.761458
0.799435
0.82369
0.837141
0.844618
0.844229
0.836255
0.822107
0.803152
0.780259
0.754806
0.738734
0.722572
0.719943
0.705581
0.70693
-3.89559e-05
-2.56011e-05
-2.86712e-05
-2.51632e-05
-2.48993e-05
-2.19454e-05
-2.20983e-05
-2.50709e-05
-2.65677e-05
-9.84295e-06
-1.44459e-05
-3.82106e-05
8.0555e-06
2.57545e-06
-5.15515e-05
1.60749e-06
5.93345e-05
-7.69513e-06
-8.05799e-05
6.33707e-06
0.00011253
7.69526e-05
-5.94308e-05
-8.83384e-05
9.63306e-06
0.000170507
0.000263911
0.000178817
7.11571e-05
3.37222e-05
3.76847e-05
6.08317e-05
0.000141979
0.000265464
0.000351359
0.000301271
0.000141254
-4.73763e-05
-0.000269404
-0.000381403
-0.000812248
-0.00200058
-0.00981708
-0.0634119
-0.413477
-0.78634
-0.756328
-0.642325
-0.532556
-0.445974
-0.37332
-0.329237
-0.285485
-0.236855
-0.192784
-0.156562
-0.125057
-0.0996217
-0.0805142
-0.0598665
-0.0473151
-0.0388549
-0.0323928
-0.027051
-0.0234554
-0.0219938
-0.0220092
-0.0223932
-0.0224573
-0.0220645
-0.0216433
-0.0206469
-0.018906
-0.0187627
-0.0181113
-0.0164393
-0.0163265
-0.0147484
-0.0117906
-0.0122565
-0.0111556
-0.00857823
-0.00696045
-0.00716822
-0.00340817
0.00265646
0.00852699
0.0095565
0.0195684
0.0338203
0.0416694
0.0640447
0.0967216
0.123545
0.173936
0.257423
0.329185
0.419241
0.520725
0.605942
0.67122
0.732974
0.775363
0.807126
0.83137
0.846583
0.854823
0.85784
0.853961
0.844709
0.832584
0.815185
0.794648
0.771932
0.756909
0.741106
0.737477
0.724329
0.725048
-4.02126e-05
-2.72227e-05
-3.03174e-05
-2.65369e-05
-2.60005e-05
-2.52891e-05
-2.32705e-05
-2.90835e-05
-2.63606e-05
-7.73789e-06
-2.35765e-05
-3.46081e-05
8.2621e-06
-6.94029e-06
-4.69626e-05
1.00669e-05
4.8633e-05
-1.24977e-05
-6.70109e-05
-3.03928e-07
8.82648e-05
4.92018e-05
-2.91623e-05
-4.36523e-05
2.283e-05
0.000145377
0.000204865
0.00012782
6.46785e-05
4.74241e-05
6.00103e-05
7.23322e-05
0.000106638
0.000137974
0.000171942
0.000136463
-3.77802e-05
-0.000178163
-0.000367366
-0.000463723
-0.00071909
-0.00261261
-0.0161703
-0.127337
-0.608474
-0.805906
-0.788322
-0.742541
-0.666433
-0.551529
-0.424907
-0.355894
-0.29595
-0.248175
-0.196471
-0.159594
-0.127171
-0.100616
-0.0773315
-0.0587992
-0.0475546
-0.0369218
-0.0309103
-0.0258523
-0.0222453
-0.0221038
-0.0224067
-0.0219311
-0.0218356
-0.0210094
-0.0204514
-0.0188164
-0.0163078
-0.0160212
-0.0144499
-0.0115514
-0.0107534
-0.00822941
-0.00378567
-0.00099685
-0.00100984
0.00441363
0.0105007
0.0129443
0.019005
0.0295155
0.0454114
0.0528536
0.0698868
0.100765
0.123118
0.162994
0.228665
0.281907
0.342114
0.426974
0.505868
0.582266
0.642615
0.701232
0.747633
0.785699
0.815197
0.836271
0.851523
0.861037
0.866334
0.865521
0.86065
0.852247
0.841268
0.825178
0.807475
0.78721
0.773036
0.757877
0.753274
0.741265
0.741817
-4.21071e-05
-2.91602e-05
-3.14381e-05
-2.8272e-05
-2.7919e-05
-2.94036e-05
-2.47691e-05
-3.13275e-05
-2.86789e-05
-1.02537e-05
-3.20011e-05
-2.58647e-05
5.16677e-06
-2.313e-05
-3.46485e-05
1.33501e-05
3.04989e-05
-1.6029e-05
-4.09989e-05
1.04512e-05
5.13094e-05
1.49662e-05
-8.25231e-06
1.24324e-05
6.17826e-05
9.94484e-05
9.02562e-05
7.52079e-05
7.5106e-05
8.22079e-05
9.17419e-05
0.000114085
8.55473e-05
3.49334e-05
-3.317e-05
-4.93916e-05
-0.000124145
-0.000228289
-0.000472517
-0.000819889
-0.00159672
-0.00562399
-0.0332354
-0.243819
-0.736965
-0.824398
-0.808576
-0.782098
-0.74387
-0.668813
-0.549898
-0.424424
-0.336992
-0.270698
-0.206615
-0.17049
-0.130867
-0.100345
-0.0736226
-0.0580694
-0.0458059
-0.0339645
-0.028175
-0.0232154
-0.0207676
-0.0213367
-0.0212035
-0.0197031
-0.0197155
-0.0183625
-0.0173053
-0.0147704
-0.0108169
-0.00902311
-0.00705397
-0.00181759
0.00358407
0.00533925
0.0129126
0.0220317
0.0234916
0.0326799
0.0485126
0.0582796
0.0714121
0.0899651
0.121475
0.144934
0.180573
0.234669
0.276613
0.323374
0.39504
0.452021
0.515269
0.575106
0.621342
0.677457
0.723427
0.760653
0.791994
0.818654
0.839185
0.8537
0.863842
0.869866
0.872599
0.870852
0.865942
0.859027
0.848917
0.834701
0.81939
0.801115
0.787522
0.772817
0.766767
0.755439
0.755645
-4.36399e-05
-3.0718e-05
-3.27795e-05
-3.05014e-05
-3.09623e-05
-3.06432e-05
-2.79321e-05
-3.34906e-05
-2.38744e-05
-1.82359e-05
-3.56457e-05
-1.31757e-05
-6.51577e-06
-3.049e-05
-1.77169e-05
9.2942e-06
5.39647e-06
-1.9598e-05
-4.61608e-06
1.27913e-05
-2.7488e-06
-2.52365e-05
2.29269e-05
9.04903e-05
0.000106634
5.11167e-05
-1.5952e-05
2.63923e-05
9.54359e-05
0.000134366
0.000146247
0.00013334
4.93873e-05
-7.4981e-05
-0.000213858
-0.000162607
-0.000142284
-0.000201691
-0.000293444
-0.000426143
-0.00128544
-0.00715331
-0.0544547
-0.400253
-0.812039
-0.826843
-0.812524
-0.798425
-0.774576
-0.73981
-0.669442
-0.540955
-0.397953
-0.296117
-0.232739
-0.187783
-0.13512
-0.106445
-0.0760252
-0.0612606
-0.0445689
-0.0367082
-0.029099
-0.0238074
-0.0219936
-0.022107
-0.0200847
-0.0164921
-0.0158825
-0.013144
-0.0077403
-0.00538272
0.00063483
0.00880179
0.0112591
0.0196696
0.0328878
0.0383309
0.0496259
0.0706191
0.0812465
0.0956258
0.126911
0.153156
0.182776
0.217388
0.262521
0.298674
0.339622
0.394489
0.441001
0.487332
0.539992
0.58286
0.61384
0.662516
0.700589
0.736625
0.768513
0.796266
0.819758
0.83853
0.853622
0.864214
0.87141
0.875257
0.876227
0.874415
0.870338
0.864435
0.855346
0.84324
0.829777
0.813654
0.800772
0.786552
0.779542
0.768883
0.769031
-4.5106e-05
-3.21193e-05
-3.46508e-05
-3.25967e-05
-3.40278e-05
-3.04393e-05
-3.20695e-05
-3.53386e-05
-2.21742e-05
-3.33559e-05
-3.03487e-05
-7.75439e-06
-2.32557e-05
-3.22112e-05
-6.41945e-06
3.9978e-06
-2.60418e-05
-1.51488e-05
3.90385e-05
1.04976e-05
-6.46743e-05
-4.92931e-05
6.78315e-05
0.000151262
0.000126889
-1.10904e-06
-9.09308e-05
-2.87448e-05
0.000104595
0.000198816
0.000196427
0.000136428
1.28035e-06
-0.000166639
-0.000220572
-0.000190675
-8.51403e-05
-2.07967e-05
7.33052e-05
7.8005e-06
-0.00102949
-0.0103448
-0.0913445
-0.557901
-0.830457
-0.823216
-0.816942
-0.807581
-0.794716
-0.777425
-0.736949
-0.656554
-0.521567
-0.370478
-0.284557
-0.210887
-0.153236
-0.115378
-0.0839596
-0.0664424
-0.0474839
-0.0368901
-0.0254929
-0.0217889
-0.0173667
-0.0146447
-0.0113743
-0.00574982
-0.00201371
0.00181394
0.0135239
0.0193711
0.0276469
0.0447533
0.0541105
0.0667234
0.0917609
0.109236
0.129599
0.169696
0.198717
0.22325
0.265311
0.302872
0.338212
0.375077
0.416698
0.451786
0.491306
0.532242
0.566216
0.593156
0.624322
0.659287
0.684632
0.716897
0.744727
0.77213
0.796989
0.817889
0.836155
0.850834
0.862363
0.870397
0.875368
0.877922
0.878556
0.877339
0.87437
0.869152
0.861169
0.850788
0.838813
0.824918
0.812656
0.798662
0.790492
0.780316
0.78011
-4.65943e-05
-3.3827e-05
-3.6526e-05
-3.40752e-05
-3.62841e-05
-3.09076e-05
-3.74749e-05
-3.38069e-05
-2.46122e-05
-4.25568e-05
-2.27586e-05
-8.22788e-06
-3.66704e-05
-3.08925e-05
7.19254e-06
-7.61641e-06
-5.52153e-05
3.54945e-06
6.7223e-05
-2.71479e-06
-0.00010647
-5.16852e-05
0.000104635
0.000186021
0.000110829
-2.72178e-05
-9.60782e-05
-5.4679e-05
8.37267e-05
0.000227067
0.000224251
0.000109506
-2.18328e-05
-0.000140156
-0.000251429
-0.00025345
-0.000219577
-0.000164946
-0.000178906
-0.000389853
-0.00255316
-0.0188664
-0.14776
-0.673271
-0.834482
-0.830887
-0.825681
-0.819139
-0.810713
-0.799492
-0.773991
-0.73352
-0.646391
-0.493001
-0.345395
-0.237672
-0.180777
-0.122251
-0.0923898
-0.0647397
-0.0427711
-0.0282941
-0.0161249
-0.0118669
-0.00576956
0.00430433
0.00811137
0.0165383
0.0305014
0.0378656
0.0561604
0.0744104
0.0872546
0.11724
0.144839
0.170383
0.207804
0.240205
0.266995
0.310889
0.348748
0.37485
0.413924
0.448025
0.479501
0.510939
0.538585
0.561821
0.582649
0.612032
0.639896
0.662132
0.679706
0.704203
0.724496
0.749558
0.773147
0.79416
0.81429
0.831268
0.846016
0.857717
0.867017
0.873711
0.877993
0.880052
0.880567
0.87986
0.877452
0.872881
0.866009
0.857146
0.84681
0.835137
0.823831
0.81002
0.800994
0.791392
0.790943
-4.82853e-05
-3.56421e-05
-3.8538e-05
-3.61613e-05
-3.64422e-05
-3.68461e-05
-3.99276e-05
-2.88588e-05
-3.6396e-05
-4.25945e-05
-1.58461e-05
-1.78335e-05
-4.66834e-05
-2.72876e-05
1.57292e-05
-3.14911e-05
-6.99438e-05
2.46187e-05
6.76253e-05
-2.07236e-05
-0.000115946
-4.44593e-05
0.000114654
0.000158289
7.27891e-05
-1.42758e-05
-2.98464e-05
-9.1204e-06
7.84384e-05
0.000160523
0.000157576
7.3363e-05
2.04383e-05
-6.71785e-05
-0.000118623
-0.000187821
-0.000238266
-0.000327271
-0.000453509
-0.000896566
-0.00416585
-0.0309938
-0.250579
-0.745828
-0.836652
-0.833657
-0.828951
-0.822519
-0.815088
-0.805964
-0.791896
-0.76773
-0.719834
-0.618362
-0.441106
-0.30072
-0.200925
-0.131686
-0.0954874
-0.0568708
-0.0367631
-0.0152429
0.00211142
0.0143917
0.0246543
0.0433426
0.0552921
0.0678182
0.0958222
0.114799
0.143334
0.181674
0.206599
0.240691
0.278943
0.308694
0.347167
0.381603
0.410569
0.44392
0.476726
0.499899
0.526036
0.547684
0.568509
0.591404
0.607445
0.629046
0.646601
0.665449
0.684005
0.701934
0.714184
0.733004
0.750626
0.770816
0.791028
0.808562
0.825014
0.839235
0.851737
0.862075
0.870102
0.875879
0.879446
0.881316
0.881661
0.881267
0.879433
0.875994
0.870499
0.863213
0.854323
0.844379
0.833466
0.819988
0.809969
0.800956
0.799817
-4.99798e-05
-3.72947e-05
-3.98384e-05
-3.79015e-05
-3.85802e-05
-4.16366e-05
-3.80198e-05
-3.27849e-05
-4.43748e-05
-3.53124e-05
-2.06226e-05
-2.46249e-05
-5.18977e-05
-2.1202e-05
1.30237e-05
-5.36946e-05
-6.51285e-05
3.48799e-05
4.98693e-05
-3.17497e-05
-8.80941e-05
-1.08273e-05
8.7615e-05
8.55025e-05
4.18956e-05
3.70417e-05
5.53874e-05
6.83184e-05
5.45748e-05
2.8064e-05
5.34312e-05
8.78546e-05
8.60239e-05
4.32859e-05
-2.52693e-05
-0.000101937
-0.000191796
-0.000339171
-0.000585698
-0.00141324
-0.00640456
-0.0461496
-0.362102
-0.794255
-0.832309
-0.829881
-0.828066
-0.825002
-0.820192
-0.813661
-0.804363
-0.78855
-0.761376
-0.700576
-0.559815
-0.38585
-0.23333
-0.14833
-0.0843878
-0.0337127
-0.00127555
0.0228258
0.0475579
0.073727
0.0896661
0.116275
0.149267
0.173842
0.212167
0.240723
0.271706
0.310701
0.339852
0.376473
0.4094
0.43552
0.465407
0.490811
0.5125
0.533332
0.555431
0.574313
0.590691
0.611758
0.62649
0.643845
0.657117
0.668166
0.683391
0.698589
0.712928
0.728128
0.737752
0.752812
0.768178
0.785062
0.802383
0.817734
0.832228
0.84491
0.855774
0.86466
0.871571
0.876609
0.879777
0.881645
0.882342
0.882297
0.881297
0.878759
0.874224
0.868105
0.860508
0.852179
0.842105
0.829543
0.818686
0.81052
0.80854
-5.18892e-05
-3.92825e-05
-4.23068e-05
-4.0229e-05
-4.17675e-05
-4.30933e-05
-3.6706e-05
-4.34403e-05
-4.226e-05
-3.29678e-05
-3.13508e-05
-2.89939e-05
-4.99748e-05
-1.3824e-05
-1.42614e-06
-6.3387e-05
-3.69098e-05
2.80612e-05
3.82709e-06
-3.60888e-05
-1.92212e-05
2.06654e-05
2.22918e-05
2.40172e-06
5.32033e-05
0.000109578
0.000118422
0.000116755
1.89904e-05
-6.2898e-05
-1.80755e-05
0.000108838
0.000182464
0.000159946
9.5371e-05
2.18265e-05
-2.16023e-05
-9.25342e-05
-0.000167284
-0.00105745
-0.00755281
-0.0611901
-0.462497
-0.830064
-0.839724
-0.837948
-0.837304
-0.835173
-0.830935
-0.824713
-0.817397
-0.805373
-0.784573
-0.746781
-0.639034
-0.464314
-0.264634
-0.142954
-0.048288
0.00772079
0.0627242
0.102084
0.135515
0.175562
0.205204
0.231655
0.270226
0.29932
0.336723
0.368715
0.396252
0.425375
0.45106
0.475081
0.498443
0.518191
0.537607
0.555631
0.572415
0.590585
0.606587
0.622238
0.635135
0.649981
0.66158
0.674747
0.687436
0.697401
0.709612
0.722117
0.73262
0.745405
0.754461
0.767319
0.780998
0.795763
0.81094
0.824485
0.83713
0.848236
0.857691
0.865532
0.871851
0.876697
0.87996
0.881882
0.882783
0.882918
0.882197
0.880599
0.877559
0.873262
0.867033
0.859772
0.849974
0.8377
0.826101
0.818529
0.815715
-5.36227e-05
-4.08433e-05
-4.44538e-05
-4.25978e-05
-4.41023e-05
-4.2659e-05
-4.24536e-05
-4.77901e-05
-3.75954e-05
-3.98145e-05
-3.53897e-05
-3.88958e-05
-4.27267e-05
-1.32638e-05
-4.19614e-05
-4.75204e-05
-8.08561e-08
-5.52464e-06
-5.12392e-05
-1.7965e-06
5.88229e-05
2.61703e-05
-6.4114e-05
-4.69583e-05
9.35617e-05
0.000171298
0.000168517
0.000117316
1.28763e-05
-7.76328e-05
-3.67378e-05
0.000106563
0.000263733
0.000304564
0.000280825
0.00024807
0.000274894
0.000381352
0.000530476
-0.000274887
-0.00945871
-0.0920005
-0.573196
-0.828329
-0.837198
-0.839573
-0.840687
-0.840013
-0.836969
-0.833408
-0.826598
-0.814007
-0.793107
-0.75514
-0.664005
-0.487204
-0.267976
-0.0897176
0.0259441
0.104889
0.166069
0.213865
0.252535
0.29081
0.324432
0.356458
0.385038
0.411716
0.437886
0.460983
0.480694
0.500564
0.518843
0.536758
0.552433
0.570497
0.585119
0.599182
0.612571
0.625986
0.637255
0.650774
0.663161
0.675919
0.686522
0.696813
0.70776
0.716595
0.727572
0.739158
0.748065
0.759189
0.767629
0.778585
0.790259
0.802945
0.816044
0.827961
0.839248
0.849509
0.858474
0.865903
0.871694
0.876147
0.879401
0.881659
0.883137
0.88391
0.883975
0.883338
0.881146
0.877432
0.871861
0.865486
0.856312
0.845232
0.83358
0.826699
0.823126
-5.56993e-05
-4.29516e-05
-4.6531e-05
-4.52388e-05
-4.53033e-05
-4.59626e-05
-4.80276e-05
-4.64111e-05
-4.07086e-05
-4.46675e-05
-4.12817e-05
-4.70278e-05
-1.94855e-05
-3.19093e-05
-7.26604e-05
-6.93617e-06
1.16326e-05
-6.85147e-05
-8.35312e-05
4.0323e-05
9.60994e-05
1.3373e-06
-0.000114895
-5.25688e-05
0.000106583
0.000193919
0.000168188
0.000113764
4.45088e-05
-1.38662e-05
2.05061e-05
0.000107765
0.000202153
0.000284711
0.000320168
0.000281692
0.000272484
0.000248169
2.78111e-05
-0.00178659
-0.0168242
-0.136157
-0.660382
-0.834722
-0.839419
-0.839638
-0.839762
-0.839203
-0.83775
-0.834725
-0.826638
-0.812623
-0.781612
-0.71942
-0.61386
-0.40448
-0.160546
0.0194674
0.137233