/*--------------------------------*- C++ -*----------------------------------*\
| =========                 |                                                 |
| \\      /  F ield         | OpenFOAM: The Open Source CFD Toolbox           |
|  \\    /   O peration     | Version:  2.2.x                                 |
|   \\  /    A nd           | Web:      www.OpenFOAM.org                      |
|    \\/     M anipulation  |                                                 |
\*---------------------------------------------------------------------------*/
FoamFile
{
    version     2.0;
    format      ascii;
    class       volScalarField;
    location    "2.4";
    object      rho;
}
// * * * * * * * * * * * * * * * * * * * * * * * * * * * * * * * * * * * * * //

dimensions      [1 -3 0 0 0 0 0];

internalField   nonuniform List<scalar> 
14161
(
1
1
1
1
1
1
1
1
1
1
1
1
1
1
1
1
1
1
1
1
1
1
1
1
1
1
1
1
1
1
1
1
1
1
1
1
1
1
1
1.00005
1.00077
1.01122
1.1048
1.84051
3.03718
3.55581
3.67422
3.69974
3.70961
3.71878
3.72765
3.73594
3.7428
3.74746
3.75171
3.75882
3.76816
3.77715
3.7849
3.79082
3.79423
3.79804
3.80561
3.8152
3.82414
3.83093
3.83535
3.83735
3.84223
3.85121
3.86047
3.86831
3.87376
3.87561
3.87862
3.88626
3.89544
3.90359
3.9095
3.91176
3.91402
3.92092
3.92976
3.93762
3.9434
3.94554
3.94815
3.95521
3.96353
3.97054
3.97536
3.97714
3.98133
3.98883
3.99622
4.00205
4.00494
4.00773
4.01381
4.02071
4.02652
4.0302
4.03285
4.03795
4.04399
4.04923
4.05263
4.05533
4.05988
4.06505
4.0695
4.07244
4.07475
4.07695
4.07875
4.07948
4.0793
4.07908
4.08084
1
1
1
1
1
1
1
1
1
1
1
1
1
1
1
1
1
1
1
1
1
1
1
1
1
1
1
1
1
1
1
1
1
1
1
1
1
1
1
1.00005
1.00077
1.0112
1.10455
1.83706
3.03241
3.55283
3.67238
3.69836
3.70847
3.71774
3.72664
3.73492
3.74172
3.74621
3.75048
3.75777
3.76723
3.77627
3.78394
3.78973
3.7929
3.79671
3.80447
3.81415
3.82312
3.82987
3.83411
3.83603
3.84097
3.85005
3.85936
3.8672
3.87259
3.87431
3.87735
3.88507
3.89429
3.90245
3.90834
3.91056
3.91286
3.91979
3.92862
3.93649
3.94226
3.94444
3.94714
3.95419
3.96245
3.96947
3.97432
3.97625
3.98049
3.98787
3.99517
4.00102
4.00407
4.007
4.01308
4.01995
4.02574
4.02944
4.03216
4.03736
4.04342
4.04864
4.05201
4.05482
4.05944
4.06453
4.06882
4.07172
4.07418
4.07654
4.07839
4.0789
4.07863
4.07868
4.08088
1
1
1
1
1
1
1
1
1
1
1
1
1
1
1
1
1
1
1
1
1
1
1
1
1
1
1
1
1
1
1
1
1
1
1
1
1
1
1
1.00005
1.00075
1.011
1.10305
1.83194
3.02771
3.55123
3.67142
3.69753
3.70782
3.71715
3.72604
3.73424
3.74096
3.74531
3.74967
3.75718
3.7667
3.77572
3.78325
3.78891
3.79192
3.79582
3.8038
3.81349
3.82242
3.82906
3.83314
3.83505
3.84009
3.84926
3.85856
3.86635
3.87166
3.87328
3.87639
3.88419
3.89341
3.90155
3.90739
3.90954
3.91191
3.91888
3.9277
3.93555
3.94129
3.94347
3.94626
3.9533
3.9615
3.96849
3.97334
3.97541
3.9797
3.98697
3.99414
3.99995
4.00311
4.00625
4.01227
4.01893
4.02459
4.02825
4.03109
4.03632
4.04229
4.04743
4.05069
4.05366
4.05845
4.06352
4.06759
4.07026
4.07287
4.07556
4.07749
4.07762
4.07708
4.07719
4.07949
1
1
1
1
1
1
1
1
1
1
1
1
1
1
1
1
1
1
1
1
1
1
1
1
1
1
1
1
1
1
1
1
1
1
1
1
1
1
1
1.00004
1.00071
1.0106
1.10034
1.82554
3.02388
3.55184
3.67273
3.69879
3.70914
3.7185
3.72734
3.73543
3.74207
3.74626
3.75074
3.75847
3.768
3.77694
3.78428
3.78976
3.79269
3.79678
3.80499
3.81465
3.82341
3.82989
3.83372
3.83568
3.84096
3.85023
3.85945
3.8671
3.87226
3.8738
3.87708
3.88502
3.89419
3.90221
3.90795
3.90999
3.91254
3.91963
3.92838
3.93612
3.94178
3.94395
3.94692
3.95401
3.96204
3.96886
3.97359
3.97572
3.98019
3.98735
3.99432
3.99993
4.00299
4.0063
4.01233
4.01879
4.02425
4.02774
4.03065
4.03584
4.04161
4.04654
4.04954
4.05257
4.05738
4.06235
4.0662
4.06859
4.07127
4.07405
4.07589
4.07574
4.07496
4.07518
4.07704
1
1
1
1
1
1
1
1
1
1
1
1
1
1
1
1
1
1
1
1
1
1
1
1
1
1
1
1
1
1
1
1
1
1
1
1
1
1
1
1.00004
1.00067
1.01013
1.09704
1.81588
3.01674
3.55089
3.67335
3.69976
3.71042
3.71998
3.72897
3.73711
3.74378
3.74792
3.75262
3.76068
3.7704
3.7795
3.78689
3.79229
3.79515
3.79951
3.8081
3.81789
3.82666
3.83301
3.83643
3.83847
3.84419
3.85364
3.86287
3.87038
3.87526
3.87665
3.88021
3.88836
3.89744
3.90528
3.91082
3.91263
3.91534
3.92258
3.9311
3.93853
3.94393
3.94597
3.94914
3.95612
3.96376
3.97018
3.97455
3.97664
3.98134
3.98833
3.99505
4.00036
4.00317
4.00661
4.01271
4.01905
4.02431
4.02748
4.03051
4.03577
4.04134
4.04597
4.04864
4.05158
4.05629
4.06111
4.06473
4.06684
4.06935
4.07193
4.07365
4.07344
4.07266
4.07258
4.07359
1
1
1
1
1
1
1
1
1
1
1
1
1
1
1
1
1
1
1
1
1
1
1
1
1
1
1
1
1
1
1
1
1
1
1
1
1
1
1
1.00004
1.00062
1.00961
1.09315
1.80259
3.00542
3.5478
3.67185
3.6985
3.7095
3.71909
3.72799
3.73576
3.7419
3.74568
3.75055
3.75885
3.76831
3.77702
3.78389
3.7888
3.79142
3.79622
3.80503
3.81451
3.82289
3.82888
3.83184
3.83413
3.84037
3.84983
3.85889
3.86597
3.87041
3.8717
3.87585
3.88445
3.89349
3.90109
3.90628
3.90777
3.91108
3.91903
3.92781
3.9352
3.94033
3.94208
3.94592
3.95381
3.96202
3.96871
3.9729
3.975
3.98031
3.98788
3.99489
4.00022
4.00284
4.00652
4.01286
4.01928
4.02445
4.02737
4.0305
4.03582
4.04132
4.04563
4.04801
4.05066
4.05511
4.05972
4.06314
4.06503
4.06707
4.0692
4.07072
4.07064
4.06997
4.06928
4.06952
1
1
1
1
1
1
1
1
1
1
1
1
1
1
1
1
1
1
1
1
1
1
1
1
1
1
1
1
1
1
1
1
1
1
1
1
1
1
1
1.00003
1.00056
1.00898
1.08836
1.7852
2.98996
3.54294
3.66964
3.69699
3.70847
3.71815
3.727
3.73457
3.74044
3.74419
3.74945
3.75801
3.76737
3.77591
3.7825
3.78714
3.78988
3.79515
3.80417
3.81343
3.82149
3.82722
3.82992
3.8326
3.83936
3.84876
3.85758
3.86427
3.86829
3.86974
3.87447
3.88323
3.89207
3.89932
3.90398
3.9054
3.90926
3.91745
3.92612
3.93323
3.93775
3.93921
3.94364
3.9519
3.9601
3.96667
3.97026
3.9725
3.97844
3.98641
3.99354
3.99879
4.00119
4.00525
4.01193
4.01859
4.02382
4.02659
4.02987
4.03534
4.04091
4.04511
4.04733
4.04971
4.05363
4.05802
4.06134
4.06306
4.06457
4.06606
4.06717
4.06711
4.06652
4.06545
4.06478
1
1
1
1
1
1
1
1
1
1
1
1
1
1
1
1
1
1
1
1
1
1
1
1
1
1
1
1
1
1
1
1
1
1
1
1
1
1
1
1.00003
1.00049
1.00815
1.08184
1.76314
2.97146
3.53851
3.6685
3.69679
3.70877
3.71849
3.72721
3.73458
3.74023
3.7441
3.74988
3.75874
3.76794
3.77625
3.78261
3.78688
3.78988
3.79575
3.80497
3.81402
3.8217
3.82712
3.82949
3.83275
3.84015
3.84941
3.8579
3.86421
3.86761
3.86937
3.87477
3.88364
3.89223
3.89902
3.90317
3.9045
3.90899
3.91734
3.92577
3.93255
3.9366
3.93791
3.9427
3.95091
3.95881
3.965
3.96799
3.97029
3.97661
3.98465
3.9916
3.99645
3.99859
4.00309
4.01019
4.01701
4.02222
4.02479
4.02816
4.03378
4.03951
4.04376
4.04598
4.04824
4.05194
4.05604
4.05907
4.06069
4.06182
4.06268
4.06329
4.06296
4.06215
4.06083
4.05923
1
1
1
1
1
1
1
1
1
1
1
1
1
1
1
1
1
1
1
1
1
1
1
1
1
1
1
1
1
1
1
1
1
1
1
1
1
1
1
1.00002
1.0004
1.00715
1.07383
1.73574
2.94875
3.53373
3.66787
3.69718
3.70973
3.71951
3.72816
3.73536
3.74043
3.74437
3.75081
3.7601
3.76925
3.77731
3.78338
3.78705
3.79021
3.79694
3.80648
3.81552
3.82276
3.8277
3.82968
3.83348
3.84167
3.85102
3.85933
3.86528
3.86783
3.86973
3.87595
3.885
3.89348
3.89988
3.90338
3.90455
3.90955
3.91807
3.92628
3.93267
3.93627
3.9376
3.94253
3.95044
3.95802
3.96386
3.96649
3.96893
3.9753
3.98309
3.98967
3.99405
3.99612
4.00095
4.00813
4.01476
4.01969
4.0221
4.02577
4.03156
4.03724
4.04142
4.04363
4.04606
4.04976
4.05364
4.05631
4.0576
4.05838
4.05887
4.05917
4.05818
4.05689
4.05538
4.05273
1
1
1
1
1
1
1
1
1
1
1
1
1
1
1
1
1
1
1
1
1
1
1
1
1
1
1
1
1
1
1
1
1
1
1
1
1
1
1
1.00002
1.00031
1.00612
1.06516
1.7025
2.91948
3.52623
3.66575
3.69661
3.70967
3.71928
3.72747
3.7343
3.73912
3.74354
3.75044
3.75949
3.76827
3.77586
3.7817
3.78536
3.78923
3.79623
3.80522
3.81378
3.82055
3.82523
3.82767
3.83205
3.84001
3.84881
3.85667
3.86241
3.86508
3.86759
3.87398
3.88262
3.89074
3.89698
3.90041
3.90221
3.90763
3.91599
3.92402
3.93034
3.93382
3.93583
3.94136
3.94926
3.95669
3.96243
3.96513
3.96797
3.97426
3.98153
3.98778
3.99197
3.99426
3.99914
4.00599
4.01221
4.01677
4.01924
4.02338
4.0291
4.0344
4.03825
4.04045
4.04344
4.04728
4.05078
4.05279
4.05366
4.05429
4.05474
4.05457
4.05283
4.05093
4.049
4.04511
1
1
1
1
1
1
1
1
1
1
1
1
1
1
1
1
1
1
1
1
1
1
1
1
1
1
1
1
1
1
1
1
1
1
1
1
1
1
1
1.00001
1.0002
1.00496
1.05499
1.66272
2.88355
3.51704
3.6634
3.69639
3.71002
3.71943
3.72713
3.73353
3.73812
3.74336
3.75099
3.75957
3.76763
3.77468
3.78042
3.78413
3.78881
3.79638
3.80482
3.81263
3.81889
3.82341
3.82661
3.83179
3.83974
3.84776
3.85481
3.86025
3.86335
3.86693
3.87361
3.88156
3.88891
3.89461
3.89785
3.90078
3.90671
3.91449
3.92183
3.92765
3.9308
3.93378
3.94
3.94765
3.95461
3.95998
3.96265
3.96617
3.97267
3.97963
3.98556
3.9896
3.99243
3.99754
4.00379
4.00945
4.01365
4.01638
4.02098
4.02648
4.03126
4.03456
4.03693
4.04055
4.0445
4.04734
4.0485
4.04909
4.04972
4.0502
4.04925
4.04685
4.04445
4.04178
4.03652
1
1
1
1
1
1
1
1
1
1
1
1
1
1
1
1
1
1
1
1
1
1
1
1
1
1
1
1
1
1
1
1
1
1
1
1
1
1
1
1.00001
1.0001
1.00374
1.04389
1.61528
2.8387
3.50481
3.65927
3.69583
3.71049
3.719
3.72553
3.73088
3.73635
3.74326
3.75152
3.75955
3.76666
3.77257
3.77709
3.78186
3.78875
3.79719
3.80513
3.81161
3.81627
3.81989
3.82482
3.83216
3.84035
3.84779
3.85351
3.85696
3.86055
3.86634
3.87393
3.88141
3.88764
3.89219
3.89501
3.8995
3.90635
3.91352
3.91988
3.9248
3.92765
3.93196
3.93883
3.94602
3.95218
3.95667
3.95941
3.96432
3.97114
3.97775
3.98316
3.9864
3.98983
3.99555
4.00164
4.00683
4.0103
4.01333
4.01834
4.02364
4.02794
4.03044
4.03312
4.0372
4.04101
4.04311
4.04355
4.04403
4.04469
4.04493
4.04304
4.04039
4.03743
4.0338
4.02696
1
1
1
1
1
1
1
1
1
1
1
1
1
1
1
1
1
1
1
1
1
1
1
1
1
1
1
1
1
1
1
1
1
1
1
1
1
1
1.00001
1.0001
1.00011
1.00243
1.03154
1.56011
2.78459
3.48964
3.6549
3.69558
3.71071
3.7182
3.72343
3.72873
3.73551
3.74396
3.75226
3.75958
3.76552
3.76986
3.77408
3.78095
3.78981
3.79813
3.80465
3.8092
3.81219
3.81666
3.82412
3.83274
3.84042
3.84595
3.84902
3.85189
3.85747
3.86563
3.87365
3.88015
3.88441
3.88646
3.8905
3.89766
3.9055
3.91247
3.91756
3.92
3.92329
3.92986
3.93751
3.9444
3.94964
3.95225
3.9559
3.96262
3.96979
3.97582
3.97998
3.98236
3.98708
3.99347
3.99944
4.00396
4.00622
4.00977
4.01515
4.0203
4.02406
4.02583
4.02894
4.03313
4.03652
4.03796
4.03801
4.03851
4.03922
4.03866
4.03619
4.03346
4.02987
4.02512
4.01672
1
1
1
1
1
1
1
1
1
1
1
1
1
1
1
1
1
1
1
1
1
1
1
1
1
1
1
1
1
1
1
1
1
1
1
1
1
1
1
0.999999
0.999725
1.00083
1.0182
1.49678
2.71884
3.47248
3.65323
3.69859
3.71346
3.71924
3.72412
3.7302
3.73871
3.74762
3.7555
3.76145
3.76545
3.76862
3.77444
3.78387
3.79327
3.80075
3.8055
3.80699
3.80921
3.81584
3.82565
3.83492
3.84151
3.84482
3.84446
3.84744
3.85574
3.86541
3.87377
3.87914
3.88016
3.88061
3.88644
3.89576
3.90441
3.91075
3.91363
3.91425
3.91906
3.92751
3.93575
3.94221
3.94573
3.94729
3.95257
3.96045
3.96776
3.97323
3.97558
3.978
3.984
3.99086
3.99649
3.9999
4.00162
4.00591
4.0115
4.01633
4.01937
4.02092
4.02439
4.02842
4.03129
4.03219
4.03219
4.0326
4.0331
4.03174
4.02891
4.0259
4.02158
4.01572
4.00553
1
1
1
1
1
1
1
1
1
1
1
1
1
1
1
1
1
1
1
1
1
1
1
1
1
1
1
1
1
1
1
1
1
1
1
1
1
0.999999
0.99999
0.999821
0.998662
0.999183
1.00523
1.42399
2.63081
3.45557
3.65961
3.70903
3.72062
3.72383
3.72831
3.73569
3.74502
3.75391
3.76089
3.76545
3.76663
3.7692
3.77725
3.78789
3.79742
3.80412
3.80771
3.80721
3.80836
3.8162
3.82713
3.83675
3.84311
3.84587
3.8438
3.84581
3.8547
3.86517
3.87367
3.87903
3.87834
3.87789
3.88418
3.89407
3.90291
3.90897
3.91004
3.9098
3.91569
3.9249
3.93311
3.93905
3.9407
3.94242
3.94915
3.9575
3.96455
3.96938
3.97059
3.97406
3.9809
3.98764
3.99283
3.99499
3.99707
4.00205
4.00753
4.01189
4.01406
4.0158
4.01953
4.02328
4.02558
4.02594
4.02601
4.02618
4.02622
4.02433
4.02109
4.01757
4.01237
4.00543
3.99346
1
1
1
1
1
1
1
1
1
1
1
1
1
1
1
1
1
1
1
1
1
1
1
1
1
1
1
1
1
1
1
1
1
1
1
1
1
1
0.999998
0.999928
0.99916
0.999078
0.989191
1.3366
2.50649
3.42858
3.66336
3.71731
3.72641
3.72823
3.73245
3.74105
3.75023
3.75804
3.76376
3.76741
3.76825
3.77171
3.77977
3.78993
3.79875
3.80506
3.80895
3.80945
3.81166
3.81829
3.82812
3.83735
3.84376
3.84655
3.84537
3.84768
3.85568
3.8653
3.87341
3.87843
3.87823
3.87788
3.884
3.89321
3.90123
3.90669
3.90729
3.90727
3.91337
3.92218
3.92968
3.93489
3.93572
3.9382
3.94554
3.95383
3.96056
3.9645
3.96571
3.97033
3.9775
3.98391
3.98842
3.98995
3.99281
3.99817
4.00334
4.00702
4.00838
4.01054
4.0143
4.01768
4.01928
4.01912
4.0191
4.01921
4.01864
4.01625
4.01243
4.00842
4.00231
3.99417
3.98046
1
1
1
1
1
1
1
1
1
1
1
1
1
1
1
1
1
1
1
1
1
1
1
1
1
1
1
1
1
1
1
1
1
1
1
1
1
1
1.00002
1.00013
0.999772
0.998923
0.993609
1.25711
2.34447
3.37531
3.64429
3.70468
3.7236
3.73105
3.73412
3.73629
3.74031
3.74793
3.75806
3.76766
3.77503
3.7799
3.78135
3.78399
3.79059
3.79998
3.80899
3.816
3.82033
3.82215
3.82528
3.83109
3.83786
3.84429
3.8499
3.85377
3.85866
3.86498
3.87069
3.87521
3.8781
3.88034
3.88577
3.89311
3.89967
3.90415
3.90508
3.90628
3.91215
3.91973
3.92602
3.93024
3.93113
3.93445
3.94181
3.94948
3.95572
3.95889
3.96093
3.96654
3.97358
3.97951
3.98329
3.98469
3.98844
3.99391
3.99858
4.00143
4.00233
4.00495
4.00856
4.01134
4.01223
4.01172
4.01157
4.01166
4.01041
4.00748
4.0031
3.99838
3.9915
3.98195
3.9667
1
1
1
1
1
1
1
1
1
1
1
1
1
1
1
1
1
1
1
1
1
1
1
1
1
1
1
1
1
1
1
1
1
1
1
1
1
1
1
1.00001
0.999985
1.0004
1.00908
1.21431
2.20184
3.27781
3.60248
3.67653
3.70143
3.71229
3.71785
3.72087
3.72553
3.73433
3.74458
3.75373
3.76088
3.76584
3.76789
3.77136
3.77936
3.78924
3.79821
3.80499
3.80921
3.81145
3.81563
3.82352
3.83307
3.84198
3.8485
3.85198
3.85411
3.85824
3.86466
3.87179
3.87858
3.88415
3.88845
3.89249
3.89625
3.89993
3.90329
3.9067
3.91169
3.9174
3.92219
3.92542
3.92705
3.93113
3.93785
3.94443
3.94976
3.95247
3.95589
3.96218
3.96886
3.97428
3.97723
3.97916
3.98374
3.989
3.99307
3.99504
3.9961
3.99909
4.00234
4.00428
4.00444
4.00395
4.0037
4.00343
4.00147
3.99795
3.99317
3.98783
3.98006
3.9689
3.95226
1
1
1
1
1
1
1
1
1
1
1
1
1
1
1
1
1
1
1
1
1
1
1
1
1
1
1
1
1
1
1
1
1
1
1
1
1
1
1
1.00001
1.00008
1.00131
1.01808
1.17552
2.06573
3.18381
3.56807
3.65715
3.68668
3.69891
3.70519
3.70979
3.7156
3.72465
3.73451
3.74329
3.74989
3.75436
3.75668
3.76159
3.77047
3.77978
3.78792
3.79368
3.79657
3.79903
3.80513
3.81486
3.82436
3.83226
3.8374
3.83927
3.84203
3.84945
3.85963
3.8693
3.87665
3.88089
3.88245
3.88551
3.8909
3.89729
3.90355
3.90878
3.91259
3.91545
3.9182
3.92125
3.92412
3.92858
3.93388
3.93866
3.94261
3.94567
3.9506
3.95709
3.9632
3.96802
3.97048
3.97361
3.97861
3.98336
3.98678
3.98813
3.98984
3.99287
3.9955
3.99654
3.99614
3.99575
3.99558
3.99455
3.99178
3.98778
3.98275
3.97672
3.96802
3.95526
3.93713
1
1
1
1
1
1
1
1
1
1
1
1
1
1
1
1
1
1
1
1
1
1
1
1
1
1
1
1
1
1
1
1
1
1
1
1
1
1
1
1
1.00005
1.00085
1.013
1.12678
1.92732
3.09543
3.55002
3.65432
3.68484
3.69614
3.70191
3.70721
3.71377
3.72277
3.73169
3.73948
3.7454
3.74918
3.75247
3.75853
3.76733
3.77567
3.78242
3.78698
3.78878
3.79142
3.79808
3.80698
3.81522
3.82128
3.82497
3.82662
3.83167
3.84106
3.85122
3.86004
3.86598
3.86839
3.8708
3.87763
3.88722
3.89648
3.90363
3.90761
3.90871
3.91013
3.91339
3.91766
3.92221
3.9266
3.93013
3.93266
3.93541
3.93945
3.94515
3.95119
3.95647
3.96042
3.96346
3.96794
3.9729
3.97702
3.97964
3.98096
3.98339
3.98617
3.98795
3.98812
3.98754
3.98724
3.98682
3.98502
3.98147
3.97709
3.97178
3.96497
3.95531
3.94102
3.92116
1
1
1
1
1
1
1
1
1
1
1
1
1
1
1
1
1
1
1
1
1
1
1
1
1
1
1
1
1
1
1
1
1
1
1
1
1
1
1
1
1.00003
1.00037
1.00721
1.07867
1.76739
2.97712
3.52824
3.65746
3.69063
3.7003
3.70534
3.71119
3.71935
3.72816
3.73607
3.74236
3.74706
3.74997
3.75416
3.76131
3.76924
3.77616
3.78116
3.78444
3.78608
3.78925
3.79577
3.80324
3.80977
3.81436
3.81633
3.8184
3.82432
3.83306
3.84155
3.84833
3.85291
3.8552
3.86047
3.8702
3.88078
3.88981
3.89549
3.89757
3.89894
3.90398
3.91108
3.918
3.92344
3.92624
3.92639
3.92684
3.92979
3.9346
3.93981
3.94448
3.9482
3.95173
3.95638
3.96161
3.9663
3.96979
3.97171
3.97369
3.97645
3.97878
3.97967
3.97909
3.97855
3.97846
3.97734
3.97478
3.97051
3.9659
3.9602
3.95243
3.94179
3.92601
3.90446
1
1
1
1
1
1
1
1
1
1
1
1
1
1
1
1
1
1
1
1
1
1
1
1
1
1
1
1
1
1
1
1
1
1
1
1
1
1
1
1.00002
1.00009
1.00007
1.00273
1.03532
1.5931
2.83282
3.50617
3.66543
3.7014
3.71043
3.71594
3.72214
3.72904
3.7358
3.74168
3.7464
3.74982
3.75332
3.7587
3.76522
3.77123
3.77631
3.78025
3.78291
3.78574
3.79018
3.7963
3.80212
3.80679
3.80995
3.81148
3.8143
3.82028
3.82741
3.83372
3.83857
3.84128
3.84464
3.85167
3.86148
3.8708
3.87793
3.88227
3.88446
3.89027
3.89963
3.909
3.91637
3.92016
3.92033
3.9195
3.92168
3.92603
3.93094
3.93526
3.93747
3.93905
3.94327
3.94906
3.95436
3.95856
3.96127
3.96334
3.96623
3.96891
3.97043
3.9705
3.96972
3.96927
3.96911
3.96712
3.96385
3.95908
3.95407
3.94782
3.93904
3.92744
3.91027
3.88694
1
1
1
1
1
1
1
1
1
1
1
1
1
1
1
1
1
1
1
1
1
1
1
1
1
1
1
1
1
1
1
1
1
1
1
1
1
1
1
0.999998
0.999929
0.999344
1.00059
0.995342
1.40402
2.64441
3.46812
3.66633
3.71023
3.72165
3.72859
3.73439
3.73928
3.74331
3.74643
3.74971
3.75437
3.76025
3.76595
3.77073
3.77432
3.77701
3.77943
3.78267
3.7876
3.79324
3.79831
3.802
3.80436
3.80546
3.80798
3.8123
3.81791
3.8232
3.82751
3.83042
3.83262
3.83687
3.84421
3.85236
3.85962
3.86526
3.8686
3.87356
3.8827
3.89323
3.90226
3.90784
3.90963
3.90988
3.91359
3.91937
3.92531
3.9298
3.9317
3.93016
3.93111
3.93597
3.94165
3.94628
3.94927
3.95159
3.95485
3.95822
3.96049
3.96105
3.96048
3.96001
3.95977
3.9589
3.95596
3.95244
3.9474
3.94155
3.93449
3.92483
3.91227
3.8937
3.86858
1
1
1
1
1
1
1
1
1
1
1
1
1
1
1
1
1
1
1
1
1
1
1
1
1
1
1
1
1
1
1
1
1
1
1
1
1
1
1
1.00002
1.00009
0.999847
0.99951
1.00197
1.23737
2.33114
3.36775
3.63373
3.68844
3.70359
3.71213
3.71797
3.72239
3.72623
3.73045
3.73606
3.74259
3.74879
3.7541
3.75835
3.76143
3.76516
3.77066
3.77724
3.78359
3.78898
3.79291
3.79553
3.79792
3.80167
3.80683
3.81203
3.81658
3.81989
3.82205
3.82365
3.82656
3.83159
3.83797
3.84395
3.84903
3.85263
3.85667
3.86402
3.87404
3.88355
3.89073
3.89479
3.8969
3.90204
3.90983
3.91753
3.92323
3.92544
3.92385
3.9223
3.92498
3.92997
3.93463
3.93781
3.93876
3.94166
3.94604
3.94944
3.95104
3.95062
3.94997
3.94991
3.94963
3.94781
3.94398
3.9405
3.9352
3.92828
3.92029
3.9099
3.89633
3.87629
3.84929
1
1
1
1
1
1
1
1
1
1
1
1
1
1
1
1
1
1
1
1
1
1
1
1
1
1
1
1
1
1
1
1
1
1
1
1
1
1
1
1
1.00001
1.00005
1.00077
1.01337
1.15182
2.05459
3.20085
3.58034
3.66605
3.69129
3.70313
3.70987
3.7145
3.71856
3.72341
3.7297
3.73621
3.74214
3.74684
3.7503
3.75282
3.7569
3.76318
3.76977
3.7756
3.77989
3.78272
3.78509
3.78964
3.79626
3.80268
3.80808
3.81167
3.81377
3.81519
3.81786
3.82213
3.82736
3.83245
3.83656
3.83887
3.84158
3.84684
3.85509
3.86396
3.87157
3.87716
3.88069
3.88627
3.89539
3.90473
3.912
3.91545
3.91504
3.91381
3.91614
3.92074
3.92549
3.92887
3.92852
3.92851
3.93226
3.93679
3.93972
3.94038
3.93931
3.93914
3.9395
3.93851
3.93594
3.93149
3.92784
3.92207
3.91426
3.90541
3.89428
3.87957
3.85803
3.82928
1
1
1
1
1
1
1
1
1
1
1
1
1
1
1
1
1
1
1
1
1
1
1
1
1
1
1
1
1
1
1
1
1
1
1
1
1
1
1
1
1
1
1.00022
1.00684
1.08009
1.81409
3.02727
3.53346
3.65392
3.68749
3.70097
3.70801
3.71293
3.7176
3.72316
3.72944
3.73538
3.74064
3.74481
3.74771
3.7502
3.75427
3.7598
3.76516
3.76972
3.77311
3.77507
3.77762
3.78264
3.78908
3.79504
3.79978
3.80308
3.80502
3.808
3.81286
3.81822
3.82318
3.82681
3.82874
3.82953
3.83268
3.8389
3.84631
3.85318
3.85872
3.86255
3.86791
3.87673
3.88698
3.89573
3.90112
3.90268
3.90332
3.90708
3.91263
3.91787
3.92123
3.92081
3.91774
3.91913
3.92344
3.92722
3.92905
3.92832
3.92781
3.928
3.92838
3.92635
3.92332
3.91862
3.91445
3.90796
3.89948
3.88996
3.87803
3.86211
3.83907
3.80844
1
1
1
1
1
1
1
1
1
1
1
1
1
1
1
1
1
1
1
1
1
1
1
1
1
1
1
1
1
1
1
1
1
1
1
1
1
1
1
1
0.999999
0.99994
0.999477
1.00046
1.01553
1.55581
2.82944
3.51192
3.66804
3.70175
3.71023
3.71347
3.71662
3.72039
3.72503
3.73004
3.73471
3.73896
3.74273
3.74591
3.74921
3.75359
3.75856
3.76317
3.76699
3.77005
3.77226
3.77529
3.77998
3.78502
3.78951
3.79304
3.79534
3.79768
3.80179
3.80704
3.81199
3.81619
3.81909
3.82013
3.82148
3.82538
3.83135
3.83733
3.84239
3.84547
3.84905
3.85651
3.86658
3.87599
3.88302
3.8868
3.88931
3.89462
3.9018
3.90823
3.91227
3.91215
3.90872
3.90804
3.91098
3.91503
3.91806
3.91702
3.91553
3.91612
3.9167
3.91625
3.91306
3.91017
3.90541
3.9004
3.89299
3.884
3.87391
3.86099
3.84379
3.81931
3.78705
1
1
1
1
1
1
1
1
1
1
1
1
1
1
1
1
1
1
1
1
1
1
1
1
1
1
1
1
1
1
1
1
1
1
1
1
1
1
1
1
0.999999
0.999986
0.999795
0.997375
0.974907
1.27876
2.4974
3.42919
3.65716
3.70375
3.71365
3.71735
3.72091
3.7247
3.72852
3.73226
3.73592
3.73947
3.74313
3.7474
3.75216
3.75688
3.76109
3.76444
3.76702
3.76902
3.77178
3.77557
3.77943
3.78289
3.78558
3.78746
3.78907
3.79228
3.79679
3.80149
3.80586
3.80929
3.81152
3.8128
3.81545
3.81968
3.82441
3.82856
3.83169
3.83325
3.8376
3.84592
3.85508
3.86282
3.86822
3.87172
3.87774
3.88656
3.89466
3.89998
3.9011
3.89903
3.89804
3.90035
3.90431
3.90779
3.90702
3.9035
3.90317
3.90418
3.90487
3.90302
3.89877
3.89652
3.8918
3.88567
3.87716
3.86785
3.85717
3.84315
3.82476
3.79902
3.76494
1
1
1
1
1
1
1
1
1
1
1
1
1
1
1
1
1
1
1
1
1
1
1
1
1
1
1
1
1
1
1
1
1
1
1
1
1
1
1
1
1
1
1.00003
1.00056
1.01143
1.15764
2.10074
3.22523
3.58296
3.66407
3.68592
3.69509
3.70114
3.70608
3.71069
3.71501
3.71914
3.72328
3.72782
3.73271
3.73764
3.74234
3.74662
3.75054
3.75417
3.75818
3.76291
3.7676
3.77179
3.77508
3.77769
3.77971
3.78258
3.78687
3.79149
3.79579
3.79918
3.80168
3.80334
3.80627
3.81009
3.81393
3.81759
3.82054
3.8215
3.82317
3.82825
3.83549
3.84259
3.84859
3.85246
3.85787
3.86714
3.87681
3.88401
3.88713
3.88679
3.88715
3.89058
3.89486
3.89813
3.8975
3.89291
3.89051
3.89144
3.89275
3.89173
3.88852
3.88409
3.88243
3.87743
3.87017
3.86059
3.85104
3.83969
3.82445
3.80486
3.77794
3.74226
1
1
1
1
1
1
1
1
1
1
1
1
1
1
1
1
1
1
1
1
1
1
1
1
1
1
1
1
1
1
1
1
1
1
1
1
1
1
1
1
1
0.999998
0.999992
1.00011
1.00548
1.07235
1.79039
3.00089
3.51562
3.63819
3.66926
3.68112
3.68845
3.69412
3.69914
3.70355
3.70781
3.71219
3.71666
3.72109
3.72534
3.7293
3.73298
3.73657
3.74087
3.74598
3.75126
3.7563
3.7608
3.7646
3.76784
3.77095
3.77463
3.77897
3.78325
3.7869
3.78969
3.79143
3.7943
3.79868
3.80312
3.80718
3.81011
3.81175
3.81215
3.81475
3.81975
3.82516
3.83007
3.83374
3.83767
3.84533
3.85525
3.86393
3.86961
3.87166
3.87342
3.87813
3.88358
3.88758
3.88767
3.88267
3.87912
3.87918
3.88081
3.88113
3.87631
3.87333
3.86964
3.86763
3.86185
3.85387
3.84354
3.83351
3.82135
3.80491
3.7843
3.75638
3.71865
1
1
1
1
1
1
1
1
1
1
1
1
1
1
1
1
1
1
1
1
1
1
1
1
1
1
1
1
1
1
1
1
1
1
1
1
1
1
1
1
1
0.999995
0.999913
0.999429
1.00154
1.00076
1.44844
2.70619
3.45629
3.63351
3.67308
3.68487
3.69043
3.69387
3.69674
3.69963
3.70269
3.7061
3.70961
3.71301
3.71624
3.71929
3.72227
3.7257
3.72998
3.7346
3.73926
3.7438
3.74801
3.75232
3.75692
3.76163
3.76614
3.77033
3.77399
3.77699
3.77944
3.78206
3.78573
3.79015
3.79453
3.79825
3.80083
3.8018
3.80337
3.8066
3.81079
3.81457
3.81763
3.81959
3.82441
3.83292
3.84169
3.84882
3.85333
3.85666
3.86245
3.86915
3.87406
3.87561
3.87237
3.86817
3.86753
3.86917
3.87081
3.8669
3.8595
3.85818
3.85536
3.8519
3.84466
3.83674
3.82615
3.81532
3.8021
3.78456
3.76289
3.73385
3.6946
1
1
1
1
1
1
1
1
1
1
1
1
1
1
1
1
1
1
1
1
1
1
1
1
1
1
1
1
1
1
1
1
1
1
1
1
1
1
1
1
1
0.999999
0.999996
1.00001
1.00055
1.01303
1.18645
2.2171
3.30066
3.595
3.66034
3.67853
3.68596
3.68983
3.69255
3.69515
3.69818
3.70155
3.70483
3.70781
3.7104
3.71262
3.71498
3.71805
3.72159
3.72511
3.72839
3.73148
3.73451
3.73865
3.74384
3.74926
3.75446
3.75901
3.76275
3.76587
3.76918
3.7731
3.77741
3.78173
3.78559
3.78856
3.79057
3.79243
3.79527
3.7985
3.80176
3.8046
3.80557
3.80706
3.81233
3.81967
3.82663
3.83231
3.83656
3.84298
3.85124
3.85759
3.86065
3.85964
3.85691
3.85633
3.85815
3.85966
3.85642
3.84967
3.8441
3.84334
3.8407
3.83516
3.82602
3.8189
3.80833
3.79636
3.78196
3.76354
3.74096
3.71083
3.66961
1
1
1
1
1
1
1
1
1
1
1
1
1
1
1
1
1
1
1
1
1
1
1
1
1
1
1
1
1
1
1
1
1
1
1
1
1
1
1
1
1
1
0.999998
0.999987
1.00007
1.00522
1.07208
1.80249
3.02675
3.53566
3.65649
3.68362
3.69075
3.69353
3.6957
3.6983
3.70128
3.70429
3.70694
3.70917
3.71087
3.71244
3.71437
3.7167
3.71895
3.72097
3.72279
3.72424
3.72605
3.7291
3.73299
3.73714
3.74138
3.74555
3.7495
3.75348
3.75761
3.76222
3.76678
3.77083
3.77404
3.77653
3.77933
3.78294
3.78678
3.79035
3.79307
3.79475
3.79453
3.79625
3.80092
3.8062
3.81122
3.81516
3.82073
3.82951
3.83776
3.84303
3.84432
3.84351
3.84387
3.84638
3.84843
3.84578
3.83786
3.83338
3.83013
3.82876
3.82462
3.817
3.80712
3.80039
3.78957
3.77641
3.76112
3.74199
3.71824
3.68681
3.64407
1
1
1
1
1
1
1
1
1
1
1
1
1
1
1
1
1
1
1
1
1
1
1
1
1
1
1
1
1
1
1
1
1
1
1
1
1
1
1
1
1
1
0.999994
0.999902
0.999256
0.999445
0.990391
1.3909
2.66014
3.45093
3.64076
3.68272
3.69336
3.69834
3.70176
3.7045
3.70684
3.70881
3.71041
3.71172
3.71259
3.71371
3.71517
3.71648
3.71751
3.71831
3.71867
3.71919
3.7207
3.72279
3.72513
3.72753
3.72982
3.73253
3.73629
3.74069
3.74542
3.75013
3.75448
3.75815
3.76107
3.76384
3.76762
3.77202
3.77637
3.78014
3.78256
3.78345
3.78364
3.78589
3.78948
3.79291
3.79567
3.79873
3.80562
3.81439
3.8217
3.82608
3.82749
3.82917
3.83234
3.83501
3.83427
3.82755
3.82052
3.8186
3.81681
3.81347
3.8056
3.79823
3.78898
3.78118
3.76961
3.75566
3.73982
3.72002
3.69509
3.66234
3.61727
1
1
1
1
1
1
1
1
1
1
1
1
1
1
1
1
1
1
1
1
1
1
1
1
1
1
1
1
1
1
1
1
1
1
1
1
1
1
1
1
1
1
1
0.999997
0.999989
1.0004
1.01081
1.15691
2.12992
3.24308
3.57522
3.65176
3.67157
3.67959
3.68434
3.68769
3.69051
3.69314
3.69563
3.69801
3.70038
3.70268
3.70484
3.70674
3.70831
3.70959
3.71048
3.71163
3.71311
3.71457
3.71599
3.7175
3.71863
3.72052
3.72383
3.7278
3.73211
3.73648
3.74061
3.74431
3.74795
3.75195
3.75627
3.76064
3.76476
3.76792
3.76995
3.77143
3.77331
3.77561
3.77798
3.78021
3.78096
3.78373
3.79037
3.79779
3.80395
3.80814
3.81149
3.81579
3.819
3.81994
3.81607
3.8097
3.80631
3.80504
3.80189
3.79552
3.78521
3.77949
3.77121
3.76112
3.74831
3.73436
3.71809
3.69731
3.67104
3.63707
3.59045
1
1
1
1
1
1
1
1
1
1
1
1
1
1
1
1
1
1
1
1
1
1
1
1
1
1
1
1
1
1
1
1
1
1
1
1
1
1
1
1
1
1
1
1.00001
0.999981
0.999926
1.00293
1.04314
1.66616
2.90656
3.49266
3.633
3.66517
3.67417
3.67802
3.68078
3.68307
3.68533
3.68782
3.69032
3.69267
3.69491
3.69701
3.69893
3.70061
3.70202
3.70316
3.70436
3.70559
3.70684
3.708
3.70908
3.70984
3.71128
3.71358
3.71628
3.71925
3.72248
3.72571
3.72978
3.73445
3.73899
3.74343
3.74768
3.75125
3.75398
3.75645
3.75936
3.76231
3.76483
3.76673
3.76766
3.76721
3.76978
3.77495
3.78056
3.78538
3.79006
3.79592
3.80078
3.8032
3.80165
3.79777
3.79481
3.79344
3.79022
3.78337
3.77544
3.76593
3.76133
3.75258
3.74011
3.72633
3.71285
3.69598
3.6738
3.64617
3.61121
3.56288
1
1
1
1
1
1
1
1
1
1
1
1
1
1
1
1
1
1
1
1
1
1
1
1
1
1
1
1
1
1
1
1
1
1
1
1
1
1
1
1
1
1
1
1
0.999995
0.999964
1.00007
1.00854
1.24083
2.3742
3.35583
3.60925
3.6644
3.67713
3.6801
3.6811
3.68178
3.68239
3.68334
3.68493
3.68662
3.68824
3.68987
3.69152
3.69316
3.69472
3.69618
3.69753
3.69874
3.69981
3.7007
3.70133
3.70208
3.70314
3.70451
3.70616
3.708
3.70972
3.71212
3.71601
3.72054
3.72509
3.72949
3.73342
3.73677
3.74006
3.74367
3.74732
3.7506
3.75327
3.75483
3.75453
3.75413
3.75634
3.75988
3.76347
3.76664
3.77226
3.77908
3.78371
3.78516
3.78321
3.78114
3.78086
3.77908
3.77284
3.76258
3.75562
3.74797
3.74265
3.73186
3.71825
3.70419
3.69062
3.67273
3.64907
3.62025
3.58456
3.53519
1
1
1
1
1
1
1
1
1
1
1
1
1
1
1
1
1
1
1
1
1
1
1
1
1
1
1
1
1
1
1
1
1
1
1
1
1
1
1
1
1
1
1
1
1
1.00001
1.00014
1.00551
1.07873
1.83028
3.03453
3.52094
3.63874
3.66676
3.67405
3.67585
3.67629
3.67682
3.67781
3.67912
3.68019
3.68105
3.68214
3.68353
3.68502
3.68651
3.68802
3.68942
3.69061
3.69153
3.69217
3.69269
3.69337
3.69418
3.69519
3.69628
3.69731
3.69815
3.70025
3.70319
3.70654
3.71039
3.71437
3.71809
3.72192
3.72605
3.73018
3.73409
3.73754
3.7399
3.74082
3.74081
3.74129
3.74303
3.74514
3.74681
3.74876
3.75429
3.76057
3.76478
3.7664
3.76581
3.76563
3.76504
3.76107
3.75333
3.74277
3.73713
3.73023
3.72201
3.70921
3.69629
3.68238
3.66779
3.64852
3.62352
3.59366
3.55733
3.5065
1
1
1
1
1
1
1
1
1
1
1
1
1
1
1
1
1
1
1
1
1
1
1
1
1
1
1
1
1
1
1
1
1
1
1
1
1
1
1
1
1
1
1
1
1.00005
1.00029
0.9996
0.998905
0.999312
1.32949
2.54273
3.388
3.60259
3.65204
3.66567
3.67044
3.67207
3.67274
3.67379
3.67483
3.67538
3.67564
3.67608
3.67676
3.67759
3.67849
3.67947
3.68052
3.68157
3.68246
3.68324
3.68399
3.68473
3.68548
3.68621
3.68683
3.68717
3.68798
3.68945
3.69133
3.69365
3.69629
3.6991
3.70282
3.70722
3.71161
3.71582
3.71975
3.72293
3.72496
3.72628
3.72745
3.72856
3.7296
3.73078
3.73073
3.73189
3.73616
3.74127
3.74496
3.74738
3.74878
3.74896
3.74672
3.74085
3.73369
3.72538
3.71898
3.71019
3.69894
3.68622
3.6743
3.66016
3.64376
3.62317
3.59742
3.56664
3.52961
3.47735
1
1
1
1
1
1
1
1
1
1
1
1
1
1
1
1
1
1
1
1
1
1
1
1
1
1
1
1
1
1
1
1
1
1
1
1
1
1
1
1
1
1
1
1
1
1.00001
0.999993
1.00005
1.00602
1.09881
1.92755
3.10065
3.52541
3.62746
3.65338
3.66207
3.66507
3.666
3.66679
3.66775
3.66852
3.66896
3.66933
3.66976
3.67028
3.67074
3.67105
3.67129
3.67197
3.67288
3.67376
3.67457
3.67529
3.67587
3.67626
3.67648
3.67681
3.67751
3.67844
3.6797
3.68124
3.68259
3.68463
3.68795
3.69201
3.69631
3.70051
3.70425
3.70731
3.7099
3.71215
3.71392
3.71523
3.71612
3.71621
3.7148
3.71556
3.71845
3.72208
3.72486
3.72792
3.73008
3.73029
3.72719
3.7207
3.71473
3.70776
3.69937
3.68776
3.67574
3.66394
3.65191
3.63684
3.61919
3.59781
3.57136
3.53927
3.50122
3.44709
1
1
1
1
1
1
1
1
1
1
1
1
1
1
1
1
1
1
1
1
1
1
1
1
1
1
1
1
1
1
1
1
1
1
1
1
1
1
1
1
1
1
1
1
1
1
0.999988
0.999759
0.999741
1.00453
1.38409
2.60897
3.39632
3.59717
3.64366
3.65576
3.65936
3.66021
3.66039
3.66082
3.66151
3.66217
3.66274
3.66316
3.66349
3.66367
3.66341
3.66307
3.66323
3.66369
3.66421
3.6648
3.66532
3.66566
3.66604
3.66644
3.66688
3.66737
3.66796
3.66861
3.66916
3.66983
3.67153
3.67403
3.67706
3.68057
3.68423
3.68788
3.69147
3.69479
3.69755
3.69961
3.70091
3.70126
3.70017
3.6989
3.69943
3.70111
3.70325
3.70485
3.70777
3.71004
3.71012
3.70744
3.70189
3.69595
3.68779
3.67729
3.66524
3.65315
3.64168
3.62834
3.61234
3.59409
3.57217
3.54482
3.51145
3.47235
3.41657
1
1
1
1
1
1
1
1
1
1
1
1
1
1
1
1
1
1
1
1
1
1
1
1
1
1
1
1
1
1
1
1
1
1
1
1
1
1
1
1
1
1
1
1
1
1
0.999997
0.999975
1.00001
1.00602
1.10459
1.95278
3.11699
3.52555
3.62322
3.64705
3.65396
3.65567
3.65549
3.65501
3.65483
3.65506
3.65548
3.65581
3.65604
3.65601
3.65555
3.6551
3.65502
3.65511
3.65519
3.65518
3.65495