/*--------------------------------*- C++ -*----------------------------------*\
| =========                 |                                                 |
| \\      /  F ield         | OpenFOAM: The Open Source CFD Toolbox           |
|  \\    /   O peration     | Version:  2.2.x                                 |
|   \\  /    A nd           | Web:      www.OpenFOAM.org                      |
|    \\/     M anipulation  |                                                 |
\*---------------------------------------------------------------------------*/
FoamFile
{
    version     2.0;
    format      ascii;
    class       volScalarField;
    location    "1.4";
    object      Bx;
}
// * * * * * * * * * * * * * * * * * * * * * * * * * * * * * * * * * * * * * //

dimensions      [1 0 -2 0 0 -1 0];

internalField   nonuniform List<scalar> 
14161
(
1.00163
1.00115
1.00128
1.00134
1.00145
1.00158
1.00172
1.0019
1.00209
1.0023
1.00254
1.0028
1.00305
1.00335
1.00368
1.00396
1.00428
1.00466
1.00504
1.00528
1.00559
1.00598
1.0064
1.00671
1.00686
1.00707
1.0074
1.00777
1.00799
1.00807
1.00809
1.00812
1.00818
1.00814
1.00798
1.00769
1.00724
1.00657
1.00563
1.00462
1.00359
1.00219
1.00022
0.998107
0.995836
0.993084
0.990814
0.98752
0.985664
0.966934
0.939079
0.932975
0.941374
0.96427
0.990473
1.02216
1.05337
1.08203
1.10743
1.12999
1.14996
1.16778
1.18366
1.19728
1.20926
1.21942
1.22816
1.23608
1.24253
1.24763
1.25236
1.25652
1.25957
1.26223
1.26514
1.26824
1.27137
1.27476
1.27861
1.28246
1.28587
1.28955
1.29355
1.29723
1.30049
1.30428
1.30849
1.31242
1.31681
1.32032
1.3244
1.32915
1.33386
1.33842
1.34317
1.34852
1.35358
1.35902
1.36478
1.36975
1.37135
1.36722
1.3456
1.27821
1.16049
1.0184
0.873274
0.750618
0.648748
0.563644
0.488912
0.42261
0.359698
0.300967
0.240427
0.18592
0.122153
0.080389
0.0152072
1.00163
1.00114
1.00128
1.00134
1.00145
1.00157
1.00172
1.0019
1.00209
1.0023
1.00254
1.0028
1.00305
1.00336
1.00368
1.00397
1.00428
1.00467
1.00502
1.00529
1.00558
1.00601
1.00642
1.00669
1.00686
1.00708
1.00743
1.00779
1.00801
1.00805
1.00808
1.00816
1.00822
1.00817
1.00805
1.00784
1.0074
1.00674
1.00579
1.00479
1.00345
1.00203
1.0005
0.998545
0.996023
0.99309
0.990297
0.984311
0.980144
0.954117
0.928727
0.932355
0.941093
0.96954
0.994223
1.02269
1.05172
1.07906
1.10326
1.12523
1.14537
1.16308
1.17941
1.19309
1.20539
1.21649
1.22579
1.23363
1.24068
1.24679
1.25171
1.25608
1.26037
1.26417
1.26756
1.27069
1.27369
1.27684
1.28053
1.28412
1.28742
1.29096
1.29496
1.29845
1.30181
1.30546
1.30966
1.31383
1.31789
1.32152
1.32554
1.33027
1.33507
1.33981
1.34452
1.3493
1.35432
1.35962
1.36415
1.36626
1.36148
1.34707
1.30701
1.22129
1.08796
0.942495
0.817072
0.712049
0.620934
0.542015
0.470943
0.406615
0.344679
0.286918
0.228033
0.176209
0.116287
0.0779995
0.0175311
1.00163
1.00114
1.00128
1.00134
1.00145
1.00157
1.00172
1.0019
1.00209
1.0023
1.00254
1.00279
1.00306
1.00336
1.00367
1.00397
1.00429
1.00466
1.005
1.00529
1.00561
1.00603
1.00641
1.00665
1.00685
1.00712
1.00748
1.00779
1.00797
1.00804
1.00813
1.00825
1.00829
1.00826
1.00813
1.00785
1.0074
1.00686
1.00618
1.00522
1.00395
1.00259
1.00098
0.999111
0.997094
0.994565
0.992224
0.985529
0.976757
0.943295
0.917301
0.930545
0.94005
0.97259
1.00364
1.03523
1.06592
1.09388
1.11821
1.1404
1.1602
1.17749
1.19297
1.2059
1.2176
1.22795
1.2364
1.24339
1.24957
1.25479
1.25911
1.26284
1.26667
1.27031
1.27375
1.27678
1.27994
1.28304
1.28676
1.28998
1.29332
1.29671
1.30053
1.30365
1.30706
1.31046
1.31448
1.31883
1.3226
1.3266
1.33048
1.33503
1.33985
1.34438
1.34909
1.35304
1.35628
1.35902
1.3597
1.35608
1.3393
1.29635
1.21251
1.08663
0.938834
0.817442
0.721954
0.639045
0.564178
0.496938
0.434449
0.377218
0.321292
0.268817
0.214744
0.166828
0.111053
0.0753134
0.0180146
1.00163
1.00114
1.00128
1.00134
1.00145
1.00158
1.00173
1.0019
1.00209
1.00231
1.00254
1.00279
1.00306
1.00335
1.00367
1.00397
1.00429
1.00466
1.00499
1.0053
1.00564
1.00602
1.00636
1.00663
1.00688
1.00717
1.00748
1.00773
1.00793
1.0081
1.00824
1.00836
1.00839
1.00836
1.00826
1.00802
1.00766
1.00722
1.00662
1.00583
1.00483
1.00368
1.00241
1.00087
0.99895
0.996345
0.993491
0.984761
0.983567
0.950167
0.916538
0.943347
0.952022
0.988924
1.023
1.05825
1.09091
1.11999
1.14605
1.16856
1.18782
1.20437
1.21821
1.22951
1.23962
1.24776
1.25432
1.25974
1.26426
1.26804
1.2713
1.27409
1.27716
1.28027
1.28339
1.2861
1.28901
1.29147
1.29473
1.29751
1.3006
1.30362
1.30706
1.30981
1.31332
1.31619
1.31988
1.32414
1.32775
1.33219
1.33617
1.34028
1.34483
1.34807
1.35169
1.35307
1.35467
1.35413
1.34495
1.32624
1.28286
1.18885
1.0585
0.920912
0.81378
0.724812
0.65404
0.583645
0.52005
0.461317
0.404993
0.352669
0.301026
0.252783
0.203151
0.159323
0.10818
0.0744371
0.0205389
1.00163
1.00114
1.00128
1.00134
1.00145
1.00157
1.00173
1.00189
1.00208
1.00231
1.00253
1.00279
1.00307
1.00335
1.00366
1.00397
1.0043
1.00465
1.00498
1.0053
1.00565
1.006
1.0063
1.00664
1.00696
1.00725
1.00747
1.00768
1.00792
1.00816
1.00836
1.00849
1.00853
1.00852
1.00845
1.00832
1.00805
1.00773
1.00731
1.00681
1.00618
1.00539
1.00438
1.00297
1.00162
0.999395
0.998266
0.99085
1.00176
0.970458
0.933067
0.967271
0.981537
1.02242
1.05958
1.09612
1.12875
1.15701
1.18255
1.20303
1.22097
1.23585
1.24753
1.25735
1.26584
1.27167
1.27645
1.28103
1.28418
1.28641
1.28882
1.29084
1.29302
1.29538
1.29806
1.30031
1.30292
1.30479
1.30774
1.31015
1.31275
1.31536
1.31821
1.32037
1.32383
1.32617
1.32962
1.33371
1.33718
1.34151
1.34536
1.34789
1.3507
1.3514
1.35312
1.35316
1.34831
1.33974
1.31432
1.26018
1.16805
1.01926
0.873199
0.780997
0.704579
0.64746
0.594091
0.537229
0.48279
0.430727
0.379994
0.332444
0.284858
0.240535
0.195004
0.154644
0.107489
0.074886
0.0239032
1.00162
1.00114
1.00127
1.00134
1.00145
1.00157
1.00173
1.00189
1.00208
1.00231
1.00253
1.00278
1.00307
1.00334
1.00365
1.00397
1.0043
1.00463
1.00497
1.00531
1.00566
1.00598
1.00626
1.00662
1.00701
1.00733
1.00754
1.00768
1.0079
1.00821
1.00847
1.00862
1.00869
1.00871
1.0087
1.00865
1.00857
1.00845
1.00829
1.00807
1.00776
1.0073
1.00679
1.00596
1.00532
1.00402
1.00435
0.998751
1.01532
0.994803
0.964526
1.002
1.0285
1.06724
1.11246
1.14977
1.18168
1.20602
1.22864
1.24523
1.26086
1.27289
1.2815
1.2892
1.29408
1.29794
1.30169
1.30432
1.30603
1.3074
1.30898
1.31035
1.312
1.31375
1.31601
1.31763
1.32002
1.32111
1.32332
1.32512
1.32712
1.32904
1.33078
1.33261
1.33582
1.33776
1.34022
1.3436
1.34639
1.34911
1.35084
1.35107
1.35248
1.352
1.34779
1.34409
1.32783
1.29551
1.238
1.12712
0.979357
0.835799
0.742275
0.676667
0.624469
0.585852
0.542149
0.498061
0.450238
0.40429
0.358448
0.314896
0.270825
0.229814
0.187701
0.150294
0.107619
0.0770128
0.029689
1.00162
1.00114
1.00127
1.00134
1.00144
1.00157
1.00173
1.00189
1.00208
1.0023
1.00252
1.00278
1.00307
1.00334
1.00364
1.00397
1.00431
1.00461
1.00495
1.00533
1.00567
1.00597
1.00624
1.00661
1.00703
1.00737
1.0076
1.00771
1.00792
1.00827
1.00857
1.00878
1.00889
1.00897
1.00901
1.00907
1.00921
1.00933
1.00941
1.00944
1.00943
1.0094
1.00939
1.00942
1.00932
1.00956
1.01073
1.00925
1.02771
1.02349
1.01585
1.05
1.09949
1.1383
1.18492
1.21232
1.23701
1.25231
1.26997
1.28401
1.29624
1.30561
1.31092
1.31687
1.31929
1.32257
1.32541
1.32542
1.32691
1.32765
1.32824
1.32904
1.33011
1.33122
1.33307
1.33465
1.33694
1.33798
1.33949
1.34063
1.34223
1.34337
1.34408
1.3456
1.34758
1.34907
1.34997
1.35125
1.3524
1.35274
1.35315
1.35267
1.3489
1.34598
1.33405
1.31148
1.27381
1.19834
1.08751
0.928815
0.79723
0.70724
0.646374
0.598886
0.566288
0.535134
0.500855
0.464213
0.422428
0.382129
0.340503
0.300604
0.259815
0.221789
0.182862
0.148352
0.10937
0.0810975
0.0371516
1.00161
1.00114
1.00127
1.00134
1.00144
1.00157
1.00172
1.00188
1.00208
1.0023
1.00252
1.00278
1.00306
1.00334
1.00363
1.00397
1.00431
1.00459
1.00492
1.00533
1.00571
1.00595
1.00621
1.00659
1.00706
1.00741
1.0076
1.00774
1.008
1.00836
1.00869
1.00894
1.00913
1.00926
1.00935
1.00951
1.00978
1.0101
1.01045
1.01082
1.01119
1.01164
1.0122
1.01315
1.01374
1.0154
1.01546
1.02122
1.01606
1.05042
1.08098
1.11414
1.18307
1.21712
1.24877
1.26513
1.28595
1.298
1.31125
1.32158
1.32859
1.33498
1.33766
1.34168
1.34433
1.34461
1.3462
1.34426
1.34502
1.34508
1.34476
1.34511
1.34591
1.34644
1.34784
1.3492
1.35105
1.35205
1.3527
1.35327
1.35391
1.35409
1.3542
1.35484
1.35518
1.35518
1.35463
1.35398
1.35392
1.3533
1.35002
1.34659
1.33547
1.31866
1.28877
1.23463
1.15709
1.02536
0.876611
0.755639
0.672657
0.616559
0.575312
0.543209
0.521268
0.494124
0.468146
0.435433
0.399287
0.363122
0.325222
0.288496
0.250649
0.215256
0.179086
0.147168
0.111544
0.0852238
0.0452692
1.00161
1.00114
1.00127
1.00133
1.00144
1.00157
1.00171
1.00188
1.00208
1.00229
1.00252
1.00278
1.00305
1.00334
1.00362
1.00396
1.00432
1.00457
1.00489
1.00533
1.00573
1.00595
1.0062
1.00664
1.00709
1.0074
1.00759
1.00781
1.00812
1.00846
1.0088
1.00908
1.00935
1.00952
1.00973
1.01005
1.01047
1.01091
1.01139
1.01198
1.01272
1.01357
1.01464
1.01611
1.018
1.02095
1.02323
1.03242
1.03036
1.09414
1.19442
1.2255
1.26843
1.27903
1.29135
1.29863
1.31768
1.32908
1.34328
1.35094
1.35475
1.35885
1.36224
1.36223
1.36494
1.36118
1.36192
1.36051
1.35877
1.3583
1.35782
1.35786
1.35863
1.35895
1.35984
1.36071
1.36163
1.36232
1.36238
1.36241
1.3619
1.36109
1.36008
1.35969
1.35879
1.35781
1.35647
1.35387
1.35071
1.34643
1.3341
1.31916
1.29337
1.25044
1.19056
1.08122
0.951207
0.808899
0.706212
0.634834
0.585238
0.550671
0.52213
0.503476
0.483383
0.463208
0.439926
0.41198
0.379811
0.347167
0.312641
0.278792
0.243711
0.210812
0.177301
0.14782
0.115379
0.0908778
0.0543248
1.0016
1.00113
1.00126
1.00133
1.00144
1.00156
1.00171
1.00188
1.00207
1.00228
1.00252
1.00277
1.00304
1.00333
1.0036
1.00396
1.00432
1.00457
1.0049
1.00533
1.00568
1.00593
1.00624
1.00669
1.00709
1.00737
1.00764
1.00792
1.00827
1.00859
1.00889
1.00919
1.00948
1.0098
1.01016
1.01063
1.0111
1.01166
1.01233
1.01312
1.01408
1.01531
1.01665
1.01816
1.01979
1.02241
1.02504
1.03119
1.046
1.11131
1.24878
1.34446
1.34401
1.34655
1.34076
1.34208
1.34704
1.35672
1.3654
1.3732
1.37777
1.38026
1.38446
1.37849
1.38019
1.37585
1.37451
1.37494
1.37111
1.37041
1.36923
1.36863
1.369
1.36905
1.36927
1.36917
1.36934
1.36898
1.36829
1.36771
1.36617
1.36478
1.36295
1.36156
1.35941
1.35546
1.35065
1.34301
1.33049
1.31715
1.29052
1.25221
1.19896
1.10662
0.997713
0.852927
0.738389
0.652619
0.592839
0.551625
0.523087
0.500018
0.484074
0.470718
0.45434
0.437989
0.41698
0.392515
0.363738
0.334186
0.302437
0.270939
0.238273
0.207499
0.176286
0.148757
0.119182
0.0963493
0.0634459
1.0016
1.00113
1.00126
1.00133
1.00143
1.00155
1.0017
1.00188
1.00207
1.00227
1.00251
1.00275
1.00303
1.00333
1.0036
1.00395
1.00429
1.00457
1.00494
1.00533
1.00564
1.00593
1.00629
1.00668
1.00702
1.00736
1.0077
1.00806
1.00841
1.00869
1.00898
1.00929
1.00964
1.01007
1.01059
1.01111
1.01165
1.01222
1.01293
1.01387
1.01486
1.01592
1.01709
1.01857
1.01991
1.02162
1.02378
1.02558
1.04056
1.08072
1.24789
1.3321
1.35121
1.35891
1.35961
1.36251
1.36754
1.37353
1.37807
1.38538
1.39064
1.39044
1.39222
1.38894
1.38764
1.38773
1.3824
1.3817
1.37861
1.37736
1.37583
1.37522
1.37485
1.37471
1.3741
1.37343
1.37321
1.37199
1.37121
1.36937
1.36651
1.36399
1.35999
1.35425
1.34883
1.33941
1.32621
1.30929
1.28016
1.24493
1.19089
1.10718
1.00986
0.874748
0.760594
0.667603
0.600357
0.551128
0.517026
0.493999
0.476537
0.463195
0.454733
0.443494
0.431275
0.416583
0.39756
0.37508
0.349231
0.322381
0.293523
0.264604
0.23457
0.205975
0.177102
0.151384
0.124514
0.103446
0.0736179
1.00159
1.00113
1.00126
1.00132
1.00143
1.00155
1.00169
1.00187
1.00205
1.00226
1.00251
1.00274
1.00302
1.00331
1.00361
1.00393
1.00425
1.00457
1.00493
1.00527
1.0056
1.00595
1.00631
1.00666
1.00696
1.00733
1.00774
1.00815
1.0085
1.0088
1.0091
1.0094
1.00979
1.01029
1.01087
1.01144
1.01203
1.01264
1.01327
1.01386
1.01461
1.01576
1.01707
1.01852
1.02035
1.02254
1.02562
1.03134
1.05195
1.12265
1.19372
1.24346
1.30693
1.34883
1.3666
1.37287
1.37731
1.38037
1.38412
1.38799
1.39416
1.39225
1.39373
1.39246
1.39122
1.38951
1.38567
1.38285
1.3809
1.37898
1.37716
1.37682
1.37593
1.37553
1.37494
1.37428
1.37346
1.37055
1.36795
1.36412
1.35813
1.35151
1.34351
1.32988
1.31522
1.29429
1.26218
1.22366
1.16386
1.08475
0.991165
0.86734
0.761132
0.67105
0.60295
0.547962
0.511054
0.485071
0.466445
0.453685
0.443274
0.437251
0.429973
0.422373
0.411826
0.399658
0.382066
0.361671
0.337823
0.312958
0.286151
0.25914
0.231255
0.204605
0.177986
0.153913
0.129523
0.110122
0.0835285
1.00158
1.00112
1.00125
1.00132
1.00142
1.00154
1.00169
1.00186
1.00204
1.00226
1.00249
1.00273
1.00301
1.00329
1.0036
1.0039
1.00421
1.00456
1.00492
1.00521
1.00556
1.00597
1.00636
1.00668
1.00695
1.00732
1.00779
1.00822
1.00856
1.0089
1.0092
1.0095
1.00989
1.01045
1.01104
1.01158
1.0121
1.01266
1.01326
1.01391
1.01459
1.01534
1.01636
1.01731
1.01851
1.01895
1.02098
1.0188
1.06931
1.12165
1.14596
1.17179
1.22733
1.30433
1.34064
1.3599
1.37109
1.37394
1.38028
1.38274
1.38797
1.38865
1.39146
1.38919
1.3882
1.38443
1.38252
1.37892
1.37819
1.3762
1.37472
1.37449
1.3729
1.37136
1.36964
1.36768
1.36482
1.35907
1.35107
1.34389
1.33112
1.3127
1.29539
1.26721
1.22867
1.18498
1.11857
1.04256
0.946049
0.834844
0.739285
0.659216
0.595737
0.540896
0.503791
0.475396
0.455245
0.441739
0.432678
0.424981
0.420499
0.416183
0.411178
0.404942
0.395741
0.384381
0.368043
0.349495
0.327729
0.305112
0.280573
0.255764
0.230205
0.205527
0.181124
0.158659
0.136345
0.118519
0.0945654
1.00157
1.00112
1.00124
1.00131
1.00141
1.00154
1.00168
1.00185
1.00203
1.00225
1.00247
1.00272
1.00299
1.00327
1.00359
1.00387
1.00417
1.00456
1.00493
1.00518
1.00551
1.00597
1.00639
1.00668
1.00693
1.00731
1.00783
1.00827
1.00863
1.00895
1.00926
1.00962
1.01009
1.0106
1.01113
1.01163
1.01212
1.01262
1.01313
1.01372
1.01431
1.01495
1.01556
1.01608
1.01653
1.01667
1.01782
1.01706
1.05812
1.10161
1.10327
1.12068
1.15069
1.20652
1.26397
1.31344
1.33563
1.35172
1.36372
1.37158
1.37696
1.38241
1.38426
1.38252
1.38025
1.37579
1.37429
1.37086
1.36969
1.36743
1.3664
1.36412
1.36117
1.35695
1.35184
1.34554
1.33783
1.32557
1.30674
1.28876
1.26238
1.22266
1.18069
1.1278
1.05216
0.972641
0.870745
0.781495
0.699351
0.633139
0.577772
0.527482
0.49378
0.465808
0.444968
0.430824
0.420626
0.414349
0.409217
0.406044
0.403707
0.400563
0.396852
0.39138
0.38303
0.372033
0.356566
0.339037
0.318692
0.297712
0.274918
0.251981
0.228472
0.205649
0.18359
0.162867
0.142612
0.126431
0.105249
1.00157
1.00111
1.00124
1.0013
1.0014
1.00153
1.00168
1.00183
1.00202
1.00224
1.00245
1.00271
1.00297
1.00325
1.00359
1.00384
1.00414
1.00456
1.00491
1.00517
1.00551
1.00598
1.00638
1.00665
1.00695
1.00738
1.00787
1.0083
1.00867
1.00897
1.00931
1.00974
1.01024
1.0107
1.01114
1.01161
1.01205
1.01247
1.01291
1.01346
1.01414
1.01479
1.01543
1.0161
1.01711
1.01857
1.02158
1.03457
1.07896
1.10109
1.10331
1.11573
1.128
1.15416
1.20329
1.26875
1.31653
1.34599
1.36226
1.37203
1.37227
1.37805
1.37752
1.37585
1.36992
1.36696
1.36354
1.3599
1.35612
1.35169
1.3475
1.34006
1.33343
1.32382
1.30981
1.2926
1.27212
1.24667
1.20731
1.16272
1.11245
1.04227
0.961603
0.8805
0.79368
0.719988
0.653617
0.598637
0.551774
0.508865
0.480796
0.454864
0.435484
0.421559
0.411496
0.404386
0.39977
0.396462
0.394272
0.393302
0.391382
0.389344
0.3858
0.38062
0.37244
0.36208
0.34762
0.331346
0.312368
0.292913
0.27174
0.250613
0.229194
0.208222
0.188242
0.169363
0.15087
0.136111
0.11709
1.00156
1.00111
1.00123
1.00129
1.0014
1.00152
1.00167
1.00182
1.00202
1.00222
1.00244
1.0027
1.00294
1.00324
1.00357
1.00382
1.00416
1.00454
1.00486
1.00517
1.00555
1.00595
1.00631
1.00664
1.007
1.00743
1.00784
1.00827
1.00865
1.00902
1.00942
1.00988
1.01032
1.01072
1.01111
1.01151
1.0119
1.0123
1.01274
1.01321
1.01366
1.01399
1.01416
1.01431
1.01393
1.01465
1.01191
1.04043
1.08438
1.09075
1.09301
1.09953
1.10695
1.12235
1.14744
1.1884
1.25001
1.30334
1.3336
1.34984
1.35789
1.36388
1.35993
1.3603
1.35277
1.35055
1.34429
1.33664
1.32856
1.31782
1.30792
1.29246
1.27333
1.25203
1.22066
1.18168
1.1339
1.08325
1.01427
0.936936
0.861993
0.786164
0.716595
0.659245
0.607676
0.565706
0.524503
0.491752
0.467578
0.444595
0.427239
0.414643
0.40472
0.397714
0.392608
0.389496
0.387252
0.385689
0.385263
0.384226
0.383226
0.381234
0.377955
0.37252
0.364303
0.353459
0.339398
0.323897
0.306209
0.288222
0.268596
0.249227
0.229802
0.210678
0.192607
0.175463
0.158765
0.145452
0.128678
1.00155
1.0011
1.00122
1.00129
1.00139
1.00151
1.00165
1.00181
1.00201
1.0022
1.00242
1.00268
1.00292
1.00322
1.00352
1.0038
1.00414
1.00448
1.0048
1.00515
1.00553
1.00589
1.00623
1.00662
1.00704
1.00743
1.00779
1.00817
1.00861
1.00903
1.00951
1.00996
1.01035
1.01072
1.01107
1.0114
1.01174
1.01217
1.01258
1.01289
1.01306
1.01312
1.01304
1.01258
1.01174
1.01091
1.0095
1.03286
1.06746
1.06717
1.07189
1.07629
1.08267
1.09373
1.1071
1.13145
1.17613
1.23659
1.29754
1.32148
1.34348
1.34169
1.33939
1.333
1.32563
1.31925
1.30546
1.2901
1.27205
1.24951
1.22428
1.19297
1.14867
1.10263
1.04561
0.976709
0.898946
0.830172
0.762097
0.701194
0.651495
0.607359
0.567589
0.53285
0.499979
0.477847
0.456437
0.4375
0.422961
0.410994
0.401261
0.394113
0.388856
0.385347
0.383062
0.38157
0.380511
0.38025
0.379651
0.379031
0.377755
0.375655
0.372021
0.366481
0.358285
0.347487
0.334259
0.319444
0.303013
0.286215
0.267937
0.250129
0.232493
0.215126
0.198803
0.183247
0.168102
0.156076
0.141276
1.00153
1.00109
1.00121
1.00128
1.00138
1.0015
1.00163
1.0018
1.00199
1.00218
1.00241
1.00264
1.0029
1.0032
1.00347
1.00378
1.00411
1.00441
1.00473
1.00514
1.00553
1.00582
1.00616
1.0066
1.00708
1.00746
1.00776
1.0081
1.00853
1.00906
1.00954
1.00995
1.01031
1.01067
1.01099
1.01132
1.01168
1.01211
1.01249
1.01277
1.01301
1.01324
1.0134
1.0137
1.0143
1.01558
1.02202
1.05013
1.07275
1.06869
1.07183
1.07247
1.07614
1.08264
1.09202
1.1066
1.13017
1.16738
1.22923
1.27592
1.30662
1.30274
1.29972
1.28666
1.26941
1.25455
1.2292
1.19881
1.16049
1.11926
1.06714
1.01071
0.940662
0.864861
0.801132
0.738268
0.684658
0.638086
0.600021
0.563393
0.532924
0.504274
0.483641
0.466326
0.447393
0.433536
0.421105
0.410837
0.402039
0.395195
0.389415
0.385351
0.382264
0.380351
0.379048
0.378055
0.377613
0.377295
0.376761
0.37613
0.374601
0.372207
0.368113
0.36201
0.353555
0.34277
0.330105
0.31576
0.300317
0.284396
0.267412
0.251188
0.235387
0.219777
0.20518
0.191231
0.177694
0.166933
0.153893
1.00152
1.00108
1.0012
1.00127
1.00136
1.00148
1.00162
1.00178
1.00196
1.00216
1.0024
1.00261
1.00288
1.00316
1.00342
1.00376
1.0041
1.00435
1.00469
1.00513
1.00552
1.00578
1.00612
1.00662
1.0071
1.00746
1.00773
1.00806
1.00853
1.00909
1.00954
1.0099
1.01024
1.01059
1.01096
1.01132
1.01174
1.01213
1.01248
1.0128
1.01309
1.01339
1.01373
1.01417
1.01541
1.01617
1.03244
1.06259
1.07248
1.06953
1.0707
1.06996
1.07275
1.07603
1.08185
1.09161
1.10338
1.12701
1.15246
1.20867
1.23512
1.2406
1.22419
1.20602
1.17059
1.1319
1.08569
1.03727
0.972896
0.903374
0.835651
0.774204
0.719745
0.671258
0.629066
0.593573
0.560008
0.53169
0.506622
0.488121
0.471902
0.456255
0.441851
0.4324
0.42143
0.413379
0.405518
0.399229
0.393619
0.389027
0.385144
0.382223
0.380227
0.379095
0.378117
0.377451
0.37702
0.376573
0.375828
0.374813
0.372889
0.370163
0.365779
0.359503
0.351237
0.340596
0.328716
0.314867
0.30059
0.285493
0.269851
0.25503
0.240783
0.226557
0.213208
0.200342
0.187943
0.178181
0.166856
1.00151
1.00107
1.00119
1.00125
1.00135
1.00146
1.0016
1.00177
1.00193
1.00214
1.00236
1.00258
1.00286
1.00311
1.00339
1.00373
1.00404
1.0043
1.00469
1.0051
1.00544
1.00577
1.00616
1.00659
1.00701
1.00737
1.00771
1.00812
1.0086
1.00906
1.00946
1.00983
1.01019
1.01055
1.01094
1.01131
1.01168
1.01202
1.01232
1.01261
1.01286
1.01303
1.01318
1.01293
1.01359
1.01164
1.03292
1.06487
1.06138
1.06067
1.06193
1.06345
1.06602
1.06976
1.07437
1.07679
1.08703
1.09377
1.10193
1.12171
1.12911
1.13004
1.09355
1.05263
0.999598
0.933458
0.867805
0.814146
0.758208
0.709187
0.663906
0.626567
0.592058
0.561076
0.533746
0.512566
0.495243
0.478668
0.465471
0.451218
0.442329
0.434085
0.425213
0.418771
0.411563
0.405711
0.40015
0.395407
0.3916
0.388642
0.386017
0.383926
0.382009
0.380461
0.379175
0.378251
0.377438
0.37675
0.375835
0.374587
0.372474
0.369367
0.364849
0.358661
0.350754
0.340572
0.329523
0.316318
0.303
0.288375
0.273544
0.259593
0.246385
0.233187
0.220965
0.209252
0.198057
0.189467
0.179629
1.00149
1.00106
1.00118
1.00124
1.00134
1.00145
1.00159
1.00175
1.00191
1.00212
1.00232
1.00256
1.00283
1.00306
1.00337
1.0037
1.00397
1.00427
1.00465
1.005
1.00534
1.00571
1.00613
1.00652
1.00687
1.00727
1.00769
1.00813
1.00855
1.00892
1.00931
1.00972
1.01012
1.01053
1.01095
1.01135
1.01168
1.01195
1.01222
1.01248
1.01273
1.01292
1.01296
1.01259
1.0127
1.01113
1.02685
1.0514
1.04701
1.04968
1.05123
1.05305
1.05517
1.05658
1.05864
1.05635
1.05667
1.05018
1.04417
1.02381
1.00166
0.957357
0.900529
0.847587
0.793683
0.750466
0.702882
0.665628
0.631439
0.59952
0.570231
0.544953
0.525399
0.507918
0.491968
0.477261
0.466128
0.455869
0.447488
0.439396
0.431082
0.425972
0.419287
0.414968
0.41012
0.406163
0.402198
0.398673
0.39557
0.392795
0.390263
0.387805
0.385813
0.383703
0.382002
0.380446
0.379168
0.377956
0.376719
0.375116
0.372884
0.369628
0.365038
0.358869
0.351157
0.341426
0.330617
0.318131
0.305569
0.291568
0.277763
0.26494
0.253047
0.241228
0.230204
0.219456
0.209043
0.201106
0.192435
1.00148
1.00105
1.00117
1.00123
1.00132
1.00143
1.00157
1.00172
1.00189
1.00209
1.00228
1.00253
1.00278
1.00302
1.00333
1.00362
1.0039
1.00424
1.0046
1.00489
1.00525
1.00569
1.00612
1.00643
1.00675
1.00717
1.00769
1.00814
1.00849
1.00879
1.00916
1.00962
1.01009
1.01051
1.0109
1.01126
1.01163
1.01196
1.01231
1.01269
1.0132
1.01389
1.01497
1.01647
1.01872
1.02491
1.04596
1.05678
1.05219
1.05335
1.0526
1.05228
1.05178
1.05071
1.05054
1.04753
1.03551
1.01411
0.970633
0.910139
0.841009
0.781961
0.741125
0.702919
0.671449
0.641233
0.614088
0.586801
0.565702
0.546849
0.52947
0.513097
0.498439
0.48642
0.475718
0.465328
0.457061
0.449451
0.44364
0.438802
0.432876
0.428933
0.424173
0.420403
0.416613
0.413214
0.40971
0.406311
0.403095
0.400098
0.397301
0.394517
0.392135
0.389317
0.386986
0.384588
0.382588
0.380634
0.378849
0.37676
0.374268
0.370802
0.366241
0.360095
0.352331
0.342937
0.332573
0.321174
0.309664
0.29687
0.284336
0.271983
0.260699
0.249425
0.239041
0.228865
0.219194
0.212403
0.205151
1.00146
1.00104
1.00115
1.00121
1.0013
1.00141
1.00155
1.00169
1.00187
1.00205
1.00226
1.0025
1.00271
1.00299
1.00328
1.00353
1.00384
1.00421
1.00451
1.00479
1.0052
1.00566
1.00606
1.00634
1.00668
1.00718
1.00768
1.00811
1.00841
1.00872
1.0091
1.0096
1.01008
1.01048
1.01082
1.01116
1.0115
1.01184
1.01211
1.01241
1.01268
1.01295
1.01266
1.01347
1.01134
1.03035
1.05516
1.05422
1.05309
1.05311
1.05225
1.05209
1.05014
1.04504
1.04202
1.02886
1.00004
0.950342
0.870999
0.781602
0.723334
0.68395
0.651241
0.626033
0.603341
0.585789
0.569657
0.555103
0.540414
0.527928
0.516207
0.505203
0.494784
0.485367
0.477727
0.470265
0.463818
0.457995
0.452057
0.448166
0.442944
0.439046
0.434793
0.430995
0.427354
0.424041
0.420767
0.417423
0.413912
0.410524
0.407152
0.403871
0.40073
0.397375
0.394243
0.390963
0.388106
0.385323
0.38275
0.379993
0.376998
0.37329
0.368729
0.362847
0.355272
0.346461
0.336466
0.325794
0.314939
0.303149
0.291295
0.279143
0.268106
0.257807
0.248599
0.239477
0.230797
0.224739
0.218392
1.00145
1.00103
1.00114
1.00119
1.00128
1.00139
1.00152
1.00166
1.00184
1.002
1.00222
1.00245
1.00266
1.00294
1.00321
1.00345
1.00381
1.00416
1.00441
1.00473
1.00516
1.00557
1.00591
1.00625
1.00667
1.00712
1.00755
1.00793
1.00829
1.00869
1.00915
1.0096
1.01002
1.01039
1.01073
1.01107
1.01139
1.01168
1.01189
1.01202
1.01202
1.01173
1.01108
1.01056
1.00737
1.01963
1.04611
1.04254
1.04467
1.04468
1.04566
1.04499
1.04379
1.03462
1.0215
0.99972
0.940291
0.859534
0.765259
0.701445
0.659654
0.631108
0.609263
0.591705
0.577497
0.564872
0.55436
0.54521
0.536661
0.528203
0.520641
0.513247
0.505997
0.498908
0.491954
0.485652
0.479038
0.473818
0.467422
0.462975
0.457954
0.453477
0.449332
0.445413
0.441658
0.438207
0.434698
0.43111
0.427371
0.423624
0.419542
0.415721
0.41181
0.407727
0.403763
0.399702
0.39591
0.392142
0.388494
0.384851
0.3811
0.37687
0.371911
0.36583
0.358256
0.349698
0.3401
0.330121
0.319863
0.309153
0.298468
0.287262
0.276706
0.267252
0.258657
0.250095
0.241913
0.236639
0.23132
1.00143
1.00101
1.00112
1.00118
1.00126
1.00137
1.00149
1.00163
1.0018
1.00197
1.00219
1.00238
1.00262
1.0029
1.00312
1.00341
1.00375
1.00404
1.00432
1.00467
1.00507
1.00541
1.00575
1.00615
1.00659
1.007
1.00736
1.00776
1.00817
1.00864
1.00908
1.00948
1.00987
1.01027
1.01068
1.01105
1.0114
1.01173
1.0121
1.01255
1.01306
1.01395
1.01506
1.01751
1.02345
1.04154
1.05584
1.04993
1.0497
1.04797
1.0461
1.04283
1.04083
1.02474
0.99038
0.94185
0.851695
0.76555
0.703373
0.662085
0.633569
0.6135
0.598101
0.585731
0.575834
0.567664
0.560424
0.55406
0.548256
0.542623
0.53705
0.531596
0.525491
0.51952
0.512583
0.506853
0.499892
0.494195
0.487573
0.481759
0.476311
0.471152
0.466416
0.462349
0.45815
0.454325
0.450608
0.446817
0.442802
0.438658
0.433934
0.42895
0.424485
0.419731
0.415129
0.410247
0.405421
0.400431
0.395701
0.391066
0.38647
0.381602
0.376223
0.370071
0.362701
0.354576
0.345439
0.335918
0.326069
0.316246
0.306224
0.296114
0.286007
0.276997
0.268931
0.261165
0.254176
0.249574
0.244979
1.00141
1.001
1.00111
1.00116
1.00124
1.00134
1.00146
1.00161
1.00175
1.00193
1.00213
1.00233
1.00257
1.00281
1.00304
1.00334
1.00364
1.00391
1.00423
1.00459
1.00492
1.00524
1.00562
1.00606
1.0065
1.00684
1.00718
1.0076
1.0081
1.00859
1.00901
1.00936
1.00973
1.01014
1.01062
1.01108
1.01144
1.01176
1.01206
1.01233
1.01265
1.01259
1.01354
1.01212
1.02881
1.05157
1.05257
1.0512
1.05143
1.05058
1.04701
1.03707
1.02294
1.00252
0.93378
0.84825
0.766596
0.711083
0.672497
0.645149
0.626092
0.611749
0.600992
0.592194
0.585092
0.57933
0.574315
0.569842
0.565559
0.561386
0.556849
0.55226
0.546799
0.541686
0.534689
0.528952
0.522268
0.516036
0.509469
0.502688
0.496411
0.490334
0.484472
0.479767
0.475284
0.470843
0.466679
0.462633
0.458311
0.453873
0.449101
0.443425
0.438356
0.432852
0.427365
0.421663
0.415966
0.410309
0.404884
0.399315
0.393768
0.387992
0.381945
0.375245
0.36771
0.359402
0.350451
0.341037
0.331733
0.322846
0.313778
0.305145
0.296255
0.28781
0.280012
0.273037
0.266474
0.262239
0.258269
1.00139
1.00098
1.00109
1.00114
1.00122
1.00131
1.00143
1.00157
1.00171
1.00189
1.00207
1.00227
1.0025
1.00271
1.00297
1.00325
1.0035
1.00379
1.00413
1.00447
1.00475
1.00509
1.0055
1.00593
1.00632
1.00664
1.00702
1.0075
1.00802
1.00849
1.00888
1.00925
1.00966
1.01015
1.01062
1.01102
1.01131
1.01152
1.01165
1.01166
1.01145
1.01102
1.01122
1.00953
1.02392
1.0479
1.0447
1.04566
1.04457
1.04403
1.03759
1.02414
0.98419
0.936618
0.845169
0.769139
0.716443
0.681838
0.656306
0.638449
0.624996
0.615233
0.607532
0.60142
0.596232
0.591883
0.587883
0.584348
0.580712
0.577449
0.573645
0.569802
0.565234
0.561028
0.555072
0.549549
0.543021
0.536541
0.529976
0.523006
0.516415
0.509856
0.503246
0.497565
0.492452
0.487445
0.48266
0.477893
0.473252
0.468781
0.463635
0.457738
0.452314
0.446355
0.440396
0.434128
0.427724
0.421243
0.414714
0.407887
0.401383
0.39461
0.388003
0.380876
0.373374
0.365357
0.356836
0.348015
0.33937
0.331328
0.323014
0.315358
0.307407
0.299271
0.29141
0.284942
0.279355
0.275609
0.272171
1.00136
1.00096
1.00107
1.00111
1.00119
1.00128
1.0014
1.00152
1.00167
1.00184
1.00201
1.00221
1.00241
1.00263
1.00289
1.00314
1.00338
1.00368
1.00401
1.00431
1.00459
1.00495
1.00535
1.00574
1.00609
1.00645
1.00689
1.00736
1.00784
1.00826
1.00867
1.00909
1.00957
1.01004
1.01049
1.01089
1.01135
1.01179
1.01234
1.01306
1.0142
1.01605
1.0183
1.03022
1.04397
1.05741
1.05214
1.05219
1.04868
1.04198
1.02663
1.00232
0.93199
0.847814
0.773797
0.724403
0.691584
0.668504
0.651839
0.639199
0.629591
0.6222
0.616193
0.61125
0.606965
0.603244
0.599784
0.596669
0.593498
0.590645
0.587737
0.584615
0.580883
0.577512
0.572749
0.568169
0.562578
0.556448
0.55003
0.542954
0.536104
0.52921
0.52177
0.51505
0.509098
0.503501
0.49846
0.493237
0.487959
0.483379
0.478059
0.471701
0.465804
0.459405
0.453092
0.44638
0.439466
0.432409
0.425303
0.418176
0.411289
0.403754
0.396569
0.388654
0.380864
0.372577
0.364104
0.355434
0.34716
0.339684
0.331969
0.325115
0.317928
0.310827
0.303726
0.297938
0.292793
0.288743
0.285866
1.00134
1.00095
1.00104
1.00109
1.00116
1.00125
1.00136
1.00148
1.00162
1.00177
1.00195
1.00214
1.00232
1.00255
1.00279
1.00301
1.00326
1.00355
1.00386
1.00414
1.00443
1.00478
1.00515
1.00549
1.00585
1.00624
1.00669
1.00714
1.00756
1.00799
1.00844
1.00896
1.00947
1.00995
1.01032
1.01066
1.01107
1.01149
1.01185
1.01206
1.01158
1.01152
1.00724
1.03033
1.0568
1.05168
1.05283
1.04959
1.04106
1.02467
0.98504
0.930526
0.845277
0.777184
0.730922
0.700237
0.678319
0.663109
0.651496
0.642761
0.635766
0.630255
0.62558
0.621605
0.618011
0.614751
0.611682
0.608882
0.606114
0.603416
0.600892
0.598523
0.59543
0.592467
0.588473
0.584745
0.580074
0.574587
0.568616
0.561348
0.554259
0.547462
0.54021
0.532844
0.52622
0.51991
0.514248
0.508593
0.502528
0.497528
0.492177
0.485895
0.479692
0.473063
0.466502
0.459491
0.452328
0.444822
0.437104
0.429224
0.420948
0.412376
0.404285
0.395937
0.388133
0.379999
0.371877
0.363818
0.356198
0.349385
0.342212
0.335881
0.329213
0.323122
0.316884
0.311035
0.306185
0.302143
0.300115
1.00131
1.00092
1.00102
1.00106
1.00113
1.00122
1.00131
1.00143
1.00157
1.00171
1.00188
1.00206
1.00224
1.00245
1.00267
1.00289
1.00313
1.0034
1.00367
1.00395
1.00425
1.00458
1.00489
1.00522
1.0056
1.00602
1.00644
1.00681
1.00721
1.00769
1.00824
1.00879
1.0093
1.0097
1.01014
1.01057
1.01111
1.01174
1.01246
1.01361
1.01509
1.017
1.02159
1.03936
1.05732
1.04697
1.04109
1.03398
1.01509
0.985946
0.920157
0.839436
0.777544
0.734688
0.706579
0.686323
0.672334
0.661923
0.654043
0.647777
0.642701
0.638478
0.634805
0.631518
0.628472
0.625627
0.622911
0.620433
0.618062
0.615713
0.613287
0.611404
0.609004
0.606433
0.602956
0.599755
0.596025
0.591523
0.586577
0.579994
0.572851