/*--------------------------------*- C++ -*----------------------------------*\
| =========                 |                                                 |
| \\      /  F ield         | OpenFOAM: The Open Source CFD Toolbox           |
|  \\    /   O peration     | Version:  2.2.x                                 |
|   \\  /    A nd           | Web:      www.OpenFOAM.org                      |
|    \\/     M anipulation  |                                                 |
\*---------------------------------------------------------------------------*/
FoamFile
{
    version     2.0;
    format      ascii;
    class       volScalarField;
    location    "1.4";
    object      T;
}
// * * * * * * * * * * * * * * * * * * * * * * * * * * * * * * * * * * * * * //

dimensions      [0 0 0 1 0 0 0];

internalField   nonuniform List<scalar> 
14161
(
0.994684
0.995364
0.99504
0.994763
0.994342
0.993885
0.993324
0.992628
0.991892
0.991114
0.990105
0.989146
0.988167
0.986854
0.985734
0.984681
0.983267
0.981518
0.98039
0.979622
0.978362
0.976097
0.974487
0.9736
0.973227
0.972743
0.970452
0.969161
0.968429
0.968175
0.968168
0.968041
0.967625
0.967589
0.96791
0.968695
0.97002
0.972987
0.976337
0.9798
0.983591
0.988767
0.994944
1.00319
1.01197
1.02107
1.0312
1.02926
1.52151
2.79918
2.97754
3.02139
3.01904
2.99954
2.9822
2.95306
2.91912
2.88877
2.85711
2.82484
2.79669
2.76504
2.7357
2.70694
2.67991
2.6549
2.63235
2.61349
2.59728
2.58214
2.57
2.56201
2.55716
2.55565
2.55425
2.55142
2.56348
2.54669
2.54259
2.5387
2.54216
2.52243
2.51507
2.51028
2.51029
2.4927
2.48441
2.47812
2.47295
2.47975
2.4594
2.45231
2.45014
2.43417
2.42486
2.40779
2.39583
2.37739
2.36251
2.34511
2.34403
2.32958
2.39497
2.57627
2.70876
2.81091
2.92398
3.00264
3.05784
3.09898
3.12717
3.14796
3.16458
3.18311
3.20183
3.21857
3.23278
3.24223
3.2498
0.994676
0.995364
0.995043
0.994765
0.994345
0.993886
0.993317
0.992623
0.991898
0.991097
0.990109
0.989151
0.988158
0.986863
0.985743
0.984661
0.983255
0.981528
0.980443
0.979587
0.978286
0.975976
0.97449
0.973745
0.973228
0.972596
0.97032
0.96911
0.968476
0.968243
0.968114
0.967853
0.967482
0.967538
0.967733
0.968263
0.969419
0.972411
0.975688
0.979245
0.984163
0.989253
0.994356
1.0013
1.01198
1.02083
1.03313
1.04244
1.59214
2.82642
3.00646
3.03655
3.02419
3.00009
2.97902
2.95821
2.92705
2.89968
2.87213
2.84202
2.81485
2.78344
2.75296
2.72309
2.69411
2.66874
2.64534
2.62452
2.60667
2.59049
2.57652
2.56694
2.55798
2.55077
2.54684
2.54334
2.55459
2.53737
2.53215
2.52935
2.53263
2.51267
2.50519
2.50147
2.5011
2.48339
2.47534
2.46807
2.46481
2.47109
2.4508
2.44325
2.44082
2.42509
2.41496
2.39928
2.38764
2.37044
2.35814
2.34833
2.37292
2.39083
2.52173
2.72394
2.86341
2.96623
3.03527
3.07526
3.10681
3.13194
3.15047
3.16523
3.17771
3.19251
3.20769
3.2213
3.23272
3.23995
3.248
0.994683
0.995365
0.995044
0.994766
0.994356
0.993885
0.993306
0.992624
0.991906
0.991075
0.99012
0.989156
0.988133
0.986896
0.985753
0.984638
0.983226
0.981591
0.980505
0.9795
0.978149
0.975993
0.974678
0.973831
0.973215
0.97233
0.970243
0.969261
0.968646
0.968237
0.967885
0.967425
0.967139
0.967183
0.967496
0.96817
0.969417
0.971797
0.974385
0.977849
0.982729
0.987303
0.992404
0.999717
1.00763
1.01589
1.0265
1.03435
1.63335
2.83395
3.0339
3.05299
3.03799
3.01552
2.98101
2.95263
2.91751
2.88914
2.8621
2.83278
2.80745
2.77562
2.74518
2.71566
2.68649
2.6618
2.6392
2.61839
2.6003
2.58438
2.5701
2.5604
2.55016
2.5411
2.53583
2.53167
2.54221
2.52502
2.51791
2.51614
2.51757
2.49827
2.49117
2.48744
2.48596
2.46985
2.46257
2.45457
2.45175
2.45599
2.4379
2.43003
2.42597
2.41097
2.40004
2.38695
2.37792
2.36576
2.36523
2.36188
2.41099
2.49075
2.64949
2.80638
2.96569
3.06508
3.1087
3.13212
3.15123
3.16613
3.17563
3.18262
3.18892
3.1979
3.20846
3.21968
3.22917
3.23495
3.24247
0.994687
0.995363
0.995043
0.994765
0.994369
0.993882
0.993291
0.992638
0.991916
0.991055
0.990138
0.989167
0.988094
0.986938
0.985753
0.984603
0.9832
0.981682
0.980508
0.979375
0.977958
0.976152
0.974985
0.973843
0.972997
0.971879
0.970377
0.969683
0.968963
0.967977
0.967349
0.966874
0.966713
0.966637
0.967017
0.967599
0.968883
0.970687
0.972856
0.975709
0.979557
0.983069
0.986828
0.993294
1.00099
1.00988
1.02278
1.04334
1.58669
2.82034
3.03059
3.05163
3.03098
3.01076
2.97148
2.93751
2.89675
2.86537
2.83548
2.80208
2.77532
2.74054
2.70877
2.6785
2.64701
2.62447
2.60297
2.58237
2.56567
2.55278
2.53999
2.53148
2.52221
2.51335
2.50729
2.50312
2.51346
2.49787
2.49127
2.4903
2.49093
2.47276
2.46695
2.46328
2.4613
2.44691
2.44051
2.43269
2.42982
2.43197
2.41477
2.40697
2.40207
2.38949
2.38153
2.3748
2.37173
2.3628
2.39185
2.41564
2.51994
2.68169
2.82439
2.95307
3.03751
3.1104
3.14375
3.16816
3.18593
3.19777
3.20201
3.20162
3.2011
3.20397
3.20932
3.21713
3.22428
3.22947
3.23648
0.994694
0.995367
0.995047
0.99477
0.994378
0.993886
0.993287
0.99266
0.991924
0.991052
0.990171
0.989172
0.988076
0.986976
0.985757
0.984552
0.983194
0.981802
0.98051
0.979272
0.977831
0.976399
0.975361
0.973798
0.97256
0.971351
0.970596
0.96993
0.969162
0.96762
0.966863
0.96638
0.966181
0.9661
0.966307
0.966744
0.96768
0.969023
0.970213
0.971986
0.974446
0.976832
0.980184
0.985408
0.9917
0.998846
1.00606
1.02705
1.43384
2.7633
3.01504
3.04449
3.00629
2.98528
2.94087
2.89872
2.85796
2.8235
2.7929
2.75494
2.72292
2.68605
2.65377
2.62118
2.58572
2.56744
2.54328
2.52261
2.50913
2.49849
2.4866
2.47943
2.47305
2.4662
2.46069
2.4578
2.46803
2.45537
2.4496
2.45003
2.45034
2.43456
2.43046
2.42748
2.42507
2.41303
2.40692
2.39964
2.39699
2.39765
2.38312
2.37714
2.37327
2.3676
2.36333
2.3575
2.37647
2.3795
2.43538
2.53318
2.67705
2.82076
2.96722
3.02665
3.08127
3.12493
3.15753
3.18565
3.20576
3.21756
3.22022
3.21617
3.21068
3.20857
3.20962
3.21403
3.2188
3.22409
3.23077
0.994703
0.995374
0.995055
0.994777
0.994384
0.993885
0.993294
0.992685
0.991926
0.991061
0.990201
0.989165
0.988074
0.987011
0.985774
0.984498
0.983225
0.981955
0.980549
0.979115
0.97774
0.976717
0.975721
0.973746
0.972174
0.970986
0.970438
0.970077
0.969216
0.967327
0.966422
0.965852
0.965575
0.965555
0.965641
0.965741
0.965821
0.966063
0.966509
0.967275
0.968554
0.969981
0.971673
0.974391
0.977996
0.981983
0.983194
1.00702
1.19735
2.68485
3.00039
3.03866
2.97157
2.94593
2.87591
2.81692
2.77435
2.73737
2.7082
2.67008
2.63927
2.60386
2.57482
2.54277
2.50953
2.49649
2.46925
2.45142
2.43938
2.43041
2.4202
2.41356
2.40916
2.40417
2.39939
2.39831
2.40678
2.39773
2.39327
2.39388
2.39309
2.38255
2.37916
2.37658
2.37497
2.36646
2.36077
2.35649
2.3556
2.35959
2.35257
2.3483
2.3507
2.34501
2.3618
2.36024
2.40237
2.44669
2.55781
2.71184
2.82842
2.96464
3.02901
3.05874
3.10012
3.1298
3.16518
3.19389
3.21604
3.22847
3.23143
3.22644
3.21844
3.21275
3.21
3.21136
3.21317
3.21865
3.22528
0.994716
0.995381
0.995063
0.994785
0.994392
0.993892
0.993304
0.992702
0.991925
0.991079
0.990229
0.989163
0.988078
0.987029
0.985818
0.984447
0.983255
0.982108
0.980588
0.978945
0.977711
0.976914
0.97596
0.9737
0.971984
0.9708
0.97026
0.970035
0.969068
0.967074
0.966007
0.96526
0.964793
0.964746
0.964682
0.964652
0.963536
0.962786
0.962415
0.962217
0.962396
0.962452
0.962466
0.96226
0.963003
0.962369
0.959516
0.968753
0.949615
2.51732
2.98682
3.0175
2.90359
2.84538
2.75831
2.71033
2.68022
2.64838
2.6252
2.58212
2.55964
2.5187
2.49959
2.46504
2.43998
2.42425
2.399
2.38926
2.37054
2.36329
2.35615
2.34936
2.3461
2.34358
2.34039
2.34008
2.34724
2.34092
2.33897
2.33763
2.33714
2.3327
2.32709
2.32631
2.32638
2.32127
2.31806
2.31939
2.32229
2.3303
2.3296
2.32214
2.34196
2.3356
2.37709
2.4001
2.47827
2.6017
2.72192
2.85516
2.95787
3.01501
3.04935
3.07582
3.10526
3.13161
3.16783
3.19796
3.21996
3.23283
3.23684
3.23199
3.22298
3.21551
3.20988
3.20871
3.20788
3.2133
3.21978
0.994731
0.99539
0.995074
0.994796
0.994398
0.993898
0.993322
0.992711
0.991925
0.991101
0.990247
0.989168
0.988084
0.98706
0.98587
0.984418
0.983306
0.982227
0.980649
0.978783
0.97765
0.976996
0.976133
0.973647
0.97185
0.970723
0.970233
0.969922
0.968743
0.966819
0.965623
0.964652
0.963999
0.96376
0.963459
0.963149
0.961213
0.959824
0.958514
0.957184
0.955815
0.954368
0.951908
0.949163
0.945446
0.943271
0.939568
0.92813
0.972231
2.23127
2.9704
2.98013
2.79059
2.70728
2.63866
2.6062
2.58978
2.55473
2.54506
2.49519
2.48522
2.44388
2.42915
2.39868
2.37436
2.36508
2.34041
2.33585
2.31598
2.30787
2.30467
2.29663
2.29571
2.29563
2.2938
2.29331
2.30032
2.29761
2.29737
2.29454
2.29578
2.29551
2.29006
2.29058
2.29273
2.2916
2.29076
2.29917
2.30683
2.30865
2.32008
2.31504
2.35108
2.3615
2.434
2.51668
2.62596
2.75588
2.8731
2.95962
3.00047
3.02808
3.04768
3.07933
3.10489
3.13485
3.16568
3.19707
3.2194
3.23288
3.23798
3.23387
3.2249
3.21682
3.2092
3.20596
3.20298
3.20806
3.21402
0.994748
0.9954
0.995085
0.994809
0.994404
0.993909
0.993352
0.99271
0.991931
0.991133
0.990247
0.989192
0.988117
0.987079
0.985915
0.984391
0.98331
0.982325
0.980686
0.978741
0.977696
0.976999
0.976146
0.973509
0.971864
0.97086
0.970197
0.969515
0.96812
0.966391
0.965243
0.964132
0.963323
0.962733
0.962083
0.960963
0.958811
0.957133
0.955307
0.953187
0.950576
0.947491
0.943432
0.938039
0.929499
0.92316
0.907109
0.889464
0.89483
1.47029
2.79885
2.89771
2.66246
2.60555
2.56964
2.53498
2.51158
2.48279
2.47173
2.43328
2.41811
2.39403
2.36817
2.35549
2.32518
2.32889
2.29594
2.28994
2.28102
2.27001
2.26861
2.26078
2.26117
2.26293
2.2637
2.2642
2.2705
2.27154
2.27182
2.26763
2.27075
2.27369
2.26812
2.27277
2.27401
2.27734
2.2779
2.29315
2.30666
2.30692
2.33511
2.33921
2.40887
2.46818
2.56731
2.6987
2.7841
2.90949
2.96739
2.99469
3.0112
3.02276
3.04719
3.07289
3.10196
3.13375
3.1644
3.19416
3.21593
3.22971
3.23565
3.23265
3.2244
3.21627
3.2073
3.20278
3.19824
3.20298
3.20834
0.994767
0.995414
0.995101
0.994822
0.994414
0.993931
0.993384
0.992711
0.991956
0.991181
0.990239
0.989234
0.988149
0.987091
0.985963
0.984425
0.983361
0.982362
0.980611
0.978829
0.977842
0.976989
0.975883
0.973445
0.972156
0.971045
0.969995
0.968934
0.967164
0.965947
0.964884
0.964111
0.963099
0.961743
0.960516
0.95817
0.956371
0.954414
0.951997
0.94927
0.946016
0.941439
0.93601
0.930535
0.923364
0.91691
0.9052
0.886601
0.891171
1.17964
2.51887
2.68661
2.60771
2.55407
2.51878
2.47076
2.45642
2.42935
2.41166
2.39659
2.37245
2.36345
2.33141
2.33608
2.30474
2.29898
2.27351
2.26464
2.26315
2.2533
2.25217
2.24339
2.24594
2.2476
2.25102
2.25339
2.25851
2.26119
2.26144
2.25578
2.26141
2.26459
2.25885
2.26798
2.2675
2.28031
2.28491
2.30519
2.33226
2.33856
2.40292
2.44998
2.54259
2.65404
2.74188
2.85912
2.93819
2.97961
2.99438
3.00215
3.00639
3.02095
3.04309
3.0674
3.09808
3.13011
3.16163
3.18973
3.21042
3.22441
3.23119
3.22961
3.22241
3.21428
3.20413
3.1991
3.19366
3.1979
3.20242
0.994788
0.99543
0.995117
0.99484
0.994431
0.993958
0.993407
0.992721
0.991991
0.991212
0.99025
0.989291
0.988175
0.987101
0.985987
0.984529
0.98343
0.982307
0.980476
0.979051
0.977989
0.976872
0.975534
0.973732
0.97258
0.971236
0.969603
0.968073
0.96666
0.965472
0.964818
0.963966
0.963006
0.960558
0.958302
0.956268
0.95429
0.952019
0.949602
0.946772
0.943472
0.93862
0.933914
0.928863
0.923088
0.917605
0.911058
0.913136
0.936473
1.45871
2.13785
2.43016
2.53406
2.51263
2.50107
2.45836
2.43546
2.4143
2.38497
2.37817
2.34889
2.36127
2.32283
2.32731
2.29245
2.27803
2.2788
2.26033
2.25351
2.24533
2.24403
2.23928
2.24299
2.2462
2.2506
2.25375
2.2561
2.26153
2.2609
2.2526
2.26296
2.26715
2.26412
2.28155
2.28265
2.30786
2.32952
2.36323
2.42527
2.46047
2.54691
2.63921
2.72197
2.82789
2.91274
2.96748
2.98334
2.99428
2.99847
2.99983
3.0053
3.02133
3.0389
3.06363
3.09309
3.12604
3.15846
3.18522
3.20505
3.21899
3.22618
3.22576
3.21927
3.21105
3.19984
3.19485
3.18897
3.19283
3.19674
0.994811
0.995447
0.995135
0.994859
0.994453
0.993988
0.993425
0.99274
0.992042
0.991219
0.990279
0.98935
0.988215
0.987098
0.985975
0.984681
0.983463
0.982166
0.980597
0.979398
0.978097
0.976641
0.97523
0.974108
0.973039
0.971379
0.969249
0.967577
0.966271
0.965002
0.964554
0.963635
0.962547
0.959314
0.95708
0.954935
0.952646
0.950194
0.948893
0.946727
0.944479
0.939155
0.934079
0.928493
0.922125
0.91165
0.902375
0.895439
0.969339
1.43007
2.18008
2.31553
2.47956
2.52918
2.51231
2.4626
2.44321
2.42124
2.39027
2.39541
2.3604
2.36871
2.33833
2.31513
2.30755
2.2833
2.28127
2.26515
2.25595
2.24988
2.249
2.24697
2.25013
2.25403
2.2582
2.26077
2.26097
2.27008
2.27315
2.26393
2.28731
2.29894
2.29275
2.33197
2.34822
2.39356
2.4511
2.5024
2.58703
2.6642
2.73945
2.83047
2.90857
2.96725
2.98096
2.99577
2.99191
2.99064
2.99257
2.9946
3.00526
3.01817
3.03706
3.06103
3.08924
3.12057
3.15237
3.17831
3.19818
3.21255
3.22035
3.22108
3.21522
3.20698
3.1949
3.19009
3.18416
3.18767
3.1908
0.994837
0.995469
0.995157
0.99488
0.99448
0.994014
0.993439
0.992775
0.992088
0.99124
0.990334
0.989405
0.988277
0.987122
0.986005
0.984888
0.983591
0.982044
0.980795
0.979724
0.978199
0.97639
0.975005
0.974194
0.973265
0.971414
0.968976
0.967352
0.965995
0.964734
0.96417
0.963263
0.961963
0.958642
0.95641
0.954327
0.952332
0.950158
0.948874
0.946623
0.94462
0.941018
0.936071
0.93164
0.927355
0.92487
0.923204
0.983299
0.977048
1.90704
2.11958
2.15681
2.3161
2.41183
2.49826
2.46633
2.47171
2.44605
2.41331
2.42805
2.38791
2.39025
2.35797
2.32672
2.32803
2.29608
2.28814
2.27677
2.26838
2.26067
2.26155
2.25949
2.26529
2.27084
2.27836
2.28168
2.28055
2.29969
2.31216
2.30015
2.34483
2.38024
2.3764
2.44707
2.50498
2.55547
2.64785
2.71239
2.78212
2.8594
2.93153
2.97937
2.98895
3.00608
2.99502
2.98805
2.9857
2.98747
2.98838
2.99494
3.00448
3.01728
3.0355
3.05893
3.08653
3.11705
3.14728
3.17199
3.19119
3.2055
3.21347
3.21502
3.20947
3.20167
3.18923
3.18465
3.17891
3.18233
3.18524
0.994864
0.995491
0.99518
0.994903
0.994512
0.994039
0.993455
0.992832
0.992124
0.991266
0.990401
0.989441
0.988355
0.987185
0.986035
0.985053
0.983742
0.982005
0.980886
0.979925
0.978285
0.976235
0.974941
0.974241
0.973394
0.971272
0.968801
0.967131
0.965775
0.964603
0.963929
0.962759
0.960984
0.958168
0.956043
0.954241
0.952512
0.950606
0.949334
0.947207
0.945681
0.941655
0.938844
0.935982
0.933776
0.934217
0.935512
1.03038
1.44398
2.17003
2.16994
2.17044
2.2172
2.36072
2.51887
2.50661
2.54024
2.49759
2.4567
2.46244
2.41823
2.41394
2.37315
2.34604
2.34465
2.32061
2.30541
2.29634
2.29088
2.28189
2.2861
2.29061
2.29224
2.30627
2.3187
2.32899
2.32979
2.36699
2.40203
2.40393
2.46974
2.53517
2.55133
2.63337
2.72202
2.77692
2.85452
2.91268
2.97157
2.99841
3.00514
3.0224
3.00537
2.99463
2.98794
2.98577
2.98409
2.98411
2.98699
2.99388
3.00268
3.01617
3.03418
3.05675
3.08303
3.11213
3.14143
3.16549
3.1843
3.19864
3.20668
3.20881
3.2034
3.19635
3.18357
3.17908
3.17332
3.17668
3.17921
0.994894
0.995515
0.995206
0.994933
0.994548
0.994064
0.993495
0.992899
0.992145
0.991311
0.990475
0.98948
0.988458
0.987217
0.986083
0.985148
0.98381
0.982075
0.981044
0.980002
0.978197
0.976263
0.975057
0.974311
0.973332
0.971089
0.968768
0.967133
0.965711
0.964594
0.963676
0.962291
0.959688
0.957852
0.956156
0.954655
0.953097
0.951493
0.949893
0.948129
0.944629
0.94187
0.939368
0.936767
0.932449
0.927535
0.930564
0.947197
1.89338
2.18807
2.18657
2.15625
2.17564
2.22279
2.33471
2.40124
2.51879
2.49927
2.46063
2.46992
2.42878
2.43326
2.37481
2.36039
2.35262
2.33468
2.32131
2.3171
2.31686
2.31144
2.32469
2.339
2.34446
2.37441
2.39791
2.42981
2.44966
2.50144
2.56173
2.59118
2.65486
2.73748
2.78866
2.85436
2.92459
2.97248
3.01493
3.0232
3.02852
3.03903
3.0158
3.00644
2.99883
2.9929
2.98635
2.98334
2.98228
2.98332
2.98721
2.99283
3.00215
3.01541
3.03284
3.05429
3.07871
3.10594
3.13356
3.15653
3.17506
3.1897
3.19816
3.20113
3.19614
3.19057
3.17789
3.17337
3.16737
3.1705
3.17294
0.994926
0.995542
0.995236
0.994966
0.994582
0.994093
0.993542
0.992957
0.992173
0.991376
0.990526
0.98953
0.988564
0.987271
0.986201
0.985205
0.983783
0.982277
0.981143
0.979917
0.978046
0.976571
0.975338
0.974221
0.972939
0.970941
0.969145
0.967508
0.965875
0.964353
0.963032
0.961133
0.95934
0.957688
0.956731
0.955256
0.954012
0.952236
0.949909
0.947835
0.945912
0.94465
0.943807
0.943726
0.945034
0.944932
1.00045
1.10022
2.03938
2.20597
2.21289
2.20101
2.2038
2.19599
2.24775
2.31421
2.45726
2.50575
2.50441
2.52354
2.45533
2.46884
2.3982
2.39809
2.37008
2.36359
2.35111
2.36155
2.37153
2.38643
2.39374
2.43004
2.46317
2.50128
2.54873
2.59717
2.63885
2.69334
2.76996
2.82031
2.87239
2.93761
2.98757
3.02538
3.03881
3.0394
3.05227
3.04944
3.02957
3.02335
3.01262
3.00463
2.99582
2.98955
2.98502
2.98261
2.98198
2.98347
2.98629
2.99215
3.00132
3.0145
3.03156
3.05239
3.07605
3.10239
3.12767
3.14909
3.16687
3.1814
3.18987
3.19353
3.18895
3.18495
3.17274
3.16779
3.16129
3.1636
3.1657
0.994961
0.995571
0.995269
0.994999
0.994616
0.994132
0.993596
0.992994
0.992222
0.99146
0.990584
0.989618
0.988648
0.9874
0.986321
0.985222
0.983904
0.982647
0.981285
0.979773
0.978199
0.977044
0.975695
0.973992
0.972477
0.971036
0.96966
0.968349
0.965934
0.964192
0.962347
0.960695
0.95914
0.957758
0.957125
0.955873
0.955007
0.951976
0.950077
0.94887
0.94811
0.947806
0.94794
0.949797
0.953544
0.959852
1.03382
1.49203
2.21416
2.24232
2.2296
2.22698
2.22506
2.21738
2.24481
2.26293
2.3585
2.45982
2.49651
2.56907
2.47129
2.51121
2.43054
2.44949
2.40197
2.40647
2.40402
2.43858
2.46404
2.5046
2.53013
2.58469
2.64308
2.6843
2.73795
2.79725
2.85329
2.89855
2.96107
3.0098
3.03303
3.04418
3.04881
3.05692
3.06528
3.04906
3.03976
3.03633
3.02582
3.01853
3.00913
3.00175
2.99453
2.98878
2.98492
2.98291
2.98261
2.98321
2.98569
2.99129
3.00029
3.01307
3.02946
3.04876
3.07051
3.0953
3.11943
3.14029
3.15783
3.17232
3.18086
3.18531
3.18144
3.1792
3.16763
3.16188
3.15467
3.15641
3.15845
0.994999
0.995605
0.995303
0.995034
0.994658
0.994183
0.993661
0.993027
0.992299
0.991552
0.990644
0.989724
0.988707
0.98757
0.986463
0.98526
0.984075
0.982981
0.981477
0.979668
0.978386
0.977402
0.976003
0.97388
0.972108
0.971062
0.96994
0.968984
0.966097
0.963983
0.962194
0.960641
0.959211
0.958074
0.957464
0.956277
0.955124
0.951923
0.950425
0.949312
0.948378
0.947515
0.946535
0.945514
0.944573
0.946357
0.997147
1.86407
2.27424
2.27252
2.2585
2.25551
2.24142
2.23612
2.23015
2.22414
2.28553
2.35414
2.47977
2.55331
2.53457
2.54397
2.50921
2.4962
2.48229
2.50266
2.51572
2.57177
2.62125
2.6675
2.72826
2.77671
2.83344
2.88333
2.92373
2.97673
3.02048
3.04032
3.04994
3.06144
3.0645
3.07237
3.06039
3.04874
3.04896
3.04235
3.03661
3.02857
3.0201
3.01311
3.00593
2.99941
2.99339
2.98863
2.98527
2.9834
2.98241
2.98281
2.9851
2.99049
2.99938
3.01203
3.02802
3.04602
3.06615
3.08956
3.11249
3.13246
3.14958
3.16369
3.17213
3.17722
3.17404
3.17335
3.1625
3.15573
3.14803
3.14933
3.15064
0.995039
0.99564
0.995341
0.995075
0.994704
0.99425
0.993718
0.993071
0.992393
0.991615
0.990722
0.989854
0.988776
0.98775
0.986645
0.98526
0.984257
0.983273
0.98155
0.979705
0.978578
0.977555
0.97605
0.973769
0.972141
0.971206
0.970133
0.96911
0.966046
0.963912
0.962195
0.960821
0.959516
0.958232
0.957575
0.95605
0.954762
0.952378
0.950617
0.949364
0.94821
0.947084
0.945627
0.943901
0.940433
0.970384
1.02954
2.04278
2.26046
2.27585
2.27493
2.27633
2.2605
2.258
2.24797
2.23261
2.27618
2.30685
2.41411
2.52263
2.62462
2.5898
2.63066
2.55237
2.61918
2.65377
2.6749
2.73131
2.79851
2.85368
2.91641
2.96078
3.00051
3.02786
3.04204
3.04827
3.06353
3.06718
3.0744
3.06592
3.05685
3.05578
3.05546
3.04543
3.04359
3.03557
3.03075
3.02378
3.01642
3.01023
3.00435
2.99915
2.99414
2.98995
2.98646
2.98367
2.98229
2.98195
2.98431
2.98944
2.99816
3.01004
3.0248
3.04133
3.06013
3.08207
3.10414
3.12344
3.14035
3.15412
3.16284
3.16865
3.16618
3.16644
3.15653
3.14989
3.14174
3.14208
3.14302
0.995082
0.995678
0.995383
0.995122
0.994745
0.994319
0.993776
0.993149
0.992502
0.991682
0.990836
0.989949
0.988899
0.987921
0.986731
0.985392
0.984471
0.983469
0.98155
0.980025
0.978756
0.977541
0.975814
0.974052
0.972639
0.971389
0.97015
0.968722
0.966084
0.964242
0.962598
0.961176
0.959792
0.958329
0.95715
0.955928
0.954452
0.952972
0.951816
0.950414
0.949003
0.948258
0.94787
0.948942
0.948311
1.02246
1.24358
2.18282
2.28221
2.29157
2.29459
2.29578
2.29171
2.28467
2.27101
2.26425
2.28578
2.32802
2.34924
2.60141
2.70186
2.69967
2.74113
2.72299
2.77736
2.82759
2.87992
2.92095
2.97003
3.01072
3.03837
3.04688
3.05436
3.06274
3.06877
3.06863
3.06291
3.0578
3.05741
3.06176
3.05426
3.05078
3.04749
3.03958
3.03686
3.03097
3.02658
3.0208
3.01469
3.00869
3.00287
2.99771
2.99337
2.98982
2.98658
2.98396
2.98242
2.98187
2.98388
2.98866
2.99674
3.00778
3.02128
3.03615
3.05385
3.07446
3.09555
3.11417
3.13098
3.14431
3.15353
3.15999
3.15817
3.15898
3.15002
3.14385
3.13559
3.13494
3.13497
0.995129
0.99572
0.99543
0.995173
0.994798
0.994386
0.993842
0.993233
0.992583
0.991773
0.990979
0.990027
0.989068
0.988127
0.986766
0.985638
0.984617
0.983527
0.981863
0.980572
0.979097
0.977493
0.975842
0.974694
0.973458
0.971558
0.96986
0.968317
0.966702
0.965286
0.963355
0.961487
0.959948
0.958349
0.956789
0.95527
0.954353
0.953418
0.952364
0.951481
0.949808
0.948704
0.948561
0.950605
0.952337
1.05868
1.58568
2.34247
2.32032
2.30629
2.30298
2.30109
2.29918
2.30716
2.30022
2.29464
2.35373
2.39934
2.47259
2.72783
2.83002
2.87846
2.8979
2.92879
2.96119
2.98589
3.02047
3.03579
3.04487
3.05694
3.06605
3.07021
3.06258
3.05617
3.05488
3.05626
3.05621
3.05403
3.05072
3.04965
3.04969
3.04351
3.04208
3.03596
3.03292
3.02608
3.02065
3.01539
3.01044
3.00581
3.00136
2.9975
2.99293
2.98988
2.98636
2.98375
2.98194
2.98124
2.98287
2.98736
2.99494
3.0051
3.01749
3.03111
3.04798
3.06755
3.08764
3.1055
3.122
3.13415
3.14388
3.15099
3.14977
3.15115
3.1434
3.13813
3.13014
3.12796
3.12717
0.995179
0.995765
0.995479
0.995229
0.994857
0.994451
0.993922
0.993329
0.992677
0.991904
0.991122
0.990155
0.989249
0.988267
0.986981
0.985947
0.984805
0.983538
0.982297
0.981127
0.979287
0.977416
0.976028
0.975221
0.974097
0.971653
0.96961
0.968145
0.967125
0.965954
0.964415
0.961858
0.959979
0.95842
0.95695
0.955535
0.954164
0.953491
0.952102
0.950736
0.948733
0.945267
0.940232
0.935066
0.939518
0.989553
2.01589
2.32418
2.33017
2.32212
2.31989
2.31594
2.31422
2.32669
2.32735
2.33093
2.44814
2.52145
2.63261
2.84645
2.9976
3.04753
3.05679
3.06181
3.05839
3.06369
3.0634
3.07124
3.0647
3.05964
3.05478
3.05262
3.05322
3.05152
3.0479
3.04835
3.0458
3.04782
3.04434
3.04162
3.04004
3.03466
3.03279
3.02829
3.0259
3.02029
3.01607
3.01258
3.00898
3.00517
3.00091
2.99661
2.99133
2.98866
2.98537
2.98306
2.98143
2.98104
2.98256
2.98657
2.99317
3.00214
3.01299
3.02535
3.04149
3.06021
3.07928
3.09633
3.11228
3.12329
3.13389
3.14158
3.14133
3.14336
3.13685
3.13232
3.12466
3.12057
3.11924
0.995232
0.995812
0.995533
0.99529
0.994927
0.994515
0.994015
0.99344
0.992764
0.992066
0.991218
0.990324
0.989462
0.988355
0.987292
0.986284
0.984933
0.983641
0.982729
0.981561
0.979365
0.977574
0.976405
0.975546
0.97435
0.971641
0.969731
0.968427
0.967514
0.966416
0.964619
0.961998
0.96009
0.958597
0.957281
0.95599
0.954536
0.953715
0.952748
0.951591
0.95043
0.949867
0.949881
0.948498
1.00398
1.13096
2.14776
2.30385
2.31759
2.3235
2.32818
2.3266
2.32666
2.35566
2.37076
2.38909
2.58502
2.6857
2.84535
3.03621
3.11066
3.10739
3.10727
3.09971
3.09133
3.08217
3.07087
3.06238
3.05709
3.05257
3.04822
3.04371
3.04061
3.03988
3.03628
3.03537
3.03349
3.03326
3.03305
3.03077
3.03134
3.02832
3.02795
3.02478
3.02275
3.01751
3.01323
3.00912
3.00511
3.00143
2.99818
2.99507
2.99132
2.98849
2.98519
2.98251
2.98052
2.97985
2.98106
2.98459
2.99055
2.99863
3.00828
3.01985
3.03531
3.05317
3.07125
3.08734
3.10256
3.11288
3.12385
3.13121
3.13247
3.1353
3.13021
3.12604
3.1194
3.11411
3.11201
0.99529
0.995864
0.995591
0.995357
0.995004
0.994588
0.994127
0.993542
0.992883
0.992227
0.991348
0.990527
0.98964
0.988527
0.987618
0.986572
0.985024
0.983973
0.983035
0.981824
0.979599
0.978155
0.976897
0.975726
0.974197
0.97208
0.97053
0.968984
0.967725
0.966329
0.964598
0.962305
0.960558
0.959003
0.957603
0.956296
0.955015
0.953881
0.953246
0.952742
0.952699
0.954227
0.956768
0.962187
1.05142
1.55475
2.31416
2.32641
2.32252
2.32541
2.33286
2.33522
2.34089
2.38737
2.46641
2.50603
2.73374
2.88183
3.06199
3.12687
3.12395
3.11553
3.10466
3.09546
3.08589
3.07871
3.07106
3.06245
3.05292
3.0452
3.03812
3.032
3.02781
3.02618
3.02466
3.02376
3.02345
3.0231
3.02598
3.02445
3.02507
3.02277
3.0221
3.01841
3.01587
3.01149
3.00813
3.00532
3.00243
2.99942
2.99771
2.99378
2.98943
2.9853
2.9822
2.97981
2.9784
2.97839
2.98
2.98337
2.98854
2.99526
3.00358
3.01438
3.02912
3.04609
3.06315
3.07821
3.09276
3.10244
3.11349
3.11961
3.12338
3.12734
3.12386
3.11991
3.11343
3.10727
3.10465
0.995351
0.995919
0.995653
0.995427
0.995084
0.994681
0.994237
0.993647
0.993025
0.992356
0.991529
0.990755
0.989787
0.988804
0.98793
0.986718
0.98538
0.984383
0.983285
0.981897
0.980211
0.978919
0.977483
0.975884
0.974247
0.972984
0.971694
0.969655
0.967875
0.966037
0.96471
0.963153
0.961578
0.959392
0.957728
0.956272
0.954937
0.953706
0.952193
0.950772
0.949065
0.945961
0.941647
0.942685
0.999098
1.97152
2.3324
2.33548
2.3311
2.32667
2.33526
2.35172
2.36902
2.42653
2.61
2.69225
2.91776
3.07171
3.12533
3.11579
3.1074
3.09307
3.08347
3.07674
3.07092
3.06489
3.05806
3.05078
3.04243
3.03441
3.02809
3.02282
3.0186
3.01512
3.01479
3.01205
3.01242
3.0104
3.01327
3.01255
3.01393
3.01364
3.01525
3.01351
3.01237
3.00864
3.00482
3.00082
2.99714
2.99371
2.99209
2.99067
2.98708
2.98503
2.98194
2.97914
2.97672
2.97551
2.9762
2.97893
2.98348
2.98955
2.99757
3.00833
3.02274
3.03897
3.05516
3.06934
3.0833
3.09269
3.10358
3.10811
3.11445
3.11894
3.11632
3.11261
3.107
3.10089
3.09878
0.995418
0.99598
0.99572
0.995503
0.99517
0.994786
0.994347
0.993772
0.993183
0.992503
0.991739
0.99097
0.99001
0.989113
0.988191
0.986987
0.985923
0.984825
0.983521
0.982202
0.98102
0.97968
0.977835
0.976067
0.974777
0.973833
0.972659
0.970086
0.967962
0.966086
0.965113
0.963801
0.962517
0.959884
0.957949
0.956276
0.954936
0.953662
0.952446
0.951645
0.951092
0.951522
0.950558
1.00775
1.14371
2.14403
2.31074
2.32072
2.32865
2.33233
2.34675
2.38209
2.46926
2.52004
2.75764
2.93656
3.08439
3.12737
3.10426
3.09888
3.08476
3.07337
3.06369
3.05744
3.05334
3.04953
3.04445
3.03868
3.03328
3.02708
3.02124
3.01608
3.01143
3.00482
3.0029
2.9994
3.00078
3.00039
3.00367
3.00545
3.00785
3.00809
3.00864
3.00538
3.00309
3.00013
2.99802
2.9958
2.99373
2.99053
2.98808
2.98668
2.98236
2.9798
2.97618
2.97328
2.97145
2.97146
2.97341
2.97657
2.98056
2.98564
2.99298
3.00316
3.01681
3.03182
3.04706
3.06021
3.07371
3.08293
3.09356
3.09717
3.10468
3.10961
3.10838
3.1055
3.10038
3.09483
3.09244
0.99549
0.996046
0.995792
0.995585
0.995263
0.994898
0.994458
0.993921
0.993351
0.992678
0.991978
0.991192
0.990321
0.989441
0.98843
0.987431
0.986483
0.985206
0.983824
0.982787
0.981735
0.980247
0.97819
0.976608
0.975635
0.974599
0.973275
0.970375
0.968335
0.966677
0.965609
0.964277
0.962711
0.96013
0.958318
0.956853
0.955707
0.954682
0.954086
0.954168
0.955019
0.958439
0.962121
1.05821
1.57538
2.3171
2.32611
2.32388
2.33951
2.35452
2.39274
2.4439
2.64051
2.73524
2.94997
3.08849
3.12686
3.10178
3.093
3.07562
3.06418
3.05364
3.04595
3.04091
3.0375
3.03455
3.03121
3.02721
3.02311
3.01853
3.01346
3.00793
3.00352
2.99764
2.99542
2.99058
2.9905
2.98866
2.98972
2.99128
2.99364
2.99491
2.99887
2.99888
2.9981
2.99642
2.99389
2.99098
2.98737
2.98395
2.98195
2.98268
2.97921
2.97825
2.97541
2.97249
2.97021
2.96928
2.96941
2.9706
2.97341
2.97811
2.98598
2.99645
3.00991
3.02411
3.03865
3.05115
3.06452
3.07372
3.08425
3.0875
3.09511
3.09897
3.09972
3.09743
3.09317
3.08834
3.08739
0.995566
0.996115
0.995871
0.995675
0.995368
0.995013
0.994587
0.994092
0.993513
0.992893
0.992206
0.991437
0.990668
0.989748
0.988739
0.987931
0.986997
0.985559
0.984313
0.983467
0.982364
0.980737
0.978875
0.977532
0.976427
0.975244
0.973665
0.971134
0.969346
0.967658
0.966063
0.964583
0.962504
0.960874
0.959455
0.958173
0.955684
0.953758
0.951667
0.948723
0.944004
0.93854
0.949447
1.00129
2.01055
2.31956
2.33084
2.32369
2.34817
2.38692
2.47967
2.55881
2.78277
2.96618
3.09123
3.12393
3.09837
3.08798
3.07048
3.05776
3.04678
3.03758
3.03138
3.02739
3.02433
3.02148
3.01858
3.01545
3.01243
3.00899
3.00519
3.00069
2.99712
2.99208
2.98978
2.98451
2.98288
2.98052
2.98086
2.98349
2.98567
2.98632
2.98981
2.98984
2.98789
2.98647
2.98474
2.98439
2.98378
2.98026
2.97738
2.97595
2.97122
2.97043
2.96761
2.96479
2.96272
2.96206
2.96296
2.96543
2.96934
2.97407
2.98183
2.99134
3.00422
3.01706
3.03066
3.0421
3.05528
3.06443
3.07483
3.07829
3.08537
3.08747
3.09045
3.08982
3.08645
3.08267
3.0818
0.995649
0.996192
0.995957
0.995774
0.995481
0.995134
0.994742
0.99426
0.993703
0.993138
0.992436
0.991723
0.991019
0.990065
0.989159
0.988393
0.987467
0.986072
0.984952
0.984037
0.982938
0.981436
0.979858
0.978548
0.977198
0.97594
0.974241
0.972564
0.970587
0.968666
0.966684
0.964622
0.96283
0.962031
0.960578
0.959573
0.956791
0.954649
0.95318
0.952593
0.955064
0.960955
1.04124
1.32862
2.19836
2.31733
2.32185
2.33334
2.39845
2.47231
2.64865
2.78428
2.97733
3.0883
3.11977
3.09458
3.08479
3.06535
3.05274
3.04118
3.03111
3.02365
3.01894
3.01588
3.01332
3.01061
3.0078
3.005
3.00235
3.00062
2.99788
2.99398
2.99146
2.98745
2.98503
2.98019
2.97766
2.9734
2.97078
2.97186
2.97255
2.97266
2.97587
2.97995
2.98157
2.98234
2.98111
2.97914
2.97715
2.97269
2.96921
2.97049
2.96771
2.96838
2.96569
2.96276
2.96083
2.9601
2.96029
2.96133
2.96255
2.96586
2.97334
2.98294
2.99605
3.00821
3.02134
3.03251
3.04587
3.05518
3.06573
3.06981
3.07653
3.07742
3.08073
3.08103
3.07869
3.07563
3.07634
0.995736
0.996273
0.996052
0.99588
0.995603
0.99527
0.994907
0.994429
0.993916
0.993384
0.992698
0.992037
0.991364
0.99047
0.989618
0.988813
0.987925
0.986742
0.985696
0.984645
0.983602
0.982343
0.980982
0.979561
0.978027
0.976696
0.975577
0.974122
0.971815
0.969499
0.967302
0.96546
0.964317
0.963049
0.961399
0.959885
0.956407
0.954008
0.951065
0.945895
0.941886
0.946312
1.02985
1.80957
2.32848
2.35319
2.37164
2.391
2.52755
2.63205
2.82611
3.00402
3.09297
3.11771
3.09122
3.0808
3.06177
3.04856
3.0365
3.02567
3.01714
3.01124
3.00749
3.00522
3.00309
3.00073
2.99799
2.9954
2.99277