/*--------------------------------*- C++ -*----------------------------------*\
| =========                 |                                                 |
| \\      /  F ield         | OpenFOAM: The Open Source CFD Toolbox           |
|  \\    /   O peration     | Version:  2.2.x                                 |
|   \\  /    A nd           | Web:      www.OpenFOAM.org                      |
|    \\/     M anipulation  |                                                 |
\*---------------------------------------------------------------------------*/
FoamFile
{
    version     2.0;
    format      ascii;
    class       volScalarField;
    location    "2.35";
    object      Ma;
}
// * * * * * * * * * * * * * * * * * * * * * * * * * * * * * * * * * * * * * //

dimensions      [0 0 0 0 0 0 0];

internalField   nonuniform List<scalar> 
14161
(
2.61666
2.61475
2.61543
2.6159
2.61661
2.61756
2.61858
2.61973
2.62111
2.62254
2.624
2.62544
2.62763
2.62942
2.63062
2.63229
2.63542
2.63729
2.63828
2.63932
2.64303
2.64541
2.64686
2.64756
2.64776
2.65
2.6527
2.6537
2.65411
2.65427
2.65321
2.65243
2.65122
2.6492
2.64588
2.64176
2.63844
2.63278
2.62522
2.61222
2.60073
2.5883
2.57078
2.5621
2.55795
0.845361
0.548446
0.524977
0.527551
0.545595
0.561282
0.589343
0.614021
0.640125
0.66544
0.690009
0.713818
0.736674
0.757724
0.77832
0.797757
0.815555
0.832101
0.846759
0.859779
0.870503
0.879719
0.887296
0.893638
0.899401
0.904032
0.907235
0.909726
0.913314
0.918234
0.922356
0.925191
0.934929
0.937986
0.939693
0.949809
0.953261
0.955905
0.962946
0.967955
0.973466
0.978684
0.982102
0.984272
0.99248
0.99543
0.997624
1.00502
1.00917
1.01258
1.02143
1.02874
1.03563
1.04171
1.05825
1.06828
1.07722
1.09582
1.105
1.11289
1.11568
1.11206
1.0944
1.00902
0.855844
0.69002
0.54214
0.42625
0.331482
0.258564
0.191726
0.137735
0.0849993
0.053029
2.61667
2.61475
2.61543
2.61589
2.61661
2.61756
2.61858
2.61974
2.62108
2.62255
2.62397
2.62546
2.62765
2.62939
2.63067
2.63236
2.63548
2.63714
2.63826
2.63947
2.64313
2.64549
2.64685
2.64743
2.64781
2.65011
2.6527
2.65383
2.65431
2.65445
2.65343
2.65275
2.65166
2.64976
2.64665
2.64256
2.63952
2.63479
2.62805
2.6147
2.60236
2.58945
2.56818
2.55708
2.54313
0.842546
0.546978
0.522234
0.526637
0.547855
0.565289
0.592479
0.616732
0.642098
0.666507
0.689194
0.711494
0.73371
0.754847
0.775671
0.795664
0.813907
0.830845
0.846017
0.859577
0.870791
0.880303
0.888182
0.894749
0.900605
0.905346
0.909318
0.912875
0.918019
0.922763
0.926983
0.929621
0.939191
0.942133
0.943512
0.953616
0.95693
0.95909
0.966167
0.971662
0.977122
0.981969
0.984992
0.9874
0.995705
0.998432
1.00091
1.00826
1.01215
1.01596
1.02499
1.0322
1.03927
1.04556
1.06238
1.07263
1.08096
1.09718
1.10439
1.10836
1.10167
1.0807
1.03021
0.898281
0.736958
0.586472
0.458478
0.366142
0.290001
0.233474
0.180049
0.140125
0.099863
0.0931224
2.61666
2.61474
2.61542
2.61589
2.61662
2.61755
2.6186
2.61974
2.62107
2.62254
2.62399
2.62549
2.6276
2.6293
2.63076
2.63247
2.63527
2.63693
2.6383
2.63975
2.64323
2.64535
2.64666
2.64732
2.64808
2.65037
2.65272
2.65383
2.65439
2.65457
2.65378
2.65313
2.65214
2.65048
2.64783
2.64403
2.64104
2.63606
2.62899
2.61685
2.60425
2.59167
2.56967
2.55856
2.53576
0.842362
0.542653
0.518891
0.525127
0.549063
0.570849
0.599934
0.627071
0.652359
0.676571
0.699856
0.721465
0.744023
0.76498
0.785798
0.805632
0.823269
0.84012
0.855082
0.868419
0.879454
0.888708
0.896326
0.902851
0.908414
0.913053
0.916903
0.920479
0.926695
0.930802
0.934664
0.937312
0.946847
0.949823
0.950929
0.960712
0.963872
0.965829
0.972764
0.977709
0.982987
0.987662
0.990759
0.993623
1.0015
1.00417
1.00728
1.01366
1.0176
1.02225
1.03008
1.03724
1.04468
1.05133
1.06726
1.07655
1.08356
1.09626
1.09618
1.09603
1.06909
1.01253
0.916462
0.756675
0.616163
0.498564
0.407208
0.336366
0.274708
0.229688
0.187175
0.159856
0.131074
0.138975
2.61665
2.61475
2.61542
2.61588
2.61662
2.61754
2.6186
2.61974
2.62106
2.62252
2.624
2.62551
2.62754
2.62923
2.63087
2.63265
2.63504
2.63676
2.6385
2.64019
2.64315
2.64491
2.64634
2.64751
2.64866
2.65089
2.65262
2.65364
2.65442
2.65451
2.65422
2.65385
2.65302
2.65195
2.64972
2.64674
2.64281
2.6388
2.63261
2.6221
2.60916
2.59648
2.57178
2.56043
2.51196
0.84992
0.538739
0.515765
0.525974
0.554996
0.579755
0.609248
0.636785
0.664435
0.690241
0.716206
0.739723
0.764333
0.785931
0.807064
0.826892
0.843489
0.860165
0.87439
0.887028
0.897216
0.905721
0.91236
0.918309
0.923389
0.927725
0.931153
0.934367
0.941775
0.945731
0.948744
0.95117
0.960528
0.963588
0.964339
0.973655
0.976546
0.978558
0.985106
0.989567
0.994375
0.99862
1.00175
1.00475
1.01233
1.01512
1.01851
1.02402
1.02817
1.03323
1.04009
1.0471
1.05479
1.0609
1.07397
1.08024
1.08417
1.09363
1.07353
1.05742
0.989506
0.872353
0.7247
0.588394
0.490006
0.436144
0.375154
0.323282
0.273478
0.236622
0.20185
0.184088
0.164038
0.177865
2.61663
2.61474
2.61541
2.61587
2.61664
2.6175
2.61859
2.61973
2.62104
2.62251
2.624
2.62556
2.62746
2.62912
2.631
2.63279
2.6348
2.63653
2.63876
2.64066
2.64285
2.64433
2.64595
2.64811
2.64959
2.65135
2.65239
2.65333
2.65415
2.655
2.65516
2.65533
2.65504
2.65442
2.65246
2.65007
2.64658
2.64329
2.63845
2.62955
2.61841
2.60904
2.58454
2.57045
2.50204
0.881816
0.539432
0.513481
0.538817
0.565976
0.602885
0.635343
0.663309
0.692807
0.718148
0.744972
0.768592
0.793403
0.814378
0.83722
0.857543
0.873003
0.890574
0.903823
0.91584
0.925105
0.932883
0.938503
0.943671
0.948207
0.952165
0.955157
0.957576
0.965159
0.96908
0.97139
0.973298
0.981756
0.984454
0.985164
0.993535
0.996157
0.998289
1.00379
1.00776
1.01209
1.01569
1.0186
1.02163
1.02863
1.03147
1.03479
1.03959
1.04376
1.04857
1.05437
1.06084
1.06691
1.07131
1.0823
1.08319
1.07736
1.07942
1.02892
0.968112
0.847767
0.69487
0.562336
0.476515
0.432895
0.403914
0.361779
0.318221
0.278192
0.248817
0.22091
0.210343
0.195817
0.211177
2.61658
2.6147
2.61539
2.61586
2.61661
2.61748
2.61858
2.61972
2.62104
2.62249
2.62398
2.62562
2.62733
2.62896
2.63114
2.63293
2.63456
2.63626
2.63906
2.64108
2.64258
2.64373
2.64562
2.64868
2.65047
2.65176
2.65233
2.65298
2.65386
2.65609
2.65676
2.65719
2.6573
2.65707
2.6557
2.65359
2.65157
2.64881
2.64573
2.64062
2.63337
2.62619
2.60547
2.58829
2.50858
0.960505
0.550636
0.517101
0.564652
0.59406
0.638778
0.675861
0.704439
0.736912
0.761898
0.791414
0.815222
0.84003
0.85902
0.884507
0.903244
0.918319
0.936094
0.947403
0.960076
0.968277
0.975959
0.980855
0.985101
0.988802
0.991948
0.994044
0.995248
1.0026
1.00612
1.00775
1.00955
1.01528
1.01767
1.01833
1.02426
1.02676
1.02861
1.03272
1.03573
1.03946
1.04218
1.04498
1.04748
1.05322
1.05602
1.05868
1.06215
1.06515
1.06888
1.07199
1.07683
1.07892
1.08031
1.0868
1.07643
1.05267
1.02754
0.933782
0.80842
0.667126
0.542739
0.464367
0.433874
0.411826
0.390089
0.357308
0.322287
0.288989
0.263532
0.24061
0.234946
0.224664
0.240328
2.61655
2.61469
2.61536
2.61583
2.6166
2.61747
2.61853
2.61971
2.62101
2.62244
2.62393
2.62567
2.62722
2.6288
2.63125
2.63301
2.63435
2.636
2.63931
2.6414
2.64255
2.64345
2.64535
2.64885
2.65083
2.65216
2.65267
2.65289
2.65394
2.65716
2.65832
2.6591
2.65956
2.65968
2.65925
2.6584
2.65798
2.65744
2.65724
2.65764
2.65493
2.65163
2.64583
2.63243
2.53455
1.14702
0.567272
0.527733
0.610672
0.648876
0.703296
0.744262
0.771281
0.804486
0.826133
0.857757
0.877108
0.901692
0.915142
0.942806
0.953642
0.973112
0.986263
0.997435
1.00874
1.01521
1.02265
1.02712
1.03033
1.033
1.03524
1.0364
1.03667
1.04235
1.04496
1.04629
1.04758
1.05088
1.05343
1.05372
1.0573
1.05969
1.06076
1.06388
1.06545
1.0689
1.07049
1.07265
1.07381
1.07816
1.0802
1.08155
1.08284
1.08327
1.08593
1.08541
1.08773
1.08577
1.07605
1.07117
1.04474
0.984814
0.907332
0.774276
0.63542
0.523455
0.460841
0.436366
0.423009
0.409538
0.385468
0.356388
0.325292
0.298043
0.277448
0.259378
0.25765
0.250789
0.265835
2.6165
2.61466
2.61534
2.61581
2.61658
2.61742
2.61851
2.6197
2.62099
2.6224
2.6239
2.62572
2.62714
2.62867
2.6313
2.63307
2.63424
2.63579
2.63929
2.64155
2.64267
2.64335
2.64529
2.64898
2.65109
2.65246
2.65297
2.65309
2.65434
2.65798
2.65965
2.66098
2.66199
2.66261
2.66325
2.66366
2.66465
2.66718
2.67012
2.67537
2.6793
2.68875
2.70105
2.70951
2.61379
1.5611
0.614122
0.553149
0.691649
0.74611
0.795206
0.830218
0.851048
0.880928
0.894494
0.926361
0.933528
0.96282
0.966864
0.99485
0.999344
1.02043
1.02856
1.03774
1.04715
1.05159
1.05834
1.06195
1.0642
1.06613
1.06708
1.06765
1.06733
1.07115
1.07244
1.07431
1.0747
1.07681
1.07933
1.07978
1.08228
1.08411
1.08524
1.08667
1.08719
1.09008
1.09066
1.09137
1.09135
1.09381
1.09355
1.09504
1.09284
1.0914
1.09482
1.08621
1.08126
1.07448
1.0475
1.02101
0.956448
0.851992
0.725011
0.605459
0.504104
0.458847
0.444054
0.431662
0.424738
0.41015
0.388933
0.362884
0.334568
0.310045
0.291404
0.276973
0.278155
0.274099
0.288176
2.61644
2.61462
2.6153
2.61576
2.61652
2.6174
2.61848
2.61965
2.62097
2.62235
2.62385
2.62571
2.62708
2.62861
2.63129
2.63305
2.63418
2.63578
2.63933
2.64152
2.64261
2.64334
2.64541
2.64914
2.65133
2.65266
2.65313
2.65357
2.65516
2.65861
2.66059
2.66252
2.6642
2.6658
2.66764
2.66909
2.67189
2.677
2.68662
2.69598
2.70952
2.72868
2.7747
2.80689
2.82966
2.48167
0.80762
0.629573
0.798771
0.845925
0.876304
0.903638
0.92018
0.941799
0.949033
0.977076
0.976704
1.00507
1.00879
1.02972
1.03738
1.04993
1.06066
1.06315
1.07438
1.07854
1.0833
1.08574
1.08725
1.08843
1.08838
1.08861
1.08783
1.08996
1.09069
1.09258
1.09227
1.09363
1.09516
1.09634
1.09796
1.09895
1.10027
1.10013
1.09977
1.10244
1.10164
1.10043
1.10072
1.10005
1.09734
1.10049
1.09186
1.08598
1.09005
1.06722
1.04897
1.0339
0.971798
0.898124
0.800302
0.673391
0.561047
0.485379
0.458677
0.446533
0.442666
0.439942
0.43022
0.413028
0.391862
0.367012
0.341912
0.321314
0.304798
0.293382
0.296494
0.294784
0.307662
2.61638
2.61457
2.61526
2.61573
2.61647
2.61736
2.61845
2.6196
2.62092
2.62227
2.62381
2.62564
2.62703
2.62862
2.63126
2.6329
2.63418
2.63592
2.63941
2.64125
2.64243
2.64349
2.64591
2.64932
2.65126
2.65253
2.65335
2.65449
2.65675
2.65946
2.66142
2.66364
2.66613
2.6689
2.67186
2.67446
2.67886
2.68566
2.6973
2.71157
2.73536
2.75306
2.76861
2.78304
2.79878
2.6655
1.25373
0.743369
0.849566
0.891276
0.924229
0.955856
0.969981
0.985804
0.992136
1.00924
1.01281
1.0285
1.04107
1.04974
1.06437
1.06688
1.08243
1.08436
1.09328
1.09753
1.10089
1.10185
1.10344
1.10338
1.10286
1.10277
1.10181
1.10249
1.10299
1.10421
1.10442
1.10454
1.10473
1.10696
1.10646
1.10599
1.10778
1.10563
1.10473
1.10786
1.10441
1.1013
1.1036
1.0971
1.09096
1.09472
1.07712
1.06231
1.06333
1.01548
0.971174
0.930623
0.827892
0.720271
0.617656
0.521249
0.468027
0.454442
0.448194
0.453202
0.451663
0.445515
0.434539
0.418795
0.398605
0.375098
0.351752
0.333183
0.318151
0.309099
0.313341
0.313497
0.325174
2.61632
2.61452
2.61521
2.61567
2.61641
2.61733
2.61839
2.61954
2.62086
2.62222
2.62378
2.6255
2.62703
2.6287
2.63107
2.63263
2.63427
2.63628
2.63913
2.64077
2.64231
2.64396
2.64657
2.64909
2.65066
2.65212
2.65401
2.65598
2.65879
2.66065
2.66262
2.66451
2.66706
2.67119
2.67531
2.67972
2.68583
2.69339
2.70216
2.71253
2.72502
2.74618
2.76243
2.7908
2.81961
2.48334
1.86146
0.858199
0.882682
0.915775
0.927852
0.972123
0.985123
1.00705
1.01383
1.02137
1.03335
1.03786
1.05832
1.05508
1.08143
1.08136
1.09452
1.10037
1.10151
1.10958
1.11208
1.11256
1.11424
1.11323
1.11243
1.11201
1.11106
1.11092
1.11089
1.11102
1.11249
1.11077
1.10949
1.11234
1.109
1.10798
1.10992
1.10574
1.10348
1.10827
1.10004
1.09329
1.09647
1.08241
1.06888
1.06932
1.03459
1.0045
0.985009
0.907106
0.828675
0.754355
0.646378
0.54909
0.483228
0.461354
0.447305
0.454123
0.458609
0.459114
0.458696
0.451175
0.438814
0.422995
0.403285
0.381361
0.360478
0.344068
0.330659
0.323515
0.328446
0.330089
0.340467
2.61624
2.61446
2.61515
2.61562
2.61635
2.61728
2.61831
2.61947
2.62078
2.62215
2.62372
2.62531
2.62699
2.62881
2.63074
2.63233
2.63438
2.63651
2.63859
2.64018
2.64249
2.64475
2.64702
2.6485
2.64992
2.65187
2.65509
2.65766
2.65989
2.66181
2.66359
2.66502
2.66756
2.67192
2.6772
2.68219
2.68781
2.69435
2.70187
2.71084
2.72086
2.73331
2.74159
2.74598
2.69472
2.37541
1.62547
1.09026
0.93203
0.909972
0.914947
0.96375
0.980251
0.996774
1.01405
1.0157
1.03544
1.02874
1.06298
1.05656
1.08495
1.08837
1.09552
1.10271
1.10399
1.11252
1.11414
1.11449
1.11572
1.11487
1.11421
1.11352
1.1122
1.11251
1.11191
1.11122
1.11323
1.1108
1.1085
1.11183
1.10631
1.10409
1.10605
1.09792
1.09278
1.09678
1.08051
1.06763
1.06701
1.03958
1.01338
0.996071
0.943245
0.886192
0.831899
0.738952
0.646509
0.563581
0.492167
0.456899
0.444936
0.446196
0.456845
0.46337
0.466093
0.465712
0.463608
0.455614
0.443991
0.428644
0.409892
0.389259
0.369939
0.354915
0.342797
0.337129
0.342358
0.345025
0.354171
2.61617
2.6144
2.61508
2.61556
2.61629
2.61721
2.61822
2.6194
2.62068
2.62205
2.62364
2.62513
2.62695
2.62884
2.63037
2.63199
2.63456
2.63661
2.63806
2.63955
2.64272
2.64532
2.64726
2.64826
2.64945
2.65182
2.65584
2.65854
2.66058
2.66263
2.66424
2.66558
2.66752
2.67262
2.67848
2.68324
2.68838
2.69369
2.6992
2.70588
2.71185
2.71851
2.719
2.70962
2.64905
1.73036
1.32509
1.22908
1.06909
0.986977
0.92076
0.962125
0.959374
0.978104
1.00085
0.996737
1.02551
1.01475
1.05379
1.04821
1.07863
1.08132
1.08813
1.09394
1.09879
1.1049
1.10639
1.10736
1.10796
1.10781
1.10757
1.10669
1.10521
1.106
1.10435
1.10289
1.10541
1.1008
1.09668
1.10044
1.09017
1.08538
1.08808
1.07074
1.05892
1.05962
1.02953
1.00524
0.98954
0.947856
0.89955
0.851868
0.786186
0.704803
0.626813
0.554069
0.486171
0.450772
0.443545
0.434244
0.450586
0.45956
0.464882
0.470397
0.472176
0.47148
0.467073
0.459099
0.447775
0.433162
0.415613
0.396709
0.379085
0.365328
0.35452
0.349979
0.355244
0.35848
0.366334
2.61607
2.61433
2.615
2.61549
2.61621
2.61711
2.61813
2.61932
2.62057
2.62197
2.62352
2.62494
2.62687
2.62879
2.63008
2.6317
2.63465
2.63663
2.63785
2.63918
2.64274
2.64557
2.64737
2.64832
2.64921
2.65202
2.65627
2.65893
2.66106
2.66305
2.66458
2.66579
2.66748
2.67327
2.67894
2.68347
2.68751
2.69146
2.69519
2.69876
2.70262
2.70582
2.71317
2.65841
2.63397
1.45091
1.285
1.27523
1.22063
1.14131
0.976958
0.933408
0.931996
0.949401
0.977704
0.969638
1.00537
0.994796
1.03601
1.03456
1.06091
1.06316
1.07473
1.07747
1.08587
1.09057
1.09183
1.09369
1.09323
1.09265
1.09297
1.09079
1.08896
1.08972
1.08499
1.08192
1.08462
1.07532
1.06753
1.07012
1.05066
1.03915
1.03957
1.00624
0.98254
0.968921
0.924353
0.882121
0.838142
0.786828
0.718359
0.650111
0.591269
0.521678
0.467421
0.440438
0.433322
0.421743
0.439814
0.448555
0.458531
0.46717
0.47241
0.476202
0.477463
0.475211
0.469956
0.462126
0.451435
0.437905
0.421716
0.404349
0.388178
0.375526
0.365848
0.362132
0.367131
0.37056
0.377235
2.61598
2.61424
2.61492
2.61539
2.61611
2.61703
2.61806
2.61921
2.62044
2.62191
2.62339
2.62476
2.62683
2.62868
2.62989
2.63154
2.63468
2.63654
2.63768
2.63905
2.64285
2.6456
2.64725
2.64824
2.64939
2.65238
2.65656
2.65927
2.66137
2.66335
2.66457
2.66619
2.66821
2.67424
2.67847
2.68233
2.68561
2.68806
2.6896
2.69
2.688
2.68121
2.66575
2.5408
2.01193
1.26472
1.23797
1.24604
1.22807
1.16807
1.07462
0.939527
0.919588
0.894677
0.936554
0.928973
0.975436
0.966726
1.01439
1.01628
1.03897
1.04627
1.05467
1.05987
1.06758
1.07208
1.07269
1.07478
1.07123
1.06924
1.06981
1.06434
1.05974
1.05883
1.04897
1.03968
1.03917
1.02239
1.00643
0.999798
0.968897
0.944103
0.931459
0.881569
0.840739
0.805079
0.750925
0.693543
0.633661
0.585569
0.52644
0.477994
0.445838
0.424606
0.422642
0.413296
0.429246
0.437633
0.450635
0.458393
0.466975
0.473851
0.47791
0.480117
0.480479
0.477733
0.4727
0.465119
0.454998
0.442552
0.427805
0.411961
0.39714
0.38546
0.376851
0.373756
0.378353
0.38171
0.387269
2.61587
2.61417
2.61482
2.61528
2.61603
2.61693
2.61795
2.61908
2.62028
2.62185
2.62322
2.62455
2.62679
2.62844
2.62979
2.63152
2.63452
2.63623
2.63757
2.63927
2.64298
2.64524
2.6469
2.64827
2.6499
2.65334
2.65659
2.65895
2.66113
2.66315
2.66479
2.6671
2.67029
2.67402
2.67679
2.67974
2.68323
2.6857
2.68764
2.68947
2.69138
2.69256
2.68871
2.60538
1.52973
1.19334
1.19226
1.20484
1.20707
1.20233
1.16488
1.0515
0.960195
0.885922
0.907209
0.887517
0.947428
0.933553
0.992814
0.995363
1.01539
1.02594
1.03217
1.03882
1.04339
1.04632
1.04506
1.04736
1.03747
1.0323
1.03066
1.0208
1.00893
0.99821
0.988056
0.965811
0.948207
0.930493
0.895863
0.866229
0.830692
0.78751
0.750888
0.697725
0.645418
0.593807
0.551738
0.506409
0.463829
0.43545
0.416558
0.410746
0.412092
0.402622
0.418959
0.428306
0.440644
0.448287
0.459297
0.466852
0.47369
0.478783
0.481748
0.483047
0.482357
0.479586
0.474802
0.467881
0.458743
0.447371
0.43388
0.419396
0.405903
0.395251
0.387608
0.384915
0.388952
0.391952
0.396458
2.61576
2.61406
2.61471
2.6152
2.61592
2.61681
2.61781
2.61893
2.62016
2.62168
2.62304
2.62447
2.62658
2.62812
2.62974
2.63168
2.63405
2.63571
2.63769
2.63985
2.64254
2.64441
2.64633
2.64879
2.65107
2.65391
2.65595
2.6579
2.66014
2.6633
2.66578
2.66857
2.67124
2.6735
2.67502
2.67683
2.67891
2.68113
2.68349
2.68481
2.68607
2.69054
2.64542
2.53869
1.35181
1.18068
1.17506
1.18193
1.17758
1.1959
1.15916
1.11499
1.02421
0.901364
0.885229
0.854699
0.913378
0.906693
0.968461
0.9718
0.991777
1.00028
1.00585
1.00998
1.01359
1.00844
1.00361
1.00453
0.985079
0.972627
0.960869
0.946305
0.921448
0.894892
0.879116
0.83739
0.800499
0.777921
0.724117
0.678205
0.639426
0.591052
0.546205
0.510602
0.473472
0.439136
0.418678
0.405992
0.401025
0.399858
0.392699
0.397982
0.413414
0.418515
0.431068
0.438357
0.449912
0.45793
0.46673
0.473269
0.478522
0.482104
0.484116
0.484801
0.483896
0.481346
0.476871
0.470483
0.462184
0.451922
0.439732
0.426598
0.414377
0.404827
0.398119
0.395735
0.39914
0.401594
0.405127
2.61564
2.61395
2.61462
2.61509
2.6158
2.61665
2.61766
2.61877
2.62003
2.62147
2.62285
2.62439
2.62622
2.62775
2.62964
2.63166
2.63341
2.63514
2.63779
2.64017
2.64192
2.64347
2.64588
2.64932
2.65202
2.65411
2.65535
2.65688
2.6591
2.66351
2.66664
2.66901
2.67105
2.67262
2.67371
2.6743
2.67527
2.67668
2.67885
2.6789
2.67687
2.67856
2.56305
2.18995
1.22435
1.14002
1.1391
1.13916
1.13702
1.14779
1.14062
1.13956
1.07727
1.0177
0.884318
0.88379
0.868462
0.909381
0.933564
0.946871
0.963202
0.964035
0.973129
0.963065
0.97285
0.949804
0.936084
0.927712
0.898679
0.874468
0.846922
0.818143
0.782878
0.741179
0.708412
0.66292
0.617417
0.582554
0.538157
0.501449
0.471468
0.441839
0.417684
0.404989
0.398762
0.394392
0.39204
0.386391
0.38818
0.399509
0.405725
0.411863
0.422289
0.428907
0.440363
0.448234
0.457788
0.465088
0.472203
0.477646
0.481809
0.484469
0.485908
0.486101
0.485284
0.483018
0.479173
0.473598
0.466071
0.456714
0.445589
0.433631
0.422661
0.414203
0.408355
0.406223
0.408943
0.410726
0.413394
2.61551
2.61384
2.61449
2.61495
2.61565
2.61651
2.61752
2.61859
2.61988
2.6212
2.62258
2.62433
2.62584
2.62735
2.62961
2.63148
2.63282
2.63463
2.6379
2.64024
2.64161
2.64292
2.64556
2.64956
2.6524
2.6542
2.65515
2.65633
2.65883
2.66377
2.6667
2.66883
2.67041
2.67168
2.67212
2.67244
2.67288
2.67347
2.67476
2.67398
2.67038
2.66652
2.51252
1.7731
1.0997
1.10602
1.11647
1.11814
1.12586
1.1293
1.13783
1.1415
1.11794
1.0804
0.960121
0.897374
0.823691
0.900552
0.878457
0.92196
0.920365
0.913026
0.913433
0.896206
0.891331
0.855471
0.829618
0.800273
0.766411
0.726558
0.687774
0.644353
0.606554
0.565412
0.525612
0.493911
0.460476
0.438073
0.418085
0.406253
0.398369
0.394825
0.390019
0.388247
0.383613
0.386947
0.395884
0.400976
0.401893
0.408759
0.412873
0.421851
0.43131
0.439294
0.448632
0.455996
0.463861
0.470363
0.476223
0.480645
0.483888
0.486011
0.487223
0.487458
0.486806
0.484844
0.48146
0.476456
0.469729
0.461282
0.451237
0.44054
0.430803
0.423476
0.418407
0.416406
0.418394
0.419529
0.421587
2.61538
2.61373
2.61436
2.61482
2.61549
2.61636
2.61735
2.61837
2.61973
2.62096
2.62235
2.62418
2.62547
2.62699
2.62955
2.63123
2.63242
2.63432
2.63794
2.64005
2.6413
2.6427
2.64561
2.64967
2.65213
2.65388
2.65493
2.65649
2.65938
2.6637
2.66632
2.66812
2.66939
2.67046
2.67141
2.67193
2.67304
2.67417
2.67728
2.68037
2.68256
2.68106
2.58775
1.37016
1.08215
1.08391
1.09226
1.09738
1.10767
1.11599
1.12251
1.12827
1.12387
1.10297
1.01142
0.942758
0.805211
0.864431
0.810472
0.873988
0.838474
0.833386
0.806846
0.784508
0.753864
0.715947
0.676743
0.633463
0.595923
0.556755
0.51641
0.482351
0.455579
0.432659
0.414558
0.404003
0.394512
0.392313
0.389811
0.38741
0.387569
0.383189
0.389054
0.395663
0.399005
0.400646
0.403393
0.409776
0.411901
0.418915
0.423319
0.431171
0.43941
0.44742
0.455279
0.461751
0.468405
0.474129
0.479296
0.483246
0.486021
0.487741
0.488629
0.488689
0.488076
0.486411
0.48349
0.479151
0.473304
0.465897
0.457035
0.447457
0.438818
0.432473
0.427956
0.426
0.427396
0.428046
0.429538
2.61524
2.6136
2.61423
2.61466
2.61532
2.61619
2.61715
2.61819
2.61951
2.62072
2.62217
2.62389
2.62519
2.62674
2.62932
2.63081
2.6322
2.6343
2.63753
2.6395
2.64104
2.64276
2.64593
2.64906
2.65123
2.6534
2.65525
2.65741
2.66012
2.6628
2.6648
2.66676
2.66861
2.66982
2.67083
2.67168
2.6724
2.67314
2.67387
2.67563
2.67887
2.62147
2.47002
1.25143
1.08193
1.07521
1.07546
1.08116
1.08677
1.09443
1.1023
1.11095
1.11227
1.09534
1.02784
0.972415
0.803398
0.778681
0.729532
0.768691
0.716462
0.7019
0.66322
0.62882
0.586175
0.551023
0.514175
0.478895
0.451959
0.43061
0.412566
0.40066
0.393128
0.389322
0.386056
0.386111
0.383122
0.383456
0.387675
0.391523
0.397375
0.398402
0.397373
0.402257
0.406278
0.41131
0.414727
0.420211
0.422535
0.428392
0.432155
0.439205
0.446294
0.453768
0.460912
0.466994
0.472888
0.477945
0.48219
0.485359
0.487504
0.488917
0.489658
0.489727
0.489306
0.488087
0.485677
0.481923
0.476882
0.47049
0.462755
0.454275
0.446699
0.441198
0.437341
0.4356
0.436403
0.436512
0.437376
2.61508
2.61345
2.61407
2.61452
2.61515
2.61597
2.61695
2.61801
2.61923
2.62043
2.62201
2.62348
2.62488
2.62664
2.62875
2.63028
2.63203
2.63425
2.63666
2.63864
2.64089
2.64315
2.64567
2.64778
2.64977
2.65325
2.65588
2.65844
2.66051
2.66182
2.6633
2.66509
2.66827
2.66987
2.67074
2.67148
2.67186
2.67184
2.6701
2.66834
2.67265
2.55942
2.11369
1.13488
1.0577
1.05544
1.05614
1.05927
1.06322
1.06657
1.07229
1.07456
1.07585
1.05737
0.983221
0.91897
0.736145
0.665571
0.620517
0.611521
0.564096
0.542743
0.507522
0.481707
0.451685
0.431748
0.414915
0.401745
0.392844
0.388121
0.384975
0.382045
0.38195
0.380119
0.383908
0.387385
0.392501
0.393673
0.396629
0.397757
0.402684
0.407096
0.408947
0.413421
0.416991
0.421249
0.424463
0.429427
0.431922
0.437284
0.441054
0.447231
0.45354
0.459984
0.466086
0.471405
0.476326
0.480582
0.484289
0.48728
0.489483
0.490909
0.491546
0.491502
0.49095
0.489814
0.487748
0.4847
0.480625
0.475325
0.468684
0.461176
0.454409
0.449592
0.446121
0.444438
0.444633
0.444303
0.444768
2.61491
2.61329
2.61391
2.61432
2.61497
2.61574
2.61673
2.61778
2.6189
2.62017
2.62171
2.62302
2.62456
2.62643
2.628
2.62968
2.63194
2.63397
2.63566
2.63773
2.64086
2.64351
2.6452
2.64674
2.64856
2.6532
2.65636
2.65886
2.66058
2.66149
2.66267
2.66454
2.66798
2.66987
2.67049
2.6707
2.67032
2.66932
2.66569
2.6597
2.65237
2.50908
1.72096
1.05932
1.04367
1.04971
1.0538
1.05608
1.0568
1.05643
1.05536
1.04401
1.03456
0.988503
0.883708
0.790198
0.613583
0.526791
0.482366
0.458557
0.438925
0.425674
0.413311
0.404142
0.394812
0.389833
0.387123
0.383655
0.381579
0.380017
0.381865
0.383683
0.388827
0.389398
0.392509
0.393999
0.398805
0.401603
0.40623
0.407791
0.411975
0.4163
0.418193
0.422692
0.426277
0.430829
0.43406
0.438626
0.441242
0.445754
0.449041
0.453997
0.459123
0.464466
0.469811
0.474825
0.479673
0.484013
0.487515
0.490006
0.491506
0.492475
0.492989
0.493076
0.49287
0.492262
0.490862
0.488414
0.484839
0.480103
0.474227
0.467609
0.46176
0.457619
0.454792
0.45342
0.453277
0.452672
0.452642
2.61473
2.61315
2.61373
2.61413
2.61476
2.61551
2.61647
2.61749
2.61857
2.61994
2.62131
2.62256
2.62432
2.62604
2.62734
2.62919
2.63189
2.63354
2.63489
2.63719
2.64093
2.64332
2.64477
2.64614
2.64824
2.6532
2.65633
2.65859
2.66034
2.6613
2.66288
2.66479
2.66787
2.67043
2.67201
2.67284
2.67328
2.67357
2.67353
2.67178
2.66964
2.52351
1.41758
1.03145
1.03477
1.04547
1.04754
1.04797
1.04721
1.04041
1.03285
0.999921
0.961231
0.886704
0.731636
0.60521
0.467716
0.404156
0.386256
0.380982
0.380531
0.380862
0.381071
0.381677
0.381749
0.380736
0.382289
0.384536
0.387764
0.389058
0.392254
0.392076
0.396033
0.397567
0.402019
0.403083
0.407418
0.410213
0.414933
0.417297
0.421567
0.425854
0.428351
0.432269
0.435204
0.439274
0.44207
0.446118
0.448862
0.452755
0.455783
0.459969
0.464672
0.470035
0.475265
0.479924
0.483957
0.487432
0.490477
0.493059
0.495007
0.496224
0.496813
0.496773
0.496265
0.495356
0.49374
0.491513
0.488658
0.485009
0.480287
0.474611
0.469437
0.465743
0.46303
0.461576
0.460966
0.460082
0.459525
2.61454
2.61295
2.61352
2.61391
2.61455
2.61526
2.61618
2.61719
2.61822
2.61967
2.62085
2.62208
2.6241
2.62548
2.62677
2.62895
2.63141
2.63287
2.63439
2.6371
2.64031
2.64239
2.64413
2.64592
2.64866
2.65273
2.65543
2.65783
2.66005
2.66211
2.66374
2.66594
2.66821
2.67008
2.67323
2.67511
2.67755
2.67997
2.68423
2.68922
2.67176
2.54892
1.27972
1.04647
1.04246
1.04276
1.04191
1.04053
1.03726
1.01812
0.998186
0.940781
0.832335
0.734301
0.556862
0.434769
0.368458
0.351524
0.35693
0.362579
0.368774
0.373939
0.377892
0.381009
0.385108
0.388676
0.391767
0.393187
0.396228
0.397944
0.40211
0.403455
0.407456
0.409163
0.41307
0.414406
0.418032
0.42016
0.424156
0.426609
0.430252
0.434176
0.436884
0.440262
0.442544
0.4462
0.448794
0.452613
0.455568
0.459268
0.462477
0.466212
0.470234
0.474757
0.479096
0.483349
0.4874
0.491095
0.494029
0.496148
0.497504
0.498405
0.498923
0.498984
0.498654
0.498162
0.497696
0.496528
0.494306
0.491041
0.486253
0.480715
0.476126
0.472996
0.471015
0.469981
0.469305
0.468305
0.467704
2.61434
2.61277
2.61332
2.61369
2.61429
2.61499
2.61587
2.61686
2.61789
2.61925
2.6204
2.62175
2.62357
2.62485
2.62633
2.62861
2.63043
2.63212
2.63409
2.63679
2.63905
2.64097
2.6435
2.64608
2.64874
2.65137
2.6537
2.65735
2.66029
2.66305
2.6654
2.66693
2.66897
2.67083
2.67394
2.67704
2.6799
2.68144
2.68123
2.68448
2.58557
2.31861
1.1874
1.05722
1.04846
1.04319
1.03888
1.02802
1.01589
0.978261
0.910494
0.834763
0.668029
0.537017
0.409783
0.357775
0.342068
0.350615
0.356501
0.366168
0.373677
0.380383
0.386248
0.390954
0.39402
0.397347
0.401274
0.404533
0.408109
0.410842
0.414492
0.41651
0.41963
0.420625
0.423255
0.424039
0.426754
0.428354
0.431603
0.434403
0.437419
0.441428
0.444495
0.44794
0.449946
0.45312
0.455172
0.458674
0.46171
0.46535
0.468831
0.472617
0.47674
0.481597
0.486158
0.49009
0.493594
0.496729
0.499436
0.501734
0.503405
0.504526
0.505172
0.505206
0.504675
0.503889
0.502851
0.501071
0.498658
0.495926
0.492049
0.487696
0.483848
0.48128
0.479377
0.478077
0.476621
0.475333
0.474361
2.61412
2.61256
2.6131
2.61344
2.61401
2.61467
2.61554
2.61652
2.61753
2.61873
2.61993
2.62143
2.62282
2.62416
2.62605
2.6279
2.62933
2.63136
2.63404
2.63603
2.6376
2.63973
2.64326
2.64633
2.64826
2.65022
2.65233
2.65704
2.66059
2.66379
2.6663
2.66791
2.67011
2.67231
2.67643
2.67927
2.68029
2.68043
2.67712
2.6728
2.52288
1.87471
1.09069
1.05552
1.04963
1.04107
1.03173
1.00741
0.968057
0.910639
0.774371
0.666733
0.501267
0.394261
0.356772
0.344137
0.356826
0.364301
0.375355
0.383312
0.389873
0.395344
0.400084
0.404928
0.40894
0.412038
0.414953
0.417709
0.420305
0.422491
0.425153
0.427426
0.430255
0.431917
0.434631
0.435974
0.438046
0.439957
0.442228
0.444967
0.446597
0.449858
0.452116
0.455527
0.457387
0.460339
0.462134
0.465672
0.469171
0.473106
0.476369
0.479567
0.48255
0.486302
0.490234
0.493707
0.497134
0.500287
0.502895
0.505004
0.506507
0.507571
0.508285
0.508414
0.508003
0.507424
0.506905
0.506426
0.505156
0.502975
0.499469
0.494687
0.490389
0.487858
0.48645
0.485519
0.484079
0.483056
0.482396
2.61388
2.61233
2.61284
2.61317
2.61372
2.61436
2.6152
2.61614
2.61713
2.61818
2.6195
2.62094
2.62206
2.62357
2.62565
2.62696
2.62833
2.63098
2.63351
2.63498
2.6365
2.63906
2.64302
2.64559
2.64733
2.64952
2.65217
2.65697
2.66036
2.66346
2.66636
2.66926
2.67269
2.67656
2.68088
2.68425
2.68631
2.68949
2.69037
2.68979
2.51264
1.52639
1.04304
1.04585
1.04403
1.03233
1.01036
0.972553
0.872524
0.789001
0.609684
0.482566
0.385764
0.361258
0.353196
0.367209
0.374282
0.385541
0.393949
0.401532
0.407896
0.41319
0.417262
0.420566
0.423468
0.425635
0.427318
0.429244
0.431381
0.433646
0.436145
0.438839
0.441939
0.444096
0.446325
0.447717
0.447911
0.449447
0.450653
0.453433
0.454556
0.457807
0.460479
0.464413
0.466796
0.46928
0.470133
0.47228
0.474802
0.478683
0.482357
0.486428
0.490323
0.494365
0.498504
0.501896
0.504842
0.507767
0.510202
0.512301
0.513862
0.515003
0.515798
0.515997
0.515561
0.514808
0.514106
0.513005
0.511089
0.50808
0.504887
0.500981
0.497793
0.496061
0.49509
0.49393
0.49173
0.490193
0.488748
2.61363
2.6121
2.61259
2.61288
2.61342
2.61401
2.6148
2.6157
2.61663
2.61762
2.61906
2.62024
2.62135
2.62313
2.62478
2.62607
2.6276
2.63038
2.63223
2.6338
2.6357
2.63891
2.64176
2.64383
2.64623
2.64908
2.65301
2.65644
2.6593
2.66249
2.66656
2.67116
2.67591
2.68095
2.68581
2.69022
2.6948
2.70547
2.71678
2.6839
2.57427
1.27878
1.05795
1.04518
1.03594
1.0178
0.953711
0.894045
0.728201
0.604309
0.456402
0.387129
0.365154
0.370088
0.379075
0.389033
0.398302
0.406677
0.413919
0.419859
0.424819
0.428993
0.432534
0.435612
0.437996
0.440329
0.441816
0.443099
0.444591
0.446263
0.448168
0.450077
0.452651
0.454943
0.457366
0.460136
0.461102
0.46307
0.46371
0.46613
0.466808
0.468749
0.469199
0.471658
0.473555
0.476577
0.477928
0.480667
0.483096
0.487278
0.490966
0.494239
0.496813
0.499368
0.502706
0.505971
0.508494
0.511405
0.513756
0.515836
0.517389
0.518581
0.519436
0.519773
0.519518
0.518887
0.518582
0.518103
0.517603
0.515458
0.51307
0.509264
0.50557
0.502979
0.501391
0.500123
0.498511
0.49746
0.496472
2.61337
2.61183
2.6123
2.61258
2.61307
2.61362
2.61438
2.61522
2.61611
2.61713
2.61842
2.6195
2.62076
2.62243
2.62371
2.62519
2.62715
2.62913
2.63063
2.63263
2.63537
2.63798
2.63971
2.64189
2.64521
2.64923
2.65287
2.65525
2.65827
2.66169
2.66738
2.67288
2.67821
2.68315
2.68699
2.68977
2.69237
2.69662
2.69833
2.56949