/*--------------------------------*- C++ -*----------------------------------*\
| =========                 |                                                 |
| \\      /  F ield         | OpenFOAM: The Open Source CFD Toolbox           |
|  \\    /   O peration     | Version:  2.2.x                                 |
|   \\  /    A nd           | Web:      www.OpenFOAM.org                      |
|    \\/     M anipulation  |                                                 |
\*---------------------------------------------------------------------------*/
FoamFile
{
    version     2.0;
    format      ascii;
    class       volScalarField;
    location    "2.35";
    object      p;
}
// * * * * * * * * * * * * * * * * * * * * * * * * * * * * * * * * * * * * * //

dimensions      [1 -1 -2 0 0 0 0];

internalField   nonuniform List<scalar> 
14161
(
0.19757
0.197851
0.197756
0.197697
0.197606
0.197483
0.197353
0.197206
0.197031
0.196847
0.196664
0.196475
0.196197
0.19597
0.195824
0.195596
0.195209
0.194978
0.19486
0.194695
0.194245
0.193954
0.193788
0.193719
0.193661
0.193341
0.193017
0.192899
0.192863
0.192878
0.193002
0.193099
0.193236
0.193466
0.193847
0.194305
0.194741
0.195493
0.196553
0.198217
0.199705
0.201325
0.203637
0.204777
0.204295
1.02802
1.59169
1.6448
1.64529
1.61353
1.59623
1.55341
1.52001
1.48378
1.44956
1.41583
1.38193
1.351
1.32133
1.29259
1.26603
1.24165
1.21995
1.2011
1.18486
1.17094
1.15904
1.14953
1.14187
1.13546
1.13053
1.12715
1.1249
1.12108
1.11601
1.11238
1.11029
1.09844
1.09587
1.09489
1.08257
1.07946
1.07765
1.07004
1.06531
1.06005
1.05525
1.05205
1.05063
1.04156
1.03858
1.0373
1.02975
1.02568
1.02331
1.01421
1.00703
1.00061
0.995451
0.977431
0.968022
0.960073
0.940216
0.932053
0.924033
0.922012
0.92479
0.93892
1.02381
1.19519
1.40283
1.59517
1.74411
1.83959
1.90984
1.95086
1.9841
1.99782
2.0181
0.197567
0.19785
0.197756
0.197698
0.197605
0.197484
0.197353
0.197204
0.197033
0.196846
0.196665
0.196474
0.196194
0.195976
0.195816
0.195589
0.195204
0.195
0.194859
0.194679
0.194232
0.193945
0.193793
0.193733
0.193649
0.193329
0.193021
0.192885
0.192838
0.192853
0.192971
0.193055
0.193179
0.1934
0.193752
0.19421
0.194613
0.19524
0.196192
0.197895
0.199481
0.20118
0.203885
0.205476
0.205907
1.02957
1.59214
1.64653
1.6437
1.60853
1.588
1.5471
1.514
1.47862
1.4455
1.41316
1.38034
1.34961
1.32014
1.29141
1.26493
1.24068
1.21874
1.19966
1.18292
1.16868
1.15687
1.14734
1.13979
1.13335
1.12856
1.12486
1.12195
1.11668
1.11175
1.10777
1.10577
1.0941
1.09157
1.09103
1.07876
1.07575
1.07448
1.06679
1.06165
1.05666
1.05239
1.04953
1.04775
1.03853
1.03587
1.03418
1.02664
1.02301
1.02021
1.01097
1.00403
0.997507
0.992076
0.973815
0.964225
0.956578
0.939229
0.933148
0.928772
0.935645
0.954899
1.00377
1.15023
1.35426
1.55226
1.71139
1.81806
1.88068
1.93135
1.95886
1.98392
1.99128
2.01537
0.19757
0.197851
0.197757
0.197698
0.197604
0.197485
0.197353
0.197204
0.197034
0.196847
0.196664
0.196469
0.196201
0.195987
0.195804
0.195575
0.195226
0.195024
0.194851
0.194648
0.194223
0.193965
0.193817
0.193735
0.193608
0.193303
0.193025
0.192891
0.19283
0.192829
0.192921
0.192999
0.193114
0.193309
0.193615
0.194049
0.194435
0.19509
0.196054
0.1976
0.199208
0.200859
0.203621
0.205202
0.20674
1.02647
1.59291
1.64934
1.64008
1.60507
1.57808
1.53637
1.50027
1.46581
1.43184
1.39979
1.36854
1.33719
1.30787
1.27917
1.25396
1.2312
1.2095
1.19083
1.17442
1.16058
1.14924
1.14024
1.1329
1.12679
1.12219
1.11866
1.11594
1.10964
1.10576
1.1024
1.10039
1.08887
1.0862
1.08606
1.0741
1.0711
1.06995
1.06252
1.05778
1.05277
1.04865
1.0458
1.04356
1.03479
1.03211
1.02972
1.02319
1.01941
1.01585
1.00769
1.00061
0.993647
0.987912
0.970245
0.961577
0.955757
0.941433
0.942026
0.941177
0.966569
1.01897
1.11651
1.30611
1.49004
1.65138
1.75916
1.83831
1.88628
1.92786
1.94991
1.97188
1.97586
2.00304
0.197572
0.19785
0.197758
0.1977
0.197603
0.197487
0.197352
0.197204
0.197036
0.196849
0.196663
0.196465
0.196208
0.195996
0.195788
0.195555
0.195255
0.195042
0.19482
0.1946
0.194237
0.194022
0.193849
0.193697
0.193539
0.193255
0.193046
0.192926
0.192826
0.192817
0.192851
0.192896
0.192994
0.193132
0.193406
0.193764
0.194236
0.194758
0.195589
0.196921
0.198548
0.2002
0.203309
0.204983
0.209513
1.0117
1.59505
1.64933
1.6328
1.59581
1.56267
1.52355
1.48441
1.44787
1.41213
1.37756
1.34514
1.31243
1.28401
1.25532
1.23132
1.2107
1.18928
1.17135
1.15553
1.14257
1.13236
1.12447
1.11797
1.11265
1.10873
1.10601
1.10408
1.09648
1.09319
1.09078
1.08911
1.07813
1.07549
1.07588
1.06452
1.06174
1.06051
1.05359
1.04933
1.04474
1.04103
1.03824
1.03582
1.02743
1.02463
1.02178
1.01611
1.01213
1.00797
1.00076
0.993611
0.986335
0.98105
0.966316
0.960976
0.958163
0.946095
0.966651
0.979839
1.04741
1.17044
1.34226
1.52084
1.65349
1.72582
1.79078
1.84984
1.88823
1.92187
1.9387
1.95701
1.95807
1.98756
0.197575
0.197852
0.197759
0.197701
0.197604
0.197491
0.197353
0.197205
0.197039
0.196851
0.196661
0.196459
0.196217
0.196009
0.195771
0.195541
0.195288
0.195066
0.194786
0.194547
0.194274
0.194095
0.193881
0.193614
0.19343
0.193216
0.193091
0.192971
0.192847
0.192738
0.192723
0.192705
0.192746
0.192843
0.193095
0.193389
0.193805
0.194217
0.194845
0.195942
0.197301
0.19856
0.201636
0.203709
0.210544
0.971726
1.59589
1.64378
1.61536
1.58035
1.52866
1.49072
1.45115
1.41436
1.37919
1.34389
1.31337
1.28246
1.25653
1.22628
1.20327
1.18346
1.16228
1.14517
1.13053
1.11877
1.10958
1.10306
1.09743
1.09287
1.0894
1.08716
1.08619
1.07857
1.07584
1.07448
1.07373
1.06403
1.06172
1.06225
1.05205
1.0495
1.04795
1.04202
1.03809
1.03379
1.03059
1.02795
1.02554
1.01778
1.01479
1.01168
1.00663
1.00242
0.998015
0.991934
0.98533
0.979673
0.976598
0.964813
0.963964
0.970193
0.965208
1.01528
1.07251
1.20378
1.38196
1.54709
1.66499
1.71797
1.75771
1.80403
1.84948
1.88223
1.91135
1.92471
1.93979
1.9401
1.97086
0.197579
0.197855
0.197762
0.197703
0.197605
0.197494
0.197355
0.197207
0.197039
0.196855
0.196663
0.196453
0.196236
0.196026
0.195752
0.195526
0.195322
0.195096
0.194749
0.1945
0.194312
0.194167
0.193911
0.193539
0.193322
0.193175
0.193113
0.19302
0.192864
0.192594
0.192515
0.192466
0.192466
0.192523
0.192704
0.192964
0.193212
0.193544
0.193911
0.194524
0.19537
0.196373
0.198953
0.201362
0.209801
0.898713
1.58078
1.6404
1.5823
1.54869
1.48714
1.44551
1.40616
1.36818
1.33481
1.29898
1.26958
1.24089
1.21771
1.18598
1.16749
1.14658
1.1279
1.11249
1.09834
1.08854
1.0794
1.07408
1.06945
1.06591
1.06322
1.0616
1.06156
1.05389
1.05116
1.05039
1.05014
1.04313
1.04088
1.04075
1.03311
1.03055
1.02872
1.02394
1.02068
1.01656
1.01395
1.01134
1.00947
1.00267
0.999591
0.996833
0.993023
0.989911
0.986121
0.983083
0.978727
0.97727
0.977236
0.969451
0.979291
1.00212
1.02179
1.12021
1.25448
1.42265
1.58074
1.67999
1.71947
1.74247
1.76917
1.80623
1.84298
1.87323
1.89912
1.90939
1.92255
1.92283
1.95337
0.197584
0.197858
0.197765
0.197705
0.197607
0.197496
0.197359
0.197209
0.197041
0.19686
0.196668
0.196446
0.196252
0.196044
0.195737
0.195517
0.195351
0.195125
0.194719
0.194462
0.194329
0.194202
0.193933
0.193513
0.193273
0.193127
0.193085
0.193038
0.192844
0.192458
0.192318
0.192228
0.192182
0.192195
0.192272
0.192375
0.192429
0.192477
0.192446
0.192382
0.192677
0.193131
0.193909
0.195716
0.206961
0.756557
1.5634
1.63614
1.52572
1.4888
1.41773
1.37819
1.34485
1.31113
1.28368
1.2497
1.225
1.19742
1.17906
1.14542
1.13434
1.10744
1.09596
1.07966
1.06784
1.05958
1.05022
1.04566
1.04205
1.0393
1.03723
1.03621
1.0368
1.0306
1.0283
1.02738
1.02692
1.02267
1.01979
1.01926
1.01429
1.01143
1.00961
1.00598
1.00376
0.999671
0.99794
0.995877
0.994693
0.989238
0.986871
0.984947
0.983595
0.983054
0.980146
0.98106
0.978962
0.980439
0.990328
0.993363
1.01822
1.0765
1.15372
1.30612
1.46841
1.61274
1.69079
1.71914
1.7325
1.74654
1.77349
1.80288
1.83687
1.86299
1.88586
1.8939
1.90618
1.90749
1.93508
0.197591
0.197861
0.197768
0.197708
0.197611
0.1975
0.197362
0.197211
0.197044
0.196867
0.196672
0.196441
0.196263
0.19606
0.195733
0.195511
0.195367
0.195148
0.194722
0.194442
0.19432
0.194216
0.193935
0.193491
0.193239
0.193088
0.19305
0.193012
0.192785
0.19235
0.192152
0.191995
0.191883
0.191827
0.191776
0.191736
0.191606
0.191255
0.190833
0.190176
0.189719
0.18857
0.187302
0.18624
0.197878
0.512939
1.4881
1.64574
1.44996
1.40797
1.34825
1.31093
1.28303
1.25444
1.23276
1.19886
1.1862
1.15056
1.14326
1.10657
1.10348
1.07359
1.06735
1.05254
1.04244
1.0354
1.02644
1.02257
1.01984
1.01733
1.01613
1.01548
1.01629
1.01194
1.01066
1.00867
1.00857
1.00579
1.00249
1.0016
0.998065
0.995545
0.993474
0.991703
0.990614
0.986839
0.986154
0.985521
0.985002
0.981772
0.981822
0.979783
0.982273
0.983932
0.978629
0.987683
0.992004
0.998599
1.02435
1.04611
1.11234
1.22598
1.3695
1.51546
1.64528
1.70025
1.71837
1.72475
1.72971
1.74604
1.76864
1.79501
1.82763
1.85112
1.87236
1.87899
1.89112
1.89354
1.91783
0.197598
0.197866
0.197773
0.197714
0.197617
0.197505
0.197366
0.197216
0.197048
0.196875
0.196678
0.196443
0.196271
0.196069
0.195734
0.195516
0.195375
0.195148
0.194717
0.194447
0.194329
0.194217
0.19392
0.193474
0.193207
0.19307
0.193025
0.192944
0.192684
0.192271
0.192036
0.19181
0.191617
0.191437
0.191243
0.191067
0.190702
0.190009
0.188854
0.187738
0.186145
0.183971
0.178981
0.175093
0.174705
0.242205
1.25014
1.67872
1.39903
1.33938
1.28996
1.24953
1.22376
1.20478
1.18678
1.15438
1.15275
1.11225
1.11031
1.07656
1.07161
1.05138
1.03995
1.03264
1.01966
1.01321
1.00633
1.00375
1.00155
0.999423
0.998923
0.998564
0.999653
0.997094
0.996273
0.994267
0.994412
0.992582
0.990265
0.988654
0.986335
0.984982
0.9829
0.982782
0.982629
0.979238
0.979721
0.981
0.979996
0.980649
0.983302
0.978475
0.988012
0.993509
0.987346
1.01149
1.02664
1.03938
1.1043
1.17957
1.2915
1.43949
1.57613
1.6746
1.70968
1.71789
1.71663
1.71586
1.72524
1.74281
1.76356
1.78938
1.81835
1.83975
1.85826
1.86398
1.87587
1.87916
1.90021
0.197606
0.197872
0.197779
0.19772
0.197623
0.197509
0.197371
0.197222
0.197055
0.196882
0.196683
0.196452
0.196277
0.196068
0.195737
0.195536
0.195373
0.195134
0.194709
0.194482
0.194346
0.194194
0.193866
0.193454
0.193225
0.193089
0.192983
0.192814
0.192507
0.192177
0.191944
0.191679
0.191387
0.191063
0.190721
0.190391
0.18982
0.188953
0.187576
0.185898
0.183222
0.181262
0.17961
0.178035
0.177936
0.205022
0.837466
1.60926
1.3898
1.32056
1.2608
1.20745
1.18361
1.1609
1.15045
1.12021
1.12111
1.09072
1.07893
1.06011
1.04444
1.03662
1.01947
1.0135
1.00165
0.995136
0.990719
0.9893
0.986786
0.985761
0.985835
0.985832
0.986894
0.986025
0.985406
0.983924
0.983518
0.983036
0.982178
0.979312
0.979632
0.979683
0.97702
0.979008
0.979669
0.97547
0.978958
0.982023
0.978784
0.98617
0.992024
0.986584
1.00495
1.01784
1.01271
1.06403
1.10675
1.14801
1.26679
1.38833
1.50983
1.63071
1.69905
1.71673
1.71815
1.70862
1.707
1.71068
1.72124
1.73577
1.75622
1.78166
1.80784
1.82851
1.84494
1.85099
1.86245
1.86642
1.88448
0.197615
0.197878
0.197786
0.197726
0.197631
0.197514
0.197378
0.19723
0.197062
0.196889
0.196687
0.19647
0.196277
0.196058
0.195762
0.195568
0.195357
0.195094
0.194744
0.194542
0.194347
0.194132
0.1938
0.193493
0.193308
0.193118
0.192878
0.192625
0.192284
0.192059
0.191826
0.191593
0.191266
0.190763
0.190267
0.189723
0.18897
0.188051
0.187007
0.185816
0.184381
0.182129
0.180253
0.177401
0.175768
0.233307
0.501757
1.39662
1.34694
1.29358
1.25751
1.19099
1.16819
1.13166
1.12609
1.10291
1.09499
1.07939
1.05787
1.0549
1.02479
1.025
1.00397
0.997957
0.992742
0.98235
0.979471
0.978515
0.97609
0.976166
0.976702
0.977017
0.978013
0.978136
0.978116
0.977808
0.9761
0.977691
0.978554
0.974943
0.97823
0.978912
0.975621
0.979985
0.98183
0.975331
0.984654
0.991187
0.986309
1.00105
1.01325
1.00999
1.04719
1.07686
1.09239
1.18222
1.26559
1.34819
1.4801
1.59695
1.68306
1.7166
1.72418
1.71243
1.70393
1.7008
1.70006
1.7057
1.71635
1.73053
1.75108
1.77439
1.79825
1.8176
1.8324
1.83873
1.84959
1.8538
1.869
0.197624
0.197886
0.197794
0.197734
0.197638
0.19752
0.197388
0.197239
0.197073
0.196897
0.196694
0.196495
0.196278
0.196047
0.195804
0.1956
0.19534
0.195069
0.19481
0.194609
0.194315
0.194036
0.193758
0.193576
0.193394
0.193121
0.19273
0.192422
0.19216
0.191938
0.191742
0.191556
0.191197
0.190627
0.189988
0.189392
0.188727
0.187958
0.187076
0.186029
0.184936
0.183562
0.182685
0.182456
0.191692
0.274645
0.603594
1.01849
1.21215
1.2718
1.25699
1.19159
1.17107
1.1352
1.11841
1.10344
1.08522
1.08438
1.04742
1.04959
1.01218
1.01191
0.998614
0.990477
0.986041
0.97505
0.973277
0.972831
0.971208
0.972021
0.972752
0.973556
0.97509
0.974885
0.975821
0.976456
0.973672
0.976584
0.978292
0.973928
0.979918
0.981705
0.978184
0.986902
0.991483
0.985425
1.00324
1.01539
1.01384
1.04343
1.06925
1.08329
1.14289
1.20338
1.25908
1.37373
1.48057
1.57337
1.66805
1.7192
1.73058
1.72581
1.709
1.69975
1.69451
1.69278
1.69405
1.70133
1.71031
1.72469
1.74425
1.76597
1.78812
1.80633
1.81973
1.82667
1.8371
1.84172
1.85493
0.197635
0.197894
0.197803
0.197742
0.197647
0.197529
0.197399
0.197248
0.197085
0.196907
0.196705
0.196519
0.196285
0.196045
0.195854
0.195638
0.195318
0.19506
0.194882
0.194677
0.194284
0.193966
0.193737
0.193621
0.193448
0.193111
0.192629
0.192308
0.192074
0.191841
0.191684
0.191506
0.191183
0.19051
0.189808
0.189249
0.188649
0.188031
0.187396
0.186642
0.185966
0.185289
0.185286
0.187215
0.202594
0.497318
0.775839
0.855132
1.00835
1.14326
1.23544
1.19157
1.19578
1.15104
1.12666
1.11954
1.09067
1.09457
1.05067
1.04996
1.01153
1.00934
0.997323
0.992175
0.984029
0.975039
0.973038
0.972105
0.971551
0.972241
0.972994
0.974428
0.976318
0.975712
0.978247
0.979994
0.976398
0.982149
0.9859
0.980943
0.992382
0.996656
0.991982
1.011
1.02204
1.01878
1.05226
1.07634
1.0893
1.13697
1.18896
1.23701
1.31724
1.41105
1.49702
1.58773
1.6746
1.72319
1.73679
1.73925
1.71919
1.70703
1.69806
1.69029
1.68645
1.68623
1.69
1.69655
1.70636
1.72064
1.73826
1.7579
1.77824
1.79539
1.80806
1.81558
1.82544
1.8303
1.84174
0.197647
0.197904
0.197812
0.197751
0.197657
0.197541
0.19741
0.197259
0.197099
0.196918
0.196722
0.19654
0.196292
0.196049
0.195891
0.195673
0.195307
0.19506
0.194913
0.19472
0.194281
0.193935
0.193726
0.193623
0.193476
0.193075
0.192569
0.192255
0.192011
0.191788
0.191647
0.191475
0.191165
0.190428
0.189754
0.18922
0.188751
0.188294
0.187872
0.187469
0.187052
0.186768
0.186076
0.193951
0.220823
0.672054
0.8085
0.811564
0.85472
0.952628
1.14911
1.20526
1.2216
1.18098
1.14949
1.14813
1.10681
1.1088
1.06273
1.05516
1.02384
1.01817
1.00309
1.00114
0.989402
0.982315
0.980259
0.977886
0.978636
0.979975
0.979897
0.982538
0.984567
0.983804
0.989332
0.99254
0.988665
0.999527
1.00712
1.00315
1.0248
1.03603
1.03321
1.07059
1.0947
1.10592
1.1588
1.20485
1.24882
1.31274
1.39286
1.46809
1.54033
1.62363
1.69536
1.73338
1.74647
1.75049
1.73147
1.71807
1.70718
1.6962
1.68803
1.68273
1.68002
1.6819
1.68654
1.69293
1.70278
1.71607
1.73188
1.74973
1.76826
1.78442
1.79653
1.80466
1.814
1.81928
1.82964
0.197659
0.197914
0.197823
0.197763
0.197669
0.197553
0.19742
0.197273
0.197116
0.196925
0.196739
0.196564
0.196299
0.196065
0.195917
0.195692
0.195304
0.195076
0.194937
0.194732
0.194268
0.193932
0.193747
0.193629
0.193449
0.193039
0.192537
0.192219
0.191974
0.191757
0.19163
0.191404
0.191071
0.190341
0.189831
0.189372
0.188988
0.188712
0.188538
0.188519
0.188799
0.189675
0.19193
0.210504
0.37926
0.803723
0.836593
0.826975
0.839989
0.889503
1.00636
1.16397
1.22613
1.23161
1.19349
1.19053
1.13222
1.13035
1.07571
1.0671
1.04063
1.03026
1.0165
1.01178
1.00188
0.996152
0.994793
0.991598
0.995728
0.997793
0.997059
1.00297
1.00738
1.00756
1.0178
1.02644
1.02517
1.04409
1.06021
1.06555
1.10031
1.12614
1.13703
1.198
1.24217
1.27832
1.34797
1.41497
1.48005
1.53995
1.61162
1.6744
1.72053
1.74881
1.75714
1.75831
1.74071
1.7285
1.71538
1.70475
1.6945
1.68641
1.68066
1.67745
1.67635
1.67908
1.68314
1.68973
1.69929
1.71114
1.72533
1.74151
1.75827
1.77369
1.78553
1.79409
1.80326
1.80888
1.81827
0.197672
0.197925
0.197835
0.197776
0.197682
0.197565
0.197434
0.197291
0.197135
0.196934
0.196762
0.196587
0.196305
0.196098
0.195926
0.195696
0.195324
0.195115
0.194944
0.194711
0.194255
0.193977
0.193785
0.19361
0.193381
0.192941
0.192547
0.192265
0.192003
0.191769
0.191564
0.191268
0.190862
0.190409
0.190072
0.189709
0.189291
0.189001
0.188775
0.188571
0.188356
0.188293
0.18944
0.20599
0.587858
0.882106
0.882825
0.866387
0.85964
0.858447
0.899598
1.01531
1.14634
1.2331
1.23447
1.23394
1.1585
1.16123
1.09005
1.08531
1.06057
1.04611
1.03482
1.02776
1.0214
1.01795
1.01888
1.01475
1.02573
1.03068
1.03146
1.04196
1.05367
1.06281
1.07361
1.09671
1.11189
1.13251
1.1715
1.20189
1.24463
1.29211
1.33196
1.40146
1.462
1.51578
1.57135
1.62824
1.68516
1.72478
1.75206
1.75995
1.76297
1.76292
1.74882
1.73691
1.72501
1.71467
1.70271
1.69295
1.68501
1.67929
1.67564
1.67397
1.67442
1.6767
1.68061
1.68696
1.69548
1.70611
1.71886
1.73334
1.74836
1.76301
1.77472
1.78372
1.79307
1.79885
1.80748
0.197686
0.197937
0.197848
0.197788
0.197695
0.197581
0.197452
0.197309
0.19715
0.196954
0.196785
0.196599
0.196332
0.19614
0.195931
0.195679
0.195382
0.195175
0.194924
0.194649
0.194313
0.194083
0.193836
0.193531
0.193245
0.192897
0.192646
0.192401
0.192102
0.191715
0.191414
0.191084
0.190768
0.190505
0.190334
0.1901
0.189819
0.189534
0.189257
0.189098
0.188984
0.188544
0.194914
0.2283
0.7305
0.898024
0.900198
0.88883
0.884569
0.865978
0.896082
0.93412
1.04347
1.19246
1.24919
1.25731
1.19097
1.18543
1.11298
1.10828
1.08303
1.06967
1.05826
1.05372
1.04596
1.0522
1.05678
1.05387
1.07601
1.08824
1.09824
1.11458
1.14123
1.16837
1.18524
1.23428
1.27182
1.29682
1.36483
1.41641
1.46258
1.51685
1.56487
1.61582
1.6659
1.70985
1.73752
1.75423
1.76384
1.76915
1.77287
1.76305
1.75114
1.74329
1.73194
1.72338
1.71136
1.70142
1.69205
1.68431
1.67844
1.67451
1.67239
1.6719
1.6729
1.67477
1.67851
1.68418
1.69172
1.70116
1.71246
1.72519
1.73869
1.75254
1.76398
1.77338
1.78305
1.78901
1.79702
0.197702
0.197951
0.197862
0.197802
0.197711
0.1976
0.197471
0.197328
0.197166
0.196983
0.196808
0.196609
0.196377
0.196182
0.195941
0.195685
0.195467
0.195239
0.194908
0.194614
0.194398
0.194197
0.193876
0.193458
0.193131
0.192888
0.192743
0.192529
0.192199
0.191668
0.191297
0.191022
0.190787
0.190614
0.190521
0.190443
0.190293
0.190054
0.189787
0.189782
0.190089
0.190093
0.205671
0.322148
0.845236
0.927245
0.9229
0.91973
0.916542
0.905338
0.908077
0.911495
0.969665
1.05233
1.212
1.24048
1.24417
1.1839
1.15586
1.12923
1.10944
1.10189
1.09015
1.09825
1.0826
1.11
1.12337
1.1303
1.165
1.19071
1.21929
1.25162
1.29351
1.34012
1.37781
1.434
1.48432
1.52157
1.5785
1.62393
1.66463
1.70496
1.73216
1.74806
1.75766
1.76468
1.76969
1.77136
1.76607
1.75879
1.75413
1.74632
1.73808
1.73
1.71906
1.70989
1.70003
1.69154
1.68423
1.67834
1.67402
1.67134
1.67029
1.67047
1.67123
1.67283
1.67597
1.68057
1.68716
1.69563
1.70584
1.71722
1.72938
1.74224
1.75332
1.76302
1.77315
1.77926
1.78672
0.197718
0.197965
0.197877
0.197819
0.197729
0.197619
0.197489
0.197351
0.197184
0.197018
0.196839
0.196617
0.196428
0.19623
0.195946
0.195711
0.195545
0.195299
0.194897
0.194606
0.194447
0.194264
0.193907
0.193423
0.193083
0.192888
0.192779
0.192597
0.192219
0.19163
0.191284
0.191039
0.190862
0.190732
0.190719
0.190676
0.190598
0.190455
0.190275
0.190376
0.190836
0.191701
0.213265
0.471951
0.946013
0.948214
0.937183
0.935571
0.928213
0.922869
0.913858
0.90944
0.928883
0.971255
1.10719
1.2119
1.27819
1.19147
1.2129
1.14564
1.15112
1.15276
1.14921
1.1659
1.16513
1.21041
1.23725
1.26691
1.30971
1.35583
1.40032
1.45153
1.49597
1.54257
1.58848
1.63179
1.67583
1.70639
1.73047
1.74471
1.75352
1.76139
1.7673
1.76916
1.76869
1.76223
1.75722
1.75356
1.75067
1.74619
1.74296
1.73362
1.72571
1.71669
1.70789
1.69947
1.69135
1.68452
1.67885
1.67444
1.67118
1.66922
1.66858
1.66884
1.66947
1.67084
1.67338
1.67738
1.68319
1.69071
1.69969
1.70954
1.72037
1.73205
1.74275
1.75265
1.76329
1.76964
1.77627
0.197736
0.197981
0.197894
0.197837
0.197749
0.197638
0.197512
0.197378
0.197205
0.197051
0.196869
0.196637
0.196475
0.196274
0.195953
0.195745
0.195595
0.195335
0.194893
0.194632
0.19449
0.194291
0.193905
0.193411
0.193117
0.192925
0.192796
0.192573
0.192169
0.191648
0.191337
0.191131
0.190987
0.190874
0.190785
0.190725
0.190574
0.190374
0.189998
0.189623
0.18941
0.190144
0.206729
0.678735
0.980203
0.981229
0.970251
0.962726
0.950066
0.940056
0.930378
0.923606
0.922761
0.94705
1.03554
1.1376
1.2904
1.23466
1.28115
1.19364
1.23392
1.23727
1.26472
1.28607
1.31514
1.36524
1.41122
1.46021
1.50418
1.55035
1.5977
1.64226
1.67938
1.71006
1.73145
1.74447
1.75472
1.76001
1.76414
1.7665
1.76462
1.76458
1.75976
1.75667
1.75311
1.74923
1.74648
1.74179
1.73888
1.73311
1.72883
1.7216
1.71488
1.70609
1.69868
1.6916
1.68501
1.67946
1.67484
1.6713
1.66878
1.66732
1.66684
1.66733
1.66802
1.66921
1.67123
1.67445
1.67925
1.68553
1.69309
1.7016
1.71137
1.72184
1.7323
1.74263
1.75348
1.75988
1.76607
0.197755
0.197997
0.197912
0.197856
0.19777
0.19766
0.197537
0.197402
0.197233
0.197079
0.196892
0.196674
0.196512
0.196305
0.195984
0.195802
0.195619
0.195342
0.194941
0.194697
0.194514
0.194285
0.193876
0.193493
0.193226
0.192964
0.192735
0.192461
0.192115
0.191786
0.191539
0.19129
0.191067
0.190927
0.190815
0.190725
0.190633
0.190532
0.190423
0.190237
0.189909
0.197509
0.238372
0.794774
0.989808
0.993916
0.98932
0.980672
0.972306
0.961819
0.951354
0.941376
0.935283
0.952889
1.01801
1.08142
1.278
1.32521
1.35753
1.30324
1.36797
1.38231
1.42772
1.46359
1.50873
1.55166
1.59658
1.64106
1.67741
1.70556
1.7276
1.74232
1.75212
1.759
1.76384
1.7657
1.76656
1.76391
1.75901
1.75763
1.75304
1.75172
1.74993
1.7461
1.74277
1.73658
1.73297
1.72847
1.72573
1.72091
1.7172
1.71056
1.70506
1.69765
1.69119
1.68502
1.6795
1.67505
1.67149
1.6688
1.66691
1.6658
1.66541
1.66579
1.66634
1.66728
1.6688
1.67137
1.67519
1.68031
1.68662
1.69397
1.70254
1.71202
1.72206
1.73257
1.74363
1.75011
1.75588
0.197775
0.198016
0.197931
0.197876
0.197793
0.197686
0.197563
0.197427
0.19727
0.197114
0.196913
0.196727
0.196548
0.19632
0.196055
0.195863
0.195639
0.195353
0.19505
0.1948
0.194523
0.194241
0.193924
0.19366
0.193388
0.192963
0.192646
0.192338
0.192101
0.191943
0.191741
0.191472
0.191088
0.190896
0.190797
0.190716
0.19068
0.190711
0.190906
0.191141
0.190755
0.205156
0.33385
0.911458
1.00082
1.00181
1.00105
0.998019
0.994467
0.990103
0.983982
0.980045
0.973612
0.99176
1.0646
1.12899
1.35253
1.4407
1.47866
1.48696
1.53982
1.56061
1.60424
1.63522
1.6733
1.69794
1.71877
1.73434
1.7453
1.75261
1.75811
1.76236
1.76373
1.76404
1.7598
1.75869
1.75488
1.75385
1.74993
1.74796
1.74385
1.7405
1.73706
1.7323
1.72906
1.72455
1.72114
1.71681
1.71418
1.70965
1.70611
1.70033
1.6955
1.68985
1.68449
1.67955
1.67532
1.67186
1.66889
1.66639
1.66447
1.66337
1.66305
1.66356
1.66424
1.6651
1.66635
1.66817
1.67089
1.67478
1.67986
1.68609
1.69371
1.70239
1.71207
1.72289
1.73406
1.74068
1.74629
0.197797
0.198035
0.197953
0.197899
0.197817
0.197715
0.197591
0.197457
0.197311
0.197148
0.196951
0.196786
0.196588
0.196349
0.196151
0.195935
0.19565
0.195393
0.19518
0.194908
0.194524
0.194199
0.194
0.193796
0.193521
0.192963
0.192582
0.192285
0.192105
0.192003
0.191832
0.191534
0.191111
0.190887
0.190817
0.190801
0.19086
0.191007
0.191456
0.192194
0.193352
0.21266
0.478773
0.97606
1.00466
1.00169
1.00129
1.00148
1.00299
1.00332
1.00413
1.01462
1.01895
1.06337
1.17069
1.26799
1.49173
1.59434
1.63689
1.6614
1.68547
1.70032
1.71505
1.72595
1.73676
1.7442
1.74912
1.75383
1.75655
1.75725
1.75535
1.75477
1.75287
1.75389
1.75113
1.74948
1.74538
1.74338
1.73858
1.73603
1.73225
1.72894
1.72602
1.72102
1.71775
1.71303
1.70961
1.70509
1.70249
1.69853
1.69563
1.69132
1.68777
1.68362
1.67916
1.67475
1.67064
1.66715
1.66443
1.6625
1.6614
1.66091
1.66084
1.66109
1.66128
1.66164
1.66243
1.66383
1.66606
1.66926
1.67341
1.67869
1.68538
1.69326
1.70239
1.71304
1.72423
1.73068
1.73599
0.19782
0.198056
0.197976
0.197925
0.197843
0.197746
0.197623
0.197493
0.197353
0.197178
0.197002
0.196843
0.196618
0.1964
0.196236
0.195993
0.195658
0.195455
0.195275
0.194971
0.194516
0.194224
0.194062
0.193874
0.19356
0.19296
0.192583
0.192319
0.192128
0.192017
0.191804
0.191519
0.19113
0.190816
0.19063
0.190537
0.190495
0.190485
0.190513
0.190764
0.191479
0.212934
0.633772
1.02758
1.02881
1.01933
1.01748
1.01652
1.01657
1.0228
1.02857
1.06208
1.09587
1.16963
1.34751
1.4905
1.66409
1.73195
1.74894
1.7514
1.75033
1.7498
1.74949
1.74941
1.74994
1.75002
1.74805
1.74645
1.74529
1.74556
1.74423
1.74437
1.7419
1.74198
1.73906
1.73782
1.7341
1.73207
1.72805
1.72509
1.72083
1.71702
1.71392
1.70937
1.70644
1.7023
1.69958
1.69562
1.69326
1.68988
1.6871
1.68322
1.67968
1.67585
1.67196
1.66839
1.66544
1.66295
1.66076
1.65886
1.65741
1.65659
1.65633
1.65673
1.65736
1.65813
1.6591
1.66017
1.66159
1.66362
1.6666
1.67094
1.67679
1.68409
1.69272
1.70359
1.71469
1.72131
1.72677
0.197844
0.198079
0.198001
0.197952
0.197872
0.197778
0.197659
0.197533
0.197397
0.197213
0.197063
0.196901
0.196646
0.196473
0.196305
0.196027
0.195718
0.195541
0.195339
0.194988
0.194591
0.194334
0.194126
0.193897
0.193529
0.193025
0.192692
0.192403
0.19214
0.191901
0.191702
0.191418
0.191123
0.190862
0.190484
0.19026
0.189976
0.189696
0.189217
0.188701
0.191358
0.215307
0.756051
1.02271
1.02878
1.02792
1.02763
1.02753
1.02865
1.04767
1.0643
1.12143
1.23702
1.34125
1.56114
1.70166
1.78044
1.79267
1.78462
1.77696
1.76893
1.76151
1.75533
1.74953
1.74407
1.74014
1.73746
1.73554
1.73304
1.73207
1.73001
1.72983
1.72756
1.7274
1.72565
1.72494
1.72195
1.7199
1.71689
1.71417
1.71083
1.70735
1.70466
1.70088
1.69826
1.69422
1.69138
1.68701
1.68391
1.68059
1.67771
1.67462
1.67149
1.66855
1.66587
1.66285
1.6599
1.65723
1.65522
1.6539
1.65327
1.65308
1.65311
1.65344
1.65387
1.65408
1.65389
1.65394
1.65493
1.65671
1.65971
1.66369
1.6689
1.67541
1.68353
1.69379
1.70409
1.71094
1.71552
0.197871
0.198104
0.198028
0.197981
0.197904
0.197814
0.197699
0.197574
0.197439
0.197266
0.197119
0.196945
0.196715
0.196552
0.19636
0.19607
0.195842
0.195626
0.195377
0.195034
0.194753
0.194506
0.194191
0.193876
0.193537
0.193207
0.192893
0.192447
0.192096
0.19177
0.191505
0.191314
0.191056
0.190789
0.190386
0.190016
0.189685
0.189506
0.189576
0.189329
0.202098
0.277182
0.859345
1.01227
1.02132
1.02516
1.02882
1.03896
1.04937
1.08722
1.1534
1.22915
1.43352
1.5831
1.73894
1.79951
1.80805
1.79572
1.7864
1.77357
1.76351
1.75448
1.74652
1.74009
1.73487
1.73025
1.7258
1.72206
1.71846
1.71586
1.71372
1.71338
1.71226
1.71282
1.71235
1.71249
1.71114
1.70957
1.70735
1.70472
1.70216
1.69826
1.69538
1.69152
1.68906
1.68543
1.68294
1.67888
1.67558
1.6722
1.66905
1.66586
1.66269
1.65966
1.65706
1.65473
1.65263
1.65082
1.64913
1.64748
1.64628
1.64561
1.64535
1.64565
1.64638
1.64711
1.64789
1.64862
1.64966
1.65059
1.65289
1.65566
1.66003
1.66591
1.67364
1.68421
1.6946
1.70204
1.70664
0.197899
0.19813
0.198057
0.198013
0.197939
0.197853
0.197741
0.197618
0.197485
0.197333
0.197179
0.196986
0.196811
0.196636
0.196397
0.196161
0.195979
0.195717
0.195385
0.195136
0.194937
0.194651
0.194219
0.193846
0.193613
0.193358
0.193052
0.19248
0.192052
0.191678
0.191399
0.191195
0.190913
0.190603
0.190097
0.189759
0.189638
0.189638
0.190049
0.190862
0.211059
0.418221
0.952225
1.0034
1.01135
1.02167
1.03159
1.05667
1.09441
1.149
1.30905
1.4303
1.63894
1.75819
1.80498
1.80852
1.79246
1.78309
1.76946
1.75934
1.75
1.74175
1.73432
1.72735
1.72096
1.71528
1.71038
1.70639
1.70314
1.70085
1.69908
1.6983
1.69766
1.69752
1.69692
1.69671
1.69667
1.69502
1.69399
1.69182
1.69089
1.68817
1.68635
1.6826
1.68038
1.677
1.67447
1.67037
1.66659
1.66256
1.65953
1.65706
1.65482
1.65257
1.65083
1.64935
1.64731
1.64534
1.64384
1.64258
1.64179
1.64123
1.64099
1.64128
1.64194
1.64238
1.64243
1.64175
1.64146
1.64185
1.64402
1.64746
1.65222
1.65764
1.6653
1.67498
1.68469
1.69218
1.69555
0.19793
0.198158
0.198088
0.198047
0.197976
0.197895
0.197786
0.197666
0.197537
0.197402
0.197233
0.197049
0.196907
0.196711
0.196449
0.196286
0.196103
0.195769
0.195451
0.195275
0.19507
0.194735
0.194254
0.193943
0.193731
0.193442
0.193081
0.192501
0.19209
0.191722
0.191367
0.191007
0.190586
0.19011
0.189598
0.189199
0.188968
0.188578
0.188487
0.189091
0.214894
0.587624
1.01555
1.01711
1.01908
1.03148
1.05275
1.08748
1.19793
1.28412
1.50729
1.65704
1.77189
1.80097
1.8002
1.78309
1.77407
1.7608
1.75066
1.74096
1.73236
1.72485
1.71838
1.71271
1.70765
1.70299
1.69856
1.69434
1.69055
1.68716
1.6843
1.68213
1.68066
1.68026
1.68053
1.68064
1.68293
1.68238
1.68282
1.68108
1.68086
1.67841
1.67642
1.67264
1.66995
1.66681
1.66508
1.66239
1.6594
1.65536
1.65191
1.64823
1.64513
1.64256
1.64036
1.63916
1.63807
1.63633
1.63513
1.63383
1.63291
1.63214
1.63176
1.63196
1.63266
1.63336
1.63364
1.63393
1.63423
1.63585
1.63707
1.63986
1.64346
1.64797
1.65508
1.66476
1.67513
1.68329
1.68656
0.197963
0.198189
0.198122
0.198084
0.198017
0.197939
0.197837
0.197721
0.197601
0.197472
0.197289
0.197139
0.196997
0.196766
0.196556
0.196396
0.196194
0.195846
0.195614
0.195415
0.195169
0.194765
0.194411
0.194154
0.193847
0.193486
0.193004
0.192584
0.192233
0.191821
0.19131
0.190753
0.190182
0.189593
0.189034
0.188536
0.187968
0.186678
0.185399
0.189781
0.216455
0.765627
1.01395
1.02615
1.03275
1.04639
1.11233
1.16716
1.36627
1.51101
1.69548
1.77659
1.79371
1.78495
1.77297
1.76025
1.74877
1.73799
1.72877
1.7208
1.71401
1.70819
1.70323
1.69869
1.69432
1.68953
1.68496
1.68042
1.6764
1.67289
1.6699
1.6677
1.66594
1.66494
1.66492
1.6641
1.66588
1.66534
1.66621
1.66513
1.66543
1.66501
1.66536
1.66336
1.66168
1.6583
1.6562
1.65286
1.6497
1.64511
1.6415
1.63857
1.63681
1.63577
1.63444
1.63346
1.63314
1.63133
1.63029
1.62899
1.62806
1.62728
1.62691
1.62698
1.62755
1.62806
1.62779
1.62709
1.62599
1.62669
1.62717
1.63017
1.63437
1.63979
1.64718
1.65674
1.66584
1.67341
1.67513
0.197998
0.198223
0.198159
0.198124
0.198062
0.197988
0.197892
0.197782
0.197668
0.197536
0.197372
0.197233
0.197072
0.196857
0.196695
0.196504
0.196254
0.196004
0.195813
0.195556
0.195216
0.194888
0.194676
0.194386
0.193963
0.193477
0.193038
0.192751
0.19236
0.191897
0.191196
0.190536
0.189913
0.189345
0.188919