/*--------------------------------*- C++ -*----------------------------------*\
| =========                 |                                                 |
| \\      /  F ield         | OpenFOAM: The Open Source CFD Toolbox           |
|  \\    /   O peration     | Version:  2.2.x                                 |
|   \\  /    A nd           | Web:      www.OpenFOAM.org                      |
|    \\/     M anipulation  |                                                 |
\*---------------------------------------------------------------------------*/
FoamFile
{
    version     2.0;
    format      ascii;
    class       volScalarField;
    location    "0.05";
    object      Ma;
}
// * * * * * * * * * * * * * * * * * * * * * * * * * * * * * * * * * * * * * //

dimensions      [0 0 0 0 0 0 0];

internalField   nonuniform List<scalar> 
14161
(
2.59808
2.59808
2.59808
2.59808
2.59808
2.59808
2.59808
2.59808
2.59808
2.59808
2.59808
2.59808
2.59808
2.59808
2.59808
2.59808
2.59808
2.59808
2.59808
2.59808
2.59808
2.59808
2.59808
2.59808
2.59808
2.59808
2.59808
2.59808
2.59808
2.59808
2.59808
2.59808
2.59808
2.59808
2.59808
2.59808
2.59808
2.59808
2.59808
2.59808
2.59808
2.59808
2.59808
2.59808
2.59808
2.59808
2.59808
2.59808
2.59808
2.59808
2.59808
2.59808
2.59808
2.59808
2.59808
2.59808
2.59808
2.59808
2.59808
2.59808
2.59808
2.59808
2.59808
2.59808
2.59808
2.59808
2.59808
2.59808
2.59808
2.59809
2.59809
2.5981
2.59812
2.59814
2.59815
2.59817
2.59821
2.59824
2.5983
2.59836
2.59844
2.59853
2.59865
2.5988
2.59899
2.59921
2.59951
2.59985
2.60027
2.60081
2.60146
2.60227
2.60326
2.60455
2.60614
2.60804
2.61047
2.61336
2.61718
2.62147
2.62725
2.63175
2.64369
1.57415
0.428389
0.293308
0.27455
0.255681
0.231127
0.203469
0.176993
0.15465
0.136664
0.119789
0.0973695
0.0717056
0.0488654
0.0293897
0.018916
2.59808
2.59808
2.59808
2.59808
2.59808
2.59808
2.59808
2.59808
2.59808
2.59808
2.59808
2.59808
2.59808
2.59808
2.59808
2.59808
2.59808
2.59808
2.59808
2.59808
2.59808
2.59808
2.59808
2.59808
2.59808
2.59808
2.59808
2.59808
2.59808
2.59808
2.59808
2.59808
2.59808
2.59808
2.59808
2.59808
2.59808
2.59808
2.59808
2.59808
2.59808
2.59808
2.59808
2.59808
2.59808
2.59808
2.59808
2.59808
2.59808
2.59808
2.59808
2.59808
2.59808
2.59808
2.59808
2.59808
2.59808
2.59808
2.59808
2.59808
2.59808
2.59808
2.59808
2.59808
2.59808
2.59808
2.59808
2.59808
2.59808
2.59809
2.59809
2.5981
2.59812
2.59814
2.59815
2.59817
2.59821
2.59824
2.59829
2.59836
2.59843
2.59852
2.59865
2.59879
2.59898
2.5992
2.59947
2.59982
2.60026
2.60078
2.60142
2.60225
2.60328
2.60455
2.60605
2.60802
2.61043
2.61344
2.61755
2.62161
2.62513
2.62537
2.62283
1.21461
0.326374
0.213745
0.202625
0.193213
0.178764
0.160782
0.144811
0.132891
0.123222
0.110326
0.0925646
0.0711558
0.0536954
0.0403642
0.0392415
2.59808
2.59808
2.59808
2.59808
2.59808
2.59808
2.59808
2.59808
2.59808
2.59808
2.59808
2.59808
2.59808
2.59808
2.59808
2.59808
2.59808
2.59808
2.59808
2.59808
2.59808
2.59808
2.59808
2.59808
2.59808
2.59808
2.59808
2.59808
2.59808
2.59808
2.59808
2.59808
2.59808
2.59808
2.59808
2.59808
2.59808
2.59808
2.59808
2.59808
2.59808
2.59808
2.59808
2.59808
2.59808
2.59808
2.59808
2.59808
2.59808
2.59808
2.59808
2.59808
2.59808
2.59808
2.59808
2.59808
2.59808
2.59808
2.59808
2.59808
2.59808
2.59808
2.59808
2.59808
2.59808
2.59808
2.59808
2.59808
2.59808
2.59809
2.59809
2.5981
2.59812
2.59814
2.59815
2.59817
2.59821
2.59824
2.59829
2.59836
2.59843
2.59852
2.59864
2.59879
2.59897
2.59919
2.59946
2.5998
2.60021
2.60074
2.60136
2.60219
2.60318
2.60441
2.60599
2.60794
2.6103
2.61355
2.61781
2.62249
2.62669
2.63417
2.6406
1.38702
0.387772
0.261627
0.24637
0.23066
0.210425
0.186925
0.165939
0.148006
0.133785
0.118217
0.10252
0.0834386
0.0694548
0.0588446
0.0611955
2.59808
2.59808
2.59808
2.59808
2.59808
2.59808
2.59808
2.59808
2.59808
2.59808
2.59808
2.59808
2.59808
2.59808
2.59808
2.59808
2.59808
2.59808
2.59808
2.59808
2.59808
2.59808
2.59808
2.59808
2.59808
2.59808
2.59808
2.59808
2.59808
2.59808
2.59808
2.59808
2.59808
2.59808
2.59808
2.59808
2.59808
2.59808
2.59808
2.59808
2.59808
2.59808
2.59808
2.59808
2.59808
2.59808
2.59808
2.59808
2.59808
2.59808
2.59808
2.59808
2.59808
2.59808
2.59808
2.59808
2.59808
2.59808
2.59808
2.59808
2.59808
2.59808
2.59808
2.59808
2.59808
2.59808
2.59808
2.59808
2.59808
2.59809
2.59809
2.5981
2.59812
2.59814
2.59815
2.59817
2.59821
2.59824
2.59829
2.59835
2.59843
2.59851
2.59863
2.59877
2.59894
2.59917
2.59944
2.59974
2.60015
2.60064
2.60129
2.60205
2.60305
2.60426
2.60586
2.60773
2.61019
2.61356
2.61786
2.62307
2.62834
2.63799
2.65571
1.33242
0.387359
0.274543
0.255774
0.236388
0.216423
0.193732
0.172134
0.153242
0.139984
0.124455
0.1121
0.0963418
0.0856948
0.0777361
0.0827211
2.59808
2.59808
2.59808
2.59808
2.59808
2.59808
2.59808
2.59808
2.59808
2.59808
2.59808
2.59808
2.59808
2.59808
2.59808
2.59808
2.59808
2.59808
2.59808
2.59808
2.59808
2.59808
2.59808
2.59808
2.59808
2.59808
2.59808
2.59808
2.59808
2.59808
2.59808
2.59808
2.59808
2.59808
2.59808
2.59808
2.59808
2.59808
2.59808
2.59808
2.59808
2.59808
2.59808
2.59808
2.59808
2.59808
2.59808
2.59808
2.59808
2.59808
2.59808
2.59808
2.59808
2.59808
2.59808
2.59808
2.59808
2.59808
2.59808
2.59808
2.59808
2.59808
2.59808
2.59808
2.59808
2.59808
2.59808
2.59808
2.59808
2.59809
2.59809
2.5981
2.59812
2.59813
2.59815
2.59816
2.5982
2.59823
2.59829
2.59835
2.59842
2.5985
2.59862
2.59876
2.59892
2.59912
2.59938
2.59968
2.60008
2.60055
2.60116
2.6019
2.60287
2.60405
2.60558
2.6075
2.61013
2.61373
2.61754
2.62256
2.62832
2.64155
2.65817
1.21085
0.371281
0.278132
0.259633
0.237663
0.217685
0.197456
0.179302
0.162051
0.150203
0.13469
0.125111
0.111358
0.102783
0.0968109
0.104619
2.59808
2.59808
2.59808
2.59808
2.59808
2.59808
2.59808
2.59808
2.59808
2.59808
2.59808
2.59808
2.59808
2.59808
2.59808
2.59808
2.59808
2.59808
2.59808
2.59808
2.59808
2.59808
2.59808
2.59808
2.59808
2.59808
2.59808
2.59808
2.59808
2.59808
2.59808
2.59808
2.59808
2.59808
2.59808
2.59808
2.59808
2.59808
2.59808
2.59808
2.59808
2.59808
2.59808
2.59808
2.59808
2.59808
2.59808
2.59808
2.59808
2.59808
2.59808
2.59808
2.59808
2.59808
2.59808
2.59808
2.59808
2.59808
2.59808
2.59808
2.59808
2.59808
2.59808
2.59808
2.59808
2.59808
2.59808
2.59808
2.59808
2.59809
2.59809
2.5981
2.59812
2.59813
2.59815
2.59816
2.5982
2.59823
2.59828
2.59834
2.59841
2.59849
2.59859
2.59872
2.59889
2.59907
2.59931
2.59961
2.59997
2.60042
2.60099
2.60172
2.60261
2.60378
2.60522
2.60723
2.60979
2.61299
2.61631
2.62138
2.62835
2.64196
2.65206
1.04968
0.350875
0.279783
0.265235
0.244038
0.223703
0.204602
0.188628
0.172853
0.162797
0.148244
0.140588
0.127785
0.120913
0.115413
0.126579
2.59808
2.59808
2.59808
2.59808
2.59808
2.59808
2.59808
2.59808
2.59808
2.59808
2.59808
2.59808
2.59808
2.59808
2.59808
2.59808
2.59808
2.59808
2.59808
2.59808
2.59808
2.59808
2.59808
2.59808
2.59808
2.59808
2.59808
2.59808
2.59808
2.59808
2.59808
2.59808
2.59808
2.59808
2.59808
2.59808
2.59808
2.59808
2.59808
2.59808
2.59808
2.59808
2.59808
2.59808
2.59808
2.59808
2.59808
2.59808
2.59808
2.59808
2.59808
2.59808
2.59808
2.59808
2.59808
2.59808
2.59808
2.59808
2.59808
2.59808
2.59808
2.59808
2.59808
2.59808
2.59808
2.59808
2.59808
2.59808
2.59808
2.59809
2.59809
2.5981
2.5981
2.59813
2.59814
2.59816
2.5982
2.59822
2.59827
2.59831
2.59838
2.59848
2.59857
2.59869
2.59883
2.59902
2.59924
2.59951
2.59984
2.60027
2.6008
2.60148
2.60231
2.60343
2.60485
2.60678
2.60905
2.61187
2.61546
2.62109
2.62891
2.63985
2.64806
0.889648
0.33203
0.281807
0.269804
0.249337
0.228616
0.210902
0.197138
0.183585
0.175819
0.162804
0.156869
0.144737
0.139573
0.133583
0.148276
2.59808
2.59808
2.59808
2.59808
2.59808
2.59808
2.59808
2.59808
2.59808
2.59808
2.59808
2.59808
2.59808
2.59808
2.59808
2.59808
2.59808
2.59808
2.59808
2.59808
2.59808
2.59808
2.59808
2.59808
2.59808
2.59808
2.59808
2.59808
2.59808
2.59808
2.59808
2.59808
2.59808
2.59808
2.59808
2.59808
2.59808
2.59808
2.59808
2.59808
2.59808
2.59808
2.59808
2.59808
2.59808
2.59808
2.59808
2.59808
2.59808
2.59808
2.59808
2.59808
2.59808
2.59808
2.59808
2.59808
2.59808
2.59808
2.59808
2.59808
2.59808
2.59808
2.59808
2.59808
2.59808
2.59808
2.59808
2.59808
2.59808
2.59809
2.59809
2.5981
2.5981
2.59813
2.59814
2.59816
2.59818
2.59822
2.59826
2.5983
2.59837
2.59844
2.59854
2.59864
2.59878
2.59895
2.59915
2.59938
2.5997
2.60006
2.60058
2.60116
2.60199
2.60299
2.60438
2.60606
2.60809
2.61084
2.61482
2.62062
2.6271
2.63215
2.63848
0.755526
0.324584
0.29017
0.279149
0.258708
0.2375
0.220105
0.208182
0.196533
0.190139
0.178376
0.173448
0.161853
0.157733
0.15152
0.169203
2.59808
2.59808
2.59808
2.59808
2.59808
2.59808
2.59808
2.59808
2.59808
2.59808
2.59808
2.59808
2.59808
2.59808
2.59808
2.59808
2.59808
2.59808
2.59808
2.59808
2.59808
2.59808
2.59808
2.59808
2.59808
2.59808
2.59808
2.59808
2.59808
2.59808
2.59808
2.59808
2.59808
2.59808
2.59808
2.59808
2.59808
2.59808
2.59808
2.59808
2.59808
2.59808
2.59808
2.59808
2.59808
2.59808
2.59808
2.59808
2.59808
2.59808
2.59808
2.59808
2.59808
2.59808
2.59808
2.59808
2.59808
2.59808
2.59808
2.59808
2.59808
2.59808
2.59808
2.59808
2.59808
2.59808
2.59808
2.59808
2.59808
2.59809
2.59809
2.59809
2.5981
2.59813
2.59814
2.59815
2.59817
2.59821
2.59824
2.59829
2.59835
2.59841
2.59849
2.59858
2.59871
2.59885
2.59903
2.59924
2.59951
2.59985
2.60029
2.60085
2.60156
2.60252
2.60371
2.60523
2.60717
2.61009
2.61414
2.6188
2.62288
2.62415
2.57137
0.631917
0.32085
0.298205
0.287964
0.267989
0.246945
0.23006
0.220222
0.210391
0.20574
0.194773
0.190322
0.178906
0.175459
0.169114
0.18935
2.59808
2.59808
2.59808
2.59808
2.59808
2.59808
2.59808
2.59808
2.59808
2.59808
2.59808
2.59808
2.59808
2.59808
2.59808
2.59808
2.59808
2.59808
2.59808
2.59808
2.59808
2.59808
2.59808
2.59808
2.59808
2.59808
2.59808
2.59808
2.59808
2.59808
2.59808
2.59808
2.59808
2.59808
2.59808
2.59808
2.59808
2.59808
2.59808
2.59808
2.59808
2.59808
2.59808
2.59808
2.59808
2.59808
2.59808
2.59808
2.59808
2.59808
2.59808
2.59808
2.59808
2.59808
2.59808
2.59808
2.59808
2.59808
2.59808
2.59808
2.59808
2.59808
2.59808
2.59808
2.59808
2.59808
2.59808
2.59808
2.59808
2.59808
2.59809
2.59809
2.5981
2.59812
2.59813
2.59815
2.59816
2.5982
2.59823
2.59827
2.59831
2.59837
2.59844
2.59854
2.59863
2.59876
2.5989
2.59909
2.5993
2.59961
2.59996
2.60046
2.60107
2.60192
2.60294
2.60441
2.60643
2.6091
2.6119
2.61421
2.61698
2.61471
2.1977
0.536785
0.319735
0.308595
0.298304
0.278313
0.257941
0.24154
0.233749
0.225355
0.222118
0.21174
0.207845
0.196332
0.192888
0.186544
0.208357
2.59808
2.59808
2.59808
2.59808
2.59808
2.59808
2.59808
2.59808
2.59808
2.59808
2.59808
2.59808
2.59808
2.59808
2.59808
2.59808
2.59808
2.59808
2.59808
2.59808
2.59808
2.59808
2.59808
2.59808
2.59808
2.59808
2.59808
2.59808
2.59808
2.59808
2.59808
2.59808
2.59808
2.59808
2.59808
2.59808
2.59808
2.59808
2.59808
2.59808
2.59808
2.59808
2.59808
2.59808
2.59808
2.59808
2.59808
2.59808
2.59808
2.59808
2.59808
2.59808
2.59808
2.59808
2.59808
2.59808
2.59808
2.59808
2.59808
2.59808
2.59808
2.59808
2.59808
2.59808
2.59808
2.59808
2.59808
2.59808
2.59808
2.59808
2.59809
2.59809
2.5981
2.5981
2.59813
2.59814
2.59816
2.59817
2.59821
2.59824
2.59829
2.59834
2.5984
2.59847
2.59855
2.59864
2.59876
2.5989
2.59909
2.59931
2.59962
2.60001
2.60057
2.60122
2.6022
2.60352
2.60536
2.60701
2.60907
2.61042
2.61488
2.61488
1.71745
0.462576
0.322275
0.320166
0.30934
0.289352
0.26927
0.253181
0.247209
0.239787
0.237607
0.228031
0.224954
0.213942
0.210404
0.20389
0.226532
2.59808
2.59808
2.59808
2.59808
2.59808
2.59808
2.59808
2.59808
2.59808
2.59808
2.59808
2.59808
2.59808
2.59808
2.59808
2.59808
2.59808
2.59808
2.59808
2.59808
2.59808
2.59808
2.59808
2.59808
2.59808
2.59808
2.59808
2.59808
2.59808
2.59808
2.59808
2.59808
2.59808
2.59808
2.59808
2.59808
2.59808
2.59808
2.59808
2.59808
2.59808
2.59808
2.59808
2.59808
2.59808
2.59808
2.59808
2.59808
2.59808
2.59808
2.59808
2.59808
2.59808
2.59808
2.59808
2.59808
2.59808
2.59808
2.59808
2.59808
2.59808
2.59808
2.59808
2.59808
2.59808
2.59808
2.59808
2.59808
2.59808
2.59808
2.59809
2.59809
2.59809
2.5981
2.59813
2.59814
2.59815
2.59816
2.5982
2.59822
2.59826
2.59829
2.59834
2.5984
2.59846
2.59853
2.59861
2.59869
2.59885
2.599
2.59922
2.59952
2.59996
2.60051
2.60137
2.60242
2.60363
2.60483
2.60721
2.60981
2.6158
2.62131
1.29272
0.410017
0.33229
0.332667
0.321169
0.302086
0.282865
0.267039
0.261924
0.254999
0.253318
0.24441
0.241387
0.230756
0.227624
0.221254
0.244033
2.59808
2.59808
2.59808
2.59808
2.59808
2.59808
2.59808
2.59808
2.59808
2.59808
2.59808
2.59808
2.59808
2.59808
2.59808
2.59808
2.59808
2.59808
2.59808
2.59808
2.59808
2.59808
2.59808
2.59808
2.59808
2.59808
2.59808
2.59808
2.59808
2.59808
2.59808
2.59808
2.59808
2.59808
2.59808
2.59808
2.59808
2.59808
2.59808
2.59808
2.59808
2.59808
2.59808
2.59808
2.59808
2.59808
2.59808
2.59808
2.59808
2.59808
2.59808
2.59808
2.59808
2.59808
2.59808
2.59808
2.59808
2.59808
2.59808
2.59808
2.59808
2.59808
2.59808
2.59808
2.59808
2.59808
2.59808
2.59808
2.59808
2.59808
2.59809
2.59809
2.59809
2.5981
2.59812
2.59813
2.59814
2.59815
2.59817
2.5982
2.59822
2.59824
2.59828
2.59832
2.59835
2.59839
2.59842
2.59848
2.59854
2.59865
2.59878
2.59899
2.59927
2.59972
2.60029
2.60104
2.602
2.60353
2.60657
2.6099
2.61358
2.62353
0.970791
0.379963
0.345249
0.345544
0.332717
0.313367
0.295759
0.281343
0.277249
0.270591
0.268923
0.260623
0.257346
0.24689
0.2439
0.23826
0.261001
2.59808
2.59808
2.59808
2.59808
2.59808
2.59808
2.59808
2.59808
2.59808
2.59808
2.59808
2.59808
2.59808
2.59808
2.59808
2.59808
2.59808
2.59808
2.59808
2.59808
2.59808
2.59808
2.59808
2.59808
2.59808
2.59808
2.59808
2.59808
2.59808
2.59808
2.59808
2.59808
2.59808
2.59808
2.59808
2.59808
2.59808
2.59808
2.59808
2.59808
2.59808
2.59808
2.59808
2.59808
2.59808
2.59808
2.59808
2.59808
2.59808
2.59808
2.59808
2.59808
2.59808
2.59808
2.59808
2.59808
2.59808
2.59808
2.59808
2.59808
2.59808
2.59808
2.59808
2.59808
2.59808
2.59808
2.59808
2.59808
2.59808
2.59808
2.59808
2.59809
2.59809
2.59809
2.5981
2.59812
2.59813
2.59814
2.59815
2.59816
2.59819
2.5982
2.59821
2.59822
2.59824
2.59824
2.59825
2.59825
2.59825
2.59828
2.59831
2.59839
2.59854
2.59881
2.59916
2.59969
2.60068
2.60224
2.60422
2.60584
2.60241
2.61385
0.742566
0.371733
0.36019
0.35966
0.34637
0.325995
0.309381
0.296201
0.29354
0.287319
0.285131
0.276974
0.272895
0.262276
0.259106
0.254444
0.277327
2.59808
2.59808
2.59808
2.59808
2.59808
2.59808
2.59808
2.59808
2.59808
2.59808
2.59808
2.59808
2.59808
2.59808
2.59808
2.59808
2.59808
2.59808
2.59808
2.59808
2.59808
2.59808
2.59808
2.59808
2.59808
2.59808
2.59808
2.59808
2.59808
2.59808
2.59808
2.59808
2.59808
2.59808
2.59808
2.59808
2.59808
2.59808
2.59808
2.59808
2.59808
2.59808
2.59808
2.59808
2.59808
2.59808
2.59808
2.59808
2.59808
2.59808
2.59808
2.59808
2.59808
2.59808
2.59808
2.59808
2.59808
2.59808
2.59808
2.59808
2.59808
2.59808
2.59808
2.59808
2.59808
2.59808
2.59808
2.59808
2.59808
2.59808
2.59808
2.59809
2.59809
2.59809
2.5981
2.5981
2.59812
2.59813
2.59813
2.59814
2.59814
2.59814
2.59814
2.59813
2.59812
2.59809
2.59804
2.59798
2.59791
2.59787
2.59779
2.59776
2.59773
2.59782
2.59796
2.5984
2.59899
2.59944
2.59915
2.59962
2.59132
2.23443
0.590496
0.375119
0.375976
0.373723
0.358795
0.338174
0.322689
0.310569
0.309209
0.30389
0.301967
0.29393
0.288773
0.277464
0.273688
0.269664
0.292435
2.59808
2.59808
2.59808
2.59808
2.59808
2.59808
2.59808
2.59808
2.59808
2.59808
2.59808
2.59808
2.59808
2.59808
2.59808
2.59808
2.59808
2.59808
2.59808
2.59808
2.59808
2.59808
2.59808
2.59808
2.59808
2.59808
2.59808
2.59808
2.59808
2.59808
2.59808
2.59808
2.59808
2.59808
2.59808
2.59808
2.59808
2.59808
2.59808
2.59808
2.59808
2.59808
2.59808
2.59808
2.59808
2.59808
2.59808
2.59808
2.59808
2.59808
2.59808
2.59808
2.59808
2.59808
2.59808
2.59808
2.59808
2.59808
2.59808
2.59808
2.59808
2.59808
2.59808
2.59808
2.59808
2.59808
2.59808
2.59808
2.59808
2.59808
2.59808
2.59808
2.59809
2.59809
2.59809
2.59809
2.5981
2.5981
2.5981
2.5981
2.59809
2.59809
2.59808
2.59805
2.59799
2.59792
2.59783
2.59773
2.5976
2.5974
2.59725
2.59704
2.59692
2.59676
2.5967
2.59667
2.59648
2.59651
2.59581
2.59799
2.59626
1.62962
0.497996
0.385974
0.393897
0.390336
0.373149
0.35236
0.337115
0.325514
0.32465
0.319875
0.318092
0.310497
0.30504
0.292783
0.287993
0.284199
0.306241
2.59808
2.59808
2.59808
2.59808
2.59808
2.59808
2.59808
2.59808
2.59808
2.59808
2.59808
2.59808
2.59808
2.59808
2.59808
2.59808
2.59808
2.59808
2.59808
2.59808
2.59808
2.59808
2.59808
2.59808
2.59808
2.59808
2.59808
2.59808
2.59808
2.59808
2.59808
2.59808
2.59808
2.59808
2.59808
2.59808
2.59808
2.59808
2.59808
2.59808
2.59808
2.59808
2.59808
2.59808
2.59808
2.59808
2.59808
2.59808
2.59808
2.59808
2.59808
2.59808
2.59808
2.59808
2.59808
2.59808
2.59808
2.59808
2.59808
2.59808
2.59808
2.59808
2.59808
2.59808
2.59808
2.59808
2.59808
2.59808
2.59808
2.59808
2.59808
2.59808
2.59808
2.59809
2.59809
2.59809
2.59809
2.59809
2.59808
2.59808
2.59806
2.59805
2.59799
2.59794
2.59787
2.59776
2.59762
2.59746
2.59724
2.59696
2.59665
2.59632
2.59599
2.5956
2.59515
2.59482
2.59443
2.59469
2.59542
2.59882
2.60803
1.14781
0.445196
0.401809
0.409828
0.404619
0.387168
0.367258
0.352479
0.34113
0.340049
0.335698
0.333534
0.326316
0.320658
0.308035
0.302622
0.298377
0.31926
2.59808
2.59808
2.59808
2.59808
2.59808
2.59808
2.59808
2.59808
2.59808
2.59808
2.59808
2.59808
2.59808
2.59808
2.59808
2.59808
2.59808
2.59808
2.59808
2.59808
2.59808
2.59808
2.59808
2.59808
2.59808
2.59808
2.59808
2.59808
2.59808
2.59808
2.59808
2.59808
2.59808
2.59808
2.59808
2.59808
2.59808
2.59808
2.59808
2.59808
2.59808
2.59808
2.59808
2.59808
2.59808
2.59808
2.59808
2.59808
2.59808
2.59808
2.59808
2.59808
2.59808
2.59808
2.59808
2.59808
2.59808
2.59808
2.59808
2.59808
2.59808
2.59808
2.59808
2.59808
2.59808
2.59808
2.59808
2.59808
2.59808
2.59808
2.59808
2.59808
2.59808
2.59808
2.59808
2.59808
2.59808
2.59808
2.59806
2.59805
2.59802
2.59799
2.59794
2.59786
2.59776
2.59761
2.59741
2.59717
2.59686
2.5965
2.59606
2.59558
2.59497
2.59438
2.59366
2.59316
2.59283
2.59298
2.5931
2.58925
2.60174
0.83892
0.430292
0.421297
0.42735
0.419348
0.400627
0.381847
0.368562
0.357962
0.35599
0.351432
0.348237
0.341286
0.335286
0.322622
0.317294
0.312714
0.33192
2.59808
2.59808
2.59808
2.59808
2.59808
2.59808
2.59808
2.59808
2.59808
2.59808
2.59808
2.59808
2.59808
2.59808
2.59808
2.59808
2.59808
2.59808
2.59808
2.59808
2.59808
2.59808
2.59808
2.59808
2.59808
2.59808
2.59808
2.59808
2.59808
2.59808
2.59808
2.59808
2.59808
2.59808
2.59808
2.59808
2.59808
2.59808
2.59808
2.59808
2.59808
2.59808
2.59808
2.59808
2.59808
2.59808
2.59808
2.59808
2.59808
2.59808
2.59808
2.59808
2.59808
2.59808
2.59808
2.59808
2.59808
2.59808
2.59808
2.59808
2.59808
2.59808
2.59808
2.59808
2.59808
2.59808
2.59808
2.59808
2.59808
2.59808
2.59808
2.59808
2.59808
2.59808
2.59808
2.59808
2.59808
2.59806
2.59805
2.59802
2.59799
2.59794
2.59787
2.59777
2.59763
2.59746
2.59721
2.5969
2.5965
2.59605
2.59545
2.59477
2.59396
2.59314
2.59218
2.59136
2.59004
2.58858
2.58702
2.57653
2.28816
0.6528
0.434416
0.440619
0.443634
0.434195
0.415027
0.396292
0.384455
0.375362
0.373059
0.368002
0.362796
0.355879
0.349111
0.336385
0.331003
0.326927
0.344787
2.59808
2.59808
2.59808
2.59808
2.59808
2.59808
2.59808
2.59808
2.59808
2.59808
2.59808
2.59808
2.59808
2.59808
2.59808
2.59808
2.59808
2.59808
2.59808
2.59808
2.59808
2.59808
2.59808
2.59808
2.59808
2.59808
2.59808
2.59808
2.59808
2.59808
2.59808
2.59808
2.59808
2.59808
2.59808
2.59808
2.59808
2.59808
2.59808
2.59808
2.59808
2.59808
2.59808
2.59808
2.59808
2.59808
2.59808
2.59808
2.59808
2.59808
2.59808
2.59808
2.59808
2.59808
2.59808
2.59808
2.59808
2.59808
2.59808
2.59808
2.59808
2.59808
2.59808
2.59808
2.59808
2.59808
2.59808
2.59808
2.59808
2.59808
2.59808
2.59808
2.59808
2.59808
2.59808
2.59808
2.59806
2.59806
2.59803
2.59801
2.59797
2.59791
2.59783
2.59769
2.59754
2.59732
2.59703
2.59664
2.59617
2.59558
2.59484
2.59399
2.593
2.59188
2.59063
2.58908
2.58732
2.58475
2.58481
2.58081
1.6425
0.551213
0.448607
0.460262
0.460679
0.449714
0.429275
0.410598
0.399655
0.391944
0.389426
0.384627
0.37787
0.370241
0.3622
0.349333
0.343606
0.340948
0.357981
2.59808
2.59808
2.59808
2.59808
2.59808
2.59808
2.59808
2.59808
2.59808
2.59808
2.59808
2.59808
2.59808
2.59808
2.59808
2.59808
2.59808
2.59808
2.59808
2.59808
2.59808
2.59808
2.59808
2.59808
2.59808
2.59808
2.59808
2.59808
2.59808
2.59808
2.59808
2.59808
2.59808
2.59808
2.59808
2.59808
2.59808
2.59808
2.59808
2.59808
2.59808
2.59808
2.59808
2.59808
2.59808
2.59808
2.59808
2.59808
2.59808
2.59808
2.59808
2.59808
2.59808
2.59808
2.59808
2.59808
2.59808
2.59808
2.59808
2.59808
2.59808
2.59808
2.59808
2.59808
2.59808
2.59808
2.59808
2.59808
2.59808
2.59808
2.59808
2.59808
2.59808
2.59808
2.59808
2.59806
2.59806
2.59805
2.59802
2.59799
2.59794
2.59787
2.59777
2.59763
2.59743
2.59718
2.59683
2.59641
2.59584
2.59514
2.59426
2.59323
2.59202
2.59055
2.58897
2.58694
2.58565
2.58444
2.58588
2.59245
1.14442
0.505453
0.470462
0.479956
0.478589
0.465837
0.444947
0.425944
0.414814
0.408308
0.405336
0.400809
0.393213
0.384743
0.375044
0.361983
0.355407
0.354343
0.371499
2.59808
2.59808
2.59808
2.59808
2.59808
2.59808
2.59808
2.59808
2.59808
2.59808
2.59808
2.59808
2.59808
2.59808
2.59808
2.59808
2.59808
2.59808
2.59808
2.59808
2.59808
2.59808
2.59808
2.59808
2.59808
2.59808
2.59808
2.59808
2.59808
2.59808
2.59808
2.59808
2.59808
2.59808
2.59808
2.59808
2.59808
2.59808
2.59808
2.59808
2.59808
2.59808
2.59808
2.59808
2.59808
2.59808
2.59808
2.59808
2.59808
2.59808
2.59808
2.59808
2.59808
2.59808
2.59808
2.59808
2.59808
2.59808
2.59808
2.59808
2.59808
2.59808
2.59808
2.59808
2.59808
2.59808
2.59808
2.59808
2.59808
2.59808
2.59808
2.59808
2.59808
2.59808
2.59808
2.59806
2.59806
2.59805
2.59801
2.59798
2.59792
2.59784
2.59772
2.59757
2.59736
2.59705
2.59668
2.59619
2.59554
2.59472
2.59371
2.59249
2.59103
2.5892
2.58729
2.58524
2.58391
2.58175
2.57552
2.58548
0.844666
0.494758
0.491597
0.498359
0.495911
0.480465
0.461017
0.442739
0.430628
0.424446
0.420671
0.416141
0.407921
0.399198
0.388121
0.37466
0.367015
0.367277
0.384926
2.59808
2.59808
2.59808
2.59808
2.59808
2.59808
2.59808
2.59808
2.59808
2.59808
2.59808
2.59808
2.59808
2.59808
2.59808
2.59808
2.59808
2.59808
2.59808
2.59808
2.59808
2.59808
2.59808
2.59808
2.59808
2.59808
2.59808
2.59808
2.59808
2.59808
2.59808
2.59808
2.59808
2.59808
2.59808
2.59808
2.59808
2.59808
2.59808
2.59808
2.59808
2.59808
2.59808
2.59808
2.59808
2.59808
2.59808
2.59808
2.59808
2.59808
2.59808
2.59808
2.59808
2.59808
2.59808
2.59808
2.59808
2.59808
2.59808
2.59808
2.59808
2.59808
2.59808
2.59808
2.59808
2.59808
2.59808
2.59808
2.59808
2.59808
2.59808
2.59808
2.59808
2.59808
2.59808
2.59806
2.59806
2.59802
2.59801
2.59798
2.59791
2.59783
2.5977
2.59754
2.59729
2.59697
2.59654
2.59598
2.59526
2.59435
2.5932
2.59177
2.59006
2.58804
2.58589
2.58319
2.58014
2.57661
2.56585
2.14251
0.684038
0.505977
0.514419
0.517883
0.512495
0.495623
0.47614
0.459638
0.447588
0.440971
0.435788
0.430965
0.422086
0.413115
0.400988
0.387365
0.378657
0.379826
0.397898
2.59808
2.59808
2.59808
2.59808
2.59808
2.59808
2.59808
2.59808
2.59808
2.59808
2.59808
2.59808
2.59808
2.59808
2.59808
2.59808
2.59808
2.59808
2.59808
2.59808
2.59808
2.59808
2.59808
2.59808
2.59808
2.59808
2.59808
2.59808
2.59808
2.59808
2.59808
2.59808
2.59808
2.59808
2.59808
2.59808
2.59808
2.59808
2.59808
2.59808
2.59808
2.59808
2.59808
2.59808
2.59808
2.59808
2.59808
2.59808
2.59808
2.59808
2.59808
2.59808
2.59808
2.59808
2.59808
2.59808
2.59808
2.59808
2.59808
2.59808
2.59808
2.59808
2.59808
2.59808
2.59808
2.59808
2.59808
2.59808
2.59808
2.59808
2.59808
2.59808
2.59808
2.59808
2.59808
2.59806
2.59805
2.59802
2.59801
2.59797
2.59791
2.5978
2.59769
2.5975
2.59725
2.5969
2.59642
2.59583
2.59503
2.594
2.59272
2.59109
2.58916
2.58692
2.58419
2.58118
2.57688
2.5753
2.57142
1.5181
0.598492
0.522654
0.536938
0.538126
0.529021
0.511286
0.491212
0.475957
0.464052
0.457911
0.451066
0.445415
0.435744
0.426583
0.413433
0.399831
0.390241
0.392229
0.4106
2.59808
2.59808
2.59808
2.59808
2.59808
2.59808
2.59808
2.59808
2.59808
2.59808
2.59808
2.59808
2.59808
2.59808
2.59808
2.59808
2.59808
2.59808
2.59808
2.59808
2.59808
2.59808
2.59808
2.59808
2.59808
2.59808
2.59808
2.59808
2.59808
2.59808
2.59808
2.59808
2.59808
2.59808
2.59808
2.59808
2.59808
2.59808
2.59808
2.59808
2.59808
2.59808
2.59808
2.59808
2.59808
2.59808
2.59808
2.59808
2.59808
2.59808
2.59808
2.59808
2.59808
2.59808
2.59808
2.59808
2.59808
2.59808
2.59808
2.59808
2.59808
2.59808
2.59808
2.59808
2.59808
2.59808
2.59808
2.59808
2.59808
2.59808
2.59808
2.59808
2.59808
2.59808
2.59806
2.59806
2.59805
2.59802
2.59801
2.59795
2.5979
2.5978
2.59768
2.59748
2.59721
2.59685
2.59635
2.59569
2.59483
2.59371
2.59229
2.59051
2.58838
2.58575
2.58247
2.57951
2.57649
2.57523
2.57879
1.09463
0.573064
0.546982
0.556696
0.5584
0.546941
0.527777
0.506495
0.492138
0.48012
0.474554
0.466576
0.45981
0.449142
0.43955
0.425484
0.412091
0.401869
0.404564
0.422909
2.59808
2.59808
2.59808
2.59808
2.59808
2.59808
2.59808
2.59808
2.59808
2.59808
2.59808
2.59808
2.59808
2.59808
2.59808
2.59808
2.59808
2.59808
2.59808
2.59808
2.59808
2.59808
2.59808
2.59808
2.59808
2.59808
2.59808
2.59808
2.59808
2.59808
2.59808
2.59808
2.59808
2.59808
2.59808
2.59808
2.59808
2.59808
2.59808
2.59808
2.59808
2.59808
2.59808
2.59808
2.59808
2.59808
2.59808
2.59808
2.59808
2.59808
2.59808
2.59808
2.59808
2.59808
2.59808
2.59808
2.59808
2.59808
2.59808
2.59808
2.59808
2.59808
2.59808
2.59808
2.59808
2.59808
2.59808
2.59808
2.59808
2.59808
2.59808
2.59808
2.59808
2.59808
2.59806
2.59806
2.59805
2.59802
2.59801
2.59797
2.5979
2.5978
2.59768
2.59747
2.59719
2.59682
2.5963
2.59559
2.59468
2.59345
2.59192
2.58998
2.58754
2.58454
2.58109
2.57785
2.57346
2.56524
2.51938
0.853585
0.572013
0.571098
0.57814
0.577694
0.564205
0.544611
0.522327
0.508196
0.49582
0.490256
0.481869
0.474522
0.46269
0.452146
0.437052
0.4237
0.413032
0.416465
0.434562
2.59808
2.59808
2.59808
2.59808
2.59808
2.59808
2.59808
2.59808
2.59808
2.59808
2.59808
2.59808
2.59808
2.59808
2.59808
2.59808
2.59808
2.59808
2.59808
2.59808
2.59808
2.59808
2.59808
2.59808
2.59808
2.59808
2.59808
2.59808
2.59808
2.59808
2.59808
2.59808
2.59808
2.59808
2.59808
2.59808
2.59808
2.59808
2.59808
2.59808
2.59808
2.59808
2.59808
2.59808
2.59808
2.59808
2.59808
2.59808
2.59808
2.59808
2.59808
2.59808
2.59808
2.59808
2.59808
2.59808
2.59808
2.59808
2.59808
2.59808
2.59808
2.59808
2.59808
2.59808
2.59808
2.59808
2.59808
2.59808
2.59808
2.59808
2.59808
2.59808
2.59808
2.59808
2.59808
2.59806
2.59806
2.59803
2.59801
2.59798
2.59791
2.59782
2.59768
2.59748
2.59719
2.59681
2.59627
2.59552
2.59456
2.59327
2.59161
2.58947
2.58677
2.58353
2.57975
2.5752
2.56931
2.5581
1.9965
0.724588
0.5841
0.59508
0.598575
0.596142
0.581588
0.561636
0.539525
0.524754
0.511485
0.505544
0.496543
0.488492
0.475712
0.464531
0.448544
0.435503
0.424216
0.428543
0.446615
2.59808
2.59808
2.59808
2.59808
2.59808
2.59808
2.59808
2.59808
2.59808
2.59808
2.59808
2.59808
2.59808
2.59808
2.59808
2.59808
2.59808
2.59808
2.59808
2.59808
2.59808
2.59808
2.59808
2.59808
2.59808
2.59808
2.59808
2.59808
2.59808
2.59808
2.59808
2.59808
2.59808
2.59808
2.59808
2.59808
2.59808
2.59808
2.59808
2.59808
2.59808
2.59808
2.59808
2.59808
2.59808
2.59808
2.59808
2.59808
2.59808
2.59808
2.59808
2.59808
2.59808
2.59808
2.59808
2.59808
2.59808
2.59808
2.59808
2.59808
2.59808
2.59808
2.59808
2.59808
2.59808
2.59808
2.59808
2.59808
2.59808
2.59808
2.59808
2.59808
2.59808
2.59808
2.59808
2.59806
2.59806
2.59805
2.59801
2.59798
2.59791
2.59783
2.59769
2.5975
2.59721
2.59682
2.59625
2.59552
2.59447
2.59311
2.59133
2.58903
2.58612
2.58257
2.57833
2.57287
2.57008
2.56608
1.46301
0.665299
0.6068
0.618492
0.620058
0.61404
0.598907
0.577774
0.556086
0.54155
0.527469
0.520729
0.51106
0.502543
0.488851
0.476368
0.459336
0.446286
0.434738
0.440111
0.457589
2.59808
2.59808
2.59808
2.59808
2.59808
2.59808
2.59808
2.59808
2.59808
2.59808
2.59808
2.59808
2.59808
2.59808
2.59808
2.59808
2.59808
2.59808
2.59808
2.59808
2.59808
2.59808
2.59808
2.59808
2.59808
2.59808
2.59808
2.59808
2.59808
2.59808
2.59808
2.59808
2.59808
2.59808
2.59808
2.59808
2.59808
2.59808
2.59808
2.59808
2.59808
2.59808
2.59808
2.59808
2.59808
2.59808
2.59808
2.59808
2.59808
2.59808
2.59808
2.59808
2.59808
2.59808
2.59808
2.59808
2.59808
2.59808
2.59808
2.59808
2.59808
2.59808
2.59808
2.59808
2.59808
2.59808
2.59808
2.59808
2.59808
2.59808
2.59808
2.59808
2.59808
2.59808
2.59808
2.59806
2.59806
2.59805
2.59802
2.59799
2.59792
2.59784
2.59772
2.59753
2.59725
2.59685
2.5963
2.5955
2.59446
2.59304
2.5911
2.58869
2.58553
2.58158
2.57716
2.57226
2.56907
2.56748
1.10425
0.651073
0.628557
0.638877
0.640461
0.632603
0.616692
0.593843
0.572629
0.558312
0.543516
0.535734
0.525099
0.51579
0.501433
0.488229
0.470594
0.45787
0.445789
0.452024
0.469442
2.59808
2.59808
2.59808
2.59808
2.59808
2.59808
2.59808
2.59808
2.59808
2.59808
2.59808
2.59808
2.59808
2.59808
2.59808
2.59808
2.59808
2.59808
2.59808
2.59808
2.59808
2.59808
2.59808
2.59808
2.59808
2.59808
2.59808
2.59808
2.59808
2.59808
2.59808
2.59808
2.59808
2.59808
2.59808
2.59808
2.59808
2.59808
2.59808
2.59808
2.59808
2.59808
2.59808
2.59808
2.59808
2.59808
2.59808
2.59808
2.59808
2.59808
2.59808
2.59808
2.59808
2.59808
2.59808
2.59808
2.59808
2.59808
2.59808
2.59808
2.59808
2.59808
2.59808
2.59808
2.59808
2.59808
2.59808
2.59808
2.59808
2.59808
2.59808
2.59808
2.59808
2.59808
2.59808
2.59806
2.59806
2.59805
2.59802
2.59799
2.59794
2.59786
2.59775
2.59757
2.59729
2.5969
2.59634
2.59554
2.59445
2.59296
2.591
2.58838
2.58504
2.58087
2.57644
2.57016
2.56127
2.48616
0.915988
0.657199
0.652179
0.660023
0.66023
0.650681
0.634049
0.609907
0.588847
0.574589
0.559728
0.551367
0.539857
0.52959
0.514177
0.499541
0.480656
0.467974
0.455823
0.462855
0.479935
2.59808
2.59808
2.59808
2.59808
2.59808
2.59808
2.59808
2.59808
2.59808
2.59808
2.59808
2.59808
2.59808
2.59808
2.59808
2.59808
2.59808
2.59808
2.59808
2.59808
2.59808
2.59808
2.59808
2.59808
2.59808
2.59808