/*--------------------------------*- C++ -*----------------------------------*\
| =========                 |                                                 |
| \\      /  F ield         | OpenFOAM: The Open Source CFD Toolbox           |
|  \\    /   O peration     | Version:  2.2.x                                 |
|   \\  /    A nd           | Web:      www.OpenFOAM.org                      |
|    \\/     M anipulation  |                                                 |
\*---------------------------------------------------------------------------*/
FoamFile
{
    version     2.0;
    format      ascii;
    class       surfaceScalarField;
    location    "2.25";
    object      cfmax;
}
// * * * * * * * * * * * * * * * * * * * * * * * * * * * * * * * * * * * * * //

dimensions      [0 3 -1 0 0 0 0];

internalField   nonuniform List<scalar> 
28084
(
0.0012101
0.00117287
0.00118015
0.00119986
0.00122122
0.00122175
0.00119128
0.0011514
0.00113345
0.00111801
0.00112642
0.00114072
0.00116574
0.00118448
0.00118997
0.00117997
0.00115898
0.00114583
0.00113452
0.00113723
0.00115733
0.00118658
0.00120734
0.00122235
0.00122933
0.00123383
0.00123705
0.00124361
0.00127718
0.00133485
0.00121636
0.00108128
0.00112721
0.00116268
0.0011678
0.00116437
0.00116715
0.00116399
0.0011585
0.00114594
0.0011221
0.00109901
0.00108189
0.00106771
0.00105003
0.00105148
0.0010462
0.00104289
0.00104994
0.00106143
0.00107426
0.00108131
0.00108845
0.00109642
0.00110522
0.00111436
0.00112341
0.00113199
0.00113969
0.00114524
0.00114636
0.0011427
0.00113812
0.00113423
0.00112969
0.00112835
0.00112827
0.00113141
0.00113513
0.0011394
0.00114527
0.00115172
0.00115917
0.00116628
0.00117055
0.00117186
0.00116884
0.00116134
0.00115365
0.00114066
0.0011258
0.00111153
0.00109882
0.0010882
0.00107971
0.00107262
0.00106745
0.00106242
0.00105708
0.00104965
0.00104127
0.0010304
0.00101527
0.000997357
0.000974569
0.000947025
0.000918446
0.000892255
0.000872829
0.000857392
0.000846294
0.000839323
0.000834323
0.000831647
0.000830104
0.000827316
0.000826355
0.000828699
0.000830601
0.000831283
0.000830588
0.000827038
0.000820485
0.000812626
0.000797624
0.000776196
0.000758705
0.000764572
0.00349334
0.00346568
0.0012154
0.00346095
0.00123872
0.00341037
0.00121057
0.00323126
0.00113297
0.00315564
0.00110498
0.00313558
0.00111306
0.00322998
0.0011393
0.00314605
0.00121856
0.00307882
0.00127066
0.00304474
0.00126101
0.00300199
0.00124502
0.00288381
0.00121023
0.00266808
0.00112334
0.00253176
0.00108643
0.00248887
0.0010937
0.0025008
0.00112051
0.00253063
0.00118581
0.00241878
0.00127906
0.00233241
0.00129816
0.0022741
0.00129471
0.0022187
0.00126766
0.00205835
0.00121821
0.00192713
0.00117233
0.00186668
0.00117926
0.0018139
0.00120401
0.00176823
0.00124161
0.00173335
0.00128363
0.00168063
0.00131297
0.00163192
0.00131829
0.00159758
0.00133644
0.00132432
0.00105557
0.0011571
0.000900231
0.0010555
0.000860783
0.000971877
0.000829665
0.000901483
0.0008091
0.00084283
0.000794287
0.000785211
0.000785417
0.000733578
0.000776761
0.000687832
0.000768657
0.000648069
0.000761726
0.000612286
0.00075657
0.000577766
0.000753062
0.000544057
0.000750894
0.000512444
0.000748661
0.000510997
0.000747741
0.000509979
0.000755674
0.000510191
0.000764755
0.000512348
0.000775876
0.000514815
0.000787843
0.0005173
0.000799884
0.000519571
0.000811509
0.000521535
0.000822665
0.000523185
0.00083352
0.00052496
0.000844365
0.000527058
0.000855433
0.00052938
0.000866675
0.000531809
0.000878043
0.000534284
0.000889293
0.00053689
0.000900517
0.000538813
0.000911518
0.000539373
0.000923093
0.000540902
0.000935439
0.000543659
0.000948652
0.000549572
0.000962279
0.000555902
0.000975858
0.000562503
0.000988893
0.000568982
0.00100109
0.000575478
0.0010124
0.000581849
0.00102234
0.000588549
0.00103042
0.000594962
0.00103588
0.000599988
0.00103863
0.000603656
0.00103824
0.000605931
0.00103359
0.000607969
0.00102528
0.000606711
0.00101432
0.000608978
0.00100334
0.000611534
0.000992457
0.000613289
0.000982407
0.000612553
0.000971493
0.000611249
0.000960842
0.00060898
0.000949257
0.000608613
0.000935766
0.000607639
0.000921962
0.000607722
0.000907676
0.000608002
0.000892857
0.000609082
0.000877446
0.000611181
0.000862395
0.00061347
0.000847558
0.000615697
0.000834263
0.000616846
0.000821897
0.000618238
0.000809402
0.000619831
0.000797033
0.000620369
0.000784328
0.000620837
0.000771204
0.000619848
0.000758697
0.000618088
0.000747191
0.000616003
0.0007377
0.000614309
0.000729915
0.000613014
0.000722628
0.000612753
0.000715832
0.000612778
0.000710379
0.000613328
0.000706388
0.000615382
0.000702826
0.00061889
0.000700359
0.000621927
0.000699783
0.000624004
0.000699978
0.000629288
0.000701519
0.000635169
0.000704368
0.000640274
0.000707909
0.00064437
0.000711909
0.000650311
0.000716194
0.000656204
0.000721322
0.000669179
0.000724902
0.000683883
0.000724197
0.000688249
0.000726001
0.000672045
0.000730252
0.000720644
0.00074047
0.00347593
0.00341292
0.0011829
0.0033267
0.00115445
0.00347367
0.00118047
0.00330812
0.00132559
0.00317296
0.00137723
0.00312721
0.00137345
0.00323565
0.00131368
0.00309886
0.00119347
0.00286098
0.0011042
0.00278119
0.00108978
0.00281567
0.0011043
0.00292392
0.00119623
0.00273119
0.00133867
0.00256052
0.00141824
0.00248491
0.00140661
0.00250656
0.00136993
0.00250772
0.00128539
0.00228495
0.00116266
0.00216038
0.00114789
0.00211903
0.00116837
0.00214662
0.00122485
0.00208067
0.00132784
0.00194683
0.00143209
0.00187576
0.00144585
0.00181141
0.00143513
0.0017765
0.00142229
0.00173238
0.0013927
0.00164122
0.00136495
0.00155678
0.00134676
0.00150921
0.00134121
0.0011005
0.000946865
0.000979223
0.000806149
0.000911092
0.000767483
0.000849233
0.000740243
0.000801891
0.000722474
0.000757272
0.00071188
0.000717792
0.000707255
0.000682071
0.000707021
0.000646495
0.000708347
0.000612204
0.000710114
0.000579431
0.000712642
0.000547897
0.000715972
0.000517884
0.000719868
0.000489757
0.0007242
0.000490235
0.000728319
0.000492501
0.000740238
0.000494572
0.000752695
0.000496715
0.000765228
0.00049873
0.00077732
0.000500592
0.000788776
0.000502467
0.000799795
0.000504424
0.000811334
0.000506497
0.000823364
0.000508752
0.000835688
0.000511242
0.000848372
0.000513944
0.000861262
0.000516795
0.000874273
0.000519851
0.000887383
0.000523061
0.000900583
0.000526574
0.000913981
0.000530745
0.00092745
0.000535377
0.000940794
0.000540112
0.000953869
0.000544829
0.000966185
0.000549108
0.000976681
0.000553096
0.000985083
0.000556733
0.000992102
0.000559467
0.000996511
0.000561627
0.000998721
0.000562857
0.000999147
0.000563331
0.000997241
0.000562159
0.000991711
0.000559051
0.00098248
0.000554069
0.000970678
0.000552762
0.000957707
0.000555654
0.000945186
0.000558771
0.000934081
0.000561721
0.000925027
0.000563455
0.000915096
0.000565292
0.000903939
0.00056627
0.0008915
0.000565908
0.000877291
0.00056654
0.000861127
0.000565284
0.000843966
0.000566064
0.000825714
0.000567961
0.000807093
0.000568696
0.000788599
0.000571313
0.000771005
0.000573141
0.000754328
0.000573921
0.000739352
0.000577275
0.00072571
0.000580759
0.000713115
0.000585448
0.000702133
0.000589908
0.00069271
0.000593476
0.000684684
0.000595213
0.000678071
0.000594463
0.000672002
0.000593868
0.0006667
0.000593893
0.000663081
0.000594954
0.000660115
0.000596522
0.000657546
0.000598442
0.000655438
0.000600592
0.000653218
0.000603753
0.000650615
0.000607648
0.000648299
0.000611907
0.000646673
0.000617414
0.000645817
0.000623978
0.000645891
0.000630077
0.00064688
0.000637307
0.000648863
0.000643696
0.00065164
0.000651597
0.000655819
0.000662017
0.000660445
0.000682083
0.000666508
0.00069766
0.000674933
0.000704028
0.000689049
0.000687558
0.000703739
0.000753025
0.000720274
0.0035931
0.00340123
0.00128995
0.00333484
0.00134198
0.00348964
0.00129473
0.00314093
0.00112092
0.00289929
0.00109138
0.00284449
0.00108973
0.00317863
0.00111045
0.00310388
0.00130441
0.00283832
0.00146115
0.00276598
0.00143825
0.00284519
0.00139182
0.00293737
0.00132953
0.00259967
0.00116777
0.00236351
0.0011016
0.00229256
0.00112926
0.00243512
0.00114667
0.00252066
0.00130112
0.0022713
0.00150736
0.00213229
0.00154388
0.00212652
0.00151904
0.00216929
0.0014657
0.0020831
0.00137075
0.00187041
0.00124546
0.00176722
0.00124133
0.00172939
0.00127829
0.00170478
0.00134042
0.00167098
0.00141792
0.00157508
0.00143239
0.00149062
0.00140857
0.001253
0.00139005
0.00102256
0.000896784
0.000976997
0.00081016
0.000915504
0.000781195
0.000846714
0.000761331
0.00079113
0.000748977
0.000744577
0.000741638
0.000704559
0.000738806
0.000668854
0.000739564
0.00063475
0.000741326
0.00060134
0.000744656
0.000569319
0.000749323
0.000539161
0.000754898
0.000510432
0.00076076
0.000483502
0.000766827
0.000491089
0.000772375
0.000494297
0.000784673
0.000496434
0.000797469
0.000498134
0.00081047
0.000499689
0.000823697
0.000501373
0.000836826
0.000503464
0.000849893
0.000505856
0.000863227
0.000508483
0.000877056
0.000511361
0.000891123
0.000514402
0.000905029
0.000517776
0.00091875
0.000521254
0.000932147
0.000525007
0.000945304
0.000528625
0.000958402
0.000532498
0.00097135
0.000536846
0.000982914
0.000541239
0.000993174
0.000544875
0.00100221
0.0005475
0.00100943
0.000548853
0.00101477
0.000549797
0.0010181
0.000549151
0.00101963
0.000548659
0.00101946
0.000547641
0.00101771
0.000546445
0.00101476
0.000544791
0.00101027
0.000544439
0.00100471
0.000548847
0.000998535
0.000554246
0.000992074
0.000558137
0.00098452
0.000558863
0.00097679
0.000562282
0.000967225
0.00056531
0.000955165
0.000567676
0.000941513
0.000568567
0.000926802
0.000569882
0.000910656
0.000568924
0.000893338
0.000569269
0.000873779
0.000566915
0.000853276
0.000567028
0.000831934
0.000568216
0.00081038
0.00056715
0.000789135
0.0005692
0.000769969
0.000569371
0.000751397
0.000572277
0.000736212
0.000576349
0.000722577
0.000580242
0.000710038
0.000585225
0.000698376
0.000589899
0.00068738
0.000593271
0.000677922
0.000595202
0.000670371
0.000594834
0.000664316
0.000594232
0.000660098
0.000595078
0.000656833
0.000597071
0.000653836
0.000599697
0.000650907
0.000602835
0.000648224
0.00060605
0.000645163
0.000609664
0.000641781
0.000613935
0.000638683
0.000619279
0.000636058
0.000624956
0.000633404
0.000632638
0.000632205
0.000639329
0.000632447
0.000647082
0.000634056
0.000654383
0.000636535
0.000662956
0.000640964
0.000673121
0.000646861
0.000691673
0.000654827
0.00070489
0.000665517
0.000713513
0.000681309
0.000697316
0.000698613
0.000766721
0.000715768
0.00348261
0.00328256
0.00111573
0.00324584
0.00112154
0.00351372
0.00120312
0.00316789
0.00142742
0.00293242
0.00150319
0.00283884
0.0014997
0.00315515
0.00141879
0.00305022
0.00125351
0.00272164
0.00108599
0.00264688
0.0010966
0.00271338
0.00111666
0.00290342
0.00125581
0.00260525
0.0014708
0.00236476
0.00160705
0.00228764
0.00159211
0.00243141
0.00154007
0.00251628
0.00142416
0.00222052
0.00122453
0.00205449
0.0011947
0.00200892
0.00122384
0.00204707
0.00127314
0.00205214
0.0014405
0.00187665
0.00162457
0.0017634
0.00166407
0.00172613
0.00163547
0.00171734
0.0016128
0.00169078
0.00156231
0.00159061
0.00150451
0.00148502
0.00148564
0.00126542
0.00149911
0.00106239
0.00107694
0.00100255
0.000905922
0.000931625
0.000856469
0.000855181
0.00083435
0.000795955
0.000825733
0.000748576
0.000822218
0.000708956
0.000821819
0.000671671
0.000820997
0.000635351
0.000821843
0.000602332
0.000823896
0.000571018
0.000826699
0.000540712
0.000829921
0.0005124
0.00083359
0.00048481
0.000837244
0.000497886
0.000841124
0.000501311
0.000851632
0.0005034
0.000862305
0.000505245
0.000873466
0.000506863
0.000885639
0.000508789
0.000899006
0.000511357
0.00091344
0.000513962
0.000927939
0.000516746
0.000942577
0.000519682
0.000957279
0.000522702
0.000971957
0.000525823
0.000986136
0.000528923
0.000999382
0.000532639
0.001012
0.000536149
0.00102423
0.000539079
0.00103598
0.000541769
0.00104723
0.000544692
0.00105815
0.00054697
0.00106836
0.000548406
0.00107776
0.000549174
0.00108627
0.000549195
0.00109419
0.000547947
0.00110101
0.000546982
0.00110619
0.000545634
0.0011092
0.000544018
0.00110974
0.000544348
0.0011069
0.00054764
0.00109983
0.000551667
0.00108872
0.000555306
0.00107461
0.000559125
0.00105865
0.000562889
0.00104278
0.000567403
0.00102591
0.000573289
0.00100968
0.000577911
0.000993466
0.000579578
0.000976273
0.000582594
0.000958051
0.000581673
0.00093865
0.000583435
0.000916951
0.000581003
0.000894258
0.000581351
0.000870013
0.000582436
0.000845936
0.000580068
0.000822096
0.000581847
0.000799845
0.000580228
0.000778166
0.000582288
0.000760232
0.000585477
0.00074453
0.000588562
0.000729864
0.000592395
0.000715733
0.000594801
0.000701661
0.000595629
0.000689425
0.000596019
0.000681056
0.000595107
0.000674673
0.000594583
0.000669561
0.000595644
0.000665574
0.000598133
0.000661902
0.000601313
0.000658066
0.000605363
0.000654568
0.000610048
0.000650815
0.000615101
0.000646805
0.000620775
0.000642675
0.000627872
0.000639042
0.00063444
0.000635222
0.000643341
0.000632298
0.000650562
0.000631393
0.000659106
0.00063248
0.000664703
0.000634605
0.00067201
0.000638732
0.000681493
0.000645584
0.000699176
0.000655232
0.000710106
0.000666642
0.000719703
0.000682773
0.000703708
0.000699807
0.000772881
0.000714508
0.00351193
0.00328084
0.0014193
0.00325012
0.00144001
0.00358549
0.00136072
0.00309614
0.00115314
0.00277253
0.00111799
0.00264426
0.00110547
0.00309068
0.00111468
0.0030606
0.001373
0.00269322
0.00161122
0.00260163
0.00159242
0.00275358
0.00152871
0.00299254
0.00145507
0.00261152
0.00126005
0.00231785
0.00117994
0.00220018
0.00120399
0.00231818
0.00122656
0.0025079
0.00137499
0.00221145
0.00167557
0.00201229
0.00175432
0.0020018
0.00173145
0.00210278
0.00166595
0.00213683
0.00156206
0.0018972
0.0013722
0.00175242
0.00133267
0.0016985
0.00137284
0.00165973
0.00144358
0.00163465
0.00153382
0.00159267
0.00161458
0.00152213
0.00163956
0.00147432
0.00165783
0.00116992
0.0012276
0.00104825
0.000981841
0.000948559
0.000905912
0.00085926
0.000878763
0.000795015
0.000868448
0.00075154
0.000862988
0.000710365
0.000861969
0.000672103
0.000863917
0.000636646
0.000867629
0.000604446
0.000872467
0.000574083
0.000878557
0.000544926
0.000885068
0.000516945
0.000892163
0.000488889
0.000899193
0.000504794
0.000905088
0.000508477
0.000918231
0.000510228
0.00093199
0.000512325
0.00094631
0.00051469
0.000961707
0.000516934
0.000978953
0.00051961
0.000997063
0.000522524
0.0010151
0.000525633
0.00103305
0.000529125
0.00105063
0.00053249
0.00106764
0.00053588
0.00108397
0.000538943
0.00109899
0.000542293
0.00111303
0.000545397
0.00112568
0.000547894
0.00113719
0.000550575
0.00114771
0.000553016
0.00115717
0.000554563
0.00116512
0.000555578
0.00117243
0.000555791
0.00117864
0.000555697
0.00118465
0.000554858
0.00119026
0.000553864
0.00119478
0.000551898
0.00119798
0.000550885
0.0011991
0.000555731
0.00119833
0.000560132
0.00119454
0.000564278
0.00118775
0.000568455
0.00117824
0.000571924
0.00116527
0.000576457
0.00114961
0.000579787
0.00113086
0.000585035
0.00111012
0.000591271
0.00108689
0.000594693
0.00106296
0.000600274
0.00103956
0.00060035
0.00101421
0.000604195
0.000987448
0.000602452
0.000960078
0.000602853
0.000931694
0.000603624
0.000904411
0.000598924
0.000878043
0.000599067
0.0008514
0.000594997
0.000825556
0.000596437
0.0008029
0.000598599
0.000782991
0.000600815
0.000764133
0.000603945
0.000745887
0.000603481
0.000728095
0.000600714
0.000711695
0.000598882
0.000699406
0.000596478
0.000690299
0.000594905
0.000683669
0.000595469
0.000678745
0.000597895
0.000673773
0.000601445
0.0006688
0.000606875
0.000664471
0.000613222
0.000660571
0.000620231
0.000656436
0.000627805
0.000651275
0.000637573
0.000647122
0.000644757
0.000642803
0.000653482
0.000639337
0.000659486
0.00063747
0.000667643
0.000637056
0.000671745
0.000638195
0.000678372
0.000642821
0.000687613
0.000649348
0.000704682
0.000658616
0.000714147
0.000670437
0.000724143
0.000685465
0.000708673
0.000700604
0.000776455
0.000712869
0.0034383
0.00318937
0.00108099
0.00318
0.00111165
0.00352178
0.00122202
0.00306749
0.00149006
0.00278759
0.00160192
0.00265195
0.00160388
0.00307746
0.00152288
0.0030968
0.00135665
0.00269172
0.00113119
0.0025758
0.00115062
0.00266018
0.00118021
0.00288663
0.00129963
0.0025418
0.00154451
0.00226541
0.0017583
0.00216169
0.00175722
0.00233302
0.00170729
0.00255115
0.00159838
0.00221298
0.00134015
0.00198857
0.00127804
0.00193599
0.00131255
0.00198955
0.00134251
0.00203947
0.00151213
0.00185159
0.00176074
0.0016941
0.00186031
0.00167793
0.00185722
0.00166661
0.00182394
0.0016685
0.00179298
0.0016351
0.00173651
0.00154597
0.00173239
0.0015956
0.00176134
0.0013041
0.00145908
0.00110268
0.00113811
0.000961529
0.00101688
0.000861458
0.000968763
0.000789371
0.000951097
0.000751309
0.000948448
0.000712807
0.000951526
0.000675604
0.000956505
0.000640857
0.000964115
0.000608797
0.000972354
0.000578307
0.000981423
0.000549881
0.00099154
0.000522236
0.00100232
0.000493988
0.00101238
0.000513394
0.00102177
0.000517531
0.00103855
0.000521433
0.00105854
0.000525951
0.00107841
0.000531157
0.00109888
0.000536497
0.0011199
0.000541587
0.00114165
0.000546991
0.00116376
0.000552235
0.00118518
0.000557664
0.00120668
0.000562474
0.0012283
0.000567108
0.00124889
0.000570948
0.00126887
0.00057485
0.00128649
0.00057795
0.00130163
0.000579925
0.00131374
0.000582188
0.0013235
0.0005838
0.00133021
0.000584372
0.00133424
0.000584782
0.00133576
0.000584242
0.00133464
0.000584042
0.00133269
0.000582263
0.00132919
0.00058029
0.00132655
0.000577131
0.00132301
0.000574961
0.00132064
0.000581916
0.00131658
0.000589539
0.00131287
0.000596707
0.00130679
0.000604249
0.00129708
0.000610196
0.00128645
0.000616238
0.00127157
0.000620212
0.00125571
0.000623482
0.00123562
0.00062704
0.00121267
0.000627594
0.00118448
0.000632639
0.00115491
0.000631167
0.00112194
0.000634958
0.00108696
0.000632724
0.00105103
0.00063159
0.00101481
0.000632279
0.000981029
0.000626416
0.000948668
0.000625247
0.000916235
0.000618477
0.000884882
0.000617951
0.00085499
0.000618144
0.000829412
0.000618632
0.000805396
0.000620122
0.000782628
0.000615943
0.000761564
0.00060962
0.000740401
0.000604285
0.000723387
0.000599205
0.000710361
0.000595464
0.000700577
0.000595393
0.000693269
0.000597618
0.000686793
0.00060142
0.000681356
0.000607713
0.000676702
0.000616691
0.000672964
0.000626511
0.000668975
0.000635752
0.000663902
0.000647205
0.000659286
0.000654036
0.000654866
0.000662148
0.000651331
0.000666764
0.000648473
0.000674431
0.00064665
0.000677229
0.000647225
0.000683921
0.000650829
0.000692784
0.000655522
0.000708692
0.000663601
0.000717242
0.000674222
0.000727556
0.000688231
0.000713052
0.000701465
0.000778661
0.000711974
0.00342877
0.00316633
0.00153897
0.00317506
0.00153618
0.00364131
0.00143423
0.00313068
0.00122316
0.00274095
0.00115202
0.00257351
0.0011335
0.00299729
0.00114332
0.00308595
0.00144459
0.00264524
0.00175951
0.00249949
0.00174923
0.00266596
0.00167787
0.00301902
0.00157898
0.00268155
0.00140266
0.0023522
0.00128081
0.00216803
0.00127897
0.00221111
0.0013262
0.00250463
0.00143503
0.00218618
0.001817
0.00193415
0.0020012
0.00189361
0.00199296
0.00201795
0.00191875
0.00220598
0.00178836
0.00200574
0.00162474
0.00182928
0.00153035
0.00171811
0.00154105
0.00167116
0.00160218
0.00166382
0.0016961
0.00162213
0.00181435
0.00155771
0.00188669
0.00166083
0.00192056
0.00148616
0.00170327
0.00122039
0.00132118
0.00101154
0.00116865
0.000880299
0.00110054
0.000808245
0.00107848
0.000776811
0.00107974
0.000741102
0.00108782
0.000704795
0.00109551
0.000670066
0.00110337
0.00063775
0.00111164
0.000607083
0.00112119
0.000578213
0.00113234
0.000549125
0.00114518
0.000520006
0.00115791
0.00054595
0.00117005
0.000553016
0.00119097
0.000560148
0.00121714
0.000566578
0.00124161
0.000573405
0.00126591
0.000579515
0.00129043
0.000584765
0.00131476
0.000589525
0.00133891
0.000594432
0.0013629
0.000599812
0.00138725
0.000604472
0.00141119
0.000609307
0.0014341
0.000612904
0.00145458
0.000616927
0.00147411
0.000618786
0.00149124
0.000620175
0.00150518
0.000620633
0.00151679
0.000620325
0.00152412
0.000618691
0.00152833
0.000615054
0.00152988
0.000611238
0.00152891
0.000607024
0.00152638
0.000603427
0.0015236
0.000600498
0.00151707
0.000597742
0.00151064
0.000602346
0.00150291
0.000609262
0.00149405
0.000619197
0.00148083
0.000627265
0.00147037
0.000636043
0.00145593
0.000644845
0.0014391
0.000651765
0.00142073
0.000660895
0.00139868
0.000666897
0.0013774
0.000675902
0.00135457
0.000676655
0.0013295
0.000682055
0.00129932
0.000678418
0.00126497
0.000681806
0.00122655
0.000677551
0.00118417
0.000672483
0.00113545
0.000671266
0.00108889
0.000662477
0.00104495
0.000660336
0.00100299
0.000651055
0.000963439
0.000647646
0.000925979
0.000644518
0.000892995
0.00064204
0.000861886
0.000640547
0.000833548
0.000632901
0.00080589
0.000622736
0.000778419
0.000613587
0.000753732
0.000605114
0.000733315
0.000598602
0.000719403
0.000597404
0.000709921
0.000598545
0.000702323
0.000602195
0.000696011
0.000609177
0.000690838
0.00062036
0.000686792
0.000633389
0.000683346
0.000644601
0.000678877
0.000657217
0.000674816
0.0006634
0.000671362
0.000671133
0.000668087
0.00067431
0.000665118
0.000681232
0.000662156
0.00068331
0.000660505
0.000690501
0.000661684
0.00069782
0.000662804
0.000712613
0.00066955
0.000719931
0.000678909
0.000730882
0.000691353
0.000718646
0.000703107
0.000780007
0.000712918
0.00343875
0.00317996
0.00109554
0.00314644
0.00114192
0.00346914
0.00123451
0.00305507
0.00152899
0.00271425
0.001711
0.00253867
0.00171299
0.00302633
0.00163727
0.00318141
0.0014834
0.00273354
0.00120653
0.00254324
0.00121231
0.00264248
0.00125565
0.00286173
0.00135566
0.00252995
0.00161064
0.00224151
0.00192942
0.00208488
0.00196542
0.00225546
0.0019183
0.0026147
0.0018029
0.00226155
0.00150454
0.0019834
0.00137336
0.00189586
0.0013908
0.00201015
0.00144771
0.00210323
0.00162035
0.00191185
0.00189702
0.00174063
0.00210075
0.00169974
0.00216564
0.0016944
0.00212862
0.0016951
0.0021007
0.00169673
0.00207412
0.00162312
0.00205949
0.0017072
0.00207037
0.00161006
0.0020719
0.00134751
0.00153039
0.00108794
0.00135517
0.000925918
0.00127503
0.000836371
0.00126706
0.000809159
0.00127348
0.000773003
0.00127811
0.000736152
0.00128292
0.000701149
0.00128778
0.000668824
0.00129513
0.000638345
0.00130477
0.000609878
0.00131842
0.000580606
0.00133389
0.00055032
0.0013493
0.000585676
0.00136511
0.000594997
0.00138638
0.000603019
0.00141294
0.00061074
0.00143829
0.000618733
0.00146394
0.000627071
0.00149024
0.000635265
0.00151689
0.000643174
0.00154304
0.000651549
0.00156865
0.000660539
0.00159288
0.000668091
0.00161566
0.000674278
0.00163693
0.000678608
0.00165667
0.000683103
0.00167514
0.000685096
0.00169107
0.000686741
0.00170543
0.000688443
0.00171833
0.000687052
0.00172485
0.000685613
0.00173086
0.000682612
0.00173914
0.000679772
0.00174213
0.000676149
0.00174902
0.000672826
0.00174795
0.000668413
0.00174438
0.000670602
0.00173873
0.000678277
0.00172908
0.000688074
0.00171378
0.000692973
0.00169736
0.000704211
0.0016752
0.000708648
0.00165229
0.000719205
0.00162429
0.000722092
0.00159585
0.00072962
0.00156392
0.000730506
0.00153297
0.000736709
0.00150487
0.000735511
0.00147335
0.000741124
0.00144031
0.00073666
0.00140642
0.000742839
0.0013636
0.000741311
0.00132304
0.000732107
0.00127557
0.000727311
0.00122554
0.000713092
0.00117091
0.000707833
0.00111753
0.000694234
0.00106349
0.000687403
0.00101443
0.00067957
0.000968761
0.000673057
0.000926174
0.000668259
0.000888634
0.000657221
0.000852576
0.000642968
0.000817282
0.000628831
0.000784252
0.000614399
0.000757104
0.000603292
0.000739297
0.00059992
0.000727301
0.000600157
0.000717796
0.000603617
0.000710002
0.000610776
0.000703904
0.000623567
0.000699153
0.000639993
0.000696681
0.00065276
0.000694804
0.000665935
0.000693081
0.000672451
0.000690936
0.00068016
0.000687201
0.000683246
0.000683029
0.000690023
0.000676924
0.000691367
0.00067264
0.000699389
0.000670954
0.000703525
0.000670008
0.000716591
0.000675971
0.000722798
0.000683124
0.000734214
0.000694204
0.000725092
0.000704884
0.00078065
0.000714665
0.0033815
0.00309596
0.00164356
0.00311329
0.00162844
0.00357633
0.00152544
0.00322138
0.00133989
0.00278684
0.00120417
0.00259075
0.00116805
0.00293459
0.00120703
0.0031152
0.00151944
0.00264738
0.00194159
0.00242663
0.00194726
0.00261879
0.00188355
0.00296497
0.00176202
0.00282575
0.0016013
0.00246857
0.00141864
0.00221512
0.00136946
0.00229546
0.00144741
0.00251847
0.00157436
0.00218177
0.002038
0.0018915
0.00234527
0.00179204
0.00239577
0.00198668
0.00232399
0.00216536
0.00219551
0.0022646
0.00202304
0.00206644
0.00190773
0.0019499
0.00192398
0.00187215
0.0019731
0.00183616
0.00203548
0.00179467
0.0021479
0.00166035
0.00226466
0.00172357
0.00230537
0.00177359
0.0022774
0.00147046
0.00172058
0.00120146
0.00152191
0.00100857
0.00145314
0.00093665
0.00146425
0.000904141
0.00148313
0.000865716
0.00149966
0.000824623
0.00151295
0.000784079
0.00152099
0.000746285
0.00152913
0.000712334
0.00153768
0.000680277
0.00154664
0.000647164
0.00155808
0.000613443
0.00156917
0.000656464
0.00158227
0.000665615
0.00159971
0.000675443
0.00162344
0.000684799
0.00164721
0.000693788
0.00167118
0.00070202
0.00169493
0.000710588
0.00171833
0.000717815
0.00174065
0.000723992
0.00176173
0.000729385
0.00178082
0.000733111
0.00179889
0.000736406
0.00181557
0.000738853
0.00183111
0.00074055
0.00184387
0.000739938
0.00185242
0.000740856
0.00186146
0.000738611
0.00186998
0.000736238
0.00187454
0.000734296
0.00188342
0.000729994
0.0018843
0.000727815
0.00188365
0.000722262
0.00188571
0.000717652
0.00188038
0.000711096
0.00188211
0.00072032
0.0018749
0.000729218
0.0018736
0.000743201
0.00186281
0.000750499
0.00185483
0.000764682
0.00183722
0.000770969
0.0018222
0.000784294
0.00179643
0.000789643
0.00177115
0.000801835
0.00174053
0.000805873
0.00170997
0.000816098
0.00167989
0.000813263
0.00164664
0.000819376
0.00160984
0.000809571
0.0015687
0.000809502
0.00151219
0.000808658
0.00146399
0.000798857
0.00140735
0.000794743
0.00135152
0.000777593
0.00129084
0.00077063
0.00123061
0.000748517
0.00116668
0.000737266
0.00110249
0.000723871
0.0010427
0.000712355
0.000989403
0.000704444
0.00094372
0.000688735
0.000900793
0.000670314
0.000859068
0.000649272
0.00081829
0.00062608
0.000783067
0.000609475
0.000759526
0.000603945
0.000743172
0.000603426
0.000732631
0.000605541
0.000725419
0.000612366
0.000719605
0.000625338
0.000715297
0.000643577
0.00071327
0.000658593
0.000712588
0.000673581
0.000711815
0.000682154
0.000710234
0.000690784
0.000706174
0.000695787
0.000701402
0.000702006
0.000693098
0.000701494
0.000687376
0.000709411
0.000683662
0.000709649
0.000680322
0.00072017
0.000683973
0.000725079
0.000688094
0.000737126
0.000697631
0.00073233
0.000707892
0.000781023
0.000715154
0.00348021
0.00322706
0.00113959
0.00317279
0.00118654
0.00339395
0.00127396
0.00314268
0.00157467
0.00270307
0.00186098
0.00251405
0.00184967
0.00304447
0.00176981
0.00333079
0.00161636
0.00284057
0.00130485
0.00261822
0.00129097
0.00272888
0.00135764
0.00292761
0.00147363
0.00266595
0.00174116
0.00228629
0.00217577
0.0020815
0.00233272
0.0022882
0.00227651
0.00272649
0.0020968
0.00243331
0.0017783
0.00207255
0.00149896
0.00197251
0.00147311
0.00215254
0.00160529
0.00231296
0.00183972
0.00221337
0.00222859
0.00199811
0.00249148
0.00190465
0.00256153
0.00185446
0.00250192
0.00183621
0.00244115
0.00184467
0.00243147
0.00178017
0.00244822
0.00170897
0.0024763
0.00185968
0.00259964
0.00152176
0.00196475
0.0012499
0.00172865
0.00104737
0.00168007
0.00101746
0.00170025
0.000986285
0.00173669
0.000950744
0.00175137
0.000910636
0.00176894
0.000869068
0.00178076
0.00082819
0.00179115
0.000788831
0.00180008
0.000750538
0.00180807
0.000713106
0.00181365
0.000674321
0.00181952
0.000725846
0.00183085
0.000734828
0.00183761
0.000742273
0.00184749
0.000748471
0.00185995
0.000754589
0.00187327
0.000760075
0.00188665
0.000764894
0.00189884
0.000768738
0.0019108
0.000771497
0.00192301
0.000773147
0.001934
0.000774427
0.00194478
0.000775281
0.00195435
0.000775904
0.00196211
0.000774329
0.00197195
0.000772901
0.00197852
0.000771403
0.00198791
0.000768309
0.00198784
0.000765301
0.00199569
0.000760654
0.00199415
0.000753724
0.00199867
0.000749609
0.00199184
0.0007413
0.00199549
0.000736776
0.00198747
0.00072748
0.00199033
0.000743259
0.00198216
0.000754053
0.00198252
0.000771519
0.00197089
0.000781603
0.00196666
0.000800447
0.00195056
0.000809928
0.00194251
0.00082945
0.00192222
0.000838856
0.00190731
0.000858583
0.00188243
0.000866828
0.00185887
0.000883524
0.00183445
0.000886649
0.00180996
0.000897593
0.00177618
0.000889853
0.00173768
0.000890169
0.00167505
0.000889706
0.0016202
0.000875309
0.0015538
0.000870492
0.0014895
0.000848338
0.00142202
0.0008401
0.00135217
0.000812983
0.00127729
0.000796663
0.00120142
0.00077319
0.00112741
0.000754972
0.0010596
0.000743587
0.00100503
0.000723229
0.000952522
0.000701458
0.000900263
0.000673868
0.000849205
0.000640323
0.000805003
0.000617842
0.000774244
0.000609769
0.000755745
0.000606341
0.000745313
0.000607205
0.000737681
0.000613836
0.00073136
0.000626966
0.00072697
0.000645641
0.000724763
0.000662952
0.000724526
0.000680456
0.000724532
0.000692145
0.00072334
0.000702483
0.000720132
0.00071053
0.000716142
0.000715988
0.000709612
0.000713263
0.000704004
0.000720357
0.000698604
0.000716802
0.000691857
0.000725941
0.000693023
0.000729434
0.000694636
0.000741868
0.000702707
0.000740487
0.000711803
0.000783415
0.000717258
0.00335813
0.00305091
0.00175492
0.00310541
0.00173897
0.00352929
0.00165498
0.00342834
0.00152817
0.00291103
0.00125737
0.00275925
0.0012379
0.00314958
0.00131208
0.00317391
0.00165971
0.00268517
0.00220962
0.00243519
0.00225571
0.00265287
0.00219953
0.00299319
0.00206735
0.00313946
0.00189721
0.0027834
0.00170524
0.00248247
0.00163898
0.00260668
0.00167757
0.00275397
0.00189833
0.00225832
0.0023609
0.00193943
0.00290976
0.00176665
0.0029424
0.002048
0.00286245
0.00232391
0.00270325
0.00248152
0.00252457
0.00241818
0.00242059
0.00227134
0.00241217
0.002167
0.0024589
0.00206277
0.00251592
0.00195011
0.00262523
0.00183301
0.00276016