/*--------------------------------*- C++ -*----------------------------------*\
| =========                 |                                                 |
| \\      /  F ield         | OpenFOAM: The Open Source CFD Toolbox           |
|  \\    /   O peration     | Version:  2.2.x                                 |
|   \\  /    A nd           | Web:      www.OpenFOAM.org                      |
|    \\/     M anipulation  |                                                 |
\*---------------------------------------------------------------------------*/
FoamFile
{
    version     2.0;
    format      ascii;
    class       volScalarField;
    location    "1.8";
    object      pB;
}
// * * * * * * * * * * * * * * * * * * * * * * * * * * * * * * * * * * * * * //

dimensions      [1 1 -3 0 0 -1 0];

internalField   nonuniform List<scalar> 
14161
(
-0.0131877
0.00313879
-0.000948216
6.92763e-05
-0.000315902
-0.000226358
-0.000301044
-0.000290935
-0.000307161
-0.00031487
-0.000309988
-0.000316185
-0.000308634
-0.000303501
-0.000289542
-0.000280758
-0.00025887
-0.000239162
-0.000210955
-0.000180597
-0.000150263
-0.000103283
-7.92122e-05
-1.20669e-05
3.45999e-05
0.00011201
0.000178764
0.000269088
0.000376972
0.000448153
0.000608494
0.000648856
0.000826232
0.000900087
0.00114033
0.00128745
0.00150016
0.00157283
0.00169894
0.00150834
0.0015552
0.000656142
0.000553817
-0.0026924
-0.0022326
-0.00760394
0.0742229
0.131369
-0.0350408
-0.0153881
-0.0169347
0.000735307
-0.00600203
0.00201015
-0.00204211
0.00154909
-0.000301767
0.00256181
-0.00155632
0.00214901
-0.000235117
0.000763202
0.000636072
0.000761754
-6.08146e-05
-0.00099298
-0.000637326
-0.000578714
2.95612e-05
3.31931e-06
0.00115903
0.000763342
0.000654873
-0.000150081
-0.00041714
-0.000570667
-0.000199632
0.000289525
0.00274682
0.00140203
0.00123454
-0.001971
-0.00132164
0.000999852
-0.000845797
-0.00133998
-0.00203138
-0.00122009
0.000516096
0.000860434
0.00306183
0.00606895
0.00257933
0.00736515
-0.00827515
-0.00305998
-0.0107413
0.00443207
-0.000815617
0.00759904
-0.00154851
0.00768232
-0.00789749
0.00732239
-0.00761887
0.0061313
-0.004995
0.00559477
-0.00471097
0.0051113
-0.00489281
0.00493382
-0.005355
0.0057533
-0.00625598
0.00695985
-0.00756292
0.00755812
-0.00861969
-0.0131993
0.00314789
-0.000949672
6.97154e-05
-0.000316335
-0.000226814
-0.000300568
-0.000290491
-0.000307466
-0.000314823
-0.00031085
-0.000316326
-0.000308147
-0.000304348
-0.000290892
-0.000280139
-0.000259981
-0.000239228
-0.000211911
-0.00018112
-0.000150443
-0.000104828
-8.05401e-05
-1.35713e-05
3.18231e-05
0.000111313
0.000167119
0.000278425
0.000328111
0.00048067
0.000517575
0.000650468
0.000675797
0.000806169
0.000870072
0.00102614
0.00111174
0.00111093
0.00111549
0.000815599
0.000757858
-0.000292741
-0.000911351
-0.00476929
-0.00170958
-0.0368142
0.0666694
0.0452164
-0.0178146
0.022002
-0.00251221
0.0126626
-0.000999302
0.00645344
-8.26925e-06
0.0030444
0.00149134
0.0028144
-0.00235315
0.000853944
-0.00277858
-0.00123767
0.000112233
0.00203832
0.00221895
0.00314612
0.00315609
0.00156035
-0.00193664
-0.00439932
-0.00222957
-0.00054379
0.00226652
0.00267038
0.00385841
-5.07064e-05
-0.00300646
-0.00302171
-0.00113886
0.00746006
0.0117347
0.0071024
-0.00242601
-0.0118027
-0.01803
-0.00674424
0.0180493
0.0273478
0.0246791
0.0185655
0.0114717
-0.00447293
-0.00954215
-0.0139336
-0.0133954
-0.000230583
0.00143702
0.0112741
0.00245626
0.0050674
-0.0126092
-0.00283834
-0.0120831
0.00562259
-0.00276888
0.0085238
-0.00224604
0.00532969
-0.00433414
0.00564704
-0.00333413
0.00633176
-0.00453387
0.00533382
-0.00595383
0.00571103
-0.00645389
0.00686544
-0.00682624
-0.0131908
0.00314198
-0.000950065
6.85601e-05
-0.000316777
-0.000226881
-0.000302389
-0.000288645
-0.000310603
-0.000312286
-0.000311635
-0.000314864
-0.000309135
-0.000304568
-0.00028911
-0.000280864
-0.000260315
-0.000239751
-0.000211384
-0.000181137
-0.000150107
-0.000104694
-7.85044e-05
-1.19844e-05
3.34065e-05
0.000114415
0.000178381
0.000287711
0.000351697
0.000499314
0.000567444
0.000770498
0.000861045
0.00113974
0.00129548
0.00165984
0.00192364
0.00215276
0.00238227
0.0027143
0.00343901
0.00319614
0.00602265
0.00203831
0.0137542
-0.00865625
0.0660109
0.0547838
-0.0037497
0.0100346
-0.0120387
0.0104968
-0.00852484
0.00445576
-0.00648019
-0.000359198
-0.00345026
5.24382e-05
-0.00168356
-3.66622e-05
-0.00103887
1.11954e-05
-0.000208776
-0.0024842
-0.00410721
-0.00575017
-0.00269645
0.00115323
0.00350739
0.00452487
0.00390291
0.000689193
-0.00546421
-0.00682396
-0.0039238
-0.00101498
0.00457437
0.00746283
0.000551372
-0.011554
-0.014509
-0.00658853
0.0113069
0.036663
0.0443298
0.0114725
-0.0347277
-0.0674663
-0.0595342
-0.0487467
-0.022091
0.0251684
0.0230514
0.0396872
0.0297434
-0.00146243
-0.018042
-0.0104346
-0.019571
0.0113562
0.00580699
0.0260066
0.00601751
0.00506344
-0.0100282
-0.00234229
-0.00583752
0.00503323
-0.00493078
0.00621065
-0.00820742
0.00431621
-0.00542579
0.00641434
-0.00751555
0.00722603
-0.00691122
0.00618316
-0.0066941
-0.0131874
0.00313469
-0.000948767
6.77458e-05
-0.00031762
-0.000227744
-0.000301882
-0.000289016
-0.000310894
-0.000313762
-0.000312563
-0.000316258
-0.000309524
-0.000305504
-0.000292537
-0.000281274
-0.000259898
-0.000242429
-0.000215277
-0.000185371
-0.000154243
-0.000109618
-8.34729e-05
-2.21539e-05
2.46286e-05
9.34886e-05
0.000161106
0.000238652
0.000330926
0.00041121
0.000494953
0.000546056
0.000594249
0.000610713
0.000639364
0.000661654
0.000679044
0.000700979
0.000805893
0.000959519
0.00117762
0.00126213
0.00191174
0.00228232
0.00519313
0.00404644
-0.00699428
0.0721276
-0.011508
0.0266788
-0.00940909
0.0147248
-0.00182983
0.00751914
0.000382692
0.00328111
0.00173271
0.00456269
-0.000797451
0.00155241
-0.00234951
-0.00234124
-0.00324396
-0.000711557
0.00206609
0.00345549
0.0027806
-0.00029909
-0.00217522
-0.00355641
-0.00110871
0.00073571
0.00578422
0.00695512
0.00833729
-0.000827785
-0.00920287
-0.013517
-0.0103104
0.0105739
0.025441
0.0140279
-0.00486646
-0.0297653
-0.0422454
-0.0139724
0.0644794
0.0732518
0.0726695
0.0453664
-0.0104465
-0.045362
-0.0594012
-0.0260646
-0.018835
0.0258447
0.0169223
0.0284086
0.0056522
-0.0100028
-0.0208691
-0.00941547
-0.00905096
0.0125177
0.00660641
0.0119963
-0.00205806
0.00147294
-0.00736447
0.00481403
-0.00224148
0.00554508
-0.00475899
0.00582026
-0.00485968
0.00518961
-0.00604168
0.00683664
-0.00629539
-0.0131673
0.00311899
-0.000948065
6.54453e-05
-0.000318301
-0.000228813
-0.000301885
-0.000291761
-0.000309692
-0.000312489
-0.000313573
-0.000314813
-0.000310444
-0.000306678
-0.00029079
-0.000282071
-0.000263864
-0.000244211
-0.000217593
-0.000186482
-0.000153402
-0.000110086
-8.17151e-05
-1.86887e-05
3.06458e-05
0.000106257
0.000182102
0.000269273
0.000367779
0.000475523
0.000599613
0.000771187
0.000984784
0.00126214
0.0015743
0.00190204
0.00224978
0.00268261
0.00314744
0.00392063
0.00490884
0.00565388
0.00799739
0.0081981
0.0157492
0.00585341
0.024344
0.0528424
-0.00855274
0.0223711
-0.0119184
0.0104034
-0.00572352
0.00404203
-0.0031492
-0.000402
-0.00434905
0.00140126
-0.00376338
0.00157011
-0.000504325
0.00103175
0.00211635
0.000316787
-0.001174
-0.00292929
-0.00332454
-0.00129496
0.000783375
0.00186985
0.00241269
-0.00125892
-0.00653334
-0.00801835
-0.00585711
0.000266618
0.0139994
0.020449
0.0131536
-0.0152394
-0.0242303
-0.0279859
-0.0131789
0.0367787
0.0544636
0.029575
-0.0186739
-0.0339674
-0.0620877
-0.0105884
-0.00828284
0.0511081
0.0342857
0.0404784
0.023573
-0.0130924
-0.0289749
-0.0217675
-0.00534877
0.0172689
0.0106451
0.0171239
-0.00329488
-0.00978301
-0.013493
-0.0025456
-0.00276066
0.00862541
-0.00203704
0.00486283
-0.0111675
0.00606474
-0.00339762
0.00408902
-0.00742123
0.00581498
-0.00508482
0.00494549
-0.0048142
-0.0131582
0.00310569
-0.000946352
6.3989e-05
-0.000318979
-0.000229085
-0.000302748
-0.000291414
-0.00031163
-0.000313216
-0.000316088
-0.000316426
-0.000311114
-0.00030695
-0.000293689
-0.000283768
-0.000264917
-0.000245545
-0.000220445
-0.000190222
-0.000159313
-0.000120293
-8.84042e-05
-3.55421e-05
1.13288e-05
7.44612e-05
0.000139209
0.000206499
0.000283044
0.000358568
0.000412058
0.000457041
0.000441681
0.000403367
0.000336822
0.000314505
0.000315686
0.000362128
0.000558342
0.000892506
0.00123636
0.00190936
0.00256077
0.0037245
0.00642728
0.00189088
0.00850395
0.0587286
-0.000983357
0.0198592
-0.00528673
0.00904877
0.000751015
0.00493439
0.00123387
0.00196072
-0.000707905
0.00440895
-0.00328748
0.00431855
-0.0019963
0.000141409
-0.000905478
0.000119521
0.0012668
0.00244807
0.00374835
0.0014477
-0.000792473
-0.00533497
-0.00228262
-0.00131545
0.00609045
0.00651004
0.0095611
0.000394492
-0.0114752
-0.019348
-0.0107099
0.0137141
0.0334653
0.0341177
0.0146416
-0.0275254
-0.0582957
-0.0402735
-0.00750231
0.0448913
0.00616886
0.0615367
0.00311317
-0.00162166
-0.049849
-0.0331891
-0.0239577
0.00674674
0.00799192
0.0293508
0.00652478
-0.00590322
-0.0187599
-0.0113759
-0.00608771
0.0154553
0.00306382
0.0100544
-0.00844621
0.0012664
-0.0098146
0.006214
-0.000787972
0.00672689
-0.00767383
0.00665479
-0.00465179
0.00556834
-0.00632218
0.00627399
-0.00487657
-0.0131302
0.00308352
-0.000946032
6.02515e-05
-0.000320942
-0.000229832
-0.00030465
-0.000290983
-0.000312419
-0.000311148
-0.000318801
-0.000315897
-0.000312703
-0.000309837
-0.000295861
-0.000285658
-0.000268753
-0.000248812
-0.0002254
-0.000191449
-0.000161517
-0.000120802
-8.76587e-05
-3.51021e-05
2.01112e-05
9.41502e-05
0.000162737
0.000262464
0.000345419
0.00045865
0.000579914
0.000771641
0.00100946
0.00137073
0.00165842
0.00201412
0.00235517
0.00286457
0.00333171
0.00413092
0.00473707
0.00489553
0.00769814
0.00331828
0.0166042
-0.00399075
0.0419837
0.0372474
0.00833519
0.00610137
-0.00383588
0.00386243
0.0012675
0.00278672
0.000870956
0.00104294
-0.00207186
0.00354658
-0.00475998
0.00322521
-0.00251679
-0.000203998
0.00040367
-0.00182502
-0.00326328
-0.00382226
-0.00442385
-0.0024049
0.000374093
0.00272467
0.00368118
0.00299768
-0.00348969
-0.00685823
-0.00894076
-0.00431713
0.00766045
0.0155849
0.0147205
-0.00373921
-0.0204278
-0.0203471
-0.00725587
0.0141063
0.0463048
0.0310517
0.0120589
-0.0135486
-0.0292301
-0.0175535
-0.00285576
0.00271277
0.0247291
0.0338636
0.0257855
0.00231458
-0.0192726
-0.0118765
-0.0170799
0.00803441
0.00823805
0.0171687
0.00136813
-0.00675279
-0.0129569
-0.00168085
-0.00474727
0.0102359
-0.00088276
0.00707561
-0.0108464
0.00386761
-0.00239008
0.00501236
-0.00783084
0.00615942
-0.00469708
0.00556383
-0.00463606
-0.0131174
0.00306748
-0.000944892
5.86858e-05
-0.000321649
-0.000231835
-0.000304175
-0.000292798
-0.000312441
-0.000313067
-0.000320495
-0.000316235
-0.000315775
-0.000308859
-0.000302242
-0.000287324
-0.000272733
-0.000253509
-0.000231577
-0.000200524
-0.000171536
-0.000133615
-9.8064e-05
-5.98482e-05
-5.29634e-06
4.76976e-05
9.53427e-05
0.000172817
0.000219481
0.000280298
0.000317099
0.000319051
0.000270115
0.000159219
3.91462e-05
-4.93273e-05
-0.000165677
-0.000174589
-0.00021203
-0.000240647
-0.000301945
-0.00107106
0.000754898
-0.00401125
0.00935608
-0.0253348
0.0909701
0.0141926
0.0344988
-0.00473517
0.00085735
0.00013733
0.000248636
-0.00482638
-0.00160036
-0.0037973
-0.00401548
0.00264262
-0.00511944
0.00639352
-0.00320005
0.00416645
-0.00206841
0.00121909
0.000865859
0.00196577
0.00352179
0.00356469
0.00209074
-0.00253888
-0.00272735
-0.00414618
-0.000258456
0.00305653
0.00809892
0.00563644
0.00143255
-0.00980999
-0.0100603
-0.00141633
0.0118074
0.0135594
0.0186664
-0.00913588
-0.00115231
-0.012274
-0.00339733
-0.00428502
0.0169465
0.00329026
0.0160257
-0.0200425
0.0077735
-0.0337205
-0.00385478
0.00206356
0.00437666
0.0274886
0.0052856
0.00599829
-0.00856911
-0.00320928
-0.00679189
0.00867192
0.00122389
0.0119505
-0.00534534
0.000920171
-0.00722143
0.00031858
-0.000480536
0.00708562
-0.00829323
0.00498846
-0.00241029
0.00501201
-0.00560014
0.00506717
-0.00536974
-0.0130864
0.00304427
-0.000945068
5.41424e-05
-0.000324321
-0.000232418
-0.000306068
-0.000293936
-0.000316686
-0.000308645
-0.000324026
-0.000318867
-0.000316934
-0.000310242
-0.000303583
-0.000288679
-0.000278006
-0.000256489
-0.000235185
-0.000204661
-0.000174478
-0.000136648
-9.75292e-05
-5.76281e-05
3.87546e-07
6.79094e-05
0.000140319
0.00022319
0.00030365
0.000420216
0.000531743
0.000735279
0.000961864
0.00130151
0.00158606
0.00193081
0.00223147
0.0026054
0.00295277
0.00279109
0.003356
0.00206731
0.00438262
-0.00464751
0.0144439
-0.0431872
0.146564
0.0107091
0.0151122
0.00125926
0.00332539
0.00736861
0.00839216
0.00238558
0.00511379
0.0012323
0.00086843
0.000250893
-0.00604152
0.00312433
-0.00591786
-0.00215813
-0.00274519
-0.00283038
-0.00210785
-0.00544578
-0.00114048
-0.00550077
-0.00336162
-0.000405511
0.00023094
0.00217556
0.000308536
-0.00135844
-0.00507594
-0.00479857
-0.00254493
0.00562987
0.00597733
0.0100653
-0.00273868
-0.00415308
0.0008069
-0.000702453
0.00374741
-0.00148264
0.0102639
0.0032863
0.0111504
-0.011452
-0.00629903
-0.0087715
0.00513939
0.00603791
-0.00449184
0.0229024
-0.016287
-0.00622563
-0.0180925
-0.00131602
-0.00632772
0.00930353
-0.00332095
0.0042982
-0.00699569
0.001377
-0.00539315
0.0100152
-0.00148643
0.00644199
-0.00880093
0.00236257
-0.00315782
0.00605315
-0.00731779
0.00511609
-0.00549539
0.00440623
-0.00588042
-0.0130712
0.00302674
-0.00094472
5.27385e-05
-0.000325234
-0.000234179
-0.00030632
-0.000296605
-0.000315452
-0.000312141
-0.00032508
-0.000319773
-0.000318848
-0.000313385
-0.000309725
-0.000294178
-0.000281679
-0.000263359
-0.000240941
-0.000216643
-0.000186535
-0.000154412
-0.000118894
-8.25387e-05
-3.72397e-05
1.15988e-05
6.03211e-05
0.000107739
0.000151225
0.000190246
0.000203645
0.000174318
8.7527e-05
-5.27094e-05
-0.000233137
-0.000473299
-0.000685756
-0.00103869
-0.00135652
-0.00220403
-0.0034268
-0.00383542
-0.0066395
-0.00272451
-0.0131376
0.00576478
-0.0368802
0.148149
0.00500519
-0.0331833
-0.0240383
-0.00976247
-0.00359698
0.0011956
0.00496263
0.000764535
0.00313019
0.00164651
-0.000236828
0.00272174
0.000642994
0.0020706
-0.00129561
0.0008558
0.00112064
8.33567e-05
0.000213726
0.00159106
0.00157422
0.000248583
1.40802e-05
-0.00145084
-0.000824848
-0.000776392
0.00135532
0.000876558
0.00245693
-0.00185235
-0.00111211
-0.00919973
-0.000445955
0.0046253
0.00095948
0.00460855
-0.00424176
0.00401809
0.00155983
-0.00529501
-0.00995783
-0.00467728
0.00147785
0.01321
-0.00976678
0.00972151
-0.0222816
0.0140482
-0.0178571
0.0150071
0.000920675
0.00849056
-0.000996182
0.00114412
-0.00439376
0.00206381
-0.00225107
0.00255555
-0.00222902
-0.00280474
-0.00642428
0.00239796
-0.00252103
0.00955742
-0.00786253
0.00455197
-0.00274089
0.00686747
-0.00610454
0.00500003
-0.00603264
-0.0130406
0.00300546
-0.000945526
4.69907e-05
-0.00032877
-0.000234648
-0.000306953
-0.000296637
-0.000316396
-0.0003125
-0.00032517
-0.000323764
-0.00032156
-0.000315959
-0.000312785
-0.000297667
-0.000287586
-0.000268979
-0.000250175
-0.000223036
-0.0001911
-0.000159186
-0.000122103
-8.03829e-05
-3.36833e-05
2.69427e-05
9.19446e-05
0.000163425
0.000242534
0.000339712
0.000452181
0.00063908
0.000856204
0.00116781
0.00137796
0.00169314
0.00197825
0.0024079
0.0028957
0.00284412
0.00299156
0.00230311
0.0025616
0.00116254
0.00243265
0.00340629
0.0115112
0.172848
0.00325713
-0.00279301
-0.0165193
-0.0065205
-0.0124858
-0.00845328
-0.0171423
-0.00104297
-0.0129919
-0.00244638
-0.00783516
-0.00189391
-0.00570187
-0.00133748
-0.00528008
-0.0024516
-0.00293104
-0.00257077
-0.00196688
-0.00327088
-0.00154186
-0.00278222
-0.0012424
-0.000855633
-0.000678626
-0.000884569
-0.00128463
-0.0015206
-0.00343453
-0.000275055
-0.00231381
0.00425855
0.00267034
-0.000948665
0.0117324
-0.0037264
0.00183569
-0.00158588
0.00382754
0.000732277
0.00205123
0.00904966
-0.00111209
-0.000713741
-0.0289824
0.0151365
-0.0117347
0.0102351
0.000280767
0.00257162
-0.00198157
-0.00212689
-0.00316039
0.00633254
-0.0031434
0.00163743
-0.00238935
0.0014048
-0.00308254
0.00438289
-0.00265835
0.00579239
-0.00434702
-0.000393344
-0.00661161
0.00731766
-0.00688801
0.00515029
-0.00415198
0.00639201
-0.00510355
-0.0130242
0.00298789
-0.000945497
4.59774e-05
-0.000329715
-0.000237109
-0.000309828
-0.000296993
-0.000318719
-0.000316682
-0.000327455
-0.000326879
-0.000325107
-0.000318099
-0.000318454
-0.000303054
-0.000293908
-0.000279019
-0.000259206
-0.000238
-0.000209817
-0.000181962
-0.00014906
-0.000113206
-7.76695e-05
-3.47068e-05
2.65344e-06
4.37214e-05
6.88098e-05
8.90257e-05
8.29782e-05
3.13424e-05
-5.01472e-05
-0.000217948
-0.000390439
-0.000782928
-0.00112821
-0.00161888
-0.00209394
-0.0029276
-0.00343584
-0.00364713
-0.00576873
-0.00255122
-0.0127089
0.00803733
-0.0550803
0.21996
0.00676475
-0.0125676
-0.0190894
-0.00456907
-0.0102334
-0.00224811
-0.00629001
0.00529261
-0.00311159
0.00239532
-0.00180323
0.00275567
-0.00427164
0.0038144
-0.00521393
0.000835604
0.000426635
-0.000513515
0.000913361
-0.000854804
-3.0637e-05
6.17194e-05
0.000404246
9.86786e-05
0.000409941
-0.000705625
4.10592e-05
-0.000418106
0.00108016
-0.00200989
9.82086e-05
-0.00574515
-0.00177757
0.00218653
0.0111818
-0.00532161
0.0012268
0.0119387
-0.00951179
-0.00907089
-0.00533772
0.000905406
-0.00527223
0.00435294
-0.0087816
0.0134112
0.00353436
-0.00536077
0.00354403
-0.0036003
0.000597008
0.00267001
-0.000643756
0.00220186
-0.00341336
0.00173783
-0.00368733
0.00345537
-0.00304881
0.00337572
-0.00684486
0.00622137
-0.00690243
0.00875023
6.79069e-05
-0.00176729
-0.00716739
0.00753365
-0.00573715
0.00544551
-0.00392688
-0.0129962
0.00296911
-0.000946678
4.00206e-05
-0.00033322
-0.000237781
-0.0003106
-0.000300148
-0.000318828
-0.000318622
-0.000327849
-0.000328468
-0.000329153
-0.000319704
-0.000323213
-0.000310053
-0.000298438
-0.00028455
-0.000268081
-0.000246365
-0.000218751
-0.000188581
-0.00015552
-0.000118452
-7.46602e-05
-2.2292e-05
3.01251e-05
9.20571e-05
0.000148767
0.00023795
0.00033666
0.00048936
0.000711238
0.000929837
0.00120988
0.00145264
0.00178605
0.00223866
0.00281271
0.00329522
0.00387882
0.00466769
0.00478569
0.00617228
0.00472353
0.0129474
0.000237319
0.132187
-0.000617863
0.0334825
-0.00539441
0.00374998
-0.00815048
-0.00424013
-0.00876915
-0.00660301
-0.00288015
-0.00664724
-0.00248431
-0.00813394
-0.000372254
-0.00887115
-0.0040583
-0.00374717
-0.00197952
-0.00197265
-0.00260496
-0.00154271
-0.00199306
-0.00235881
-0.00296635
-0.00248126
-0.00117
0.00049365
2.84874e-05
-0.000272736
-0.00217295
-0.0030742
-0.00104452
-0.00290797
0.000649776
0.0103276
-0.0135124
0.00321369
0.00454863
-0.009427
-0.010554
-0.00183545
0.0102254
-0.000236165
-0.00469794
-0.0134358
0.00346675
-0.0121811
0.00837656
-0.0141217
0.0109117
-0.00750099
0.00713643
-0.00668567
-0.00291222
0.00230957
-0.00334022
0.00242426
-0.00574505
0.00469479
-0.0046364
0.00546499
-0.00742756
0.00516694
-0.0055206
0.00861588
-0.0129031
0.00681313
-0.00159465
0.00357575
-0.0072975
0.0060482
-0.00749585
-0.0129797
0.00295313
-0.00094673
3.89036e-05
-0.000334446
-0.000240973
-0.000312482
-0.00029957
-0.000322333
-0.000320452
-0.000331769
-0.000330963
-0.000336019
-0.000323894
-0.000328486
-0.00031839
-0.000308186
-0.000297487
-0.000282084
-0.00026428
-0.000241335
-0.000214762
-0.000187201
-0.000158424
-0.000124186
-9.30959e-05
-6.13463e-05
-4.06082e-05
-1.58886e-05
-6.15549e-06
-2.72243e-05
-7.36564e-05
-0.000173266
-0.00030228
-0.000438296
-0.000722103
-0.00101324
-0.00164439
-0.00204362
-0.00252318
-0.00284637
-0.00356152
-0.00307701
-0.00505589
0.000242167
-0.0130213
0.0662282
0.0594616
-0.00544722
0.0330761
0.00197719
0.0197156
-0.0118463
0.00600822
-0.00127987
0.00708564
-0.00419066
0.00580611
-0.00414684
0.00390746
-0.00623082
0.00305842
-0.00275259
-0.000285876
-0.000201425
-0.00160722
1.89823e-06
-0.000788692
0.000350159
-0.000179709
0.000439002
-0.000102779
-0.000313369
-0.00118277
-0.00150826
-0.00228635
-0.00203351
-0.00203153
-0.00541443
0.000133805
0.00277503
-0.00343267
0.00896181
0.00928554
-0.0131798
-0.0146756
0.00213569
0.00644534
0.00553175
-0.0120491
-0.000900079
0.00232687
0.0164222
-0.00965458
0.00777689
-0.00743972
0.00614806
-0.00151337
-0.00325833
-0.00162565
-0.00175838
-0.00115136
-0.00255629
0.00168481
-0.00597221
0.00504578
-0.0032319
0.000900489
-0.000354474
-0.00196679
-0.00292608
0.00248564
-0.00653397
0.018298
-0.00838855
0.00469896
-0.00672517
0.0066559
-0.00741558
-0.0129567
0.00293701
-0.000947726
3.30535e-05
-0.0003381
-0.000241259
-0.000314604
-0.000301876
-0.000322065
-0.000323472
-0.000333123
-0.000333816
-0.000338985
-0.000328374
-0.000334916
-0.000328772
-0.00031556
-0.000304275
-0.000291984
-0.000275365
-0.000254216
-0.000227195
-0.0001997
-0.000168667
-0.000132466
-8.95638e-05
-4.86853e-05
5.43185e-06
5.30678e-05
0.000121092
0.000196484
0.000323357
0.000482648
0.000671368
0.000931566
0.0011729
0.00160835
0.00206468
0.00247852
0.00332498
0.00451798
0.00498848
0.00698665
0.00406913
0.0154255
-0.00105278
0.0939808
-0.0024303
-0.00905733
0.00820581
0.0113976
0.0305815
-0.0143147
0.0111666
-0.0182117
0.00131267
-0.0104398
0.000167726
-0.00723257
0.00199733
-0.00601719
0.000889702
-0.00307755
-0.00318712
0.00131422
-0.00263382
-0.00115184
-0.00143583
-0.000977785
-0.00101655
-0.000723448
-0.00125302
-0.00183445
-0.00229768
-0.00279162
-0.0026975
-0.00324073
-0.00489962
-0.00286218
0.00390442
0.00608005
0.0257856
-0.0119322
-0.00749224
-0.00353136
0.00583944
0.0164245
-0.0116894
-0.0152628
-0.00205097
0.00581233
0.00708709
-0.00912561
-0.0149465
-0.00437554
-0.00424824
-0.00744766
-0.00134859
-0.00259799
-0.000238125
0.00302738
0.0021179
8.42243e-05
0.00236826
-0.00251804
0.0023413
0.0013928
-0.000695958
0.000718518
-0.0043404
0.00740808
-0.00302373
0.000216005
-0.000491607
-0.0135549
0.0101831
-0.00384329
0.00407003
-0.00521213
-0.0129416
0.00292387
-0.000948563
3.23454e-05
-0.000339492
-0.000243872
-0.000316499
-0.0003023
-0.000324878
-0.000329065
-0.00033437
-0.000337426
-0.00034596
-0.000336016
-0.000336001
-0.000338664
-0.000325515
-0.000317115
-0.000310006
-0.000297106
-0.00027972
-0.000257488
-0.000237089
-0.00021277
-0.000188871
-0.000159377
-0.000138862
-0.000119306
-0.000109076
-0.000106124
-0.000118667
-0.000168883
-0.000246709
-0.000393888
-0.000523327
-0.000721643
-0.000901026
-0.00121346
-0.00157952
-0.00191683
-0.00227936
-0.00334492
-0.00304775
-0.00458882
-0.00334755
0.0121875
0.0652653
0.0132511
-0.000336535
0.00840641
0.0246245
0.0146139
0.0236102
0.0120031
-0.000918843
0.00914513
0.00101757
0.00242136
-0.000364562
0.000178913
-0.00219931
-0.000268336
-0.00122741
-0.00132554
-0.000584414
-0.00181276
0.000535032
-0.00124559
-0.000632292
-0.000610884
0.000322771
-0.000388748
-0.00018316
-0.00049339
0.000163751
1.88504e-05
-0.000741214
-0.00190108
0.00155154
0.00834487
0.0124562
-0.0205283
-0.0036668
0.00280685
0.00350602
-0.000956449
-0.0195868
-0.0130333
-0.00355522
0.00806482
0.00344526
-0.00807211
-0.00274578
0.0111129
-0.000926598
0.0116176
-0.00230851
0.00308796
0.00156221
0.00157454
-0.000821297
0.000949127
-0.00448323
0.000618149
-0.00199363
-0.00107545
0.00163639
-0.00309765
-0.000370398
0.00195057
-0.00069703
-0.00230959
-0.000555607
-0.00176194
0.000340067
0.00825029
-0.0066095
0.00761428
-0.00408181
-0.0129223
0.00291072
-0.000948946
2.7113e-05
-0.000342503
-0.00024465
-0.000318038
-0.00030601
-0.000324852
-0.000333241
-0.000336983
-0.000339271
-0.000349478
-0.000347668
-0.000340291
-0.000347769
-0.000341713
-0.000326938
-0.000321024
-0.000310941
-0.000296614
-0.000274836
-0.000255205
-0.000230334
-0.000205219
-0.000172148
-0.000135237
-9.99543e-05
-6.25353e-05
-1.88165e-05
5.05984e-05
0.00012476
0.000250652
0.000362699
0.000624393
0.000804062
0.00121036
0.00144736
0.00176848
0.0025409
0.00210527
0.00438012
0.000629989
0.00985654
-0.0109312
0.0663627
0.0398172
0.00130923
-0.00376923
-0.00968079
-0.00481636
0.00284164
0.0118382
0.0133591
0.0127893
-0.0113015
0.00499714
-0.00698367
0.00290315
-0.00583037
-0.000397108
-0.00222498
0.000275169
-0.0020182
-0.0022287
0.000243347
-0.00152283
-0.000879797
5.98312e-05
0.00011638
-0.000462675
-0.000951286
-0.000625029
0.000436248
0.000532752
-0.00428449
-0.00657404
-0.00511337
0.00253553
0.0147825
-0.0105638
0.00474632
0.00801213
0.00575864
-0.0174019
-0.00787049
0.00809455
0.00552675
0.00221227
-0.00261047
-0.0154452
-0.00366982
-0.00155662
0.00418725
-0.0136461
-2.01283e-06
-0.00397513
-0.000766032
-0.00013877
-0.00691616
-0.00224281
-0.00166326
-0.00320551
0.00235655
-0.00154293
0.00140503
-0.00310071
0.00212207
-0.00748681
0.0126654
-0.0114633
0.0077411
-0.00511562
0.00782976
-0.000707166
-0.00120003
-0.00663476
0.00620769
-0.0100912
-0.0129105
0.00290104
-0.000950106
2.64307e-05
-0.000344256
-0.000247099
-0.000320736
-0.000306334
-0.000328802
-0.000334243
-0.000342213
-0.000343337
-0.000356156
-0.000355894
-0.000347342
-0.000355822
-0.000358131
-0.000341253
-0.000339756
-0.000335643
-0.000324268
-0.000308536
-0.000293326
-0.000279948
-0.000265796
-0.000240577
-0.000224025
-0.000212752
-0.000207388
-0.000199464
-0.000209641
-0.000243277
-0.000319421
-0.000443996
-0.000558115
-0.000711068
-0.000941799
-0.00122017
-0.00154553
-0.00140685
-0.00238644
-0.00109466
-0.00487083
0.00445533
-0.0204831
0.0988545
0.00502063
0.000165442
-0.00459601
0.0043034
0.00151297
0.00501983
-0.00570463
0.0299803
0.01067
0.0383633
-0.0186662
0.0223642
-0.0175016
0.0108839
-0.00899991
0.00413533
-0.00368841
0.00349664
-0.00191679
-0.000899985
0.00114447
0.000186977
0.00175721
0.000210366
0.00041082
-0.00106344
0.000827874
0.000307168
0.000310947
-0.00734704
-0.000853066
0.00771674
0.0164372
-0.00951446
0.000253808
0.00286159
-0.0098077
-0.0227502
-0.0131857
0.00752836
0.013824
0.00687031
-0.00581102
0.00141491
0.00544301
0.00678911
0.00478158
0.00336808
0.00233143
0.00350851
0.00206625
0.00128583
0.00115305
-0.00287579
0.00328864
0.00191923
-0.00095982
0.00290611
-0.0017162
0.00193864
-0.00275196
0.00277708
-0.00486739
0.0064549
-0.00773693
0.00910734
-0.0110066
0.00650531
-0.0101073
0.00582797
-0.00519096
0.00594079
-0.00591826
-0.0128942
0.00289088
-0.000949857
2.24651e-05
-0.000346918
-0.000247921
-0.000322154
-0.000307738
-0.00033126
-0.000336278
-0.00034977
-0.000346549
-0.000359198
-0.000365257
-0.000359427
-0.000363611
-0.000368229
-0.000361885
-0.000350916
-0.000351868
-0.000347633
-0.000330102
-0.000318585
-0.000305516
-0.000287618
-0.000270221
-0.000240903
-0.000219347
-0.000198864
-0.000170289
-0.000122332
-7.45005e-05
6.39634e-06
5.77919e-05
0.000209553
0.000331906
0.000642288
0.000838545
0.00141748
0.00158929
0.00195093
0.00226158
0.0021621
0.0099448
-0.00246677
0.0847484
0.00253173
-0.00314537
-0.0104221
-0.0041025
0.00070504
-0.00593184
-0.0104535
0.00877349
0.00636004
0.0189519
0.00791814
0.0213638
-0.0170697
0.00994292
-0.00850275
-0.00271104
-0.00338069
0.00196704
-0.00233351
-0.000609523
0.00194214
0.000277971
0.00231616
-0.0019362
-0.000658333
-0.00528492
0.00348164
0.00237224
1.11133e-05
-0.00512477
0.0159253
0.000624657
0.0123612
-0.0182159
0.000821121
-0.00445701
-0.00232802
0.00330879
0.00103112
0.00345096
-0.00617997
-0.000857056
-0.00446115
-0.00151008
0.00330706
-0.00110377
-0.000752512
-0.0103057
0.00119795
-0.00300915
0.0026476
0.000853316
0.000891709
0.000494229
0.00265056
0.00313197
-0.000209721
-0.000141614
-0.00178201
0.00251779
-0.00310247
0.00181913
0.000280711
-0.00123411
0.00606235
-0.00769965
-0.00225811
0.00554314
-0.00357288
0.0062745
-0.00444211
0.00509351
-0.00671209
-0.0128894
0.002885
-0.000950658
2.1943e-05
-0.000348697
-0.000249741
-0.000324869
-0.000311154
-0.000333844
-0.000340907
-0.000351262
-0.000352582
-0.000365493
-0.000375789
-0.000370465
-0.000374481
-0.000381305
-0.000384817
-0.000371101
-0.000376711
-0.000380423
-0.000367354
-0.000358792
-0.000354194
-0.000346271
-0.000341292
-0.000326009
-0.000312943
-0.000317827
-0.000315043
-0.000314341
-0.000312957
-0.000336191
-0.000370397
-0.000510022
-0.000620234
-0.000790621
-0.00112059
-0.00151479
-0.00209284
-0.00229659
-0.00429442
-0.00212984
-0.0145243
0.0360357
0.0494182
0.0147754
0.00619083
0.00575038
0.00289723
-0.00640051
-0.00765587
0.0020716
0.0145719
-0.00310438
0.0119142
0.0166165
0.0194255
-0.000485193
0.0122689
-0.00670401
-0.00115583
-0.000663379
-0.00486701
0.00630459
-0.00435608
0.00734297
0.00070502
0.00337628
-0.000528913
0.0044381
-0.00427715
0.0180494
0.00123571
0.00396386
-0.00239093
0.01521
-0.00601223
0.00472202
-0.00122684
0.00992784
-0.000674751
0.00215163
0.00744693
0.00923204
0.00114156
-0.00748295
0.00104483
0.00332812
0.00145289
0.00155465
0.00215698
0.00522989
0.00159582
-0.00044272
0.00120911
-0.000430728
0.00164471
-0.000126537
0.000319377
0.00140095
0.000944205
-0.00200544
0.00144422
-0.000768237
-0.000242319
-0.00100888
8.25282e-05
0.000367382
-0.00226171
0.00368797
-0.00762606
0.00889971
-0.00323554
-0.00173025
0.00290263
-0.00617044
0.00607524
-0.00810442
-0.0128756
0.00287742
-0.000949996
1.93132e-05
-0.000350732
-0.000251801
-0.000325335
-0.000314236
-0.000336051
-0.000343745
-0.000357483
-0.000360769
-0.000371316
-0.00038244
-0.000383854
-0.000384068
-0.000393937
-0.000400196
-0.00039702
-0.000394443
-0.000401085
-0.00039884
-0.000391275
-0.0003835
-0.000382281
-0.00037443
-0.000361902
-0.000338387
-0.000328063
-0.000340003
-0.000340876
-0.000322229
-0.000330269
-0.00031294
-0.000254923
-0.000177938
-0.000152167
-0.000121638
0.000102986
-0.000157919
0.00138823
-0.0021148
0.0100167
-0.0207109
0.0911194
0.0390833
-0.0109679
0.00285945
-0.00400123
-0.00113322
-0.00930114
-0.00922767
-0.0039463
0.00104857
-0.000800342
-0.0189417
0.0198886
0.00705496
0.0176948
-0.00641463
0.00968236
-0.00513644
-0.00312558
0.00318952
0.00114442
-0.00179826
0.0118243
0.00175672
0.0102438
0.00252907
0.0111526
-0.00289339
0.00897181
-0.000407533
0.00433336
0.00189113
0.00625853
-0.000966532
0.00680392
-0.00225265
0.000655654
0.00112634
-0.00279889
-0.00164373
0.00426455
0.00442127
0.00219408
0.0025777
0.00353078
0.00202924
-0.0030375
-0.002282
-0.00460701
0.00280992
0.000440627
0.000927485
0.000502521
0.00229205
0.00113029
-0.000826627
-0.000185937
0.00147807
-0.0018247
0.00264873
0.000196997
0.000415161
-0.000362095
0.000808911
-0.00184142