/*--------------------------------*- C++ -*----------------------------------*\
| =========                 |                                                 |
| \\      /  F ield         | OpenFOAM: The Open Source CFD Toolbox           |
|  \\    /   O peration     | Version:  2.2.x                                 |
|   \\  /    A nd           | Web:      www.OpenFOAM.org                      |
|    \\/     M anipulation  |                                                 |
\*---------------------------------------------------------------------------*/
FoamFile
{
    version     2.0;
    format      ascii;
    class       volScalarField;
    location    "2.25";
    object      p;
}
// * * * * * * * * * * * * * * * * * * * * * * * * * * * * * * * * * * * * * //

dimensions      [1 -1 -2 0 0 0 0];

internalField   nonuniform List<scalar> 
14161
(
0.2
0.2
0.2
0.2
0.2
0.2
0.2
0.2
0.2
0.2
0.2
0.2
0.2
0.2
0.2
0.2
0.2
0.2
0.2
0.2
0.2
0.2
0.2
0.2
0.2
0.2
0.2
0.2
0.2
0.2
0.2
0.2
0.2
0.2
0.2
0.2
0.2
0.2
0.200001
0.200016
0.200262
0.204198
0.271185
2.22156
6.49604
8.56857
9.05689
9.18931
9.23366
9.25607
9.27769
9.30772
9.34596
9.38281
9.41472
9.44151
9.45981
9.47653
9.50562
9.54564
9.58302
9.6129
9.63585
9.64832
9.66518
9.69814
9.73903
9.77412
9.80088
9.81639
9.82562
9.84993
9.88859
9.92714
9.95687
9.97665
9.98308
10.0022
10.0376
10.0765
10.1073
10.1282
10.135
10.1533
10.1875
10.2245
10.254
10.2723
10.2805
10.3031
10.3375
10.3707
10.3961
10.4085
10.4224
10.451
10.4839
10.5113
10.5286
10.5406
10.564
10.5934
10.6196
10.6378
10.6502
10.6711
10.6962
10.7184
10.7336
10.7464
10.7645
10.7836
10.7986
10.8086
10.8187
10.8313
10.8414
10.8441
10.8517
0.2
0.2
0.2
0.2
0.2
0.2
0.2
0.2
0.2
0.2
0.2
0.2
0.2
0.2
0.2
0.2
0.2
0.2
0.2
0.2
0.2
0.2
0.2
0.2
0.2
0.2
0.2
0.2
0.2
0.2
0.2
0.2
0.2
0.2
0.2
0.2
0.2
0.2
0.200001
0.200016
0.200262
0.204198
0.271401
2.21725
6.48728
8.56593
9.05853
9.193
9.23738
9.2593
9.28065
9.31105
9.3493
9.38593
9.41755
9.44397
9.46146
9.47815
9.50823
9.54878
9.58617
9.61585
9.63841
9.64995
9.66701
9.70054
9.74181
9.77699
9.80359
9.81837
9.82746
9.85197
9.89088
9.92955
9.9593
9.97867
9.98489
10.0041
10.0397
10.0785
10.1092
10.1298
10.1367
10.1552
10.1893
10.2261
10.2554
10.2735
10.2819
10.3045
10.3387
10.3716
10.3969
10.4097
10.424
10.4522
10.4845
10.5114
10.5286
10.541
10.5647
10.594
10.6198
10.6375
10.6498
10.6712
10.6965
10.7181
10.732
10.7447
10.7635
10.7831
10.7975
10.8066
10.816
10.8288
10.8394
10.8418
10.8492
0.2
0.2
0.2
0.2
0.2
0.2
0.2
0.2
0.2
0.2
0.2
0.2
0.2
0.2
0.2
0.2
0.2
0.2
0.2
0.2
0.2
0.2
0.2
0.2
0.2
0.2
0.2
0.2
0.2
0.2
0.2
0.2
0.2
0.2
0.2
0.2
0.2
0.2
0.200001
0.200016
0.200254
0.204065
0.268566
2.19744
6.47066
8.56018
9.05608
9.19124
9.23545
9.25734
9.27896
9.31009
9.34851
9.38488
9.41614
9.44227
9.45912
9.47609
9.50722
9.54812
9.58526
9.61454
9.63672
9.64759
9.66517
9.6994
9.74083
9.77582
9.80218
9.81625
9.82553
9.8505
9.88968
9.92824
9.95791
9.97684
9.98304
10.0027
10.0384
10.0771
10.1076
10.128
10.135
10.1539
10.188
10.2246
10.2538
10.2717
10.2804
10.3032
10.3372
10.3699
10.3951
10.4081
10.423
10.4511
10.4826
10.5089
10.5258
10.5388
10.5631
10.592
10.617
10.6339
10.6465
10.6688
10.6941
10.7155
10.7284
10.7408
10.76
10.7799
10.7939
10.802
10.8105
10.8228
10.8331
10.8344
10.838
0.2
0.2
0.2
0.2
0.2
0.2
0.2
0.2
0.2
0.2
0.2
0.2
0.2
0.2
0.2
0.2
0.2
0.2
0.2
0.2
0.2
0.2
0.2
0.2
0.2
0.2
0.2
0.2
0.2
0.2
0.2
0.2
0.2
0.2
0.2
0.2
0.2
0.2
0.200001
0.200015
0.200238
0.203792
0.262574
2.162
6.4474
8.55275
9.05325
9.18863
9.23232
9.25443
9.27665
9.30881
9.34772
9.38398
9.41495
9.44074
9.45708
9.47452
9.50671
9.54772
9.58423
9.61293
9.63438
9.64491
9.66345
9.69871
9.74008
9.77442
9.80035
9.8135
9.82344
9.84931
9.88881
9.92694
9.95632
9.97446
9.98089
10.0015
10.0376
10.076
10.1062
10.1261
10.1334
10.1532
10.1875
10.2237
10.2526
10.2701
10.2795
10.303
10.3368
10.3686
10.3931
10.4059
10.4219
10.4502
10.481
10.5068
10.5233
10.5369
10.5616
10.5903
10.6149
10.631
10.6439
10.6665
10.6917
10.7125
10.7247
10.7369
10.7558
10.775
10.7882
10.7956
10.8032
10.8143
10.8235
10.8226
10.8241
0.2
0.2
0.2
0.2
0.2
0.2
0.2
0.2
0.2
0.2
0.2
0.2
0.2
0.2
0.2
0.2
0.2
0.2
0.2
0.2
0.2
0.2
0.2
0.2
0.2
0.2
0.2
0.2
0.2
0.2
0.2
0.2
0.2
0.2
0.2
0.2
0.2
0.2
0.200001
0.200014
0.200219
0.203481
0.255861
2.11783
6.41538
8.54218
9.05031
9.18703
9.23041
9.25253
9.27523
9.30835
9.34775
9.38432
9.41547
9.44121
9.4573
9.47565
9.50947
9.55137
9.58807
9.6168
9.63739
9.64765
9.66743
9.70445
9.74625
9.78011
9.80535
9.81709
9.82796
9.85513
9.89528
9.93295
9.96176
9.97834
9.98493
10.0067
10.043
10.0806
10.1101
10.1287
10.1358
10.1565
10.1903
10.2251
10.2527
10.2692
10.279
10.3031
10.3359
10.3661
10.389
10.4012
10.4186
10.4475
10.4782
10.5032
10.5188
10.5332
10.5588
10.5874
10.6117
10.627
10.64
10.6626
10.6874
10.7078
10.72
10.7318
10.7498
10.7681
10.7807
10.7877
10.7944
10.8036
10.8108
10.8077
10.808
0.2
0.2
0.2
0.2
0.2
0.2
0.2
0.2
0.2
0.2
0.2
0.2
0.2
0.2
0.2
0.2
0.2
0.2
0.2
0.2
0.2
0.2
0.2
0.2
0.2
0.2
0.2
0.2
0.2
0.2
0.2
0.2
0.2
0.2
0.2
0.2
0.2
0.2
0.200001
0.200012
0.200199
0.203156
0.248803
2.06444
6.37394
8.52869
9.04586
9.18369
9.22562
9.24735
9.27055
9.30502
9.34432
9.38002
9.40978
9.43397
9.44882
9.46894
9.50422
9.54527
9.58029
9.60774
9.62642
9.63674
9.65871
9.69646
9.73684
9.76894
9.7924
9.80278
9.81532
9.84448
9.88485
9.9209
9.94791
9.96215
9.96981
9.994
10.0318
10.0687
10.0971
10.1132
10.1206
10.144
10.1803
10.2157
10.2428
10.2569
10.2676
10.2942
10.3298
10.3611
10.3838
10.3945
10.4127
10.4428
10.4741
10.4991
10.5137
10.5283
10.5541
10.5827
10.6064
10.6215
10.6348
10.6568
10.6813
10.7014
10.7138
10.7255
10.7422
10.7593
10.771
10.7776
10.7834
10.7907
10.7955
10.7905
10.7889
0.2
0.2
0.2
0.2
0.2
0.2
0.2
0.2
0.2
0.2
0.2
0.2
0.2
0.2
0.2
0.2
0.2
0.2
0.2
0.2
0.2
0.2
0.2
0.2
0.2
0.2
0.2
0.2
0.2
0.2
0.2
0.2
0.2
0.2
0.2
0.2
0.2
0.2
0.200001
0.200011
0.200176
0.202776
0.240567
1.99637
6.31978
8.51254
9.04283
9.18248
9.22366
9.24538
9.2694
9.30497
9.34396
9.37873
9.40777
9.43069
9.44485
9.46641
9.50297
9.54324
9.57699
9.60336
9.62053
9.63196
9.65612
9.69483
9.73425
9.7652
9.78755
9.79667
9.81143
9.8432
9.88371
9.91834
9.94415
9.95637
9.96569
9.9921
10.031
10.067
10.094
10.1075
10.1161
10.1417
10.1791
10.2133
10.2387
10.25
10.2618
10.2902
10.3263
10.3566
10.3771
10.3859
10.4054
10.437
10.4687
10.4932
10.5067
10.5212
10.5473
10.5761
10.5998
10.6145
10.6281
10.6498
10.6734
10.6926
10.705
10.7167
10.7326
10.7486
10.7592
10.7647
10.7695
10.7752
10.7779
10.7717
10.7664
0.2
0.2
0.2
0.2
0.2
0.2
0.2
0.2
0.2
0.2
0.2
0.2
0.2
0.2
0.2
0.2
0.2
0.2
0.2
0.2
0.2
0.2
0.2
0.2
0.2
0.2
0.2
0.2
0.2
0.2
0.2
0.2
0.2
0.2
0.2
0.2
0.2
0.2
0.200001
0.200009
0.200146
0.20227
0.229532
1.90254
6.24755
8.49157
9.03788
9.17909
9.21989
9.24245
9.26817
9.3048
9.34301
9.37674
9.40506
9.42634
9.44105
9.46504
9.50289
9.54206
9.57425
9.59948
9.61487
9.62806
9.65473
9.6942
9.73206
9.76141
9.78218
9.79049
9.80814
9.84219
9.8823
9.91532
9.93971
9.9499
9.96189
9.99032
10.0296
10.0642
10.09
10.1014
10.1119
10.139
10.1767
10.2099
10.2343
10.2439
10.257
10.2866
10.3221
10.3513
10.3701
10.3784
10.3996
10.432
10.4629
10.486
10.4973
10.5126
10.5396
10.5685
10.5915
10.6052
10.6191
10.6408
10.6641
10.6823
10.694
10.7058
10.7206
10.7355
10.7453
10.7496
10.7532
10.7568
10.7573
10.7499
10.7402
0.2
0.2
0.2
0.2
0.2
0.2
0.2
0.2
0.2
0.2
0.2
0.2
0.2
0.2
0.2
0.2
0.2
0.2
0.2
0.2
0.2
0.2
0.2
0.2
0.2
0.2
0.2
0.2
0.2
0.2
0.2
0.2
0.2
0.2
0.2
0.2
0.2
0.2
0.2
0.200007
0.20011
0.201688
0.216888
1.78428
6.15572
8.46391
9.0296
9.17215
9.21193
9.23529
9.26339
9.30112
9.33851
9.37108
9.39848
9.41753
9.43319
9.46044
9.50013
9.5381
9.56875
9.59245
9.60554
9.62051
9.651
9.69153
9.72793
9.75596
9.77375
9.7814
9.80225
9.83862
9.87821
9.90983
9.93232
9.94001
9.95424
9.98536
10.0242
10.0573
10.0817
10.0912
10.1032
10.1317
10.1689
10.201
10.2244
10.2341
10.2489
10.2794
10.3143
10.3433
10.3613
10.3708
10.3934
10.4257
10.4554
10.4772
10.4877
10.5048
10.5324
10.5603
10.5816
10.5931
10.6082
10.6307
10.6534
10.67
10.68
10.6918
10.7068
10.7208
10.7284
10.7313
10.7343
10.7359
10.7328
10.7238
10.7109
0.2
0.2
0.2
0.2
0.2
0.2
0.2
0.2
0.2
0.2
0.2
0.2
0.2
0.2
0.2
0.2
0.2
0.2
0.2
0.2
0.2
0.2
0.2
0.2
0.2
0.2
0.2
0.2
0.2
0.2
0.2
0.2
0.2
0.2
0.2
0.2
0.2
0.2
0.2
0.200005
0.200076
0.20115
0.205116
1.65108
6.04727
8.43367
9.02161
9.16584
9.20573
9.23082
9.26162
9.29945
9.33545
9.36642
9.39253
9.41059
9.42821
9.45822
9.49738
9.53334
9.56211
9.58442
9.59776
9.61536
9.64705
9.68594
9.71978
9.7461
9.76256
9.77319
9.79566
9.83156
9.86859
9.89817
9.91943
9.92803
9.94472
9.97667
10.0141
10.0453
10.0683
10.078
10.0931
10.1234
10.1599
10.1908
10.2129
10.2227
10.2399
10.2713
10.3055
10.3333
10.3509
10.3625
10.3863
10.4178
10.4462
10.4665
10.4774
10.4969
10.5247
10.5505
10.5691
10.5793
10.5968
10.6201
10.6412
10.6551
10.6633
10.6759
10.6912
10.7034
10.7086
10.7105
10.7124
10.7122
10.7052
10.6943
10.6781
0.2
0.2
0.2
0.2
0.2
0.2
0.2
0.2
0.2
0.2
0.2
0.2
0.2
0.2
0.2
0.2
0.2
0.2
0.2
0.2
0.2
0.2
0.2
0.2
0.2
0.2
0.2
0.2
0.2
0.2
0.2
0.2
0.2
0.2
0.2
0.2
0.2
0.2
0.2
0.200002
0.200029
0.200493
0.192782
1.48548
5.90892
8.39335
9.01009
9.15706
9.19842
9.2269
9.26019
9.29627
9.32958
9.35868
9.38279
9.3998
9.42128
9.45526
9.49244
9.52471
9.55152
9.57185
9.5864
9.60811
9.64261
9.6792
9.7093
9.73366
9.74913
9.76402
9.7904
9.8266
9.85997
9.88661
9.9055
9.91724
9.93836
9.97175
10.0068
10.0348
10.0551
10.0657
10.0854
10.1178
10.152
10.1801
10.1996
10.2104
10.2321
10.2642
10.2961
10.3219
10.3374
10.3518
10.3778
10.4082
10.4347
10.4531
10.4653
10.4875
10.5151
10.5387
10.5546
10.5654
10.5851
10.608
10.6268
10.6376
10.6458
10.6592
10.6739
10.6831
10.6857
10.6872
10.6887
10.6856
10.6747
10.6617
10.6416
0.2
0.2
0.2
0.2
0.2
0.2
0.2
0.2
0.2
0.2
0.2
0.2
0.2
0.2
0.2
0.2
0.2
0.2
0.2
0.2
0.2
0.2
0.2
0.2
0.2
0.2
0.2
0.2
0.2
0.2
0.2
0.2
0.2
0.2
0.2
0.2
0.2
0.2
0.200001
0.200007
0.200028
0.200111
0.182345
1.2962
5.73974
8.3435
8.99433
9.14219
9.18696
9.22227
9.25801
9.29149
9.32097
9.34619
9.36547
9.38579
9.41684
9.45398
9.48721
9.51435
9.53563
9.55199
9.57147
9.6032
9.64092
9.67282
9.69771
9.71393
9.72881
9.75144
9.78576
9.82156
9.85035
9.87187
9.88424
9.90192
9.93096
9.9662
9.99724
10.0219
10.0367
10.0518
10.0779
10.1117
10.1426
10.1672
10.1822
10.1976
10.2247
10.2575
10.2861
10.3083
10.3209
10.3399
10.3687
10.3983
10.4226
10.4375
10.4518
10.4765
10.5032
10.5251
10.5384
10.5508
10.5715
10.5935
10.6099
10.6187
10.628
10.6416
10.6543
10.66
10.6606
10.6617
10.663
10.6561
10.6411
10.6257
10.6013
0.2
0.2
0.2
0.2
0.2
0.2
0.2
0.2
0.2
0.2
0.2
0.2
0.2
0.2
0.2
0.2
0.2
0.2
0.2
0.2
0.2
0.2
0.2
0.2
0.2
0.2
0.2
0.2
0.2
0.2
0.2
0.2
0.2
0.2
0.2
0.2
0.2
0.2
0.200009
0.200098
0.200875
0.205007
0.171111
1.08435
5.54287
8.28852
8.97974
9.13209
9.18333
9.2238
9.25902
9.28961
9.31566
9.33445
9.35198
9.3803
9.41869
9.45422
9.48265
9.50487
9.51935
9.53495
9.56412
9.60401
9.63931
9.66601
9.68324
9.69284
9.71165
9.74517
9.78447
9.81635
9.83943
9.85065
9.86273
9.88855
9.92592
9.96123
9.98838
10.0045
10.0134
10.0353
10.0696
10.105
10.133
10.1514
10.1606
10.1824
10.2153
10.2483
10.2748
10.2907
10.3024
10.3267
10.3582
10.3867
10.4079
10.4189
10.4367
10.4632
10.4894
10.5096
10.5208
10.5356
10.5569
10.5773
10.5913
10.598
10.6087
10.6219
10.6319
10.6346
10.6341
10.6343
10.6331
10.6235
10.6048
10.587
10.558
0.2
0.2
0.2
0.2
0.2
0.2
0.2
0.2
0.2
0.2
0.2
0.2
0.2
0.2
0.2
0.2
0.2
0.2
0.2
0.2
0.2
0.2
0.2
0.2
0.2
0.2
0.2
0.2
0.2
0.2
0.2
0.2
0.2
0.2
0.2
0.2
0.2
0.2
0.200002
0.200028
0.200524
0.201872
0.155508
0.843789
5.3055
8.21903
8.9616
9.12275
9.18235
9.22399
9.25636
9.28245
9.30343
9.31859
9.34076
9.378
9.41794
9.44992
9.47412
9.48999
9.4992
9.52109
9.56078
9.60313
9.63489
9.65696
9.66386
9.67215
9.6981
9.74053
9.78135
9.81039
9.82744
9.82693
9.84207
9.87611
9.91918
9.95375
9.97731
9.98281
9.9916
10.0194
10.0594
10.0952
10.1209
10.1302
10.14
10.1674
10.2044
10.237
10.2605
10.2698
10.2841
10.3132
10.3464
10.3736
10.39
10.3996
10.4213
10.4495
10.4748
10.4923
10.5014
10.5179
10.5394
10.5582
10.5697
10.5757
10.5869
10.5995
10.607
10.6074
10.6058
10.605
10.5996
10.5878
10.566
10.5454
10.5106
0.2
0.2
0.2
0.2
0.2
0.2
0.2
0.2
0.2
0.2
0.2
0.2
0.2
0.2
0.2
0.2
0.2
0.2
0.2
0.2
0.2
0.2
0.2
0.2
0.2
0.2
0.2
0.2
0.2
0.2
0.2
0.2
0.2
0.2
0.2
0.2
0.2
0.2
0.199996
0.199926
0.199235
0.194452
0.144745
0.606279
5.03689
8.11447
8.93822
9.11955
9.18555
9.22423
9.2519
9.27322
9.28465
9.3004
9.32999
9.37189
9.41105
9.44181
9.4639
9.47107
9.47921
9.50746
9.5525
9.59415
9.62481
9.6447
9.64435
9.65135
9.682
9.72893
9.7703
9.80059
9.81417
9.80885
9.82516
9.86293
9.90757
9.94235
9.9641
9.96248
9.97279
10.0043
10.0464
10.0813
10.105
10.1093
10.1218
10.1525
10.1906
10.2224
10.2429
10.2486
10.2671
10.2991
10.3322
10.3576
10.3696
10.3803
10.4048
10.434
10.4579
10.4715
10.4801
10.4986
10.5201
10.5374
10.5462
10.5522
10.563
10.5743
10.5797
10.5786
10.5753
10.5721
10.5634
10.5492
10.5241
10.5002
10.4593
0.2
0.2
0.2
0.2
0.2
0.2
0.2
0.2
0.2
0.2
0.2
0.2
0.2
0.2
0.2
0.2
0.2
0.2
0.2
0.2
0.2
0.2
0.2
0.2
0.2
0.2
0.2
0.2
0.2
0.2
0.2
0.2
0.2
0.2
0.2
0.2
0.2
0.199999
0.199998
0.200043
0.200105
0.197238
0.155865
0.344024
4.69286
7.95653
8.89923
9.11163
9.18453
9.22052
9.24378
9.26072
9.26876
9.28843
9.32271
9.36458
9.39868
9.42606
9.44717
9.45655
9.46999
9.49552
9.53632
9.57571
9.6056
9.62643
9.63304
9.64504
9.67069
9.71117
9.75039
9.77894
9.7936
9.79431
9.81278
9.84731
9.88721
9.92125
9.94419
9.94489
9.95748
9.99015
10.0302
10.063
10.0847
10.0889
10.1049
10.1375
10.1744
10.2045
10.2209
10.2278
10.2504
10.2837
10.3149
10.3376
10.3462
10.3606
10.3877
10.4161
10.4375
10.447
10.4577
10.4778
10.4992
10.5142
10.5202
10.5266
10.5368
10.5464
10.5494
10.5468
10.5423
10.536
10.5246
10.5073
10.479
10.4514
10.4042
0.2
0.2
0.2
0.2
0.2
0.2
0.2
0.2
0.2
0.2
0.2
0.2
0.2
0.2
0.2
0.2
0.2
0.2
0.2
0.2
0.2
0.2
0.2
0.2
0.2
0.2
0.2
0.2
0.2
0.2
0.2
0.2
0.2
0.2
0.2
0.2
0.2
0.200001
0.200012
0.200141
0.200572
0.198676
0.166176
0.281537
4.24582
7.70974
8.83882
9.07695
9.13175
9.16765
9.20786
9.24777
9.28053
9.30548
9.31732
9.33041
9.35305
9.39236
9.43537
9.46916
9.49345
9.50574
9.51455
9.53427
9.56793
9.60554
9.63608
9.65896
9.67296
9.68927
9.71213
9.73893
9.7651
9.78945
9.81055
9.8382
9.86751
9.8925
9.91351
9.92681
9.94657
9.97692
10.0107
10.0398
10.0601
10.0685
10.0889
10.1216
10.1551
10.1818
10.196
10.2081
10.2332
10.2658
10.2943
10.3134
10.3216
10.341
10.3691
10.3952
10.4132
10.4205
10.4348
10.4559
10.4756
10.4877
10.4918
10.499
10.5087
10.5164
10.5163
10.5119
10.5065
10.4977
10.4832
10.4616
10.4309
10.3989
10.346
0.2
0.2
0.2
0.2
0.2
0.2
0.2
0.2
0.2
0.2
0.2
0.2
0.2
0.2
0.2
0.2
0.2
0.2
0.2
0.2
0.2
0.2
0.2
0.2
0.2
0.2
0.2
0.2
0.2
0.2
0.2
0.2
0.2
0.2
0.2
0.2
0.2
0.2
0.199999
0.200007
0.200005
0.199863
0.192877
0.354654
3.77582
7.39401
8.73752
9.03206
9.09587
9.13515
9.17754
9.21796
9.25122
9.27761
9.29041
9.30081
9.32572
9.36565
9.40569
9.43685
9.46016
9.47162
9.47981
9.50247
9.54143
9.58079
9.61041
9.63071
9.64035
9.65241
9.67766
9.71609
9.75342
9.78238
9.8016
9.81269
9.83047
9.85368
9.88137
9.91046
9.93848
9.96465
9.98897
10.0113
10.0318
10.0483
10.0742
10.1056
10.1329
10.1554
10.1698
10.1876
10.2152
10.2452
10.2702
10.2855
10.2977
10.3206
10.3481
10.3712
10.3854
10.3941
10.4114
10.4321
10.4489
10.4575
10.4617
10.4701
10.479
10.4835
10.4802
10.4744
10.4678
10.4567
10.4388
10.4131
10.3802
10.3434
10.2848
0.2
0.2
0.2
0.2
0.2
0.2
0.2
0.2
0.2
0.2
0.2
0.2
0.2
0.2
0.2
0.2
0.2
0.2
0.2
0.2
0.2
0.2
0.2
0.2
0.2
0.2
0.2
0.2
0.2
0.2
0.2
0.2
0.2
0.2
0.2
0.2
0.2
0.2
0.2
0.200002
0.200028
0.200453
0.207809
0.364692
3.19025
7.05425
8.64183
8.99673
9.07568
9.12107
9.16596
9.20469
9.23593
9.25993
9.27309
9.28736
9.31693
9.35734
9.39277
9.41968
9.43912
9.44688
9.46064
9.49128
9.53054
9.56385
9.58864
9.60218
9.60672
9.62312
9.65818
9.69919
9.73105
9.75269
9.76202
9.76867
9.79076
9.82825
9.86797
9.90053
9.92289
9.9363
9.95154
9.97269
9.99796
10.027
10.0574
10.0844
10.1069
10.1249
10.1433
10.167
10.1957
10.2219
10.2426
10.2563
10.2744
10.2995
10.3243
10.344
10.3552
10.3679
10.3868
10.4059
10.4189
10.4247
10.4304
10.4396
10.4473
10.4471
10.4414
10.4352
10.4269
10.4126
10.3912
10.3619
10.3268
10.285
10.2208
0.2
0.2
0.2
0.2
0.2
0.2
0.2
0.2
0.2
0.2
0.2
0.2
0.2
0.2
0.2
0.2
0.2
0.2
0.2
0.2
0.2
0.2
0.2
0.2
0.2
0.2
0.2
0.2
0.2
0.2
0.2
0.2
0.2
0.2
0.2
0.2
0.2
0.2
0.2
0.200001
0.200016
0.200261
0.204235
0.288914
2.54812
6.67408
8.53546
8.95767
9.05683
9.10862
9.15218
9.18765
9.21586
9.23734
9.25235
9.27244
9.30632
9.34495
9.37636
9.40066
9.41705
9.42627
9.44545
9.47964
9.51633
9.54505
9.56579
9.57508
9.58293
9.60621
9.64281
9.67785
9.70355
9.71962
9.72258
9.73603
9.7688
9.81048
9.84552
9.86963
9.88176
9.88759
9.9079
9.94143
9.97988
10.015
10.0411
10.0575
10.0713
10.092
10.1165
10.1463
10.1734
10.195
10.2106
10.2279
10.2508
10.276
10.2976
10.3132
10.324
10.3406
10.36
10.3763
10.3858
10.3905
10.3981
10.4069
10.4118
10.4078
10.4011
10.3939
10.3836
10.3653
10.3406
10.3082
10.2709
10.2237
10.1537
0.2
0.2
0.2
0.2
0.2
0.2
0.2
0.2
0.2
0.2
0.2
0.2
0.2
0.2
0.2
0.2
0.2
0.2
0.2
0.2
0.2
0.2
0.2
0.2
0.2
0.2
0.2
0.2
0.2
0.2
0.2
0.2
0.2
0.2
0.2
0.2
0.2
0.2
0.2
0.200001
0.200012
0.200127
0.201312
0.215161
1.86922
6.19344
8.40635
8.92271
9.0483
9.10689
9.14513
9.17401
9.19797
9.21561
9.23368
9.26308
9.29983
9.33253
9.35907
9.3799
9.39306
9.40694
9.43077
9.46492
9.49701
9.52198
9.54038
9.54852
9.5616
9.58888
9.62368
9.65253
9.67442
9.68558
9.69389
9.71547
9.75104
9.7868
9.813
9.82926
9.83201
9.84755
9.88246
9.92443
9.96133
9.98781
10.0019
10.0087
10.0282
10.0567
10.0905
10.1229
10.1476
10.1613
10.1769
10.1996
10.2254
10.2488
10.2668
10.2786
10.2931
10.3119
10.3303
10.3431
10.3495
10.3555
10.3639
10.3717
10.372
10.3663
10.3595
10.3498
10.3368
10.3146
10.2878
10.2521
10.212
10.1592
10.0836
0.2
0.2
0.2
0.2
0.2
0.2
0.2
0.2
0.2
0.2
0.2
0.2
0.2
0.2
0.2
0.2
0.2
0.2
0.2
0.2
0.2
0.2
0.2
0.2
0.2
0.2
0.2
0.2
0.2
0.2
0.2
0.2
0.2
0.2
0.2
0.2
0.2
0.2
0.2
0.200008
0.200086
0.200848
0.204649
0.17518
1.15955
5.61959
8.26794
8.90824
9.0584
9.1103
9.13706
9.15837
9.17719
9.19623
9.22225
9.25404
9.28391
9.3099
9.332
9.35015
9.36542
9.38597
9.41448
9.44472
9.47093
9.49288
9.50936
9.52227
9.54258
9.57226
9.60194
9.62525
9.64347
9.65312
9.66765
9.69479
9.72819
9.75643
9.77713
9.78691
9.7969
9.82275
9.86188
9.89903
9.92591
9.941
9.94429
9.96269
9.99621
10.036
10.0729
10.0996
10.1123
10.12
10.1423
10.1705
10.1976
10.2184
10.2305
10.2432
10.2618
10.2814
10.2971
10.3062
10.3113
10.3196
10.3279
10.3326
10.329
10.3226
10.3159
10.3032
10.2866
10.2611
10.2329
10.1934
10.15
10.0919
10.0104
0.2
0.2
0.2
0.2
0.2
0.2
0.2
0.2
0.2
0.2
0.2
0.2
0.2
0.2
0.2
0.2
0.2
0.2
0.2
0.2
0.2
0.2
0.2
0.2
0.2
0.2
0.2
0.2
0.2
0.2
0.2
0.2
0.2
0.2
0.2
0.2
0.2
0.2
0.2
0.2
0.199976
0.199676
0.19735
0.15378
0.42688
4.92819
8.08373
8.88339
9.06476
9.11357
9.13406
9.15182
9.17351
9.2008
9.22822
9.25197
9.27227
9.28971
9.30518
9.32422
9.34985
9.37853
9.40426
9.42534
9.44273
9.45387
9.46933
9.49104
9.5184
9.54652
9.57139
9.59245
9.6054
9.61987
9.64132
9.67126
9.69996
9.72288
9.73869
9.74865
9.7674
9.79958
9.83502
9.86269
9.88067
9.88672
9.90151
9.93438
9.97547
10.0128
10.0404
10.0533
10.0565
10.0762
10.1064
10.1391
10.1674
10.1827
10.1898
10.2074
10.2287
10.2479
10.26
10.2651
10.2721
10.2818
10.2898
10.2894
10.2834
10.2768
10.2697
10.2536
10.2335
10.2051
10.1752
10.1318
10.0847
10.0219
9.93442
0.2
0.2
0.2
0.2
0.2
0.2
0.2
0.2
0.2
0.2
0.2
0.2
0.2
0.2
0.2
0.2
0.2
0.2
0.2
0.2
0.2
0.2
0.2
0.2
0.2
0.2
0.2
0.2
0.2
0.2
0.2
0.2
0.2
0.2
0.2
0.2
0.2
0.2
0.2
0.200008
0.200092
0.200433
0.199952
0.180526
0.26055
4.05052
7.61242
8.71042
8.95653
9.0259
9.05526
9.08269
9.11499
9.14605
9.17278
9.1955
9.21324
9.22955
9.25086
9.27884
9.30777
9.33328
9.35461
9.37116
9.38541
9.40411
9.43096
9.46096
9.48774
9.51014
9.52892
9.54263
9.55944
9.58217
9.61109
9.64059
9.66584
9.6839
9.69603
9.71302
9.73968
9.77238
9.80038
9.82124
9.83276
9.84456
9.87167
9.91075
9.94783
9.97464
9.98805
9.99119
10.0107
10.0428
10.0802
10.1136
10.1347
10.1363
10.1483
10.171
10.1941
10.211
10.2178
10.2224
10.2318
10.2421
10.2477
10.2429
10.2358
10.2289
10.2212
10.2008
10.1775
10.1466
10.1146
10.0668
10.0161
9.94935
9.85549
0.2
0.2
0.2
0.2
0.2
0.2
0.2
0.2
0.2
0.2
0.2
0.2
0.2
0.2
0.2
0.2
0.2
0.2
0.2
0.2
0.2
0.2
0.2
0.2
0.2
0.2
0.2
0.2
0.2
0.2
0.2
0.2
0.2
0.2
0.2
0.2
0.2
0.2
0.2
0.2
0.200004
0.200021
0.200222
0.203658
0.287274
3.08296
7.0323
8.55027
8.90787
9.00151
9.03771
9.06855
9.09878
9.12631
9.15005
9.16988
9.18422
9.19964
9.22369
9.2523
9.27854
9.30056
9.31857
9.33111
9.34541
9.36909
9.39929
9.42747
9.45072
9.46915
9.48093
9.49723
9.52191
9.5522
9.58102
9.60505
9.62487
9.63631
9.65312
9.67719
9.7087
9.73797
9.76075
9.77546
9.7873
9.80891
9.84365
9.87942
9.90617
9.92164
9.92723
9.94569
9.97941
10.0187
10.0526
10.0752
10.0797
10.0849
10.1069
10.1336
10.1572
10.1703
10.1707
10.1788
10.1897
10.2001
10.2007
10.1933
10.1869
10.1784
10.1691
10.145
10.119
10.0854
10.0505
9.99841
9.94431
9.87402
9.77417
0.2
0.2
0.2
0.2
0.2
0.2
0.2
0.2
0.2
0.2
0.2
0.2
0.2
0.2
0.2
0.2
0.2
0.2
0.2
0.2
0.2
0.2
0.2
0.2
0.2
0.2
0.2
0.2
0.2
0.2
0.2
0.2
0.2
0.2
0.2
0.2
0.2
0.2
0.2
0.2
0.2
0.200001
0.200018
0.199531
0.205423
2.03344
6.35049
8.37354
8.85688
8.97527
9.0185
9.05016
9.07831
9.10401
9.12615
9.14486
9.15941
9.17638
9.20101
9.2279
9.25159
9.27171
9.28836
9.29993
9.31565
9.34066
9.36888
9.39287
9.41248
9.42644
9.43828
9.45695
9.48326
9.51245
9.53841
9.55983
9.57414
9.58821
9.61054
9.64027
9.67141
9.6979
9.71585
9.72667
9.74575
9.77646
9.81096
9.83868
9.85705
9.86556
9.88078
9.91288
9.9518
9.98588
10.008
10.0145
10.0183
10.0391
10.0688
10.0986
10.1194
10.1194
10.1219
10.1345
10.1468
10.154
10.1487
10.1418
10.1367
10.1251
10.1125
10.0865
10.0584
10.0217
9.98307
9.92732
9.87004
9.79578
9.68931
0.2
0.2
0.2
0.2
0.2
0.2
0.2
0.2
0.2
0.2
0.2
0.2
0.2
0.2
0.2
0.2
0.2
0.2
0.2
0.2
0.2
0.2
0.2
0.2
0.2
0.2
0.2
0.2
0.2
0.2
0.2
0.2
0.2
0.2
0.2
0.2
0.2
0.2
0.2
0.2
0.2
0.200001
0.200268
0.19701
0.147505
0.899609
5.5222
8.21267
8.8468
8.97805
9.01331
9.03504
9.05486
9.07423
9.09316
9.11037
9.12794
9.14787
9.17169
9.19543
9.21701
9.2364
9.25334
9.26838
9.28762
9.31282
9.33734
9.35837
9.37646
9.38955
9.40455
9.42531
9.45119
9.47604
9.49708
9.51403
9.52639
9.54496
9.56967
9.59945
9.62782
9.65137
9.66464
9.67891
9.70512
9.73924
9.76942
9.79173
9.80337
9.81611
9.84359
9.88131
9.91518
9.93715
9.94553
9.95076
9.97233
10.0045
10.0375
10.0625
10.0653
10.0615
10.0734
10.0897
10.1036
10.1021
10.0931
10.0885
10.0847
10.0687
10.0511
10.0251
9.99603
9.95543
9.91246
9.85348
9.79286
9.71422
9.60189
0.2
0.2
0.2
0.2
0.2
0.2
0.2
0.2
0.2
0.2
0.2
0.2
0.2
0.2
0.2
0.2
0.2
0.2
0.2
0.2
0.2
0.2
0.2
0.2
0.2
0.2
0.2
0.2
0.2
0.2
0.2
0.2
0.2
0.2
0.2
0.2
0.2
0.2
0.2
0.2
0.2
0.199995
0.199914
0.198186
0.172058
0.105747
4.40807
7.80199
8.73642
8.93339
8.98245
9.00642
9.02509
9.04362
9.06268
9.08362
9.10642
9.12905
9.15007
9.16938
9.18722
9.20316
9.21982
9.24016
9.26244
9.28317
9.30161
9.31816
9.33086
9.34619
9.3658
9.38899
9.41242
9.43365
9.45274
9.46646
9.48394
9.50559
9.53181
9.55903
9.58365
9.6032
9.61498
9.63546
9.66516
9.69692
9.72274
9.74009
9.75046
9.77273
9.80749
9.84191
9.86593
9.87724
9.88319
9.90354
9.93672
9.97068
9.99763
10.0049
9.99887
10.008
10.0264
10.0467
10.0549
10.0428
10.0371
10.0339
10.0302
10.009
9.98598
9.96063
9.93095
9.88609
9.83873
9.77706
9.71326
9.63027
9.51085
0.2
0.2
0.2
0.2
0.2
0.2
0.2
0.2
0.2
0.2
0.2
0.2
0.2
0.2
0.2
0.2
0.2
0.2
0.2
0.2
0.2
0.2
0.2
0.2
0.2
0.2
0.2
0.2
0.2
0.2
0.2
0.2
0.2
0.2
0.2
0.2
0.2
0.2
0.2
0.2
0.2
0.2
0.200004
0.200128
0.202544
0.269858
3.18424
7.07702
8.48346
8.81039
8.90552
8.94694
8.97156
8.99159
9.01114
9.03111
9.0511
9.07066
9.08916
9.10659
9.1233
9.14002
9.15906
9.1803
9.20144
9.2212
9.23932
9.25604
9.27205
9.2915
9.31548
9.34026
9.36293
9.38299
9.39925
9.41565
9.43813
9.46406
9.48994
9.51367
9.53483
9.54992
9.56846
9.59302
9.62257
9.64983
9.67224
9.68527
9.70171
9.73082
9.76482
9.79169
9.80828
9.81531
9.83325
9.86592
9.90027
9.92675
9.93622
9.93306
9.94004
9.96081
9.98471
10.0009
9.99193
9.9814
9.98112
9.97831
9.97172
9.94519
9.91937
9.89321
9.86224
9.81341
9.76218
9.698
9.63059
9.54341
9.41843
0.2
0.2
0.2
0.2
0.2
0.2
0.2
0.2
0.2
0.2
0.2
0.2
0.2
0.2
0.2
0.2
0.2
0.2
0.2
0.2
0.2
0.2
0.2
0.2
0.2
0.2
0.2
0.2
0.2
0.2
0.2
0.2
0.2
0.2
0.2
0.2
0.2
0.2
0.2
0.2
0.2
0.199999
0.199993
0.199953
0.199049
0.195252
1.86451
6.20322
8.25119
8.73945
8.8638
8.90771
8.93259
8.9544
8.97584
8.99608
9.01522
9.03322
9.05013
9.06591
9.08256
9.10119
9.12048
9.13948
9.15766
9.17491
9.19114
9.20827
9.22708
9.24789
9.27025
9.29217
9.312
9.32994
9.34495
9.36425
9.38872
9.41496
9.43959
9.46148
9.47829
9.49608
9.51935
9.54596
9.5739
9.59982
9.618
9.63247
9.65635
9.68753
9.71594
9.73708
9.74821
9.7616
9.79041
9.82481
9.85182
9.86404
9.864
9.87104
9.89269
9.91988
9.94146
9.93628
9.92221
9.92214
9.92557
9.92003
9.90569
9.87807
9.8532
9.82273
9.78912
9.73757
9.68301
9.61638
9.54556
9.45473
9.32183
0.2
0.2
0.2
0.2
0.2
0.2
0.2
0.2
0.2
0.2
0.2
0.2
0.2
0.2
0.2
0.2
0.2
0.2
0.2
0.2
0.2
0.2
0.2
0.2
0.2
0.2
0.2
0.2
0.2
0.2
0.2
0.2
0.2
0.2
0.2
0.2
0.2
0.2
0.2
0.2
0.2
0.199998
0.199961
0.199595
0.197387
0.153478
0.476135
5.02314
7.97398
8.68618
8.83835
8.87947
8.8992
8.91668
8.93475
8.95252
8.96942
8.98584
9.00186
9.01804
9.03664
9.05663
9.07574
9.09372
9.11067
9.12659
9.14385
9.16372
9.18451
9.20508
9.2246
9.24263
9.25982
9.27717
9.29577
9.31746
9.34112
9.36464
9.38659
9.40594
9.4218
9.44297
9.46772
9.49487
9.52105
9.54464
9.5592
9.57898
9.60723
9.63718
9.66157
9.678
9.69027
9.71389
9.74587
9.77362
9.78931
9.79411
9.80132
9.82281
9.85029
9.8748
9.87639
9.8602
9.85889
9.86349
9.87122
9.85643
9.83181
9.80902
9.78709
9.74966
9.71135
9.65877
9.60163
9.53201
9.45712
9.36262
9.22497
0.2
0.2
0.2
0.2
0.2
0.2
0.2
0.2
0.2
0.2
0.2
0.2
0.2
0.2
0.2
0.2
0.2
0.2
0.2
0.2
0.2
0.2
0.2
0.2
0.2
0.2
0.2
0.2
0.2
0.2
0.2
0.2
0.2
0.2
0.2
0.2
0.2
0.2
0.2
0.2
0.2
0.2
0.199998
0.199998
0.200142
0.201362
0.253462
3.47674
7.2493
8.44374
8.7216
8.80139
8.83772
8.8645
8.88805
8.90818
8.92645
8.94306
8.95908
8.97656
8.9964
9.01573
9.03351
9.05006
9.06505
9.07946
9.09665
9.11646
9.13592
9.15438
9.17173
9.18817
9.20479
9.22372
9.24598
9.26933
9.29142
9.31184
9.33099
9.34902
9.36935
9.3925
9.41811
9.44411
9.46828
9.48797
9.50395
9.52771
9.55599
9.58267
9.60427
9.61745
9.63619
9.66495
9.69334
9.71286
9.72247
9.7296
9.7497
9.77709
9.80112
9.80799
9.79743
9.79121
9.80076
9.81057
9.80882
9.78326
9.75756
9.73907
9.71833
9.67438
9.63001
9.57718
9.51793
9.44462
9.36613
9.2687
9.12324
0.2
0.2
0.2
0.2
0.2
0.2
0.2
0.2
0.2
0.2
0.2
0.2
0.2
0.2
0.2
0.2
0.2
0.2
0.2
0.2
0.2
0.2
0.2
0.2
0.2
0.2
0.2
0.2
0.2
0.2
0.2
0.2
0.2
0.2
0.2
0.2
0.2
0.2
0.2
0.2
0.2
0.2
0.199999
0.199992
0.199948
0.199107
0.19081
1.81562
6.19058
8.18007
8.6589
8.76958
8.80606
8.82753
8.84736
8.86747
8.88667
8.9045
8.92154
8.93994
8.95942
8.97733
8.99422
9.00984
9.02339
9.03857
9.05568
9.07376
9.09092
9.10717
9.12134
9.13656
9.15392
9.1725
9.19327
9.21422
9.23392
9.25259
9.26955
9.29019
9.31457
9.34027
9.36529
9.38872
9.40942
9.42756
9.44886
9.47339
9.50031
9.52578
9.54395
9.5593
9.58319
9.61124
9.63391
9.64855
9.65678
9.67386
9.70012
9.72387
9.73446
9.72878
9.72409
9.73305
9.74982
9.75045
9.7304
9.70612
9.68724
9.66781
9.64385
9.59532
9.54752
9.49305
9.43106
9.35363
9.27167
9.17186
9.02232
0.2
0.2
0.2
0.2
0.2
0.2
0.2
0.2
0.2
0.2
0.2
0.2
0.2
0.2
0.2
0.2
0.2
0.2
0.2
0.2
0.2
0.2
0.2
0.2
0.2
0.2
0.2
0.2
0.2
0.2
0.2
0.2
0.2
0.2
0.2
0.2
0.2
0.2
0.2
0.2
0.2
0.2
0.199998
0.199959
0.19957
0.197218
0.16026
0.287028
4.77704
7.85212
8.59261
8.75285
8.79403
8.81303
8.8284
8.84447
8.86044
8.87616
8.89194
8.90804
8.92383
8.93882
8.9528
8.96457
8.97774
8.99299
9.0086
9.02425
9.03937
9.0531
9.06717
9.08436
9.10271
9.12155
9.1409
9.15999
9.17779
9.19511
9.21436
9.23581
9.25993
9.28433
9.30712
9.32743
9.34504
9.3661
9.39018
9.41594
9.44193
9.46648
9.4819
9.50158
9.52748
9.55214
9.57105
9.58232
9.59645
9.61967
9.64353
9.65732
9.65858
9.6548
9.66311
9.67885
9.6917
9.67471
9.6462
9.63182
9.61968
9.59305
9.56095
9.514
9.46536
9.40664
9.34071
9.25983
9.17527
9.07286
8.91566
0.2
0.2
0.2
0.2
0.2
0.2
0.2
0.2
0.2
0.2
0.2
0.2
0.2
0.2
0.2
0.2
0.2
0.2
0.2
0.2
0.2
0.2
0.2
0.2
0.2
0.2
0.2
0.2
0.2
0.2
0.2
0.2
0.2
0.2
0.2
0.2
0.2
0.2
0.2
0.2
0.2
0.2
0.200001
0.200006
0.19999
0.200013
0.200641
0.234071
3.08324
7.00448
8.31966
8.62029
8.70337
8.73861
8.75897
8.77481
8.78906
8.80302
8.81734
8.832
8.84691
8.86165
8.87603
8.8901
8.9055
8.92194
8.93893
8.95623
8.97334
8.98869
9.00542
9.02391
9.04319
9.06268
9.08174
9.09903
9.11657
9.13648
9.15724
9.17885
9.2012
9.22325
9.24383
9.26276
9.28421
9.30747
9.33253
9.35848
9.38324
9.40371
9.41882
9.44213
9.46768
9.48977
9.50556
9.51802
9.53803
9.56059
9.57737
9.58367
9.58446
9.59224
9.60674
9.618
9.6131
9.5896
9.57095
9.56074
9.55074
9.5131
9.47193
9.43084
9.38184
9.31659
9.24661
9.1639
9.07677
8.97152
8.80933
0.2
0.2
0.2
0.2
0.2
0.2
0.2
0.2
0.2
0.2
0.2
0.2
0.2
0.2
0.2
0.2
0.2
0.2
0.2
0.2
0.2
0.2
0.2
0.2
0.2
0.2
0.2
0.2
0.2
0.2
0.2
0.2
0.2
0.2
0.2
0.2
0.2
0.2
0.2
0.2
0.2
0.2
0.200001
0.200011
0.200035
0.199858
0.198231
0.174585
1.24014
5.68058
7.95719
8.51198
8.64642
8.6895
8.71103
8.72762
8.74321
8.75817
8.77228
8.78615
8.79965
8.81292
8.82645
8.84071
8.85577
8.87132
8.88722
8.90292
8.91826
8.93318
8.94995
8.96754
8.98599
9.00466
9.02276
9.03835
9.05704
9.07748
9.09837
9.11974
9.14111
9.16097
9.17967
9.20082
9.22359
9.24781
9.27279
9.29722
9.31817
9.33506
9.35498
9.37951
9.40415
9.42507
9.43866
9.45519
9.47678
9.49521
9.50612
9.51113
9.51668
9.53173
9.54552
9.54137
9.52514
9.50978
9.50365
9.49025
9.47287
9.42689
9.38487
9.34542
9.29518
9.22417
9.15076
9.06694
8.97645
8.86736
8.69838
0.2
0.2
0.2
0.2
0.2
0.2
0.2
0.2
0.2
0.2
0.2
0.2
0.2
0.2
0.2
0.2
0.2
0.2
0.2
0.2
0.2
0.2
0.2
0.2
0.2
0.2
0.2
0.2
0.2
0.2
0.2
0.2
0.2
0.2
0.2
0.2
0.2
0.2
0.2
0.2
0.2
0.2
0.2
0.2
0.199999
0.199977
0.199768
0.19367
0.187796
3.82401
7.32783
8.35086
8.58359
8.64317
8.66551
8.68105
8.69396
8.70805
8.72133
8.73362
8.74569
8.75922
8.77319
8.78772
8.80252
8.81735
8.83197
8.84627
8.86072
8.87633
8.89279
8.90955
8.92668
8.94394
8.96032
8.97741
8.99667
9.01666
9.03711
9.05772
9.07739
9.09661
9.11782
9.13994
9.16283
9.1865
9.20998
9.23106
9.24928
9.26933
9.29166
9.31516
9.33893
9.3584
9.37201
9.39099
9.4112
9.42584
9.43425
9.44103
9.45135
9.46624
9.47081