/*--------------------------------*- C++ -*----------------------------------*\
| =========                 |                                                 |
| \\      /  F ield         | OpenFOAM: The Open Source CFD Toolbox           |
|  \\    /   O peration     | Version:  2.2.x                                 |
|   \\  /    A nd           | Web:      www.OpenFOAM.org                      |
|    \\/     M anipulation  |                                                 |
\*---------------------------------------------------------------------------*/
FoamFile
{
    version     2.0;
    format      ascii;
    class       volScalarField;
    location    "1.45";
    object      By;
}
// * * * * * * * * * * * * * * * * * * * * * * * * * * * * * * * * * * * * * //

dimensions      [1 0 -2 0 0 -1 0];

internalField   nonuniform List<scalar> 
14161
(
-1.87169e-05
-6.5417e-07
-4.62112e-07
5.51321e-07
-8.45442e-07
3.4377e-07
1.10885e-06
2.38905e-06
-7.94384e-07
-2.26422e-06
-1.50325e-06
6.35174e-06
4.84994e-06
2.01357e-06
-5.7971e-06
-1.94518e-06
2.67151e-06
9.56278e-06
9.98781e-06
5.66384e-06
3.12246e-06
2.57529e-06
1.23849e-05
1.66547e-05
2.00765e-05
2.45998e-05
3.70997e-05
5.38975e-05
6.76367e-05
9.80534e-05
0.00012591
0.00018854
0.000235907
0.000318526
0.000427776
0.000599363
0.000690978
0.000945418
0.001005
0.00124417
0.00141579
0.00170047
0.00185143
0.00198095
0.00254723
0.000729579
-0.00558843
-0.107128
-0.176281
-0.0091253
0.0356636
0.0337933
0.0231205
0.0234749
0.0177175
0.017293
0.0160188
0.0153957
0.015522
0.0160333
0.0148188
0.0154875
0.0154004
0.0142811
0.0132639
0.0117078
0.0102544
0.00861382
0.00716458
0.00648266
0.00647855
0.00660211
0.00636498
0.00553679
0.00400185
0.00286038
0.00314378
0.00422448
0.00212144
0.000519196
0.00238719
0.00457112
0.00325038
0.00252416
0.00330622
0.0071313
0.00154496
0.00381402
0.00903164
0.00915702
0.0094824
0.0279631
0.0506564
0.0810171
0.0904698
0.0867217
0.0717235
0.0563173
0.0446556
0.0350385
0.0275535
0.0263795
0.0216657
0.0213573
0.0153926
0.0108687
0.00742646
0.00667986
0.00846817
0.0105667
0.0122358
0.015495
0.0155087
0.0201311
0.0172375
0.0156301
0.0133986
0.0150452
0.0142598
-3.3126e-05
1.1059e-06
-2.14331e-06
-2.29801e-07
-1.31644e-07
8.38465e-07
-6.51788e-07
2.992e-06
3.6137e-06
2.23063e-06
1.05241e-06
1.1821e-06
1.68431e-07
7.97401e-06
3.24714e-06
9.6232e-06
4.59349e-06
1.29168e-05
8.55879e-06
1.18431e-05
1.35678e-05
1.54851e-05
1.87684e-05
1.70795e-05
2.02066e-05
1.77125e-05
1.3843e-05
7.67e-06
-3.61888e-06
-2.70198e-05
-5.08707e-05
-8.61714e-05
-0.000132958
-0.000221195
-0.000281561
-0.000423563
-0.000544632
-0.000740059
-0.000994253
-0.00134128
-0.00171464
-0.00252317
-0.00312125
-0.00514149
-0.00647376
-0.0149628
-0.0416853
-0.212858
-0.226243
-0.0159364
0.022711
0.00458255
-0.010764
-0.012836
-0.0169476
-0.0179103
-0.017566
-0.0180316
-0.0165795
-0.0162207
-0.0162348
-0.0146992
-0.0139037
-0.0119455
-0.0111774
-0.0095513
-0.00922918
-0.00911317
-0.00931901
-0.00919199
-0.00981175
-0.0106888
-0.0107759
-0.00860536
-0.00575662
-0.00556255
-0.00771094
-0.00901864
-0.00928324
-0.00714238
-0.00917827
-0.00573813
0.00090206
0.00816269
-0.0020667
-0.00579035
-0.00100001
-0.00384344
-0.000976154
0.017226
0.0494943
0.0893661
0.111658
0.136366
0.136007
0.120405
0.0984976
0.0789063
0.0671652
0.0560783
0.0497045
0.0413703
0.039533
0.0365922
0.0400484
0.041974
0.0451914
0.0445144
0.0457889
0.0450557
0.0469649
0.0493569
0.0482356
0.0561184
0.0482751
0.0530658
0.0427521
0.0488248
0.0387418
-5.58616e-05
-2.7305e-06
-4.45959e-06
4.06837e-07
-1.8596e-07
2.52425e-06
2.29161e-06
1.40699e-06
3.89536e-06
6.00547e-08
7.19997e-06
6.00817e-06
2.72835e-06
1.16681e-05
4.58455e-06
1.60382e-05
8.42242e-06
1.82445e-05
1.64928e-05
2.72748e-05
2.91224e-05
3.53294e-05
4.07322e-05
4.81127e-05
5.57508e-05
6.68788e-05
8.52435e-05
0.000104653
0.000134144
0.000167428
0.000210489
0.000271241
0.000332693
0.000437091
0.000511952
0.000701924
0.000790527
0.000985283
0.00106654
0.00117092
0.00121386
0.00080031
0.000343793
-0.0013935
-0.00383036
-0.0105825
-0.0501893
-0.230304
-0.226513
-0.0481409
0.0167713
0.0260545
0.0105766
0.00925021
0.00383501
-0.00214331
-0.00189493
-0.00638438
-0.00702171
-0.00488991
-0.00938157
-0.00659265
-0.00524167
-0.0039784
-0.00175378
-0.00112167
-0.000317571
-0.000375356
0.000284375
0.000503707
0.000798228
0.00101255
0.00094156
0.000933927
0.001499
0.00296349
0.00485106
0.00592581
0.00794324
0.012962
0.0183334
0.0176548
0.0124083
0.014289
0.0288168
0.042472
0.0703939
0.0924323
0.122959
0.102803
0.131755
0.140009
0.159139
0.164518
0.167556
0.149778
0.124868
0.103656
0.0854245
0.0754637
0.0679328
0.0647496
0.0602159
0.0563838
0.0562277
0.0529771
0.0580114
0.0573386
0.062819
0.0653838
0.071658
0.080142
0.0797904
0.0915041
0.0813116
0.0872682
0.0696585
0.0823661
0.0609481
-6.42378e-05
-4.19534e-06
-6.00089e-06
-5.34683e-07
-1.15305e-06
2.32804e-06
2.26589e-06
5.15402e-06
5.39662e-06
2.96348e-06
3.66741e-06
6.64971e-06
4.68437e-06
1.2317e-05
1.05613e-05
2.60012e-05
1.08117e-05
2.78127e-05
1.77833e-05
3.04443e-05
3.34915e-05
4.33965e-05
4.82546e-05
5.41597e-05
6.01963e-05
6.54013e-05
7.07182e-05
6.96966e-05
6.8593e-05
6.48891e-05
5.38119e-05
4.01903e-05
2.0811e-06
-6.13152e-05
-0.000107345
-0.000192823
-0.000305544
-0.000466151
-0.000658351
-0.000901862
-0.00130899
-0.0019653
-0.0022783
-0.00341843
-0.00376903
-0.00580487
-0.0180104
-0.0990673
-0.106429
-0.0467805
-0.0361535
-0.0351782
-0.0542262
-0.0603272
-0.0626403
-0.0638963
-0.0622672
-0.0653155
-0.0567029
-0.0503711
-0.0534367
-0.0441319
-0.0394095
-0.0339132
-0.0282593
-0.0249581
-0.0204336
-0.016996
-0.0137
-0.0122222
-0.0109823
-0.00971722
-0.00904023
-0.0102893
-0.00954987
-0.00478824
0.00411333
0.0110315
0.0185765
0.0280804
0.0345634
0.0400656
0.0539049
0.0723899
0.105518
0.129079
0.172264
0.190125
0.211647
0.207572
0.226429
0.205395
0.201197
0.195751
0.17095
0.142452
0.120769
0.0998506
0.0858336
0.0712124
0.0652168
0.0626531
0.0632607
0.0638473
0.0687238
0.0710478
0.0801665
0.076469
0.0870476
0.0858627
0.0956706
0.100828
0.107006
0.118571
0.11334
0.118897
0.0998893
0.109654
0.0851173
-7.75769e-05
-6.72466e-06
-7.83422e-06
1.10496e-07
-5.44041e-07
3.60565e-06
2.43057e-06
3.13369e-06
8.06913e-06
3.63657e-06
8.66383e-06
1.01368e-05
7.2895e-06
1.53236e-05
1.47332e-05
3.11179e-05
1.67477e-05
3.66663e-05
2.76286e-05
5.10888e-05
5.07119e-05
6.73726e-05
7.29496e-05
8.59618e-05
9.87697e-05
0.000116775
0.000139333
0.000165612
0.000195585
0.000237127
0.000286242
0.000344342
0.000436011
0.000523523
0.000618871
0.000763755
0.000888787
0.00112279
0.00118165
0.0013359
0.00141138
0.00125615
0.00138295
0.000489088
0.000338997
-0.00123639
0.00163652
-0.00412194
0.00543749
-0.0529475
-0.0769383
-0.0987329
-0.107871
-0.112554
-0.110694
-0.102768
-0.0944805
-0.0975915
-0.0866449
-0.0753141
-0.0748718
-0.0620076
-0.0567669
-0.0466868
-0.0358211
-0.027402
-0.0220438
-0.0169225
-0.0119373
-0.0102234
-0.00972365
-0.0106605
-0.0103101
-0.00828945
-0.00430428
0.00215491
0.01167
0.0296029
0.0505596
0.0628782
0.0765562
0.0980346
0.125294
0.151848
0.193086
0.233209
0.280096
0.281451
0.300593
0.310614
0.298255
0.27805
0.2547
0.228165
0.191431
0.156582
0.127891
0.10499
0.0942368
0.0838638
0.0804712
0.0755343
0.0768625
0.0731658
0.0804336
0.0817038
0.0897075
0.0912273
0.0989066
0.098282
0.109385
0.111591
0.118916
0.133097
0.127331
0.138115
0.116936
0.130832
0.101223
-8.05673e-05
-9.0301e-06
-8.83734e-06
-6.88734e-07
-6.97225e-07
4.40837e-06
4.45385e-06
3.69922e-06
1.04653e-05
6.52132e-06
6.63017e-06
1.15071e-05
9.87141e-06
1.39242e-05
1.81684e-05
3.50096e-05
1.86717e-05
4.96756e-05
3.7159e-05
6.44216e-05
5.76699e-05
7.30246e-05
7.75427e-05
9.37875e-05
0.000106249
0.000121283
0.00013205
0.000150476
0.000159547
0.000162708
0.000178953
0.000176981
0.000175462
0.000151215
0.000117875
6.13346e-05
5.74255e-05
1.2278e-05
-3.92056e-05
-0.000148328
-7.12441e-05
-0.000141788
-2.36025e-05
0.000203132
0.00012448
0.00175931
0.0179938
0.101974
0.138931
-0.016935
-0.0997986
-0.164022
-0.178604
-0.183782
-0.181958
-0.166258
-0.144629
-0.14427
-0.124705
-0.111464
-0.0986791
-0.0791351
-0.0686733
-0.0530992
-0.0426287
-0.036246
-0.0313359
-0.0273123
-0.0223178
-0.0193643
-0.0183847
-0.0182436
-0.0175928
-0.015963
-0.0132062
-0.00634331
0.00607699
0.0271561
0.0494854
0.0764401
0.113087
0.139936
0.169989
0.217998
0.281227
0.331779
0.351732
0.386238
0.393635
0.389199
0.353723
0.341212
0.300165
0.261782
0.21871
0.182297
0.146064
0.120374
0.10391
0.0899949
0.0858447
0.0868459
0.0900194
0.0957628
0.0997558
0.102854
0.109871
0.102987
0.116652
0.113407
0.12264
0.126692
0.13598
0.140096
0.140296
0.14793
0.128675
0.143231
0.111846
-8.79881e-05
-1.03593e-05
-1.02985e-05
-2.45866e-07
7.28874e-08
5.36455e-06
4.60051e-06
3.48115e-06
1.08459e-05
9.03839e-06
9.66183e-06
1.31667e-05
1.50005e-05
1.6131e-05
2.59949e-05
4.1237e-05
2.51053e-05
5.52912e-05
4.46521e-05
7.30874e-05
6.69206e-05
8.92107e-05
9.92176e-05
0.000118261
0.000145534
0.000169781
0.000193391
0.000224916
0.000261998
0.000305532
0.00036088
0.000429821
0.000499392
0.000604642
0.000691151
0.000853489
0.000951754
0.00121119
0.00139227
0.00179701
0.00212642
0.00287687
0.00360321
0.00516806
0.0078833
0.012275
0.0555923
0.223786
0.249752
-0.00867482
-0.202751
-0.261624
-0.272032
-0.265351
-0.251262
-0.219147
-0.195725
-0.183977
-0.15987
-0.145745
-0.12404
-0.0995779
-0.0870637
-0.068144
-0.0526299
-0.0429924
-0.0362048
-0.028084
-0.0208059
-0.0185799
-0.0161523
-0.0142042
-0.012682
-0.00977927
-0.00431739
0.00645889
0.0197097
0.0373005
0.0682826
0.109213
0.148628
0.180398
0.246745
0.310815
0.356651
0.405978
0.423664
0.463554
0.444294
0.474306
0.434617
0.435863
0.37528
0.325644
0.269877
0.217605
0.175823
0.141627
0.120294
0.105934
0.102569
0.102984
0.106802
0.116405
0.120634
0.128006
0.132291
0.133205
0.140163
0.135711
0.139293
0.135177
0.140683
0.145094
0.146398
0.148128
0.133005
0.146672
0.12374
-8.6134e-05
-1.11538e-05
-1.12168e-05
-1.26622e-06
-1.48167e-07
6.61362e-06
5.42139e-06
5.84392e-06
1.30484e-05
8.9017e-06
1.0194e-05
1.76229e-05
1.81846e-05
1.96984e-05
2.92786e-05
3.87957e-05
3.33172e-05
6.03017e-05
5.62739e-05
8.93384e-05
8.76058e-05
0.000111214
0.000114698
0.000134672
0.000153222
0.00018038
0.000204221
0.000229984
0.000253229
0.000284183
0.000307117
0.00032353
0.000355904
0.000377545
0.000397585
0.000393601
0.000420533
0.000449911
0.0005455
0.000638844
0.000851596
0.0014838
0.00185954
0.00371959
0.00408318
0.0150313
0.0452978
0.265688
0.427124
-0.00771668
-0.249258
-0.307141
-0.304633
-0.292271
-0.264592
-0.23079
-0.211646
-0.19194
-0.167116
-0.158671
-0.134751
-0.111708
-0.0870898
-0.0649762
-0.0524685
-0.04496
-0.0387027
-0.0298137
-0.0243303
-0.0219736
-0.0210592
-0.0205936
-0.0190014
-0.0167917
-0.0126527
-0.00480844
0.011846
0.0379525
0.0713531
0.115703
0.159716
0.223755
0.286993
0.356152
0.415758
0.474403
0.486482
0.525757
0.516528
0.537499
0.515947
0.503977
0.457977
0.396602
0.327639
0.258472
0.206075
0.167714
0.140349
0.124084
0.117726
0.119919
0.125385
0.138731
0.142239
0.15487
0.159497
0.162824
0.167879
0.157964
0.163089
0.148638
0.154478
0.154291
0.14866
0.149977
0.134425
0.15099
0.13081
-8.90975e-05
-1.15009e-05
-1.16529e-05
-6.35242e-07
6.03512e-07
7.04513e-06
5.73485e-06
6.04726e-06
1.44217e-05
1.23679e-05
1.24586e-05
1.62207e-05
2.4756e-05
2.27046e-05
3.55867e-05
3.99905e-05
4.10351e-05
6.5086e-05
7.06744e-05
9.51526e-05
9.93185e-05
0.000123618
0.000134334
0.000154953
0.000187218
0.000222964
0.000252044
0.000286798
0.000330002
0.000376079
0.000435367
0.000487813
0.000547353
0.000633256
0.000720007
0.00084876
0.00093512
0.00114954
0.00130429
0.0017041
0.00208193
0.00288081
0.00382321
0.00627106
0.00691366
0.0172972
0.0266737
0.202051
0.405852
-0.0520857
-0.357533
-0.380207
-0.369367
-0.347626
-0.312457
-0.271415
-0.24824
-0.215211
-0.190305
-0.168173
-0.142576
-0.118943
-0.0931227
-0.0723923
-0.0560935
-0.0460853
-0.0371191
-0.0305181
-0.0239334
-0.0207283
-0.0185267
-0.0169479
-0.0150897
-0.0119941
-0.00660158
0.00251978
0.0206174
0.046787
0.0812565
0.129278
0.186952
0.265744
0.339702
0.422856
0.480211
0.525651
0.557227
0.579848
0.593747
0.588405
0.606913
0.579904
0.567656
0.497054
0.420889
0.329122
0.262247
0.205096
0.16689
0.143696
0.132744
0.135
0.141578
0.161269
0.169225
0.182362
0.185349
0.189481
0.197171
0.185913
0.189784
0.163025
0.166761
0.155836
0.154654
0.149606
0.13683
0.152612
0.136325
-8.43783e-05
-1.10635e-05
-1.22721e-05
-1.30806e-06
8.01126e-07
7.60642e-06
8.33358e-06
7.37671e-06
1.42183e-05
1.27831e-05
1.45933e-05
2.12627e-05
2.71382e-05
2.66478e-05
3.99273e-05
4.44082e-05
5.42565e-05
7.11657e-05
8.43804e-05
0.00010386
0.000113669
0.000141937
0.000154667
0.000180697
0.000208855
0.000240694
0.00027509
0.000311916
0.0003501
0.000391146
0.000436134
0.000483737
0.000528872
0.000580567
0.000641064
0.000710106
0.000723688
0.000737863
0.000646898
0.000773052
0.000674038
0.000422852
2.38773e-05
-0.000801214
-0.00106208
-0.00365623
-0.000324562
0.0293336
0.112671
-0.0953826
-0.284937
-0.33456
-0.341844
-0.335446
-0.312891
-0.28113
-0.252349
-0.220403
-0.196478
-0.169688
-0.145204
-0.119726
-0.0957077
-0.0752663
-0.0597028
-0.0456555
-0.0365874
-0.0304266
-0.0253633
-0.0216476
-0.0205876
-0.0194999
-0.0176352
-0.0147748
-0.00926425
0.000941548
0.0185435
0.0451482
0.0863861
0.135302
0.217771
0.311381
0.397074
0.490218
0.536879
0.569743
0.611676
0.625743
0.651938
0.6435
0.674215
0.646451
0.647488
0.600583
0.53395
0.442219
0.344168
0.25334
0.201965
0.171242
0.157556
0.154227
0.160515
0.175469
0.186806
0.204744
0.210467
0.224323
0.229046
0.217324
0.215185
0.179589
0.185612
0.163081
0.159339
0.149322
0.141627
0.15371
0.141959
-8.36031e-05
-9.9674e-06
-1.14092e-05
-4.619e-07
1.70769e-06
8.1868e-06
8.26771e-06
6.85875e-06
1.69371e-05
1.63896e-05
1.59371e-05
2.03273e-05
3.07067e-05
2.74991e-05
4.63175e-05
4.65925e-05
6.04294e-05
7.19433e-05
9.29086e-05
0.000110052
0.000127642
0.000153537
0.000171414
0.000192274
0.00023115
0.00027164
0.000313029
0.000350522
0.000389146
0.000435368
0.000487829
0.000542495
0.000592512
0.000653106
0.00069649
0.000779982
0.000798051
0.000887809
0.000798021
0.000869325
0.000634067
0.00055337
-0.000273115
-0.00126434
-0.00294403
-0.00575595
-0.0113455
-0.0471099
-0.22156
-0.365845
-0.31047
-0.313238
-0.319873
-0.32609
-0.30685
-0.27956
-0.249877
-0.222036
-0.197987
-0.172644
-0.147237
-0.120255
-0.0964052
-0.0758338
-0.0607209
-0.0473641
-0.0377382
-0.0305644
-0.0256244
-0.0221069
-0.0204884
-0.0188268
-0.0168758
-0.0131911
-0.0065739
0.00494845
0.0234776
0.0530511
0.0955107
0.155519
0.260202
0.379309
0.463868
0.532612
0.593053
0.62803
0.669839
0.685479
0.708538
0.707094
0.729302
0.716996
0.705679
0.680659
0.62879
0.553929
0.436564
0.326554
0.251135
0.199852
0.179679
0.167572
0.174295
0.187712
0.205053
0.225425
0.232638
0.248623
0.246792
0.257261
0.241451
0.216429
0.20433
0.168098
0.167885
0.149566
0.146986
0.154443
0.148919
-7.70769e-05
-8.5823e-06
-1.1381e-05
-8.10932e-07
1.67813e-06
8.82549e-06
1.06864e-05
9.93697e-06
1.4406e-05
1.63794e-05
1.97843e-05
2.36619e-05
3.30324e-05
3.46533e-05
4.61944e-05
5.34853e-05
7.67314e-05
7.91698e-05
0.000109416
0.000124549
0.000145855
0.000174507
0.000196068
0.000221157
0.000263956
0.000305082
0.000346935
0.000387648
0.000435108
0.000489501
0.000548766
0.000618033
0.000690394
0.000766276
0.000862269
0.000905554
0.00103487
0.00108039
0.00118643
0.00106306
0.0010295
0.000808843
0.000913644
0.000545718
0.000241211
-0.00215112
-0.0118355
-0.100888
-0.493695
-0.51387
-0.416684
-0.34427
-0.335938
-0.33952
-0.321072
-0.292696
-0.258618
-0.23108
-0.202223
-0.176701
-0.151194
-0.123753
-0.0973573
-0.0767834
-0.0603882
-0.0467377
-0.0379241
-0.0301634
-0.0268902
-0.0234106
-0.0215363
-0.0195456
-0.0169978
-0.0129057
-0.0063369
0.0069346
0.0280689
0.0598661
0.109179
0.194946
0.318454
0.436143
0.530979
0.58256
0.631627
0.67208
0.701009
0.731246
0.76103
0.778382
0.771839
0.789304
0.767778
0.76486
0.724559
0.659867
0.554249
0.415877
0.305875
0.235529
0.201341
0.185785
0.191452
0.206948
0.220049
0.246244
0.252891
0.285616
0.278311
0.305917
0.276771
0.261078
0.223923
0.191482
0.178034
0.153868
0.155569
0.157486
0.156451
-7.36149e-05
-6.00504e-06
-9.20625e-06
4.6913e-07
2.53564e-06
9.00346e-06
1.02262e-05
1.32235e-05
1.50005e-05
2.11914e-05
2.02867e-05
2.3035e-05
3.97339e-05
3.79465e-05
4.99776e-05
5.8159e-05
8.11337e-05
8.13582e-05
0.000111026
0.000128509
0.000154433
0.000179735
0.000206924
0.000228977
0.000271417
0.000319749
0.000364968
0.000409909
0.00045015
0.000492853
0.000533707
0.00059361
0.000637876
0.000678132
0.000697392
0.00071433
0.000717499
0.000697368
0.000682021
0.000551382
0.000714606
0.000463626
0.000811542
0.000464662
0.00155613
-0.0014053
-0.0138013
-0.15646
-0.646483
-0.665716
-0.546995
-0.433964
-0.387116
-0.366823
-0.335254
-0.306015
-0.275601
-0.247427
-0.213657
-0.186155
-0.157545
-0.127134
-0.0988906
-0.0753327
-0.0604155
-0.048076
-0.0371369
-0.0307696
-0.0275646
-0.0235063
-0.0206761
-0.0190663
-0.0165417
-0.0119566
-0.00369304
0.010336
0.0331345
0.0677575
0.126974
0.251398
0.390243
0.51381
0.589531
0.64316
0.688246
0.726894
0.747789
0.780755
0.788352
0.817799
0.816854
0.833119
0.816299
0.808064
0.785766
0.730373
0.654734
0.536354
0.398221
0.29906
0.239466
0.211715
0.207688
0.218845
0.232418
0.259387
0.270427
0.29946
0.301925
0.324879
0.314137
0.306157
0.26317
0.217182
0.192438
0.164886
0.166027
0.160751
0.166479
-6.61474e-05
-3.72355e-06
-7.93575e-06
9.13028e-07
2.88068e-06
9.49184e-06
1.38271e-05
1.29728e-05
1.60397e-05
2.20765e-05
2.57274e-05
2.55101e-05
4.02403e-05
4.41957e-05
5.19167e-05
6.40861e-05
9.20745e-05
9.47845e-05
0.000125609
0.000147167
0.000180239
0.000205522
0.00023167
0.00026393
0.00031279
0.000361686
0.000414585
0.000463113
0.00051489
0.000570205
0.000635101
0.000718915
0.000805034
0.0009275
0.00101559
0.0011491
0.00126991
0.00142413
0.00161256
0.00178084
0.00215521
0.00236449
0.00295278
0.00278537
0.00322048
-0.00174688
-0.0284044
-0.268321
-0.771817
-0.760287
-0.681667
-0.556315
-0.448995
-0.391826
-0.341474
-0.316238
-0.283818
-0.252397
-0.215586
-0.184675
-0.151562
-0.121487
-0.0946312
-0.0726561
-0.0573963
-0.0443281
-0.0343533
-0.0289296
-0.0247487
-0.0222105
-0.0203488
-0.0188385
-0.016771
-0.0111763
-0.00125343
0.0143329
0.0405788
0.0862883
0.174358
0.322246
0.480691
0.577441
0.634508
0.694397
0.734555
0.773826
0.796966
0.822315
0.834943
0.849772
0.865572
0.864958
0.86791
0.852011
0.842955
0.800057
0.741262
0.640098
0.50228
0.369447
0.280149
0.240491
0.226114
0.23265
0.245896
0.272062
0.289521
0.317319
0.329974
0.346455
0.34877
0.345659
0.307008
0.253368
0.21999
0.18106
0.178024
0.166709
0.177102
-6.05058e-05
-3.38746e-07
-5.50171e-06
2.59314e-06
4.3259e-06
9.8281e-06
1.37279e-05
1.42318e-05
1.74971e-05
2.34768e-05
2.51168e-05
2.81784e-05
4.13939e-05
5.13173e-05
5.28322e-05
6.8377e-05
9.28629e-05
0.000101392
0.000126719
0.000150296
0.000183785
0.000208651
0.000240773
0.000272112
0.000307155
0.000355654
0.000409085
0.00046458
0.000507043
0.00055198
0.000590415
0.00063349
0.000683992
0.000725524
0.000759223
0.000756505
0.000741747
0.000682028
0.000686251
0.000501138
0.000424912
-6.75882e-06
-0.000184959
-0.00100504
-0.00245419
-0.0104303
-0.0635696
-0.440121
-0.803767
-0.804979
-0.760163
-0.681592
-0.562485
-0.446458
-0.379979
-0.346862
-0.306829
-0.277762
-0.23734
-0.199693
-0.158968
-0.125773
-0.0976767
-0.0760191
-0.0596702
-0.0457653
-0.0356772
-0.0295328
-0.0247471
-0.0231541
-0.0219954
-0.0200554
-0.016197
-0.0101369
0.00024386
0.0191347
0.0523231
0.122148
0.258305
0.43892
0.563903
0.638783
0.696989
0.747884
0.79564
0.821504
0.834581
0.857675
0.877202
0.885437
0.897579
0.89171
0.907008
0.891358
0.880955
0.854852
0.806672
0.727365
0.613145
0.454306
0.333151
0.271088
0.247718
0.246845
0.259989
0.284405
0.305803
0.331801
0.352971
0.368842
0.381245
0.382158
0.359323
0.299836
0.255179
0.202578
0.19004
0.176441
0.188114
-5.27244e-05
2.90697e-06
-3.18221e-06
3.47789e-06
5.09961e-06
1.04077e-05
1.54684e-05
1.68488e-05
1.5522e-05
2.62668e-05
3.10103e-05
2.78163e-05
4.69654e-05
5.56594e-05
5.95617e-05
7.44867e-05
0.000101996
0.000116817
0.000137727
0.000166683
0.000202123
0.000234921
0.000267962
0.000305564
0.000354538
0.000406829
0.000461545
0.000523557
0.000584677
0.000642398
0.000705589
0.000768094
0.0008755
0.00098756
0.00111802
0.00124994
0.00141464
0.00160102
0.00183113
0.00212925
0.00247004
0.00294792
0.00351971
0.00460696
0.00343726
-0.0048109
-0.10064
-0.565172
-0.802979
-0.82265
-0.805103
-0.752767
-0.685883
-0.57245
-0.471438
-0.391891
-0.345207
-0.297594
-0.252513
-0.205324
-0.162458
-0.123936
-0.0962334
-0.0760422
-0.0593385
-0.0476919
-0.0349888
-0.0270483
-0.0223559
-0.0216718
-0.0218186
-0.0199697
-0.0152737
-0.00885736
0.00393666
0.0255486
0.0756471
0.184557
0.388731
0.551859
0.642223
0.706548
0.772053
0.804347
0.823434
0.853671
0.879397
0.899505
0.919015
0.919821
0.928971
0.928437
0.934464
0.934294
0.915513
0.898887
0.857805
0.797436
0.697158
0.544795
0.40094
0.317811
0.278539
0.265496
0.275975
0.295791
0.321654
0.349161
0.375329
0.390646
0.408982
0.408645
0.401973
0.343612
0.295725
0.228331
0.209017
0.19117
0.202719
-4.57394e-05
6.67253e-06
-5.55204e-08
5.73235e-06
6.99421e-06
1.14731e-05
1.61501e-05
1.85509e-05
1.85914e-05
2.55707e-05
3.16928e-05
3.06792e-05
4.8485e-05
5.95959e-05
6.37342e-05
7.40071e-05
0.000102665
0.000120463
0.000137693
0.000171038
0.000207051
0.000231572
0.000270224
0.000307766
0.000352483
0.000394405
0.000433605
0.000501358
0.00055626
0.000608827
0.000646263
0.000668956
0.000721487
0.000788439
0.000846004
0.000883117
0.000901643
0.000932039
0.000934433
0.000987445
0.000941207
0.00115095
0.000824739
0.00110669
-0.00260447
-0.0205765
-0.201508
-0.718861
-0.813602
-0.817962
-0.815761
-0.794682
-0.750743
-0.672015
-0.590091
-0.466464
-0.392085
-0.322943
-0.268569
-0.212579
-0.161759
-0.122348
-0.0953475
-0.0735252
-0.0582449
-0.0420895
-0.0306931
-0.0205633
-0.0180994
-0.0193513
-0.0215492
-0.0205873
-0.0155188
-0.00679981
0.00961525
0.0535246
0.142051
0.339322
0.533186
0.655867
0.738824
0.79118
0.824582
0.845681
0.871938
0.889987
0.907787
0.923195
0.934534
0.946654
0.954212
0.961613
0.952323
0.959102
0.946202
0.933617
0.905429
0.856296
0.775976
0.652571
0.492346
0.375688
0.313496
0.289316
0.29274
0.308135
0.334186
0.362922
0.39215
0.413047
0.430716
0.439495
0.435282
0.390074
0.342195
0.265192
0.238166
0.209302
0.221244
-3.78238e-05
1.10676e-05
2.9755e-06
7.39695e-06
8.27685e-06
1.22899e-05
1.73516e-05
1.95222e-05
1.80173e-05
2.88405e-05
3.59228e-05
3.26357e-05
4.93921e-05
6.41921e-05
7.05211e-05
8.49734e-05
0.000110537
0.000134772
0.000152253
0.0001836
0.000224004
0.000257962
0.000292248
0.000335508
0.000392315
0.000451574
0.000495183
0.000555103
0.000621156
0.000691105
0.000762507
0.00082706
0.00087927
0.000999114
0.00109885
0.00124446
0.0013143
0.00145015
0.00156841
0.00176272
0.00177514
0.00177698
0.00140161
0.000801741
-0.00564965
-0.0445605
-0.359163
-0.79853
-0.824049
-0.822804
-0.816358
-0.805601
-0.791143
-0.753013
-0.676524
-0.597309
-0.473102
-0.38675
-0.294999
-0.224845
-0.162011
-0.124536
-0.095154
-0.0708867
-0.053081
-0.0363309
-0.0245402
-0.0156202
-0.0156898
-0.0187588
-0.0225496
-0.0186713
-0.00351802
0.022356
0.0620419
0.15462
0.334417
0.526769
0.664279
0.738857
0.804048
0.845254
0.868436
0.894117
0.910534
0.927649
0.950297
0.959236
0.965007
0.975584
0.982052
0.988673
0.986978
0.984578
0.980443
0.963455
0.945028
0.902583
0.836066
0.730715
0.574694
0.427226
0.344163
0.310657
0.306428
0.320663
0.344427
0.377463
0.403317
0.433084
0.44735
0.463739
0.459466
0.428252
0.383597
0.304335
0.271468
0.231785
0.241373
-3.03187e-05
1.47412e-05
6.43942e-06
9.97036e-06
1.04802e-05
1.32651e-05
1.82552e-05
2.05813e-05
2.13163e-05
2.6643e-05
3.63296e-05
3.60116e-05
4.77432e-05
6.65086e-05
7.07933e-05
8.63433e-05
0.000113295
0.000134099
0.000153519
0.000183765
0.000229183
0.00025447
0.00028983
0.000330503
0.000384839
0.000430954
0.000462722
0.000517026
0.000586452
0.000640096
0.000697576
0.000721903
0.000747756
0.000800011
0.000895589
0.000929505
0.00102228
0.00102126
0.0011292
0.00116001
0.00126646
0.00121883
0.00137737
-0.000151191
-0.00875068
-0.0869417
-0.529993
-0.814549
-0.845841
-0.8448
-0.83623
-0.824663
-0.813699
-0.789606
-0.760685
-0.68205
-0.591242
-0.457471
-0.358272
-0.248704
-0.171253
-0.121002
-0.0837447
-0.0608381
-0.0500693
-0.0350201
-0.0272439
-0.00869061
0.00697825
0.0118897
0.0161978
0.0442
0.0890025
0.182488
0.306266
0.415288
0.539865
0.628957
0.710474
0.781319
0.823912
0.859667
0.88479
0.908625
0.931204
0.951478
0.962523
0.977989
0.98662
0.991658
0.996695
0.996854
1.00553
1.00083
1.00225
0.986291
0.972509
0.94321
0.89376
0.807321
0.668576
0.499863
0.393091
0.342847
0.328292
0.338513
0.35853
0.390788
0.419911
0.449708
0.469255
0.482812
0.487175
0.463861
0.428157
0.347977
0.312348
0.258437
0.265329
-2.19461e-05
2.00003e-05
1.01193e-05
1.22902e-05
1.24e-05
1.51973e-05
1.8496e-05
2.30995e-05
2.03854e-05
3.03764e-05
3.80425e-05
3.93487e-05
5.17984e-05
7.05937e-05
8.05252e-05
9.25824e-05
0.000120196
0.000149143
0.000164421
0.000194554
0.000239381
0.000282586
0.0003117
0.000356494
0.000410346
0.000475473
0.000522908
0.000570932
0.000628022
0.000703178
0.000765771
0.000850138
0.000875609
0.000958377
0.00102164
0.00113612
0.00122121
0.00123505
0.00130668
0.0014324
0.00179775
0.00166498
0.00221421
-0.000292318
-0.0133491
-0.155501
-0.67596
-0.831147
-0.84927
-0.848804
-0.844204
-0.840636
-0.83268
-0.818108
-0.791361
-0.762298
-0.693723
-0.592653
-0.43339
-0.29689
-0.189039
-0.111616
-0.0729029
-0.0372883
-0.0299209
-0.00442211
0.0347285
0.0609018
0.114576
0.195706
0.248408
0.274264
0.340064
0.40984
0.483295
0.543665
0.602967
0.655723
0.706885
0.756154
0.799039
0.841732
0.889307
0.929946
0.959255
0.977933
0.984314
0.993306
1.00515
1.01662
1.02309
1.02246
1.02845
1.02855
1.02528
1.0157
0.999232
0.975112
0.933129
0.859462
0.738387
0.572835
0.438159
0.371686
0.347819
0.353398
0.371624
0.399799
0.430765
0.459022
0.486967
0.4969
0.509745
0.491208
0.467406
0.392644
0.351201
0.282996
0.287029
-1.51872e-05
2.36377e-05
1.3789e-05
1.52046e-05
1.47648e-05
1.61265e-05
1.94411e-05
2.2384e-05
2.42519e-05
2.6688e-05
3.95316e-05
4.12203e-05
4.94128e-05
7.12842e-05
8.11351e-05
9.36554e-05
0.000117323
0.00014874
0.000166853
0.000194299
0.000238252
0.000276089
0.000304215
0.000344032
0.000399089
0.000454536
0.00048853
0.00052338
0.000584816
0.000651392
0.000713624
0.000742353
0.00076336
0.000771907
0.000868844
0.00089974
0.000979692
0.000953603
0.00103069
0.000880129
0.000912537
0.000526026
-1.95406e-06
-0.00628859
-0.037342
-0.306116
-0.793912
-0.83781
-0.844316
-0.844578
-0.841601
-0.837684
-0.834816
-0.831353
-0.82201
-0.79969
-0.757345
-0.688069
-0.552466
-0.370709
-0.195904
-0.0789054
-0.0149582
0.0563356
0.147457
0.194524
0.254498
0.286875
0.341618
0.39396
0.431406
0.44403
0.475233
0.51877
0.559347
0.588477
0.623396
0.651927
0.683655
0.71562
0.746137
0.792476
0.843999
0.881565
0.915571
0.948072
0.97526
0.99347
1.0048
1.01425
1.02298
1.03481
1.0364
1.04198
1.03512
1.03357
1.01958
1.00025
0.966429
0.906421
0.803538
0.651911
0.493605
0.407775
0.374159
0.372399
0.387084
0.412116
0.441986
0.474643
0.498787
0.518202
0.530305
0.523705
0.506359
0.434695
0.390292
0.311339
0.311628
-5.81533e-06
2.91435e-05
1.77696e-05
1.78633e-05
1.72786e-05
1.77579e-05
2.05184e-05
2.38782e-05
2.49259e-05
3.03143e-05
4.08326e-05
4.45702e-05
5.20231e-05
7.38815e-05
9.03557e-05
0.000100103
0.000124903
0.000158809
0.00017994
0.00020285
0.000246843
0.000295438
0.000327664
0.000365057
0.000416398
0.000480026
0.000533915
0.0005699
0.000611282
0.000686775
0.000739161
0.000809366
0.000833073
0.000869487
0.000872991
0.000980731
0.000978737
0.00100346
0.000937802
0.000765487
0.000396651
9.45368e-05
-0.00173114
-0.010585
-0.0758771
-0.494833
-0.816324
-0.850418
-0.855586
-0.854158
-0.851983
-0.849425
-0.847735
-0.846699
-0.840581
-0.828937
-0.800573
-0.741266
-0.616173
-0.367979
-0.0718511
0.0999755
0.226199
0.269595
0.353643
0.389876
0.428226
0.439194
0.468372
0.483397
0.506238
0.519727
0.538856
0.564325
0.585093
0.604034
0.624577
0.644577
0.666486
0.689972
0.714922
0.748736
0.786175
0.834017
0.891839
0.945956
0.987227
1.00985
1.02388
1.03315
1.03929
1.0474
1.05505
1.05834
1.05774
1.05241
1.04395
1.02552
0.995536
0.943908
0.857814
0.724486
0.550802
0.446586
0.39874
0.388908
0.400782
0.423714
0.450179
0.489132
0.507572
0.540404
0.544411
0.556555
0.538257
0.477751
0.429104
0.340509
0.337327
1.08109e-08
3.28263e-05
2.12949e-05
2.0772e-05
1.95704e-05
1.97939e-05
1.94273e-05
2.3671e-05
2.76202e-05
2.64263e-05
4.12767e-05
4.5969e-05
4.82324e-05
7.22518e-05
9.03058e-05
9.78195e-05
0.000119909
0.000156746
0.000180019
0.000200567
0.000240614
0.000284383
0.000315339
0.000346498
0.000398829
0.000458605
0.00050401
0.000520497
0.000564086
0.000630189
0.000689169
0.000721968
0.0007305
0.000717231
0.00068849
0.000781207
0.000801899
0.000877458
0.0008978
0.00114285
0.00108868
0.00143915
-0.00103955
-0.0135661
-0.135073
-0.637835
-0.829935
-0.85797
-0.862239
-0.861324
-0.858992
-0.856684
-0.856005
-0.854359
-0.848128
-0.834692
-0.800742
-0.712834
-0.500526
-0.11958
0.185638
0.326029
0.391305
0.444366
0.477578
0.494512
0.514649
0.531851
0.555059
0.558693
0.569577
0.572762
0.581903
0.589744
0.60142
0.61381
0.628322
0.642473
0.65713
0.673735
0.69206
0.716169
0.741385
0.779919
0.829631
0.890168
0.938111
0.966474
0.990549
1.01184
1.03055
1.04287
1.05223
1.05651
1.06155
1.05995
1.05657
1.0438
1.01996
0.978574
0.905905
0.782244
0.606591
0.483697
0.424641
0.40716
0.416604
0.439283
0.463782
0.502388
0.523227
0.557327
0.56566
0.584151
0.566684
0.522267
0.467464
0.373389
0.36444
8.99135e-06
3.83019e-05
2.54528e-05
2.40299e-05
2.25986e-05
2.09493e-05
2.19692e-05
2.36692e-05
2.99484e-05
2.87979e-05
4.05251e-05
5.10787e-05
5.20249e-05
7.20973e-05
9.77521e-05
0.000107891
0.000123672
0.000164336
0.000190865
0.000210451
0.000245552
0.00030094
0.00033392
0.000362987
0.000408161
0.000472152
0.000526934
0.000566141
0.00057987
0.0006322
0.000696952
0.000756779
0.000774781
0.00081833
0.000809268
0.000883467
0.000889863
0.00101569
0.00092327