/*--------------------------------*- C++ -*----------------------------------*\
| =========                 |                                                 |
| \\      /  F ield         | OpenFOAM: The Open Source CFD Toolbox           |
|  \\    /   O peration     | Version:  2.2.x                                 |
|   \\  /    A nd           | Web:      www.OpenFOAM.org                      |
|    \\/     M anipulation  |                                                 |
\*---------------------------------------------------------------------------*/
FoamFile
{
    version     2.0;
    format      ascii;
    class       volScalarField;
    location    "1.45";
    object      Bz;
}
// * * * * * * * * * * * * * * * * * * * * * * * * * * * * * * * * * * * * * //

dimensions      [1 0 -2 0 0 -1 0];

internalField   nonuniform List<scalar> 
14161
(
-2.16532e-20
-2.17774e-20
-2.15797e-20
-2.13118e-20
-2.0184e-20
-2.23053e-20
-2.02203e-20
-2.05035e-20
-2.04149e-20
-1.95747e-20
-2.14011e-20
-1.94927e-20
-2.14835e-20
-1.96371e-20
-2.00281e-20
-1.93784e-20
-1.95501e-20
-1.94009e-20
-1.90802e-20
-1.89463e-20
-1.90889e-20
-1.84601e-20
-1.85425e-20
-1.82231e-20
-1.82242e-20
-1.79515e-20
-1.77721e-20
-1.77359e-20
-1.75393e-20
-1.76808e-20
-1.72301e-20
-1.72683e-20
-1.71291e-20
-1.70987e-20
-1.69254e-20
-1.6927e-20
-1.68423e-20
-1.67997e-20
-1.67739e-20
-1.66815e-20
-1.66026e-20
-1.65764e-20
-1.64592e-20
-1.66228e-20
-1.60802e-20
-1.63406e-20
7.81316e-20
7.43499e-19
3.25375e-18
3.58793e-18
2.53102e-18
2.07008e-18
1.87365e-18
1.64542e-18
1.55288e-18
1.31172e-18
1.15913e-18
1.02559e-18
9.2836e-19
8.37821e-19
7.44557e-19
6.14785e-19
5.40525e-19
4.78773e-19
4.58411e-19
4.54779e-19
4.42035e-19
4.23132e-19
4.13225e-19
4.21873e-19
4.42588e-19
4.59974e-19
4.69647e-19
4.72257e-19
4.76326e-19
4.83373e-19
5.08129e-19
5.62879e-19
6.54805e-19
7.62245e-19
9.18206e-19
1.06318e-18
1.14307e-18
1.28407e-18
1.4338e-18
1.52019e-18
1.58826e-18
1.62224e-18
1.64127e-18
1.6576e-18
1.64306e-18
1.63988e-18
1.82049e-18
2.15202e-18
2.47483e-18
2.48068e-18
2.36106e-18
2.24396e-18
1.99063e-18
1.7774e-18
1.58478e-18
1.29587e-18
1.13869e-18
9.41458e-19
8.43848e-19
8.24453e-19
6.72153e-19
6.89548e-19
5.66964e-19
6.51465e-19
6.4172e-19
8.59976e-19
7.93559e-19
1.1677e-18
1.18229e-18
2.05035e-18
1.93194e-18
2.46085e-18
2.01456e-18
4.30631e-20
4.39027e-20
4.38393e-20
4.30445e-20
4.33173e-20
4.192e-20
4.42483e-20
4.00114e-20
4.47337e-20
4.00549e-20
4.42334e-20
3.98113e-20
4.49709e-20
4.0654e-20
4.18183e-20
3.91321e-20
4.25393e-20
3.96837e-20
4.10914e-20
3.93522e-20
3.94243e-20
4.02906e-20
3.89716e-20
3.87483e-20
4.00107e-20
4.02738e-20
3.962e-20
4.01458e-20
3.89303e-20
4.01837e-20
3.90484e-20
3.96241e-20
3.95759e-20
3.94473e-20
3.89009e-20
3.94153e-20
3.89027e-20
3.9063e-20
3.88033e-20
3.89819e-20
3.86749e-20
3.87224e-20
3.85394e-20
3.87779e-20
3.80514e-20
3.82604e-20
6.89032e-20
1.0084e-19
3.3704e-18
3.0565e-18
2.01085e-18
1.41158e-18
1.06281e-18
8.89949e-19
6.41467e-19
6.2777e-19
4.83125e-19
4.63486e-19
4.40721e-19
4.21014e-19
4.86944e-19
4.57505e-19
5.65237e-19
5.59536e-19
6.69797e-19
7.84189e-19
8.54469e-19
9.35958e-19
1.04871e-18
1.16232e-18
1.30335e-18
1.39885e-18
1.57124e-18
1.69414e-18
1.86504e-18
2.06583e-18
2.20339e-18
2.34183e-18
2.45923e-18
2.55795e-18
2.54155e-18
2.37992e-18
2.14682e-18
1.84594e-18
1.63114e-18
1.28366e-18
8.03861e-19
3.38401e-19
8.66199e-20
-6.39419e-20
3.01462e-20
1.68721e-19
4.78073e-19
9.3706e-19
8.36079e-19
1.08643e-18
1.34918e-18
1.17518e-18
9.9506e-19
1.13773e-18
1.29525e-18
1.17392e-18
1.08304e-18
1.16414e-18
9.20477e-19
9.63312e-19
7.78987e-19
9.56313e-19
1.06976e-18
1.19253e-18
9.26661e-19
1.01226e-18
9.36498e-19
1.14051e-18
1.12396e-18
1.34799e-18
1.88176e-18
-1.50379e-19
-4.8632e-19
8.32315e-20
8.17679e-20
8.14062e-20
8.18045e-20
8.44133e-20
7.81452e-20
8.57286e-20
7.38076e-20
8.54363e-20
7.14676e-20
8.37906e-20
7.18308e-20
7.65917e-20
7.00436e-20
7.59702e-20
7.06969e-20
7.31972e-20
6.70145e-20
7.13549e-20
6.5229e-20
6.71263e-20
6.06853e-20
6.24857e-20
5.90179e-20
5.62081e-20
5.55976e-20
5.41624e-20
5.32775e-20
5.24136e-20
5.35202e-20
5.26727e-20
5.37794e-20
5.21854e-20
5.33912e-20
5.24819e-20
5.26402e-20
5.26415e-20
5.25475e-20
5.25683e-20
5.24736e-20
5.23826e-20
5.25327e-20
5.24202e-20
5.27427e-20
5.48745e-20
7.35868e-20
2.32588e-19
1.06176e-18
1.59687e-18
1.19282e-18
5.39283e-19
2.97315e-19
1.82082e-19
2.18303e-19
2.12256e-19
2.08808e-19
2.86458e-19
2.58167e-19
3.47202e-19
3.74804e-19
3.99313e-19
5.27798e-19
6.085e-19
6.53345e-19
8.35155e-19
1.11765e-18
1.33993e-18
1.48718e-18
1.67996e-18
1.82246e-18
1.97417e-18
2.09916e-18
2.19681e-18
2.27454e-18
2.3693e-18
2.41934e-18
2.4089e-18
2.33028e-18
2.16981e-18
1.81674e-18
1.28861e-18
7.19784e-19
-4.15412e-20
-6.45374e-19
-1.08939e-18
-1.97393e-18
-1.63452e-18
-2.3014e-18
-1.45814e-18
-2.12917e-18
-1.79326e-18
-1.14872e-18
-2.09732e-18
-1.07403e-18
-1.1042e-18
-1.41213e-18
-4.25463e-19
1.09496e-18
1.99529e-19
-5.27724e-19
-2.05141e-19
3.6682e-19
7.98212e-19
1.17324e-18
1.10101e-18
1.21462e-18
1.19464e-18
1.33538e-18
1.61494e-18
1.80684e-18
1.91209e-18
1.69845e-18
1.76655e-18
2.02082e-18
2.19226e-18
2.55288e-18
3.88584e-18
2.40755e-18
8.09781e-19
-4.49488e-20
-4.37869e-20
-4.2678e-20
-4.26611e-20
-4.39506e-20
-4.37721e-20
-4.70993e-20
-3.99209e-20
-4.5764e-20
-3.63325e-20
-4.33322e-20
-3.45821e-20
-4.38527e-20
-3.0517e-20
-3.8665e-20
-2.18366e-20
-3.57603e-20
-2.15965e-20
-3.62027e-20
-2.08635e-20
-2.26066e-20
-1.77557e-20
-1.79003e-20
-1.42376e-20
-1.20488e-20
-1.25831e-20
-8.80631e-21
-4.69592e-21
-2.32014e-21
-4.99638e-21
-4.52305e-21
-4.35834e-21
-3.90646e-21
-3.49242e-21
-2.66151e-21
-1.5612e-21
-1.7312e-21
-8.37074e-22
-3.12874e-22
-7.28012e-24
1.99305e-22
3.88048e-22
9.23414e-22
1.51288e-21
6.15106e-21
-3.01793e-20
1.73419e-20
1.3299e-18
1.92968e-18
1.60162e-18
3.70067e-20
1.66384e-19
2.19409e-19
2.99536e-19
3.51857e-19
3.88983e-19
3.96287e-19
3.73654e-19
4.17258e-19
4.67456e-19
4.86478e-19
5.64399e-19
6.63402e-19
7.12215e-19
7.88524e-19
1.09931e-18
1.24496e-18
1.37179e-18
1.57146e-18
1.69151e-18
1.93141e-18
2.08089e-18
2.19991e-18
2.24653e-18
2.36925e-18
2.45564e-18
2.4677e-18
2.38128e-18
2.15302e-18
1.74938e-18
1.06806e-18
1.55497e-19
-6.9524e-19
-1.6997e-18
-2.38486e-18
-2.87343e-18
-2.8499e-18
-3.53212e-18
-3.2063e-18
-3.22777e-18
-3.50607e-18
-2.56212e-18
-3.19583e-18
-2.90668e-18
-2.37589e-18
-2.21219e-18
-4.25246e-18
-2.21538e-18
-3.81281e-20
-1.95981e-18
-3.55337e-18
-2.64921e-18
-1.66312e-18
-9.33918e-19
-1.07253e-18
-1.00357e-18
-1.41864e-18
-1.01946e-18
-1.25005e-18
-1.53005e-19
-7.60711e-19
-3.17253e-19
7.09351e-22
2.85033e-19
1.49911e-18
1.51479e-18
1.32885e-18
1.00495e-18
7.19873e-19
1.08673e-20
1.35205e-20
1.2976e-20
1.54953e-20
1.1976e-20
3.14497e-20
3.13539e-20
3.80008e-20
3.08875e-20
5.4516e-20
3.25086e-20
5.58001e-20
6.51854e-20
5.9878e-20
7.15554e-20
5.5086e-20
7.98625e-20
7.16299e-20
8.58714e-20
7.671e-20
7.76805e-20
8.16063e-20
7.99779e-20
8.24266e-20
9.06425e-20
9.53558e-20
9.67987e-20
9.77016e-20
1.00126e-19
1.06513e-19
1.08589e-19
1.07985e-19
1.10496e-19
1.11487e-19
1.10262e-19
1.12496e-19
1.1376e-19
1.12995e-19
1.15258e-19
1.14979e-19
1.15784e-19
1.15199e-19
1.30246e-19
7.27116e-20
-9.62076e-20
-7.64238e-19
-3.1321e-18
5.34396e-18
7.10827e-18
3.15168e-18
4.583e-19
6.44392e-19
6.05605e-19
6.91844e-19
7.28586e-19
7.07406e-19
6.91022e-19
6.43304e-19
6.24409e-19
5.86038e-19
6.03439e-19
6.57347e-19
8.12185e-19
7.82739e-19
8.30358e-19
1.12509e-18
1.48002e-18
1.48013e-18
1.47866e-18
1.83084e-18
2.05112e-18
2.05488e-18
2.17859e-18
2.27696e-18
2.36114e-18
2.52757e-18
2.62918e-18
2.69679e-18
2.52534e-18
2.18175e-18
1.67543e-18
7.0325e-19
-3.57082e-19
-1.47927e-18
-2.01512e-18
-2.72651e-18
-3.01369e-18
-3.46728e-18
-3.73795e-18
-3.92401e-18
-4.37334e-18
-3.70202e-18
-3.83408e-18
-4.60656e-18
-3.95844e-18
-2.40858e-18
-5.38332e-18
-4.90213e-18
-1.25314e-18
-2.99219e-18
-4.76599e-18
-4.76155e-18
-3.5302e-18
-2.75373e-18
-2.82263e-18
-3.58259e-18
-3.78203e-18
-3.07843e-18
-2.73307e-18
-3.42743e-18
-2.52456e-18
-3.01563e-18
-9.75117e-19
-1.18722e-18
1.07249e-19
2.09318e-18
3.85855e-18
2.95696e-18
1.89288e-19
2.6327e-19
2.61934e-19
2.62946e-19
2.61818e-19
2.56597e-19
2.51814e-19
2.30919e-19
2.67547e-19
2.33651e-19
2.50535e-19
2.36756e-19
2.5896e-19
2.06614e-19
2.59774e-19
2.25424e-19
2.61619e-19
2.22439e-19
2.42835e-19
2.44261e-19
2.38672e-19
2.47311e-19
2.43761e-19
2.53301e-19
2.50198e-19
2.54714e-19
2.55936e-19
2.56646e-19
2.5491e-19
2.56235e-19
2.53394e-19
2.5628e-19
2.54224e-19
2.5509e-19
2.54493e-19
2.54312e-19
2.54074e-19
2.54167e-19
2.54374e-19
2.54127e-19
2.53847e-19
2.53641e-19
2.54974e-19
2.60074e-19
2.44593e-19
1.89911e-19
3.4772e-19
8.17915e-19
5.22082e-18
6.20977e-18
4.51093e-18
1.79517e-18
1.4146e-18
1.22132e-18
1.18337e-18
1.22223e-18
1.11106e-18
1.10293e-18
1.104e-18
1.04581e-18
1.05444e-18
1.01809e-18
9.41184e-19
1.11959e-18
1.05939e-18
1.0196e-18
9.67521e-19
1.18932e-18
1.18808e-18
1.06593e-18
1.04224e-18
1.17902e-18
1.15972e-18
1.14743e-18
1.23653e-18
1.33748e-18
1.51579e-18
1.78098e-18
2.0928e-18
2.39345e-18
2.67903e-18
2.66516e-18
2.0141e-18
1.01402e-18
-1.49777e-19
-1.12229e-18
-2.04798e-18
-2.37575e-18
-2.86919e-18
-3.48911e-18
-3.40145e-18
-3.99352e-18
-4.06058e-18
-3.37046e-18
-4.62343e-18
-4.21685e-18
-1.9935e-18
-5.6124e-18
-4.42815e-18
-1.29476e-18
-3.03071e-18
-4.452e-18
-3.91013e-18
-2.84812e-18
-2.76903e-18
-3.69586e-18
-3.70442e-18
-3.68923e-18
-2.82005e-18
-3.25228e-18
-4.11032e-18
-3.72105e-18
-3.89725e-18
-3.61564e-18
-1.48085e-18
-1.1731e-18
6.51413e-19
5.06892e-19
2.61067e-19
5.79901e-19
3.10485e-19
3.03573e-19
2.99964e-19
2.96169e-19
3.00971e-19
3.06848e-19
2.85675e-19
2.89582e-19
2.87857e-19
2.69337e-19
2.76861e-19
2.52827e-19
2.75906e-19
2.6381e-19
2.46011e-19
2.36169e-19
2.51691e-19
2.51218e-19
2.39919e-19
2.58318e-19
2.54066e-19
2.59559e-19
2.55137e-19
2.71059e-19
2.57673e-19
2.55934e-19
2.56409e-19
2.59307e-19
2.60842e-19
2.56127e-19
2.61279e-19
2.64098e-19
2.67707e-19
2.70545e-19
2.72025e-19
2.74541e-19
2.76095e-19
2.78772e-19
2.79421e-19
2.82851e-19
2.83773e-19
2.84313e-19
2.83382e-19
2.92418e-19
3.14346e-19
4.47394e-19
1.33502e-18
5.80166e-18
8.18197e-18
5.88873e-18
3.3652e-18
2.36396e-18
2.36275e-18
2.67028e-18
2.7302e-18
2.71031e-18
2.57278e-18
2.4585e-18
2.19149e-18
2.0087e-18
1.89881e-18
1.75505e-18
1.60726e-18
1.46423e-18
1.40968e-18
1.30364e-18
1.24502e-18
1.17087e-18
1.16869e-18
1.1679e-18
1.13906e-18
1.08147e-18
1.02741e-18
1.04567e-18
1.04617e-18
1.0833e-18
1.22472e-18
1.40596e-18
1.69627e-18
2.40811e-18
3.03958e-18
3.33995e-18
2.71192e-18
1.39127e-18
1.8987e-19
-7.83361e-19
-1.58401e-18
-1.8898e-18
-2.48604e-18
-2.70976e-18
-3.408e-18
-3.85244e-18
-2.83713e-18
-4.43099e-18
-4.21377e-18
-1.31176e-18
-4.89479e-18
-3.86072e-18
-1.617e-18
-2.75273e-18
-3.55782e-18
-2.89325e-18
-3.07793e-18
-3.3341e-18
-4.39339e-18
-4.71172e-18
-4.22038e-18
-4.64198e-18
-4.78257e-18
-4.508e-18
-4.16121e-18
-3.56977e-18
-4.37958e-18
-2.62391e-18
-1.9227e-18
6.16851e-19
1.97851e-18
-2.04423e-20
-5.18898e-19
1.07287e-19
1.16612e-19
1.20437e-19
1.21114e-19
1.21879e-19
1.28285e-19
1.73848e-19
1.5353e-19
1.77402e-19
1.73834e-19
1.91959e-19
1.90555e-19
2.28709e-19
2.26935e-19
2.75315e-19
2.50019e-19
2.86573e-19
2.73291e-19
2.6899e-19
2.99441e-19
3.03469e-19
2.93183e-19
3.00563e-19
2.92561e-19
3.13934e-19
3.20924e-19
3.29893e-19
3.37764e-19
3.42325e-19
3.51613e-19
3.54392e-19
3.58825e-19
3.56999e-19
3.62766e-19
3.62805e-19
3.6467e-19
3.66907e-19
3.66508e-19
3.68393e-19
3.69528e-19
3.70032e-19
3.70219e-19
3.70373e-19
3.73851e-19
3.83328e-19
4.5229e-19
1.09618e-18
4.0271e-18
1.32987e-17
1.14702e-17
9.32398e-18
7.19894e-18
6.88199e-18
6.54172e-18
6.01885e-18
5.42384e-18
4.7656e-18
4.41036e-18
4.0759e-18
3.76462e-18
3.46546e-18
2.81217e-18
2.41832e-18
2.1842e-18
1.99012e-18
1.71202e-18
1.48211e-18
1.43962e-18
1.40112e-18
1.34827e-18
1.3245e-18
1.31031e-18
1.25662e-18
1.22666e-18
1.17236e-18
1.14114e-18
1.13719e-18
1.20873e-18
1.3656e-18
1.44091e-18
3.22298e-18
4.13366e-18
3.87296e-18
3.17674e-18
1.60443e-18
1.63484e-19
-5.94778e-19
-1.04566e-18
-1.62689e-18
-2.30147e-18
-2.21351e-18
-3.34784e-18
-2.62702e-18
-3.84129e-18
-3.35159e-18
-9.70052e-19
-4.04679e-18
-3.1839e-18
-1.66897e-18
-2.26173e-18
-2.78827e-18
-3.25682e-18
-3.55345e-18
-4.08659e-18
-5.02022e-18
-5.88773e-18
-5.89531e-18
-6.50632e-18
-5.92302e-18
-6.18688e-18
-5.28556e-18
-4.21798e-18
-4.27056e-18
-3.07896e-18
-2.76736e-18
-1.82601e-18
-1.40811e-19
-1.87796e-18
-2.84038e-18
2.63802e-19
2.81927e-19
2.94578e-19
3.24356e-19
3.19876e-19
3.34936e-19
3.54872e-19
3.40457e-19
3.82716e-19
3.77731e-19
3.98399e-19
4.28947e-19
4.10942e-19
4.47487e-19
4.25921e-19
4.80481e-19
4.38583e-19
4.77216e-19
4.99019e-19
4.89689e-19
4.88769e-19
5.17497e-19
5.16974e-19
5.28883e-19
5.12009e-19
5.09993e-19
5.08836e-19
5.11482e-19
4.99182e-19
5.08176e-19
4.97026e-19
5.02683e-19
4.99809e-19
5.01474e-19
4.93395e-19
4.92304e-19
4.9177e-19
4.90432e-19
4.90106e-19
4.88529e-19
4.87085e-19
4.87313e-19
4.84283e-19
4.84299e-19
4.86498e-19
5.08505e-19
7.17219e-19
1.41833e-18
2.32002e-17
3.43427e-17
2.54674e-17
1.97613e-17
1.7246e-17
1.24794e-17
1.04289e-17
8.5945e-18
7.20577e-18
6.54375e-18
5.58881e-18
4.58135e-18
3.93295e-18
3.14665e-18
2.78828e-18
2.42271e-18
2.12066e-18
1.89991e-18
1.75078e-18
1.58761e-18
1.53719e-18
1.39275e-18
1.29165e-18
1.2544e-18
1.21874e-18
1.1933e-18
1.0764e-18
1.06198e-18
1.03829e-18
1.06247e-18
1.30149e-18
1.70121e-18
3.12612e-18
4.28367e-18
4.26334e-18
3.42813e-18
2.229e-18
8.29108e-19
2.04856e-20
-5.5957e-19
-8.12633e-19
-1.67186e-18
-1.79751e-18
-2.70674e-18
-1.81069e-18
-2.32672e-18
-2.94348e-18
-1.52883e-18
-3.05453e-18
-2.22469e-18
-1.36168e-18
-1.51052e-18
-2.32126e-18
-2.99134e-18
-3.84681e-18
-4.64602e-18
-6.13122e-18
-6.77859e-18
-7.48622e-18
-8.52827e-18
-8.64093e-18
-8.27095e-18
-7.36685e-18
-4.84183e-18
-4.87576e-18
-2.74989e-18
-3.49401e-18
-2.52499e-18
-1.12919e-18
-3.48171e-18
-2.71607e-18
5.68675e-19
5.61134e-19
5.61507e-19
5.49185e-19
5.62034e-19
5.95913e-19
5.11604e-19
5.5939e-19
5.07259e-19
5.87404e-19
5.62765e-19
5.46439e-19
5.98714e-19
5.06168e-19
5.7803e-19
5.33004e-19
5.65964e-19
5.38691e-19
5.53005e-19
5.32366e-19
5.38015e-19
5.15304e-19
5.03419e-19
5.02127e-19
4.89134e-19
5.09018e-19
4.92654e-19
4.88617e-19
4.9608e-19
4.74596e-19
4.80544e-19
4.69575e-19
4.69924e-19
4.67434e-19
4.6735e-19
4.66342e-19
4.64799e-19
4.62247e-19
4.62051e-19
4.61105e-19
4.60874e-19
4.58248e-19
4.56214e-19
4.61562e-19
3.08934e-19
6.3328e-19
1.22513e-18
5.63539e-18
1.89716e-17
4.96744e-17
3.63413e-17
2.52897e-17
2.12778e-17
1.36672e-17
1.15966e-17
9.31068e-18
7.29559e-18
6.36228e-18
5.27632e-18
4.47508e-18
3.71847e-18
3.0881e-18
2.69613e-18
2.31686e-18
2.0506e-18
1.87569e-18
1.68307e-18
1.41284e-18
1.34527e-18
1.27673e-18
1.24854e-18
1.11286e-18
1.05123e-18
1.02479e-18
1.0188e-18
9.51765e-19
9.90332e-19
1.17424e-18
1.51599e-18
2.5608e-18
3.98871e-18
4.88267e-18
4.21061e-18
3.1328e-18
2.34817e-18
1.14225e-18
3.34462e-19
-4.31081e-20
-2.87378e-19
-9.55271e-19
-1.3031e-18
-2.40756e-18
-2.43609e-18
-2.75039e-18
-2.49821e-18
-1.05804e-18
-7.21096e-19
-9.32872e-19
-9.04877e-19
-4.36175e-19
-1.47532e-18
-2.30608e-18
-3.34335e-18
-5.1231e-18
-6.60209e-18
-7.12426e-18
-8.19226e-18
-8.94567e-18
-9.00952e-18
-9.01469e-18
-9.06565e-18
-6.93985e-18
-5.9843e-18
-2.55663e-18
-4.3588e-18
-3.45235e-18
-3.33154e-18
-5.10828e-18
-6.36645e-18
5.42329e-19
5.3158e-19
5.29096e-19
5.33021e-19
5.21884e-19
4.79776e-19
5.09392e-19
5.25732e-19
5.11896e-19
4.78223e-19
4.40639e-19
4.81589e-19
4.20544e-19
4.70414e-19
3.99089e-19
4.26569e-19
3.81112e-19
3.89959e-19
3.56386e-19
3.84862e-19
3.73066e-19
3.66625e-19
3.94333e-19
3.8399e-19
4.03446e-19
3.83386e-19
3.96093e-19
4.06895e-19
4.01402e-19
4.18114e-19
4.12469e-19
4.19936e-19
4.19528e-19
4.2708e-19
4.28144e-19
4.27442e-19
4.33157e-19
4.35e-19
4.35157e-19
4.37567e-19
4.40179e-19
4.37835e-19
4.38296e-19
4.40312e-19
4.41085e-19
4.23392e-19
6.24866e-19
2.05753e-18
1.12658e-17
5.35085e-17
3.43871e-17
2.46869e-17
1.88785e-17
1.44865e-17
1.08818e-17
7.52201e-18
6.44251e-18
5.10492e-18
4.34532e-18
3.56196e-18
2.9392e-18
2.45074e-18
2.14822e-18
1.92799e-18
1.65105e-18
1.48735e-18
1.29642e-18
1.13941e-18
1.06332e-18
9.79587e-19
8.95875e-19
7.99186e-19
8.40922e-19
8.52694e-19
8.22815e-19
8.17479e-19
9.44846e-19
1.28546e-18
1.86751e-18
3.49912e-18
4.44914e-18
4.22159e-18
3.03576e-18
2.34963e-18
1.33326e-18
7.21834e-19
5.44654e-19
-1.79169e-20
-4.39269e-19
-1.03528e-18
-8.28007e-19
-1.27789e-18
-1.17296e-18
-1.60794e-18
-1.72794e-18
-6.46463e-19
1.70833e-19
-7.13489e-19
-4.63096e-19
6.96975e-19
-6.76296e-19
-1.80117e-18
-3.29605e-18
-5.86026e-18
-7.30485e-18
-8.25481e-18
-8.89032e-18
-8.52615e-18
-8.54076e-18
-9.13979e-18
-8.66081e-18
-8.05295e-18
-7.15473e-18
-4.23243e-18
-4.46342e-18
-4.79574e-18
-4.79131e-18
-6.01885e-18
-1.08132e-17
4.35388e-19
4.38112e-19
4.36142e-19
4.26514e-19
4.47854e-19
4.08537e-19
4.7293e-19
3.72241e-19
4.2374e-19
3.98896e-19
4.83243e-19
3.83175e-19
4.485e-19
3.88381e-19
4.30213e-19
4.0025e-19
4.48675e-19
4.18652e-19
4.44034e-19
4.35085e-19
4.40092e-19
4.60021e-19
4.67064e-19
4.51125e-19
4.71284e-19
4.61136e-19
4.65405e-19
4.30412e-19
4.71275e-19
4.61499e-19
4.75433e-19
4.75104e-19
4.74352e-19
4.77713e-19
4.76114e-19
4.76948e-19
4.72357e-19
4.71831e-19
4.71127e-19
4.70387e-19
4.70762e-19
4.70803e-19
4.71132e-19
4.69637e-19
4.86728e-19
5.23643e-19
8.84168e-19
3.97025e-18
1.61596e-17
4.30974e-17
3.2165e-17
2.17206e-17
1.52188e-17
1.0766e-17
8.50721e-18
5.85946e-18
5.55293e-18
3.8053e-18
3.47532e-18
2.64751e-18
2.26257e-18
1.90842e-18
1.7175e-18
1.57837e-18
1.31068e-18
1.1765e-18
1.03683e-18
9.40435e-19
8.42679e-19
7.93865e-19
8.12092e-19
7.34111e-19
6.803e-19
6.59797e-19
7.2137e-19
7.64536e-19
1.03416e-18
1.37571e-18
2.27851e-18
3.49868e-18
4.03932e-18
3.03937e-18
2.1402e-18
1.57329e-18
6.92403e-19
2.44177e-19
2.00105e-19
1.2266e-19
-2.53648e-21
-5.56572e-19
-9.16325e-19
-1.63413e-18
-1.72587e-18
-2.39777e-18
-2.4418e-18
-2.20338e-18
-7.31561e-19
-1.63479e-18
-6.16763e-19
8.39025e-19
-8.70777e-19
-1.67122e-18
-3.74705e-18
-6.44389e-18
-8.40252e-18
-8.96255e-18
-1.00044e-17
-9.26543e-18
-8.15114e-18
-8.09149e-18
-7.65369e-18
-8.8372e-18
-7.96218e-18
-6.22925e-18
-4.69529e-18
-3.64974e-18
-4.40146e-18
-6.34983e-18
-1.10123e-17
4.589e-19
4.59622e-19
4.59571e-19
4.45799e-19
4.37213e-19
4.52045e-19
4.8411e-19
4.73853e-19
4.66254e-19
4.64152e-19
4.49386e-19
4.65594e-19
4.93516e-19
4.67646e-19
5.10722e-19
4.74977e-19
4.86383e-19
4.74923e-19
5.31253e-19
4.98078e-19
5.38303e-19
5.05665e-19
5.0409e-19
4.95151e-19
4.80233e-19
5.02595e-19
4.89295e-19
4.97208e-19
4.74302e-19
4.66503e-19
4.62817e-19
4.62766e-19
4.53614e-19
4.5858e-19
4.53493e-19
4.57474e-19
4.525e-19
4.51838e-19
4.4972e-19
4.46871e-19
4.4485e-19
4.40396e-19
4.38479e-19
4.40021e-19
4.40944e-19
4.45217e-19
6.16085e-19
1.8559e-18
8.9995e-18
2.52482e-17
2.62455e-17
2.02853e-17
1.58424e-17
9.85447e-18
7.86031e-18
4.83529e-18
4.66707e-18
3.7122e-18
3.28496e-18
2.64507e-18
2.22043e-18
1.80356e-18
1.54444e-18
1.48825e-18
1.29705e-18
1.10049e-18
9.95958e-19
9.23716e-19
9.17108e-19
8.85743e-19
6.37583e-19
6.33079e-19
6.73601e-19
7.15384e-19
8.51251e-19
8.28626e-19
1.02855e-18
1.56739e-18
2.55259e-18
3.37493e-18
3.1581e-18
2.19365e-18
1.442e-18
1.09524e-18
3.27485e-19
1.83446e-20
-2.62463e-19
-1.28353e-18
-8.04096e-19
-7.72798e-19
-9.24786e-19
-1.20498e-18
-1.6461e-18
-2.12972e-18
-2.1177e-18
-2.73194e-18
-1.89928e-18
-2.28663e-18
-1.09691e-18
7.07042e-19
-1.25916e-18
-2.12963e-18
-3.90631e-18
-7.13297e-18
-9.167e-18
-1.01633e-17
-9.79887e-18
-9.13796e-18
-8.26104e-18
-7.56847e-18
-6.6692e-18
-7.89171e-18
-7.67925e-18
-6.62867e-18
-6.15223e-18
-3.34954e-18
-3.62292e-18
-3.7619e-18
-5.57215e-18
4.0404e-19
4.11333e-19
4.32191e-19
4.33518e-19
4.05485e-19
4.67807e-19
3.38042e-19
4.0728e-19
3.91427e-19
4.84923e-19
3.76203e-19
4.97793e-19
3.97596e-19
5.09454e-19
4.7668e-19
4.79195e-19
4.78689e-19
4.4572e-19
4.91548e-19
4.76751e-19
4.82354e-19
4.26908e-19
4.57442e-19
4.2272e-19
4.3952e-19
4.33866e-19
4.38604e-19
4.27434e-19
4.18808e-19
4.18608e-19
4.18357e-19
4.12915e-19
4.02881e-19
3.93842e-19
3.92437e-19
3.86999e-19
3.87906e-19
3.82073e-19
3.81529e-19
3.75645e-19
3.81288e-19
3.72166e-19
3.69398e-19
3.66924e-19
3.68438e-19
3.85186e-19
5.1622e-19
1.54623e-18
7.60783e-18
1.19257e-17
1.61917e-17
1.85009e-17
1.68214e-17
1.23285e-17
8.90239e-18
5.55251e-18
4.41909e-18
3.67172e-18
2.95586e-18
2.44611e-18
2.03305e-18
1.55975e-18
1.30453e-18
1.20959e-18
1.03571e-18
9.65718e-19
9.38755e-19
8.9225e-19
8.1423e-19
9.07197e-19
6.83114e-19
6.32183e-19
6.16668e-19
6.32737e-19
6.5263e-19
7.40954e-19
9.35889e-19
1.51598e-18
2.38063e-18
2.60058e-18
1.9507e-18
9.75294e-19
4.6505e-19
-1.9114e-19
-3.2976e-19
1.02142e-19
3.43526e-19
8.33502e-20
-2.7947e-20
-2.38356e-19
-5.52766e-19
-7.93837e-19
-1.42255e-18
-2.12398e-18
-2.67512e-18
-2.98357e-18
-2.36077e-18
-2.80423e-18
-2.34212e-18
-4.8768e-19
-2.42082e-18
-2.9052e-18
-3.9456e-18
-6.15718e-18
-9.65858e-18
-9.77446e-18
-1.12656e-17
-9.52876e-18
-7.42661e-18
-7.15187e-18
-5.69736e-18
-7.20993e-18
-7.53294e-18
-9.56567e-18
-8.25377e-18
-4.48571e-18
-2.79059e-18
-1.84003e-18
-9.40106e-19
3.48087e-19
3.38198e-19
3.14589e-19
3.21548e-19
3.13667e-19
3.3642e-19
3.55994e-19
4.61584e-19
3.73455e-19
3.57024e-19
3.90639e-19
4.04387e-19
3.75727e-19
4.55703e-19
3.70842e-19
4.524e-19
3.97434e-19
4.80538e-19
3.78059e-19
4.02394e-19
3.58543e-19
4.18255e-19
3.96067e-19
3.95155e-19
4.20413e-19
4.01425e-19
3.92763e-19
3.58991e-19
3.67707e-19
3.47101e-19
3.45646e-19
3.26053e-19
3.2314e-19
3.17983e-19
3.03198e-19
3.08733e-19
2.90132e-19
2.94664e-19
2.96112e-19
2.86553e-19
2.87551e-19
2.80857e-19
2.7917e-19
2.78377e-19
2.81529e-19
2.92777e-19
4.29137e-19
1.47583e-18
5.42734e-18
6.93861e-18
9.30809e-18
1.30757e-17
1.64634e-17
1.43332e-17
1.00368e-17
7.05947e-18
4.807e-18
4.01447e-18
3.16198e-18
2.72365e-18
2.29724e-18
1.82921e-18
1.65063e-18
1.60352e-18
1.36202e-18
1.19212e-18
1.14077e-18
9.60609e-19
8.54066e-19
9.82953e-19
9.35488e-19
7.67287e-19
6.99163e-19
6.69169e-19
7.20516e-19
7.327e-19
9.80635e-19
1.36465e-18
1.78701e-18
1.66187e-18
8.77092e-19
2.75848e-19
2.23005e-19
-3.28952e-19
-7.50252e-19
-1.2507e-18
-1.37568e-18
-1.10206e-18
-1.25635e-18
-1.49071e-18
-1.7302e-18
-2.08754e-18
-2.17981e-18
-2.94466e-18
-3.20454e-18
-3.61654e-18
-3.89449e-18
-4.5772e-18
-4.18968e-18
-2.634e-18
-4.1045e-18
-3.76874e-18
-4.04162e-18
-6.25587e-18
-9.161e-18
-9.87185e-18
-1.05424e-17
-9.27969e-18
-7.41566e-18
-5.72468e-18
-3.96629e-18
-4.89232e-18
-5.60533e-18
-8.92434e-18
-8.82608e-18
-6.39746e-18
-4.39022e-18
-1.65622e-18
-3.66997e-18
2.98008e-19
2.76512e-19
2.66734e-19
2.86684e-19
2.91093e-19
3.69878e-19
3.44266e-19
4.40093e-19
3.57003e-19
4.30488e-19
3.25403e-19
2.83856e-19
4.24139e-19
3.15574e-19
3.43661e-19
3.4099e-19
3.0629e-19
3.04766e-19
2.03545e-19
3.12561e-19
2.59358e-19
3.11417e-19
2.3532e-19
3.14146e-19
2.19087e-19
2.71787e-19
2.06625e-19
2.2663e-19
2.20794e-19
2.21031e-19
2.14024e-19
2.05048e-19
2.15299e-19
1.97094e-19
1.96231e-19
1.89224e-19
1.92888e-19
1.88864e-19
1.88548e-19
1.80485e-19
1.84837e-19
1.78817e-19
1.75003e-19
1.72564e-19
1.78761e-19
1.84496e-19
3.0595e-19
9.75374e-19
2.31368e-18
3.58717e-18
4.63122e-18
6.85041e-18
1.09197e-17
1.40776e-17
1.30791e-17
1.04459e-17
4.4771e-18
4.37377e-18
3.39557e-18
2.96876e-18
2.34819e-18
1.98012e-18
1.72051e-18
1.42045e-18
1.28161e-18
1.18592e-18
1.05433e-18
8.66908e-19
7.74893e-19
8.22662e-19
8.65381e-19
8.80697e-19
7.41338e-19
6.38185e-19
6.0861e-19
5.63643e-19
7.31236e-19
1.0517e-18
6.04776e-19
4.51356e-19
1.05581e-19
-7.90189e-19
-8.73566e-19
-2.32134e-19
6.01945e-19
4.52978e-19
-8.84685e-20
-5.55384e-19
-8.87589e-19
-1.16758e-18
-1.77483e-18
-2.155e-18
-2.59697e-18
-2.76569e-18
-3.72375e-18
-4.47242e-18
-5.06367e-18
-5.47176e-18
-5.87936e-18
-4.84861e-18
-5.00885e-18
-4.74533e-18
-4.94431e-18
-6.27219e-18
-9.1439e-18
-9.51439e-18
-1.00808e-17
-8.75166e-18
-7.66139e-18
-5.28586e-18
-3.50039e-18
-3.85431e-18
-4.59129e-18
-5.40564e-18
-6.80904e-18
-6.94289e-18
-8.57991e-18
-5.57786e-18
-2.78457e-18
2.99293e-19
3.36423e-19
3.16991e-19
2.93473e-19
2.68135e-19
2.00904e-19
1.90241e-19
1.98812e-19
1.20249e-19
2.60194e-19
8.82194e-20
3.01437e-19
1.00748e-19
2.69561e-19
1.04431e-19
1.88653e-19
1.42172e-19
1.85081e-19
1.99497e-19
1.744e-19
9.97517e-20
1.22289e-19
1.23376e-19
1.21421e-19
1.14435e-19
8.78696e-20
1.14842e-19
1.22523e-19
1.24171e-19
9.95398e-20
1.14573e-19
9.28637e-20
8.2536e-20
8.77684e-20
8.47707e-20
8.63886e-20
8.29432e-20
7.49423e-20
7.08219e-20
6.59267e-20
6.56328e-20
6.24603e-20
6.45205e-20
6.39866e-20
6.13431e-20
6.24137e-20
9.30244e-20
5.23388e-19
1.21165e-18
1.96008e-18
2.50643e-18
3.47287e-18
5.21539e-18
7.73167e-18
1.03756e-17
1.01289e-17
7.822e-18
5.65006e-18
4.63869e-18
3.72477e-18
3.22391e-18
2.6195e-18
2.07365e-18
1.81812e-18
1.51371e-18
1.50213e-18
1.38044e-18
1.23854e-18
1.14748e-18
1.07458e-18
1.02466e-18
8.98092e-19
7.87341e-19
5.79945e-19
5.54669e-19
4.91196e-19
5.66521e-19
6.32038e-19
4.94261e-20
-4.10003e-19
-1.70739e-19
2.68875e-19
-7.56639e-19
-1.58925e-18
-1.45654e-18
-1.22514e-18
-1.11544e-18
-1.15067e-18
-1.21586e-18
-1.78801e-18
-2.0197e-18
-2.57634e-18
-2.88318e-18
-3.60178e-18
-4.15968e-18
-5.11372e-18
-5.98152e-18
-6.46662e-18
-7.37073e-18
-7.29136e-18
-7.029e-18
-6.51571e-18
-5.84546e-18
-6.84932e-18
-9.16625e-18
-9.10847e-18
-9.36635e-18
-8.01368e-18
-6.98886e-18
-5.127e-18
-2.96007e-18
-3.37467e-18
-3.80978e-18
-6.14625e-18
-6.86159e-18
-9.08008e-18
-1.1565e-17
-7.98274e-18
-1.08067e-17
1.72235e-19
1.58261e-19
1.87476e-19
1.93513e-19
2.76854e-19
1.83376e-19
3.0472e-19
1.76287e-19
2.78553e-19
1.55951e-19
2.52276e-19
2.13621e-19
8.10544e-20
1.93128e-19
3.24339e-20
2.16228e-19
-1.05991e-21
2.46465e-19
5.07345e-20
2.06286e-19
9.29077e-20
2.06721e-19
1.18301e-19
1.24882e-19
8.32399e-20
1.28907e-19
8.06799e-20
6.79005e-20
3.39894e-20
3.3791e-20
3.06797e-20
2.66632e-20
4.40458e-21
2.46904e-20
1.74212e-20
-5.1536e-21
-3.71379e-21
-2.55631e-20
-3.26109e-20
-4.64378e-20
-5.34071e-20
-5.27269e-20
-5.00935e-20
-5.89693e-20
-6.8045e-20
-7.85124e-20
-2.28805e-19
-5.80862e-20
2.73591e-19
7.16936e-19
1.08306e-18
1.56458e-18
2.62132e-18
3.9224e-18
5.7006e-18
7.27832e-18
8.09191e-18
7.13969e-18
5.21754e-18
4.04015e-18
3.31092e-18
2.77636e-18
2.32338e-18
2.07926e-18
1.79058e-18
1.47994e-18
1.33226e-18
1.33488e-18
1.18885e-18
7.63153e-19
6.56588e-19
5.3359e-19
3.70832e-19
1.65669e-19
2.01803e-19
1.61484e-20
-1.13832e-19
6.54291e-19
3.75705e-19
-1.28954e-18
-1.40484e-18
-4.8991e-19
-5.10306e-19
-1.15289e-18
-1.30885e-18
-1.41911e-18
-1.66917e-18
-1.60767e-18
-1.63726e-18
-2.15786e-18
-2.97764e-18
-3.36988e-18
-3.2473e-18
-4.23522e-18
-4.88931e-18
-5.90539e-18
-6.83405e-18
-7.34815e-18
-8.73827e-18
-9.37229e-18
-9.61187e-18
-8.10565e-18
-7.23283e-18
-7.15266e-18
-9.05551e-18
-9.20923e-18
-8.20741e-18
-8.01477e-18
-6.15469e-18
-4.16442e-18
-3.42277e-18
-3.05655e-18
-2.78298e-18
-4.50252e-18
-6.44673e-18
-7.42755e-18
-1.068e-17
-1.1383e-17
-1.87523e-17
1.84049e-19
1.80364e-19
1.2963e-19
9.60931e-20
1.01361e-19
1.93636e-19
1.40854e-19
1.15735e-19
1.27929e-19
2.87912e-20
1.59235e-19
-9.75339e-20
2.08794e-19
-5.25963e-20
1.49175e-19
-8.21138e-20
1.12383e-19
-7.10316e-20
3.50265e-20
-8.42317e-20
-8.05065e-20
-6.58845e-20
-1.56952e-19
-1.42787e-19
-1.73829e-19
-1.84249e-19
-2.34723e-19
-2.1823e-19
-2.56182e-19
-2.3312e-19
-2.58693e-19
-2.80792e-19
-2.5891e-19
-2.82738e-19
-2.83458e-19
-2.69568e-19
-2.70425e-19
-2.41695e-19
-2.44719e-19
-2.19112e-19
-2.0929e-19
-2.04609e-19
-2.04328e-19
-2.04402e-19
-2.00662e-19
-2.55884e-19
-6.78589e-19
-4.44904e-19
6.1635e-20
4.08425e-19
6.34318e-19
1.12642e-18
1.62594e-18
2.29574e-18
3.4495e-18
3.94811e-18
6.79491e-18
6.06707e-18
5.78009e-18
4.93341e-18
3.79942e-18
3.34943e-18
2.55537e-18
1.99878e-18
1.52064e-18
1.17616e-18
6.29389e-19
5.22809e-19
4.31716e-19
1.40983e-19
9.3226e-20
1.30292e-19
-1.52016e-19
-9.50508e-19
2.15927e-19
2.82516e-19
-1.92678e-18
-1.63696e-18
-6.38241e-19
-4.54371e-19
-8.04735e-19
-9.36557e-20
3.301e-19
3.93836e-19
-3.78174e-19
-5.93708e-19
-1.0588e-18
-1.37487e-18
-2.22898e-18
-2.59584e-18
-3.2167e-18
-3.67664e-18
-4.16562e-18
-5.11781e-18
-5.49159e-18
-6.02795e-18
-7.54555e-18
-8.21777e-18
-9.40079e-18
-9.81948e-18
-1.05444e-17
-9.59513e-18
-8.39033e-18
-8.02536e-18
-7.95136e-18
-8.39365e-18
-7.98364e-18
-7.21056e-18
-5.88231e-18
-3.56451e-18
-2.19941e-18
-3.3735e-18
-3.11553e-18
-3.81424e-18
-3.72943e-18
-3.77358e-18
-8.75355e-18
-1.23393e-17
-1.4067e-17
1.43285e-19
1.63527e-19
1.94389e-19
1.76609e-19
1.40177e-19
2.29996e-19
1.20432e-19
5.53734e-20
-1.20121e-19
7.0515e-20
-4.92014e-20
1.5093e-19
-3.80949e-20
9.46104e-21
9.38269e-20
-1.05611e-19
3.85386e-20
-2.57726e-19
-1.18746e-19
-2.74956e-19
-1.58956e-19
-4.4881e-19
-2.38057e-19
-3.70199e-19
-3.07991e-19
-3.65853e-19
-2.93245e-19
-3.34637e-19
-2.80935e-19
-3.03076e-19
-3.01422e-19
-2.46219e-19
-2.5938e-19
-2.42482e-19
-2.58021e-19
-2.37686e-19
-2.29683e-19
-2.28019e-19
-2.07999e-19
-2.07317e-19
-1.99249e-19
-1.92376e-19
-1.86882e-19
-1.86682e-19
-1.87942e-19
-2.59066e-19
-6.54023e-19
-4.6721e-19
1.40479e-19
3.36352e-19
5.22773e-19
9.0428e-19
1.29825e-18
1.57882e-18
2.59279e-18
1.86556e-18
6.44383e-18
1.77315e-18
7.92599e-18
7.08997e-18
4.86434e-18
4.7309e-18
1.59808e-18
9.03638e-19
-7.06358e-19
-2.89474e-21
-1.85211e-18
-1.49431e-18
3.42419e-18
2.41564e-18
-4.53117e-18
-2.15605e-18
3.62274e-18
3.71866e-19
-1.4627e-19
6.82521e-19
7.48818e-19
1.88378e-18
2.28506e-18
2.33002e-19
-2.5335e-18
-2.75816e-18
-2.06737e-18
-1.35954e-18
-1.05135e-18
-1.38096e-18
-1.7609e-18
-2.34917e-18
-2.2549e-18
-2.85814e-18
-3.772e-18
-4.33764e-18
-4.74253e-18
-5.32798e-18
-5.80026e-18
-6.45377e-18
-8.12028e-18
-8.82076e-18
-1.04982e-17
-1.07878e-17
-1.16736e-17
-1.11328e-17
-9.73097e-18
-8.5387e-18
-8.26022e-18
-7.50809e-18
-6.16248e-18
-4.7665e-18
-5.61053e-18
-3.36955e-18
-3.30655e-18
-3.13593e-18
-3.15121e-18
-5.29183e-18
-4.93005e-18
-5.73154e-18
-7.71486e-18
-9.07176e-18
-5.82386e-18
-9.33926e-20
-4.1468e-20
1.07884e-20
1.10867e-19
1.98741e-19