/*--------------------------------*- C++ -*----------------------------------*\
| =========                 |                                                 |
| \\      /  F ield         | OpenFOAM: The Open Source CFD Toolbox           |
|  \\    /   O peration     | Version:  2.2.x                                 |
|   \\  /    A nd           | Web:      www.OpenFOAM.org                      |
|    \\/     M anipulation  |                                                 |
\*---------------------------------------------------------------------------*/
FoamFile
{
    version     2.0;
    format      ascii;
    class       volScalarField;
    location    "0.95";
    object      Bz;
}
// * * * * * * * * * * * * * * * * * * * * * * * * * * * * * * * * * * * * * //

dimensions      [1 0 -2 0 0 -1 0];

internalField   nonuniform List<scalar> 
14161
(
1.73612e-19
1.73568e-19
1.73339e-19
1.72689e-19
1.72379e-19
1.72148e-19
1.72662e-19
1.71129e-19
1.72045e-19
1.70753e-19
1.71476e-19
1.70653e-19
1.7019e-19
1.71268e-19
1.70876e-19
1.70583e-19
1.72534e-19
1.73068e-19
1.73405e-19
1.74464e-19
1.74728e-19
1.75353e-19
1.74926e-19
1.76352e-19
1.75148e-19
1.77137e-19
1.77138e-19
1.78919e-19
1.79161e-19
1.80181e-19
1.80657e-19
1.81107e-19
1.81075e-19
1.81804e-19
1.822e-19
1.82456e-19
1.82979e-19
1.83202e-19
1.83376e-19
1.83237e-19
1.83643e-19
1.82869e-19
1.8572e-19
1.74778e-19
1.98542e-19
1.5708e-19
2.26921e-19
1.09898e-19
3.02896e-19
-8.73843e-20
4.65797e-19
-7.99145e-19
1.69114e-18
9.38769e-18
9.26642e-18
6.82789e-18
4.39866e-18
2.41753e-18
3.29821e-19
1.83493e-19
4.19795e-20
5.84902e-20
7.34195e-20
5.84212e-20
5.77272e-20
6.85978e-20
6.81198e-20
5.1327e-20
3.77811e-20
4.76473e-20
5.36394e-20
7.20312e-20
8.2255e-20
9.26147e-20
1.18818e-19
1.90063e-19
2.8324e-19
3.76884e-19
4.77056e-19
5.27238e-19
6.46926e-19
6.23264e-19
7.22592e-19
8.38312e-19
1.05739e-18
1.07357e-18
1.24086e-18
1.48878e-18
1.7579e-18
1.86664e-18
1.74282e-18
1.90316e-18
1.9847e-18
2.10109e-18
2.15687e-18
2.24487e-18
2.22307e-18
2.31935e-18
2.10247e-18
1.50415e-18
7.59309e-19
4.3363e-19
3.55464e-19
3.39519e-19
3.12377e-19
3.6314e-19
3.20255e-19
4.20024e-19
3.8644e-19
4.88862e-19
4.46512e-19
4.86223e-19
4.35639e-19
6.40736e-19
6.34494e-19
8.08023e-19
7.47392e-19
2.33996e-18
2.44339e-18
1.74336e-19
1.7419e-19
1.74268e-19
1.74307e-19
1.74131e-19
1.73109e-19
1.73296e-19
1.72135e-19
1.73345e-19
1.72909e-19
1.72313e-19
1.71486e-19
1.71752e-19
1.72535e-19
1.72541e-19
1.75329e-19
1.75182e-19
1.74038e-19
1.76169e-19
1.76858e-19
1.76422e-19
1.76756e-19
1.76662e-19
1.78082e-19
1.78131e-19
1.78835e-19
1.77356e-19
1.81826e-19
1.81043e-19
1.82152e-19
1.81226e-19
1.8337e-19
1.83122e-19
1.83802e-19
1.83634e-19
1.83828e-19
1.84156e-19
1.84382e-19
1.84532e-19
1.84733e-19
1.84856e-19
1.84309e-19
1.86009e-19
1.82144e-19
1.88257e-19
1.79099e-19
1.89782e-19
1.70449e-19
2.04912e-19
1.6108e-19
2.13379e-19
7.2744e-20
2.01781e-18
8.80892e-18
9.06504e-18
6.5061e-18
3.30782e-18
2.07076e-18
-1.06558e-19
2.47409e-19
2.03844e-19
1.92657e-19
1.79834e-19
1.44914e-19
1.20019e-19
1.19793e-19
9.61417e-20
7.90562e-20
4.82255e-20
5.20784e-20
6.76311e-20
9.10973e-20
1.04287e-19
1.23512e-19
1.44901e-19
2.23047e-19
2.93841e-19
3.94733e-19
4.69301e-19
5.39908e-19
6.27011e-19
6.12478e-19
7.34655e-19
8.43531e-19
1.03898e-18
1.08202e-18
1.24033e-18
1.49977e-18
1.75612e-18
1.86317e-18
1.76803e-18
1.9462e-18
1.99607e-18
2.13146e-18
2.18133e-18
2.27375e-18
2.21512e-18
2.28431e-18
1.86998e-18
1.20345e-18
5.9155e-19
3.42001e-19
2.87512e-19
2.87177e-19
2.65308e-19
3.36645e-19
3.02736e-19
3.92473e-19
3.42085e-19
4.61396e-19
3.98624e-19
4.43937e-19
3.38283e-19
6.01444e-19
5.04047e-19
9.87001e-19
9.81232e-19
2.31707e-18
2.3949e-18
1.74767e-19
1.75781e-19
1.76684e-19
1.76641e-19
1.75782e-19
1.74651e-19
1.74597e-19
1.73348e-19
1.74227e-19
1.75686e-19
1.73464e-19
1.72839e-19
1.75822e-19
1.76234e-19
1.77072e-19
1.78713e-19
1.77808e-19
1.78767e-19
1.78942e-19
1.79459e-19
1.78696e-19
1.78515e-19
1.7998e-19
1.80546e-19
1.81089e-19
1.8223e-19
1.81644e-19
1.86472e-19
1.85773e-19
1.86641e-19
1.84792e-19
1.868e-19
1.85717e-19
1.86355e-19
1.86157e-19
1.86856e-19
1.87405e-19
1.87924e-19
1.88281e-19
1.88156e-19
1.87772e-19
1.8732e-19
1.86998e-19
1.86851e-19
1.86511e-19
1.8829e-19
1.8914e-19
1.885e-19
1.87722e-19
1.90904e-19
1.92119e-19
3.6369e-19
1.95819e-18
8.88622e-18
9.15897e-18
6.88432e-18
3.39085e-18
2.17561e-18
2.56223e-19
3.73975e-19
2.29427e-19
2.11465e-19
1.51269e-19
1.33071e-19
1.18188e-19
1.05747e-19
7.68884e-20
6.54231e-20
2.95365e-20
2.50491e-20
6.81532e-20
9.36232e-20
1.28974e-19
1.36413e-19
1.7038e-19
2.53874e-19
3.15167e-19
4.06189e-19
4.65862e-19
5.45597e-19
6.06181e-19
6.08667e-19
7.47742e-19
8.56751e-19
1.02844e-18
1.07594e-18
1.28104e-18
1.4562e-18
1.77673e-18
1.86949e-18
1.81769e-18
1.99076e-18
2.02784e-18
2.20171e-18
2.20319e-18
2.29817e-18
2.17692e-18
2.13149e-18
1.60461e-18
9.86027e-19
4.91997e-19
2.44645e-19
1.79335e-19
1.95649e-19
1.63748e-19
2.64452e-19
1.96186e-19
3.04742e-19
2.50575e-19
4.24596e-19
2.61814e-19
3.13293e-19
2.2501e-19
4.63689e-19
4.12658e-19
9.06036e-19
9.10106e-19
1.89889e-18
1.94573e-18
1.81337e-19
1.80638e-19
1.80068e-19
1.79842e-19
1.78351e-19
1.79415e-19
1.78794e-19
1.79356e-19
1.78823e-19
1.7925e-19
1.76236e-19
1.80129e-19
1.80982e-19
1.80864e-19
1.80323e-19
1.83254e-19
1.80919e-19
1.83275e-19
1.84054e-19
1.85714e-19
1.85069e-19
1.89868e-19
1.88684e-19
1.90414e-19
1.92119e-19
1.91492e-19
1.97103e-19
1.95674e-19
1.9408e-19
1.91287e-19
1.92167e-19
1.91791e-19
1.93921e-19
1.94023e-19
1.92536e-19
1.94366e-19
1.94966e-19
1.95621e-19
1.95239e-19
1.9456e-19
1.93978e-19
1.93298e-19
1.93513e-19
1.92835e-19
1.92794e-19
1.91642e-19
1.92997e-19
1.93647e-19
1.90917e-19
1.98025e-19
1.84618e-19
3.91417e-19
1.89249e-18
9.08057e-18
1.01147e-17
7.74314e-18
3.95155e-18
2.9097e-18
1.33742e-18
8.36502e-19
5.53533e-19
3.84436e-19
2.6201e-19
2.51555e-19
1.90956e-19
1.5139e-19
8.87982e-20
7.01544e-20
-3.25169e-21
-2.62498e-20
5.49852e-20
1.01067e-19
1.63504e-19
1.95718e-19
2.03907e-19
3.35283e-19
3.86076e-19
4.28313e-19
4.54569e-19
5.4399e-19
5.67406e-19
5.47801e-19
7.89854e-19
8.70923e-19
1.01445e-18
1.11693e-18
1.3239e-18
1.42475e-18
1.76727e-18
1.90397e-18
1.90032e-18
2.05306e-18
2.09625e-18
2.25241e-18
2.22169e-18
2.28847e-18
2.06963e-18
1.78073e-18
1.17455e-18
7.41145e-19
3.34668e-19
1.48025e-19
6.60013e-20
8.44937e-20
6.97212e-20
1.38555e-19
1.14537e-19
1.24735e-19
8.52176e-20
2.52426e-19
1.20086e-19
2.16593e-19
9.93306e-20
3.48072e-19
3.49106e-19
5.74977e-19
5.64913e-19
1.63157e-18
1.66981e-18
1.84473e-19
1.8391e-19
1.83394e-19
1.83642e-19
1.83313e-19
1.84342e-19
1.82629e-19
1.87288e-19
1.84969e-19
1.83707e-19
1.83845e-19
1.86183e-19
1.8555e-19
1.87355e-19
1.84515e-19
1.90725e-19
1.86331e-19
1.92585e-19
1.93815e-19
1.90828e-19
1.94761e-19
1.98804e-19
1.97444e-19
1.99378e-19
2.01954e-19
2.0311e-19
2.05874e-19
2.04311e-19
2.04641e-19
2.07333e-19
2.07576e-19
2.04675e-19
2.04872e-19
2.0626e-19
2.05217e-19
2.05632e-19
2.0499e-19
2.04341e-19
2.04399e-19
2.03417e-19
2.02891e-19
2.02802e-19
2.0343e-19
2.02643e-19
2.01912e-19
2.03706e-19
2.02184e-19
2.07519e-19
2.01749e-19
2.10922e-19
1.84251e-19
3.61084e-19
1.79939e-18
9.13448e-18
1.16557e-17
9.21878e-18
5.1042e-18
3.95627e-18
2.47588e-18
1.41486e-18
9.02267e-19
6.30895e-19
3.88952e-19
2.7687e-19
1.89991e-19
1.31344e-19
9.03681e-20
9.93962e-20
-1.78592e-21
-4.5724e-20
2.37609e-20
5.58377e-20
1.54725e-19
2.30053e-19
2.2642e-19
3.68437e-19
4.17423e-19
4.53456e-19
4.71494e-19
5.64614e-19
5.71273e-19
5.57347e-19
8.22624e-19
9.03296e-19
1.01199e-18
1.15844e-18
1.31428e-18
1.46838e-18
1.73039e-18
1.92133e-18
1.98053e-18
2.15293e-18
2.1916e-18
2.33988e-18
2.25574e-18
2.1875e-18
1.80768e-18
1.33457e-18
8.72743e-19
5.22844e-19
2.09996e-19
7.21974e-20
-1.21079e-20
-2.86678e-20
-1.81196e-20
-3.94985e-20
5.39045e-20
-3.17367e-20
-4.57069e-20
1.75169e-20
1.87567e-19
9.47498e-20
1.50683e-20
2.39289e-19
5.22024e-20
5.95871e-19
5.71922e-19
1.08341e-18
1.10735e-18
1.92642e-19
1.91662e-19
1.91334e-19
1.87556e-19
1.89522e-19
1.92172e-19
1.94316e-19
1.97302e-19
1.91019e-19
1.95503e-19
1.94515e-19
1.93139e-19
1.95458e-19
2.01351e-19
1.97942e-19
2.02976e-19
1.93771e-19
2.12847e-19
2.04602e-19
2.06484e-19
2.13369e-19
2.13824e-19
2.13665e-19
2.19209e-19
2.1606e-19
2.21289e-19
2.21185e-19
2.18914e-19
2.19621e-19
2.17873e-19
2.20204e-19
2.18192e-19
2.17823e-19
2.19211e-19
2.20298e-19
2.20341e-19
2.20169e-19
2.19207e-19
2.19213e-19
2.18629e-19
2.18413e-19
2.1762e-19
2.19097e-19
2.17015e-19
2.1866e-19
2.15913e-19
2.18413e-19
2.19902e-19
2.22123e-19
2.2416e-19
2.09879e-19
3.56632e-19
1.78253e-18
8.95171e-18
1.51006e-17
1.189e-17
7.35516e-18
5.68596e-18
4.00109e-18
2.17936e-18
1.4824e-18
8.59148e-19
6.46148e-19
3.74593e-19
3.12377e-19
1.73283e-19
1.68592e-19
1.48735e-19
1.17286e-19
5.27614e-20
7.46816e-20
6.39238e-20
1.17133e-19
2.29039e-19
2.63916e-19
3.76438e-19
4.36026e-19
4.70482e-19
5.23438e-19
6.31042e-19
6.64219e-19
6.92579e-19
8.73695e-19
9.41203e-19
1.05444e-18
1.22291e-18
1.33415e-18
1.54931e-18
1.72487e-18
2.00755e-18
2.05651e-18
2.27576e-18
2.26574e-18
2.36822e-18
2.17428e-18
1.86786e-18
1.4135e-18
1.01689e-18
6.94859e-19
4.26846e-19
1.70134e-19
3.65543e-20
-2.4594e-20
-7.31965e-20
-7.40265e-20
-3.8618e-20
-1.27669e-19
3.85376e-20
-1.58981e-19
-1.18543e-19
-1.31911e-19
-6.48087e-20
-1.6405e-19
9.06701e-20
1.3545e-20
3.58443e-19
2.43916e-19
1.14473e-18
1.19277e-18
2.02183e-19
2.02247e-19
2.0215e-19
2.03122e-19
2.08438e-19
2.07331e-19
2.0371e-19
2.10309e-19
2.05096e-19
2.04863e-19
2.10881e-19
2.10186e-19
2.13763e-19
2.14186e-19
2.15761e-19
2.17143e-19
2.24801e-19
2.26921e-19
2.21057e-19
2.3266e-19
2.31522e-19
2.29331e-19
2.29306e-19
2.36441e-19
2.31987e-19
2.38995e-19
2.3568e-19
2.38579e-19
2.39254e-19
2.36468e-19
2.36608e-19
2.38488e-19
2.38102e-19
2.38975e-19
2.38502e-19
2.38623e-19
2.39536e-19
2.39493e-19
2.38715e-19
2.38708e-19
2.38248e-19
2.37832e-19
2.38396e-19
2.38921e-19
2.3967e-19
2.41102e-19
2.40373e-19
2.38407e-19
2.41514e-19
2.38753e-19
2.50136e-19
2.94425e-19
1.6267e-18
7.66719e-18
2.0299e-17
1.68786e-17
1.03718e-17
8.32141e-18
5.74749e-18
3.90849e-18
2.56673e-18
1.53426e-18
1.08254e-18
6.96642e-19
5.94612e-19
4.13484e-19
3.18718e-19
2.79828e-19
2.35848e-19
2.13835e-19
1.84211e-19
1.64486e-19
1.52536e-19
2.37249e-19
2.9013e-19
3.68959e-19
4.41693e-19
4.96153e-19
5.58686e-19
6.64786e-19
7.19818e-19
8.04938e-19
9.12072e-19
1.00266e-18
1.14759e-18
1.28696e-18
1.41539e-18
1.62029e-18
1.8262e-18
2.12463e-18
2.11033e-18
2.36014e-18
2.26833e-18
2.19453e-18
1.83402e-18
1.46638e-18
1.10582e-18
7.94129e-19
5.70306e-19
3.3355e-19
1.60873e-19
8.8794e-20
-2.72606e-20
-6.5204e-20
-9.19108e-20
-1.44893e-19
-1.78592e-19
-6.88306e-20
-2.69868e-19
-2.27448e-19
-2.07966e-19
-8.40899e-20
-4.21027e-19
-1.91981e-19
-2.26547e-19
-3.81141e-20
-9.29962e-20
1.77249e-19
1.86706e-19
2.1356e-19
2.15445e-19
2.1491e-19
2.19204e-19
2.2271e-19
2.28823e-19
2.27304e-19
2.23888e-19
2.29041e-19
2.3178e-19
2.35716e-19
2.33728e-19
2.42882e-19
2.48256e-19
2.46488e-19
2.39074e-19
2.48351e-19
2.4507e-19
2.44385e-19
2.56748e-19
2.5078e-19
2.49012e-19
2.5498e-19
2.56207e-19
2.56283e-19
2.57641e-19
2.5275e-19
2.59005e-19
2.55744e-19
2.61396e-19
2.56553e-19
2.60852e-19
2.56064e-19
2.5863e-19
2.53787e-19
2.52454e-19
2.53739e-19
2.52998e-19
2.52901e-19
2.55043e-19
2.55178e-19
2.56909e-19
2.55177e-19
2.55558e-19
2.55272e-19
2.52541e-19
2.52905e-19
2.48373e-19
2.55905e-19
2.38249e-19
2.94323e-19
9.71032e-20
9.97495e-19
5.08618e-18
2.36486e-17
2.20641e-17
1.287e-17
9.69826e-18
6.32229e-18
4.42394e-18
2.74494e-18
1.61947e-18
1.0425e-18
7.37685e-19
5.58948e-19
4.05326e-19
3.01349e-19
2.72461e-19
2.30882e-19
2.26918e-19
2.09127e-19
1.90441e-19
1.75358e-19
2.22977e-19
2.77515e-19
3.29548e-19
4.22993e-19
5.04159e-19
5.86236e-19
6.66958e-19
7.08516e-19
9.19809e-19
9.96206e-19
1.1043e-18
1.22838e-18
1.34901e-18
1.58232e-18
1.7229e-18
1.9459e-18
2.21161e-18
2.13503e-18
2.29369e-18
2.03567e-18
1.79012e-18
1.38294e-18
1.14075e-18
9.14525e-19
7.40369e-19
5.51561e-19
3.72248e-19
2.85096e-19
1.20436e-19
8.84084e-20
2.13379e-20
1.39805e-21
-1.12187e-19
-2.53934e-19
-1.84838e-19
-2.11973e-19
-3.99924e-19
-4.34379e-19
-2.80528e-19
-2.43317e-19
-1.29495e-19
-2.15173e-19
-4.57603e-19
-5.01808e-19
-4.001e-19
-4.31277e-19
2.39919e-19
2.4412e-19
2.46043e-19
2.5266e-19
2.48273e-19
2.51232e-19
2.47869e-19
2.50728e-19
2.58526e-19
2.58159e-19
2.62073e-19
2.68523e-19
2.68574e-19
2.67898e-19
2.72542e-19
2.70228e-19
2.68252e-19
2.72598e-19
2.73063e-19
2.72635e-19
2.69968e-19
2.76024e-19
2.77229e-19
2.77225e-19
2.70762e-19
2.78182e-19
2.73388e-19
2.78631e-19
2.73965e-19
2.83458e-19
2.7274e-19
2.79855e-19
2.72494e-19
2.76861e-19
2.7366e-19
2.73037e-19
2.73143e-19
2.73429e-19
2.73742e-19
2.7401e-19
2.74169e-19
2.75082e-19
2.73324e-19
2.74064e-19
2.74019e-19
2.76998e-19
2.76349e-19
2.76363e-19
2.73871e-19
2.63126e-19
2.73753e-19
2.5293e-19
5.55083e-19
3.62521e-18
1.80788e-17
2.2921e-17
1.57282e-17
1.08452e-17
5.50123e-18
4.13899e-18
2.82317e-18
1.77838e-18
1.1485e-18
7.94439e-19
5.56852e-19
4.13469e-19
3.30039e-19
3.12436e-19
2.54887e-19
2.24186e-19
2.17441e-19
2.03189e-19
2.0376e-19
2.55473e-19
2.87699e-19
3.69992e-19
4.09468e-19
5.34978e-19
5.96191e-19
6.91999e-19
7.66613e-19
9.51128e-19
1.06939e-18
1.21667e-18
1.29912e-18
1.4395e-18
1.73918e-18
1.84816e-18
2.02195e-18
2.18945e-18
1.94731e-18
1.88919e-18
1.60288e-18
1.34889e-18
1.10388e-18
9.6417e-19
8.27265e-19
6.87279e-19
5.48986e-19
4.72395e-19
3.65998e-19
2.61299e-19
1.37144e-19
2.53849e-19
7.5409e-20
6.3557e-20
-1.12146e-19
-1.78076e-19
-3.33446e-19
-4.31007e-19
-5.80101e-19
-3.27103e-19
-5.05421e-19
-2.12863e-19
-5.52983e-19
-8.31765e-19
-9.1235e-19
-7.29542e-19
-7.45757e-19
2.7947e-19
2.7928e-19
2.75997e-19
2.85346e-19
3.0138e-19
2.84601e-19
2.82548e-19
2.84132e-19
2.85464e-19
2.92517e-19
2.85701e-19
2.97572e-19
2.94802e-19
2.83977e-19
2.93996e-19
2.91286e-19
2.92248e-19
2.91634e-19
2.966e-19
2.94526e-19
2.92092e-19
2.94012e-19
2.98254e-19
2.96958e-19
2.93005e-19
2.97372e-19
2.90136e-19
2.98335e-19
2.94142e-19
2.88631e-19
2.91961e-19
2.87621e-19
2.9014e-19
2.89057e-19
2.8903e-19
2.90322e-19
2.88408e-19
2.85271e-19
2.85341e-19
2.8448e-19
2.84033e-19
2.81877e-19
2.81906e-19
2.77691e-19
2.80757e-19
2.79097e-19
2.7899e-19
2.77134e-19
2.75583e-19
2.725e-19
2.68982e-19
2.85134e-19
5.1004e-19
2.27927e-18
1.37663e-17
1.83598e-17
1.52592e-17
1.15701e-17
6.45751e-18
3.91516e-18
2.66527e-18
1.70511e-18
1.17379e-18
8.17938e-19
5.42488e-19
4.05011e-19
3.67171e-19
2.90858e-19
2.80142e-19
2.51848e-19
2.29966e-19
2.10801e-19
2.39577e-19
2.87143e-19
3.3072e-19
3.85661e-19
4.60423e-19
5.66341e-19
5.9894e-19
7.07888e-19
8.16965e-19
1.01379e-18
1.12281e-18
1.2938e-18
1.45295e-18
1.5281e-18
1.81292e-18
1.85955e-18
1.88461e-18
1.84807e-18
1.56718e-18
1.36498e-18
1.19044e-18
1.06924e-18
9.40407e-19
9.36269e-19
8.21046e-19
6.75326e-19
6.12442e-19
5.29324e-19
5.29147e-19
4.36271e-19
4.32197e-19
3.25844e-19
3.94598e-19
4.27447e-19
1.01469e-19
-1.25776e-19
9.33624e-20
8.24577e-20
-3.46791e-19
-2.79254e-19
-3.67518e-19
-1.42382e-19
-4.70706e-19
-1.02775e-18
-1.15599e-18
-1.32459e-18
-1.403e-18
3.14656e-19
3.10871e-19
3.12669e-19
3.1596e-19
3.01253e-19
3.02198e-19
3.20867e-19
3.14253e-19
3.0054e-19
3.07005e-19
3.13117e-19
3.15253e-19
3.18511e-19
3.08899e-19
3.05448e-19
3.13336e-19
3.10388e-19
3.07466e-19
3.13021e-19
3.15706e-19
3.11094e-19
3.15913e-19
3.1317e-19
3.06422e-19
3.0891e-19
3.02859e-19
3.08033e-19
3.06423e-19
2.9898e-19
3.06481e-19
2.9487e-19
2.96484e-19
2.90003e-19
2.93931e-19
2.89514e-19
2.87214e-19
2.89135e-19
2.87876e-19
2.86575e-19
2.87601e-19
2.86905e-19
2.85591e-19
2.80411e-19
2.77672e-19
2.82815e-19
2.73775e-19
2.78536e-19
2.77855e-19
2.7107e-19
2.75368e-19
2.65455e-19
2.96497e-19
6.28834e-19
3.06707e-18
9.4586e-18
1.18976e-17
1.33092e-17
1.12297e-17
7.51086e-18
4.30144e-18
2.36963e-18
1.22251e-18
9.37651e-19
6.85148e-19
4.06396e-19
2.98925e-19
2.91813e-19
2.38874e-19
2.35113e-19
2.37312e-19
2.22319e-19
1.94498e-19
2.42659e-19
2.91647e-19
3.476e-19
3.84702e-19
4.60806e-19
5.89642e-19
6.19979e-19
7.79753e-19
8.8838e-19
1.06755e-18
1.18381e-18
1.34924e-18
1.46148e-18
1.50533e-18
1.67448e-18
1.59747e-18
1.54977e-18
1.37153e-18
1.1597e-18
1.01827e-18
1.00912e-18
9.44028e-19
8.86682e-19
8.89385e-19
7.66415e-19
7.1208e-19
6.77853e-19
7.05879e-19
6.13248e-19
6.02059e-19
6.3299e-19
7.11417e-19
6.54826e-19
6.63639e-19
3.19644e-19
1.44692e-19
3.73781e-19
1.85652e-19
3.15694e-19
3.05805e-19
1.36364e-19
-2.2692e-19
-1.28728e-19
-6.48216e-19
-6.30837e-19
-8.19789e-19
-8.66391e-19
3.25586e-19
3.28304e-19
3.31542e-19
3.1238e-19
3.14368e-19
3.20439e-19
3.26138e-19
3.0392e-19
3.18862e-19
3.32217e-19
3.27992e-19
3.22837e-19
3.30567e-19
3.22548e-19
3.30783e-19
3.27236e-19
3.27367e-19
3.23871e-19
3.3031e-19
3.21694e-19
3.26548e-19
3.20053e-19
3.1446e-19
3.09898e-19
3.10529e-19
3.09907e-19
3.07164e-19
2.98106e-19
3.06359e-19
2.96825e-19
2.93445e-19
2.86907e-19
2.82846e-19
2.83942e-19
2.79413e-19
2.78578e-19
2.73892e-19
2.76345e-19
2.76222e-19
2.75315e-19
2.70788e-19
2.71057e-19
2.62088e-19
2.62828e-19
2.61051e-19
2.50224e-19
2.52622e-19
2.4135e-19
2.32303e-19
2.24303e-19
2.30245e-19
2.7388e-19
5.97133e-19
2.44024e-18
4.0653e-18
5.68436e-18
8.43239e-18
1.03669e-17
8.37064e-18
5.12604e-18
2.86568e-18
1.50805e-18
1.0408e-18
7.46704e-19
4.60966e-19
3.67703e-19
3.38754e-19
2.34416e-19
2.26612e-19
1.91787e-19
2.22515e-19
2.03673e-19
2.31487e-19
2.89458e-19
3.6771e-19
3.7207e-19
4.81057e-19
5.66176e-19
6.38217e-19
7.59448e-19
9.40478e-19
1.10194e-18
1.18506e-18
1.27721e-18
1.30353e-18
1.2757e-18
1.35401e-18
1.16169e-18
1.11568e-18
1.01339e-18
8.81019e-19
8.52552e-19
8.70133e-19
7.92248e-19
8.67935e-19
8.50125e-19
7.96838e-19
7.23032e-19
7.43462e-19
7.5562e-19
7.15125e-19
8.57236e-19
8.78231e-19
9.87826e-19
1.05378e-18
7.98927e-19
6.36033e-19
5.55792e-19
9.09756e-19
5.34614e-19
1.03992e-18
8.08534e-19
8.12541e-19
3.89169e-19
4.23516e-19
3.14548e-19
2.21193e-19
-7.76399e-21
-3.56597e-21
3.28777e-19
3.33052e-19
3.44111e-19
3.16784e-19
3.22398e-19
3.30384e-19
3.22207e-19
3.27622e-19
3.40087e-19
3.28712e-19
3.31785e-19
3.37172e-19
3.30211e-19
3.4182e-19
3.43495e-19
3.31765e-19
3.31268e-19
3.36886e-19
3.36136e-19
3.25387e-19
3.24711e-19
3.09062e-19
3.13066e-19
3.01167e-19
3.01446e-19
3.05439e-19
2.96788e-19
2.90651e-19
2.7854e-19
2.75778e-19
2.68427e-19
2.66904e-19
2.54933e-19
2.60182e-19
2.55403e-19
2.53644e-19
2.4889e-19
2.46934e-19
2.47131e-19
2.3549e-19
2.41398e-19
2.28016e-19
2.29816e-19
2.38397e-19
2.30138e-19
2.25813e-19
2.14939e-19
2.09969e-19
2.03189e-19
1.98503e-19
2.07001e-19
2.52447e-19
6.37175e-19
1.59829e-18
1.98534e-18
2.37139e-18
4.13813e-18
6.40915e-18
7.01121e-18
5.47158e-18
3.19045e-18
1.50174e-18
8.08855e-19
5.55357e-19
3.15097e-19
2.38987e-19
2.59752e-19
2.09588e-19
2.191e-19
2.10167e-19
1.4759e-19
1.45448e-19
1.76923e-19
2.14094e-19
3.46433e-19
3.16157e-19
4.17072e-19
5.18985e-19
6.12537e-19
6.98884e-19
8.46025e-19
9.65954e-19
1.01584e-18
1.07385e-18
9.4844e-19
9.45211e-19
9.53812e-19
8.64994e-19
8.68621e-19
8.17404e-19
7.69871e-19
8.30884e-19
7.27856e-19
7.15139e-19
7.57968e-19
7.38222e-19
7.26705e-19
7.21621e-19
7.6255e-19
8.2175e-19
8.31469e-19
9.83576e-19
1.01845e-18
1.26071e-18
1.41934e-18
1.18907e-18
1.14107e-18
1.03165e-18
1.14741e-18
1.14703e-18
1.35819e-18
1.06619e-18
1.44123e-18
1.27374e-18
9.36249e-19
3.93632e-19
3.72019e-19
5.12017e-19
5.76967e-19
3.31128e-19
3.34687e-19
3.5322e-19
3.40944e-19
3.32601e-19
3.3323e-19
2.94786e-19
3.52673e-19
3.66988e-19
3.43961e-19
3.38902e-19
3.4521e-19
3.37802e-19
3.66176e-19
3.42205e-19
3.39774e-19
3.292e-19
3.27215e-19
3.25394e-19
3.17402e-19
3.04163e-19
2.99376e-19
2.92155e-19
2.81082e-19
2.85817e-19
2.76346e-19
2.69e-19
2.49551e-19
2.43901e-19
2.25765e-19
2.3107e-19
2.23934e-19
2.19126e-19
2.11811e-19
2.10702e-19
2.05184e-19
2.11267e-19
1.95749e-19
1.99042e-19
1.82908e-19
2.00978e-19
1.79215e-19
1.73744e-19
1.77647e-19
1.71281e-19
1.87732e-19
1.68851e-19
1.59779e-19
1.57475e-19
1.56257e-19
1.55915e-19
2.0399e-19
5.86226e-19
1.10363e-18
1.21605e-18
1.39273e-18
2.23673e-18
3.41669e-18
4.405e-18
4.8935e-18
3.37989e-18
1.93534e-18
8.9778e-19
5.54603e-19
2.63107e-19
2.67583e-19
2.36147e-19
2.02181e-19
1.95866e-19
2.48843e-19
1.56793e-19
1.3981e-19
1.63757e-19
2.34942e-19
3.2461e-19
3.35273e-19
4.00091e-19
4.80637e-19
5.70271e-19
5.70712e-19
7.49874e-19
6.94124e-19
7.65949e-19
7.09655e-19
6.73337e-19
6.65309e-19
6.33088e-19
6.82407e-19
7.3554e-19
7.39933e-19
7.08009e-19
6.90412e-19
7.07631e-19
6.09199e-19
5.92399e-19
6.84844e-19
7.72816e-19
7.83385e-19
8.11438e-19
9.03252e-19
9.57989e-19
9.50776e-19
1.1592e-18
1.51245e-18
1.41759e-18
1.58772e-18
1.44322e-18
1.24826e-18
1.54302e-18
1.071e-18
1.67038e-18
1.17834e-18
1.44417e-18
1.16187e-18
1.33811e-18
1.0576e-18
1.09249e-18
1.00471e-18
9.37959e-19
3.34882e-19
3.20924e-19
2.99512e-19
3.38396e-19
3.44638e-19
3.48649e-19
3.73909e-19
3.71627e-19
3.10702e-19
3.4869e-19
3.43e-19
3.33752e-19
3.40515e-19
3.33779e-19
3.26625e-19
3.27434e-19
3.28029e-19
2.98228e-19
2.80095e-19
2.86245e-19
2.76418e-19
2.82361e-19
2.44335e-19
2.54829e-19
2.47042e-19
2.32001e-19
2.12135e-19
1.97493e-19
1.9609e-19
1.76976e-19
1.83306e-19
1.66209e-19
1.68344e-19
1.56289e-19
1.44976e-19
1.45417e-19
1.4196e-19
1.37361e-19
1.40678e-19
1.30887e-19
1.40569e-19
1.30992e-19
1.41006e-19
1.21567e-19
1.33146e-19
1.2997e-19
1.21249e-19
1.17601e-19
1.16058e-19
1.11738e-19
1.09581e-19
1.31025e-19
3.27018e-19
3.74322e-19
6.25971e-19
7.60286e-19
1.06454e-18
1.61239e-18
2.32962e-18
2.85156e-18
2.82398e-18
2.01464e-18
1.1246e-18
7.25909e-19
3.13962e-19
2.40228e-19
2.268e-19
1.85729e-19
1.51609e-19
2.27443e-19
2.03085e-19
1.16243e-19
1.29956e-19
2.14358e-19
3.25079e-19
2.83798e-19
3.86155e-19
3.99437e-19
4.61729e-19
4.70028e-19
5.41085e-19
4.88407e-19
5.43109e-19
5.4301e-19
5.54453e-19
5.87419e-19
6.07472e-19
6.07298e-19
6.1925e-19
6.28745e-19
5.9193e-19
5.51779e-19
5.68155e-19
5.65893e-19
6.16296e-19
6.87658e-19
6.95991e-19
7.34506e-19
9.06756e-19
9.14284e-19
9.12474e-19
1.04097e-18
1.29236e-18
1.53672e-18
1.63959e-18
1.67776e-18
1.67301e-18
1.64471e-18
1.70793e-18
1.51187e-18
1.69215e-18
1.76068e-18
2.01724e-18
1.75412e-18
1.90368e-18
1.90428e-18
1.78674e-18
1.49579e-18
1.54732e-18
3.23538e-19
3.17531e-19
3.05833e-19
3.25865e-19
3.37347e-19
3.40653e-19
3.38755e-19
3.51829e-19
3.37997e-19
3.30508e-19
2.70668e-19
3.04516e-19
3.1378e-19
2.68268e-19
2.84886e-19
2.68175e-19
2.62195e-19
2.38113e-19
2.25886e-19
2.41843e-19
2.09531e-19
2.11057e-19
1.91781e-19
1.96657e-19
1.70378e-19
1.62839e-19
1.4178e-19
1.36986e-19
1.31001e-19
1.13706e-19
1.16188e-19
9.15046e-20
1.01313e-19
7.61964e-20
8.36178e-20
7.48804e-20
8.61223e-20
6.79633e-20
9.8308e-20
5.38259e-20
8.22591e-20
6.49358e-20
8.54099e-20
6.32161e-20
7.47432e-20
6.42558e-20
6.19137e-20
6.14761e-20
5.86141e-20
5.33719e-20
3.89429e-20
-1.87433e-20
-1.67846e-19
-1.66387e-19
-1.71999e-19
-1.19026e-19
1.10816e-19
4.66379e-19
8.00367e-19
1.25863e-18
1.56249e-18
1.50188e-18
1.03855e-18
6.29111e-19
3.12883e-19
2.28789e-19
1.91768e-19
1.80731e-19
2.04184e-19
1.67365e-19
1.92112e-19
1.66604e-19
9.26315e-20
1.65762e-19
2.94526e-19
2.21845e-19
3.47929e-19
4.14167e-19
3.20443e-19
3.64685e-19
3.8125e-19
4.68661e-19
4.31216e-19
4.6819e-19
5.339e-19
5.08948e-19
4.6222e-19
5.19787e-19
5.66882e-19
5.55741e-19
5.04633e-19
4.55406e-19
4.80893e-19
5.29723e-19
5.43398e-19
6.07082e-19
5.92146e-19
7.10091e-19
8.9619e-19
8.48862e-19
9.87288e-19
1.03914e-18
1.20957e-18
1.37918e-18
1.29246e-18
1.81209e-18
1.94952e-18
1.87929e-18
1.34029e-18
1.47386e-18
1.77734e-18
1.77089e-18
1.83652e-18
2.36409e-18
2.68381e-18
2.66083e-18
2.59632e-18
2.86887e-18
2.99096e-18
3.1455e-19
3.30795e-19
3.29507e-19
2.86115e-19
2.67325e-19
2.76529e-19
2.65693e-19
2.59466e-19
2.80339e-19
2.8181e-19
2.45513e-19
2.53517e-19
2.19364e-19
2.24725e-19
1.87308e-19
1.97234e-19
1.66377e-19
1.92981e-19
1.6607e-19
1.35183e-19
1.04667e-19
1.33675e-19
1.09948e-19
1.18252e-19
7.7722e-20
7.05723e-20
6.77503e-20
6.41091e-20
5.96456e-20
3.39543e-20
4.29494e-20
3.3028e-20
1.96707e-20
1.57425e-20
2.98005e-20
3.06422e-21
1.64337e-20
-9.77697e-21
1.19322e-20
-7.81871e-21
9.80041e-21
-3.46549e-21
4.28859e-21
8.86433e-21
6.17094e-21
6.4569e-21
1.11915e-20
1.38501e-20
1.44852e-20
7.9945e-21
-2.83842e-20
-2.64664e-19
-5.67634e-19
-5.74233e-19
-5.89411e-19
-5.8929e-19
-6.11271e-19
-5.18503e-19
-1.96657e-19
1.24986e-19
6.08571e-19
7.62556e-19
7.29709e-19
5.64908e-19
3.36835e-19
2.59076e-19
2.58391e-19
2.42563e-19
2.71918e-19
1.03641e-19
1.87573e-19
1.15696e-19
1.04698e-19
9.76934e-20
2.79697e-19
1.80533e-19
3.48654e-19
2.99044e-19
2.49083e-19
2.48597e-19
1.95958e-19
3.48868e-19
4.46753e-19
3.42535e-19
4.22819e-19
4.32153e-19
3.89576e-19
4.12687e-19
4.85432e-19
5.15405e-19
3.9119e-19
3.39797e-19
4.32792e-19
3.96122e-19
4.82441e-19
5.34058e-19
5.3727e-19
7.83513e-19
8.60571e-19
5.70608e-19
8.35159e-19
6.40423e-19
1.02693e-18
1.46659e-18
1.22695e-18
1.43157e-18
1.81724e-18
1.91655e-18
9.99432e-19
8.47047e-19
1.29454e-18
1.52014e-18
1.50363e-18
1.35199e-18
1.46646e-18
1.54894e-18
1.69714e-18
1.77638e-18
1.68467e-18
2.43987e-19
2.5621e-19
2.58679e-19
2.15206e-19
2.69466e-19
2.47028e-19
2.66264e-19
2.24192e-19
1.93029e-19
1.65435e-19
1.72711e-19
1.40234e-19
1.14068e-19
1.31373e-19
9.31589e-20
9.5583e-20
7.89538e-20
1.07188e-19
5.45892e-20
6.51756e-20
2.23953e-20
4.32902e-20
7.26126e-21
4.6568e-21
-2.12517e-20
-8.41707e-21
-2.22325e-20
-2.37647e-20
-5.53031e-20
-3.87509e-20
-3.42113e-20
-5.96049e-20
-4.43664e-20
-3.79882e-20
-3.97566e-20
-5.17056e-20
-3.66325e-20
-5.01053e-20
-3.0223e-20
-4.79831e-20
-3.55986e-20
-5.33231e-20
-3.12538e-20
-4.02143e-20
-4.72352e-20
-3.7669e-20
-3.66237e-20
-4.02737e-20
-4.24014e-20
-4.29455e-20
-1.29583e-19
-6.0729e-19
-9.07526e-19
-8.87153e-19
-8.85787e-19
-8.17834e-19
-7.92085e-19
-6.6322e-19
-5.12445e-19
-2.19695e-19
1.13964e-19
2.38667e-19
3.47091e-19
3.35063e-19
2.61207e-19
2.4036e-19
2.24628e-19
2.38034e-19
2.434e-19
5.53905e-20
1.48233e-19
1.37524e-19
1.12944e-19
8.41349e-20
2.19668e-19
2.07978e-19
2.57045e-19
2.79114e-19
1.98892e-19
1.80256e-19
1.40309e-19
3.78209e-19
3.55354e-19
3.94699e-19
4.02995e-19
3.66099e-19
3.87414e-19
4.56065e-19
4.64403e-19
4.66498e-19
2.68218e-19
2.76739e-19
4.08649e-19
3.41042e-19
4.0517e-19
4.60301e-19
4.54972e-19
6.31794e-19
6.66722e-19
6.26032e-19
6.49317e-19
6.83043e-19
5.5742e-19
1.31014e-18
1.00194e-18
9.67129e-19
1.4508e-18
9.17936e-19
9.93121e-19
1.07607e-18
6.8185e-19
9.90526e-19
1.44129e-18
1.50351e-18
1.24689e-18
1.58471e-18
1.79305e-18
1.94597e-18
1.99697e-18
2.1759e-19
2.06368e-19
2.00671e-19
1.41933e-19
2.02698e-19
2.02436e-19
1.59807e-19
1.13478e-19
7.7507e-20
1.00706e-19
9.98042e-20
8.17493e-20
7.9002e-20
4.4963e-20
2.97917e-20
4.52059e-21
2.0575e-20
-3.4194e-20
-2.91444e-20
-5.77331e-20
-5.38784e-20
-7.63432e-20
-9.22651e-20
-9.18772e-20
-9.33317e-20
-9.32992e-20
-1.04307e-19
-1.00459e-19
-9.88502e-20
-8.70692e-20
-9.62955e-20
-8.71489e-20
-7.69977e-20
-8.6596e-20
-7.66962e-20
-7.88687e-20
-6.92407e-20
-7.39756e-20
-6.25221e-20
-7.47428e-20
-5.79438e-20
-6.86205e-20
-4.88796e-20
-6.68718e-20
-4.89952e-20
-5.4677e-20
-5.32009e-20
-5.37412e-20
-5.01449e-20
-7.55328e-20
-2.6068e-19
-9.53928e-19
-1.07826e-18
-1.05146e-18
-1.03213e-18
-9.84892e-19
-9.28754e-19
-8.47583e-19
-7.34651e-19
-6.74488e-19
-4.31263e-19
-2.03604e-19
5.82119e-20
8.67055e-20
1.5945e-19
1.61406e-19
1.72505e-19
1.89462e-19
1.61699e-19
6.56884e-20
5.00327e-20
2.19758e-19
6.7049e-20
7.60387e-20
1.93431e-19
1.22711e-19
3.1367e-19
1.99235e-19
8.56882e-20
1.8518e-19
1.69229e-19
2.75234e-19
3.33614e-19
4.34318e-19
3.68775e-19
4.09836e-19
3.7719e-19
3.80156e-19
3.28848e-19
3.34433e-19
2.39652e-19
2.52706e-19
2.75388e-19
2.62608e-19
3.92482e-19
4.6757e-19
3.65983e-19
4.687e-19
4.50211e-19
8.05566e-19
5.73134e-20
-4.03787e-20
1.5123e-19
1.02669e-19
1.1059e-18
7.50865e-19
9.61945e-19
5.40074e-19
2.04031e-19
8.29475e-19
1.26303e-18
5.15582e-19
4.67989e-19
5.45591e-19
6.86917e-19
9.17432e-19
9.25024e-19
1.11689e-18
1.17853e-18
1.27493e-19
1.28228e-19
1.5044e-19
1.17867e-19
9.04549e-20
1.2053e-19
3.75006e-20
-3.82523e-20
-2.89939e-20
3.84543e-20
3.7273e-20
1.34728e-20
-4.77367e-21
-1.69584e-20
-4.61273e-20
-8.50582e-20
-7.63462e-20
-1.63773e-19
-1.33529e-19
-1.54272e-19
-1.56852e-19
-2.03498e-19
-1.31435e-19
-1.74785e-19
-1.56862e-19
-1.54327e-19
-1.36039e-19
-1.44853e-19
-1.17017e-19
-1.23694e-19
-1.20721e-19
-9.2238e-20
-1.04462e-19
-8.72772e-20
-9.58474e-20
-7.92199e-20
-7.52177e-20
-8.49101e-20
-6.09353e-20
-7.96601e-20
-6.04989e-20
-6.97291e-20
-4.95876e-20
-6.73467e-20
-4.81711e-20
-4.89168e-20
-5.1001e-20
-4.31296e-20
-4.98809e-20
-9.08046e-20
-4.33976e-19
-1.12978e-18
-1.27513e-18
-1.26045e-18
-1.236e-18
-1.19096e-18
-1.12935e-18
-1.06729e-18
-9.54491e-19
-8.02726e-19
-5.99491e-19
-3.3153e-19
-6.13593e-20
2.82546e-20
8.83037e-20
2.44445e-19
1.41843e-19
2.41604e-19
7.71239e-20
-2.00063e-20
9.40203e-20
1.84874e-19
7.55577e-21
9.9613e-20
2.22039e-19
1.35464e-19
1.81927e-19
1.4461e-19
2.02556e-19
2.65771e-19
1.85843e-19
2.71503e-19
3.59648e-19
4.35698e-19
4.53519e-19
2.14048e-19
1.84985e-19
8.36303e-20
3.68396e-19
4.2755e-19
1.90609e-19
1.31977e-19
1.90454e-19
2.98126e-19
3.81332e-19
4.05111e-19
2.79611e-19
4.53859e-19
3.65707e-19
6.65131e-19
4.21707e-19
8.13536e-20
2.04059e-19
8.09339e-19
6.09669e-19
2.29805e-19
3.84315e-19
9.66835e-19
-1.84124e-19
3.34586e-19
3.37225e-19
5.65613e-20
8.44951e-20
-1.85212e-19
-3.19743e-19
-6.20794e-19
-7.33516e-19
-6.83004e-19
-6.92376e-19
8.15155e-21
3.33388e-20
6.45313e-20
1.58331e-19
6.42809e-20
-7.30597e-20
2.69281e-20
2.61504e-21
1.61239e-20
-2.50483e-20
-3.97239e-20
-1.38018e-19
-8.22442e-20
-1.99888e-19
-1.41393e-19
-1.73383e-19
-2.27462e-19
-1.93801e-19
-2.28096e-19
-2.06787e-19
-1.79011e-19
-1.89859e-19
-1.87411e-19
-1.60581e-19
-1.70787e-19
-1.41206e-19
-1.47949e-19
-1.25023e-19
-1.24267e-19
-1.04486e-19
-9.46255e-20
-6.65708e-20
-9.27917e-20
-5.28065e-20
-8.10543e-20
-5.16305e-20
-5.66498e-20
-4.71893e-20
-4.60862e-20
-6.47955e-20
-2.79267e-20
-3.8454e-20
-3.68062e-20
-4.08881e-20
-3.7991e-20
-3.72159e-20