/*--------------------------------*- C++ -*----------------------------------*\
| =========                 |                                                 |
| \\      /  F ield         | OpenFOAM: The Open Source CFD Toolbox           |
|  \\    /   O peration     | Version:  2.2.x                                 |
|   \\  /    A nd           | Web:      www.OpenFOAM.org                      |
|    \\/     M anipulation  |                                                 |
\*---------------------------------------------------------------------------*/
FoamFile
{
    version     2.0;
    format      ascii;
    class       volScalarField;
    location    "0.95";
    object      divBf;
}
// * * * * * * * * * * * * * * * * * * * * * * * * * * * * * * * * * * * * * //

dimensions      [1 -3 -2 0 0 -1 0];

internalField   nonuniform List<scalar> 
14161
(
575.333
328.854
330.678
282.328
250.537
215.535
185.064
154.506
128.154
100.45
78.3792
53.8078
30.5766
16.0806
-6.441
-29.0967
-39.2426
-52.8707
-80.4754
-89.3952
-93.7779
-127.465
-136.738
-129.188
-161.184
-182.004
-178.741
-187.217
-207.812
-220.056
-183.286
-176.432
-175.523
-172.81
-120.603
-66.7215
43.8212
167.45
333.917
503.928
767.599
1047.26
1185.93
1097.26
1748.64
-26003.6
-26740.5
-27968.7
-28695.7
-29078.7
-29762.1
-28852.5
-30358
-9520.52
-21425.7
-21841.6
-33493.6
-32297
-35603.9
-37182.3
-35602
-33352.7
-32231.1
-29670.7
-27234.5
-24309.5
-21856.4
-19035.4
-17026.1
-14444.8
-11691.3
-9073.52
-7272.27
-5326.6
-3464.76
-1707.68
-252.897
1301.3
2578.08
4670.93
6539.59
7160.75
9110.27
10388.7
11501.2
12270.6
13354.1
13715.9
14371
14999.5
14875
15251.1
14755.2
14559.3
14191.7
13732.9
14104.9
13134.1
11103.3
4394.63
-4551
-9591.42
-10717.3
-11415.2
-11220.6
-11636.1
-11316.8
-11669.9
-11047.9
-11274.7
-9947.56
-10225
-7745.69
-8097.94
-3615.93
-5890.56
4942.23
-6638.41
20957.9
327.355
82.3963
84.6048
35.9003
2.80457
-34.4312
-67.5713
-101.219
-132.466
-164.438
-192.988
-223.46
-252.792
-277.02
-308.2
-337.282
-358.589
-388.263
-420.8
-441.121
-468.419
-510.722
-525.719
-552.408
-596.635
-630.09
-638.823
-691.274
-729.313
-727.52
-742.456
-787.636
-804.239
-797.96
-746.901
-705.558
-648.212
-571.222
-498.16
-439.258
-286.924
-207.341
216.657
1016.09
1754.09
-22620.5
-23516.1
-24211.9
-24402.3
-24885.4
-25922.4
-23295.2
-27084.5
764.273
-20363
-19956.5
-33839.4
-33354.1
-34283.9
-36986.8
-33338.2
-30918.4
-28159.9
-25353.5
-23019.5
-19886
-16921.1
-14491.8
-12061.7
-10556.4
-8663.38
-6483.37
-4632.54
-2805.05
-1161.71
626.979
2062.64
3354.07
4601.05
6792.93
8050.58
9205.63
10788.5
12019.6
13234
13740.6
14566.5
15289.2
16066.7
16645.5
16560.1
16003.6
16940.7
16480.1
15310
14430.6
12897.4
10973
6203.04
-1267.21
-6173.6
-9217.8
-8932.42
-9751.85
-9959.34
-10522
-10386.5
-10780.4
-10209.2
-10500.1
-9245.69
-9461.59
-7081.06
-7603.84
-3215.27
-5720.38
4725.55
-6614.42
19866.9
83.155
-157.557
-153.925
-201.549
-234.295
-272.255
-306.862
-342.443
-376.381
-411.343
-444.38
-478.784
-512.646
-544.979
-581.457
-616.151
-647.728
-686.438
-726.561
-755.968
-798.325
-847.233
-874.3
-918.34
-974.525
-1017.93
-1048.77
-1116.29
-1166.06
-1183.93
-1234.96
-1283.37
-1306.67
-1308.3
-1317.36
-1316.13
-1294.87
-1243.78
-1193.64
-1073.72
-869.333
-591.746
-216.634
-72.9708
233.936
-19645.8
-20119.8
-20392.5
-20804.5
-21500.2
-22484.8
-20450.8
-23084.9
8881.82
-20754.1
-19956.8
-36533
-38853.9
-38668.2
-36310.9
-34585.3
-31569
-28506.5
-25921
-23986.3
-20895.4
-17542.6
-15201.1
-12094.3
-9695.81
-7875.76
-5316.45
-3191.99
-1577.25
366.777
2007.35
3594.77
4627.64
5755.23
8206.12
9011.35
10728.3
11888.2
13279.7
14029.9
14962.3
15298.8
15329.7
17040.8
17020.6
17783.3
17816.8
17605.5
16783.9
16949.1
16722.1
16031.4
17921.9
10616.4
7959.32
-1262.03
-2424.25
-3857.05
-4995.24
-6051.77
-7132.87
-7523.85
-8324.07
-8104.63
-8587.27
-7637.86
-8140.01
-5986.65
-6712.1
-2587.46
-5235.48
4642.74
-6336.64
19001.7
-154.831
-389.95
-383.586
-428.83
-460.38
-497.447
-532.073
-568.184
-603.727
-639.82
-676.585
-713.315
-749.954
-789.388
-828.574
-865.81
-908.863
-954.382
-994.392
-1037.94
-1093.64
-1139.01
-1182.91
-1245.98
-1299.58
-1345.44
-1414.55
-1488.98
-1538.96
-1573.57
-1649.57
-1706.79
-1751.77
-1772.74
-1811.55
-1825.37
-1813.15
-1772.55
-1683.08
-1571.7
-1420.59
-1284.55
-1096.87
-808.644
-347.228
-16677.7
-16980.6
-17705.9
-18410.6
-18634.3
-19081.1
-18115.7
-18597.5
10367.7
-20624.7
-25571.1
-37468.9
-41837.1
-41194.3
-38100
-34239.5
-30402.8
-26222.3
-22411.2
-20119
-16199.6
-12723.5
-10675.9
-8345.02
-5673.47
-4747.34
-2367.29
-693.994
1051.44
2311.53
3813.85
5280.62
6708.96
7701.71
10065.7
10498.2
12396.8
13311.3
14478.5
15250
15862.7
16605.9
17122
18528.5
18385.5
19049.4
17657.5
19385.6
19347.4
19184.6
19208.8
20384.5
16623.3
13552.4
5379.88
3750.57
-825.174
-259.167
-2757.16
-3790.48
-5123.12
-5664.74
-6541.64
-6508.1
-7194.18
-6409.53
-7029
-5078.88
-5987.35
-2192.3
-4974.73
4238.08
-6193.67
17813.1
-385.587
-613.499
-603.518
-645.208
-674.275
-709.506
-742.93
-778.745
-814.676
-851.124
-889.586
-928.529
-966.311
-1011.01
-1051.99
-1092.76
-1141.16
-1193.83
-1234.13
-1286.45
-1354.08
-1393.93
-1454.78
-1532.61
-1587.91
-1637.81
-1724.52
-1815.1
-1860.84
-1917.17
-2003.82
-2076.43
-2125.89
-2173.18
-2210.73
-2229.59
-2218.75
-2181.53
-2134.1
-2059.24
-1953.03
-1806.69
-1557.44
-1152.67
-593.169
-14234.9
-14764.7
-15349.3
-15920.5
-15777.1
-16663.1
-16374.1
-18707.2
-7437.55
-18574.5
-36881.4
-44621.7
-46113.1
-41901.1
-33804.5
-31264.3
-27207.1
-23303.7
-20375.6
-15668.1
-13401
-11680.9
-8600.55
-6534.45
-3736.2
-2419.59
-570.768
833.333
2845.17
4078.28
5362.11
6757.39
8260.13
9839.18
11475.3
11728.5
14321.6
14753.9
15962.5
16459.5
18285.4
18434.7
19015.6
19607.6
19418
20200.5
21514.2
21647.5
22607.9
24101.1
26713.2
27240.8
20788.2
12058.2
8529.64
1968.1
3544.51
182.326
-891.39
-2197.75
-3456.27
-4140.12
-5138.76
-5225.46
-5969.87
-5322.88
-6064.41
-4290.13
-5349.39
-1726.92
-4504.36
3959.15
-5895.39
16588.5
-607.692
-827.109
-812.504
-849.757
-875.409
-907.95
-939.484
-974.001
-1009.04
-1045.47
-1084.59
-1123.57
-1163.35
-1211.44
-1252.72
-1296.84
-1351.82
-1404.06
-1448.1
-1510.72
-1580.3
-1621.54
-1696.61
-1780.56
-1824.91
-1905.7
-2006.22
-2083.52
-2126.72
-2220.38
-2321.37
-2388.61
-2438.19
-2502.33
-2565.57
-2598.72
-2609.43
-2582.75
-2529.35
-2453.8
-2329.74
-2146.36
-1826.98
-1418.25
-900.37
-12078
-12423.6
-12831.8
-13136.6
-13282
-12930
-13287.2
-11200.1
-23325
-25984.3
-50031.4
-53429.4
-44459.7
-35201.5
-28302.3
-25306.5
-20427.5
-18356.3
-15182.9
-12583.5
-9065.07
-7128.22
-4596.49
-2442.84
129.011
1568.11
1793.35
3185.32
4918.26
5814.65
7119.37
8203.54
10375
11673.6
13125.9
13732.6
15637
16639.5
17427.2
18304.1
18963.8
19312.9
19981.9
21594.9
22193.4
23450.1
24627.5
26467.1
29523.2
32857.9
34515.3
26971
16555.7
12143.1
5709.41
5038.12
2986.82
1555.62
327.653
-930.397
-2136.42
-2876.26
-3900.84
-4092.46
-4892.47
-4395.53
-5200.46
-3660.35
-4904.38
-1635.53
-4647.18
3265.89
-5909.74
15152.8
-820.034
-1029.66
-1009.73
-1041.79
-1063.46
-1092.52
-1121.61
-1153.96
-1187.61
-1223.52
-1261.79
-1301.04
-1341.88
-1390.77
-1432.69
-1479.63
-1539.91
-1588.4
-1640.74
-1711.93
-1773.68
-1828.35
-1912.88
-1994.1
-2040.63
-2137.95
-2241.55
-2311.15
-2375.65
-2484.17
-2588.87
-2656.56
-2713.33
-2774.89
-2852.6
-2925
-2954.4
-2938.41
-2854.04
-2764.25
-2638.01
-2457.45
-2241.47
-1884.46
-1448.74
-10472.5
-10824.5
-11102.8
-11527.4
-12002.2
-12319.6
-14631.5
-18515.6
-65539.3
-43146.4
-71724.7
-42599.1
-34190.9
-25292.3
-26721.8
-22299.6
-17967.6
-17473.5
-11685.2
-7332.58
-5276.41
-2924.06
-707.869
660.491
2123.14
4099.23
4220.63
5553.84
6329.37
7559.94
9128.38
10321.7
11897.1
13447.6
14592.9
15665.9
17368.5
18161.2
19200.1
19227.8
21463.9
22178.7
23166.3
24366.1
26045.6
27239.6
32111.2
37167.8
42503.8
42808.1
30476.6
19975.9
13867.9
9014.05
5100.62
5305.85
3031.28
2460.55
985.047
17.5239
-1145.25
-1903.31
-2895.21
-3158.74
-3997.73
-3577.19
-4462.4
-3048.98
-4343.56
-1281.07
-4282.49
2993.91
-5593.55
13919.9
-1021.17
-1220.16
-1194.44
-1220.79
-1237.96
-1263.17
-1289.12
-1318.92
-1350.75
-1385
-1422.56
-1461.27
-1503.33
-1550.28
-1593.53
-1645.06
-1704.6
-1751.3
-1812.5
-1887.77
-1938.58
-2012.1
-2102.22
-2163.87
-2240.58
-2346.76
-2445.01
-2493.07
-2597.37
-2714.9
-2821.11
-2877.59
-2945.95
-3031.25
-3107.62
-3181.51
-3216.08
-3234.06
-3174.47
-3046.25
-2894.52
-2722.83
-2539.62
-2228.41
-1706.81
-8615.54
-8724.33
-8943.19
-8459.09
-7339.41
-5715.06
-3745.45
-11054.1
-68164.5
-121417
-69678.5
-16119.1
-7481.8
-6438.22
-11959.4
-14109
-16049.6
-10071.2
-5864.36
-1487.91
1249.07
1063.97
1573.71
4395.33
3907.26
5465.8
7819.78
7924.65
7601.91
8418.01
10696.5
12310.6
13997.1
15200
16481.9
17160.9
18435.7
19722.2
21616.9
22337.2
23877.8
26002.3
26687.9
29578.4
35199.3
38064.5
45111.4
51053.8
43652.1
31008.4
21635.9
15029.2
10241.7
7015.42
5582.46
4421.92
3341.71
2512.66
1539.21
700.135
-372.763
-1074.18
-2043.46
-2384.38
-3242.21
-2971.62
-3908.19
-2731.85
-4077.48
-1257.37
-4288.81
2546.59
-5586.94
12343
-1210.06
-1397.74
-1366.07
-1386.39
-1398.67
-1419.7
-1442.08
-1469.1
-1498.43
-1531.14
-1567.36
-1605
-1648.12
-1691.4
-1738.65
-1793.08
-1846.84
-1899.7
-1966.09
-2037.18
-2092.43
-2174.15
-2264.84
-2317.18
-2412.57
-2524
-2606.47
-2673.12
-2789.66
-2913.72
-3010.82
-3058.23
-3164.98
-3254.29
-3336.46
-3396.2
-3443.39
-3471.95
-3437.38
-3342.84
-3164.16
-3041.23
-2837.63
-2545.21
-2091.5
-7477.94
-7568.66
-7727.9
-7514.4
-7275.96
-7455.67
-9295.43
-19648.7
-79183.4
-204654
-50608.2
-14126.3
-8120.61
-6265.12
-7974.36
-10517.7
-9440.43
-4212.23
-713.427
-774.685
-273.258
4953.05
6569.2
6586.98
7092.63
7602.78
11249.1
9975.45
10354.1
11428.2
12718.9
13954.6
15009.8
16274.2
16982
19392.6
20837
22112.4
24858
25730.7
28198.7
33490.4
36227.5
41351.8
49202.5
55804.6
55960.3
43356.8
31006.1
21152.3
15097.7
10697.7
7772.05
5424.72
4891.54
3973.06
3208.28
2610.44
1874.88
1178.9
264.71
-401.716
-1304.83
-1670.1
-2483.73
-2319.1
-3198.81
-2246.61
-3579.76
-1050.97
-4129.92
2182.06
-5488.61
11069.2
-1385.89
-1561.78
-1524.02
-1538.15
-1545.39
-1561.95
-1580.61
-1604.74
-1631.21
-1662.68
-1696.08
-1733.55
-1776.36
-1817.19
-1866.79
-1922.72
-1969.35
-2030.55
-2103.42
-2158.77
-2229.06
-2319.58
-2391.9
-2464.71
-2567.79
-2676.33
-2732.28
-2840.65
-2963.04
-3075.37
-3146.15
-3232.69
-3343.09
-3449.46
-3546.99
-3603.38
-3630.34
-3666.88
-3631.46
-3581.16
-3464.85
-3342.94
-3101.99
-2693.42
-2304.49
-5709.06
-5882.75
-5847.6
-5627.02
-5334.31
-5216.57
-7102.45
-21661.4
-115159
-93073.3
-68429.2
-41570.5
-18959.5
-7767.33
-6308.2
-5884.3
-3779.14
-1951.83
-1021.75
-568.32
2614.31
6462.37
8026.03
8278.6
10644.9
8897.39
11127.4
12470.6
12354.1
13092.1
14034.2
16139.1
17505.9
19287.7
20331.3
22144
25052
26417.8
31226.6
34817.5
37884.5
46977.3
51722.9
60010.3
63419.7
51973.3
37791.1
28123.1
19403.2
14104.4
10245
7821.95
4984.19
5186.85
3817.81
3624.66
2828.25
2784.18
2103.32
1585.28
746.725
113.383
-777.034
-1192.43
-1988.39
-1945.67
-2774.77
-2054.83
-3293.65
-999.291
-4031.47
1768.35
-5462.93
9711.04
-1547.64
-1711.63
-1667.86
-1675.77
-1677.96
-1690.09
-1705.05
-1726.01
-1749.71
-1779.59
-1810.25
-1848.04
-1888.01
-1928.56
-1980.94
-2032.52
-2080.74
-2145.55
-2216.36
-2271.33
-2347.26
-2439.21
-2500.67
-2590.38
-2700.45
-2783.6
-2862.9
-2978.1
-3110.44
-3208.8
-3260.8
-3392.1
-3505.79
-3628.94
-3732.44
-3751.24
-3779.57
-3800.97
-3828.22
-3857.2
-3832.29
-3600.99
-3282.5
-2937.73
-2596.93
-4923.2
-5063.53
-5065.62
-5068.23
-5216.43
-5866.3
-9077.57
-35563.5
-129005
-25385.7
-48640.6
-75755.1
-40877.9
-22882.9
-14454.2
-7068.54
-3338.82
-1951.35
319.485
2594.75
7262.64
9557.08
9616.54
10667.3
12895.9
12790.6
11383
13372.7
14709.8
15456.3
17449.5
18633.6
20565.2
22582.8
25701.4
28037.4
33934
36244
42771.3
50831.2
55750.8
63854.4
68280.7
57392.7
41230
33485.5
23554.5
17248.6
12515.3
9225.26
7170.77
4689.79
4949.63
3645.16
3440.25
2860.07
2722.58
2643.25
2215.51
1766.85
1079.23
528.854
-240.642
-630.332
-1390.64
-1448.38
-2241.52
-1714.21
-2939.98
-849.74
-3859.15
1518.36
-5306.88
8580.94
-1694.77
-1846.82
-1797.22
-1799.1
-1796.32
-1804.24
-1815.47
-1833.26
-1854.54
-1881.76
-1910.92
-1948.12
-1984.97
-2026.56
-2078.73
-2124.93
-2179.56
-2247.86
-2305.34
-2371.47
-2457.96
-2527.47
-2605.32
-2707.25
-2810.77
-2865.01
-2981.89
-3109.82
-3228.7
-3294.57
-3385.46
-3508.26
-3669.79
-3799.95
-3813.82
-3868.25
-3939.21
-3997.31
-4045.24
-4064.56
-3975.34
-3775.79
-3488.45
-3287.16
-2944.29
-3944.34
-4002.85
-3967.55
-3757.02
-3564.44
-3431.1
-8671.1
-59156.6
-75922.7
-12626.5
-27457.6
-52306.6
-63562.7
-37445.7
-21936.8
-8767.27
-4184.52
-400.534
3676.18
5270.53
10909.5
12138.6
11928.4
12145.5
12392.9
15276.4
12938
14598.7
16848.1
19519.2
21503.5
23467.8
27924.1
30473.7
36461.4
41648.6
49538.8
54922.1
62317.3
69881.8
67617.8
54857.4
43496.8
36324.8
26082.6
19603.6
14266.5
10442.2
7786.25
6146.97
4165.02
4195.47
3260.27
3193.24
2685.73
2684.34
2567.46
2743.6
2357.2
2010.01
1363.84
828.542
98.6025
-320.837
-1027.22
-1168.21
-1844.21
-1551.57
-2670.12
-893.162
-3805.61
1103.14
-5272.45
7389.48
-1826.59
-1966.91
-1911.89
-1908.04
-1900.65
-1904.37
-1912.19
-1926.99
-1945.8
-1970.14
-1998.58
-2032.92
-2068.73
-2112.76
-2159.19
-2206.91
-2265.75
-2328.66
-2385.13
-2457.75
-2543.97
-2601.75
-2692.53
-2802.94
-2884.84
-2965.17
-3076.6
-3202.83
-3308.36
-3388.63
-3496.41
-3642.9
-3786.29
-3849.6
-3910.93
-4005.33
-4088.3
-4188.96
-4256.53
-4244.99
-4102.69
-3999.24
-3827.09
-3538.31
-3218.06
-3058.8
-3089.48
-3139.27
-3202.64
-3303.03
-5370.48
-15456.1
-103509
-35488.6
-8328.65
-14591.7
-26739.4
-48079.5
-69864.2
-37871.3
-19303.8
-8883.71
-271.789
6955.44
9513.04
11024.6
13002.6
12681
14418
12506
19054.8
17253.4
20306.7
21778.7
27192.7
30368.7
33948.3
42286.5
48158.5
54834.6
63827.3
69385.9
72213.4
63742.9
51116.3
44009.9
34072.4
26737.2
20873.9
15332.5
11701
8519.9
6570.2
5059.98
3685
3427.26
2827.37
2708.32
2344.68
2324.7
2314.14
2414.71
2519.33
2291.99
2020.88
1525.67
1098.92
458.372
62.7002
-630.525
-832.795
-1475.19
-1261.27
-2307.24
-753.402
-3544.32
918.268
-5040.59
6460.58
-1942.63
-2071.64
-2011.76
-2002.6
-1990.99
-1990.85
-1995.49
-2007.3
-2023.84
-2045.62
-2073.69
-2104.48
-2140.06
-2185.14
-2226
-2276.54
-2339.38
-2391.14
-2453.42
-2536.35
-2601.72
-2676.93
-2773.76
-2872.01
-2941.46
-3042.22
-3165.73
-3278.79
-3357.31
-3473.96
-3607.72
-3755.72
-3833.8
-3903.11
-4018.15
-4121.1
-4240.47
-4333.2
-4380.52
-4313.65
-4273.42
-4186.91
-4004.5
-3724.06
-3391.95
-2284.78
-2376.32
-2404.59
-2374.13
-2610.51
-4029.63
-22246.4
-91946.1
-5889.53
-3077.14
-6875.2
-15004.9
-24423.6
-41644.3
-56153
-43058.7
-20489.4
-3947.23
5437.26
12491.6
11196.9
14686.2
14115.2
17949.2
17820.5
22515.8
23339.3
31235.6
33842
40648.8
48961.1
54906
64853
72910.6
75560.1
67238.8
56141.4
46968.4
39216.2
31605.3
26297.5
20243.1
15384.1
12443.7
9185.22
7002.57
5473.09
4194.34
3312.31
2858.64
2445.13
2243.57
1926.53
1970.2
2005.32
2222.64
2483
2619.97
2418.55
2205.92
1716.58
1300.67
704.637
317.89
-318.552
-617.232
-1163.94
-1169.42
-2100.55
-826.507
-3398.01
570.285
-4923.18
5497.22
-2042.68
-2160.93
-2096.84
-2082.88
-2067.45
-2063.89
-2065.41
-2074.62
-2088.84
-2108.98
-2135.29
-2163.99
-2200.96
-2241.03
-2282.91
-2337.23
-2392.02
-2445.58
-2514.77
-2590.57
-2652.32
-2735.28
-2838.28
-2906.16
-3003.77
-3116.9
-3235.29
-3307.98
-3415.09
-3539.84
-3697.62
-3830.04
-3863.53
-3977.41
-4098.53
-4239.7
-4359.64
-4433.87
-4422.28
-4434.67
-4411.03
-4349.67
-4192.19
-4003.24
-3702.9
-1614.12
-1563.52
-1496.69
-1440.61
-1925.36
-5996.76
-41299.6
-67817.8
-3629.21
-5389.65
-2985.06
-8091.9
-11511.9
-21117.4
-36329
-63357.9
-34944.1
-8866.67
3188.37
14584.9
16090.5
19314.3
20638.6
24525.9
29442.5
34209.2
40340.6
48876.6
55780.9
63693.1
74083.8
78737.6
69163.6
60114.5
50399.1
42915.1
34503.2
29327.2
23738
18425.5
15232.1
12267.3
9261.69
7423.77
5857.24
4673.94
3638.22
2838.67
2326.77
2112.63
1875.97
1687.25
1627.32
1668.5
1834.05
2127.82
2373.69
2447.31
2326.37
2159.1
1772.29
1421.82
883.887
528.486
-72.5788
-370.135
-859.513
-915.057
-1805.47
-730.369
-3110.36
413.937
-4636.64
4754.42
-2126.44
-2234.66
-2167.15
-2149.04
-2130.22
-2123.58
-2122.52
-2129.38
-2141.61
-2160.56
-2184.32
-2212.07
-2248.97
-2285.31
-2329.63
-2383.39
-2431.56
-2489.73
-2565.39
-2622.01
-2696.85
-2792.23
-2874.79
-2945.88
-3049.81
-3176.37
-3272.64
-3338.4
-3467.85
-3613.22
-3750.06
-3840.4
-3932.57
-4055.49
-4184.65
-4304.07
-4426.54
-4464
-4500.1
-4518.62
-4504.73
-4433.18
-4346.57
-4172.23
-3932.93
-1050.14
-991.103
-950.859
-1061.55
-2507.17
-9533.68
-70831.2
-50517.6
218.802
-865.723
836.777
-1921.13
-3416.47
-9618.04
-15777.4
-34351.1
-43906.6
-20474.6
7114.39
18580.6
21187.8
30194
33434.4
41459.6
46803.1
54908.4
64610.6
72789
77116.2
71211.5
61078.9
53748.7
44565.9
36886.1
31173.3
26320.8
20900.2
17125.1
14721.2
11587.4
9374.59
7768.16
6025.96
4990.02
3907.96
3234.92
2522.23
2186.22
1869.3
1590.89
1413.22
1291.87
1365.51
1555.45
1765.25
2134.81
2410.78
2526.83
2449.35
2292.4
1921.19
1589.08
1113.77
747.394
173.865
-176.107
-593.834
-809.841
-1591.87
-795.565
-2916.86
105.681
-4443.62
4005.44
-2194.02
-2293
-2222.8
-2201.15
-2179.48
-2170.28
-2167.18
-2172.08
-2182.61
-2199.76
-2221.78
-2250.34
-2282.97
-2319.94
-2367.32
-2412.81
-2462.9
-2529.74
-2591.56
-2652.12
-2733.37
-2826.66
-2884.41
-2981.88
-3096.77
-3203.42
-3274.45
-3388.09
-3514.89
-3642.22
-3752.12
-3863.96
-3991.18
-4105.85
-4232.28
-4372.21
-4423.52
-4482.32
-4546.31
-4568
-4569.33
-4544.53
-4482.7
-4324.71
-4052.68
-485.74
-437.958
-426.827
-504.602
-1811.05
-14533.6
-91848
-11822.5
2196.21
812.842
904.164
-741.609
-2418.53
-3062.82
-5612.59
-11594.9
-15217.6
-15754.4
11404.9
29688.3
38672.9
48633.4
57809
68857.3
69970.7
75745.6
67814.6
60043.7
52372.7
46768.2
38451.4
33436
27892.2
23071.7
18217.3
15828
13694.9
10884
9117.66
7583.52
6278.37
5524.8
4286.53
3728.22
2931.72
2223.32
1842.72
1609.82
1460.77
1343.01
1269.05
1209.2
1250.7
1485.41
1746.7
2065.82
2280.39
2345.96
2298.07
2187.3
1882.8
1603.84
1225.39
870.334
376.706
-12.3046
-381.884
-624.055
-1354.65
-602.486
-2546.11
-5.07536
-4114.69
3396.46
-2245.5
-2336.1
-2264.06
-2239.58
-2215.77
-2204.47
-2199.65
-2203
-2211.83
-2227.48
-2248.5
-2276.87
-2306.1
-2345.44
-2390.26
-2432.34
-2486.61
-2553.69
-2603.93
-2673.16
-2764.26
-2831.18
-2908.93
-3008.74
-3118.88
-3195.38
-3302.48
-3412.38
-3549.06
-3660.6
-3749.16
-3880.65
-4009.72
-4165.45
-4304.51
-4364.25
-4416.81
-4499.79
-4568.15
-4623.24
-4647.37
-4632.78
-4580.47
-4424.39
-4154.16
48.7643
152.113
160.967
-189.886
-2735.91
-27392.7
-79038.7
-2417.12
703.114
1682.27
1765.38
1681.03
973.368
3298.66
5169.38
7642.43
10891.9
16523.5
35638
51459.1
68013.5
72525.9
69553.9
64002.6
57402.7
52578.1
46119.6
38918
34019.4
30001.5
24500.9
19883.8
17194.2
15295.5
12580.3
10419.7
9255.14
7888.26
6676.09
5886.26
4851.62
4395.05
3151.47
3047.99
2381.19
2103.65
1734.61
1407.45
1135.92
893.905
774.407
980.514
1281.89
1473.61
1772.25
2097.72
2298.1
2426.73
2382.99
2272.23
1996.74
1733.24
1400.99
1035.59
590.629
188.533
-140.821
-472.137
-1154.12
-593.151
-2379.52
-206.269
-3885.4
2879.83
-2281.06
-2364.23
-2291.21
-2264.65
-2239.36
-2226.54
-2220.28
-2222.24
-2230.01
-2244.59
-2265.54
-2291.34
-2320.14
-2361.06
-2400.95
-2443.87
-2503.56
-2557.83
-2614.22
-2692.05
-2768.19
-2832.59
-2919.14
-3029.7
-3113.12
-3196.97
-3304.27
-3444.71
-3561.61
-3634.01
-3747.89
-3882.71
-4044.56
-4199.22
-4284.54
-4353.7
-4452.82
-4528.46
-4595.55
-4647.94
-4656.74
-4643.27
-4567.65
-4401.01
-4135.16
642.617
726.332
765.494
646.429
-5105.39
-49178.3
-55557.9
1349.19
713.836
2501.71
3131.33
4101.1
4230.18
6186.72
13741.5
28397.9
49281.9
70304.8
77814.2
70031.7
63541.6
52933.7
47969.5
42793.1
38061.6
33949.1
30630
25674.9
21190.2
19090.1
17123.7
14327.3
12369.6
10924.8
9824.43
8110.89
6729.58
5591.12
4904.1
4439.03
3926.03
3437.34
2911.37
2565.75
2109.83
1812.59
1376.71
1134.41
995.812
997.148
1003.45
1009.3
1062.14
1300.84
1621.53
1932.13
2171.94
2331.95
2285.96
2201.87
1994.97
1765.52
1470.31
1094.89
732.578
287.227
19.6381
-328.868
-979.435
-437.238
-2070.84
-246.481
-3529.59
2408.35
-2301.13
-2377.84
-2304.72
-2276.77
-2250.61
-2236.67
-2229.39
-2230.58
-2237.44
-2251.34
-2271.27
-2295.44
-2326.26
-2363.06
-2402.37
-2450.4
-2503.28
-2553.77
-2618.84
-2696.38
-2751.94
-2830.96
-2933.03
-3023.84
-3088.24
-3194.01
-3319.97
-3441.56
-3524.4
-3628.91
-3756.78
-3894.2
-4040.72
-4153.66
-4252.52
-4367.7
-4471.78
-4565.81
-4630.53
-4673.26
-4648.31
-4638.97
-4564.89
-4431.95
-4214.82
1089.01
1086.5
1105.04
-599.446
-10923.4
-89437.1
-26705.6
2885.78
3480.54
4339.17
5816.8
8756.29
10804.2
16880.6
35122.8
66868.1
101558
117909
76699.6
55963.1
44332.7
37157.9
32690
29055.6
25306
21607.3
19782.4
18393.1
16255.9
14353.7
13008.5
11705
9685.3
8241.48
7443.42
6687.44
5888.07
5406.61
4662.84
4242.93
3757.33
3176.36
2658.29
2627.9
2159.05
1889.54
1480.33
1213.6
1042.37
923.261
834.337
902.662
1050.71
1264.35
1527.16
1791.81
2013.69
2212.77
2191.46
2162.52
1991.71
1806.35
1539.21
1189.25
876.6
437.587
188.133
-167.843
-747.686
-365.732
-1886.1
-364.238
-3297.18
2017.69
-2306.16
-2377.36
-2305.04
-2276.44
-2249.93
-2235.44
-2227.63
-2228.52
-2234.69
-2248.2
-2266.8
-2290.67
-2322.9
-2355.15
-2395.41
-2446.79
-2490.52
-2543.94
-2618.49
-2678.08
-2739.31
-2826.33
-2923.73
-2987.72
-3080
-3191.36
-3309.23
-3395.91
-3501.43
-3617.05
-3753.52
-3886.19
-4000.05
-4110.72
-4235.5
-4361.48
-4487.09
-4596.23
-4648.75
-4660.29
-4651.38
-4609.82
-4570.98
-4499.22
-4307.37
1328.97
1352.07
907.239
-806.621
-22353.5
-94564.9
-2867.23
4029.61
4052.93
4421.61
5119.91
10869.4
19927.5
32490
64073
118086
138523
87134.5
58910.9
42378.6
32921.9
26321.8
22604.3
19632
17861
15967.3
14572
13579
12830.6
11605.2
10454.9
9790.87
8930.37
7868.2
7007.24
6272.51
5664.86
5114.73
4504.43
4024.8
3532.23
3124.98
2598.94
2521.92
2147.22
1854.24
1538.81
1299.63
1082.35
921.698
806.979
841.715
964.743
1160.33
1426.37
1688.82
1934.82
2114.92
2094.95
2091.16
1969.93
1808.45
1574.95
1240.26
997.759
524.455
322.283
-9.20398
-595.974
-237.872
-1680.88
-356.212
-2922.96
1671.77
-2296.78
-2363.4
-2292.65
-2264.1
-2237.81
-2223.38
-2215.53
-2216.05
-2222.21
-2235.03
-2253.14
-2278.16
-2307.52
-2339.85
-2382.62
-2428.01
-2472.6
-2531.85
-2595.86
-2652.97
-2722.41
-2815.49
-2884.98
-2962.8
-3063.65
-3180.13
-3268.3
-3355.57
-3467.93
-3607.84
-3739.53
-3855.71
-3937.73
-4073.57
-4202.95
-4352.05
-4474.17
-4560.27
-4628.2
-4655.12
-4658.97
-4637.82
-4564.22
-4400.24
-4123.63
2044.56
2160.31
1641.71
-4407.9
-52205.4
-64298.4
3276.67
3814.46
6275.08
6463.94
7667.21
17651.5
36457.2
66419.2
112500
145116
94532
62387.4
43954.8
32566.6
25467.2
20833.2
17350.2
14887.3
13291.1
12425.1
11682.2
11089.2
10575.4
10092.8
9417.03
9067.21
8241.23
7521.16
6939.37
6420.68
6085.35
5549.14
4837.3
4145.59
3418.51
3325.61
2590.45
2639.14
2320.18
2067.88
1647.73
1428.16
1190.04
1006.31
883.466
841.899
907.898
1025.49
1250.42
1550.4
1785.74
1997.85
1991.74
2027.16
1930.83
1800.19
1585.91
1262.18
1059.38
620.915
430.026
132.258
-421.745
-150.413
-1472.83
-430.285
-2704.72
1342.01
-2273.69
-2336.62
-2268.25
-2240.39
-2214.78
-2201.09
-2193.34
-2193.87
-2200.48
-2212.86
-2230.64
-2256.05
-2283.27
-2317.72
-2358.17
-2400.38
-2449.25
-2508.56
-2562.09
-2622.51
-2705.61
-2777.78
-2845.95
-2931.73
-3044.41
-3136.99
-3212.97
-3316.98
-3447.07
-3572.39
-3683.24
-3778.73
-3907.79
-4037.62
-4179
-4309.27
-4391.36
-4485.9
-4562.7
-4634.47
-4680.75
-4662.68
-4596.8
-4474.65
-4282.27
2034.46
1879.53
62.4139
-14462.6
-108066
-20424.6
5544.1
6807.25
9341.87
12223.9
16268.2
32996.5
66211.5
118611
146582
96903.9
64203.6
44825.1
32488.9
24954.8
20135.2
16936.9
14717
12968.8
11594.6
10839.6
10369.2
10090.4
9676.78
9219.01
8972.22
8805.98
8250.07
7947.51
7338.84
6561.62
6127.88
5484.41
5279.77
4061.33
3680.33
3199.13
2991.18
2659.14
2364.35
2103.9
1690.13
1485.92
1256.2
1084.82
956.723
889.825
895.217
940.628
1106.04
1326.16
1526.31
1711.94
1800.85
1870.71
1828.03
1734.08
1598.65
1324.99
1214.67
712.2
579.037
301.014
-259.063
-58.266
-1296.73
-381.567
-2352.3
1095.69
-2237.7
-2297.74
-2232.46
-2205.92
-2181.53
-2168.93
-2161.73
-2162.54
-2169.86
-2182.12
-2200.27
-2224.33
-2252.36
-2287.77
-2324.19
-2366.59
-2420.69
-2470.03
-2524.14
-2595.69
-2665.17
-2727.62
-2807.35
-2909.29
-2992.3
-3071.18
-3167.07
-3292.35
-3406.76
-3496.92
-3607.44
-3723.87
-3869.02
-4010.51
-4131.09
-4217.84
-4330.72
-4415.39
-4515.15
-4598.22
-4648.79
-4658.81
-4616.93
-4470.07
-4242.27
2425.07
1766.7
-1641.38
-35374.8
-92061.8
-2002.58
5275.39
6418.55
9998.19
17913.6
30081.1
60530
113193
146117
97150.3
64936.5
45550.3
33031.4
25133
19959.7
16641.8
14418.8
12851.7
11581
10563.7
9877.01
9559.56
9311.59
9073.37
8634.55
8451.73
8274.79
7866.9
7737.52
7112.9
6435.66
5907.83
5265.19
5268.78
4492.98
3643.7
3105.18
2888.25
2409.8
2127.63
1940.21
1749.03
1598.17
1307.76
1042.31
917.57
838.857
904.371
969.289
1172.94
1280.84
1547.02
1708.59
1755.74
1830.33
1792.37
1740.86
1589.15
1332.08
1221.9
770.683
647.697
417.389
-119.541
23.0147
-1098.82
-400.482
-2119.99
852.84
-2189.67
-2247.58
-2186.01
-2161.31
-2138.7
-2127.36
-2121.36
-2122.65
-2130.6
-2143.44
-2161.32
-2185.07
-2214.46
-2246.97
-2283.63
-2328.75
-2377.44
-2425.45
-2483.81
-2553.23
-2612.17
-2679.07
-2770.96
-2857.42
-2923.8
-3012.92
-3132.97
-3245.52
-3329.16
-3413.81
-3534.57
-3681.89
-3832.26
-3950.74
-4018.44
-4139.7
-4247.14
-4356.74
-4434.22
-4482.65
-4499.27
-4465.45
-4383.12
-4172.42
-3924.33
3110.56
2146.5
-7184.88
-74922.4
-51501.6
5063.29
3748.11
7242.59
14693.3
30317.5
61749.5
110393
145959
96760.6
64903.4
46031.9
33514.1
25603.3
20346.3
16829.6
14470.5
12822.8
11620.8
10658.2
9833.85
9285.8
8886.63
8623.01
8369.9
8033.7
7683.17
7492.41
7194.01
7243.48
6706.18
6280.37
5656.75
5070.76
4716.17
4225.41
3529.26
3092.05
2972.13
2372.53
2100.71
1949.61
1626.6
1293.8
1090.92
958.206
953.256
896.92
919.635
823.594
978.874
1031.52
1378.43
1427.87
1617.26
1605.08
1599.29
1528.67
1491.72
1263.44
1285
828.471
798.522
585.819
74.2921
73.6452
-925.985
-356.775
-1846.97
672.843
-2130.54
-2186.99
-2129.71
-2107.34
-2086.85
-2077.09
-2072.73
-2074.76
-2083.39
-2097.16
-2114.89
-2138.83
-2168.41
-2199.47
-2237.28
-2281.94
-2326.2
-2377.64
-2437.4
-2495.42
-2558.18
-2634.03
-2712.58
-2787.57
-2864.82
-2964.73
-3071
-3159.08
-3249.92
-3352.84
-3479.6
-3610.25
-3727.7
-3835.95
-3950.15
-4063.98
-4173.71
-4278.02
-4368.38
-4444.04
-4510.45
-4559.31
-4589.44
-4574.48
-4636.09
1903.7
-1.74312
-21325.8
-117160
-9438.16
5341.24
8389.33
13955
26491
59257.3
116576
149265
97456.4
64652.5
45524.2
33148.2
25447.7
20233.4
16763.5
14467.7
12889.1
11762.3
10858.6
10084.1
9367.15
8752.82
8310.52
7831.74
7551.77
7305.98
7038.99
6626.47
6393.01
6428.24
6125.52
6092.29
5437.99
4860.65
4340.26
3857.8
3431.62
2996.07
2646.57
2079.34
1871.09
1565.66
1351.89
1175.91
1089.51
919.812
836.669
768.037
838.095
817.054
951.919
888.353
1222.5
1242.88
1502.74
1497.86
1589.15
1527.45
1533.31
1320.11
1306.54
868.142
812.122
589.636
135.118
116.214
-650.03
-283.246
-1524.33
451.715
-2061.33
-2116.87
-2064.34
-2044.72
-2026.77
-2018.8
-2016.29
-2019.54
-2028.77
-2043.52
-2061.6
-2085.74
-2114.62
-2146.69
-2184.05
-2225.62
-2271.63
-2324.55
-2377.58
-2433.55
-2502.1
-2576.2
-2641.48
-2716.03
-2809.57
-2902.87
-2983.22
-3070.88
-3176.26
-3296.05
-3413.73
-3510.33
-3607.86
-3732
-3879.43
-3997.88
-4090.2
-4168.01
-4237.82
-4276.77
-4310.68
-4244.26
-4104.65
-3870.21
-3581.87
3045.21
-3933.78
-61314.9
-72227.2
4533.57
6369.11
14554
30323.7
56807.6
108021
149847
97821.4
64284.2
44897.7
32514.4
25108.6
20086.4
16643.5
14290.9
12727.9
11681.9
10947.1
10310.9
9719.15
9115.43
8414.99
7887.83
7350.6
6923.49
6785.41
6578.18
6063.24
5672.47
5519.21
5276.16
5434.09
4790.47
4664.91
3929.87
3356.52
3135.67
2536.64
2098.53
1925.72
1577.24
1327.9
1179.26
1038.28
870.572
694.236
613.843
553.076
612.953
587.828
795.256
795.112
1101.55
1111.03
1317.08
1236.21
1346.48
1258.96
1388.01
1198.15
1299.67
910.515
990.467
762.319
406.496
156.471
-444.144
-268.89
-1245.15
312.607
-1983.06
-2038.18
-1990.71
-1974.15
-1959.21
-1953.13
-1952.61
-1957.48
-1967.38
-1983.11
-2001.97
-2025.86
-2054.74
-2087.84
-2123.32
-2163.78
-2212.11
-2261.46
-2311.47
-2370.57
-2439.44
-2503.68
-2569.01
-2647.89
-2741.25
-2821.15
-2895.04
-2990.01
-3105.91
-3213.38
-3307.63
-3399.88
-3501.54
-3637.61
-3768.35
-3887.54
-3976.61
-4069.94
-4162.66
-4264.69
-4359.42
-4429.21
-4490.36
-4663.28
-5338.61
24.4547
-20273.2
-126146
-12544.5
7056.06
13812.6
28744.4
61211.6
114118
148791
97456.7
64269.4
44538.3
31995.4
24567.6
19761.2
16541.5
14286.2
12653.6
11505.5
10689.9
10096
9607.07
9135.88
8723.21
8072.09
7532.41
6936.4
6400.37
6130.19
5893.71
5494.12
5088.78
4759.55
4494.49
4647.04
4106.25
4274.53
3602.49
3117.87
2712.93
2303.29
2011.68
1646.31
1233.04
967.925
811.413
616.85
493.238
432.458
440.997
385.443
444.907
485.486
617.435
606.969
784.911
934.215
1082.83
1251.56
1388.77
1357.78
1520.3
1312.13
1355.6
955.818
1000.75
738.775
402.248
199.408
-203.972
-166.33
-909.573
184.469
-1896.79
-1951.86
-1909.75
-1896.46
-1884.76
-1880.86
-1882.38
-1889.07
-1899.86
-1916.44
-1936.46
-1960.15
-1989.34
-2022.37
-2057.22
-2098.29
-2144.74
-2191.82
-2242.84
-2302.77
-2364.98
-2426.96
-2495.55
-2573.56
-2653.36
-2733.2
-2815.51
-2908.97
-3010.61
-3105.46
-3201.4
-3304.74
-3414.37
-3528.34
-3642.27
-3735.9
-3832.63
-3916.86
-3999.53
-4079.26
-4083.26
-3980.17
-3864.14
-3724.39
-4304.69
-3407.75
-58344.8
-80746.6
6501.83
16678.2
28749.3
58311.3
106635
147649
96021.2
62779.5
43686.9
31076.3
23456.8
18626.9
15652.4
13746.6
12479.4
11528.1
10758.3
10151.2
9655.57
9253.71
8748.1
8390.12
7816.78
7297.94
6668.1
6081.48
5637.29
5252.18
4938.68
4830.33
4421.3
3795.96
3707.18
3404.55
3483.58
2873.52
2773.85
2283.65
1910.72
1488.33
1151.29
803.23
699.701
530.655
371.881
315.883
266.186
193.244
148.59
179.744
220.295
362.159
413.713
637.116
727.704
815.826
993.047
1019.98
1133.91
1247.18
1037.47
1216.41
934.796
1105.13
831.267
665.908
317.46
14.7479
-82.7622
-646.123
108.059
-1803.6
-1858.84
-1822.3
-1812.51
-1804.05
-1802.76
-1806.21