/*--------------------------------*- C++ -*----------------------------------*\
| =========                 |                                                 |
| \\      /  F ield         | OpenFOAM: The Open Source CFD Toolbox           |
|  \\    /   O peration     | Version:  2.2.x                                 |
|   \\  /    A nd           | Web:      www.OpenFOAM.org                      |
|    \\/     M anipulation  |                                                 |
\*---------------------------------------------------------------------------*/
FoamFile
{
    version     2.0;
    format      ascii;
    class       volScalarField;
    location    "0.95";
    object      rho;
}
// * * * * * * * * * * * * * * * * * * * * * * * * * * * * * * * * * * * * * //

dimensions      [1 -3 0 0 0 0 0];

internalField   nonuniform List<scalar> 
14161
(
0.999668
0.999684
0.999659
0.999627
0.99958
0.99952
0.999446
0.999356
0.999249
0.999127
0.998983
0.998828
0.99865
0.998443
0.998241
0.998015
0.997744
0.997487
0.997231
0.996911
0.996602
0.996333
0.995998
0.995644
0.995351
0.995045
0.994735
0.994443
0.994137
0.993799
0.993554
0.99342
0.993355
0.993279
0.993131
0.992929
0.99266
0.992493
0.992503
0.992509
0.992612
0.992839
0.993153
0.993526
0.993764
0.994303
0.99537
0.99668
0.997961
0.998774
1.00157
1.00155
0.998742
2.10463
2.7206
2.77112
2.76182
2.71295
2.67999
2.62315
2.57179
2.51538
2.47109
2.42024
2.36977
2.32393
2.28057
2.2395
2.20498
2.17218
2.14367
2.12166
2.10554
2.09456
2.08687
2.08523
2.09227
2.07324
2.07333
2.07528
2.09304
2.06416
2.0616
2.05895
2.05987
2.04107
2.03876
2.03633
2.03521
2.04159
2.01533
2.01439
2.00038
2.00011
1.99012
1.9977
1.98953
2.04592
2.17141
2.38706
2.6181
2.80672
2.90454
2.96681
3.0084
3.04034
3.06517
3.08698
3.10439
3.11996
3.13024
3.13698
3.13871
3.13989
3.13675
3.13241
3.12572
3.12178
3.12251
0.999668
0.999683
0.999659
0.999627
0.99958
0.99952
0.999446
0.999356
0.999249
0.999126
0.998984
0.998828
0.998649
0.998445
0.998242
0.998013
0.997745
0.997492
0.997227
0.996908
0.99661
0.996331
0.995991
0.99565
0.995353
0.995039
0.994732
0.994453
0.994143
0.993789
0.993557
0.993434
0.993362
0.993268
0.993104
0.992907
0.992638
0.992472
0.992475
0.992497
0.992622
0.992858
0.993135
0.993414
0.993682
0.994265
0.995399
0.996464
0.997547
0.99863
1.00143
1.00126
1.00025
2.09551
2.71271
2.76396
2.74973
2.70134
2.66317
2.61146
2.55825
2.50004
2.45283
2.40242
2.3539
2.30979
2.26763
2.22882
2.19533
2.16639
2.13962
2.11917
2.10433
2.09391
2.08636
2.08492
2.09206
2.07241
2.07314
2.07521
2.09277
2.06444
2.06141
2.05894
2.05987
2.04108
2.03846
2.03663
2.03554
2.04162
2.01553
2.01534
2.00362
2.00483
1.99835
2.01323
2.01785
2.10659
2.26263
2.47812
2.67177
2.81525
2.90145
2.96086
3.00292
3.03636
3.06275
3.08552
3.10348
3.11931
3.12957
3.13609
3.13781
3.13894
3.1361
3.13173
3.12537
3.12076
3.12304
0.999668
0.999683
0.999659
0.999627
0.99958
0.999521
0.999446
0.999356
0.999249
0.999126
0.998984
0.998826
0.998647
0.998449
0.998243
0.998009
0.997749
0.997498
0.997222
0.996908
0.996621
0.996326
0.995987
0.99566
0.995348
0.995028
0.994735
0.994467
0.994139
0.993783
0.993561
0.993434
0.993344
0.99322
0.993043
0.992853
0.99259
0.992404
0.992398
0.992425
0.992539
0.992743
0.993018
0.993334
0.99359
0.99405
0.994983
0.995864
0.997149
0.997624
1.0009
1.00014
1.00213
2.0665
2.70163
2.74631
2.72063
2.6806
2.63224
2.57827
2.52631
2.47021
2.42963
2.38471
2.34473
2.30219
2.26022
2.2259
2.19237
2.1661
2.13962
2.11967
2.10573
2.09583
2.08917
2.08866
2.09664
2.07694
2.07853
2.08014
2.09539
2.07074
2.06605
2.063
2.06408
2.04582
2.04264
2.04271
2.04004
2.04738
2.02331
2.02531
2.01635
2.02387
2.02508
2.0555
2.0929
2.22472
2.40765
2.59588
2.71199
2.80738
2.88361
2.94074
2.98415
3.0198
3.04845
3.07343
3.09359
3.11046
3.12218
3.13037
3.13317
3.13475
3.13298
3.1295
3.12367
3.11798
3.12164
0.999668
0.999683
0.999659
0.999627
0.99958
0.999521
0.999446
0.999356
0.999249
0.999126
0.998985
0.998826
0.998647
0.998455
0.998242
0.998003
0.997758
0.997503
0.997214
0.996911
0.996629
0.996316
0.995986
0.995674
0.995336
0.995017
0.994749
0.994484
0.994124
0.993779
0.993563
0.993419
0.993298
0.993154
0.992983
0.992791
0.992504
0.992283
0.992269
0.992307
0.992401
0.992577
0.992831
0.993121
0.993338
0.993635
0.994253
0.995276
0.995764
0.996762
0.998126
0.998816
1.00194
1.9926
2.7041
2.71995
2.67557
2.6383
2.58083
2.53219
2.48561
2.4381
2.40493
2.36745
2.33347
2.2959
2.25241
2.22444
2.19212
2.16793
2.14382
2.12376
2.11041
2.1
2.09487
2.09327
2.10211
2.08395
2.08538
2.08546
2.09711
2.07935
2.07123
2.06766
2.06872
2.05145
2.04876
2.05105
2.04786
2.05663
2.03811
2.04689
2.04198
2.06337
2.08387
2.14842
2.25667
2.4327
2.59444
2.70869
2.76515
2.82667
2.8881
2.93852
2.97694
3.00947
3.03649
3.06047
3.08124
3.09967
3.11278
3.12231
3.12666
3.12861
3.128
3.12552
3.12049
3.11405
3.11936
0.999669
0.999683
0.999659
0.999627
0.999581
0.999521
0.999446
0.999356
0.99925
0.999126
0.998987
0.998826
0.998648
0.99846
0.998241
0.998
0.997766
0.997505
0.997208
0.996921
0.996634
0.996305
0.995991
0.995684
0.995322
0.995012
0.994768
0.994492
0.994101
0.993784
0.99356
0.993369
0.993216
0.993089
0.992942
0.99274
0.992379
0.992121
0.992093
0.992121
0.992193
0.992309
0.992502
0.992731
0.992882
0.993014
0.993398
0.993903
0.994153
0.993985
0.994885
0.99654
1.00103
1.84371
2.71564
2.69934
2.6172
2.58865
2.54248
2.49599
2.46271
2.42703
2.3878
2.36127
2.32687
2.29614
2.25187
2.22948
2.19958
2.17294
2.15245
2.13006
2.11864
2.10859
2.10452
2.10192
2.10909
2.09616
2.09597
2.0954
2.10383
2.09248
2.08311
2.07961
2.08131
2.06569
2.06508
2.0693
2.06554
2.07949
2.06716
2.08666
2.09821
2.1439
2.20681
2.32703
2.49105
2.6313
2.71672
2.77181
2.80958
2.8521
2.89911
2.93967
2.97401
3.00251
3.0268
3.0489
3.06868
3.08705
3.10169
3.11271
3.11879
3.12113
3.12156
3.11984
3.11585
3.10916
3.11608
0.999669
0.999684
0.99966
0.999627
0.999581
0.999521
0.999447
0.999357
0.999251
0.999127
0.998989
0.998827
0.99865
0.998463
0.99824
0.998001
0.997772
0.997504
0.997206
0.996935
0.996634
0.996299
0.996006
0.995688
0.995312
0.995018
0.99478
0.994476
0.994083
0.993797
0.993545
0.99328
0.993109
0.993019
0.992912
0.99271
0.992282
0.991927
0.991842
0.991837
0.991874
0.991937
0.992026
0.992169
0.992192
0.99206
0.991939
0.991857
0.991498
0.991041
0.990522
0.991586
0.995596
1.64531
2.68625
2.68411
2.56834
2.55674
2.51934
2.47783
2.45541
2.42629
2.37012
2.35718
2.32163
2.29391
2.25182
2.22784
2.20361
2.16952
2.15572
2.13244
2.12332
2.11285
2.10881
2.10584
2.11041
2.10379
2.10213
2.10229
2.10744
2.10229
2.09409
2.09302
2.09604
2.08452
2.08966
2.09661
2.09217
2.12148
2.12292
2.159
2.1985
2.29229
2.4213
2.568
2.69434
2.75489
2.78713
2.81362
2.84229
2.87699
2.91321
2.94433
2.97344
2.9987
3.02017
3.0391
3.05683
3.07438
3.09
3.10224
3.10978
3.11278
3.11415
3.11269
3.10988
3.10344
3.11187
0.99967
0.999684
0.99966
0.999628
0.999581
0.999522
0.999447
0.999358
0.999252
0.999129
0.99899
0.998828
0.998653
0.998465
0.998241
0.998008
0.997776
0.9975
0.997211
0.996946
0.996628
0.996301
0.996022
0.99568
0.995306
0.995039
0.994779
0.994435
0.994079
0.993807
0.993503
0.993177
0.993006
0.992939
0.992861
0.992672
0.992216
0.991762
0.991586
0.991503
0.991501
0.991504
0.991532
0.991494
0.99131
0.990764
0.990194
0.989871
0.989177
0.988336
0.986552
0.986809
0.990821
1.33756
2.59704
2.7463
2.56457
2.53117
2.48591
2.44484
2.42533
2.4106
2.34474
2.33577
2.30256
2.28009
2.25097
2.21364
2.1984
2.15914
2.15165
2.13092
2.12268
2.11262
2.10865
2.10682
2.1093
2.10739
2.10554
2.10686
2.10967
2.11012
2.1041
2.10685
2.11295
2.10497
2.12247
2.13745
2.13876
2.1903
2.21358
2.28525
2.38581
2.52292
2.66341
2.75529
2.7973
2.81255
2.82788
2.84444
2.86614
2.89739
2.92572
2.95152
2.97557
2.99687
3.0148
3.03122
3.04699
3.06299
3.07842
3.09115
3.09977
3.10341
3.10556
3.10423
3.10285
3.09712
3.10681
0.999671
0.999685
0.999661
0.999628
0.999582
0.999522
0.999448
0.999359
0.999253
0.999131
0.998992
0.998831
0.998656
0.998465
0.998245
0.99802
0.997778
0.997497
0.99723
0.996952
0.99662
0.996319
0.996032
0.995665
0.995319
0.995051
0.994756
0.994398
0.994091
0.993815
0.993433
0.993092
0.99293
0.992882
0.992802
0.992587
0.992095
0.991674
0.991437
0.991259
0.991139
0.991086
0.99093
0.990623
0.990155
0.989495
0.988895
0.988125
0.987554
0.986212
0.984982
0.982311
0.986489
1.07644
2.29141
2.88501
2.64798
2.55552
2.48501
2.43022
2.39353
2.38192
2.32126
2.3112
2.2811
2.24859
2.2351
2.18534
2.17964
2.14464
2.13274
2.11758
2.11173
2.10187
2.1009
2.10003
2.10202
2.10525
2.10475
2.10761
2.10941
2.11667
2.11346
2.12313
2.13799
2.1352
2.17113
2.19647
2.21408
2.30983
2.38173
2.49937
2.63125
2.74256
2.8142
2.83759
2.84137
2.84653
2.85367
2.8663
2.88647
2.91335
2.93748
2.95943
2.97902
2.99636
3.01111
3.02515
3.03903
3.05316
3.06775
3.08031
3.08953
3.09349
3.09606
3.09498
3.09532
3.09047
3.1009
0.999672
0.999686
0.999662
0.999629
0.999583
0.999524
0.99945
0.999361
0.999255
0.999133
0.998994
0.998834
0.998659
0.998464
0.998255
0.99803
0.997774
0.997502
0.99725
0.996952
0.996619
0.996342
0.996035
0.995657
0.99534
0.995052
0.994713
0.994387
0.994116
0.993805
0.993356
0.993046
0.992897
0.992831
0.992683
0.992383
0.991898
0.991605
0.991386
0.991162
0.990913
0.99056
0.9901
0.989593
0.989114
0.988561
0.987905
0.987443
0.986468
0.986331
0.98592
0.984821
0.992231
1.05542
1.90826
2.84348
2.66368
2.56458
2.48733
2.41971
2.36724
2.33779
2.29424
2.27442
2.26603
2.20318
2.20889
2.15874
2.14613
2.12643
2.10944
2.095
2.09378
2.08752
2.09216
2.09348
2.0954
2.10391
2.10583
2.11307
2.11315
2.12913
2.13346
2.14902
2.17536
2.18684
2.25646
2.30681
2.37199
2.5153
2.6174
2.72961
2.81183
2.85348
2.86435
2.86501
2.86519
2.86768
2.87367
2.88406
2.90336
2.92667
2.94876
2.96703
2.98269
2.9963
3.00825
3.02009
3.03198
3.04416
3.05763
3.06969
3.07917
3.08337
3.08636
3.08557
3.08716
3.08315
3.09421
0.999673
0.999687
0.999663
0.999631
0.999584
0.999525
0.999451
0.999363
0.999257
0.999136
0.998996
0.998841
0.998664
0.998465
0.998266
0.998036
0.99777
0.997519
0.997264
0.996946
0.996631
0.996356
0.996027
0.995668
0.995361
0.995026
0.994679
0.99441
0.994149
0.993751
0.99329
0.993029
0.992891
0.992749
0.992481
0.992064
0.991744
0.991551
0.991382
0.991159
0.990759
0.989977
0.989314
0.988806
0.988374
0.988003
0.987495
0.986973
0.98662
0.985944
0.986067
0.986785
0.999982
1.12908
1.80446
2.46992
2.54419
2.53664
2.47503
2.40616
2.35843
2.31227
2.28257
2.23425
2.25727
2.18391
2.17632
2.15036
2.11469
2.10559
2.0984
2.07764
2.07798
2.07708
2.08828
2.09216
2.09394
2.10656
2.11124
2.12661
2.12929
2.15771
2.17552
2.20151
2.25983
2.30627
2.4136
2.50988
2.61139
2.7364
2.80852
2.85784
2.87426
2.8774
2.87622
2.87679
2.87887
2.8819
2.88722
2.89975
2.91748
2.93869
2.95819
2.97367
2.98641
2.99713
3.00698
3.01684
3.02666
3.03684
3.04892
3.06004
3.06931
3.07357
3.07694
3.07628
3.07873
3.07541
3.08667
0.999675
0.999688
0.999664
0.999632
0.999586
0.999527
0.999453
0.999365
0.99926
0.99914
0.999
0.998847
0.998669
0.99847
0.998276
0.998039
0.997773
0.997539
0.99727
0.996947
0.996657
0.996358
0.996019
0.995699
0.995372
0.994984
0.994671
0.994445
0.994164
0.993676
0.993253
0.993034
0.992864
0.992614
0.992193
0.991843
0.991634
0.991526
0.991408
0.991141
0.990606
0.98942
0.988832
0.988404
0.98819
0.987812
0.987581
0.987218
0.987014
0.987014
0.987038
0.989909
1.01619
1.41079
1.90523
2.08116
2.31576
2.46971
2.45532
2.4075
2.36735
2.29921
2.28833
2.21954
2.25102
2.18335
2.16473
2.14683
2.10449
2.09322
2.09207
2.07512
2.07524
2.07568
2.09173
2.09891
2.10142
2.12489
2.13497
2.16231
2.17734
2.22968
2.27326
2.32529
2.43039
2.52197
2.63928
2.73237
2.80476
2.85854
2.8754
2.88155
2.88255
2.88285
2.88233
2.88458
2.8871
2.89107
2.89965
2.91292
2.93017
2.94987
2.96662
2.97928
2.98916
2.99737
3.00518
3.01313
3.02112
3.02967
3.04052
3.05062
3.05956
3.0639
3.06765
3.06705
3.07011
3.06734
3.07862
0.999677
0.99969
0.999666
0.999634
0.999588
0.999529
0.999456
0.999368
0.999264
0.999144
0.999005
0.998853
0.998674
0.998481
0.998282
0.998043
0.997791
0.997552
0.997269
0.996964
0.996678
0.996351
0.996026
0.995739
0.995371
0.994958
0.994686
0.994466
0.994143
0.993629
0.993266
0.993041
0.992792
0.992388
0.991968
0.991739
0.991633
0.991596
0.991419
0.991008
0.990105
0.989173
0.988754
0.988401
0.988198
0.987934
0.98786
0.987665
0.987576
0.987475
0.987759
0.992344
1.04936
1.71139
1.96201
1.99012
2.07867
2.28804
2.39013
2.41824
2.38725
2.3241
2.31606
2.22543
2.26248
2.18729
2.16388
2.14784
2.10513
2.09419
2.09263
2.08145
2.08879
2.09259
2.11134
2.12584
2.13365
2.17967
2.20348
2.24951
2.29862
2.37759
2.46848
2.5505
2.65611
2.73574
2.81409
2.85193
2.86936
2.88023
2.87949
2.87896
2.87955
2.88109
2.88431
2.88756
2.89174
2.89883
2.90954
2.92361
2.94097
2.95932
2.97389
2.98416
2.99182
2.99829
3.00462
3.01091
3.01717
3.02404
3.03335
3.04227
3.05055
3.05466
3.05853
3.0579
3.06147
3.05923
3.07018
0.999678
0.999692
0.999668
0.999636
0.99959
0.999532
0.999459
0.999372
0.999269
0.999148
0.999012
0.998858
0.99868
0.998493
0.998286
0.998053
0.997817
0.997557
0.99727
0.996995
0.99669
0.996345
0.996058
0.995763
0.995362
0.994977
0.994711
0.994447
0.994081
0.993646
0.993337
0.993028
0.992609
0.992172
0.99189
0.99176
0.99173
0.991617
0.991281
0.990591
0.98966
0.989166
0.98884
0.988581
0.988408
0.988311
0.988161
0.988195
0.988248
0.988347
0.989596
1.00085
1.22318
1.87468
1.9816
1.97176
1.98483
2.07738
2.2247
2.36685
2.3914
2.35917
2.35198
2.23699
2.27799
2.18809
2.16907
2.15133
2.11359
2.11129
2.104
2.10296
2.12827
2.14231
2.16541
2.20191
2.22911
2.30632
2.35984
2.42965
2.52095
2.60416
2.6848
2.75321
2.8131
2.83969
2.8605
2.86701
2.86459
2.86645
2.86898
2.87226
2.87532
2.87952
2.88406
2.88914
2.89565
2.90523
2.91746
2.93285
2.95051
2.96726
2.97903
2.987
2.99274
2.99778
3.00274
3.00761
3.01258
3.01815
3.02628
3.03421
3.04185
3.04563
3.04943
3.04883
3.05282
3.05104
3.06164
0.999681
0.999694
0.999669
0.999638
0.999593
0.999535
0.999463
0.999376
0.999273
0.999154
0.99902
0.998863
0.998691
0.998505
0.998292
0.998072
0.997835
0.99756
0.997289
0.997018
0.996691
0.996366
0.996085
0.995758
0.995363
0.995029
0.994716
0.994381
0.994029
0.993724
0.993427
0.992966
0.992417
0.99207
0.991896
0.991852
0.991755
0.991459
0.990872
0.990086
0.989639
0.989343
0.989158
0.988963
0.988874
0.988715
0.98842
0.988081
0.987851
0.98803
0.989963
1.01054
1.45783
1.97529
1.97889
1.96447
1.96317
1.98845
2.06906
2.2293
2.34624
2.38504
2.37876
2.25751
2.30824
2.19147
2.18375
2.17181
2.13599
2.15786
2.15226
2.1622
2.2098
2.24703
2.28714
2.36185
2.42863
2.52498
2.58911
2.65371
2.72319
2.77735
2.80774
2.82968
2.84628
2.84968
2.85021
2.85238
2.85277
2.85393
2.85853
2.86488
2.87146
2.8771
2.88301
2.88936
2.89845
2.90969
2.92344
2.94016
2.95784
2.9727
2.9822
2.98866
2.99346
2.99754
3.00125
3.00482
3.00864
3.01305
3.02003
3.02691
3.03375
3.03699
3.04052
3.03993
3.04427
3.04295
3.05297
0.999683
0.999696
0.999672
0.99964
0.999596
0.999538
0.999467
0.999381
0.999279
0.999161
0.999027
0.998871
0.998703
0.998515
0.998305
0.998092
0.997844
0.997572
0.99732
0.997029
0.996699
0.996411
0.9961
0.995741
0.995402
0.995089
0.994698
0.994303
0.994025
0.993805
0.993482
0.992873
0.992333
0.992072
0.991962
0.991856
0.991595
0.991049
0.990402
0.990038
0.989815
0.989708
0.989646
0.989521
0.989245
0.988825
0.988149
0.987576
0.987131
0.987401
0.990793
1.02852
1.69603
2.01969
2.02238
2.00767
1.9914
1.9803
2.00525
2.08069
2.2406
2.38644
2.38946
2.31003
2.35887
2.21244
2.22398
2.23047
2.20298
2.24613
2.25742
2.30025
2.36354
2.44429
2.50859
2.5913
2.65811
2.72587
2.7673
2.79303
2.80847
2.82445
2.82985
2.82841
2.83158
2.83492
2.83478
2.83738
2.84041
2.84466
2.85043
2.85784
2.86593
2.87371
2.88093
2.88969
2.89992
2.91252
2.9275
2.94511
2.96216
2.97547
2.98345
2.98887
2.99278
2.99594
2.99859
3.00116
3.00417
3.00766
3.01369
3.01967
3.02577
3.02846
3.03173
3.03122
3.03577
3.03482
3.04439
0.999685
0.999698
0.999674
0.999643
0.999599
0.999542
0.999471
0.999386
0.999285
0.999169
0.999035
0.998881
0.998715
0.998527
0.998328
0.998106
0.997852
0.997604
0.997343
0.997032
0.996734
0.996448
0.996094
0.995744
0.995468
0.995129
0.99466
0.994289
0.994063
0.993833
0.993461
0.992835
0.992409
0.992177
0.991973
0.99167
0.991173
0.990616
0.99029
0.990123
0.990079
0.990135
0.990101
0.98986
0.989458
0.988771
0.987672
0.987315
0.987237
0.987997
0.995472
1.13651
1.85269
2.03512
2.03761
2.03016
2.01671
1.99344
1.99522
2.02936
2.13156
2.30487
2.37489
2.37804
2.41412
2.2782
2.31735
2.33753
2.34328
2.41002
2.45425
2.52426
2.5893
2.66072
2.71651
2.76812
2.79507
2.81001
2.81926
2.821
2.81995
2.81649
2.81773
2.81796
2.81746
2.81948
2.8217
2.82434
2.82878
2.83529
2.84297
2.85163
2.86064
2.86952
2.87871
2.88858
2.89981
2.91312
2.92873
2.94634
2.96271
2.97525
2.98286
2.98815
2.99158
2.9941
2.99599
2.99778
3.00012
3.00278
3.00786
3.01294
3.01814
3.02006
3.02302
3.02264
3.02737
3.02683
3.03587
0.999688
0.999701
0.999677
0.999647
0.999602
0.999546
0.999476
0.999392
0.999292
0.999177
0.999044
0.998895
0.998726
0.998545
0.99835
0.998116
0.997872
0.997641
0.997354
0.997048
0.996788
0.996468
0.996089
0.995795
0.99551
0.995125
0.99467
0.99435
0.994081
0.993773
0.993362
0.992911
0.992614
0.99232
0.991904
0.991305
0.990754
0.990434
0.990277
0.990222
0.990239
0.990371
0.990313
0.989988
0.989474
0.988451
0.987521
0.987378
0.987464
0.988798
1.00394
1.3368
1.9675
2.03622
2.03889
2.03818
2.03316
2.01629
2.00597
2.02394
2.0954
2.20814
2.39617
2.50403
2.48848
2.42534
2.49707
2.52415
2.56052
2.62337
2.66677
2.71927
2.75936
2.78753
2.8045
2.81721
2.82009
2.81948
2.81273
2.80905
2.80909
2.80658
2.80529
2.80522
2.80528
2.80601
2.80768
2.81153
2.81763
2.82525
2.83425
2.8439
2.85414
2.86434
2.8751
2.88608
2.89861
2.91236
2.92851
2.94666
2.96296
2.97501
2.98192
2.98664
2.98936
2.99125
2.99256
2.99374
2.99557
2.99751
3.00175
3.00606
3.01046
3.01167
3.0144
3.01415
3.01901
3.01885
3.02757
0.999691
0.999703
0.99968
0.99965
0.999606
0.999551
0.999482
0.999399
0.9993
0.999185
0.999057
0.998909
0.998739
0.998568
0.998368
0.99813
0.997907
0.997668
0.997366
0.997095
0.996826
0.996475
0.99613
0.995852
0.995517
0.995112
0.994752
0.994443
0.994065
0.993648
0.993289
0.993062
0.99283
0.992448
0.991738
0.991009
0.990602
0.990372
0.990289
0.990275
0.990282
0.990409
0.99029
0.989922
0.989363
0.988247
0.987355
0.986976
0.987065
0.989066
1.01629
1.56569
2.04787
2.04553
2.0437
2.03907
2.03568
2.03368
2.02527
2.04109
2.11935
2.20974
2.45617
2.62672
2.63275
2.63147
2.68198
2.69765
2.73312
2.76141
2.78256
2.7942
2.80693
2.81353
2.81592
2.81172
2.8079
2.80658
2.8023
2.79644
2.79622
2.79464
2.79266
2.79245
2.7923
2.79283
2.7953
2.80011
2.80685
2.81564
2.82527
2.83599
2.84713
2.85866
2.87035
2.88235
2.89574
2.91057
2.92732
2.94515
2.96086
2.97271
2.9794
2.98401
2.98642
2.98791
2.98882
2.98956
2.99095
2.99218
2.99563
2.99919
3.00276
3.0033
3.00588
3.00574
3.01076
3.01116
3.01935
0.999694
0.999707
0.999684
0.999654
0.999611
0.999556
0.999488
0.999406
0.999309
0.999196
0.99907
0.998923
0.998756
0.998588
0.998387
0.998158
0.997939
0.997686
0.997402
0.997143
0.996842
0.996499
0.996214
0.995891
0.995498
0.995141
0.994871
0.994514
0.993999
0.993554
0.993305
0.993187
0.992956
0.992486
0.991573
0.990945
0.990607
0.990373
0.990231
0.990134
0.990139
0.990175
0.990139
0.989796
0.989268
0.988448
0.987445
0.986475
0.986552
0.990955
1.05983
1.79582
2.05936
2.06649
2.06266
2.0581
2.05794
2.06429
2.06208
2.0958
2.21381
2.34245
2.62172
2.7582
2.75897
2.7652
2.77743
2.78004
2.78619
2.79106
2.79531
2.79693
2.79741
2.79902
2.80109
2.79977
2.7954
2.79127
2.7892
2.7856
2.78245
2.78033
2.78018
2.78006
2.78073
2.78188
2.78509
2.78959
2.79626
2.80516
2.81521
2.82641
2.83829
2.85084
2.86399
2.87805
2.8928
2.90849
2.92577
2.9438
2.95913
2.97063
2.97685
2.98109
2.98307
2.98418
2.98475
2.98519
2.98614
2.98665
2.98931
2.99211
2.99492
2.9949
2.99751
2.9976
3.00262
3.0034
3.01137
0.999697
0.99971
0.999687
0.999658
0.999616
0.999562
0.999495
0.999414
0.999318
0.999208
0.999082
0.998939
0.998779
0.998603
0.998409
0.998201
0.997963
0.997706
0.997463
0.997182
0.99685
0.996567
0.99629
0.9959
0.9955
0.995238
0.994954
0.994513
0.99397
0.993595
0.993379
0.993228
0.992941
0.992426
0.991558
0.991036
0.990699
0.990425
0.99016
0.989965
0.989802
0.989816
0.989909
0.989778
0.989473
0.989001
0.988307
0.987496
0.9882
0.999488
1.24128
1.93619
2.05049
2.06005
2.06373
2.06325
2.06688
2.09283
2.11539
2.17608
2.37392
2.57405
2.79596
2.83145
2.81797
2.80085
2.79432
2.78919
2.78601
2.78298
2.782
2.78238
2.78226
2.78139
2.78093
2.78132
2.7791
2.77605
2.77467
2.77276
2.77038
2.76944
2.76859
2.76883
2.76938
2.77079
2.77439
2.77883
2.78531
2.79396
2.80416
2.81601
2.82894
2.84266
2.85701
2.87202
2.88748
2.90393
2.92211
2.94066
2.95581
2.96709
2.97314
2.97723
2.97902
2.97985
2.98021
2.98043
2.98102
2.98092
2.98288
2.98479
2.98679
2.98645
2.98916
2.98972
2.99466
2.99578
3.00327
0.999701
0.999714
0.999692
0.999663
0.999621
0.999568
0.999502
0.999423
0.99933
0.999221
0.999096
0.998961
0.998805
0.99862
0.998437
0.99824
0.99799
0.997746
0.997517
0.997208
0.996891
0.996651
0.996337
0.99591
0.995585
0.995331
0.994982
0.994475
0.994038
0.993727
0.993446
0.993193
0.992843
0.992338
0.991676
0.991183
0.990815
0.990468
0.990141
0.989843
0.989641
0.989529
0.989585
0.989705
0.989641
0.989376
0.988652
0.988277
0.989891
1.0127
1.50338
2.03901
2.03608
2.04506
2.05723
2.06188
2.07045
2.12777
2.20429
2.33024
2.60858
2.77174
2.8466
2.83899
2.81594
2.79843
2.78439
2.77559
2.76955
2.76503
2.76277
2.76137
2.76061
2.76009
2.7598
2.76025
2.76056
2.76012
2.7595
2.75844
2.7575
2.75682
2.75615
2.75635
2.75684
2.75817
2.76165
2.7663
2.7729
2.78181
2.79251
2.80481
2.81829
2.83288
2.84825
2.86432
2.88107
2.89876
2.9177
2.9364
2.95133
2.96227
2.96842
2.97252
2.97435
2.97507
2.97531
2.97523
2.97553
2.9751
2.97641
2.97719
2.9785
2.978
2.98091
2.98184
2.98672
2.98792
2.99509
0.999705
0.999717
0.999696
0.999668
0.999627
0.999575
0.99951
0.999434
0.999343
0.999235
0.999112
0.998984
0.99883
0.998643
0.998465
0.998275
0.998031
0.997796
0.997552
0.997248
0.996975
0.996714
0.99636
0.995977
0.995705
0.995402
0.994972
0.994491
0.994155
0.993854
0.993518
0.993146
0.992765
0.992328
0.991791
0.991273
0.99089
0.990545
0.990261
0.990003
0.989727
0.989436
0.989274
0.989268
0.989262
0.988958
0.988113
0.988016
0.991997
1.04906
1.77468
2.05479
2.0632
2.06449
2.07376
2.08245
2.09213
2.20221
2.35785
2.56008
2.7955
2.85301
2.84363
2.82181
2.8017
2.7812
2.76777
2.75759
2.75009
2.74452
2.74035
2.73732
2.73634
2.7364
2.73679
2.73749
2.73936
2.74157
2.74237
2.74227
2.74185
2.74116
2.74088
2.7413
2.74276
2.74468
2.7481
2.7528
2.76021
2.76944
2.77999
2.79228
2.80614
2.8214
2.83763
2.85464
2.87238
2.89105
2.91085
2.93004
2.94531
2.95656
2.96318
2.96738
2.96938
2.96999
2.97008
2.9697
2.96971
2.96894
2.96956
2.96933
2.97017
2.96947
2.97248
2.97375
2.97858
2.98002
2.98653
0.999709
0.999722
0.999701
0.999673
0.999634
0.999583
0.999519
0.999445
0.999359
0.999251
0.999128
0.999006
0.998857
0.998675
0.998492
0.998311
0.998091
0.997844
0.997585
0.997323
0.997061
0.996757
0.996411
0.996096
0.995796
0.995435
0.995004
0.994605
0.994236
0.99389
0.993543
0.993229
0.992887
0.992377
0.991666
0.991218
0.990889
0.990663
0.99054
0.990436
0.990137
0.989586
0.989118
0.988881
0.98878
0.988749
0.988563
0.989829
1.00398
1.2632
1.93566
2.04839
2.05831
2.06309
2.08647
2.11831
2.1526
2.34085
2.575
2.76721
2.85153
2.83918
2.81952
2.80186
2.78074
2.76501
2.75186
2.74126
2.73257
2.72519
2.71952
2.71559
2.71392
2.71357
2.71434
2.71557
2.7184
2.72184
2.72388
2.72469
2.72488
2.72503
2.72549
2.72653
2.72847
2.73056
2.73402
2.73855
2.7458
2.75506
2.766
2.77874
2.79313
2.80884
2.82556
2.84318
2.86177
2.88149
2.90232
2.92228
2.93832
2.95013
2.95722
2.96156
2.96375
2.9643
2.96435
2.96378
2.96341
2.96223
2.96219
2.96124
2.96179
2.9609
2.96398
2.96552
2.9703
2.97185
2.97774
0.999714
0.999726
0.999706
0.999679
0.999641
0.999592
0.999528
0.999456
0.999376
0.999269
0.999146
0.999028
0.998889
0.99871
0.998522
0.998354
0.998154
0.997887
0.997638
0.997415
0.997129
0.996804
0.996519
0.99621
0.995842
0.995483
0.995143
0.994731
0.994253
0.993882
0.993645
0.993458
0.9931
0.992383
0.991542
0.991141
0.990889
0.990777
0.990779
0.990814
0.99056
0.990012
0.989132
0.988422
0.988087
0.987755
0.987962
0.990688
1.0265
1.56716
2.04553
2.0509
2.05423
2.0582
2.09637
2.17981
2.28162
2.56226
2.75925
2.84739
2.83347
2.80911
2.79457
2.77469
2.75782
2.74464
2.73347
2.72367
2.71517
2.70785
2.70188
2.69731
2.69415
2.69287
2.69321
2.69402
2.69687
2.70096
2.70485
2.70804
2.70938
2.71024
2.71066
2.71124
2.71272
2.71519
2.71893
2.72374
2.73131
2.74093
2.75205
2.76474
2.77903
2.79498
2.81227
2.83082
2.8505
2.87133
2.89326
2.91422
2.93121
2.94367
2.95125
2.95583
2.95809
2.95852
2.95858
2.95773
2.95692
2.9552
2.95428
2.95279
2.95325
2.9523
2.95541
2.95715
2.96178
2.96357
2.96867
0.999719
0.999731
0.999712
0.999686
0.999649
0.999602
0.99954
0.999467
0.999393
0.99929
0.999166
0.999052
0.998923
0.998743
0.99856
0.998408
0.99821
0.997939
0.997709
0.997495
0.9972
0.996892
0.99663
0.9963
0.995908
0.995614
0.995311
0.994831
0.994276
0.993953
0.993818
0.993671
0.993263
0.992357
0.991519
0.991138
0.990922
0.990846
0.990822
0.990871
0.990751
0.990302
0.989529
0.988307
0.987645
0.987009
0.987625
0.995515
1.13495
1.85323
2.04774
2.05903
2.0678
2.07725
2.14308
2.31541
2.51364
2.76981
2.84124
2.82826
2.80389
2.78895
2.7684
2.74993
2.73496
2.72377
2.71451
2.70622
2.69876
2.69193
2.68564
2.68052
2.6768
2.67481
2.6746
2.67487
2.67705
2.68007
2.68484
2.68974
2.69243
2.69459
2.69508
2.69651
2.6991
2.70201
2.70568
2.71008
2.71675
2.7255
2.73627
2.74937
2.76459
2.78109
2.79868
2.81745
2.83746
2.85891
2.88195
2.90427
2.92266
2.936
2.94435
2.94924
2.95165
2.952
2.95206
2.95097
2.94982
2.94759
2.94589
2.94405
2.94449
2.94356
2.94672
2.94858
2.95309
2.95505
2.95944
0.999724
0.999736
0.999718
0.999693
0.999656
0.999612
0.999552
0.999479
0.999408
0.999313
0.99919
0.999079
0.998958
0.99878
0.998607
0.998461
0.998269
0.99801
0.997782
0.997566
0.997308
0.997012
0.996716
0.996395
0.996072
0.995785
0.995427
0.994924
0.994459
0.994145
0.993924
0.993712
0.993293
0.992507
0.991731
0.99127
0.990953
0.990783
0.990754
0.990822
0.990818
0.990526
0.990005
0.989184
0.988003
0.98801
0.990314
1.01152
1.45367
2.00228
2.03448
2.04879
2.0865
2.14282
2.27974
2.55141
2.73657
2.83302
2.81779
2.79305
2.78077
2.76226
2.74194
2.724
2.71093
2.70147
2.69415
2.68814
2.68263
2.67713
2.67156
2.66631
2.66243
2.65969
2.65837
2.65796
2.65952
2.66158
2.66561
2.67024
2.67388
2.67748
2.67856
2.68104
2.68408
2.68706
2.69112
2.69605
2.70242
2.71094
2.72172
2.73458
2.74935
2.76548
2.783
2.80199
2.82265
2.84498
2.86906
2.8925
2.91209
2.9262
2.93552
2.94094
2.94376
2.94441
2.94465
2.94357
2.9422
2.93951
2.93725
2.93517
2.93562
2.93474
2.93784
2.93971
2.94397
2.9462
2.94984
0.99973
0.999742
0.999724
0.9997
0.999665
0.999623
0.999566
0.999494
0.999424
0.999336
0.999217
0.999107
0.998994
0.998826
0.998656
0.998513
0.998337
0.998092
0.997855
0.997654
0.997434
0.997134
0.996806
0.996538
0.996287
0.995952
0.995513
0.995103
0.994765
0.994399
0.994016
0.99369
0.993332
0.992838
0.992181
0.991473
0.991012
0.990748
0.990622
0.990619
0.990647
0.990339
0.989705
0.988746
0.987254
0.98749
0.992592
1.06127
1.78284
2.04464
2.05761
2.07554
2.14198
2.30062
2.50265
2.76579
2.83137
2.81191
2.7807
2.76735
2.75089
2.73373
2.71547
2.70037
2.68926
2.68128
2.67548
2.67097
2.66701
2.66283
2.6584
2.65379
2.64974
2.64629
2.6442
2.64308
2.64396
2.64511
2.64797
2.65124
2.65496
2.65923
2.6613
2.66522
2.6689
2.67257
2.67697
2.68195
2.68784
2.69607
2.70643
2.71873
2.73305
2.74925
2.76704
2.78643
2.8076
2.83081
2.85616
2.8809
2.90174
2.91668
2.92691
2.93277
2.93577
2.93651
2.93668
2.93555
2.93394
2.93079
2.92809
2.92581
2.92622
2.92534
2.92837
2.93027
2.93425
2.93696
2.93989
0.999736
0.999748
0.999731
0.999709
0.999674
0.999633
0.999581
0.999511
0.99944
0.999361
0.999249
0.999137
0.999031
0.998879
0.998709
0.99857
0.998411
0.998173
0.997943
0.997768
0.997562
0.997243
0.996934
0.996716
0.996486
0.99611
0.995669
0.995357
0.995056
0.994628
0.994129
0.993762
0.993479
0.993173
0.992676
0.991859
0.991172
0.990824
0.990588
0.990472
0.990322
0.989977
0.989537
0.988998
0.989119
0.991465
1.01041
1.36006
1.95459
2.03439
2.06566
2.12933
2.26177
2.5321
2.72602
2.82843
2.80875
2.77514
2.75709
2.73707
2.72042
2.70419
2.69014
2.67932
2.67143
2.66554
2.66081
2.65678
2.65317
2.65002
2.64637
2.64275
2.63898
2.63496
2.63282
2.63104
2.63098
2.63058
2.63208
2.63376
2.63658
2.64037
2.64378
2.64899
2.65321
2.65784
2.66232
2.6672
2.67322
2.68135
2.69151
2.70373
2.71788
2.73364
2.75099
2.77022
2.79157
2.81535
2.84175
2.8678
2.89001
2.90621
2.91759
2.9242
2.92736
2.92838
2.92837
2.92726
2.92539
2.92182
2.91865
2.91624
2.91665
2.91585
2.91881
2.92077
2.92436
2.92734
2.92968
0.999742
0.999754
0.999738
0.999717
0.999685
0.999645
0.999597
0.999531
0.999458
0.999387
0.999284
0.999171
0.999071
0.998936
0.998771
0.998635
0.998484
0.99826
0.998052
0.99789
0.99769
0.997377
0.997102
0.996883
0.996667
0.996328
0.995935
0.995616
0.995291
0.994851
0.994349
0.993977
0.993685
0.993452
0.993092
0.992474
0.991569
0.990937
0.990471
0.990135
0.989758
0.98921
0.988751
0.988547
0.989031
0.994152
1.05727
1.73427
2.03201
2.06898
2.13854
2.25573
2.50019
2.73293
2.83118
2.80986
2.7743
2.75359
2.73003
2.71133
2.69352
2.67852
2.66701
2.65869
2.65296
2.64872
2.64504
2.64163
2.63855
2.63656
2.63404
2.63152
2.62856
2.6249
2.62228
2.6199
2.61883
2.61714
2.61738
2.61768
2.61955
2.62206
2.62584
2.63192
2.63717
2.64302
2.64774
2.65307
2.65933
2.66682
2.676
2.68772
2.70142
2.71676
2.73401
2.7534
2.77517
2.79951
2.82687
2.8542
2.87766
2.89471
2.90681
2.91406
2.91734
2.91865
2.91865
2.91763
2.91592
2.91225
2.90872
2.90635
2.9068
2.90606
2.90885
2.91101
2.91422
2.91748
2.91938
0.999749
0.999761
0.999746
0.999727
0.999696
0.999657
0.999613
0.999552
0.999479
0.999412
0.999321
0.999211
0.999112
0.998996
0.998844
0.998703
0.998561
0.998366
0.998176
0.998014
0.997825
0.997552
0.99729
0.99706
0.996854
0.996601
0.996273
0.995891
0.995533
0.995137
0.994672
0.994263
0.99394
0.993759
0.993542
0.993072
0.992203
0.991078
0.990388
0.98993
0.98958
0.989326
0.98932
0.989769
0.992509
1.01157
1.33342
1.95878
2.06798
2.13373
2.28119
2.50429