/*--------------------------------*- C++ -*----------------------------------*\
| =========                 |                                                 |
| \\      /  F ield         | OpenFOAM: The Open Source CFD Toolbox           |
|  \\    /   O peration     | Version:  2.2.x                                 |
|   \\  /    A nd           | Web:      www.OpenFOAM.org                      |
|    \\/     M anipulation  |                                                 |
\*---------------------------------------------------------------------------*/
FoamFile
{
    version     2.0;
    format      ascii;
    class       surfaceScalarField;
    location    "0.07";
    object      phi;
}
// * * * * * * * * * * * * * * * * * * * * * * * * * * * * * * * * * * * * * //

dimensions      [1 0 -1 0 0 0 0];

internalField   nonuniform List<scalar> 
1023
(
10
10
10
10
10
10
10
10
10
10
10
10
10
10
10
10
10
10
10
10
10
10
10
10
10
10
10
10
10
10
10
10
10
10
10
10
10
10
10
10
10
10
10
10
10
10
10
10
10
10
10
10
10
10
10
10
10
10
10
10
10
10
10
10
10
10
10
10
10
10
10
10
10
10
10
10
10
10
10
10
10
10
10
10
10
10
10
10
10
10
10
10
10
10
10
10
10
10
10
10
10
10
10
10
10
10
10
10
10
10
10
10
10
10
10
10
10
10
10
10
10
10
10
10
10
10
10
10
10
10
10
10
10
10
10
10
10
10
10
10
10
10
10
10
10
10
10
10
10
10
10
10
10
10
10
10
10
10
10
10
10
10
10
10
10
10
10
10
10
10
10
10
10
10
10
10
10
10
10
10
10
7.67124
-2.3538
-2.62877
-2.6216
-2.64233
-2.64652
-2.64391
-2.64279
-2.64237
-2.6421
-2.64188
-2.64183
-2.64237
-2.64279
-2.64298
-2.64309
-2.64296
-2.64271
-2.6424
-2.64225
-2.64224
-2.64239
-2.64274
-2.64288
-2.64291
-2.64284
-2.64258
-2.64242
-2.6424
-2.64245
-2.64268
-2.64289
-2.64293
-2.6429
-2.64276
-2.64252
-2.64244
-2.64242
-2.64245
-2.64257
-2.64266
-2.64267
-2.64266
-2.64259
-2.64249
-2.64245
-2.64245
-2.64247
-2.64253
-2.64257
-2.64259
-2.64258
-2.64256
-2.64254
-2.64254
-2.64254
-2.64256
-2.6426
-2.64262
-2.64263
-2.64263
-2.64263
-2.64263
-2.64263
-2.64265
-2.64268
-2.64269
-2.64269
-2.64268
-2.64265
-2.64261
-2.64259
-2.64259
-2.64259
-2.64259
-2.6426
-2.64259
-2.64258
-2.64256
-2.64253
-2.64252
-2.64252
-2.64253
-2.64255
-2.64258
-2.6426
-2.64261
-2.64261
-2.64261
-2.6426
-2.64259
-2.64259
-2.6426
-2.6426
-2.6426
-2.6426
-2.6426
-2.6426
-2.6426
-2.64261
-2.64262
-2.64262
-2.64262
-2.64262
-2.64262
-2.64261
-2.64262
-2.64263
-2.64264
-2.64265
-2.64266
-2.64266
-2.64266
-2.64265
-2.64263
-2.64261
-2.64261
-2.64261
-2.64261
-2.64261
-2.64261
-2.64261
-2.6426
-2.64259
-2.64258
-2.64256
-2.64255
-2.64255
-2.64255
-2.64255
-2.64255
-2.64256
-2.64257
-2.64258
-2.6426
-2.64261
-2.64262
-2.64262
-2.64263
-2.64264
-2.64265
-2.64266
-2.64266
-2.64268
-2.64268
-2.64269
-2.64269
-2.64268
-2.64267
-2.64264
-2.64262
-2.64261
-2.6426
-2.64259
-2.64259
-2.64259
-2.64258
-2.64258
-2.64258
-2.64258
-2.64258
-2.64259
-2.64259
-2.6426
-2.64261
-2.64261
-2.64262
-2.64263
-2.64264
-2.64264
-2.64264
-2.64264
-2.64264
-2.64263
-2.64263
-2.64263
-2.64263
-2.64263
-2.64263
-2.64263
-2.64263
-2.64264
-2.64264
-2.64263
-2.64261
-2.64259
-2.64258
-2.64258
-2.64258
-2.64258
-2.64257
-2.64256
-2.64255
-2.64255
-2.64259
-2.64262
-2.64263
-2.64262
-2.64258
-2.64253
-2.64254
-2.64259
-2.64271
-2.64275
-2.64271
-2.64254
-2.64242
-2.64242
-2.64256
-2.64295
-2.64308
-2.64303
-2.64259
-2.64195
-2.64188
-2.64214
-2.64347
-2.64433
-2.64423
-2.64285
-2.64075
-2.64048
-2.64381
-2.64856
-2.64965
-2.64997
-2.65886
-2.67691
-2.70174
-2.72771
-2.74736
-2.7604
-2.77
-2.77666
-2.78114
-2.784
-2.78535
-2.78565
-2.78587
-2.78646
-2.78703
-2.78718
-2.78694
-2.78668
-2.78662
-2.78668
-2.78674
-2.78673
-2.7867
-2.78671
-2.78674
-2.78674
-2.78671
-2.78662
-2.78647
-2.7863
-2.78616
-2.78613
-2.78613
-2.78613
-2.78611
-2.78615
-2.78639
-2.78676
-2.78701
-2.78709
-2.78704
-2.78674
-2.78581
-2.78368
-2.77943
-2.77163
-2.75805
-2.73541
-2.69907
-2.64287
-2.55915
-2.43788
-2.30592
-2.1977
-2.1134
-2.05091
-2.00681
-1.97717
-1.95825
-1.9468
-1.94029
-1.93683
-1.93516
-1.93446
-1.93424
-1.93421
-1.93423
-1.93427
-1.93428
-1.93424
-1.93413
-1.93393
-1.93374
-1.93359
-1.93347
-1.93337
-1.93329
-1.93324
-1.93318
-1.93315
-1.93313
-1.93313
-1.93314
-1.93317
-1.9332
-1.93323
-1.93325
-1.93326
-1.93326
-1.93327
-1.93331
-1.93336
-1.93337
-1.93337
-1.93335
-1.93336
-1.93339
-1.93337
-1.93331
-1.93328
-1.93336
-1.93335
-1.93349
-1.93332
-1.93324
-1.93343
-1.93349
-1.93317
-1.93286
-1.93324
-1.93361
-1.93299
-1.93271
-1.93267
-1.93255
-1.93233
-1.93229
-1.93244
-1.93259
-1.93263
-1.9326
-1.93255
-1.93249
-1.93243
-1.93236
-1.93229
-1.93231
-1.93236
-1.93242
-1.93246
-1.93249
-1.93248
-1.93244
-1.93239
-1.93238
-1.93239
-1.93241
-1.93244
-1.93246
-1.93247
-1.93247
-1.93246
-1.93243
-1.9324
-1.93239
-1.93239
-1.93239
-1.93242
-1.93245
-1.93245
-1.93245
-1.93244
-1.93243
-1.93242
-1.93242
-1.93243
-1.93245
-1.93247
-1.93248
-1.93248
-1.93246
-1.93244
-1.93241
-1.9324
-1.9324
-1.93241
-1.93243
-1.93245
-1.93246
-1.93247
-1.93246
-1.93244
-1.9324
-1.93237
-1.93236
-1.93235
-1.93235
-1.93236
-1.93238
-1.9324
-1.93242
-1.93243
-1.93243
-1.93243
-1.93242
-1.93242
-1.93241
-1.9324
-1.93239
-1.93239
-1.93239
-1.93239
-1.9324
-1.93242
-1.93243
-1.93245
-1.93246
-1.93247
-1.93246
-1.93245
-1.93243
-1.93241
-1.93239
-1.93238
-1.93237
-1.93238
-1.93241
-1.93243
-1.93244
-1.93245
-1.93245
-1.93244
-1.93242
-1.9324
-1.93239
-1.93239
-1.93239
-1.93239
-1.9324
-1.93241
-1.93242
-1.93242
-1.93241
-1.9324
-1.93239
-1.93237
-1.93236
-1.93235
-1.93235
-1.93236
-1.93237
-1.93238
-1.93241
-1.93243
-1.93243
-1.93244
-1.93244
-1.93243
-1.93241
-1.9324
-1.93239
-1.93239
-1.93239
-1.9324
-1.93243
-1.93246
-1.93248
-1.9325
-1.9325
-1.93249
-1.93247
-1.93243
-1.9324
-1.93238
-1.93236
-1.93236
-1.93237
-1.93239
-1.93243
-1.93245
-1.93246
-1.93246
-1.93246
-1.93244
-1.9324
-1.93236
-1.93235
-1.93234
-1.93234
-1.93235
-1.93238
-1.93243
-1.93245
-1.93245
-1.93245
-1.93245
-1.93243
-1.93237
-1.93234
-1.93232
-1.93232
-1.93232
-1.93234
-1.93239
-1.93245
-1.93248
-1.9325
-1.9325
-1.9325
-1.93247
-1.93241
-1.93237
-1.93236
-1.93236
-1.93237
-1.9324
-1.93246
-1.93252
-1.93255
-1.93255
-1.93255
-1.93252
-1.93246
-1.93237
-1.93231
-1.93229
-1.93228
-1.93229
-1.93232
-1.93241
-1.93249
-1.93252
-1.93253
-1.93253
-1.93251
-1.93244
-1.93233
-1.93227
-1.93225
-1.93225
-1.93226
-1.93232
-1.93244
-1.93254
-1.93259
-1.93261
-1.9326
-1.93257
-1.93247
-1.93233
-1.93225
-1.93222
-1.93222
-1.93222
-1.93229
-1.93245
-1.93256
-1.93261
-1.93262
-1.93262
-1.93258
-1.93245
-1.93228
-1.9322
-1.93217
-1.93217
-1.93219
-1.93228
-1.93249
-1.93262
-1.93267
-1.93267
-1.93266
-1.9326
-1.93241
-1.9322
-1.9321
-1.93207
-1.93208
-1.93212
-1.93225
-1.93253
-1.93269
-1.93275
-1.93276
-1.93274
-1.93265
-1.9324
-1.93216
-1.93205
-1.93202
-1.93203
-1.9321
-1.93231
-1.93266
-1.93285
-1.93293
-1.93294
-1.9329
-1.93276
-1.93239
-1.93208
-1.93194
-1.93189
-1.9319
-1.93198
-1.93229
-1.93271
-1.93292
-1.933
-1.93302
-1.93297
-1.93277
-1.93227
-1.9319
-1.93175
-1.93171
-1.93172
-1.93186
-1.93232
-1.93285
-1.93309
-1.93317
-1.93318
-1.93313
-1.93285
-1.93218
-1.93171
-1.93153
-1.93151
-1.93153
-1.93174
-1.9324
-1.93303
-1.9333
-1.93335
-1.93335
-1.93328
-1.93297
-1.9321
-1.93145
-1.93124
-1.93123
-1.93134
-1.93169
-1.93259
-1.93332
-1.93364
-1.93367
-1.93356
-1.93337
-1.93307
-1.93222
-1.93112
-1.93067
-1.93067
-1.93105
-1.93169
-1.93257
-1.93353
-1.93409
-1.93399
-1.9336
-1.93409
-1.93498
-1.93084
-1.95374
-2.19339
-2.93091
-9.99987
-10
-10
-10
-10
-10
-10
-10
-10
-10
-10
-10
-10
-10
-10
-10
-10
-10
-10
-10
-10
-10
-10
-10
-10
-10
-10
-10
-10
-10
-10
-10
-10
-10
-10
-10
-10
-10
-10
-10
-10
-10
-10
-10
-10
-10
-10
-10
-10
-10
-10
-10
-10
-10
-10
-10
-10
-10
-10
-10
-10
-10
-10
-10
-10
-10
-10
-10
-10
-10
-10
-10
-10
-10
-10
-10
-10
-10
-10
-10
-10
-10
-10
-10
-10
-10
-10
-10
-10
-10
-10
-10
-10
-10
-10
-10
-10
-10
-10
-10
-10
-10
-10
-10
-10
-10
-10
-10
-10
-10
-10
-10
-10
-10
-10
-10
-10
-10
-10
-10
-10
-10
-10
-10
-10
-10
-10
-10
-10
-10
-10
-10
-10
-10
-10
-10
-10
-10
-10
-10
-10
-10
-10
-10
-10
-10
-10
-10
-10
-10
-10
-10
-10
-10
-10
-10
-10
-10
-10
-10
-10
-10
-10
-10
-10
-10
-10
)
;

boundaryField
{
    front-back
    {
        type            empty;
        value           nonuniform 0();
    }
    inlet-outlet
    {
        type            calculated;
        value           uniform -10;
    }
    top-down
    {
        type            empty;
        value           nonuniform 0();
    }
}


// ************************************************************************* //
