/*--------------------------------*- C++ -*----------------------------------*\
| =========                 |                                                 |
| \\      /  F ield         | OpenFOAM: The Open Source CFD Toolbox           |
|  \\    /   O peration     | Version:  2.2.x                                 |
|   \\  /    A nd           | Web:      www.OpenFOAM.org                      |
|    \\/     M anipulation  |                                                 |
\*---------------------------------------------------------------------------*/
FoamFile
{
    version     2.0;
    format      ascii;
    class       volScalarField;
    location    "1.7";
    object      Bx;
}
// * * * * * * * * * * * * * * * * * * * * * * * * * * * * * * * * * * * * * //

dimensions      [1 0 -2 0 0 -1 0];

internalField   nonuniform List<scalar> 
14161
(
1.01255
1.00649
1.0081
1.00785
1.00808
1.00823
1.00843
1.00863
1.00884
1.00905
1.00927
1.00947
1.00968
1.00987
1.01006
1.01022
1.01038
1.01051
1.01061
1.0107
1.01076
1.01079
1.01079
1.01076
1.0107
1.01061
1.01047
1.01031
1.01012
1.00986
1.00957
1.00925
1.00889
1.00851
1.00808
1.00761
1.0071
1.00663
1.00611
1.00585
1.00557
1.00607
1.0063
1.01034
1.01036
1.0296
1.01594
1.20979
1.30911
1.29493
1.27624
1.26666
1.25854
1.25552
1.25259
1.25259
1.25223
1.25221
1.25363
1.25387
1.25542
1.25668
1.25712
1.25821
1.25979
1.26052
1.26062
1.26133
1.26211
1.26317
1.26359
1.26361
1.26354
1.26322
1.26266
1.26258
1.26262
1.26236
1.26098
1.2581
1.25682
1.25805
1.2563
1.25244
1.25031
1.25007
1.24642
1.24352
1.24255
1.24371
1.24528
1.25003
1.24985
1.24532
1.23414
1.21094
1.17431
1.14262
1.09711
1.04633
0.993799
0.934945
0.877987
0.818581
0.760162
0.701706
0.644542
0.587593
0.531587
0.475209
0.418228
0.360189
0.298716
0.244844
0.17942
0.133973
0.0734802
0.049518
-1.20412e-06
1.01255
1.00647
1.0081
1.00784
1.00808
1.00823
1.00843
1.00863
1.00884
1.00906
1.00927
1.00947
1.00968
1.00987
1.01006
1.01022
1.01037
1.01049
1.0106
1.0107
1.01076
1.0108
1.01081
1.01077
1.01072
1.01062
1.0105
1.01033
1.01013
1.00988
1.00962
1.00932
1.00898
1.00859
1.00817
1.00774
1.00734
1.00688
1.00644
1.00606
1.00569
1.00577
1.0056
1.00845
1.00775
1.01682
0.999632
1.04239
1.06254
1.08087
1.09217
1.10149
1.10725
1.1161
1.123
1.13248
1.14136
1.15028
1.16103
1.16855
1.17674
1.18327
1.18904
1.19396
1.19834
1.20062
1.20202
1.20272
1.20325
1.20463
1.20759
1.21082
1.2145
1.21687
1.21752
1.21567
1.21321
1.21322
1.21951
1.2233
1.222
1.21479
1.20494
1.18615
1.17538
1.1719
1.17153
1.16248
1.14613
1.12043
1.08266
1.04206
0.991045
0.948345
0.902481
0.858653
0.823551
0.788286
0.752994
0.713693
0.679383
0.648708
0.620069
0.589001
0.556851
0.521959
0.484981
0.449894
0.41212
0.373194
0.332607
0.290948
0.249163
0.207219
0.15724
0.123132
0.0798863
0.0558856
0.00871432
1.01254
1.00646
1.00809
1.00784
1.00807
1.00822
1.00842
1.00862
1.00884
1.00905
1.00926
1.00946
1.00967
1.00987
1.01006
1.01022
1.01037
1.0105
1.01061
1.01069
1.01075
1.01079
1.0108
1.01077
1.01071
1.01061
1.01049
1.01032
1.0101
1.00987
1.0096
1.00925
1.00888
1.00844
1.00798
1.00748
1.00693
1.00635
1.00578
1.00513
1.00467
1.00415
1.0039
1.00243
1.00065
0.994822
1.00248
0.974685
0.937454
0.968619
0.986513
1.00085
1.01298
1.02903
1.04496
1.06203
1.07895
1.09484
1.11171
1.12363
1.1355
1.14448
1.15297
1.15987
1.16551
1.17095
1.17636
1.18299
1.18784
1.18966
1.18933
1.18912
1.18988
1.1915
1.19524
1.20547
1.21044
1.21074
1.20584
1.18843
1.17126
1.16071
1.1674
1.17615
1.16176
1.12119
1.06747
0.992908
0.896714
0.815168
0.748495
0.698038
0.638272
0.586141
0.537991
0.488569
0.445472
0.423618
0.409971
0.400317
0.392995
0.377198
0.354744
0.33943
0.325099
0.312121
0.297861
0.276648
0.252607
0.225414
0.197249
0.169586
0.144328
0.119734
0.0996817
0.0812066
0.0571082
0.0372922
0.00509769
1.01254
1.00646
1.00809
1.00784
1.00807
1.00822
1.00842
1.00863
1.00884
1.00905
1.00926
1.00947
1.00968
1.00986
1.01004
1.01021
1.01038
1.01051
1.01063
1.01071
1.01077
1.01081
1.01082
1.01079
1.01074
1.01065
1.01053
1.01036
1.01018
1.00996
1.00969
1.0094
1.00911
1.00878
1.00844
1.00807
1.00764
1.00712
1.00661
1.00596
1.00528
1.00403
1.00335
1.00059
0.999962
0.989096
1.00705
0.91354
0.836369
0.874186
0.889669
0.928349
0.949745
0.980152
1.00384
1.02859
1.05084
1.0721
1.09162
1.10637
1.12007
1.13231
1.1438
1.15263
1.15931
1.1662
1.17051
1.1714
1.17127
1.17286
1.17645
1.18417
1.18823
1.18896
1.18951
1.18734
1.18093
1.17933
1.18261
1.19049
1.19252
1.18241
1.14499
1.09485
1.05521
1.02418
0.990406
0.933097
0.864875
0.780048
0.656329
0.585683
0.494269
0.443076
0.406117
0.387334
0.355941
0.32865
0.297772
0.274472
0.251771
0.244771
0.242909
0.226852
0.205866
0.186667
0.16516
0.154707
0.141867
0.130463
0.112915
0.0981632
0.0852498
0.070604
0.058444
0.0501107
0.0374406
0.0310538
0.00726285
1.01252
1.00645
1.00808
1.00783
1.00807
1.00822
1.00842
1.00862
1.00883
1.00904
1.00926
1.00947
1.00968
1.00986
1.01005
1.01022
1.01038
1.01052
1.01063
1.01071
1.01077
1.01081
1.01082
1.01079
1.01074
1.01065
1.01053
1.01038
1.0102
1.00996
1.00966
1.00934
1.00895
1.00852
1.00802
1.00745
1.00681
1.0061
1.00535
1.00455
1.00365
1.00258
1.00141
0.998963
0.998023
0.991019
0.979824
0.898047
0.821502
0.828126
0.8554
0.902339
0.936683
0.973939
1.00416
1.03387
1.05744
1.08109
1.10044
1.1172
1.13112
1.14396
1.1542
1.16175
1.16912
1.17506
1.18077
1.1881
1.19248
1.19556
1.19593
1.19477
1.19344
1.19461
1.19919
1.21072
1.2197
1.22149
1.21631
1.19112
1.16805
1.15707
1.13573
1.1283
1.1251
1.07159
0.957856
0.880957
0.794065
0.711634
0.656468
0.599061
0.525839
0.475565
0.403183
0.345557
0.297761
0.289667
0.272831
0.265315
0.246127
0.220959
0.191837
0.174605
0.152291
0.139736
0.120312
0.103285
0.082264
0.0735885
0.0631366
0.0623726
0.0499804
0.0463948
0.0380658
0.0342876
0.0255149
0.0219849
0.0070532
1.01251
1.00646
1.00808
1.00783
1.00807
1.00822
1.00842
1.00862
1.00883
1.00905
1.00926
1.00947
1.00967
1.00987
1.01006
1.01023
1.01039
1.01052
1.01063
1.01072
1.01079
1.01084
1.01086
1.01084
1.01079
1.01071
1.0106
1.01046
1.01028
1.01007
1.00986
1.00963
1.00937
1.00911
1.00883
1.0085
1.00814
1.00769
1.00722
1.00646
1.0054
1.00387
1.00246
0.998925
0.996717
0.983956
0.991305
0.899922
0.806018
0.849156
0.867429
0.922723
0.957548
1.00058
1.03376
1.06798
1.0929
1.12025
1.13899
1.15872
1.17156
1.18448
1.19255
1.19982
1.20685
1.21057
1.21424
1.21483
1.21676
1.21678
1.21913
1.22519
1.23126
1.23199
1.23073
1.22541
1.217
1.21184
1.21631
1.23056
1.23626
1.21961
1.18217
1.12473
1.05677
1.02189
0.961724
0.933409
0.878219
0.812057
0.733482
0.641261
0.553109
0.477601
0.418499
0.37816
0.34454
0.307334
0.271008
0.24351
0.217925
0.205985
0.197598
0.177697
0.143327
0.119906
0.087119
0.0795484
0.0644456
0.0608923
0.0468963
0.04009
0.0270526
0.0300065
0.02087
0.020224
0.0135189
0.0154698
0.00688251
1.01249
1.00645
1.00807
1.00782
1.00806
1.00821
1.00842
1.00862
1.00883
1.00905
1.00926
1.00947
1.00967
1.00987
1.01006
1.01024
1.0104
1.01053
1.01065
1.01073
1.01081
1.01085
1.01087
1.01086
1.01081
1.01074
1.01064
1.0105
1.01032
1.01011
1.00987
1.00956
1.00917
1.00874
1.00822
1.00762
1.00691
1.00615
1.0053
1.00431
1.00337
1.00195
1.00127
0.998986
1.00021
0.9931
1.01867
0.972053
0.879691
0.924999
0.938419
0.987336
1.02348
1.06059
1.09249
1.12497
1.14602
1.17658
1.1909
1.21369
1.22069
1.23643
1.23864
1.2468
1.24863
1.25441
1.25762
1.26164
1.26488
1.26645
1.26609
1.26218
1.25781
1.25711
1.25902
1.26371
1.27248
1.27342
1.26833
1.25099
1.226
1.21379
1.19168
1.18553
1.14027
1.10871
1.02348
0.965608
0.902472
0.840836
0.780286
0.725372
0.676312
0.588284
0.506769
0.431376
0.354947
0.321363
0.291653
0.273159
0.247989
0.220216
0.189353
0.168817
0.14478
0.130858
0.100668
0.0846589
0.0552799
0.0501731
0.0333994
0.0360617
0.0208386
0.0228729
0.0127119
0.0169814
0.00984176
0.0130398
0.00706267
1.01248
1.00646
1.00806
1.00782
1.00806
1.00822
1.00842
1.00862
1.00884
1.00905
1.00926
1.00948
1.00968
1.00988
1.01006
1.01024
1.0104
1.01055
1.01067
1.01076
1.01084
1.01089
1.01092
1.01092
1.01088
1.01082
1.01073
1.01061
1.01046
1.0103
1.01013
1.00995
1.00976
1.00959
1.0094
1.00924
1.00905
1.00888
1.00873
1.00851
1.00811
1.00743
1.00667
1.00526
1.00346
1.00001
0.997368
0.987882
0.909822
0.975163
1.01756
1.07106
1.11497
1.15124
1.18415
1.20736
1.2261
1.24787
1.25458
1.27089
1.27339
1.2863
1.28563
1.29421
1.29363
1.29826
1.29645
1.29821
1.29904
1.29844
1.29884
1.30147
1.30471
1.30618
1.3051
1.30094
1.29458
1.29098
1.28305
1.29196
1.28667
1.29054
1.25304
1.22436
1.15477
1.12479
1.07167
1.03742
0.99076
0.946565
0.892308
0.82736
0.745661
0.662633
0.5735
0.516474
0.439977
0.380985
0.323049
0.287689
0.256954
0.238714
0.227152
0.207256
0.17891
0.149837
0.104585
0.0939734
0.0656282
0.0621023
0.0393194
0.0365077
0.0171402
0.0258556
0.0138705
0.0181269
0.00919413
0.0147974
0.00762764
1.01245
1.00645
1.00806
1.00782
1.00806
1.00821
1.00842
1.00862
1.00884
1.00905
1.00926
1.00948
1.00969
1.00989
1.01008
1.01026
1.01042
1.01057
1.01069
1.01079
1.01087
1.01092
1.01096
1.01096
1.01093
1.01088
1.0108
1.01069
1.01054
1.01038
1.01017
1.00991
1.00957
1.00918
1.00869
1.00815
1.00745
1.00671
1.00589
1.00505
1.00384
1.00314
1.00125
1.00143
0.997974
1.0046
0.98129
1.04022
1.00112
1.07421
1.11594
1.16229
1.19258
1.22308
1.24745
1.26463
1.28179
1.29511
1.2971
1.31229
1.30889
1.32183
1.31692
1.32477
1.32137
1.32619
1.32372
1.32707
1.32575
1.32812
1.3276
1.32772
1.32634
1.32599
1.32509
1.32497
1.32618
1.33016
1.32313
1.3266
1.3072
1.31271
1.27947
1.25777
1.21431
1.18286
1.14015
1.09931
1.04935
1.01332
0.963587
0.911467
0.850369
0.78205
0.696883
0.604599
0.494745
0.430489
0.369819
0.33311
0.301054
0.2731
0.246309
0.227061
0.206586
0.188239
0.15343
0.131662
0.0842715
0.0722892
0.0416988
0.0437469
0.0267873
0.0299583
0.0133656
0.0214551
0.0110215
0.0158887
0.00825704
1.01244
1.00646
1.00805
1.00782
1.00806
1.00822
1.00842
1.00862
1.00884
1.00906
1.00927
1.00948
1.00969
1.0099
1.01009
1.01028
1.01043
1.01059
1.01071
1.01083
1.01091
1.01098
1.01102
1.01104
1.01103
1.01099
1.01093
1.01085
1.01074
1.01061
1.01049
1.01038
1.01027
1.01019
1.01014
1.0102
1.01034
1.01056
1.01091
1.01155
1.01256
1.01445
1.01618
1.02135
1.02299
1.03827
1.03168
1.1316
1.27535
1.22508
1.28652
1.27798
1.28967
1.2861
1.30534
1.30021
1.32276
1.3131
1.33222
1.32312
1.3371
1.32884
1.3383
1.3333
1.33852
1.33592
1.33948
1.33752
1.33882
1.33796
1.33795
1.338
1.33808
1.33794
1.3375
1.33722
1.33707
1.3354
1.33844
1.32993
1.33797
1.31794
1.31709
1.27206
1.24519
1.2046
1.18196
1.14602
1.11087
1.06868
1.01871
0.968723
0.917168
0.855677
0.782131
0.696962
0.601816
0.514626
0.425915
0.365815
0.321442
0.297871
0.276959
0.263253
0.249801
0.230324
0.197999
0.169252
0.117917
0.103884
0.0667174
0.0588644
0.0340464
0.0379494
0.020702
0.026993
0.0129132
0.0211548
0.00875311
1.01241
1.00646
1.00805
1.00782
1.00806
1.00822
1.00842
1.00863
1.00884
1.00906
1.00928
1.00949
1.00971
1.00992
1.01011
1.01029
1.01046
1.01062
1.01075
1.01086
1.01096
1.01103
1.01108
1.0111
1.0111
1.01109
1.01104
1.01097
1.01088
1.01076
1.0106
1.01041
1.01017
1.00987
1.00948
1.00904
1.00849
1.00791
1.00722
1.00655
1.00569
1.00489
1.00356
1.00259
1.00108
1.00017
0.99968
1.03014
1.17873
1.32854
1.32179
1.32779
1.32128
1.32373
1.32196
1.32332
1.32934
1.32359
1.33638
1.32827
1.34062
1.33214
1.34035
1.33531
1.33933
1.33564
1.33856
1.33607
1.33735
1.33711
1.33785
1.33812
1.33819
1.33774
1.33699
1.33578
1.3366
1.33595
1.34288
1.33756
1.33924
1.31903
1.30387
1.25345
1.24641
1.20944
1.18601
1.15199
1.13304
1.10042
1.06381
1.00812
0.958754
0.901961
0.845218
0.775966
0.689344
0.586889
0.492337
0.427029
0.373618
0.337544
0.308268
0.288442
0.278457
0.265025
0.244654
0.22013
0.17159
0.144622
0.0852591
0.0793157
0.0525581
0.0481185
0.0271335
0.0332904
0.0172841
0.0243177
0.0109797
1.0124
1.00646
1.00805
1.00782
1.00806
1.00822
1.00843
1.00863
1.00885
1.00907
1.00929
1.00951
1.00972
1.00993
1.01012
1.01031
1.01048
1.01065
1.01079
1.01091
1.01102
1.0111
1.01117
1.01121
1.01122
1.01122
1.01121
1.01116
1.0111
1.01105
1.01098
1.01091
1.01088
1.01088
1.01094
1.01109
1.01131
1.01159
1.01198
1.01255
1.01287
1.01367
1.01375
1.01477
1.01428
1.01792
1.01638
1.07304
1.16483
1.27578
1.27722
1.30464
1.29919
1.30702
1.30668
1.31884
1.31318
1.32897
1.32106
1.33623
1.32745
1.33936
1.33248
1.33752
1.33256
1.33547
1.33142
1.33383
1.33204
1.33291
1.33295
1.33323
1.33332
1.33316
1.33292
1.33323
1.33428
1.33315
1.33536
1.32306
1.33042
1.29323
1.28476
1.24524
1.21965
1.18858
1.15917
1.14353
1.11275
1.08757
1.0624
1.02991
0.992801
0.951968
0.901461
0.839163
0.762923
0.678061
0.583538
0.487281
0.41201
0.365985
0.33627
0.313395
0.301642
0.295923
0.280174
0.251544
0.218564
0.186222
0.129676
0.116954
0.0611346
0.0637833
0.0399196
0.0410903
0.0233839
0.0307712
0.0141349
1.01238
1.00646
1.00804
1.00782
1.00806
1.00822
1.00843
1.00864
1.00885
1.00907
1.00929
1.00952
1.00973
1.00994
1.01014
1.01034
1.01052
1.01069
1.01084
1.01097
1.01108
1.01117
1.01125
1.0113
1.01133
1.01135
1.01135
1.01134
1.0113
1.01125
1.01118
1.01108
1.01092
1.01074
1.01049
1.01021
1.00988
1.00947
1.00907
1.00864
1.00811
1.00779
1.00719
1.00716
1.00521
1.01151
0.997617
1.08823
1.08916
1.16425
1.18131
1.2542
1.25969
1.28494
1.28811
1.30755
1.30379
1.32453
1.31662
1.33403
1.32608
1.33886
1.33512
1.3384
1.33825
1.33612
1.33553
1.33401
1.33395
1.33327
1.33367
1.33382
1.33373
1.33314
1.3307
1.33032
1.32737
1.33072
1.32593
1.33602
1.30391
1.29783
1.23752
1.23407
1.18771
1.16038
1.13764
1.12017
1.08471
1.05475
1.03481
1.01138
0.977696
0.943139
0.907578
0.858428
0.801704
0.726426
0.636064
0.543551
0.456986
0.402611
0.365374
0.335425
0.318716
0.309494
0.300457
0.285248
0.260363
0.234346
0.17519
0.148597
0.094887
0.0872273
0.0457698
0.0472367
0.0293514
0.035445
0.0176089
1.01237
1.00647
1.00805
1.00782
1.00806
1.00822
1.00844
1.00864
1.00886
1.00908
1.00931
1.00953
1.00975
1.00996
1.01017
1.01037
1.01055
1.01072
1.01088
1.01103
1.01115
1.01126
1.01135
1.01143
1.01148
1.01152
1.01155
1.01156
1.01156
1.01156
1.01155
1.01155
1.01158
1.01161
1.01174
1.01191
1.01208
1.01236
1.01262
1.01287
1.01302
1.0132
1.01348
1.01397
1.01487
1.01678
1.01647
1.07506
1.09929
1.13471
1.16843
1.25146
1.27639
1.31451
1.31045
1.32813
1.31966
1.33802
1.32742
1.34397
1.33313
1.34706
1.33898
1.34681
1.34098
1.34359
1.33928
1.34091
1.34009
1.33997
1.33956
1.33916
1.33787
1.33667
1.33575
1.33605
1.33612
1.33552
1.33289
1.3153
1.3018
1.25013
1.22827
1.19378
1.17784
1.13948
1.13095
1.10326
1.0813
1.06026
1.02297
0.999125
0.963258
0.937519
0.899913
0.860126
0.813154
0.751523
0.677841
0.588558
0.493517
0.423961
0.380501
0.352288
0.332963
0.321455
0.31341
0.308118
0.287221
0.263694
0.218994
0.191287
0.129566
0.110435
0.0639343
0.0624062
0.0356495
0.0398814
0.0212406
1.01235
1.00647
1.00804
1.00782
1.00807
1.00823
1.00844
1.00865
1.00887
1.0091
1.00932
1.00955
1.00977
1.00999
1.0102
1.01041
1.0106
1.01077
1.01095
1.0111
1.01124
1.01136
1.01146
1.01156
1.01163
1.01169
1.01174
1.01178
1.01181
1.01183
1.01185
1.01185
1.01181
1.01174
1.01165
1.01151
1.01134
1.01113
1.01094
1.01069
1.01062
1.01032
1.01045
1.00933
1.01257
1.00437
1.07227
1.10819
1.10889
1.12413
1.13512
1.21971
1.24238
1.29954
1.29497
1.32051
1.30992
1.33161
1.32242
1.34263
1.33164
1.34654
1.33826
1.34657
1.33804
1.3408
1.33723
1.33829
1.3374
1.33671
1.3359
1.33567
1.33561
1.3354
1.33461
1.33342
1.33395
1.33103
1.32906
1.30791
1.25475
1.21683
1.19438
1.16561
1.12814
1.12083
1.09629
1.07148
1.04661
1.0269
1.00876
0.985168
0.968088
0.942273
0.914147
0.878543
0.842617
0.795346
0.73814
0.6497
0.554248
0.471624
0.412348
0.376924
0.351789
0.335529
0.328508
0.326004
0.311052
0.292302
0.253258
0.226731
0.16128
0.14165
0.086838
0.0750215
0.0433665
0.0451983
0.0252381
1.01234
1.00648
1.00805
1.00783
1.00807
1.00823
1.00845
1.00866
1.00888
1.00911
1.00934
1.00956
1.00979
1.01001
1.01023
1.01044
1.01064
1.01083
1.01101
1.01117
1.01132
1.01146
1.01158
1.0117
1.0118
1.01189
1.01197
1.01204
1.0121
1.01216
1.01221
1.01228
1.01236
1.01247
1.0126
1.01281
1.01299
1.01318
1.01343
1.01364
1.01394
1.01405
1.01445
1.01292
1.01825
1.00053
1.08547
1.07141
1.08015
1.08377
1.09719
1.10962
1.17883
1.21273
1.26461
1.28035
1.29516
1.31078
1.31028
1.32626
1.32381
1.33429
1.33016
1.33609
1.33042
1.33326
1.32958
1.3297
1.32803
1.32811
1.32697
1.32723
1.32811
1.32899
1.32718
1.32713
1.32574
1.32203
1.30366
1.25735
1.22037
1.19038
1.14844
1.13016
1.10747
1.08961
1.06401
1.03429
1.01273
0.988181
0.970679
0.947244
0.935914
0.913566
0.890016
0.863796
0.831689
0.795423
0.751414
0.683562
0.599021
0.521735
0.44246
0.399812
0.365323
0.342262
0.331223
0.328678
0.326607
0.308234
0.281378
0.259895
0.201746
0.177243
0.101427
0.0891446
0.0557825
0.0517402
0.03109
1.01233
1.00648
1.00805
1.00783
1.00808
1.00824
1.00846
1.00867
1.0089
1.00912
1.00936
1.00959
1.00982
1.01005
1.01027
1.01048
1.0107
1.01089
1.01108
1.01126
1.01143
1.01158
1.01173
1.01186
1.01198
1.01209
1.0122
1.01231
1.0124
1.01248
1.01258
1.01268
1.01275
1.01279
1.01281
1.01283
1.01286
1.01284
1.01282
1.01287
1.01283
1.01269
1.01247
1.01186
1.01563
1.01532
1.07515
1.08842
1.08558
1.0851
1.08988
1.1147
1.13714
1.14996
1.24861
1.24612
1.30918
1.30094
1.32953
1.31667
1.33687
1.32598
1.33825
1.32875
1.33447
1.32937
1.33035
1.32708
1.32709
1.32612
1.32647
1.32683
1.32688
1.32546
1.3233
1.32369
1.31728
1.31311
1.24837
1.2232
1.1655
1.12516
1.08277
1.07376
1.06294
1.03959
1.01525
0.997133
0.983527
0.969864
0.952278
0.936607
0.91724
0.90117
0.877803
0.855766
0.82637
0.791521
0.751216
0.696265
0.623077
0.544215
0.456039
0.40809
0.374269
0.351056
0.337663
0.331446
0.330831
0.32054
0.300253
0.281028
0.230931
0.202303
0.128423
0.114694
0.0661253
0.0598369
0.0369092
1.01233
1.00649
1.00805
1.00784
1.00808
1.00825
1.00846
1.00868
1.00891
1.00914
1.00938
1.00961
1.00984
1.01008
1.01031
1.01053
1.01075
1.01096
1.01116
1.01135
1.01154
1.0117
1.01187
1.01202
1.01217
1.01232
1.01245
1.01259
1.01271
1.01283
1.01296
1.01309
1.01322
1.01338
1.01355
1.01378
1.01395
1.01419
1.01443
1.01483
1.01512
1.01603
1.01617
1.02197
1.01336
1.07456
1.0851
1.09187
1.09011
1.09324
1.09347
1.10485
1.10195
1.15387
1.15589
1.25301
1.25291
1.31388
1.30769
1.33263
1.32318
1.34073
1.33222
1.33758
1.3326
1.33361
1.32999
1.32992
1.32812
1.32696
1.32444
1.32463
1.32303
1.32176
1.31741
1.31138
1.29667
1.25204
1.21668
1.1428
1.11245
1.06576
1.04599
1.01078
0.993716
0.972325
0.966747
0.946957
0.937134
0.919369
0.905668
0.895944
0.882372
0.873376
0.861731
0.847768
0.825729
0.801723
0.772131
0.722088
0.660438
0.573875
0.48461
0.427458
0.386632
0.36243
0.346064
0.337437
0.334578
0.330945
0.315576
0.296347
0.262782
0.23403
0.15891
0.142272
0.0848294
0.075759
0.0469937
1.01232
1.00649
1.00806
1.00784
1.00809
1.00826
1.00847
1.00869
1.00892
1.00916
1.0094
1.00964
1.00988
1.01012
1.01035
1.01058
1.01081
1.01103
1.01125
1.01146
1.01166
1.01185
1.01203
1.01221
1.01239
1.01256
1.01273
1.0129
1.01307
1.01323
1.01338
1.01354
1.01369
1.01385
1.01399
1.01412
1.01422
1.01438
1.01453
1.01483
1.01467
1.01526
1.01347
1.0202
0.998039
1.08389
1.03519
1.04989
1.05493
1.06315
1.06902
1.08042
1.08245
1.11007
1.12758
1.20983
1.21073
1.29906
1.28588
1.32973
1.3184
1.33821
1.32794
1.33645
1.32842
1.33042
1.32825
1.32786
1.32614
1.3228
1.31949
1.3162
1.30945
1.30334
1.28084
1.238
1.18579
1.08644
1.07741
1.03101
1.02058
1.00363
0.997412
0.973336
0.947897
0.933032
0.926648
0.921413
0.911851
0.901102
0.885306
0.874683
0.861752
0.847531
0.836658
0.824471
0.806618
0.787718
0.759256
0.719402
0.672789
0.601361
0.519311
0.447316
0.400241
0.375324
0.355279
0.344743
0.340664
0.341008
0.325662
0.313701
0.287111
0.25716
0.190695
0.168579
0.10424
0.0877261
0.0552971
1.01232
1.0065
1.00806
1.00785
1.0081
1.00827
1.00849
1.00871
1.00894
1.00918
1.00942
1.00966
1.00991
1.01016
1.0104
1.01064
1.01088
1.01111
1.01134
1.01157
1.01178
1.012
1.0122
1.01241
1.0126
1.01281
1.013
1.01319
1.01339
1.01358
1.01377
1.01395
1.01414
1.01436
1.01456
1.01476
1.01492
1.01504
1.01512
1.01508
1.01485
1.01484
1.01328
1.01697
1.00108
1.05042
1.05613
1.05681
1.0588
1.05928
1.06152
1.07174
1.07692
1.09137
1.10227
1.14967
1.15224
1.26358
1.2509
1.32036
1.31439
1.32905
1.32044
1.32536
1.31857
1.31403
1.30852
1.30517
1.29672
1.28545
1.26106
1.2267
1.18009
1.12078
1.0576
0.960102
0.911193
0.836895
0.849686
0.854963
0.870132
0.886736
0.896726
0.894847
0.892974
0.881154
0.875027
0.867489
0.865591
0.861849
0.852215
0.846306
0.841897
0.833563
0.825896
0.814999
0.796857
0.778092
0.750132
0.720091
0.678472
0.616805
0.533281
0.457939
0.404981
0.376373
0.356226
0.343899
0.339442
0.340344
0.33394
0.324376
0.301024
0.278491
0.216729
0.194777
0.122847
0.104462
0.0665191
1.01232
1.0065
1.00807
1.00786
1.00811
1.00828
1.0085
1.00872
1.00896
1.0092
1.00945
1.00969
1.00995
1.0102
1.01045
1.0107
1.01095
1.0112
1.01145
1.01169
1.01192
1.01216
1.01239
1.01262
1.01285
1.01308
1.01331
1.01354
1.01377
1.014
1.01423
1.01446
1.01468
1.01491
1.01512
1.0153
1.01555
1.01586
1.01625
1.01655
1.01738
1.01873
1.023
1.0221
1.04463
1.07379
1.08055
1.07668
1.07512
1.07285
1.07102
1.07181
1.07635
1.09318
1.09647
1.11342
1.12528
1.22317
1.22005
1.31588
1.2862
1.31544
1.29532
1.30297
1.28604
1.25694
1.22195
1.17884
1.11953
1.05808
0.98819
0.894729
0.80238
0.726101
0.670979
0.625857
0.620618
0.621892
0.637098
0.668183
0.709045
0.749261
0.782755
0.803986
0.821115
0.830953
0.837744
0.838168
0.836385
0.834105
0.829498
0.822096
0.81448
0.808459
0.800649
0.7931
0.784016
0.773999
0.753515
0.729914
0.692094
0.641587
0.562091
0.487046
0.42223
0.390131
0.366464
0.351665
0.346325
0.343896
0.342722
0.333334
0.31544
0.300343
0.237036
0.216996
0.138028
0.116712
0.0767314
1.01232
1.00651
1.00808
1.00787
1.00812
1.00829
1.00851
1.00874
1.00898
1.00922
1.00947
1.00973
1.00998
1.01025
1.01051
1.01077
1.01103
1.01129
1.01155
1.01181
1.01207
1.01232
1.01258
1.01283
1.01309
1.01334
1.0136
1.01386
1.01411
1.01436
1.01461
1.01487
1.01512
1.01538
1.0157
1.01598
1.01631
1.01661
1.017
1.01702
1.01772
1.01584
1.0221
1.00162
1.10128
1.03294
1.05539
1.05323
1.05564
1.05699
1.06302
1.07487
1.08217
1.0782
1.0695
1.08577
1.1294
1.16962
1.1593
1.25073
1.23129
1.21444
1.16616
1.10803
1.04612
0.973986
0.874787
0.786246
0.70836
0.644164
0.596159
0.556342
0.52566
0.493409
0.482497
0.472153
0.474793
0.484961
0.505169
0.53113
0.57001
0.614974
0.664222
0.712594
0.748681
0.771868
0.787919
0.796836
0.800851
0.80443
0.804837
0.804948
0.801029
0.79674
0.789767
0.779917
0.76858
0.758962
0.743931
0.723418
0.689569
0.646942
0.577656
0.507382
0.432346
0.393906
0.368386
0.353734
0.344759
0.345921
0.342253
0.339612
0.327816
0.309247
0.258763
0.236986
0.152065
0.136165
0.0894911
1.01233
1.00652
1.00808
1.00788
1.00813
1.0083
1.00853
1.00875
1.009
1.00925
1.0095
1.00976
1.01003
1.0103
1.01057
1.01084
1.01112
1.01139
1.01167
1.01195
1.01223
1.0125
1.01278
1.01306
1.01335
1.01364
1.01392
1.01421
1.0145
1.01479
1.01509
1.01538
1.01565
1.01592
1.0162
1.01643
1.01656
1.01649
1.01619
1.01597
1.01556
1.01337
1.01649
0.999668
1.05219
1.05478
1.05759
1.05751
1.0566
1.05855
1.06773
1.07146
1.06917
1.0619
1.06383
1.08863
1.10775
1.08478
1.0762
1.09454
1.07729
0.956782
0.880661
0.771485
0.711297
0.65155
0.612078
0.566161
0.5279
0.492603
0.469615
0.446056
0.429228
0.41601
0.409428
0.408996
0.410433
0.41886
0.432424
0.452831
0.481433
0.517092
0.565296
0.621387
0.673962
0.708266
0.734496
0.750785
0.762679
0.774256
0.78043
0.783426
0.781253
0.7781
0.775721
0.771577
0.765048
0.755709
0.744401
0.726778
0.699775
0.663881
0.602689
0.529778
0.45297
0.407407
0.378796
0.36271
0.35036
0.352098
0.347406
0.34788
0.335983
0.317962
0.279656
0.255233
0.17428
0.153821
0.100548
1.01234
1.00653
1.0081
1.00789
1.00814
1.00832
1.00854
1.00877
1.00902
1.00927
1.00953
1.0098
1.01007
1.01035
1.01063
1.01092
1.01121
1.0115
1.01179
1.01208
1.01238
1.01268
1.01299
1.01329
1.01361
1.01392
1.01424
1.01455
1.01487
1.01518
1.0155
1.01581
1.01611
1.01644
1.01676
1.01717
1.0175
1.01813
1.01881
1.02029
1.02199
1.02583
1.02564
1.04436
1.0777
1.07542
1.07157
1.0662
1.06271
1.06633
1.06861
1.06826
1.05741
1.0483
1.05182
1.07359
1.06051
0.991937
0.94772
0.882316
0.754215
0.704794
0.660375
0.618588
0.580191
0.553412
0.522688
0.500498
0.476849
0.454218
0.437877
0.421223
0.41071
0.40109
0.396572
0.395806
0.396396
0.399261
0.403224
0.414056
0.430595
0.454507
0.486167
0.529163
0.580942
0.633425
0.683131
0.714672
0.735078
0.749059
0.760191
0.766182
0.769044
0.76779
0.765138
0.760945
0.756851
0.749012
0.737327
0.723281
0.700657
0.668636
0.616361
0.547607
0.470424
0.415302
0.385838
0.366935
0.354722
0.351153
0.35001
0.350205
0.339542
0.331389
0.29531
0.274257
0.1946
0.172242
0.11756
1.01235
1.00654
1.00811
1.0079
1.00816
1.00833
1.00856
1.00879
1.00905
1.0093
1.00957
1.00984
1.01012
1.0104
1.0107
1.011
1.0113
1.01161
1.01192
1.01223
1.01255
1.01288
1.01321
1.01354
1.01388
1.01422
1.01457
1.01491
1.01526
1.01561
1.01597
1.01634
1.0167
1.0171
1.01748
1.0179
1.0182
1.01856
1.01862
1.01928
1.0175
1.02373
1.0027
1.09981
1.03174
1.05201
1.04899
1.04962
1.05084
1.06054
1.06399
1.06354
1.04836
1.03935
1.05159
1.05722
0.976972
0.875614
0.778608
0.688273
0.632738
0.607292
0.585219
0.562389
0.551291
0.531141
0.51931
0.501478
0.489348
0.474111
0.459119
0.442111
0.427694
0.414725
0.40529
0.399672
0.397838
0.398475
0.400452
0.402719
0.408862
0.421382
0.442765
0.47142
0.513799
0.567435
0.627746
0.667633
0.696499
0.715589
0.727948
0.740989
0.751508
0.755732
0.756478
0.754966
0.752495
0.74676
0.738097
0.725957
0.706505
0.67686
0.632207
0.567798
0.492317
0.430325
0.395729
0.376266
0.36253
0.356442
0.355426
0.354518
0.348122
0.343064
0.307668
0.293904
0.209266
0.189529
0.133557
1.01237
1.00655
1.00812
1.00792
1.00817
1.00835
1.00858
1.00881
1.00907
1.00933
1.0096
1.00988
1.01017
1.01046
1.01076
1.01108
1.01139
1.01172
1.01205
1.01238
1.01273
1.01307
1.01343
1.01379
1.01415
1.01452
1.0149
1.01527
1.01564
1.01603
1.01641
1.01678
1.01712
1.01744
1.01771
1.01794
1.01809
1.01811
1.01799
1.01782
1.01663
1.01909
1.00541
1.05395
1.05621
1.05536
1.05384
1.04875
1.04872
1.05856
1.06289
1.05953
1.03605
1.02201
1.04096
0.996724
0.865582
0.754876
0.688819
0.626487
0.604983
0.580211
0.56768
0.554795
0.544787
0.534158
0.526069
0.515985
0.507088
0.498715
0.487264
0.47332
0.458171
0.441782
0.428399
0.416499
0.409133
0.404287
0.403939
0.404176
0.406507
0.409788
0.418619
0.435905
0.461064
0.499687
0.548929
0.605654
0.65555
0.689337
0.71303
0.726167
0.736158
0.742033
0.744835
0.745113
0.743351
0.740112
0.733214
0.723563
0.706242
0.681643
0.643061
0.584952
0.508929
0.443934
0.404761
0.383721
0.367134
0.360364
0.35715
0.360299
0.352574
0.34709
0.322792
0.307194
0.222878
0.208312
0.147946
1.01239
1.00656
1.00813
1.00793
1.00819
1.00837
1.0086
1.00884
1.0091
1.00936
1.00964
1.00993
1.01022
1.01052
1.01084
1.01116
1.01149
1.01183
1.01218
1.01254
1.0129
1.01328
1.01366
1.01405
1.01444
1.01483
1.01524
1.01564
1.01604
1.01644
1.01685
1.01725
1.01767
1.01805
1.01849
1.01894
1.01955
1.02013
1.02147
1.02272
1.0278
1.02283
1.05713
1.06979
1.07022
1.06673
1.06212
1.05382
1.05227
1.06076
1.06648
1.05816
1.01682
1.00308
0.990634
0.867894
0.731568
0.674237
0.634713
0.610308
0.59529
0.582096
0.575946
0.567498
0.558949
0.549283
0.542192
0.534869
0.527659
0.520452
0.513128
0.503342
0.491454
0.476478
0.461389
0.444312
0.430828
0.419515
0.41286
0.409767
0.409488
0.411155
0.413759
0.420159
0.436529
0.459792
0.499435
0.550034
0.608254
0.651777
0.682851
0.702649
0.716231
0.72715
0.73352
0.736821
0.737569
0.736511
0.731287
0.723527
0.710602
0.68943
0.656464
0.60261
0.530369
0.461296
0.416019
0.394486
0.376261
0.368396
0.36166
0.36587
0.358771
0.356442
0.336794
0.313454
0.240281
0.228545
0.164188
1.01242
1.00658
1.00815
1.00795
1.00821
1.00839
1.00862
1.00886
1.00912
1.00939
1.00968
1.00997
1.01027
1.01058
1.01091
1.01125
1.01159
1.01195
1.01232
1.0127
1.01308
1.01348
1.01389
1.0143
1.01472
1.01515
1.01558
1.01601
1.01644
1.01686
1.0173
1.01773
1.01816
1.01852
1.01893
1.01926
1.01969
1.0196
1.02009
1.01827
1.02503
1.00081
1.08887
1.00915
1.02837
1.03371
1.03658
1.0284
1.02745
1.03652
1.05008
1.03482
0.980177
0.941008
0.875815
0.720636
0.671151
0.635473
0.605841
0.602326
0.59022
0.582429
0.580116
0.574583
0.568923
0.561526
0.556066
0.550046
0.543364
0.537538
0.531074
0.524903
0.515659
0.505026
0.492551
0.47777
0.46242
0.445912
0.433711
0.424469
0.418713
0.416238
0.416595
0.41894
0.424402
0.438353
0.461043
0.497659
0.545278
0.600716
0.648517
0.680294
0.703227
0.717023
0.724937
0.728947
0.730916
0.730663
0.727744
0.721633
0.709651
0.69174
0.662426
0.61498
0.546136
0.477306
0.42722
0.401403
0.382893
0.372054
0.369144
0.368946
0.367298
0.364816
0.341638
0.324494
0.259895
0.24456
0.180036
1.01244
1.00659
1.00817
1.00797
1.00822
1.00841
1.00864
1.00889
1.00915
1.00943
1.00971
1.01001
1.01033
1.01065
1.01099
1.01134
1.0117
1.01207
1.01246
1.01286
1.01327
1.01369
1.01412
1.01456
1.01501
1.01546
1.01593
1.01639
1.01684
1.01729
1.01775
1.01818
1.0186
1.01891
1.01917
1.01935
1.01934
1.01924
1.01885
1.01813
1.02026
1.00703
1.04558
1.03676
1.03782
1.04204
1.03994
1.02596
1.01929
1.02869
1.04445
1.00438
0.907775
0.849969
0.739879
0.66684
0.646625
0.620789
0.60945
0.609111
0.599561
0.593134
0.589226
0.586948
0.582208
0.576359
0.571159
0.567004
0.56042
0.555307
0.549271
0.544254
0.537491
0.529566
0.519534
0.507854
0.495024
0.478166
0.462525
0.445973
0.435023
0.427111
0.423295
0.422825
0.425118
0.430184
0.444485
0.467945
0.505832
0.556099
0.610968
0.652586
0.681142
0.701185
0.712604
0.718898
0.722287
0.723852
0.723444
0.71967
0.711252
0.695022
0.667459
0.626327
0.559053
0.492994
0.43682
0.410933
0.392166
0.380347
0.378482
0.374705
0.376079
0.370233
0.351097
0.341377
0.277347
0.264112
0.196486
1.01248
1.00661
1.00819
1.00799
1.00824
1.00843
1.00867
1.00891
1.00918
1.00946
1.00975
1.01006
1.01038
1.01071
1.01106
1.01143
1.0118
1.01219
1.0126
1.01302
1.01345
1.0139
1.01436
1.01483
1.0153
1.01578
1.01627
1.01677
1.01726
1.01774
1.01822
1.01871
1.01915
1.01966
1.02016
1.02099
1.02167
1.02266
1.02349
1.02926
1.0267
1.05753
1.0598
1.05704
1.05445
1.05784
1.05368
1.03927
1.02349
1.0177
1.01669
0.91533
0.814727
0.747245
0.688819
0.658225
0.643972
0.63302
0.628601
0.62513
0.615834
0.609548
0.605449
0.60304
0.598598