/*--------------------------------*- C++ -*----------------------------------*\
| =========                 |                                                 |
| \\      /  F ield         | OpenFOAM: The Open Source CFD Toolbox           |
|  \\    /   O peration     | Version:  2.2.x                                 |
|   \\  /    A nd           | Web:      www.OpenFOAM.org                      |
|    \\/     M anipulation  |                                                 |
\*---------------------------------------------------------------------------*/
FoamFile
{
    version     2.0;
    format      ascii;
    class       volScalarField;
    location    "1.7";
    object      p;
}
// * * * * * * * * * * * * * * * * * * * * * * * * * * * * * * * * * * * * * //

dimensions      [1 -1 -2 0 0 0 0];

internalField   nonuniform List<scalar> 
14161
(
0.191464
0.192976
0.192507
0.192525
0.192369
0.192223
0.192045
0.19186
0.191669
0.191474
0.191281
0.191091
0.190901
0.190719
0.190552
0.190391
0.19025
0.190124
0.19003
0.189952
0.189873
0.189815
0.189821
0.189842
0.189887
0.189967
0.190073
0.19021
0.190364
0.190564
0.190813
0.191097
0.191397
0.1917
0.191977
0.192363
0.192927
0.193385
0.193767
0.194074
0.194143
0.194173
0.19299
0.192266
0.186957
0.184226
0.183729
0.398747
1.47572
1.34708
1.29071
1.28503
1.28188
1.27627
1.27069
1.26149
1.25293
1.24594
1.2317
1.21872
1.20471
1.19059
1.17749
1.16591
1.15525
1.1451
1.13587
1.12792
1.12069
1.1144
1.10874
1.10352
1.09775
1.09082
1.08307
1.0736
1.06379
1.0579
1.05632
1.06309
1.07717
1.09787
1.12236
1.14435
1.16241
1.17645
1.19287
1.2034
1.21114
1.21547
1.21346
1.20656
1.20256
1.21214
1.23015
1.25765
1.29695
1.33347
1.38576
1.44075
1.49534
1.55318
1.60565
1.65484
1.70139
1.74606
1.78505
1.81997
1.84914
1.87835
1.90323
1.92968
1.95056
1.97156
1.98625
1.99553
2.00328
2.00513
2.01242
0.191475
0.192986
0.192512
0.192528
0.19237
0.192225
0.192046
0.191861
0.191668
0.191471
0.191281
0.191096
0.190907
0.190714
0.190543
0.190388
0.190255
0.190141
0.190043
0.189952
0.189869
0.189807
0.189812
0.18983
0.189875
0.189958
0.190061
0.190199
0.190356
0.190556
0.190769
0.191028
0.191315
0.191623
0.191918
0.192255
0.192679
0.193149
0.193476
0.193815
0.193999
0.194194
0.193759
0.193255
0.190083
0.189665
0.204863
0.821938
1.50807
1.51977
1.48775
1.46702
1.45366
1.43653
1.42104
1.40259
1.38353
1.36644
1.34053
1.31893
1.29795
1.27783
1.2587
1.24302
1.22974
1.21768
1.20724
1.20001
1.19359
1.18702
1.17796
1.16879
1.158
1.14713
1.13761
1.13151
1.12528
1.11861
1.10895
1.10516
1.11943
1.14981
1.18594
1.22527
1.25098
1.26473
1.27217
1.29376
1.32945
1.366
1.41051
1.4528
1.49679
1.53514
1.5752
1.61131
1.63838
1.66755
1.6996
1.73144
1.75656
1.77732
1.79534
1.81716
1.83933
1.86184
1.88189
1.89996
1.91679
1.93416
1.95014
1.96583
1.97669
1.98646
1.99409
2.00243
2.01018
2.01113
2.01595
0.191489
0.192988
0.192517
0.192533
0.192376
0.192229
0.192051
0.191867
0.191673
0.191475
0.191285
0.1911
0.190912
0.190718
0.190547
0.19039
0.190253
0.190133
0.190039
0.189958
0.189876
0.189814
0.189818
0.189833
0.189876
0.189962
0.190062
0.190197
0.190384
0.190562
0.190794
0.191106
0.19142
0.191778
0.192087
0.192515
0.193107
0.193653
0.194158
0.194655
0.194917
0.195378
0.195751
0.19737
0.199957
0.201523
0.217543
1.11914
1.55502
1.60441
1.58686
1.56636
1.548
1.52419
1.50111
1.47623
1.45036
1.42743
1.39574
1.36866
1.34408
1.32288
1.30173
1.28327
1.26714
1.25167
1.23749
1.22315
1.21168
1.20412
1.19936
1.19405
1.18638
1.17681
1.16257
1.14235
1.12917
1.12363
1.12619
1.14896
1.19017
1.22626
1.23781
1.24373
1.27283
1.32913
1.40176
1.49782
1.6086
1.67742
1.72973
1.75712
1.78777
1.81791
1.84818
1.87579
1.89577
1.90391
1.9061
1.91061
1.91302
1.91914
1.92897
1.93444
1.93906
1.94175
1.94476
1.95099
1.95696
1.96389
1.96907
1.9764
1.98264
1.99135
1.99388
2.00133
2.00591
2.00901
2.01456
0.191499
0.192989
0.192518
0.192535
0.192377
0.19223
0.192051
0.191867
0.191676
0.191481
0.191286
0.191091
0.190903
0.19073
0.190567
0.190402
0.190248
0.190121
0.190022
0.189941
0.189861
0.189802
0.189804
0.189821
0.189859
0.18994
0.19004
0.190172
0.190326
0.190488
0.190713
0.190965
0.191203
0.191447
0.191633
0.191934
0.192417
0.192867
0.193312
0.19377
0.194226
0.195011
0.196508
0.19771
0.200916
0.202392
0.270026
1.24455
1.61049
1.67426
1.66913
1.62779
1.59843
1.56409
1.53551
1.50536
1.47556
1.45016
1.4153
1.38514
1.3584
1.33327
1.31172
1.28982
1.2703
1.25495
1.24267
1.23517
1.22993
1.22286
1.21223
1.197
1.18507
1.17774
1.17213
1.16625
1.16462
1.16202
1.15596
1.15182
1.1613
1.1947
1.26823
1.34977
1.41802
1.4673
1.51455
1.56442
1.62785
1.702
1.7821
1.82562
1.8792
1.89992
1.90091
1.90907
1.92579
1.93943
1.95063
1.95155
1.95416
1.95665
1.95937
1.96565
1.97235
1.97554
1.97786
1.97925
1.98182
1.98305
1.98473
1.98524
1.98768
1.99304
1.99408
1.99959
2.00278
2.00552
2.01112
0.191518
0.192999
0.192524
0.192541
0.192383
0.192235
0.192056
0.191874
0.19168
0.191486
0.191288
0.191094
0.190906
0.190728
0.190564
0.190396
0.190245
0.190119
0.19002
0.18994
0.189859
0.1898
0.1898
0.189814
0.189854
0.189929
0.190028
0.190149
0.190303
0.190489
0.190733
0.191035
0.191366
0.191715
0.192061
0.192553
0.19326
0.193883
0.194548
0.195175
0.195777
0.196358
0.198079
0.199081
0.201454
0.20156
0.28274
1.31352
1.61788
1.69542
1.68728
1.6402
1.60335
1.56532
1.53101
1.49729
1.46546
1.43796
1.40284
1.37224
1.34583
1.32049
1.29884
1.28035
1.26211
1.24609
1.23163
1.21595
1.20415
1.19634
1.19121
1.18605
1.18112
1.17354
1.16069
1.13757
1.1183
1.11105
1.11492
1.15385
1.19405
1.23766
1.29479
1.31539
1.33725
1.41344
1.53455
1.59676
1.67077
1.73772
1.77406
1.80372
1.8358
1.86185
1.89178
1.91668
1.94173
1.94986
1.95388
1.95389
1.96153
1.96725
1.97205
1.97276
1.9759
1.97904
1.98371
1.98791
1.98842
1.98802
1.98773
1.98739
1.98927
1.99272
1.99397
1.997
1.99903
1.9988
2.00645
0.191526
0.193002
0.192524
0.192541
0.192384
0.192236
0.192056
0.191871
0.191677
0.191485
0.191291
0.191094
0.190907
0.190725
0.190555
0.190388
0.190243
0.190118
0.190017
0.189933
0.189841
0.189775
0.189768
0.189776
0.189814
0.189881
0.189969
0.190085
0.190232
0.190388
0.190559
0.190767
0.190974
0.191151
0.191299
0.191553
0.191937
0.192324
0.192706
0.193262
0.19399
0.194896
0.197017
0.19871
0.203427
0.205575
0.300504
1.28955
1.63014
1.67489
1.67003
1.61992
1.5817
1.53996
1.50102
1.46619
1.43251
1.40001
1.36465
1.33056
1.30394
1.27564
1.25508
1.2347
1.21707
1.20333
1.19175
1.18465
1.17623
1.1695
1.16184
1.14919
1.1366
1.12814
1.1223
1.12114
1.12348
1.12375
1.11542
1.10133
1.1088
1.15629
1.23573
1.33422
1.42271
1.47049
1.52531
1.54661
1.57899
1.62989
1.68986
1.76376
1.81713
1.86116
1.87875
1.89456
1.91421
1.93207
1.9498
1.96273
1.9719
1.97471
1.97407
1.9725
1.97625
1.97905
1.98332
1.98588
1.98722
1.98756
1.98617
1.9871
1.98797
1.99254
1.99425
1.99687
1.99834
1.99789
2.00383
0.191548
0.193011
0.19253
0.192546
0.192388
0.19224
0.192061
0.191875
0.191679
0.191483
0.19129
0.191094
0.190909
0.190725
0.19055
0.19038
0.190233
0.190104
0.190005
0.189924
0.189833
0.189769
0.189755
0.18976
0.189796
0.189854
0.189936
0.190049
0.190199
0.19036
0.19055
0.190852
0.191187
0.19153
0.191917
0.192449
0.193192
0.193899
0.194657
0.195485
0.196157
0.197103
0.19853
0.199439
0.200512
0.199954
0.217062
1.16533
1.5804
1.63683
1.61633
1.57095
1.52323
1.47534
1.43568
1.39873
1.36973
1.33645
1.30551
1.26609
1.24389
1.21365
1.19988
1.17751
1.16583
1.14881
1.13855
1.12741
1.11506
1.10754
1.10301
1.1026
1.10278
1.09904
1.0893
1.0729
1.05361
1.04706
1.05042
1.07349
1.12937
1.16412
1.22358
1.27122
1.32935
1.36618
1.45011
1.48997
1.5257
1.57427
1.62045
1.66354
1.71229
1.7645
1.8267
1.8742
1.91111
1.92565
1.93527
1.94193
1.95469
1.96572
1.97462
1.97603
1.97682
1.97612
1.97886
1.98256
1.98577
1.98557
1.98468
1.98619
1.98797
1.99327
1.99451
1.99704
1.99842
1.9978
2.00247
0.191556
0.193014
0.19253
0.192547
0.192389
0.192239
0.19206
0.191874
0.191678
0.191483
0.191287
0.191091
0.190903
0.19072
0.190542
0.190374
0.190228
0.190089
0.189982
0.189893
0.189802
0.189735
0.189711
0.18971
0.189738
0.189784
0.189852
0.189947
0.190072
0.190189
0.190318
0.190489
0.190633
0.190747
0.190819
0.190946
0.191124
0.191261
0.191345
0.191465
0.191612
0.192058
0.192805
0.194414
0.195529
0.198398
0.207114
1.03437
1.54526
1.59769
1.52772
1.4767
1.42183
1.37481
1.33562
1.30889
1.28126
1.253
1.23373
1.19586
1.17976
1.14878
1.14027
1.11444
1.10822
1.09241
1.09045
1.07711
1.07139
1.06506
1.06031
1.05278
1.04321
1.03605
1.03064
1.02694
1.02305
1.02232
1.03011
1.01733
1.05182
1.06758
1.16812
1.23038
1.30423
1.33386
1.37741
1.39885
1.42726
1.45425
1.49953
1.54268
1.6209
1.6773
1.76073
1.81024
1.85773
1.89477
1.92032
1.93342
1.94652
1.95407
1.96108
1.96483
1.96895
1.97339
1.97881
1.98016
1.98102
1.98239
1.98365
1.9864
1.98786
1.99289
1.99423
1.99697
1.99845
1.99816
2.00196
0.191577
0.193023
0.192535
0.19255
0.192392
0.192241
0.192062
0.191875
0.191677
0.191483
0.19129
0.19109
0.190894
0.190705
0.190529
0.190367
0.190217
0.190073
0.189966
0.189873
0.18978
0.189706
0.189675
0.189676
0.189694
0.189734
0.189794
0.189877
0.190001
0.190143
0.190295
0.190516
0.190833
0.191182
0.191546
0.192052
0.192716
0.193485
0.194252
0.19506
0.195979
0.196994
0.198203
0.199987
0.200127
0.200045
0.215055
0.659169
1.47811
1.49041
1.40843
1.3466
1.31442
1.27389
1.2499
1.23297
1.21042
1.19305
1.18467
1.14496
1.1363
1.10345
1.09689
1.07368
1.07049
1.05489
1.05255
1.03806
1.03403
1.02456
1.02182
1.01805
1.01527
1.01078
1.00471
0.995546
0.979944
0.970593
0.977413
0.969983
1.02226
1.0444
1.14173
1.17996
1.24514
1.27247
1.28492
1.30777
1.34667
1.36683
1.40272
1.43695
1.49698
1.55516
1.63382
1.72528
1.80892
1.86603
1.89532
1.90926
1.92577
1.93713
1.94992
1.95579
1.95799
1.9589
1.96448
1.97015
1.9766
1.98133
1.98414
1.98617
1.98762
1.99364
1.99517
1.99786
1.999
1.9988
2.00227
0.191585
0.193026
0.192536
0.192551
0.192392
0.192241
0.19206
0.191874
0.191675
0.191478
0.191283
0.191085
0.190889
0.190696
0.190518
0.190353
0.190204
0.190057
0.189938
0.189837
0.18974
0.189656
0.189616
0.189602
0.189605
0.189631
0.189679
0.189736
0.189821
0.189926
0.190015
0.190087
0.190181
0.190234
0.190218
0.190152
0.189994
0.189799
0.18946
0.188916
0.187878
0.186454
0.183624
0.181228
0.174327
0.170925
0.169956
0.192473
1.16026
1.44614
1.30553
1.26335
1.22476
1.20954
1.18911
1.19266
1.16514
1.17603
1.1387
1.1365
1.09906
1.09576
1.06315
1.06255
1.04345
1.04352
1.02789
1.02556
1.01529
1.01081
1.00697
1.0032
0.999498
0.995305
0.989945
0.980514
0.967805
0.956807
0.950706
0.969051
0.970961
1.05404
1.10975
1.17645
1.19344
1.2056
1.22048
1.25101
1.26802
1.27956
1.31065
1.35176
1.38994
1.45153
1.51511
1.61572
1.70438
1.78801
1.85393
1.89006
1.91522
1.92555
1.93525
1.93945
1.94203
1.94406
1.95138
1.9615
1.97051
1.97388
1.97859
1.98291
1.98688
1.99371
1.99506
1.99832
1.99946
1.99932
2.00285
0.191603
0.193033
0.192541
0.192553
0.192393
0.192242
0.19206
0.191872
0.191673
0.191475
0.191279
0.191078
0.190879
0.190685
0.190504
0.19034
0.190183
0.190032
0.189909
0.189804
0.189703
0.189613
0.189567
0.189546
0.189542
0.189551
0.189583
0.189642
0.1897
0.189797
0.189936
0.190095
0.190295
0.190574
0.190906
0.191313
0.191822
0.19245
0.193125
0.193848
0.194562
0.195595
0.196576
0.198599
0.199066
0.201607
0.2121
0.264916
1.26476
1.3596
1.29928
1.24593
1.21135
1.18898
1.17742
1.17166
1.16403
1.16944
1.13622
1.13342
1.09579
1.0889
1.05663
1.05524
1.04146
1.04351
1.02749
1.02486
1.01486
1.01018
1.00582
1.00224
0.998945
0.995133
0.989964
0.982231
0.967825
0.952394
0.940576
0.957619
0.969731
1.06871
1.12144
1.16831
1.15349
1.17364
1.1834
1.18801
1.18807
1.21284
1.24222
1.28149
1.30494
1.36225
1.41687
1.49834
1.59944
1.70742
1.80184
1.85398
1.89203
1.90799
1.92169
1.92883
1.93116
1.93093
1.93415
1.94112
1.95443
1.96337
1.97493
1.97893
1.98383
1.99159
1.9947
1.99851
1.99997
1.99969
2.00413
0.191611
0.193036
0.192541
0.192553
0.192392
0.19224
0.192056
0.191869
0.191671
0.191469
0.191266
0.191066
0.190872
0.190676
0.190488
0.190319
0.190161
0.19001
0.189872
0.189756
0.189647
0.189549
0.189485
0.18945
0.189432
0.189426
0.189424
0.18946
0.189503
0.189537
0.189589
0.189641
0.18965
0.189647
0.18956
0.189406
0.189178
0.188927
0.188558
0.188103
0.187521
0.186986
0.186422
0.186222
0.185607
0.185286
0.198275
0.327661
1.08384
1.24784
1.29741
1.26732
1.25022
1.21701
1.20374
1.18614
1.18804
1.16021
1.16055
1.12002
1.11627
1.07016
1.06109
1.04676
1.05263
1.04044
1.0364
1.0232
1.02004
1.01314
1.01057
1.00792
1.00502
1.00073
0.995051
0.985107
0.968757
0.952919
0.94613
0.982026
1.00126
1.10527
1.13152
1.15441
1.1494
1.16234
1.16215
1.15508
1.16254
1.16754
1.1779
1.21559
1.26077
1.309
1.35828
1.41278
1.49677
1.59555
1.71014
1.79949
1.8678
1.89293
1.9112
1.91746
1.92202
1.91855
1.91969
1.92806
1.93439
1.94958
1.96194
1.9716
1.98221
1.98774
1.99239
1.99715
1.99972
1.9996
2.00495
0.191626
0.193042
0.192545
0.192553
0.19239
0.192234
0.192055
0.191866
0.191667
0.191465
0.191261
0.191057
0.190857
0.190662
0.190469
0.190296
0.19013
0.189975
0.189827
0.189703
0.18959
0.189486
0.189414
0.189367
0.189338
0.189315
0.189305
0.189302
0.189336
0.189372
0.189425
0.189503
0.18965
0.189814
0.190029
0.190282
0.190604
0.191026
0.191458
0.191974
0.192354
0.192872
0.19321
0.193799
0.194599
0.193595
0.219161
0.482112
0.970982
1.13565
1.27551
1.27374
1.26345
1.22261
1.21064
1.18675
1.19226
1.1596
1.16344
1.11885
1.11647
1.0611
1.0525
1.04093
1.03934
1.04062
1.02846
1.01968
1.01584
1.01343
1.00904
1.00671
1.00407
1.00051
0.997301
0.987213
0.975927
0.95417
0.959347
0.963498
1.06959
1.13279
1.16922
1.13092
1.14803
1.15472
1.13992
1.1377
1.15288
1.1571
1.16534
1.1782
1.21234
1.23841
1.28614
1.33645
1.41219
1.50107
1.60812
1.7154
1.81174
1.85961
1.88856
1.90313
1.91126
1.91023
1.90707
1.91094
1.91088
1.92853
1.94163
1.9627
1.97359
1.98599
1.99331
1.99532
1.99839
1.99816
2.00457
0.191633
0.193043
0.192545
0.192552
0.19239
0.192236
0.192051
0.191858
0.191659
0.191455
0.191249
0.191045
0.190845
0.190646
0.190447
0.190265
0.190098
0.189941
0.189785
0.189649
0.189525
0.189412
0.189322
0.18925
0.189201
0.189158
0.189122
0.189103
0.189091
0.189092
0.189085
0.189075
0.189039
0.189007
0.188886
0.188716
0.188554
0.188306
0.188043
0.187839
0.187619
0.187395
0.187135
0.186727
0.18633
0.189183
0.213201
0.698372
0.883272
0.985503
1.13494
1.20437
1.23398
1.19499
1.19472
1.16991
1.18535
1.15037
1.15373
1.10818
1.10659
1.04846
1.04013
1.02233
1.03481
1.02333
1.02198
1.00533
1.0053
1.00358
1.00027
0.99904
0.998154
0.995228
0.990174
0.978722
0.963209
0.948206
0.951162
1.01899
1.10647
1.16843
1.14796
1.14796
1.14291
1.13362
1.11977
1.12085
1.11943
1.1296
1.14363
1.15511
1.18158
1.19703
1.23603
1.28531
1.34408
1.42832
1.52831
1.64938
1.76663
1.83745
1.87507
1.89437
1.90305
1.90461
1.90077
1.89943
1.90073
1.90805
1.9238
1.9438
1.96184
1.98116
1.98926
1.99497
1.99986
1.99702
2.00337
0.191643
0.193046
0.192546
0.192551
0.192387
0.192232
0.192046
0.191851
0.191652
0.191443
0.191236
0.191032
0.190824
0.190623
0.190427
0.190233
0.190058
0.189894
0.189731
0.189583
0.189448
0.189327
0.189221
0.189138
0.18907
0.189013
0.188958
0.188909
0.188872
0.188853
0.18884
0.188839
0.188876
0.188932
0.189008
0.189131
0.189305
0.189528
0.189802
0.189982
0.190163
0.190222
0.190601
0.190571
0.190674
0.201309
0.261803
0.773131
0.848657
0.893501
0.960082
1.03541
1.17225
1.18816
1.21242
1.18407
1.19838
1.16196
1.16517
1.11338
1.11096
1.0441
1.03395
1.01926
1.03318
1.01886
1.01943
1.00554
1.005
1.00456
1.00214
1.00173
0.999937
0.996236
0.990576
0.979943
0.962731
0.949998
0.9651
1.07301
1.15804
1.17684
1.16188
1.16009
1.14817
1.12468
1.12091
1.12083
1.12493
1.11721
1.12091
1.1351
1.14798
1.17736
1.20188
1.24308
1.28656
1.35926
1.45238
1.57517
1.70912
1.80166
1.85638
1.88204
1.89565
1.90055
1.89923
1.8918
1.89277
1.88988
1.90744
1.91614
1.94415
1.96283
1.98126
1.99321
2.00007
1.99705
2.00356
0.191648
0.193046
0.192545
0.192549
0.192384
0.192227
0.192039
0.191844
0.191642
0.19143
0.191221
0.191018
0.190803
0.1906
0.190404
0.190202
0.190016
0.189845
0.189677
0.189519
0.189372
0.189239
0.189117
0.18901
0.188914
0.188834
0.188755
0.188669
0.188606
0.188546
0.188511
0.188451
0.188362
0.188233
0.18811
0.18793
0.187774
0.187615
0.187446
0.187161
0.186931
0.186574
0.186673
0.186894
0.187129
0.208806
0.521334
0.828051
0.854136
0.864704
0.892787
0.963716
1.04941
1.18313
1.20246
1.20984
1.18891
1.17978
1.17864
1.12922
1.11469
1.0526
1.04067
1.02882
1.03494
1.02344
1.02534
1.01403
1.01357
1.01231
1.01167
1.01177
1.00917
1.00438
0.998791
0.984342
0.968684
0.965614
1.03872
1.14961
1.18651
1.18401
1.18003
1.1549
1.13074
1.11427
1.10905
1.12299
1.11817
1.11595
1.1189
1.131
1.14356
1.16212
1.18203
1.211
1.25319
1.30445
1.3773
1.48267
1.61487
1.7376
1.82031
1.85531
1.8809
1.89137
1.89518
1.88469
1.87996
1.87835
1.88765
1.89699
1.92678
1.94742
1.97567
1.9853
1.99664
1.99582
2.00368
0.191654
0.193048
0.192545
0.192546
0.19238
0.192222
0.192033
0.191834
0.191632
0.191418
0.191206
0.190998
0.190778
0.19057
0.19037
0.190163
0.189966
0.189786
0.189612
0.189435
0.189276
0.189131
0.188992
0.188862
0.188748
0.18865
0.188548
0.188435
0.188335
0.188253
0.188177
0.188108
0.188034
0.187969
0.187961
0.187941
0.187939
0.188017
0.188076
0.188069
0.188032
0.18817
0.188329
0.188837
0.189622
0.21017
0.735095
0.872845
0.876826
0.878177
0.878343
0.883473
0.936829
1.07973
1.13478
1.20513
1.16894
1.18934
1.15257
1.14823
1.08674
1.06364
1.02997
1.03466
1.02042
1.02847
1.0195
1.01495
1.01062
1.0092
1.01017
1.01106
1.00991
1.00718
1.0009
0.98799
0.980065
1.00748
1.13887
1.18808
1.19651
1.19856
1.18703
1.15467
1.13324
1.12248
1.11966
1.10831
1.0984
1.10398
1.11279
1.12156
1.12864
1.13515
1.15782
1.18297
1.22197
1.27015
1.33325
1.42997
1.54955
1.68199
1.78822
1.83665
1.86941
1.88241
1.88707
1.87926
1.87015
1.87221
1.8694
1.88369
1.9014
1.92943
1.96144
1.97475
1.99176
1.99275
2.00201
0.191656
0.193046
0.192543
0.192543
0.192375
0.192215
0.192025
0.191825
0.19162
0.191403
0.191189
0.19098
0.190754
0.190541
0.190336
0.190125
0.189917
0.189726
0.189543
0.189353
0.189178
0.189019
0.18887
0.188714
0.188573
0.188445
0.188326
0.18819
0.188057
0.18794
0.187829
0.187749
0.187631
0.187447
0.187252
0.187033
0.186883
0.186708
0.186556
0.186287
0.185609
0.185247
0.183882
0.182197
0.192047
0.242628
0.828082
0.893248
0.900332
0.891235
0.884311
0.881668
0.904663
0.92699
1.05219
1.10589
1.19544
1.16486
1.18373
1.12014
1.118
1.03992
1.02503
1.0143
1.01989
1.01506
1.01809
1.0107
1.00826
1.00475
1.0104
1.01349
1.01371
1.0097
1.01133
1.01155
1.04313
1.14363
1.20902
1.22605
1.20062
1.18851
1.15922
1.15713
1.14278
1.13727
1.12248
1.11313
1.10561
1.1105
1.12083
1.12765
1.13422
1.13751
1.1448
1.166
1.19498
1.23628
1.28888
1.37671
1.48577
1.6239
1.75033
1.81942
1.8579
1.87459
1.88053
1.87724
1.86563
1.86511
1.85918
1.87029
1.87511
1.90818
1.94009
1.96719
1.98714
1.98853
1.99786
0.19166
0.193045
0.19254
0.192539
0.192369
0.192209
0.192016
0.191813
0.191609
0.191387
0.191169
0.190957
0.190727
0.190505
0.190295
0.19008
0.189859
0.189655
0.189463
0.189259
0.189064
0.188886
0.188722
0.188547
0.188374
0.188218
0.188076
0.18792
0.187732
0.187579
0.187436
0.187334
0.187202
0.187057
0.186822
0.186733
0.186618
0.186473
0.186368
0.186289
0.186059
0.186248
0.186095
0.185603
0.206488
0.506691
0.884153
0.904555
0.907624
0.90188
0.897438
0.891108
0.896237
0.897391
0.93809
0.974708
1.13671
1.14854
1.18834
1.11763
1.13192
1.04216
1.01884
1.00422
1.01714
1.00796
1.01195
1.00978
1.00678
1.00379
1.01757
1.03036
1.03696
1.04134
1.09251
1.17502
1.2583
1.33706
1.29159
1.28288
1.22152
1.17662
1.14785
1.1431
1.14366
1.12839
1.11345
1.10652
1.10306
1.10534
1.10872
1.11281
1.11737
1.13326
1.14671
1.16545
1.18889
1.21709
1.26379
1.3299
1.42414
1.5554
1.69576
1.79088
1.83814
1.86095
1.8731
1.87297
1.86551
1.8563
1.8539
1.84865
1.85778
1.88455
1.9187
1.95276
1.97831
1.98253
1.99282
0.191656
0.193041
0.192535
0.192533
0.192362
0.1922
0.192006
0.191801
0.191594
0.191372
0.191149
0.190931
0.1907
0.19047
0.19025
0.190033
0.189799
0.189582
0.189377
0.189165
0.18895
0.18875
0.18857
0.188381
0.18818
0.187995
0.187829
0.187657
0.187446
0.18726
0.187091
0.186938
0.186816
0.186627
0.186339
0.186152
0.185984
0.18588
0.185854
0.185932
0.186041
0.186236
0.186886
0.187825
0.214924
0.75371
0.931198
0.92926
0.926028
0.920861
0.911937
0.896015
0.889114
0.88373
0.893095
0.911633
1.02431
1.07203
1.16964
1.10162
1.13404
1.0527
1.0228
1.00593
1.02038
1.02415
1.03278
1.03851
1.04574
1.05919
1.12224
1.18718
1.25291
1.33463
1.41524
1.49423
1.51319
1.50328
1.43174
1.3755
1.30255
1.23934
1.19987
1.16543
1.14404
1.13568
1.13102
1.12734
1.12416
1.1209
1.11934
1.12038
1.11657
1.12331
1.13399
1.14592
1.16815
1.19594
1.24322
1.30167
1.38798
1.50674
1.64718
1.76308
1.82251
1.84985
1.86503
1.86743
1.86348
1.84839
1.84468
1.83588
1.85112
1.85977
1.89623
1.93302
1.9642
1.97527
1.98776
0.191657
0.193038
0.192531
0.192527
0.192355
0.192191
0.191994
0.191788
0.191577
0.191355
0.191125
0.190902
0.190671
0.190428
0.190199
0.189976
0.189733
0.189499
0.189282
0.18906
0.188819
0.1886
0.188399
0.188192
0.187956
0.187743
0.187547
0.187348
0.187114
0.186871
0.186659
0.186458
0.186331
0.18613
0.185884
0.185652
0.185439
0.185131
0.184934
0.184617
0.184
0.18186
0.179865
0.186206
0.217011
0.842327
0.936823
0.942397
0.941277
0.938066
0.932139
0.920878
0.903678
0.881412
0.883535
0.89151
0.927449
0.951809
1.10002
1.08347
1.15705
1.04719
1.05357
1.02257
1.06477
1.12819
1.18486
1.24764
1.32348
1.3901
1.47656
1.56474
1.63591
1.67703
1.69436
1.68531
1.65437
1.61229
1.5545
1.49116
1.42215
1.34013
1.27209
1.21535
1.17913
1.16048
1.14953
1.13391
1.12176
1.11226
1.10998
1.11672
1.12937
1.1393
1.14411
1.15006
1.1582
1.17987
1.21803
1.27198
1.34743
1.45534
1.59267
1.72314
1.80448
1.83778
1.85819
1.86336
1.85778
1.84497
1.83423
1.83526
1.83247
1.84038
1.87349
1.91365
1.95174
1.96807
1.98216
0.191648
0.193031
0.192524
0.192519
0.192346
0.19218
0.191982
0.191775
0.191558
0.191336
0.191102
0.190871
0.19064
0.190387
0.190147
0.189916
0.189666
0.189416
0.189181
0.188949
0.188692
0.188451
0.188225
0.188003
0.187743
0.187499
0.18727
0.187064
0.186822
0.186539
0.186308
0.186086
0.185907
0.185722
0.185435
0.18503
0.18477
0.184448
0.184215
0.183997
0.183985
0.184135
0.183814
0.202454
0.36152
0.943779
0.943522
0.948625
0.950566
0.948122
0.938331
0.922921
0.914689
0.916277
0.918941
0.898671
0.871817
0.905514
1.05311
1.08598
1.17939
1.16805
1.25278
1.32369
1.39182
1.47553
1.56972
1.6443
1.69523
1.7248
1.74287
1.75816
1.76725
1.7599
1.74379
1.72506
1.69849
1.66869
1.63397
1.59077
1.53832
1.47262
1.39325
1.32364
1.26527
1.22696
1.20141
1.17672
1.15422
1.13517
1.12254
1.11714
1.12234
1.12795
1.13383
1.14622
1.16055
1.17976
1.20752
1.24948
1.31457
1.40797
1.53639
1.67626
1.7773
1.82189
1.84766
1.85321
1.85125
1.84228
1.82547
1.82532
1.81479
1.82951
1.84983
1.8948
1.93575
1.95753
1.97356
0.191646
0.193025
0.192517
0.192512
0.192337
0.19217
0.191969
0.19176
0.191538
0.191316
0.191075
0.190838
0.190603
0.190342
0.190089
0.189847
0.189592
0.189323
0.189071
0.188827
0.188554
0.188285
0.188033
0.187792
0.187516
0.187229
0.186965
0.186742
0.186476
0.186149
0.185863
0.185606
0.185377
0.185233
0.184994
0.184609
0.184544
0.184566
0.184759
0.185008
0.185497
0.186808
0.188703
0.216059
0.69536
0.925976
0.940303
0.945895
0.947515
0.945
0.935754
0.932654
0.936231
0.941453
0.937288
0.90853
0.902698
0.973572
1.1029
1.27101
1.40739
1.51436
1.5904
1.65186
1.67976
1.71295
1.73436
1.7544
1.76033
1.76626
1.76371
1.76482
1.76403
1.75679
1.74585
1.73207
1.71713
1.70031
1.67819
1.65186
1.61444
1.56729
1.50503
1.42912
1.3445
1.2737
1.22419
1.19406
1.17153
1.1503
1.1366
1.13224
1.13208
1.1343
1.13537
1.13918
1.151
1.1678
1.19352
1.23263
1.28863
1.36881
1.48548
1.6275
1.74915
1.80724
1.8371
1.843
1.84672
1.83696
1.82258
1.80859
1.80838
1.81101
1.82993
1.87508
1.91538
1.9453
1.96827
0.191632
0.193014
0.192506
0.192501
0.192326
0.192157
0.191954
0.191742
0.191517
0.191293
0.191046
0.190803
0.190565
0.190299
0.190033
0.189778
0.189517
0.18923
0.188959
0.188702
0.188419
0.188119
0.187838
0.187582
0.187294
0.186969
0.186679
0.186416
0.186149
0.185819
0.185483
0.185207
0.184939
0.184746
0.184508
0.184086
0.183661
0.183093
0.182428
0.181236
0.178848
0.177177
0.183444
0.213245
0.814878
0.927922
0.944013
0.952762
0.953765
0.945468
0.941522
0.943175
0.95798
0.96962
0.96837
0.959563
1.01611
1.1672
1.36926
1.59027
1.69195
1.69279
1.70413
1.71762
1.72601
1.73377
1.73452
1.73667
1.74028
1.74342
1.74337
1.74789
1.74872
1.74656
1.74071
1.7324
1.72294
1.71329
1.70081
1.68494
1.66226
1.63164
1.59146
1.53475
1.45558
1.37068
1.30098
1.25336
1.22037
1.19173
1.16346
1.13696
1.12976
1.13236
1.13797
1.14429
1.15094
1.16328
1.18477
1.21531
1.26239
1.33417
1.44053
1.57881
1.714
1.79026
1.82433
1.83453
1.8395
1.83022
1.81916
1.79911
1.80268
1.79151
1.81675
1.84884
1.89679
1.92897
1.95718
0.191625
0.193006
0.192496
0.192491
0.192314
0.192143
0.191939
0.191724
0.191494
0.191268
0.191016
0.190765
0.190519
0.190254
0.18997
0.189703
0.189435
0.189131
0.188839
0.188564
0.18827
0.187938
0.187634
0.187355
0.187058
0.186697
0.186371
0.186067
0.185796
0.185454
0.185035
0.184701
0.184385
0.184098
0.183868
0.183532
0.183032
0.182699
0.182464
0.182416
0.182702
0.182406
0.201953
0.369747
0.938377
0.939055
0.947755
0.953947
0.952605
0.943611
0.942547
0.948684
0.96921
0.98452
0.987496
1.0306
1.20242
1.44753
1.65324
1.73408
1.72812
1.7143
1.7168
1.71425
1.70517
1.70316
1.70251
1.70764
1.70717
1.70919
1.71281
1.71977
1.72623
1.73063
1.73174
1.73024
1.72475
1.71649
1.70751
1.69846
1.68554
1.66749
1.64046
1.60124
1.54386
1.466
1.37946
1.30154
1.24339
1.20412
1.17646
1.15744
1.15002
1.1439
1.13984
1.14023
1.14446
1.15499
1.16994
1.19457
1.23526
1.29933
1.39515
1.52868
1.67647
1.76992
1.81137
1.82753
1.83082
1.82413
1.81108
1.79591
1.78729
1.78256
1.80017
1.82524
1.8806
1.91173
1.94246
0.191606
0.192992
0.192483
0.192478
0.1923
0.192128
0.191922
0.191705
0.191471
0.191241
0.190988
0.190726
0.190471
0.190206
0.189909
0.189625
0.18935
0.189038
0.188722
0.188422
0.18812
0.187766
0.187432
0.18712
0.186809
0.186437
0.186067
0.185726
0.185445
0.185099
0.184643
0.184284
0.18399
0.183745
0.183634
0.183449
0.183243
0.18298
0.183044
0.183231
0.183993
0.186239
0.214387
0.708878
0.933011
0.943154
0.949888
0.95494
0.95362
0.944101
0.943534
0.955979
0.991
1.02443
1.05418
1.20947
1.48986
1.67759
1.73888
1.73034
1.70412
1.70027
1.6985
1.69341
1.68486
1.6823
1.68292
1.68557
1.68522
1.68305
1.68467
1.69172
1.70121
1.71122
1.71755
1.7214
1.72004
1.71651
1.70976
1.70268
1.69372
1.68332
1.66738
1.64291
1.6066
1.55445
1.47334
1.38679
1.31215
1.25928
1.22072
1.19139
1.16842
1.15292
1.14929
1.14703
1.14867
1.1543
1.16527
1.18495
1.2184
1.27303
1.35933
1.48547
1.63925
1.74754
1.79658
1.81667
1.82034
1.8161
1.80363
1.79279
1.77617
1.77758
1.77469
1.80252
1.85847
1.89445
1.93053
0.191593
0.192979
0.19247
0.192464
0.192285
0.192112
0.191904
0.191685
0.191446
0.19121
0.19096
0.190685
0.190421
0.190155
0.189845
0.189543
0.189255
0.188939
0.188594
0.188272
0.187957
0.187591
0.187219
0.186872
0.186552
0.186171
0.18575
0.185382
0.185057
0.18472
0.184287
0.183827
0.183449
0.18311
0.182804
0.18253
0.182008
0.181228
0.180175
0.177958
0.176176
0.184822
0.2226
0.833499
0.940869
0.953593
0.963946
0.970239
0.964616
0.954933
0.953597
0.976149
1.03892
1.10561
1.23515
1.52171
1.71449
1.73927
1.72659
1.70018
1.68665
1.68438
1.67742
1.66933
1.66755
1.66918
1.66877
1.66853
1.6653
1.66175
1.66161
1.66483
1.67095
1.67945
1.68689
1.69636
1.70159
1.70537
1.70441
1.70162
1.69582
1.6881
1.67829
1.66349
1.6406
1.60502
1.55154
1.47405
1.38828
1.31069
1.25101
1.20843
1.18046
1.16366
1.15319
1.14815
1.14603
1.14802
1.1578
1.17547
1.20554
1.25562
1.33476
1.45181
1.60117
1.72207
1.78007
1.80316
1.80995
1.80762
1.80025
1.78258
1.77212
1.75651
1.75981
1.78126
1.83189
1.87643
1.91993
0.19157
0.192962
0.192454
0.192449
0.192269
0.192095
0.191884
0.191664
0.191421
0.191179
0.190929
0.190646
0.190369
0.190097
0.189783
0.189465
0.189159
0.188838
0.18847
0.18812
0.187794
0.187419
0.187008
0.186628
0.18629
0.185901
0.185432
0.185034
0.184663
0.184343
0.183924
0.183363
0.182992
0.18263
0.182343
0.182155
0.181902
0.181742
0.181809
0.181955
0.181239
0.20351
0.448055
0.95046
0.951184
0.955848
0.962214
0.973633
0.97773
0.971181
0.973606
1.02253
1.14117
1.29001
1.53382
1.73785
1.73612
1.72427
1.69953
1.67758
1.67695
1.66869
1.65774
1.64957
1.65077
1.65301
1.65189
1.64995
1.64669
1.64481
1.64487
1.64404
1.6471
1.65095
1.65734
1.66646
1.67581
1.68716
1.6922
1.69379
1.6919
1.68806
1.68135
1.67234
1.6584
1.63593
1.5997
1.54707
1.46791
1.38216
1.30867
1.25336
1.21434
1.18775
1.17067
1.1601
1.15363
1.15096
1.15431
1.1664
1.19146
1.23476
1.30489
1.41344
1.55842
1.69329
1.76246
1.78907
1.79897
1.79868
1.79223
1.77081
1.76098
1.74024
1.75371
1.75583
1.80883
1.857
1.90572
0.191551
0.192946
0.192437
0.192433
0.192251
0.192076
0.191863
0.191643
0.191396
0.191144
0.190894
0.190608
0.190318
0.190033
0.189721
0.189381
0.189058
0.188729
0.188341
0.187968
0.187619
0.187242
0.186793
0.186388
0.186016
0.185623
0.185134
0.184685
0.18427
0.183947
0.183533
0.182977
0.182553
0.182262
0.18206
0.181947
0.181997
0.182161
0.182279
0.182882
0.184776
0.213173
0.764606
0.979479
0.973363
0.967906
0.97202
0.988935
0.998198
0.996935
1.0163
1.13879
1.36136
1.56681
1.72701
1.73705
1.71258
1.69561
1.67208
1.65913
1.66144
1.65384
1.64445
1.63605
1.63793
1.63974
1.638
1.63491
1.63191
1.63065
1.6304
1.62719
1.62724
1.62796
1.63154
1.63625
1.64333
1.65647
1.66568
1.67539
1.67951
1.68035
1.67853
1.67387
1.66495
1.65074
1.62733
1.59003
1.53525
1.45756
1.37433
1.30049
1.24195
1.2011
1.17434
1.16015
1.15224
1.1503
1.15137
1.16006
1.17983
1.21678
1.27936
1.38012
1.52115
1.66328
1.74508
1.7759
1.78841
1.78966
1.78069
1.76325
1.74394
1.73676
1.73398
1.73307
1.7895
1.83732
1.88938
0.191524
0.192926
0.192418
0.192414
0.192233
0.192057
0.191841
0.19162
0.19137
0.191111
0.190856
0.190571
0.190267
0.189969
0.189656
0.1893
0.188959
0.188618
0.188218
0.18782
0.187444
0.187059
0.18659
0.186146
0.18573
0.185333
0.184852
0.184334
0.183885
0.183496
0.183111
0.182599
0.182025
0.181576
0.181112
0.180497
0.179919
0.179417
0.177624
0.175218
0.18294
0.223598
0.876928
0.987186