/*--------------------------------*- C++ -*----------------------------------*\
| =========                 |                                                 |
| \\      /  F ield         | OpenFOAM: The Open Source CFD Toolbox           |
|  \\    /   O peration     | Version:  2.2.x                                 |
|   \\  /    A nd           | Web:      www.OpenFOAM.org                      |
|    \\/     M anipulation  |                                                 |
\*---------------------------------------------------------------------------*/
FoamFile
{
    version     2.0;
    format      ascii;
    class       volVectorField;
    location    "1.5";
    object      U;
}
// * * * * * * * * * * * * * * * * * * * * * * * * * * * * * * * * * * * * * //

dimensions      [0 1 -1 0 0 0 0];

internalField   nonuniform List<vector> 
14161
(
(1.5 -1.80629e-16 2.78263e-37)
(1.5 -2.98404e-16 -1.10849e-22)
(1.5 -3.08436e-16 -1.10849e-22)
(1.5 -2.58727e-16 -1.10849e-22)
(1.5 -4.78903e-16 -1.10849e-22)
(1.5 -4.86274e-16 -2.23243e-22)
(1.5 -2.25774e-16 5.83238e-23)
(1.5 -2.22037e-16 -5.44789e-23)
(1.5 -1.01537e-16 3.0215e-23)
(1.5 -2.99562e-16 -9.69078e-23)
(1.5 1.12747e-16 -1.03919e-22)
(1.5 4.0086e-17 -1.03731e-22)
(1.5 2.89755e-16 -1.59781e-22)
(1.5 3.06604e-16 -4.68308e-23)
(1.5 9.19835e-16 -1.03245e-22)
(1.5 3.6011e-16 -1.03208e-22)
(1.5 1.96769e-16 -1.59309e-22)
(1.5 1.16537e-16 -1.59526e-22)
(1.5 1.3552e-16 -1.59747e-22)
(1.5 -5.05244e-17 -2.16203e-22)
(1.5 5.83211e-17 -2.16615e-22)
(0.5787 0.00138044 2.02422e-22)
(0.523163 0.00157974 -4.28128e-23)
(0.516242 0.00160715 -5.04655e-23)
(0.509596 0.00161873 -5.47891e-22)
(0.50324 0.00161232 -3.10195e-22)
(0.497225 0.00158911 -3.19454e-22)
(0.491585 0.00155055 -3.28677e-22)
(0.486343 0.00149824 -3.36949e-22)
(0.481509 0.00143416 -3.45492e-22)
(0.477082 0.00136064 3.85927e-23)
(0.473053 0.00128026 -1.0296e-22)
(0.469405 0.00119572 -1.12076e-22)
(0.466115 0.00110965 -1.20992e-22)
(0.463157 0.00102454 -6.21291e-23)
(0.460501 0.000942589 -1.39048e-22)
(0.458116 0.000865791 -7.89762e-23)
(0.455972 0.000795924 -8.73237e-23)
(0.454039 0.000734737 -9.54417e-23)
(0.452285 0.000684361 -3.37861e-23)
(0.450679 0.000647831 -4.17158e-23)
(0.449188 0.000629891 -4.9367e-23)
(0.447774 0.00063816 -5.67236e-23)
(0.446389 0.000684796 7.79456e-23)
(0.444974 0.000788759 -1.43076e-22)
(0.443238 0.00114333 1.02351e-21)
(0.441433 0.00126532 9.90642e-22)
(0.439632 0.00133043 2.04846e-21)
(0.437816 0.00137878 3.04535e-21)
(0.435985 0.00141972 2.93986e-21)
(0.434142 0.00145585 3.949e-21)
(0.432292 0.00148861 4.83958e-21)
(0.430437 0.00151946 5.72388e-21)
(0.428576 0.00155025 5.53944e-21)
(0.426711 0.00158329 5.36242e-21)
(0.424835 0.00162135 5.23463e-21)
(0.422944 0.00166778 5.12073e-21)
(0.421027 0.00172653 5.02202e-21)
(0.419072 0.00180225 4.79837e-21)
(0.417061 0.00190048 4.83675e-21)
(0.414971 0.00202788 4.78334e-21)
(0.412773 0.00219245 4.74917e-21)
(0.410432 0.00240405 3.50479e-21)
(0.407901 0.002675 3.82811e-21)
(0.405124 0.00302002 3.93565e-21)
(0.402029 0.00345325 3.08657e-21)
(0.398525 0.0039663 3.25203e-21)
(0.394584 0.00451351 3.4141e-21)
(0.390219 0.0050571 3.82374e-21)
(0.385449 0.00557014 3.45724e-21)
(0.380309 0.00603104 3.84392e-21)
(0.37485 0.00642219 4.48058e-21)
(0.369129 0.00673013 5.11107e-21)
(0.363214 0.00694594 4.10886e-21)
(0.357174 0.00706558 4.98069e-21)
(0.35108 0.00708994 4.44718e-21)
(0.345 0.00702437 4.45762e-21)
(0.338994 0.00687798 4.42183e-21)
(0.333119 0.00666265 4.35864e-21)
(0.327419 0.00639191 4.87747e-21)
(0.32193 0.00607985 4.7749e-21)
(0.316677 0.0057402 4.02508e-21)
(0.311676 0.00538558 3.89255e-21)
(0.306936 0.00502706 3.75645e-21)
(0.302457 0.0046739 3.62188e-21)
(0.298233 0.00433355 2.12786e-21)
(0.294254 0.00401175 1.30771e-21)
(0.290506 0.0037128 1.90809e-21)
(0.286971 0.00343976 3.64299e-22)
(0.283629 0.00319482 1.75862e-21)
(0.28046 0.0029795 1.68974e-21)
(0.277439 0.00279487 1.63475e-21)
(0.274541 0.0026417 3.274e-23)
(0.271742 0.00252051 1.59823e-21)
(0.269013 0.00243151 1.58573e-21)
(0.266326 0.0023745 1.5889e-21)
(0.263654 0.00234871 1.60894e-21)
(0.260966 0.00235264 1.64712e-21)
(0.258238 0.00238401 1.70459e-21)
(0.255443 0.00243987 4.73972e-22)
(0.25256 0.00251699 4.1062e-21)
(0.249571 0.00261269 4.21555e-21)
(0.246458 0.00272597 2.53119e-21)
(0.243203 0.00285914 2.66943e-21)
(0.239782 0.00301963 2.80945e-21)
(0.23616 0.00322212 4.80972e-21)
(0.232277 0.00349063 -7.14616e-22)
(0.228044 0.00386053 -2.53499e-21)
(0.223323 0.00438039 -5.81836e-22)
(0.217922 0.00511364 -5.82015e-22)
(0.211576 0.00613967 1.33631e-21)
(0.20394 0.00755416 -7.18612e-22)
(0.194582 0.00946734 -8.16011e-22)
(0.182987 0.0119981 -9.23429e-21)
(0.168571 0.0152606 -6.57562e-22)
(0.150721 0.0193384 -7.25882e-22)
(0.128864 0.0242371 -2.13133e-20)
(0.102605 0.029842 -2.13077e-20)
(0.0874632 0.0908958 -2.12476e-20)
(1.5 -3.02349e-16 -3.63773e-39)
(1.5 -3.40193e-16 4.38944e-22)
(1.5 -1.58562e-16 5.46975e-22)
(1.5 -1.11097e-16 3.24521e-22)
(1.5 -3.70804e-16 3.23409e-22)
(1.5 -4.10249e-16 3.77452e-22)
(1.5 -2.55113e-16 3.14945e-22)
(1.5 -2.74313e-16 3.14147e-22)
(1.5 -2.79268e-16 3.95719e-22)
(1.5 -3.34109e-16 2.98593e-22)
(1.5 -4.96174e-17 3.0546e-22)
(1.5 2.62512e-18 3.03218e-22)
(1.5 1.90861e-16 4.09536e-22)
(1.5 1.19263e-16 2.92814e-23)
(1.5 8.24419e-16 -1.31536e-22)
(1.5 4.48426e-16 -7.69243e-23)
(1.5 1.74541e-16 -7.62017e-23)
(1.5 6.85672e-17 -2.88821e-22)
(1.5 -1.26382e-16 -2.85365e-22)
(1.5 -3.45706e-16 -4.94173e-22)
(1.5 8.20203e-18 -4.4038e-22)
(0.575137 0.00214968 -8.33452e-22)
(0.519391 0.00257429 -2.16041e-21)
(0.511213 0.0027007 -2.13972e-21)
(0.502936 0.00280626 -2.80377e-22)
(0.494521 0.00290042 -2.7212e-22)
(0.48598 0.00298542 -1.21747e-21)
(0.477329 0.00306135 -1.20697e-21)
(0.468592 0.00312739 -1.94042e-21)
(0.459802 0.00318236 -9.20556e-22)
(0.451004 0.00322502 -2.20417e-21)
(0.442249 0.00325422 -1.41035e-21)
(0.433597 0.00326911 -1.40707e-21)
(0.425111 0.00326923 -1.95602e-21)
(0.416853 0.00325455 -2.02966e-21)
(0.408881 0.00322564 -1.74482e-21)
(0.401248 0.0031837 -2.34218e-21)
(0.393999 0.00313068 -2.12555e-21)
(0.387167 0.00306934 -2.1337e-21)
(0.380775 0.0030037 -1.90306e-21)
(0.374835 0.00293953 -2.22911e-21)
(0.369348 0.00288512 -2.06912e-21)
(0.364303 0.00285254 -2.06959e-21)
(0.359681 0.00285938 -2.23525e-21)
(0.355454 0.0029312 -2.22877e-21)
(0.351473 0.00220634 -3.79202e-21)
(0.347712 0.00196604 -1.33575e-21)
(0.344168 0.00183612 -2.28889e-21)
(0.340813 0.00173566 -6.28914e-21)
(0.337632 0.00164833 -6.0766e-21)
(0.33461 0.0015724 -7.25179e-21)
(0.331729 0.00150957 -1.03788e-20)
(0.328974 0.00146226 -1.275e-20)
(0.326323 0.00143304 -1.16605e-20)
(0.32376 0.00142452 -1.19261e-20)
(0.321264 0.00143934 -7.59189e-21)
(0.318819 0.00148032 -7.38142e-21)
(0.316408 0.00155049 -7.27152e-21)
(0.31402 0.00165325 -9.14282e-21)
(0.311642 0.00179254 -1.16533e-20)
(0.309269 0.00197314 -1.02596e-20)
(0.306896 0.00220086 -1.28032e-20)
(0.304524 0.00248298 -1.14125e-20)
(0.302161 0.00282899 -8.81564e-21)
(0.299817 0.00324975 -1.28261e-20)
(0.297513 0.00375469 -7.56157e-21)
(0.295292 0.00434132 -7.54347e-21)
(0.293127 0.00497989 -6.14327e-21)
(0.290962 0.00563974 -8.65298e-21)
(0.288754 0.00629344 -9.12126e-21)
(0.286462 0.00691549 -9.55668e-21)
(0.28405 0.00748292 -8.64732e-21)
(0.281494 0.00797642 -9.07538e-21)
(0.278771 0.00838131 -8.86658e-21)
(0.275872 0.00868827 -8.33486e-21)
(0.27279 0.00889348 -8.18803e-21)
(0.269527 0.0089984 -8.2664e-21)
(0.266089 0.009009 -8.17654e-21)
(0.262488 0.00893482 -8.11189e-21)
(0.258739 0.00878778 -6.60302e-21)
(0.254858 0.008581 -8.06289e-21)
(0.250865 0.00832785 -8.03741e-21)
(0.24678 0.00804108 -4.88881e-21)
(0.242623 0.0077323 -4.89386e-21)
(0.238414 0.00741166 -8.1665e-21)
(0.234172 0.0070878 -3.07484e-21)
(0.229913 0.0067679 -1.002e-20)
(0.225654 0.00645789 -6.33714e-21)
(0.221406 0.00616271 2.84833e-21)
(0.217177 0.00588657 -2.79089e-21)
(0.212971 0.00563317 -2.67819e-21)
(0.208788 0.00540589 -2.51149e-21)
(0.204622 0.00520782 -1.05272e-20)
(0.200461 0.00504178 -1.01689e-20)
(0.196287 0.0049102 -1.17889e-21)
(0.192078 0.00481484 -5.35082e-21)
(0.187804 0.00475653 -4.99035e-21)
(0.183432 0.00473491 -9.27353e-21)
(0.178924 0.00474815 7.8923e-22)
(0.174241 0.00479304 4.17246e-22)
(0.169342 0.00486527 7.05935e-22)
(0.16419 0.00496018 -1.48004e-20)
(0.15875 0.00507405 -1.43491e-20)
(0.152992 0.0052058 -5.51169e-21)
(0.146896 0.00535925 -1.12875e-20)
(0.140448 0.0055457 -4.98362e-21)
(0.133645 0.00578692 1.25505e-21)
(0.126489 0.00611829 1.42405e-20)
(0.118987 0.00659227 1.39007e-20)
(0.111145 0.00728179 -9.35764e-22)
(0.102957 0.00828348 1.4567e-20)
(0.0943982 0.00971945 2.99381e-20)
(0.0854105 0.011736 2.83287e-20)
(0.0758918 0.0144963 4.30208e-20)
(0.0656892 0.0181613 3.75805e-20)
(0.0546016 0.0228545 9.48006e-21)
(0.042399 0.0285994 4.31763e-20)
(0.0288847 0.035264 1.58633e-20)
(0.0267128 0.104376 -1.42674e-20)
(1.5 -9.66136e-17 2.18062e-22)
(1.5 -2.84869e-16 -2.16865e-22)
(1.5 -3.0847e-16 -3.22521e-22)
(1.5 -3.52757e-16 -3.20437e-22)
(1.5 -3.94586e-16 -2.1026e-22)
(1.5 -3.10901e-16 -2.64423e-22)
(1.5 -4.13295e-16 -2.58427e-22)
(1.5 -1.62666e-16 -2.59483e-22)
(1.5 -1.03639e-16 -1.00727e-22)
(1.5 2.82767e-16 -1.037e-22)
(1.5 2.23877e-16 3.11859e-22)
(1.5 5.7234e-16 -3.29442e-22)
(1.5 3.08851e-16 -2.32927e-22)
(1.5 3.96508e-16 -3.45562e-23)
(1.5 6.32819e-16 1.68623e-22)
(1.5 4.45563e-16 6.30788e-23)
(1.5 9.92496e-17 5.90355e-23)
(1.5 1.18982e-17 -4.86676e-23)
(1.5 -4.49303e-16 3.3502e-22)
(1.5 -5.44961e-16 1.26606e-22)
(1.5 -6.80882e-17 -2.73589e-22)
(0.57499 0.00402125 -3.6457e-21)
(0.519875 0.00459974 -1.48516e-21)
(0.512066 0.00488101 -4.82313e-21)
(0.504309 0.00514967 -9.84214e-21)
(0.496577 0.00541719 -9.62989e-21)
(0.488892 0.00568615 -1.07546e-20)
(0.481271 0.00595469 -1.18708e-20)
(0.473733 0.00621834 -1.11891e-20)
(0.466298 0.00647108 -9.10594e-21)
(0.458989 0.00670616 -9.39164e-21)
(0.451828 0.00691671 -8.71448e-21)
(0.444841 0.0070964 -9.49915e-21)
(0.438051 0.00723988 -8.34767e-21)
(0.431482 0.00734318 -9.19678e-21)
(0.425155 0.00740401 -8.54499e-21)
(0.419087 0.00742168 -8.4374e-21)
(0.413293 0.00739738 -8.40779e-21)
(0.407787 0.00733423 -8.33078e-21)
(0.402577 0.00723706 -8.26778e-21)
(0.397673 0.00711263 -8.2083e-21)
(0.393085 0.00696995 -7.76165e-21)
(0.388824 0.00682098 -8.02664e-21)
(0.384907 0.00668161 -8.01791e-21)
(0.381363 0.00657326 -7.72658e-21)
(0.37831 0.0061842 -3.08579e-21)
(0.375369 0.00595954 -2.32527e-22)
(0.372421 0.0057895 3.61684e-21)
(0.369488 0.00564168 5.65355e-21)
(0.366565 0.00550999 5.94358e-21)
(0.363643 0.00539602 3.87523e-21)
(0.360709 0.00530315 7.0824e-21)
(0.35775 0.00523486 6.74438e-21)
(0.354756 0.00519425 6.50374e-21)
(0.351716 0.00518393 7.41559e-21)
(0.348621 0.0052061 4.8609e-22)
(0.345464 0.00526259 6.08422e-22)
(0.342238 0.00535495 -4.96663e-21)
(0.338941 0.00548459 -2.39866e-21)
(0.335571 0.00565284 -2.16932e-21)
(0.33213 0.00586101 -8.85739e-21)
(0.328621 0.00611088 -1.58442e-21)
(0.325053 0.00640536 -1.41999e-21)
(0.321437 0.00674846 -1.0731e-20)
(0.317794 0.00714712 -1.06694e-20)
(0.314128 0.00761006 -1.05739e-20)
(0.310434 0.00814194 -1.04773e-20)
(0.306722 0.00873819 -7.97492e-21)
(0.303002 0.00938161 -5.5034e-21)
(0.299274 0.0100486 -4.28247e-21)
(0.295536 0.0107138 -5.55217e-21)
(0.291782 0.0113523 -3.12859e-21)
(0.288001 0.0119411 -1.53814e-22)
(0.284183 0.0124612 -2.8763e-21)
(0.280314 0.012898 -2.88139e-21)
(0.27638 0.0132422 1.91481e-21)
(0.272367 0.0134896 -3.45993e-21)
(0.268265 0.0136412 -3.63372e-21)
(0.264062 0.0137015 -5.13982e-21)
(0.259752 0.0136785 2.86445e-22)
(0.255328 0.013582 -4.23953e-21)
(0.250789 0.0134226 -4.39167e-21)
(0.246136 0.0132117 -4.41717e-21)
(0.24137 0.0129598 1.60396e-21)
(0.236496 0.0126771 -4.99864e-21)
(0.231523 0.0123731 -1.12756e-20)
(0.226456 0.0120562 -4.70033e-21)
(0.221307 0.0117345 -1.83691e-20)
(0.216082 0.0114155 -1.39528e-20)
(0.210791 0.0111066 -1.3513e-20)
(0.205442 0.0108152 -2.05594e-20)
(0.200039 0.0105483 -8.09873e-21)
(0.194586 0.0103132 -1.63576e-20)
(0.189082 0.0101168 7.45221e-22)
(0.183526 0.0099656 -7.93308e-21)
(0.177908 0.00986494 -1.22259e-20)
(0.172219 0.00981888 -2.35004e-21)
(0.166444 0.00982955 -7.30109e-21)
(0.160564 0.00989678 -1.17133e-20)
(0.154559 0.010018 -1.08967e-20)
(0.148409 0.0101885 8.86812e-22)
(0.14209 0.0104022 2.50146e-22)
(0.135584 0.010653 -4.30228e-22)
(0.128873 0.0109369 -3.9715e-21)
(0.121941 0.0112541 -1.7611e-20)
(0.11478 0.0116125 -2.39173e-20)
(0.107387 0.0120309 -2.24601e-20)
(0.0997631 0.0125431 -5.11058e-20)
(0.091918 0.0132021 -1.33088e-20)
(0.0838676 0.0140857 5.26538e-21)
(0.0756343 0.015301 4.36868e-20)
(0.0672454 0.0169892 2.05141e-21)
(0.0587299 0.0193267 6.64965e-21)
(0.0501123 0.0225188 1.50796e-20)
(0.0414034 0.0267811 -2.57534e-20)
(0.0325892 0.0322966 1.35613e-19)
(0.0236219 0.0391376 1.36007e-19)
(0.0144338 0.0471836 2.61856e-21)
(0.0130433 0.12052 -1.31245e-20)
(1.5 4.56408e-17 -2.16065e-22)
(1.5 -2.17975e-16 8.70116e-25)
(1.5 -5.85326e-16 3.22183e-22)
(1.5 -8.2533e-16 3.22359e-22)
(1.5 -4.81156e-16 -9.99784e-23)
(1.5 -5.34213e-16 -5.04464e-22)
(1.5 -2.68526e-16 -4.81234e-22)
(1.5 9.75033e-17 -4.64404e-22)
(1.5 2.76604e-16 -4.35843e-22)
(1.5 6.77195e-16 -5.10914e-22)
(1.5 7.22064e-16 -8.11741e-22)
(1.5 8.85442e-16 -1.17033e-21)
(1.5 8.5842e-16 -1.12133e-21)
(1.5 7.58277e-16 -1.07475e-21)
(1.5 5.49175e-16 -2.60396e-22)
(1.5 2.306e-16 -1.49481e-22)
(1.5 1.15811e-18 -3.07904e-22)
(1.5 -1.12996e-16 -5.5923e-22)
(1.5 -1.81924e-16 -1.65156e-21)
(1.5 -3.52114e-16 -4.82749e-22)
(1.5 -4.73186e-16 -1.88272e-22)
(0.575173 0.00586743 2.67305e-21)
(0.520608 0.00661786 1.74551e-21)
(0.513276 0.00700645 5.53939e-21)
(0.506165 0.00737667 5.96628e-21)
(0.499257 0.00774466 1.50164e-21)
(0.492577 0.0081149 6.06131e-21)
(0.486137 0.0084858 1.13434e-20)
(0.479945 0.00885218 9.86352e-21)
(0.474001 0.00920668 4.23652e-21)
(0.468304 0.00954079 3.79252e-21)
(0.46285 0.00984581 3.37936e-21)
(0.457632 0.0101136 2.96607e-21)
(0.452646 0.0103372 2.60636e-21)
(0.447882 0.0105114 3.13635e-21)
(0.443335 0.0106328 2.80865e-21)
(0.438996 0.0107002 2.06708e-21)
(0.434858 0.0107142 2.73101e-21)
(0.430914 0.0106769 2.49691e-21)
(0.427157 0.0105918 2.0663e-21)
(0.423584 0.0104631 1.88913e-21)
(0.420193 0.0102959 1.64505e-21)
(0.416988 0.0100954 2.01793e-21)
(0.413978 0.00986734 1.44339e-21)
(0.411182 0.00961797 8.95381e-22)
(0.408707 0.00984579 -2.33192e-21)
(0.406224 0.00986668 -2.04687e-21)
(0.403631 0.00984091 -9.48457e-21)
(0.40095 0.00981073 -1.0069e-20)
(0.398186 0.00979016 -8.67746e-21)
(0.395338 0.00978605 -1.11536e-20)
(0.392407 0.009803 -7.68587e-21)
(0.389392 0.00984452 -1.10184e-20)
(0.386293 0.00991344 -6.62323e-21)
(0.383112 0.010012 -8.17263e-21)
(0.379849 0.0101418 1.90135e-21)
(0.376502 0.0103043 5.95868e-21)
(0.373074 0.0105003 8.01187e-21)
(0.369561 0.0107307 1.00298e-20)
(0.365961 0.0109959 1.19558e-20)
(0.362272 0.0112964 1.78501e-20)
(0.358487 0.0116328 2.17627e-20)
(0.354599 0.0120063 1.96112e-20)
(0.3506 0.0124171 2.96326e-20)
(0.346481 0.0128679 2.9358e-20)
(0.342251 0.013365 3.3016e-20)
(0.337929 0.0139111 3.23562e-20)
(0.333532 0.0144999 2.94573e-20)
(0.329075 0.0151181 3.06712e-20)
(0.324571 0.0157481 1.90114e-20)
(0.320031 0.0163704 1.9169e-20)
(0.31546 0.0169656 1.82423e-20)
(0.310862 0.0175158 2.17785e-20)
(0.306235 0.0180058 1.63146e-20)
(0.301576 0.018424 1.52725e-20)
(0.29688 0.0187625 1.47688e-20)
(0.292137 0.0190177 1.39473e-20)
(0.287338 0.0191896 1.31556e-20)
(0.282473 0.0192814 1.35169e-20)
(0.277534 0.0192985 9.30311e-21)
(0.27251 0.0192483 8.70214e-21)
(0.267393 0.0191388 8.12093e-21)
(0.262178 0.0189786 7.5646e-21)
(0.256859 0.0187762 7.37893e-21)
(0.251432 0.0185399 6.81494e-21)
(0.245894 0.0182777 1.71641e-20)
(0.240246 0.0179974 4.34389e-21)
(0.234487 0.017707 3.04763e-21)
(0.228618 0.0174145 2.7232e-20)
(0.222641 0.017128 1.84046e-20)
(0.216557 0.0168564 2.94245e-20)
(0.21037 0.0166086 2.7182e-20)
(0.204079 0.0163941 2.72759e-21)
(0.197686 0.016222 1.04754e-20)
(0.191189 0.0161013 -6.40235e-21)
(0.184585 0.0160396 -1.8908e-20)
(0.177872 0.016043 -1.76266e-20)
(0.171042 0.0161152 -1.24357e-20)
(0.16409 0.0162571 -1.24473e-20)
(0.157006 0.0164665 -1.24082e-20)
(0.149782 0.0167383 -1.39171e-20)
(0.14241 0.0170654 -1.33948e-20)
(0.134882 0.0174403 -1.22394e-20)
(0.127193 0.0178567 -1.7383e-20)
(0.119341 0.0183129 -2.36618e-20)
(0.111326 0.0188141 -1.03442e-20)
(0.103154 0.0193765 -1.17267e-20)
(0.0948376 0.020031 -1.5251e-21)
(0.0863937 0.0208282 -6.80587e-20)
(0.0778488 0.0218426 1.28627e-20)
(0.0692385 0.0231789 -9.2291e-20)
(0.0606087 0.0249771 -3.1671e-20)
(0.0520147 0.0274157 -1.06945e-19)
(0.0435168 0.0307098 -1.10055e-19)
(0.0351706 0.035096 -2.75636e-20)
(0.0270123 0.0407922 -8.23867e-20)
(0.0190384 0.0479161 6.21979e-20)
(0.0111985 0.0563854 -7.83218e-20)
(0.0105685 0.12771 -6.06028e-20)
(1.5 -2.20238e-16 -2.14595e-22)
(1.5 -3.77078e-16 2.14399e-22)
(1.5 -3.85062e-16 -4.19987e-22)
(1.5 -6.13369e-16 4.17187e-22)
(1.5 -2.37171e-16 7.95214e-22)
(1.5 -2.44477e-16 1.94085e-21)
(1.5 1.77812e-16 1.73064e-21)
(1.5 2.77814e-16 9.35912e-22)
(1.5 2.73551e-16 1.69986e-21)
(1.5 4.40929e-16 1.45288e-21)
(1.5 1.22597e-15 -3.0705e-22)
(1.5 8.09983e-16 1.86533e-21)
(1.5 1.31612e-15 1.74121e-21)
(1.5 7.37656e-16 1.56636e-21)
(1.5 3.3925e-16 6.46469e-22)
(1.5 -8.84938e-17 5.05791e-22)
(1.5 -5.65523e-16 1.76686e-21)
(1.5 -2.07626e-16 1.68723e-21)
(1.5 1.09729e-17 2.11622e-21)
(1.5 -3.17049e-16 4.7122e-22)
(1.5 -6.59581e-16 3.0611e-22)
(0.575018 0.00774591 3.38501e-22)
(0.520566 0.00867498 -4.86062e-21)
(0.513224 0.00913867 -5.38416e-21)
(0.506136 0.00956885 -2.08029e-21)
(0.499284 0.00998783 1.07301e-21)
(0.492693 0.0104031 -1.10912e-21)
(0.486377 0.010815 -4.66979e-21)
(0.480341 0.0112199 -1.92175e-21)
(0.474584 0.0116118 5.37205e-21)
(0.469096 0.0119832 5.3286e-21)
(0.463867 0.0123261 4.46196e-21)
(0.458881 0.0126331 6.03703e-21)
(0.454122 0.0128977 3.47956e-21)
(0.449575 0.013115 2.63173e-21)
(0.445224 0.0132822 5.95065e-21)
(0.441053 0.013398 4.99729e-21)
(0.43705 0.0134631 3.66017e-21)
(0.433202 0.0134797 4.90884e-21)
(0.429497 0.0134508 4.19221e-21)
(0.425924 0.01338 3.70353e-21)
(0.422473 0.0132708 4.53898e-21)
(0.419134 0.0131265 5.37956e-21)
(0.415896 0.0129496 3.41451e-21)
(0.412745 0.0127416 3.37877e-21)
(0.409614 0.0129418 6.9087e-21)
(0.40645 0.0130464 7.72212e-21)
(0.403223 0.0131206 1.13545e-20)
(0.399931 0.0131911 4.06863e-21)
(0.396576 0.0132704 4.22457e-21)
(0.393162 0.0133654 6.16562e-21)
(0.389697 0.0134806 1.16058e-20)
(0.386183 0.0136199 1.52377e-20)
(0.382628 0.013786 1.12682e-20)
(0.379035 0.0139814 1.10724e-20)
(0.375411 0.0142082 7.11415e-21)
(0.37176 0.0144683 6.95836e-21)
(0.368085 0.0147632 1.05959e-20)
(0.364391 0.0150947 1.05471e-20)
(0.36068 0.0154642 6.70812e-21)
(0.356956 0.0158734 2.86213e-21)
(0.353218 0.0163234 6.8383e-21)
(0.349473 0.0168151 2.98744e-21)
(0.345725 0.0173494 -7.44195e-22)
(0.341974 0.0179261 -4.11598e-22)
(0.338222 0.0185429 -3.87145e-21)
(0.334467 0.0191954 -3.18628e-21)
(0.330708 0.0198754 -2.41454e-21)
(0.326943 0.02057 5.05569e-22)
(0.323168 0.0212635 -8.92201e-22)
(0.319375 0.0219387 5.9677e-21)
(0.315558 0.0225793 2.37204e-21)
(0.311705 0.0231701 7.34087e-21)
(0.307805 0.023699 1.61442e-20)
(0.303849 0.0241565 7.68613e-21)
(0.299822 0.0245371 8.03794e-21)
(0.295712 0.0248382 -3.37349e-22)
(0.291509 0.0250606 2.02048e-20)
(0.287199 0.0252075 1.30598e-20)
(0.282773 0.025284 1.05463e-20)
(0.27822 0.0252964 1.14346e-21)
(0.273532 0.0252518 6.40214e-21)
(0.268703 0.0251576 2.09881e-20)
(0.263725 0.0250212 1.86216e-22)
(0.258594 0.0248501 5.87947e-21)
(0.253306 0.0246516 1.67754e-21)
(0.24786 0.0244331 1.27206e-20)
(0.242253 0.0242023 1.20025e-20)
(0.236484 0.0239676 1.34945e-20)
(0.230554 0.0237375 1.98385e-20)
(0.224462 0.0235217 1.48013e-20)
(0.218211 0.0233303 4.14415e-20)
(0.211799 0.0231738 3.78875e-20)
(0.20523 0.0230629 4.21669e-20)
(0.198502 0.0230077 3.74143e-20)
(0.191615 0.0230175 4.64524e-20)
(0.18457 0.0230995 3.9658e-20)
(0.177365 0.0232585 3.38514e-20)
(0.169999 0.0234958 3.26069e-20)
(0.162468 0.0238094 9.12902e-21)
(0.154773 0.0241941 8.18574e-21)
(0.146911 0.024642 2.65761e-20)
(0.138882 0.0251441 2.11151e-20)
(0.130688 0.0256927 1.55343e-20)
(0.122334 0.0262835 2.11775e-20)
(0.113828 0.0269195 -8.51368e-21)
(0.105181 0.0276137 1.72015e-20)
(0.0964129 0.0283938 1.43329e-20)
(0.0875466 0.0293058 -6.08978e-20)
(0.0786153 0.0304189 -7.63826e-20)
(0.0696617 0.0318312 -1.26955e-20)
(0.06074 0.0336752 -1.81625e-20)
(0.0519164 0.0361234 2.94426e-20)
(0.0432651 0.0393904 -2.85279e-20)
(0.03486 0.0437234 -2.80374e-20)
(0.0267584 0.0493679 -2.31644e-19)
(0.0189775 0.0564888 -2.2731e-20)
(0.011477 0.0650604 -6.9195e-20)
(0.0114464 0.132684 -6.08435e-20)
(1.5 -5.95492e-16 2.36375e-22)
(1.5 -6.76359e-16 -5.16261e-23)
(1.5 -2.67456e-16 2.87921e-22)
(1.5 -1.57363e-16 -5.08691e-22)
(1.5 -6.28183e-17 -2.00609e-21)
(1.5 3.98655e-16 -4.19576e-21)
(1.5 3.83602e-16 -3.77435e-21)
(1.5 3.82947e-16 -2.7067e-21)
(1.5 2.94545e-16 -4.98044e-21)
(1.5 4.67016e-16 -4.69157e-21)
(1.5 1.17887e-15 -2.92622e-21)
(1.5 8.9949e-16 -5.80384e-21)
(1.5 9.9011e-16 -6.68333e-21)
(1.5 5.51849e-16 -4.96494e-21)
(1.5 2.77283e-16 -5.01226e-21)
(1.5 7.13052e-18 -4.69111e-21)
(1.5 -3.52882e-16 -7.27885e-21)
(1.5 -2.15738e-16 -4.78786e-21)
(1.5 -1.59437e-16 -6.15349e-21)
(1.5 -4.20682e-16 -6.56133e-21)
(1.5 -7.36143e-16 -6.27976e-21)
(0.574906 0.00978118 -6.18739e-21)
(0.52033 0.0108747 -4.81784e-22)
(0.512825 0.0114156 -6.03578e-22)
(0.505563 0.0119103 5.11541e-21)
(0.498518 0.012384 9.34664e-21)
(0.491714 0.0128463 1.0518e-20)
(0.485167 0.0132997 8.59835e-21)
(0.478884 0.0137425 6.79509e-21)
(0.472868 0.0141704 3.7366e-21)
(0.467114 0.0145779 3.76472e-21)
(0.461614 0.0149587 7.2563e-22)
(0.456357 0.0153069 8.70617e-22)
(0.45133 0.0156172 -6.09749e-22)
(0.446519 0.0158856 -5.24189e-22)
(0.441912 0.0161098 -3.34308e-22)
(0.437495 0.0162891 -1.92413e-22)
(0.433256 0.0164242 -9.20533e-23)
(0.429186 0.0165175 -7.67191e-22)
(0.425274 0.0165723 -1.45385e-21)
(0.42151 0.0165925 -1.73549e-21)
(0.417885 0.0165826 -1.57984e-21)
(0.414389 0.0165473 2.69299e-22)
(0.411012 0.0164911 -1.27213e-21)
(0.407743 0.0164187 7.5462e-22)
(0.404468 0.0165299 -6.34982e-21)
(0.401154 0.0166778 -1.26861e-21)
(0.397811 0.0168339 5.35913e-21)
(0.394432 0.0169971 1.18651e-20)
(0.391017 0.017171 1.29516e-20)
(0.387567 0.0173596 1.04955e-20)
(0.384086 0.017566 -8.29685e-22)
(0.380576 0.0177932 5.86916e-21)
(0.377042 0.0180434 -5.28396e-21)
(0.373487 0.0183186 -5.56751e-21)
(0.369914 0.0186206 -9.46619e-21)
(0.366329 0.0189508 -1.31675e-20)
(0.362734 0.0193107 -1.32045e-20)
(0.359135 0.0197017 -9.49585e-21)
(0.355536 0.0201251 -5.68766e-21)
(0.351943 0.0205827 -9.37729e-21)
(0.348361 0.021076 -2.05481e-20)
(0.34479 0.0216055 -1.64896e-20)
(0.341232 0.0221723 -1.61667e-20)
(0.337688 0.0227772 -1.96105e-20)
(0.334158 0.0234188 -1.91568e-20)
(0.330641 0.024093 -1.86242e-20)
(0.327138 0.0247929 -1.80144e-20)
(0.323644 0.0255076 -1.14245e-20)
(0.320154 0.0262238 -2.06339e-20)
(0.316663 0.026927 -9.61574e-21)
(0.31316 0.0276027 -1.78442e-20)
(0.309635 0.0282375 -2.3987e-20)
(0.306075 0.0288202 -1.39922e-20)
(0.302467 0.0293421 -1.26942e-20)
(0.298798 0.0297975 -9.35713e-21)
(0.295053 0.0301834 -1.08349e-20)
(0.291218 0.0304994 -1.28446e-20)
(0.287279 0.0307475 -2.15968e-20)
(0.283224 0.0309312 -6.18767e-21)
(0.279041 0.031055 -5.67392e-21)
(0.274718 0.0311245 -2.65848e-22)
(0.270246 0.0311455 -1.21305e-20)
(0.265617 0.031124 7.64013e-21)
(0.260823 0.0310662 1.21587e-20)
(0.255857 0.0309788 2.08478e-20)
(0.250714 0.0308686 1.99739e-20)
(0.245391 0.0307432 1.91178e-20)
(0.239883 0.0306106 7.80968e-21)
(0.234188 0.0304801 -1.65271e-21)
(0.228304 0.0303617 -1.10233e-20)
(0.222231 0.0302662 -2.81784e-20)
(0.215968 0.0302051 -2.01015e-20)
(0.209514 0.0301903 -1.23126e-20)
(0.202871 0.030233 -5.94104e-21)
(0.196037 0.0303436 -1.95691e-20)
(0.189013 0.0305306 -1.1601e-20)
(0.181799 0.0307995 -5.3339e-21)
(0.174395 0.0311526 1.57686e-20)
(0.166802 0.0315884 -1.82358e-20)
(0.15902 0.0321017 3.75081e-20)
(0.15105 0.0326842 -1.79324e-21)
(0.142894 0.0333263 1.82082e-21)
(0.134556 0.0340188 -8.98543e-22)
(0.126044 0.0347559 -3.95996e-20)
(0.117367 0.035538 1.15946e-20)
(0.10854 0.0363751 -1.07863e-20)
(0.0995822 0.0372909 2.01112e-20)
(0.0905204 0.0383263 8.10511e-20)
(0.0813894 0.0395441 -1.77738e-20)
(0.0722344 0.0410339 4.55258e-20)
(0.0631126 0.0429184 -1.06242e-19)
(0.0540939 0.0453606 -5.30742e-20)
(0.0452591 0.0485699 3.13007e-20)
(0.036692 0.0527985 -7.64025e-20)
(0.0284638 0.0583146 5.50642e-20)
(0.0206092 0.0653283 -1.56005e-19)
(0.0131034 0.0738762 -8.06846e-21)
(0.0135107 0.137456 2.56677e-20)
(1.5 -6.75921e-16 1.60876e-21)
(1.5 -7.18001e-16 1.7002e-21)
(1.5 -2.52505e-16 1.37137e-21)
(1.5 3.23311e-16 1.15384e-21)
(1.5 1.10042e-16 4.00053e-21)
(1.5 4.7308e-16 5.14891e-21)
(1.5 2.00389e-16 3.45149e-21)
(1.5 4.41481e-16 5.63835e-21)
(1.5 2.00935e-16 3.85141e-21)
(1.5 4.91657e-16 3.60447e-21)
(1.5 8.55709e-16 3.21549e-21)
(1.5 9.77431e-16 4.27568e-21)
(1.5 6.47252e-16 5.24124e-21)
(1.5 1.85735e-16 1.09147e-21)
(1.5 -1.85576e-16 -1.33783e-21)
(1.5 1.30814e-17 -9.54675e-22)
(1.5 1.40549e-16 8.31743e-22)
(1.5 -1.9321e-16 -5.01178e-23)
(1.5 -2.75965e-16 1.38845e-22)
(1.5 -5.88573e-16 1.84948e-21)
(1.5 -9.19451e-16 2.09875e-21)
(0.575155 0.0119743 1.98793e-21)
(0.520351 0.0132294 1.94251e-21)
(0.512791 0.013856 1.88932e-21)
(0.505489 0.0144285 -1.446e-20)
(0.498408 0.0149723 -1.79379e-20)
(0.491566 0.0154981 -1.85111e-20)
(0.484977 0.0160098 -1.62888e-20)
(0.478647 0.0165071 -2.11865e-20)
(0.472578 0.0169874 -2.88989e-20)
(0.466765 0.0174467 -2.64001e-20)
(0.461201 0.0178802 -2.40612e-20)
(0.455876 0.0182832 -2.17664e-20)
(0.450778 0.0186515 -2.10484e-20)
(0.445895 0.018982 -2.03609e-20)
(0.441215 0.0192727 -1.82281e-20)
(0.436729 0.0195229 -1.61598e-20)
(0.432424 0.0197334 -1.41499e-20)
(0.428294 0.0199062 -1.14639e-20)
(0.42433 0.0200442 -8.88298e-21)
(0.420526 0.0201512 -8.70099e-21)
(0.416876 0.0202315 -1.00965e-20)
(0.413377 0.0202897 -9.83929e-21)
(0.410024 0.0203306 -9.61824e-21)
(0.406815 0.0203591 -9.57181e-21)
(0.403657 0.0205817 -9.52664e-21)
(0.400444 0.0208195 -1.60636e-20)
(0.397201 0.0210666 -2.58688e-20)
(0.393925 0.0213226 -2.90582e-20)
(0.390617 0.0215891 -3.53546e-20)
(0.387277 0.0218681 -3.49248e-20)
(0.383908 0.0221617 -3.78352e-20)
(0.38051 0.0224717 -3.3945e-20)
(0.377087 0.0227997 -2.67628e-20)
(0.37364 0.023147 -2.99496e-20)
(0.370172 0.0235147 -3.31246e-20)
(0.366685 0.0239039 -1.91187e-20)
(0.363181 0.0243155 -2.26187e-20)
(0.359663 0.0247502 -2.61874e-20)
(0.356132 0.0252091 -2.61942e-20)
(0.352589 0.025693 -2.61529e-20)
(0.349037 0.0262037 -1.54249e-20)
(0.345479 0.0267429 -8.28983e-21)
(0.341917 0.0273124 -8.4236e-21)
(0.338354 0.0279133 -1.3792e-21)
(0.334793 0.0285449 -5.47542e-21)
(0.331236 0.0292046 -5.85697e-21)
(0.327683 0.029887 -6.2646e-21)
(0.324136 0.0305842 -8.30625e-21)
(0.320591 0.0312858 -8.82352e-21)
(0.317045 0.0319805 -1.16493e-20)
(0.313492 0.0326565 -1.10196e-20)
(0.309924 0.0333028 -1.97954e-20)
(0.306331 0.0339099 -1.15105e-20)
(0.302703 0.0344702 -1.25381e-20)
(0.299028 0.0349783 -1.22997e-20)
(0.295293 0.035431 -1.02218e-20)
(0.291485 0.035827 -8.46349e-21)
(0.287592 0.036167 -1.36804e-20)
(0.283601 0.0364527 -1.30198e-20)
(0.279499 0.036687 -1.23512e-20)
(0.275276 0.0368736 -1.11757e-20)
(0.270919 0.0370162 -1.13517e-20)
(0.26642 0.0371195 -9.31579e-21)
(0.261768 0.0371881 2.03214e-20)
(0.256956 0.0372272 3.89348e-20)
(0.251974 0.0372429 1.73956e-20)
(0.246818 0.0372419 4.69598e-20)
(0.241481 0.037232 2.15406e-20)
(0.235957 0.037222 7.04745e-20)
(0.230244 0.0372222 5.90266e-20)
(0.224337 0.0372437 5.76959e-20)
(0.218235 0.0372985 4.63963e-20)
(0.211935 0.0373992 3.76648e-20)
(0.205436 0.0375579 3.10099e-20)
(0.198736 0.0377861 2.27549e-20)
(0.191837 0.0380932 8.4423e-20)
(0.184736 0.0384859 5.52167e-20)
(0.177434 0.0389674 1.89449e-20)
(0.16993 0.0395369 4.28561e-20)
(0.162225 0.0401897 1.55869e-21)
(0.15432 0.0409179 3.44118e-20)
(0.146217 0.0417115 2.77796e-20)
(0.137919 0.0425608 3.09085e-20)
(0.129432 0.0434585 1.54973e-20)
(0.120765 0.0444029 4.32113e-21)
(0.111932 0.0454013 -2.15867e-20)
(0.10295 0.0464732 5.90104e-20)
(0.0938458 0.0476543 1.73123e-20)
(0.0846527 0.0490002 5.93168e-21)
(0.0754151 0.0505915 1.95963e-20)
(0.0661895 0.05254 1.47019e-19)
(0.0570462 0.0549973 -1.24979e-19)
(0.0480682 0.0581647 -1.12794e-19)
(0.0393453 0.0622954 -2.42317e-20)
(0.0309605 0.067675 -4.10001e-20)
(0.0229649 0.0745545 -1.94893e-19)
(0.0153535 0.0830325 -1.02739e-19)
(0.0160849 0.142681 2.27112e-19)
(1.5 -4.81019e-16 -1.94899e-21)
(1.5 -3.8724e-16 -2.18966e-21)
(1.5 -2.4934e-16 -2.22101e-21)
(1.5 3.29556e-16 -4.83193e-21)
(1.5 8.12542e-17 -6.25133e-21)
(1.5 9.78078e-17 -5.8672e-21)
(1.5 1.86859e-16 -3.85188e-21)
(1.5 4.00163e-16 -6.44616e-21)
(1.5 3.17706e-16 -5.68626e-21)
(1.5 5.75736e-16 -5.61525e-21)
(1.5 8.49075e-16 -4.85626e-21)
(1.5 1.14539e-15 -4.28503e-21)
(1.5 9.2252e-16 -1.08707e-21)
(1.5 6.76881e-16 4.49404e-21)
(1.5 2.92029e-16 7.10204e-21)
(1.5 -1.3252e-17 6.98812e-21)
(1.5 -3.11463e-16 9.279e-21)
(1.5 -5.05497e-16 6.71481e-21)
(1.5 -6.30524e-16 8.00325e-21)
(1.5 -8.43044e-16 1.02978e-20)
(1.5 -8.31195e-16 7.91318e-21)
(0.575602 0.0142994 -1.58786e-21)
(0.52036 0.0157235 -2.62049e-21)
(0.512723 0.0164388 2.83452e-22)
(0.505355 0.0170948 2.09966e-20)
(0.498211 0.0177158 1.87956e-20)
(0.491307 0.0183129 1.65576e-20)
(0.484654 0.0188911 1.70544e-20)
(0.478261 0.0194513 2.13602e-20)
(0.472127 0.0199925 2.52714e-20)
(0.466251 0.0205118 2.23267e-20)
(0.460626 0.021006 2.22467e-20)
(0.455243 0.0214714 1.94644e-20)
(0.450091 0.0219048 2.23271e-20)
(0.44516 0.0223036 1.67528e-20)
(0.440438 0.0226662 1.42151e-20)
(0.435915 0.0229918 1.32665e-20)
(0.431582 0.0232808 9.54749e-21)
(0.42743 0.0235348 8.91759e-21)
(0.423452 0.0237558 9.87084e-21)
(0.419642 0.0239467 9.34644e-21)
(0.415993 0.0241107 8.79763e-21)
(0.412501 0.0242513 6.03582e-21)
(0.409163 0.0243719 8.61943e-21)
(0.405974 0.0244762 8.09342e-21)
(0.402841 0.0247836 1.99038e-21)