/*--------------------------------*- C++ -*----------------------------------*\
| =========                 |                                                 |
| \\      /  F ield         | OpenFOAM: The Open Source CFD Toolbox           |
|  \\    /   O peration     | Version:  2.2.x                                 |
|   \\  /    A nd           | Web:      www.OpenFOAM.org                      |
|    \\/     M anipulation  |                                                 |
\*---------------------------------------------------------------------------*/
FoamFile
{
    version     2.0;
    format      ascii;
    class       volScalarField;
    location    "0.55";
    object      rho;
}
// * * * * * * * * * * * * * * * * * * * * * * * * * * * * * * * * * * * * * //

dimensions      [1 -3 0 0 0 0 0];

internalField   nonuniform List<scalar> 
14161
(
1
1
1
1
1
1
1
1
1
1
1
1
1
1
1
1
1
1
1
1
1
1
1
1
1
1
1
1
1
1
1
1
1
0.999895
1.65367
2.81083
2.88741
2.86167
2.85697
2.85827
2.87274
2.90077
2.92483
2.93597
2.93849
2.93667
2.93223
2.92464
2.91575
2.91172
2.91294
2.91945
2.93588
2.95576
2.96821
2.97413
2.9759
2.97603
2.97459
2.97177
2.97138
2.97331
2.98021
2.98939
2.99416
2.99503
2.99449
2.99354
2.99365
2.99567
3.0005
3.0063
3.0098
3.01114
3.01092
3.01031
3.01043
3.01119
3.01198
3.01268
3.01444
3.01775
3.02287
3.02862
3.03423
3.03945
3.0445
3.04945
3.05347
3.05675
3.05954
3.06269
3.06711
3.07229
3.07663
3.07991
3.08196
3.08229
3.08189
3.0808
3.07946
3.07816
3.07696
3.0767
3.07758
3.08017
3.0837
3.08784
3.09171
3.09442
3.09457
3.09246
3.08656
3.07573
3.06248
3.04464
3.0178
2.96717
2.80889
1
1
1
1
1
1
1
1
1
1
1
1
1
1
1
1
1
1
1
1
1
1
1
1
1
1
1
1
1
1
1
1
1
0.999927
1.59695
2.60092
2.71162
2.73676
2.77111
2.79783
2.80996
2.81084
2.80811
2.80209
2.80038
2.80124
2.804
2.81121
2.82492
2.84345
2.86119
2.87255
2.87999
2.88467
2.8877
2.8898
2.89169
2.89571
2.90385
2.91808
2.93222
2.94002
2.9424
2.94262
2.94236
2.94339
2.94682
2.95437
2.96431
2.97229
2.97749
2.98123
2.9843
2.98742
2.99116
2.99629
3.00067
3.00303
3.00477
3.0071
3.01144
3.018
3.02566
3.03248
3.03862
3.04439
3.04983
3.05465
3.05834
3.06132
3.06402
3.06711
3.07141
3.07645
3.08065
3.08381
3.08574
3.08601
3.08547
3.08421
3.08269
3.08114
3.07962
3.07899
3.07956
3.08176
3.08487
3.08857
3.09212
3.0945
3.09438
3.09204
3.0859
3.07486
3.06164
3.04407
3.01784
2.96827
2.81144
1
1
1
1
1
1
1
1
1
1
1
1
1
1
1
1
1
1
1
1
1
1
1
1
1
1
1
1
1
1
1
1
1
0.999804
1.63918
2.82792
2.92421
2.8966
2.88184
2.88209
2.88963
2.91178
2.93726
2.95172
2.95447
2.95272
2.94828
2.9409
2.93317
2.92983
2.93061
2.93656
2.94858
2.96693
2.98251
2.98995
2.99196
2.99197
2.9906
2.9884
2.98819
2.99032
2.99566
3.00516
3.01152
3.01256
3.01192
3.01089
3.01085
3.0126
3.01649
3.02125
3.0239
3.02453
3.02387
3.02274
3.02216
3.02202
3.02173
3.02181
3.02341
3.02681
3.03209
3.0381
3.0439
3.04915
3.05387
3.0579
3.06098
3.06327
3.06559
3.0684
3.07236
3.07721
3.08133
3.08443
3.08631
3.08656
3.08592
3.08461
3.08308
3.08155
3.08007
3.07955
3.08023
3.0826
3.08589
3.08974
3.09321
3.09537
3.0951
3.09266
3.08644
3.07549
3.06247
3.0454
3.02001
2.97199
2.81759
1
1
1
1
1
1
1
1
1
1
1
1
1
1
1
1
1
1
1
1
1
1
1
1
1
1
1
1
1
1
1
1
1
0.999855
1.59639
2.63122
2.73316
2.75163
2.77844
2.81033
2.83164
2.84039
2.84131
2.8395
2.83807
2.83496
2.83348
2.83467
2.84084
2.85493
2.87548
2.8938
2.90471
2.90948
2.91068
2.91033
2.91054
2.91184
2.91599
2.9261
2.93977
2.94882
2.95112
2.95118
2.95082
2.95145
2.95411
2.96025
2.96856
2.97545
2.98024
2.9839
2.98685
2.98987
2.99358
2.9975
2.99954
3.00076
3.002
3.00426
3.00847
3.01408
3.02037
3.02657
3.03267
3.03785
3.04252
3.04665
3.05006
3.05287
3.05571
3.05906
3.06361
3.06905
3.07366
3.07716
3.07948
3.08015
3.08009
3.07921
3.0781
3.07702
3.07597
3.07589
3.07696
3.07974
3.08343
3.08763
3.09135
3.09365
3.09341
3.09087
3.08457
3.07357
3.06054
3.04363
3.01868
2.97125
2.8187
1
1
1
1
1
1
1
1
1
1
1
1
1
1
1
1
1
1
1
1
1
1
1
1
1
1
1
1
1
1
1
1
1
0.999724
1.61711
2.80008
2.89046
2.86591
2.85949
2.86338
2.88105
2.9074
2.92404
2.92779
2.92575
2.921
2.91291
2.90422
2.90037
2.90078
2.90699
2.92145
2.94263
2.95918
2.96643
2.968
2.96727
2.96384
2.96104
2.96154
2.96533
2.97411
2.98521
2.99049
2.99047
2.98913
2.98632
2.98598
2.98783
2.99175
2.99738
3.00122
3.0029
3.00369
3.00417
3.00467
3.00615
3.00718
3.00759
3.00816
3.01049
3.01475
3.02007
3.0256
3.03111
3.03632
3.041
3.04512
3.04856
3.05137
3.0541
3.05738
3.06182
3.0671
3.07152
3.07489
3.07709
3.07772
3.07767
3.07679
3.07564
3.07448
3.07339
3.07333
3.07449
3.07739
3.08129
3.08571
3.08967
3.09217
3.09204
3.08955
3.08326
3.07221
3.0591
3.04213
3.01739
2.97071
2.81919
1
1
1
1
1
1
1
1
1
1
1
1
1
1
1
1
1
1
1
1
1
1
1
1
1
1
1
1
1
1
1
1
1
0.999756
1.58732
2.67709
2.77245
2.7797
2.79799
2.82716
2.85741
2.87531
2.88091
2.88035
2.87733
2.87033
2.86332
2.86085
2.86209
2.87009
2.88789
2.9129
2.93032
2.93813
2.93973
2.93853
2.93468
2.93259
2.93363
2.93824
2.9493
2.96237
2.96935
2.97025
2.96918
2.96773
2.96689
2.96838
2.97227
2.97941
2.98749
2.99246
2.99499
2.99639
2.9978
2.9994
3.0019
3.00454
3.00611
3.00793
3.01127
3.01637
3.02246
3.02892
3.03472
3.04007
3.04433
3.04776
3.0503
3.05237
3.05452
3.05745
3.06148
3.0665
3.07071
3.07388
3.07581
3.07627
3.07592
3.07484
3.07348
3.07205
3.07065
3.07039
3.07148
3.07435
3.07833
3.08289
3.08703
3.08974
3.08976
3.08734
3.08109
3.07008
3.05692
3.03987
3.0152
2.96892
2.8185
1
1
1
1
1
1
1
1
1
1
1
1
1
1
1
1
1
1
1
1
1
1
1
1
1
1
1
1
1
1
1
1
1
0.999694
1.58791
2.75952
2.84811
2.83271
2.83279
2.85006
2.87989
2.90303
2.91119
2.91052
2.90568
2.89695
2.88686
2.88168
2.8809
2.88465
2.89824
2.92101
2.94231
2.95328
2.95636
2.95597
2.95262
2.94808
2.94751
2.94956
2.95724
2.96996
2.9798
2.98224
2.98167
2.97929
2.97831
2.97872
2.98162
2.98826
2.99546
2.99969
3.00161
3.0024
3.00306
3.00392
3.00595
3.00774
3.00887
3.01009
3.01282
3.01766
3.02361
3.02974
3.0351
3.0402
3.04455
3.04816
3.05068
3.05253
3.05446
3.05718
3.061
3.06584
3.06998
3.07306
3.07487
3.0753
3.07474
3.0735
3.07195
3.07024
3.06857
3.06808
3.069
3.07166
3.07546
3.07986
3.0839
3.0867
3.08684
3.08446
3.07817
3.06729
3.05404
3.03686
3.01222
2.96625
2.81685
1
1
1
1
1
1
1
1
1
1
1
1
1
1
1
1
1
1
1
1
1
1
1
1
1
1
1
1
1
1
1
1
1
0.999704
1.5656
2.70329
2.8002
2.79965
2.81247
2.84181
2.87252
2.89062
2.89539
2.89394
2.88908
2.87987
2.87185
2.86881
2.86999
2.87802
2.89634
2.92167
2.93873
2.94532
2.94632
2.94443
2.93951
2.93697
2.93785
2.9424
2.95393
2.96664
2.97335
2.97399
2.97315
2.97126
2.97119
2.97278
2.9783
2.98522
2.98985
2.9917
2.99262
2.99328
2.99443
2.99622
2.99838
2.99955
3.00057
3.00204
3.00525
3.01097
3.01808
3.02552
3.03199
3.03775
3.04284
3.04707
3.05011
3.0523
3.05428
3.05695
3.06079
3.06569
3.06992
3.0731
3.0749
3.07538
3.07471
3.07334
3.07162
3.06969
3.06771
3.0669
3.06761
3.07006
3.07365
3.07782
3.08146
3.08372
3.08368
3.08111
3.07466
3.06388
3.05053
3.03322
3.00853
2.96296
2.81433
1
1
1
1
1
1
1
1
1
1
1
1
1
1
1
1
1
1
1
1
1
1
1
1
1
1
1
1
1
1
1
1
1
0.999685
1.54997
2.72313
2.82147
2.81452
2.8233
2.85132
2.88201
2.89932
2.90315
2.90113
2.89462
2.88379
2.87483
2.87157
2.87229
2.87968
2.89626
2.92132
2.94011
2.94836
2.95013
2.94886
2.9441
2.94011
2.94011
2.94288
2.952
2.96496
2.97389
2.97554
2.97478
2.97259
2.97157
2.97216
2.9759
2.98246
2.98809
2.99139
2.99275
2.99363
2.99457
2.99617
2.99802
2.99889
2.99956
3.00079
3.00395
3.00967
3.01669
3.024
3.0304
3.036
3.04106
3.04538
3.04856
3.05097
3.05309
3.05589
3.0599
3.06499
3.06942
3.07275
3.07464
3.07518
3.07449
3.07304
3.07116
3.06904
3.06703
3.06602
3.06663
3.06892
3.0723
3.07618
3.07934
3.08084
3.08037
3.07733
3.07048
3.05979
3.04631
3.02888
3.00413
2.95882
2.8108
1
1
1
1
1
1
1
1
1
1
1
1
1
1
1
1
1
1
1
1
1
1
1
1
1
1
1
1
1
1
1
1
1
0.999688
1.52515
2.69557
2.80358
2.80145
2.81671
2.84755
2.87578
2.89084
2.89388
2.8918
2.88591
2.87579
2.86914
2.8671
2.86896
2.87933
2.89793
2.9234
2.93947
2.94517
2.9457
2.943
2.93669
2.93363
2.93417
2.93789
2.94832
2.9616
2.97003
2.97148
2.97077
2.96892
2.96845
2.96935
2.97382
2.98151
2.98857
2.99229
2.99404
2.99546
2.99663
2.9984
3.00031
3.00099
3.00131
3.00233
3.0053
3.01081
3.01759
3.02443
3.03029
3.03528
3.03961
3.04318
3.04577
3.04785
3.04989
3.05275
3.05701
3.06247
3.06727
3.07091
3.07303
3.07382
3.07331
3.07198
3.07014
3.06801
3.06592
3.06483
3.06544
3.06773
3.07093
3.07454
3.07726
3.07813
3.07707
3.07324
3.06576
3.05503
3.04138
3.02384
2.99903
2.9539
2.80629
1
1
1
1
1
1
1
1
1
1
1
1
1
1
1
1
1
1
1
1
1
1
1
1
1
1
1
1
1
1
1
1
1
0.999691
1.50045
2.69063
2.80737
2.80606
2.825
2.85816
2.8839
2.89622
2.89748
2.89481
2.88788
2.87798
2.87295
2.87189
2.87503
2.88721
2.90751
2.93138
2.94556
2.94962
2.94918
2.945
2.93763
2.93524
2.93616
2.9404
2.95136
2.96446
2.97217
2.97323
2.97238
2.9703
2.96983
2.97069
2.97514
2.98254
2.98903
2.99212
2.99372
2.99496
2.99582
2.99726
2.99925
3
3.00037
3.00165
3.00499
3.01089
3.01805
3.02494
3.0307
3.03547
3.03939
3.04245
3.04448
3.04607
3.04769
3.05019
3.05416
3.05955
3.06449
3.06839
3.07075
3.07181
3.07153
3.07034
3.06855
3.06647
3.06441
3.06342
3.06409
3.06653
3.06965
3.07301
3.07537
3.07574
3.07406
3.06932
3.06085
3.04976
3.03581
3.01813
2.99325
2.94789
2.8007
1
1
1
1
1
1
1
1
1
1
1
1
1
1
1
1
1
1
1
1
1
1
1
1
1
1
1
1
1
1
1
1
1
0.999706
1.4702
2.66041
2.79132
2.79896
2.82548
2.85916
2.88103
2.88961
2.8889
2.8852
2.87764
2.8685
2.86504
2.86558
2.87147
2.88589
2.9088
2.92856
2.93862
2.94061
2.93931
2.93448
2.92848
2.92738
2.92905
2.9352
2.94796
2.96006
2.96583
2.96618
2.965
2.96329
2.96311
2.96423
2.96973
2.97722
2.98301
2.98607
2.98776
2.98905
2.99033
2.99244
2.99531
2.99677
2.99789
2.99979
3.00369
3.01008
3.01782
3.02494
3.03077
3.03541
3.03904
3.04171
3.04339
3.04463
3.04594
3.04816
3.0518
3.05678
3.06141
3.06519
3.06759
3.06882
3.0688
3.06779
3.06609
3.06413
3.0622
3.06144
3.06232
3.06496
3.0682
3.07125
3.07328
3.07327
3.07092
3.06517
3.05577
3.04412
3.02974
3.01183
2.98684
2.94153
2.79436
1
1
1
1
1
1
1
1
1
1
1
1
1
1
1
1
1
1
1
1
1
1
1
1
1
1
1
1
1
1
1
1
1
0.999721
1.43016
2.64507
2.79563
2.80443
2.83213
2.86424
2.88361
2.89018
2.88854
2.88394
2.87481
2.86659
2.86428
2.86601
2.87355
2.88914
2.91275
2.9313
2.93948
2.94051
2.9384
2.93246
2.92714
2.92663
2.92837
2.93575
2.94915
2.96024
2.96464
2.96458
2.9628
2.96117
2.96107
2.96269
2.969
2.97616
2.98095
2.98347
2.9849
2.98614
2.98728
2.98964
2.99263
2.99423
2.99578
2.99817
3.00264
3.00941
3.01757
3.02477
3.03059
3.0351
3.0385
3.04085
3.0422
3.04319
3.04434
3.04642
3.04987
3.0546
3.05898
3.0624
3.06439
3.06541
3.0654
3.0645
3.06285
3.06097
3.05926
3.05882
3.06006
3.06294
3.06642
3.06938
3.07101
3.07066
3.06757
3.06088
3.05065
3.03824
3.02325
3.00497
2.97983
2.93432
2.78703
1
1
1
1
1
1
1
1
1
1
1
1
1
1
1
1
1
1
1
1
1
1
1
1
1
1
1
1
1
1
1
1
1
0.999752
1.38468
2.60805
2.7835
2.80536
2.8378
2.86609
2.88227
2.88719
2.88517
2.88052
2.87169
2.86524
2.86416
2.86788
2.87781
2.8956
2.91871
2.93406
2.93903
2.93883
2.93552
2.92842
2.92458
2.92475
2.92717
2.93676
2.95024
2.9595
2.96245
2.96221
2.96002
2.9587
2.95873
2.96135
2.96832
2.97481
2.97845
2.98031
2.9814
2.98245
2.98363
2.98647
2.98951
2.99129
2.99316
2.99604
3.00095
3.00807
3.01645
3.02364
3.02939
3.03376
3.03702
3.03921
3.04048
3.04133
3.04242
3.04446
3.04778
3.05231
3.05657
3.05982
3.06157
3.06228
3.06188
3.06081
3.05902
3.05716
3.05572
3.05562
3.05727
3.06048
3.06421
3.06716
3.06855
3.06775
3.06395
3.05633
3.04535
3.03214
3.01642
2.99764
2.97225
2.92665
2.77908
1
1
1
1
1
1
1
1
1
1
1
1
1
1
1
1
1
1
1
1
1
1
1
1
1
1
1
1
1
1
1
1
1
0.999786
1.33589
2.56617
2.77844
2.81024
2.84522
2.86934
2.88201
2.88439
2.8815
2.87549
2.86668
2.86279
2.86376
2.86944
2.88179
2.90263
2.92346
2.93448
2.93669
2.93527
2.93055
2.92315
2.92115
2.922
2.92589
2.93775
2.9506
2.95771
2.95941
2.95881
2.95645
2.95579
2.95611
2.96011
2.96758
2.97317
2.9757
2.97693
2.97775
2.97863
2.98023
2.98378
2.98695
2.98896
2.99114
2.99442
2.99955
3.00669
3.01491
3.02196
3.0275
3.03163
3.03472
3.03675
3.03801
3.03885
3.04003
3.04213
3.04538
3.04979
3.05406
3.05719
3.05878
3.05932
3.05859
3.0571
3.05488
3.05291
3.05168
3.05189
3.054
3.05758
3.06149
3.06449
3.06567
3.06444
3.05992
3.05146
3.03981
3.02581
3.0093
2.98985
2.9641
2.9182
2.77042
1
1
1
1
1
1
1
1
1
1
1
1
1
1
1
1
1
1
1
1
1
1
1
1
1
1
1
1
1
1
1
1
1
0.999824
1.28292
2.51549
2.77761
2.81751
2.8524
2.87324
2.88146
2.88156
2.87752
2.8693
2.86213
2.86045
2.86354
2.87069
2.88641
2.9092
2.92612
2.93248
2.93273
2.92994
2.9232
2.91753
2.91683
2.9182
2.92503
2.93867
2.94991
2.95467
2.95534
2.95402
2.95208
2.95191
2.95309
2.95853
2.96601
2.97044
2.97186
2.97251
2.97312
2.97419
2.9767
2.9811
2.9845
2.98685
2.98941
2.99305
2.99832
3.00529
3.01306
3.01977
3.02495
3.02878
3.03165
3.03352
3.03481
3.03573
3.03702
3.03919
3.04244
3.04682
3.05128
3.05441
3.05597
3.0564
3.05539
3.05344
3.05083
3.04856
3.04741
3.04783
3.05032
3.05426
3.05828
3.0613
3.06222
3.06053
3.05543
3.04621
3.03396
3.01922
3.00191
2.98167
2.95536
2.90918
2.76099
1
1
1
1
1
1
1
1
1
1
1
1
1
1
1
1
1
1
1
1
1
1
1
1
1
1
1
1
1
1
1
1
1
0.999867
1.22405
2.45364
2.78141
2.82851
2.85993
2.87788
2.88151
2.87969
2.87412
2.8642
2.85935
2.85971
2.86417
2.87422
2.89395
2.9153
2.92718
2.9297
2.92852
2.92408
2.91604
2.9128
2.91319
2.91577
2.92618
2.93996
2.94844
2.95113
2.95111
2.94905
2.94772
2.94805
2.95061
2.95705
2.96383
2.96688
2.9673
2.96749
2.968
2.96976
2.97352
2.97876
2.9824
2.98507
2.98798
2.99186
2.99719
3.00375
3.01081
3.01702
3.0218
3.02533
3.02797
3.02969
3.03099
3.03198
3.03334
3.03553
3.03876
3.04313
3.04785
3.05115
3.05274
3.05308
3.0519
3.0496
3.04672
3.04423
3.04303
3.04355
3.04631
3.05051
3.05453
3.05749
3.05814
3.05597
3.05031
3.04055
3.02777
3.01234
2.99425
2.97311
2.94612
2.89971
2.75112
1
1
1
1
1
1
1
1
1
1
1
1
1
1
1
1
1
1
1
1
1
1
1
1
1
1
1
1
1
1
1
1
1
0.999913
1.15976
2.38139
2.78978
2.84211
2.86724
2.88064
2.88085
2.87715
2.86752
2.85792
2.85612
2.85827
2.86403
2.87936
2.90227
2.9192
2.92557
2.92567
2.9229
2.91589
2.90915
2.90784
2.90908
2.91478
2.92829
2.94048
2.94579
2.94694
2.94614
2.94361
2.94309
2.94406
2.94806
2.95511
2.96065
2.96243
2.96206
2.96195
2.96279
2.96552
2.97079
2.97661
2.98043
2.98336
2.98654
2.99057
2.99581
3.00175
3.00791
3.01363
3.01806
3.0214
3.02387
3.02551
3.02682
3.02779
3.02913
3.03127
3.03442
3.03877
3.04374
3.04729
3.04909
3.04947
3.0481
3.04556
3.04249
3.0399
3.03863
3.0392
3.04211
3.04638
3.05026
3.053
3.05333
3.05069
3.04447
3.03436
3.02119
3.00511
2.98628
2.96416
2.93631
2.88944
2.74059
1
1
1
1
1
1
1
1
1
1
1
1
1
1
1
1
1
1
1
1
1
1
1
1
1
1
1
1
1
1
1
1
1
0.999959
1.09177
2.30275
2.80374
2.85828
2.87515
2.88207
2.87921
2.87076
2.85757
2.85235
2.85268
2.85612
2.86736
2.8883
2.90914
2.92017
2.92203
2.92036
2.91533
2.90648
2.90293
2.90326
2.90591
2.91608
2.93073
2.93968
2.94208
2.94212
2.94007
2.93798
2.93838
2.93991
2.94539
2.95263
2.95677
2.95737
2.95653
2.95643
2.95802
2.9621
2.96874
2.97473
2.97864
2.98173
2.98503
2.98898
2.99389
2.99903
3.00425
3.0095
3.01372
3.01706
3.01946
3.02111
3.02237
3.02323
3.02448
3.02647
3.02947
3.03375
3.03893
3.04272
3.04476
3.04528
3.04389
3.04124
3.03812
3.03558
3.03428
3.03494
3.03786
3.0419
3.04552
3.04785
3.04778
3.04466
3.03803
3.02764
3.01412
2.99747
2.97799
2.95483
2.926
2.87865
2.72973
1
1
1
1
1
1
1
1
1
1
1
1
1
1
1
1
1
1
1
1
1
1
1
1
1
1
1
1
1
1
1
1
1
0.999991
1.0303
2.22197
2.82233
2.87243
2.87937
2.87965
2.87272
2.85706
2.84827
2.84668
2.84873
2.857
2.87497
2.89822
2.91305
2.91757
2.91689
2.91301
2.90465
2.898
2.8969
2.89855
2.90509
2.91936
2.93197
2.93695
2.93738
2.93638
2.9329
2.93205
2.93286
2.93571
2.94281
2.94936
2.95223
2.95199
2.95099
2.95131
2.95399
2.95956
2.96712
2.97301
2.97688
2.98
2.98318
2.98686
2.9912
2.99548
2.99982
3.00466
3.00888
3.01231
3.01479
3.01647
3.01765
3.01839
3.01951
3.02129
3.02405
3.02819
3.03344
3.03746
3.03975
3.04042
3.03905
3.0365
3.03351
3.03116
3.02997
3.03082
3.03361
3.03714
3.04027
3.04202
3.04143
3.03792
3.03091
3.02035
3.00653
2.98939
2.96929
2.94508
2.91514
2.86741
2.71828
1
1
1
1
1
1
1
1
1
1
1
1
1
1
1
1
1
1
1
1
1
1
1
1
1
1
1
1
1
1
1
1
1
1
1.00021
2.11533
2.83767
2.88031
2.87863
2.8721
2.8564
2.84362
2.8407
2.84183
2.84795
2.86388
2.88718
2.90479
2.91237
2.91268
2.9097
2.90248
2.8934
2.89076
2.89159
2.89566
2.90763
2.92283
2.93104
2.93253
2.93173
2.92881
2.92546
2.9255
2.92677
2.93232
2.94039
2.94543
2.94726
2.94662
2.94607
2.94708
2.95086
2.95773
2.9657
2.97131
2.97499
2.97785
2.98067
2.98387
2.98759
2.99116
2.99473
2.99915
3.00352
3.00712
3.00973
3.01146
3.01256
3.01325
3.01425
3.01579
3.01827
3.02221
3.02735
3.03155
3.03407
3.03484
3.03356
3.03125
3.02862
3.02659
3.02568
3.02668
3.0292
3.03207
3.03452
3.03555
3.03435
3.03044
3.02312
3.01245
2.9984
2.98087
2.96014
2.93487
2.9038
2.85544
2.70666
1
1
1
1
1
1
1
1
1
1
1
1
1
1
1
1
1
1
1
1
1
1
1
1
1
1
1
1
1
1
1
1
1
1
0.999218
1.98867
2.84609
2.87803
2.86901
2.8553
2.83907
2.83391
2.83441
2.8406
2.85485
2.87737
2.89645
2.90639
2.90768
2.90538
2.89931
2.88906
2.88455
2.88455
2.88735
2.89676
2.91265
2.92395
2.92736
2.92673
2.92441
2.91948
2.91764
2.91829
2.9219
2.93011
2.93772
2.94141
2.94233
2.94177
2.94182
2.9437
2.94859
2.95631
2.96418
2.9693
2.9724
2.97475
2.97712
2.97997
2.9833
2.98623
2.98915
2.99312
2.99765
3.00147
3.00425
3.00605
3.00707
3.0078
3.00872
3.01006
3.01226
3.01591
3.02079
3.02506
3.02772
3.02849
3.02747
3.02552
3.02349
3.02196
3.02145
3.02251
3.02458
3.02667
3.02827
3.02848
3.02656
3.0222
3.0147
3.00397
2.98975
2.97189
2.95053
2.92419
2.89205
2.84337
2.69453
1
1
1
1
1
1
1
1
1
1
1
1
1
1
1
1
1
1
1
1
1
1
1
1
1
1
1
1
1
1
1
1
1
1
0.999304
1.87988
2.82767
2.86401
2.85328
2.83519
2.82665
2.82638
2.8328
2.8481
2.86983
2.88911
2.8997
2.90198
2.90024
2.89467
2.8845
2.87829
2.87756
2.87946
2.88701
2.90217
2.91592
2.92141
2.92136
2.9192
2.91429
2.91029
2.90995
2.91218
2.91945
2.92886
2.93487
2.93745
2.93771
2.93745
2.93819
2.94107
2.94711
2.95501
2.96202
2.96614
2.96846
2.97049
2.97258
2.97546
2.97844
2.98077
2.98315
2.98664
2.99126
2.99534
2.99831
3.00018
3.00119
3.00206
3.00294
3.00413
3.00607
3.00934
3.0138
3.01803
3.02072
3.02149
3.02089
3.01954
3.01827
3.01726
3.01713
3.01807
3.01959
3.02087
3.02156
3.02085
3.01817
3.01339
3.00573
2.99497
2.98064
2.96245
2.94044
2.91303
2.87986
2.83083
2.68237
1
1
1
1
1
1
1
1
1
1
1
1
1
1
1
1
1
1
1
1
1
1
1
1
1
1
1
1
1
1
1
1
1
1
0.999423
1.75945
2.79473
2.84672
2.83196
2.81889
2.81758
2.82514
2.84203
2.86502
2.88311
2.89303
2.8956
2.89433
2.88903
2.87864
2.87151
2.87012
2.87147
2.87814
2.89241
2.90722
2.91442
2.91517
2.91327
2.90872
2.90381
2.90244
2.90368
2.90953
2.91929
2.92758
2.93187
2.93337
2.9334
2.93347
2.93517
2.93925
2.94597
2.95292
2.95819
2.9613
2.96326
2.9652
2.96736
2.97042
2.97299
2.97483
2.97677
2.9798
2.98436
2.98872
2.99188
2.99384
2.99495
2.996
2.99688
2.99792
2.9996
3.00241
3.00628
3.01041
3.01311
3.01405
3.01404
3.01345
3.013
3.01245
3.01262
3.0132
3.01402
3.01451
3.01425
3.01258
3.00919
3.00397
2.99619
2.98541
2.97097
2.95245
2.92977
2.90132
2.86725
2.81812
2.66959
1
1
1
1
1
1
1
1
1
1
1
1
1
1
1
1
1
1
1
1
1
1
1
1
1
1
1
1
1
1
1
1
1
1
0.999553
1.62162
2.7455
2.8246
2.81089
2.80776
2.8174
2.83688
2.86265
2.87941
2.88744
2.88897
2.88684
2.88063
2.87003
2.86339
2.86195
2.86347
2.87016
2.88398
2.8989
2.90667
2.90813
2.90667
2.90272
2.8976
2.89578
2.89644
2.90114
2.91068
2.91988
2.92552
2.9282
2.92894
2.92883
2.92996
2.93253
2.93735
2.94387
2.94916
2.9527
2.95512
2.95708
2.95902
2.96169
2.96486
2.96699
2.96845
2.97008
2.97273
2.97702
2.98165
2.98501
2.98715
2.98847
2.98969
2.99054
2.99141
2.99276
2.99504
2.99822
3.00224
3.00511
3.0065
3.00714
3.00738
3.00766
3.00746
3.00766
3.00772
3.00776
3.00748
3.00628
3.00371
2.99969
2.99401
2.9861
2.97527
2.96068
2.9418
2.91845
2.88908
2.85418
2.8049
2.65694
1
1
1
1
1
1
1
1
1
1
1
1
1
1
1
1
1
1
1
1
1
1
1
1
1
1
1
1
1
1
1
1
1
1
0.999684
1.47033
2.66785
2.79762
2.79728
2.81101
2.83454
2.85964
2.87393
2.88013
2.88049
2.87736
2.8703
2.85953
2.85384
2.85275
2.85542
2.86326
2.87756
2.89207
2.89931
2.90072
2.89954
2.89592
2.89121
2.88954
2.89014
2.89423
2.90355
2.91308
2.91912
2.92224
2.92364
2.92366
2.92414
2.92596
2.92919
2.93503
2.94056
2.94391
2.94595
2.94786
2.94987
2.9522
2.95567
2.95876
2.96045
2.96162
2.96305
2.96544
2.96936
2.97408
2.97768
2.98003
2.98166
2.98297
2.98375
2.98438
2.98534
2.98704
2.9896
2.99363
2.99692
2.99896
3.0003
3.00137
3.0022
3.00211
3.0021
3.00152
3.00076
2.99973
2.99768
2.99431
2.98971
2.98362
2.97555
2.96457
2.94976
2.93052
2.90651
2.8764
2.8409
2.79164
2.64341
1
1
1
1
1
1
1
1
1
1
1
1
1
1
1
1
1
1
1
1
1
1
1
1
1
1
1
1
1
1
1
1
1
1
0.999812
1.30808
2.54755
2.78018
2.80236
2.82815
2.85386
2.86627
2.87168
2.87118
2.86755
2.85879
2.84757
2.84339
2.84349
2.84788
2.8581
2.87375
2.88714
2.89319
2.894
2.89249
2.88846
2.88396
2.88288
2.88403
2.8885
2.89783
2.90756
2.91313
2.91583
2.91713
2.91743
2.91767
2.91856
2.92085
2.92603
2.93213
2.93575
2.93727
2.93818
2.93968
2.94195
2.94523
2.94939
2.95211
2.95341
2.95441
2.95576
2.95799
2.96146
2.96604
2.96989
2.97248
2.97437
2.97568
2.97637
2.97672
2.97727
2.97844
2.98065
2.98485
2.98872
2.99152
2.9936
2.99535
2.99648
2.99636
2.99586
2.99445
2.99295
2.99121
2.98847
2.98442
2.97927
2.97282
2.96451
2.95329
2.93821
2.91857
2.89399
2.86327
2.82732
2.77808
2.63034
1
1
1
1
1
1
1
1
1
1
1
1
1
1
1
1
1
1
1
1
1
1
1
1
1
1
1
1
1
1
1
1
1
1
0.999933
1.13774
2.38358
2.78241
2.82319
2.84953
2.86179
2.86428
2.86183
2.85462
2.84324
2.83568
2.834
2.83602
2.84302
2.85633
2.87238
2.88341
2.8876
2.88781
2.88568
2.88062
2.87598
2.87527
2.87722
2.88321
2.89319
2.90262
2.90768
2.90956
2.91002
2.90962
2.90944
2.91008
2.91224
2.91715
2.92318
2.92731
2.92901
2.92938
2.92982
2.93122
2.93408
2.93836
2.94257
2.9449
2.94598
2.94695
2.94828
2.95042
2.95347
2.95758
2.96162
2.96442
2.96649
2.96775
2.96835
2.96848
2.9687
2.9696
2.97179
2.9761
2.98062
2.98419
2.98698
2.9892
2.99029
2.99014
2.98892
2.98649
2.98436
2.982
2.97864
2.97406
2.96839
2.96157
2.95291
2.94138
2.92602
2.90597
2.88097
2.84995
2.81393
2.76427
2.61596
1
1
1
1
1
1
1
1
1
1
1
1
1
1
1
1
1
1
1
1
1
1
1
1
1
1
1
1
1
1
1
1
1
1
0.999995
1.00593
2.18252
2.80856
2.85446
2.85982
2.85869
2.85064
2.83685
2.82677
2.82461
2.82605
2.83185
2.84327
2.85891
2.87234
2.87938
2.8814
2.88055
2.87729
2.8716
2.86794
2.86796
2.87078
2.87828
2.88869
2.89703
2.90161
2.90296
2.90266
2.90115
2.89986
2.90032
2.9028
2.90806
2.91401
2.9185
2.9206
2.92082
2.92071
2.92104
2.92266
2.92637
2.93124
2.9351
2.93706
2.93804
2.93901
2.94046
2.94259
2.94516
2.94853
2.95253
2.95556
2.95778
2.9591
2.95973
2.95983
2.95999
2.96086
2.96317
2.96752
2.97263
2.97694
2.98033
2.98273
2.98355
2.98316
2.9811
2.97777
2.97505
2.97208
2.96819
2.96315
2.95708
2.94987
2.94069
2.92882
2.91317
2.89275
2.86749
2.83637
2.80022
2.74944
2.60221
1
1
1
1
1
1
1
1
1
1
1
1
1
1
1
1
1
1
1
1
1
1
1
1
1
1
1
1
1
1
1
1
1
1
1
0.999402
1.90479
2.82355
2.86025
2.84963
2.83521
2.82034
2.81522
2.816
2.8213
2.83252
2.84833
2.86315
2.87172
2.87499
2.8753
2.87289
2.86685
2.86091
2.85927
2.86038
2.86549
2.87469
2.88428
2.89079
2.89431
2.89514
2.89429
2.89217
2.89021
2.89018
2.89277
2.89834
2.90456
2.90911
2.91174
2.91225
2.91157
2.91151
2.91216
2.91483
2.91907
2.92374
2.927
2.92856
2.92958
2.93068
2.9324
2.93446
2.93647
2.93902
2.94267
2.94602
2.94849
2.94999
2.95085
2.95112
2.95143
2.95245
2.95494
2.9592
2.96472
2.96967
2.97341
2.97574
2.97621
2.9754
2.97247
2.96839
2.96502
2.96151
2.95715
2.95176
2.94535
2.9377
2.9279
2.91561
2.89964
2.87895
2.85366
2.82279
2.78618
2.73381
2.58711
1
1
1
1
1
1
1
1
1
1
1
1
1
1
1
1
1
1
1
1
1
1
1
1
1
1
1
1
1
1
1
1
1
1
1
0.999586
1.65559
2.763
2.83317
2.81434
2.80467
2.80565
2.81313
2.82647
2.84322
2.85598
2.8642
2.86683
2.86682
2.86433
2.85822
2.85185
2.84985
2.85083
2.85535
2.86376
2.87286
2.8795
2.88351
2.8854
2.88538
2.88395
2.88167
2.8806
2.88123
2.8842
2.88935
2.89478
2.89897
2.90153
2.90264
2.90253
2.90171
2.90172
2.90375
2.90778
2.91179
2.91527
2.91786
2.91926
2.92035
2.92178
2.92387
2.92574
2.92726
2.92914
2.93225
2.93597
2.9389
2.94074
2.94192
2.94253
2.9432
2.94446
2.94709
2.95116
2.95683
2.96219
2.96594
2.968
2.96809
2.96679
2.96311
2.95839
2.95438
2.95037
2.94561
2.93993
2.93319
2.92509
2.91461
2.90179
2.8855
2.86477
2.83969
2.80892
2.77183
2.71791
2.57257
1
1
1
1
1
1
1
1
1
1
1
1
1
1
1
1
1
1
1
1
1
1
1
1
1
1
1
1
1
1
1
1
1
1
1
0.999778
1.40633
2.62963
2.78745
2.78918
2.80019
2.81717
2.83619
2.84796
2.85436
2.85637
2.85606
2.85343
2.84735
2.84133
2.83923
2.84039
2.84555
2.85464
2.8635
2.86992
2.87375
2.8754
2.87544
2.87387
2.87137
2.87003
2.87044
2.87303
2.87724
2.88198
2.88609
2.88891
2.89043
2.89144
2.89163
2.8916
2.89199
2.89362
2.897
2.90083
2.90353
2.90559
2.90749
2.90909
2.91058
2.91273
2.915
2.91655
2.91771
2.91918
2.92184
2.92576
2.92924
2.93157
2.93317
2.93427
2.93537
2.93689
2.93956
2.94334
2.94868
2.95409
2.95766
2.95936
2.95912
2.95722
2.95309
2.94789
2.94325
2.93873
2.93359
2.92761
2.92056
2.91195
2.90081
2.8874
2.87077
2.85028
2.82553
2.79476
2.75704
2.70112
2.55631
1
1
1
1
1
1
1
1
1
1
1
1
1
1
1
1
1
1
1
1
1
1
1
1
1
1
1
1
1
1
1
1
1
1
1
0.999933
1.15861
2.41118
2.77015
2.80088
2.82464
2.83964
2.84639
2.84744
2.8458
2.84106
2.83415
2.83003
2.82889
2.83088
2.83728
2.84651
2.85453
2.86019
2.86383
2.86561
2.86576
2.86427
2.86127
2.85924
2.85933
2.86153
2.86577
2.87037
2.87453
2.87797
2.87962
2.87989
2.87976
2.87942
2.87969
2.88138
2.88402
2.8872
2.89057
2.89286
2.89414
2.89516
2.89652
2.89862
2.90106
2.90391
2.906
2.9072
2.90819
2.90949
2.91182
2.91564
2.91972
2.92265
2.92481
2.92642
2.92791
2.92968
2.93218
2.93534
2.93992
2.94505
2.94838
2.94972
2.9492
2.94686
2.94245
2.93692
2.93167
2.92663
2.92108
2.91478
2.9074
2.89826
2.88646
2.87243
2.85572
2.83562
2.81115
2.78023
2.74182
2.6849
2.54002
1
1
1
1
1
1
1
1
1
1
1
1
1
1
1
1
1
1
1
1
1
1
1
1
1
1
1
1
1
1
1
1
1
1
1
0.999996
1.00416
2.08431
2.81298
2.84655
2.84701
2.84192
2.83286
2.82253
2.81704
2.81573
2.81747
2.82445
2.83424
2.84268
2.84888
2.85262
2.8545
2.85512
2.85439
2.85187
2.84953
2.84883
2.84954
2.85202
2.85539
2.85923
2.86315
2.86647
2.86888
2.86997
2.86986
2.86889
2.86794
2.86841
2.87063
2.87383
2.87724
2.88054
2.88284
2.88362
2.88381
2.88426
2.88569
2.88859
2.89208
2.8951
2.8969
2.89786
2.89883
2.90018
2.90235
2.90586
2.91037
2.914
2.9168
2.91887
2.92063
2.9225
2.92447
2.92682
2.93041
2.93499
2.93809
2.93913
2.93845
2.93584
2.93129
2.9256
2.91975
2.91415
2.90816
2.90152
2.89374
2.88403
2.87164
2.85708
2.84049
2.82077
2.79637
2.76512
2.72559
2.66781
2.52214
1
1
1
1
1
1
1
1
1
1
1
1
1
1
1
1
1
1
1
1
1
1
1
1
1
1
1
1
1
1
1
1
1
1
1
1
0.999639
1.70115
2.7743
2.83276
2.81574
2.80489
2.80325
2.8052
2.81373
2.8242
2.8326
2.83811
2.84136
2.84281
2.84314
2.84258
2.84062
2.83845
2.83753
2.83806
2.84078
2.84445
2.84778
2.85055
2.85295
2.85498
2.85669
2.85777
2.85804
2.858
2.85818
2.85869
2.85951
2.86118
2.8638
2.86686
2.86988
2.87245
2.87355
2.87361
2.87358
2.87439
2.87635
2.87958
2.88335
2.88619
2.88786
2.88884
2.88992
2.89151
2.89361
2.89671
2.90129
2.90571
2.9091
2.91145
2.91315
2.91484
2.9161
2.91761
2.92012
2.9239
2.92682
2.92768
2.92696
2.92426
2.91968
2.91393
2.90755
2.9013
2.89479
2.88772
2.87947
2.86918
2.85628
2.84153
2.82517
2.80566
2.78122
2.74954
2.709
2.65023
2.5032
1
1
1
1
1
1
1
1
1
1
1
1
1
1
1
1
1
1
1
1
1
1
1
1
1
1
1
1
1
1
1
1
1
1
1
1
0.999853
1.34123
2.57757
2.77828
2.7861
2.79786
2.81153
2.82141
2.82753
2.82953
2.83048
2.83026
2.82956
2.82793
2.82704
2.82725
2.82821
2.83054
2.83328
2.83599
2.83887
2.84174
2.84419
2.84589
2.8466
2.84669
2.84657
2.84654
2.84709
2.84842
2.85024
2.85202
2.85353
2.85525
2.8571
2.8592
2.86126
2.86272
2.86348
2.86401
2.86476
2.8662
2.86844
2.87133
2.87451
2.87712
2.87892
2.88027
2.88168
2.88351
2.88556
2.88824
2.89241
2.89731
2.90105
2.90348
2.90504
2.90639
2.90692
2.90762
2.90909
2.9119
2.91461
2.9155
2.91483
2.91216
2.90766
2.90189
2.89505
2.88808
2.88099
2.87342
2.8646
2.85377
2.84064
2.82594
2.80971
2.79031
2.76554
2.7332
2.69145
2.63176
2.48409
1
1
1
1
1
1
1
1
1
1
1
1
1
1
1
1
1
1
1
1
1
1
1
1
1
1
1
1
1
1
1
1
1
1
1
1
0.99999
1.02374
2.25698
2.77968
2.81432
2.82451
2.82839
2.82751
2.82214
2.81572
2.81314
2.81296
2.81435
2.81832
2.82278
2.82572
2.82795
2.82977
2.83138
2.83295
2.83447
2.8358
2.83678
2.83733
2.83745
2.83755
2.83796
2.83878
2.84011
2.84195
2.84416
2.84628
2.848
2.84919
2.85018
2.85119
2.85223
2.85315
2.85435
2.85573
2.85726
2.85911
2.8612
2.86341
2.86564
2.86795
2.87009
2.87199
2.87397
2.87582
2.87756
2.87967
2.88307
2.88799
2.89204
2.89457
2.89604
2.89695
2.89692
2.89687
2.8974
2.89924
2.90165
2.90275
2.90217
2.89964
2.8953
2.88946
2.88224
2.87448
2.86675
2.85864
2.84926
2.83803
2.82484
2.81025
2.79402
2.77455
2.74937
2.71615
2.67318
2.61267
2.46356
1
1
1
1
1
1
1
1
1
1
1
1
1
1
1
1
1
1
1
1
1
1
1
1
1
1
1
1
1
1
1
1
1
1
1
1
1
0.999777
1.74826
2.77546
2.8228
2.80963
2.79982
2.79674
2.79721
2.80262
2.81073
2.81629
2.81992
2.82227
2.82351
2.82404
2.82408
2.82375
2.82334
2.82363
2.82477
2.82642
2.82804
2.82955
2.83069
2.83145
2.83214
2.83302
2.83435
2.83598
2.8378
2.83962
2.84108
2.84203
2.84263
2.8432
2.84394
2.84498
2.84643
2.84817
2.85022
2.85238
2.8542
2.85564
2.85704
2.85892
2.86124
2.86371
2.86606
2.86788
2.86928
2.87086
2.87343
2.87773
2.88199
2.88464
2.88608
2.88668
2.88625
2.88556
2.88528
2.88622
2.88818
2.88955
2.88907
2.88674
2.88255
2.87664
2.8691
2.86058
2.85205
2.84329
2.83342
2.82204
2.8091
2.7948
2.77828
2.75855
2.73284
2.69877
2.65467
2.59331
2.44349
1
1
1
1
1
1
1
1
1
1
1
1
1
1
1
1
1
1
1
1
1
1
1
1
1
1
1
1
1
1
1
1
1
1
1
1
1
0.999897
1.29879
2.53766
2.77171
2.78299
2.79276
2.80072
2.80665
2.80914
2.81051
2.81131
2.81237
2.81355
2.81477
2.8158
2.81642
2.81685
2.81736
2.81785
2.81872
2.81991
2.82118
2.82265
2.82418
2.82572
2.82709
2.8283
2.82932
2.83014
2.83079
2.83155
2.83238
2.83325
2.83435
2.8356
2.83681
2.83799
2.83924
2.84096
2.84295
2.84485
2.84632
2.8473
2.84827
2.84983
2.85235
2.85514
2.85752
2.85922
2.86036
2.86163
2.86351
2.86678
2.8709
2.87372
2.87522
2.8757
2.875
2.87387
2.87293
2.87307
2.87441
2.87589
2.87555
2.87341
2.86935
2.86338
2.85556
2.84638
2.83715
2.8278
2.81753
2.8061
2.79337
2.77926
2.76221
2.7419
2.71525
2.67987
2.63436
2.57224
2.42143
1
1
1
1
1
1
1
1
1
1
1
1
1
1
1
1
1
1
1
1
1
1
1
1
1
1
1
1
1
1
1
1
1
1
1
1
1
0.999995
1.00818
2.04805
2.7951
2.81688
2.81257
2.80666
2.80211
2.8004
2.80046
2.80081
2.80306
2.80563
2.80761
2.80942
2.81108
2.8125
2.81358
2.81427
2.81486
2.81534
2.81591
2.8167
2.81771
2.81905
2.82035
2.82152
2.82238