/*--------------------------------*- C++ -*----------------------------------*\
| =========                 |                                                 |
| \\      /  F ield         | OpenFOAM: The Open Source CFD Toolbox           |
|  \\    /   O peration     | Version:  2.2.x                                 |
|   \\  /    A nd           | Web:      www.OpenFOAM.org                      |
|    \\/     M anipulation  |                                                 |
\*---------------------------------------------------------------------------*/
FoamFile
{
    version     2.0;
    format      ascii;
    class       volScalarField;
    location    "0.7";
    object      Ma;
}
// * * * * * * * * * * * * * * * * * * * * * * * * * * * * * * * * * * * * * //

dimensions      [0 0 0 0 0 0 0];

internalField   nonuniform List<scalar> 
14161
(
6.06218
6.06218
6.06218
6.06218
6.06218
6.06218
6.06218
6.06218
6.06218
6.06218
6.06218
6.06218
6.06218
6.06218
6.06218
6.06218
6.06218
6.06218
6.06218
6.06218
6.06218
6.06218
6.06218
6.06218
6.06218
6.06218
6.06218
6.06218
6.06218
6.06218
6.06218
6.06218
6.06218
6.06218
6.06218
6.06218
6.06218
6.06218
6.06218
6.06218
6.06218
6.06213
6.06208
6.06818
6.32453
2.26566
0.772346
0.519149
0.4658
0.451631
0.445343
0.440088
0.434467
0.428342
0.422379
0.416745
0.411599
0.406676
0.401802
0.396626
0.391202
0.38637
0.382132
0.378461
0.374606
0.369978
0.364539
0.358688
0.35345
0.349042
0.345133
0.340959
0.335848
0.32994
0.324532
0.319838
0.315785
0.311529
0.306491
0.300344
0.294328
0.289034
0.284459
0.279899
0.27444
0.26834
0.262814
0.25809
0.253634
0.248539
0.241701
0.234468
0.227909
0.222238
0.216892
0.210726
0.20299
0.194841
0.18686
0.178958
0.170922
0.161853
0.152946
0.145091
0.138375
0.131805
0.124408
0.115849
0.106557
0.0971029
0.0877347
0.0788285
0.07026
0.0616844
0.0525771
0.0422164
0.0312803
0.0198792
0.00910486
6.06218
6.06218
6.06218
6.06218
6.06218
6.06218
6.06218
6.06218
6.06218
6.06218
6.06218
6.06218
6.06218
6.06218
6.06218
6.06218
6.06218
6.06218
6.06218
6.06218
6.06218
6.06218
6.06218
6.06218
6.06218
6.06218
6.06218
6.06218
6.06218
6.06218
6.06218
6.06218
6.06218
6.06218
6.06218
6.06218
6.06218
6.06218
6.06218
6.06218
6.06218
6.06213
6.06179
6.06622
6.31895
2.26994
0.771777
0.517372
0.463998
0.449983
0.44376
0.438553
0.432976
0.427051
0.421462
0.416256
0.411575
0.407025
0.402379
0.397315
0.391959
0.387094
0.38276
0.378936
0.374824
0.36989
0.364084
0.35822
0.353062
0.348724
0.34495
0.341083
0.336363
0.331063
0.326222
0.32194
0.318196
0.314102
0.309082
0.302954
0.296968
0.291671
0.287092
0.282322
0.276491
0.26966
0.263196
0.25775
0.252697
0.247223
0.240425
0.233326
0.226841
0.221199
0.215717
0.209372
0.201925
0.194359
0.18706
0.179946
0.172439
0.163932
0.155665
0.148217
0.141658
0.135044
0.127605
0.119055
0.109835
0.1004
0.0910631
0.0822512
0.0738491
0.0655905
0.0568832
0.0470956
0.0371201
0.027121
0.0206364
6.06218
6.06218
6.06218
6.06218
6.06218
6.06218
6.06218
6.06218
6.06218
6.06218
6.06218
6.06218
6.06218
6.06218
6.06218
6.06218
6.06218
6.06218
6.06218
6.06218
6.06218
6.06218
6.06218
6.06218
6.06218
6.06218
6.06218
6.06218
6.06218
6.06218
6.06218
6.06218
6.06218
6.06218
6.06218
6.06218
6.06218
6.06218
6.06218
6.06215
6.0622
6.06237
6.05832
6.03745
6.33048
2.30161
0.775263
0.518659
0.464789
0.450679
0.444351
0.439055
0.433409
0.427648
0.422324
0.417395
0.412984
0.408601
0.40399
0.398783
0.393303
0.388302
0.383848
0.379797
0.375356
0.370175
0.364165
0.358391
0.353308
0.349052
0.345178
0.341115
0.336159
0.331013
0.326378
0.322244
0.318425
0.314031
0.308593
0.302321
0.296296
0.290957
0.286176
0.281162
0.275143
0.26843
0.262232
0.256854
0.251821
0.24639
0.239762
0.232916
0.226603
0.220967
0.215287
0.208707
0.201518
0.194444
0.187815
0.18117
0.173677
0.165291
0.157352
0.150194
0.14363
0.136662
0.128795
0.120173
0.111319
0.102034
0.092914
0.0842832
0.0762245
0.068456
0.0604547
0.0519454
0.0442914
0.0369431
0.033872
6.06218
6.06218
6.06218
6.06218
6.06218
6.06218
6.06218
6.06218
6.06218
6.06218
6.06218
6.06218
6.06218
6.06218
6.06218
6.06218
6.06218
6.06218
6.06218
6.06218
6.06218
6.06218
6.06218
6.06218
6.06218
6.06218
6.06218
6.06218
6.06218
6.06218
6.06218
6.06218
6.06218
6.06218
6.06218
6.06218
6.06218
6.06218
6.06218
6.06219
6.06246
6.06301
6.05396
5.98813
6.35962
2.34765
0.780377
0.520859
0.466577
0.452708
0.446523
0.441235
0.435564
0.429902
0.424675
0.419878
0.41553
0.411064
0.406207
0.400625
0.394923
0.38983
0.385532
0.381555
0.377116
0.371916
0.365955
0.360258
0.355258
0.351007
0.346887
0.342344
0.337112
0.332168
0.327792
0.323995
0.320186
0.315483
0.30967
0.303219
0.297123
0.291794
0.28693
0.281814
0.275746
0.26918
0.263095
0.25769
0.252612
0.247221
0.240817
0.234236
0.228084
0.22231
0.216376
0.209611
0.202686
0.196147
0.190062
0.183655
0.17606
0.167889
0.160321
0.153603
0.147068
0.139912
0.131843
0.123212
0.114691
0.105849
0.0969866
0.0886841
0.0810306
0.0738167
0.0665872
0.05932
0.0536392
0.0483542
0.0474398
6.06218
6.06218
6.06218
6.06218
6.06218
6.06218
6.06218
6.06218
6.06218
6.06218
6.06218
6.06218
6.06218
6.06218
6.06218
6.06218
6.06218
6.06218
6.06218
6.06218
6.06218
6.06218
6.06218
6.06218
6.06218
6.06218
6.06218
6.06218
6.06218
6.06218
6.06218
6.06218
6.06218
6.06218
6.06218
6.06218
6.06218
6.06218
6.06218
6.0622
6.06258
6.06399
6.05078
5.96649
6.40062
2.38878
0.783443
0.519984
0.465051
0.451225
0.445127
0.439896
0.434374
0.429065
0.424101
0.419532
0.4152
0.410576
0.405378
0.399506
0.393734
0.388518
0.384126
0.380019
0.375591
0.370399
0.364999
0.360191
0.356066
0.352515
0.348813
0.344416
0.339246
0.334414
0.330246
0.326714
0.322871
0.317935
0.311789
0.305311
0.29937
0.294242
0.289465
0.284355
0.27825
0.271711
0.265614
0.260093
0.254888
0.249443
0.243246
0.236879
0.230781
0.224835
0.218531
0.211668
0.204923
0.198759
0.192861
0.18642
0.178713
0.170721
0.16338
0.156851
0.150057
0.142347
0.133833
0.125029
0.1169
0.108717
0.100452
0.0928443
0.0859992
0.0796223
0.0734408
0.0676233
0.0639077
0.0606489
0.0613517
6.06218
6.06218
6.06218
6.06218
6.06218
6.06218
6.06218
6.06218
6.06218
6.06218
6.06218
6.06218
6.06218
6.06218
6.06218
6.06218
6.06218
6.06218
6.06218
6.06218
6.06218
6.06218
6.06218
6.06218
6.06218
6.06218
6.06218
6.06218
6.06218
6.06218
6.06218
6.06218
6.06218
6.06218
6.06218
6.06218
6.06218
6.06218
6.06218
6.0622
6.06258
6.06389
6.04971
5.9769
6.51355
2.46783
0.790732
0.521333
0.46568
0.451976
0.445945
0.440718
0.435421
0.430429
0.425703
0.421324
0.416965
0.412146
0.406635
0.400458
0.394528
0.389231
0.384713
0.380405
0.375966
0.371
0.366368
0.362292
0.358934
0.355777
0.352068
0.347387
0.341897
0.336732
0.332299
0.328426
0.324181
0.31893
0.312549
0.306074
0.300171
0.294996
0.290128
0.284967
0.278915
0.272508
0.266481
0.260907
0.255638
0.250223
0.2443
0.238059
0.231869
0.225726
0.219237
0.21247
0.205895
0.199823
0.193724
0.186972
0.179361
0.171895
0.165111
0.15874
0.151854
0.14415
0.135891
0.127644
0.120404
0.113153
0.105641
0.0987286
0.0926851
0.0870561
0.081836
0.0773097
0.0752647
0.0736477
0.0750903
6.06218
6.06218
6.06218
6.06218
6.06218
6.06218
6.06218
6.06218
6.06218
6.06218
6.06218
6.06218
6.06218
6.06218
6.06218
6.06218
6.06218
6.06218
6.06218
6.06218
6.06218
6.06218
6.06218
6.06218
6.06218
6.06218
6.06218
6.06218
6.06218
6.06218
6.06218
6.06218
6.06218
6.06218
6.06218
6.06218
6.06218
6.06218
6.06218
6.06218
6.0621
6.06086
6.04711
5.99289
6.67271
2.58436
0.801953
0.525227
0.468595
0.454905
0.448705
0.443286
0.438022
0.433041
0.428363
0.424006
0.419532
0.41461
0.409008
0.402958
0.397253
0.392231
0.387658
0.383251
0.378734
0.374009
0.369777
0.366075
0.362947
0.359694
0.355478
0.350197
0.344297
0.338663
0.333591
0.328866
0.324041
0.318633
0.312364
0.306141
0.300413
0.29527
0.29029
0.285027
0.279076
0.272881
0.266992
0.261479
0.256249
0.25089
0.245056
0.238827
0.232499
0.226191
0.219691
0.213144
0.206716
0.200543
0.194252
0.187625
0.180592
0.173837
0.167636
0.16133
0.154282
0.146774
0.139165
0.131765
0.125339
0.118877
0.112038
0.105725
0.100277
0.0952806
0.0909012
0.087539
0.0871129
0.0869831
0.0888273
6.06218
6.06218
6.06218
6.06218
6.06218
6.06218
6.06218
6.06218
6.06218
6.06218
6.06218
6.06218
6.06218
6.06218
6.06218
6.06218
6.06218
6.06218
6.06218
6.06218
6.06218
6.06218
6.06218
6.06218
6.06218
6.06218
6.06218
6.06218
6.06218
6.06218
6.06218
6.06218
6.06218
6.06218
6.06218
6.06218
6.06218
6.06218
6.06218
6.06218
6.0621
6.06088
6.04878
6.00948
6.81283
2.71689
0.812565
0.527178
0.469628
0.455625
0.449247
0.443818
0.438578
0.433368
0.428209
0.4232
0.418209
0.413198
0.407936
0.402709
0.397922
0.393802
0.390108
0.386443
0.382535
0.378142
0.373932
0.370098
0.366582
0.36287
0.358272
0.352687
0.346623
0.340627
0.334889
0.329423
0.32411
0.318737
0.313015
0.307231
0.301703
0.296618
0.291561
0.286209
0.280313
0.274269
0.268521
0.263147
0.258027
0.252636
0.246743
0.240486
0.234209
0.228024
0.221815
0.215412
0.208983
0.202612
0.196274
0.189951
0.183724
0.177688
0.171613
0.165069
0.157935
0.150808
0.143988
0.137279
0.131465
0.125513
0.119196
0.113217
0.108131
0.103719
0.10025
0.0981413
0.0992092
0.1004
0.102122
6.06218
6.06218
6.06218
6.06218
6.06218
6.06218
6.06218
6.06218
6.06218
6.06218
6.06218
6.06218
6.06218
6.06218
6.06218
6.06218
6.06218
6.06218
6.06218
6.06218
6.06218
6.06218
6.06218
6.06218
6.06218
6.06218
6.06218
6.06218
6.06218
6.06218
6.06218
6.06218
6.06218
6.06218
6.06218
6.06218
6.06218
6.06218
6.06218
6.06219
6.06223
6.06135
6.0518
6.03553
6.98764
2.92019
0.827961
0.530964
0.471476
0.45661
0.449643
0.443957
0.43846
0.433228
0.428231
0.423519
0.418948
0.414375
0.409777
0.405447
0.401412
0.397791
0.394379
0.390852
0.386961
0.38252
0.377939
0.373498
0.369111
0.364614
0.359625
0.354009
0.348035
0.342025
0.336156
0.330587
0.32542
0.320376
0.315145
0.309725
0.304431
0.299441
0.294437
0.289166
0.283349
0.277388
0.271751
0.266611
0.261553
0.256109
0.249991
0.243676
0.237539
0.231715
0.225876
0.21955
0.212906
0.206356
0.200074
0.194211
0.188794
0.18306
0.176648
0.169748
0.162473
0.155771
0.149505
0.143225
0.137659
0.131974
0.126049
0.120336
0.115762
0.112154
0.109857
0.109137
0.111403
0.113685
0.115207
6.06218
6.06218
6.06218
6.06218
6.06218
6.06218
6.06218
6.06218
6.06218
6.06218
6.06218
6.06218
6.06218
6.06218
6.06218
6.06218
6.06218
6.06218
6.06218
6.06218
6.06218
6.06218
6.06218
6.06218
6.06218
6.06218
6.06218
6.06218
6.06218
6.06218
6.06218
6.06218
6.06218
6.06218
6.06218
6.06218
6.06218
6.06218
6.06218
6.06218
6.06218
6.06197
6.05686
6.07703
7.15727
3.19684
0.846557
0.53527
0.472552
0.456407
0.449167
0.443848
0.439106
0.43471
0.430519
0.426558
0.422645
0.418691
0.414597
0.410545
0.406624
0.402915
0.399236
0.395291
0.390858
0.386003
0.380781
0.375439
0.370161
0.364945
0.359643
0.354079
0.348179
0.342296
0.336833
0.331815
0.32713
0.322367
0.317122
0.311815
0.306799
0.302286
0.297685
0.292561
0.286699
0.280864
0.275429
0.27052
0.265518
0.259921
0.25358
0.247275
0.24144
0.236002
0.230349
0.223858
0.216879
0.210182
0.204167
0.198967
0.193777
0.18783
0.180842
0.173441
0.166405
0.160047
0.154156
0.148279
0.143085
0.138063
0.132852
0.127776
0.123874
0.121273
0.120082
0.120581
0.123708
0.126882
0.128218
6.06218
6.06218
6.06218
6.06218
6.06218
6.06218
6.06218
6.06218
6.06218
6.06218
6.06218
6.06218
6.06218
6.06218
6.06218
6.06218
6.06218
6.06218
6.06218
6.06218
6.06218
6.06218
6.06218
6.06218
6.06218
6.06218
6.06218
6.06218
6.06218
6.06218
6.06218
6.06218
6.06218
6.06218
6.06218
6.06218
6.06218
6.06218
6.06218
6.06218
6.06224
6.06336
6.07706
6.18019
7.19834
3.52613
0.866311
0.538096
0.472599
0.457256
0.451195
0.446827
0.443028
0.43935
0.435658
0.432063
0.428376
0.424443
0.420128
0.415561
0.411074
0.406701
0.402451
0.397928
0.392744
0.386839
0.380688
0.374856
0.369492
0.364542
0.359582
0.354103
0.348253
0.342831
0.33798
0.333634
0.329238
0.324292
0.318776
0.313582
0.309006
0.304977
0.300679
0.295545
0.289562
0.283743
0.278464
0.273617
0.268611
0.262743
0.256191
0.249962
0.244408
0.23912
0.233427
0.226608
0.219457
0.212986
0.207591
0.202841
0.197524
0.191114
0.183889
0.176539
0.170141
0.164276
0.158858
0.153536
0.148938
0.144691
0.140073
0.135535
0.132432
0.130901
0.130844
0.132412
0.136181
0.14015
0.141382
6.06218
6.06218
6.06218
6.06218
6.06218
6.06218
6.06218
6.06218
6.06218
6.06218
6.06218
6.06218
6.06218
6.06218
6.06218
6.06218
6.06218
6.06218
6.06218
6.06218
6.06218
6.06218
6.06218
6.06218
6.06218
6.06218
6.06218
6.06218
6.06218
6.06218
6.06218
6.06218
6.06218
6.06218
6.06218
6.06218
6.06218
6.06218
6.06218
6.06218
6.06222
6.06273
6.06881
6.12477
6.9306
4.01586
0.897163
0.547747
0.477404
0.462438
0.456769
0.45256
0.448823
0.445056
0.441228
0.437327
0.433062
0.428304
0.422802
0.41736
0.41242
0.407878
0.403139
0.397702
0.391469
0.384955
0.379071
0.373996
0.369546
0.365123
0.360234
0.354547
0.349081
0.344277
0.340184
0.336307
0.332086
0.326873
0.321306
0.316306
0.312028
0.308177
0.303883
0.298549
0.292353
0.286439
0.281173
0.276258
0.271116
0.264945
0.258431
0.252401
0.247021
0.241707
0.235801
0.228753
0.221872
0.215928
0.211076
0.206264
0.200653
0.193885
0.186627
0.179924
0.174007
0.16864
0.163747
0.159189
0.15535
0.151817
0.147759
0.143766
0.141688
0.141265
0.142139
0.144657
0.14892
0.153705
0.15502
6.06218
6.06218
6.06218
6.06218
6.06218
6.06218
6.06218
6.06218
6.06218
6.06218
6.06218
6.06218
6.06218
6.06218
6.06218
6.06218
6.06218
6.06218
6.06218
6.06218
6.06218
6.06218
6.06218
6.06218
6.06218
6.06218
6.06218
6.06218
6.06218
6.06218
6.06218
6.06218
6.06218
6.06218
6.06218
6.06218
6.06218
6.06218
6.06218
6.06218
6.06215
6.06089
6.05329
6.08972
6.80145
5.10148
0.943895
0.5632
0.484619
0.468092
0.461367
0.456304
0.451912
0.447742
0.443704
0.439243
0.434
0.427878
0.421494
0.415621
0.410302
0.405534
0.400726
0.39556
0.389589
0.383753
0.378623
0.374317
0.370489
0.36652
0.361891
0.356647
0.351817
0.347607
0.343977
0.340274
0.335942
0.33049
0.324901
0.319914
0.315637
0.311612
0.307079
0.301373
0.295082
0.289275
0.28412
0.279228
0.274041
0.267897
0.261613
0.255784
0.250508
0.245173
0.239121
0.232249
0.225816
0.220302
0.215598
0.210558
0.204639
0.197693
0.190717
0.184444
0.178883
0.173957
0.16967
0.165962
0.162844
0.159677
0.156118
0.152839
0.151793
0.152347
0.153878
0.15723
0.162182
0.167666
0.169076
6.06218
6.06218
6.06218
6.06218
6.06218
6.06218
6.06218
6.06218
6.06218
6.06218
6.06218
6.06218
6.06218
6.06218
6.06218
6.06218
6.06218
6.06218
6.06218
6.06218
6.06218
6.06218
6.06218
6.06218
6.06218
6.06218
6.06218
6.06218
6.06218
6.06218
6.06218
6.06218
6.06218
6.06218
6.06218
6.06218
6.06218
6.06218
6.06218
6.06218
6.06218
6.06215
6.06332
6.09585
6.67021
7.08307
1.00326
0.579457
0.490165
0.470851
0.461934
0.455242
0.449609
0.444431
0.439698
0.434918
0.429779
0.423914
0.417984
0.41265
0.408009
0.403962
0.399848
0.395337
0.390135
0.385231
0.380989
0.377504
0.374219
0.370568
0.366072
0.36106
0.356442
0.35236
0.348755
0.344912
0.340259
0.334499
0.328815
0.323766
0.319464
0.315317
0.310679
0.30495
0.298937
0.293443
0.28847
0.283658
0.278485
0.272485
0.266469
0.260853
0.255667
0.250345
0.244303
0.237767
0.231702
0.226359
0.221482
0.216172
0.209979
0.203049
0.196293
0.19022
0.184933
0.1805
0.176913
0.173967
0.171398
0.168369
0.165167
0.162804
0.162652
0.164042
0.166073
0.170276
0.176016
0.182009
0.183503
6.06218
6.06218
6.06218
6.06218
6.06218
6.06218
6.06218
6.06218
6.06218
6.06218
6.06218
6.06218
6.06218
6.06218
6.06218
6.06218
6.06218
6.06218
6.06218
6.06218
6.06218
6.06218
6.06218
6.06218
6.06218
6.06218
6.06218
6.06218
6.06218
6.06218
6.06218
6.06218
6.06218
6.06218
6.06218
6.06218
6.06218
6.06218
6.06218
6.06218
6.06207
6.06046
6.05329
6.07707
6.55615
5.45513
1.07684
0.597875
0.491177
0.467802
0.457937
0.451158
0.445919
0.441286
0.437185
0.433053
0.428605
0.423451
0.41834
0.413816
0.40997
0.406562
0.403058
0.399116
0.394581
0.390339
0.386574
0.383356
0.380202
0.376494
0.371838
0.3667
0.361941
0.357686
0.353788
0.34962
0.344765
0.339168
0.333829
0.329076
0.324912
0.320737
0.316008
0.31036
0.304684
0.299427
0.294604
0.289824
0.284628
0.278722
0.272856
0.267347
0.26219
0.256829
0.25079
0.244351
0.238311
0.23284
0.227706
0.222126
0.21583
0.209132
0.202601
0.196774
0.191853
0.187992
0.185158
0.182801
0.180385
0.177448
0.174677
0.173364
0.173934
0.175942
0.178483
0.183665
0.190257
0.196602
0.198106
6.06218
6.06218
6.06218
6.06218
6.06218
6.06218
6.06218
6.06218
6.06218
6.06218
6.06218
6.06218
6.06218
6.06218
6.06218
6.06218
6.06218
6.06218
6.06218
6.06218
6.06218
6.06218
6.06218
6.06218
6.06218
6.06218
6.06218
6.06218
6.06218
6.06218
6.06218
6.06218
6.06218
6.06218
6.06218
6.06218
6.06218
6.06218
6.06218
6.06218
6.06218
6.0621
6.06167
6.06186
6.10073
4.60004
1.17256
0.618495
0.493723
0.468119
0.458568
0.452449
0.447951
0.443924
0.440335
0.436743
0.432857
0.428343
0.423863
0.419932
0.416582
0.413413
0.409943
0.405887
0.401389
0.397175
0.393354
0.390022
0.386716
0.382907
0.378196
0.373124
0.368472
0.364277
0.360272
0.355954
0.350935
0.345335
0.340099
0.335436
0.331219
0.326875
0.321963
0.316235
0.310561
0.30527
0.300365
0.295446
0.290059
0.284075
0.278238
0.272834
0.2677
0.262293
0.256244
0.249857
0.243885
0.238458
0.233369
0.228
0.222014
0.215569
0.20924
0.203731
0.199287
0.196103
0.193914
0.191829
0.189319
0.186619
0.184447
0.184147
0.185273
0.187775
0.190894
0.197118
0.204552
0.211171
0.212607
6.06218
6.06218
6.06218
6.06218
6.06218
6.06218
6.06218
6.06218
6.06218
6.06218
6.06218
6.06218
6.06218
6.06218
6.06218
6.06218
6.06218
6.06218
6.06218
6.06218
6.06218
6.06218
6.06218
6.06218
6.06218
6.06218
6.06218
6.06218
6.06218
6.06218
6.06218
6.06218
6.06218
6.06218
6.06218
6.06218
6.06218
6.06218
6.06218
6.06218
6.06218
6.06218
6.06191
6.05792
5.98203
4.63992
1.33326
0.652152
0.505394
0.476114
0.466003
0.459996
0.455674
0.451797
0.448119
0.444391
0.440419
0.435935
0.431646
0.427831
0.424566
0.421242
0.417302
0.412551
0.407339
0.402533
0.398282
0.394413
0.390416
0.385906
0.380807
0.37596
0.371563
0.367596
0.363643
0.359256
0.354074
0.348662
0.343704
0.339244
0.335104
0.330689
0.325538
0.319773
0.314237
0.30914
0.304352
0.29946
0.293952
0.28806
0.282501
0.277453
0.27248
0.267111
0.260951
0.254614
0.248843
0.243875
0.239307
0.234237
0.228468
0.222106
0.216076
0.211051
0.207215
0.204669
0.202843
0.20073
0.198221
0.195895
0.194476
0.194997
0.196528
0.199483
0.203403
0.210613
0.218688
0.225511
0.226791
6.06218
6.06218
6.06218
6.06218
6.06218
6.06218
6.06218
6.06218
6.06218
6.06218
6.06218
6.06218
6.06218
6.06218
6.06218
6.06218
6.06218
6.06218
6.06218
6.06218
6.06218
6.06218
6.06218
6.06218
6.06218
6.06218
6.06218
6.06218
6.06218
6.06218
6.06218
6.06218
6.06218
6.06218
6.06218
6.06218
6.06218
6.06218
6.06218
6.06218
6.06218
6.06218
6.06203
6.05988
6.02349
5.17019
1.54926
0.691968
0.518301
0.484099
0.473163
0.467489
0.463246
0.45927
0.455087
0.450465
0.445445
0.440779
0.436591
0.432962
0.429325
0.425285
0.420835
0.416025
0.411366
0.407011
0.403116
0.399306
0.395149
0.390324
0.385277
0.380635
0.376441
0.372589
0.36854
0.363868
0.358448
0.35316
0.348342
0.344021
0.339791
0.335097
0.329519
0.323776
0.318442
0.313522
0.308758
0.303699
0.297941
0.292207
0.286942
0.282122
0.277169
0.271598
0.265238
0.259191
0.254128
0.249952
0.245742
0.240815
0.234944
0.228702
0.223229
0.218804
0.215543
0.213432
0.211686
0.209442
0.207153
0.205402
0.204741
0.205876
0.207832
0.211185
0.216137
0.224158
0.232631
0.239593
0.240779
6.06218
6.06218
6.06218
6.06218
6.06218
6.06218
6.06218
6.06218
6.06218
6.06218
6.06218
6.06218
6.06218
6.06218
6.06218
6.06218
6.06218
6.06218
6.06218
6.06218
6.06218
6.06218
6.06218
6.06218
6.06218
6.06218
6.06218
6.06218
6.06218
6.06218
6.06218
6.06218
6.06218
6.06218
6.06218
6.06218
6.06218
6.06218
6.06218
6.06218
6.06218
6.06218
6.06213
6.06158
6.05848
5.83235
1.83637
0.735253
0.529094
0.488602
0.476601
0.471218
0.467303
0.463625
0.459845
0.455628
0.45123
0.447254
0.443745
0.440475
0.436953
0.432925
0.428362
0.423644
0.419189
0.414981
0.411063
0.406947
0.402367
0.397186
0.392192
0.38765
0.383565
0.379683
0.375479
0.370514
0.365006
0.359796
0.355083
0.350745
0.346298
0.34123
0.335386
0.329678
0.324438
0.319576
0.314746
0.309399
0.3035
0.297834
0.292664
0.287697
0.282512
0.276501
0.27029
0.264886
0.260529
0.256783
0.252635
0.247501
0.241501
0.235784
0.230952
0.227008
0.224176
0.222306
0.220499
0.218228
0.216367
0.215266
0.215374
0.216887
0.219315
0.223109
0.229059
0.237767
0.246405
0.253447
0.254604
6.06218
6.06218
6.06218
6.06218
6.06218
6.06218
6.06218
6.06218
6.06218
6.06218
6.06218
6.06218
6.06218
6.06218
6.06218
6.06218
6.06218
6.06218
6.06218
6.06218
6.06218
6.06218
6.06218
6.06218
6.06218
6.06218
6.06218
6.06218
6.06218
6.06218
6.06218
6.06218
6.06218
6.06218
6.06218
6.06218
6.06218
6.06218
6.06218
6.06218
6.06218
6.06219
6.06229
6.06299
6.09084
6.39544
2.29358
0.792449
0.543327
0.49573
0.484029
0.479814
0.476485
0.472954
0.468918
0.464668
0.460746
0.457233
0.453954
0.450536
0.446819
0.442826
0.438475
0.434178
0.430043
0.426003
0.421852
0.417288
0.412351
0.40711
0.402207
0.397776
0.393624
0.389374
0.384813
0.379589
0.374136
0.36903
0.364327
0.359752
0.354863
0.349284
0.343309
0.337656
0.332417
0.327475
0.322456
0.316781
0.310798
0.305137
0.299872
0.294629
0.289021
0.28277
0.276917
0.272047
0.268155
0.264423
0.259992
0.254484
0.248751
0.24369
0.239374
0.235813
0.233298
0.231543
0.229635
0.227524
0.226198
0.225668
0.226446
0.228212
0.231001
0.235364
0.242092
0.251413
0.260049
0.267119
0.268288
6.06218
6.06218
6.06218
6.06218
6.06218
6.06218
6.06218
6.06218
6.06218
6.06218
6.06218
6.06218
6.06218
6.06218
6.06218
6.06218
6.06218
6.06218
6.06218
6.06218
6.06218
6.06218
6.06218
6.06218
6.06218
6.06218
6.06218
6.06218
6.06218
6.06218
6.06218
6.06218
6.06218
6.06218
6.06218
6.06218
6.06218
6.06218
6.06218
6.06218
6.06218
6.06221
6.06257
6.06361
6.14362
7.14317
3.25546
0.871421
0.564331
0.507279
0.494299
0.490163
0.486897
0.483202
0.478622
0.473906
0.469591
0.465887
0.462341
0.458575
0.454271
0.450089
0.446384
0.443086
0.439756
0.43599
0.431602
0.426749
0.42189
0.417282
0.412908
0.408849
0.404721
0.400189
0.395142
0.389991
0.385051
0.380295
0.375643
0.37076
0.365464
0.359475
0.35346
0.347867
0.342641
0.337485
0.331979
0.325794
0.319643
0.313839
0.308288
0.302733
0.296737
0.290547
0.285045
0.280559
0.276767
0.272723
0.267752
0.262129
0.256878
0.252392
0.248515
0.245303
0.242996
0.2413
0.239385
0.237506
0.236704
0.236667
0.237869
0.239897
0.242881
0.247895
0.255196
0.265002
0.273583
0.280675
0.281912
6.06218
6.06218
6.06218
6.06218
6.06218
6.06218
6.06218
6.06218
6.06218
6.06218
6.06218
6.06218
6.06218
6.06218
6.06218
6.06218
6.06218
6.06218
6.06218
6.06218
6.06218
6.06218
6.06218
6.06218
6.06218
6.06218
6.06218
6.06218
6.06218
6.06218
6.06218
6.06218
6.06218
6.06218
6.06218
6.06218
6.06218
6.06218
6.06218
6.06218
6.06218
6.06219
6.0627
6.06683
6.09375
6.6663
6.30266
0.979726
0.588854
0.516175
0.5018
0.495748
0.491283
0.487271
0.483237
0.479145
0.474778
0.469908
0.464889
0.460303
0.456192
0.452575
0.449354
0.446147
0.442705
0.438825
0.434714
0.430753
0.426968
0.423407
0.419769
0.415787
0.41133
0.406818
0.402441
0.398287
0.394338
0.39027
0.385721
0.380653
0.375054
0.369392
0.364064
0.359012
0.354041
0.348773
0.342848
0.336423
0.330148
0.324172
0.318263
0.312292
0.305963
0.299875
0.294547
0.2902
0.286085
0.281406
0.275907
0.270461
0.265714
0.261643
0.258154
0.255261
0.253107
0.25146
0.249628
0.24798
0.247668
0.248144
0.249455
0.251874
0.254942
0.260616
0.268357
0.278465
0.287043
0.294162
0.295513
6.06218
6.06218
6.06218
6.06218
6.06218
6.06218
6.06218
6.06218
6.06218
6.06218
6.06218
6.06218
6.06218
6.06218
6.06218
6.06218
6.06218
6.06218
6.06218
6.06218
6.06218
6.06218
6.06218
6.06218
6.06218
6.06218
6.06218
6.06218
6.06218
6.06218
6.06218
6.06218
6.06218
6.06218
6.06218
6.06218
6.06218
6.06218
6.06218
6.06218
6.06218
6.06218
6.06222
6.06267
6.06863
6.23792
5.42729
1.13959
0.6264
0.523187
0.501321
0.49286
0.48767
0.483899
0.48043
0.476931
0.473221
0.468992
0.464491
0.460413
0.456769
0.453565
0.450484
0.44723
0.44366
0.439841
0.436143
0.432621
0.429309
0.425961
0.422303
0.418086
0.413704
0.409766
0.406302
0.40318
0.399912
0.396083
0.391519
0.386601
0.381876
0.377484
0.373311
0.369033
0.364226
0.358767
0.352844
0.34692
0.341145
0.335391
0.329512
0.323176
0.316593
0.310585
0.305394
0.300682
0.295785
0.290268
0.284482
0.279305
0.274912
0.271145
0.267962
0.265298
0.263304
0.261646
0.259897
0.258599
0.258808
0.259831
0.261094
0.264003
0.26721
0.273435
0.281549
0.29184
0.300479
0.307669
0.309223
6.06218
6.06218
6.06218
6.06218
6.06218
6.06218
6.06218
6.06218
6.06218
6.06218
6.06218
6.06218
6.06218
6.06218
6.06218
6.06218
6.06218
6.06218
6.06218
6.06218
6.06218
6.06218
6.06218
6.06218
6.06218
6.06218
6.06218
6.06218
6.06218
6.06218
6.06218
6.06218
6.06218
6.06218
6.06218
6.06218
6.06218
6.06218
6.06218
6.06218
6.06218
6.06218
6.06218
6.06208
6.06038
6.03124
5.19593
1.39598
0.68309
0.536873
0.506749
0.49606
0.490294
0.486593
0.48348
0.480504
0.477371
0.473678
0.469719
0.466015
0.462584
0.459318
0.455969
0.452416
0.448613
0.444722
0.441017
0.437479
0.434072
0.430427
0.426352
0.421793
0.417455
0.413615
0.410219
0.406966
0.403447
0.399357
0.394779
0.390506
0.386712
0.383323
0.379918
0.375947
0.37112
0.365859
0.360743
0.355899
0.351072
0.345858
0.340084
0.33377
0.327585
0.322092
0.317061
0.31177
0.305895
0.299491
0.293544
0.288508
0.284285
0.280721
0.277703
0.275186
0.273388
0.271636
0.26992
0.269276
0.269962
0.271542
0.272797
0.276256
0.279645
0.286338
0.294771
0.305283
0.314013
0.321358
0.323098
6.06218
6.06218
6.06218
6.06218
6.06218
6.06218
6.06218
6.06218
6.06218
6.06218
6.06218
6.06218
6.06218
6.06218
6.06218
6.06218
6.06218
6.06218
6.06218
6.06218
6.06218
6.06218
6.06218
6.06218
6.06218
6.06218
6.06218
6.06218
6.06218
6.06218
6.06218
6.06218
6.06218
6.06218
6.06218
6.06218
6.06218
6.06218
6.06218
6.06218
6.06218
6.06218
6.06218
6.06218
6.0624
6.08356
6.04045
1.8712
0.765452
0.561017
0.521734
0.509719
0.503572
0.499122
0.495301
0.491815
0.488378
0.484772
0.481195
0.477681
0.474228
0.470663
0.466801
0.462698
0.458503
0.454517
0.450722
0.446954
0.443067
0.438803
0.434118
0.429157
0.424558
0.420427
0.416708
0.412997
0.408977
0.404397
0.399849
0.395715
0.391944
0.388429
0.384714
0.38036
0.375532
0.371017
0.366946
0.36313
0.359036
0.354169
0.3485
0.342876
0.337777
0.333056
0.328107
0.322513
0.316018
0.309256
0.30329
0.298281
0.29412
0.290604
0.28766
0.285298
0.283462
0.281548
0.28008
0.28019
0.281244
0.283359
0.284676
0.288609
0.292265
0.299377
0.308136
0.318939
0.327799
0.335272
0.337172
6.06218
6.06218
6.06218
6.06218
6.06218
6.06218
6.06218
6.06218
6.06218
6.06218
6.06218
6.06218
6.06218
6.06218
6.06218
6.06218
6.06218
6.06218
6.06218
6.06218
6.06218
6.06218
6.06218
6.06218
6.06218
6.06218
6.06218
6.06218
6.06218
6.06218
6.06218
6.06218
6.06218
6.06218
6.06218
6.06218
6.06218
6.06218
6.06218
6.06218
6.06218
6.06218
6.06218
6.06184
6.05556
6.09455
6.97766
3.00897
0.878849
0.591791
0.539915
0.526631
0.520848
0.516062
0.51133
0.506593
0.502057
0.498014
0.49429
0.490815
0.487346
0.483632
0.479547
0.475111
0.470831
0.466913
0.463329
0.459717
0.455655
0.451
0.445713
0.440214
0.435069
0.430375
0.425989
0.421605
0.41696
0.412089
0.407474
0.403187
0.399166
0.395107
0.390704
0.385768
0.381
0.376683
0.372765
0.368981
0.364785
0.359836
0.354942
0.350512
0.346456
0.34232
0.33755
0.331747
0.325124
0.318861
0.313434
0.308779
0.304703
0.301109
0.2982
0.295942
0.293869
0.291844
0.29086
0.291586
0.292727
0.295358
0.296757
0.301032
0.305045
0.312612
0.321761
0.332908
0.341846
0.349408
0.351478
6.06218
6.06218
6.06218
6.06218
6.06218
6.06218
6.06218
6.06218
6.06218
6.06218
6.06218
6.06218
6.06218
6.06218
6.06218
6.06218
6.06218
6.06218
6.06218
6.06218
6.06218
6.06218
6.06218
6.06218
6.06218
6.06218
6.06218
6.06218
6.06218
6.06218
6.06218
6.06218
6.06218
6.06218
6.06218
6.06218
6.06218
6.06218
6.06218
6.06218
6.06218
6.06218
6.06218
6.06222
6.06312
6.0901
6.59002
7.47481
1.0512
0.625956
0.550836
0.535813
0.530905
0.526614
0.521969
0.516915
0.511786
0.507038
0.502701
0.498621
0.494703
0.490865
0.486925
0.482934
0.47914
0.475764
0.472694
0.469455
0.465707
0.461424
0.456706
0.451792
0.446938
0.44227
0.43762
0.432787
0.427573
0.42237
0.417434
0.412719
0.408075
0.403302
0.398156
0.392931
0.388106
0.383662
0.379454
0.375122
0.370265
0.365346
0.36098
0.35715
0.353547
0.349502
0.344489
0.338579
0.332975
0.328031
0.323653
0.319592
0.315678
0.312227
0.30939
0.30699
0.304703
0.302785
0.302274
0.303414
0.304482
0.307569
0.30901
0.31354
0.318037
0.326118
0.335753
0.347109
0.356106
0.363776
0.366066
6.06218
6.06218
6.06218
6.06218
6.06218
6.06218
6.06218
6.06218
6.06218
6.06218
6.06218
6.06218
6.06218
6.06218
6.06218
6.06218
6.06218
6.06218
6.06218
6.06218
6.06218
6.06218
6.06218
6.06218
6.06218
6.06218
6.06218
6.06218
6.06218
6.06218
6.06218
6.06218
6.06218
6.06218
6.06218
6.06218
6.06218
6.06218
6.06218
6.06218
6.06218
6.06218
6.06218
6.06218
6.0622
6.06147
6.04458
5.27693
1.32626
0.678989
0.559841
0.536297
0.529801
0.526915
0.524307
0.521227
0.517796
0.514218
0.510519
0.506662
0.502762
0.498908
0.495084
0.491222
0.487456
0.48405
0.480885
0.477561
0.473836
0.46987
0.465821
0.461645
0.457387
0.452986
0.44834
0.443376
0.438245
0.433215
0.428293
0.423351
0.418232
0.412824
0.407147
0.401747
0.396744
0.392024
0.387311
0.382299
0.377033
0.372177
0.367853
0.363945
0.35991
0.355263
0.34998
0.345059
0.340936
0.337306
0.33373
0.330005
0.326307
0.323207
0.320662
0.318164
0.315842
0.314253
0.314185
0.315524
0.316491
0.319985
0.32143
0.326222
0.331281
0.339975
0.350034
0.361545
0.370637
0.378434
0.380892
6.06218
6.06218
6.06218
6.06218
6.06218
6.06218
6.06218
6.06218
6.06218
6.06218
6.06218
6.06218
6.06218
6.06218
6.06218
6.06218
6.06218
6.06218
6.06218
6.06218
6.06218
6.06218
6.06218
6.06218
6.06218
6.06218
6.06218
6.06218
6.06218
6.06218
6.06218
6.06218
6.06218
6.06218
6.06218
6.06218
6.06218
6.06218
6.06218
6.06218
6.06218
6.06218
6.06218
6.06219
6.06232
6.06338
6.0884
6.11039
1.88022
0.781341
0.585839
0.549266
0.539793
0.536339
0.534303
0.532041
0.52916
0.52586
0.52226
0.518304
0.514136
0.510067
0.506139
0.502136
0.498084
0.494193
0.49055
0.486843
0.482957
0.479089
0.475226
0.471187
0.466981
0.462532
0.457862
0.452991
0.448132