/*--------------------------------*- C++ -*----------------------------------*\
| =========                 |                                                 |
| \\      /  F ield         | OpenFOAM: The Open Source CFD Toolbox           |
|  \\    /   O peration     | Version:  2.2.x                                 |
|   \\  /    A nd           | Web:      www.OpenFOAM.org                      |
|    \\/     M anipulation  |                                                 |
\*---------------------------------------------------------------------------*/
FoamFile
{
    version     2.0;
    format      ascii;
    class       volScalarField;
    location    "1.2";
    object      rho;
}
// * * * * * * * * * * * * * * * * * * * * * * * * * * * * * * * * * * * * * //

dimensions      [1 -3 0 0 0 0 0];

internalField   nonuniform List<scalar> 
14161
(
1
1
1
1
1
1
1
1
1
1
1
1
1
1
1
1
1
1
1
0.999971
0.999764
1.1032
0.747403
1.75424
2.51744
2.61193
2.75934
2.92091
2.98153
2.98433
2.96861
2.93003
2.90466
2.90018
2.90307
2.9084
2.91669
2.92656
2.9369
2.94491
2.95075
2.95456
2.9568
2.95784
2.95801
2.95769
2.95711
2.95634
2.95541
2.95437
2.95348
2.95297
2.95296
2.95341
2.95463
2.95709
2.96121
2.96647
2.97083
2.97327
2.97431
2.97475
2.97503
2.9753
2.97561
2.97616
2.97728
2.97937
2.98291
2.98845
2.99633
3.0069
3.02054
3.03733
3.05275
3.06316
3.06876
3.07074
3.07078
3.07023
3.06911
3.06739
3.06517
3.06298
3.0619
3.06193
3.0623
3.06283
3.06349
3.06439
3.06595
3.06901
3.07486
3.08481
3.10112
3.11944
3.12951
3.13164
3.13129
3.12914
3.12424
3.11893
3.11723
3.11818
3.12279
3.13341
3.14502
3.14797
3.14688
3.14457
3.1441
3.14589
3.1482
3.1481
3.14696
3.14505
3.14151
3.13198
3.12067
1
1
1
1
1
1
1
1
1
1
1
1
1
1
1
1
1
1
1
0.999991
0.999942
0.817608
1.2758
2.38182
2.87198
2.6462
2.64415
2.72804
2.81401
2.84699
2.859
2.8659
2.87477
2.88636
2.89815
2.90931
2.91928
2.92931
2.93836
2.94552
2.95108
2.95478
2.95704
2.9581
2.95834
2.95804
2.9575
2.95678
2.95592
2.95491
2.95398
2.95342
2.9534
2.95384
2.9551
2.9576
2.96177
2.96705
2.9714
2.97379
2.97484
2.97523
2.97533
2.97549
2.97577
2.97628
2.97732
2.97931
2.98274
2.98815
2.99593
3.00645
3.02017
3.03707
3.05267
3.06311
3.06885
3.07102
3.07115
3.07053
3.06932
3.06754
3.06523
3.06299
3.06186
3.06182
3.0621
3.06262
3.06329
3.06421
3.06581
3.06896
3.07495
3.085
3.10139
3.11963
3.12953
3.13176
3.13138
3.12915
3.12417
3.11882
3.11713
3.11811
3.12277
3.13357
3.14496
3.14773
3.14657
3.14424
3.14382
3.14565
3.14784
3.14767
3.14647
3.14454
3.14091
3.13124
3.11983
1
1
1
1
1
1
1
1
1
1
1
1
1
1
1
1
1
1
1
0.999999
1.00008
1.0528
0.77753
1.7553
2.69802
2.74433
2.78837
2.80837
2.81447
2.81477
2.8195
2.83418
2.85517
2.8772
2.89501
2.90861
2.92011
2.92992
2.93842
2.9453
2.95079
2.95445
2.95669
2.95773
2.95792
2.95761
2.95707
2.95635
2.95549
2.9545
2.95353
2.95293
2.95287
2.95326
2.95444
2.9568
2.96079
2.9659
2.97014
2.97234
2.97341
2.97389
2.97387
2.97388
2.97388
2.97423
2.97536
2.97735
2.98078
2.9862
2.99417
3.00502
3.01921
3.03646
3.0522
3.0627
3.06838
3.07053
3.07067
3.07015
3.06898
3.06716
3.0648
3.06244
3.06116
3.06096
3.06113
3.0616
3.06225
3.06319
3.06489
3.06821
3.07443
3.08484
3.10169
3.11976
3.12927
3.13136
3.13093
3.12852
3.12337
3.11807
3.11648
3.11762
3.12248
3.13382
3.1447
3.14704
3.14576
3.14341
3.14314
3.14512
3.14713
3.14683
3.14552
3.1435
3.13976
3.12993
3.1184
1
1
1
1
1
1
1
1
1
1
1
1
1
1
1
1
1
1
0.999995
1.00005
1.00086
1.04711
0.958454
1.83164
2.7895
2.82588
2.85097
2.84798
2.83299
2.8237
2.82421
2.83316
2.85269
2.87564
2.89503
2.90936
2.9206
2.92982
2.93804
2.94502
2.95065
2.95447
2.95679
2.9579
2.95803
2.95769
2.95713
2.95639
2.95546
2.95439
2.95335
2.95266
2.95254
2.95288
2.95391
2.95614
2.96003
2.96497
2.96896
2.97101
2.97202
2.9725
2.97249
2.97236
2.9722
2.97242
2.97344
2.97538
2.97897
2.98461
2.99297
3.00423
3.01901
3.0366
3.0521
3.06233
3.06796
3.07015
3.07029
3.06978
3.06867
3.06694
3.06464
3.06218
3.06069
3.06008
3.06008
3.06038
3.06094
3.06187
3.0637
3.06721
3.07389
3.08503
3.10269
3.1203
3.12899
3.1307
3.1301
3.12737
3.12184
3.11677
3.11545
3.11685
3.12216
3.1342
3.14426
3.14601
3.14456
3.1422
3.1421
3.14423
3.14598
3.14551
3.14408
3.14196
3.13807
3.12806
3.11628
1
1
1
1
1
1
1
1
1
1
1
1
1
1
1
1
1
1
1
0.999973
0.998831
1.02055
1.004
1.86246
2.82653
2.82331
2.83135
2.82607
2.81759
2.81533
2.8193
2.83261
2.85311
2.87601
2.89491
2.90882
2.92009
2.92954
2.93805
2.9454
2.95136
2.95548
2.95812
2.95924
2.9593
2.95897
2.95822
2.95709
2.95561
2.95418
2.95295
2.9522
2.95205
2.95231
2.95332
2.95552
2.9594
2.96427
2.96817
2.9702
2.97121
2.97167
2.9716
2.97145
2.97141
2.97164
2.97263
2.97458
2.97821
2.98391
2.99245
3.00394
3.01907
3.03675
3.05194
3.06186
3.06737
3.06949
3.0696
3.06907
3.06791
3.06612
3.06371
3.06121
3.05954
3.05873
3.05852
3.05866
3.05915
3.06011
3.06203
3.06577
3.07293
3.08478
3.10315
3.12043
3.12848
3.12988
3.12912
3.12609
3.12019
3.11533
3.11429
3.11586
3.12173
3.13428
3.1436
3.14478
3.14314
3.14077
3.14081
3.14307
3.14447
3.14383
3.14226
3.14
3.13591
3.12564
3.11359
1
1
1
1
1
1
1
1
1
1
1
1
1
1
1
1
1
1
1
0.999979
0.999797
1.00226
1.01418
1.87546
2.81323
2.80301
2.8075
2.80647
2.80601
2.80854
2.81667
2.83223
2.85395
2.87698
2.89519
2.9086
2.91963
2.92891
2.93714
2.94411
2.94978
2.95362
2.95606
2.95725
2.9574
2.95707
2.9565
2.9557
2.95466
2.95345
2.95227
2.95154
2.95139
2.95166
2.95268
2.95493
2.95889
2.96376
2.96762
2.96964
2.97067
2.97114
2.9711
2.97098
2.97096
2.97126
2.97225
2.97423
2.97795
2.98374
2.9924
3.00399
3.01931
3.03695
3.0518
3.06139
3.06665
3.06858
3.06862
3.06804
3.06684
3.06505
3.06262
3.06009
3.05829
3.05747
3.0573
3.05743
3.0579
3.05889
3.06086
3.06474
3.07219
3.08461
3.10356
3.12046
3.12788
3.12905
3.12816
3.12491
3.11877
3.11395
3.11302
3.11474
3.12105
3.13396
3.14264
3.1434
3.14154
3.13917
3.13932
3.14164
3.14268
3.14186
3.1401
3.13768
3.13338
3.12269
3.11037
1
1
1
1
1
1
1
1
1
1
1
1
1
1
1
1
1
1
1
0.999995
1
1.00037
1.01048
1.87297
2.80277
2.79658
2.80123
2.80243
2.80425
2.80972
2.81976
2.83562
2.85699
2.8786
2.89565
2.90844
2.91916
2.92836
2.93652
2.94345
2.94902
2.95278
2.95513
2.95629
2.95644
2.95616
2.95562
2.95486
2.95389
2.95274
2.95154
2.95081
2.95065
2.95091
2.95196
2.95426
2.95829
2.96325
2.96717
2.96926
2.97034
2.97086
2.97089
2.97081
2.97085
2.9712
2.97218
2.97415
2.97788
2.98368
2.99234
3.00396
3.01935
3.03693
3.05156
3.06087
3.06588
3.06761
3.0676
3.06697
3.06573
3.0639
3.06142
3.0589
3.05721
3.0564
3.05616
3.05632
3.05679
3.05788
3.05991
3.06394
3.07162
3.08454
3.10387
3.12027
3.12706
3.12801
3.12698
3.1235
3.11713
3.1124
3.11161
3.11342
3.12018
3.13331
3.14139
3.14176
3.13968
3.13731
3.13754
3.13983
3.14049
3.13949
3.13754
3.13495
3.13044
3.11924
3.10659
1
1
1
1
1
1
1
1
1
1
1
1
1
1
1
1
1
1
1
0.999999
1.00001
1.00005
1.0049
1.86683
2.80099
2.79929
2.80082
2.80275
2.80518
2.8119
2.82335
2.83995
2.86075
2.8809
2.89679
2.90889
2.91916
2.92816
2.93622
2.94313
2.9486
2.95228
2.95457
2.95567
2.95581
2.95554
2.95501
2.95424
2.95322
2.95201
2.95075
2.95002
2.94984
2.9501
2.95117
2.95356
2.95768
2.96276
2.96676
2.9689
2.97004
2.97061
2.97068
2.97064
2.97064
2.97101
2.97198
2.97392
2.97761
2.98337
2.99197
3.00356
3.01896
3.03645
3.05083
3.05992
3.06471
3.06632
3.06626
3.0656
3.06434
3.06246
3.05998
3.05751
3.05594
3.05516
3.05494
3.05513
3.05565
3.05685
3.05895
3.06314
3.07101
3.08428
3.10383
3.11979
3.12603
3.12678
3.12562
3.12193
3.11536
3.11074
3.11007
3.11197
3.11918
3.13244
3.13985
3.13991
3.13752
3.13519
3.13548
3.13764
3.13794
3.13672
3.13457
3.13183
3.12703
3.11525
3.10221
1
1
1
1
1
1
1
1
1
1
1
1
1
1
1
1
1
1
1
1
1
0.999987
1.0036
1.86089
2.80059
2.80207
2.8012
2.80224
2.80448
2.81123
2.8217
2.83844
2.85978
2.8798
2.89526
2.90717
2.91744
2.92654
2.93485
2.94192
2.94755
2.95127
2.95369
2.95483
2.95498
2.95473
2.95419
2.95336
2.95226
2.95095
2.9497
2.94898
2.94879
2.94906
2.95022
2.95274
2.95705
2.96219
2.96613
2.96826
2.96941
2.96998
2.97005
2.97005
2.97003
2.97042
2.97144
2.97345
2.97722
2.98305
2.99172
3.00342
3.01895
3.03622
3.05013
3.05888
3.06342
3.06487
3.06477
3.06408
3.0628
3.06088
3.05838
3.05597
3.05453
3.05381
3.05367
3.05387
3.05446
3.05573
3.05789
3.06222
3.07026
3.08385
3.1035
3.119
3.12474
3.12532
3.12404
3.12013
3.11336
3.10889
3.10833
3.11034
3.11804
3.1313
3.13801
3.13778
3.13508
3.1328
3.13313
3.13508
3.13506
3.13358
3.13122
3.12832
3.12313
3.11076
3.09723
1
1
1
1
1
1
1
1
1
1
1
1
1
1
1
1
1
1
1
1
1
0.999979
1.00254
1.85144
2.79909
2.80434
2.8039
2.80363
2.80547
2.81199
2.82238
2.83961
2.86093
2.88028
2.89501
2.90652
2.91656
2.92561
2.93398
2.94106
2.94672
2.95039
2.95282
2.95389
2.95401
2.95376
2.95317
2.95224
2.95106
2.94963
2.94842
2.94775
2.94758
2.9479
2.94922
2.95195
2.95654
2.96163
2.96529
2.96725
2.96829
2.96875
2.96875
2.96876
2.96867
2.96914
2.97023
2.9724
2.97634
2.98244
2.99143
3.00347
3.0193
3.03625
3.04948
3.05775
3.06198
3.06327
3.06313
3.06242
3.06112
3.05916
3.05662
3.05424
3.05289
3.05226
3.05216
3.05239
3.05307
3.05436
3.0566
3.06109
3.06931
3.08322
3.1029
3.11786
3.12308
3.1235
3.12209
3.11796
3.11109
3.1068
3.10636
3.10854
3.11672
3.12983
3.13585
3.13532
3.13234
3.13011
3.13049
3.13215
3.13182
3.13007
3.12755
3.12439
3.11877
3.10585
3.09177
1
1
1
1
1
1
1
1
1
1
1
1
1
1
1
1
1
1
1
1
1
1
1.00299
1.84184
2.79707
2.80445
2.80434
2.80433
2.80625
2.81302
2.82378
2.84178
2.86278
2.88096
2.89491
2.906
2.91588
2.92488
2.93327
2.94031
2.94584
2.94937
2.95167
2.9526
2.9527
2.95241
2.95174
2.95072
2.94944
2.94794
2.94682
2.94618
2.94604
2.94644
2.94796
2.95094
2.95575
2.96072
2.96406
2.96585
2.96676
2.96708
2.96704
2.96699
2.96687
2.96746
2.96865
2.97101
2.97516
2.98156
2.99092
3.00335
3.01945
3.03603
3.04861
3.05642
3.06035
3.06149
3.06132
3.06062
3.0593
3.05729
3.05471
3.05236
3.05108
3.05056
3.05051
3.05075
3.05146
3.05276
3.05507
3.05973
3.06815
3.08244
3.10208
3.11638
3.12104
3.12131
3.11979
3.11543
3.10848
3.10443
3.10412
3.10654
3.11523
3.12804
3.13336
3.13254
3.1293
3.12712
3.12752
3.12884
3.12821
3.12621
3.12345
3.11999
3.1139
3.10043
3.08574
1
1
1
1
1
1
1
1
1
1
1
1
1
1
1
1
1
1
1
1
1
1.00001
1.00414
1.83123
2.79452
2.80073
2.80013
2.7997
2.8025
2.8104
2.82295
2.84237
2.86325
2.88056
2.89388
2.90475
2.91455
2.92368
2.93216
2.93916
2.94462
2.94805
2.95028
2.95109
2.95115
2.9508
2.95003
2.9489
2.94749
2.94595
2.94494
2.94438
2.9443
2.94483
2.94657
2.94985
2.95485
2.95965
2.9627
2.9643
2.96506
2.9653
2.9652
2.96507
2.96503
2.96574
2.96702
2.96961
2.97397
2.98069
2.99041
3.00326
3.01958
3.0356
3.04743
3.05473
3.05831
3.0593
3.05911
3.05839
3.05704
3.05497
3.05235
3.05006
3.04886
3.04844
3.04846
3.04874
3.04946
3.0508
3.05324
3.05812
3.06683
3.08158
3.10113
3.11461
3.11867
3.11879
3.11709
3.11247
3.10549
3.10172
3.10157
3.1043
3.11349
3.12592
3.13053
3.12944
3.12597
3.12384
3.12424
3.12521
3.12431
3.122
3.11894
3.11514
3.10859
3.09458
3.0792
1
1
1
1
1
1
1
1
1
1
1
1
1
1
1
1
1
1
1
1
1.00001
0.999907
1.00353
1.81651
2.7915
2.79739
2.79722
2.79694
2.80115
2.81046
2.82422
2.84401
2.8643
2.88063
2.89335
2.90402
2.91385
2.92307
2.9316
2.93843
2.94367
2.94686
2.94882
2.94936
2.94932
2.94881
2.9479
2.94665
2.94506
2.94361
2.94272
2.94229
2.94231
2.94307
2.94511
2.94881
2.95399
2.95855
2.96127
2.96268
2.96329
2.96342
2.96324
2.96305
2.96314
2.96397
2.96537
2.96826
2.97291
2.98006
2.99015
3.00345
3.01985
3.03511
3.04609
3.05281
3.05602
3.05684
3.05664
3.05589
3.05448
3.05232
3.04966
3.04745
3.04634
3.046
3.0461
3.04642
3.04716
3.04855
3.05115
3.0563
3.06534
3.08066
3.10001
3.11257
3.11601
3.116
3.11408
3.10917
3.10221
3.0988
3.09882
3.10187
3.11155
3.12349
3.1274
3.12605
3.12235
3.12027
3.12064
3.12121
3.11998
3.11737
3.11402
3.10986
3.10279
3.08834
3.07218
1
1
1
1
1
1
1
1
1
1
1
1
1
1
1
1
1
1
1
1
1
1.00001
1.00444
1.80134
2.78848
2.79366
2.79371
2.79414
2.79948
2.80898
2.82478
2.84603
2.86554
2.88067
2.89287
2.90339
2.91336
2.92264
2.93108
2.9376
2.94245
2.94533
2.94689
2.94713
2.94702
2.94634
2.94527
2.94386
2.94224
2.94095
2.94022
2.93993
2.94009
2.9412
2.9436
2.9478
2.95305
2.95719
2.95954
2.96071
2.96119
2.96117
2.96093
2.96077
2.96103
2.96196
2.96361
2.96682
2.9718
2.97947
2.99
3.0038
3.02008
3.03443
3.04451
3.05062
3.05346
3.05412
3.05387
3.05308
3.05161
3.04935
3.04664
3.04451
3.04348
3.0432
3.04337
3.04373
3.04449
3.04595
3.04871
3.05419
3.06368
3.07964
3.0987
3.11023
3.11306
3.11288
3.1107
3.10546
3.09859
3.09554
3.09574
3.09913
3.1093
3.12065
3.12386
3.12225
3.11831
3.11627
3.11658
3.11675
3.11519
3.11225
3.10859
3.10402
3.09646
3.08159
3.06456
1
1
1
1
1
1
1
1
1
1
1
1
1
1
1
1
1
1
1
1
1
0.999999
1.0052
1.78503
2.78612
2.78962
2.78908
2.79064
2.79747
2.80821
2.82682
2.84889
2.86713
2.88105
2.89279
2.90317
2.91317
2.92239
2.93052
2.9366
2.94096
2.94344
2.94445
2.94446
2.94419
2.94334
2.94211
2.94061
2.93908
2.93801
2.93748
2.93734
2.93775
2.9393
2.94217
2.94688
2.95193
2.95549
2.95742
2.95832
2.95863
2.95844
2.95816
2.95808
2.95857
2.95965
2.9616
2.96515
2.9706
2.97889
2.98991
3.00425
3.02012
3.03342
3.04261
3.04812
3.05057
3.05105
3.05077
3.04993
3.04838
3.04599
3.04325
3.04124
3.04031
3.04008
3.0403
3.04071
3.04148
3.04301
3.04594
3.05179
3.06181
3.07848
3.09713
3.10758
3.10986
3.1095
3.10702
3.10142
3.0947
3.09203
3.09241
3.09618
3.10687
3.11751
3.12005
3.11816
3.11397
3.112
3.11223
3.11195
3.11006
3.10679
3.10278
3.09777
3.08971
3.07445
3.05643
1
1
1
1
1
1
1
1
1
1
1
1
1
1
1
1
1
1
1
1
1
0.999989
1.00581
1.76708
2.78369
2.78546
2.78474
2.78801
2.79614
2.8092
2.83042
2.85201
2.86863
2.88155
2.89292
2.90312
2.91304
2.92204
2.92965
2.93518
2.93896
2.94095
2.94143
2.94126
2.94077
2.93978
2.93844
2.93696
2.93561
2.93482
2.93451
2.93452
2.93533
2.93736
2.94082
2.94589
2.95047
2.95331
2.95475
2.95542
2.95552
2.95513
2.95488
2.95492
2.95568
2.95694
2.95928
2.96322
2.96932
2.97831
2.98996
3.00478
3.01995
3.03205
3.04034
3.04519
3.04726
3.0476
3.04728
3.0464
3.04477
3.04224
3.03949
3.03762
3.03679
3.03658
3.03683
3.03732
3.0381
3.0397
3.0428
3.04907
3.05971
3.07711
3.09522
3.10455
3.10634
3.1058
3.10298
3.097
3.09051
3.08819
3.08876
3.09296
3.10409
3.11395
3.11587
3.11368
3.10926
3.10737
3.10748
3.10673
3.10453
3.10093
3.09651
3.09102
3.08252
3.06688
3.04781
1
1
1
1
1
1
1
1
1
1
1
1
1
1
1
1
1
1
1
1
1
0.999984
1.00671
1.74738
2.78052
2.78063
2.78041
2.78554
2.7954
2.81202
2.83513
2.85537
2.87022
2.88226
2.89325
2.90321
2.91298
2.92154
2.92845
2.93331
2.93638
2.93771
2.93782
2.93746
2.9368
2.93569
2.93435
2.93299
2.93193
2.93141
2.93129
2.93157
2.93292
2.93544
2.93958
2.9447
2.94849
2.95056
2.95155
2.95197
2.95187
2.95132
2.95114
2.95139
2.95236
2.95389
2.95676
2.96126
2.96823
2.97796
2.99032
3.00538
3.0195
3.0303
3.03765
3.04184
3.04355
3.04378
3.04343
3.04247
3.04073
3.03807
3.03534
3.03362
3.03288
3.03269
3.03294
3.03353
3.03436
3.03602
3.03933
3.04605
3.05739
3.07548
3.09289
3.10113
3.1025
3.10175
3.09858
3.09224
3.08602
3.08398
3.08477
3.08943
3.10094
3.10997
3.11128
3.10872
3.1041
3.10231
3.10219
3.10104
3.09849
3.09455
3.08969
3.08374
3.07476
3.05873
3.03854
1
1
1
1
1
1
1
1
1
1
1
1
1
1
1
1
1
1
1
1
1
0.999917
1.0071
1.72355
2.77689
2.77615
2.77771
2.78524
2.79734
2.81748
2.84074
2.85879
2.87176
2.88298
2.89352
2.90321
2.91268
2.92062
2.92669
2.93078
2.93308
2.93368
2.93364
2.93307
2.93229
2.9312
2.92994
2.92878
2.92805
2.92779
2.92784
2.92858
2.93051
2.93364
2.93838
2.94299
2.94584
2.94725
2.94793
2.94804
2.94766
2.94713
2.94709
2.94762
2.94873
2.95068
2.95421
2.9595
2.96748
2.97787
2.99095
3.00577
3.01859
3.02811
3.03455
3.03809
3.03947
3.03959
3.03919
3.03813
3.03626
3.03348
3.03083
3.02925
3.0286
3.02843
3.02866
3.02933
3.03026
3.03201
3.03558
3.04276
3.05483
3.07353
3.09015
3.09732
3.09831
3.09735
3.09383
3.08717
3.08122
3.07943
3.08047
3.08565
3.09745
3.10561
3.10632
3.10335
3.09858
3.09691
3.09645
3.09497
3.09208
3.08776
3.08242
3.07601
3.06657
3.05009
3.02876
1
1
1
1
1
1
1
1
1
1
1
1
1
1
1
1
1
1
1
1
1
0.999894
1.00805
1.69663
2.77239
2.77207
2.7763
2.78604
2.80167
2.82458
2.84599
2.8614
2.87287
2.88339
2.8935
2.903
2.91194
2.91909
2.92416
2.92733
2.92883
2.92898
2.9288
2.92813
2.92739
2.92638
2.92522
2.92435
2.92395
2.92391
2.92428
2.92564
2.92811
2.93196
2.93693
2.94058
2.9425
2.94338
2.94379
2.94362
2.94294
2.94264
2.94281
2.94359
2.94494
2.9475
2.9517
2.958
2.96695
2.978
2.9917
3.00572
3.01715
3.02549
3.03099
3.03387
3.03493
3.03497
3.03451
3.03332
3.03128
3.02839
3.02586
3.02442
3.02387
3.02373
3.02393
3.02465
3.02572
3.02762
3.03154
3.03918
3.05201
3.07123
3.08699
3.0931
3.09376
3.09258
3.08873
3.0818
3.07614
3.07459
3.07584
3.0816
3.09362
3.10084
3.10103
3.09759
3.09276
3.09115
3.09034
3.0886
3.08535
3.08057
3.07472
3.06789
3.05788
3.04096
3.01836
1
1
1
1
1
1
1
1
1
1
1
1
1
1
1
1
1
1
1
1
1
0.999847
1.00906
1.66525
2.76573
2.76805
2.77585
2.78865
2.80842
2.83201
2.85043
2.86338
2.87371
2.88365
2.89342
2.90274
2.91085
2.91691
2.92076
2.92294
2.92371
2.92368
2.9234
2.92278
2.92205
2.92113
2.92021
2.91969
2.91954
2.91973
2.92069
2.92276
2.92592
2.93047
2.93482
2.93734
2.93845
2.93897
2.93898
2.93854
2.93783
2.9378
2.93818
2.93919
2.941
2.94436
2.94943
2.95691
2.96667
2.97849
2.99237
3.0051
3.01508
3.02229
3.02686
3.0291
3.02991
3.02989
3.02936
3.02802
3.0258
3.02285
3.02048
3.01918
3.01874
3.01862
3.01882
3.01955
3.02075
3.02284
3.02721
3.03533
3.04899
3.06856
3.08333
3.08842
3.0888
3.08739
3.08319
3.07604
3.07069
3.0694
3.07086
3.07723
3.0893
3.09557
3.09532
3.09133
3.08649
3.08488
3.08375
3.08177
3.07816
3.0729
3.06659
3.05932
3.04869
3.03129
3.00744
1
1
1
1
1
1
1
1
1
1
1
1
1
1
1
1
1
1
1
1
1
0.999788
1.01008
1.62811
2.76034
2.76578
2.77769
2.79433
2.81711
2.83838
2.85364
2.86454
2.87415
2.88359
2.89319
2.9021
2.90895
2.91363
2.91624
2.91762
2.91789
2.91778
2.9175
2.91693
2.91622
2.91549
2.91492
2.9147
2.91479
2.9155
2.91723
2.92003
2.92404
2.9287
2.93174
2.93318
2.93373
2.9339
2.93359
2.93279
2.93242
2.9326
2.93326
2.93464
2.93727
2.9416
2.94789
2.95653
2.9669
2.97937
2.99262
3.00383
3.01241
3.01852
3.02216
3.02382
3.0244
3.02435
3.02372
3.02221
3.01982
3.01685
3.01468
3.01351
3.01317
3.01308
3.01328
3.01399
3.01531
3.01766
3.02256
3.03125
3.04588
3.06552
3.07917
3.08332
3.0835
3.08185
3.07729
3.06994
3.06491
3.06388
3.06557
3.07255
3.08445
3.08975
3.08905
3.0845
3.07968
3.07804
3.07665
3.07442
3.07042
3.06466
3.05793
3.05018
3.03889
3.02106
2.9959
1
1
1
1
1
1
1
1
1
1
1
1
1
1
1
1
1
1
1
1
1
0.999855
1.01098
1.58355
2.75846
2.76558
2.78277
2.80288
2.82583
2.84339
2.85575
2.86538
2.87446
2.88354
2.89294
2.90063
2.90589
2.90911
2.91062
2.91147
2.91146
2.91132
2.91099
2.91045
2.90992
2.90951
2.90925
2.90932
2.90994
2.91147
2.91404
2.91769
2.92227
2.92578
2.92749
2.92809
2.92832
2.92804
2.92739
2.92664
2.92664
2.92702
2.92806
2.93021
2.93395
2.93952
2.9472
2.95669
2.96775
2.98037
2.99223
3.00185
3.00912
3.01413
3.01689
3.01803
3.01843
3.01834
3.01758
3.01591
3.01339
3.0105
3.00856
3.00751
3.00722
3.00713
3.00734
3.00804
3.00945
3.01209
3.01754
3.02691
3.04261
3.06211
3.07449
3.07779
3.07781
3.07586
3.07088
3.0634
3.05878
3.05802
3.05999
3.06757
3.07914
3.08347
3.08231
3.07719
3.07247
3.07077
3.06919
3.06666
3.0622
3.05596
3.04881
3.04057
3.02852
3.01015
2.98381
1
1
1
1
1
1
1
1
1
1
1
1
1
1
1
1
1
1
1
1
1
0.9998
1.01196
1.52954
2.76326
2.76989
2.79125
2.81253
2.83246
2.84671
2.85701
2.8659
2.8744
2.88332
2.89172
2.89774
2.9013
2.90334
2.90416
2.90452
2.90439
2.9042
2.90385
2.90346
2.90323
2.90312
2.90325
2.90394
2.90545
2.90795
2.91147
2.91582
2.91942
2.9213
2.92194
2.92214
2.92186
2.92128
2.92045
2.92029
2.92053
2.92133
2.92319
2.92655
2.93177
2.93878
2.94749
2.95759
2.96908
2.9809
2.99107
2.99913
3.00514
3.00904
3.01096
3.01167
3.0119
3.01174
3.01085
3.00907
3.00648
3.0038
3.0021
3.00117
3.00088
3.00077
3.00101
3.00173
3.00321
3.00617
3.01221
3.02228
3.03911
3.05823
3.06926
3.07185
3.07172
3.06943
3.06407
3.05652
3.05237
3.05186
3.05413
3.06227
3.07336
3.07676
3.07511
3.06947
3.06493
3.06317
3.06144
3.05853
3.05359
3.04683
3.03924
3.0305
3.01757
2.99857
2.97109
1
1
1
1
1
1
1
1
1
1
1
1
1
1
1
1
1
1
1
1
1
0.999804
1.01189
1.45965
2.77717
2.78157
2.80293
2.82104
2.83751
2.84861
2.85757
2.8659
2.87403
2.88238
2.88889
2.89305
2.89517
2.89646
2.89673
2.89675
2.89655
2.89637
2.89617
2.89604
2.89616
2.89658
2.89752
2.8992
2.9018
2.90536
2.90948
2.91279
2.91461
2.91517
2.91525
2.91498
2.91435
2.91354
2.91332
2.9135
2.91429
2.91614
2.91948
2.92455
2.93121
2.93927
2.9487
2.95927
2.97041
2.98063
2.98914
2.99573
3.00049
3.00328
3.00446
3.00478
3.00485
3.00453
3.0035
3.00166
2.99911
2.99677
2.99534
2.99453
2.99423
2.99403
2.99429
2.99503
2.99658
2.99989
3.0065
3.01742
3.03529
3.05378
3.0634
3.0654
3.06506
3.06241
3.0567
3.04919
3.04557
3.04533
3.04793
3.05659
3.06701
3.06955
3.06742
3.06133
3.05689
3.05511
3.05314
3.04988
3.04446
3.03723
3.02921
3.01995
3.00608
2.98637
2.95782
1
1
1
1
1
1
1
1
1
1
1
1
1
1
1
1
1
1
1
1
1
0.999761
1.01112
1.37833
2.79905
2.79767
2.81442
2.82798
2.84038
2.8494
2.85745
2.86529
2.87318
2.87978
2.88389
2.88648
2.88766
2.88828
2.88824
2.88811
2.88795
2.88797
2.88813
2.88856
2.88939
2.8907
2.89276
2.89565
2.89941
2.90326
2.90612
2.90765
2.90802
2.90801
2.9077
2.90694
2.90626
2.90608
2.90627
2.90713
2.90911
2.91266
2.91778
2.92425
2.93189
2.94072
2.95063
2.96098
2.97068
2.97932
2.98622
2.99142
2.99485
2.99664
2.99714
2.99719
2.99709
2.9966
2.99548
2.99367
2.99129
2.98935
2.9882
2.98751
2.9872
2.98687
2.98714
2.98797
2.98967
2.99338
3.00062
3.0125
3.03134
3.04892
3.05718
3.05866
3.05803
3.05496
3.04892
3.04159
3.03849
3.03851
3.04138
3.05053
3.06008
3.06183
3.05919
3.05272
3.04841
3.0466
3.0444
3.04078
3.03487
3.0272
3.0187
3.00889
2.99404
2.9736
2.94393
1
1
1
1
1
1
1
1
1
1
1
1
1
1
1
1
1
1
1
1
1
0.999744
1.00977
1.28746
2.81843
2.81154
2.82344
2.83226
2.84107
2.84894
2.85648
2.86416
2.8708
2.87488
2.87689
2.8783
2.87876
2.87886
2.87868
2.87861
2.8787
2.87921
2.8801
2.88148
2.88337
2.88596
2.88934
2.89331
2.89679
2.89915
2.90027
2.90053
2.90039
2.89997
2.89926
2.89882
2.89876
2.89907
2.90021
2.90264
2.90649
2.9116
2.91786
2.92522
2.93361
2.94298
2.9525
2.9614
2.96972
2.97684
2.98225
2.9861
2.98835
2.98921
2.98922
2.98904
2.98865
2.98796
2.98679
2.98505
2.98298
2.98152
2.98069
2.98017
2.97983
2.97937
2.97962
2.98055
2.98248
2.98667
2.99453
3.00744
3.027
3.04339
3.05026
3.05128
3.05038
3.04694
3.04063
3.03365
3.0311
3.03133
3.03451
3.04413
3.0527
3.05375
3.05048
3.04363
3.03958
3.03767
3.03523
3.03121
3.0248
3.01668
3.00769
2.99729
2.98144
2.96023
2.9295
1
1
1
1
1
1
1
1
1
1
1
1
1
1
1
1
1
1
1
1
1
0.999823
1.008
1.19854
2.82406
2.81654
2.82433
2.83169
2.83938
2.84698
2.85448
2.86171
2.86597
2.86766
2.86835
2.8687
2.8687
2.86853
2.8684
2.86868
2.86944
2.87088
2.87297
2.87569
2.87894
2.88286
2.88674
2.88966
2.89155
2.89236
2.89249
2.89225
2.89184
2.89156
2.89149
2.8917
2.89256
2.89446
2.8975
2.90154
2.90655
2.91252
2.91952
2.92755
2.93617
2.94461
2.9526
2.96028
2.96716
2.97279
2.97678
2.97945
2.9807
2.98088
2.98069
2.98025
2.97956
2.97869
2.97751
2.97589
2.97428
2.97332
2.97279
2.97244
2.9721
2.97157
2.97174
2.97274
2.97499
2.9798
2.98831
3.00234
3.02233
3.03739
3.04289
3.04349
3.0423
3.03854
3.032
3.02547
3.02338
3.02378
3.02743
3.03746
3.04494
3.04529
3.04128
3.03412
3.03032
3.02831
3.02561
3.02117
3.01423
3.00565
2.99613
2.98512
2.96828
2.94626
2.91452
1
1
1
1
1
1
1
1
1
1
1
1
1
1
1
1
1
1
1
1
1
0.999984
1.00515
1.1245
2.80675
2.81282
2.82079
2.82944
2.83692
2.84409
2.85163
2.85667
2.85822
2.8585
2.85829
2.85785
2.8577
2.85763
2.85799
2.85904
2.86093
2.86379
2.86746
2.87175
2.87581
2.87915
2.88161
2.88301
2.88357
2.88358
2.88364
2.88361
2.88377
2.88431
2.88527
2.88708
2.88992
2.89356
2.89783
2.9028
2.90862
2.91537
2.92278
2.93023
2.93734
2.94437
2.95127
2.95758
2.963
2.96714
2.96989
2.9715
2.97188
2.97185
2.97146
2.97077
2.96984
2.96879
2.96757
2.96612
2.96507
2.96455
2.96435
2.96421
2.96389
2.96336
2.96349
2.96454
2.96718
2.97267
2.98195
2.99719
3.0171
3.0306
3.03478
3.03501
3.03356
3.02955
3.02285
3.0168
3.0151
3.01572
3.02005
3.03031
3.03659
3.03628
3.03153
3.02423
3.02063
3.01852
3.01557
3.01069
3.00322
2.99415
2.98407
2.97241
2.95465
2.9318
2.89901
1
1
1
1
1
1
1
1
1
1
1
1
1
1
1
1
1
1
1
1
1
0.999993
1.00197
1.06484
2.76948
2.80973
2.81763
2.8254
2.83254
2.84093
2.84638
2.84794
2.84802
2.84756
2.84645
2.84587
2.84623
2.84703
2.84858
2.85113
2.85476
2.85939
2.86399
2.86771
2.87037
2.87229
2.87353
2.87431
2.87485
2.87523
2.87584
2.87681
2.87806
2.88016
2.8831
2.88658
2.89052
2.89503
2.90023
2.90612
2.91244
2.91864
2.92463
2.93063
2.93674
2.9427
2.94823
2.95306
2.95695
2.95968
2.96136
2.96204
2.96212
2.96202
2.96152
2.96066
2.95956
2.95836
2.95718
2.95614
2.95562
2.95544
2.95554
2.95552
2.95526
2.9548
2.95496
2.95611
2.9592
2.96544
2.97564
2.99217
3.01153
3.02323
3.02629
3.02623
3.02448
3.02019
3.01334
3.00773
3.0064
3.00731
3.01234
3.02263
3.02771
3.0268
3.02138
3.01402
3.01058
3.00838
3.0052
2.99987
2.99185
2.98225
2.97155
2.95919
2.94057
2.91686
2.88299
1
1
1
1
1
1
1
1
1
1
1
1
1
1
1
1
1
1
1
1
1
1
1.00005
1.02214
2.73248
2.80474
2.81152
2.81984
2.8296
2.83543
2.83685
2.83648
2.83557
2.83406
2.8332
2.83361
2.83523
2.8379
2.84169
2.8465
2.85151
2.85573
2.85895
2.86132
2.86284
2.86422
2.86541
2.86643
2.86755
2.8689
2.87083
2.87355
2.87666
2.88004
2.88381
2.88805
2.89288
2.89834
2.90396
2.90927
2.91435
2.91941
2.92454
2.92977
2.93484
2.93955
2.94366
2.94692
2.94917
2.95055
2.95136
2.95151
2.95144
2.95121
2.95064
2.94972
2.94854
2.94731
2.94636
2.94587
2.94573
2.94583
2.94623
2.94624
2.94597
2.94565
2.94589
2.94723
2.95078
2.95776
2.9691
2.9868
3.00532
3.01515
3.01732
3.01699
3.01491
3.01027
3.00336
2.99831
2.99735
2.99855
3.00421
3.01442
3.01835
3.0169
3.01081
3.00351
3.00015
2.99786
2.99441
2.98859
2.98002
2.96987
2.95856
2.94547
2.92604
2.90149
2.86652
1
1
1
1
1
1
1
1
1
1
1
1
1
1
1
1
1
1
1
1
1
0.999994
0.999956
1.00155
2.67765
2.797
2.80635
2.81707
2.82377
2.82534
2.82473
2.82273
2.82027
2.8196
2.82023
2.82248
2.82685
2.8326
2.83886
2.84377
2.84756
2.8502
2.85237
2.85431
2.85601
2.8579
2.86019
2.86258
2.86516
2.86799
2.87092
2.87403
2.87764
2.8818
2.88643
2.89117
2.89579
2.9003
2.90477
2.90926
2.91374
2.91822
2.92261
2.92689
2.93088
2.93434
2.93696
2.93868
2.93969
2.94023
2.94036
2.94021
2.94003
2.93966
2.939
2.93807
2.93695
2.93597
2.93543
2.93534
2.93549
2.936
2.93669
2.93672
2.93632
2.93619
2.93663
2.93828
2.94226
2.94995
2.96246
2.98119
2.99853
3.00659
3.00798
3.00735
3.00489
2.99994
2.99304
2.98859
2.98793
2.98937
2.99557
3.00558
3.00847
3.00644
2.99975
2.99264
2.98932
2.98691
2.98319
2.97687
2.96774
2.95705
2.94513
2.93129
2.91111
2.88568
2.84962
1
1
1
1
1
1
1
1
1
1
1
1
1
1
1
1
1
1
1
1
1
0.999997
0.999931
0.995997
2.60694
2.79209
2.8045
2.81075
2.81172
2.81096
2.8083
2.80581
2.80528
2.80674
2.81063
2.81683
2.82427
2.83079
2.83579
2.8395
2.84297
2.84621
2.8495
2.85275
2.85585
2.8587
2.8617
2.86472
2.86776
2.87106
2.87464
2.87828
2.88178
2.88519
2.88855
2.89195
2.89554
2.8994
2.90342
2.90741
2.91126
2.91495
2.91855
2.92181
2.92458
2.92673
2.92812
2.92888
2.92913
2.92904
2.92871
2.92824
2.92777
2.92716
2.92642
2.92557
2.92479
2.92436
2.92432
2.92459
2.9252
2.92619
2.92695
2.92684
2.9264
2.92642
2.92704
2.92903
2.93359
2.94206
2.95582
2.97525
2.99114
2.99748
2.99821
2.99726
2.99442
2.98913
2.9823
2.97843
2.97797
2.97966
2.98639
2.99597
2.99803
2.99542
2.98819
2.98133
2.97807
2.97551
2.97145
2.9646
2.95491
2.94371
2.93121
2.9166
2.89568
2.86943
2.8324
1
1
1
1
1
1
1
1
1
1
1
1
1
1
1
1
1
1
1
1
1
1.00001
1.00001
0.996272
2.52693
2.79133
2.79649
2.79653
2.79407
2.79073
2.78982
2.7907
2.79448
2.80125
2.80941
2.81693
2.82343
2.82951
2.83548
2.84066
2.84532
2.84972
2.8539
2.8578
2.86152
2.8649
2.86846
2.87153
2.87425
2.87668
2.87889
2.88101
2.88317
2.88551
2.88812
2.89095
2.89388
2.89697
2.90028
2.90364
2.90686
2.90977
2.91233
2.9144
2.91596
2.91703
2.91759
2.91777
2.91768
2.91725
2.91655
2.91574
2.91486
2.91395
2.9131
2.91251
2.91229
2.91238
2.91287
2.91375
2.91492
2.91629
2.91689
2.91655
2.9162
2.91639
2.91714
2.91944
2.92469
2.93409
2.9493
2.96878
2.983
2.98779
2.98804
2.98684
2.98366
2.97803
2.97135
2.96794
2.96762
2.96951
2.97674
2.9857
2.98707
2.98394
2.97625
2.96963
2.96646
2.96368
2.95922
2.95179
2.94156
2.92987
2.91681
2.90144
2.87992
2.85283
2.81495
1
1
1
1
1
1
1
1
1
1
1
1
1
1
1
1
1
1
1
1
0.999999
1.00001
0.999965
0.996785
2.44114
2.78157
2.78169
2.77496
2.77043
2.77123
2.77558
2.78396
2.79508
2.80543
2.81385
2.82182
2.82929
2.83641
2.84336
2.84972
2.85514
2.86012
2.86389
2.86681
2.86915
2.87079
2.87247
2.874
2.87554
2.87714
2.87883
2.88056
2.88234
2.88423
2.88624
2.88839
2.89074
2.89322
2.89591
2.89842
2.90061
2.90235
2.90355
2.90436
2.90491
2.90525
2.90541
2.90532
2.90497
2.90428
2.90329
2.90213
2.90094
2.89987
2.89916
2.8989
2.89903
2.89963
2.9008
2.9025
2.90429
2.90582
2.90625
2.90586
2.90563
2.90594
2.90695
2.90978
2.9159
2.92635
2.9428
2.96167
2.97393
2.97746
2.97749
2.97607
2.97255
2.96653
2.96013
2.9571
2.95691
2.95894
2.96668
2.97487
2.97568
2.97204
2.96394
2.9575
2.95439
2.95134
2.94648
2.93847
2.9277
2.91555
2.90193
2.88579
2.86365
2.83578
2.79695
1
1
1
1
1
1
1
1
1
1
1
1
1
1
1
1
1
1
1
1
0.999998
0.999979
0.999871
0.998468
2.3378
2.75805
2.75043
2.74725
2.75034
2.76336
2.78059
2.79586
2.80867
2.81958
2.82882
2.83711
2.84445
2.85086
2.8562
2.86036
2.86323
2.86545
2.86675
2.86792
2.86897
2.87021
2.8715
2.87274
2.87397
2.87532
2.87673
2.87801
2.87922
2.88042
2.88188
2.88358
2.8854
2.88718
2.88885
2.89027
2.89116
2.89152
2.89161
2.89159
2.8915
2.89133
2.89112
2.89075
2.89022
2.88949
2.88848
2.88726
2.88603
2.8851
2.88469
2.88474
2.88538
2.88675
2.8888
2.89114
2.89321
2.89466
2.89498
2.89475
2.89474
2.89529
2.89693
2.90065
2.9078
2.91926
2.93644
2.95407
2.9642
2.96674
2.96661
2.96492
2.96103
2.95463
2.94861
2.94589
2.9458
2.94803
2.95623
2.96357
2.96388
2.95971
2.95128
2.94498
2.94186
2.93851
2.9332
2.92459
2.91332
2.90072
2.88656
2.86963
2.84704
2.81831
2.77887
1
1
1
1
1
1
1
1
1
1
1
1
1
1
1
1
1
1
1
1
1
1.00001
0.999973
1.00135
2.18954
2.71418
2.72385
2.74405
2.76673
2.78659
2.80446
2.81953
2.83155
2.84079
2.84721
2.85151
2.85454
2.85628
2.85748
2.85876
2.8598
2.86043
2.86073
2.86117
2.86163
2.86276
2.86396
2.86504
2.86606
2.8673
2.86859
2.86979
2.87106
2.8726
2.87414
2.87555
2.87679
2.87763
2.87808
2.87818
2.87811
2.8778
2.87719
2.87637
2.8757
2.87515
2.87465
2.87414
2.87354
2.87286
2.87209
2.87135
2.87091
2.87079
2.8709