/*--------------------------------*- C++ -*----------------------------------*\
| =========                 |                                                 |
| \\      /  F ield         | OpenFOAM: The Open Source CFD Toolbox           |
|  \\    /   O peration     | Version:  2.2.x                                 |
|   \\  /    A nd           | Web:      www.OpenFOAM.org                      |
|    \\/     M anipulation  |                                                 |
\*---------------------------------------------------------------------------*/
FoamFile
{
    version     2.0;
    format      ascii;
    class       surfaceScalarField;
    location    "2";
    object      cfmax;
}
// * * * * * * * * * * * * * * * * * * * * * * * * * * * * * * * * * * * * * //

dimensions      [0 3 -1 0 0 0 0];

internalField   nonuniform List<scalar> 
28084
(
0.00125848
0.00124959
0.00124592
0.00124189
0.00123897
0.0012366
0.00123493
0.00123383
0.00123329
0.00123324
0.00123364
0.00123442
0.00123558
0.00123703
0.00123874
0.00124066
0.00124273
0.00124493
0.00124721
0.00124956
0.00125189
0.00125421
0.00125646
0.00125862
0.00126067
0.0012626
0.00126437
0.001266
0.00126742
0.0012686
0.0012696
0.0012704
0.00127101
0.00127126
0.00127133
0.00127124
0.00127096
0.00127043
0.00126954
0.00126859
0.00126746
0.00126648
0.00126546
0.00126482
0.00126486
0.00128786
0.00123495
0.000969061
0.000949195
0.000969796
0.000983016
0.000996379
0.00100987
0.0010241
0.00103822
0.00105388
0.00106874
0.00108336
0.00109834
0.00111309
0.00112809
0.00114271
0.00115658
0.00116955
0.00118146
0.00119273
0.0012034
0.00121329
0.00122257
0.00123128
0.00123948
0.00124698
0.0012534
0.00125921
0.00126516
0.0012696
0.00127341
0.00127666
0.00127802
0.00127657
0.00127253
0.00126304
0.00124852
0.00123202
0.00121754
0.0012039
0.00119097
0.00117736
0.00116437
0.00115317
0.00114357
0.00113572
0.00112857
0.00112053
0.00111201
0.0010946
0.00107724
0.00105416
0.0010333
0.00100834
0.000985761
0.000962378
0.000939239
0.000915377
0.0008933
0.000872861
0.000853401
0.000836208
0.000819395
0.000804481
0.000790347
0.00077942
0.000769972
0.000763764
0.000757772
0.000752405
0.00074545
0.000737268
0.00363183
0.00361293
0.00126441
0.00360338
0.00125934
0.00358209
0.00125946
0.00355458
0.00125918
0.0035197
0.00125997
0.00347807
0.00126127
0.0034299
0.0012632
0.00337562
0.00126569
0.00331558
0.00126871
0.00325043
0.00127214
0.00318075
0.00127598
0.0031067
0.00128015
0.00302879
0.00128465
0.0029475
0.00128939
0.00286336
0.0012943
0.00277689
0.00129937
0.00268854
0.00130451
0.00259884
0.0013097
0.00250824
0.0013149
0.00241716
0.00132008
0.002326
0.00132516
0.00223514
0.00133012
0.00214495
0.00133493
0.00205574
0.00133956
0.0019678
0.00134397
0.00188139
0.00134816
0.00179674
0.00135209
0.00171403
0.00135579
0.0016334
0.00135916
0.00155503
0.0013622
0.00147903
0.001365
0.0014055
0.00136752
0.00133444
0.00136969
0.00126594
0.00137141
0.00120009
0.00137285
0.0011369
0.00137407
0.00107651
0.00137502
0.0010187
0.00137569
0.000963444
0.001376
0.000910637
0.00137616
0.00086068
0.00137605
0.000812907
0.00137636
0.000768173
0.00137659
0.000726509
0.00137841
0.000751356
0.00137996
0.000819039
0.00139499
0.000643559
0.00105804
0.000597743
0.00086814
0.000599338
0.000879323
0.000608661
0.000903082
0.00061341
0.000925428
0.000617566
0.000944577
0.000621141
0.0009651
0.000625208
0.000984786
0.000629011
0.00100521
0.000633307
0.00102631
0.00063784
0.00104563
0.00064242
0.00106487
0.000646987
0.00108423
0.000651547
0.001103
0.000655606
0.00112169
0.000659988
0.00113895
0.00066409
0.00115527
0.000667922
0.00117059
0.000671205
0.00118498
0.000674439
0.00119827
0.000677625
0.00121028
0.000680764
0.00122061
0.000684222
0.0012297
0.000687894
0.00123751
0.000691517
0.0012443
0.000695843
0.00125041
0.000701546
0.00125685
0.000706105
0.00126408
0.000710234
0.00127016
0.000715091
0.00127515
0.000719749
0.00127971
0.000723192
0.00128179
0.000727237
0.00128108
0.000733288
0.00127812
0.000737998
0.00127297
0.000740112
0.00126085
0.000740176
0.00123912
0.000740755
0.00121605
0.000737062
0.00119471
0.000735388
0.00117367
0.000739583
0.00115522
0.000743419
0.00113788
0.000742575
0.00112075
0.000741554
0.00109328
0.000738272
0.00105954
0.000738017
0.00103076
0.00073436
0.000999893
0.000731202
0.000969952
0.000725203
0.000940963
0.000722607
0.000912085
0.000715284
0.000887284
0.000713843
0.000867537
0.000709386
0.000850181
0.000705127
0.000833771
0.000699885
0.000817519
0.00069403
0.000801345
0.000688794
0.000787024
0.000685619
0.000775148
0.000681694
0.000764502
0.000678763
0.000754767
0.000674246
0.00074595
0.000671804
0.000738327
0.000668341
0.000731531
0.000667983
0.000726151
0.000665859
0.000721759
0.000666434
0.000719516
0.000666151
0.000718107
0.000669697
0.000719294
0.000673452
0.00072096
0.000680191
0.000723878
0.000685773
0.000724404
0.000694587
0.00072582
0.0036329
0.00361353
0.00127231
0.00360359
0.00127102
0.0035819
0.0012749
0.00355399
0.0012783
0.00351874
0.00128275
0.00347675
0.00128766
0.00342934
0.0012932
0.00337603
0.00129922
0.00331686
0.00130572
0.00325229
0.00131262
0.00318283
0.00131987
0.00310898
0.0013274
0.00303124
0.0013352
0.00295008
0.00134318
0.00286606
0.00135128
0.00277965
0.00135946
0.00269134
0.00136765
0.00260167
0.0013758
0.00251107
0.00138387
0.00241997
0.00139184
0.00232876
0.00139963
0.00223784
0.00140721
0.00214758
0.00141455
0.00205827
0.00142161
0.00197023
0.00142835
0.00188369
0.00143478
0.00179891
0.00144086
0.00171604
0.00144659
0.00163524
0.00145189
0.00155671
0.00145676
0.00148058
0.00146128
0.00140685
0.00146544
0.00133561
0.00146913
0.00126692
0.0014723
0.00120092
0.00147513
0.00113748
0.00147762
0.00107658
0.00147969
0.00101821
0.00148125
0.000962764
0.0014822
0.000909724
0.00148265
0.000859335
0.00148229
0.000810962
0.00148188
0.000764574
0.00148003
0.000718973
0.00147802
0.000754964
0.00147125
0.000740644
0.00147179
0.000608368
0.00101795
0.000572551
0.000882256
0.000563454
0.000880527
0.000573138
0.000896731
0.000581113
0.000923387
0.000588908
0.000946783
0.000595452
0.00097071
0.000603284
0.000994016
0.000608661
0.00101756
0.000614159
0.0010406
0.000620038
0.00106222
0.000625027
0.00108317
0.000630836
0.00110399
0.000635674
0.00112416
0.000640044
0.00114386
0.000644905
0.001162
0.000649243
0.00117888
0.000653031
0.00119443
0.000656373
0.00120847
0.000659635
0.00122139
0.000663685
0.00123327
0.000667341
0.00124372
0.000671837
0.00125304
0.000676314
0.00126134
0.000680563
0.00126926
0.000684441
0.00127562
0.000686241
0.00128028
0.00068853
0.00128441
0.000692352
0.00128912
0.000698689
0.00129411
0.000708261
0.00130018
0.000715648
0.001304
0.000721967
0.00130371
0.000727413
0.00129862
0.000727538
0.00129
0.000716496
0.00126686
0.000712931
0.00122833
0.000717652
0.00120451
0.000727125
0.00118651
0.000726225
0.00116819
0.00072433
0.00113874
0.000707078
0.00109485
0.000684426
0.0010354
0.00066268
0.000972983
0.000647128
0.000919451
0.000640768
0.000873593
0.000635804
0.000836791
0.000632035
0.000806032
0.00062778
0.000779455
0.000626713
0.000755674
0.000624303
0.000734227
0.000622331
0.000717931
0.000623279
0.000703748
0.000624841
0.000691878
0.000627942
0.000681252
0.000632516
0.000670874
0.000635206
0.000661479
0.000637779
0.00065421
0.000639806
0.000648473
0.00064399
0.000644653
0.00064729
0.000642311
0.00065243
0.000641359
0.000655897
0.00064173
0.0006611
0.00064364
0.000663008
0.000646492
0.000668935
0.000651222
0.000672004
0.000657224
0.000679431
0.000666124
0.000685841
0.000675723
0.000698455
0.000688053
0.000705543
0.000700225
0.000716879
0.000714842
0.00363172
0.00361194
0.00128222
0.00360161
0.00128463
0.00357952
0.00129221
0.00355288
0.00129925
0.00351955
0.00130731
0.00347937
0.00131581
0.00343255
0.00132488
0.00337949
0.00133438
0.00332058
0.00134434
0.00325624
0.00135466
0.00318697
0.00136527
0.00311328
0.00137612
0.00303566
0.00138717
0.0029546
0.00139835
0.00287064
0.0014096
0.00278427
0.00142085
0.00269598
0.00143204
0.00260627
0.00144312
0.0025156
0.00145405
0.00242443
0.00146479
0.00233312
0.00147526
0.00224209
0.00148543
0.00215168
0.00149527
0.00206222
0.00150474
0.00197401
0.00151378
0.0018873
0.00152242
0.00180232
0.00153063
0.00171924
0.00153836
0.00163823
0.00154565
0.00155948
0.00155239
0.00148313
0.00155863
0.00140918
0.00156442
0.00133768
0.00156971
0.00126877
0.00157436
0.00120252
0.00157849
0.00113886
0.00158219
0.00107773
0.00158545
0.00101911
0.00158832
0.000962909
0.00159064
0.000909241
0.00159259
0.000859068
0.00159381
0.00081086
0.001595
0.00076518
0.00159468
0.000718968
0.00159562
0.000754938
0.00159211
0.000698877
0.0016065
0.000603421
0.00110046
0.000570895
0.000941892
0.000567039
0.000936939
0.000574135
0.000949942
0.000580042
0.00097311
0.000588041
0.000995386
0.000593925
0.00101905
0.000601729
0.00104216
0.000605914
0.00106454
0.000611773
0.00108874
0.00061834
0.00111188
0.000623402
0.00113366
0.000629847
0.00115512
0.000634155
0.0011757
0.000638061
0.00119507
0.000642598
0.00121315
0.000646592
0.00122994
0.000650353
0.00124558
0.000653667
0.00125964
0.00065679
0.00127243
0.000659869
0.00128378
0.000662985
0.00129282
0.00066559
0.00130013
0.000668183
0.00130676
0.000671032
0.00131246
0.000674647
0.0013175
0.000679237
0.00132233
0.000683786
0.00132956
0.000687464
0.00133436
0.000691378
0.00133721
0.000696456
0.00133939
0.000700665
0.00133677
0.000705697
0.00133127
0.000713449
0.00132366
0.000720079
0.00131503
0.000720916
0.00129792
0.000717798
0.00127173
0.00072088
0.00123776
0.000705576
0.00120078
0.000692574
0.0011485
0.000689589
0.00110105
0.000692822
0.00105753
0.000685513
0.00100778
0.000670007
0.000954685
0.000658877
0.000905506
0.000638104
0.000854479
0.000627202
0.000806357
0.000616156
0.000772081
0.000611608
0.000743111
0.000610953
0.000718522
0.000611173
0.000697957
0.000615582
0.000680085
0.000616144
0.000664185
0.000618921
0.000651253
0.000621276
0.000640233
0.000624556
0.000631786
0.000629137
0.000624796
0.000634521
0.000619085
0.00063847
0.000614856
0.000643965
0.000611728
0.00064739
0.000610173
0.00065333
0.000610108
0.000657445
0.000611097
0.000664751
0.000614101
0.0006674
0.000618523
0.000674019
0.000625416
0.000675811
0.000633565
0.000684958
0.000644643
0.000690409
0.000657203
0.000704655
0.000672147
0.000712319
0.000687764
0.00072811
0.000708486
0.00362829
0.00360952
0.00129409
0.00360205
0.00130016
0.00358284
0.00131138
0.00355731
0.00132201
0.00352431
0.00133363
0.00348443
0.00134563
0.00343789
0.00135819
0.00338509
0.00137114
0.00332642
0.0013845
0.00326228
0.00139818
0.00319315
0.0014121
0.00311957
0.00142622
0.00304204
0.00144049
0.00296104
0.00145483
0.00287711
0.00146918
0.00279072
0.00148345
0.0027024
0.0014976
0.00261262
0.00151157
0.00252187
0.0015253
0.00243058
0.00153877
0.00233913
0.00155188
0.00224792
0.0015646
0.00215732
0.0015769
0.00206765
0.00158873
0.0019792
0.00160005
0.00189225
0.00161087
0.001807
0.00162114
0.00172368
0.00163084
0.00164242
0.00163997
0.00156339
0.00164849
0.00148672
0.0016564
0.00141249
0.00166374
0.00134074
0.00167051
0.00127153
0.00167658
0.00120498
0.00168204
0.00114098
0.00168702
0.00107946
0.00169133
0.00102056
0.00169492
0.000964039
0.00169781
0.000910035
0.00170005
0.000858341
0.00170101
0.000810589
0.00170228
0.00076549
0.00170194
0.000722195
0.00170383
0.000764388
0.00170054
0.000679539
0.00172369
0.000590153
0.00119752
0.000576236
0.0010241
0.00057738
0.00101497
0.000585784
0.00102495
0.000592229
0.00104418
0.000600567
0.00106407
0.000606003
0.00108726
0.000613914
0.00111008
0.000617415
0.00113121
0.000623228
0.00115545
0.000629688
0.0011799
0.000633828
0.00120237
0.000639983
0.00122398
0.00064339
0.0012434
0.000646675
0.00126271
0.00065035
0.00128111
0.000653174
0.00129698
0.000656914
0.00131088
0.000659955
0.00132328
0.000662486
0.00133478
0.000664631
0.00134507
0.000666764
0.00135406
0.000668314
0.00136188
0.000670461
0.00136894
0.000672948
0.00137452
0.000675953
0.00137829
0.000680756
0.00138144
0.000685262
0.00138355
0.000687767
0.00138532
0.000691159
0.00138746
0.000698083
0.00139063
0.000703537
0.00139623
0.000710278
0.0013957
0.000719827
0.00138763
0.000728406
0.00137188
0.000725281
0.0013398
0.000721139
0.0013001
0.000718572
0.00125977
0.000718543
0.00122195
0.000711397
0.00118951
0.000715678
0.00115276
0.000715246
0.00108962
0.000707743
0.0010307
0.00069427
0.000978089
0.000683868
0.000925969
0.000666898
0.000878238
0.00064951
0.000837621
0.000635585
0.000801017
0.000628146
0.000767937
0.000625679
0.000736932
0.000621419
0.000709918
0.00062152
0.000687921
0.000622888
0.000670225
0.000625328
0.000656108
0.000627287
0.000644629
0.000631089
0.000635209
0.000635476
0.000626807
0.000639764
0.000619803
0.000643701
0.000614711
0.000648804
0.000610994
0.000652306
0.000608458
0.000658103
0.000608206
0.000661595
0.000608945
0.000667954
0.000611474
0.000669465
0.000617984
0.000676472
0.000627259
0.000677875
0.000637726
0.000687374
0.00064949
0.000692006
0.000661963
0.000706464
0.000676344
0.000714475
0.000691209
0.000733229
0.000707993
0.00363126
0.00361512
0.00130798
0.003608
0.00131762
0.00358914
0.00133241
0.00356393
0.00134657
0.00353124
0.00136168
0.00349166
0.00137714
0.00344538
0.00139312
0.00339281
0.00140946
0.00333433
0.00142617
0.00327036
0.00144315
0.00320135
0.00146034
0.00312786
0.00147768
0.00305039
0.0014951
0.00296941
0.00151255
0.00288546
0.00152995
0.00279902
0.00154721
0.00271061
0.00156428
0.00262071
0.00158109
0.00252981
0.00159758
0.00243834
0.00161373
0.00234668
0.00162944
0.00225525
0.00164467
0.0021644
0.0016594
0.00207445
0.00167356
0.00198573
0.00168714
0.00189847
0.00170012
0.00181291
0.00171247
0.00172926
0.00172417
0.00164768
0.00173519
0.00156831
0.00174551
0.0014913
0.00175517
0.00141673
0.00176414
0.00134462
0.00177248
0.00127505
0.00177992
0.00120816
0.0017866
0.00114383
0.00179273
0.00108199
0.00179823
0.00102274
0.00180311
0.000965889
0.00180731
0.00091137
0.00181091
0.000859531
0.00181346
0.000810182
0.00181596
0.000764665
0.00181665
0.00072328
0.00181904
0.000767922
0.00181658
0.00067783
0.00183282
0.000576945
0.00123534
0.000577082
0.0010681
0.000587096
0.00105898
0.000597928
0.00107536
0.000606197
0.00110773
0.000616534
0.00113418
0.000621423
0.0011592
0.000629283
0.00118648
0.000632795
0.00121182
0.000639998
0.00123842
0.000646245
0.00126485
0.000649386
0.001288
0.000654623
0.00130994
0.000656792
0.00132959
0.000660703
0.00134952
0.000663445
0.00136814
0.000664679
0.00138339
0.000667177
0.00139749
0.000668356
0.00140991
0.000670151
0.00142189
0.000671958
0.00143271
0.000673555
0.00144029
0.000676258
0.0014464
0.000679187
0.00145176
0.000681373
0.00145555
0.000683615
0.00145802
0.00068437
0.00146033
0.00068546
0.00146447
0.000687931
0.00146787
0.000692773
0.00146903
0.000706615
0.00146845
0.000715947
0.0014642
0.000725676
0.0014573
0.000736155
0.00144698
0.000739764
0.00143394
0.000741571
0.00141657
0.000737318
0.00138445
0.000736963
0.00133359
0.000742616
0.00128264
0.000744399
0.00122734
0.000743007
0.00116959
0.000752966
0.00112137
0.000747269
0.00108173
0.000729896
0.00104016
0.000714841
0.000997991
0.000699755
0.000949622
0.000687084
0.000895272
0.000669587
0.00084796
0.000655959
0.000806566
0.000645902
0.000770019
0.000637146
0.000742093
0.000633378
0.000718524
0.000632903
0.00069687
0.000634515
0.000678652
0.000636517
0.00066309
0.000640011
0.000650198
0.000643798
0.000640271
0.000646977
0.00063256
0.000650058
0.00062601
0.000654689
0.000620325
0.00065656
0.00061641
0.000661845
0.000615077
0.000664626
0.000614814
0.000670648
0.000618304
0.000671083
0.000625869
0.000678343
0.000634313
0.000678734
0.000643746
0.000688249
0.00065456
0.000693142
0.000666097
0.000707785
0.000679768
0.000715737
0.000695289
0.000738061
0.000710906
0.00363868
0.00362295
0.00132385
0.00361616
0.001337
0.00359763
0.0013553
0.00357273
0.00137292
0.00354033
0.00139145
0.00350102
0.0014103
0.00345499
0.00142964
0.00340261
0.0014493
0.00334431
0.00146928
0.00328048
0.00148952
0.00321159
0.00150992
0.00313815
0.00153041
0.00306069
0.00155094
0.0029797
0.00157144
0.0028957
0.00159182
0.00280918
0.00161201
0.00272064
0.00163194
0.00263057
0.00165153
0.00253948
0.00167074
0.00244777
0.00168953
0.00235585
0.00170779
0.00226415
0.00172549
0.00217299
0.0017426
0.00208275
0.00175905
0.00199369
0.00177482
0.00190609
0.0017899
0.00182017
0.00180424
0.00173615
0.00181781
0.00165418
0.00183062
0.00157444
0.00184262
0.00149705
0.00185387
0.00142208
0.0018644
0.00134961
0.00187411
0.00127964
0.00188301
0.00121234
0.00189108
0.00114757
0.00189849
0.00108534
0.00190502
0.00102577
0.00191074
0.000968664
0.00191581
0.000913728
0.00192002
0.00086143
0.00192248
0.000810609
0.00192392
0.00076268
0.00192308
0.000720883
0.00192158
0.00076086
0.00191473
0.000633916
0.00191075
0.000549931
0.00126596
0.000576702
0.0011138
0.000595323
0.0011127
0.000614589
0.00113875
0.000626709
0.0011829
0.000638312
0.00121859
0.000643802
0.00125041
0.000653421
0.001282
0.000657571
0.00131149
0.000665562
0.00134138
0.000670477
0.00136945
0.000672116
0.001394
0.000676513
0.00141807
0.000677421
0.00143895
0.000681261
0.0014601
0.000682553
0.00147938
0.000683423
0.00149556
0.00068554
0.00150995
0.000686172
0.00152103
0.000688407
0.00153154
0.00068935
0.00154055
0.000689672
0.00154753
0.000690007
0.00155376
0.000691258
0.00155867
0.000692434
0.00156235
0.000694312
0.00156416
0.00069735
0.00156421
0.000700503
0.00156214
0.00070272
0.00155935
0.000710002
0.00155761
0.000717433
0.00155668
0.000723709
0.0015578
0.000736268
0.00155636
0.000749458
0.00154867
0.000766842
0.00153012
0.000777903
0.00149439
0.000768553
0.0014504
0.000773245
0.00138887
0.000773622
0.00134101
0.000780993
0.00129676
0.000774784
0.00125033
0.000790685
0.0012036
0.000790677
0.00115477
0.00078
0.00111083
0.000769765
0.00106686
0.000750569
0.00101913
0.000728538
0.000972652
0.000706819
0.00092187
0.000686111
0.000873847
0.000672387
0.000828493
0.000661249
0.000790251
0.000656466
0.000757288
0.00065018
0.000730504
0.000649164
0.000709437
0.000648138
0.000692336
0.00064978
0.000678665
0.000652813
0.000666638
0.000655888
0.0006558
0.000658104
0.000645809
0.00066072
0.000637213
0.00066133
0.000630815
0.000666059
0.000627091
0.000667304
0.000624894
0.000673552
0.000625754
0.000673518
0.000631943
0.000680807
0.000640067
0.00068071
0.000649107
0.000690196
0.000659069
0.000695643
0.000669991
0.000710141
0.000682847
0.000717757
0.000698382
0.000742298
0.000714699
0.00364841
0.00363301
0.00134176
0.00362654
0.00135832
0.00360831
0.00138005
0.0035837
0.00140104
0.00355157
0.00142293
0.00351251
0.0014451
0.00346669
0.00146772
0.0034145
0.00149063
0.00335634
0.00151383
0.00329263
0.00153724
0.00322383
0.00156078
0.00315044
0.00158438
0.00307294
0.00160796
0.00299189
0.00163144
0.00290779
0.00165475
0.00282112
0.00167781
0.00273239
0.00170053
0.00264212
0.00172285
0.00255079
0.00174472
0.00245882
0.0017661
0.0023666
0.00178688
0.00227456
0.00180699
0.00218305
0.00182644
0.00209241
0.00184514
0.00200294
0.00186309
0.00191492
0.00188025
0.00182855
0.0018966
0.00174409
0.0019121
0.00166167
0.00192676
0.00158148
0.00194053
0.00150364
0.00195347
0.00142821
0.00196552
0.00135525
0.00197676
0.00128487
0.00198694
0.00121711
0.00199614
0.00115191
0.00200449
0.00108925
0.00201216
0.00102916
0.002019
0.000971569
0.00202508
0.000916286
0.00203025
0.000863317
0.00203436
0.000812201
0.00203831
0.000763171
0.00204154
0.00072009
0.002045
0.000749562
0.00204751
0.000675658
0.00205424
0.000563978
0.00148651
0.000582866
0.0012108
0.000617474
0.00122168
0.000645054
0.00126817
0.000658272
0.00132347
0.000669239
0.00136426
0.000674021
0.00139629
0.000684296
0.00142997
0.000688132
0.00145803
0.00069688
0.00148686
0.000698632
0.00151007
0.000699487
0.0015294
0.000703534
0.00155432
0.000702924
0.00157061
0.00070587
0.00158722
0.000705064
0.00160322
0.000706717
0.00161655
0.000706173
0.00162819
0.000705509
0.00163643
0.000706575
0.00164937
0.000706143
0.00165551
0.000705915
0.00165913
0.000706922
0.00166373
0.00070845
0.00166545
0.000709558
0.00166532
0.000710439
0.0016645
0.000710946
0.00166327
0.000709808
0.00166206
0.000714111
0.00166185
0.000722896
0.00165928
0.000737632
0.00165573
0.000750725
0.00164894
0.000764617
0.0016387
0.00078025
0.00162751
0.000791621
0.00161658
0.000800743
0.00158723
0.000795233
0.00155952
0.000807326
0.00150052
0.000815721
0.00144748
0.000837818
0.0013811
0.000837705
0.00133254
0.000841298
0.00128615
0.000833895
0.00124529
0.000827968
0.00120787
0.000812954
0.00116612
0.000799547
0.00111835
0.000780567
0.00106657
0.000761511
0.00100737
0.00073458
0.000950379
0.00071354
0.000894072
0.000692694
0.000845642
0.000680915
0.000805177
0.000670203
0.000773154
0.000666051
0.000746758
0.000663216
0.000725871
0.00066505
0.000708834
0.000666162
0.000694365
0.000667705
0.000681985
0.00066839
0.000670898
0.000669205
0.000659872
0.00066812
0.000650508
0.000671716
0.000643071
0.000671455
0.000637831
0.000677654
0.000636804
0.000676965
0.00063714
0.00068438
0.000644891
0.000683444
0.000653451
0.000692905
0.00066312
0.000698525
0.00067374
0.000713564
0.000686575
0.000722111
0.000701665
0.000745354
0.000717672
0.0036603
0.00364528
0.00136169
0.00363909
0.00138158
0.00362116
0.00140665
0.00359682
0.00143094
0.00356494
0.00145609
0.00352611
0.0014815
0.00348048
0.00150733
0.00342846
0.00153341
0.00337042
0.00155976
0.00330681
0.00158627
0.00323805
0.00161287
0.00316468
0.00163949
0.00308715
0.00166604
0.003006
0.00169245
0.00292176
0.00171862
0.00283491
0.00174449
0.00274595
0.00176995
0.00265543
0.00179495
0.00256381
0.00181941
0.00247151
0.0018433
0.00237894
0.00186652
0.00228651
0.001889
0.0021946
0.00191072
0.00210353
0.00193161
0.00201363
0.00195166
0.00192515
0.00197082
0.00183834
0.00198908
0.0017534
0.00200639
0.0016705
0.00202275
0.00158981
0.00203813
0.00151148
0.00205258
0.00143555
0.00206615
0.00136211
0.00207872
0.00129126
0.00209039
0.00122283
0.0021011
0.00115712
0.00211092
0.00109404
0.00211985
0.00103348
0.00212788
0.000975474
0.00213515
0.000919882
0.00214153
0.000867018
0.0021468
0.000816403
0.00215169
0.00076851
0.00215619
0.000727561
0.00216097
0.00076167
0.00216642
0.000770686
0.00218027
0.000607827
0.00201444
0.000618381
0.00145326
0.000671602
0.00144962
0.000704072
0.00150592
0.00071635
0.00153412
0.000722773
0.00155913
0.000724373
0.00158304
0.000730605
0.00160602
0.000730592
0.00162394
0.000735345
0.0016425
0.000732593
0.0016586
0.000734772
0.00167134
0.000734465
0.00169299
0.000731624
0.00170042
0.00073251
0.00171093
0.00072876
0.00172512
0.000729289
0.00173461
0.000726914
0.00174226
0.000729237
0.00174717
0.000726869
0.001756
0.000725294
0.00175917
0.000724686
0.00176146
0.000723581
0.00176234
0.000722508
0.00176562
0.000722041
0.0017643
0.000722474
0.00176311
0.000723392
0.00175956
0.000729505
0.0017557
0.000738642
0.00175056
0.00074808
0.00174643
0.000757703
0.00174133
0.00076649
0.00173756
0.000778833
0.00173455
0.000800204
0.00172812
0.00081404
0.00171593
0.000844408
0.00167933
0.000848552
0.00164709
0.000867915
0.00158473
0.000874497
0.00153815
0.000885219
0.00148606
0.00089121
0.00144747
0.000886915
0.00140585
0.000890492
0.00136177
0.000889703
0.00131418
0.000880218
0.00126385
0.000864867
0.00121053
0.000844769
0.00115659
0.000816934
0.00110262
0.000786892
0.00104117
0.000758659
0.000977602
0.000730708
0.000915277
0.000714393
0.000862076
0.000697228
0.000820495
0.000687765
0.000786909
0.000681223
0.000761581
0.000680499
0.000742252
0.00068054
0.00072676
0.000681637
0.000713315
0.000682115
0.000700641
0.000681421
0.000687923
0.000678435
0.000675703
0.000679636
0.00066422
0.000676836
0.000655652
0.000682602
0.000651546
0.000681463
0.000648632
0.000688676
0.000650295
0.000687053
0.000657362
0.000696508
0.000666843
0.000702736
0.000677474
0.000718556
0.000690275
0.000726777
0.000704354
0.000747673
0.000718919
0.00367444
0.00365971
0.00138369
0.00365381
0.0014068
0.00363614
0.00143512
0.00361205
0.0014626
0.00358041
0.00149094
0.00354179
0.0015195
0.00349635
0.00154845
0.00344447
0.00157763
0.00338655
0.00160703
0.00332298
0.00163657
0.00325424
0.00166616
0.00318084
0.00169572
0.00310323
0.00172517
0.00302197
0.00175442
0.00293756
0.00178339
0.0028505
0.00181199
0.00276128
0.00184013
0.00267045
0.00186773
0.00257848
0.00189473
0.0024858
0.00192108
0.00239281
0.0019467
0.00229994
0.00197149
0.00220755
0.00199543
0.00211599
0.00201849
0.00202557
0.0020406
0.00193656
0.00206176
0.00184919
0.00208194
0.00176367
0.00210109
0.0016802
0.00211924
0.00159896
0.00213632
0.00152005
0.00215237
0.00144356
0.00216745
0.00136959
0.00218132
0.00129817
0.00219408
0.00122927
0.00220569
0.00116299
0.00221633
0.00109927
0.00222598
0.0010381
0.00223451
0.000979529
0.00224213
0.000923384
0.0022488
0.000869943
0.0022543
0.000818862
0.00225917
0.000770394
0.00226374
0.000722476
0.00226743
0.000786783
0.00227114
0.000741469
0.00228282
0.000662896
0.0023076
0.000707671
0.00169274
0.000746263
0.00162768
0.000762484
0.00167227
0.000770172
0.00169966
0.00077383
0.00172089
0.000774581
0.00173709
0.000774158
0.00174812
0.00076938
0.00175447
0.00077024
0.00176349
0.000764251
0.00177278
0.000765763
0.00178041
0.00075906
0.00179159
0.000756205
0.0017979
0.000753059
0.00180845
0.000750437
0.00181565
0.000747146
0.00182555
0.000744633
0.0018303
0.000743668
0.00183576
0.0007415
0.00183764
0.000738716
0.00184329
0.000736907
0.00184509
0.00073632
0.0018474
0.000735343
0.00184614
0.000735004
0.00184493
0.000734403
0.0018416
0.000738593
0.00183782
0.000747291
0.00183281
0.000756728
0.00182824
0.000766896
0.00182391
0.00077938
0.00181815
0.000795371
0.00181529
0.000812013
0.00181077
0.000830793
0.00180038
0.000853711
0.00178377
0.000867411
0.00177143
0.00088544
0.00170287
0.000905029
0.00165825
0.000929566
0.00161767
0.000939787
0.00158224
0.000950995
0.00154994
0.000953241
0.00151416
0.000954933
0.00146843
0.000948647
0.0014202
0.000944646
0.00137438
0.000924023
0.00132314
0.000909491
0.00126641
0.0008803
0.00120585
0.000855412
0.00113513
0.000818889
0.00106707
0.000780865
0.000996688
0.000752345
0.0009293
0.000725805
0.000875149
0.000711733
0.000831909
0.000701307
0.00079935
0.000698335
0.000775133
0.000696793
0.000757195
0.000697071
0.000743042
0.000697271
0.000730637
0.000696199
0.000718694
0.000692712
0.000706501
0.00069125
0.000692113
0.000686219
0.000679149
0.000690337
0.000669375
0.000687294
0.000663859
0.000694372
0.000662816
0.000692142
0.000663265
0.000701269
0.000670226
0.000708086
0.000680289
0.000723919
0.000692626
0.000731509
0.00070552
0.000750058
0.000719186
0.00369071
0.00367631
0.00140775
0.00367065
0.00143397
0.00365325
0.00146545
0.0036294
0.00149604
0.00359798
0.00152747
0.00355955
0.00155908
0.00351428
0.00159106
0.00346253
0.00162324
0.00340468
0.00165562
0.00334116
0.00168809
0.00327241
0.00172058
0.00319894
0.001753
0.00312123
0.00178525
0.00303982
0.00181728
0.0029552
0.00184896
0.00286788
0.00188022
0.00277836
0.00191095
0.00268719
0.00194108
0.00259483
0.00197053
0.00250173
0.00199927
0.00240829
0.00202722
0.00231494
0.00205425
0.00222204
0.00208036
0.00212995
0.00210549
0.00203898
0.00212959
0.0019494
0.00215267
0.00186146
0.00217465
0.00177538
0.00219551
0.00169132
0.00221527
0.00160948
0.00223386
0.00152995
0.00225137
0.00145286
0.00226786
0.00137827
0.00228322
0.00130611
0.00229753
0.00123657
0.00231085
0.0011696
0.00232315
0.00110527
0.0023345
0.00104353
0.00234492
0.000984423
0.00235461
0.000927743
0.00236328
0.000873587
0.00237096
0.000822016
0.00237792
0.000773326
0.00238402
0.000726332
0.00238896
0.000806956
0.00239428
0.000830531
0.00239888
0.000794589
0.00239084
0.000741733
0.00172015
0.000769801
0.00167395
0.000787371
0.00173637
0.000795779
0.00177763
0.000799623
0.00180382
0.000799514
0.00182141
0.000795258
0.00183212
0.00078967
0.00183813
0.000785346
0.00184227
0.000781186
0.00184735
0.000776653
0.00185725
0.000772034
0.00186297
0.000767062
0.00187189
0.000763041
0.0018778
0.000759043
0.0018878
0.000755825
0.00189384
0.000752672
0.00190024
0.000749957
0.00190162
0.000747743
0.00190638
0.000744987
0.00190743
0.000742918
0.00191149
0.000741093
0.00191168
0.000739991
0.00190949
0.000738867
0.00190512
0.000740802
0.00190239
0.000750385
0.00189698
0.000760107
0.00189277
0.000771125
0.00188687
0.000782335
0.00188263
0.000796243
0.00187625
0.00081219
0.00187593
0.000831592
0.00187282
0.000848825
0.00186508
0.000875035
0.00184935
0.00089272
0.00183016
0.000923713
0.00176158
0.000949127
0.00171085
0.000966079
0.00168236
0.000986225
0.00164593
0.00100299
0.00163216
0.00100768
0.0015927
0.00101002
0.00155846
0.00100708
0.00151981
0.00100709
0.00147585
0.000991251
0.00142223
0.000978643
0.00136035
0.000951374
0.00130216
0.000923144
0.00123545
0.00088284
0.00116295
0.000839347
0.00108794
0.000801346
0.0010074
0.000763416
0.000938987
0.000741575
0.000886031
0.000724011
0.000844231
0.00071739
0.000811012
0.000712573
0.00078842
0.000712064
0.000772058
0.000712098
0.000758339
0.00071229
0.000746149
0.000710948
0.000734105
0.000707463
0.000720994
0.000700355
0.000707465
0.000701051
0.000693387
0.000696432
0.000683865
0.00070227
0.000678062
0.000698236
0.000675052
0.00070681
0.000677531
0.000713638
0.000683181
0.000729072
0.000694763
0.000736595
0.000706307
0.000752983
0.000719203
0.00370916
0.00369502
0.00143393
0.0036896
0.00146314
0.00367244
0.00149767
0.00364882
0.00153125
0.00361761
0.00156566
0.00357935
0.00160023
0.00353423
0.00163514
0.00348259
0.00167023
0.0034248
0.00170548
0.00336129
0.00174079
0.00329251
0.00177609
0.00321895
0.00181128
0.00314111
0.00184626
0.00305951
0.00188097
0.00297464
0.00191528
0.00288703
0.00194912
0.00279715
0.00198237
0.00270558
0.00201495
0.00261278
0.0020468
0.00251921
0.00207785
0.00242527
0.00210805
0.00233137
0.00213726
0.0022379
0.00216547
0.0021452
0.00219262
0.00205361
0.0022187
0.00196338
0.00224366
0.00187477
0.00226746
0.001788
0.00229008
0.00170324
0.00231152
0.0016207
0.00233175
0.0015405
0.00235082
0.00146277
0.00236865
0.00138756
0.00238518
0.00131485
0.00240034
0.00124465
0.00241421
0.001177
0.00242705
0.00111189
0.00243845
0.00104934
0.00244822
0.000989429
0.00245697
0.000931963
0.00246474
0.000876745
0.00247073
0.000823978
0.00247447
0.000773716
0.00247727
0.000726258
0.00247855
0.00081561