/*--------------------------------*- C++ -*----------------------------------*\
| =========                 |                                                 |
| \\      /  F ield         | OpenFOAM: The Open Source CFD Toolbox           |
|  \\    /   O peration     | Version:  2.2.x                                 |
|   \\  /    A nd           | Web:      www.OpenFOAM.org                      |
|    \\/     M anipulation  |                                                 |
\*---------------------------------------------------------------------------*/
FoamFile
{
    version     2.0;
    format      ascii;
    class       volScalarField;
    location    "1.3";
    object      Ma;
}
// * * * * * * * * * * * * * * * * * * * * * * * * * * * * * * * * * * * * * //

dimensions      [0 0 0 0 0 0 0];

internalField   nonuniform List<scalar> 
14161
(
2.59889
2.59888
2.59898
2.59913
2.59941
2.59977
2.60027
2.6009
2.60168
2.60267
2.60387
2.60532
2.60705
2.60909
2.61146
2.61424
2.61732
2.62071
2.62472
2.62895
2.6332
2.63847
2.64335
2.64828
2.65378
2.65868
2.66283
2.66611
2.6688
2.67004
2.67019
2.6691
2.66639
2.66163
2.65452
2.64467
2.63183
2.61679
2.59756
2.5754
2.55321
2.52761
2.49696
2.46516
2.43472
2.41017
2.2485
0.755496
0.534798
0.502114
0.495602
0.500736
0.51081
0.529608
0.547733
0.572033
0.593663
0.615773
0.636589
0.656412
0.675541
0.694721
0.711892
0.728196
0.743068
0.755269
0.768006
0.781403
0.792215
0.801668
0.810316
0.818074
0.826228
0.835723
0.845442
0.853188
0.861191
0.869855
0.878661
0.886859
0.895804
0.902492
0.911899
0.932763
0.94416
0.95932
0.970919
0.983931
0.994378
1.01217
1.03066
1.0513
1.07063
1.0936
1.11505
1.13643
1.15784
1.17629
1.19857
1.21313
1.22371
1.22247
1.19081
1.13548
1.001
0.824501
0.661121
0.538456
0.449465
0.382201
0.329119
0.286935
0.251509
0.218357
0.185316
0.150903
0.114581
0.0753438
0.0531215
2.59889
2.59888
2.59898
2.59913
2.59941
2.59977
2.60027
2.6009
2.60168
2.60267
2.60387
2.60532
2.60705
2.60909
2.61146
2.61422
2.61731
2.62074
2.62469
2.62894
2.63328
2.63838
2.6434
2.64837
2.65396
2.65859
2.66272
2.66647
2.66908
2.67024
2.67041
2.6694
2.66683
2.66228
2.65539
2.64579
2.63329
2.61808
2.59891
2.57713
2.5549
2.5291
2.49827
2.4653
2.43063
2.40856
2.22112
0.746042
0.528015
0.496023
0.490299
0.499663
0.509996
0.530515
0.547982
0.571972
0.593172
0.615061
0.635984
0.656096
0.675608
0.694
0.711876
0.728214
0.743368
0.757955
0.769921
0.7817
0.793508
0.803618
0.81317
0.821944
0.829554
0.837756
0.84696
0.856936
0.866873
0.875621
0.883509
0.891152
0.898419
0.906696
0.91508
0.935555
0.948917
0.96313
0.976594
0.990578
1.00148
1.01978
1.0375
1.05717
1.07561
1.09837
1.11985
1.14053
1.1605
1.18238
1.19908
1.20632
1.2052
1.1747
1.10554
0.990794
0.823589
0.67073
0.54845
0.462438
0.397853
0.343561
0.298363
0.261318
0.228979
0.198484
0.16831
0.13819
0.110838
0.0816791
0.0828143
2.59889
2.59888
2.59898
2.59913
2.59941
2.59977
2.60027
2.6009
2.60168
2.60267
2.60387
2.60532
2.60705
2.60909
2.61146
2.61421
2.61731
2.62079
2.62468
2.62894
2.63343
2.63829
2.64346
2.64854
2.65405
2.6586
2.66275
2.66706
2.6697
2.6708
2.67102
2.67023
2.66795
2.66397
2.65761
2.64861
2.63669
2.62164
2.60278
2.58211
2.56036
2.53386
2.50448
2.47265
2.43467
2.40915
2.20706
0.748592
0.526015
0.495854
0.48461
0.49806
0.50997
0.534115
0.553567
0.578878
0.601265
0.623542
0.64482
0.665366
0.685083
0.703812
0.721116
0.737481
0.752387
0.766977
0.780289
0.791299
0.801668
0.811847
0.822014
0.831295
0.839924
0.848126
0.856524
0.864962
0.874434
0.884399
0.892813
0.900718
0.907553
0.915394
0.92572
0.94443
0.9577
0.971205
0.984078
0.997586
1.00875
1.02792
1.04448
1.06522
1.08206
1.10521
1.12531
1.14666
1.16389
1.17928
1.18572
1.17667
1.14726
1.06647
0.946056
0.789155
0.646959
0.532394
0.456156
0.399173
0.353171
0.311106
0.27402
0.241697
0.212243
0.184736
0.160438
0.137713
0.122559
0.106892
0.120652
2.59889
2.59888
2.59898
2.59913
2.59941
2.59977
2.60027
2.6009
2.60168
2.60267
2.60387
2.60532
2.60705
2.60909
2.61147
2.61419
2.61733
2.62086
2.62463
2.62894
2.63359
2.63823
2.64352
2.6487
2.65412
2.65893
2.66301
2.66747
2.67064
2.67193
2.6723
2.67179
2.67004
2.66673
2.66146
2.65354
2.64249
2.6282
2.6105
2.59095
2.56991
2.54205
2.5161
2.48711
2.44572
2.41851
2.24344
0.756715
0.526139
0.496037
0.481543
0.501642
0.513158
0.54041
0.561197
0.588394
0.6127
0.636614
0.659556
0.681492
0.702787
0.722606
0.740423
0.756275
0.771719
0.786523
0.799441
0.810839
0.820393
0.829805
0.840118
0.85008
0.859016
0.867035
0.874208
0.88173
0.8907
0.900549
0.910478
0.918753
0.925788
0.93361
0.945694
0.961345
0.973719
0.986404
0.999232
1.01212
1.02512
1.04439
1.06071
1.08168
1.09626
1.11687
1.13307
1.14971
1.15987
1.1624
1.15355
1.10127
1.01586
0.865356
0.701434
0.560697
0.47142
0.419883
0.377982
0.340507
0.306436
0.274814
0.245571
0.219305
0.195651
0.175545
0.159343
0.145171
0.140524
0.133178
0.150117
2.59889
2.59887
2.59898
2.59913
2.59941
2.59977
2.60027
2.6009
2.60168
2.60267
2.60387
2.60532
2.60705
2.60909
2.61148
2.61418
2.61733
2.62092
2.6246
2.62893
2.63369
2.63826
2.64364
2.64899
2.65415
2.65936
2.66358
2.66768
2.67163
2.67384
2.67461
2.6744
2.67332
2.67085
2.6671
2.6609
2.65153
2.63896
2.62353
2.60553
2.58414
2.55783
2.53446
2.50678
2.46426
2.42034
2.25173
0.768365
0.529334
0.499775
0.482914
0.512913
0.526367
0.557927
0.580337
0.609604
0.635956
0.660822
0.685124
0.708801
0.730544
0.750616
0.768684
0.785678
0.801466
0.815545
0.82823
0.839078
0.849328
0.858529
0.867619
0.877128
0.885019
0.892895
0.9007
0.908245
0.91645
0.925708
0.935189
0.944077
0.951353
0.959558
0.971188
0.985101
0.997526
1.01012
1.02249
1.03498
1.04779
1.0681
1.08304
1.0987
1.11227
1.12943
1.13797
1.14569
1.14488
1.11219
1.06814
0.948583
0.794202
0.641839
0.510998
0.433392
0.391052
0.359555
0.330249
0.302702
0.27641
0.250628
0.227065
0.206333
0.188257
0.172471
0.163616
0.157155
0.160354
0.157667
0.174602
2.59889
2.59887
2.59898
2.59913
2.5994
2.59977
2.60027
2.6009
2.60168
2.60266
2.60387
2.60532
2.60705
2.60908
2.61148
2.61418
2.61733
2.62093
2.62461
2.62894
2.63376
2.63837
2.64371
2.64928
2.65428
2.65975
2.66466
2.66842
2.67243
2.67594
2.67783
2.67826
2.67793
2.67648
2.67412
2.67054
2.66399
2.65484
2.64194
2.62563
2.6064
2.58488
2.5601
2.5364
2.49867
2.44681
2.3104
0.818105
0.542059
0.509045
0.487724
0.529677
0.546764
0.584625
0.611129
0.643321
0.671369
0.699099
0.723389
0.748189
0.770305
0.790905
0.810586
0.827696
0.843456
0.856881
0.869569
0.881233
0.891045
0.899552
0.908329
0.91625
0.923915
0.932047
0.939975
0.947542
0.955229
0.963155
0.972096
0.981144
0.990312
0.998072
1.00773
1.02025
1.03192
1.04366
1.05528
1.0669
1.07779
1.09417
1.10604
1.11537
1.12489
1.14075
1.12947
1.12167
1.08702
1.00563
0.889767
0.727838
0.584173
0.47886
0.421756
0.385473
0.355395
0.32825
0.302946
0.278562
0.255745
0.235104
0.217137
0.200424
0.185792
0.174958
0.171501
0.171017
0.178646
0.179135
0.194976
2.59888
2.59887
2.59897
2.59913
2.5994
2.59976
2.60026
2.60088
2.60168
2.60266
2.60386
2.60531
2.60704
2.60908
2.61147
2.61419
2.61732
2.62092
2.62465
2.62895
2.63375
2.63854
2.64365
2.64956
2.65459
2.65979
2.66563
2.66991
2.67362
2.67778
2.68144
2.68349
2.68414
2.68394
2.68335
2.68214
2.68048
2.67574
2.6675
2.65375
2.63933
2.62234
2.60141
2.57768
2.55319
2.51783
2.4086
0.909429
0.562765
0.524502
0.500875
0.560739
0.583617
0.629606
0.662752
0.697019
0.725522
0.755245
0.778716
0.802991
0.8228
0.844172
0.865384
0.882034
0.898962
0.913199
0.926124
0.940277
0.949685
0.957057
0.963943
0.971002
0.978408
0.986602
0.994155
1.00201
1.00914
1.01602
1.02342
1.03107
1.03849
1.04666
1.05622
1.06537
1.07571
1.08362
1.0921
1.10098
1.10937
1.11708
1.12422
1.13169
1.12429
1.13124
1.08981
1.04391
0.952599
0.811323
0.671429
0.546304
0.46547
0.422929
0.393877
0.368004
0.340195
0.31318
0.28804
0.265608
0.245954
0.228451
0.212714
0.19894
0.188277
0.180906
0.181456
0.185257
0.195221
0.197854
0.212162
2.59888
2.59887
2.59896
2.59913
2.5994
2.59976
2.60026
2.60087
2.60167
2.60265
2.60386
2.6053
2.60702
2.60907
2.61145
2.61419
2.6173
2.6209
2.62476
2.62897
2.63376
2.63875
2.64378
2.64976
2.65518
2.66027
2.66622
2.67181
2.67593
2.67989
2.68463
2.68906
2.69202
2.69362
2.69446
2.69551
2.69786
2.70018
2.69875
2.69351
2.68389
2.67376
2.66155
2.64844
2.63519
2.62661
2.51009
1.10766
0.594485
0.545862
0.52497
0.609332
0.642827
0.696668
0.738505
0.7768
0.803697
0.833181
0.855557
0.876393
0.896171
0.913694
0.933247
0.949746
0.965261
0.980653
0.99313
1.00636
1.01685
1.0248
1.02938
1.03509
1.04123
1.04706
1.05414
1.061
1.06792
1.07415
1.07952
1.08361
1.08793
1.0912
1.09962
1.10558
1.11375
1.11747
1.12222
1.1221
1.13169
1.12807
1.12414
1.12537
1.08961
1.06969
0.979203
0.872566
0.742186
0.61307
0.513758
0.464288
0.435321
0.412227
0.388981
0.361839
0.334436
0.306863
0.282214
0.26087
0.242835
0.227254
0.213571
0.201629
0.193302
0.189495
0.192745
0.198951
0.210077
0.214109
0.226785
2.59888
2.59887
2.59895
2.59913
2.5994
2.59976
2.60024
2.60087
2.60166
2.60264
2.60383
2.60528
2.60701
2.60904
2.61142
2.6142
2.61729
2.62085
2.62488
2.62901
2.63375
2.63899
2.64412
2.6497
2.65588
2.66117
2.66668
2.67341
2.67887
2.68325
2.68787
2.69401
2.70046
2.70494
2.70866
2.7116
2.71543
2.72479
2.73426
2.74019
2.74343
2.74682
2.75091
2.75358
2.75072
2.78281
2.68464
1.5806
0.675635
0.56927
0.587357
0.688681
0.744331
0.79768
0.840537
0.875431
0.893348
0.923551
0.941122
0.959644
0.978435
0.991171
1.00796
1.0211
1.03405
1.04683
1.05856
1.0671
1.07715
1.08476
1.09006
1.09311
1.09715
1.10152
1.10455
1.10949
1.11633
1.1203
1.12287
1.12418
1.12431
1.12366
1.12676
1.1288
1.13581
1.13243
1.13469
1.12531
1.12724
1.10899
1.08351
1.06743
0.988916
0.911215
0.788282
0.665496
0.561735
0.491895
0.462475
0.44753
0.433016
0.413331
0.388952
0.362939
0.333946
0.30525
0.281524
0.261509
0.244586
0.229997
0.217238
0.206889
0.201208
0.199846
0.204694
0.211913
0.223454
0.228293
0.239464
2.59887
2.59887
2.59895
2.59912
2.59939
2.59975
2.60023
2.60086
2.60166
2.60262
2.60382
2.60526
2.60699
2.60903
2.6114
2.6142
2.61728
2.62083
2.62493
2.62908
2.63376
2.63915
2.64446
2.64985
2.65652
2.66232
2.66784
2.67428
2.68177
2.68767
2.69259
2.69866
2.70781
2.71665
2.7243
2.73073
2.7371
2.74615
2.76516
2.78498
2.80542
2.82737
2.85407
2.88703
2.9132
2.9718
2.94363
2.83629
0.895122
0.601121
0.709194
0.79076
0.854277
0.903813
0.937136
0.963594
0.975862
0.995643
1.01666
1.02598
1.04729
1.054
1.07136
1.07905
1.09095
1.09996
1.10896
1.1179
1.12444
1.13058
1.13514
1.13911
1.13972
1.14258
1.14419
1.1447
1.14936
1.15049
1.14993
1.14929
1.14395
1.14017
1.13893
1.13477
1.14076
1.12299
1.11594
1.09865
1.07704
1.04167
0.97327
0.913666
0.798925
0.691368
0.590738
0.512875
0.47739
0.463775
0.454621
0.448039
0.43685
0.418239
0.395716
0.366805
0.336373
0.308109
0.285334
0.266021
0.249557
0.235545
0.223799
0.214921
0.211226
0.211333
0.216994
0.224289
0.235741
0.240994
0.250955
2.59887
2.59886
2.59895
2.59912
2.59939
2.59975
2.60022
2.60085
2.60163
2.6026
2.6038
2.60525
2.60695
2.60899
2.61136
2.61415
2.61725
2.62082
2.62492
2.62919
2.63381
2.6393
2.64484
2.65029
2.65682
2.66355
2.66946
2.67568
2.68415
2.69181
2.69827
2.7049
2.71334
2.72641
2.73801
2.75002
2.76136
2.77256
2.78973
2.81539
2.85237
2.89342
2.9447
3.01673
3.11381
3.22737
3.41936
3.50951
1.45709
0.666205
0.802698
0.879126
0.93719
0.977636
0.998445
1.01909
1.03631
1.04825
1.06861
1.07147
1.09641
1.09821
1.1165
1.12207
1.13229
1.14107
1.14801
1.15652
1.16159
1.16506
1.16815
1.16962
1.16959
1.16959
1.16796
1.16519
1.16681
1.16286
1.15966
1.15909
1.14699
1.13796
1.13463
1.1172
1.11305
1.07661
1.05295
1.01043
0.948718
0.883131
0.781984
0.696208
0.596904
0.518563
0.478783
0.466315
0.460507
0.460628
0.4589
0.452187
0.43888
0.422107
0.398946
0.37016
0.339505
0.312766
0.291096
0.27245
0.256326
0.242929
0.232283
0.224854
0.222699
0.223537
0.229307
0.236317
0.247358
0.25269
0.261745
2.59885
2.59886
2.59894
2.59911
2.59936
2.59974
2.60022
2.60084
2.60161
2.60259
2.60377
2.60521
2.60693
2.60896
2.61134
2.6141
2.61725
2.62079
2.62489
2.6293
2.6339
2.63941
2.64525
2.65083
2.6571
2.66463
2.67131
2.67785
2.68575
2.69535
2.70393
2.71128
2.72066
2.7326
2.74885
2.76481
2.78188
2.79799
2.8129
2.83714
2.87337
2.92722
2.98345
3.0515
3.12389
3.21029
3.17776
2.8497
1.99385
0.782303
0.868701
0.909232
0.955164
0.999432
1.01662
1.04368
1.06827
1.0856
1.10662
1.10434
1.12967
1.12661
1.1432
1.15078
1.15799
1.16851
1.17462
1.18058
1.1846
1.18566
1.18629
1.18426
1.18182
1.18012
1.17489
1.17052
1.16953
1.16037
1.15106
1.1479
1.12199
1.10222
1.09164
1.05057
1.02087
0.960236
0.897252
0.839866
0.744525
0.666741
0.578121
0.514111
0.4718
0.461586
0.453628
0.458956
0.463069
0.463703
0.461667
0.453397
0.44206
0.424622
0.401702
0.373225
0.343879
0.318655
0.297814
0.279679
0.264021
0.251512
0.241978
0.235705
0.234559
0.235782
0.241356
0.248064
0.258569
0.263669
0.27197
2.59884
2.59884
2.59894
2.59911
2.59936
2.59971
2.6002
2.60081
2.6016
2.60255
2.60374
2.60516
2.60688
2.60891
2.61129
2.61404
2.61721
2.62078
2.62486
2.62935
2.63402
2.63954
2.64556
2.6514
2.65762
2.66543
2.67302
2.68022
2.68793
2.69756
2.70815
2.71812
2.72703
2.73831
2.75655
2.77509
2.79472
2.81544
2.829
2.85222
2.8836
2.93965
2.9935
3.05856
3.13728
3.24943
3.34267
3.0102
2.09643
1.04081
0.933344
0.919338
0.925607
0.989098
1.01001
1.03767
1.06919
1.09166
1.11437
1.12236
1.14148
1.13717
1.15385
1.16325
1.16655
1.17892
1.18312
1.18637
1.1886
1.18721
1.1873
1.18202
1.17705
1.17601
1.16518
1.15457
1.14892
1.12804
1.10719
1.09115
1.04693
1.0019
0.967167
0.899053
0.833769
0.764376
0.687654
0.617256
0.544203
0.492538
0.457129
0.453127
0.44257
0.452027
0.458543
0.463413
0.46579
0.46586
0.461705
0.454539
0.443016
0.425944
0.403764
0.376509
0.34873
0.324738
0.304445
0.286802
0.272024
0.260769
0.25216
0.246768
0.246281
0.24766
0.253179
0.259603
0.269494
0.274083
0.281516
2.59884
2.59883
2.59893
2.5991
2.59935
2.5997
2.60017
2.60079
2.60156
2.60253
2.6037
2.60513
2.60683
2.60886
2.61124
2.61397
2.61716
2.62074
2.62482
2.62935
2.63416
2.63966
2.64578
2.65196
2.65831
2.66595
2.67451
2.6825
2.69003
2.6992
2.71177
2.72328
2.73253
2.74412
2.76147
2.78086
2.8003
2.82138
2.8338
2.85577
2.88023
2.92868
2.97267
3.01605
3.04328
3.03945
2.89639
2.31394
1.53191
1.27296
1.01964
0.913789
0.909651
0.964193
0.990807
1.01625
1.0489
1.07973
1.10508
1.11831
1.13823
1.13464
1.15299
1.16252
1.16525
1.17725
1.17826
1.18012
1.17988
1.17373
1.17236
1.16052
1.14914
1.14503
1.11771
1.09685
1.07784
1.03528
0.990832
0.945159
0.885987
0.81541
0.7493
0.677653
0.613458
0.551201
0.497035
0.458695
0.441982
0.441742
0.429592
0.44274
0.450165
0.458149
0.462434
0.466179
0.466977
0.46586
0.461513
0.454524
0.4428
0.426556
0.405676
0.380072
0.353964
0.331096
0.31131
0.294411
0.280706
0.270661
0.262682
0.257802
0.25761
0.259212
0.264728
0.270949
0.280027
0.284043
0.290563
2.59883
2.59882
2.59892
2.59908
2.59934
2.59969
2.60016
2.60076
2.60154
2.60248
2.60365
2.60508
2.60677
2.60879
2.61117
2.61391
2.61707
2.62073
2.62474
2.62926
2.63423
2.63979
2.64598
2.65236
2.65888
2.66659
2.67571
2.68416
2.69179
2.70112
2.71414
2.72631
2.7371
2.74913
2.76588
2.78328
2.80104
2.81867
2.83137
2.85237
2.8757
2.91498
2.9478
2.97856
3.00144
2.99183
2.91807
1.62175
1.29149
1.26083
1.17396
1.01276
0.969337
0.937876
0.976852
0.986158
1.0306
1.0604
1.09007
1.10597
1.13017
1.12768
1.14172
1.15343
1.15932
1.16497
1.16233
1.16496
1.15052
1.13884
1.1342
1.1016
1.07837
1.05973
1.00766
0.963188
0.914883
0.855986
0.783003
0.71801
0.657134
0.591584
0.533061
0.485295
0.451492
0.431113
0.425069
0.420296
0.419068
0.433126
0.439979
0.45042
0.455779
0.461503
0.465425
0.467135
0.46685
0.464543
0.460635
0.453642
0.442912
0.427488
0.407359
0.38295
0.358274
0.336657
0.31795
0.302334
0.28981
0.280729
0.273209
0.268742
0.268608
0.270546
0.276167
0.281967
0.290134
0.293562
0.299129
2.59883
2.59882
2.5989
2.59907
2.59931
2.59966
2.60014
2.60074
2.6015
2.60243
2.60359
2.60501
2.6067
2.6087
2.61107
2.61381
2.61699
2.62067
2.62465
2.62916
2.63427
2.63988
2.64619
2.65256
2.65937
2.66726
2.67636
2.68533
2.69361
2.70309
2.71528
2.72757
2.73969
2.75296
2.76848
2.78395
2.79991
2.81107
2.82565
2.84117
2.87053
2.8929
2.90981
2.91979
2.92361
2.80165
2.58667
1.37427
1.24791
1.2482
1.22719
1.17608
1.07088
0.967277
0.96767
0.958404
1.01778
1.04365
1.07963
1.09457
1.12061
1.12019
1.12706
1.13465
1.15048
1.13547
1.12294
1.12615
1.08607
1.05665
1.03648
0.977974
0.9262
0.88053
0.811627
0.744457
0.678065
0.622604
0.559897
0.509391
0.469593
0.437458
0.417999
0.4099
0.410398
0.402164
0.410816
0.421737
0.429884
0.440212
0.446293
0.454964
0.45992
0.464319
0.466813
0.467226
0.466266
0.464148
0.460269
0.453551
0.443158
0.428232
0.409254
0.386353
0.363139
0.342688
0.325216
0.310797
0.299275
0.290719
0.283552
0.279682
0.279491
0.281814
0.287497
0.292561
0.299715
0.302666
0.307423
2.59882
2.59881
2.59889
2.59906
2.5993
2.59965
2.60011
2.6007
2.60145
2.60238
2.60354
2.60493
2.60661
2.60861
2.61096
2.61369
2.61687
2.62054
2.62453
2.62909
2.63425
2.63998
2.64633
2.6526
2.65967
2.66791
2.67674
2.6859
2.69508
2.70512
2.71606
2.72737
2.74084
2.75537
2.76941
2.78321
2.79428
2.80393
2.81794
2.83374
2.85725
2.86924
2.87725
2.87936
2.86554
2.66626
1.89902
1.20837
1.20719
1.2218
1.22253
1.2219
1.15192
1.10685
0.969338
0.973081
0.975286
1.01549
1.05677
1.07088
1.09517
1.09844
1.09387
1.08889
1.1025
1.06372
1.03254
1.01704
0.947747
0.89405
0.8446
0.774106
0.707479
0.643892
0.584982
0.530783
0.481969
0.451464
0.426402
0.410917
0.404482
0.399589
0.397192
0.392565
0.402252
0.410017
0.418547
0.427176
0.435889
0.445537
0.452258
0.458599
0.463008
0.466152
0.46722
0.467041
0.465889
0.46397
0.460362
0.453744
0.443313
0.428812
0.410645
0.389351
0.367964
0.34888
0.3327
0.319353
0.308642
0.300377
0.293744
0.290679
0.290347
0.293086
0.298394
0.302788
0.308895
0.3115
0.315699
2.59879
2.5988
2.59888
2.59905
2.59929
2.59963
2.60009
2.60067
2.6014
2.60232
2.60347
2.60485
2.60652
2.6085
2.61083
2.61356
2.61671
2.62034
2.62438
2.62894
2.63414
2.63999
2.64617
2.65251
2.65999
2.66833
2.6769
2.68578
2.69602
2.70657
2.71639
2.72706
2.74171
2.75637
2.76897
2.78116
2.78718
2.79749
2.80771
2.83014
2.84705
2.85808
2.87487
2.89102
2.89308
2.78632
1.46452
1.19162
1.18327
1.19855
1.2066
1.21064
1.19763
1.16375
1.0834
1.03676
0.961297
1.02046
1.0091
1.05401
1.04716
1.05698
1.02049
0.995057
0.987268
0.914324
0.859238
0.811564
0.738847
0.674764
0.610616
0.553132
0.505552
0.465147
0.438508
0.418403
0.405182
0.401151
0.397001
0.392865
0.391881
0.39604
0.402383
0.402864
0.408137
0.415244
0.423843
0.433039
0.441432
0.450017
0.456491
0.461772
0.465285
0.467097
0.467491
0.467073
0.46606
0.464354
0.460683
0.454027
0.443733
0.429935
0.412843
0.393319
0.373516
0.35555
0.34034
0.327804
0.317712
0.309635
0.303861
0.301811
0.301358
0.304154
0.308789
0.312671
0.31788
0.320214
0.324127
2.59878
2.59877
2.59887
2.59901
2.59925
2.59959
2.60004
2.60062
2.60136
2.60226
2.60339
2.60475
2.60641
2.60835
2.61067
2.61338
2.61652
2.62011
2.62419
2.6288
2.63403
2.63987
2.64587
2.65239
2.66015
2.66849
2.67653
2.68571
2.69673
2.70713
2.71639
2.72666
2.74142
2.75638
2.76802
2.77824
2.78244
2.79202
2.8017
2.8236
2.83354
2.83957
2.8438
2.85161
2.76164
2.48996
1.30443
1.17202
1.16847
1.1733
1.18448
1.19357
1.19864
1.18559
1.16453
1.12734
1.01815
0.984903
0.948253
0.991997
0.951337
0.935993
0.874988
0.821293
0.77625
0.704965
0.643886
0.578131
0.530028
0.485203
0.450708
0.430009
0.41617
0.407681
0.401347
0.397199
0.389904
0.391596
0.39672
0.40084
0.403371
0.401999
0.405229
0.409334
0.414155
0.421559
0.42936
0.438439
0.446214
0.453575
0.459386
0.463891
0.466707
0.467788
0.467916
0.467468
0.466614
0.464753
0.460889
0.454143
0.444232
0.431257
0.415538
0.397803
0.379465
0.36242
0.347975
0.335987
0.326381
0.318767
0.313968
0.313113
0.312473
0.314725
0.318656
0.322196
0.326702
0.328805
0.332544
2.59877
2.59876
2.59884
2.599
2.59924
2.59957
2.6
2.60057
2.60128
2.60219
2.60329
2.60464
2.60626
2.6082
2.61049
2.61317
2.61628
2.61985
2.62394
2.62858
2.63378
2.6394
2.64547
2.65236
2.66021
2.66815
2.67604
2.68563
2.69685
2.70716
2.71601
2.72572
2.73973
2.75472
2.76608
2.77604
2.77987
2.78876
2.79801
2.81431
2.81975
2.82023
2.81348
2.79761
2.62558
1.83796
1.16701
1.1542
1.16043
1.16472
1.1716
1.17484
1.18363
1.18202
1.18239
1.16084
1.07863
0.950125
0.868452
0.855015
0.775445
0.741669
0.671006
0.613749
0.554311
0.510313
0.473794
0.441914
0.424545
0.414458
0.408157
0.402895
0.399863
0.394943
0.395979
0.398941
0.400607
0.401287
0.403865
0.405376
0.409601
0.411055
0.412688
0.417191
0.420991
0.427891
0.433922
0.442428
0.44992
0.456795
0.462132
0.465834
0.46772
0.468521
0.468631
0.468151
0.467256
0.465164
0.461027
0.454362
0.445168
0.43328
0.418922
0.402764
0.385683
0.36937
0.355519
0.344061
0.334994
0.328057
0.324148
0.324296
0.32339
0.325006
0.328259
0.331587
0.335507
0.337247
0.340601
2.59876
2.59875
2.59883
2.59898
2.59922
2.59953
2.59995
2.60052
2.60122
2.60209
2.60318
2.60451
2.60612
2.60801
2.61027
2.61294
2.616
2.61954
2.62362
2.62835
2.63328
2.63872
2.64494
2.65234
2.66015
2.6673
2.67508
2.68556
2.69667
2.7069
2.71534
2.72443
2.73702
2.75186
2.76296
2.77303
2.77805
2.78659
2.79547
2.81003
2.82081
2.83086
2.83823
2.84212
2.70838
1.45316
1.13499
1.13573
1.14036
1.14495
1.15076
1.1578
1.16107
1.15535
1.14533
1.13966
0.991132
0.860586
0.722409
0.63209
0.567276
0.531092
0.489546
0.462038
0.438745
0.426274
0.419099
0.40996
0.404973
0.401089
0.401963
0.405444
0.408321
0.4082
0.405954
0.405385
0.408234
0.409549
0.41312
0.413483
0.416386
0.419035
0.420739
0.425034
0.428267
0.434364
0.439665
0.447166
0.453705
0.459446
0.463946
0.467114
0.468538
0.469329
0.469413
0.468923
0.467868
0.465463
0.461268
0.454994
0.446618
0.435809
0.42275
0.408044
0.391994
0.376438
0.363221
0.352221
0.3438
0.337589
0.33436
0.334928
0.333782
0.334938
0.337757
0.341012
0.344312
0.345531
0.34839
2.59873
2.59872
2.59881
2.59895
2.59918
2.59949
2.59992
2.60046
2.60115
2.60201
2.60307
2.60437
2.60594
2.60781
2.61003
2.61268
2.61565
2.61914
2.62321
2.62795
2.6326
2.63788
2.6446
2.65214
2.6597
2.66609
2.67388
2.68549
2.69598
2.70619
2.71415
2.72275
2.73411
2.74864
2.75936
2.76958
2.77765
2.78658
2.79719
2.80893
2.81899
2.83242
2.84193
2.76712
2.52999
1.29259
1.13958
1.13163
1.13015
1.12846
1.12717
1.12947
1.12948
1.10743
1.07468
1.02875
0.828811
0.677677
0.518152
0.449696
0.431374
0.424121
0.420995
0.416611
0.412583
0.408619
0.408958
0.410263
0.414916
0.415136
0.415112
0.412834
0.413789
0.415538
0.41663
0.416706
0.419194
0.420328
0.423111
0.424158
0.425964
0.428677
0.430041
0.433704
0.435925
0.440705
0.444542
0.450799
0.456568
0.461906
0.466089
0.468566
0.469949
0.470721
0.470653
0.470083
0.468644
0.465979
0.461871
0.456107
0.448565
0.438766
0.426882
0.413358
0.398386
0.3837
0.371021
0.360579
0.352864
0.347231
0.344444
0.345129
0.343918
0.344687
0.347161
0.350256
0.35291
0.35359
0.355975
2.59872
2.59871
2.59878
2.59893
2.59914
2.59946
2.59986
2.60039
2.60105
2.6019
2.60294
2.6042
2.60573
2.60757
2.60975
2.61235
2.61522
2.61868
2.62275
2.62735
2.6318
2.63702
2.64422
2.65143
2.65844
2.66506
2.67308
2.68477
2.69463
2.70475
2.71203
2.72054
2.7314
2.74557
2.75642
2.76699
2.77793
2.7889
2.799
2.80777
2.81327
2.81171
2.79384
2.62529
1.89495
1.16492
1.13108
1.12878
1.12614
1.12199
1.11335
1.108
1.10001
1.04941
0.957236
0.859405
0.623698
0.472633
0.395781
0.383395
0.396006
0.40292
0.408958
0.414037
0.418587
0.420302
0.423387
0.422713
0.425045
0.426308
0.428983
0.428341
0.428309
0.429435
0.430754
0.430485
0.431688
0.431622
0.433053
0.434257
0.434772
0.437214
0.4383
0.441609
0.443238
0.447431
0.450838
0.456289
0.461142
0.465722
0.469174
0.471014
0.472512
0.473095
0.473075
0.472215
0.470407
0.467539
0.463495
0.458132
0.451287
0.442329
0.431302
0.418719
0.404787
0.39099
0.378897
0.369165
0.362053
0.356876
0.354367
0.35508
0.353756
0.354233
0.356619
0.359263
0.361256
0.361547
0.363382
2.5987
2.59869
2.59876
2.59889
2.59911
2.59941
2.5998
2.6003
2.60096
2.60178
2.60278
2.604
2.60549
2.60728
2.60944
2.61191
2.61472
2.61815
2.62217
2.62653
2.63095
2.63626
2.64341
2.65026
2.65653
2.6637
2.67268
2.68324
2.6927
2.70251
2.70868
2.71794
2.72786
2.74295
2.75467
2.7667
2.77821
2.7888
2.79839
2.80883
2.82418
2.83021
2.82113
2.67054
1.44935
1.12675
1.11852
1.11467
1.11331
1.11004
1.09393
1.07399
1.0479
0.958404
0.786061
0.631303
0.446578
0.382198
0.367126
0.388628
0.401179
0.413629
0.422113
0.427207
0.430336
0.432881
0.43697
0.439277
0.442558
0.442545
0.444433
0.443313
0.441808
0.441436
0.442375
0.442631
0.443391
0.443486
0.444109
0.445849
0.446573
0.448903
0.449792
0.45234
0.452995
0.456167
0.457962
0.461538
0.46524
0.46944
0.472718
0.47491
0.476651
0.477415
0.477197
0.475879
0.4737
0.470585
0.46656
0.461481
0.45493
0.44634
0.435909
0.42417
0.411316
0.398444
0.386955
0.377896
0.371163
0.366397
0.364152
0.364822
0.363525
0.364043
0.366139
0.367839
0.369206
0.369255
0.370595
2.59867
2.59866
2.59873
2.59887
2.59906
2.59935
2.59974
2.60022
2.60085
2.60163
2.6026
2.6038
2.60522
2.60696
2.60909
2.61143
2.61414
2.61754
2.62147
2.62554
2.62988
2.63559
2.64216
2.64858
2.65431
2.66164
2.67238
2.68163
2.69067
2.69931
2.70479
2.71441
2.72466
2.74176
2.75438
2.76636
2.777
2.78621
2.79489
2.80569
2.81515
2.81373
2.70655
2.39221
1.25647
1.12276
1.11017
1.10298
1.09975
1.09435
1.0658
1.01922
0.935029
0.800686
0.591955
0.442358
0.38136
0.367926
0.392845
0.406805
0.422038
0.432874
0.440686
0.446248
0.449946
0.451313
0.453486
0.454582
0.456878
0.456391
0.457896
0.457562
0.458771
0.458675
0.459611
0.45994
0.460107
0.459302
0.458243
0.458159
0.457852
0.458982
0.459574
0.461104
0.460848
0.463684
0.466157
0.469501
0.472986
0.476237
0.478729
0.480941
0.482343
0.482799
0.481966
0.480161
0.477586
0.474295
0.470166
0.465048
0.458608
0.450425
0.44067
0.429785
0.417965
0.405956
0.395067
0.38661
0.38024
0.376087
0.373893
0.374447
0.373335
0.373891
0.37538
0.376303
0.377228
0.377102
0.377891
2.59865
2.59864
2.59871
2.59883
2.59902
2.59929
2.59965
2.60012
2.60073
2.60149
2.60242
2.60354
2.60493
2.6066
2.60868
2.61086
2.61348
2.61686
2.62065
2.62432
2.62861
2.63477
2.64067
2.64612
2.65202
2.66017
2.6709
2.67976
2.68834
2.69461
2.70037
2.70941
2.72292
2.74085
2.75378
2.76474
2.77424
2.78195
2.78861
2.79817
2.79562
2.76917
2.5844
1.71791
1.10996
1.10379
1.10184
1.09337
1.08492
1.0654
1.00408
0.932201
0.748767
0.589694
0.433019
0.382515
0.37395
0.397691
0.412238
0.428
0.440385
0.449905
0.456777
0.461657
0.465216
0.467379
0.468631
0.469202
0.470935
0.471067
0.472802
0.472226
0.473639
0.473039
0.474272
0.474784
0.474846
0.473814
0.473011
0.472922
0.472412
0.473288
0.473717
0.474335
0.473001
0.474147
0.475119
0.476819
0.478885
0.48144
0.48382
0.486617
0.488438
0.488635
0.48695
0.484478
0.481702
0.478346
0.474286
0.469364
0.463124
0.455323
0.446037
0.435794
0.424968
0.413729
0.403385
0.395352
0.389494
0.385885
0.383545
0.384072
0.383241
0.383654
0.384699
0.384888
0.385166
0.384814
0.385125
2.59861
2.5986
2.59867
2.59878
2.59897
2.59923
2.59958
2.60003
2.60059
2.60132
2.60221
2.60329
2.6046
2.60622
2.60817
2.61022
2.61274
2.61609
2.6196
2.62296
2.6274
2.63343
2.63895
2.64331
2.64922
2.65865
2.66881
2.67716
2.68508
2.68935
2.69587
2.70413
2.72238
2.73923
2.75068
2.7605
2.77032
2.77959
2.78938
2.80472
2.82634
2.80981
2.69493
1.32873
1.0935
1.09176
1.08814
1.07711
1.05166
1.00419
0.883056
0.770134
0.554155
0.428387
0.381559
0.382313
0.40229
0.417788
0.432655
0.44583
0.456523
0.464563
0.470181
0.474269
0.477414
0.479866
0.481711
0.482882
0.484219
0.484376
0.485721
0.485429
0.4869
0.486095
0.487745
0.488516
0.489959
0.489983
0.489267
0.487794
0.485184
0.48437
0.484072
0.484528
0.483724
0.483889
0.485496
0.487842
0.489472
0.491744
0.4928
0.493861
0.494519
0.49489
0.494067
0.492204
0.489544
0.485968
0.481549
0.476114
0.469492
0.461656
0.452747
0.443185
0.432975
0.422157
0.412075
0.404263
0.39877
0.395757
0.393322
0.393817
0.392791
0.39288
0.393574
0.393179
0.393135
0.392835
0.392794
2.59859
2.59858
2.59864
2.59875
2.59893
2.59917
2.59948
2.59992
2.60045
2.60114
2.60198
2.60296
2.60422
2.60576
2.60759
2.60951
2.61195
2.61516
2.61833
2.62151
2.62605
2.63162
2.63678
2.64049
2.64626
2.65629
2.66577
2.67375
2.68119
2.6856
2.69216
2.70093
2.71988
2.73372
2.74407
2.75458
2.76536
2.77451
2.78039
2.78046
2.77025
2.60468
2.14175
1.15251
1.07793
1.06572
1.05955
1.03221
0.973921
0.89127
0.704464
0.548572
0.420758
0.381836
0.388406
0.405987
0.422084
0.43682
0.449762
0.460824
0.469841
0.476521
0.481168
0.484702
0.487508
0.490035
0.492296
0.494044
0.495632
0.495985
0.497402
0.497231
0.498232
0.497757
0.499429
0.49992
0.501779
0.502752
0.502603
0.502758
0.501314
0.499949
0.499236
0.499288
0.498078
0.49648
0.495008
0.495586
0.496837
0.499026
0.500253
0.501431
0.502145
0.502579
0.501806
0.499482
0.496088
0.492473
0.488321
0.483084
0.476461
0.468723
0.460094
0.450794
0.440922
0.430424
0.420726
0.41333
0.408259
0.405732
0.403185
0.403602
0.402202
0.402128
0.402556
0.401763
0.401114
0.400434
0.399995
2.59855
2.59854
2.5986
2.59871
2.59887
2.59908
2.5994
2.59978
2.60029
2.60092
2.60173
2.60262
2.6038
2.60525
2.60695
2.60871
2.61106
2.61404
2.61694
2.61993
2.6243
2.62936
2.63425
2.63797
2.64357
2.65216
2.66108
2.66866
2.676
2.6832
2.68904
2.69986
2.71205
2.72428
2.73759
2.74966
2.76164
2.77359
2.78058
2.77798
2.75878
2.53721
1.61444
1.02882
1.03778
1.03022
1.0106
0.963025
0.830675
0.716909
0.517092
0.416052
0.380402
0.394131
0.406845
0.424607
0.439362
0.452093
0.462986
0.47238
0.480004
0.485775
0.490064
0.493472
0.496292
0.49902
0.501478
0.503547
0.50522
0.506075
0.507387
0.508012
0.509021
0.509204
0.51066
0.511224
0.513022
0.514981
0.514931
0.516069
0.515429
0.512251
0.510348
0.509629
0.50843
0.507644
0.507277
0.507813
0.508861
0.510796
0.511048
0.508667
0.507744
0.507908
0.508068
0.507195
0.50502
0.501265
0.496638
0.490925
0.483833
0.475898
0.467409
0.458335
0.448778
0.438719
0.42947
0.422493
0.417713
0.415528
0.412896
0.413039
0.41145
0.411298
0.411289
0.410036
0.409008
0.4084
0.408149
2.59852
2.59851
2.59855
2.59865
2.59879
2.59901
2.59929
2.59965
2.60011
2.6007
2.60144
2.60225
2.60333
2.60471
2.60624
2.60783
2.61003
2.61273
2.61545
2.61819
2.62199
2.62667
2.63123
2.63554
2.64045
2.64686
2.6552
2.66278
2.6707
2.67924
2.68722
2.69504
2.70481
2.71305
2.73063
2.7461
2.76146
2.77806
2.79765
2.81832