/*--------------------------------*- C++ -*----------------------------------*\
| =========                 |                                                 |
| \\      /  F ield         | OpenFOAM: The Open Source CFD Toolbox           |
|  \\    /   O peration     | Version:  2.2.x                                 |
|   \\  /    A nd           | Web:      www.OpenFOAM.org                      |
|    \\/     M anipulation  |                                                 |
\*---------------------------------------------------------------------------*/
FoamFile
{
    version     2.0;
    format      ascii;
    class       volScalarField;
    location    "1.3";
    object      p;
}
// * * * * * * * * * * * * * * * * * * * * * * * * * * * * * * * * * * * * * //

dimensions      [1 -1 -2 0 0 0 0];

internalField   nonuniform List<scalar> 
14161
(
0.199894
0.199896
0.199884
0.199862
0.199828
0.19978
0.199716
0.199634
0.199531
0.199404
0.199248
0.199061
0.198837
0.198574
0.198271
0.197914
0.197519
0.197084
0.196574
0.196045
0.1955
0.194838
0.194236
0.193613
0.192934
0.192328
0.191817
0.191415
0.191096
0.190944
0.190927
0.191061
0.191394
0.191979
0.192858
0.194084
0.195689
0.19762
0.200109
0.202997
0.206017
0.209607
0.214042
0.218659
0.22317
0.226633
0.261513
1.1471
1.59482
1.64381
1.65839
1.65055
1.63887
1.60911
1.58627
1.54994
1.52065
1.49065
1.46074
1.43173
1.40597
1.38172
1.36017
1.33886
1.31762
1.29887
1.28221
1.26759
1.25561
1.24241
1.22984
1.21878
1.20917
1.20345
1.19907
1.19141
1.18075
1.16791
1.1549
1.14429
1.13507
1.13043
1.12352
1.10499
1.09811
1.08467
1.07514
1.06159
1.04891
1.02522
0.998132
0.973464
0.953242
0.932111
0.917629
0.902888
0.88845
0.871919
0.851382
0.835966
0.825811
0.83342
0.870549
0.921861
1.05544
1.25722
1.46084
1.62094
1.73822
1.81305
1.86167
1.90198
1.93556
1.95907
1.97561
1.98956
2.0014
2.00832
2.02729
0.199894
0.199896
0.199884
0.199862
0.199827
0.19978
0.199716
0.199634
0.199531
0.199404
0.199248
0.199061
0.198837
0.198574
0.19827
0.197915
0.19752
0.19708
0.196577
0.196046
0.195489
0.19485
0.194229
0.193602
0.192911
0.192342
0.191834
0.19137
0.191061
0.190918
0.190899
0.191021
0.191336
0.191895
0.192748
0.193943
0.195509
0.197452
0.199925
0.202752
0.20578
0.209389
0.213835
0.218636
0.223722
0.226825
0.266661
1.1582
1.59745
1.64906
1.6608
1.64892
1.63769
1.60451
1.58264
1.5466
1.51747
1.48663
1.45683
1.4284
1.40201
1.3772
1.35346
1.33277
1.31284
1.29412
1.27876
1.26371
1.2497
1.23741
1.22497
1.21404
1.20467
1.19626
1.18888
1.18214
1.17397
1.16193
1.15045
1.14045
1.13204
1.12525
1.11992
1.0999
1.08822
1.07431
1.06285
1.04958
1.03747
1.0164
0.995255
0.974058
0.955608
0.933898
0.916201
0.897196
0.879636
0.861702
0.848235
0.842081
0.845043
0.876861
0.945711
1.06751
1.2701
1.47761
1.63951
1.74599
1.81976
1.86744
1.90034
1.93204
1.95947
1.97868
1.99149
2.00167
2.00829
2.00742
2.02863
0.199894
0.199896
0.199884
0.199862
0.199827
0.19978
0.199716
0.199634
0.199531
0.199404
0.199248
0.199061
0.198837
0.198575
0.19827
0.197917
0.197519
0.197075
0.196581
0.196041
0.195474
0.194862
0.194218
0.193583
0.192898
0.19234
0.19183
0.191301
0.190982
0.190848
0.190824
0.190921
0.191198
0.191687
0.192477
0.193599
0.195095
0.19701
0.199421
0.202082
0.205043
0.208722
0.212901
0.217544
0.223088
0.226707
0.270056
1.15599
1.59295
1.65179
1.66564
1.64775
1.63481
1.59807
1.57392
1.53648
1.50743
1.47628
1.4461
1.41839
1.39079
1.3651
1.33997
1.31736
1.2996
1.28284
1.26592
1.252
1.23941
1.22913
1.21883
1.2069
1.19632
1.18577
1.17481
1.16642
1.16157
1.15352
1.1427
1.13319
1.12594
1.11934
1.11181
1.09064
1.0764
1.06267
1.04941
1.03643
1.02535
1.00572
0.989991
0.971908
0.957088
0.934516
0.914353
0.891179
0.8736
0.860486
0.856997
0.870037
0.898487
0.974158
1.09717
1.27727
1.45928
1.62397
1.7328
1.80182
1.85226
1.88894
1.91765
1.94524
1.96809
1.98415
1.99442
2.00127
2.00465
1.99904
2.01913
0.199894
0.199896
0.199884
0.199862
0.199827
0.19978
0.199716
0.199634
0.199531
0.199404
0.199248
0.199061
0.198837
0.198575
0.198268
0.197919
0.197518
0.197067
0.196587
0.19604
0.195457
0.19487
0.194207
0.193566
0.192894
0.192297
0.1918
0.191255
0.190866
0.190708
0.190669
0.19073
0.190943
0.191345
0.192002
0.192991
0.194379
0.196185
0.19843
0.200929
0.203769
0.207533
0.211124
0.2154
0.221451
0.225357
0.264225
1.14617
1.58782
1.65376
1.66681
1.64159
1.62969
1.58925
1.56401
1.52401
1.49203
1.45873
1.42768
1.39732
1.36936
1.34157
1.31591
1.29344
1.27409
1.2586
1.24377
1.22955
1.2186
1.20885
1.20106
1.19056
1.17798
1.16583
1.1556
1.14636
1.13855
1.13518
1.12802
1.11935
1.11209
1.10427
1.09355
1.07258
1.05876
1.04716
1.03447
1.02117
1.00886
0.990872
0.977766
0.96044
0.946655
0.925145
0.905242
0.886765
0.875827
0.874736
0.885625
0.937544
1.02121
1.18278
1.37649
1.55385
1.68537
1.7602
1.81867
1.8566
1.89399
1.92202
1.94265
1.96245
1.97887
1.99066
1.99651
1.998
1.99882
1.98982
2.00888
0.199894
0.199896
0.199884
0.199862
0.199828
0.19978
0.199716
0.199635
0.199532
0.199404
0.199249
0.199061
0.198838
0.198575
0.198267
0.197921
0.197518
0.197062
0.196591
0.196039
0.195447
0.194867
0.194192
0.193532
0.192891
0.192244
0.191728
0.19123
0.19075
0.190479
0.190387
0.190414
0.190547
0.190841
0.191305
0.192082
0.193261
0.194834
0.196787
0.199091
0.201889
0.205329
0.208427
0.212507
0.218779
0.225239
0.262099
1.12302
1.57985
1.64987
1.66378
1.62717
1.61347
1.56735
1.54022
1.49733
1.46338
1.42834
1.39455
1.36483
1.33674
1.30964
1.28454
1.2597
1.24074
1.22567
1.21106
1.19797
1.18619
1.17669
1.17047
1.16396
1.15324
1.14194
1.13146
1.12116
1.11171
1.10504
1.10265
1.09738
1.09094
1.08296
1.07124
1.05252
1.03769
1.02503
1.01275
1.00039
0.989421
0.972515
0.961716
0.946635
0.932275
0.912909
0.901711
0.891872
0.891975
0.921149
0.96403
1.08949
1.26276
1.44724
1.61502
1.71743
1.77809
1.82438
1.85862
1.88498
1.91396
1.93487
1.95241
1.96996
1.98408
1.99258
1.99449
1.99182
1.99083
1.98107
1.99783
0.199894
0.199896
0.199884
0.199862
0.199828
0.19978
0.199717
0.199635
0.199532
0.199405
0.199249
0.199062
0.198838
0.198576
0.198267
0.197921
0.197517
0.19706
0.19659
0.196037
0.195438
0.194856
0.194183
0.193491
0.192877
0.1922
0.191594
0.191136
0.190651
0.190229
0.189997
0.189947
0.189989
0.19016
0.190442
0.19089
0.191707
0.192866
0.194494
0.196554
0.199005
0.201746
0.204884
0.208206
0.213716
0.221403
0.247434
1.06302
1.56692
1.64587
1.66057
1.6078
1.5897
1.53468
1.50205
1.45861
1.42067
1.38343
1.34746
1.31465
1.28632
1.26154
1.24035
1.21873
1.1983
1.18226
1.16778
1.15644
1.1456
1.13624
1.12818
1.12221
1.11656
1.10997
1.10144
1.09046
1.07965
1.07028
1.06319
1.06157
1.0573
1.05079
1.04032
1.02413
1.01008
0.99771
0.985183
0.974352
0.966587
0.953602
0.945
0.935411
0.925109
0.906239
0.915412
0.921234
0.951688
1.02888
1.14974
1.34032
1.52029
1.66089
1.73214
1.78002
1.8201
1.85141
1.87583
1.8999
1.92189
1.94015
1.95946
1.97481
1.98517
1.98971
1.98975
1.98467
1.98226
1.97245
1.98616
0.199895
0.199897
0.199884
0.199862
0.199828
0.19978
0.199717
0.199635
0.199533
0.199405
0.19925
0.199063
0.198839
0.198577
0.198268
0.197921
0.197518
0.19706
0.196585
0.196036
0.195433
0.194838
0.194188
0.193457
0.192841
0.192193
0.191477
0.190954
0.190502
0.190004
0.18957
0.189319
0.189237
0.189263
0.189332
0.189469
0.189681
0.190296
0.191368
0.193059
0.194846
0.196956
0.199556
0.20247
0.205877
0.211274
0.226964
0.967737
1.54687
1.63941
1.64681
1.56781
1.5423
1.47726
1.43672
1.3992
1.36004
1.32116
1.28965
1.25667
1.23181
1.20881
1.18687
1.17289
1.15437
1.13701
1.12514
1.11493
1.1047
1.09518
1.08636
1.07849
1.07319
1.06853
1.06369
1.05622
1.04583
1.03486
1.02596
1.02011
1.0173
1.01524
1.00699
0.993962
0.981537
0.972454
0.962319
0.954741
0.948546
0.942818
0.937777
0.929373
0.935357
0.924595
0.964294
1.00342
1.09374
1.24817
1.41052
1.57448
1.67857
1.73034
1.7662
1.80155
1.83542
1.86033
1.88262
1.90514
1.92615
1.94528
1.96225
1.9746
1.9818
1.98375
1.98349
1.97814
1.97452
1.9645
1.97533
0.199895
0.199897
0.199885
0.199863
0.199829
0.199781
0.199718
0.199636
0.199534
0.199406
0.199251
0.199064
0.198841
0.198578
0.198271
0.19792
0.197519
0.197063
0.196572
0.196035
0.19543
0.194811
0.194173
0.19343
0.192767
0.192136
0.191406
0.19072
0.190224
0.189745
0.189179
0.188656
0.188296
0.188104
0.18801
0.18787
0.187585
0.187322
0.187549
0.188237
0.189376
0.190587
0.192049
0.193595
0.195129
0.196432
0.211249
0.801296
1.50632
1.62354
1.62051
1.51281
1.47124
1.39831
1.35038
1.31838
1.28935
1.25694
1.23264
1.20291
1.18038
1.15472
1.13427
1.12016
1.10317
1.0898
1.07758
1.06649
1.05821
1.04984
1.04205
1.03365
1.0277
1.02258
1.01766
1.01437
1.00792
0.998574
0.989271
0.983438
0.979795
0.980821
0.979549
0.972627
0.962656
0.957012
0.950416
0.950444
0.941713
0.944942
0.94884
0.94573
0.979802
0.991778
1.084
1.19202
1.34046
1.49449
1.62181
1.68625
1.72231
1.74778
1.7748
1.80679
1.8361
1.8612
1.88466
1.90713
1.92784
1.9461
1.96059
1.97004
1.97538
1.97671
1.97645
1.97151
1.9672
1.957
1.9655
0.199896
0.199897
0.199885
0.199863
0.199829
0.199782
0.199719
0.199637
0.199535
0.199408
0.199253
0.199066
0.198843
0.19858
0.198274
0.197919
0.197522
0.197066
0.196559
0.196031
0.195431
0.194778
0.194137
0.193435
0.192675
0.192033
0.191347
0.190532
0.189871
0.189347
0.188782
0.18805
0.187293
0.186768
0.186342
0.185988
0.185481
0.184384
0.183338
0.182689
0.182358
0.182008
0.181579
0.181336
0.181525
0.177911
0.189244
0.516909
1.39491
1.60551
1.56918
1.44479
1.37723
1.31088
1.26461
1.2355
1.2159
1.18406
1.1712
1.14302
1.12243
1.09983
1.0775
1.06414
1.04923
1.0378
1.02688
1.0179
1.00989
1.00356
0.998186
0.992308
0.984523
0.979851
0.976703
0.974401
0.972634
0.96965
0.963943
0.957177
0.955476
0.957683
0.960902
0.961209
0.953283
0.955678
0.950829
0.959093
0.956027
0.973112
0.994313
1.00392
1.08379
1.15988
1.30204
1.4452
1.57519
1.65855
1.69231
1.71331
1.72887
1.74897
1.77403
1.80103
1.83218
1.85855
1.88306
1.9058
1.92618
1.94295
1.95505
1.96211
1.96736
1.96939
1.96916
1.96405
1.95947
1.94952
1.95656
0.199896
0.199898
0.199886
0.199864
0.19983
0.199783
0.19972
0.199639
0.199536
0.19941
0.199255
0.199069
0.198846
0.198583
0.198277
0.197919
0.197525
0.19707
0.196553
0.196023
0.195429
0.194755
0.194099
0.193416
0.192593
0.191888
0.191211
0.19042
0.18952
0.188816
0.188228
0.18748
0.186401
0.185384
0.184519
0.183781
0.183027
0.181888
0.179723
0.177566
0.175387
0.173103
0.170418
0.167254
0.164595
0.159
0.162926
0.198695
1.13426
1.64231
1.48984
1.37682
1.29157
1.22826
1.19195
1.16426
1.14958
1.12472
1.11133
1.0899
1.06652
1.0515
1.02831
1.01749
1.00085
0.993174
0.984865
0.973788
0.967423
0.964262
0.960229
0.95707
0.953654
0.947208
0.944847
0.944903
0.946
0.948556
0.948965
0.944052
0.944912
0.94871
0.953645
0.960272
0.954128
0.971971
0.975739
0.992744
1.0075
1.04059
1.10739
1.16542
1.29911
1.42277
1.54689
1.64709
1.68765
1.70067
1.70717
1.71398
1.7266
1.74438
1.76567
1.79739
1.82758
1.85413
1.87967
1.90235
1.92119
1.93558
1.9462
1.95311
1.95899
1.96157
1.96115
1.95561
1.95122
1.94246
1.94878
0.199897
0.199899
0.199887
0.199865
0.199831
0.199784
0.199721
0.19964
0.199539
0.199412
0.199258
0.199072
0.198849
0.198587
0.198281
0.197924
0.197526
0.197072
0.196552
0.196011
0.195422
0.194735
0.194054
0.193366
0.192554
0.191731
0.191021
0.190243
0.189227
0.188318
0.187565
0.186762
0.185715
0.18422
0.182906
0.181572
0.180333
0.179042
0.17704
0.174138
0.170286
0.166176
0.161247
0.154768
0.146741
0.137907
0.124624
0.12433
0.675994
1.68417
1.45629
1.32947
1.24414
1.17999
1.14865
1.11773
1.09511
1.07317
1.06019
1.04463
1.01915
1.01258
0.98864
0.980969
0.965225
0.95695
0.949577
0.938923
0.933679
0.932289
0.931566
0.930965
0.931237
0.92779
0.927358
0.929356
0.931017
0.938606
0.941811
0.939844
0.948903
0.955659
0.959365
0.979891
0.98319
1.01941
1.03784
1.08045
1.14008
1.21211
1.32702
1.42265
1.54278
1.64305
1.69503
1.70771
1.70732
1.70384
1.70478
1.71181
1.72453
1.73889
1.76304
1.7931
1.82234
1.84958
1.87576
1.8973
1.9132
1.926
1.93673
1.94429
1.95062
1.95341
1.95212
1.94667
1.94302
1.93601
1.94183
0.199898
0.199899
0.199887
0.199866
0.199832
0.199785
0.199723
0.199642
0.199541
0.199415
0.199262
0.199076
0.198854
0.198592
0.198286
0.197931
0.197528
0.197074
0.196554
0.196
0.195411
0.194718
0.193999
0.193307
0.192514
0.191596
0.190794
0.18999
0.18902
0.187888
0.18689
0.186026
0.184896
0.183458
0.181631
0.179876
0.178041
0.17634
0.174669
0.171937
0.167978
0.16267
0.157404
0.151496
0.145689
0.139137
0.142558
0.179269
0.439602
1.56284
1.40099
1.33248
1.25195
1.17712
1.14365
1.10082
1.06518
1.0344
1.01487
1.00602
0.982259
0.984871
0.96137
0.953737
0.942347
0.931515
0.924598
0.915616
0.911595
0.912209
0.914575
0.917755
0.919713
0.919448
0.923606
0.926869
0.927032
0.939994
0.949964
0.952542
0.976067
0.991299
0.99791
1.04098
1.07179
1.14032
1.20393
1.26594
1.37545
1.46457
1.56877
1.6517
1.70547
1.72189
1.72357
1.71167
1.70354
1.70178
1.70359
1.71149
1.71934
1.73541
1.75937
1.78902
1.81854
1.84634
1.87148
1.8899
1.90324
1.91595
1.92777
1.93617
1.94216
1.94416
1.9422
1.93788
1.9352
1.92981
1.93497
0.199899
0.1999
0.199888
0.199867
0.199833
0.199787
0.199725
0.199645
0.199544
0.199419
0.199266
0.199081
0.198859
0.198598
0.198291
0.197938
0.197533
0.197076
0.196558
0.195993
0.195397
0.194702
0.193958
0.193241
0.192453
0.191494
0.190576
0.189716
0.18877
0.187611
0.186373
0.185229
0.184188
0.182811
0.180735
0.178695
0.176606
0.174481
0.173019
0.170472
0.16692
0.161427
0.156379
0.150699
0.144339
0.136011
0.130645
0.169988
0.385203
1.12449
1.27839
1.30799
1.27352
1.17567
1.14284
1.0998
1.05278
1.01958
0.994193
0.979333
0.962663
0.968123
0.94576
0.939187
0.931747
0.919357
0.913542
0.90719
0.904678
0.907398
0.909124
0.916077
0.920302
0.920259
0.931668
0.94092
0.943793
0.967266
0.989055
1.00467
1.04892
1.0907
1.12046
1.19788
1.27168
1.35727
1.44577
1.52241
1.61328
1.68166
1.72551
1.73406
1.73795
1.7264
1.71436
1.70538
1.70194
1.70179
1.70508
1.70893
1.71785
1.73522
1.75863
1.78729
1.81639
1.84335
1.86506
1.88052
1.89345
1.90706
1.91952
1.92785
1.9326
1.93344
1.9321
1.92989
1.92813
1.92339
1.92803
0.1999
0.199901
0.199889
0.199868
0.199835
0.199789
0.199727
0.199648
0.199547
0.199423
0.199271
0.199086
0.198866
0.198605
0.198298
0.197947
0.19754
0.19708
0.196564
0.195992
0.195382
0.194688
0.193926
0.193173
0.192374
0.191425
0.190389
0.189444
0.188534
0.187401
0.185937
0.184615
0.18357
0.182174
0.180168
0.178038
0.175976
0.173817
0.172515
0.170135
0.16726
0.162471
0.158334
0.154464
0.152152
0.152971
0.169837
0.300486
0.632043
0.8237
1.08667
1.2363
1.25431
1.19306
1.15956
1.1193
1.06707
1.02515
0.997884
0.97739
0.959528
0.961101
0.937204
0.931622
0.926898
0.91426
0.911704
0.907072
0.908384
0.914962
0.916103
0.929524
0.94
0.94338
0.97159
0.991666
1.00639
1.04786
1.098
1.14919
1.21831
1.29403
1.36063
1.44392
1.52213
1.60364
1.67491
1.72279
1.74475
1.75151
1.75338
1.73757
1.72712
1.71657
1.70808
1.70274
1.70177
1.70221
1.70422
1.7078
1.71909
1.7369
1.76015
1.78718
1.8141
1.83831
1.85638
1.87011
1.88424
1.899
1.91122
1.91823
1.92173
1.92175
1.92194
1.92273
1.92158
1.91636
1.92062
0.199901
0.199902
0.199891
0.199869
0.199837
0.199791
0.19973
0.199651
0.199552
0.199428
0.199277
0.199093
0.198874
0.198614
0.198308
0.197956
0.197549
0.197083
0.196573
0.195999
0.19537
0.194672
0.193902
0.193124
0.192308
0.191342
0.190243
0.189246
0.188328
0.187171
0.18565
0.184253
0.18303
0.181607
0.179702
0.177797
0.175904
0.174092
0.172728
0.170403
0.167725
0.163833
0.160731
0.157981
0.156032
0.157644
0.174033
0.557418
0.804819
0.824244
0.905568
1.07752
1.16925
1.21942
1.17254
1.14777
1.08289
1.04426
1.01304
0.987582
0.965624
0.963552
0.940458
0.931301
0.925143
0.91935
0.921135
0.915682
0.931198
0.942448
0.946889
0.979215
1.00092
1.01763
1.07396
1.12169
1.16639
1.22932
1.31627
1.40013
1.47761
1.54939
1.61191
1.67534
1.72952
1.75742
1.7639
1.76879
1.76421
1.74934
1.73747
1.72696
1.71909
1.7095
1.70337
1.70146
1.70117
1.702
1.70336
1.70911
1.72111
1.7393
1.76114
1.78575
1.81026
1.8317
1.84756
1.86097
1.87612
1.89109
1.90186
1.90766
1.91043
1.91016
1.91259
1.91574
1.91445
1.90877
1.91307
0.199902
0.199904
0.199892
0.199871
0.199839
0.199793
0.199733
0.199655
0.199556
0.199434
0.199283
0.199101
0.198883
0.198624
0.19832
0.197968
0.197561
0.197092
0.196585
0.196011
0.195366
0.194661
0.19388
0.193095
0.192246
0.191261
0.190163
0.189101
0.188107
0.186946
0.185513
0.184097
0.182701
0.181178
0.179451
0.17777
0.176073
0.174884
0.173285
0.171388
0.168306
0.166092
0.164469
0.163582
0.163539
0.177039
0.236359
0.731718
0.842706
0.836605
0.848369
0.897635
1.02149
1.15196
1.1778
1.17755
1.10507
1.06643
1.02587
0.998242
0.97464
0.968837
0.949146
0.943238
0.929867
0.944961
0.955713
0.948522
0.989675
1.0188
1.03846
1.10324
1.15588
1.20026
1.28324
1.36047
1.4277
1.49431
1.577
1.64635
1.70181
1.73777
1.75827
1.77199
1.78008
1.78297
1.76979
1.75938
1.74755
1.73664
1.72871
1.71945
1.71094
1.70419
1.70127
1.70033
1.70034
1.70137
1.70461
1.7118
1.72411
1.74105
1.75994
1.7819
1.80461
1.82435
1.83931
1.85362
1.86889
1.88246
1.89108
1.89592
1.89872
1.90032
1.90474
1.90818
1.90655
1.90085
1.90532
0.199904
0.199905
0.199894
0.199873
0.199841
0.199796
0.199736
0.199659
0.199562
0.19944
0.199291
0.199111
0.198894
0.198636
0.198334
0.197982
0.197577
0.197109
0.196601
0.196021
0.195369
0.194651
0.193868
0.193086
0.192203
0.191187
0.190119
0.189025
0.187922
0.186722
0.185439
0.184113
0.18255
0.180918
0.179377
0.177888
0.176719
0.175647
0.17402
0.172097
0.169679
0.16849
0.167743
0.167622
0.169474
0.193744
0.424716
0.860789
0.867924
0.851754
0.846917
0.849767
0.909754
0.984407
1.13358
1.15431
1.14955
1.09025
1.05001
1.01958
0.998341
0.988355
0.97713
0.981769
0.968415
1.01055
1.04134
1.05183
1.12949
1.18573
1.23791
1.32605
1.40332
1.46914
1.54147
1.60879
1.67131
1.71447
1.7484
1.76681
1.7744
1.78069
1.78355
1.78249
1.77428
1.76448
1.75657
1.74853
1.73788
1.72782
1.72007
1.71229
1.70605
1.70247
1.7001
1.69918
1.70006
1.70251
1.70708
1.71482
1.72627
1.74099
1.75783
1.77807
1.79963
1.81833
1.8331
1.84791
1.86188
1.87257
1.87901
1.88359
1.88687
1.89221
1.89768
1.89992
1.89826
1.8932
1.89754
0.199905
0.199907
0.199895
0.199875
0.199843
0.199799
0.19974
0.199664
0.199568
0.199448
0.199301
0.199122
0.198907
0.198651
0.19835
0.198001
0.197596
0.197133
0.196618
0.196038
0.195382
0.194652
0.193888
0.193089
0.192159
0.191142
0.190108
0.189026
0.187803
0.186561
0.185429
0.184155
0.182449
0.180812
0.179443
0.178152
0.177509
0.176334
0.174969
0.172508
0.170769
0.169658
0.168023
0.166524
0.166943
0.185375
0.637495
0.892719
0.89625
0.878332
0.868034
0.861065
0.871881
0.903709
0.988138
1.06571
1.14496
1.09288
1.09834
1.02927
1.04422
1.02083
1.05168
1.07381
1.07415
1.15837
1.21676
1.26769
1.36071
1.43612
1.50693
1.57766
1.63904
1.69371
1.7297
1.75257
1.76598
1.77249
1.77891
1.78226
1.77908
1.77602
1.77189
1.76831
1.76191
1.75409
1.74663
1.73724
1.72856
1.72055
1.71391
1.70824
1.70437
1.70119
1.6982
1.69769
1.70001
1.70377
1.70903
1.71651
1.72658
1.73899
1.75456
1.77392
1.79489
1.81305
1.82756
1.84175
1.85331
1.86104
1.86645
1.8711
1.87635
1.88403
1.88928
1.89084
1.8899
1.88634
1.88999
0.199907
0.199909
0.199897
0.199877
0.199846
0.199803
0.199745
0.19967
0.199575
0.199456
0.199311
0.199134
0.198922
0.198669
0.19837
0.198023
0.197621
0.197161
0.196642
0.196059
0.1954
0.194669
0.193919
0.193098
0.192138
0.19113
0.190156
0.189026
0.187717
0.186498
0.185446
0.184206
0.182477
0.180809
0.17955
0.178496
0.178046
0.176929
0.175581
0.173241
0.172195
0.171595
0.171242
0.170668
0.180934
0.247697
0.77552
0.908444
0.909569
0.901659
0.890097
0.880226
0.87356
0.884289
0.901484
0.94456
1.06622
1.12284
1.15346
1.08893
1.13328
1.13939
1.20692
1.26159
1.30332
1.39246
1.46235
1.53445
1.60377
1.66093
1.70481
1.73263
1.75244
1.7657
1.77345
1.77626
1.77684
1.77247
1.76959
1.77063
1.76752
1.76562
1.76075
1.75551
1.75096
1.74359
1.73707
1.72867
1.72195
1.71581
1.71056
1.70625
1.70253
1.69826
1.69574
1.69706
1.70042
1.70486
1.71008
1.71681
1.72537
1.73685
1.75218
1.7707
1.79084
1.8076
1.82083
1.83402
1.84326
1.84927
1.85423
1.85923
1.86771
1.87533
1.87939
1.88089
1.88153
1.88019
1.88299
0.199909
0.199911
0.1999
0.19988
0.199849
0.199807
0.19975
0.199676
0.199583
0.199466
0.199323
0.199149
0.198939
0.198689
0.198394
0.198049
0.197651
0.197194
0.196674
0.196087
0.195433
0.194726
0.193961
0.193097
0.192134
0.191183
0.190214
0.189026
0.187698
0.186492
0.185502
0.184326
0.182661
0.180982
0.179751
0.178719
0.178319
0.17728
0.176011
0.174241
0.173655
0.173662
0.174442
0.176533
0.197957
0.438091
0.888458
0.914054
0.908973
0.906099
0.900744
0.895656
0.88676
0.888323
0.885441
0.897501
0.98944
1.12753
1.21087
1.23779
1.31843
1.35017
1.43269
1.49819
1.56148
1.62135
1.66916
1.70694
1.72855
1.74333
1.75582
1.76498
1.77029
1.77123
1.76618
1.76313
1.76189
1.76249
1.76093
1.76077
1.75579
1.75141
1.74773
1.7433
1.7411
1.73525
1.73029
1.72231
1.71656
1.71174
1.70758
1.70352
1.69868
1.69408
1.69364
1.69649
1.70064
1.70508
1.71011
1.71596
1.72352
1.73488
1.74991
1.76752
1.78595
1.8009
1.81317
1.8248
1.83249
1.83838
1.8432
1.84916
1.85837
1.86522
1.8691
1.87113
1.87319
1.87336
1.87552
0.199911
0.199913
0.199902
0.199883
0.199853
0.199811
0.199755
0.199683
0.199592
0.199477
0.199337
0.199165
0.198959
0.198713
0.198421
0.19808
0.197688
0.197236
0.196715
0.19612
0.195499
0.194806
0.194017
0.193101
0.19215
0.191296
0.190319
0.189029
0.187718
0.186527
0.185585
0.18449
0.182963
0.181287
0.180072
0.179011
0.178474
0.177483
0.176322
0.174734
0.173615
0.172602
0.171946
0.172158
0.192381
0.633839
0.940202
0.940827
0.934776
0.928734
0.921807
0.912849
0.906799
0.913619
0.917196
0.916966
1.06553
1.20103
1.36776
1.47977
1.54889
1.58801
1.64172
1.67728
1.70577
1.72051
1.73056
1.74064
1.74692
1.75309
1.75406
1.75412
1.75402
1.7537
1.75295
1.75132
1.74989
1.75077
1.74746
1.74622
1.74299
1.73921
1.7365
1.73299
1.73146
1.72693
1.72316
1.71632
1.7113
1.7075
1.7038
1.69941
1.69411
1.69128
1.69252
1.69665
1.7004
1.70456
1.70917
1.71482
1.7221
1.73326
1.74748
1.76324
1.77949
1.79338
1.80499
1.81504
1.82194
1.82852
1.83362
1.83892
1.84762
1.85435
1.85869
1.86245
1.86542
1.86544
1.86671
0.199914
0.199915
0.199905
0.199886
0.199857
0.199816
0.199762
0.199691
0.199602
0.19949
0.199352
0.199184
0.198982
0.198741
0.198453
0.198115
0.197733
0.197285
0.196766
0.196173
0.195587
0.194906
0.194058
0.19313
0.192214
0.191444
0.190446
0.18904
0.187804
0.18662
0.185722
0.184694
0.183293
0.181635
0.18044
0.179333
0.178444
0.177451
0.176244
0.174977
0.173921
0.172561
0.171735
0.180376
0.234848
0.77514
0.937781
0.944992
0.945381
0.946586
0.947435
0.943435
0.939112
0.960984
0.986148
1.01848
1.24099
1.40393
1.60347
1.68533
1.70299
1.70947
1.71559
1.72342
1.72956
1.73099
1.72831
1.72729
1.72811
1.73508
1.73827
1.73954
1.73792
1.73709
1.73654
1.73625
1.73496
1.73501
1.73297
1.73163
1.72979
1.72699
1.72576
1.72333
1.72234
1.71902
1.71654
1.71055
1.70565
1.70175
1.69815
1.69368
1.68934
1.68904
1.69228
1.6962
1.69968
1.70343
1.70763
1.71303
1.72034
1.73131
1.74442
1.75794
1.77229
1.78521
1.7965
1.8058
1.81245
1.81913
1.82384
1.82816
1.83625
1.84294
1.84877
1.85435
1.8571
1.85676
1.85729
0.199916
0.199918
0.199908
0.199889
0.199861
0.199822
0.199769
0.1997
0.199613
0.199504
0.19937
0.199206
0.199008
0.198772
0.198489
0.198158
0.197787
0.197343
0.196824
0.196251
0.195686
0.195007
0.194109
0.193222
0.192382
0.191561
0.190532
0.189131
0.187972
0.186801
0.18597
0.184954
0.183597
0.181965
0.180733
0.179559
0.178369
0.177199
0.176144
0.175246
0.174739
0.174926
0.177132
0.198275
0.413912
0.890769
0.937028
0.942477
0.945625
0.950337
0.959838
0.963037
0.965985
1.01659
1.1024
1.19068
1.47576
1.65387
1.74949
1.75363
1.73832
1.73036
1.72302
1.7166
1.7124
1.7103
1.70843
1.70957
1.71042
1.71435
1.71533
1.71756
1.7175
1.71738
1.71815
1.71973
1.71937
1.71928
1.71871
1.71775
1.71838
1.71697
1.71669
1.71427
1.71263
1.7091
1.70673
1.70122
1.69671
1.69387
1.6911
1.68714
1.68501
1.68693
1.69052
1.69396
1.69716
1.70049
1.70459
1.71027
1.71755
1.72788
1.73989
1.75173
1.76474
1.77706
1.78806
1.79717
1.80367
1.80916
1.81339
1.81722
1.82491
1.8319
1.83927
1.84538
1.8476
1.84729
1.84763
0.199919
0.199921
0.199911
0.199893
0.199866
0.199828
0.199776
0.19971
0.199626
0.19952
0.19939
0.199231
0.199038
0.198808
0.19853
0.198213
0.19785
0.197409
0.196897
0.196356
0.19579
0.195101
0.194214
0.193372
0.192614
0.191708
0.190583
0.18932
0.188211
0.187083
0.186374
0.185254
0.183958
0.182222
0.180894
0.179574
0.178343
0.177237
0.176256
0.175204
0.17372
0.173181
0.174684
0.198195
0.637253
0.94581
0.957515
0.959965
0.959528
0.959707
0.977492
0.995048
1.01399
1.10197
1.2892
1.46198
1.69337
1.77375
1.77399
1.7458
1.73187
1.71789
1.70798
1.70106
1.69578
1.69187
1.68803
1.68594
1.68519
1.68786
1.68886
1.69391
1.69676
1.69899
1.70054
1.70274
1.70319
1.70277
1.70289
1.70211
1.70357
1.70287
1.70291
1.70117
1.69995
1.69727
1.69618
1.6918
1.68832
1.68568
1.6825
1.67947
1.67952
1.68258
1.68568
1.68878
1.69172
1.69515
1.7
1.70625
1.71346
1.72305
1.73438
1.74527
1.75723
1.76914
1.77991
1.78828
1.79376
1.79852
1.80282
1.80647
1.81396
1.82197
1.83038
1.8359
1.83765
1.8375
1.83809
0.199922
0.199924
0.199915
0.199898
0.199871
0.199834
0.199785
0.199721
0.19964
0.199538
0.199412
0.199259
0.199073
0.198848
0.198576
0.198276
0.197923
0.197486
0.196988
0.196484
0.19592
0.195189
0.194374
0.193591
0.192883
0.191932
0.190629
0.18953
0.188477
0.1875
0.186848
0.185639
0.184264
0.182316
0.180904
0.179607
0.178484
0.177532
0.176648
0.175581
0.174741
0.175063
0.187634
0.263887
0.805704
0.950971
0.963741
0.969696
0.970918
0.97275
1.00259
1.04723
1.12743
1.27204
1.52199
1.69704
1.78025
1.77887
1.74607
1.72998
1.71146
1.69801
1.68741
1.67918
1.67287
1.66855
1.66508
1.66361
1.66313
1.66553
1.66574
1.66887
1.66993
1.67339
1.67552
1.6779
1.67983
1.68151
1.68414
1.68569
1.68827
1.6895
1.69022
1.68956
1.6887
1.68569
1.68318
1.67893
1.67636
1.67525
1.6733
1.67231
1.6744
1.67741
1.6803
1.68319
1.68652
1.69083
1.69664
1.70333
1.71
1.71809
1.72863
1.7391
1.75033
1.76175
1.77188
1.77856
1.78317
1.78717
1.79138
1.79606
1.8041
1.81329
1.82154
1.82594
1.82733
1.82738
1.82837
0.199926
0.199927
0.199918
0.199902
0.199877
0.199842
0.199795
0.199733
0.199655
0.199558
0.199437
0.19929
0.199111
0.198894
0.198631
0.198348
0.198006
0.197574
0.197096
0.196636
0.196073
0.195299
0.194566
0.193908
0.193153
0.192106
0.190813
0.189772
0.188778
0.188091
0.187378
0.186171
0.184418
0.182392
0.180973
0.179796
0.17879
0.178004
0.177353
0.17644
0.176892
0.180195
0.204503
0.490742
0.941314
0.957962
0.964408
0.975421
0.982378
0.999198
1.05815
1.12656
1.33924
1.52022
1.71807
1.77952
1.77521
1.74423
1.72667
1.70674
1.69057
1.67771
1.66801
1.66086
1.65568
1.65183
1.64835
1.64559
1.64331
1.64297
1.64181
1.64387
1.64496
1.65024
1.65373
1.65721
1.66037
1.66295
1.66495
1.66656
1.66924
1.67067
1.6716
1.67174
1.67283
1.67171
1.66994
1.66792
1.66695
1.66611
1.66527
1.66634
1.66882
1.67036
1.67297
1.67615
1.68015
1.68575
1.69243
1.69913
1.70496
1.7115
1.72147
1.73246
1.74343
1.75419
1.7632
1.76856
1.7725
1.77586
1.78009
1.78594
1.79543
1.80413
1.81147
1.81562
1.81731
1.81761
1.81903
0.19993
0.199931
0.199923
0.199907
0.199884
0.19985
0.199805
0.199747
0.199673
0.19958
0.199463
0.199325
0.199155
0.198946
0.198696
0.198431
0.198099
0.197674
0.197234
0.196805
0.196224
0.195471
0.194788
0.194261
0.193487
0.192291
0.191066
0.190095
0.189192
0.188741
0.187917
0.186723
0.184511
0.182607
0.181334
0.180261
0.179221
0.178262
0.177261
0.175723
0.173649
0.176179
0.199184
0.731596
0.981351
0.982453
0.983625
0.992423
1.01442
1.05901
1.18532
1.30257
1.57303
1.72422
1.77845
1.76729
1.74194
1.72209
1.70257
1.68535
1.67181
1.66111
1.6525
1.64587
1.64114
1.63759
1.63426
1.63134
1.62852
1.62682
1.62432
1.62417
1.62415
1.62832
1.63117
1.63545
1.63827
1.64108
1.64434
1.64749
1.65171
1.65484
1.65721
1.6581
1.65937
1.65905
1.65624
1.65355
1.65238
1.65206
1.65458
1.65809
1.6602
1.66088
1.66249
1.66519
1.66973
1.6761
1.68334
1.69033
1.69621
1.7025
1.71209
1.72323
1.73425
1.74444
1.7526
1.75724
1.76134
1.76467
1.76941
1.77622
1.78624
1.79395
1.801
1.80562
1.80753
1.80798
1.80959
0.199934
0.199935
0.199927
0.199913
0.199891
0.199859
0.199817
0.199762
0.199692
0.199604
0.199494
0.199365
0.199203
0.199004
0.19877
0.198523
0.1982
0.197793
0.1974
0.196987
0.196395
0.1957
0.195067
0.194615
0.193846
0.192582
0.191438
0.190506
0.189659
0.189205
0.188368
0.187123
0.184852
0.183258
0.182076
0.180905
0.179736
0.178776
0.17817
0.178275
0.179823
0.200784
0.332272
0.903741
0.992329
0.99944
1.00294
1.02901
1.08498
1.169
1.39029
1.56808
1.73682
1.77634
1.761
1.73841
1.71863
1.69951
1.68224
1.66809
1.65724
1.64805
1.64
1.63357
1.62889
1.62547
1.62278
1.62052
1.61812
1.61594
1.6121
1.60979
1.6082
1.60976
1.61133
1.61548
1.61855
1.6212
1.62466
1.62712
1.63033
1.63402
1.63704
1.63921
1.64152
1.64371
1.64462
1.64437
1.64346
1.64349
1.64579
1.64889
1.6497
1.64992
1.65184
1.65606
1.66193
1.66834
1.67478
1.68128
1.68734
1.69387
1.70324
1.7146
1.72556
1.73516
1.74255
1.74662
1.75041
1.75388
1.75998
1.76649
1.77527
1.78252
1.78989
1.79502
1.79783
1.79903
1.80134
0.199938
0.199939
0.199932
0.199919
0.199898
0.199869
0.199829
0.199778
0.199713
0.19963
0.199528
0.19941
0.199257
0.199068
0.198853
0.198625
0.198315
0.197937
0.197578
0.197188
0.196619
0.195984
0.195384
0.194929
0.194192
0.19309
0.192003
0.191105
0.190255
0.189465
0.188743
0.187368
0.18582
0.184337
0.182804
0.181441
0.180108
0.178828
0.17811
0.1785
0.181304
0.212346
0.553274
1.03212
1.02192
1.03051
1.04781
1.09226
1.24143
1.36658
1.61862
1.74517
1.77622
1.75695
1.73872
1.71668
1.69823
1.68115
1.66646
1.65449
1.64474
1.63602
1.6286
1.62274
1.6183
1.61518
1.61315
1.61123
1.60887
1.60608
1.60194
1.59824
1.59523
1.59445
1.59461
1.59716
1.59943
1.60139
1.60505
1.60744
1.61135
1.6174
1.6219
1.62563
1.62873
1.63041
1.63071
1.63018
1.62897
1.62905
1.63215
1.63831
1.64102
1.64227
1.64383
1.64696
1.65137
1.65738
1.66371
1.67078
1.67827
1.68597
1.69514
1.70581
1.71618
1.7251
1.73207
1.73613
1.74037
1.74387
1.74961
1.75567
1.7635
1.77059
1.77786
1.78409
1.78776
1.78968
1.79133
0.199943
0.199944
0.199937
0.199925
0.199906
0.199879
0.199842
0.199796
0.199736
0.199659
0.199565
0.199459
0.199317
0.19914
0.198946
0.198739
0.198449
0.198104
0.197766
0.197411
0.19691
0.196321
0.195756
0.195231
0.194597