/*--------------------------------*- C++ -*----------------------------------*\
| =========                 |                                                 |
| \\      /  F ield         | OpenFOAM: The Open Source CFD Toolbox           |
|  \\    /   O peration     | Version:  2.2.x                                 |
|   \\  /    A nd           | Web:      www.OpenFOAM.org                      |
|    \\/     M anipulation  |                                                 |
\*---------------------------------------------------------------------------*/
FoamFile
{
    version     2.0;
    format      ascii;
    class       volScalarField;
    location    "1.3";
    object      rho;
}
// * * * * * * * * * * * * * * * * * * * * * * * * * * * * * * * * * * * * * //

dimensions      [1 -3 0 0 0 0 0];

internalField   nonuniform List<scalar> 
14161
(
0.999908
0.999909
0.9999
0.999882
0.999854
0.999814
0.99976
0.99969
0.999602
0.999492
0.999358
0.999197
0.999004
0.998778
0.998512
0.998205
0.997869
0.997473
0.997022
0.996594
0.996083
0.995486
0.994998
0.994418
0.993808
0.993297
0.992823
0.992434
0.992096
0.991977
0.991947
0.992045
0.992299
0.99275
0.993445
0.994422
0.99565
0.997298
0.999385
1.00154
1.00421
1.00756
1.01225
1.01609
1.01963
1.0225
1.09885
2.18379
2.68736
2.73557
2.7433
2.73384
2.71967
2.68888
2.66315
2.62647
2.59546
2.56254
2.52787
2.49448
2.46502
2.43813
2.41323
2.39042
2.36932
2.35022
2.33518
2.32134
2.30679
2.2926
2.27976
2.26724
2.2576
2.25192
2.24508
2.23317
2.22091
2.20909
2.19693
2.18816
2.18386
2.17876
2.16817
2.15217
2.14448
2.12801
2.11581
2.10256
2.08959
2.06422
2.03379
2.0076
1.98657
1.96691
1.95468
1.93976
1.92547
1.90635
1.88647
1.87761
1.87676
1.9012
1.95768
2.04453
2.22259
2.49045
2.76618
2.93101
3.01727
3.06922
3.10819
3.146
3.17838
3.19547
3.19998
3.19916
3.19595
3.18954
3.19946
0.999908
0.999909
0.9999
0.999882
0.999854
0.999814
0.99976
0.99969
0.999602
0.999492
0.999358
0.999197
0.999004
0.998777
0.998512
0.998206
0.997867
0.997472
0.99703
0.99659
0.996077
0.995501
0.994991
0.994416
0.993796
0.993306
0.992828
0.992403
0.992084
0.991966
0.991927
0.99201
0.992245
0.992682
0.993372
0.994341
0.995587
0.997224
0.999264
1.00133
1.004
1.00738
1.01186
1.01591
1.01978
1.02179
1.10494
2.18736
2.67765
2.73282
2.73763
2.72728
2.71475
2.68229
2.65735
2.62054
2.58749
2.55253
2.51722
2.48362
2.45291
2.42447
2.39951
2.37771
2.3579
2.34058
2.32449
2.30962
2.29588
2.28258
2.27035
2.25831
2.24644
2.2373
2.23008
2.22275
2.21508
2.20456
2.19241
2.18214
2.1756
2.16971
2.16008
2.14088
2.13351
2.11963
2.1069
2.0948
2.08209
2.0587
2.03387
2.01133
1.99189
1.96865
1.95286
1.93322
1.91618
1.90065
1.88886
1.8885
1.89982
1.94336
2.02476
2.16332
2.38811
2.62601
2.81922
2.94172
3.02062
3.07099
3.11022
3.14896
3.18128
3.1983
3.20195
3.20011
3.19645
3.18669
3.20249
0.999908
0.999909
0.9999
0.999882
0.999854
0.999814
0.99976
0.99969
0.999602
0.999492
0.999359
0.999197
0.999004
0.998777
0.998512
0.998206
0.997863
0.997473
0.99704
0.996578
0.996074
0.995524
0.994965
0.994405
0.993789
0.993301
0.992818
0.992339
0.992047
0.991927
0.991865
0.99192
0.992108
0.992498
0.99316
0.994104
0.995359
0.996979
0.998904
1.00078
1.00343
1.00682
1.01075
1.01493
1.01961
1.02162
1.11028
2.18197
2.66668
2.73112
2.73136
2.71635
2.7025
2.66908
2.6452
2.60902
2.57686
2.541
2.50484
2.47116
2.43854
2.40938
2.38182
2.35877
2.3401
2.32289
2.30583
2.29129
2.2798
2.26951
2.25863
2.24508
2.23199
2.22009
2.21062
2.20398
2.20025
2.19419
2.18266
2.17196
2.16505
2.15939
2.15043
2.1276
2.11716
2.10554
2.09143
2.07787
2.0652
2.0447
2.02756
2.01055
1.99645
1.97301
1.95556
1.93154
1.9138
1.90419
1.90552
1.92524
1.96479
2.05174
2.19582
2.39406
2.59105
2.72081
2.81499
2.90076
2.97421
3.03174
3.07966
3.12463
3.16077
3.18262
3.19184
3.19289
3.19083
3.17955
3.19818
0.999908
0.999909
0.9999
0.999882
0.999854
0.999814
0.99976
0.99969
0.999602
0.999493
0.999359
0.999197
0.999004
0.998777
0.998513
0.998208
0.997858
0.997476
0.997048
0.99656
0.996066
0.995544
0.994935
0.994388
0.993792
0.993272
0.992799
0.992285
0.991958
0.99183
0.991744
0.991757
0.991881
0.992167
0.99273
0.993612
0.994832
0.996375
0.998149
0.999881
1.00243
1.00552
1.00861
1.01269
1.01848
1.02083
1.11221
2.17291
2.65681
2.72933
2.72375
2.70272
2.68726
2.6497
2.62504
2.58714
2.5534
2.51679
2.47965
2.44459
2.41341
2.38334
2.35531
2.33051
2.31132
2.29548
2.27927
2.26551
2.25458
2.24513
2.23799
2.22691
2.21297
2.20026
2.18944
2.18104
2.17558
2.17378
2.16776
2.15962
2.15249
2.14514
2.13729
2.11243
2.09859
2.09009
2.07823
2.06237
2.04977
2.03245
2.02172
2.00922
1.99681
1.97381
1.95448
1.93337
1.92392
1.92856
1.94781
2.00883
2.1073
2.28473
2.4871
2.65287
2.76917
2.82543
2.86006
2.90544
2.95986
3.00902
3.05279
3.09714
3.13598
3.16383
3.17844
3.18194
3.18222
3.17071
3.19125
0.999908
0.999909
0.9999
0.999882
0.999854
0.999814
0.99976
0.99969
0.999602
0.999493
0.999359
0.999197
0.999005
0.998777
0.998514
0.99821
0.997855
0.997476
0.997053
0.996548
0.996055
0.995554
0.994915
0.99436
0.9938
0.993217
0.992749
0.992258
0.991836
0.991633
0.99154
0.991503
0.991561
0.991722
0.99209
0.992803
0.993913
0.995266
0.996879
0.998669
1.00097
1.00338
1.00553
1.00932
1.01596
1.02007
1.10509
2.13691
2.64272
2.72507
2.71519
2.6862
2.66734
2.62358
2.59501
2.55268
2.51741
2.47898
2.43724
2.40414
2.37456
2.34909
2.32412
2.29901
2.28006
2.26552
2.25181
2.23825
2.22685
2.21778
2.21196
2.20717
2.19678
2.18446
2.17306
2.16227
2.15344
2.15011
2.1503
2.1478
2.14176
2.13451
2.12601
2.10488
2.0894
2.07869
2.06698
2.05364
2.04264
2.02873
2.02251
2.00989
1.99663
1.97503
1.96328
1.95191
1.95695
1.98983
2.04629
2.18954
2.37394
2.57042
2.70756
2.78632
2.8372
2.87122
2.89563
2.91992
2.95579
2.99074
3.02792
3.07027
3.11094
3.14209
3.16083
3.16751
3.17088
3.16105
3.18177
0.999908
0.999909
0.9999
0.999882
0.999854
0.999814
0.99976
0.99969
0.999602
0.999493
0.99936
0.999198
0.999006
0.998777
0.998514
0.998211
0.997855
0.997475
0.997055
0.996545
0.996042
0.995552
0.994907
0.994317
0.993799
0.993172
0.992649
0.992205
0.991722
0.991367
0.991204
0.991137
0.991115
0.991175
0.991288
0.991654
0.992418
0.993555
0.995061
0.996767
0.998702
1.00046
1.00195
1.00472
1.01013
1.01623
1.06759
2.07632
2.63365
2.7234
2.7066
2.66135
2.63586
2.5822
2.54818
2.50666
2.4686
2.43258
2.39198
2.35818
2.3326
2.31159
2.29655
2.27698
2.25612
2.24094
2.22943
2.22006
2.20854
2.19749
2.18921
2.18402
2.17895
2.17297
2.16458
2.15409
2.14352
2.13572
2.1313
2.13118
2.12906
2.12441
2.11709
2.10039
2.0864
2.07518
2.06134
2.05089
2.04293
2.03164
2.026
2.01482
2.00631
1.98732
1.99389
2.00338
2.04085
2.12415
2.26258
2.46766
2.63567
2.74415
2.80101
2.83804
2.86913
2.89303
2.91207
2.93202
2.95522
2.98082
3.01435
3.05113
3.08757
3.11873
3.141
3.15164
3.15836
3.1507
3.16999
0.999908
0.999909
0.9999
0.999883
0.999854
0.999814
0.99976
0.999691
0.999603
0.999494
0.99936
0.999199
0.999007
0.998778
0.998514
0.998211
0.997856
0.997473
0.997052
0.996548
0.996027
0.995537
0.994914
0.994271
0.993765
0.993153
0.992529
0.992081
0.99163
0.991135
0.990775
0.9906
0.990519
0.990468
0.990395
0.990337
0.99048
0.991157
0.9925
0.993955
0.995341
0.996756
0.998122
0.99918
1.00172
1.00703
1.02295
1.97981
2.61871
2.71529
2.68435
2.6132
2.58163
2.52082
2.48693
2.45873
2.42577
2.39412
2.36373
2.33088
2.30744
2.28455
2.26984
2.25852
2.23954
2.22293
2.21541
2.20933
2.19969
2.18737
2.17637
2.16758
2.16332
2.15975
2.15688
2.15234
2.14316
2.13333
2.12447
2.11905
2.11658
2.11727
2.11436
2.10098
2.08741
2.07816
2.06552
2.0576
2.05063
2.04344
2.03941
2.03075
2.03708
2.02916
2.06933
2.11383
2.2158
2.37818
2.55057
2.69645
2.77044
2.80382
2.8302
2.85764
2.88229
2.901
2.91796
2.93576
2.95508
2.97826
3.00563
3.03444
3.06559
3.0962
3.12201
3.13717
3.14662
3.14067
3.15775
0.999909
0.999909
0.9999
0.999883
0.999855
0.999815
0.999761
0.999692
0.999604
0.999495
0.999361
0.9992
0.999008
0.99878
0.998515
0.998211
0.997859
0.997469
0.997047
0.996557
0.99602
0.995504
0.994921
0.994244
0.993691
0.993128
0.992442
0.99187
0.991437
0.990966
0.990392
0.989933
0.9897
0.989547
0.989379
0.989078
0.988511
0.988266
0.988687
0.989887
0.990815
0.991691
0.992564
0.992952
0.99299
0.993549
1.00277
1.79764
2.5896
2.69751
2.65547
2.56842
2.53062
2.46744
2.43317
2.41591
2.39538
2.36958
2.35081
2.31875
2.29645
2.26438
2.24753
2.23567
2.21809
2.20541
2.19454
2.19045
2.18455
2.17436
2.16392
2.15407
2.14703
2.14284
2.14156
2.13962
2.13442
2.1254
2.11621
2.11001
2.10711
2.10839
2.11158
2.10557
2.09412
2.08665
2.07651
2.07375
2.06505
2.06782
2.07281
2.07482
2.11093
2.12797
2.22567
2.33711
2.495
2.64945
2.74153
2.79067
2.80892
2.82322
2.84151
2.86338
2.88492
2.90261
2.91955
2.93725
2.95619
2.97696
2.99838
3.02016
3.04579
3.07607
3.1054
3.12399
3.13549
3.13096
3.14594
0.999909
0.99991
0.999901
0.999883
0.999855
0.999815
0.999762
0.999692
0.999605
0.999496
0.999362
0.999202
0.999009
0.998782
0.998516
0.998211
0.997863
0.997464
0.997039
0.996567
0.996016
0.99546
0.994914
0.994241
0.993587
0.993052
0.992398
0.991658
0.991143
0.990686
0.990111
0.989334
0.988694
0.98837
0.988096
0.987736
0.986929
0.985443
0.984575
0.984499
0.984561
0.984678
0.98479
0.984866
0.98437
0.979572
0.985352
1.51074
2.46857
2.67959
2.63705
2.55039
2.49942
2.43881
2.39852
2.3788
2.35743
2.32738
2.32552
2.29343
2.27626
2.24458
2.22292
2.21226
2.19276
2.18204
2.17399
2.16596
2.16146
2.15574
2.14776
2.13794
2.12947
2.12363
2.12035
2.11981
2.11872
2.11615
2.10988
2.10293
2.10309
2.10673
2.11165
2.11314
2.10383
2.10398
2.09613
2.10373
2.10281
2.12211
2.14198
2.16315
2.24711
2.33295
2.4908
2.62014
2.73296
2.79226
2.80869
2.816
2.82123
2.83012
2.84349
2.86136
2.88367
2.90094
2.91861
2.93717
2.95588
2.97346
2.98986
3.00669
3.02932
3.05892
3.09016
3.11114
3.12431
3.12105
3.13456
0.99991
0.99991
0.999901
0.999884
0.999856
0.999816
0.999763
0.999693
0.999606
0.999498
0.999364
0.999204
0.999012
0.998785
0.998518
0.998213
0.997867
0.997463
0.99703
0.996568
0.996015
0.995423
0.994887
0.994243
0.993498
0.992926
0.992331
0.991524
0.990767
0.990261
0.989729
0.988925
0.987777
0.987
0.986561
0.98611
0.985335
0.983742
0.981296
0.979465
0.978027
0.976753
0.975465
0.974659
0.973195
0.967113
0.972657
1.14375
2.27245
2.75681
2.64826
2.5459
2.47202
2.41052
2.37128
2.34363
2.32089
2.28979
2.29831
2.26465
2.24493
2.2201
2.19575
2.18586
2.16399
2.15532
2.14699
2.13571
2.13018
2.12902
2.12358
2.11718
2.10958
2.10147
2.09862
2.09957
2.10231
2.10692
2.108
2.10282
2.10403
2.1097
2.11703
2.12638
2.12112
2.1403
2.14188
2.16397
2.17775
2.21782
2.28364
2.35659
2.50209
2.6212
2.7434
2.8013
2.82683
2.82725
2.82311
2.82332
2.82702
2.83311
2.84311
2.86292
2.88299
2.89998
2.91848
2.93645
2.95269
2.9665
2.98028
2.99518
3.01621
3.04422
3.07548
3.09805
3.11275
3.11146
3.12439
0.99991
0.999911
0.999902
0.999884
0.999857
0.999817
0.999764
0.999695
0.999608
0.9995
0.999367
0.999206
0.999014
0.998788
0.998522
0.998216
0.99787
0.997465
0.997024
0.996565
0.996015
0.995399
0.994841
0.994235
0.993445
0.992767
0.992187
0.991419
0.990448
0.989778
0.98923
0.988483
0.987203
0.985816
0.9849
0.984143
0.983441
0.982197
0.979948
0.976407
0.973149
0.970174
0.966921
0.963241
0.961251
0.958129
0.955606
0.982536
1.87656
2.91778
2.6948
2.56775
2.47166
2.39915
2.35463
2.31292
2.28264
2.25141
2.25725
2.22748
2.20327
2.19235
2.16287
2.15413
2.13241
2.12217
2.11087
2.09815
2.09318
2.09422
2.09416
2.09207
2.09091
2.08434
2.08453
2.08804
2.09232
2.10154
2.10718
2.10589
2.11565
2.12697
2.13557
2.1599
2.16683
2.20934
2.22741
2.27388
2.33311
2.4202
2.53896
2.64041
2.76081
2.82122
2.85542
2.85297
2.8418
2.83098
2.82693
2.82847
2.83088
2.83396
2.8456
2.86424
2.88275
2.90074
2.919
2.93443
2.9469
2.95821
2.97117
2.9852
3.00496
3.03113
3.06128
3.0847
3.10109
3.10277
3.11559
0.999911
0.999912
0.999903
0.999885
0.999857
0.999818
0.999765
0.999697
0.99961
0.999502
0.99937
0.99921
0.999018
0.998792
0.998527
0.998219
0.997871
0.997468
0.997021
0.996559
0.996013
0.995382
0.994789
0.994204
0.993417
0.992621
0.991999
0.991287
0.990273
0.989313
0.988636
0.987901
0.986806
0.985091
0.98353
0.98229
0.981331
0.980511
0.978812
0.975784
0.970331
0.966125
0.962021
0.95793
0.955703
0.955512
0.961738
1.00626
1.60267
2.80655
2.68084
2.60803
2.50773
2.41847
2.36787
2.31149
2.26273
2.2187
2.2072
2.18236
2.1594
2.16371
2.12934
2.12055
2.10207
2.08809
2.07769
2.06432
2.06034
2.06396
2.06885
2.07373
2.07828
2.07752
2.0818
2.08814
2.09093
2.10701
2.11985
2.12695
2.15211
2.17058
2.18583
2.23517
2.27101
2.3523
2.41013
2.48644
2.59305
2.69046
2.78472
2.84385
2.87981
2.88366
2.87127
2.85312
2.84039
2.83278
2.83134
2.8315
2.83097
2.83608
2.8484
2.86601
2.8846
2.90299
2.91928
2.9312
2.94011
2.95019
2.963
2.97627
2.9946
3.01845
3.04743
3.0719
3.08973
3.09445
3.10723
0.999912
0.999912
0.999904
0.999886
0.999859
0.999819
0.999767
0.999699
0.999612
0.999505
0.999374
0.999214
0.999023
0.998796
0.998532
0.998224
0.997872
0.997472
0.997023
0.996552
0.996007
0.995372
0.994747
0.99416
0.9934
0.992508
0.991767
0.991074
0.990183
0.989003
0.988018
0.987233
0.986284
0.984751
0.982652
0.981023
0.979791
0.979144
0.977951
0.975286
0.969731
0.964735
0.960631
0.956379
0.953403
0.952421
0.960724
1.05106
1.51636
2.36644
2.55288
2.59229
2.52233
2.40874
2.36404
2.30705
2.24317
2.19578
2.17042
2.14282
2.12925
2.13279
2.09644
2.09292
2.07918
2.06346
2.05729
2.04735
2.04536
2.05155
2.05725
2.06679
2.07549
2.07759
2.09012
2.10318
2.10927
2.13679
2.16434
2.18665
2.23723
2.27724
2.31899
2.4084
2.48732
2.59261
2.66812
2.74315
2.81788
2.86997
2.89612
2.90488
2.89413
2.88061
2.86484
2.8503
2.84127
2.83654
2.83401
2.83251
2.83374
2.84081
2.85341
2.87059
2.88848
2.90495
2.91788
2.92624
2.93331
2.94313
2.95533
2.9674
2.98387
3.00503
3.03412
3.06034
3.07922
3.08594
3.09871
0.999913
0.999913
0.999905
0.999887
0.99986
0.999821
0.999769
0.999701
0.999615
0.999509
0.999378
0.999219
0.999029
0.998803
0.998539
0.998231
0.997877
0.997477
0.997029
0.996544
0.995994
0.995366
0.994718
0.99411
0.99338
0.992418
0.99156
0.990854
0.990064
0.988813
0.98754
0.986657
0.985805
0.984399
0.982154
0.980473
0.979183
0.978474
0.97737
0.974932
0.969938
0.964964
0.961317
0.95856
0.957733
0.959866
0.983556
1.27129
1.72245
1.96678
2.25305
2.41415
2.44282
2.39964
2.35968
2.30975
2.23903
2.18785
2.16062
2.12918
2.1176
2.11036
2.07076
2.0733
2.06569
2.05184
2.04961
2.04282
2.04578
2.05617
2.06052
2.07705
2.09238
2.10023
2.12931
2.15524
2.17561
2.21877
2.27741
2.33506
2.4183
2.49773
2.57109
2.65918
2.73669
2.81583
2.86062
2.88908
2.90525
2.91535
2.9014
2.89529
2.8866
2.87412
2.86027
2.84978
2.84288
2.8388
2.83641
2.83484
2.83861
2.84759
2.86086
2.87673
2.89238
2.90575
2.91467
2.92046
2.92725
2.93724
2.94802
2.95765
2.97204
2.99115
3.02128
3.04995
3.06967
3.07704
3.08983
0.999914
0.999914
0.999906
0.999889
0.999861
0.999823
0.999771
0.999704
0.999619
0.999513
0.999383
0.999225
0.999036
0.99881
0.998546
0.99824
0.997884
0.997485
0.99704
0.996539
0.995979
0.99536
0.994705
0.994079
0.993345
0.992345
0.991422
0.9907
0.989911
0.988669
0.987284
0.986271
0.985305
0.983896
0.981949
0.980432
0.979253
0.978485
0.977103
0.974499
0.969677
0.965884
0.963303
0.962148
0.962472
0.967166
1.02389
1.62851
1.91186
1.93189
2.02944
2.20057
2.38135
2.41252
2.3738
2.33033
2.24501
2.20324
2.17149
2.13212
2.11726
2.10391
2.06284
2.06473
2.05945
2.05382
2.05699
2.05079
2.06694
2.08356
2.09261
2.1264
2.1551
2.17865
2.23962
2.29348
2.34155
2.41364
2.50897
2.59061
2.67425
2.74202
2.79935
2.85064
2.88571
2.90616
2.91041
2.90803
2.89891
2.8994
2.89158
2.88497
2.87751
2.86693
2.85708
2.84925
2.84363
2.84028
2.83847
2.83936
2.84521
2.85545
2.86751
2.88099
2.89415
2.90484
2.91094
2.91562
2.92239
2.93153
2.93969
2.94713
2.95994
2.97829
3.00963
3.03996
3.06022
3.06787
3.08104
0.999915
0.999915
0.999907
0.99989
0.999863
0.999825
0.999774
0.999707
0.999623
0.999518
0.999389
0.999232
0.999044
0.99882
0.998556
0.99825
0.997895
0.997497
0.997054
0.996541
0.995971
0.995354
0.994706
0.994059
0.993281
0.992295
0.991358
0.990565
0.98971
0.988543
0.987224
0.986057
0.984825
0.983386
0.981868
0.980645
0.979783
0.978834
0.977138
0.974041
0.96973
0.967869
0.96691
0.967005
0.968614
0.980071
1.17575
1.85122
1.96325
1.94799
1.95846
2.01729
2.1876
2.32003
2.36578
2.34892
2.2814
2.22849
2.18988
2.14311
2.12587
2.10646
2.06858
2.07421
2.06925
2.08325
2.09427
2.08967
2.13581
2.16616
2.19234
2.26723
2.3185
2.37372
2.47128
2.54701
2.6052
2.67276
2.75
2.80813
2.85223
2.87396
2.88726
2.90047
2.90867
2.90109
2.89525
2.89231
2.88507
2.88348
2.88029
2.87552
2.86793
2.86084
2.85473
2.84884
2.84476
2.84265
2.84268
2.84593
2.8525
2.86164
2.87165
2.88343
2.89482
2.90349
2.90825
2.91258
2.91874
2.92568
2.9302
2.93598
2.94814
2.96746
2.99932
3.02965
3.05012
3.05873
3.07243
0.999916
0.999917
0.999908
0.999892
0.999865
0.999827
0.999777
0.999711
0.999628
0.999524
0.999395
0.99924
0.999053
0.99883
0.998568
0.998263
0.997908
0.99751
0.997067
0.996548
0.995973
0.995353
0.994724
0.994039
0.993205
0.992266
0.991345
0.99046
0.989489
0.988383
0.987244
0.986014
0.984436
0.983051
0.981931
0.981192
0.980568
0.979381
0.977412
0.973337
0.970792
0.96997
0.969974
0.970282
0.973296
0.996388
1.44313
1.96988
1.97554
1.95492
1.94737
1.95744
2.01871
2.13906
2.28885
2.32408
2.31856
2.23851
2.21329
2.15977
2.14764
2.12109
2.10039
2.11751
2.11171
2.15812
2.18825
2.20421
2.29644
2.34996
2.41067
2.51313
2.58178
2.64278
2.71502
2.77543
2.81191
2.84483
2.86591
2.87913
2.88974
2.8917
2.89158
2.88583
2.88805
2.88417
2.87987
2.87689
2.87235
2.87134
2.86919
2.8653
2.8607
2.85715
2.85252
2.84876
2.84679
2.8466
2.84862
2.85229
2.85775
2.86525
2.87434
2.88525
2.89534
2.90248
2.90648
2.91062
2.9151
2.91881
2.92018
2.92516
2.93704
2.95839
2.98991
3.01885
3.03959
3.05015
3.0639
0.999918
0.999918
0.99991
0.999893
0.999867
0.99983
0.99978
0.999715
0.999633
0.99953
0.999404
0.999249
0.999064
0.998843
0.998583
0.998278
0.997925
0.997526
0.997081
0.996564
0.995985
0.995365
0.994746
0.994014
0.99314
0.992251
0.991379
0.990378
0.98928
0.988262
0.987303
0.986051
0.984218
0.982915
0.982105
0.981779
0.981322
0.980055
0.977479
0.973251
0.972017
0.971597
0.971101
0.97141
0.975036
1.02168
1.71141
2.02105
2.01689
1.99349
1.97691
1.9668
1.9791
2.01581
2.11358
2.24077
2.29153
2.26889
2.26849
2.17684
2.20679
2.16874
2.19344
2.22082
2.23658
2.33245
2.38247
2.44442
2.55167
2.61466
2.67506
2.73979
2.79233
2.82637
2.8503
2.86236
2.86952
2.87588
2.87824
2.87699
2.87742
2.87816
2.87869
2.87275
2.86985
2.86827
2.86643
2.86354
2.86069
2.85994
2.85894
2.85761
2.85626
2.85353
2.84987
2.84835
2.84846
2.8502
2.85319
2.85624
2.86061
2.86676
2.87557
2.88627
2.89555
2.90167
2.90515
2.90834
2.91017
2.91043
2.91034
2.91551
2.92761
2.94944
2.97977
3.00753
3.02936
3.04232
3.05558
0.999919
0.99992
0.999912
0.999895
0.99987
0.999833
0.999784
0.99972
0.999639
0.999538
0.999413
0.99926
0.999077
0.998858
0.998599
0.998298
0.997948
0.997547
0.997097
0.996589
0.996015
0.995402
0.994753
0.99398
0.993113
0.992269
0.991421
0.990282
0.989129
0.988224
0.987392
0.986145
0.984161
0.982871
0.982242
0.982128
0.981792
0.980604
0.977421
0.974014
0.973383
0.973385
0.973561
0.974625
0.983087
1.17258
1.88702
2.03336
2.02943
2.01616
2.00217
1.98939
1.986
1.99615
2.01587
2.08233
2.21316
2.30124
2.31289
2.24814
2.30812
2.31424
2.38887
2.43584
2.48807
2.58325
2.63744
2.69354
2.75817
2.80032
2.82611
2.8454
2.85962
2.86836
2.87063
2.86935
2.86341
2.86322
2.86547
2.86709
2.8655
2.86194
2.86087
2.85835
2.8561
2.85432
2.8534
2.85163
2.85047
2.85021
2.85069
2.85184
2.85159
2.84878
2.84715
2.84778
2.84954
2.85257
2.85549
2.85804
2.86183
2.8678
2.87707
2.88751
2.89591
2.90038
2.90244
2.90441
2.90372
2.90179
2.90118
2.90707
2.92007
2.9405
2.96813
2.99556
3.01981
3.03491
3.04724
0.999921
0.999921
0.999914
0.999898
0.999872
0.999836
0.999788
0.999725
0.999645
0.999546
0.999423
0.999273
0.999092
0.998875
0.998619
0.998321
0.997975
0.997575
0.997122
0.99662
0.996064
0.995446
0.994749
0.993944
0.993109
0.992342
0.991477
0.99019
0.989065
0.988231
0.987514
0.986339
0.984265
0.982944
0.982293
0.982153
0.981886
0.980805
0.977745
0.975069
0.974697
0.974775
0.975385
0.978098
0.996676
1.43386
1.99174
2.024
2.01953
2.01697
2.01383
2.00599
1.99808
2.00112
2.00259
2.01897
2.1413
2.29729
2.3584
2.42523
2.5081
2.54857
2.62835
2.67135
2.71498
2.76153
2.79708
2.81493
2.83109
2.84642
2.85424
2.85694
2.85795
2.85636
2.85457
2.85459
2.85254
2.8517
2.85248
2.85213
2.84936
2.8461
2.84336
2.84338
2.84308
2.84231
2.84151
2.84027
2.84082
2.84252
2.84492
2.84621
2.8453
2.84367
2.84438
2.84696
2.85042
2.85382
2.85642
2.85892
2.86256
2.86909
2.87858
2.88821
2.89533
2.89781
2.89824
2.89883
2.89644
2.89397
2.89325
2.90014
2.9125
2.93093
2.95651
2.98416
3.01011
3.02681
3.03829
0.999923
0.999923
0.999916
0.9999
0.999875
0.99984
0.999793
0.999732
0.999653
0.999555
0.999434
0.999287
0.999109
0.998896
0.998643
0.998349
0.998008
0.99761
0.997154
0.996665
0.996133
0.995498
0.994736
0.993922
0.993158
0.99248
0.991541
0.990129
0.989069
0.988302
0.987667
0.986576
0.984561
0.983153
0.982421
0.982127
0.981743
0.980716
0.978231
0.976187
0.97528
0.974941
0.975266
0.978516
1.01714
1.69859
2.05776
2.05969
2.05338
2.04697
2.0403
2.03066
2.02318
2.03094
2.03364
2.04742
2.184
2.3463
2.55014
2.66076
2.69216
2.72694
2.76619
2.78797
2.79953
2.81088
2.82238
2.82751
2.83084
2.83596
2.84042
2.84353
2.84454
2.84183
2.8388
2.83722
2.83801
2.83736
2.8353
2.83266
2.83118
2.83096
2.82979
2.83099
2.83173
2.83184
2.83197
2.83128
2.8324
2.83503
2.8382
2.83957
2.83874
2.83925
2.84232
2.8468
2.85051
2.85384
2.85635
2.85939
2.86351
2.87074
2.87969
2.88774
2.89292
2.89388
2.89343
2.89245
2.88901
2.88677
2.88641
2.89272
2.9037
2.92072
2.94572
2.97448
3.00078
3.01742
3.02791
0.999925
0.999925
0.999918
0.999903
0.999879
0.999844
0.999798
0.999738
0.999662
0.999566
0.999448
0.999303
0.999129
0.99892
0.998671
0.998385
0.998049
0.997649
0.997193
0.996721
0.996215
0.995556
0.994734
0.993946
0.993288
0.992621
0.991562
0.990131
0.98915
0.988455
0.987842
0.986786
0.984911
0.983406
0.982547
0.981933
0.981229
0.980247
0.978691
0.977607
0.976874
0.975949
0.976481
0.983895
1.13692
1.87432
2.06364
2.06881
2.06813
2.06889
2.06879
2.06443
2.06169
2.08368
2.11226
2.16078
2.37052
2.57223
2.75763
2.79002
2.78872
2.78777
2.79329
2.79849
2.79931
2.79897
2.80162
2.80582
2.8129
2.81875
2.8212
2.82238
2.82282
2.82241
2.8213
2.82011
2.82098
2.82048
2.81928
2.8181
2.81724
2.81807
2.81808
2.81941
2.82009
2.82084
2.82157
2.82127
2.82276
2.82582
2.82954
2.83099
2.83173
2.8354
2.84079
2.84548
2.84942
2.8526
2.85533
2.85894
2.86376
2.87146
2.87991
2.88595
2.88913
2.88902
2.88811
2.88621
2.88218
2.87985
2.87931
2.88465
2.89444
2.91009
2.93549
2.96569
2.99147
3.00698
3.01636
0.999927
0.999928
0.999921
0.999906
0.999883
0.999849
0.999804
0.999746
0.999672
0.999579
0.999463
0.999321
0.999151
0.998947
0.998704
0.998428
0.998096
0.997694
0.997241
0.996794
0.996303
0.995612
0.994766
0.994055
0.993459
0.992724
0.991544
0.990219
0.989341
0.988704
0.988086
0.987004
0.985132
0.983533
0.982538
0.981578
0.980609
0.979773
0.97915
0.97881
0.978954
0.978848
0.980797
0.998883
1.40265
1.99429
2.05028
2.05919
2.064
2.07049
2.08116
2.08609
2.09429
2.14818
2.23723
2.36559
2.63623
2.77142
2.82374
2.81428
2.79786
2.78944
2.78403
2.78152
2.7797
2.77724
2.77772
2.78007
2.78621
2.79219
2.79526
2.79751
2.79947
2.8018
2.80336
2.80296
2.80286
2.80208
2.80199
2.80228
2.80271
2.8044
2.80581
2.80714
2.80712
2.80757
2.80862
2.80889
2.81078
2.81467
2.81909
2.82107
2.82482
2.83124
2.8372
2.84222
2.84615
2.84932
2.85291
2.85756
2.86288
2.87083
2.8787
2.88269
2.88443
2.88389
2.88266
2.88026
2.87582
2.87262
2.8717
2.87666
2.88564
2.90032
2.92617
2.95669
2.98123
2.99566
3.00415
0.99993
0.99993
0.999923
0.999909
0.999887
0.999855
0.999811
0.999754
0.999682
0.999592
0.99948
0.999343
0.999177
0.998977
0.998743
0.998478
0.998146
0.997746
0.997306
0.996888
0.99639
0.995664
0.994866
0.994242
0.993643
0.992777
0.991496
0.99042
0.989648
0.98909
0.988446
0.987287
0.985197
0.983368
0.982255
0.981204
0.980412
0.979907
0.979688
0.979575
0.980006
0.980342
0.983761
1.02824
1.70026
2.06229
2.07734
2.07933
2.07857
2.07871
2.09664
2.11838
2.1426
2.24239
2.44238
2.62901
2.81266
2.84534
2.82735
2.80282
2.79217
2.7795
2.76881
2.76052
2.75466
2.75094
2.75046
2.74987
2.75308
2.75821
2.76362
2.76931
2.77295
2.77742
2.78069
2.78164
2.78182
2.78182
2.78255
2.78447
2.78667
2.78913
2.79117
2.79261
2.79232
2.79307
2.79432
2.79462
2.79715
2.80178
2.80632
2.81013
2.81672
2.82455
2.83078
2.83592
2.84019
2.84426
2.84954
2.85547
2.86101
2.86845
2.87559
2.87855
2.87936
2.87878
2.87742
2.87413
2.86848
2.86494
2.86422
2.86911
2.87764
2.89223
2.91762
2.94682
2.96987
2.98363
2.99165
0.999933
0.999933
0.999926
0.999913
0.999891
0.99986
0.999818
0.999764
0.999694
0.999607
0.999499
0.999367
0.999206
0.999012
0.998788
0.998532
0.998201
0.997807
0.997391
0.997
0.996475
0.995724
0.995049
0.994491
0.993838
0.99278
0.99152
0.990677
0.990091
0.989704
0.989017
0.987664
0.985006
0.983034
0.981922
0.981125
0.980655
0.980474
0.98041
0.980532
0.981399
0.98282
0.991943
1.18506
1.90437
2.07202
2.08414
2.08922
2.09019
2.09341
2.12381
2.17611
2.26258
2.44605
2.69969
2.80503
2.84893
2.83101
2.80695
2.79553
2.7804
2.76598
2.75316
2.74239
2.73349
2.72657
2.72336
2.72162
2.7229
2.7254
2.72958
2.7353
2.74024
2.74671
2.75136
2.75442
2.75654
2.7588
2.7613
2.76469
2.76781
2.77154
2.77449
2.77653
2.77609
2.7768
2.77786
2.7786
2.7822
2.78786
2.79302
2.79929
2.80792
2.81617
2.82305
2.82886
2.83431
2.84023
2.84727
2.85391
2.85912
2.86513
2.87146
2.87427
2.87451
2.874
2.87223
2.86711
2.86037
2.85701
2.8562
2.86171
2.87048
2.8856
2.90934
2.93631
2.95833
2.97155
2.97918
0.999936
0.999936
0.99993
0.999917
0.999896
0.999866
0.999826
0.999774
0.999708
0.999624
0.999521
0.999395
0.999239
0.999051
0.998839
0.998595
0.998265
0.997878
0.997502
0.997126
0.996554
0.995827
0.995277
0.994785
0.99406
0.99276
0.991634
0.990969
0.990648
0.990465
0.989679
0.988025
0.984629
0.982805
0.981907
0.981378
0.981086
0.981024
0.981054
0.981332
0.982737
0.986233
1.00936
1.50064
2.03857
2.06397
2.07581
2.08831
2.0995
2.12209
2.18129
2.2739
2.50098
2.69342
2.82848
2.84613
2.82692
2.80185
2.79012
2.77584
2.76126
2.74799
2.73638
2.72695
2.7198
2.71391
2.70848
2.70382
2.70199
2.70073
2.70203
2.70463
2.70899
2.71649
2.72377
2.73064
2.73524
2.73861
2.74096
2.7446
2.74823
2.75232
2.75568
2.75795
2.75852
2.7595
2.7601
2.76204
2.76678
2.77286
2.77981
2.78913
2.7987
2.80599
2.81283
2.8195
2.82684
2.83485
2.8432
2.85037
2.85541
2.8601
2.86571
2.86902
2.86928
2.86869
2.86607
2.85933
2.85212
2.84926
2.84832
2.85427
2.86444
2.87903
2.90027
2.92534
2.94681
2.95958
2.96683
0.999939
0.999939
0.999933
0.999921
0.999902
0.999873
0.999835
0.999786
0.999723
0.999643
0.999546
0.999426
0.999276
0.999094
0.998897
0.998665
0.998337
0.997963
0.997637
0.997268
0.996643
0.995982
0.99554
0.995104
0.994291
0.99282
0.991845
0.991309
0.991187
0.99112
0.990255
0.988178
0.984537
0.983054
0.982309
0.981822
0.981399
0.981134
0.980971
0.980841
0.981858
0.987717
1.05093
1.82076
2.1049
2.10371
2.10242
2.11087
2.13495
2.19074
2.31874
2.48674
2.74534
2.82595
2.8404
2.8212
2.79714
2.78114
2.7655
2.75231
2.74152
2.73162
2.72204
2.71359
2.70683
2.70111
2.69589
2.69133
2.68841
2.68623
2.68571
2.68529
2.68745
2.6917
2.69709
2.70472
2.7109
2.71593
2.72006
2.72382
2.72708
2.73156
2.73629
2.74046
2.74313
2.7447
2.74589
2.74815
2.75129
2.75672
2.7652
2.7756
2.78458
2.79204
2.79979
2.80811
2.81712
2.82617
2.83519
2.84296
2.84844
2.85276
2.85777
2.86158
2.86249
2.86172
2.85803
2.85031
2.8437
2.84171
2.84087
2.84714
2.85785
2.87095
2.89013
2.91451
2.93583
2.94811
2.95449
0.999942
0.999943
0.999937
0.999926
0.999908
0.999881
0.999845
0.999798
0.999739
0.999664
0.999574
0.999461
0.999315
0.999142
0.998961
0.998744
0.998418
0.998068
0.997788
0.997427
0.996766
0.996195
0.995828
0.995417
0.994547
0.99307
0.992181
0.991668
0.991531
0.991507
0.990644
0.988465
0.985202
0.983929
0.983087
0.982297
0.98155
0.981067
0.981154
0.981617
0.984307
1.00198
1.29874
2.01373
2.11305
2.11105
2.11489
2.14296
2.20204
2.31529
2.55558
2.72841
2.83517
2.83618
2.81792
2.79465
2.77524
2.75798
2.74433
2.73416
2.72588
2.7176
2.7089
2.70121
2.69509
2.69017
2.68616
2.68248
2.67944
2.6761
2.67344
2.67149
2.67186
2.67279
2.67552
2.68081
2.68626
2.69205
2.69744
2.70192
2.70621
2.71106
2.71642
2.72223
2.72647
2.72857
2.73052
2.73372
2.73727
2.74332
2.75204
2.76279
2.77181
2.78024
2.78901
2.79829
2.80787
2.81735
2.82628
2.83449
2.84097
2.8457
2.85023
2.85417
2.85546
2.85432
2.8497
2.84143
2.83516
2.83381
2.83385
2.84008
2.8496
2.86136
2.87987
2.90369
2.92454
2.93639
2.9427
0.999946
0.999947
0.999942
0.999931
0.999914
0.999889
0.999856
0.999813
0.999756
0.999686
0.999605
0.999499
0.999359
0.999196
0.999034
0.998833
0.998512
0.998197
0.997949
0.997601
0.996959
0.996446
0.9961
0.995715
0.994919
0.993558
0.992686
0.992104
0.991739
0.991569
0.990879
0.989263
0.986999
0.985159
0.983796
0.982717
0.98161
0.980613
0.98054
0.981142
0.985292
1.0223
1.60722
2.1405
2.12778
2.13517
2.15536
2.21384
2.36583
2.54168
2.7778
2.84029
2.83644
2.81829
2.79652
2.77375
2.7561
2.74067
2.72855
2.71907
2.71074
2.70259
2.69501
2.68884
2.68402
2.68043
2.67765
2.67492
2.67193
2.66788
2.6638
2.66055
2.65883
2.65778
2.65873
2.66144
2.66433
2.66858
2.67384
2.67919
2.68521
2.69102
2.69683
2.70376
2.70923
2.71261
2.71493
2.71817
2.72192
2.72839
2.73732
2.7479
2.75741
2.76734
2.77746
2.78754
2.79739
2.80687
2.8156
2.82451
2.8325
2.83816
2.84233
2.84578
2.84709
2.84584
2.84104
2.83324
2.82766
2.82625
2.82578
2.83188
2.8401
2.85136
2.86894
2.89241
2.91304
2.92472
2.92988
0.99995
0.999951
0.999946
0.999937
0.999921
0.999898
0.999868
0.999829
0.999776
0.999711
0.999638
0.99954
0.999407
0.999257
0.999115
0.998932
0.998626
0.998343
0.998117
0.997801
0.997235
0.996733
0.996356
0.996008
0.995366
0.994307
0.993334
0.992616
0.992003
0.991557
0.991156
0.990289
0.98899
0.987057
0.984277
0.98283
0.981395
0.980155
0.979212
0.979821
0.986583
1.10101
1.90124
2.15072
2.16543
2.19313
2.26216
2.38265
2.62686
2.76781
2.85253
2.84225
2.82128
2.79931
2.77627
2.75877
2.7422
2.7277
2.71583
2.70604
2.69725
2.68931
2.68271
2.67753
2.67362
2.67103
2.66922
2.667
2.66394
2.65986
2.6552
2.65067
2.64725
2.64512
2.64465
2.64507
2.64585