/*--------------------------------*- C++ -*----------------------------------*\
| =========                 |                                                 |
| \\      /  F ield         | OpenFOAM: The Open Source CFD Toolbox           |
|  \\    /   O peration     | Version:  2.2.x                                 |
|   \\  /    A nd           | Web:      www.OpenFOAM.org                      |
|    \\/     M anipulation  |                                                 |
\*---------------------------------------------------------------------------*/
FoamFile
{
    version     2.0;
    format      ascii;
    class       volScalarField;
    location    "1.9";
    object      rho;
}
// * * * * * * * * * * * * * * * * * * * * * * * * * * * * * * * * * * * * * //

dimensions      [1 -3 0 0 0 0 0];

internalField   nonuniform List<scalar> 
14161
(
1
1
1
1
1
1
1
1
1
1
1
1
1
1
1
1
1
1
1
1
1
1
1
1
1
1
1
1
1
1
1
1
1
1
1
1
1
1
1
1.00004
1.0007
1.01047
1.09935
1.82267
3.0227
3.5529
3.67218
3.69848
3.71009
3.71943
3.72793
3.73519
3.74067
3.74487
3.75109
3.76009
3.76917
3.77743
3.78386
3.78817
3.79146
3.79775
3.80717
3.81636
3.82406
3.82954
3.83202
3.83559
3.84336
3.85281
3.86145
3.8679
3.87132
3.87342
3.87921
3.88817
3.89685
3.90375
3.90803
3.90978
3.91471
3.92307
3.93133
3.93802
3.94212
3.94411
3.94939
3.95737
3.96496
3.97097
3.97404
3.97702
3.98345
3.99081
3.99707
4.00138
4.0038
4.00888
4.0157
4.02179
4.02625
4.0286
4.033
4.03921
4.04492
4.04901
4.0514
4.05565
4.06103
4.06587
4.06912
4.07163
4.07484
4.07791
4.07957
4.07934
4.07868
4.07946
4.08161
1
1
1
1
1
1
1
1
1
1
1
1
1
1
1
1
1
1
1
1
1
1
1
1
1
1
1
1
1
1
1
1
1
1
1
1
1
1
1
1.00004
1.0007
1.01045
1.09912
1.81927
3.01795
3.55
3.67038
3.69719
3.70911
3.71853
3.72703
3.73423
3.73952
3.7437
3.75008
3.75917
3.76826
3.77648
3.7828
3.78691
3.79021
3.7967
3.80618
3.81536
3.82294
3.82825
3.83063
3.83436
3.84237
3.85186
3.86044
3.86673
3.86981
3.87195
3.87807
3.88722
3.89596
3.90272
3.90666
3.90832
3.91349
3.92209
3.93046
3.93707
3.94089
3.94281
3.94827
3.95644
3.96412
3.97006
3.9729
3.9758
3.98234
3.98987
3.99627
4.00058
4.00291
4.00787
4.01471
4.02096
4.02559
4.02803
4.03229
4.03842
4.04418
4.04847
4.05099
4.05516
4.06047
4.06531
4.06861
4.07114
4.07419
4.0772
4.07896
4.07896
4.07851
4.0791
4.08128
1
1
1
1
1
1
1
1
1
1
1
1
1
1
1
1
1
1
1
1
1
1
1
1
1
1
1
1
1
1
1
1
1
1
1
1
1
1
1
1.00004
1.00068
1.01026
1.09767
1.81424
3.01336
3.54853
3.66952
3.69656
3.70868
3.71812
3.72655
3.73367
3.73879
3.74298
3.74955
3.7587
3.76776
3.77585
3.78206
3.78598
3.78936
3.79611
3.80561
3.8147
3.82209
3.82724
3.82956
3.8335
3.84174
3.85119
3.85962
3.86575
3.86858
3.87083
3.87728
3.88653
3.89522
3.90183
3.90544
3.9071
3.91258
3.92134
3.92973
3.93624
3.93974
3.94163
3.94736
3.95567
3.96335
3.96918
3.97175
3.97463
3.98132
3.98897
3.9954
3.9996
4.00179
4.00661
4.01344
4.01978
4.02453
4.02705
4.03111
4.03709
4.04286
4.0473
4.04995
4.05399
4.05923
4.06413
4.0676
4.07024
4.07313
4.0759
4.07764
4.07778
4.07746
4.07769
4.07948
1
1
1
1
1
1
1
1
1
1
1
1
1
1
1
1
1
1
1
1
1
1
1
1
1
1
1
1
1
1
1
1
1
1
1
1
1
1
1
1.00004
1.00065
1.00989
1.09505
1.80811
3.0099
3.54935
3.67096
3.698
3.71015
3.71953
3.72782
3.73481
3.73971
3.74395
3.75081
3.76001
3.76896
3.77682
3.78288
3.78659
3.79017
3.79729
3.80679
3.81575
3.82286
3.82775
3.82997
3.8343
3.84283
3.8522
3.86043
3.86634
3.86885
3.87133
3.87824
3.88753
3.89609
3.90251
3.90573
3.90749
3.91335
3.92223
3.9306
3.93699
3.94011
3.942
3.948
3.95638
3.96396
3.96963
3.97192
3.97478
3.98149
3.98908
3.99544
3.99951
4.00165
4.00644
4.01317
4.01942
4.02413
4.02666
4.03058
4.03637
4.04203
4.04639
4.04904
4.05283
4.05789
4.06276
4.06636
4.06904
4.07175
4.07422
4.07577
4.07586
4.07556
4.07567
4.07683
1
1
1
1
1
1
1
1
1
1
1
1
1
1
1
1
1
1
1
1
1
1
1
1
1
1
1
1
1
1
1
1
1
1
1
1
1
1
1
1.00004
1.0006
1.00945
1.09196
1.7996
3.00382
3.54939
3.67239
3.69999
3.71261
3.72218
3.73045
3.73732
3.74191
3.74634
3.75364
3.76306
3.77204
3.77969
3.78551
3.7888
3.79268
3.80046
3.81014
3.81907
3.82583
3.83022
3.83226
3.83718
3.84629
3.8557
3.86368
3.86921
3.87114
3.87399
3.88158
3.89094
3.89932
3.90543
3.90798
3.90989
3.91627
3.92514
3.9333
3.93937
3.94194
3.94376
3.94996
3.95818
3.9655
3.97084
3.97279
3.97561
3.98228
3.98968
3.99586
3.99977
4.00187
4.00674
4.01338
4.0195
4.02407
4.02655
4.03046
4.03609
4.04154
4.04573
4.04831
4.05187
4.05663
4.06133
4.06488
4.06752
4.07007
4.07223
4.0735
4.07336
4.07302
4.07301
4.07355
1
1
1
1
1
1
1
1
1
1
1
1
1
1
1
1
1
1
1
1
1
1
1
1
1
1
1
1
1
1
1
1
1
1
1
1
1
1
1
1.00003
1.00057
1.00904
1.08881
1.78636
2.99086
3.54365
3.6682
3.6966
3.70968
3.71923
3.72725
3.7338
3.73817
3.74298
3.75074
3.76008
3.76887
3.77614
3.7816
3.78467
3.78893
3.79724
3.80686
3.81554
3.82196
3.82578
3.82792
3.83326
3.84261
3.85193
3.85968
3.86488
3.86642
3.86961
3.87757
3.88699
3.89533
3.90131
3.9035
3.90568
3.91264
3.92173
3.92992
3.93599
3.93842
3.94078
3.94754
3.95606
3.96359
3.96909
3.97129
3.97466
3.98161
3.98907
3.99527
3.99921
4.00165
4.00689
4.01354
4.01954
4.02392
4.02648
4.03052
4.03595
4.04116
4.04515
4.04758
4.05101
4.05551
4.0599
4.06318
4.06558
4.06796
4.06985
4.07076
4.07035
4.06995
4.06977
4.06974
1
1
1
1
1
1
1
1
1
1
1
1
1
1
1
1
1
1
1
1
1
1
1
1
1
1
1
1
1
1
1
1
1
1
1
1
1
1
1
1.00003
1.00051
1.00841
1.08379
1.76812
2.97451
3.53869
3.66626
3.6958
3.7093
3.71879
3.72655
3.73277
3.73701
3.74235
3.75058
3.75983
3.76838
3.77527
3.78036
3.78334
3.78824
3.79686
3.80625
3.81464
3.82076
3.82407
3.82655
3.83249
3.84176
3.85082
3.85818
3.863
3.86457
3.86823
3.87635
3.8855
3.89348
3.89915
3.90111
3.90365
3.91086
3.91975
3.92759
3.93329
3.93535
3.93821
3.94542
3.95387
3.96119
3.96642
3.9687
3.97293
3.98034
3.98783
3.99397
3.99761
4.00054
4.00628
4.01302
4.01896
4.02314
4.02581
4.03026
4.03574
4.04073
4.0443
4.04667
4.05007
4.05435
4.05844
4.06125
4.06323
4.06537
4.06697
4.06751
4.06683
4.06633
4.06585
4.06514
1
1
1
1
1
1
1
1
1
1
1
1
1
1
1
1
1
1
1
1
1
1
1
1
1
1
1
1
1
1
1
1
1
1
1
1
1
1
1
1.00002
1.00043
1.00752
1.0768
1.74592
2.95693
3.5357
3.66651
3.69704
3.71085
3.72018
3.72765
3.73341
3.73752
3.74328
3.75193
3.76107
3.76942
3.77593
3.78059
3.78354
3.78898
3.79796
3.80706
3.81501
3.82078
3.82377
3.82666
3.83321
3.84232
3.85097
3.85775
3.86219
3.86402
3.86843
3.87664
3.88523
3.89255
3.89774
3.89968
3.90302
3.91036
3.91867
3.9259
3.93112
3.9331
3.93665
3.944
3.95195
3.95856
3.96296
3.96528
3.97068
3.97852
3.9859
3.99172
3.9947
3.99819
4.00475
4.01178
4.01766
4.02141
4.02419
4.02924
4.03495
4.03981
4.04289
4.04519
4.04884
4.05315
4.05677
4.0589
4.06052
4.06233
4.06356
4.06369
4.06271
4.06212
4.06121
4.05949
1
1
1
1
1
1
1
1
1
1
1
1
1
1
1
1
1
1
1
1
1
1
1
1
1
1
1
1
1
1
1
1
1
1
1
1
1
1
1
1.00002
1.00035
1.0066
1.06924
1.71809
2.93304
3.52995
3.66476
3.69701
3.71136
3.72042
3.7274
3.73216
3.73645
3.74303
3.75224
3.76135
3.76934
3.77536
3.77898
3.78232
3.789
3.79844
3.80743
3.81467
3.81958
3.82188
3.82578
3.83361
3.84284
3.85113
3.85723
3.86023
3.86258
3.86839
3.87699
3.88531
3.89191
3.89612
3.8981
3.90277
3.91053
3.91837
3.92492
3.92924
3.9313
3.93586
3.94329
3.95062
3.95661
3.95985
3.96228
3.96844
3.97634
3.98329
3.98841
3.99093
3.99549
4.00278
4.00991
4.01549
4.01832
4.02163
4.02742
4.03345
4.03811
4.04058
4.04288
4.04696
4.05134
4.05446
4.05605
4.05743
4.05871
4.05967
4.05937
4.05799
4.05713
4.05573
4.05273
1
1
1
1
1
1
1
1
1
1
1
1
1
1
1
1
1
1
1
1
1
1
1
1
1
1
1
1
1
1
1
1
1
1
1
1
1
1
1
1.00001
1.00027
1.00561
1.0606
1.68454
2.90307
3.5224
3.66287
3.6971
3.71171
3.72042
3.72689
3.73111
3.73582
3.74338
3.7527
3.76144
3.76869
3.77426
3.77736
3.78167
3.78976
3.79911
3.80755
3.81386
3.81784
3.82019
3.82551
3.83449
3.84346
3.851
3.85623
3.85821
3.86151
3.86887
3.87778
3.88585
3.89179
3.89453
3.89675
3.90282
3.9112
3.91904
3.92499
3.92793
3.92987
3.93541
3.94307
3.95008
3.95551
3.95782
3.96054
3.96699
3.97448
3.98079
3.98502
3.98744
3.99292
4.00047
4.00722
4.01218
4.01462
4.01888
4.02516
4.03104
4.03519
4.03704
4.04002
4.04451
4.04874
4.05125
4.05239
4.05361
4.05476
4.05532
4.05442
4.05274
4.05134
4.04933
4.04506
1
1
1
1
1
1
1
1
1
1
1
1
1
1
1
1
1
1
1
1
1
1
1
1
1
1
1
1
1
1
1
1
1
1
1
1
1
1
1
1.00001
1.00017
1.00448
1.05067
1.64479
2.86679
3.5132
3.66067
3.69742
3.71245
3.72072
3.72625
3.73038
3.73604
3.7447
3.75396
3.76235
3.76888
3.77338
3.77637
3.78221
3.79164
3.80088
3.80865
3.81411
3.81671
3.81965
3.82689
3.83661
3.84553
3.85209
3.85602
3.85742
3.86198
3.87095
3.88015
3.88778
3.89282
3.89419
3.89677
3.90411
3.91294
3.9207
3.92604
3.92766
3.9294
3.93563
3.94344
3.95026
3.95502
3.9566
3.95969
3.96626
3.97327
3.97906
3.98238
3.98493
3.99076
3.99799
4.00419
4.00846
4.01108
4.01612
4.02245
4.02782
4.03128
4.0332
4.037
4.04164
4.04536
4.04713
4.04807
4.04929
4.05044
4.05047
4.04884
4.04691
4.04498
4.04212
4.03658
1
1
1
1
1
1
1
1
1
1
1
1
1
1
1
1
1
1
1
1
1
1
1
1
1
1
1
1
1
1
1
1
1
1
1
1
1
1
1
1.00003
1.00016
1.00342
1.04013
1.59743
2.82109
3.49959
3.65659
3.69593
3.71077
3.71833
3.72341
3.72836
3.73497
3.74359
3.75203
3.75958
3.7656
3.76991
3.77382
3.78043
3.78926
3.79765
3.80456
3.80962
3.81271
3.81693
3.82452
3.83325
3.84115
3.84701
3.85033
3.85302
3.85889
3.86757
3.87597
3.88257
3.88679
3.88861
3.89326
3.9016
3.91021
3.91741
3.9222
3.92379
3.92759
3.93512
3.94305
3.94971
3.9541
3.95562
3.95926
3.96578
3.97235
3.97769
3.98045
3.98313
3.98902
3.99568
4.0013
4.00487
4.00777
4.01322
4.01923
4.02412
4.02706
4.02949
4.03376
4.03816
4.0412
4.04236
4.04333
4.04458
4.04557
4.04477
4.0426
4.04064
4.03804
4.03414
4.02703
1
1
1
1
1
1
1
1
1
1
1
1
1
1
1
1
1
1
1
1
1
1
1
1
1
1
1
1
1
1
1
1
1
1
1
1
1
1
1.00002
1.00009
1.00003
1.00199
1.02779
1.54272
2.76657
3.48367
3.65295
3.69549
3.71038
3.717
3.72242
3.72832
3.73583
3.74406
3.75184
3.75861
3.7643
3.76856
3.77386
3.78156
3.78969
3.79704
3.80293
3.80712
3.81092
3.81666
3.82465
3.83246
3.83899
3.84385
3.84677
3.85093
3.85812
3.86618
3.87345
3.87884
3.88169
3.88466
3.89101
3.89932
3.90716
3.91318
3.91639
3.91911
3.92524
3.93354
3.94139
3.94741
3.95041
3.95243
3.95777
3.96477
3.97129
3.97622
3.97869
3.98174
3.98729
3.9933
3.99846
4.00137
4.00452
4.01002
4.01554
4.01998
4.02248
4.02552
4.0299
4.03386
4.03625
4.03717
4.03824
4.03932
4.0398
4.0383
4.03591
4.03373
4.03029
4.02527
4.01652
1
1
1
1
1
1
1
1
1
1
1
1
1
1
1
1
1
1
1
1
1
1
1
1
1
1
1
1
1
1
1
1
1
1
1
1
1
1
1
0.999979
0.999636
1.00043
1.01418
1.47676
2.69791
3.46741
3.65435
3.70013
3.71346
3.71921
3.72502
3.73226
3.74039
3.74818
3.75495
3.76051
3.76467
3.76958
3.77711
3.78538
3.79278
3.79863
3.80301
3.80658
3.81147
3.81906
3.82686
3.83349
3.83836
3.84138
3.84518
3.85124
3.8589
3.8661
3.8717
3.87529
3.87808
3.88291
3.89022
3.89768
3.904
3.90832
3.91068
3.9153
3.92299
3.93108
3.93795
3.94264
3.94461
3.94864
3.95583
3.9632
3.96933
3.97326
3.97497
3.97905
3.98502
3.99081
3.99532
3.99772
4.00109
4.0064
4.01147
4.01541
4.01763
4.0211
4.02536
4.02887
4.03076
4.03161
4.0326
4.03337
4.0331
4.03127
4.02881
4.02612
4.02163
4.01554
4.00527
1
1
1
1
1
1
1
1
1
1
1
1
1
1
1
1
1
1
1
1
1
1
1
1
1
1
1
1
1
1
1
1
1
1
1
1
1
1
0.999992
0.999825
0.998531
0.999558
1.00246
1.40284
2.60223
3.45047
3.66153
3.70935
3.71978
3.72473
3.73113
3.73884
3.74654
3.75329
3.75862
3.76191
3.76588
3.7734
3.78257
3.79078
3.79686
3.80052
3.80214
3.80609
3.81413
3.82305
3.83061
3.83559
3.83733
3.8388
3.84401
3.85238
3.86054
3.86684
3.87058
3.87155
3.87506
3.88194
3.88973
3.89654
3.90138
3.90312
3.90579
3.91217
3.92027
3.92772
3.93333
3.93595
3.93893
3.94548
3.95341
3.96054
3.96569
3.96762
3.97024
3.97609
3.98261
3.98813
3.99174
3.99357
3.9973
4.00249
4.00721
4.0105
4.01256
4.01627
4.02029
4.02334
4.02478
4.0255
4.02625
4.02673
4.02581
4.02385
4.02106
4.0177
4.01217
4.00512
3.99335
1
1
1
1
1
1
1
1
1
1
1
1
1
1
1
1
1
1
1
1
1
1
1
1
1
1
1
1
1
1
1
1
1
1
1
1
1
1
1.00003
1.0002
0.999683
0.99862
0.985405
1.31482
2.4691
3.41798
3.66164
3.71334
3.72325
3.72904
3.7365
3.74423
3.75102
3.75606
3.7585
3.76113
3.76797
3.7774
3.78597
3.79268
3.79699
3.79818
3.80036
3.80762
3.81757
3.82633
3.8325
3.83588
3.83573
3.83811
3.84571
3.85497
3.86297
3.86815
3.86961
3.86921
3.87357
3.88183
3.88984
3.89589
3.89903
3.89888
3.90234
3.90984
3.91766
3.92399
3.92787
3.92919
3.93387
3.94195
3.94989
3.95622
3.95978
3.96144
3.96629
3.9733
3.97984
3.98457
3.98632
3.98838
3.99319
3.99849
4.00284
4.00512
4.00719
4.01101
4.01476
4.01727
4.01822
4.01883
4.01937
4.01952
4.01811
4.01592
4.0125
4.00853
4.00207
3.99391
3.98058
1
1
1
1
1
1
1
1
1
1
1
1
1
1
1
1
1
1
1
1
1
1
1
1
1
1
1
1
1
1
1
1
1
1
1
1
1
1
1.00002
1.00015
0.999551
0.999099
1.0001
1.243
2.30332
3.35329
3.63905
3.69892
3.71173
3.71934
3.72774
3.73579
3.74306
3.74895
3.75275
3.75668
3.76349
3.77256
3.78122
3.78864
3.79417
3.79747
3.80086
3.80807
3.81736
3.82569
3.83161
3.835
3.83569
3.83963
3.8482
3.85679
3.86376
3.86795
3.86818
3.86852
3.87477
3.88342
3.89098
3.89601
3.89724
3.89662
3.90086
3.90869
3.91587
3.92108
3.92266
3.92377
3.92963
3.9378
3.94512
3.95055
3.95256
3.95578
3.96259
3.96994
3.97578
3.97899
3.97994
3.98366
3.9893
3.99449
3.998
3.99914
4.00153
4.00546
4.00888
4.01069
4.01104
4.01157
4.01209
4.01174
4.00985
4.00722
4.00334
3.99857
3.99135
3.98184
3.96699
1
1
1
1
1
1
1
1
1
1
1
1
1
1
1
1
1
1
1
1
1
1
1
1
1
1
1
1
1
1
1
1
1
1
1
1
1
1
1
1.00001
1.00004
1.00092
1.01481
1.20923
2.17243
3.25729
3.59921
3.67572
3.69459
3.70433
3.71371
3.72244
3.73032
3.73692
3.74167
3.74608
3.75279
3.76133
3.76952
3.77676
3.78251
3.78629
3.78992
3.79676
3.80571
3.81427
3.82121
3.8262
3.82913
3.83409
3.84269
3.85156
3.85908
3.8641
3.86596
3.86852
3.87564
3.88379
3.89058
3.89473
3.89503
3.89551
3.9012
3.90857
3.91488
3.91909
3.91898
3.92021
3.92645
3.93389
3.93995
3.94388
3.94545
3.95051
3.95822
3.96522
3.97033
3.97203
3.97407
3.9794
3.98527
3.98975
3.99167
3.9925
3.99575
3.99967
4.00256
4.00341
4.00331
4.00377
4.00426
4.00334
4.00088
3.99772
3.99357
3.98807
3.97997
3.9689
3.95258
1
1
1
1
1
1
1
1
1
1
1
1
1
1
1
1
1
1
1
1
1
1
1
1
1
1
1
1
1
1
1
1
1
1
1
1
1
1
1
1.00001
1.00008
1.00128
1.01758
1.16748
2.04093
3.16796
3.56819
3.66072
3.68444
3.69531
3.70493
3.71368
3.72157
3.72827
3.73337
3.73789
3.74417
3.75225
3.76014
3.76716
3.77272
3.77626
3.77968
3.78616
3.79483
3.80318
3.8101
3.81518
3.8183
3.82325
3.83171
3.84091
3.84911
3.85534
3.85888
3.86279
3.87004
3.87841
3.88598
3.89128
3.89354
3.89589
3.90202
3.90871
3.91402
3.91709
3.91682
3.91848
3.92451
3.93093
3.93573
3.93775
3.93937
3.94523
3.95285
3.95926
3.96345
3.96495
3.96882
3.97488
3.98025
3.98366
3.9843
3.98618
3.99004
3.99368
3.99558
3.99525
3.99523
3.99565
3.99583
3.99426
3.99117
3.9876
3.98319
3.97696
3.96791
3.95523
3.9374
1
1
1
1
1
1
1
1
1
1
1
1
1
1
1
1
1
1
1
1
1
1
1
1
1
1
1
1
1
1
1
1
1
1
1
1
1
1
1
1
1.00005
1.00077
1.01202
1.11834
1.90182
3.07913
3.54993
3.6587
3.68511
3.69563
3.70446
3.71264
3.72008
3.72652
3.73145
3.73583
3.74182
3.74962
3.75722
3.7639
3.76912
3.77237
3.77564
3.78188
3.79001
3.79753
3.80334
3.80723
3.80918
3.81337
3.82138
3.83016
3.83801
3.8441
3.84754
3.85181
3.85963
3.86908
3.87785
3.88449
3.88849
3.89165
3.89763
3.90469
3.91092
3.91494
3.91622
3.91889
3.92375
3.92865
3.93256
3.93353
3.93485
3.94031
3.94695
3.95247
3.95567
3.95819
3.96348
3.96942
3.97396
3.97622
3.97714
3.98029
3.98415
3.98688
3.98751
3.98653
3.98677
3.98736
3.98677
3.98451
3.98082
3.97697
3.97217
3.9651
3.95515
3.94095
3.92141
1
1
1
1
1
1
1
1
1
1
1
1
1
1
1
1
1
1
1
1
1
1
1
1
1
1
1
1
1
1
1
1
1
1
1
1
1
1
1
1
1.00002
1.00029
1.00644
1.07184
1.74205
2.95799
3.52693
3.65946
3.68982
3.70035
3.70851
3.71617
3.72348
3.72981
3.73478
3.739
3.74469
3.75213
3.75938
3.76575
3.77068
3.77371
3.77676
3.7823
3.78921
3.7956
3.80062
3.80391
3.80537
3.80881
3.8157
3.82313
3.82947
3.83432
3.83696
3.84117
3.84925
3.8586
3.86706
3.87372
3.87759
3.88178
3.88928
3.89788
3.90573
3.91124
3.91429
3.91692
3.92109
3.9257
3.92934
3.93105
3.93207
3.93615
3.94126
3.94554
3.94808
3.95156
3.95731
3.96265
3.96658
3.96829
3.97036
3.9741
3.97735
3.97878
3.97841
3.97777
3.97805
3.97855
3.97702
3.97415
3.97003
3.96576
3.96032
3.95238
3.94164
3.92601
3.90464
1
1
1
1
1
1
1
1
1
1
1
1
1
1
1
1
1
1
1
1
1
1
1
1
1
1
1
1
1
1
1
1
1
1
1
1
1
1
1
1.00001
1.00005
0.99993
1.00205
1.02989
1.56834
2.80916
3.50188
3.66508
3.70061
3.7114
3.71789
3.72396
3.73005
3.73561
3.7405
3.74491
3.7501
3.75614
3.76204
3.76747
3.77207
3.77567
3.77885
3.78331
3.78888
3.79429
3.79893
3.80241
3.8048
3.80828
3.81373
3.81944
3.82418
3.82783
3.82997
3.83404
3.84122
3.84896
3.85592
3.86153
3.86525
3.87101
3.88008
3.88943
3.89751
3.90315
3.90606
3.90959
3.91549
3.92185
3.92683
3.92935
3.93088
3.93262
3.93581
3.93915
3.94151
3.94483
3.95006
3.9548
3.95827
3.96035
3.96352
3.96701
3.96932
3.96973
3.96925
3.96924
3.96943
3.96883
3.96627
3.96328
3.95885
3.95383
3.94759
3.9389
3.92738
3.9103
3.88706
1
1
1
1
1
1
1
1
1
1
1
1
1
1
1
1
1
1
1
1
1
1
1
1
1
1
1
1
1
1
1
1
1
1
1
1
1
1
1
0.999995
0.99991
0.999292
0.999907
0.991111
1.3797
2.60704
3.4563
3.66232
3.70874
3.72202
3.72816
3.73241
3.7365
3.74113
3.74643
3.75177
3.75677
3.76115
3.76499
3.7686
3.77294
3.77785
3.78283
3.78762
3.79184
3.79536
3.79821
3.80118
3.80472
3.80886
3.81309
3.81712
3.82075
3.82323
3.82556
3.82953
3.8354
3.84131
3.84655
3.85056
3.85441
3.8611
3.8702
3.87904
3.88628
3.89112
3.89478
3.90116
3.90936
3.91709
3.92268
3.92545
3.92637
3.92759
3.93026
3.93357
3.93614
3.93806
3.94172
3.94592
3.94945
3.95247
3.95588
3.95872
3.96024
3.96032
3.9603
3.96032
3.96005
3.95801
3.95473
3.95199
3.94727
3.94111
3.93397
3.92469
3.91231
3.89378
3.86872
1
1
1
1
1
1
1
1
1
1
1
1
1
1
1
1
1
1
1
1
1
1
1
1
1
1
1
1
1
1
1
1
1
1
1
1
1
1
1
0.999999
0.999985
0.999903
1.00006
1.00636
1.22097
2.29035
3.35081
3.62552
3.68526
3.70178
3.70888
3.71396
3.71945
3.72559
3.73157
3.73712
3.74202
3.74605
3.75013
3.75532
3.76126
3.76711
3.77248
3.77717
3.78096
3.78514
3.79039
3.79612
3.80166
3.80651
3.81029
3.81321
3.81578
3.81866
3.8222
3.82643
3.83099
3.8351
3.83836
3.84135
3.84562
3.85246
3.86034
3.8677
3.87389
3.87828
3.8841
3.8929
3.90204
3.90973
3.91452
3.91641
3.91823
3.92192
3.92624
3.9297
3.93147
3.9316
3.93307
3.93666
3.94062
3.94421
3.94719
3.94938
3.95049
3.95075
3.95086
3.95078
3.94913
3.94659
3.94312
3.94006
3.93464
3.9275
3.91982
3.90988
3.8964
3.87642
3.84949
1
1
1
1
1
1
1
1
1
1
1
1
1
1
1
1
1
1
1
1
1
1
1
1
1
1
1
1
1
1
1
1
1
1
1
1
1
1
1
1
1
1.00004
1.00074
1.01285
1.14374
2.0277
3.18172
3.57465
3.66599
3.69171
3.70112
3.70734
3.71381
3.72024
3.72623
3.73145
3.73581
3.7391
3.74316
3.74875
3.75453
3.7599
3.76435
3.76783
3.7707
3.77515
3.78153
3.78809
3.79392
3.79846
3.80165
3.80501
3.80957
3.81472
3.81978
3.82411
3.82723
3.82949
3.83145
3.83444
3.83915
3.84524
3.85116
3.85658
3.86106
3.8661
3.87384
3.88322
3.89188
3.89844
3.9022
3.9053
3.91087
3.91714
3.92251
3.92544
3.92576
3.92422
3.92506
3.92843
3.93213
3.93505
3.93715
3.93903
3.94027
3.94085
3.94095
3.93985
3.93728
3.93511
3.93144
3.92717
3.92077
3.91326
3.90518
3.8943
3.87957
3.85822
3.82958
1
1
1
1
1
1
1
1
1
1
1
1
1
1
1
1
1
1
1
1
1
1
1
1
1
1
1
1
1
1
1
1
1
1
1
1
1
1
1
1
0.999998
0.999986
1.00011
1.00598
1.0723
1.7868
3.00887
3.53269
3.65886
3.69153
3.70215
3.70877
3.71488
3.72072
3.72624
3.73095
3.73461
3.73778
3.7421
3.74738
3.75236
3.75665
3.76008
3.76249
3.76508
3.76942
3.77501
3.78048
3.78512
3.78877
3.79162
3.79605
3.80197
3.80806
3.81354
3.81756
3.82023
3.82227
3.82521
3.82918
3.83395
3.8387
3.84264
3.8455
3.8492
3.85528
3.86363
3.87214
3.87941
3.8848
3.8891
3.89554
3.90372
3.91117
3.916
3.91722
3.91609
3.91562
3.91767
3.92105
3.92417
3.92521
3.9259
3.92788
3.9296
3.93041
3.9299
3.92795
3.92521
3.92327
3.91892
3.91325
3.90613
3.89858
3.88987
3.87784
3.86197
3.83932
3.80882
1
1
1
1
1
1
1
1
1
1
1
1
1
1
1
1
1
1
1
1
1
1
1
1
1
1
1
1
1
1
1
1
1
1
1
1
1
1
1
1
0.999992
0.999856
0.998935
0.999768
1.01003
1.52918
2.80565
3.50708
3.66858
3.70159
3.70998
3.71494
3.71948
3.72392
3.72792
3.73127
3.73416
3.73763
3.74195
3.74641
3.75058
3.75419
3.75713
3.75955
3.76256
3.76693
3.77164
3.77587
3.7794
3.78196
3.78477
3.78907
3.79456
3.80008
3.80492
3.80871
3.81142
3.81478
3.81909
3.82366
3.82808
3.83168
3.83373
3.83525
3.83899
3.84563
3.85315
3.86007
3.86567
3.8703
3.87689
3.886
3.89493
3.90175
3.90496
3.90534
3.90614
3.90882
3.91235
3.91525
3.91613
3.91415
3.91449
3.91677
3.91866
3.91911
3.91721
3.91554
3.91309
3.91067
3.90526
3.89886
3.89126
3.88323
3.87356
3.86046
3.84356
3.81958
3.78745
1
1
1
1
1
1
1
1
1
1
1
1
1
1
1
1
1
1
1
1
1
1
1
1
1
1
1
1
1
1
1
1
1
1
1
1
1
1
1
1
0.999999
0.999981
0.999766
0.997495
0.980519
1.26248
2.45073
3.41213
3.65007
3.69813
3.70942
3.71458
3.71861
3.72235
3.72598
3.72976
3.7339
3.73815
3.74219
3.74589
3.74932
3.75258
3.75563
3.7589
3.76268
3.76641
3.76976
3.77256
3.77476
3.77687
3.78007
3.78435
3.78875
3.79285
3.79648
3.79943
3.8031
3.80773
3.81262
3.81725
3.82119
3.82399
3.82519
3.82698
3.83125
3.83715
3.84283
3.84772
3.85125
3.85651
3.86531
3.87509
3.88339
3.88876
3.89126
3.89392
3.89826
3.9029
3.90643
3.90727
3.90455
3.90235
3.90357
3.90589
3.90775
3.90641
3.90346
3.90269
3.90058
3.89703
3.89056
3.88423
3.87604
3.86699
3.85627
3.84234
3.8245
3.79928
3.76529
1
1
1
1
1
1
1
1
1
1
1
1
1
1
1
1
1
1
1
1
1
1
1
1
1
1
1
1
1
1
1
1
1
1
1
1
1
1
1
1
1
1
1.00002
1.00051
1.01087
1.14721
2.06321
3.20054
3.57779
3.66505
3.6894
3.69877
3.70406
3.70824
3.71227
3.71662
3.72123
3.72575
3.73002
3.73406
3.73797
3.74188
3.74588
3.75006
3.75412
3.75786
3.76113
3.764
3.76651
3.76921
3.7727
3.77651
3.78026
3.78369
3.78659
3.78954
3.794
3.79937
3.80465
3.80938
3.8129
3.81528
3.81744
3.82047
3.82463
3.82915
3.83309
3.83543
3.83815
3.84443
3.85341
3.86219
3.86916
3.87352
3.87784
3.88423
3.89062
3.89528
3.89678
3.89469
3.89187
3.89169
3.89361
3.89602
3.89541
3.89216
3.88971
3.8895
3.88727
3.88248
3.87506
3.86899
3.86015
3.84994
3.83827
3.82354
3.8046
3.77809
3.74244
1
1
1
1
1
1
1
1
1
1
1
1
1
1
1
1
1
1
1
1
1
1
1
1
1
1
1
1
1
1
1
1
1
1
1
1
1
1
1
1
1
0.999998
0.999985
1.00004
1.00459
1.06295
1.7532
2.97528
3.51281
3.64141
3.67401
3.68545
3.69186
3.69713
3.70216
3.70723
3.71217
3.71683
3.72122
3.72542
3.72961
3.73383
3.73806
3.74225
3.74628
3.75004
3.75352
3.75679
3.75989
3.76302
3.76644
3.76983
3.77297
3.77575
3.77795
3.78088
3.78505
3.78979
3.7945
3.79866
3.80206
3.80523
3.80926
3.81349
3.81756
3.82085
3.82293
3.82389
3.82722
3.83376
3.84126
3.84812
3.85332
3.8581
3.8654
3.87389
3.88046
3.88353
3.88282
3.88102
3.88097
3.88303
3.8855
3.88488
3.88006
3.87775
3.87639
3.87599
3.87275
3.86701
3.85921
3.85295
3.84343
3.8322
3.81971
3.8041
3.78402
3.75632
3.71871
1
1
1
1
1
1
1
1
1
1
1
1
1
1
1
1
1
1
1
1
1
1
1
1
1
1
1
1
1
1
1
1
1
1
1
1
1
1
1
1
1
0.999994
0.999908
0.999331
1.0001
0.990925
1.40973
2.67484
3.45249
3.63859
3.67954
3.68997
3.69466
3.69846
3.7022
3.70582
3.70928
3.71267
3.71605
3.71967
3.72349
3.7273
3.73103
3.73464
3.73823
3.74194
3.74577
3.74967
3.75358
3.75736
3.76085
3.76392
3.76647
3.76862
3.77083
3.77377
3.77741
3.78125
3.78493
3.78828
3.79123
3.79523
3.79986
3.80418
3.80794
3.81062
3.81171
3.81317
3.81734
3.82308
3.82863
3.83334
3.83716
3.84374
3.85305
3.86154
3.86705
3.86863
3.86837
3.86952
3.87233
3.87498
3.87485
3.86933
3.86471
3.86386
3.8634
3.86191
3.85634
3.85084
3.84336
3.83608
3.82573
3.8139
3.80062
3.78395
3.76254
3.73361
3.69447
1
1
1
1
1
1
1
1
1
1
1
1
1
1
1
1
1
1
1
1
1
1
1
1
1
1
1
1
1
1
1
1
1
1
1
1
1
1
1
1
1
0.999999
0.999996
1
1.00053
1.01253
1.1794
2.19181
3.28354
3.58991
3.65867
3.67712
3.68493
3.69005
3.69405
3.69748
3.70052
3.70347
3.70654
3.70977
3.71303
3.71625
3.71932
3.72219
3.72526
3.72888
3.73285
3.73696
3.74108
3.7451
3.74896
3.75264
3.75613
3.75946
3.76276
3.76605
3.76932
3.77246
3.77547
3.77811
3.78146
3.78567
3.79008
3.79425
3.79765
3.79998
3.80145
3.80399
3.80792
3.81203
3.81573
3.81815
3.82204
3.83
3.83919
3.84665
3.85101
3.85301
3.85564
3.85941
3.86254
3.8632
3.85889
3.85325
3.85101
3.85112
3.85024
3.84613
3.83866
3.83434
3.8273
3.81838
3.80699
3.7951
3.781
3.76309
3.74048
3.71049
3.6694
1
1
1
1
1
1
1
1
1
1
1
1
1
1
1
1
1
1
1
1
1
1
1
1
1
1
1
1
1
1
1
1
1
1
1
1
1
1
1
1
1
1
1
1.00001
1.0001
1.00493
1.06792
1.78378
3.01026
3.52868
3.65108
3.67813
3.68558
3.6897
3.693
3.69591
3.69862
3.70128
3.70408
3.7069
3.70955
3.712
3.71419
3.71627
3.71883
3.722
3.72525
3.72845
3.73154
3.73461
3.73779
3.74129
3.74512
3.74899
3.75256
3.75575
3.75873
3.76154
3.76418
3.76696
3.77072
3.7749
3.77913
3.78304
3.78637
3.78912
3.79206
3.79516
3.79824
3.80102
3.80275
3.80411
3.80876
3.81638
3.82402
3.83001
3.83394
3.83826
3.84367
3.84778
3.84952
3.84661
3.84216
3.83946
3.83926
3.8389
3.83395
3.82835
3.82148
3.81781
3.81016
3.79963
3.78746
3.77558
3.76073
3.74145
3.71757
3.68649
3.64403
1
1
1
1
1
1
1
1
1
1
1
1
1
1
1
1
1
1
1
1
1
1
1
1
1
1
1
1
1
1
1
1
1
1
1
1
1
1
1
1
1
1
1.00002
1.00013
0.999792
0.999047
0.986282
1.37018
2.6421
3.44503
3.63709
3.68002
3.69118
3.69563
3.69808
3.69996
3.70177
3.70377
3.70602
3.70819
3.71007
3.71155
3.7128
3.71445
3.71642
3.71845
3.72047
3.72246
3.72422
3.7262
3.72889
3.73194
3.73531
3.73884
3.74225
3.74538
3.74818
3.75087
3.75365
3.75676
3.76011
3.7636
3.76713
3.77045
3.77368
3.77733
3.7811
3.78452
3.78737
3.78947
3.78991
3.79152
3.79627
3.80223
3.80788
3.81228
3.81717
3.82407
3.83016
3.83356
3.83301
3.82956
3.82744
3.8277
3.82788
3.82369
3.81468
3.81061
3.80513
3.80071
3.7915
3.78024
3.76762
3.75535
3.73968
3.71909
3.69414
3.66205
3.61753
1
1
1
1
1
1
1
1
1
1
1
1
1
1
1
1
1
1
1
1
1
1
1
1
1
1
1
1
1
1
1
1
1
1
1
1
1
1
1
1
1
1
1
1.00001
1.00002
1.00041
1.01041
1.15147
2.11256
3.23074
3.56977
3.64793
3.66838
3.67634
3.68061
3.68367
3.68646
3.6894
3.69227
3.69492
3.6973
3.69939
3.70132
3.70335
3.70542
3.70748
3.7095
3.71146
3.7132
3.71522
3.71782
3.72075
3.72392
3.72721
3.73052
3.73377
3.73696
3.74012
3.74329
3.74642
3.74944
3.7524
3.7551
3.75774
3.76122
3.76528
3.76923
3.77276
3.77544
3.77698
3.77785
3.78018
3.78394
3.78785
3.79128
3.7947
3.80119
3.80895
3.81455
3.81652
3.81578
3.81425
3.81467
3.81528
3.81221
3.80516
3.79628
3.79354
3.78908
3.78233
3.7709
3.76049
3.74766
3.73411
3.71749
3.69596
3.66996
3.63675
3.59077
1
1
1
1
1
1
1
1
1
1
1
1
1
1
1
1
1
1
1
1
1
1
1
1
1
1
1
1
1
1
1
1
1
1
1
1
1
1
1
1
1
1
1
1.00001
0.999976
0.999898
1.00267
1.03939
1.64497
2.88545
3.48444
3.62874
3.66234
3.67192
3.67611
3.67897
3.68155
3.68394
3.68612
3.6881
3.68996
3.69179
3.69358
3.69542
3.69727
3.69904
3.70072
3.70226
3.70396
3.70597
3.70814
3.71038
3.7127
3.71511
3.7176
3.72041
3.72384
3.72756
3.73117
3.73461
3.73776
3.74049
3.74268
3.7455
3.74905
3.75281
3.75651
3.75985
3.76235
3.76418
3.76618
3.76856
3.77098
3.77323
3.77468
3.77829
3.78532
3.79232
3.79687
3.79855
3.7989
3.80031
3.80137
3.79931
3.79261
3.78684
3.78055
3.77714
3.77146
3.76211
3.74988
3.74045
3.72728
3.71214
3.69453
3.67233
3.64522
3.61078
3.56306
1
1
1
1
1
1
1
1
1
1
1
1
1
1
1
1
1
1
1
1
1
1
1
1
1
1
1
1
1
1
1
1
1
1
1
1
1
1
1
1
1
1
1
1
1
1
1.00036
1.01244
1.22704
2.34161
3.34623
3.60761
3.66397
3.67639
3.67932
3.68027
3.6812
3.68213
3.68296
3.6838
3.68494
3.68639
3.68787
3.6893
3.69062
3.69175
3.69272
3.69384
3.69536
3.6971
3.69887
3.70066
3.70241
3.7041
3.70609
3.70855
3.71147
3.71481
3.7184
3.72192
3.72508
3.72787
3.73064
3.73372
3.73699
3.74029
3.74352
3.74625
3.74879
3.75144
3.75388
3.75598
3.75767
3.75831
3.75905
3.7629
3.76885
3.7744
3.77805
3.78045
3.78291
3.78505
3.78526
3.78067
3.77345
3.76988
3.76573
3.75983
3.75033
3.74098
3.72958
3.71965
3.70557
3.68929
3.67099
3.64792
3.61945
3.58395
3.53493
1
1
1
1
1
1
1
1
1
1
1
1
1
1
1
1
1
1
1
1
1
1
1
1
1
1
1
1
1
1
1
1
1
1
1
1
1
1
1
1
1
1
1
1
1
1.00001
1.00012
1.00512
1.07285
1.80346
3.01479
3.51724
3.63882
3.66776
3.67534
3.67677
3.6771
3.67761
3.67818
3.67889
3.67978
3.68079
3.68188
3.68288
3.68365
3.68431
3.68503
3.68599
3.68717
3.6884
3.6896
3.69075
3.69204
3.69357
3.69533
3.69731
3.69961
3.70221
3.70509
3.70807
3.71108
3.71428
3.71764
3.72094
3.72415
3.72719
3.72977
3.73208
3.7351
3.73819
3.74076
3.74268
3.74374
3.74353
3.74463
3.74789
3.75187
3.75569
3.75888
3.7627
3.76613
3.76787
3.76627
3.76184
3.75685
3.75343
3.74881
3.74022
3.72814
3.71981
3.70972
3.69782
3.68276
3.66631
3.64758
3.62325
3.59309
3.55673
3.50598
1
1
1
1
1
1
1
1
1
1
1
1
1
1
1
1
1
1
1
1
1
1
1
1
1
1
1
1
1
1
1
1
1
1
1
1
1
1
1
1
1
1
1
1
1.00003
1.00017
0.999801
0.999214
1.00108
1.30817
2.50401
3.37886
3.60357
3.65548
3.66957
3.67396
3.67508
3.67541
3.67573
3.67615
3.6766
3.67695
3.6772
3.67727
3.67731
3.67756
3.67814
3.67884
3.67947
3.67991
3.68013
3.68073
3.68191
3.6833
3.68478
3.6864
3.68813
3.68996
3.69204
3.69454
3.6975
3.70087
3.70435
3.7077
3.71081
3.71347
3.71563
3.71821
3.72135
3.72443
3.72701
3.72872
3.72928
3.72933
3.73062
3.73262
3.73465
3.73672
3.73996
3.74483
3.74825
3.74864
3.74654
3.74422
3.74117
3.73573
3.72819
3.71907
3.70731
3.6994
3.68854
3.67428
3.6591
3.64285
3.62324
3.59768
3.56635
3.5294
3.47726
1
1
1
1
1
1
1
1
1
1
1
1
1
1
1
1
1
1
1
1
1
1
1
1
1
1
1
1
1
1
1
1
1
1
1
1
1
1
1
1
1
1
1
1
1
1.00001
1
1.00007
1.00579
1.09265
1.89873
3.08027
3.52203
3.62932
3.6567
3.66579
3.66881
3.66959
3.67005
3.67055
3.67095
3.67115
3.67109
3.6708
3.67072
3.67079
3.67101
3.67129
3.67148
3.67126
3.67079
3.67113
3.67215
3.67323
3.67423
3.67517
3.67626
3.67769
3.67937
3.68138
3.68392
3.687
3.69026
3.6934
3.69623
3.69875
3.70131
3.70425
3.70736
3.71033
3.71275
3.71408
3.71466
3.71524
3.71615
3.71707
3.71734
3.71831
3.72156
3.72604
3.72895
3.72865
3.72721
3.72656
3.72373
3.71606
3.70615
3.69802
3.68796
3.67888
3.66556
3.65012
3.6349
3.61869
3.59806
3.57134
3.53907
3.50136
3.44742
1
1
1
1
1
1
1
1
1
1
1
1
1
1
1
1
1
1
1
1
1
1
1
1
1
1
1
1
1
1
1
1
1
1
1
1
1
1
1
1
1
1
1
1
1
1.00003
1.00016
0.999811
0.999418
1.00237
1.35887
2.58099
3.38967
3.5964
3.6439
3.6567
3.66116
3.66254
3.663
3.66371
3.66459
3.6652
3.66534
3.66529
3.66518
3.66504
3.66478
3.66457
3.66421
3.66325
3.66246
3.6624
3.66293
3.66347
3.66377
3.66393
3.6647
3.66594
3.6674
3.6691
3.67108
3.67328
3.67575
3.67838
3.68113
3.68399
3.68696
3.68997
3.69294
3.69563
3.69755
3.69871
3.69973
3.70049
3.70098
3.7013
3.70018
3.70086
3.70332
3.70625
3.70844
3.70874
3.70823
3.70739
3.70366
3.6956
3.68511
3.67723
3.66782
3.65698
3.64167
3.62641
3.61041
3.59331
3.5718
3.54424
3.51123
3.47266
3.41717
1
1
1
1
1
1
1
1
1
1
1
1
1
1
1
1
1
1
1
1
1
1
1
1
1
1
1
1
1
1
1
1
1
1
1
1
1
1
1
1
1
1
1
1
1
1
1.00001
0.999989
0.999995
1.00562
1.09905
1.92995
3.09977
3.52013
3.62088
3.64595
3.65389
3.6563
3.65652
3.65648
3.65681
3.65736
3.65769
3.6579
3.65803
3.65791
3.65758
3.65706
3.65631
3.65524
3.65433
3.6539
3.65386
3.65367
3.6531
3.6529