/*--------------------------------*- C++ -*----------------------------------*\
| =========                 |                                                 |
| \\      /  F ield         | OpenFOAM: The Open Source CFD Toolbox           |
|  \\    /   O peration     | Version:  2.2.x                                 |
|   \\  /    A nd           | Web:      www.OpenFOAM.org                      |
|    \\/     M anipulation  |                                                 |
\*---------------------------------------------------------------------------*/
FoamFile
{
    version     2.0;
    format      ascii;
    class       volScalarField;
    location    "4.8";
    object      T;
}
// * * * * * * * * * * * * * * * * * * * * * * * * * * * * * * * * * * * * * //

dimensions      [0 0 0 1 0 0 0];

internalField   nonuniform List<scalar> 
14161
(
1
1
1
1
1
1
1
1
1
1
1
1
1
0.999999
1.01138
0.97326
1.1634
1.63658
2.91132
2.96583
2.97399
2.98193
2.99032
2.99874
3.00665
3.01382
3.02038
3.02628
3.03204
3.03758
3.04289
3.04781
3.05249
3.0568
3.06088
3.06471
3.06838
3.07183
3.07516
3.07823
3.0812
3.08393
3.08656
3.08896
3.09128
3.09347
3.0957
3.09792
3.10014
3.10235
3.10457
3.10679
3.109
3.11121
3.11342
3.11562
3.11782
3.12002
3.12222
3.12442
3.12663
3.12885
3.13108
3.13331
3.13554
3.13777
3.14001
3.14225
3.1445
3.14676
3.14903
3.1513
3.15358
3.15587
3.15815
3.16045
3.16274
3.16504
3.16734
3.16964
3.17195
3.17427
3.17661
3.17895
3.1813
3.18366
3.18603
3.1884
3.19077
3.19316
3.19556
3.19799
3.20043
3.20289
3.20533
3.20776
3.21016
3.21253
3.2149
3.21729
3.2197
3.22209
3.22443
3.2267
3.22884
3.23096
3.23323
3.23565
3.2381
3.24046
3.24267
3.24467
3.24637
3.24782
3.24925
3.25082
3.25248
3.25401
3.25513
1
1
1
1
1
1
1
1
1
1
1
1
1
0.999999
1.00283
0.994164
1.15753
1.64351
2.91349
2.96836
2.97646
2.98407
2.99201
2.99997
3.00757
3.01455
3.02101
3.02689
3.03263
3.03813
3.0434
3.04828
3.05293
3.0572
3.06127
3.06508
3.06874
3.07217
3.07549
3.07856
3.08152
3.08423
3.08685
3.08924
3.09156
3.09374
3.09598
3.0982
3.10042
3.10264
3.10485
3.10707
3.10928
3.11149
3.1137
3.1159
3.11809
3.12029
3.12249
3.12469
3.1269
3.12912
3.13134
3.13357
3.1358
3.13803
3.14026
3.1425
3.14475
3.147
3.14926
3.15153
3.1538
3.15608
3.15836
3.16065
3.16294
3.16522
3.16751
3.16981
3.17211
3.17442
3.17674
3.17907
3.18142
3.18377
3.18612
3.18848
3.19084
3.19322
3.19562
3.19804
3.20047
3.20291
3.20534
3.20776
3.21014
3.2125
3.21486
3.21724
3.21963
3.22201
3.22434
3.22659
3.22872
3.23082
3.23309
3.2355
3.23793
3.24028
3.24247
3.24444
3.24611
3.24753
3.24893
3.25049
3.25215
3.25365
3.25454
1
1
1
1
1
1
1
1
1
1
1
1
1
0.999999
1.00096
0.997654
1.15179
1.65562
2.91726
2.97195
2.97989
2.9872
2.99468
3.00209
3.00926
3.0159
3.02215
3.028
3.03367
3.03908
3.04425
3.04904
3.0536
3.05781
3.06183
3.0656
3.06923
3.07263
3.07591
3.07896
3.08189
3.08459
3.08719
3.08958
3.09188
3.09405
3.0963
3.09851
3.10072
3.10294
3.10515
3.10736
3.10957
3.11178
3.11398
3.11617
3.11837
3.12056
3.12275
3.12495
3.12715
3.12936
3.13157
3.13379
3.13601
3.13823
3.14046
3.14269
3.14493
3.14717
3.14942
3.15168
3.15394
3.15621
3.15848
3.16075
3.16302
3.1653
3.16757
3.16986
3.17215
3.17445
3.17677
3.17909
3.18142
3.18377
3.18611
3.18846
3.19081
3.19318
3.19557
3.19798
3.20041
3.20285
3.20528
3.20768
3.21006
3.2124
3.21474
3.21711
3.21949
3.22185
3.22416
3.22639
3.22849
3.23057
3.23282
3.2352
3.23761
3.23991
3.24206
3.24398
3.2456
3.24697
3.24833
3.24985
3.2514
3.25268
3.25354
1
1
1
1
1
1
1
1
1
1
1
1
1
1
1.00054
0.998714
1.14687
1.66583
2.92056
2.97458
2.98248
2.98989
2.99725
3.00444
3.0114
3.01786
3.024
3.02983
3.03543
3.04074
3.04579
3.0505
3.05498
3.05915
3.06313
3.06688
3.07047
3.07385
3.07709
3.08011
3.08301
3.08569
3.08826
3.09061
3.09287
3.09505
3.0973
3.0995
3.10171
3.10392
3.10613
3.10834
3.11055
3.11275
3.11494
3.11714
3.11933
3.12151
3.1237
3.12588
3.12806
3.13026
3.13245
3.13465
3.13686
3.13906
3.14127
3.14348
3.14569
3.14791
3.15013
3.15236
3.15458
3.15681
3.15904
3.16127
3.1635
3.16572
3.16795
3.17019
3.17244
3.1747
3.17697
3.17925
3.18155
3.18385
3.18616
3.18848
3.1908
3.19315
3.19551
3.19791
3.20032
3.20274
3.20516
3.20755
3.2099
3.21223
3.21456
3.21692
3.21928
3.22161
3.2239
3.22609
3.22815
3.23021
3.23243
3.23478
3.23712
3.23936
3.24144
3.24327
3.24479
3.2461
3.24741
3.24886
3.25028
3.25134
3.25201
1
1
1
1
1
1
1
1
1
1
1
1
1
1
1.00031
0.999126
1.14741
1.66633
2.91984
2.97432
2.98264
2.99038
2.99787
3.00509
3.01205
3.01857
3.02477
3.03061
3.0362
3.04149
3.04651
3.05121
3.05569
3.05987
3.06387
3.06764
3.07124
3.07463
3.07788
3.0809
3.0838
3.08648
3.08905
3.09141
3.09367
3.09587
3.0981
3.10031
3.10252
3.10473
3.10693
3.10914
3.11133
3.11353
3.11571
3.1179
3.12008
3.12226
3.12444
3.12661
3.12878
3.13096
3.13314
3.13533
3.13752
3.13972
3.14192
3.14412
3.14632
3.14853
3.15074
3.15295
3.15516
3.15738
3.15959
3.1618
3.16402
3.16623
3.16844
3.17065
3.17287
3.17511
3.17735
3.17961
3.18188
3.18415
3.18643
3.18871
3.19102
3.19334
3.19568
3.19803
3.2004
3.20278
3.20514
3.20749
3.2098
3.21209
3.21439
3.21671
3.21904
3.22134
3.22357
3.2257
3.22771
3.22974
3.23193
3.23422
3.23649
3.23865
3.24062
3.24233
3.24373
3.24494
3.24621
3.24759
3.24881
3.24951
3.24991
1
1
1
1
1
1
1
1
1
1
1
1
1
1
1.00032
0.998713
1.15059
1.66223
2.91761
2.97239
2.98132
2.9896
2.9974
3.00477
3.0118
3.01841
3.02465
3.03058
3.03624
3.04158
3.04665
3.0514
3.05591
3.06014
3.06417
3.06797
3.07159
3.075
3.07826
3.0813
3.0842
3.0869
3.08949
3.09187
3.09415
3.09636
3.09859
3.10081
3.10302
3.10523
3.10743
3.10963
3.11181
3.114
3.11617
3.11835
3.12052
3.1227
3.12486
3.12703
3.12919
3.13136
3.13353
3.13571
3.13789
3.14007
3.14226
3.14444
3.14663
3.14882
3.15102
3.15322
3.15542
3.15763
3.15984
3.16206
3.16428
3.1665
3.16872
3.17094
3.17316
3.17539
3.17762
3.17987
3.18212
3.18438
3.18663
3.18889
3.19118
3.19349
3.19581
3.19815
3.2005
3.20285
3.20518
3.20748
3.20974
3.21198
3.21423
3.2165
3.21878
3.22101
3.22317
3.22523
3.22716
3.22916
3.23131
3.23353
3.23571
3.23776
3.23961
3.24117
3.24242
3.24353
3.24473
3.246
3.24691
3.2473
3.24733
1
1
1
1
1
1
1
1
1
1
1
1
0.999999
1.00001
1.00023
0.997266
1.15399
1.65897
2.91617
2.97058
2.9798
2.98841
2.99644
3.00397
3.0111
3.01782
3.02415
3.03015
3.03587
3.04127
3.04638
3.05117
3.05572
3.05999
3.06405
3.06787
3.07152
3.07494
3.07821
3.08127
3.08419
3.0869
3.0895
3.09189
3.09416
3.0964
3.09861
3.10082
3.10302
3.10522
3.10741
3.10959
3.11177
3.11395
3.11612
3.11829
3.12046
3.12263
3.1248
3.12697
3.12914
3.13132
3.1335
3.13568
3.13787
3.14006
3.14226
3.14446
3.14666
3.14888
3.1511
3.15333
3.15556
3.15781
3.16006
3.16231
3.16457
3.16683
3.16909
3.17135
3.17361
3.17586
3.17811
3.18036
3.18262
3.18487
3.1871
3.18933
3.19155
3.19378
3.19603
3.19829
3.20057
3.20285
3.20511
3.20734
3.20952
3.21171
3.21393
3.21617
3.21841
3.22059
3.22269
3.22466
3.22653
3.22848
3.23057
3.23272
3.23479
3.23671
3.23841
3.2398
3.2409
3.24189
3.24299
3.24405
3.24464
3.24467
3.2443
1
1
1
1
1
1
1
1
1
1
1
1
1
1.00002
1.00018
0.997327
1.15531
1.65645
2.91502
2.9698
2.97907
2.98774
2.99584
3.0035
3.01073
3.01756
3.024
3.03008
3.03584
3.04129
3.04643
3.05126
3.05582
3.06011
3.06418
3.06802
3.07167
3.0751
3.07837
3.08143
3.08435
3.08707
3.08966
3.09205
3.09434
3.09655
3.09874
3.10093
3.10311
3.10528
3.10746
3.10963
3.1118
3.11396
3.11612
3.11828
3.12043
3.12259
3.12475
3.12692
3.1291
3.13128
3.13346
3.13564
3.13783
3.14003
3.14223
3.14444
3.14666
3.14888
3.1511
3.15333
3.15557
3.15779
3.16002
3.16224
3.16446
3.16668
3.1689
3.17112
3.17334
3.17556
3.1778
3.18003
3.18227
3.18451
3.18676
3.18901
3.19126
3.19352
3.19577
3.19803
3.2003
3.20256
3.2048
3.207
3.20915
3.21131
3.2135
3.2157
3.2179
3.22003
3.22205
3.22394
3.22576
3.22768
3.2297
3.23175
3.23368
3.23545
3.23697
3.23818
3.23911
3.23999
3.24096
3.2417
3.242
3.24175
3.241
1
1
1
1
1
1
1
1
1
1
1
1
1
1
1.00005
0.999121
1.15339
1.65504
2.91475
2.96989
2.97889
2.98738
2.99529
3.00285
3.00997
3.01677
3.02315
3.02923
3.03495
3.04038
3.04547
3.05029
3.05483
3.05912
3.06316
3.06699
3.07062
3.07405
3.07729
3.08036
3.08325
3.08598
3.08856
3.09096
3.09327
3.09546
3.09765
3.09983
3.10201
3.10419
3.10636
3.10853
3.11069
3.11286
3.11502
3.11717
3.11932
3.12147
3.12363
3.1258
3.12797
3.13015
3.13232
3.13449
3.13667
3.13886
3.14106
3.14327
3.14548
3.14772
3.14995
3.15219
3.15444
3.1567
3.15896
3.16122
3.16349
3.16576
3.16804
3.17032
3.17261
3.1749
3.17722
3.17952
3.18182
3.18411
3.18639
3.18867
3.19095
3.19325
3.19556
3.19787
3.20018
3.20248
3.20473
3.20694
3.20909
3.21121
3.21332
3.21544
3.21753
3.21955
3.22144
3.22319
3.22494
3.22678
3.22871
3.23062
3.23241
3.234
3.23533
3.23632
3.23709
3.23783
3.2386
3.23904
3.23898
3.23844
3.23728
1
1
1
1
1
1
1
1
1
1
1
1
1
1
1.00004
0.999616
1.15164
1.65544
2.91565
2.97084
2.97939
2.98764
2.99532
3.00279
3.00977
3.01648
3.02276
3.02878
3.03441
3.03979
3.04482
3.04962
3.05411
3.05839
3.06242
3.06624
3.06984
3.07326
3.07649
3.07954
3.08242
3.08514
3.08771
3.09012
3.09241
3.09461
3.09679
3.09896
3.10113
3.1033
3.10545
3.1076
3.10975
3.1119
3.11404
3.11617
3.11831
3.12044
3.12259
3.12474
3.12689
3.12905
3.13121
3.13337
3.13554
3.13771
3.13989
3.14209
3.14429
3.14651
3.14873
3.15097
3.15322
3.15547
3.15773
3.16001
3.16229
3.16458
3.16689
3.1692
3.17153
3.17386
3.1762
3.17855
3.18092
3.18328
3.18565
3.188
3.19032
3.19265
3.19497
3.19729
3.19959
3.20188
3.20413
3.20634
3.20849
3.2106
3.2127
3.21478
3.21681
3.21874
3.22053
3.22221
3.2239
3.22569
3.22754
3.22933
3.23096
3.23236
3.23348
3.23426
3.23486
3.23542
3.23587
3.23605
3.23565
3.23482
3.23323
1
1
1
1
1
1
1
1
1
1
1
1
1
1.00001
1.0001
0.999435
1.15221
1.65075
2.9146
2.97047
2.97906
2.98738
2.99505
3.00253
3.00946
3.01616
3.02239
3.02838
3.03395
3.03931
3.04429
3.04906
3.05352
3.05778
3.06178
3.06559
3.06918
3.07258
3.0758
3.07884
3.0817
3.08442
3.08697
3.08936
3.09164
3.09384
3.09599
3.09815
3.1003
3.10244
3.10458
3.10672
3.10885
3.11097
3.11309
3.11521
3.11733
3.11945
3.12157
3.1237
3.12583
3.12797
3.13012
3.13227
3.13444
3.13661
3.13879
3.14099
3.1432
3.14543
3.14766
3.14991
3.15217
3.15443
3.15671
3.15898
3.16127
3.16355
3.16584
3.16813
3.17043
3.17273
3.17504
3.17736
3.17972
3.18209
3.18448
3.18689
3.18929
3.19169
3.19407
3.19645
3.19881
3.20114
3.20343
3.20567
3.20784
3.20996
3.21206
3.21413
3.21613
3.21799
3.21969
3.22128
3.2229
3.22462
3.22636
3.228
3.22943
3.23062
3.23149
3.23205
3.23244
3.23277
3.23294
3.23276
3.23203
3.23086
3.22878
1
1
1
1
1
1
1
1
1
1
1
1
0.999998
1.00001
1.00006
0.998546
1.15474
1.64301
2.91221
2.96949
2.97843
2.98692
2.99469
3.00222
3.00915
3.01586
3.02208
3.02807
3.03363
3.03897
3.04392
3.04867
3.05309
3.05731
3.06127
3.06505
3.06859
3.07196
3.07513
3.07814
3.08097
3.08365
3.08618
3.08854
3.09081
3.09298
3.09512
3.09726
3.09939
3.10151
3.10363
3.10575
3.10785
3.10996
3.11206
3.11415
3.11625
3.11834
3.12044
3.12254
3.12465
3.12676
3.12887
3.131
3.13313
3.13528
3.13743
3.13959
3.14176
3.14394
3.14614
3.14834
3.15056
3.15278
3.15502
3.15726
3.15952
3.16178
3.16407
3.16638
3.1687
3.17106
3.17344
3.17583
3.17823
3.18065
3.18308
3.18552
3.18795
3.19038
3.1928
3.19522
3.19763
3.20002
3.20236
3.20465
3.20686
3.20898
3.21105
3.21307
3.21501
3.21681
3.21842
3.21995
3.22153
3.22319
3.22484
3.22634
3.2276
3.22858
3.22924
3.2296
3.2298
3.22987
3.22971
3.2292
3.22814
3.22666
3.22405
1
1
1
1
1
1
1
1
1
1
1
1
1
1
1.00005
0.999034
1.15454
1.63542
2.91053
2.96846
2.97735
2.9859
2.99367
3.00122
3.00816
3.01488
3.02109
3.02708
3.03262
3.03795
3.04288
3.04761
3.05202
3.05622
3.06016
3.06391
3.06742
3.07076
3.07389
3.07687
3.07967
3.08231
3.08481
3.08716
3.08941
3.09157
3.0937
3.09583
3.09796
3.10007
3.10217
3.10427
3.10636
3.10844
3.11051
3.11258
3.11464
3.11671
3.11877
3.12083
3.1229
3.12497
3.12704
3.12912
3.13121
3.13331
3.13543
3.13755
3.1397
3.14186
3.14404
3.14624
3.14846
3.1507
3.15295
3.15522
3.15752
3.15982
3.16215
3.1645
3.16685
3.16922
3.1716
3.17399
3.17641
3.17884
3.1813
3.18379
3.18631
3.18884
3.19135
3.19383
3.19629
3.19872
3.2011
3.20343
3.20568
3.20785
3.20993
3.21194
3.21384
3.21559
3.21715
3.21861
3.22012
3.2217
3.22323
3.22458
3.22565
3.22641
3.22685
3.22698
3.22694
3.22679
3.22624
3.22538
3.22387
3.22215
3.21894
1
1
1
1
1
1
1
1
1
1
1
1
1
0.999999
1.00006
0.999134
1.15436
1.62848
2.90965
2.96824
2.97687
2.98531
2.99297
3.00047
3.00734
3.01402
3.02018
3.02614
3.03164
3.03694
3.04185
3.04656
3.05094
3.05514
3.05906
3.06281
3.06631
3.06965
3.07279
3.07576
3.07855
3.0812
3.08368
3.08603
3.08825
3.0904
3.0925
3.09461
3.0967
3.09879
3.10086
3.10294
3.105
3.10706
3.10912
3.11117
3.11322
3.11527
3.11732
3.11937
3.12143
3.12349
3.12555
3.12762
3.1297
3.13179
3.13389
3.136
3.13812
3.14026
3.14241
3.14458
3.14676
3.14896
3.15117
3.15339
3.15563
3.15789
3.16017
3.16248
3.16481
3.16717
3.16956
3.17196
3.17439
3.17683
3.17929
3.18176
3.18426
3.18677
3.1893
3.19181
3.1943
3.19677
3.19919
3.20157
3.20388
3.20612
3.20826
3.21029
3.2122
3.21395
3.21548
3.21691
3.21837
3.21987
3.22129
3.22249
3.22338
3.22393
3.22413
3.22406
3.2239
3.22335
3.22252
3.22127
3.21934
3.2174
3.21357
1
1
1
1
1
1
1
1
1
1
1
1
1
0.999996
1.00004
0.998856
1.15545
1.61838
2.90773
2.96777
2.97636
2.98478
2.99238
2.99982
3.00664
3.01327
3.01937
3.02528
3.03073
3.03599
3.04085
3.04552
3.04986
3.05403
3.05791
3.06162
3.0651
3.06841
3.07151
3.07446
3.07723
3.07985
3.08231
3.08463
3.08685
3.08897
3.09105
3.09313
3.0952
3.09726
3.09931
3.10135
3.10339
3.10541
3.10744
3.10946
3.11148
3.11349
3.11551
3.11753
3.11955
3.12158
3.12361
3.12565
3.1277
3.12976
3.13184
3.13392
3.13602
3.13814
3.14028
3.14243
3.1446
3.14679
3.14901
3.15125
3.15352
3.15581
3.15812
3.16044
3.16277
3.16513
3.16751
3.16992
3.17235
3.1748
3.17725
3.17971
3.1822
3.18469
3.18722
3.18975
3.19228
3.19478
3.19725
3.19966
3.20201
3.20429
3.20647
3.20853
3.21045
3.21219
3.21371
3.2151
3.21651
3.21792
3.2192
3.22023
3.22094
3.22126
3.22121
3.22099
3.22055
3.21971
3.21851
3.21687
3.21446
3.21231
3.20781
1
1
1
1
1
1
1
1
1
1
1
1
1
1
1.00009
0.999196
1.15467
1.60842
2.90584
2.96712
2.97559
2.98398
2.99151
2.9989
3.00564
3.01222
3.01825
3.02411
3.0295
3.03471
3.03951
3.04413
3.04842
3.05253
3.05636
3.06002
3.06346
3.06672
3.06979
3.0727
3.07544
3.07802
3.08046
3.08276
3.08495
3.08705
3.08912
3.09118
3.09323
3.09527
3.09729
3.09931
3.10132
3.10332
3.10531
3.10731
3.1093
3.11129
3.11328
3.11527
3.11726
3.11927
3.12128
3.12329
3.12533
3.12736
3.12942
3.13149
3.13358
3.13569
3.13782
3.13998
3.14215
3.14435
3.14657
3.14881
3.15106
3.15334
3.15564
3.15795
3.16028
3.16264
3.16502
3.16743
3.16987
3.17233
3.1748
3.17728
3.17977
3.18227
3.18478
3.18731
3.18984
3.19235
3.19482
3.19725
3.19961
3.20191
3.20412
3.20622
3.20818
3.20994
3.21148
3.21288
3.21426
3.2156
3.21678
3.21765
3.21818
3.21826
3.218
3.21768
3.21689
3.21577
3.21421
3.2122
3.20931
3.20696
3.20182
1
1
1
1
1
1
1
1
1
1
1
1
0.999999
0.999994
1.00004
0.999019
1.15487
1.59673
2.90403
2.96655
2.97485
2.98313
2.99059
2.99792
3.0046
3.01112
3.01711
3.02292
3.02827
3.03343
3.03819
3.04277
3.04702
3.05109
3.05489
3.05852
3.06193
3.06517
3.06822
3.0711
3.07381
3.07637
3.07878
3.08106
3.08322
3.0853
3.08733
3.08936
3.09138
3.09339
3.09539
3.09738
3.09936
3.10134
3.10331
3.10528
3.10724
3.10921
3.11118
3.11315
3.11512
3.11711
3.1191
3.1211
3.12311
3.12513
3.12717
3.12923
3.1313
3.13339
3.1355
3.13763
3.13977
3.14195
3.14413
3.14635
3.14858
3.15083
3.1531
3.1554
3.15772
3.16006
3.16242
3.16482
3.16725
3.16971
3.17219
3.1747
3.17721
3.17972
3.18224
3.18476
3.18729
3.18981
3.1923
3.19474
3.19712
3.19943
3.20165
3.20377
3.20574
3.20751
3.20906
3.21046
3.21182
3.21307
3.21412
3.21484
3.21515
3.21499
3.21464
3.21401
3.21299
3.21153
3.2096
3.20724
3.20384
3.20122
3.19538
1
1
1
1
1
1
1
1
1
1
1
1
0.999999
0.999994
1.00002
0.998536
1.15652
1.58145
2.90072
2.96548
2.97392
2.98219
2.98962
2.9969
3.00354
3.01001
3.01595
3.02169
3.02698
3.03208
3.03677
3.04128
3.04547
3.04947
3.05321
3.05678
3.06013
3.06331
3.0663
3.06913
3.0718
3.07432
3.07668
3.07892
3.08104
3.08309
3.08509
3.0871
3.08909
3.09106
3.09303
3.09498
3.09693
3.09887
3.1008
3.10273
3.10467
3.1066
3.10853
3.11047
3.11242
3.11436
3.11633
3.11829
3.12027
3.12227
3.12428
3.12632
3.12837
3.13045
3.13254
3.13467
3.13681
3.13899
3.14118
3.1434
3.14564
3.1479
3.15018
3.15248
3.15481
3.15715
3.15952
3.16192
3.16435
3.16681
3.1693
3.17181
3.17433
3.17686
3.17938
3.1819
3.18442
3.18692
3.1894
3.19183
3.19421
3.19652
3.19874
3.20087
3.20285
3.20464
3.20622
3.20766
3.20901
3.21021
3.21117
3.21174
3.21183
3.21147
3.21104
3.2101
3.2088
3.20701
3.20471
3.20201
3.19811
3.19519
3.18872
1
1
1
1
1
1
1
1
1
1
1
1
1
1
1.00001
0.999001
1.15537
1.56648
2.89764
2.96436
2.97274
2.98092
2.9883
2.99551
3.00211
3.00852
3.01441
3.0201
3.02533
3.03037
3.035
3.03945
3.04358
3.04753
3.05121
3.05473
3.05803
3.06116
3.0641
3.06689
3.06951
3.07199
3.07431
3.07652
3.07861
3.08063
3.0826
3.08457
3.08653
3.08847
3.0904
3.09233
3.09424
3.09615
3.09805
3.09995
3.10185
3.10375
3.10565
3.10756
3.10948
3.11139
3.11332
3.11526
3.11722
3.11919
3.12118
3.12319
3.12522
3.12729
3.12937
3.1315
3.13364
3.13582
3.13801
3.14024
3.1425
3.14477
3.14706
3.14938
3.15172
3.15408
3.15646
3.15887
3.1613
3.16376
3.16625
3.16876
3.17129
3.17382
3.17635
3.17888
3.1814
3.1839
3.18637
3.1888
3.19118
3.19348
3.19569
3.1978
3.19977
3.20155
3.20314
3.20459
3.20591
3.20705
3.2079
3.20829
3.20817
3.20776
3.20705
3.20588
3.20426
3.20218
3.19947
3.19644
3.19206
3.18873
3.18158
1
1
1
1
1
1
1
1
1
1
1
1
1
1
1.00005
0.999028
1.15459
1.55046
2.89485
2.96366
2.97182
2.97985
2.98712
2.99424
3.00074
3.00707
3.01287
3.01849
3.02364
3.02862
3.03319
3.03759
3.04166
3.04555
3.04918
3.05264
3.05587
3.05895
3.06184
3.06458
3.06715
3.06958
3.07186
3.07403
3.07607
3.07805
3.07999
3.08192
3.08384
3.08575
3.08764
3.08952
3.09139
3.09326
3.09513
3.09699
3.09885
3.10071
3.10258
3.10445
3.10633
3.10821
3.1101
3.11201
3.11393
3.11587
3.11782
3.11981
3.12182
3.12386
3.12592
3.12802
3.13016
3.13232
3.13451
3.13674
3.139
3.14128
3.14358
3.14591
3.14826
3.15064
3.15303
3.15546
3.15791
3.16038
3.16287
3.16539
3.16792
3.17045
3.17298
3.17551
3.17803
3.18052
3.18298
3.1854
3.18777
3.19007
3.19226
3.19435
3.1963
3.19808
3.19969
3.20116
3.20248
3.20358
3.20434
3.20456
3.20425
3.20379
3.20282
3.20139
3.19946
3.19707
3.19396
3.19057
3.18572
3.18196
3.17421
1
1
1
1
1
1
1
1
1
1
1
1
1
0.999997
1.00001
0.99882
1.15434
1.53161
2.89111
2.96263
2.97071
2.97863
2.98582
2.99284
2.99926
3.00549
3.01121
3.01674
3.02181
3.0267
3.0312
3.03552
3.03953
3.04335
3.04691
3.0503
3.05347
3.05649
3.05932
3.06199
3.06452
3.06689
3.06913
3.07125
3.07325
3.07519
3.07709
3.07899
3.08087
3.08274
3.0846
3.08645
3.08828
3.09012
3.09195
3.09377
3.0956
3.09743
3.09926
3.1011
3.10294
3.1048
3.10666
3.10853
3.11042
3.11233
3.11425
3.1162
3.11818
3.12019
3.12222
3.1243
3.1264
3.12855
3.13073
3.13294
3.1352
3.13748
3.1398
3.14215
3.14452
3.14691
3.14933
3.15178
3.15425
3.15675
3.15927
3.16182
3.16438
3.16694
3.1695
3.17206
3.17458
3.17707
3.17951
3.18189
3.18423
3.18648
3.18863
3.19067
3.19257
3.19432
3.19593
3.19739
3.1987
3.19975
3.20038
3.20045
3.20011
3.19942
3.19824
3.19655
3.19434
3.19162
3.18812
3.18436
3.17905
3.17485
3.16631
1
1
1
1
1
1
1
1
1
1
1
1
1
0.999998
1.00001
0.99883
1.15364
1.5109
2.88652
2.9612
2.96928
2.97715
2.98428
2.99122
2.99756
3.0037
3.00934
3.01477
3.01977
3.02458
3.02901
3.03325
3.03718
3.04093
3.04442
3.04774
3.05084
3.05378
3.05655
3.05916
3.06163
3.06394
3.06613
3.06819
3.07014
3.07204
3.07391
3.07576
3.0776
3.07943
3.08125
3.08306
3.08485
3.08665
3.08844
3.09022
3.09201
3.0938
3.0956
3.0974
3.09921
3.10103
3.10285
3.1047
3.10656
3.10844
3.11034
3.11227
3.11423
3.11622
3.11824
3.1203
3.12239
3.12452
3.1267
3.12891
3.13116
3.13345
3.13577
3.13812
3.1405
3.14291
3.14534
3.1478
3.15028
3.15279
3.15532
3.15787
3.16043
3.163
3.16556
3.16812
3.17067
3.17317
3.17561
3.17801
3.18034
3.18258
3.18471
3.18671
3.18857
3.19028
3.19187
3.19332
3.19461
3.19561
3.19612
3.19604
3.19567
3.19477
3.19337
3.19143
3.18892
3.18587
3.18196
3.17781
3.17205
3.16737
3.15823
1
1
1
1
1
1
1
1
1
1
1
1
1
1
1.00002
0.999015
1.15185
1.48981
2.88202
2.96002
2.9679
2.97563
2.98265
2.98948
2.99573
3.00177
3.00732
3.01267
3.01758
3.0223
3.02665
3.03081
3.03466
3.03833
3.04174
3.04498
3.048
3.05087
3.05357
3.05611
3.05851
3.06077
3.0629
3.0649
3.0668
3.06864
3.07047
3.07228
3.07407
3.07586
3.07763
3.07939
3.08115
3.08289
3.08464
3.08638
3.08812
3.08986
3.09161
3.09337
3.09513
3.09691
3.0987
3.10051
3.10233
3.10418
3.10606
3.10796
3.1099
3.11188
3.11389
3.11595
3.11803
3.12016
3.12233
3.12454
3.1268
3.12908
3.13141
3.13377
3.13617
3.13861
3.14107
3.14357
3.1461
3.14865
3.15122
3.15381
3.1564
3.15897
3.16153
3.16408
3.16661
3.1691
3.17153
3.1739
3.17621
3.17842
3.18052
3.18247
3.18428
3.18594
3.18749
3.1889
3.19016
3.19107
3.19148
3.19138
3.19082
3.18975
3.18814
3.18595
3.18316
3.17977
3.17547
3.17092
3.16472
3.15956
3.14957
1
1
1
1
1
1
1
1
1
1
1
1
1
0.999998
1.00001
0.998821
1.15013
1.46587
2.87667
2.95869
2.96646
2.97406
2.98095
2.98767
2.99381
2.99975
3.0052
3.01045
3.01527
3.0199
3.02416
3.02824
3.032
3.03559
3.03891
3.04206
3.04501
3.0478
3.05042
3.05289
3.05521
3.05741
3.05947
3.06142
3.06326
3.06506
3.06684
3.06862
3.07037
3.07212
3.07385
3.07556
3.07728
3.07898
3.08068
3.08237
3.08407
3.08577
3.08748
3.08919
3.09092
3.09267
3.09442
3.0962
3.09799
3.09982
3.10167
3.10354
3.10544
3.10738
3.10936
3.11137
3.11343
3.11553
3.11767
3.11985
3.12208
3.12436
3.12669
3.12906
3.13147
3.13391
3.13639
3.13892
3.14147
3.14405
3.14665
3.14926
3.15188
3.15449
3.15708
3.15965
3.1622
3.16469
3.16713
3.16951
3.17181
3.174
3.17607
3.17798
3.17974
3.18135
3.18283
3.18419
3.1854
3.18623
3.18652
3.18637
3.18566
3.18443
3.1826
3.18016
3.17706
3.17334
3.16864
3.16365
3.15701
3.15132
3.14077
1
1
1
1
1
1
1
1
1
1
1
1
1
0.999998
1
0.99882
1.14804
1.43972
2.87022
2.95701
2.96474
2.97228
2.97909
2.98569
2.99174
2.99757
3.00293
3.00809
3.01282
3.01735
3.02152
3.02549
3.02915
3.03264
3.03586
3.03893
3.04177
3.04447
3.047
3.04939
3.05162
3.05374
3.05573
3.05761
3.05939
3.06114
3.06287
3.0646
3.06631
3.068
3.06969
3.07136
3.07302
3.07467
3.07632
3.07797
3.07961
3.08127
3.08292
3.08459
3.08627
3.08797
3.08968
3.09143
3.09319
3.09499
3.09681
3.09867
3.10056
3.10249
3.10446
3.10647
3.10854
3.11064
3.1128
3.115
3.11725
3.11954
3.12186
3.12423
3.12663
3.12908
3.13157
3.1341
3.13666
3.13926
3.14189
3.14453
3.14718
3.14981
3.15242
3.15501
3.15756
3.16005
3.16249
3.16485
3.16714
3.1693
3.17133
3.1732
3.1749
3.17645
3.17788
3.17917
3.18029
3.18103
3.18123
3.18097
3.18015
3.17875
3.17671
3.17402
3.17062
3.16656
3.16147
3.15606
3.14899
3.14281
3.13136
1
1
1
1
1
1
1
1
1
1
1
1
1
1
1.00001
0.999047
1.1444
1.41373
2.86378
2.95569
2.96321
2.97062
2.97731
2.98379
2.98971
2.99542
3.00064
3.00567
3.01027
3.01467
3.01871
3.02257
3.02611
3.02949
3.0326
3.03556
3.03831
3.04091
3.04334
3.04565
3.0478
3.04984
3.05175
3.05357
3.05529
3.05699
3.05868
3.06037
3.06204
3.06368
3.06532
3.06694
3.06855
3.07015
3.07175
3.07334
3.07493
3.07653
3.07814
3.07976
3.08139
3.08304
3.08472
3.08641
3.08814
3.08989
3.09168
3.0935
3.09536
3.09726
3.09922
3.10121
3.10326
3.10536
3.1075
3.1097
3.11194
3.11423
3.11657
3.11894
3.12136
3.12382
3.12633
3.12888
3.13147
3.13409
3.13674
3.13942
3.1421
3.14476
3.14741
3.15003
3.1526
3.15511
3.15754
3.15991
3.16218
3.16433
3.16633
3.16815
3.1698
3.17129
3.17264
3.17386
3.17487
3.17551
3.17566
3.17525
3.17431
3.17273
3.17049
3.16754
3.16384
3.15943
3.15394
3.14808
3.14056
3.13381
3.12187
1
1
1
1
1
1
1
1
1
1
1
1
1
1
1.00002
0.999001
1.14059
1.38417
2.85575
2.95422
2.96164
2.96886
2.97535
2.98164
2.98738
2.99292
2.99797
3.00285
3.0073
3.01159
3.01549
3.01924
3.02265
3.02593
3.02893
3.03181
3.03446
3.03699
3.03933
3.04156
3.04364
3.04561
3.04747
3.04923
3.0509
3.05256
3.05423
3.05588
3.05751
3.05912
3.06072
3.06229
3.06386
3.06542
3.06697
3.06852
3.07006
3.07162
3.07317
3.07474
3.07632
3.07793
3.07956
3.08121
3.08289
3.0846
3.08635
3.08813
3.08996
3.09182
3.09375
3.09572
3.09775
3.09984
3.10198
3.10417
3.10642
3.10872
3.11107
3.11346
3.1159
3.11837
3.12089
3.12345
3.12605
3.12869
3.13136
3.13406
3.13677
3.13946
3.14213
3.14477
3.14736
3.14988
3.15232
3.15468
3.15694
3.15907
3.16104
3.16282
3.16442
3.16584
3.16711
3.16824
3.16916
3.16963
3.16969
3.16919
3.16812
3.16637
3.16392
3.16071
3.15671
3.15194
3.14606
3.13975
3.13181
3.1246
3.11176
1
1
1
1
1
1
1
1
1
1
1
1
1
1
1.00008
0.999448
1.13519
1.35456
2.84751
2.95278
2.95982
2.96671
2.97295
2.97901
2.98451
2.98989
2.99475
2.9995
3.00377
3.00794
3.01168
3.01533
3.01859
3.02176
3.02465
3.02741
3.02995
3.03237
3.03462
3.03675
3.03875
3.04062
3.04242
3.04408
3.0457
3.0473
3.04895
3.05056
3.05216
3.05374
3.05531
3.05687
3.05841
3.05995
3.06149
3.06303
3.06457
3.06612
3.06768
3.06925
3.07083
3.07242
3.07403
3.07566
3.07732
3.079
3.08072
3.08248
3.08428
3.08611
3.08801
3.08995
3.09195
3.09401
3.09613
3.09831
3.10055
3.10286
3.10521
3.10762
3.11007
3.11257
3.11511
3.1177
3.12033
3.12299
3.12569
3.1284
3.13113
3.13384
3.13653
3.13919
3.1418
3.14434
3.14678
3.14914
3.15139
3.15351
3.15545
3.15719
3.15875
3.16011
3.1613
3.16233
3.16315
3.16349
3.16339
3.1628
3.16157
3.15966
3.157
3.15354
3.14923
3.14411
3.13784
3.13106
3.12269
3.11488
3.1016
1
1
1
1
1
1
1
1
1
1
1
1
1
0.99999
0.999874
0.998632
1.1298
1.32087
2.83749
2.95078
2.95737
2.96382
2.96969
2.97551
2.9808
2.98603
2.99072
2.99533
2.99945
3.0035
3.00712
3.01065
3.01383
3.0169
3.01972
3.02236
3.02489
3.02718
3.02941
3.03142
3.03339
3.03518
3.03694
3.03855
3.04011
3.04168
3.04331
3.04489
3.04646
3.048
3.04954
3.05106
3.05257
3.05407
3.05557
3.05707
3.05857
3.06009
3.06162
3.06316
3.06473
3.06632
3.06793
3.06956
3.07123
3.07293
3.07466
3.07642
3.07823
3.08007
3.08196
3.0839
3.08589
3.08795
3.09006
3.09222
3.09445
3.09674
3.09909
3.1015
3.10397
3.10648
3.10904
3.11165
3.11431
3.117
3.11973
3.12248
3.12523
3.12798
3.13069
3.13336
3.13599
3.13854
3.14099
3.14333
3.14557
3.14766
3.14955
3.15125
3.15276
3.15407
3.15518
3.15611
3.15679
3.15704
3.15679
3.15606
3.15468
3.1526
3.14973
3.14601
3.1414
3.13591
3.12926
3.12204
3.11327
3.10498
3.09078
1
1
1
1
1
1
1
1
1
1
1
1
0.999999
0.999985
1.00001
0.997817
1.12451
1.28188
2.82506
2.94702
2.95337
2.95956
2.96533
2.971
2.97618
2.98129
2.98591
2.9904
2.99445
2.99835
3.00193
3.00527
3.00845
3.01131
3.01412
3.01659
3.01905
3.02122
3.02337
3.02527
3.02716
3.02886
3.03054
3.03208
3.03357
3.03509
3.0367
3.03826
3.0398
3.04133
3.04285
3.04436
3.04586
3.04736
3.04887
3.05039
3.05193
3.05347
3.05502
3.0566
3.05818
3.0598
3.06143
3.06309
3.06479
3.06651
3.06828
3.07008
3.07191
3.07378
3.07568
3.07762
3.07961
3.08165
3.08375
3.08591
3.08813
3.09041
3.09276
3.09516
3.09762
3.10013
3.1027
3.10532
3.10799
3.1107
3.11344
3.11621
3.11899
3.12176
3.1245
3.1272
3.12985
3.13242
3.13488
3.13723
3.13946
3.14152
3.14338
3.14504
3.1465
3.14773
3.14878
3.14962
3.15011
3.15023
3.14986
3.14897
3.14745
3.14518
3.1421
3.13813
3.13322
3.12737
3.12034
3.11267
3.10352
3.09453
3.07983
1
1
1
1
1
1
1
1
1
1
1
1
1
0.999998
1
0.998257
1.11654
1.23949
2.80988
2.9425
2.94866
2.95468
2.96039
2.96594
2.97111
2.97608
2.98069
2.98498
2.98907
2.99271
2.9963
2.99944
3.00258
3.0053
3.00802
3.01038
3.01273
3.01479
3.01685
3.01867
3.02048
3.0221
3.0237
3.02518
3.0266
3.02809
3.02967
3.0312
3.03272
3.03423
3.03572
3.03721
3.03869
3.04018
3.04167
3.04316
3.04467
3.0462
3.04774
3.04931
3.05089
3.05251
3.05417
3.05587
3.0576
3.05938
3.06119
3.06305
3.06496
3.0669
3.06888
3.07089
3.07294
3.07501
3.07712
3.07929
3.08152
3.08381
3.08616
3.08856
3.09103
3.09354
3.09612
3.09876
3.10144
3.10417
3.10694
3.10973
3.11254
3.11532
3.11807
3.12078
3.12343
3.12601
3.12848
3.13083
3.13305
3.13509
3.13691
3.13851
3.13992
3.1411
3.14207
3.14282
3.14316
3.14309
3.14261
3.14155
3.13986
3.13741
3.13412
3.12989
3.12467
3.11845
3.11105
3.10297
3.09341
3.08388
3.0683
1
1
1
1
1
1
1
1
1
1
1
1
1
1
1
0.999831
1.09689
1.19987
2.79301
2.93822
2.94409
2.95
2.95557
2.961
2.9662
2.97098
2.97568
2.9798
2.98391
2.98743
2.99096
2.99397
2.997
2.99959
3.00218
3.00442
3.00665
3.00859
3.01052
3.01223
3.01393
3.01546
3.01696
3.01835
3.01967
3.0211
3.02264
3.02412
3.02559
3.02705
3.0285
3.02995
3.0314
3.03285
3.03431
3.03578
3.03726
3.03877
3.0403
3.04186
3.04345
3.04508
3.04675
3.04846
3.05021
3.05201
3.05386
3.05575
3.05767
3.05964
3.06165
3.0637
3.06579
3.06792
3.0701
3.07231
3.07456
3.07686
3.07922
3.08164
3.08411
3.08664
3.08923
3.09187
3.09456
3.0973
3.10009
3.10291
3.10574
3.10856
3.11134
3.11407
3.11674
3.11933
3.12181
3.12416
3.12636
3.12838
3.13015
3.1317
3.13304
3.13416
3.13505
3.13569
3.13592
3.13567
3.13502
3.1338
3.13194
3.12929
3.12578
3.12129
3.11578
3.10921
3.10144
3.09293
3.08298
3.07276
3.0566
1
1
1
1
1
1
1
1
1
1
1
1
1
1
1
0.999826
1.07386
1.1661
2.77742
2.93532
2.94067
2.94635
2.95185
2.95719
2.96244
2.96715
2.97184
2.97587
2.97991
2.98331
2.98669
2.98958
2.99243
2.99487
2.99727
2.99935
3.00139
3.00317
3.00491
3.00647
3.00799
3.00937
3.01071
3.01196
3.01313
3.01442
3.01583
3.0172
3.01856
3.01991
3.02126
3.02261
3.02396
3.02532
3.0267
3.02809
3.0295
3.03095
3.03242
3.03393
3.03548
3.03708
3.03873
3.04043
3.04221
3.04403
3.04592
3.04786
3.04985
3.0519
3.05399
3.05612
3.0583
3.06051
3.06276
3.06505
3.06737
3.06973
3.07213
3.07457
3.07706
3.0796
3.0822
3.08484
3.08753
3.09027
3.09305
3.09587
3.09871
3.10153
3.10433
3.10706
3.10974
3.11234
3.11483
3.11719
3.11939
3.12138
3.12311
3.1246
3.12587
3.12694
3.12775
3.12823
3.12834
3.12797
3.12712
3.12573
3.12366
3.12082
3.11707
3.11233
3.10651
3.09958
3.09144
3.08251
3.07217
3.06141
3.04439
1
1
1
1
1
1
1
1
1
1
1
1
1
1
1
0.999913
1.05023
1.13234
2.76057
2.93284
2.93831
2.94417
2.94982
2.95525
2.96058
2.96527
2.9699
2.97381
2.97767
2.98096
2.98415
2.98687
2.98951
2.99176
2.99394
2.99582
2.99763
2.99921
3.00073
3.00209
3.0034
3.00456
3.0057
3.00674
3.00771
3.00879
3.01001
3.01118
3.01236
3.01353
3.01471
3.0159
3.0171
3.01833
3.01956
3.02084
3.02213
3.02347
3.02486
3.02627
3.02775
3.02928
3.03086
3.03249
3.03419
3.03596
3.03777
3.03967
3.04162
3.04364
3.0457
3.04783
3.05005
3.05236
3.05473
3.05716
3.05962
3.0621
3.0646
3.06711
3.06966
3.07224
3.07486
3.07752
3.08022
3.08297
3.08576
3.08858
3.09143
3.09426
3.09706
3.0998
3.10248
3.10508
3.10758
3.10994
3.11213
3.1141
3.1158
3.11722
3.11842
3.11941
3.12016
3.1205