/*--------------------------------*- C++ -*----------------------------------*\
| =========                 |                                                 |
| \\      /  F ield         | OpenFOAM: The Open Source CFD Toolbox           |
|  \\    /   O peration     | Version:  2.2.x                                 |
|   \\  /    A nd           | Web:      www.OpenFOAM.org                      |
|    \\/     M anipulation  |                                                 |
\*---------------------------------------------------------------------------*/
FoamFile
{
    version     2.0;
    format      ascii;
    class       volVectorField;
    location    "0.5";
    object      U;
}
// * * * * * * * * * * * * * * * * * * * * * * * * * * * * * * * * * * * * * //

dimensions      [0 1 -1 0 0 0 0];

internalField   nonuniform List<vector> 
14161
(
(1.5 -1.76466e-16 6.06528e-24)
(1.5 -1.10551e-16 -1.09262e-22)
(1.5 8.63797e-16 -1.09525e-22)
(1.5 4.59609e-16 -1.31832e-22)
(1.5 -1.8378e-16 -2.65046e-23)
(1.5 2.4758e-16 -2.49358e-22)
(1.5 9.09564e-16 6.23789e-23)
(1.5 1.08522e-15 -8.69273e-23)
(1.5 1.00824e-15 7.04299e-23)
(1.5 6.95276e-17 -7.88711e-23)
(1.5 -2.96678e-16 -7.76118e-23)
(1.5 -1.35144e-16 -6.85166e-23)
(1.5 1.5245e-16 -2.34887e-22)
(1.5 1.84846e-16 -1.64162e-23)
(1.5 1.81067e-16 -1.25027e-22)
(1.5 4.91905e-16 -1.06234e-22)
(1.5 2.96201e-16 -1.53712e-22)
(1.5 -1.22929e-16 -1.66945e-22)
(1.5 -6.08181e-17 -1.22633e-22)
(1.5 2.16303e-16 -2.17318e-22)
(1.5 -2.31907e-16 -2.68952e-22)
(1.5 -3.57577e-16 -1.66014e-22)
(1.5 3.42986e-16 -2.00277e-22)
(1.5 3.20329e-16 -1.85046e-22)
(1.5 3.87955e-17 -2.47722e-22)
(1.5 -6.23576e-16 -2.27295e-22)
(1.5 -5.51043e-16 -2.30092e-22)
(1.5 -5.30086e-16 -2.3522e-22)
(1.5 -5.80193e-16 -2.12305e-22)
(1.5 -7.2472e-16 -2.56673e-22)
(1.5 -2.57501e-16 -1.76717e-22)
(1.5 -3.67636e-17 -2.06547e-22)
(1.5 -9.05485e-17 -2.08051e-22)
(1.5 3.46818e-13 -2.06694e-22)
(1.5 -1.51731e-09 -1.96307e-22)
(1.5 9.60294e-06 -1.98158e-22)
(1.16984 -0.01989 -2.39957e-22)
(0.563115 -0.00461731 -1.59131e-22)
(0.493604 0.00279493 -2.37723e-22)
(0.485156 0.0035052 -1.10376e-22)
(0.478903 0.00334034 -1.91789e-22)
(0.47341 0.00257286 -1.07236e-22)
(0.468744 0.00170059 -4.69767e-22)
(0.465438 0.0016412 6.34729e-22)
(0.46225 0.00241543 -1.04484e-21)
(0.458193 0.00386513 1.19941e-21)
(0.453509 0.00488246 9.31743e-22)
(0.448978 0.00505413 2.73594e-22)
(0.445211 0.00435196 3.92201e-21)
(0.441882 0.00392695 2.76285e-21)
(0.43902 0.00375598 4.57384e-21)
(0.43542 0.00339274 5.13325e-21)
(0.431951 0.00323046 5.89541e-21)
(0.428478 0.00366869 5.87483e-21)
(0.424203 0.00451494 5.65851e-21)
(0.419267 0.00515905 6.72774e-21)
(0.414082 0.005103 7.01398e-21)
(0.408982 0.00458583 6.77663e-21)
(0.40422 0.00439444 5.8902e-21)
(0.399642 0.00423365 5.76876e-21)
(0.394976 0.00419377 5.62364e-21)
(0.390291 0.00450348 6.37374e-21)
(0.385449 0.00502392 6.64977e-21)
(0.380334 0.0055452 2.90823e-21)
(0.37501 0.00566808 7.16048e-21)
(0.369847 0.0045319 2.82791e-21)
(0.36496 0.0034713 5.12917e-21)
(0.360045 0.00286272 3.26327e-21)
(0.355126 0.0026586 5.14312e-21)
(0.350177 0.0026033 3.87117e-21)
(0.345116 0.00256862 3.56403e-21)
(0.340031 0.00254804 4.93335e-21)
(0.335156 0.00254238 4.4513e-21)
(0.330663 0.00254722 6.73732e-21)
(0.326531 0.00254676 1.60787e-21)
(0.322725 0.00253728 9.90999e-21)
(0.319152 0.00252692 -5.09148e-22)
(0.315759 0.00248714 1.09014e-20)
(0.312617 0.00241412 -1.51879e-21)
(0.309456 0.00263004 1.18789e-20)
(0.305976 0.00302772 -2.0939e-21)
(0.301916 0.00347268 1.6244e-20)
(0.29705 0.00392893 -8.26585e-21)
(0.291331 0.00419018 2.22526e-20)
(0.284968 0.00410228 -1.37115e-20)
(0.278118 0.0038533 2.72418e-20)
(0.271226 0.00353919 -2.08609e-20)
(0.264691 0.00334412 2.81529e-20)
(0.258553 0.00325698 -2.10299e-20)
(0.252561 0.00319077 2.65333e-20)
(0.246628 0.00313312 -1.91172e-20)
(0.240633 0.00308203 2.89147e-20)
(0.234422 0.00306043 -2.39608e-20)
(0.227927 0.0030541 2.72886e-20)
(0.221033 0.00306636 -2.20558e-20)
(0.21398 0.00308591 2.57077e-20)
(0.207104 0.00309749 -2.15377e-20)
(0.200871 0.00311806 2.56976e-20)
(0.195371 0.00315043 -2.45309e-20)
(0.19024 0.00319314 2.67574e-20)
(0.185053 0.00324269 -3.07488e-20)
(0.179535 0.00330241 3.29915e-20)
(0.173325 0.00337723 -3.17819e-20)
(0.166104 0.00346604 2.50582e-20)
(0.157833 0.00357108 -3.14475e-20)
(0.148307 0.0037006 2.01244e-20)
(0.138189 0.00385636 -1.33336e-20)
(0.128149 0.00405036 -2.00649e-20)
(0.118291 0.00426487 1.02639e-20)
(0.108233 0.0045561 -5.75799e-20)
(0.0981183 0.00484406 7.5936e-20)
(0.0877099 0.005144 -1.52695e-19)
(0.0774052 0.00543836 2.1158e-19)
(0.0668808 0.00575588 -3.38307e-19)
(0.0558432 0.00597854 4.07593e-19)
(0.04426 0.00612958 -5.68184e-19)
(0.0324124 0.00625695 7.17683e-19)
(0.020123 0.00636477 -9.30279e-19)
(0.00708286 0.00687887 1.41118e-18)
(1.5 6.58634e-17 -2.61591e-22)
(1.5 -2.5698e-16 4.22233e-22)
(1.5 8.77602e-16 7.7305e-22)
(1.5 5.62184e-16 3.24434e-22)
(1.5 -9.69471e-17 3.12899e-22)
(1.5 4.85795e-16 3.87847e-22)
(1.5 7.89069e-16 3.31353e-22)
(1.5 8.88987e-16 3.08615e-22)
(1.5 7.88907e-16 4.22511e-22)
(1.5 -5.86696e-16 3.1112e-22)
(1.5 -7.36384e-16 3.17162e-22)
(1.5 -6.70837e-16 2.35453e-22)
(1.5 -7.75818e-16 4.68919e-22)
(1.5 -7.80972e-16 7.99055e-23)
(1.5 -2.16496e-16 -1.05186e-22)
(1.5 9.98226e-16 -8.77768e-23)
(1.5 3.72341e-16 3.62484e-23)
(1.5 4.44165e-17 -3.95962e-22)
(1.5 3.63753e-16 -1.8703e-22)
(1.5 3.25871e-16 -5.40357e-22)
(1.5 -2.51606e-17 -4.42981e-22)
(1.5 2.46505e-16 -4.52752e-22)
(1.5 8.08681e-16 -6.1711e-22)
(1.5 5.91679e-16 -6.45394e-22)
(1.5 -1.99848e-16 -4.42983e-22)
(1.5 -6.87799e-16 -3.75001e-22)
(1.5 -3.46984e-16 -5.15006e-22)
(1.5 -4.3033e-16 -5.16908e-22)
(1.5 -2.30148e-16 -6.83335e-22)
(1.5 -3.67886e-16 -5.14138e-22)
(1.5 1.5623e-16 -6.67113e-22)
(1.5 4.8509e-17 -5.8992e-22)
(1.5 -1.36062e-16 -6.07085e-22)
(1.5 1.74754e-12 -6.75788e-22)
(1.5 -6.59236e-09 -6.99325e-22)
(1.50007 2.17489e-05 -6.8567e-22)
(1.0566 0.0032886 -9.32942e-22)
(0.497131 0.00341133 -4.79619e-22)
(0.436598 0.00457306 -8.35015e-22)
(0.432655 0.00450663 -6.29892e-22)
(0.429 0.00397972 -9.5659e-22)
(0.425335 0.00328484 -8.8107e-22)
(0.421404 0.00278673 -1.34532e-22)
(0.417578 0.00269996 -1.83805e-21)
(0.414261 0.00317054 7.32036e-22)
(0.411638 0.00392189 -2.7541e-21)
(0.409986 0.00479043 1.30506e-22)
(0.409117 0.00484894 -3.44285e-22)
(0.408279 0.0044311 -4.3099e-21)
(0.407418 0.00390346 -2.82657e-21)
(0.406124 0.00384931 -5.07595e-21)
(0.404306 0.00350572 -3.63433e-21)
(0.4021 0.0034937 -1.18354e-20)
(0.399486 0.00406241 -4.47705e-21)
(0.396438 0.00481628 -1.35436e-20)
(0.393638 0.00546593 -7.18804e-21)
(0.390996 0.00542034 -5.80876e-21)
(0.388419 0.00491401 -5.70473e-21)
(0.385857 0.00474727 -4.17013e-21)
(0.383063 0.00464432 -9.61522e-21)
(0.380175 0.00463803 -8.1166e-21)
(0.377354 0.0049515 -5.57225e-21)
(0.374759 0.00545848 -1.71456e-20)
(0.372628 0.00588114 5.57407e-22)
(0.370844 0.00594109 -1.42111e-20)
(0.369043 0.00659305 -3.77113e-21)
(0.36621 0.00698014 -7.72249e-21)
(0.36218 0.00715745 -1.80978e-21)
(0.357547 0.0071554 -7.57092e-21)
(0.35256 0.00711673 -6.04537e-21)
(0.347367 0.00705406 -9.35378e-21)
(0.342125 0.00705737 -6.83894e-21)
(0.337072 0.00715058 -8.49091e-21)
(0.332339 0.00729693 -8.38003e-21)
(0.327919 0.0074333 -8.7748e-21)
(0.323767 0.00754489 -8.08843e-21)
(0.319749 0.00769094 -8.79078e-21)
(0.315557 0.00785555 -8.61813e-21)
(0.310978 0.00790514 -8.0825e-21)
(0.306077 0.00770719 -9.56936e-21)
(0.301089 0.0078909 -3.96781e-21)
(0.29604 0.00811331 -1.38764e-20)
(0.290812 0.00855803 -2.5883e-21)
(0.2854 0.00892021 -1.03927e-20)
(0.279838 0.00916075 -9.424e-23)
(0.273999 0.00930137 -1.83782e-20)
(0.267828 0.00933098 1.49926e-20)
(0.261657 0.00926426 -3.8408e-20)
(0.2557 0.00922106 3.20382e-20)
(0.249848 0.00915354 -2.9493e-20)
(0.244048 0.00909671 2.77118e-20)
(0.238186 0.00903717 -3.87943e-20)
(0.232094 0.00903229 4.05599e-20)
(0.225695 0.00905457 -6.69642e-20)
(0.218878 0.0091203 5.79328e-20)
(0.211889 0.0091938 -6.18853e-20)
(0.205099 0.00926384 6.30818e-20)
(0.198948 0.00935265 -7.83458e-20)
(0.193538 0.00946558 8.0654e-20)
(0.18848 0.0096062 -8.65325e-20)
(0.183362 0.0097759 1.0856e-19)
(0.177896 0.00996606 -1.1258e-19)
(0.171739 0.0101857 1.09243e-19)
(0.164583 0.0104494 -1.50268e-19)
(0.156408 0.0107855 1.76013e-19)
(0.147003 0.011203 -2.25514e-19)
(0.137035 0.0117096 2.45861e-19)
(0.127163 0.012316 -2.66871e-19)
(0.117526 0.0129912 3.19159e-19)
(0.107693 0.0138276 -3.18724e-19)
(0.0979799 0.0146955 3.03138e-19)
(0.0879564 0.0155835 -2.80247e-19)
(0.0780993 0.0164582 1.99094e-19)
(0.0679884 0.01738 -6.48359e-20)
(0.0572382 0.0181382 -2.31561e-19)
(0.0456654 0.0187028 3.82372e-19)
(0.0336256 0.0190448 -1.06745e-18)
(0.021049 0.0193314 5.87893e-19)
(0.00764356 0.0209259 -2.6673e-18)
(1.5 4.23855e-17 3.69458e-22)
(1.5 1.30991e-16 -1.20374e-22)
(1.5 1.28137e-16 -2.80586e-22)
(1.5 -3.45437e-16 -3.76926e-22)
(1.5 -1.00743e-16 -2.61713e-22)
(1.5 5.15171e-16 -3.33078e-22)
(1.5 6.97396e-16 -2.8758e-22)
(1.5 2.38318e-16 -3.67188e-22)
(1.5 3.62606e-16 -7.75125e-23)
(1.5 4.26556e-17 -1.79104e-22)
(1.5 -9.45814e-16 5.10119e-22)
(1.5 -1.44808e-15 -2.51981e-22)
(1.5 -1.25831e-15 -2.16676e-22)
(1.5 -9.43769e-16 -2.01541e-22)
(1.5 -3.16957e-16 1.68499e-22)
(1.5 5.49771e-16 8.38213e-23)
(1.5 5.11623e-16 9.62622e-23)
(1.5 5.42208e-16 -1.00391e-22)
(1.5 7.47937e-16 3.11382e-22)
(1.5 1.23503e-15 3.24879e-22)
(1.5 8.75037e-16 -1.36436e-22)
(1.5 2.35819e-15 -1.00303e-21)
(1.5 2.06213e-15 -4.40819e-22)
(1.5 1.12734e-15 -6.40504e-22)
(1.5 -3.18987e-16 -1.38514e-21)
(1.5 -4.81806e-16 -1.25483e-21)
(1.5 -4.44953e-16 -1.39313e-21)
(1.5 -1.25529e-15 -1.45019e-21)
(1.5 -9.50465e-16 -1.67881e-21)
(1.5 -5.67935e-16 -1.28057e-21)
(1.5 -1.22773e-15 -1.55873e-21)
(1.5 -4.01494e-16 -1.31568e-21)
(1.5 -1.17989e-15 -1.47248e-21)
(1.5 3.98918e-12 -1.3657e-21)
(1.5 -9.81427e-09 -1.44861e-21)
(1.50008 1.60186e-05 -1.3943e-21)
(1.21127 0.00487678 -1.3971e-21)
(0.582421 0.00653126 -1.05297e-21)
(0.50596 0.00801163 -1.4536e-21)
(0.495341 0.00790147 -1.62526e-21)
(0.488409 0.00717573 -1.99768e-21)
(0.481496 0.00668943 -3.76281e-22)
(0.475227 0.00619659 -2.07064e-21)
(0.470083 0.00618164 4.12898e-22)
(0.465394 0.00661993 -3.74156e-21)
(0.461367 0.00838863 3.55673e-21)
(0.457385 0.00938642 2.41306e-21)
(0.45383 0.00974334 7.33606e-21)
(0.450563 0.00942761 8.84872e-21)
(0.447393 0.00920906 1.26168e-20)
(0.443685 0.00901294 9.49209e-21)
(0.439016 0.00871879 9.55302e-21)
(0.434329 0.00882187 1.41594e-20)
(0.429822 0.00952964 5.99246e-21)
(0.425069 0.0103713 1.62176e-20)
(0.420115 0.0107404 4.32355e-21)
(0.415175 0.0105723 9.77665e-21)
(0.409898 0.010077 5.07994e-21)
(0.404784 0.00979272 -4.61911e-21)
(0.399621 0.00956548 8.41345e-21)
(0.394409 0.00955324 -3.57439e-21)
(0.389361 0.00972673 -2.70963e-21)
(0.384535 0.00987127 8.99949e-21)
(0.379786 0.00987363 -6.734e-22)
(0.375142 0.00977481 -1.04438e-20)
(0.370664 0.010313 -1.68733e-21)
(0.366302 0.0112145 -1.00315e-20)
(0.361823 0.0119181 -7.39419e-23)
(0.357127 0.0124569 -5.70557e-21)
(0.352135 0.0128084 4.55129e-21)
(0.346878 0.0130048 -6.56955e-21)
(0.341582 0.0130836 4.03335e-21)
(0.336569 0.0132067 -2.37839e-21)
(0.332011 0.0133885 1.04051e-20)
(0.327777 0.0135627 -9.20914e-21)
(0.323811 0.0137266 1.30264e-20)
(0.32004 0.0139381 -2.65298e-21)
(0.316396 0.0141395 4.61475e-21)
(0.312796 0.0142317 -3.73721e-21)
(0.309016 0.0143967 1.884e-21)
(0.304828 0.0143877 5.66258e-21)
(0.300149 0.0143573 -6.76312e-21)
(0.295026 0.0147793 7.1651e-21)
(0.289584 0.0150605 -1.02472e-20)
(0.283989 0.0151966 2.11072e-20)
(0.278165 0.0152077 -2.69637e-20)
(0.272106 0.0151659 1.23309e-20)
(0.26601 0.0149977 -1.96399e-20)
(0.260112 0.0148636 -1.11575e-20)
(0.254344 0.0147738 -1.51364e-20)
(0.248587 0.0147068 -1.32006e-20)
(0.242729 0.0146143 -3.18385e-20)
(0.236613 0.0145928 8.11886e-21)
(0.230185 0.0146227 -5.10973e-20)
(0.223315 0.0147293 4.04243e-20)
(0.216289 0.0148423 -6.817e-20)
(0.209471 0.0149704 3.67432e-20)
(0.203282 0.015141 -5.29744e-20)
(0.197821 0.0153403 3.84627e-20)
(0.192676 0.0155737 -6.31038e-20)
(0.187444 0.0158673 4.64004e-20)
(0.181855 0.0162099 -3.04396e-20)
(0.175579 0.0166157 3.90502e-20)
(0.168329 0.0170688 3.28598e-22)
(0.160109 0.0176194 5.15128e-21)
(0.150702 0.018286 5.15156e-20)
(0.140798 0.0190925 -8.27791e-20)
(0.131025 0.0200499 1.8691e-19)
(0.121466 0.0211378 -2.59267e-19)
(0.111795 0.0224147 4.6005e-19)
(0.102234 0.0237709 -4.01986e-19)
(0.0924214 0.0251831 8.19555e-19)
(0.082716 0.0266333 -6.52393e-19)
(0.0727221 0.0282074 1.02574e-18)
(0.0619768 0.029721 -5.30872e-19)
(0.050087 0.0312264 9.94727e-19)
(0.0371405 0.0324438 4.04635e-19)
(0.0234488 0.0330983 2.91228e-20)
(0.00892678 0.035841 1.9259e-18)
(1.5 -4.06291e-16 -2.38864e-22)
(1.5 -1.42501e-16 -1.2101e-22)
(1.5 -3.06873e-16 2.91309e-22)
(1.5 -8.73005e-16 3.94812e-22)
(1.5 -7.1007e-16 1.57764e-22)
(1.5 -5.79092e-17 -6.10013e-22)
(1.5 3.6681e-16 -5.31042e-22)
(1.5 3.56719e-16 -4.73829e-22)
(1.5 -9.82236e-17 -4.16525e-22)
(1.5 8.3104e-16 -4.23707e-22)
(1.5 -7.64887e-16 -7.50281e-22)
(1.5 -1.65172e-15 -1.16586e-21)
(1.5 -1.25484e-15 -1.0996e-21)
(1.5 -2.88566e-16 -1.12919e-21)
(1.5 -2.59076e-16 -5.89142e-22)
(1.5 -5.08159e-16 1.67668e-22)
(1.5 -6.1774e-17 -1.27217e-21)
(1.5 4.73147e-16 7.00564e-22)
(1.5 1.16577e-15 -1.85167e-21)
(1.5 9.68601e-16 -8.2923e-22)
(1.5 1.39257e-15 -3.78849e-22)
(1.5 1.6461e-15 3.92982e-22)
(1.5 1.10986e-15 1.1936e-22)
(1.5 7.37813e-16 4.2289e-22)
(1.5 2.54711e-16 7.13678e-22)
(1.5 3.01163e-17 -1.25547e-22)
(1.5 -1.70778e-16 4.29659e-22)
(1.5 -6.19497e-16 1.6078e-21)
(1.5 -1.37077e-15 1.39436e-21)
(1.5 -1.35403e-15 8.60881e-22)
(1.5 -1.28885e-15 8.81804e-22)
(1.5 -2.41994e-16 8.46839e-22)
(1.5 -2.82884e-15 8.05312e-22)
(1.5 5.30886e-12 7.71857e-22)
(1.5 -1.02214e-08 8.41106e-22)
(1.50017 1.74969e-05 8.35431e-22)
(1.07144 0.00400892 8.19429e-22)
(0.506037 0.00999933 1.46951e-21)
(0.443363 0.0119056 1.526e-21)
(0.439036 0.011444 1.23538e-21)
(0.435035 0.0104964 1.17691e-21)
(0.431128 0.0100763 5.75243e-22)
(0.427099 0.00951563 2.88675e-21)
(0.423537 0.00964792 -2.78392e-21)
(0.420229 0.010604 5.60547e-21)
(0.416967 0.0109056 -6.45227e-21)
(0.41427 0.011764 2.73195e-21)
(0.412225 0.0121916 -1.30693e-20)
(0.410607 0.0121626 -1.44616e-20)
(0.40902 0.0119876 -8.29722e-21)
(0.406581 0.01196 -1.75944e-20)
(0.403778 0.0118658 -1.29548e-21)
(0.400713 0.0121017 -2.23461e-20)
(0.397162 0.0130343 -5.78529e-22)
(0.393193 0.0140487 -2.23768e-20)
(0.38934 0.0144131 -5.7862e-21)
(0.385599 0.014337 2.21972e-21)
(0.381826 0.0139842 4.3882e-21)
(0.377973 0.0136866 6.86955e-21)
(0.373889 0.013747 8.35148e-21)
(0.369594 0.0139834 4.85538e-21)
(0.365207 0.0142118 2.21869e-20)
(0.360918 0.0143873 1.79176e-20)
(0.35678 0.0144672 1.60761e-20)
(0.352755 0.0144716 3.95359e-20)
(0.348865 0.0149707 1.43753e-20)
(0.344866 0.0157886 4.6687e-20)
(0.340709 0.0164159 1.10837e-20)
(0.336331 0.0168364 4.59395e-20)
(0.331754 0.017106 9.97497e-21)
(0.327094 0.0172736 2.5488e-20)
(0.32257 0.0174823 1.03278e-20)
(0.3183 0.0177431 2.74021e-20)
(0.314421 0.0180572 1.46126e-20)
(0.310937 0.0183416 1.78712e-20)
(0.307824 0.0185466 1.3018e-20)
(0.305029 0.0188233 1.91884e-20)
(0.3025 0.0192569 1.08149e-20)
(0.300022 0.0195786 1.92536e-20)
(0.297445 0.0199041 9.73455e-21)
(0.294565 0.0200749 1.3017e-20)
(0.291325 0.0202012 6.59176e-21)
(0.287882 0.0205708 1.27421e-20)
(0.284132 0.0205546 4.16522e-21)
(0.27983 0.0206093 1.39524e-20)
(0.274906 0.0207262 1.39676e-21)
(0.269463 0.0208794 3.74154e-20)
(0.263806 0.0209472 -3.24995e-20)
(0.258126 0.0209402 4.36934e-20)
(0.252468 0.0209726 8.75188e-21)
(0.246814 0.021035 2.34117e-20)
(0.24105 0.0210583 3.47385e-20)
(0.234985 0.0211189 8.56334e-21)
(0.228578 0.0211826 -1.33353e-20)
(0.22168 0.0213245 2.28851e-21)
(0.21461 0.0214702 -5.06224e-20)
(0.207761 0.0216441 -5.03506e-20)
(0.201572 0.021882 -5.09314e-20)
(0.196122 0.0221609 -8.51737e-20)
(0.190997 0.0224855 -3.23266e-20)
(0.185792 0.0228889 -1.53621e-19)
(0.180243 0.023351 1.76126e-20)
(0.173999 0.0238822 -2.45033e-19)
(0.166752 0.0244801 8.77514e-20)
(0.158518 0.0252095 -3.73809e-19)
(0.149121 0.0261105 1.57757e-19)
(0.139243 0.0272045 -4.63154e-19)
(0.129542 0.0285138 2.24821e-19)
(0.120103 0.0300172 -5.42015e-19)
(0.110556 0.0317376 1.35029e-19)
(0.1012 0.0335931 -3.72334e-19)
(0.0916943 0.0355697 -1.9898e-19)
(0.0823502 0.0376215 1.0305e-19)
(0.0727864 0.0398573 -8.22711e-19)
(0.0625215 0.0421516 6.26139e-19)
(0.0511688 0.0445597 -1.34921e-18)
(0.0387156 0.0467361 1.08398e-18)
(0.0250643 0.0479648 -2.34922e-19)
(0.0103034 0.0518478 -2.01435e-18)
(1.5 -1.56029e-16 -2.93749e-22)
(1.5 -5.10276e-16 3.67701e-22)
(1.5 -7.00059e-16 -7.29049e-22)
(1.5 -1.0871e-15 3.60476e-22)
(1.5 -1.35461e-15 5.61972e-22)
(1.5 -4.35733e-16 2.03575e-21)
(1.5 -1.14289e-16 1.84229e-21)
(1.5 1.85691e-16 5.42741e-22)
(1.5 1.51154e-16 1.88695e-21)
(1.5 -3.01704e-16 2.11477e-21)
(1.5 -9.97071e-16 -8.27462e-22)
(1.5 -1.73515e-15 2.10504e-21)
(1.5 -1.55336e-15 1.93206e-21)
(1.5 -1.19385e-15 1.84239e-21)
(1.5 -8.12238e-16 7.3464e-22)
(1.5 -5.00876e-16 4.69821e-23)
(1.5 -4.04121e-16 2.33622e-21)
(1.5 4.00193e-16 2.02665e-21)
(1.5 2.71779e-16 2.61667e-21)
(1.5 -6.79717e-16 9.03238e-22)
(1.5 -1.90999e-16 6.17452e-22)
(1.5 8.12378e-17 5.65515e-22)
(1.5 2.81701e-16 -1.89553e-22)
(1.5 7.23063e-16 -6.41761e-22)
(1.5 5.51077e-16 -4.66914e-22)
(1.5 2.83574e-16 -2.48092e-22)
(1.5 5.08446e-17 -1.73993e-22)
(1.5 5.17052e-17 -9.80453e-22)
(1.5 -3.38139e-16 -9.88178e-22)
(1.5 -1.67972e-16 -9.54363e-23)
(1.5 -2.35919e-16 -3.65296e-23)
(1.5 2.47632e-16 -1.7009e-23)
(1.5 -3.0773e-15 2.12232e-22)
(1.5 4.8372e-12 -2.92426e-23)
(1.5 -5.18418e-09 -1.30261e-22)
(1.50015 -1.71754e-06 1.65649e-22)
(1.18656 0.0149332 6.10699e-23)
(0.564851 0.0165954 -2.05456e-21)
(0.488494 0.0164618 1.05906e-21)
(0.478906 0.0154449 6.94561e-24)
(0.472025 0.0142428 -9.54497e-22)
(0.464826 0.0135547 7.34255e-22)
(0.458552 0.0131016 -4.41923e-23)
(0.45353 0.0134356 3.78686e-21)
(0.448969 0.0142428 -6.35316e-21)
(0.445388 0.0159832 8.42197e-21)
(0.441857 0.0169946 -5.98051e-21)
(0.438681 0.0175126 1.4091e-20)
(0.435953 0.0175292 1.39626e-21)
(0.433756 0.0173415 -1.16154e-21)
(0.430682 0.0172846 1.86667e-21)
(0.426848 0.0173122 3.40777e-21)
(0.423006 0.0177841 1.17021e-20)
(0.419142 0.0189038 4.30838e-21)
(0.414838 0.0199623 8.35461e-21)
(0.410532 0.0202791 7.95153e-21)
(0.406193 0.0199081 1.14312e-21)
(0.401999 0.0194971 6.96823e-21)
(0.39802 0.0191618 5.13396e-21)
(0.393832 0.0192405 5.54911e-21)
(0.38952 0.0195466 -2.78865e-22)
(0.385212 0.0197311 -3.34757e-22)
(0.380816 0.0197138 9.94007e-21)
(0.376336 0.0196881 -1.09396e-20)
(0.371991 0.019851 1.9135e-21)
(0.367892 0.0202619 -1.11366e-20)
(0.363786 0.0210193 -3.52135e-21)
(0.359491 0.0216734 -8.13687e-21)
(0.354892 0.022088 -1.33815e-21)
(0.349939 0.0222988 -3.11674e-21)
(0.344629 0.0224437 -3.22374e-21)
(0.33896 0.022548 1.30378e-20)
(0.333391 0.0226409 -1.47421e-20)
(0.328368 0.0227426 3.13798e-20)
(0.323875 0.0228449 -2.31122e-21)
(0.31972 0.0229626 2.06452e-20)
(0.315753 0.0232715 -1.58814e-21)
(0.311966 0.0236292 8.61339e-21)
(0.308173 0.0238393 3.69734e-20)
(0.304295 0.0241289 -3.71607e-21)
(0.300239 0.0244029 3.88565e-20)
(0.295909 0.0247198 -2.66015e-20)
(0.291303 0.0250799 5.83202e-20)
(0.286442 0.0257132 -2.94165e-21)
(0.281286 0.0262266 1.83762e-20)
(0.275647 0.0266721 1.2687e-20)
(0.269608 0.0270161 1.08516e-21)
(0.263516 0.0272362 4.67705e-20)
(0.257523 0.0273308 -2.16116e-20)
(0.251609 0.0274179 7.04058e-20)
(0.245726 0.0274849 -2.58164e-20)
(0.239764 0.0275142 8.99902e-20)
(0.233515 0.0275667 1.71079e-20)
(0.226943 0.0276114 1.30612e-19)
(0.219919 0.0277708 1.61126e-20)
(0.212762 0.0279525 1.73985e-19)
(0.205866 0.0281651 2.87262e-20)
(0.199644 0.0284683 2.12625e-19)
(0.194166 0.028807 -3.3747e-21)
(0.188992 0.0291974 2.65018e-19)
(0.183737 0.0296566 -7.89562e-20)
(0.178131 0.0302043 3.00375e-19)
(0.171844 0.0308556 -7.29785e-20)
(0.16459 0.0315948 3.13798e-19)
(0.156411 0.0324882 -8.73961e-20)
(0.147142 0.033602 3.23651e-19)
(0.137452 0.0349518 -5.71057e-20)
(0.128023 0.0365788 1.90395e-19)
(0.118856 0.0384448 1.62612e-19)
(0.109615 0.0405575 -2.82429e-19)
(0.100603 0.0428457 3.64501e-19)
(0.0914882 0.045311 -5.1977e-19)
(0.0825342 0.0479033 4.09566e-19)
(0.073373 0.0507456 -2.27257e-19)
(0.0634877 0.0538377 2.15328e-21)
(0.052484 0.0571972 5.29398e-19)
(0.0402036 0.0605885 -1.00469e-18)
(0.0265953 0.0626819 4.67126e-19)
(0.0118587 0.067768 1.3045e-18)
(1.5 2.45875e-16 2.74103e-22)
(1.5 -1.96323e-16 -7.47147e-23)
(1.5 -5.32321e-16 7.25058e-22)
(1.5 -1.33263e-15 -6.45779e-22)
(1.5 -1.30293e-15 -1.58115e-21)
(1.5 -1.1261e-15 -4.12482e-21)
(1.5 -7.71462e-17 -4.70024e-21)
(1.5 -3.31429e-16 -2.20504e-21)
(1.5 -2.62177e-16 -4.43698e-21)
(1.5 -2.91237e-16 -6.23143e-21)
(1.5 -3.94953e-16 -8.78514e-22)
(1.5 -1.5205e-15 -6.95163e-21)
(1.5 -1.66863e-15 -8.15904e-21)
(1.5 -1.62957e-15 -5.90414e-21)
(1.5 -1.21547e-15 -5.58558e-21)
(1.5 -4.7801e-16 -4.00304e-21)
(1.5 -4.07349e-16 -9.07743e-21)
(1.5 -3.10279e-16 -5.1244e-21)
(1.5 -7.8421e-16 -6.022e-21)
(1.5 -1.19984e-15 -6.68834e-21)
(1.5 -6.80634e-16 -6.58289e-21)
(1.5 7.19789e-16 -6.69066e-21)
(1.5 2.40007e-15 -5.4805e-21)
(1.5 2.48596e-15 -5.73084e-21)
(1.5 2.24301e-15 -4.79217e-21)
(1.5 1.98219e-15 -3.6035e-21)
(1.5 1.20744e-15 -3.40663e-21)
(1.5 7.67824e-16 -3.69293e-21)
(1.5 5.30958e-17 -3.65424e-21)
(1.5 -9.16618e-17 -4.42267e-21)
(1.5 -5.09957e-16 -4.33317e-21)
(1.5 -4.56264e-16 -4.83222e-21)
(1.5 -3.43182e-15 -4.87662e-21)
(1.5 4.54738e-12 -4.94045e-21)
(1.5 -7.94369e-09 -4.87759e-21)
(1.5002 3.32999e-06 -4.80352e-21)
(1.13028 0.0100902 -5.07956e-21)
(0.533843 0.0197796 -4.04415e-21)
(0.463661 0.0210899 -5.23458e-21)
(0.458266 0.0200862 -5.89278e-21)
(0.453127 0.018564 -5.68128e-21)
(0.448169 0.0176355 -6.97831e-21)
(0.443564 0.0171167 1.4474e-21)
(0.439809 0.0176771 -1.45306e-20)
(0.436378 0.0187117 6.94457e-21)
(0.433173 0.0199849 -1.21065e-20)
(0.430308 0.0209323 -8.63745e-21)
(0.42789 0.0213151 -3.15068e-21)
(0.425977 0.0212974 1.17418e-20)
(0.424409 0.0211401 8.8267e-21)
(0.421997 0.0210573 1.30505e-20)
(0.419119 0.0210177 -1.09459e-20)
(0.416571 0.0216036 1.37792e-20)
(0.41401 0.0227052 -1.1029e-20)
(0.411477 0.0237508 -9.00443e-23)
(0.40896 0.024356 -9.46193e-21)
(0.405803 0.0243791 -9.2506e-21)
(0.402166 0.024112 -2.13416e-20)
(0.398341 0.0239746 -6.55497e-21)
(0.394292 0.0241134 -1.37486e-20)
(0.390101 0.0246003 5.13036e-21)
(0.385926 0.0252315 -2.35553e-20)
(0.38163 0.0256 -1.39244e-20)
(0.377176 0.0257914 -2.22083e-20)
(0.3728 0.0259916 -1.20576e-20)
(0.368647 0.0263758 -2.77806e-20)
(0.36437 0.026835 -1.24675e-20)
(0.359966 0.0273991 -2.8255e-20)
(0.355293 0.0280061 -1.11158e-20)
(0.350295 0.0285513 -1.82958e-20)
(0.345023 0.0292363 -3.03484e-20)
(0.339722 0.0296548 5.95606e-21)
(0.334776 0.0299092 -5.71822e-20)
(0.330283 0.0301334 -9.95227e-22)
(0.326106 0.0304034 -4.65983e-20)
(0.322132 0.0307255 3.18843e-21)
(0.318089 0.0311505 -4.69364e-20)
(0.313886 0.031656 9.7484e-21)
(0.309395 0.0319498 -6.89298e-20)
(0.304568 0.0322133 1.18907e-20)
(0.299441 0.0322153 -5.67148e-20)
(0.294136 0.0321139 3.16187e-20)
(0.288783 0.0318078 -6.21033e-20)
(0.283633 0.0319516 2.50925e-20)
(0.278573 0.03231 -3.33876e-20)
(0.273411 0.0328737 5.39442e-20)
(0.267863 0.0334391 -3.09803e-20)
(0.262163 0.0338984 7.8381e-20)
(0.256442 0.0341636 -6.12696e-20)
(0.250677 0.0343685 7.25353e-20)
(0.244848 0.0345035 -1.00291e-19)
(0.238849 0.0345506 4.89694e-20)
(0.232547 0.0345898 -1.69737e-19)
(0.225914 0.0346134 6.01666e-20)
(0.218877 0.034778 -1.59378e-19)
(0.211724 0.0349845 5.06905e-20)
(0.204835 0.035206 -1.64414e-19)
(0.198596 0.035553 4.95491e-20)
(0.193067 0.0359258 -1.48132e-19)
(0.187794 0.0363544 7.80424e-20)
(0.182446 0.0368406 -1.49146e-19)
(0.176748 0.0374247 1.06442e-19)
(0.170369 0.0381241 -8.71577e-20)
(0.163048 0.0389588 -4.12895e-20)
(0.154842 0.0399693 8.41043e-20)
(0.145591 0.0412484 -3.5666e-19)
(0.135957 0.0427817 4.26984e-19)
(0.126628 0.0446514 -6.09647e-19)
(0.117546 0.046821 6.55997e-19)
(0.108452 0.0492808 -5.00363e-19)
(0.0996638 0.0519686 4.73389e-19)
(0.0908786 0.054908 -1.51384e-19)
(0.0823152 0.058045 -3.22863e-19)
(0.0735957 0.0615069 2.58285e-19)
(0.0641897 0.0654235 -5.21197e-19)
(0.0537025 0.0697671 -9.88721e-19)
(0.0419564 0.0744614 1.33951e-18)
(0.0286681 0.0775693 -7.97171e-19)
(0.0139656 0.0840506 -1.50491e-18)
(1.5 -2.617e-16 1.61121e-21)
(1.5 -2.18367e-16 1.72578e-21)
(1.5 -1.95086e-16 1.63146e-21)
(1.5 -1.1878e-15 1.12788e-21)
(1.5 -8.51421e-16 3.73833e-21)
(1.5 -1.28145e-15 5.59489e-21)
(1.5 -1.26997e-15 2.56433e-21)
(1.5 -1.27346e-15 6.8219e-21)
(1.5 -7.85299e-16 4.74327e-21)
(1.5 1.69106e-16 3.99316e-21)
(1.5 4.42157e-17 3.25339e-21)
(1.5 -2.37415e-16 4.48389e-21)
(1.5 -1.29891e-15 6.78163e-21)
(1.5 -1.44849e-15 2.1058e-21)
(1.5 -6.72741e-16 -9.93897e-22)
(1.5 -6.40021e-16 -2.49146e-21)
(1.5 -2.55248e-16 1.27112e-21)
(1.5 -2.38535e-16 2.27063e-22)
(1.5 -5.46143e-16 -1.59102e-22)
(1.5 -6.65581e-16 1.29245e-21)
(1.5 2.88331e-16 1.3198e-21)
(1.5 1.3267e-15 1.48391e-21)
(1.5 2.88175e-15 1.87799e-21)
(1.5 2.76079e-15 3.53917e-21)
(1.5 2.67153e-15 7.45708e-22)
(1.5 2.31037e-15 7.52783e-22)
(1.5 2.23337e-15 1.03526e-21)
(1.5 2.50164e-15 1.65797e-21)
(1.5 1.83835e-15 2.43004e-21)
(1.5 1.17697e-15 8.03105e-22)
(1.5 9.26665e-16 9.80287e-22)
(1.5 7.64094e-16 1.6977e-21)
(1.5 -1.49339e-15 2.00533e-21)
(1.5 1.17697e-12 2.09242e-21)
(1.5 2.27125e-09 2.18723e-21)
(1.50019 -9.10061e-06 2.39541e-21)
(1.18003 0.0153363 2.20913e-21)
(0.556149 0.0251661 1.11007e-21)
(0.477933 0.0259476 3.75486e-21)
(0.470138 0.0246062 6.10493e-21)
(0.464084 0.0225179 5.04954e-21)
(0.457983 0.0214191 2.77105e-21)
(0.452621 0.0210136 2.69557e-21)
(0.448333 0.0218453 4.103e-21)
(0.444509 0.0229798 2.3455e-21)
(0.441287 0.0248588 1.57463e-21)
(0.438192 0.0258459 7.11202e-21)
(0.435416 0.0261702 -1.2942e-20)
(0.432841 0.0260596 -1.55758e-20)
(0.430796 0.0259378 -2.29506e-20)
(0.427621 0.0256958 -2.12954e-20)
(0.424009 0.0254777 -2.28931e-20)
(0.420594 0.0260076 -1.76301e-20)
(0.417014 0.0269077 -2.1006e-20)
(0.413185 0.0275023 -5.88762e-21)
(0.409639 0.0283193 -3.63041e-20)
(0.40589 0.0290229 -8.40385e-21)
(0.401913 0.029005 -3.81571e-21)
(0.39795 0.0291088 -1.7406e-20)
(0.393785 0.0292881 -9.86474e-21)
(0.389517 0.0299502 -1.88248e-20)
(0.38535 0.0308512 -1.11088e-20)
(0.381193 0.0314525 -1.85351e-21)
(0.376948 0.0318291 6.76202e-21)
(0.3726 0.0320488 -3.47684e-21)
(0.36835 0.0324736 2.31558e-20)
(0.36386 0.032917 -1.8646e-20)
(0.35922 0.033464 2.85004e-20)
(0.354441 0.0341524 -2.47593e-20)
(0.349566 0.0347815 2.90288e-20)
(0.344716 0.0355052 -3.00184e-20)
(0.340099 0.0357976 2.88421e-20)
(0.335915 0.0359606 -3.77506e-20)
(0.332158 0.0361234 1.91207e-20)
(0.328837 0.0363327 -3.07785e-20)
(0.325775 0.0366599 2.10524e-20)
(0.322682 0.0370802 -3.8371e-20)
(0.3194 0.0375583 3.01266e-20)
(0.315671 0.0378956 -4.78559e-20)
(0.31151 0.0380683 3.54881e-20)
(0.306929 0.0381037 -7.39354e-20)
(0.301908 0.0380836 5.1956e-20)
(0.296467 0.037766 -9.28836e-20)
(0.290752 0.037795 6.37084e-20)
(0.284902 0.0381087 -1.05939e-19)
(0.278886 0.0386979 1.37972e-19)
(0.27272 0.0393651 -6.76459e-20)
(0.26664 0.0399723 8.9474e-20)
(0.260724 0.0403695 1.6042e-20)
(0.254798 0.040731 2.53403e-20)
(0.248815 0.0410431 1.46897e-19)
(0.242621 0.0412241 -7.5551e-21)
(0.236093 0.0413748 1.979e-19)
(0.229197 0.0414873 -8.59801e-20)
(0.221919 0.0417321 2.17901e-19)
(0.214543 0.0420259 -1.58099e-19)
(0.207428 0.0422857 2.38948e-19)
(0.200972 0.0427057 -8.64876e-20)
(0.1952 0.0431742 2.4658e-19)
(0.189634 0.0437106 -2.37112e-19)
(0.183975 0.0443016 3.84152e-19)
(0.177951 0.0449694 -3.97489e-19)
(0.17124 0.0457633 5.21669e-19)
(0.163622 0.0467047 -4.14107e-19)
(0.155138 0.0478386 5.7127e-19)
(0.145675 0.0492663 -3.24508e-19)
(0.135887 0.0509423 2.98046e-19)
(0.126451 0.0530057 -6.0544e-21)
(0.117272 0.0554295 2.93352e-20)
(0.108144 0.0581624 2.91749e-19)
(0.0993852 0.0611552 -5.2654e-19)
(0.0907383 0.0644731 7.51983e-19)
(0.0823992 0.068083 -2.43714e-19)
(0.0739829 0.0721097 -4.80062e-20)
(0.0649733 0.0767978 1.07301e-18)
(0.0549338 0.0820718 -3.93892e-20)
(0.043711 0.0880466 -1.66241e-18)
(0.0308402 0.0922092 1.62041e-18)
(0.0164073 0.100457 1.28971e-18)
(1.5 -3.44268e-16 -1.83133e-21)
(1.5 5.10596e-16 -2.45971e-21)
(1.5 -2.32692e-16 -1.40239e-21)
(1.5 -7.63652e-16 -4.39713e-21)
(1.5 -9.42013e-16 -6.4757e-21)
(1.5 -1.07951e-15 -7.4384e-21)
(1.5 -1.72516e-15 -3.56265e-21)
(1.5 -1.43209e-15 -7.67739e-21)
(1.5 -1.13328e-15 -6.67625e-21)
(1.5 -3.52042e-16 -6.79618e-21)
(1.5 -9.22502e-16 -6.26327e-21)
(1.5 -9.00492e-16 -5.78759e-21)
(1.5 -9.65329e-16 -3.14235e-21)
(1.5 -9.41176e-16 2.97881e-21)
(1.5 -5.75933e-17 6.79622e-21)
(1.5 2.40171e-16 5.23607e-21)
(1.5 3.06127e-16 9.7088e-21)
(1.5 9.69545e-17 6.37819e-21)
(1.5 -2.661e-17 7.08695e-21)
(1.5 2.09857e-16 1.10727e-20)
(1.5 1.05537e-15 7.56294e-21)
(1.5 1.21236e-15 6.64902e-21)
(1.5 1.36288e-15 6.42491e-21)
(1.5 1.60779e-15 6.47914e-21)
(1.5 1.3159e-15 9.37795e-21)
(1.5 1.15288e-15 9.19274e-21)
(1.5 1.75189e-15 9.14723e-21)
(1.5 2.14919e-15 9.4086e-21)
(1.5 2.37019e-15 9.81726e-21)
(1.5 2.17022e-15 1.06074e-20)
(1.5 2.08592e-15 1.03431e-20)
(1.5 2.02549e-15 1.05816e-20)
(1.5 1.36334e-15 1.03266e-20)
(1.5 -2.82875e-13 1.06486e-20)
(1.5 5.90232e-09 1.01528e-20)
(1.50021 -1.23792e-05 9.9622e-21)
(1.16705 0.0150976 1.07452e-20)
(0.546392 0.0302222 7.54289e-21)
(0.467491 0.0313406 6.92716e-21)
(0.460745 0.0296967 9.09099e-21)
(0.455262 0.0273463 8.06007e-21)
(0.449823 0.0259004 9.13765e-21)
(0.445066 0.0254643 5.94918e-21)
(0.441282 0.0265358 5.38409e-21)
(0.437854 0.0281868 1.10333e-20)
(0.434584 0.0300059 8.75964e-21)
(0.431706 0.0310624 -7.71224e-21)
(0.428956 0.0312845 1.8544e-20)
(0.4263 0.0309635 -1.58236e-20)
(0.423867 0.0306527 8.71084e-21)
(0.420322 0.0302528 2.78394e-21)
(0.41643 0.0301412 2.6816e-20)
(0.412739 0.0308408 -4.41669e-21)
(0.408672 0.0317905 4.77886e-20)
(0.404371 0.0325175 -2.13635e-20)
(0.400278 0.0331888 5.8576e-20)
(0.395979 0.0335996 -2.75819e-22)
(0.39168 0.0336402 3.14355e-20)