/*--------------------------------*- C++ -*----------------------------------*\
| =========                 |                                                 |
| \\      /  F ield         | OpenFOAM: The Open Source CFD Toolbox           |
|  \\    /   O peration     | Version:  2.2.x                                 |
|   \\  /    A nd           | Web:      www.OpenFOAM.org                      |
|    \\/     M anipulation  |                                                 |
\*---------------------------------------------------------------------------*/
FoamFile
{
    version     2.0;
    format      ascii;
    class       surfaceScalarField;
    location    "1.05";
    object      cfmax;
}
// * * * * * * * * * * * * * * * * * * * * * * * * * * * * * * * * * * * * * //

dimensions      [0 3 -1 0 0 0 0];

internalField   nonuniform List<scalar> 
28084
(
0.00074624
0.000743005
0.000740233
0.000737904
0.000735998
0.000734493
0.000733368
0.000732598
0.00073216
0.000732028
0.000732179
0.000732586
0.000733227
0.000734077
0.000735111
0.000736308
0.000737644
0.000739097
0.000740648
0.00074228
0.000743939
0.000745671
0.000747426
0.00074909
0.000750829
0.000752482
0.000754055
0.000755495
0.000756789
0.000758047
0.000759035
0.000759809
0.000760406
0.000760827
0.000760998
0.000760943
0.000760518
0.000759753
0.000758637
0.000757079
0.000755112
0.000753063
0.000750527
0.000747039
0.000743888
0.000750893
0.000756161
0.000762455
0.000770061
0.000738762
0.000451327
0.000416324
0.000416842
0.000422053
0.00043064
0.000439772
0.000450839
0.000461809
0.000473526
0.000484542
0.000495091
0.000505484
0.000515361
0.000524618
0.000533387
0.000541052
0.00054764
0.000554072
0.000560196
0.000565494
0.000569704
0.000573142
0.000576333
0.000579773
0.000581456
0.000582219
0.000582485
0.000581926
0.000580945
0.000580962
0.000582319
0.000581961
0.000578728
0.000581009
0.000579014
0.000576379
0.000576968
0.000575957
0.000569273
0.000572729
0.000575538
0.000581277
0.000583919
0.000586848
0.000594167
0.000595492
0.000597384
0.000596823
0.000595563
0.00058204
0.000565147
0.000537738
0.00050709
0.000476635
0.000452395
0.000436036
0.000425813
0.000419046
0.000414478
0.000411658
0.000410327
0.00041082
0.000412893
0.000416203
0.000419811
0.000423003
0.000425783
0.00042827
0.00144511
0.00144286
0.000749756
0.00143755
0.000748801
0.00142923
0.000748279
0.00141797
0.000748174
0.00140386
0.000748466
0.00138703
0.000749135
0.0013676
0.000750158
0.00134574
0.000751512
0.0013216
0.000753172
0.00129548
0.000755111
0.00126762
0.000757304
0.00123804
0.000759724
0.00120696
0.000762344
0.00117456
0.000765139
0.00114107
0.000768081
0.00110669
0.000771147
0.00107161
0.000774312
0.00103602
0.00077755
0.00100009
0.000780841
0.000964013
0.000784162
0.000927939
0.000787473
0.000892006
0.000790795
0.00085633
0.000794086
0.00082108
0.000797264
0.000786324
0.000800414
0.000752134
0.000803466
0.000718631
0.000806349
0.000685883
0.000809085
0.000653917
0.000811637
0.000622779
0.000813967
0.000592549
0.000816052
0.000563242
0.000817873
0.000534915
0.000819435
0.000507549
0.000820758
0.000481155
0.000821766
0.00045574
0.000822471
0.000431434
0.000822772
0.000408081
0.000822686
0.000385676
0.000822192
0.000364243
0.000821141
0.000343788
0.000819619
0.000324164
0.000817943
0.000305494
0.00081568
0.000287784
0.000812337
0.000291193
0.000809106
0.000290507
0.000815375
0.000290128
0.000820202
0.000289027
0.000825571
0.000281509
0.000831587
0.000288328
0.000792757
0.000290289
0.00048552
0.000287613
0.000446507
0.000291021
0.000446732
0.000292757
0.000452357
0.000296018
0.000461453
0.000298279
0.000470664
0.00030168
0.000481956
0.000304256
0.000492834
0.000306311
0.000504489
0.000308383
0.000515298
0.000310602
0.000525796
0.000312768
0.000535646
0.000314345
0.000545317
0.000316067
0.000554487
0.000317386
0.000563104
0.000319026
0.000570798
0.000320938
0.00057735
0.000322767
0.000583189
0.000324577
0.000588766
0.000326135
0.000593511
0.000327804
0.000597523
0.000330209
0.000600742
0.000332898
0.000603161
0.000334893
0.000605167
0.000336483
0.000606568
0.000338532
0.000607139
0.000340549
0.000606978
0.000342581
0.000606407
0.000345232
0.000604837
0.00034795
0.000604338
0.000350076
0.000605356
0.000353747
0.000604461
0.000357354
0.000600522
0.000360481
0.000601891
0.000365082
0.000599664
0.00036938
0.000596446
0.000371986
0.000597035
0.000375037
0.000595388
0.00037988
0.000588948
0.00038427
0.000593593
0.000388253
0.000595327
0.000392712
0.000601142
0.000397215
0.000603838
0.000401898
0.000606503
0.000406001
0.000611854
0.000410088
0.000611411
0.000413835
0.000610982
0.000417818
0.000605003
0.00042058
0.000597732
0.000421535
0.000574187
0.000420575
0.000554224
0.000417943
0.000533888
0.000407609
0.000500655
0.000396748
0.000473714
0.00038705
0.00045225
0.000380305
0.000437671
0.000376001
0.000427228
0.000373384
0.000420018
0.000371889
0.000415057
0.000371362
0.000411859
0.000371778
0.00041018
0.000373333
0.000410272
0.000375735
0.000411808
0.000379114
0.000414405
0.000383321
0.000417087
0.000388277
0.000419721
0.000392198
0.000422638
0.000402918
0.000425045
0.00144569
0.00144321
0.000754451
0.00143768
0.000755746
0.00142916
0.000757447
0.0014177
0.000759538
0.00140341
0.000762001
0.0013864
0.000764817
0.00136735
0.000767964
0.00134596
0.000771418
0.00132226
0.000775152
0.00129644
0.000779139
0.00126868
0.000783352
0.0012392
0.000787762
0.00120819
0.00079234
0.00117586
0.000797058
0.00114242
0.000801889
0.00110808
0.000806803
0.00107302
0.000811776
0.00103744
0.000816782
0.00100152
0.000821794
0.000965427
0.00082679
0.000929327
0.000831743
0.000893362
0.000836628
0.000857662
0.00084143
0.000822347
0.00084613
0.000787542
0.000850665
0.000753313
0.000855091
0.000719715
0.000859287
0.000686905
0.000863274
0.000654886
0.000867055
0.000623649
0.000870493
0.000593341
0.000873669
0.000563966
0.000876587
0.000535548
0.000879107
0.000508088
0.000881321
0.000481604
0.000883168
0.000456099
0.000884629
0.00043158
0.00088567
0.000407998
0.000886314
0.000385666
0.000886522
0.00036434
0.000886069
0.000343957
0.000885048
0.000324436
0.000883739
0.000305867
0.000881658
0.000288244
0.000878571
0.000295773
0.000875496
0.000295321
0.000880937
0.000294971
0.000886065
0.000293507
0.000890201
0.000281495
0.000895344
0.000292006
0.000849358
0.000293655
0.000522491
0.0002881
0.000478452
0.000294565
0.000477361
0.000298114
0.00048313
0.000302818
0.000492834
0.000305337
0.0005025
0.000309099
0.000514671
0.000311858
0.000525888
0.000313685
0.000537582
0.000315462
0.000548495
0.0003171
0.000558927
0.000318971
0.000568763
0.000320409
0.00057811
0.000321249
0.00058719
0.000322624
0.000595329
0.000323575
0.000602598
0.000324965
0.000608949
0.000326606
0.000614397
0.000327933
0.000619192
0.000329711
0.000623553
0.000330571
0.000627092
0.000332345
0.000630434
0.000334674
0.000632422
0.000336792
0.000633316
0.000338287
0.000633467
0.000340652
0.000633413
0.000342667
0.000632686
0.000344561
0.000632056
0.000346759
0.000630676
0.000349351
0.000629476
0.000352678
0.000630155
0.00035631
0.000628631
0.000360095
0.000624278
0.000362547
0.000624651
0.000365207
0.000622458
0.000370436
0.000617119
0.00037326
0.000617745
0.000376921
0.000616371
0.000381689
0.000609691
0.000386894
0.000616779
0.000390973
0.000617804
0.00039533
0.000622099
0.000399372
0.0006239
0.000403152
0.000624586
0.000406403
0.00062471
0.000409795
0.000620627
0.000412311
0.000617574
0.000415071
0.000599148
0.000417387
0.00058467
0.000416369
0.000560038
0.000416336
0.000533629
0.000415947
0.00050538
0.000413343
0.00048173
0.000404937
0.000462778
0.000395322
0.000447367
0.000388499
0.000435999
0.000383836
0.000427278
0.000380653
0.000420839
0.000378721
0.000416163
0.000377754
0.000412839
0.000377897
0.000410896
0.000379675
0.000410354
0.000382665
0.000411122
0.00038727
0.000412781
0.000392653
0.000414825
0.000399354
0.000417312
0.000404887
0.00042054
0.000417136
0.000424114
0.00144514
0.00144245
0.000760325
0.00143672
0.000763838
0.00142801
0.000767729
0.00141719
0.000771985
0.00140384
0.00077659
0.00138772
0.000781524
0.00136896
0.000786767
0.0013477
0.000792292
0.00132413
0.000798073
0.00129842
0.000804082
0.00127076
0.000810289
0.00124135
0.000816663
0.0012104
0.000823175
0.00117812
0.000829793
0.00114471
0.000836488
0.00111038
0.000843229
0.00107532
0.000849988
0.00103973
0.000856739
0.00100379
0.000863449
0.000967665
0.000870098
0.000931504
0.000876674
0.000895487
0.000883102
0.000859735
0.000889407
0.000824321
0.000895594
0.00078944
0.00090152
0.000755135
0.000907303
0.000721449
0.000912808
0.000688523
0.000918031
0.000656419
0.000923022
0.000625082
0.000927573
0.000594679
0.000931803
0.000565195
0.000935821
0.000536658
0.000939341
0.000509085
0.000942455
0.000482497
0.000945142
0.000456885
0.000947405
0.000432281
0.000949215
0.000408618
0.000950578
0.000385895
0.000951575
0.00036427
0.000951885
0.000343999
0.000951507
0.000324583
0.000950537
0.000306154
0.000948677
0.00028864
0.000946082
0.000300335
0.000943117
0.000300125
0.000947755
0.000299815
0.000952905
0.000297961
0.000956706
0.000280626
0.000962158
0.000298244
0.000909324
0.000297561
0.000560526
0.000288773
0.000509892
0.000298668
0.000508535
0.000304533
0.000515832
0.000310834
0.000526265
0.000314061
0.000536487
0.000318213
0.00054938
0.000320931
0.000560835
0.000322631
0.000572679
0.000323783
0.000583936
0.000325138
0.0005948
0.000326216
0.000604713
0.000327534
0.000614066
0.000328245
0.000622416
0.00032857
0.000630026
0.000329258
0.000636962
0.000329913
0.000642595
0.000330771
0.000647396
0.000332065
0.00065135
0.000333614
0.00065461
0.00033482
0.00065767
0.000335925
0.000660606
0.000337554
0.000662558
0.000339124
0.000662863
0.000340514
0.000662275
0.000342071
0.000661288
0.000343816
0.000660382
0.000345792
0.000659034
0.000348385
0.000657976
0.000350862
0.000656475
0.000353776
0.000656082
0.000357278
0.000653697
0.000361078
0.000648834
0.000364703
0.000648645
0.000367515
0.000646508
0.000370754
0.000639249
0.00037393
0.000640131
0.000378887
0.000640147
0.000383123
0.000634494
0.000387955
0.000642401
0.000391371
0.000641464
0.000396025
0.00064255
0.000400167
0.000641639
0.000403706
0.000639109
0.000405925
0.000636031
0.000408406
0.000620499
0.00040968
0.000611011
0.000410247
0.000584965
0.000412333
0.000561998
0.000411847
0.000530755
0.000413876
0.000499459
0.000418398
0.000476446
0.000419936
0.000460048
0.000413802
0.000448578
0.000404229
0.000439701
0.000397961
0.000431689
0.000393266
0.000424794
0.000389682
0.000419539
0.000386801
0.00041522
0.000385323
0.000411901
0.000385617
0.000409881
0.000387609
0.000409283
0.000391091
0.000409879
0.000396277
0.000411223
0.000402348
0.000413111
0.000410209
0.000415668
0.000416474
0.000419286
0.000428953
0.000423895
0.00144348
0.00144122
0.000767378
0.00143698
0.000773073
0.00142968
0.000779119
0.0014194
0.000785506
0.00140622
0.000792219
0.00139025
0.00079924
0.00137163
0.000806546
0.0013505
0.000814111
0.00132703
0.00082191
0.00130141
0.00082991
0.00127383
0.000838082
0.00124449
0.000846393
0.00121358
0.00085481
0.00118133
0.000863301
0.00114793
0.000871833
0.00111359
0.000880375
0.00107852
0.000888896
0.00104289
0.000897367
0.00100689
0.000905752
0.000970712
0.000914032
0.000934475
0.0009222
0.000898371
0.000930161
0.00086253
0.000937948
0.000827026
0.000945581
0.000792015
0.000952903
0.000757588
0.000959985
0.000723813
0.000966823
0.000690747
0.00097328
0.000658475
0.000979436
0.000627071
0.000985168
0.000596541
0.000990495
0.000566918
0.00099547
0.000538237
0.00100004
0.000510551
0.0010041
0.00048384
0.00100772
0.00045811
0.0010108
0.00043338
0.00101343
0.000409634
0.00101555
0.000386831
0.00101719
0.000364938
0.0010185
0.00034399
0.00101908
0.000324724
0.0010187
0.000306449
0.0010173
0.000289069
0.00101509
0.000304958
0.00101255
0.000304962
0.0010167
0.000304808
0.0010208
0.000302517
0.00102323
0.000282861
0.00102731
0.000308163
0.000984623
0.00030245
0.000602068
0.000289531
0.000542345
0.000303931
0.000541144
0.000312298
0.000550888
0.000320068
0.000563135
0.00032406
0.000574605
0.000328397
0.000588667
0.000331206
0.000600686
0.000332751
0.000612561
0.000333962
0.000623972
0.000334674
0.000634187
0.00033529
0.000643653
0.000335522
0.000651734
0.000335768
0.000660289
0.000335763
0.000667302
0.000335448
0.000673087
0.000335489
0.000678207
0.000335489
0.000681983
0.000335682
0.000685117
0.000336885
0.000687748
0.000338414
0.000689468
0.000339399
0.00069127
0.00034016
0.000692903
0.000341217
0.000693736
0.00034227
0.00069303
0.000343534
0.000691221
0.000345161
0.000689002
0.000346919
0.000687468
0.000349995
0.000685109
0.000352396
0.000683696
0.000356063
0.000682576
0.000359346
0.000679406
0.000362893
0.000673959
0.000367023
0.000673152
0.000370293
0.000670504
0.000373524
0.000663281
0.00037738
0.000669234
0.000382322
0.000668086
0.000385629
0.000661039
0.000389463
0.000665843
0.000393153
0.000664227
0.000397639
0.000661216
0.000400968
0.000657013
0.000403809
0.000645122
0.000405196
0.00063657
0.000405961
0.000610223
0.00040594
0.000596
0.00040434
0.000563087
0.000406795
0.000528089
0.000413228
0.000497138
0.000417594
0.00047383
0.000419755
0.000457031
0.000419251
0.000445453
0.000414464
0.000438277
0.000408736
0.000432682
0.000403571
0.000427527
0.000399337
0.000422541
0.000395811
0.000418063
0.000393496
0.000414251
0.000392559
0.000411381
0.000392994
0.000409527
0.000395274
0.000408744
0.000398941
0.000408896
0.000404895
0.000409937
0.000411634
0.000411949
0.000420397
0.000414824
0.000427111
0.000418921
0.00043938
0.000424144
0.00144499
0.00144401
0.000775616
0.00143994
0.000783452
0.00143282
0.000791615
0.0014227
0.000800095
0.00140967
0.000808879
0.00139384
0.000817949
0.00137535
0.000827283
0.00135433
0.000836855
0.00133096
0.000846636
0.00130542
0.000856595
0.0012779
0.0008667
0.0012486
0.000876915
0.00121773
0.000887206
0.00118548
0.00089754
0.00115207
0.00090788
0.00111771
0.000918193
0.00108259
0.000928446
0.0010469
0.00093861
0.00101084
0.000948645
0.000974566
0.000958531
0.000938231
0.000968257
0.000902016
0.000977737
0.000866047
0.000986986
0.000830435
0.00099604
0.00079527
0.00100475
0.000760705
0.0010131
0.000726811
0.00102126
0.00069357
0.00102892
0.00066114
0.00103614
0.000629602
0.00104317
0.000598926
0.00104956
0.000569135
0.00105545
0.000540326
0.00106096
0.000512479
0.00106621
0.000485643
0.00107079
0.00045977
0.00107482
0.000434902
0.00107827
0.000411027
0.00108113
0.00038814
0.00108359
0.000366211
0.00108564
0.000345092
0.00108741
0.000324928
0.00108849
0.000306801
0.00108822
0.000289598
0.00108631
0.000309736
0.00108425
0.000309958
0.00108821
0.000309899
0.00109169
0.000307622
0.00109415
0.000290273
0.00109812
0.000320825
0.00108182
0.000307746
0.000652443
0.000291751
0.000578829
0.000310813
0.000576097
0.000322171
0.000589694
0.000331327
0.000604249
0.000336299
0.000617634
0.000340976
0.000633051
0.000343459
0.000644817
0.000344506
0.000656338
0.00034484
0.000666889
0.000344787
0.000676456
0.000344585
0.000684804
0.000343843
0.000691664
0.000343056
0.000700038
0.000342509
0.000706476
0.000341251
0.000711524
0.00034016
0.000716154
0.00034025
0.000718974
0.000339727
0.000721365
0.000339345
0.000723297
0.000340458
0.000724574
0.000342068
0.000724816
0.000343217
0.000725292
0.00034365
0.000726643
0.000343916
0.000726883
0.000344557
0.000724536
0.000345714
0.000721022
0.00034891
0.00071726
0.000351651
0.000714697
0.000354307
0.000710588
0.000357999
0.000712278
0.000361515
0.000708933
0.00036497
0.000702583
0.000369019
0.000710279
0.000372946
0.000705472
0.000376774
0.000697235
0.00038092
0.000701078
0.000385045
0.000696654
0.00038825
0.000687889
0.000391779
0.000689438
0.000394296
0.000684551
0.000398396
0.000672657
0.000400331
0.000663583
0.000402466
0.000639051
0.00040358
0.00062864
0.000402303
0.000595269
0.000403506
0.000563063
0.000408278
0.000528082
0.000415772
0.000498792
0.000419745
0.000475813
0.000421916
0.000459185
0.000421685
0.000446963
0.000419115
0.000438848
0.000414912
0.000433555
0.000411036
0.000428988
0.000407238
0.000424587
0.000403689
0.000420511
0.000401222
0.000416988
0.000399911
0.000413954
0.000399672
0.000411706
0.000400199
0.000409951
0.000402567
0.000408682
0.000406754
0.000408396
0.000413235
0.000409301
0.000420537
0.000411361
0.000429776
0.00041449
0.000436922
0.000418982
0.000448803
0.000424549
0.00144872
0.00144791
0.000785044
0.001444
0.000794977
0.00143703
0.000805213
0.00142707
0.000815744
0.00141418
0.000826558
0.00139849
0.000837638
0.00138011
0.000848961
0.00135919
0.0008605
0.00133591
0.000872227
0.00131044
0.000884108
0.00128297
0.000896109
0.0012537
0.000908193
0.00122283
0.000920324
0.00119057
0.000932466
0.00115714
0.00094458
0.00112273
0.000956633
0.00108754
0.000968587
0.00105177
0.000980411
0.00101561
0.000992071
0.000979225
0.00100354
0.000942768
0.00101478
0.000906411
0.00102577
0.000870297
0.00103645
0.000834531
0.00104688
0.000799197
0.00105697
0.000764467
0.0010666
0.000730393
0.00107602
0.000696983
0.00108486
0.000664401
0.00109322
0.00063264
0.0011014
0.000601816
0.00110893
0.000571866
0.00111586
0.000542929
0.00112228
0.000514924
0.0011285
0.000487883
0.0011343
0.000461876
0.0011393
0.000436845
0.0011437
0.00041284
0.00114736
0.000389822
0.00115062
0.000367807
0.00115351
0.0003468
0.00115596
0.000326467
0.00115866
0.000307403
0.00116057
0.000290312
0.00116123
0.000314748
0.00115927
0.000315298
0.00116296
0.000315465
0.00116743
0.000313693
0.00117169
0.000296636
0.00117622
0.000332233
0.00116759
0.000314322
0.000722621
0.000296099
0.000618773
0.000320076
0.000615375
0.000334954
0.000633825
0.000345476
0.000651083
0.00035152
0.000667091
0.000355401
0.00068268
0.000356337
0.000694425
0.000355989
0.000705404
0.000354984
0.000715415
0.000353475
0.000723881
0.000352229
0.00073209
0.000350738
0.000736597
0.000349313
0.000744593
0.000347807
0.000750215
0.000346838
0.000753656
0.000344423
0.000757565
0.000343412
0.000760113
0.000343666
0.000762021
0.000342826
0.000763943
0.000341993
0.000766934
0.000342778
0.000768032
0.00034452
0.000767931
0.000345561
0.000768489
0.000346374
0.000771813
0.000346751
0.000771111
0.000348321
0.000768142
0.000352185
0.000763346
0.000355346
0.000759242
0.00035795
0.000753955
0.000360878
0.000756788
0.000364353
0.000756119
0.000367822
0.0007475
0.000371502
0.000752122
0.000375836
0.000744123
0.000379784
0.000732688
0.000384008
0.000731676
0.000388026
0.000722276
0.000390368
0.000713725
0.000393975
0.000703433
0.000395672
0.000693578
0.00039714
0.000669839
0.000398694
0.000659124
0.00039951
0.000628598
0.000402128
0.000601476
0.000403261
0.000563292
0.000412841
0.000529126
0.000419946
0.000502854
0.000424313
0.000482584
0.000425577
0.000465912
0.000425409
0.000453069
0.000423115
0.000443666
0.000419556
0.000437498
0.000415769
0.000432482
0.000412465
0.000427772
0.000409486
0.000423412
0.000407445
0.000419914
0.00040618
0.000416969
0.000405643
0.000414388
0.000405881
0.000412258
0.000406999
0.000410503
0.000409871
0.000409102
0.000414378
0.000408611
0.000421299
0.000409479
0.000428955
0.000411378
0.000438391
0.000414608
0.000446002
0.000419279
0.000457434
0.00042507
0.00145356
0.0014529
0.00079567
0.00144914
0.000807651
0.00144232
0.000819912
0.0014325
0.000832448
0.00141975
0.000845248
0.00140417
0.000858293
0.0013859
0.000871562
0.00136508
0.000885028
0.00134187
0.000898659
0.00131645
0.000912421
0.00128901
0.000926278
0.00125975
0.000940193
0.00122888
0.000954125
0.0011966
0.000968037
0.00116311
0.00098189
0.00112863
0.000995645
0.00109336
0.00100927
0.00105749
0.00102272
0.0010212
0.00103597
0.00098468
0.00104897
0.000948086
0.00106171
0.000911557
0.00107418
0.000875262
0.00108628
0.000839312
0.00109802
0.00080381
0.00110946
0.000768868
0.00112041
0.000734562
0.00113097
0.000700994
0.0011411
0.000668217
0.00115068
0.000636237
0.00115978
0.000605168
0.00116845
0.000575067
0.00117658
0.000545976
0.00118404
0.000517788
0.00119096
0.000490613
0.00119754
0.000464399
0.00120406
0.000439236
0.00120961
0.000415049
0.00121438
0.000391901
0.00121856
0.000369759
0.00122221
0.000348653
0.00122536
0.000328586
0.00122839
0.000308994
0.00123299
0.000291524
0.00123587
0.000320207
0.0012379
0.000321269
0.00124383
0.000321929
0.00124973
0.000321001
0.00125703
0.000304169
0.00126392
0.000340169
0.00126403
0.000323185
0.000891314
0.000303966
0.000671989
0.000334064
0.000664256
0.000350386
0.000686291
0.000361061
0.000708107
0.000366589
0.000726853
0.000369944
0.000742089
0.000369466
0.000752833
0.000368374
0.00076265
0.000365825
0.000771227
0.000362585
0.000776167
0.000359474
0.00078366
0.000357173
0.000786549
0.000355551
0.000791874
0.000352609
0.000796544
0.000351064
0.000799574
0.000348874
0.000810718
0.000346683
0.000818398
0.000346807
0.000824055
0.000346044
0.000828123
0.000344512
0.000830578
0.00034435
0.000830259
0.000345289
0.000829415
0.000346453
0.000827102
0.000347541
0.000825929
0.000348056
0.000826378
0.000350725
0.000823341
0.000355104
0.000818443
0.000358729
0.000810791
0.000361687
0.000803078
0.000364679
0.000800157
0.000368012
0.000796015
0.000371173
0.000787559
0.000374723
0.000786433
0.00037856
0.000773856
0.000382391
0.00076279
0.000385922
0.000755864
0.000390629
0.000735668
0.000391716
0.000722194
0.000393439
0.000698901
0.00039485
0.000689149
0.000395279
0.000660292
0.000397208
0.000636722
0.000398565
0.000599724
0.000407987
0.000562801
0.000416846
0.000532627
0.000424235
0.000509074
0.000429259
0.000491169
0.000431088
0.000475622
0.000430469
0.000462696
0.000428311
0.000452482
0.000424596
0.000445171
0.000420783
0.000439267
0.00041718
0.000433707
0.000414258
0.000428479
0.00041225
0.000424198
0.00041113
0.000420811
0.000410488
0.000417876
0.000410757
0.000415315
0.000411734
0.000413229
0.000413462
0.000411476
0.000416852
0.000410199
0.000421727
0.000409536
0.000429028
0.00041018
0.000436784
0.000411977
0.000446287
0.000415098
0.000454394
0.000419839
0.000465446
0.000425709
0.00145949
0.00145897
0.000807502
0.00145536
0.000821479
0.00144868
0.000835715
0.00143898
0.000850206
0.00142636
0.000864941
0.00141089
0.000879904
0.00139272
0.000895073
0.00137198
0.000910417
0.00134883
0.000925907
0.00132345
0.000941506
0.00129603
0.000957176
0.00126677
0.000972878
0.00123587
0.00098857
0.00120355
0.00100421
0.00116999
0.00101976
0.00113543
0.00103518
0.00110005
0.00105043
0.00106405
0.00106547
0.00102761
0.00108027
0.000990929
0.00109479
0.000954165
0.00110898
0.000917449
0.00112288
0.00088094
0.00113638
0.000844794
0.00114942
0.000809089
0.00116219
0.000773894
0.00117443
0.000739376
0.00118608
0.000705592
0.00119748
0.000672597
0.00120821
0.000640377
0.00121827
0.000609121
0.00122788
0.00057877
0.00123739
0.000549454
0.00124593
0.000521072
0.00125369
0.000493799
0.00126096
0.000467427
0.00126833
0.000442073
0.00127575
0.000417653
0.00128186
0.000394284
0.00128712
0.000372016
0.00129169
0.000350781
0.00129564
0.000330623
0.00129954
0.000311625
0.00130345
0.000292933
0.00131002
0.000326451
0.0013158
0.000328006
0.00132554
0.000329623
0.00133551
0.000330068
0.0013459
0.000317137
0.00135888
0.000348673
0.00137069
0.00033411
0.00121087
0.000317813
0.000758946
0.000352921
0.000721428
0.000370362
0.000753923
0.000379573
0.000776259
0.000383672
0.000794635
0.000383954
0.000807841
0.000382059
0.000816974
0.000378891
0.000823419
0.000374584
0.000828616
0.000371225
0.000829202
0.000366252
0.000836878
0.000363145
0.000840099
0.000360483
0.000841893
0.000356999
0.000855674
0.000355485
0.000862852
0.000352309
0.000874541
0.000349967
0.000880951
0.000349617
0.000884394
0.000348825
0.000885818
0.000347106
0.000888607
0.000345953
0.0008888
0.000346195
0.000887776
0.000347918
0.000882316
0.000349214
0.000877947
0.000350653
0.000875279
0.000354622
0.000871816
0.00035893
0.000865322
0.000362946
0.000855629
0.000365903
0.000843685
0.000369396
0.000836871
0.000372431
0.000830181
0.000374981
0.000817438
0.000377554
0.000810295
0.000381327
0.000790959
0.000385632
0.000776863
0.000387558
0.000762213
0.000390744
0.000729407
0.000392158
0.000718895
0.000392309
0.000690403
0.000393962
0.000666935
0.000394234
0.000633199
0.000400243
0.00059731
0.000410877
0.000564153
0.000420565
0.000537168
0.000427965
0.000516934
0.000433371
0.000500769
0.000436003
0.000486831
0.000436101
0.000474438
0.0004343
0.000464006
0.000431002
0.000455707
0.000426561
0.0004488
0.000422578
0.000442452
0.000419029
0.000436149
0.00041653
0.000430758
0.000415059
0.00042639
0.000414628
0.000422671
0.000414633
0.000419488
0.000415509
0.000416966
0.000417101
0.000414864
0.000419573
0.000413083
0.00042367
0.00041193
0.000428859
0.00041114
0.000436217
0.00041139
0.000444026
0.000412917
0.000453593
0.000415882
0.000462205
0.000420618
0.000472974
0.000426461
0.0014665
0.00146611
0.000820552
0.00146263
0.000836467
0.00145608
0.000852622
0.00144651
0.000869013
0.00143399
0.000885632
0.00141863
0.000902461
0.00140055
0.000919476
0.00137987
0.000936651
0.00135678
0.00095395
0.00133143
0.000971337
0.00130402
0.000988773
0.00127474
0.00100621
0.0012438
0.00102362
0.00121141
0.00104095
0.00117777
0.00105815
0.0011431
0.00107519
0.00110758
0.00109202
0.00107144
0.00110861
0.00103483
0.00112492
0.000997964
0.00114091
0.000960999
0.00115654
0.000924072
0.00117182
0.000887328
0.0011867
0.000850953
0.00120102
0.000815
0.00121503
0.000779563
0.0012285
0.000744799
0.00124133
0.00071074
0.00125382
0.000677492
0.00126575
0.000645052
0.00127689
0.00061359
0.00128751
0.00058295
0.00129805
0.000553327
0.00130773
0.000524742
0.00131663
0.000497291
0.00132481
0.000470855
0.00133273
0.000445348
0.0013409
0.00042067
0.00134897
0.000397047
0.00135584
0.000374433
0.00136174
0.00035304
0.00136703
0.000332739
0.00137123
0.000313557
0.00137616
0.000295282
0.00138154
0.000332352
0.00138762
0.000334795
0.00140238
0.000337697
0.00141661
0.000340964
0.00143317
0.000340435
0.00145196
0.000326969
0.00146737
0.000336694
0.00148194
0.000336294
0.000922236
0.000369436
0.000775322
0.000384894
0.000825661
0.000393343
0.000846031
0.000397086
0.000862197
0.000397637
0.000871963
0.00039513
0.000878684
0.000389484
0.000884464
0.00038228
0.000886514
0.000377997
0.00088433
0.000373155
0.000893501
0.000368289
0.000898238
0.000364822
0.000900932
0.000361544
0.000920871
0.00035911
0.000925916
0.000356463
0.000934176
0.000352549
0.000943002
0.000351441
0.000943519
0.000351844
0.000943362
0.000350904
0.000942728
0.000348648
0.000943266
0.000347755
0.000939611
0.000349406
0.000934801
0.000352562
0.000925983
0.000355595
0.000918586
0.000359029
0.000911031
0.000363077
0.000901901
0.000367563
0.000891083
0.000371109
0.000876937
0.000374501
0.000864374
0.000377044
0.000854072
0.000379086
0.000832465
0.00038062
0.00081816
0.000383064
0.000787072
0.000386477
0.000764369
0.000387798
0.000757729
0.000389925
0.000717669
0.00039188
0.000696703
0.000391006
0.000662294
0.000394673
0.000625083
0.000404124
0.000592269
0.000414986
0.000565892
0.000423581
0.000543427
0.000430882
0.000525657
0.000436419
0.000511073
0.0004398
0.000498405
0.000440984
0.000487135
0.000440071
0.000477267
0.000437549
0.000468562
0.000433603
0.000460668
0.000428831
0.00045343
0.000424902
0.000446338
0.000421468
0.000439717
0.000419374
0.000434218
0.000418402
0.000429536
0.000418167
0.00042544
0.00041859
0.000422049
0.000420087
0.000419417
0.000422388
0.000417146
0.000425547
0.000415359
0.000430312
0.000414209
0.000435647
0.000413164
0.00044288
0.000412987
0.000450833
0.000414191
0.000460481
0.00041702
0.000469488
0.00042169
0.000480068
0.000427409
0.00147457
0.00147429
0.000834833
0.00147094
0.000852625
0.00146451
0.000870638
0.00145506
0.000888871
0.00144265
0.000907315
0.00142738
0.000925953
0.00140937
0.000944761
0.00138876
0.00096371
0.0013657
0.000982765
0.00134037
0.00100189
0.00131295
0.00102104
0.00128365
0.00104017
0.00125265
0.00105924
0.00122018
0.0010782
0.00118643
0.00109701
0.00115163
0.00111562
0.00111597
0.00113399
0.00107965
0.00115209
0.00104286
0.00116986
0.00100577
0.00118729
0.000968583
0.0012043
0.000931425
0.00122092
0.000894429
0.00123711
0.00085778
0.00125274
0.000821553
0.0012679
0.000785857
0.00128263
0.00075081
0.00129668
0.000716467
0.00131016
0.000682899
0.0013232
0.00065024
0.00133561
0.000618469
0.0013473
0.000587604
0.00135835
0.000557703
0.0013691
0.000528864
0.0013795
0.000501084
0.00138888
0.000474408
0.00139752
0.000448664
0.00140557
0.000424002
0.00141374
0.000400239
0.00142345
0.000377425
0.00143125
0.000355603
0.00143799
0.000334794
0.00144387
0.000315311
0.00144878
0.000296807
0.00145373
0.000335996
0.00145983
0.000339244
0.00146999
0.000342084
0.00148607
0.000345472
0.00150267
0.00034865
0.00151513
0.000356157
0.00151738
0.000377953
0.00147882
0.000373489
0.00117273
0.000386807
0.000843422
0.000392735
0.000880563
0.000399553
0.000894682
0.000401648
0.000913713
0.000402616
0.000925394
0.000402471
0.000932824
0.000399134
0.000940751
0.0003913
0.00094442
0.000385226
0.000945654
0.000380098
0.000951938
0.00037351
0.000961813
0.00037012
0.000961647
0.000365275
0.00098153
0.000363649
0.000987814
0.000360963
0.000988595
0.000356599
0.000999467
0.000353735
0.000999296
0.000354116
0.000996552
0.000353927
0.000993127
0.000351927
0.000989296
0.00035105
0.000983957
0.000354566
0.000975241
0.000357597
0.000964521
0.000360014
0.000953544
0.000363794
0.000941079
0.000367976
0.000928856
0.000372514
0.000913579
0.000375903
0.000896161
0.000378649
0.00087464
0.000380558
0.000855326
0.000382511
0.000817873
0.00038355
0.000801724
0.000384446
0.000775589
0.000386235
0.000747928
0.000387235
0.000729171
0.000387827
0.000687326
0.000391648
0.000652064
0.000399416
0.000618669
0.000409021
0.000590826
0.000418443
0.000568723
0.000426579
0.00055057
0.000433228
0.000535008
0.000438674
0.000522034
0.000442579
0.000510304
0.000444562
0.000499848
0.000444723
0.000490681
0.000443429
0.000482238
0.000440596
0.000473855
0.000436093
0.000466012
0.000431442
0.000458342
0.000427321
0.00045071
0.000424211
0.000443987
0.000422575
0.000438322
0.000421754
0.000433263
0.00042179
0.000428856
0.000422678
0.000425324
0.000424794
0.000422479
0.000427651
0.000420109
0.000431424
0.000418287
0.000436651
0.000416854
0.000442065
0.000415496
0.000449243
0.000415052
0.000457379
0.000415893
0.000467071
0.000418546
0.000476346