/*--------------------------------*- C++ -*----------------------------------*\
| =========                 |                                                 |
| \\      /  F ield         | OpenFOAM: The Open Source CFD Toolbox           |
|  \\    /   O peration     | Version:  2.2.x                                 |
|   \\  /    A nd           | Web:      www.OpenFOAM.org                      |
|    \\/     M anipulation  |                                                 |
\*---------------------------------------------------------------------------*/
FoamFile
{
    version     2.0;
    format      ascii;
    class       volVectorField;
    location    "1.25";
    object      U;
}
// * * * * * * * * * * * * * * * * * * * * * * * * * * * * * * * * * * * * * //

dimensions      [0 1 -1 0 0 0 0];

internalField   nonuniform List<vector> 
14161
(
(1.50122 1.12268e-07 2.10556e-22)
(1.50119 -1.06247e-06 -4.02877e-23)
(1.50125 -1.84371e-07 6.43826e-22)
(1.50133 -1.48272e-07 -3.68105e-23)
(1.50144 -1.80763e-07 -1.35018e-22)
(1.50159 3.07505e-09 -3.59281e-22)
(1.50175 1.52738e-07 7.15569e-22)
(1.50194 -7.51362e-07 3.56745e-22)
(1.50218 3.676e-07 1.1187e-21)
(1.50243 1.15407e-06 3.5041e-22)
(1.50268 -1.86814e-06 4.07638e-22)
(1.50304 -7.07136e-07 7.39909e-23)
(1.50337 4.19684e-06 1.63856e-22)
(1.50367 -1.60505e-06 4.84757e-22)
(1.5041 -4.83064e-06 5.95641e-22)
(1.50456 6.22645e-06 1.28453e-21)
(1.50493 5.61383e-06 1.76407e-21)
(1.50526 -5.52608e-06 1.98462e-21)
(1.50592 -1.11238e-05 2.57327e-21)
(1.50636 2.27858e-05 2.46322e-21)
(1.50668 2.26003e-06 2.83852e-21)
(1.50698 -9.36012e-06 3.01564e-21)
(1.50787 -1.06482e-05 3.46822e-21)
(1.5085 -2.36876e-06 3.54547e-21)
(1.50878 2.41436e-05 3.62554e-21)
(1.50898 1.9337e-05 4.36873e-21)
(1.50901 -2.94149e-06 4.18818e-21)
(1.50933 -1.99249e-05 4.68882e-21)
(1.51044 -1.08736e-05 6.03236e-21)
(1.51074 7.36702e-06 6.55676e-21)
(1.51087 1.98382e-05 6.88303e-21)
(1.51095 1.83754e-05 7.17482e-21)
(1.51093 1.68445e-05 7.41336e-21)
(1.51075 1.47908e-05 7.59893e-21)
(1.51068 1.53812e-05 7.6946e-21)
(1.51063 1.57467e-05 7.14016e-21)
(1.51074 7.02533e-06 7.91009e-21)
(1.51036 1.35435e-05 6.18854e-21)
(1.50992 2.35377e-05 8.09084e-21)
(1.50974 3.5593e-05 6.71904e-21)
(1.50923 3.26122e-05 9.20778e-21)
(1.50848 6.60683e-05 6.88231e-21)
(1.50751 0.000152898 5.23734e-21)
(1.50606 0.00018882 8.30203e-21)
(1.50377 0.000249126 1.46334e-20)
(1.50147 0.000150088 -8.23287e-20)
(1.49878 0.000135559 2.03833e-19)
(1.49423 -4.15315e-05 -3.0643e-19)
(1.49267 0.00110404 6.35796e-19)
(1.42971 0.00499892 4.49503e-18)
(0.68728 0.01084 8.94884e-18)
(0.514172 0.0085163 7.1454e-18)
(0.49119 0.00146212 4.62129e-18)
(0.494506 -0.00457759 2.66758e-18)
(0.513611 -0.00745738 1.63671e-18)
(0.531904 -0.0120623 2.3537e-19)
(0.563194 -0.0130037 1.3323e-19)
(0.590823 -0.0124168 -1.3154e-19)
(0.61993 -0.0117162 -1.58995e-20)
(0.647741 -0.0106791 -9.62879e-20)
(0.673679 -0.00967847 -1.15845e-19)
(0.699359 -0.00840012 -1.4073e-19)
(0.723431 -0.00764594 -1.4482e-19)
(0.745609 -0.00683832 -2.33364e-19)
(0.767437 -0.00610871 -2.28918e-19)
(0.786779 -0.00514133 -1.8066e-19)
(0.805811 -0.00448494 -1.56938e-19)
(0.823295 -0.00375174 -2.95744e-19)
(0.83904 -0.00294691 -3.15202e-19)
(0.853471 -0.00234364 -1.96799e-19)
(0.865199 -0.00181474 -1.31481e-19)
(0.874475 -0.00137426 -2.38751e-19)
(0.880003 -0.00091222 -2.6995e-19)
(0.884082 -0.000955005 -1.88574e-19)
(0.887171 -0.00125794 -8.7724e-20)
(0.888371 -0.00145607 -2.78652e-20)
(0.882986 -0.00164174 2.27627e-20)
(0.892239 -0.00189632 4.05979e-20)
(0.894106 -0.00207367 1.10634e-19)
(0.895231 -0.00184803 1.80071e-19)
(0.885262 -0.00154589 2.72807e-19)
(0.898655 -0.00169624 2.60293e-19)
(0.901369 -0.00201025 3.32327e-19)
(0.902574 -0.00140183 3.68053e-19)
(0.901723 -0.00133593 5.62765e-19)
(0.911222 -0.0017118 5.5054e-19)
(0.913734 -0.00185481 7.64882e-19)
(0.916762 -0.0018778 1.02972e-18)
(0.918866 -0.00153953 1.24622e-18)
(0.919197 -0.00155354 1.4307e-18)
(0.927922 -0.0018885 1.39863e-18)
(0.930405 -0.00183983 1.51192e-18)
(0.932812 -0.0018478 1.84389e-18)
(0.939088 -0.00210822 1.83474e-18)
(0.945098 -0.00184822 2.09959e-18)
(0.948258 -0.00153373 2.26807e-18)
(0.959553 -0.00180659 2.47125e-18)
(0.964107 -0.000577869 2.61914e-18)
(0.967519 0.00108658 2.64322e-18)
(0.957508 0.00372953 2.71003e-18)
(0.94502 0.010168 2.47676e-18)
(0.857222 0.0229375 2.37499e-18)
(0.75919 0.0352508 1.13222e-18)
(0.630632 0.0448704 4.37377e-19)
(0.525599 0.0444397 5.2599e-20)
(0.445041 0.036765 -1.15442e-19)
(0.383225 0.0295483 -1.01838e-19)
(0.334214 0.024154 -1.76952e-19)
(0.293514 0.0204627 -8.24377e-20)
(0.259092 0.0178076 -1.98751e-19)
(0.228137 0.0161154 -9.38563e-20)
(0.200057 0.0150156 -2.72988e-19)
(0.172986 0.0145388 -6.21235e-20)
(0.14668 0.0138676 -2.43789e-19)
(0.120432 0.0141533 1.99048e-19)
(0.0943732 0.0138746 -1.59951e-19)
(0.0686902 0.0145635 9.96667e-19)
(0.0428572 0.0130247 1.05744e-18)
(0.0190423 0.0195472 2.95121e-18)
(1.50122 3.07776e-07 2.04144e-22)
(1.50119 -1.17144e-06 3.65843e-22)
(1.50125 -2.02647e-07 9.39674e-22)
(1.50133 -2.02556e-07 -1.80202e-22)
(1.50144 -4.19203e-07 -2.19014e-22)
(1.50159 -2.24995e-07 -2.10175e-22)
(1.50175 2.80326e-07 3.32535e-22)
(1.50194 -1.73357e-07 3.88393e-22)
(1.50218 7.36434e-07 9.99382e-22)
(1.50243 1.503e-06 3.70653e-22)
(1.50269 -6.64968e-07 4.44818e-22)
(1.50304 -1.61758e-07 -1.90516e-22)
(1.50337 7.12113e-06 3.74142e-22)
(1.50367 9.86514e-07 2.72998e-22)
(1.5041 -7.26949e-06 9.48306e-22)
(1.50455 8.82386e-06 1.91672e-21)
(1.50492 9.9869e-06 2.34954e-21)
(1.50527 -7.57253e-06 2.09016e-21)
(1.50592 -1.067e-05 2.55202e-21)
(1.50634 2.56966e-05 2.38302e-21)
(1.50667 7.55599e-06 2.73735e-21)
(1.50701 -8.04239e-06 2.68276e-21)
(1.50788 -2.24997e-05 3.13347e-21)
(1.5085 -6.52907e-06 3.34445e-21)
(1.50878 4.53591e-05 4.08619e-21)
(1.50897 4.08574e-05 4.2316e-21)
(1.50902 -3.39788e-06 3.98603e-21)
(1.50938 -3.88042e-05 4.85787e-21)
(1.51044 -2.45306e-05 5.98406e-21)
(1.51074 4.34313e-06 6.70751e-21)
(1.51088 3.56772e-05 6.56721e-21)
(1.51096 4.12599e-05 7.39324e-21)
(1.51094 5.47805e-05 7.30262e-21)
(1.51077 4.17348e-05 7.07947e-21)
(1.51072 2.81612e-05 6.99265e-21)
(1.5107 2.10707e-05 6.90358e-21)
(1.51081 1.30979e-05 7.14798e-21)
(1.51051 4.44014e-05 6.29389e-21)
(1.51009 4.27895e-05 7.43397e-21)
(1.50988 7.59879e-05 7.24211e-21)
(1.50929 0.000123533 7.28573e-21)
(1.50839 0.000178932 6.0163e-21)
(1.50725 0.00022992 7.97543e-21)
(1.50568 0.000274861 7.59388e-21)
(1.50353 0.000292558 1.0562e-20)
(1.50132 0.000259095 -1.04546e-20)
(1.49946 0.000236206 1.82859e-20)
(1.49493 0.000219814 -5.86896e-20)
(1.4927 0.00342055 5.9965e-19)
(1.42057 0.022305 5.36723e-18)
(0.68479 0.0341984 8.07811e-18)
(0.511194 0.0258273 7.09455e-18)
(0.489685 0.00259127 4.67636e-18)
(0.492523 -0.014577 1.95246e-18)
(0.515583 -0.0218137 7.50098e-19)
(0.534578 -0.0318057 -2.50868e-19)
(0.565125 -0.0344371 -1.61469e-19)
(0.591929 -0.0331169 -2.08883e-19)
(0.61956 -0.0309564 -1.45629e-19)
(0.646178 -0.0277609 -1.75972e-19)
(0.671547 -0.0252521 -1.67231e-19)
(0.697248 -0.0223381 -1.75125e-19)
(0.721682 -0.0199669 -1.61626e-19)
(0.744564 -0.0177029 -2.30972e-19)
(0.767025 -0.0149383 -2.32435e-19)
(0.787109 -0.012347 -1.95527e-19)
(0.806714 -0.0102001 -1.55004e-19)
(0.824197 -0.00879899 -2.74161e-19)
(0.839983 -0.00734364 -2.96522e-19)
(0.854607 -0.00583862 -2.24026e-19)
(0.866359 -0.00477856 -1.31652e-19)
(0.875756 -0.00412876 -2.2195e-19)
(0.881886 -0.00318055 -2.5131e-19)
(0.886511 -0.00250482 -2.0396e-19)
(0.88981 -0.00208432 -7.36386e-20)
(0.891144 -0.00176126 -3.00071e-20)
(0.885567 -0.00175864 2.46166e-20)
(0.894959 -0.0023982 4.77484e-20)
(0.896514 -0.00249966 1.04801e-19)
(0.897151 -0.00196771 1.83835e-19)
(0.887556 -0.00140717 2.65564e-19)
(0.900889 -0.00225137 2.72667e-19)
(0.903494 -0.00241079 3.21122e-19)
(0.904264 -0.00151591 3.90164e-19)
(0.903717 -0.00141817 5.44813e-19)
(0.913394 -0.00235287 5.65981e-19)
(0.916182 -0.00273637 7.85104e-19)
(0.918898 -0.00250439 9.90624e-19)
(0.920849 -0.00183754 1.27501e-18)
(0.921318 -0.0019425 1.42924e-18)
(0.930297 -0.00299555 1.41853e-18)
(0.932838 -0.00273375 1.54804e-18)
(0.935383 -0.00224149 1.85638e-18)
(0.941357 -0.0033076 1.87705e-18)
(0.947094 -0.0029233 2.15278e-18)
(0.94954 -0.00287342 2.29605e-18)
(0.959047 -0.00254618 2.48437e-18)
(0.960628 -0.00197912 2.6673e-18)
(0.963372 0.00256444 2.69916e-18)
(0.939119 0.0060779 2.81406e-18)
(0.90914 0.0178288 2.51974e-18)
(0.805382 0.0491827 2.23961e-18)
(0.688984 0.0757207 1.03665e-18)
(0.567281 0.094657 3.75246e-19)
(0.47209 0.0857106 5.39334e-20)
(0.403817 0.070126 -9.95086e-20)
(0.350343 0.0581472 -8.10135e-20)
(0.30718 0.0494568 -1.67292e-19)
(0.270572 0.0434816 -8.47364e-20)
(0.239165 0.03919 -2.24926e-19)
(0.21042 0.0370348 -1.1821e-19)
(0.184029 0.0353371 -3.10692e-19)
(0.158712 0.0356741 -1.0881e-19)
(0.134416 0.0354527 -2.96877e-19)
(0.11028 0.0372846 1.79367e-19)
(0.0861596 0.0368696 -8.06009e-20)
(0.062427 0.0393249 1.09188e-18)
(0.0377525 0.0381966 1.17141e-18)
(0.0152049 0.0468137 2.33075e-18)
(1.50122 3.83716e-07 3.13603e-22)
(1.50119 -1.78954e-06 -3.37976e-22)
(1.50125 -6.42917e-07 4.68992e-22)
(1.50133 -4.7662e-07 8.93621e-23)
(1.50144 -8.18083e-07 -5.83254e-23)
(1.50159 -6.16649e-07 -1.59455e-22)
(1.50175 9.51938e-07 2.5236e-22)
(1.50194 -2.91977e-07 2.61691e-22)
(1.50218 6.7987e-07 7.84868e-22)
(1.50242 7.27468e-07 2.50099e-22)
(1.50269 -1.98278e-06 5.34719e-22)
(1.50303 4.85258e-08 -1.32931e-21)
(1.50336 9.73677e-06 2.66111e-22)
(1.50368 -1.80284e-07 9.64547e-22)
(1.50411 -9.11354e-06 2.25845e-21)
(1.50453 1.29841e-05 2.68597e-21)
(1.50492 1.65687e-05 3.38007e-21)
(1.5053 -1.43232e-05 3.07682e-21)
(1.50589 -1.98832e-05 3.34019e-21)
(1.50632 2.76033e-05 3.35228e-21)
(1.50668 2.1351e-05 2.47283e-21)
(1.50706 -9.18848e-06 1.72525e-21)
(1.50787 -5.3567e-05 3.77746e-21)
(1.50846 -1.03055e-05 3.03946e-21)
(1.50875 6.80006e-05 3.08396e-21)
(1.50894 5.90882e-05 3.94964e-21)
(1.50905 -4.65072e-07 4.20967e-21)
(1.50949 -6.03212e-05 5.76044e-21)
(1.5104 -5.82539e-05 6.88854e-21)
(1.51072 1.29586e-05 7.56046e-21)
(1.51088 6.89005e-05 6.91017e-21)
(1.51096 8.60072e-05 7.05385e-21)
(1.51095 8.79892e-05 6.54877e-21)
(1.51085 8.35223e-05 6.72004e-21)
(1.51082 6.43073e-05 6.11239e-21)
(1.51081 5.01386e-05 6.29635e-21)
(1.51092 3.64689e-05 6.2697e-21)
(1.51066 9.68903e-05 6.20966e-21)
(1.5103 0.000142452 5.79234e-21)
(1.51007 0.00019674 6.2752e-21)
(1.50958 0.000246214 6.16258e-21)
(1.50884 0.000338799 5.08473e-21)
(1.50779 0.000344939 6.99626e-21)
(1.50619 0.000391655 6.50904e-21)
(1.50411 0.000482169 5.30015e-21)
(1.50212 0.000602533 8.80796e-21)
(1.50019 0.00060015 3.44784e-21)
(1.49608 0.000838217 1.93484e-20)
(1.49494 0.006159 6.75359e-19)
(1.42716 0.0420545 5.35936e-18)
(0.687126 0.065724 7.88594e-18)
(0.507955 0.0418286 6.66536e-18)
(0.49196 0.00398707 4.69458e-18)
(0.492416 -0.0257333 2.26043e-18)
(0.520362 -0.0415328 1.11407e-18)
(0.541994 -0.0557037 -1.84595e-21)
(0.574577 -0.0593808 -2.75592e-20)
(0.603524 -0.0556347 -1.64651e-19)
(0.631749 -0.0518506 -1.30409e-19)
(0.658614 -0.0468982 -1.73425e-19)
(0.684136 -0.0434794 -1.83341e-19)
(0.709569 -0.0392921 -1.72266e-19)
(0.733836 -0.0354938 -1.49544e-19)
(0.755762 -0.0315945 -2.00821e-19)
(0.777591 -0.0268849 -2.07876e-19)
(0.796888 -0.0229505 -2.14326e-19)
(0.815839 -0.0192388 -1.69872e-19)
(0.832333 -0.0167619 -2.53912e-19)
(0.847087 -0.014042 -2.94109e-19)
(0.861276 -0.0114128 -2.62678e-19)
(0.872537 -0.00896589 -1.65447e-19)
(0.881722 -0.00713668 -2.15781e-19)
(0.887352 -0.00566567 -2.36908e-19)
(0.89206 -0.00501834 -2.02183e-19)
(0.895228 -0.00505183 -8.27944e-20)
(0.896733 -0.00458842 -3.09437e-20)
(0.891447 -0.0045908 2.87137e-20)
(0.900727 -0.00597109 5.18485e-20)
(0.902076 -0.00608868 1.09841e-19)
(0.902365 -0.00508608 1.93342e-19)
(0.893582 -0.00422845 2.51419e-19)
(0.905737 -0.00594321 2.70363e-19)
(0.908282 -0.0058456 3.34313e-19)
(0.909268 -0.00449497 4.18297e-19)
(0.909003 -0.00434354 5.24652e-19)
(0.91795 -0.0058956 5.80869e-19)
(0.920798 -0.00660847 8.04291e-19)
(0.923271 -0.00594471 9.82987e-19)
(0.925187 -0.00483327 1.29379e-18)
(0.925787 -0.00514173 1.42684e-18)
(0.934361 -0.00694696 1.43252e-18)
(0.937071 -0.00646805 1.63788e-18)
(0.939977 -0.00537014 1.8468e-18)
(0.94461 -0.00679677 1.98144e-18)
(0.948745 -0.00577008 2.15203e-18)
(0.949753 -0.00498301 2.37085e-18)
(0.956467 -0.00430447 2.50726e-18)
(0.950281 -0.0020102 2.68392e-18)
(0.944985 0.00672488 2.69947e-18)
(0.900697 0.0234524 2.78059e-18)
(0.830844 0.0487946 2.33872e-18)
(0.71788 0.112493 1.8721e-18)
(0.597938 0.152619 9.54077e-19)
(0.495567 0.162999 3.68392e-19)
(0.423272 0.144171 7.1559e-20)
(0.369377 0.118213 -7.69735e-20)
(0.323706 0.0980626 -4.73125e-20)
(0.285422 0.0832444 -1.66437e-19)
(0.25194 0.0730304 -7.15263e-20)
(0.22249 0.065543 -2.1793e-19)
(0.195337 0.0614014 -1.31261e-19)
(0.170975 0.0585413 -3.53714e-19)
(0.147534 0.0586614 -1.6649e-19)
(0.125003 0.0579687 -3.31833e-19)
(0.102771 0.0607115 8.12493e-20)
(0.0802742 0.0601789 -1.46733e-20)
(0.0582914 0.0639649 9.69206e-19)
(0.0352219 0.0627698 1.10535e-18)
(0.0149771 0.0733777 1.88077e-18)
(1.50122 4.20697e-07 -2.9667e-22)
(1.50119 -2.25192e-06 7.21373e-22)
(1.50125 -8.70261e-07 7.38446e-22)
(1.50133 -1.01575e-06 5.52593e-22)
(1.50144 -7.3572e-07 -9.4781e-22)
(1.50158 -1.40731e-06 -2.65439e-22)
(1.50175 4.32164e-07 2.56048e-22)
(1.50195 -2.14072e-09 -7.16486e-23)
(1.50218 8.64187e-07 4.49967e-22)
(1.50241 2.0942e-06 -4.89765e-22)
(1.50271 -1.01341e-06 -1.69647e-21)
(1.50302 1.64677e-06 -1.12356e-21)
(1.50334 8.62567e-06 3.50048e-22)
(1.5037 -1.46204e-07 1.24238e-21)
(1.50411 -9.79318e-06 3.27275e-21)
(1.5045 1.81286e-05 3.51435e-21)
(1.50491 1.76476e-05 4.33383e-21)
(1.50535 -1.56823e-05 4.26161e-21)
(1.50585 -1.6101e-05 1.38378e-21)
(1.50628 3.48741e-05 6.1799e-21)
(1.50669 4.3392e-05 6.63657e-21)
(1.50712 -1.33721e-05 7.45255e-21)
(1.50786 -7.14121e-05 5.23838e-21)
(1.50838 -6.51691e-06 6.56498e-21)
(1.5087 8.80573e-05 6.14882e-21)
(1.50892 8.05676e-05 4.56041e-21)
(1.50921 9.43839e-06 6.90108e-21)
(1.50968 -6.64018e-05 9.25335e-21)
(1.51034 -7.73076e-05 9.29317e-21)
(1.51067 3.14987e-06 7.37902e-21)
(1.51086 9.35387e-05 7.08432e-21)
(1.51096 0.0001223 6.5682e-21)
(1.51101 0.000123488 5.97815e-21)
(1.511 9.11504e-05 5.45283e-21)
(1.51102 6.83476e-05 5.14516e-21)
(1.51108 5.78095e-05 5.46866e-21)
(1.51115 5.51429e-05 4.69497e-21)
(1.51096 0.00012874 5.08805e-21)
(1.51072 0.0001948 4.7976e-21)
(1.51042 0.000233468 4.44845e-21)
(1.51011 0.000296608 4.21439e-21)
(1.50948 0.000386017 4.15124e-21)
(1.5086 0.000452866 3.28149e-21)
(1.50657 0.00068071 4.88276e-21)
(1.50497 0.000735539 1.71117e-21)
(1.50315 0.000958738 5.64884e-21)
(1.50136 0.000936869 -1.8743e-21)
(1.49668 0.00155954 3.17323e-20)
(1.49538 0.00781231 5.80291e-19)
(1.44076 0.0585846 4.46537e-18)
(0.69314 0.107159 8.24564e-18)
(0.508482 0.0600417 6.9013e-18)
(0.495584 0.00238379 4.88632e-18)
(0.5032 -0.0405807 2.55551e-18)
(0.535514 -0.0668312 1.48848e-18)
(0.560963 -0.0823059 2.74424e-19)
(0.594234 -0.0885915 1.47411e-19)
(0.623989 -0.0828777 -3.61161e-20)
(0.655023 -0.07617 -8.77427e-20)
(0.68277 -0.0671474 -1.5094e-19)
(0.709378 -0.0612541 -1.83729e-19)
(0.733188 -0.0539339 -1.94996e-19)
(0.757021 -0.047536 -1.57743e-19)
(0.777298 -0.0412443 -1.26524e-19)
(0.797468 -0.0342261 -1.42159e-19)
(0.815108 -0.0294415 -2.03809e-19)
(0.832569 -0.0243497 -2.12635e-19)
(0.847879 -0.0209228 -2.66874e-19)
(0.860866 -0.0168806 -3.30458e-19)
(0.874534 -0.0135508 -3.60299e-19)
(0.88494 -0.0104676 -2.67724e-19)
(0.893811 -0.00855006 -2.59159e-19)
(0.899015 -0.00732315 -2.39371e-19)
(0.903762 -0.00670799 -2.06058e-19)
(0.906761 -0.0065068 -1.11724e-19)
(0.908201 -0.00548839 -3.40278e-20)
(0.903212 -0.00517263 3.33053e-20)
(0.912008 -0.00680502 6.74853e-20)
(0.913179 -0.006585 1.1434e-19)
(0.912599 -0.00495772 1.88189e-19)
(0.905543 -0.00363886 2.39596e-19)
(0.915453 -0.00583261 2.76561e-19)
(0.91782 -0.00561868 3.66781e-19)
(0.919585 -0.00403943 4.4343e-19)
(0.919275 -0.00401075 5.19311e-19)
(0.927098 -0.00598444 6.19912e-19)
(0.929923 -0.00669251 8.08752e-19)
(0.931994 -0.00598194 9.97625e-19)
(0.933757 -0.0052498 1.33766e-18)
(0.934348 -0.00569791 1.42765e-18)
(0.942213 -0.00747651 1.5193e-18)
(0.944344 -0.0071215 1.72922e-18)
(0.946479 -0.0056528 1.90866e-18)
(0.948098 -0.00665112 2.02145e-18)
(0.951191 -0.00543853 2.15151e-18)
(0.947997 -0.00523003 2.50967e-18)
(0.948139 -0.00225323 2.58924e-18)
(0.926552 0.00490329 2.7346e-18)
(0.897892 0.0206999 2.6586e-18)
(0.816554 0.0537441 2.60289e-18)
(0.702922 0.102497 1.97673e-18)
(0.588369 0.171255 1.3816e-18)
(0.491979 0.203653 8.03211e-19)
(0.426152 0.207835 3.53078e-19)
(0.37685 0.182241 1.0908e-19)
(0.334746 0.1518 7.31485e-21)
(0.297649 0.128577 1.19245e-20)
(0.264925 0.110804 -8.63393e-20)
(0.235276 0.0983033 -1.0812e-19)
(0.208748 0.0893896 -1.72031e-19)
(0.183838 0.0840704 -2.00184e-19)
(0.160904 0.0797622 -3.19277e-19)
(0.138642 0.079719 -2.50026e-19)
(0.117312 0.0785495 -3.81167e-19)
(0.0965836 0.0820143 -4.31543e-20)
(0.0755467 0.0814871 -2.34951e-19)
(0.0554768 0.0864806 6.67383e-19)
(0.0341001 0.0854008 7.31676e-19)
(0.0164061 0.0969536 1.09518e-18)
(1.50122 3.454e-07 -1.89794e-22)
(1.50119 -2.62293e-06 1.76604e-21)
(1.50125 -1.28133e-06 -7.66544e-22)
(1.50133 -1.15145e-06 5.78064e-22)
(1.50144 -5.19563e-07 -4.73154e-22)
(1.50158 -6.94057e-07 1.98722e-21)
(1.50175 2.59774e-07 2.68293e-22)
(1.50196 -4.54408e-07 -1.68203e-22)
(1.50217 1.1641e-06 4.27558e-22)
(1.50241 4.00675e-06 -1.16693e-21)
(1.50271 -2.94945e-06 -5.20927e-21)
(1.50301 2.89782e-06 8.56088e-22)
(1.50333 1.04128e-05 1.09926e-21)
(1.50372 -1.63251e-06 2.14569e-21)
(1.50411 -7.85127e-06 4.98748e-22)
(1.50447 1.87047e-05 2.27113e-21)
(1.50493 2.0955e-05 6.69722e-21)
(1.50538 -1.86659e-05 7.08122e-21)
(1.50582 -1.06936e-05 5.85006e-21)
(1.50623 3.75169e-05 1.70189e-21)
(1.5067 4.43243e-05 3.73202e-21)
(1.5072 -2.60434e-05 4.43667e-21)
(1.5078 -8.43113e-05 2.42078e-21)
(1.50825 -3.82438e-06 3.72934e-21)
(1.50861 9.5064e-05 6.45339e-21)
(1.50902 0.000110787 8.08384e-21)
(1.50946 1.88341e-05 7.22208e-21)
(1.5099 -8.44957e-05 6.05382e-21)
(1.51026 -8.51281e-05 6.46766e-21)
(1.51053 -1.80779e-05 9.16573e-21)
(1.51074 0.000106984 6.62592e-21)
(1.51091 0.00014476 4.90008e-21)
(1.51118 0.000162332 4.77235e-21)
(1.51133 0.000119208 3.53297e-21)
(1.51141 9.038e-05 1.45768e-21)
(1.51152 6.73176e-05 3.57765e-21)
(1.51151 6.48514e-05 3.40204e-21)
(1.51143 0.000119891 2.30002e-21)
(1.51128 0.00020181 2.66387e-21)
(1.51109 0.000281964 2.10538e-21)
(1.51077 0.000327492 8.38274e-22)
(1.51024 0.000485732 1.46295e-21)
(1.50954 0.000671367 1.57157e-21)
(1.50834 0.00102085 5.05353e-22)
(1.50708 0.00111389 -1.91442e-21)
(1.50602 0.00132474 3.32313e-21)
(1.50475 0.00144808 -1.58918e-21)
(1.50094 0.00236649 2.83807e-20)
(1.49971 0.00788209 4.02945e-19)
(1.4754 0.0602737 3.96494e-18)
(0.736016 0.155486 9.00304e-18)
(0.520509 0.0759159 7.62605e-18)
(0.501851 -0.00681591 5.4481e-18)
(0.534764 -0.0623348 2.85289e-18)
(0.559704 -0.0995201 1.82251e-18)
(0.597335 -0.111812 7.59928e-19)
(0.629971 -0.116926 4.62504e-19)
(0.658633 -0.110112 2.4001e-19)
(0.689017 -0.1019 5.68607e-20)
(0.716256 -0.0887549 -6.91621e-20)
(0.74447 -0.0803942 -1.55687e-19)
(0.765275 -0.0687618 -1.72739e-19)
(0.789204 -0.0601443 -1.53367e-19)
(0.808136 -0.0514219 -9.78383e-20)
(0.828271 -0.042664 -4.79297e-20)
(0.843988 -0.0365493 -1.19029e-19)
(0.86123 -0.0301553 -1.9066e-19)
(0.875195 -0.0258143 -2.73216e-19)
(0.886483 -0.0202593 -3.75229e-19)
(0.898887 -0.0171353 -4.5e-19)
(0.907737 -0.0137408 -3.8574e-19)
(0.915878 -0.0110842 -3.57974e-19)
(0.920595 -0.00933728 -2.80111e-19)
(0.924774 -0.00888826 -2.1567e-19)
(0.92683 -0.00922706 -1.31802e-19)
(0.928224 -0.00851914 -2.15444e-20)
(0.923341 -0.0084619 4.58676e-20)
(0.929981 -0.0107537 9.26421e-20)
(0.930824 -0.0106768 1.35594e-19)
(0.929856 -0.00867744 2.01722e-19)
(0.924674 -0.0073976 2.38731e-19)
(0.931488 -0.00949183 3.029e-19)
(0.93374 -0.00909367 4.05986e-19)
(0.9361 -0.00742089 4.57844e-19)
(0.935393 -0.00747205 5.47701e-19)
(0.941622 -0.00952099 6.23028e-19)
(0.944098 -0.0100376 8.57118e-19)
(0.946026 -0.00924918 1.04422e-18)
(0.947143 -0.00799854 1.33622e-18)
(0.946917 -0.00814824 1.4143e-18)
(0.952731 -0.00908489 1.59089e-18)
(0.95341 -0.0088848 1.79083e-18)
(0.954832 -0.00735839 1.94296e-18)
(0.95123 -0.00877547 2.06064e-18)
(0.952176 -0.00670009 2.23133e-18)
(0.93883 -0.00303583 2.54274e-18)
(0.923892 0.00598193 2.62441e-18)
(0.879724 0.0268873 2.7192e-18)
(0.79958 0.0542872 2.48238e-18)
(0.688067 0.118038 2.1304e-18)
(0.56743 0.181409 1.53728e-18)
(0.475644 0.230199 1.01974e-18)
(0.415954 0.249133 6.89807e-19)
(0.370468 0.239874 3.17367e-19)
(0.337487 0.211242 1.92931e-19)
(0.30527 0.179291 1.23469e-19)
(0.274529 0.153618 9.62326e-20)
(0.246763 0.134787 3.85844e-20)
(0.221063 0.121036 -4.64749e-20)
(0.197112 0.110789 -1.48498e-19)
(0.174202 0.104663 -7.3994e-20)
(0.152943 0.100018 -3.3202e-19)
(0.132104 0.0999986 -1.39741e-19)
(0.111881 0.0983442 -3.54785e-19)
(0.0924835 0.102232 -9.45616e-20)
(0.0726633 0.101614 -3.35493e-19)
(0.0542289 0.107414 3.25858e-19)
(0.0342267 0.106587 4.18496e-19)
(0.0186718 0.118768 6.29216e-19)
(1.50122 4.65847e-07 1.03618e-21)
(1.50119 -2.92234e-06 -4.88927e-22)
(1.50125 -1.95671e-06 9.69173e-22)
(1.50133 -1.66796e-06 -3.42032e-21)
(1.50144 -8.70687e-07 -2.0917e-21)
(1.50158 -3.85379e-07 -4.6226e-21)
(1.50175 -3.95697e-07 -1.29707e-21)
(1.50196 -9.30608e-07 2.71455e-21)
(1.50216 1.60188e-06 -4.48845e-21)
(1.50241 2.59846e-06 -2.1968e-21)
(1.50272 -3.22445e-06 2.59929e-21)
(1.503 5.85577e-06 -5.10337e-21)
(1.50332 1.00557e-05 -1.13756e-21)
(1.50373 -3.99178e-06 3.02169e-21)
(1.5041 -1.11515e-06 9.89318e-22)
(1.50444 1.80595e-05 2.83301e-21)
(1.50495 1.65879e-05 4.31873e-23)
(1.5054 -2.276e-05 8.55819e-21)
(1.50579 -1.00097e-05 1.5382e-21)
(1.50618 4.11126e-05 2.0405e-21)
(1.50675 4.8855e-05 3.92185e-21)
(1.50729 -3.07926e-05 3.91463e-21)
(1.50772 -6.85644e-05 7.41788e-21)
(1.50811 1.99115e-05 6.02191e-21)
(1.50851 8.98283e-05 5.97092e-21)
(1.5092 9.05787e-05 6.26023e-21)
(1.50968 8.35036e-06 4.97932e-21)
(1.51001 -7.77256e-05 5.00449e-21)
(1.51024 -7.38689e-05 4.72673e-21)
(1.51038 4.27271e-05 2.26268e-21)
(1.51058 0.000145672 1.38247e-21)
(1.51088 0.000184534 -6.23879e-23)
(1.51153 0.000163252 1.91124e-22)
(1.51176 0.000115921 -2.80325e-22)
(1.51186 9.49323e-05 -7.58378e-22)
(1.51194 7.82248e-05 -5.66179e-22)
(1.51196 9.17737e-05 -9.82061e-22)
(1.51192 0.000126898 -1.09116e-21)
(1.51185 0.00021388 -2.22963e-21)
(1.51177 0.000292489 -2.73485e-21)
(1.51162 0.000422984 -2.86312e-21)
(1.51131 0.000534985 -2.1567e-21)
(1.51108 0.000851339 -2.72776e-21)
(1.51099 0.00114079 -2.49551e-21)
(1.51047 0.00133994 -4.00779e-21)
(1.51009 0.00156395 -4.04179e-21)
(1.50946 0.00187962 -1.20608e-20)
(1.5072 0.00307264 -3.14521e-21)
(1.50607 0.00886503 3.28752e-19)
(1.48727 0.0665219 4.08401e-18)
(0.824693 0.20502 9.63438e-18)
(0.544127 0.0857017 8.51107e-18)
(0.519614 -0.0236076 6.30691e-18)
(0.581186 -0.0928576 3.85433e-18)
(0.604826 -0.134803 2.6771e-18)
(0.647743 -0.149135 1.83951e-18)
(0.682459 -0.148776 1.02605e-18)
(0.710978 -0.138301 7.07201e-19)
(0.740038 -0.126292 4.18381e-19)
(0.766148 -0.108721 1.94689e-19)
(0.793206 -0.0969193 1.39269e-20)
(0.809972 -0.0819397 -7.12083e-20)
(0.834032 -0.0715444 -8.19044e-20)
(0.84847 -0.0602864 -7.29067e-20)
(0.869567 -0.0504627 -2.20669e-20)
(0.880279 -0.0417177 -4.10578e-20)
(0.899853 -0.0332297 -1.05196e-19)
(0.909796 -0.0272921 -2.09571e-19)
(0.920695 -0.0216378 -3.49703e-19)
(0.930693 -0.0178566 -4.63576e-19)
(0.937446 -0.0136924 -4.64776e-19)
(0.944194 -0.0117676 -4.52169e-19)
(0.948059 -0.0101062 -3.61981e-19)
(0.95093 -0.00990699 -2.47286e-19)
(0.952088 -0.0101774 -1.26306e-19)
(0.953356 -0.0097607 -8.72226e-21)
(0.948782 -0.00939054 5.62601e-20)
(0.952559 -0.0113646 8.65428e-20)
(0.952933 -0.0113781 1.5053e-19)
(0.952529 -0.00951792 2.25319e-19)
(0.948031 -0.00789123 2.4848e-19)
(0.951602 -0.00906036 3.23025e-19)
(0.953658 -0.00875429 4.31631e-19)
(0.956072 -0.00796571 5.25091e-19)
(0.954621 -0.00756218 6.08055e-19)
(0.958749 -0.00932681 6.34438e-19)
(0.960346 -0.00995738 8.89364e-19)
(0.961992 -0.00892995 1.08253e-18)
(0.961591 -0.00952982 1.23475e-18)
(0.959445 -0.00964979 1.40433e-18)
(0.962447 -0.00920113 1.59809e-18)
(0.958863 -0.00937441 1.78603e-18)
(0.960065 -0.00731552 1.92033e-18)
(0.947349 -0.00733048 2.13463e-18)
(0.938355 -0.00179539 2.28301e-18)
(0.908242 0.0115879 2.51947e-18)
(0.859332 0.0285038 2.53417e-18)
(0.777887 0.0677859 2.44956e-18)
(0.66171 0.128887 2.0242e-18)
(0.546775 0.198961 1.52371e-18)
(0.456341 0.248088 1.11127e-18)
(0.401128 0.274297 7.54931e-19)
(0.36191 0.280006 5.34549e-19)
(0.33039 0.263035 3.01635e-19)
(0.306459 0.232086 2.48429e-19)
(0.279896 0.200695 2.20215e-19)
(0.254887 0.174776 1.9829e-19)
(0.230972 0.155113 1.46582e-19)
(0.208348 0.140815 1.79893e-19)
(0.186743 0.130486 -8.03562e-20)
(0.165804 0.123907 1.03162e-19)
(0.146036 0.118806 -2.7331e-19)
(0.1266 0.11899 -1.6355e-19)
(0.107543 0.117056 -2.08907e-19)
(0.0894608 0.12127 -1.35139e-19)
(0.0708564 0.1206 -1.43958e-19)
(0.053975 0.127008 8.1427e-20)
(0.0352359 0.126657 1.33755e-19)
(0.0216378 0.139247 2.25316e-19)
(1.50122 5.22751e-07 1.44362e-21)
(1.50118 -3.08465e-06 -1.05619e-21)
(1.50125 -2.54661e-06 2.26046e-22)
(1.50133 -2.17409e-06 -4.93081e-21)
(1.50144 -1.04332e-06 3.84239e-21)
(1.50157 -2.0464e-07 3.63052e-21)
(1.50175 -3.25933e-07 -3.33194e-22)
(1.50195 3.84919e-07 4.42342e-21)
(1.50215 2.25731e-06 -1.50496e-21)
(1.50242 9.60843e-07 -1.38543e-21)
(1.50272 -7.70209e-07 2.63834e-22)
(1.50299 4.76177e-06 5.36833e-21)
(1.50333 5.98264e-06 7.18477e-21)
(1.50374 -2.68291e-06 -7.078e-22)
(1.50409 7.41289e-06 -1.14911e-21)
(1.50441 2.11935e-05 1.68044e-21)
(1.50496 1.22677e-05 7.82754e-21)
(1.50541 -1.69223e-05 4.38804e-21)
(1.50577 6.66432e-06 4.85177e-21)
(1.50613 3.9092e-05 8.46986e-21)
(1.50682 3.69139e-05 4.6805e-21)
(1.50734 -3.35833e-05 4.66692e-21)
(1.50771 -4.85408e-05 5.23065e-21)
(1.508 2.35506e-05 4.34251e-21)
(1.50842 8.35029e-05 -2.4107e-21)
(1.50933 6.44509e-05 -1.81237e-21)
(1.50981 2.41302e-06 -9.1374e-22)
(1.51007 -4.35233e-05 2.4041e-21)
(1.51027 -6.56772e-05 1.30915e-21)
(1.51035 4.53596e-05 -3.16787e-21)
(1.51048 0.000120278 -2.14018e-21)
(1.51096 0.000168459 -1.96569e-21)
(1.51189 0.000135043 -1.94759e-21)
(1.51212 0.000107004 -1.48742e-21)
(1.51227 9.32853e-05 -3.52059e-21)
(1.51237 0.00010537 -5.13509e-21)
(1.51242 0.000132992 -5.84796e-21)
(1.51243 0.000156069 -5.78813e-21)
(1.51243 0.000217441 -6.18214e-21)
(1.51242 0.000275916 -6.77212e-21)
(1.51242 0.00040688 -7.94041e-21)
(1.51253 0.000545622 -9.77776e-21)
(1.5132 0.000878783 -9.37124e-21)
(1.51412 0.000973897 -8.91576e-21)
(1.51468 0.00109489 -9.15535e-21)
(1.51537 0.00145062 -8.64889e-21)
(1.51604 0.0017226 -1.47269e-20)
(1.51738 0.0034516 -1.02477e-20)
(1.51784 0.0084433 2.934e-19)
(1.50353 0.0705357 4.33522e-18)
(1.02539 0.238104 1.053e-17)
(0.573371 0.0884419 1.14103e-17)
(0.547715 -0.0569808 8.6313e-18)
(0.643179 -0.133643 5.52312e-18)
(0.678189 -0.169527 4.47409e-18)
(0.718628 -0.180328 3.2481e-18)
(0.750692 -0.17304 1.88177e-18)
(0.773578 -0.157937 1.31462e-18)
(0.797922 -0.141943 8.11036e-19)
(0.819591 -0.123054 4.54112e-19)
(0.843137 -0.107853 1.79919e-19)
(0.85374 -0.0908648 4.08034e-20)
(0.877736 -0.078027 -3.27056e-20)
(0.883444 -0.0643213 -8.53714e-20)
(0.908025 -0.0528887 -7.88832e-20)
(0.911454 -0.0425707 -1.30681e-19)
(0.932857 -0.034338 -1.2771e-19)
(0.939422 -0.0261996 -2.07675e-19)
(0.947599 -0.0218776 -3.05203e-19)
(0.956107 -0.0173254 -3.75516e-19)
(0.961599 -0.0147143 -4.26664e-19)
(0.966858 -0.0130521 -4.79292e-19)
(0.970166 -0.0115263 -3.4769e-19)
(0.972007 -0.0116358 -2.59365e-19)
(0.972215 -0.0122317 -1.5512e-19)
(0.973564 -0.0123502 -3.96162e-20)
(0.969142 -0.0120068 1.93714e-20)
(0.971185 -0.0136971 7.6244e-20)
(0.971509 -0.0137167 1.28711e-19)
(0.971452 -0.0123466 1.92794e-19)
(0.966913 -0.0101607 2.48038e-19)
(0.968543 -0.0104032 2.75835e-19)
(0.970017 -0.0101252 3.71562e-19)
(0.970957 -0.00963231 5.27291e-19)
(0.969359 -0.00875355 6.02489e-19)
(0.971173 -0.00975633 6.98836e-19)
(0.97099 -0.0107241 7.91054e-19)
(0.972949 -0.0100728 1.03902e-18)
(0.968711 -0.0101663 1.28182e-18)
(0.964611 -0.00950254 1.40665e-18)
(0.965725 -0.00804655 1.54041e-18)
(0.952317 -0.00872693 1.78748e-18)
(0.948179 -0.00421244 1.91813e-18)
(0.922486 0.00413208 2.19775e-18)
(0.891707 0.0166572 2.25505e-18)
(0.831093 0.0437883 2.40277e-18)
(0.736473 0.0772663 2.25635e-18)
(0.630318 0.149794 1.88006e-18)
(0.518309 0.214884 1.43338e-18)
(0.436724 0.26541 1.04412e-18)
(0.385381 0.294511 7.7231e-19)
(0.351634 0.307116 5.92892e-19)
(0.322353 0.301313 4.38331e-19)
(0.302515 0.280182 3.52486e-19)
(0.280861 0.24964 3.32275e-19)
(0.25968 0.2176 2.76511e-19)
(0.238227 0.192058 2.6e-19)
(0.217488 0.172982 2.49026e-19)
(0.197541 0.158877 2.22782e-19)
(0.178001 0.148508 7.02966e-20)
(0.158895 0.14176 1.48471e-19)
(0.140488 0.136597 1.54159e-19)
(0.122304 0.137059 -1.15367e-19)
(0.104363 0.134947 -1.13987e-19)
(0.087466 0.1393 3.46176e-20)
(0.0699588 0.138622 -1.86053e-19)
(0.0544367 0.145473 -4.96044e-20)
(0.0367776 0.145761 -2.5192e-20)
(0.0249857 0.158603 1.45121e-19)
(1.50121 4.27592e-07 -3.63438e-21)
(1.50118 -3.36388e-06 -3.38465e-21)
(1.50125 -3.22686e-06 -1.6542e-21)
(1.50133 -2.03609e-06 -5.40816e-21)
(1.50144 -1.13752e-06 -1.11738e-21)
(1.50157 -5.94122e-07 1.21632e-21)
(1.50175 -2.02869e-07 2.61916e-21)
(1.50195 1.94455e-06 -4.44092e-21)
(1.50214 2.21469e-06 -1.56426e-21)
(1.50242 -1.73439e-07 -2.64865e-21)
(1.50271 3.2082e-06 2.38506e-21)
(1.50298 6.21234e-06 4.11458e-21)
(1.50334 4.03974e-06 1.08601e-20)
(1.50373 4.19139e-07 1.60769e-20)
(1.50407 1.63058e-05 1.34061e-20)
(1.50441 1.74308e-05 7.36862e-21)
(1.50497 3.44991e-06 1.00809e-20)
(1.50541 -5.88663e-06 1.07056e-21)
(1.50576 1.35823e-05 7.2891e-21)
(1.50609 3.46108e-05 1.21783e-20)
(1.50687 2.04518e-05 -4.84807e-22)
(1.50739 -2.21794e-05 -1.26206e-21)
(1.50771 -1.7083e-05 2.35708e-21)