/*--------------------------------*- C++ -*----------------------------------*\
| =========                 |                                                 |
| \\      /  F ield         | OpenFOAM: The Open Source CFD Toolbox           |
|  \\    /   O peration     | Version:  2.2.x                                 |
|   \\  /    A nd           | Web:      www.OpenFOAM.org                      |
|    \\/     M anipulation  |                                                 |
\*---------------------------------------------------------------------------*/
FoamFile
{
    version     2.0;
    format      ascii;
    class       volScalarField;
    location    "0.25";
    object      pB;
}
// * * * * * * * * * * * * * * * * * * * * * * * * * * * * * * * * * * * * * //

dimensions      [1 1 -3 0 0 -1 0];

internalField   nonuniform List<scalar> 
14161
(
-3.22427e-11
-1.64456e-11
-6.10404e-11
-1.17641e-10
-2.55347e-10
-5.21014e-10
-1.067e-09
-2.14425e-09
-4.25288e-09
-8.29215e-09
-1.58867e-08
-2.98618e-08
-5.50202e-08
-9.92788e-08
-1.75316e-07
-3.02834e-07
-5.11484e-07
-8.44717e-07
-1.36339e-06
-2.15252e-06
-3.32059e-06
-5.01727e-06
-7.4036e-06
-1.07233e-05
-1.51745e-05
-2.10655e-05
-2.87554e-05
-3.81374e-05
-5.06397e-05
-6.44459e-05
-8.27019e-05
-0.000102426
-0.000126402
-0.00015336
-0.000182718
-0.000217017
-0.000251973
-0.00029201
-0.000333259
-0.000376107
-0.0004243
-0.000467448
-0.00051989
-0.000563843
-0.000617714
-0.000664274
-0.000720863
-0.000773799
-0.000832308
-0.000892712
-0.000956694
-0.00102864
-0.00109587
-0.00117468
-0.00123662
-0.00131963
-0.0013859
-0.0014651
-0.00154183
-0.001618
-0.00168713
-0.00175144
-0.00179144
-0.00180543
-0.00175881
-0.00165454
-0.00147051
-0.00124569
-0.000904459
-0.000636429
1.55347e-05
0.000610677
0.00232316
0.00445812
0.00558031
0.0147739
-0.00125878
0.0198129
0.00942718
0.00429907
0.00727059
0.00743028
0.00191328
0.00371903
-0.00647787
-0.00224526
-0.0114423
-0.00782815
-0.00749222
-0.0081245
-0.00664453
-0.00592323
-0.00505435
-0.00394106
-0.00321697
-0.00211964
-0.00166144
-0.00144927
-0.00125737
-0.000830561
-0.000665111
-0.000464723
-0.000192442
-1.56152e-05
0.000210858
0.000152185
6.54386e-05
-0.000152978
1.94907e-05
-0.000336618
-0.000295943
-0.00146557
-0.00201011
-0.00420049
-0.00488198
-0.00153965
-0.0176145
0.015635
-0.0631987
-3.23752e-11
-1.65638e-11
-6.13774e-11
-1.17707e-10
-2.55574e-10
-5.21348e-10
-1.06764e-09
-2.14539e-09
-4.2549e-09
-8.29562e-09
-1.58925e-08
-2.98717e-08
-5.50348e-08
-9.9303e-08
-1.7534e-07
-3.02882e-07
-5.11464e-07
-8.4478e-07
-1.36292e-06
-2.15252e-06
-3.31912e-06
-5.01519e-06
-7.40253e-06
-1.07111e-05
-1.51838e-05
-2.10517e-05
-2.87359e-05
-3.84123e-05
-5.04213e-05
-6.48903e-05
-8.29069e-05
-0.000102291
-0.000127908
-0.000152087
-0.000185696
-0.000215117
-0.000255154
-0.000290018
-0.000334959
-0.000374812
-0.000423535
-0.000466787
-0.000519841
-0.000563987
-0.000618407
-0.000663712
-0.000719356
-0.0007735
-0.000834886
-0.00090103
-0.000962628
-0.00103289
-0.00109658
-0.00117274
-0.00124485
-0.0013194
-0.00139251
-0.00147403
-0.00154506
-0.00162928
-0.00169434
-0.00177406
-0.0018285
-0.00185704
-0.00183732
-0.00176838
-0.00163707
-0.00143642
-0.001157
-0.000887277
-0.000292301
0.000597143
0.00222255
0.00540959
0.00668394
0.0169449
0.000762816
0.0163156
0.0107357
-0.00207546
0.00227833
0.00555806
-0.000347065
0.000260359
-0.00121247
-0.000537711
-0.00612024
-0.00602153
-0.00507044
-0.0060179
-0.00538199
-0.00372374
-0.00323998
-0.00250197
-0.00239846
-0.00214084
-0.00163323
-0.00139111
-0.00103455
-0.000419326
-1.14588e-05
0.000428537
0.000975564
0.00157997
0.00210111
0.00244699
0.00278177
0.00294138
0.00332796
0.00349106
0.00406284
0.00401722
0.00546607
0.00550471
0.00536497
0.00772087
-0.0101718
0.0168305
-0.05426
-3.20973e-11
-1.63513e-11
-6.07724e-11
-1.17087e-10
-2.54187e-10
-5.18619e-10
-1.06219e-09
-2.13479e-09
-4.23459e-09
-8.25748e-09
-1.58217e-08
-2.97438e-08
-5.48038e-08
-9.8902e-08
-1.7463e-07
-3.01735e-07
-5.09527e-07
-8.41645e-07
-1.35865e-06
-2.1445e-06
-3.3108e-06
-4.99486e-06
-7.38999e-06
-1.06634e-05
-1.51435e-05
-2.09962e-05
-2.85751e-05
-3.82455e-05
-4.99581e-05
-6.48449e-05
-8.17195e-05
-0.000102464
-0.000126002
-0.000152153
-0.000183452
-0.000214469
-0.000253696
-0.000288989
-0.000334545
-0.000373988
-0.000423177
-0.000467261
-0.000518759
-0.000564022
-0.000616493
-0.000663951
-0.000719446
-0.000775505
-0.000831736
-0.000894952
-0.000955102
-0.00102942
-0.00109601
-0.00117419
-0.00124548
-0.00132791
-0.00139821
-0.00148489
-0.00155379
-0.00164599
-0.00172286
-0.00179803
-0.00186605
-0.0019172
-0.00191796
-0.00189724
-0.00184188
-0.00171574
-0.00151419
-0.00123545
-0.000746825
-2.90369e-05
0.00130372
0.00378559
0.00403355
0.0118161
0.00439988
0.0133614
0.0243323
-0.00521111
0.00714315
-0.00162789
0.00146504
-0.00274738
-0.00628169
-0.00725338
-0.00809284
-0.00705119
-0.000790006
-0.000845115
0.000157284
-0.00299981
-0.00350389
-0.00252794
-0.00140722
-1.85652e-05
0.000580225
0.00183995
0.00193618
0.00156084
0.000939499
0.000493579
-3.00893e-05
-0.000519748
-0.000989282
-0.00138898
-0.00131581
-0.00136532
-0.00137126
-0.0015649
-0.00122783
-0.00149564
-0.000633768
-0.00119189
-0.00128806
0.00153545
-0.013432
0.0152526
-0.0547787
-3.19322e-11
-1.62961e-11
-6.05423e-11
-1.16351e-10
-2.52723e-10
-5.15638e-10
-1.05622e-09
-2.12299e-09
-4.21171e-09
-8.214e-09
-1.57413e-08
-2.95954e-08
-5.45475e-08
-9.84217e-08
-1.73912e-07
-3.00259e-07
-5.07677e-07
-8.372e-07
-1.35395e-06
-2.13195e-06
-3.29925e-06
-4.96659e-06
-7.3571e-06
-1.06263e-05
-1.50412e-05
-2.09594e-05
-2.83922e-05
-3.81848e-05
-4.98139e-05
-6.46619e-05
-8.13436e-05
-0.000102574
-0.000124811
-0.000152905
-0.000181417
-0.000215443
-0.000250737
-0.000289648
-0.000331322
-0.000374495
-0.000420209
-0.000467744
-0.000514195
-0.000565467
-0.000611997
-0.000665793
-0.00071546
-0.000775376
-0.000831038
-0.000897666
-0.000960782
-0.00103243
-0.00109996
-0.00117901
-0.00124957
-0.00133268
-0.00140511
-0.00149748
-0.001579
-0.00166537
-0.00175827
-0.00185094
-0.00192506
-0.00201066
-0.00209016
-0.00209938
-0.00213498
-0.00212508
-0.00208729
-0.00217349
-0.00217272
-0.00251339
-0.00262958
-0.0037871
-0.00149274
-0.00436493
0.00990935
-0.00143418
0.0209744
-0.0159473
0.0056575
0.00349046
0.00330765
-0.00198732
0.00142342
-0.00538996
-0.00386327
-0.00699954
-0.0070358
-0.00398151
-0.00807164
-0.000864582
0.000411142
0.00199457
0.000209682
-0.000579167
-0.000950796
-0.00200397
-0.00204851
-0.00184706
-0.00133887
-0.000944709
-0.000235713
-3.019e-05
0.000349343
0.000393514
0.000505031
0.000405954
0.000512045
0.000133225
0.000211903
-0.000198672
-8.90121e-05
-7.94668e-05
-0.00105886
0.000427314
-0.010714
0.0133832
-0.0532311
-3.15244e-11
-1.60924e-11
-5.97685e-11
-1.14993e-10
-2.49723e-10
-5.09618e-10
-1.04412e-09
-2.09929e-09
-4.16605e-09
-8.1275e-09
-1.55805e-08
-2.93004e-08
-5.4019e-08
-9.75072e-08
-1.72285e-07
-2.97638e-07
-5.03011e-07
-8.30712e-07
-1.34162e-06
-2.11785e-06
-3.26892e-06
-4.9386e-06
-7.28678e-06
-1.05649e-05
-1.49238e-05
-2.07841e-05
-2.82109e-05
-3.78784e-05
-4.93415e-05
-6.42902e-05
-8.06437e-05
-0.000102184
-0.000123591
-0.000152679
-0.000179151
-0.000215895
-0.000247765
-0.000290786
-0.00032748
-0.000375418
-0.000416257
-0.000466927
-0.00051182
-0.000563974
-0.000610144
-0.000664519
-0.000713913
-0.00077423
-0.000830112
-0.000895843
-0.000959036
-0.00103094
-0.00110021
-0.00118322
-0.00125745
-0.00134675
-0.00143038
-0.00151353
-0.00160341
-0.00169513
-0.0017842
-0.0018876
-0.00198905
-0.00208411
-0.00223088
-0.00236432
-0.00249754
-0.00259732
-0.00274759
-0.00278982
-0.00298883
-0.00359275
-0.00477969
-0.00950941
-0.0103675
-0.0206405
0.0107039
0.0727931
0.0121374
0.00114262
-0.00867076
-0.010783
-0.00331933
-0.0126913
0.0030029
-0.00869882
-0.00728907
-0.00750601
-0.00494142
0.00474954
0.000428001
0.000580889
-0.00200835
-0.00326296
-0.00116827
5.20998e-05
0.00151279
0.00180049
0.001473
0.00106489
0.00056684
0.000287371
-0.000154309
-0.000496825
-0.000753829
-0.00124556
-0.00137463
-0.00154604
-0.00163443
-0.00164374
-0.00159542
-0.00106044
-0.00153274
-0.00115364
-0.00180247
-0.000173377
-0.00920435
0.0104312
-0.0491066
-3.11503e-11
-1.5891e-11
-5.91057e-11
-1.13566e-10
-2.46691e-10
-5.03436e-10
-1.03164e-09
-2.07466e-09
-4.11822e-09
-8.03658e-09
-1.541e-08
-2.8994e-08
-5.34507e-08
-9.65651e-08
-1.70495e-07
-2.94964e-07
-4.97706e-07
-8.23614e-07
-1.32684e-06
-2.1003e-06
-3.23192e-06
-4.89583e-06
-7.21401e-06
-1.04488e-05
-1.48166e-05
-2.05299e-05
-2.80306e-05
-3.73861e-05
-4.91433e-05
-6.34139e-05
-8.0297e-05
-0.000100799
-0.000123021
-0.000151008
-0.000178184
-0.000214199
-0.000245471
-0.000289371
-0.000323893
-0.000374512
-0.000411773
-0.000466485
-0.000507234
-0.000562115
-0.000606956
-0.00066086
-0.000712917
-0.000769882
-0.000831182
-0.000892123
-0.000963072
-0.00102941
-0.00110785
-0.0011809
-0.00126133
-0.00134755
-0.00143435
-0.00153495
-0.00163887
-0.00173713
-0.0018417
-0.00194123
-0.0020714
-0.00219444
-0.00236313
-0.00250409
-0.00276054
-0.0029417
-0.00346404
-0.00377119
-0.00502837
-0.00625347
-0.00791652
-0.00889401
-0.00544959
-0.0165747
0.0523552
0.0529308
-0.0394732
0.0128368
-0.00816778
-7.19759e-05
-0.00328968
0.000282692
-0.00691669
-0.000367925
-0.000794749
0.00108251
9.07336e-05
0.00691332
8.1138e-05
0.00243691
-0.00120024
-0.000238275
-0.00130429
-0.00171013
-0.00268384
-0.00263253
-0.00157793
-0.00119285
-0.000739027
-0.000578417
-0.000360927
-0.00020943
-7.74811e-05
-0.000334065
-0.000175502
-0.000294494
-0.000458194
-0.000736691
-0.00101297
-0.000784203
-0.00166317
-0.00106248
-0.00236374
-0.000121416
-0.00887414
0.00855549
-0.0432411
-3.05576e-11
-1.56003e-11
-5.79464e-11
-1.11359e-10
-2.41948e-10
-4.93857e-10
-1.01233e-09
-2.03657e-09
-4.04438e-09
-7.89612e-09
-1.51479e-08
-2.8511e-08
-5.25948e-08
-9.49999e-08
-1.67955e-07
-2.9034e-07
-4.90879e-07
-8.11036e-07
-1.31031e-06
-2.0687e-06
-3.19498e-06
-4.82386e-06
-7.13093e-06
-1.03122e-05
-1.46193e-05
-2.02856e-05
-2.76817e-05
-3.68791e-05
-4.86618e-05
-6.23753e-05
-7.97782e-05
-9.88304e-05
-0.000122634
-0.000147866
-0.000177627
-0.000210289
-0.000244321
-0.000285138
-0.000322074
-0.000369969
-0.000409158
-0.000462337
-0.00050317
-0.000559168
-0.000601321
-0.000659157
-0.000706695
-0.000769456
-0.000825273
-0.000892644
-0.000959491
-0.00102978
-0.00110865
-0.00118325
-0.00127486
-0.00136051
-0.00145704
-0.00155181
-0.00163935
-0.00174059
-0.00186928
-0.00197285
-0.00210598
-0.002275
-0.00254267
-0.0027805
-0.00305902
-0.00317952
-0.00340388
-0.00343529
-0.00411552
-0.00445932
-0.00581871
-0.00881014
-0.00762213
-0.0161892
0.0289658
0.024303
-0.00829377
-0.00998454
-0.012723
0.00602379
-0.0133044
0.000186596
-0.010019
-0.00275989
0.000523135
-0.0013931
-0.00217949
0.00416313
-0.00362345
-0.0043697
-0.00260926
-0.00179952
-0.000902685
-0.000320449
0.000766768
0.000540567
-4.58315e-05
-0.000281326
-0.000229319
-0.000296747
-0.000318551
-0.000222466
-0.000212263
-0.000384122
-0.000452712
-0.000512298
-0.000655086
-0.000698942
-0.00120395
-0.000561077
-0.00190722
-0.000433018
-0.00318382
0.000429857
-0.00814999
0.00501919
-0.0361299
-2.9958e-11
-1.528e-11
-5.6828e-11
-1.09146e-10
-2.37116e-10
-4.84022e-10
-9.92398e-10
-1.99708e-09
-3.9674e-09
-7.74883e-09
-1.4873e-08
-2.80007e-08
-5.16926e-08
-9.33636e-08
-1.65216e-07
-2.85434e-07
-4.83157e-07
-7.97271e-07
-1.29015e-06
-2.03289e-06
-3.14655e-06
-4.73997e-06
-7.02048e-06
-1.01434e-05
-1.43725e-05
-1.99831e-05
-2.72164e-05
-3.63352e-05
-4.78992e-05
-6.14221e-05
-7.87167e-05
-9.72206e-05
-0.000121429
-0.000144966
-0.000176715
-0.000205396
-0.000244239
-0.000278429
-0.000322215
-0.000362601
-0.00040864
-0.000454895
-0.00050158
-0.000552457
-0.000598723
-0.000653483
-0.000703784
-0.000763948
-0.000823273
-0.000887976
-0.00095744
-0.00102713
-0.00110723
-0.00118432
-0.0012721
-0.00136357
-0.00145945
-0.00156903
-0.00168656
-0.00181193
-0.00192605
-0.0020567
-0.00219648
-0.00235395
-0.00250069
-0.00268197
-0.00306099
-0.00330763
-0.00362759
-0.0038279
-0.00426718
-0.00460466
-0.00627896
-0.00343675
-0.0168863
0.0513863
-0.000890882
0.00741819
-0.0120101
-0.00250497
-0.00229297
-0.00248028
-0.0159907
0.0180459
-0.00412768
-0.00112399
0.000593283
0.000677901
-0.000332638
0.0041301
0.00213479
0.00165473
-0.000472664
-0.00141492
-0.000913004
-0.00109234
-0.000244801
0.000279329
0.00107989
0.0010191
0.000826684
0.000583678
0.0007545
0.000588728
0.000473363
0.000288625
0.0002045
0.000434729
-5.06717e-05
-9.90908e-05
-0.000899026
-0.000162299
-0.00172312
-6.7064e-05
-0.00345055
0.00077052
-0.00734385
0.00302872
-0.0294149
-2.91509e-11
-1.48512e-11
-5.52355e-11
-1.0608e-10
-2.30438e-10
-4.70431e-10
-9.6482e-10
-1.94244e-09
-3.861e-09
-7.54564e-09
-1.44911e-08
-2.73042e-08
-5.04148e-08
-9.1179e-08
-1.61272e-07
-2.79118e-07
-4.72005e-07
-7.80641e-07
-1.26126e-06
-1.99295e-06
-3.07788e-06
-4.64796e-06
-6.87614e-06
-9.93396e-06
-1.41146e-05
-1.9559e-05
-2.66857e-05
-3.56656e-05
-4.6843e-05
-6.04415e-05
-7.68781e-05
-9.57729e-05
-0.000118706
-0.000142777
-0.000173286
-0.000202186
-0.00024041
-0.000273191
-0.000318722
-0.000354689
-0.000406089
-0.00044499
-0.0004999
-0.000541565
-0.000597075
-0.000643681
-0.000700431
-0.000756452
-0.000818427
-0.000884222
-0.000950956
-0.0010277
-0.00110029
-0.00118635
-0.00126843
-0.00136899
-0.00146098
-0.00157691
-0.00167541
-0.00178983
-0.00188974
-0.00202466
-0.00214543
-0.00233003
-0.00250464
-0.00280546
-0.00301035
-0.00325786
-0.00335255
-0.00345155
-0.00350087
-0.00238652
-0.0033659
0.00420928
-0.0180799
0.0686014
-0.00984487
0.0016006
-0.00885489
-0.00656924
-0.0109818
-0.0126083
0.00153297
-0.00303293
0.00142428
0.00686415
0.00381627
0.00352386
-0.00295214
0.00151596
-0.00102019
-0.000526477
-0.000233481
-0.000656154
-0.000281037
-0.000574921
0.000599387
-0.000172569
-0.000368377
-0.000310205
-0.000127479
0.000283496
-0.000175028
0.000229247
1.70814e-05
8.42975e-05
-0.00043784
-0.000282661
-0.000884658
-0.000624626
-0.00146857
-0.000465796
-0.00235214
0.000280451
-0.0047108
0.00146634
-0.00635013
0.00179539
-0.0232783
-2.8333e-11
-1.44289e-11
-5.36534e-11
-1.02852e-10
-2.23585e-10
-4.5643e-10
-9.36376e-10
-1.88582e-09
-3.7502e-09
-7.33347e-09
-1.40914e-08
-2.65699e-08
-4.90828e-08
-8.88254e-08
-1.57149e-07
-2.72173e-07
-4.60169e-07
-7.61589e-07
-1.22959e-06
-1.94485e-06
-2.99935e-06
-4.53939e-06
-6.69825e-06
-9.70328e-06
-1.37534e-05
-1.90832e-05
-2.60483e-05
-3.48091e-05
-4.56828e-05
-5.91717e-05
-7.48117e-05
-9.4069e-05
-0.000115289
-0.000140586
-0.000168391
-0.00019906
-0.000234027
-0.000269347
-0.000311009
-0.00035005
-0.00039765
-0.000438961
-0.000491632
-0.000533778
-0.000589673
-0.000633845
-0.000695036
-0.000745099
-0.000813889
-0.000872982
-0.000945874
-0.00101859
-0.0010943
-0.00118134
-0.00126277
-0.00136513
-0.00145335
-0.00157254
-0.00166671
-0.00180269
-0.00190429
-0.00204804
-0.00215662
-0.0023246
-0.00245368
-0.00268997
-0.00282247
-0.00306756
-0.00310728
-0.0032681
-0.00342247
-0.00335713
-0.00444421
-0.00227549
-0.00913154
0.0499777
-0.00194931
0.00080003
-0.000264526
0.000853674
0.00105908
-0.0156302
0.00555739
-0.00193397
0.00167939
0.00201187
0.00167219
0.00188549
0.000291014
0.00254881
0.00124271
0.00229645
0.000795381
0.000774818
0.000934505
7.47062e-05
0.000691904
0.000115611
0.000602613
0.000417453
1.52352e-05
-0.000198264
-0.00039859
-0.000634107
-0.000743959
-0.000341419
-0.000283075
0.00025681
-0.000512259
-0.000165655
-0.00115173
-7.36596e-05
-0.00210609
0.000644496
-0.00448031
0.00129432
-0.0053111
0.000423584
-0.0179464
-2.72706e-11
-1.3853e-11
-5.15745e-11
-9.89332e-11
-2.14766e-10
-4.38402e-10
-8.99624e-10
-1.81274e-09
-3.60737e-09
-7.05923e-09
-1.3577e-08
-2.56153e-08
-4.73759e-08
-8.57603e-08
-1.51944e-07
-2.63128e-07
-4.45578e-07
-7.37213e-07
-1.19219e-06
-1.88456e-06
-2.9109e-06
-4.402e-06
-6.49844e-06
-9.4277e-06
-1.33176e-05
-1.85823e-05
-2.52314e-05
-3.38465e-05
-4.43597e-05
-5.7486e-05
-7.26933e-05
-9.16591e-05
-0.000111837
-0.000137825
-0.000162786
-0.000196156
-0.000226113
-0.000266124
-0.000300902
-0.000346436
-0.000385365
-0.000434958
-0.000477391
-0.000529101
-0.000573922
-0.000628883
-0.000679772
-0.000738137
-0.000801232
-0.000863127
-0.000938473
-0.0010047
-0.00109097
-0.00116634
-0.00125728
-0.001352
-0.00144651
-0.00156184
-0.00166237
-0.00179204
-0.0018928
-0.00202464
-0.00212155
-0.00226697
-0.00237331
-0.00258017
-0.00270647
-0.00300288
-0.00309236
-0.00347036
-0.00341294
-0.00428015
-0.00327211
-0.0110101
0.0244122
0.00951964
-0.0148414
-0.00305062
-0.00873588
-0.00869504
0.000720037
0.000613349
0.00287614
0.00267122
0.00134098
0.0034249
0.000877981
0.00218585
-0.00184645
0.00161574
-0.000286178
0.00160521
0.000712493
0.00181643
0.00107987
0.000301851
0.000461779
0.000748699
0.000896167
0.000951194
0.000632277
0.000600734
0.000481191
0.000454694
0.000258158
0.000218024
4.5622e-05
0.000388837
-0.000448604
-0.000179898
-0.00116366
-0.000137692
-0.00202273
0.000592777
-0.00395831
0.000142426
-0.00419659
-0.000718838
-0.0130358
-2.62311e-11
-1.33033e-11
-4.9492e-11
-9.46828e-11
-2.05706e-10
-4.19812e-10
-8.61665e-10
-1.7369e-09
-3.4586e-09
-6.77337e-09
-1.30377e-08
-2.46209e-08
-4.55703e-08
-8.25592e-08
-1.46368e-07
-2.53583e-07
-4.29655e-07
-7.10841e-07
-1.15035e-06
-1.8167e-06
-2.8108e-06
-4.24071e-06
-6.28181e-06
-9.07884e-06
-1.28836e-05
-1.79045e-05
-2.43683e-05
-3.26699e-05
-4.28582e-05
-5.54414e-05
-7.04313e-05
-8.82591e-05
-0.000108586
-0.000132779
-0.000158164
-0.00018951
-0.000219621
-0.000257933
-0.000292094
-0.000337019
-0.00037424
-0.000424889
-0.000463952
-0.000518824
-0.000558117
-0.000619171
-0.000661542
-0.000730597
-0.00078038
-0.000856996
-0.000917783
-0.000997101
-0.0010742
-0.00115498
-0.00124646
-0.00133826
-0.00143628
-0.00154583
-0.00165155
-0.00177007
-0.00188217
-0.00200234
-0.00211454
-0.00223787
-0.00235334
-0.00250773
-0.0026341
-0.00283778
-0.0029046
-0.0029329
-0.0020874
-0.00268479
0.00398124
-0.014765
0.0651857
0.00419007
-0.0029418
-0.000595581
-0.0073272
-0.00915333
-0.0105204
-0.00216906
-0.000360052
0.000115781
0.000251361
0.00139222
0.000455906
0.00172184
-0.000812368
0.00172131
0.000221623
0.00124994
0.000480824
0.000739599
0.00091609
0.000200033
0.000930254
0.000869635
0.00055711
0.000219086
-6.75869e-05
6.34776e-05
1.26008e-05
3.28512e-05
-0.000194013
-0.000149252
-0.000243651
0.000137926
-0.000655334
-0.000199867
-0.00120519
-0.00020876
-0.00194317
0.000520731
-0.0031352
-0.0006401
-0.00280898
-0.00203518
-0.00843646
-2.4925e-11
-1.25854e-11
-4.69002e-11
-8.95835e-11
-1.94517e-10
-3.96886e-10
-8.14909e-10
-1.64372e-09
-3.27581e-09
-6.42199e-09
-1.23747e-08
-2.33974e-08
-4.33498e-08
-7.86355e-08
-1.39525e-07
-2.4203e-07
-4.10368e-07
-6.79533e-07
-1.10044e-06
-1.7391e-06
-2.69172e-06
-4.06237e-06
-6.02161e-06
-8.68721e-06
-1.2374e-05
-1.71048e-05
-2.34551e-05
-3.12117e-05
-4.12553e-05
-5.30055e-05
-6.79017e-05
-8.42429e-05
-0.000105172
-0.000126282
-0.000154001
-0.000180082
-0.000214279
-0.000245896
-0.000285294
-0.000322705
-0.000365769
-0.000408615
-0.000453788
-0.000501204
-0.000546376
-0.000600493
-0.000648774
-0.000710674
-0.00076622
-0.000838187
-0.000900602
-0.000982203
-0.00105514
-0.00113878
-0.0012296
-0.0013192
-0.00141963
-0.00152383
-0.00163269
-0.00174812
-0.00186804
-0.00198122
-0.00210941
-0.00220783
-0.00235169
-0.00242404
-0.00253089
-0.00255749
-0.00247261
-0.00252359
-0.00179774
-0.00317837
1.6064e-05
-0.00746624
0.0510212
-0.000929202
-0.00412925
0.000164192
-0.00390004
-0.000925915
-0.00363791
-0.00311483
-0.000979891
-0.000598965
-3.03074e-05
0.00155107
0.000259267
0.00118019
-0.00101159
0.000459014
-0.0003114
0.000944122
0.000324954
0.000660367
0.00035891
0.000379157
0.000617118
0.0011495
0.0011278
0.000978565
0.00103863
0.000928291
0.000706366
0.000628246
0.00026236
0.0002503
-5.28847e-05
0.000213023
-0.000590749
-0.000214193
-0.00116437
-0.000301362
-0.00185834
0.000241322
-0.00230505
-0.00172232
-0.00225942
-0.0029645
-0.00416091
-2.36084e-11
-1.18864e-11
-4.42732e-11
-8.43927e-11
-1.83081e-10
-3.73295e-10
-7.66546e-10
-1.54684e-09
-3.08541e-09
-6.05507e-09
-1.16824e-08
-2.21138e-08
-4.10245e-08
-7.45027e-08
-1.32309e-07
-2.29751e-07
-3.89634e-07
-6.46042e-07
-1.0451e-06
-1.65551e-06
-2.55509e-06
-3.87221e-06
-5.71238e-06
-8.29174e-06
-1.17299e-05
-1.63266e-05
-2.22569e-05
-2.97442e-05
-3.92067e-05
-5.05343e-05
-6.45278e-05
-8.04808e-05
-0.000100066
-0.00012073
-0.000147028
-0.000172071
-0.000205551
-0.000234811
-0.000274949
-0.000308218
-0.000353881
-0.000391119
-0.000440257
-0.000481943
-0.000529663
-0.0005812
-0.000629698
-0.000689636
-0.000746506
-0.000815078
-0.000880754
-0.000959087
-0.00103628
-0.00111769
-0.00121225
-0.0012992
-0.0014056
-0.00150098
-0.00161955
-0.00172286
-0.00185788
-0.00195501
-0.00210347
-0.0021731
-0.00233612
-0.00234978
-0.00250428
-0.00243419
-0.00263467
-0.00270767
-0.00337095
-0.0032835
-0.00863013
0.0133174
0.0175107
-0.01477
-0.000305358
-0.0114392
-0.00632017
-0.00712843
-0.00120632
-0.00138361
-0.00109003
-0.000471346
-0.000647145
0.000255082
-0.000225913
0.000747151
-0.00106047
0.000216868
-0.000223156
7.71337e-05
-8.95258e-05
0.000288125
0.000490553
3.76314e-06
0.00106334
0.00016605
0.000491728
0.000281656
0.00021848
0.000229985
0.000179328
0.00025741
-9.92108e-06
8.90609e-05
-0.000278536
6.77794e-05
-0.000667833
-0.000359383
-0.00116995
-0.000525481
-0.00165825
-0.00021223
-0.00195655
-0.00188304
-0.00164556
-0.0028007
-0.000633015
-2.20672e-11
-1.10096e-11
-4.1123e-11
-7.81393e-11
-1.69449e-10
-3.45296e-10
-7.09204e-10
-1.43221e-09
-2.86002e-09
-5.62122e-09
-1.08622e-08
-2.05986e-08
-3.8276e-08
-6.9626e-08
-1.23844e-07
-2.15351e-07
-3.65648e-07
-6.06985e-07
-9.83025e-07
-1.55761e-06
-2.40741e-06
-3.64565e-06
-5.38379e-06
-7.81658e-06
-1.10445e-05
-1.54296e-05
-2.0911e-05
-2.81834e-05
-3.68007e-05
-4.79394e-05
-6.05379e-05
-7.651e-05
-9.37245e-05
-0.000115224
-0.000137695
-0.00016452
-0.000193294
-0.000224293
-0.000260139
-0.000294349
-0.000336772
-0.000373667
-0.000421424
-0.000461012
-0.000508511
-0.000558317
-0.00060452
-0.000666415
-0.000718353
-0.000791363
-0.00085038
-0.000936292
-0.00100493
-0.00109816
-0.00118294
-0.00128049
-0.00138153
-0.00148446
-0.00160011
-0.00171218
-0.00184473
-0.00196726
-0.00210355
-0.00221227
-0.00234078
-0.00245295
-0.0026665
-0.00268749
-0.00280223
-0.00197435
-0.00256137
0.0036313
-0.0126247
0.0649464
0.00916941
-0.00509075
0.001067
-0.00949792
-0.000750413
-0.00287311
-0.00213923
-0.00246425
-0.000972038
-0.00110418
-0.00112459
-5.86701e-05
-0.000600761
0.000584552
-0.00095335
0.000460984
-0.000392724
-0.000328445
-1.6192e-05
0.000419216
3.53286e-06
-0.000131662
0.00115432
6.73314e-05
0.000519645
0.000246046
0.00023196
9.68194e-05
7.72808e-05
7.63506e-05
-0.000168782
-0.000111269
-0.000428384
-0.000129055
-0.000731174
-0.000567188
-0.00118938
-0.000817547
-0.00160053
-0.000633496
-0.00187915
-0.00163739
-0.00131268
-0.00182612
0.00219185
-2.04757e-11
-1.01595e-11
-3.79312e-11
-7.17156e-11
-1.55392e-10
-3.16334e-10
-6.49822e-10
-1.31316e-09
-2.62563e-09
-5.16865e-09
-1.00068e-08
-1.90118e-08
-3.54016e-08
-6.44966e-08
-1.14956e-07
-2.00044e-07
-3.40464e-07
-5.64617e-07
-9.17401e-07
-1.44942e-06
-2.25041e-06
-3.39292e-06
-5.03875e-06
-7.2705e-06
-1.03455e-05
-1.43395e-05
-1.95884e-05
-2.6208e-05
-3.44434e-05
-4.46474e-05
-5.66549e-05
-7.13977e-05
-8.77005e-05
-0.000107961
-0.000128552
-0.000155212
-0.000179911
-0.000212802
-0.000242659
-0.00027914
-0.000316323
-0.000353863
-0.000398797
-0.000436912
-0.00048602
-0.000529669
-0.000579207
-0.000635064
-0.00069044
-0.000757457
-0.000820497
-0.000901467
-0.000972939
-0.00106791
-0.00114843
-0.00125831
-0.00134675
-0.00147539
-0.00157329
-0.00172458
-0.0018328
-0.00201264
-0.00212841
-0.00231924
-0.0023916
-0.00247545
-0.00248724
-0.00224595
-0.00235683
-0.00127973
-0.00256455
0.00136863
-0.0082418
0.0563367
-0.0154595
0.009099
-0.00311676
-0.00276
-0.00439512
-0.00244992
-0.00190287
-0.000907065
-0.000503558
-0.000546305
-0.00108631
-0.000464888
-0.000477311
-0.000351108
-0.000585452
-0.0009046
-0.00155063
-0.000340623
-0.000174794
-3.57154e-05
-0.000217619
0.000469873
0.000291766
0.000140785
0.000280022
0.000129544
-5.88762e-06
-6.92411e-05
-9.96974e-05
-0.000141073
-0.000325402
-0.00034438
-0.000668868
-0.000452725
-0.000964343
-0.000848985
-0.00124648
-0.00109119
-0.00153971
-0.00101955
-0.00157782
-0.00123724
-0.000948241
-0.00120022
0.00434879
-1.86341e-11
-9.11627e-12
-3.41848e-11
-6.4429e-11
-1.39213e-10
-2.82942e-10
-5.8131e-10
-1.17613e-09
-2.35625e-09
-4.64944e-09
-9.02561e-09
-1.71953e-08
-3.21052e-08
-5.86622e-08
-1.04782e-07
-1.82834e-07
-3.11512e-07
-5.18329e-07
-8.41353e-07
-1.33552e-06
-2.06633e-06
-3.13139e-06
-4.63256e-06
-6.70919e-06
-9.5294e-06
-1.3216e-05
-1.80882e-05
-2.41004e-05
-3.18713e-05
-4.09987e-05
-5.25029e-05
-6.55264e-05
-8.14342e-05
-9.9108e-05
-0.000119555
-0.000143047
-0.000167007
-0.00019753
-0.000224641
-0.00026161
-0.000292164
-0.000333539
-0.000369457
-0.000411898
-0.000453089
-0.000499424
-0.000547373
-0.000597419
-0.000658306
-0.000714781
-0.000788343
-0.000854114
-0.000941237
-0.00101935
-0.00111782
-0.00121478
-0.00132311
-0.00144857
-0.00156846
-0.00172703
-0.0018515
-0.00201774
-0.00211779
-0.00232046
-0.00240146
-0.00270971
-0.00271328
-0.00319934
-0.00313725
-0.0044378
-0.00457946
-0.00974499
0.0126903
0.0166489
-0.0201387
0.00287987
-0.0147227
0.00825172
-0.00227043
0.00165074
-0.00174441
-0.000835057
-0.00126406
-0.000914036
-0.00165846
-0.000610741
-0.000559596
0.000185089
-0.000992758
-7.41468e-05
-0.000853665
-4.2624e-05
-0.000467344
-0.000105316
-0.000430288
0.000556187
-0.000290896
0.000196417
-9.06726e-06
-0.000133782
-8.99687e-05
-0.000355374
-0.000289689
-0.000389889
-0.000527638
-0.000608489
-0.000817439
-0.000717486
-0.00103812
-0.00104953
-0.00127321
-0.00130351
-0.00130521
-0.00127844
-0.00104875
-0.000985858
-0.000515604
-0.000754898
0.00636939
-1.6817e-11
-8.10413e-12
-3.04167e-11
-5.68294e-11
-1.22638e-10
-2.48794e-10
-5.1106e-10
-1.03467e-09
-2.07688e-09
-4.11018e-09
-8.00483e-09
-1.5306e-08
-2.86764e-08
-5.25726e-08
-9.41526e-08
-1.64801e-07
-2.81171e-07
-4.69089e-07
-7.61757e-07
-1.21142e-06
-1.87415e-06
-2.84583e-06
-4.20283e-06
-6.10879e-06
-8.63635e-06
-1.2049e-05
-1.63756e-05
-2.1988e-05
-2.88613e-05
-3.74012e-05
-4.7597e-05
-5.97252e-05
-7.40032e-05
-9.01572e-05
-0.00010921
-0.000129627
-0.000153508
-0.000179058
-0.000206578
-0.000238444
-0.000268659
-0.000306681
-0.00033892
-0.000382568
-0.00041457
-0.000467805
-0.000502445
-0.000563694
-0.000606271
-0.000678698
-0.000731133
-0.000814074
-0.000882448
-0.000974086
-0.00106575
-0.00116817
-0.00128883
-0.00140424
-0.00155118
-0.00168437
-0.0018349
-0.00201697
-0.00218118
-0.00243698
-0.00265382
-0.0031234
-0.00338473
-0.00387721
-0.0031856
-0.00392175
0.00200126
-0.0145927
0.0659034
-0.00212954
0.00451493
0.00617823
-0.00710591
-0.00379898
-0.00202415
-0.000719599
-0.00088404
-0.000638462
-0.000450193
-0.000488799
-0.000737798
-0.000444494
-0.000411393
-0.000411229
-0.00104703
-0.000554668
-0.00129772
-0.000593694
-0.000850264
-0.000291194
-0.00033628
0.000723207
-0.000489993
0.000342388
-0.000145931
-0.000250024
-0.000177094
-0.000232556
-0.000250976
-0.000385026
-0.000510591
-0.000672658
-0.000913004
-0.000977525
-0.00117369
-0.00123895
-0.00122589
-0.00132008
-0.001085
-0.00144195
-0.00052683
-0.000713713
-0.000224142
-0.000703866
0.00774359
-1.4696e-11
-6.91485e-12
-2.60553e-11
-4.82723e-11
-1.0367e-10
-2.09762e-10
-4.31125e-10
-8.75176e-10
-1.76363e-09
-3.5062e-09
-6.86486e-09
-1.31947e-08
-2.48539e-08
-4.57805e-08
-8.23961e-08
-1.4468e-07
-2.48156e-07
-4.14295e-07
-6.76767e-07
-1.07424e-06
-1.67228e-06
-2.52986e-06
-3.75744e-06
-5.43949e-06
-7.72211e-06
-1.07437e-05
-1.46238e-05
-1.96267e-05
-2.57218e-05
-3.34134e-05
-4.2374e-05
-5.34156e-05
-6.5881e-05
-8.07243e-05
-9.73898e-05
-0.000115942
-0.000137838
-0.000159331
-0.000187219
-0.000211484
-0.000244901
-0.000272356
-0.000309884
-0.000341862
-0.000379494
-0.00042136
-0.000460365
-0.000511494
-0.000556957
-0.000620767
-0.000673301
-0.000753415
-0.000814662
-0.000915723
-0.000989099
-0.00111441
-0.00120491
-0.00135037
-0.00146839
-0.00162457
-0.00181175
-0.00199967
-0.00233883
-0.00257569
-0.00285579
-0.00302351
-0.00311257
-0.00343483
-0.00213776
-0.00347183
0.00236746
-0.0100516
0.0640205
-0.0254699
0.0164879
-0.0168723
0.00647795
-0.00243162
0.00141848
0.000267332
0.000472814
-0.000186383
-0.000218702
-0.000583701
-0.000740613
-0.000542911
-0.000212578
-0.000196358
-0.000675255
-0.00056818
-0.00115821
-0.000627208
-0.000872463
-0.000111095
-0.000327466
0.000206288
-0.000561902
0.000125539
-0.000409015
-0.000388499
-0.000196681
-0.000292469
-0.000351797
-0.000423932
-0.000633936
-0.00073295
-0.000967276
-0.00104281
-0.00113634
-0.00115654
-0.00103406
-0.00110365
-0.000869037
-0.00150955
-6.83706e-05
-0.000648861
-2.24138e-05
-0.000598396
0.00875621
-1.26088e-11
-5.71696e-12
-2.1693e-11
-3.96499e-11
-8.46806e-11
-1.70568e-10
-3.5037e-10
-7.12535e-10
-1.442e-09
-2.88452e-09
-5.68792e-09
-1.10171e-08
-2.09023e-08
-3.87795e-08
-7.02387e-08
-1.23974e-07
-2.13588e-07
-3.5815e-07
-5.85726e-07
-9.34368e-07
-1.45302e-06
-2.20733e-06
-3.27595e-06
-4.74848e-06
-6.74957e-06
-9.36965e-06
-1.28007e-05
-1.71001e-05
-2.25329e-05
-2.90995e-05
-3.71026e-05
-4.65367e-05
-5.75739e-05
-7.04963e-05
-8.47873e-05
-0.000101798
-0.000119498
-0.000140467
-0.000162464
-0.00018653
-0.000213357
-0.000239905
-0.000271758
-0.000300662
-0.000336177
-0.000369932
-0.000411765
-0.000449332
-0.000503282
-0.000546769
-0.000613714
-0.000667249
-0.000747396
-0.000817885
-0.000911105
-0.00100634
-0.00111674
-0.00124861
-0.00138718
-0.00157041
-0.00174944
-0.00195288
-0.00214546
-0.00230422
-0.0025932
-0.00274917
-0.00348603
-0.0040715
-0.00716763
-0.00898964
-0.0166872
0.00569124
0.0120544
-0.0333421
0.00562563
-0.00149404
0.00174226
0.00149831
0.00143134
-1.31333e-05
-0.000221334
-0.000457419
-0.000439102
-0.000545199
-0.000606803
-0.00042636
-0.000362946
-0.000334343
-0.000844125
-0.000773825
-0.00111297
-0.000627622
-0.000785746
-4.11565e-05
-0.000326075
-0.000257735
-0.000570379
9.70692e-05
-0.00052693
-0.000439439
-0.0001777
-0.000508383