/*--------------------------------*- C++ -*----------------------------------*\
| =========                 |                                                 |
| \\      /  F ield         | OpenFOAM: The Open Source CFD Toolbox           |
|  \\    /   O peration     | Version:  2.2.x                                 |
|   \\  /    A nd           | Web:      www.OpenFOAM.org                      |
|    \\/     M anipulation  |                                                 |
\*---------------------------------------------------------------------------*/
FoamFile
{
    version     2.0;
    format      ascii;
    class       volScalarField;
    location    "0.25";
    object      rho;
}
// * * * * * * * * * * * * * * * * * * * * * * * * * * * * * * * * * * * * * //

dimensions      [1 -3 0 0 0 0 0];

internalField   nonuniform List<scalar> 
14161
(
1
1
1
1
1
1
1
1
1
1
1
1
1
1
1
1
0.999999
0.999999
0.999998
0.999997
0.999995
0.999992
0.999988
0.999982
0.999974
0.999963
0.999949
0.99993
0.999907
0.999877
0.999841
0.999798
0.999747
0.999687
0.999619
0.999541
0.999455
0.999359
0.999255
0.999142
0.999021
0.998894
0.99876
0.998621
0.998477
0.998326
0.99816
0.997982
0.997788
0.99758
0.997356
0.997114
0.996853
0.996575
0.996281
0.995961
0.995628
0.99527
0.994871
0.994489
0.994101
0.993624
0.99312
0.992634
0.992205
0.991801
0.991377
0.990927
0.990646
0.990317
0.9903
0.990335
0.990819
0.991577
0.993034
0.995456
2.07544
2.87113
2.84544
2.70961
2.62442
2.5203
2.43489
2.33562
2.27743
2.28071
2.35023
2.44027
2.53675
2.65706
2.75103
2.80598
2.84799
2.8874
2.91947
2.94351
2.96065
2.97679
2.99166
3.0059
3.01783
3.02826
3.03654
3.04371
3.04983
3.05522
3.05897
3.06194
3.064
3.06449
3.06321
3.06218
3.06228
3.06761
3.07298
3.08303
3.07169
3.06743
3.10353
1
1
1
1
1
1
1
1
1
1
1
1
1
1
1
1
0.999999
0.999999
0.999998
0.999997
0.999995
0.999992
0.999988
0.999982
0.999974
0.999963
0.999949
0.99993
0.999907
0.999878
0.999842
0.999799
0.999747
0.999689
0.999619
0.999543
0.999456
0.999361
0.999256
0.999144
0.999023
0.998896
0.998761
0.998623
0.998478
0.998327
0.998162
0.997984
0.99779
0.997582
0.997358
0.997117
0.996859
0.99658
0.99628
0.995974
0.995635
0.995265
0.994884
0.994476
0.994043
0.993575
0.993133
0.992729
0.992237
0.991765
0.9913
0.9909
0.990581
0.990246
0.990052
0.990171
0.990722
0.991843
0.993539
0.996042
2.03872
2.86573
2.82105
2.66123
2.57959
2.50643
2.40072
2.30696
2.26122
2.27039
2.34676
2.43655
2.53239
2.64064
2.73435
2.78996
2.83199
2.8713
2.90458
2.9301
2.94966
2.969
2.98538
3.00017
3.01251
3.02362
3.03215
3.03948
3.04588
3.05115
3.0552
3.05831
3.05933
3.05677
3.05091
3.04186
3.02617
3.00012
2.98533
3.00063
3.02659
3.06024
3.08963
1
1
1
1
1
1
1
1
1
1
1
1
1
1
1
1
0.999999
0.999999
0.999998
0.999997
0.999995
0.999992
0.999988
0.999982
0.999974
0.999963
0.999949
0.99993
0.999907
0.999878
0.999842
0.999799
0.999748
0.999688
0.99962
0.999543
0.999455
0.999361
0.999256
0.999144
0.999024
0.998897
0.998763
0.998625
0.998481
0.998329
0.998164
0.997986
0.997793
0.997585
0.997361
0.997118
0.996858
0.99658
0.99628
0.995959
0.995622
0.99526
0.994878
0.994464
0.994048
0.99359
0.993068
0.992609
0.992181
0.991655
0.991124
0.990624
0.99022
0.989824
0.989382
0.989126
0.989446
0.989959
0.99122
0.992604
1.96871
2.84685
2.77089
2.56262
2.50558
2.4659
2.38121
2.30997
2.25151
2.2629
2.34952
2.44708
2.53241
2.60595
2.68162
2.75972
2.81221
2.85345
2.88435
2.90904
2.93018
2.95059
2.96788
2.98496
3.00012
3.01391
3.02552
3.03597
3.04587
3.05414
3.06024
3.06442
3.06576
3.06268
3.05565
3.04396
3.02182
2.98524
2.96089
2.98267
3.00697
3.05136
3.06657
1
1
1
1
1
1
1
1
1
1
1
1
1
1
1
1
0.999999
0.999999
0.999998
0.999997
0.999995
0.999992
0.999988
0.999982
0.999974
0.999963
0.999949
0.999931
0.999908
0.999878
0.999843
0.9998
0.99975
0.99969
0.999622
0.999545
0.999459
0.999364
0.99926
0.999148
0.999028
0.998901
0.998768
0.99863
0.998487
0.998334
0.99817
0.997991
0.997799
0.99759
0.997366
0.997125
0.996866
0.996586
0.996288
0.995968
0.995627
0.995258
0.994878
0.994476
0.994005
0.993547
0.993098
0.992543
0.992006
0.991523
0.99093
0.990324
0.989756
0.989154
0.988486
0.987805
0.98696
0.986174
0.986346
0.984737
1.79314
2.78731
2.73378
2.53143
2.51682
2.44804
2.42431
2.36961
2.26422
2.32019
2.37281
2.45271
2.53298
2.59138
2.64575
2.7215
2.77557
2.81796
2.85382
2.8812
2.90828
2.93498
2.95647
2.97507
2.98877
3.00155
3.01333
3.02518
3.03714
3.04826
3.05692
3.06279
3.06403
3.06042
3.05275
3.03983
3.01634
2.98481
2.94327
2.95955
2.98006
3.03622
3.05762
1
1
1
1
1
1
1
1
1
1
1
1
1
1
1
1
0.999999
0.999999
0.999998
0.999997
0.999995
0.999992
0.999988
0.999982
0.999974
0.999964
0.99995
0.999931
0.999908
0.999879
0.999844
0.999801
0.999751
0.999692
0.999625
0.999548
0.999463
0.999368
0.999265
0.999153
0.999035
0.998908
0.998775
0.998636
0.998494
0.998343
0.998179
0.998001
0.99781
0.997602
0.997378
0.997136
0.996876
0.996595
0.996295
0.995973
0.995628
0.995262
0.994867
0.994456
0.994015
0.993512
0.993022
0.992506
0.991874
0.991287
0.990692
0.989937
0.989194
0.988534
0.987561
0.986434
0.984811
0.981898
0.978252
0.973459
1.54972
2.75202
2.79645
2.63145
2.55157
2.49048
2.44517
2.4255
2.30595
2.41695
2.46661
2.51066
2.5945
2.62654
2.65763
2.71535
2.77789
2.82819
2.86369
2.89013
2.91431
2.93906
2.95901
2.97578
2.98903
3.00142
3.01312
3.02558
3.03876
3.05113
3.06061
3.0664
3.06646
3.06183
3.05258
3.03967
3.01808
2.98885
2.94451
2.94669
2.95238
3.01174
3.04411
1
1
1
1
1
1
1
1
1
1
1
1
1
1
1
1
0.999999
0.999999
0.999998
0.999997
0.999995
0.999992
0.999988
0.999982
0.999975
0.999964
0.99995
0.999932
0.999909
0.999881
0.999846
0.999803
0.999754
0.999695
0.999629
0.999553
0.999469
0.999374
0.999273
0.999161
0.999045
0.998918
0.998788
0.998649
0.998508
0.998357
0.998194
0.998016
0.997825
0.997617
0.997393
0.997153
0.996893
0.996615
0.996315
0.99599
0.995642
0.995268
0.994868
0.994441
0.99399
0.993507
0.992967
0.992419
0.991828
0.991148
0.99046
0.989685
0.988658
0.987753
0.986454
0.984871
0.982909
0.981314
0.978716
0.980439
1.46321
2.38353
2.65352
2.63541
2.52273
2.47738
2.3484
2.38551
2.35816
2.45403
2.49937
2.55684
2.62487
2.65135
2.68518
2.74208
2.80362
2.86172
2.89657
2.92478
2.94449
2.96595
2.98366
2.99724
3.00798
3.01821
3.02817
3.03911
3.05081
3.06227
3.07037
3.07438
3.07285
3.06582
3.05468
3.04121
3.0207
2.99321
2.94763
2.93515
2.9259
2.97995
3.02032
1
1
1
1
1
1
1
1
1
1
1
1
1
1
1
1
0.999999
0.999999
0.999998
0.999997
0.999995
0.999992
0.999988
0.999983
0.999975
0.999965
0.999951
0.999933
0.99991
0.999882
0.999848
0.999806
0.999757
0.9997
0.999633
0.999559
0.999475
0.999382
0.999281
0.999171
0.999055
0.998929
0.9988
0.998663
0.998523
0.998373
0.998212
0.998035
0.997846
0.997638
0.997416
0.997175
0.996916
0.996637
0.996334
0.99601
0.995659
0.995284
0.994882
0.994451
0.993986
0.993495
0.992959
0.992365
0.991725
0.991025
0.990241
0.989415
0.988573
0.987611
0.986431
0.985232
0.983436
0.981717
0.976485
1.00901
1.71278
2.15925
2.32866
2.562
2.52153
2.45579
2.39412
2.2979
2.34014
2.46423
2.52543
2.56023
2.60194
2.64577
2.70784
2.78422
2.84766
2.90043
2.94846
2.98106
3.00509
3.01916
3.0285
3.03471
3.03937
3.04417
3.05025
3.0581
3.06723
3.07622
3.08267
3.08418
3.08045
3.07121
3.05883
3.04446
3.02346
2.99557
2.95074
2.92714
2.90062
2.9426
2.98718
1
1
1
1
1
1
1
1
1
1
1
1
1
1
1
1
0.999999
0.999999
0.999998
0.999997
0.999995
0.999992
0.999988
0.999983
0.999975
0.999965
0.999952
0.999934
0.999912
0.999884
0.99985
0.99981
0.999761
0.999705
0.999639
0.999567
0.999483
0.999393
0.999292
0.999185
0.999069
0.998946
0.998817
0.998682
0.998542
0.998394
0.998234
0.998059
0.99787
0.997665
0.997443
0.997204
0.996945
0.996667
0.996366
0.99604
0.99569
0.99531
0.994899
0.994459
0.993986
0.993478
0.99294
0.992356
0.991726
0.991034
0.990251
0.989404
0.988502
0.987522
0.986398
0.985163
0.983017
0.983045
0.980003
1.19805
1.96566
2.13103
2.23502
2.46447
2.45249
2.50607
2.53291
2.44489
2.51343
2.58408
2.62551
2.63883
2.65679
2.69562
2.75082
2.81324
2.86369
2.91092
2.96887
3.01647
3.05146
3.07358
3.08844
3.09371
3.09232
3.08774
3.0859
3.087
3.0906
3.09491
3.09742
3.09687
3.09083
3.08026
3.06647
3.05126
3.02891
2.99991
2.95567
2.9255
2.88537
2.90755
2.9461
1
1
1
1
1
1
1
1
1
1
1
1
1
1
1
1
0.999999
0.999999
0.999998
0.999997
0.999995
0.999992
0.999989
0.999983
0.999976
0.999966
0.999953
0.999936
0.999914
0.999887
0.999854
0.999814
0.999766
0.999711
0.999647
0.999575
0.999494
0.999405
0.999306
0.999201
0.999085
0.998966
0.998837
0.998706
0.998567
0.998423
0.998264
0.998092
0.997904
0.9977
0.99748
0.997241
0.996985
0.996708
0.996409
0.996084
0.995735
0.995356
0.99495
0.994514
0.994047
0.993538
0.992997
0.9924
0.991753
0.991031
0.990281
0.989454
0.988606
0.987713
0.986662
0.986112
0.984811
0.98429
0.986333
1.45552
2.1131
2.16218
2.20543
2.40224
2.50584
2.69876
2.66457
2.64218
2.70514
2.7065
2.7285
2.72923
2.73965
2.76739
2.80805
2.85688
2.89674
2.94003
2.99287
3.03322
3.06573
3.0916
3.11639
3.13299
3.13985
3.13609
3.1277
3.12212
3.11813
3.11586
3.11339
3.10835
3.09893
3.0869
3.07302
3.05777
3.03449
3.00432
2.95962
2.92551
2.87135
2.88144
2.89876
1
1
1
1
1
1
1
1
1
1
1
1
1
1
1
1
0.999999
0.999999
0.999998
0.999997
0.999995
0.999993
0.999989
0.999984
0.999977
0.999967
0.999954
0.999937
0.999916
0.99989
0.999858
0.999819
0.999773
0.999719
0.999657
0.999586
0.999507
0.99942
0.999323
0.99922
0.999108
0.998989
0.998864
0.998734
0.998597
0.998455
0.998298
0.99813
0.997944
0.997745
0.997527
0.997292
0.997036
0.996761
0.996463
0.996141
0.995794
0.995418
0.995016
0.994579
0.994113
0.99361
0.993073
0.992491
0.99187
0.991188
0.990464
0.989683
0.988865
0.98801
0.987134
0.985992
0.985435
0.982783
1.00262
1.73049
2.14809
2.18272
2.22889
2.41003
2.63006
2.81806
2.77885
2.76705
2.77687
2.77905
2.78746
2.78906
2.79162
2.8048
2.83541
2.87567
2.91746
2.96659
3.01802
3.05381
3.08593
3.11529
3.14099
3.1556
3.16237
3.16695
3.16956
3.16693
3.16094
3.15125
3.13989
3.12565
3.11046
3.09561
3.08123
3.06562
3.0414
3.01027
2.9646
2.92526
2.86279
2.859
2.84687
1
1
1
1
1
1
1
1
1
1
1
1
1
1
1
1
0.999999
0.999999
0.999998
0.999997
0.999995
0.999993
0.999989
0.999984
0.999977
0.999968
0.999956
0.99994
0.999919
0.999894
0.999862
0.999824
0.99978
0.999727
0.999668
0.999598
0.999523
0.999436
0.999344
0.999242
0.999135
0.999018
0.998897
0.998768
0.998636
0.998494
0.998342
0.998174
0.997993
0.997796
0.997582
0.997351
0.997098
0.996828
0.996533
0.996215
0.995871
0.995499
0.995098
0.994667
0.994203
0.993708
0.993177
0.992608
0.992003
0.991344
0.990631
0.989854
0.989109
0.988161
0.987249
0.985938
0.985678
0.98251
1.13542
1.95743
2.14853
2.18601
2.26743
2.48258
2.7652
2.8697
2.81573
2.79406
2.79913
2.80263
2.80495
2.81016
2.81856
2.83511
2.86431
2.90137
2.94201
2.9837
3.02087
3.05373
3.08735
3.11834
3.14337
3.15731
3.16565
3.17134
3.17473
3.1732
3.16891
3.16005
3.14835
3.13377
3.11701
3.10187
3.08812
3.07233
3.04818
3.01653
2.96974
2.92644
2.8544
2.83402
2.79128
1
1
1
1
1
1
1
1
1
1
1
1
1
1
1
1
0.999999
0.999999
0.999998
0.999997
0.999996
0.999993
0.99999
0.999985
0.999978
0.999969
0.999957
0.999942
0.999922
0.999898
0.999868
0.999831
0.999788
0.999738
0.99968
0.999614
0.99954
0.999458
0.999368
0.999269
0.999165
0.999052
0.998934
0.998809
0.99868
0.998543
0.998395
0.998229
0.998054
0.997859
0.997652
0.997423
0.997177
0.99691
0.99662
0.996308
0.99597
0.995602
0.995205
0.99478
0.994321
0.993832
0.993311
0.99275
0.992153
0.991512
0.990788
0.990059
0.989405
0.988534
0.988024
0.987141
0.987338
0.987929
1.40194
2.14389
2.1981
2.22202
2.34553
2.57261
2.83589
2.87819
2.8459
2.81115
2.79476
2.79701
2.80159
2.80914
2.82085
2.84289
2.87322
2.90805
2.94544
2.98283
3.01468
3.04662
3.08285
3.11543
3.14004
3.15484
3.16544
3.17386
3.17873
3.17864
3.17665
3.1708
3.16086
3.14554
3.12693
3.1104
3.09561
3.07923
3.05533
3.0234
2.97517
2.92842
2.84548
2.80265
2.73105
1
1
1
1
1
1
1
1
1
1
1
1
1
1
1
1
0.999999
0.999999
0.999998
0.999997
0.999996
0.999994
0.99999
0.999986
0.999979
0.999971
0.999959
0.999945
0.999926
0.999903
0.999874
0.999839
0.999798
0.99975
0.999694
0.999632
0.99956
0.999482
0.999395
0.999302
0.9992
0.999092
0.998978
0.998858
0.998732
0.9986
0.998455
0.998297
0.998124
0.997935
0.997732
0.997508
0.997269
0.997008
0.996724
0.996417
0.996084
0.995723
0.995332
0.994912
0.994461
0.993979
0.993463
0.992915
0.992321
0.991709
0.991027
0.990314
0.989716
0.98898
0.988489
0.988138
0.986074
1.00198
1.68794
2.19422
2.24628
2.31099
2.49673
2.72884
2.90415
2.87342
2.84102
2.82362
2.798
2.79722
2.80084
2.80542
2.81525
2.83736
2.86677
2.90134
2.93799
2.97281
3.00251
3.0348
3.0715
3.10292
3.12463
3.13885
3.15285
3.1648
3.17279
3.17558
3.17462
3.17011
3.1613
3.14829
3.13229
3.11678
3.10249
3.08676
3.06343
3.03177
2.98155
2.92855
2.83743
2.76174
2.66664
1
1
1
1
1
1
1
1
1
1
1
1
1
1
1
1
0.999999
0.999999
0.999998
0.999997
0.999996
0.999994
0.999991
0.999986
0.99998
0.999972
0.999962
0.999948
0.99993
0.999908
0.999881
0.999848
0.999809
0.999764
0.999711
0.999652
0.999584
0.99951
0.999427
0.999338
0.99924
0.999138
0.999028
0.998914
0.998793
0.998666
0.998527
0.998374
0.998208
0.998026
0.997828
0.997611
0.997377
0.997124
0.996846
0.996547
0.99622
0.995867
0.995483
0.995069
0.994624
0.994146
0.993633
0.993096
0.992515
0.991902
0.991266
0.990625
0.989858
0.989202
0.988136
0.987793
0.98495
1.11227
1.97531
2.19193
2.25373
2.39763
2.64082
2.88582
2.91425
2.87454
2.83552
2.81704
2.79318
2.79368
2.79762
2.80261
2.8136
2.83409
2.85968
2.89095
2.92351
2.95502
2.98566
3.02022
3.0545
3.08346
3.10384
3.12088
3.13854
3.15311
3.16342
3.16906
3.16956
3.16646
3.15896
3.14701
3.13213
3.11804
3.10519
3.09115
3.06972
3.04027
2.98891
2.92819
2.82935
2.7132
2.60606
1
1
1
1
1
1
1
1
1
1
1
1
1
1
1
1
0.999999
0.999999
0.999999
0.999998
0.999996
0.999994
0.999991
0.999987
0.999982
0.999974
0.999964
0.999951
0.999935
0.999914
0.999889
0.999858
0.999822
0.999779
0.99973
0.999674
0.999611
0.99954
0.999462
0.999378
0.999287
0.99919
0.999085
0.998977
0.998861
0.998741
0.998608
0.998461
0.998303
0.998128
0.997938
0.997728
0.997505
0.997257
0.99699
0.996695
0.996377
0.996031
0.995657
0.995249
0.994806
0.994326
0.993816
0.993264
0.99268
0.992055
0.99138
0.990673
0.989897
0.989396
0.988487
0.988854
0.989304
1.39853
2.18317
2.25115
2.3083
2.52337
2.76878
2.93468
2.88933
2.84985
2.82639
2.80606
2.78944
2.78681
2.7889
2.79257
2.80323
2.82111
2.846
2.87588
2.90694
2.93836
2.96839
3.00294
3.03407
3.05945
3.08051
3.10132
3.12244
3.13878
3.15109
3.15919
3.16149
3.15954
3.1535
3.14318
3.13021
3.11729
3.10518
3.09234
3.07237
3.04419
2.99444
2.92722
2.81996
2.6618
2.5524
1
1
1
1
1
1
1
1
1
1
1
1
1
1
1
1
1
0.999999
0.999999
0.999998
0.999997
0.999995
0.999992
0.999988
0.999983
0.999976
0.999967
0.999955
0.99994
0.999921
0.999897
0.999869
0.999836
0.999796
0.999751
0.999698
0.99964
0.999574
0.999503
0.999424
0.999339
0.999248
0.99915
0.999048
0.998938
0.998826
0.998701
0.998563
0.998412
0.998247
0.998066
0.997868
0.997652
0.997414
0.997155
0.99687
0.996562
0.996222
0.995855
0.995449
0.995013
0.994529
0.99401
0.993437
0.992838
0.992221
0.991547
0.991
0.990295
0.989823
0.989391
0.987691
1.0036
1.72933
2.22951
2.33812
2.4698
2.7081
2.87845
2.90763
2.8778
2.83447
2.80996
2.79229
2.78041
2.77638
2.77788
2.78258
2.79009
2.80546
2.827
2.85452
2.88555
2.92019
2.95125
2.98359
3.01022
3.03466
3.05788
3.0815
3.10503
3.12317
3.13728
3.14682
3.15091
3.14978
3.14515
3.13688
3.12635
3.11534
3.10444
3.09244
3.0729
3.04518
2.99578
2.92648
2.80887
2.62369
2.51122
1
1
1
1
1
1
1
1
1
1
1
1
1
1
1
1
1
0.999999
0.999999
0.999998
0.999997
0.999995
0.999993
0.999989
0.999985
0.999978
0.99997
0.999959
0.999945
0.999928
0.999907
0.999881
0.99985
0.999814
0.999773
0.999725
0.999672
0.999612
0.999547
0.999474
0.999397
0.999312
0.999223
0.999127
0.999027
0.99892
0.998803
0.998675
0.998534
0.998381
0.998211
0.998026
0.997819
0.997595
0.997346
0.997075
0.996775
0.996445
0.996082
0.995682
0.995241
0.99477
0.994249
0.993669
0.993075
0.992397
0.991676
0.990814
0.990091
0.988744
0.988079
0.985034
1.12481
2.0385
2.26371
2.37475
2.63346
2.86724
2.93311
2.88446
2.84693
2.81787
2.79638
2.77916
2.766
2.76025
2.76201
2.7677
2.77559
2.7896
2.80821
2.83508
2.86622
2.9003
2.93197
2.96114
2.98556
3.01031
3.03515
3.06055
3.08595
3.10614
3.12191
3.13235
3.13812
3.13802
3.13494
3.12893
3.12115
3.11226
3.10307
3.09217
3.07266
3.04497
2.99542
2.92513
2.79699
2.60051
2.48565
1
1
1
1
1
1
1
1
1
1
1
1
1
1
1
1
1
0.999999
0.999999
0.999998
0.999997
0.999996
0.999994
0.999991
0.999986
0.999981
0.999973
0.999963
0.999951
0.999936
0.999917
0.999894
0.999866
0.999834
0.999797
0.999755
0.999707
0.999653
0.999594
0.999529
0.999459
0.999382
0.999302
0.999216
0.999125
0.999028
0.998922
0.998803
0.998675
0.99853
0.998375
0.9982
0.998012
0.9978
0.997569
0.997312
0.997026
0.996711
0.996357
0.995974
0.995544
0.995066
0.994536
0.993948
0.993291
0.992522
0.991679
0.990854
0.989937
0.988534
0.988494
0.988034
1.44406
2.25024
2.36114
2.50751
2.77975
2.92398
2.90474
2.86831
2.83967
2.80591
2.78142
2.76287
2.74866
2.74538
2.74582
2.75049
2.75891
2.77168
2.78959
2.81544
2.84579
2.87942
2.91115
2.93773
2.96278
2.98723
3.01172
3.0375
3.06515
3.08751
3.1048
3.11565
3.12288
3.12455
3.12335
3.11969
3.11479
3.10844
3.10104
3.09104
3.07143
3.04341
2.99339
2.92424
2.78826
2.58472
2.46956
1
1
1
1
1
1
1
1
1
1
1
1
1
1
1
1
1
0.999999
0.999999
0.999999
0.999998
0.999996
0.999994
0.999992
0.999988
0.999983
0.999977
0.999968
0.999957
0.999944
0.999927
0.999907
0.999883
0.999855
0.999823
0.999786
0.999744
0.999698
0.999645
0.999589
0.999526
0.999461
0.999388
0.999313
0.999231
0.999145
0.99905
0.998945
0.99883
0.998701
0.998561
0.998403
0.99823
0.998035
0.997824
0.997583
0.997323
0.997024
0.996699
0.996328
0.995912
0.995443
0.994887
0.994286
0.993602
0.99287
0.992091
0.991138
0.990583
0.989783
0.987787
1.00695
1.83163
2.33433
2.48969
2.7203
2.933
2.93865
2.90805
2.86774
2.8292
2.79289
2.76841
2.75271
2.74035
2.73696
2.73409
2.73644
2.74158
2.75263
2.77008
2.79523
2.82451
2.85689
2.88827
2.91499
2.94108
2.96558
2.99079
3.01652
3.04439
3.06811
3.08642
3.0979
3.10626
3.10988
3.11126
3.11013
3.10789
3.10403
3.0982
3.08866
3.06921
3.04026
2.99086
2.92306
2.78208
2.57446
2.45852
1
1
1
1
1
1
1
1
1
1
1
1
1
1
1
1
1
1
0.999999
0.999999
0.999998
0.999997
0.999995
0.999993
0.99999
0.999986
0.99998
0.999973
0.999964
0.999952
0.999938
0.999922
0.999901
0.999878
0.999851
0.999819
0.999784
0.999744
0.9997
0.999652
0.9996
0.999543
0.999481
0.999417
0.999346
0.999273
0.99919
0.9991
0.998999
0.99889
0.998765
0.99863
0.998475
0.998307
0.998116
0.997905
0.997667
0.997398
0.997097
0.996749
0.996358
0.995913
0.995424
0.994877
0.994244
0.993532
0.992621
0.991615
0.989668
0.987848
0.984523
1.15555
2.14974
2.4566
2.64466
2.8891
2.96482
2.931
2.88053
2.84579
2.81162
2.78267
2.76163
2.7471
2.73594
2.72879
2.72335
2.72437
2.72825
2.73728
2.75235
2.77482
2.80244
2.83379
2.86455
2.89267
2.91976
2.94453
2.97055
2.99686
3.02432
3.04738
3.06656
3.07916
3.08881
3.09447
3.09901
3.10053
3.10061
3.09885
3.09414
3.08482
3.06552
3.03589
2.98791
2.92253
2.77995
2.56975
2.4522
1
1
1
1
1
1
1
1
1
1
1
1
1
1
1
1
1
1
0.999999
0.999999
0.999998
0.999998
0.999996
0.999994
0.999992
0.999988
0.999984
0.999978
0.999971
0.999961
0.99995
0.999936
0.99992
0.999901
0.999879
0.999854
0.999825
0.999793
0.999758
0.999718
0.999676
0.999629
0.99958
0.999526
0.99947
0.999408
0.999342
0.999265
0.999184
0.999091
0.99899
0.998877
0.998751
0.998611
0.998451
0.998274
0.998068
0.997841
0.99758
0.997289
0.996956
0.996564
0.996106
0.99556
0.994876
0.994075
0.993201
0.992515
0.99134
0.991613
0.995954
1.57515
2.33856
2.63231
2.82754
2.974
2.93548
2.8957
2.86283
2.82976
2.80054
2.77758
2.75842
2.74215
2.73037
2.71994
2.71379
2.71385
2.71659
2.72397
2.73675
2.75636
2.78177
2.8118
2.84217
2.87196
2.89942
2.92509
2.95203
2.97812
3.00415
3.02614
3.04582
3.05975
3.07135
3.07904
3.08666
3.09088
3.09298
3.09254
3.08834
3.07911
3.06022
3.03088
2.98514
2.92247
2.78202
2.57069
2.4486
1
1
1
1
1
1
1
1
1
1
1
1
1
1
1
1
1
1
1
0.999999
0.999999
0.999998
0.999997
0.999996
0.999994
0.999991
0.999988
0.999983
0.999978
0.99997
0.999962
0.999951
0.999939
0.999924
0.999907
0.999888
0.999866
0.999842
0.999815
0.999786
0.999753
0.999719
0.999681
0.999641
0.999597
0.999551
0.9995
0.999443
0.999381
0.99931
0.999234
0.999147
0.999052
0.998942
0.998822
0.998681
0.998526
0.998346
0.998142
0.997899
0.997622
0.997298
0.996963
0.996549
0.996145
0.995617
0.99498
0.993753
0.992809
0.990312
1.03765
2.05242
2.54856
2.76513
2.95591
2.94606
2.91138
2.87749
2.84244
2.81311
2.78758
2.76738
2.74952
2.73175
2.72108
2.71105
2.70574
2.7043
2.70592
2.71171
2.72207
2.73932
2.76282
2.7916
2.82093
2.85158
2.87931
2.90526
2.93322
2.95924
2.98447
3.00583
3.02583
3.04134
3.0548
3.06431
3.07422
3.08081
3.08458
3.08462
3.08053
3.07154
3.05364
3.02512
2.98233
2.92131
2.787
2.57385
2.44591
1
1
1
1
1
1
1
1
1
1
1
1
1
1
1
1
1
1
1
1
0.999999
0.999999
0.999998
0.999997
0.999996
0.999994
0.999992
0.999988
0.999984
0.999979
0.999973
0.999966
0.999957
0.999947
0.999936
0.999923
0.999908
0.999891
0.999873
0.999853
0.999831
0.999807
0.999782
0.999755
0.999724
0.999694
0.999659
0.999622
0.99958
0.999534
0.999483
0.999427
0.999364
0.999294
0.999214
0.999124
0.999021
0.998907
0.998773
0.998618
0.998438
0.998217
0.997965
0.997618
0.997163
0.996608
0.996147
0.99534
0.995649
0.998043
1.42887
2.38732
2.77254
2.8847
2.95968
2.92147
2.87834
2.84495
2.81378
2.78875
2.76692
2.74914
2.73465
2.71929
2.7108
2.70234
2.69789
2.69542
2.69595
2.69994
2.70813
2.72288
2.74436
2.77174
2.80075
2.83136
2.85934
2.88603
2.91464
2.94032
2.96494
2.98601
3.00614
3.02325
3.03864
3.04994
3.06169
3.06972
3.07447
3.07492
3.07119
3.06278
3.04613
3.01917
2.97885
2.91923
2.79452
2.57896
2.44437
1
1
1
1
1
1
1
1
1
1
1
1
1
1
1
1
1
1
1
1
1
0.999999
0.999999
0.999999
0.999998
0.999997
0.999995
0.999994
0.999991
0.999988
0.999985
0.999981
0.999976
0.99997
0.999963
0.999956
0.999947
0.999938
0.999928
0.999918
0.999906
0.999893
0.99988
0.999865
0.999849
0.999833
0.999816
0.999796
0.999776
0.999753
0.99973
0.999704
0.999676
0.999645
0.99961
0.99957
0.999525
0.999476
0.999417
0.999339
0.999261
0.999173
0.999097
0.999019
0.998836
0.998696
0.998389
0.99815
0.99677
1.02984
1.98959
2.6467
2.85336
2.95502
2.90657
2.86822
2.84291
2.81565
2.79044
2.76387
2.74548
2.73019
2.71858
2.70616
2.69907
2.69126
2.68739
2.68442
2.68404
2.68736
2.6944
2.70752
2.72739
2.75337
2.78184
2.81185
2.84006
2.86709
2.89597
2.9217
2.94606
2.96723
2.98738
3.00604
3.02282
3.03601
3.04874
3.05722
3.06277
3.06372
3.06058
3.05327
3.03821
3.01305
2.97482
2.9169
2.80236
2.58682
2.44448
1
1
1
1
1
1
1
1
1
1
1
1
1
1
1
1
1
1
1
1
1
1
1
1
1
0.999999
0.999999
0.999999
0.999998
0.999997
0.999996
0.999994
0.999993
0.999991
0.999989
0.999987
0.999985
0.999983
0.999981
0.999979
0.999977
0.999975
0.999972
0.999969
0.999966
0.999964
0.999964
0.999962
0.999962
0.99996
0.999961
0.999963
0.999969
0.999978
0.999986
0.999995
1.00001
1.00002
1.00006
1.00009
1.00009
1.00009
1.00004
1.00005
0.999987
0.99997
1.00006
1.00048
1.00323
1.38663
2.45908
2.84798
2.92583
2.91218
2.87598
2.84815
2.81582
2.78489
2.75983
2.73695
2.72224
2.70939
2.69943
2.6899
2.68367
2.67706
2.67434
2.67191
2.67101
2.67404
2.68048
2.69215
2.71038
2.73479
2.76294
2.79221
2.82062
2.84824
2.87734
2.90308
2.92779
2.94922
2.96977
2.9894
3.00735
3.02192
3.03468
3.04324
3.04963
3.05165
3.04941
3.04355
3.03004
3.00653
2.9698
2.91358
2.80734
2.59637
2.44581
1
1
1
1
1
1
1
1
1
1
1
1
1
1
1
1
1
1
1
1
1
1
1
1
1
1
1
1
1
1
1.00001
1.00001
1.00001
1.00001
1.00001
1.00002
1.00002
1.00002
1.00003
1.00003
1.00004
1.00005
1.00006
1.00006
1.00007
1.00008
1.00009
1.00012
1.00013
1.00015
1.00016
1.00019
1.00024
1.00029
1.00032
1.00036
1.00041
1.0005
1.00062
1.00073
1.00083
1.00095
1.00113
1.00134
1.00155
1.00155
1.0018
1.00148
1.03016
1.98673
2.77239
2.90524
2.89898
2.86497
2.83731
2.81
2.78193
2.75467
2.7347
2.71656
2.70324
2.68975
2.67795
2.66966
2.66427
2.65958
2.65853
2.65719
2.65668
2.65951
2.66596
2.67668
2.69339
2.71643
2.74375
2.7724
2.80148
2.82963
2.85886
2.88495
2.91015
2.93197
2.95303
2.97331
2.99173
3.00743
3.02021
3.02885
3.03592
3.03898
3.03765
3.03316
3.021
2.99897
2.96348
2.90927
2.80869
2.60558
2.44936
1
1
1
1
1
1
1
1
1
1
1
1
1
1
1
1
1
1
1
1
1
1
1
1
1
1
1.00001
1.00001
1.00001
1.00001
1.00002
1.00002
1.00002
1.00003
1.00004
1.00004
1.00005
1.00006
1.00007
1.00008
1.0001
1.00011
1.00013
1.00014
1.00016
1.00018
1.0002
1.00023
1.00026
1.0003
1.00034
1.00039
1.00045
1.00052
1.0006
1.00068
1.00078
1.00089
1.00103
1.00119
1.00139
1.0016
1.0019
1.00229
1.00276
1.00325
1.00387
1.00594
1.42256
2.50291
2.87981
2.88265
2.8531
2.82318
2.80009
2.7731
2.74579
2.72372
2.70743
2.69409
2.68178
2.66871
2.65615
2.64736
2.64237
2.63973
2.64023
2.63983
2.63972
2.64244
2.64919
2.65989
2.67586
2.69777
2.72425
2.75256
2.78258
2.81105
2.84033
2.86687
2.89278
2.91506
2.93694
2.95712
2.97601
2.99232
3.00523
3.01425
3.02179
3.02623
3.02588
3.0223
3.01088
2.98988
2.95551
2.90348
2.80695
2.6114
2.45472
1
1
1
1
1
1
1
1
1
1
1
1
1
1
1
1
1
1
1
1
1
1
1
1
1.00001
1.00001
1.00001
1.00001
1.00002
1.00002
1.00002
1.00003
1.00004
1.00005
1.00005
1.00007
1.00008
1.00009
1.00011
1.00012
1.00014
1.00016
1.00018
1.00021
1.00023
1.00026
1.00029
1.00033
1.00037
1.00042
1.00047
1.00054
1.00061
1.00069
1.00079
1.00091
1.00105
1.00119
1.00137
1.00157
1.00178
1.00201
1.00229
1.00266
1.00314
1.00391
1.00436
1.02199
2.03447
2.86552
2.87241
2.84472
2.81877
2.79732
2.76958
2.7441
2.71826
2.69928
2.68282
2.66983
2.6565
2.64428
2.63321
2.62583
2.62073
2.61814
2.61869
2.61859
2.6196
2.62359
2.63087
2.64167
2.65737
2.67872
2.70448
2.73265
2.76377
2.79251
2.82176
2.84872
2.87528
2.89828
2.9208
2.9415
2.95975
2.97729
2.99051
3.00009
3.00802
3.01318
3.01353
3.01035
2.99918
2.97887
2.94566
2.89594
2.80254
2.61331
2.46085
1
1
1
1
1
1
1
1
1
1
1
1
1
1
1
1
1
1
1
1
1
1
1
1
1.00001
1.00001
1.00001
1.00002
1.00002
1.00003
1.00003
1.00004
1.00005
1.00006
1.00007
1.00008
1.0001
1.00012
1.00014
1.00016
1.00018
1.0002
1.00023
1.00026
1.00029
1.00032
1.00036
1.0004
1.00045
1.0005
1.00056
1.00063
1.00071
1.0008
1.00091
1.00104
1.0012
1.00138
1.00158
1.00181
1.00202
1.00226
1.00255
1.00281
1.00322
1.00366
1.00513
1.42327
2.55905
2.86342
2.84619
2.81098
2.78316
2.75742
2.73114
2.71087
2.69016
2.67454
2.65881
2.64486
2.63048
2.619
2.61005
2.60415
2.60001
2.59724
2.59627
2.59573
2.59737
2.60247
2.61094
2.6225
2.63813
2.65887
2.68399
2.71279
2.74447
2.77309
2.8024
2.82991
2.8571
2.88118
2.90516
2.9253
2.94435
2.96219
2.97596
2.98613
2.99449
2.99994
3.00004
2.9966
2.98561
2.96625
2.93434
2.88684
2.79577
2.61174
2.46678
1
1
1
1
1
1
1
1
1
1
1
1
1
1
1
1
1
1
1
1
1
1
1
1.00001
1.00001
1.00001
1.00001
1.00002
1.00002
1.00003
1.00004
1.00005
1.00006
1.00007
1.00008
1.0001
1.00012
1.00014
1.00016
1.00018
1.00021
1.00023
1.00026
1.00029
1.00032
1.00036
1.0004
1.00044
1.00049
1.00055
1.00062
1.00069
1.00077
1.00085
1.00095
1.00106
1.00119
1.00135
1.00154
1.00178
1.00208
1.00235
1.0026
1.00286
1.00318
1.00352
1.01104
1.99989
2.89061
2.83513
2.79295
2.77122
2.74211
2.71909
2.6979
2.68161
2.66458
2.65021
2.63519
2.62155
2.60646
2.59441
2.58647
2.58215
2.57873
2.57572
2.57371
2.57299
2.57475
2.57963
2.58808
2.59987
2.61595
2.6372
2.66283
2.69212
2.72401
2.7528
2.78263
2.81056
2.83849
2.86393
2.88886
2.91043
2.9285
2.94753
2.96185
2.97283
2.9814
2.98665
2.98633
2.98212
2.97094
2.95233
2.9217
2.87625
2.78713
2.60648
2.47196
1
1
1
1
1
1
1
1
1
1
1
1
1
1
1
1
1
1
1
1
1
1
1
1.00001
1.00001
1.00001
1.00002
1.00002
1.00003
1.00004
1.00004
1.00005
1.00007
1.00008
1.0001
1.00011
1.00013
1.00015
1.00018
1.0002
1.00023
1.00025
1.00028
1.00031
1.00035
1.00038
1.00042
1.00046
1.00051
1.00057
1.00063
1.0007
1.00077
1.00086
1.00094
1.00104
1.00116
1.00129
1.00143
1.00162
1.00184
1.00215
1.00248
1.00295
1.00342
1.00414
1.35579
2.58096
2.80439
2.78374
2.76463
2.74214
2.71465
2.69281
2.66996
2.65257
2.63743
2.62442
2.61059
2.59771
2.58362
2.57182
2.56341
2.55888
2.55595
2.55335
2.552
2.55144
2.55296
2.55725
2.56514
2.5766
2.59254
2.61391
2.64012
2.67004
2.70191
2.73221
2.76232
2.79061
2.81976
2.84656
2.87378
2.89459
2.91438
2.93325
2.94819
2.95987
2.96823
2.97264
2.97169
2.96724
2.95599
2.93791
2.90829
2.86442
2.77653
2.59758
2.47574
1
1
1
1
1
1
1
1
1
1
1
1
1
1
1
1
1
1
1
1
1
1
1.00001
1.00001
1.00001
1.00001
1.00002
1.00002
1.00003
1.00004
1.00005
1.00006
1.00007
1.00009
1.00011
1.00012
1.00014
1.00017
1.00019
1.00021
1.00024
1.00027
1.0003
1.00033
1.00036
1.00039
1.00043
1.00047
1.00052
1.00057
1.00062
1.00068
1.00075
1.00082
1.0009
1.00099
1.00108
1.00119
1.0013
1.00147
1.00162
1.00177
1.00187
1.00205
1.00235
1.00723
1.94297
2.8132
2.77332
2.75112
2.73155
2.70483
2.6814
2.65987
2.64256
2.62888
2.61619
2.6028
2.58838
2.57455
2.56068
2.54943
2.54065
2.535
2.53126
2.52926
2.52885
2.5296
2.53117
2.53447
2.54138
2.55234
2.56865
2.59028
2.61682
2.64675
2.67911
2.71051
2.74148
2.77109
2.80081
2.83007
2.85743
2.88032
2.89978
2.9195
2.93465
2.94702
2.95491
2.95876
2.95734
2.95249
2.9412
2.9232
2.89434
2.85162
2.76375
2.58512
2.47805
1
1
1
1
1
1
1
1
1
1
1
1
1
1
1
1
1
1
1
1
1
1
1.00001
1.00001
1.00001
1.00002
1.00002
1.00003
1.00003
1.00004
1.00005
1.00007
1.00008
1.0001
1.00011
1.00013
1.00015
1.00018
1.0002
1.00022
1.00025
1.00028
1.00031
1.00034
1.00037
1.0004
1.00044
1.00047
1.00052
1.00056
1.00061
1.00066
1.00072
1.00078
1.00085
1.00092
1.00099
1.00106
1.00113
1.00122
1.00132
1.0014
1.00174
1.00184
1.0023
1.3006
2.50325
2.74552
2.71922
2.7021
2.68859
2.66711
2.64726
2.62855
2.61633
2.60671
2.59536
2.58108
2.56667
2.55333
2.54
2.52949
2.51987
2.51303
2.5079
2.50551
2.50656
2.50914
2.51101
2.51374
2.51916
2.52892
2.54461
2.56625
2.59276
2.62259
2.65491
2.68848
2.72083
2.75095
2.78313
2.81244
2.84211
2.86479
2.88608
2.90592
2.92127
2.93389
2.94113
2.94486
2.94295
2.93781
2.92663
2.909
2.88035
2.83816
2.75013
2.57107
2.47948
1
1
1
1
1
1
1
1
1
1
1
1
1
1
1
1
1
1
1
1
1
1
1.00001
1.00001
1.00001
1.00002
1.00002
1.00003
1.00004
1.00005
1.00006
1.00007
1.00009
1.0001
1.00012
1.00014
1.00016
1.00018
1.00021
1.00023
1.00026
1.00029
1.00032
1.00035
1.00038
1.00041
1.00044
1.00048
1.00052
1.00056
1.0006
1.00064
1.00069
1.00074
1.00079
1.00085
1.00091
1.00097
1.00104
1.00107
1.00111
1.00107
1.00106
1.00101
1.00225
1.85166
2.70299
2.70569
2.69393