/*--------------------------------*- C++ -*----------------------------------*\
| =========                 |                                                 |
| \\      /  F ield         | OpenFOAM: The Open Source CFD Toolbox           |
|  \\    /   O peration     | Version:  2.2.x                                 |
|   \\  /    A nd           | Web:      www.OpenFOAM.org                      |
|    \\/     M anipulation  |                                                 |
\*---------------------------------------------------------------------------*/
FoamFile
{
    version     2.0;
    format      ascii;
    class       volScalarField;
    location    "2.1";
    object      rho;
}
// * * * * * * * * * * * * * * * * * * * * * * * * * * * * * * * * * * * * * //

dimensions      [1 -3 0 0 0 0 0];

internalField   nonuniform List<scalar> 
14161
(
0.991054
0.991334
0.991098
0.990816
0.990423
0.989957
0.989431
0.988806
0.988116
0.98749
0.986693
0.985833
0.98512
0.984364
0.983499
0.982739
0.982012
0.981342
0.980839
0.980372
0.979895
0.979487
0.979298
0.979242
0.979284
0.979361
0.979511
0.97984
0.980165
0.980501
0.980922
0.981462
0.982153
0.982332
0.981819
0.978968
0.975821
0.993645
1.59715
2.61433
2.43713
2.37211
2.37378
2.37475
2.37685
2.3789
2.37632
2.37579
2.37734
2.37566
2.37377
2.36921
2.36327
2.35542
2.3469
2.33784
2.3282
2.31843
2.30912
2.3003
2.29141
2.28296
2.27533
2.26805
2.26051
2.25307
2.24661
2.24122
2.23645
2.2316
2.22709
2.22338
2.22062
2.21984
2.21955
2.22094
2.22603
2.23173
2.24285
2.25773
2.2749
2.28998
2.30191
2.31277
2.32281
2.33158
2.33806
2.34683
2.35925
2.37844
2.4059
2.4307
2.45581
2.46801
2.47966
2.48593
2.49054
2.49273
2.48987
2.48727
2.4968
2.51078
2.53034
2.55865
2.58998
2.63018
2.6751
2.7345
2.79002
2.85326
2.91176
2.97573
3.02314
3.07348
3.10764
3.14891
3.17291
3.20224
3.24789
0.991036
0.991316
0.991076
0.990785
0.99041
0.989947
0.989405
0.98878
0.988107
0.987479
0.986666
0.985799
0.98509
0.984349
0.983484
0.982711
0.981978
0.981323
0.980827
0.980347
0.979847
0.979425
0.979218
0.979162
0.9792
0.979299
0.979462
0.979832
0.980253
0.980571
0.981039
0.981681
0.982734
0.983547
0.984035
0.984122
0.984373
1.00261
1.70845
2.42079
2.44123
2.45078
2.4594
2.46765
2.46672
2.46289
2.4503
2.43967
2.42793
2.41275
2.39936
2.38259
2.36756
2.35125
2.33692
2.32152
2.30735
2.29334
2.28057
2.26849
2.25707
2.2465
2.23648
2.22564
2.21517
2.20566
2.19714
2.18912
2.18135
2.17498
2.16948
2.16438
2.16094
2.15831
2.15683
2.1575
2.16464
2.17693
2.19188
2.20919
2.23043
2.25301
2.26838
2.28184
2.29264
2.30912
2.31993
2.32433
2.33959
2.38169
2.42978
2.48189
2.5329
2.56228
2.59112
2.61448
2.63605
2.65221
2.66229
2.67951
2.70447
2.72851
2.75012
2.77449
2.79732
2.82146
2.84727
2.8772
2.90668
2.94032
2.97636
3.0212
3.05946
3.10443
3.1372
3.1779
3.20139
3.22149
3.26221
0.991031
0.991307
0.991067
0.990776
0.990401
0.989941
0.989397
0.988762
0.988069
0.987452
0.986703
0.985835
0.985087
0.984288
0.983433
0.982672
0.981957
0.981315
0.980821
0.980343
0.979829
0.979397
0.979186
0.979127
0.979164
0.979255
0.979454
0.979754
0.980035
0.980363
0.980739
0.981203
0.981879
0.982104
0.981973
0.982154
0.979286
1.07463
2.03743
2.58212
2.68548
2.68317
2.66048
2.64663
2.63024
2.61204
2.587
2.56643
2.54651
2.52546
2.50522
2.48329
2.46265
2.44138
2.42153
2.40111
2.38202
2.36292
2.34571
2.32954
2.31451
2.29944
2.28528
2.2734
2.26283
2.25307
2.24398
2.23489
2.22697
2.22029
2.21455
2.20991
2.20562
2.20316
2.20357
2.20874
2.21743
2.22846
2.24871
2.27728
2.29976
2.31857
2.33761
2.36623
2.38192
2.39146
2.42279
2.47255
2.51297
2.57647
2.66369
2.71749
2.77144
2.79843
2.82676
2.8477
2.86071
2.87138
2.87717
2.8852
2.89426
2.90167
2.90942
2.9189
2.92911
2.93563
2.94443
2.95567
2.96882
2.9844
3.00225
3.02743
3.05436
3.08617
3.11818
3.15241
3.174
3.20075
3.24223
0.991018
0.991292
0.991051
0.990757
0.990369
0.989905
0.989366
0.988749
0.9881
0.987447
0.986648
0.985765
0.985016
0.984311
0.983497
0.982678
0.981896
0.981238
0.980725
0.980255
0.979746
0.979318
0.979105
0.97903
0.979057
0.979147
0.979326
0.979634
0.980176
0.980672
0.981168
0.981963
0.98328
0.985299
0.988032
0.994567
0.996562
1.12254
2.21543
2.63179
2.73079
2.72715
2.69325
2.67881
2.66015
2.64459
2.61738
2.59455
2.57422
2.55202
2.53162
2.50827
2.48592
2.46141
2.43989
2.41709
2.39873
2.3792
2.36007
2.34285
2.33029
2.31763
2.30466
2.29356
2.28355
2.27498
2.26634
2.25797
2.25103
2.24525
2.24017
2.23612
2.23293
2.23099
2.23087
2.23321
2.24167
2.24992
2.26651
2.28647
2.30684
2.3322
2.35131
2.36542
2.40371
2.45534
2.48457
2.52588
2.61674
2.68721
2.72109
2.78082
2.84503
2.86706
2.89765
2.91169
2.9231
2.93182
2.93407
2.93532
2.93592
2.93552
2.93369
2.93361
2.93544
2.93969
2.94772
2.96004
2.97474
2.99009
3.00596
3.03072
3.05613
3.09088
3.12222
3.15824
3.17869
3.19898
3.22085
0.991017
0.991285
0.991043
0.990748
0.990358
0.989903
0.989356
0.988734
0.988055
0.987398
0.986665
0.985797
0.98499
0.984238
0.983467
0.982646
0.981857
0.981195
0.980683
0.980209
0.979707
0.979268
0.979069
0.978968
0.978982
0.979065
0.979195
0.979418
0.97975
0.980154
0.980551
0.980967
0.981516
0.982302
0.982964
0.985608
0.978771
1.09259
2.23524
2.64796
2.76018
2.7629
2.74478
2.73435
2.71263
2.69365
2.66021
2.6334
2.6062
2.57741
2.55057
2.52077
2.49361
2.4658
2.44194
2.41735
2.3932
2.36894
2.34873
2.3291
2.31345
2.29914
2.28411
2.27149
2.26072
2.25168
2.24345
2.23447
2.22604
2.21804
2.21135
2.20685
2.20144
2.19793
2.19694
2.19895
2.20836
2.2202
2.23415
2.26251
2.28591
2.30841
2.33238
2.37559
2.41222
2.43711
2.49721
2.56897
2.59888
2.64785
2.71984
2.76731
2.81692
2.85913
2.89933
2.91534
2.92925
2.93932
2.94584
2.94962
2.95224
2.95146
2.94938
2.94986
2.95061
2.9542
2.9601
2.97145
2.98466
3.00005
3.01422
3.03827
3.06365
3.10152
3.13332
3.16704
3.18311
3.19507
3.20679
0.991009
0.991273
0.991029
0.99073
0.990339
0.989879
0.989339
0.988727
0.988047
0.987333
0.986618
0.985778
0.984942
0.98419
0.98338
0.98255
0.98182
0.981184
0.980669
0.980154
0.979609
0.979164
0.978969
0.978885
0.978907
0.978979
0.979094
0.979305
0.979693
0.980178
0.980746
0.981499
0.982741
0.984849
0.988148
0.996439
0.997517
1.11136
2.16788
2.61353
2.72851
2.72754
2.69993
2.68324
2.64852
2.62322
2.5897
2.55439
2.52316
2.49215
2.46867
2.43928
2.41316
2.39029
2.37617
2.35983
2.34313
2.32547
2.31171
2.30071
2.29316
2.28428
2.2748
2.26523
2.25769
2.25184
2.24865
2.24367
2.23798
2.23199
2.2271
2.22449
2.22299
2.21965
2.21595
2.21701
2.2173
2.22958
2.23873
2.25891
2.27729
2.30178
2.32655
2.35605
2.38461
2.43837
2.48838
2.51247
2.55205
2.6121
2.64275
2.68332
2.75028
2.79056
2.84141
2.87477
2.89756
2.91348
2.92463
2.93106
2.93505
2.93426
2.93367
2.9336
2.9372
2.94543
2.95274
2.96495
2.97922
2.99515
3.01194
3.03838
3.06801
3.10699
3.13795
3.16593
3.18386
3.18764
3.1912
0.991008
0.991268
0.991021
0.99072
0.990327
0.989857
0.989312
0.988705
0.988017
0.987288
0.986603
0.985773
0.984899
0.984144
0.983368
0.982521
0.981774
0.981124
0.980588
0.980056
0.979499
0.979065
0.978854
0.978785
0.978786
0.978817
0.978908
0.97905
0.979229
0.979547
0.979912
0.980268
0.980678
0.981358
0.982297
0.984867
0.982255
1.0655
2.01846
2.55323
2.68915
2.66939
2.63867
2.61001
2.56867
2.53751
2.5029
2.46738
2.44199
2.41971
2.40165
2.37885
2.36033
2.34588
2.33904
2.32947
2.31801
2.30866
2.29878
2.29242
2.28406
2.27884
2.27022
2.26515
2.25842
2.25481
2.24957
2.2469
2.24173
2.23972
2.23583
2.23467
2.2319
2.23359
2.23315
2.23677
2.23595
2.24701
2.2536
2.27409
2.29064
2.31333
2.33339
2.36361
2.39179
2.43408
2.46977
2.50358
2.50763
2.53446
2.56606
2.59217
2.6321
2.68185
2.75508
2.81038
2.85505
2.88428
2.90332
2.91503
2.9239
2.9243
2.92472
2.92564
2.92809
2.93525
2.94451
2.95732
2.9722
2.98799
3.00803
3.03274
3.06379
3.10272
3.13496
3.16009
3.17571
3.17626
3.18715
0.991001
0.991257
0.991008
0.990702
0.990307
0.989833
0.989291
0.988686
0.987995
0.987234
0.986545
0.985747
0.984852
0.984094
0.983295
0.982436
0.981714
0.981056
0.980478
0.979912
0.979345
0.978916
0.9787
0.978647
0.978653
0.978682
0.978746
0.978865
0.979052
0.979341
0.979705
0.980099
0.98046
0.980899
0.981843
0.983236
0.986175
1.01501
1.85973
2.54343
2.61481
2.56315
2.51363
2.47124
2.44061
2.42297
2.40528
2.38477
2.37344
2.36136
2.35346
2.3435
2.33353
2.32707
2.31766
2.31277
2.30259
2.29799
2.28704
2.28225
2.27189
2.26742
2.25828
2.25541
2.24946
2.24737
2.24199
2.23923
2.23383
2.23285
2.22962
2.22853
2.22484
2.2265
2.22551
2.23005
2.22986
2.2407
2.24673
2.26987
2.28437
2.3091
2.3296
2.36274
2.39043
2.42594
2.45029
2.4756
2.46632
2.49898
2.51498
2.52036
2.55039
2.58
2.63927
2.69942
2.77241
2.82933
2.86424
2.8864
2.90289
2.90801
2.91067
2.91286
2.91585
2.91998
2.92622
2.93692
2.94966
2.96982
2.9939
3.02064
3.05306
3.09204
3.12538
3.14671
3.16309
3.1707
3.18282
0.991
0.991252
0.991
0.990691
0.990292
0.989815
0.989267
0.988672
0.987974
0.987194
0.986504
0.985715
0.984795
0.984032
0.983243
0.982359
0.981632
0.980988
0.980398
0.979783
0.9792
0.97876
0.978504
0.97841
0.978412
0.978399
0.978436
0.978516
0.978648
0.978855
0.979108
0.979351
0.979531
0.979492
0.979202
0.97752
0.979038
0.981203
1.58507
2.42404
2.41211
2.36814
2.33032
2.33659
2.34072
2.34699
2.35629
2.35876
2.3535
2.35403
2.34793
2.34578
2.33398
2.33018
2.31764
2.3122
2.29937
2.29427
2.28264
2.27688
2.26525
2.25869
2.24847
2.24436
2.23719
2.23453
2.22793
2.22311
2.21654
2.21589
2.21421
2.21299
2.20904
2.21052
2.20972
2.21448
2.21488
2.22563
2.23524
2.25766
2.27783
2.3061
2.32698
2.35575
2.38409
2.41487
2.44463
2.43981
2.45114
2.47628
2.48258
2.48166
2.50523
2.52746
2.57295
2.6259
2.69627
2.76936
2.82421
2.85931
2.88633
2.89634
2.90416
2.90509
2.90668
2.90851
2.91104
2.92002
2.92923
2.94851
2.97474
3.0044
3.03997
3.07785
3.11324
3.13742
3.156
3.16984
3.18144
0.990993
0.991243
0.990987
0.990673
0.990271
0.989791
0.989237
0.988641
0.98795
0.987153
0.986454
0.985675
0.984738
0.98396
0.983174
0.982274
0.981527
0.98089
0.980266
0.979617
0.979013
0.978558
0.978286
0.978165
0.978141
0.97812
0.978147
0.978199
0.978318
0.978448
0.97857
0.978539
0.978305
0.977461
0.975706
0.971107
0.965984
0.976313
1.35618
2.34931
2.50765
2.47135
2.40724
2.42012
2.41415
2.40885
2.41193
2.39974
2.38141
2.36817
2.35191
2.34462
2.33051
2.32097
2.305
2.29526
2.28066
2.27237
2.25952
2.25096
2.23932
2.23114
2.22173
2.21743
2.21169
2.20841
2.20237
2.19864
2.19298
2.19168
2.18863
2.18686
2.18317
2.18447
2.1833
2.1872
2.18801
2.19792
2.20857
2.23559
2.25669
2.28657
2.31361
2.34338
2.38433
2.4049
2.40707
2.43928
2.42978
2.42837
2.44161
2.45011
2.47195
2.48465
2.51822
2.56055
2.62488
2.70019
2.77146
2.82448
2.86153
2.87792
2.88999
2.89439
2.89743
2.89805
2.89926
2.90585
2.91249
2.92402
2.94621
2.98052
3.02175
3.06542
3.10323
3.1332
3.15374
3.17115
3.18297
0.990992
0.991238
0.990979
0.99066
0.990253
0.98977
0.989207
0.988606
0.98792
0.987119
0.986403
0.985636
0.984686
0.983887
0.983107
0.982189
0.981405
0.980789
0.980145
0.979447
0.97882
0.978349
0.978033
0.977874
0.977804
0.977726
0.977701
0.977734
0.97783
0.977991
0.978165
0.978275
0.978277
0.978003
0.977271
0.974428
0.976197
0.983829
1.46757
2.60833
2.5253
2.44345
2.39481
2.37649
2.3656
2.35523
2.35317
2.34643
2.33507
2.32554
2.31828
2.31173
2.3028
2.29702
2.28522
2.27951
2.26772
2.26171
2.24952
2.2437
2.23368
2.2288
2.221
2.21869
2.21357
2.2116
2.20633
2.20482
2.20086
2.20048
2.19779
2.19643
2.19242
2.19258
2.18984
2.19112
2.18942
2.19667
2.20509
2.23531
2.25942
2.29483
2.32545
2.36089
2.38198
2.40747
2.40862
2.41012
2.42111
2.41412
2.41226
2.41871
2.4388
2.45156
2.48092
2.51393
2.56254
2.62921
2.70934
2.77956
2.83181
2.85692
2.87496
2.88458
2.88865
2.89075
2.88768
2.88867
2.89139
2.90139
2.91593
2.95026
2.99698
3.05253
3.09901
3.13077
3.15433
3.1755
3.18763
0.990984
0.99123
0.990966
0.990643
0.990232
0.989744
0.989177
0.988568
0.987892
0.987082
0.986329
0.985581
0.98464
0.98378
0.98301
0.982089
0.981249
0.98062
0.979977
0.979249
0.978618
0.978125
0.97777
0.977564
0.977461
0.977339
0.977286
0.977295
0.977341
0.97741
0.977482
0.977573
0.977572
0.977313
0.97672
0.975768
0.977856
0.985583
1.69505
2.56575
2.62142
2.53996
2.49009
2.46234
2.44128
2.42597
2.41281
2.40493
2.39003
2.37913
2.36627
2.35596
2.34528
2.33512
2.32402
2.31272
2.30041
2.2882
2.27711
2.26557
2.25712
2.24765
2.24109
2.23373
2.23016
2.22559
2.22192
2.21665
2.21398
2.2101
2.209
2.20621
2.20502
2.20114
2.20006
2.19523
2.1978
2.20187
2.22113
2.24042
2.27948
2.3101
2.35565
2.39374
2.40879
2.42251
2.42079
2.41447
2.41939
2.41661
2.41049
2.4042
2.42134
2.42597
2.44741
2.48028
2.51965
2.57153
2.64164
2.72469
2.79452
2.83451
2.86242
2.87631
2.88308
2.88264
2.88142
2.87953
2.87656
2.88194
2.89013
2.92072
2.96614
3.0312
3.09069
3.12937
3.15716
3.18122
3.19634
0.990981
0.991224
0.990957
0.990629
0.990212
0.989719
0.989147
0.988527
0.987857
0.987052
0.986254
0.985518
0.984592
0.983678
0.982897
0.981988
0.981092
0.980443
0.979811
0.979041
0.978383
0.977875
0.97746
0.977182
0.977028
0.976881
0.976769
0.976779
0.976857
0.977004
0.977288
0.977799
0.97837
0.978943
0.980403
0.982717
0.987036
0.994369
1.81439
2.58308
2.64275
2.58641
2.53214
2.49687
2.47238
2.45136
2.43468
2.42358
2.40504
2.3932
2.37889
2.36618
2.35439
2.34076
2.33018
2.3163
2.30653
2.29261
2.28319
2.27044
2.26326
2.25362
2.24886
2.24179
2.23957
2.23372
2.23144
2.22666
2.2256
2.2201
2.21811
2.21386
2.2121
2.20769
2.20971
2.20564
2.21414
2.21996
2.25097
2.26891
2.31159
2.34195
2.38741
2.4234
2.42854
2.43039
2.42218
2.4129
2.41235
2.40805
2.40962
2.4068
2.41234
2.41647
2.43612
2.45875
2.48942
2.53447
2.59648
2.6749
2.75986
2.82045
2.85247
2.86519
2.87215
2.86996
2.86938
2.8646
2.85963
2.86512
2.86955
2.89168
2.92925
3.00101
3.07638
3.12629
3.16626
3.18081
3.20093
0.990972
0.991214
0.990944
0.990611
0.990189
0.989692
0.989115
0.98848
0.987826
0.987011
0.986168
0.985427
0.984535
0.983555
0.982765
0.981874
0.980912
0.980206
0.979585
0.978791
0.978072
0.977582
0.97714
0.976787
0.976586
0.976409
0.976233
0.976218
0.976249
0.976343
0.976603
0.976991
0.977436
0.977914
0.979602
0.980661
0.98342
0.986597
1.85795
2.57625
2.62581
2.57497
2.52554
2.48645
2.46116
2.43606
2.4154
2.40468
2.38596
2.37222
2.35723
2.34401
2.33275
2.31895
2.30891
2.2944
2.28462
2.26908
2.25957
2.24424
2.23659
2.2243
2.21843
2.20937
2.20625
2.1985
2.19534
2.19033
2.18983
2.1841
2.18229
2.17859
2.1783
2.17349
2.17553
2.17023
2.17939
2.18364
2.21996
2.24745
2.30798
2.34979
2.38875
2.42038
2.43357
2.43403
2.42692
2.41713
2.41086
2.40372
2.41175
2.4145
2.42875
2.42362
2.43255
2.44489
2.47489
2.51824
2.57089
2.6379
2.72288
2.79958
2.8435
2.8624
2.87148
2.86855
2.8679
2.86481
2.85493
2.8535
2.85234
2.86847
2.89754
2.96603
3.05391
3.11864
3.16655
3.17861
3.20056
0.990966
0.991206
0.990933
0.990595
0.990166
0.989664
0.98908
0.988427
0.987785
0.986976
0.986087
0.985335
0.98447
0.983444
0.98261
0.981754
0.980753
0.979965
0.979308
0.978539
0.977738
0.977198
0.976739
0.976289
0.976031
0.975835
0.975616
0.975548
0.975611
0.975798
0.976222
0.976912
0.977729
0.978797
0.981316
0.98318
0.98704
0.99183
1.88218
2.56223
2.60606
2.55253
2.50295
2.46191
2.43311
2.40508
2.38289
2.3747
2.3582
2.34375
2.33116
2.31687
2.30783
2.29283
2.28389
2.2672
2.25763
2.23934
2.22991
2.21324
2.20715
2.19221
2.18593
2.17542
2.17397
2.16583
2.16305
2.1579
2.15844
2.15219
2.15014
2.14613
2.1474
2.14155
2.14567
2.14223
2.15498
2.15737
2.19962
2.2343
2.29977
2.34894
2.38089
2.40177
2.41778
2.42075
2.41522
2.40934
2.41057
2.41162
2.41567
2.42101
2.43917
2.44014
2.44186
2.45163
2.46727
2.49555
2.54439
2.6074
2.68199
2.76984
2.82561
2.85364
2.86826
2.86798
2.86716
2.86445
2.85165
2.84766
2.84101
2.85103
2.86815
2.93107
3.02414
3.10243
3.16422
3.17538
3.19916
0.990955
0.991195
0.990919
0.990576
0.990141
0.989637
0.989043
0.98837
0.987729
0.986932
0.985999
0.985236
0.984388
0.983315
0.982435
0.981614
0.980583
0.9797
0.978986
0.978258
0.977395
0.976756
0.976248
0.975746
0.975414
0.975179
0.974899
0.974753
0.974778
0.974863
0.975138
0.975684
0.976328
0.977127
0.979069
0.98112
0.985008
0.99415
1.90601
2.5575
2.59833
2.5415
2.4965
2.4616
2.42865
2.39951
2.37868
2.37511
2.36038
2.34418
2.32955
2.31067
2.29981
2.28122
2.27055
2.25014
2.24015
2.21703
2.20678
2.18726
2.18317
2.16487
2.15835
2.14656
2.1474
2.13863
2.13586
2.12982
2.13057
2.1243
2.12291
2.11845
2.11935
2.11107
2.11455
2.10853
2.12012
2.11489
2.16044
2.20737
2.27789
2.32443
2.36461
2.37996
2.40683
2.42074
2.42011
2.41874
2.41947
2.42688
2.43571
2.43625
2.43011
2.43082
2.44496
2.45426
2.46717
2.48697
2.51978
2.56452
2.63227
2.72643
2.8009
2.83623
2.86066
2.86569
2.86459
2.85911
2.84726
2.84157
2.8302
2.83511
2.84464
2.89875
2.98715
3.08216
3.15783
3.16849
3.19582
0.990946
0.991184
0.990905
0.990557
0.990116
0.989608
0.989006
0.98831
0.98766
0.986886
0.985916
0.985116
0.984297
0.983207
0.982239
0.98142
0.980421
0.979408
0.97862
0.977933
0.977094
0.976283
0.975677
0.975158
0.974742
0.974417
0.974072
0.973793
0.973791
0.97391
0.97424
0.974989
0.976003
0.977206
0.97933
0.98225
0.987345
0.999222
1.92312
2.52884
2.5641
2.50978
2.47749
2.44866
2.41721
2.3904
2.36732
2.36386
2.35234
2.33552
2.31719
2.29367
2.2818
2.25985
2.2463
2.22027
2.21105
2.18353
2.17407
2.15197
2.15316
2.13515
2.12983
2.11837
2.12165
2.11323
2.11275
2.10796
2.11047
2.10538
2.10631
2.10084
2.10112
2.09204
2.09429
2.08153
2.0914
2.08861
2.14744
2.20524
2.26266
2.30734
2.35315
2.36886
2.37847
2.40201
2.4269
2.42863
2.42599
2.42146
2.42467
2.43373
2.43455
2.4373
2.43928
2.44848
2.46505
2.47981
2.50713
2.5506
2.61008
2.69017
2.7801
2.83611
2.87043
2.87678
2.87471
2.86651
2.85312
2.83861
2.82043
2.81684
2.82004
2.86707
2.94758
3.0537
3.14482
3.15737
3.18954
0.990932
0.99117
0.990888
0.990536
0.990091
0.989574
0.988967
0.988257
0.987581
0.986827
0.985838
0.984983
0.984183
0.983093
0.982042
0.981195
0.98025
0.979122
0.978236
0.977513
0.976764
0.975795
0.975037
0.974488
0.974047
0.973665
0.973177
0.972698
0.972546
0.972555
0.972639
0.972903
0.973385
0.973789
0.974668
0.976277
0.980884
0.999602
1.87025
2.4722
2.51173
2.46796
2.45018
2.4286
2.39309
2.36637
2.33629
2.32425
2.30913
2.2929
2.2734
2.24421
2.23336
2.20829
2.19364
2.16296
2.15934
2.13232
2.12714
2.10376
2.10788
2.09087
2.09187
2.0802
2.08521
2.07856
2.08077
2.07643
2.0809
2.07809
2.0803
2.07514
2.07615
2.0688
2.07211
2.05933
2.07071
2.0812
2.15907
2.22452
2.27564
2.28759
2.32626
2.36301
2.39327
2.40724
2.40079
2.41302
2.40545
2.41876
2.43848
2.43826
2.428
2.43537
2.44182
2.45254
2.46595
2.47745
2.501
2.54081
2.59511
2.66661
2.7559
2.83132
2.87982
2.88979
2.8851
2.87192
2.8557
2.83911
2.81764
2.80749
2.80482
2.84098
2.90793
3.01792
3.12599
3.14369
3.18144
0.990919
0.991156
0.990871
0.990514
0.99006
0.989536
0.988931
0.98821
0.987494
0.986759
0.985771
0.984843
0.984034
0.982987
0.981837
0.980942
0.980045
0.978857
0.977836
0.977034
0.97633
0.975326
0.974353
0.973699
0.973223
0.972793
0.972251
0.971511
0.971147
0.971115
0.97119
0.971572
0.971826
0.971969
0.971855
0.971769
0.975831
1.00285
1.8355
2.33761
2.3895
2.36486
2.35981
2.34984
2.3225
2.30148
2.26603
2.24655
2.22475
2.2174
2.20268
2.17909
2.17531
2.15049
2.14395
2.11937
2.1179
2.08926
2.08942
2.06698
2.06915
2.0537
2.0579
2.04652
2.05072
2.04347
2.04431
2.0389
2.04349
2.04192
2.04437
2.04085
2.04613
2.04237
2.04828
2.04199
2.0668
2.1078
2.19387
2.25893
2.31798
2.32025
2.30504
2.3291
2.37121
2.38208
2.38524
2.40191
2.39423
2.40653
2.41344
2.42178
2.4193
2.43182
2.44203
2.44419
2.45752
2.47228
2.49159
2.52265
2.56871
2.63131
2.712
2.79563
2.85041
2.86861
2.86869
2.86005
2.85019
2.83645
2.81335
2.80019
2.79147
2.81984
2.87124
2.9805
3.10116
3.12787
3.17121
0.990901
0.991138
0.990851
0.990491
0.99003
0.98949
0.988894
0.988166
0.987389
0.986669
0.985709
0.984696
0.983855
0.982859
0.981639
0.980655
0.979777
0.978598
0.977431
0.976542
0.975787
0.974823
0.973658
0.972845
0.972288
0.971808
0.971285
0.970311
0.969343
0.968928
0.968827
0.968822
0.968696
0.967439
0.963585
0.958332
0.95917
1.02312
1.86631
2.2559
2.31913
2.32441
2.34329
2.34855
2.32928
2.30523
2.26666
2.23542
2.21395
2.19103
2.16892
2.15939
2.13483
2.12521
2.10893
2.10357
2.09967
2.07531
2.07613
2.05519
2.0546
2.04163
2.04553
2.03607
2.0407
2.03291
2.03171
2.02554
2.0296
2.02752
2.02842
2.02364
2.03074
2.02742
2.03631
2.0506
2.1233
2.21379
2.29917
2.29239
2.30322
2.34612
2.34158
2.30796
2.32865
2.38026
2.40306
2.40907
2.40028
2.39027
2.3865
2.39585
2.39948
2.42021
2.42666
2.4347
2.44797
2.4651
2.48492
2.51477
2.55613
2.61435
2.69021
2.78178
2.84331
2.87102
2.87126
2.86234
2.85297
2.83832
2.81306
2.79498
2.77966
2.80116
2.84038
2.9457
3.07397
3.11204
3.16099
0.990883
0.99112
0.990828
0.990462
0.989994
0.98945
0.988858
0.988122
0.98729
0.986547
0.985641
0.984553
0.983658
0.982703
0.981437
0.98036
0.979449
0.978311
0.977007
0.976024
0.975191
0.974266
0.972975
0.971901
0.971176
0.970678
0.970158
0.969343
0.967772
0.966737
0.966373
0.966462
0.966963
0.967288
0.965869
0.96603
0.966345
1.17279
2.02901
2.22997
2.27461
2.31596
2.31266
2.31467
2.30485
2.28682
2.25646
2.22667
2.20301
2.18542
2.18828
2.18067
2.16417
2.16003
2.14522
2.14413
2.13351
2.12064
2.10382
2.09626
2.06968
2.0765
2.06754
2.05526
2.05098
2.04788
2.0478
2.04014
2.04252
2.04128
2.03892
2.04037
2.06284
2.07702
2.13336
2.20536
2.33718
2.36314
2.41553
2.40745
2.32885
2.3399
2.37002
2.34744
2.33378
2.36294
2.37932
2.39067
2.37476
2.37384
2.37792
2.37994
2.37985
2.39601
2.40664
2.42199
2.43756
2.45569
2.47722
2.50594
2.54228
2.59724
2.66838
2.76117
2.83368
2.87227
2.87544
2.86566
2.85431
2.84055
2.81509
2.79468
2.77214
2.786
2.81326
2.91254
3.04436
3.09435
3.15009
0.99086
0.991097
0.990801
0.990433
0.989958
0.989394
0.988802
0.988081
0.9872
0.986419
0.985553
0.984418
0.983445
0.982513
0.981231
0.980043
0.979092
0.977986
0.976563
0.975477
0.97458
0.973606
0.972307
0.97095
0.969925
0.96925
0.968835
0.968255
0.967071
0.96484
0.963462
0.962956
0.962812
0.963485
0.962235
0.963775
0.960237
1.32033
2.18507
2.25065
2.28003
2.29745
2.30222
2.31119
2.3086
2.30915
2.29873
2.28883
2.27864
2.26778
2.2585
2.24905
2.23565
2.21536
2.20926
2.18776
2.19054
2.15526
2.16364
2.13845
2.12536
2.12391
2.12086
2.11379
2.12438
2.11254
2.10271
2.10431
2.11969
2.13036
2.14792
2.19284
2.28316
2.36553
2.46612
2.53959
2.58573
2.53588
2.47037
2.46461
2.42187
2.38022
2.3638
2.35104
2.34391
2.34094
2.34395
2.35965
2.36911
2.37318
2.37083
2.37256
2.36306
2.37803
2.3987
2.41076
2.425
2.44263
2.46405
2.49317
2.53273
2.58302
2.64764
2.73742
2.81739
2.86369
2.8684
2.85904
2.84934
2.83475
2.81228
2.79114
2.7633
2.77045
2.7885
2.88059
3.01317
3.0754
3.13801
0.990836
0.991073
0.990773
0.990399
0.98992
0.989342
0.988733
0.988031
0.987119
0.986282
0.985442
0.98429
0.983219
0.982286
0.981021
0.979704
0.978698
0.977605
0.976082
0.974859
0.973901
0.972904
0.971579
0.97002
0.968744
0.967666
0.967106
0.966767
0.966115
0.964542
0.96156
0.960121
0.959748
0.960289
0.96082
0.965742
0.963478
1.42707
2.25406
2.23221
2.24037
2.24487
2.24894
2.26672
2.29633
2.32338
2.33154
2.3265
2.32273
2.30694
2.29757
2.27364
2.26243
2.23036
2.23393
2.20261
2.21233
2.17238
2.18354
2.15221
2.1691
2.15073
2.16074
2.15396
2.17453
2.17335
2.19596
2.22753
2.31769
2.39894
2.49376
2.59163
2.697
2.76492
2.76613
2.74164
2.67853
2.62692
2.54551
2.48095
2.44486
2.41051
2.38951
2.37381
2.35622
2.34511
2.34968
2.36682
2.37354
2.36984
2.36213
2.35895
2.36265
2.37701
2.39214
2.40436
2.41821
2.43353
2.45229
2.47999
2.52083
2.57003
2.63449
2.71822
2.80421
2.85733
2.86769
2.86033
2.85043
2.83506
2.81509
2.78979
2.75755
2.75609
2.76769
2.85336
2.98264
3.05642
3.12738
0.990807
0.991046
0.990741
0.990362
0.989878
0.98929
0.988655
0.987973
0.987046
0.986131
0.985307
0.984171
0.982987
0.98202
0.980794
0.979356
0.978265
0.977176
0.975583
0.974176
0.973153
0.97215
0.970712
0.969001
0.967682
0.966316
0.965081
0.964662
0.964442
0.963747
0.961884
0.958509
0.956698
0.956656
0.956734
0.960699
0.965729
1.49662
2.24142
2.21859
2.19214
2.18574
2.18314
2.19668
2.233
2.27171
2.30809
2.33655
2.34615
2.33316
2.31805
2.28849
2.27165
2.23804
2.24611
2.20893
2.22864
2.17973
2.19862
2.16791
2.20507
2.18886
2.2258
2.26176
2.34915
2.41001
2.50678
2.59585
2.71375
2.80473
2.86999
2.87446
2.8534
2.83116
2.8006
2.75314
2.70603
2.66743
2.60722
2.5445
2.50224
2.45219
2.41686
2.38455
2.3627
2.36137
2.36763
2.37383
2.37128
2.3628
2.34896
2.34531
2.35522
2.36844
2.38234
2.3937
2.40546
2.4187
2.44176
2.47233
2.50959
2.55512
2.61458
2.69239
2.78565
2.84598
2.86324
2.85861
2.85014
2.8349
2.81429
2.78617
2.7512
2.74212
2.7474
2.82704
2.94959
3.03588
3.11513
0.990775
0.991016
0.990707
0.990321
0.989834
0.989239
0.988568
0.9879
0.986988
0.985987
0.985133
0.984058
0.982774
0.981719
0.980547
0.979032
0.977787
0.976684
0.975078
0.97343
0.972305
0.971299
0.969687
0.967797
0.966552
0.965321
0.963422
0.961889
0.961573
0.961643
0.961063
0.959457
0.955148
0.952928
0.952026
0.955081
0.974809
1.55178
2.13378
2.13729
2.12874
2.12837
2.12635
2.13158
2.15084
2.17813
2.21974
2.261
2.28585
2.28986
2.29306
2.2695
2.24911
2.20921
2.23414
2.21542
2.25536
2.20718
2.25395
2.25528
2.35071
2.40294
2.50088
2.59555
2.71356
2.78792
2.84259
2.84147
2.85066
2.86228
2.85083
2.84401
2.8217
2.80207
2.78146
2.74994
2.71603
2.68565
2.64635
2.60068
2.55221
2.49967
2.46872
2.43795
2.40461
2.38808
2.36765
2.36129
2.35756
2.34864
2.34173
2.34518
2.34915
2.35885
2.37225
2.38315
2.3963
2.41313
2.43439
2.46157
2.49754
2.54371
2.60266
2.6783
2.7714
2.83784
2.86187
2.85692
2.84847
2.83283
2.81178
2.78343
2.74555
2.72723
2.73105
2.80213
2.91616
3.01609
3.10255
0.99074
0.990982
0.990669
0.990278
0.989786
0.989187
0.988484
0.987793
0.986935
0.985867
0.984939
0.983927
0.982588
0.981396
0.980264
0.978735
0.977304
0.97612
0.9746
0.972737
0.971402
0.970311
0.96868
0.966486
0.965172
0.964066
0.962156
0.959317
0.957945
0.957772
0.958249
0.958083
0.956573
0.951937
0.947394
0.95216
1.00819
1.65315
2.00852
2.05331
2.06653
2.07577
2.08488
2.09438
2.10041
2.10915
2.1223
2.13956
2.15926
2.16533
2.17502
2.16932
2.18636
2.18085
2.22738
2.22546
2.3195
2.33342
2.45155
2.53422
2.65576
2.73134
2.79477
2.8081
2.83468
2.85509
2.85462
2.83584
2.81245
2.81416
2.80055
2.79135
2.77686
2.76843
2.76116
2.74522
2.72225
2.69814
2.6717
2.6392
2.60195
2.55504
2.50686
2.46082
2.4151
2.38772
2.38074
2.3782
2.36935
2.35431
2.34088
2.33923
2.33895
2.34372
2.35562
2.37145
2.38827
2.40666
2.42625
2.45068
2.48501
2.53132
2.58914
2.66149
2.75456
2.82815
2.85824
2.85432
2.8453
2.82873
2.80829
2.78206
2.7406
2.71677
2.71679
2.77915
2.88284
2.99531
3.08968
0.990701
0.990944
0.990628
0.990231
0.989734
0.989134
0.988409
0.987667
0.98686
0.985762
0.984731
0.983759
0.982417
0.981064
0.979918
0.978459
0.976818
0.975518
0.974136
0.972162
0.970518
0.969238
0.967742
0.965348
0.963658
0.962421
0.960819
0.957313
0.954301
0.953181
0.952787
0.953367
0.953626
0.950723
0.945533
0.956241
1.12971
1.77295
1.93558
1.97273
1.99535
2.01549
2.03258
2.04091
2.04466
2.04496
2.04345
2.04275
2.04056
2.0369
2.0571
2.0831
2.17871
2.23871
2.38023
2.4464
2.58139
2.65057
2.73528
2.74396
2.76885
2.77792
2.79131
2.78741
2.79744
2.80657
2.79979
2.79414
2.77527
2.7682
2.76121
2.75577
2.74602
2.73599
2.73289
2.72902
2.71991
2.70504
2.68697
2.66366
2.63535
2.59909
2.55404
2.5054
2.46585
2.43107
2.40513
2.38505
2.36738
2.3554
2.34723
2.345
2.3431
2.34393
2.35153
2.36422
2.37729
2.39401
2.4133
2.43773
2.47241
2.51696
2.57332
2.64409
2.73696
2.81858
2.8535
2.85098
2.84106
2.82379
2.80397
2.77955
2.73614
2.70773
2.70302
2.75705
2.85069
2.97379
3.07693
0.990658
0.990903
0.990583
0.99018
0.989675
0.989078
0.988337
0.987534
0.986758
0.985667
0.98452
0.983539
0.982251
0.980745
0.979526
0.97816
0.976357
0.974859
0.973533
0.971681
0.969627
0.968158
0.966675
0.964585
0.962298
0.960591
0.958874
0.956112
0.951644
0.949026
0.948296
0.948183
0.949313
0.951409
0.957366
0.987249
1.44135
1.85732
1.90005
1.91234
1.92168
1.9355
1.95442
1.97177
1.98208
1.98785
1.98957
1.99221
1.9981
2.00903
2.05481
2.11521
2.32707
2.49153
2.63243
2.68492
2.73435
2.73564
2.75562
2.73828
2.74472
2.73753
2.74668
2.74426
2.75368
2.76023
2.76305
2.7658
2.75813
2.74938
2.73768
2.73699
2.7327
2.72572
2.72128
2.7179
2.71395
2.70616
2.69556
2.68011
2.65956
2.63159
2.59674
2.55531
2.51149
2.4656
2.42217
2.39344
2.3798
2.36723
2.35524
2.34565
2.34071
2.3412
2.34447
2.35369
2.36813
2.38563
2.40362
2.42666
2.45845
2.50066
2.55661
2.62778
2.72112
2.80925
2.8484
2.84694
2.83644
2.81857
2.79938
2.77576
2.73151
2.69756
2.68849
2.73585
2.82073
2.95066
3.06385
0.990611
0.990858
0.990535
0.990126
0.98961
0.989016
0.988265
0.987413
0.98662
0.985574
0.984326
0.983286
0.982067
0.980457
0.979101
0.977798
0.975931
0.974171
0.972805
0.971197
0.968791
0.966925
0.965466
0.963839
0.961306
0.958792
0.956901
0.954825
0.950974
0.945934
0.94319
0.941612
0.940917
0.943171
0.95469
1.05174
1.72392
1.91122
1.91504
1.91152
1.90721
1.90921
1.91809
1.92972
1.9397
1.95166
1.96173
1.97473
1.9995
2.0489
2.18734
2.4038
2.63095
2.70435
2.72374
2.73058
2.73626
2.73009
2.72372
2.71296
2.70765
2.70633
2.70702
2.70971
2.71206
2.71858
2.72139
2.72931
2.72969
2.72704
2.72044
2.71913
2.71682
2.7147
2.71268
2.71066
2.70829
2.7042
2.69704
2.68487
2.67096
2.6522
2.62858
2.59755
2.56004
2.51591
2.46408
2.42381
2.39963
2.37793
2.35934
2.34644
2.337
2.33503
2.33686
2.34437
2.35909
2.37656
2.39345
2.41499
2.44411
2.48535
2.54058
2.61328
2.70621
2.79762
2.84156
2.84141
2.83101
2.81294
2.79426
2.77084
2.72767
2.68697
2.67642
2.71579
2.79301
2.92727
3.04938
0.99056
0.99081
0.990482
0.990068
0.989539
0.988944
0.988194
0.987304
0.986461
0.985468
0.984156
0.983016
0.981849
0.980202
0.978662
0.977342
0.97555
0.973511
0.972003
0.970513
0.968087
0.965641
0.964059
0.962703
0.960398
0.957015
0.954906
0.953079
0.950805
0.945899
0.939826
0.936746
0.935659
0.938618
0.956674
1.25338
1.88054
1.91863
1.90816
1.90057
1.90009
1.90212
1.90503
1.90895
1.91421
1.92913
1.95395
1.99467
2.08706
2.26478
2.50457
2.70304
2.72935
2.72348
2.71714
2.70844
2.70187
2.69582
2.68841
2.68624
2.68589
2.68541
2.68435
2.68205
2.68375
2.68636
2.68727
2.69185
2.69678
2.6991
2.697
2.69623
2.69335
2.69519
2.69595
2.69812
2.69826
2.69627
2.69159
2.6832
2.67107
2.65964
2.64648
2.62717
2.59952
2.55963
2.50779
2.45449
2.41692
2.38801
2.36692
2.34896
2.33867
2.33342
2.33465
2.34064
2.3543
2.36991
2.3845
2.40393
2.43077
2.4705