/*--------------------------------*- C++ -*----------------------------------*\
| =========                 |                                                 |
| \\      /  F ield         | OpenFOAM: The Open Source CFD Toolbox           |
|  \\    /   O peration     | Version:  2.2.x                                 |
|   \\  /    A nd           | Web:      www.OpenFOAM.org                      |
|    \\/     M anipulation  |                                                 |
\*---------------------------------------------------------------------------*/
FoamFile
{
    version     2.0;
    format      ascii;
    class       volScalarField;
    location    "0.7";
    object      By;
}
// * * * * * * * * * * * * * * * * * * * * * * * * * * * * * * * * * * * * * //

dimensions      [1 0 -2 0 0 -1 0];

internalField   nonuniform List<scalar> 
14161
(
-0.0436862
0.0159406
0.0157715
0.0186335
0.0134039
0.00104149
-0.0119197
-0.0167772
-0.0184223
-0.0131043
-0.00870048
0.00277134
0.0183531
0.0167276
0.0170726
0.0145809
0.00827345
-0.0037927
-0.0139032
-0.0169888
-0.0183984
-0.0166243
-0.00975301
0.00263697
0.0158546
0.0119637
0.0116804
0.0127983
0.00807461
-0.00171441
-0.0121112
-0.0212925
-0.0200661
-0.0119379
-0.0102103
-0.00807318
-0.0050719
-0.00499605
-0.0064071
-0.00690995
-0.0122541
-0.00888785
-0.0441427
-0.0772953
-0.00683725
0.0190494
0.0249545
0.0236864
0.024756
0.0234095
0.0197538
0.0180216
0.0167314
0.0164632
0.0175302
0.0199692
0.0243022
0.027843
0.0368234
0.0442241
0.0541074
0.060946
0.0651397
0.0671533
0.0621261
0.0473358
0.0294182
0.0171996
0.0111713
0.0133992
0.016626
0.0167201
0.0132097
0.00947107
0.00586616
9.65301e-05
-0.00570478
-0.00942017
-0.00862178
-0.00842962
-0.010668
-0.0111983
-0.0104497
-0.00945798
-0.00872054
-0.00814659
-0.00728308
-0.00547239
-0.00251637
0.000981271
0.00421514
0.00691261
0.00800486
0.00738395
0.00563218
0.00505651
0.00562323
0.00667298
0.00699616
0.00704987
0.00575076
0.00414825
0.00207625
0.00165304
0.00334561
0.00495874
0.0067879
0.00927032
0.0113146
0.013461
0.0161672
0.0194492
0.0208838
0.0286244
0.0330391
0.0278105
0.0216625
0.0119381
0.0144146
0.0493432
-0.0143901
-0.0269823
-0.029736
-0.014697
0.000843591
0.0151276
0.0251632
0.0241065
0.016407
0.00949392
-0.00172889
-0.0171479
-0.0259177
-0.0241833
-0.0160416
-0.00730046
0.0023875
0.015777
0.0238766
0.024758
0.0161186
0.00764622
-0.00129622
-0.0154386
-0.0213809
-0.0207634
-0.0156879
-0.0064353
0.00340354
0.0128
0.0196798
0.0256734
0.021833
0.0170198
0.0113291
0.00583363
-0.000605485
-0.0035823
-0.00350022
-0.00254878
0.000612446
-0.011648
0.0183491
0.00977072
-0.00369666
-0.00556038
-0.0127935
-0.0160881
-0.0165111
-0.0168609
-0.0134997
-0.00994416
-0.00666362
-0.0043466
0.00415715
0.00668905
0.0160494
0.027837
0.0484544
0.063323
0.0840482
0.0950494
0.113235
0.110378
0.0982864
0.0732633
0.0583813
0.041553
0.031105
0.0272704
0.0249367
0.0196297
0.0153592
0.011323
0.00647817
-0.000590936
-0.00358138
-0.00743996
-0.0129635
-0.0205076
-0.0215131
-0.0193044
-0.0157628
-0.0124501
-0.00897009
-0.00562349
-0.0025287
-0.000552327
0.00138448
0.00417071
0.00627667
0.00674898
0.00686551
0.00630082
0.0058442
0.00642384
0.00828967
0.00894892
0.00975039
0.00937762
0.00789669
0.00642927
0.00592358
0.00724397
0.00890947
0.0110684
0.013312
0.0150904
0.0181626
0.0228127
0.0288071
0.0363322
0.0457337
0.0503338
0.0607723
0.0681673
0.0411555
0.0467738
-0.0379854
0.00680337
0.0215604
0.0191855
0.00865592
0.000950246
-0.00816026
-0.0108963
-0.0153665
-0.0117513
-0.00906539
0.000848687
0.013654
0.0203768
0.0148605
0.0102364
0.00652376
0.000499732
-0.00903894
-0.012696
-0.016341
-0.0152367
-0.0127937
-0.00391801
0.00958276
0.0153504
0.0141504
0.0133217
0.0111303
0.00477716
-0.00248073
-0.011522
-0.0117655
-0.00925166
-0.00960009
-0.0071352
-0.00356477
0.00151889
0.0046288
0.00267986
0.00221213
0.00367559
-0.0229536
-0.00539054
0.0157297
0.0239637
0.0183054
0.011752
0.00856991
0.00909504
0.0115692
0.0176347
0.024279
0.0340017
0.0423252
0.056179
0.0692096
0.0809758
0.0938417
0.105913
0.118383
0.128481
0.138237
0.147392
0.14642
0.131563
0.104921
0.0856608
0.070294
0.0619779
0.0586266
0.0583114
0.0548377
0.0501074
0.040875
0.0292652
0.0177512
0.0134733
0.010311
0.00121371
-0.00464705
-0.00864619
-0.00980771
-0.0109456
-0.0106548
-0.0100037
-0.00837867
-0.00545741
-0.00186155
0.00162658
0.00425661
0.00692579
0.00855653
0.00896089
0.0093374
0.00961604
0.0104098
0.0127538
0.0145896
0.0151016
0.014903
0.014206
0.0137631
0.0145612
0.0165336
0.0188392
0.0215106
0.0254869
0.0287489
0.0326327
0.0397826
0.0498027
0.0608206
0.0805999
0.099525
0.111779
0.12146
0.076233
0.0835579
0.0225178
-0.00269277
-0.0110036
-0.0144821
-0.010915
-0.00464805
0.00259454
0.00929004
0.0159263
0.0140752
0.0114102
0.00771525
-0.00214904
-0.0140176
-0.0201418
-0.0151259
-0.00918089
-0.00238995
0.00419574
0.0120405
0.0170469
0.0126566
0.010247
0.00578664
0.000143619
-0.0111074
-0.017611
-0.0159621
-0.0112025
-0.00630754
-0.00156458
0.00369757
0.00741742
0.010182
0.00880357
0.00733324
0.0027988
-0.00224679
-0.014032
-0.0133621
-0.018385
-0.0216854
-0.0303173
-0.0129912
0.0180815
0.00549511
-0.000117498
-0.0105056
-0.0213298
-0.0206129
-0.0146943
-0.00696916
0.00165534
0.0139826
0.0288927
0.0503249
0.0712524
0.0953383
0.120477
0.143197
0.167886
0.18207
0.192416
0.200536
0.192114
0.191544
0.18535
0.170125
0.154835
0.142213
0.132745
0.125159
0.113676
0.103404
0.0931235
0.077624
0.0575669
0.0374436
0.020684
0.0126623
0.00665692
0.00147296
-0.00345441
-0.00895911
-0.0121455
-0.014983
-0.0158673
-0.0132333
-0.0084397
-0.00417931
2.59443e-05
0.00497025
0.00809623
0.00919826
0.00930012
0.00964197
0.0106783
0.013066
0.0147849
0.0157525
0.0159265
0.0159228
0.0162048
0.0167897
0.0192614
0.0221685
0.0262138
0.030938
0.0351564
0.039674
0.0472416
0.0582102
0.0729325
0.0960558
0.12363
0.150489
0.169489
0.117363
0.12581
-0.0206809
-0.00509213
0.0120485
0.0141771
0.00479469
1.38743e-05
-0.00102357
-0.00139467
-0.00591871
-0.00678387
-0.00684063
-0.000389205
0.00632525
0.0107198
0.0085926
0.00564076
0.00520028
0.00315772
0.00109349
-0.00213138
-0.00902979
-0.0111584
-0.011131
-0.00743598
-0.000391957
0.00826305
0.0129863
0.0112305
0.00993516
0.00870427
0.00922474
0.000537106
-0.00368592
-0.00216236
-0.00427293
-0.00503538
-0.00417781
-0.00526794
0.00486733
0.00486522
0.0107515
0.00844718
0.0555034
0.0766724
0.0114764
-0.0122456
-0.0394403
-0.0482307
-0.0538518
-0.051558
-0.041511
-0.0248848
-0.011585
0.00260957
0.023318
0.0442232
0.0656841
0.0891069
0.11349
0.1395
0.165878
0.191956
0.208324
0.224192
0.224989
0.228563
0.229318
0.219477
0.21558
0.205876
0.190616
0.177427
0.165833
0.15542
0.138695
0.120851
0.0976555
0.0706583
0.0480157
0.034536
0.0266461
0.0185681
0.00509772
-0.0089958
-0.0195629
-0.025468
-0.0249923
-0.0192859
-0.0111983
-0.00376084
0.00206141
0.00820268
0.0127477
0.0152116
0.0151434
0.0153245
0.016263
0.0187737
0.0206256
0.0214107
0.02154
0.0217011
0.0222289
0.0236663
0.0260363
0.0293948
0.035128
0.0422208
0.0486937
0.0562008
0.0627482
0.0740749
0.087565
0.111417
0.14415
0.182099
0.214134
0.164661
0.173108
0.00826727
0.00189269
-0.00449694
0.00402068
-0.0033613
-0.00659095
-0.00528585
-0.000588477
0.00746963
0.0107983
0.00959069
0.00845877
0.00751324
-0.00290314
-0.0129498
-0.0103465
-0.0081637
-0.00648403
-0.00248307
0.00562602
0.00908777
0.00900497
0.0113635
0.00845545
0.0102119
-0.0014178
-0.00868751
-0.0122647
-0.01414
-0.0162638
-0.015393
-0.00967094
-0.00472207
0.00232334
0.00255769
0.00278714
0.000934047
0.00107072
-0.00407505
-0.0101555
-0.0071524
-0.00880116
0.0146144
0.0822236
0.0264889
0.011516
-0.0117668
-0.0377858
-0.0615031
-0.0640946
-0.0505905
-0.0323237
-0.0192763
0.00438745
0.0303405
0.0560836
0.0836184
0.113059
0.144883
0.173969
0.198288
0.225807
0.243658
0.265655
0.275537
0.283888
0.294316
0.288624
0.287493
0.281017
0.267274
0.254818
0.24341
0.233213
0.221824
0.205423
0.181586
0.151641
0.11169
0.0815862
0.0631891
0.0449299
0.0202651
-0.0021332
-0.0229269
-0.0325974
-0.0337476
-0.0270866
-0.0183557
-0.00843679
-9.91014e-05
0.00758165
0.0133016
0.0167955
0.0175826
0.0190043
0.019142
0.0212336
0.0243907
0.0265584
0.0267918
0.0274782
0.0282234
0.0306444
0.0337401
0.0375044
0.0439164
0.0524477
0.0613728
0.0709864
0.0784452
0.0928583
0.105299
0.127983
0.160929
0.204064
0.249962
0.211641
0.220074
-0.00877233
-0.00834095
0.00349401
0.00985132
0.00214607
-0.00253065
0.00350675
0.0035001
-3.70539e-06
-0.00107235
-0.00150578
-0.000435114
0.000890136
0.00465339
0.00500983
0.00277072
0.00280512
0.00118598
0.00627518
0.00506183
-0.00675065
-0.00506667
-0.00448142
-0.00460436
-0.00430387
0.00184745
0.0082341
0.00858968
0.0087955
0.00647042
0.00603965
0.00636428
-0.00538445
-0.0063798
-0.00713261
-0.0102059
-0.0132905
-0.016895
-0.0103252
-0.0109883
-0.000451634
0.00125112
0.0223073
0.113317
0.00813714
-0.0424824
-0.0768883
-0.0970948
-0.104443
-0.101575
-0.0866164
-0.0685475
-0.0531295
-0.0253384
0.00228797
0.0360043
0.0665458
0.105782
0.137326
0.172773
0.203507
0.233996
0.259934
0.280911
0.302412
0.313191
0.33
0.331222
0.336949
0.33622
0.328471
0.324907
0.324485
0.319988
0.306859
0.281949
0.252783
0.223172
0.185157
0.145444
0.111786
0.080191
0.0417135
0.00371267
-0.0239395
-0.0397393
-0.04299
-0.0378487
-0.0263979
-0.0135827
-0.00339193
0.00620725
0.0148475
0.0217428
0.024502
0.0260242
0.0263285
0.0264877
0.02859
0.0315448
0.0317337
0.0323952
0.0329555
0.0363563
0.0412561
0.0474592
0.0544238
0.0656315
0.0772091
0.0906991
0.0993319
0.115186
0.126541
0.146983
0.179374
0.223416
0.277858
0.252643
0.266441
0.00257667
0.000868133
-0.00355609
0.0146232
0.00635941
-0.00357478
-0.0063249
-0.00410997
0.00354877
0.00810228
0.00494043
0.00334096
0.0086462
0.00139937
-0.00562009
-0.00323405
-0.00329657
-0.00703296
-0.00114734
0.00584999
0.00738937
0.00794289
0.00996209
0.00653205
0.00637659
0.0010759
0.000150904
-0.00793687
-0.0148721
-0.0158584
-0.0150414
-0.0163934
-0.00586905
-0.00358395
0.00112711
0.00200462
0.0024087
0.00603016
-0.00270137
0.00711687
-0.00339985
-0.00276079
-0.00259548
0.0516529
0.0373025
-0.0193558
-0.0705501
-0.106502
-0.123036
-0.12519
-0.112825
-0.0956809
-0.073813
-0.0414065
-0.0119129
0.0205263
0.0581086
0.0985442
0.134584
0.174999
0.205336
0.238577
0.266849
0.293577
0.317294
0.337666
0.356171
0.367155
0.373202
0.380029
0.375127
0.374997
0.373085
0.368728
0.361115
0.355839
0.350941
0.334821
0.306934
0.272828
0.234446
0.183657
0.124236
0.0667095
0.0143265
-0.0220641
-0.0355467
-0.0358551
-0.0292306
-0.018841
-0.00703958
0.00413025
0.0141182
0.0210734
0.0254546
0.0275936
0.0308101
0.0307358
0.0349416
0.0406025
0.0430737
0.0433016
0.0423828
0.0457488
0.0495857
0.0549181
0.0619653
0.0742668
0.0890414
0.107804
0.118834
0.138582
0.151924
0.169574
0.200075
0.24349
0.300901
0.289804
0.309682
0.00223857
-0.00537435
-0.0019847
0.005507
0.000433141
-0.00332234
0.0076264
0.00230697
0.000752523
0.00439424
0.00216225
-0.000958827
-0.00155376
0.00091441
0.00397123
0.0016729
-0.00023848
-0.00527059
0.00865216
0.00620895
-0.00224438
0.000494421
0.00112928
8.83334e-06
-0.00446142
0.00104347
0.00870853
0.00610097
-0.000763689
-0.00170392
-0.00530373
-0.00598311
-0.00450107
-0.0134811
-0.017543
-0.0168319
-0.0192338
-0.0215216
-0.0189798
-0.0215574
-0.00876335
-0.014115
-0.00750435
0.000924747
0.0305544
-0.032017
-0.110127
-0.154844
-0.174697
-0.174285
-0.15326
-0.128633
-0.0959528
-0.0575823
-0.0223044
0.0192093
0.0569098
0.10047
0.130647
0.16762
0.195329
0.229241
0.264211
0.29193
0.320836
0.347451
0.371013
0.394173
0.404155
0.415449
0.417889
0.419151
0.418354
0.411952
0.408212
0.408483
0.415273
0.414045
0.400204
0.377807
0.329398
0.260516
0.183892
0.0987258
0.01491
-0.0444294
-0.0755697
-0.0730125
-0.0602883
-0.0428196
-0.0220456
-0.00290732
0.0148135
0.0323601
0.0465125
0.0531043
0.0565307
0.0541929
0.0493105
0.0479986
0.0473431
0.0482131
0.0459944
0.0497075
0.0537414
0.0606564
0.0704212
0.0867547
0.106891
0.13162
0.148455
0.169359
0.181655
0.195793
0.223367
0.26666
0.321786
0.325869
0.347857
0.000127327
-0.00210019
-0.00321429
0.0145865
0.0153891
0.0040558
0.00129098
-0.00364715
0.00405307
0.00323307
-0.00171102
-0.00488032
0.00359932
0.00196562
-0.00153642
0.00374197
0.00349359
-0.00266075
0.00375587
0.0134048
0.0105827
0.00618985
0.00382453
0.00197535
-0.00289711
-0.00365183
-0.00407994
-0.00417379
-0.0112044
-0.0134089
-0.0171586
-0.0123826
-0.00838352
-0.00185067
0.00190714
0.00115051
0.00174966
-0.000463087
0.00978153
-0.00309261
0.00817875
0.0048155
0.0253525
0.132434
0.0207211
-0.112898
-0.219749
-0.268079
-0.280136
-0.271518
-0.241749
-0.204082
-0.15091
-0.0990099
-0.0612578
-0.00954879
0.0346263
0.0822502
0.128633
0.171328
0.212946
0.245771
0.27954
0.304808
0.331317
0.356631
0.381371
0.404241
0.422462
0.435983
0.435976
0.43164
0.428292
0.425584
0.430701
0.43891
0.444921
0.444052
0.429618
0.406324
0.370972
0.346121
0.28936
0.221494
0.114291
0.0248035
-0.0300967
-0.0536446
-0.0524499
-0.0340199
-0.0129488
0.00873202
0.0281648
0.0452987
0.0554587
0.0591791
0.061261
0.0607605
0.0560318
0.0579022
0.0626546
0.0688156
0.066031
0.0718591
0.0740001
0.0769772
0.0841682
0.0971992
0.117662
0.146653
0.167799
0.194353
0.212896
0.227356
0.250303
0.291061
0.343271
0.361331
0.380135
0.0147977
0.00170295
-0.00662533
0.00235419
0.000118376
-0.00182151
-0.000319525
0.00293297
0.0054769
0.0076209
0.00189075
-0.00320245
-0.0036133
-0.00519535
0.00200233
-0.00169991
-0.00424711
-0.0111682
-0.00149995
0.00678794
0.0101963
0.0122369
0.0116103
0.00656858
-0.00137829
-0.00425583
-0.000949811
0.000829645
-0.00989702
-0.0140403
-0.0193113
-0.0231163
-0.0165546
-0.0143423
-0.0113124
-0.0152898
-0.0118426
-0.00874328
-0.00448367
-0.00320359
0.00975587
0.0031354
0.0188615
0.0871804
-0.0226985
-0.189256
-0.267405
-0.309966
-0.324024
-0.310558
-0.280424
-0.22987
-0.166949
-0.105603
-0.0557531
-0.00391215
0.0527923
0.0959037
0.144233
0.189821
0.242704
0.281018
0.308071
0.345027
0.363354
0.384577
0.402411
0.42463
0.436395
0.443552
0.444138
0.445256
0.447143
0.44731
0.454979
0.463327
0.463111
0.462248
0.450577
0.43024
0.398735
0.36277
0.298213
0.227714
0.122444
0.0401703
-0.00981842
-0.0251746
-0.0232189
-0.00784116
0.0154188
0.0418831
0.0672351
0.0940904
0.119352
0.12863
0.12793
0.119297
0.104957
0.094798
0.0917894
0.0933239
0.088888
0.0909295
0.0871482
0.0838323
0.089251
0.10446
0.128444
0.162385
0.195066
0.233831
0.251048
0.265391
0.281593
0.320168
0.364489
0.396766
0.407295
-0.00193927
-0.0044322
-0.000696
0.00845768
0.0221925
0.0157918
0.00849601
0.000348407
0.00331054
-0.00461531
-0.00998145
-0.0138718
-0.00546512
-0.00134282
0.00559111
0.0107276
0.0110563
0.00280585
0.00728656
0.0132489
0.00931798
0.00382678
-0.00191391
-0.00747932
-0.0141104
-0.00829257
-0.000126424
0.00213502
-0.0026429
-0.00894062
-0.0177568
-0.0213802
-0.018085
-0.0124118
-0.00830756
-0.00685328
-0.00780427
-0.00724175
-0.00660567
-0.0118991
-0.0036495
-0.0103257
-0.0100397
-0.0523757
-0.247993
-0.348213
-0.361252
-0.34642
-0.35652
-0.344119
-0.31651
-0.273228
-0.20658
-0.144757
-0.072891
-0.0148911
0.045978
0.113154
0.157279
0.208045
0.2556
0.299017
0.334056
0.361586
0.396973
0.421706
0.43249
0.448878
0.452848
0.455768
0.456376
0.453221
0.458581
0.469414
0.478958
0.487079
0.492397
0.492939
0.485492
0.469803
0.441657
0.409882
0.366796
0.309067
0.224467
0.158959
0.111781
0.0938214
0.0890538
0.091609
0.102653
0.113563
0.123829
0.1408
0.158804
0.164939
0.16227
0.153202
0.13812
0.125437
0.12065
0.119833
0.116876
0.11824
0.11282
0.102752
0.103989
0.118642
0.143022
0.176745
0.214162
0.256372
0.281003
0.30252
0.317061
0.350063
0.387043
0.430137
0.431493
0.031122
0.00958849
-0.0109358
-0.00635523
-0.00361783
-0.0021639
-0.00390864
0.00634375
0.0144082
0.0123956
0.00490771
-0.00442072
-0.0109513
-0.0194188
-0.00969638
-0.0108568
-0.0114418
-0.013762
-0.00311402
0.0160958
0.0196052
0.0251678
0.0240378
0.0104029
-0.00208733
-0.0130147
-0.0102032
-0.0112353
-0.0193811
-0.0258883
-0.0365271
-0.0317801
-0.0228009
-0.0136822
-0.00228722
-0.00475325
0.000984762
-0.00196709
-0.00322459
0.00192984
0.0018951
0.0203047
-0.017305
-0.166402
-0.533322
-0.630411
-0.539249
-0.491122
-0.448165
-0.396382
-0.328262
-0.274734
-0.196506
-0.136799
-0.0755191
-0.0179253
0.0539288
0.109765
0.170561
0.228686
0.288773
0.33001
0.360569
0.397668
0.408712
0.433874
0.446278
0.465685
0.487672
0.492663
0.496528
0.495773
0.503387
0.508937
0.518591
0.528144
0.534093
0.537292
0.53339
0.519061
0.490931
0.460229
0.418954
0.376482
0.318854
0.269106
0.224773
0.205467
0.194511
0.187425
0.188455
0.193491
0.201527
0.214549
0.226885
0.228799
0.222854
0.210226
0.191021
0.171655
0.159473
0.153347
0.149373
0.150421
0.138837
0.121842
0.120238
0.135677
0.159777
0.189233
0.225821
0.272484
0.304743
0.334422
0.353853
0.381113
0.409455
0.454882
0.453167
-0.00696284
-0.00609845
0.00485223
0.0105794
0.0274211
0.0253783
0.0126485
0.00188839
-0.00870441
-0.0115777
-0.01503
-0.0176377
-0.00890756
0.0029754
0.0260993
0.0224313
0.0173243
0.00546776
0.00211628
-0.00383049
0.0015558
-0.00573375
-0.0104869
-0.0168524
-0.0101898
-0.00127902
0.00913573
0.0162051
0.0145266
0.00217242
-0.0126709
-0.0299086
-0.0346659
-0.0329832
-0.0172964
-0.00427599
-0.00761105
-0.0111382
-0.0197651
-0.00288665
-0.0213389
0.0209611
-0.0650153
-0.445265
-0.929611
-0.89715
-0.741442
-0.583397
-0.470039
-0.385595
-0.313235
-0.257405
-0.18724
-0.124489
-0.063445
0.0121927
0.0768755
0.137061
0.211948
0.268854
0.309619
0.361874
0.39497
0.444845
0.462308
0.497154
0.505677
0.505136
0.523053
0.523977
0.518699
0.515896
0.518731
0.526045
0.538234
0.54568
0.544516
0.540401
0.529446
0.510867
0.491877
0.473816
0.46137
0.436367
0.392375
0.343322
0.303743
0.273226
0.243584
0.225336
0.218494
0.218
0.225415
0.237304
0.24475
0.243172
0.237787
0.228299
0.211251
0.192016
0.178172
0.172537
0.173686
0.178138
0.16419
0.142109
0.138097
0.155577
0.178173
0.204145
0.237981
0.283774
0.320516
0.357117
0.384513
0.406759
0.429412
0.476749
0.473467
0.0549938
0.014669
-0.0212676
-0.0215541
-0.00780278
-0.000607356
-0.00600394
0.0117094
0.0188226
0.0210479
0.0115354
-0.00192542
-0.0188002
-0.0311641
-0.0205183
-0.0124103
-0.00728802
0.000522983
0.00294626
0.0139088
0.0397704
0.0340512
0.0279734
0.0179006
-0.00421465
-0.0217921
-0.0277907
-0.0200744
-0.0194356
-0.0231319
-0.0364064
-0.0408374
-0.036723
-0.0293496
-0.00294767
0.02625
0.0112541
0.00438011
-0.00932392
-0.0208553
-0.0331601
-0.0243302
-0.131607
-0.602073
-1.01384
-1.01821
-0.860493
-0.652181
-0.553809
-0.421402
-0.318479
-0.22705
-0.164253
-0.0964392
-0.0548915
0.0259823
0.091794
0.191618
0.263394
0.349465
0.398443
0.447056
0.454661
0.486706
0.517813
0.533538
0.569962
0.571182
0.559128
0.548877
0.538445
0.532892
0.533576
0.535339
0.538555
0.54317
0.548614
0.553585
0.553876
0.550727
0.554185
0.550009
0.535374
0.510147
0.472992
0.426862
0.383057
0.345693
0.312146
0.288271
0.272426
0.268783
0.276312
0.286835
0.288561
0.282237
0.273092
0.258338
0.237416
0.215321
0.200376
0.196259
0.202263
0.205269
0.189181
0.165687
0.160966
0.179196
0.199071
0.221653
0.252506
0.295814
0.334335
0.376767
0.411483
0.429616
0.44752
0.498489
0.492659
-0.0205557
0.0016939
0.0135729
0.0247048
0.0333222
0.0277809
0.0131008
0.00380933
-0.0206945
-0.0203312
-0.0121096
-0.00802399
-0.00642497
0.00386878
0.0278489
0.0262568
0.0231833
0.0174745
0.000779158
-0.0145547
-0.011761
-0.00795474
-0.00875878
0.00253843
-0.00590769
-0.00300983
0.0161905
0.0359828
0.0353785
0.0289607
0.0131104
-0.0208553
-0.0294787
-0.0294491
-0.0249196
-0.0269096
-0.019163
-0.0151851
-0.0135016
-0.016168
-0.00137267
-0.0240854
-0.18682
-0.814072
-1.11937
-1.14737
-1.07376
-0.906893
-0.724283
-0.516961
-0.347471
-0.21118
-0.125391
-0.0269481
0.0189901
0.0859667
0.13681
0.212692
0.293825
0.362028
0.422742
0.477565
0.504029
0.530188
0.550568
0.580716
0.586796
0.581255
0.573527
0.563451
0.559904
0.557013
0.552706
0.551555
0.553237
0.55546
0.558472
0.5638
0.572013
0.578747
0.583365
0.57513
0.556593
0.527911
0.488172
0.440241
0.399411
0.361755
0.32884
0.305717
0.29377
0.294064
0.29993
0.305214
0.301819
0.293952
0.284433
0.269373
0.251685
0.233004
0.220513
0.217661
0.226085
0.225968
0.207624
0.185004
0.181858
0.201523
0.219557
0.240362
0.26788
0.306416
0.344411
0.393069
0.433134
0.448732
0.463062
0.51869
0.509936
0.0715857
0.00719223
-0.0287532
-0.0233245
-0.0039141
0.00533351
0.0115722
0.0137202
0.0126348
0.0134222
0.00705965
-5.96471e-06
-0.0153068
-0.0206008
-0.0208152
-0.0102564
-2.8294e-05
0.0110569
0.00931798
0.0119804
0.029634
0.0398171
0.0330586
0.0255843
0.00868248
-0.0126944
-0.0308528
-0.033041
-0.0178781
-0.0143914
-0.0162706
-0.0252267
-0.0325755
-0.0246678
-0.0197978
0.00872895
0.0185903
0.00785114
0.00278988
-0.00695581
-0.0217173
-0.0540078
-0.245483
-0.882197
-1.09213
-1.13172
-1.12314
-1.06188
-0.918991
-0.653178
-0.337093
-0.116018
0.0313708
0.114977
0.1854
0.221349
0.256671
0.308618
0.371656
0.434655
0.489106
0.533227
0.556957
0.573651
0.588957
0.595969
0.593905
0.588703
0.582146
0.579417
0.579283
0.57725
0.576243
0.576121
0.575214
0.576595
0.580022
0.585466
0.591755
0.597155
0.59361
0.5804
0.557686
0.527644
0.490005
0.449843
0.414633
0.383611
0.36005
0.340252
0.327631
0.325639
0.330186
0.331802
0.326318
0.318044
0.306961
0.290479
0.269888
0.250577
0.24005
0.242001
0.250426
0.245022
0.223844
0.203759
0.202985
0.222694
0.237849
0.256167
0.280102
0.315483
0.353417
0.406995
0.451192
0.466228
0.478047
0.537851
0.525259
-0.0155154
0.0150413
0.0133909
0.0208433
0.0242747
0.0214061
0.0142187
0.00431718
-0.0134246
-0.019349
-0.0103351
-0.00543018
-0.00641886
0.000267995
0.00999306
0.0155718
0.0171889
0.0193284
0.00595024
-0.0014324
-0.0115213
-0.0054909
-0.00260558
0.00135682
0.00855805
0.00717329
0.00573574
0.0242079
0.0418209
0.0598905
0.0531058
0.0351148
0.000905762
-0.00908862
-0.0228238
-0.0304032
-0.0324261
-0.0282263
-0.0198325
-0.0145768
-0.0124058
-0.0572017
-0.301771
-0.984493
-1.10673
-1.13259
-1.12325
-1.07721
-0.963677
-0.693563
-0.244832
0.0492293
0.186139
0.272037
0.30669
0.337269
0.365097
0.398103
0.430345
0.468052
0.509636
0.540168
0.569124
0.594367
0.607069
0.608067
0.606671
0.601543
0.594595
0.591179
0.58883
0.587897
0.590428
0.594492
0.59916
0.601317
0.602987
0.606662
0.609953
0.60552
0.594435
0.573166
0.548041
0.519433
0.488507
0.456431
0.428768
0.40412
0.381188
0.362022
0.350822
0.351469
0.353088
0.350324
0.343054
0.333381
0.321234
0.303377
0.280666
0.264813
0.259381
0.267149
0.272131
0.26025
0.235292
0.22024
0.224001
0.242394
0.253645
0.269429
0.290434
0.323656
0.361585
0.418903
0.466264
0.483117
0.491766
0.555658
0.538362
0.042823
0.00724896
-0.00963495
-0.0117234
0.000248633
0.00763739
0.0168438
0.0169935
0.0103969
0.00112462
-0.00335236
-0.00312737
-0.00945852
-0.00944058
-0.00846836
-0.00855768
0.00235028
0.0100335
0.00921588
0.0114527
0.0133011
0.0210488
0.0232098
0.0213601
0.0179193
0.00416755
-0.00760375
-0.0174236
-0.0247295
-0.0130139
0.00570114
0.0103511
0.0142602
0.0156043
0.0154363
0.00992282
0.00856797
0.0130408
0.00752954
0.000468607
-0.0156606
-0.0801754
-0.392104
-1.02537
-1.08536
-1.1045
-1.07001
-0.997458
-0.835002
-0.49656
-0.0664818
0.14254
0.248912
0.339075
0.380486
0.400712
0.428911
0.457622
0.490249
0.514871
0.542967
0.564249
0.585317
0.606438
0.613755
0.616301
0.617092
0.612956
0.607751
0.602757
0.598452
0.598109
0.600634
0.604259
0.608107
0.611927
0.614466
0.617221
0.616201
0.609242
0.595265
0.572985
0.547687
0.520726
0.492991
0.466439
0.443738
0.423024
0.403233
0.389551
0.382518
0.382093
0.379829
0.372385
0.359855
0.346261
0.330879
0.310272
0.291216
0.28268
0.283725
0.293699
0.290225
0.271522
0.245742
0.236962
0.246514
0.259652
0.267294
0.280433
0.299363
0.33095
0.369046
0.430387
0.478333
0.499659
0.505191
0.571607
0.549757
-0.00107198
0.0156436
0.0135619
0.0125129
0.0129715
0.0127846
0.0134285
0.00644741
-0.0019626
-0.00997684
-0.0091469
-0.00587363
-0.006494
-0.00176457
0.000923072
0.00564456
0.00543379
0.0115636
0.00824602
0.00663871
0.00259244
-0.000624868
-0.00152195
0.00384
0.00783054
0.00728226
0.0069077
0.00891226
0.0147222
0.026948
0.0375481
0.0372977
0.0299996
0.0166125
0.00267041
-0.00440585
-0.00836969
-0.00848533
-0.00847173
-0.00967963
-0.0248429
-0.11525
-0.575735
-1.07956
-1.083
-1.04681
-0.969261
-0.835183
-0.592431
-0.216539
0.121127
0.24075
0.324673
0.389881
0.414175
0.425029
0.446156
0.476248
0.510358
0.538475
0.565988
0.583052
0.597114
0.613311
0.621169
0.623682
0.624059
0.620698
0.616451
0.610247
0.60493
0.604124
0.605897
0.608725
0.612678
0.616776
0.619903
0.622566
0.620219
0.612708
0.598935
0.576723
0.551192
0.52548
0.500633
0.476963
0.457271
0.439782
0.424888
0.41397
0.409423
0.407486
0.39994
0.385856
0.368694
0.352433
0.334739
0.315843
0.304947
0.304592
0.312377
0.316066
0.303909
0.278496
0.258658
0.255207
0.267631
0.274896
0.279872
0.290553
0.307647
0.337725
0.376042
0.442561
0.488555
0.514286
0.517343
0.586027
0.560131
0.0149156
0.00972348
0.00619431
0.00281326
0.00419194
0.00767709
0.0137315
0.014381
0.00741195
-0.000473925
-0.00584934
-0.00510415
-0.00685852
-0.00479875
-0.00376286
-0.00106565
1.21144e-05
0.00631187
0.00659349
0.0086218
0.0096016
0.00922276
0.010804
0.00917578
0.01104
0.00862415
0.0056313
0.00171646
-0.00487766
-0.00431181
0.000858351
0.0104314
0.0163069
0.0194612
0.0223901
0.0227403
0.0256313
0.0151715
0.0176932
0.00134514
-0.0496498
-0.230429
-0.745289
-1.04151
-1.03496
-0.941169
-0.803213
-0.574746
-0.262544
0.0475325
0.215444
0.314333
0.39794
0.441026
0.451688
0.456172
0.471249
0.496666
0.526527
0.552304
0.573916
0.588062
0.602052
0.615609
0.623352
0.627164
0.629419
0.628076
0.624729
0.618169
0.611491
0.606822
0.6069
0.608532
0.611283
0.615453
0.619335
0.622422
0.62211
0.616904
0.605322
0.586033
0.562467
0.539698
0.516451
0.49392
0.475296
0.459195
0.448279
0.439692
0.43435
0.427219
0.414173
0.396685
0.378015
0.360207
0.342567
0.329717
0.326853
0.332731
0.339057
0.333224
0.312818
0.284585
0.271499
0.275075
0.285411
0.288208
0.291082
0.299547
0.315318
0.344137
0.382666
0.455605
0.4982
0.526631
0.527738
0.599093
0.56923
0.00363903
0.00991756
0.0135334
0.0113892
0.00910129
0.00801743
0.0106343
0.00867643
0.00486265
-0.00187499
-0.00619752
-0.00576892
-0.00541569
-0.00272383
-0.000914272
0.00209034
0.00187676
0.00577028
0.005228
0.00624808
0.00595605
0.00448961
0.00294279
0.002357
0.00545641
0.00557081
0.00722564
0.00886072
0.00856343
0.0103397
0.0131927
0.0160867
0.0196371
0.0204344
0.0196025
0.0164292
0.0143505
0.0123598
0.0144102
-0.000790463
-0.0821975
-0.358882
-0.793125
-0.827144
-0.778533
-0.684541
-0.507146
-0.261209
0.00506558
0.199902
0.277926
0.343172
0.406646
0.438468
0.450734
0.463381
0.484973
0.510168
0.536029
0.558885
0.578023
0.593243
0.607936
0.62114
0.629099
0.632924
0.633188
0.631605
0.628549
0.623683
0.617802
0.612241
0.609155
0.609944
0.61137
0.613814
0.618149
0.62228
0.624006
0.619213
0.610514
0.595131
0.575345
0.556202
0.534635
0.514555
0.497359
0.483371
0.4744
0.464747
0.456175
0.443945
0.426867
0.408222
0.389392
0.371898
0.358246
0.351701
0.355369
0.361634
0.35995
0.345885
0.317046
0.293228
0.286542
0.294014
0.298605
0.298493
0.300452
0.30794
0.322836
0.350655
0.388832
0.46707
0.507493
0.536506
0.537346
0.610544
0.57755
0.0061027
0.00739564
0.0120025
0.010409
0.00738455
0.0073203
0.00973075
0.00953928
0.00662244
0.0018433
-0.00331688
-0.00470925
-0.00486816
-0.00343251
-0.00169707
0.000359503
0.000989615
0.00342426
0.003752
0.00535614
0.00706225
0.00636603
0.00581664
0.00459458
0.00423788
0.00356572
0.00546405
0.00581903
0.00535293
0.00468139
0.00450554
0.00615137
0.00864561
0.0112485
0.0129378
0.0137083
0.0131215
0.0109224
0.00427114
-0.0361121
-0.175947
-0.475732
-0.490558
-0.484911
-0.514929
-0.486785
-0.369823
-0.142143
0.0928318
0.221424
0.306482
0.375163
0.412776
0.426057
0.435055
0.45186
0.475008
0.500097
0.525557
0.548081
0.566907
0.586235
0.60355
0.617203
0.62598
0.6295
0.631081
0.632903
0.633184
0.630922
0.626876
0.620813
0.618873
0.615525
0.61363
0.61444
0.617426
0.622302
0.626777
0.624364
0.618278
0.606649
0.591844
0.576852
0.557213
0.54047
0.525068
0.512726
0.501555
0.489726
0.478136
0.461468
0.442274
0.423854
0.405228
0.388822
0.379384
0.378919
0.385224
0.386175
0.376392
0.352889
0.321855
0.305251
0.304023
0.309936
0.309081
0.307068
0.308656
0.31606
0.330381
0.357865
0.396093
0.475238
0.515672
0.545744
0.54607
0.620777
0.58556
0.00252125
0.00623675
0.0127468
0.01242
0.00950415
0.00796379
0.0081838
0.00748965
0.00507199
0.00149341
-0.00217526
-0.0027115
-0.00363068
-0.0024743
-0.00063859
0.000943395
0.00129333
0.00286255
0.00263965
0.00348292
0.00442673
0.00436761
0.00371517
0.00320758
0.00225721
0.00244364
0.00361922
0.00643195
0.00796787
0.00896297
0.00884123
0.00978683
0.0108892
0.0115721
0.0125406
0.0105472
0.00705694
0.000461706
-0.0117345
-0.0819966
-0.204182
-0.165727
-0.144419
-0.200249
-0.295891
-0.326394
-0.26388
-0.101219
0.0851039
0.204117
0.286055
0.348102
0.375559
0.385153
0.399519
0.421545
0.446163
0.468429
0.489544
0.511742
0.534535
0.559869
0.583433
0.599123
0.608683
0.612998
0.618173
0.622373
0.625985
0.627227
0.627503
0.625164
0.625541
0.619749
0.616889
0.617321
0.619556
0.623646
0.62802
0.626998
0.623217
0.615791
0.606283
0.596679
0.581115
0.569171
0.556061
0.542051
0.526928
0.514059
0.498646
0.478508
0.458624
0.44008
0.421645
0.407495
0.401909
0.405583
0.409304
0.403442
0.384995
0.355284
0.330636
0.320399
0.321701
0.322374
0.317716
0.31474
0.316611
0.324257
0.338166
0.365419
0.404038
0.480298
0.522852
0.554007
0.553864
0.62982
0.592813
0.00328867
0.00560248
0.0109542
0.0120489
0.00941381
0.00816177
0.00755337
0.00717321
0.00483131
0.00240776
-0.000370435
-0.00068424
-0.00243503
-0.00179283
-0.000583432
0.000595118
0.00106639
0.00199284
0.00239004
0.00218129
0.00324841
0.00379862
0.00319411
0.00306477
0.00351782
0.00253203
0.00279645
0.00390004
0.00597399
0.0069059
0.00683454
0.00682885
0.0066655
0.00639472
0.00514365
0.00506325
0.00253722
0.00366052
-0.00476607
0.00973245
0.0472807
0.096555
0.0602061
-0.0502294
-0.186609
-0.243762
-0.216883
-0.127238
0.0111644
0.123607
0.208518
0.271009
0.310347
0.349513
0.388212
0.424464
0.451546
0.471332
0.487479
0.503947
0.521276
0.543115
0.566846