/*--------------------------------*- C++ -*----------------------------------*\
| =========                 |                                                 |
| \\      /  F ield         | OpenFOAM: The Open Source CFD Toolbox           |
|  \\    /   O peration     | Version:  2.2.x                                 |
|   \\  /    A nd           | Web:      www.OpenFOAM.org                      |
|    \\/     M anipulation  |                                                 |
\*---------------------------------------------------------------------------*/
FoamFile
{
    version     2.0;
    format      ascii;
    class       surfaceScalarField;
    location    "0.7";
    object      cfmax;
}
// * * * * * * * * * * * * * * * * * * * * * * * * * * * * * * * * * * * * * //

dimensions      [0 3 -1 0 0 0 0];

internalField   nonuniform List<scalar> 
28084
(
0.00125614
0.00116025
0.00114353
0.00113778
0.00115424
0.00115336
0.00116803
0.00118948
0.00119194
0.00118211
0.00116314
0.00113822
0.00111509
0.00109522
0.00108455
0.0010831
0.00108532
0.00110402
0.00111628
0.00112123
0.00112526
0.00111843
0.0011035
0.00108425
0.0010756
0.00106729
0.0010703
0.00107266
0.00108353
0.00109764
0.00112214
0.00115068
0.00116183
0.00116704
0.00117005
0.00117225
0.00117529
0.00117975
0.00118918
0.00120477
0.00122335
0.00124531
0.00120154
0.000851958
0.000813761
0.000808478
0.000808084
0.00081147
0.000820083
0.000831909
0.000846518
0.000862428
0.000877841
0.000891992
0.000904357
0.000914443
0.000922717
0.000929048
0.000930561
0.000925709
0.000915057
0.000897317
0.000874553
0.000845092
0.000816926
0.00078886
0.000768711
0.000754063
0.000744046
0.000737175
0.000731194
0.000726607
0.000722697
0.00072122
0.000721415
0.000721383
0.00072087
0.000720387
0.000720159
0.000721168
0.000722811
0.000725137
0.000727705
0.000728999
0.000728804
0.000727709
0.000726515
0.000725675
0.000724918
0.000724201
0.000721397
0.000716437
0.000709714
0.000700651
0.000690696
0.000681831
0.000672985
0.000665117
0.000657365
0.000649282
0.000640787
0.000632315
0.000625903
0.000622956
0.000623769
0.000627875
0.000635348
0.000645088
0.000655574
0.00066721
0.000679526
0.000691363
0.000701584
0.00070873
0.000713932
0.000726641
0.000740162
0.000752696
0.00280796
0.00344356
0.00100006
0.00335369
0.0012618
0.00334623
0.00133902
0.00335408
0.00130334
0.0033151
0.00127375
0.00332254
0.00123363
0.0030865
0.00113482
0.00290136
0.00108088
0.00280351
0.00105949
0.0027965
0.00106114
0.00282286
0.00109274
0.00289587
0.00114644
0.00276592
0.00121601
0.00266787
0.00123883
0.00258651
0.00123514
0.00251692
0.00122134
0.00246422
0.00119353
0.0022968
0.00114178
0.00212901
0.00107572
0.00201177
0.00106049
0.00193266
0.00106354
0.00187929
0.00107031
0.00186232
0.00109679
0.0018204
0.00114878
0.00173402
0.00119346
0.00166241
0.0012076
0.00158577
0.00120237
0.00151887
0.00118982
0.00143338
0.00116467
0.00132447
0.00112338
0.00123008
0.00109831
0.00114341
0.00108521
0.00108833
0.00108945
0.00103869
0.00108955
0.000993497
0.00109294
0.000956964
0.00110008
0.000913217
0.0011189
0.000865099
0.00113113
0.000818257
0.00113075
0.000771463
0.00112586
0.000724527
0.00111434
0.000715082
0.00111331
0.000559046
0.000922455
0.000522685
0.000749266
0.000525666
0.000744284
0.000530633
0.00075646
0.00053255
0.000770092
0.000533068
0.00078536
0.000537728
0.000802099
0.000541444
0.000819166
0.000543478
0.000834513
0.000543614
0.000847591
0.000542986
0.000857064
0.000541242
0.000864708
0.000538914
0.000870581
0.000535957
0.000873166
0.000532326
0.000874096
0.000532625
0.000873963
0.000533253
0.000872481
0.000534104
0.000868649
0.000534839
0.000864189
0.000535812
0.000858031
0.000536762
0.000851624
0.000529743
0.000843593
0.000521205
0.000834344
0.000509117
0.000822121
0.000501473
0.000811994
0.000495689
0.000800954
0.000493618
0.000790236
0.000492489
0.000778708
0.000492274
0.00076588
0.000492985
0.000754721
0.000494206
0.00074614
0.000496387
0.000739457
0.000499637
0.000735316
0.000503094
0.000732181
0.000506394
0.000729423
0.000509443
0.000726647
0.000512719
0.000723839
0.000516212
0.000721209
0.000519736
0.000719263
0.000523829
0.0007172
0.000529064
0.000715264
0.000534305
0.000712781
0.000539919
0.000710346
0.000545519
0.000708455
0.000551007
0.000707387
0.000555601
0.000706998
0.000559711
0.000706486
0.000563445
0.000704561
0.000567314
0.000700664
0.00057049
0.000695387
0.000574363
0.000688122
0.000579041
0.000679743
0.000584686
0.000670904
0.000590999
0.000662224
0.000596056
0.000653069
0.000600086
0.000643886
0.000603086
0.000634691
0.000605546
0.000625851
0.000607301
0.00061809
0.000608569
0.000612414
0.000610482
0.000609466
0.000613161
0.000609171
0.000616693
0.000611262
0.000621419
0.000614466
0.000627088
0.000619605
0.000633628
0.000626363
0.000639093
0.000635865
0.000645661
0.000646388
0.000652023
0.000658344
0.000658013
0.000671337
0.00066425
0.000684396
0.000672093
0.000696514
0.000683335
0.000706177
0.000699173
0.000722891
0.000708786
0.000740329
0.000715183
0.000752707
0.00290581
0.00347157
0.00139252
0.00308144
0.00108129
0.00297695
0.00101892
0.00287775
0.00103411
0.00301431
0.00104597
0.00336128
0.00114864
0.00317095
0.00129376
0.00296462
0.00140688
0.00282324
0.00141963
0.00279191
0.00138263
0.00284363
0.00133791
0.00290095
0.00125196
0.00263464
0.00112901
0.00247553
0.00108148
0.00239917
0.00108807
0.00235915
0.00110239
0.00241165
0.0011467
0.00232634
0.00122893
0.00216537
0.00131858
0.00202955
0.00134138
0.00193646
0.00134274
0.00189362
0.0013303
0.00187599
0.00127763
0.00179536
0.00120538
0.00164973
0.00113911
0.00155897
0.00113975
0.00148916
0.00114463
0.00144927
0.00115906
0.00143276
0.00120683
0.00133961
0.00128554
0.00124112
0.00137677
0.0011629
0.00142685
0.00110108
0.00145402
0.00104437
0.00146222
0.00099363
0.00144272
0.00095227
0.00142434
0.000912892
0.00140512
0.000867265
0.00140114
0.000817371
0.0014098
0.000767881
0.00142737
0.000722064
0.00145142
0.000665704
0.0014976
0.000554299
0.00142788
0.000523489
0.00102138
0.000523435
0.000942645
0.000526362
0.000938524
0.000530083
0.000942854
0.000537738
0.000954547
0.000543962
0.000971062
0.00054693
0.000988188
0.000547069
0.00100566
0.000545477
0.00102308
0.000543625
0.00103846
0.000540592
0.00104906
0.000536431
0.00105654
0.000534492
0.00106024
0.000534811
0.00105843
0.000535673
0.00105448
0.00053818
0.00104922
0.000541002
0.00104317
0.000544096
0.00103644
0.000547468
0.00102824
0.000552564
0.0010201
0.00055514
0.00101232
0.000552777
0.00100313
0.000543715
0.00099513
0.000535168
0.000978217
0.000525653
0.000956085
0.00051963
0.000933496
0.000516258
0.000908517
0.000514125
0.000884042
0.000513468
0.000861496
0.000513268
0.000842239
0.000512918
0.000826288
0.000513318
0.000812143
0.000514682
0.000800241
0.000516483
0.000790568
0.000518605
0.00078214
0.000521462
0.000775167
0.000524218
0.00076968
0.000526504
0.000765488
0.00052947
0.00076136
0.000533438
0.000758751
0.000537899
0.000756804
0.000543072
0.000755572
0.000548533
0.000754754
0.000553943
0.000754171
0.000558848
0.000753212
0.000563193
0.000751369
0.000567399
0.000748402
0.0005711
0.000744115
0.00057521
0.000738172
0.000580288
0.000729999
0.000586277
0.000719506
0.000592951
0.000707994
0.000599458
0.000696556
0.000604689
0.000686204
0.000608325
0.000676202
0.000610064
0.000666039
0.000612074
0.00065603
0.000614464
0.000646845
0.000617454
0.000639418
0.000621244
0.000634919
0.00062532
0.000633077
0.000628903
0.000634401
0.00063213
0.000637784
0.000635502
0.00064235
0.000639673
0.000647531
0.000644898
0.000655725
0.00065167
0.00066502
0.000658478
0.000675581
0.000666616
0.000687114
0.00067602
0.000699288
0.000687626
0.00071042
0.000699604
0.000719735
0.000714522
0.000730795
0.000723338
0.000741386
0.000733005
0.000751388
0.00261832
0.0034411
0.000963176
0.00311076
0.00140205
0.00296249
0.00149812
0.00285983
0.00145731
0.0030224
0.00141219
0.00334317
0.00131435
0.00302872
0.00116515
0.00271615
0.00107842
0.00254326
0.0010656
0.00253585
0.00108389
0.00268619
0.00110138
0.00289702
0.00120804
0.00261136
0.00139016
0.00243234
0.00144304
0.00239296
0.00143821
0.00237705
0.00140839
0.00241963
0.00136539
0.002302
0.00125922
0.00205078
0.00115158
0.00187588
0.00113669
0.00179042
0.00115311
0.0017624
0.00117028
0.00180444
0.00119769
0.00179018
0.00127608
0.00163537
0.00139931
0.00153428
0.00143785
0.0014889
0.00143226
0.00146939
0.00140816
0.001462
0.0013577
0.00134226
0.00126617
0.00120905
0.00123541
0.00110673
0.0012124
0.00102975
0.00121142
0.000965327
0.00121013
0.00093267
0.00122087
0.000921669
0.00123534
0.000905061
0.00126136
0.000876436
0.00130843
0.000837124
0.00133567
0.000785509
0.00133714
0.000741442
0.00133072
0.000697941
0.00132562
0.000548772
0.00099741
0.000540685
0.000873466
0.000534177
0.000866343
0.000536501
0.000884916
0.000539222
0.00090796
0.000550561
0.000932362
0.00055925
0.000957146
0.000565295
0.000981516
0.000567564
0.00100317
0.000568405
0.00102306
0.000567305
0.00104042
0.000564657
0.0010559
0.00055931
0.0010681
0.0005631
0.0010803
0.00056758
0.00108832
0.000567866
0.00109543
0.000569511
0.00110176
0.000574269
0.00110741
0.000577187
0.00111023
0.00058069
0.00110785
0.000584029
0.0011045
0.000584044
0.00109781
0.000581244
0.00108891
0.000577298
0.00107559
0.000567924
0.00105503
0.000557062
0.00102882
0.000548576
0.000999594
0.000542085
0.000970676
0.000537579
0.000942863
0.000534084
0.000915522
0.000530568
0.000889907
0.000526176
0.000867
0.000523419
0.000845761
0.000523776
0.000830517
0.000525476
0.000821397
0.000526658
0.000812799
0.000527818
0.000803321
0.000529349
0.000794521
0.000531003
0.000786952
0.000533196
0.000780861
0.00053624
0.000776191
0.000540384
0.000773345
0.000545321
0.000772333
0.000550647
0.000772963
0.000556333
0.000773871
0.000561427
0.000773277
0.00056571
0.00077095
0.00056973
0.000766878
0.000572959
0.000761212
0.000576975
0.000754382
0.000581617
0.000745935
0.000587322
0.000735306
0.000593235
0.000724425
0.000598518
0.000714008
0.000602774
0.000703546
0.00060684
0.000693548
0.000610013
0.000683142
0.000612977
0.000672425
0.000615757
0.000662624
0.000618814
0.000655306
0.000622281
0.000650874
0.000627137
0.000649174
0.000631656
0.000650431
0.000635797
0.000653544
0.000639325
0.000657758
0.000643272
0.000661736
0.000648133
0.00066812
0.000654801
0.000675549
0.000662865
0.000683886
0.00067289
0.000693429
0.000685739
0.000704343
0.000702548
0.00071572
0.000717312
0.000727931
0.000731042
0.000741985
0.000736961
0.000748843
0.000748699
0.000754047
0.00263084
0.0034694
0.00147618
0.00295595
0.0010709
0.00274662
0.000992689
0.00268452
0.00101173
0.00287642
0.00103655
0.00338437
0.00118053
0.00309304
0.00140066
0.00277901
0.00156332
0.0025781
0.00158378
0.00254042
0.00153551
0.00270429
0.00148503
0.00293671
0.00138987
0.00259453
0.00119498
0.00237457
0.00112941
0.00229029
0.00114377
0.0022695
0.00115831
0.00235658
0.00120906
0.00230157
0.00134372
0.00206078
0.00149308
0.00188781
0.00153959
0.00178901
0.00154209
0.00177777
0.00152496
0.00182084
0.00145813
0.00179891
0.00135639
0.00162026
0.00127598
0.00149192
0.0012573
0.00141218
0.00125688
0.00137886
0.00128336
0.00138416
0.00130506
0.00133199
0.0014012
0.00121084
0.00154294
0.00110766
0.00164009
0.00103405
0.00168037
0.000973398
0.00168968
0.000933113
0.00165274
0.000916732
0.00161726
0.000905195
0.00156731
0.000880564
0.00150064
0.000842345
0.00147876
0.000792716
0.00147288
0.000743665
0.00148466
0.000699405
0.00149933
0.000569316
0.00140985
0.000536617
0.00103888
0.000524992
0.000999299
0.000535856
0.00100355
0.000546516
0.00101907
0.00055878
0.00104253
0.000568618
0.00107184
0.00057483
0.00110141
0.00057672
0.0011279
0.000577623
0.0011523
0.000576639
0.00117586
0.000574832
0.0011988
0.000568758
0.00121587
0.000569084
0.00123192
0.000577121
0.00124048
0.000587192
0.0012465
0.000595176
0.00125239
0.000608253
0.00125633
0.000614036
0.00126055
0.00062096
0.00125893
0.000625951
0.00125602
0.000624841
0.0012467
0.000623384
0.00122963
0.000619153
0.00121014
0.000608824
0.00118411
0.000596164
0.00115361
0.000584847
0.00111968
0.000575266
0.00108521
0.000567059
0.00105214
0.000559918
0.00101965
0.000552853
0.000985141
0.000545328
0.000951277
0.000538459
0.000919159
0.000535805
0.000890497
0.000535871
0.000873023
0.000536708
0.000859424
0.000536284
0.0008459
0.0005362
0.000832149
0.000536608
0.000818592
0.000538089
0.000807555
0.000540528
0.000799452
0.000543406
0.000793836
0.000547512
0.000791013
0.000552652
0.000790879
0.000558296
0.000791144
0.000564066
0.00078991
0.000568291
0.000787728
0.00057235
0.000783178
0.000575333
0.000776731
0.000578769
0.000769096
0.000583129
0.000760257
0.000588448
0.000749481
0.000594003
0.000738631
0.000599512
0.000728278
0.000603158
0.000717955
0.000606496
0.000707617
0.000609243
0.000696741
0.000612235
0.000685663
0.000615204
0.0006756
0.000618826
0.000668386
0.000623103
0.000664708
0.000628729
0.000663728
0.000633657
0.000664852
0.000638317
0.000667348
0.00064202
0.00067028
0.000645802
0.000672745
0.000649807
0.000676723
0.000655858
0.000681326
0.000664257
0.000687429
0.000675572
0.000695839
0.000690495
0.000706736
0.000710795
0.000719179
0.000729713
0.000733908
0.000745996
0.000749806
0.000752509
0.000756491
0.000765281
0.000758855
0.00261972
0.00343403
0.000967036
0.00300345
0.00150708
0.00276874
0.00161047
0.00264258
0.00156858
0.00292308
0.00151773
0.00340043
0.00140927
0.003059
0.00123641
0.00266856
0.00112061
0.00246071
0.00112571
0.00240072
0.00113706
0.00254649
0.00115703
0.00291468
0.00125429
0.00256116
0.00150781
0.00232175
0.00160013
0.00226452
0.00159984
0.00229074
0.0015669
0.00239877
0.00151333
0.00232033
0.00139005
0.00204215
0.00126026
0.00183841
0.00122692
0.00174116
0.0012527
0.00168292
0.00127623
0.00171672
0.00130876
0.00176639
0.00136768
0.00159862
0.00155348
0.00146011
0.00165432
0.00139584
0.00165731
0.00138841
0.00163407
0.00141671
0.00157716
0.00139687
0.00147425
0.00124313
0.001396
0.00112377
0.00136328
0.00103203
0.00134237
0.00096818
0.00134762
0.00092022
0.00136065
0.00090786
0.00137876
0.000916463
0.00141749
0.000916196
0.0015298
0.00089023
0.0016136
0.000842956
0.00165909
0.000796191
0.00167467
0.000787048
0.00165643
0.000644107
0.00162124
0.000569295
0.00114368
0.000545225
0.00110423
0.000554895
0.00111628
0.000569704
0.00113802
0.000585402
0.00116646
0.0005973
0.0011973
0.00060446
0.00123024
0.000608202
0.00126019
0.00061249
0.00128815
0.000612854
0.00131602
0.000608497
0.00134196
0.000603297
0.00136762
0.000595269
0.0013827
0.000601919
0.00139709
0.000612355
0.00140512
0.000625146
0.00141268
0.000637833
0.00141869
0.000653053
0.00142186
0.000663579
0.00142557
0.000674154
0.00142149
0.000673465
0.00141645
0.000673209
0.00140024
0.000671586
0.00138307
0.000666028
0.00135959
0.000658029
0.00133019
0.000644767
0.0012984
0.00063141
0.00126163
0.00061888
0.00122221
0.000607808
0.00117911
0.000596502
0.00113282
0.000585092
0.0010828
0.000572677
0.00103304
0.000562147
0.000986485
0.000556958
0.000946079
0.000554785
0.000917787
0.000551813
0.000896967
0.000548817
0.000878019
0.000545638
0.000859318
0.000544166
0.000843333
0.000545508
0.000830828
0.000547747
0.000822288
0.000550958
0.000816094
0.000554913
0.000813124
0.000559248
0.000812276
0.000564724
0.000809855
0.00057008
0.000807339
0.000574235
0.000802702
0.000577087
0.000795863
0.000580172
0.000787822
0.000584361
0.000778387
0.000589431
0.000767149
0.000594866
0.000755588
0.000600605
0.000745442
0.000604108
0.00073525
0.000607498
0.000725175
0.000610675
0.000714264
0.000613364
0.00070305
0.000616371
0.000692606
0.000620815
0.000684888
0.000625934
0.000680988
0.000632226
0.00068076
0.000637979
0.000682009
0.00064284
0.000683515
0.000646008
0.000684282
0.000649038
0.000684995
0.000651465
0.000685464
0.00065649
0.000687006
0.000664491
0.000691531
0.000676472
0.000698338
0.000692987
0.000707964
0.000717152
0.000720497
0.000740329
0.000736288
0.000759623
0.000754538
0.000768669
0.000761983
0.000783356
0.000763431
0.00256749
0.00349417
0.00155097
0.00298039
0.00112044
0.00264769
0.00100658
0.00257691
0.00102032
0.00284258
0.00106576
0.00330089
0.00120493
0.00306373
0.00145606
0.00268192
0.0016767
0.00246032
0.00171334
0.00238839
0.00166431
0.00259549
0.00161816
0.00297572
0.00152916
0.00260801
0.00130764
0.00231901
0.00119836
0.00221095
0.00120636
0.00220902
0.00123297
0.00227027
0.00128095
0.00227534
0.00141762
0.00201665
0.00162017
0.00180431
0.00171885
0.00171031
0.00174491
0.00169348
0.00171029
0.00175498
0.0016494
0.00182346
0.00153328
0.00162498
0.0014241
0.00146922
0.00138554
0.00136614
0.00138825
0.00131084
0.00139717
0.00129651
0.00142078
0.00130839
0.00145623
0.00121693
0.00160011
0.001103
0.00177393
0.0010139
0.00185385
0.000952042
0.00186881
0.000913894
0.00184114
0.000917595
0.00180484
0.000922377
0.00173634
0.000922052
0.00165566
0.000856166
0.00157832
0.000787538
0.00153344
0.000736098
0.00152706
0.000717857
0.00154594
0.000664911
0.00159421
0.000567181
0.00120308
0.000559279
0.00116894
0.000579705
0.00119116
0.000602861
0.00122342
0.000619906
0.00125783
0.000630069
0.00129318
0.000634402
0.00132739
0.000636669
0.00135989
0.000642577
0.00139423
0.000641016
0.0014235
0.000638355
0.00144872
0.000631738
0.00146987
0.000624855
0.00149057
0.000624501
0.00150369
0.000639313
0.00151626
0.000654783
0.00153257
0.000668368
0.00154068
0.000685159
0.00155139
0.000695842
0.00155738
0.000708996
0.0015593
0.000715414
0.00155863
0.000719803
0.00155427
0.000724962
0.00154416
0.000722596
0.00153054
0.000720513
0.00150652
0.000713936
0.0014814
0.000704496
0.00144954
0.000693034
0.00141212
0.000680496
0.00136958
0.000667154
0.00132119
0.000651187
0.00126939
0.000633714
0.0012139
0.000614207
0.00115388
0.000596119
0.00109688
0.00058377
0.00104178
0.000575499
0.000996674
0.00056907
0.000961515
0.000561574
0.000931303
0.000555987
0.000905518
0.000554409
0.000884355
0.000554766
0.000867356
0.000556338
0.00085589
0.000558621
0.000847731
0.000561589
0.000842329
0.000566462
0.000838486
0.000571394
0.000835018
0.000576241
0.000830482
0.000579717
0.000824082
0.000582981
0.000815981
0.000586892
0.000805993
0.000591294
0.000794085
0.000596636
0.000780186
0.00060199
0.000768631
0.000605825
0.0007578
0.000609439
0.000747099
0.000612737
0.000735777
0.00061545
0.000724054
0.00061872
0.000712744
0.000623894
0.00070367
0.000629246
0.000698395
0.000637116
0.000697531
0.000643642
0.000698614
0.000648435
0.000699492
0.000650758
0.000698815
0.000651615
0.000697273
0.000650568
0.000693353
0.000656095
0.000692694
0.000666506
0.000696459
0.000680648
0.000702605
0.00069811
0.000711188
0.000723241
0.00072321
0.000750435
0.000738328
0.000772644
0.00075727
0.000783714
0.000767023
0.000801962
0.000767913
0.00264679
0.003395
0.000988438
0.00298818
0.00157706
0.00268879
0.00171293
0.00252937
0.00166692
0.00285988
0.00161786
0.00336275
0.0015104
0.00314363
0.00134125
0.00272161
0.00119005
0.00245979
0.00119637
0.00235079
0.00118887
0.00250485
0.00123654
0.00284562
0.00130502
0.00255684
0.00160321
0.00226105
0.00179061
0.0021559
0.001785
0.00221002
0.00174209
0.00233753
0.00166835
0.00238707
0.00156318
0.00209195
0.00138479
0.00186013
0.00133691
0.00173753
0.00136745
0.00165047
0.00139093
0.0016563
0.00142149
0.00175758
0.00148289
0.00158887
0.00169417
0.00142849
0.00187789
0.00131542
0.00191184
0.00130136
0.00189083
0.00132481
0.00185789
0.0013683
0.00175656
0.00131344
0.00163018
0.00117919
0.00153367
0.00106239
0.00149964
0.000981643
0.00148637
0.000924795
0.00148976
0.000895682
0.00151802
0.000873759
0.00155029
0.000881404
0.00164552
0.000846744
0.00178278
0.000788871
0.00188107
0.000737565
0.00194202
0.000718068
0.001956
0.000687469
0.0020015
0.000545541
0.00154001
0.000567203
0.00126943
0.000592923
0.00130187
0.000618812
0.00132993
0.00063689
0.00136317
0.000647611
0.0013948
0.00065449
0.00142922
0.000659357
0.00146558
0.000661893
0.00150158
0.000656723
0.00152984
0.000652269
0.00155599
0.00064331
0.00157491
0.000637213
0.00159095
0.000622152
0.00160582
0.000642405
0.00161644
0.000657596
0.00163437
0.000678424
0.00164019
0.000697173
0.00165732
0.00071536
0.00166613
0.000728909
0.0016701
0.000743066
0.00167367
0.000750001
0.00167394
0.000761645
0.00167439
0.000764957
0.00167002
0.000768588
0.00165689
0.000770001
0.00164425
0.000766606
0.00162703
0.000762014
0.0015993
0.000757237
0.0015695
0.000748118
0.00153645
0.000737346
0.00149607
0.000722017
0.00144689
0.000701806
0.00139171
0.000679968
0.00132974
0.000650924
0.00126024
0.000627472
0.00118938
0.000610061
0.00112165
0.0005937
0.00106109
0.000580857
0.00100901
0.000573572
0.000970181
0.000568743
0.000941643
0.00056636
0.000922031
0.00056555
0.00090834
0.00056682
0.000898308
0.000570205
0.000889942
0.00057477
0.000883516
0.000580238
0.000876049
0.000584457
0.000868249
0.000588357
0.000859606
0.000592383
0.000848877
0.000596573
0.000835669
0.000600387
0.000820027
0.000605181
0.000804355
0.000609741
0.000790864
0.00061337
0.000778144
0.000617051
0.000765657
0.000619736
0.000753032
0.000622293
0.000740583
0.000626762
0.00072956
0.000631842
0.000721198
0.000640528
0.00071766
0.000648304
0.000717978
0.000653977
0.00071843
0.000657158
0.000716774
0.000658747
0.000713736
0.000657788
0.000709929
0.000661297
0.000705019
0.000671566
0.00070559
0.000687242
0.000710058
0.000705273
0.000716767
0.000730944
0.00072806
0.000760063
0.000742404
0.000785224
0.000759909
0.000797978
0.00077161
0.000820057
0.000771839
0.00253423
0.00348645
0.00162518
0.00306243
0.00120385
0.00263956
0.00103382
0.00255067
0.00104357
0.00286359
0.00110917
0.00317528
0.00123807
0.00306116
0.00149179
0.00264053
0.00177613
0.00239521
0.00184026
0.00231627
0.00179303
0.00254623
0.00175152
0.00293035
0.00165813
0.00266053
0.00145786
0.0023075
0.00127894
0.00215744
0.00126675
0.0021889
0.00131132
0.00227422
0.00137412
0.00228702
0.00151461
0.00199572
0.00177564
0.00176562
0.00196493
0.00167413
0.00199033
0.00163738
0.00194688
0.00170264
0.00189017
0.00183474
0.00175082
0.00166483
0.00158723
0.00148492
0.00153788
0.00134125
0.00150987
0.00128014
0.00150853
0.00125871
0.00154235
0.0012706
0.00157851
0.00124153
0.00169155
0.00112296
0.00191795
0.0010254
0.00210767
0.00094902
0.00217708
0.000897525
0.00217488
0.000890039
0.00211769
0.000891963
0.00204578
0.000902022
0.0019639
0.000887702
0.00186512
0.000822817
0.00179637
0.000757017
0.00175659
0.000694652
0.00173534
0.000597396
0.00174212
0.000542203
0.0013235
0.000559907
0.00127654
0.000596021
0.00130453
0.000631452
0.00136433
0.000654486
0.00143031
0.00067033
0.00149207
0.000681078
0.00154987
0.000686831
0.0015988
0.000687087
0.0016347
0.000682655
0.00166128
0.000679546
0.0016887
0.000667233
0.00171465
0.000660278
0.00173158
0.000644841
0.00175112
0.000654095
0.00176101
0.000669178
0.00178061
0.00069494
0.00178402
0.000712342
0.00178854
0.000729375
0.00179063
0.000743783
0.00179177
0.000757709
0.00179138
0.000770392
0.00178993
0.000784818
0.00178885
0.000793975
0.0017867
0.000802311
0.00178467
0.000812554
0.00177728
0.000816106
0.00176797
0.000817244
0.0017487
0.00081779
0.00172649
0.000814818
0.00170065
0.00080983
0.0016696
0.00080095
0.001632
0.000791729
0.00158367
0.000777645
0.00153353
0.000757295
0.00147845
0.000733288
0.00142103
0.000699504
0.00135681
0.000664927
0.0012853
0.000633359
0.00120829
0.000612099
0.0011309
0.000596072
0.0010767
0.000586888
0.00104232
0.000583053
0.00102165
0.000581614
0.001007
0.000583946
0.000995171
0.000588097
0.000984131
0.000592125
0.000970153
0.000595894
0.000955553
0.00059948
0.000939151
0.000602805
0.000921306
0.000606645
0.0009019
0.000610489
0.000880952
0.000613817
0.0008588
0.000617456
0.000838288
0.000620889
0.00081982
0.000624869
0.000801947
0.000627434
0.000785883
0.000629601
0.000771241
0.000633679
0.000758331
0.000637397
0.000747303
0.000644328
0.000740608
0.000653456
0.000736989
0.000660838
0.000736465
0.000665213
0.000735115
0.000668031
0.000731854
0.00066748
0.000728432
0.000671283
0.000721261
0.000680787
0.000717544
0.000697047
0.000720283
0.000714212
0.000725014
0.000739326
0.000735091
0.000769786
0.000747596
0.00079789
0.000763238
0.000812005
0.000775323
0.000836414
0.000776035
0.00268712
0.00334054
0.00102598
0.00300604
0.00163908
0.00264081
0.00182771
0.00246465
0.0017713
0.00285434
0.00172603
0.00328766
0.00163741
0.00327002
0.00152432
0.00281873
0.00128949
0.00250274
0.00125917
0.00239923
0.00126599
0.00257667
0.00131679
0.00283981
0.00139331
0.00256191
0.00174511
0.00222518
0.00205132
0.00206028
0.00203418
0.00217046
0.00197003
0.00232101
0.00189457
0.00251635
0.00179394
0.00222717
0.00162384
0.00190626
0.0014676
0.0017864
0.0014967
0.00169257
0.00153818
0.00169113
0.00156331
0.00176009
0.0016306
0.00158539
0.00185746
0.0014209
0.00219892
0.00128838
0.0023233
0.00123494
0.00227825
0.00124684
0.00221601
0.00131663
0.00212244
0.00138681
0.00198132
0.00126918
0.0017888
0.00112948
0.00167302
0.00102329
0.00163693
0.000928196
0.00163964
0.000890267
0.00164579
0.000866825
0.00167344
0.000851639
0.00173513
0.000829034
0.00187785
0.000789976
0.00198418
0.000738494
0.00205028
0.000697717
0.00206845
0.000626019
0.00206764
0.000523827
0.00140447
0.000580927
0.00133058
0.000626946
0.00137558
0.000669324
0.0014662
0.000697311
0.00155418
0.000721011
0.00162815
0.000729878
0.00168938
0.000731182
0.00174113
0.00072308
0.00178092
0.000716439
0.00181293
0.000717022
0.00184942
0.000703348
0.00189205
0.00069471
0.00191044
0.000681554
0.00194348
0.000682374
0.0019521
0.000702393
0.00198205
0.000720215
0.00198455
0.00074177
0.00199577
0.000759094
0.00199281
0.000779195
0.00199357
0.000790901
0.00198157
0.000808199
0.00197615
0.000818615
0.00196326
0.000835393
0.00195818
0.000844283
0.00195244
0.000855662
0.00194752
0.000861316
0.00194173
0.000865205
0.00193305
0.000868072
0.00191797
0.000870311
0.00189747
0.000872532
0.00188156
0.0008711
0.00185469
0.00086628
0.00181239
0.000860999
0.0017768
0.000852816
0.00174049
0.000844332
0.0017026
0.000824153
0.00165999
0.000795302
0.00160605
0.000752456
0.00153693
0.000705096
0.00145309
0.0006644
0.00135994
0.000636802
0.0012984
0.000623857
0.00125411
0.000619539
0.00121983
0.000621634
0.00118861
0.000624562
0.00115691
0.000627068
0.00112474
0.00062788
0.00109181
0.000628393
0.0010576
0.000628512
0.00102297
0.00062954
0.000986211
0.000632021
0.000952486
0.000633372
0.000922704
0.000634169
0.000896338
0.000636889
0.000870881
0.000639401
0.000847658
0.000640778
0.000826442
0.000641157
0.000808238
0.00064412
0.000792648
0.00064668
0.000779985
0.000651057
0.000770532
0.000658331
0.000763382
0.000667676
0.00075938
0.000673957
0.000757813
0.000679068
0.000755229
0.000682974
0.000752359
0.000685165
0.000747957
0.000694106
0.000741574
0.000709705
0.000740639
0.000724708
0.000742302
0.000749454
0.000748972
0.000779586
0.000759108
0.000810272
0.000769879
0.000824652
0.000780815
0.000852397
0.000783443
0.00251032
0.00347634
0.00171744
0.00316655
0.00129959
0.00269501
0.00107169
0.00257323
0.00108234
0.00288886
0.00116345
0.00323271
0.00129467
0.00307757
0.00155944
0.0026442
0.00191659
0.00233815
0.0020363
0.00233592
0.00196852
0.00257111
0.00192766
0.00296614
0.00182829
0.00277543
0.00166223
0.00238529
0.0013787
0.00216809
0.00132318
0.0022628
0.00140885
0.00242647
0.00148641
0.00250294
0.00172539
0.00206138
0.0020487
0.0018181
0.00241094
0.00167237
0.00240676
0.00164582
0.00233134
0.00171669
0.00219885
0.00184688
0.00206553
0.00177058
0.0018689
0.00155532
0.00170157
0.00135805
0.00164805
0.00127841
0.00164405
0.0012622
0.00166973
0.00130999
0.00173355
0.00137778
0.00190383
0.00118475
0.00227208
0.00106867
0.00264346
0.000963113
0.00283268
0.000898714
0.00285082
0.00084846
0.0028034
0.000849473
0.00272327
0.000859063
0.0025862
0.000859169
0.00243031
0.000839739
0.00231424
0.000804664
0.00225989
0.000756328
0.0022554
0.000693373
0.00228213
0.000519058
0.00207663
0.000613779
0.00153107
0.000670342
0.00156655
0.000717465
0.00167088
0.000748819
0.00173941
0.000771839
0.00181058
0.000787162
0.00188417
0.000797043
0.0019472
0.000802451
0.00200249
0.000793946
0.00202615
0.000803902
0.0020417
0.000795415
0.00209923
0.00078449
0.00214559
0.000763673
0.00218822
0.000756913
0.00219231
0.000779548
0.00225333
0.000798657
0.00228289
0.000814959
0.00228126
0.000835073
0.00227856
0.000844677
0.00227971
0.000859072
0.0022442
0.000863919
0.00222112
0.000874228
0.00220675
0.000884279
0.00218994
0.000898517
0.00217895
0.000909045
0.00217115
0.000917481
0.00216226
0.000921545
0.00213749
0.00092585
0.00210789
0.000929816
0.00208273
0.000936203
0.00205343
0.000942468
0.0020272
0.000943522
0.00198693
0.000946329
0.00195783
0.000945043
0.00193407
0.000937961
0.00190158
0.000928275
0.00185982
0.000910627
0.00180972
0.000882436
0.00174303
0.00083615
0.00165531
0.000783906
0.00155361
0.000736111
0.00146069
0.000707084
0.0013945
0.000690689
0.0013443
0.000685469
0.00130228
0.00068285
0.00125993
0.000679244
0.00121998
0.000675079
0.00118076
0.000672375
0.00114131
0.000668345
0.00110061
0.00066227
0.00106058
0.000658337
0.00102086
0.000656861
0.000984114
0.000657233
0.000951496
0.000658562
0.000921329
0.000658257
0.000892222
0.000656551
0.000865796
0.000654364
0.00084228
0.00065533
0.000821726
0.000656873
0.000805254
0.000659175
0.000791899
0.00066492
0.000780656
0.000672796
0.000770767
0.000680915
0.000766006
0.000688568
0.000763382
0.00069648
0.000760746
0.000702072
0.000759895
0.00070992
0.000755
0.000723991
0.000751964
0.000737847
0.000751082
0.000762151
0.000754447
0.000793324
0.000761416
0.000825071
0.000770511
0.000837115
0.000783495
0.000868741
0.000785661
0.00274618
0.00338834
0.00107173
0.00303527
0.00171686
0.00259363
0.00197771
0.00242802
0.00191
0.00285277
0.00188301
0.00330853
0.00181276
0.00346553
0.00167435
0.00297661
0.00141781
0.00263213
0.00133821
0.00259225
0.00138758
0.00272447
0.00144146
0.00305106
0.0015733
0.00260431
0.00200452
0.00221927
0.00248901
0.00201548
0.00245585
0.0021992
0.0023824
0.002427
0.00226883
0.00269008
0.00209029
0.00243079
0.00190975
0.00204322
0.00160503
0.00193112
0.00164053
0.0018609
0.00170883
0.00187882
0.00175029
0.0019595
0.00190952
0.00163147
0.00224806
0.00144679
0.00277624
0.00130479
0.00290524
0.00118154
0.00292787
0.00123182
0.00280808
0.00131576
0.00266237
0.00148403
0.00246997
0.00143511