/*--------------------------------*- C++ -*----------------------------------*\
| =========                 |                                                 |
| \\      /  F ield         | OpenFOAM: The Open Source CFD Toolbox           |
|  \\    /   O peration     | Version:  2.2.x                                 |
|   \\  /    A nd           | Web:      www.OpenFOAM.org                      |
|    \\/     M anipulation  |                                                 |
\*---------------------------------------------------------------------------*/
FoamFile
{
    version     2.0;
    format      ascii;
    class       volVectorField;
    location    "1.15";
    object      U;
}
// * * * * * * * * * * * * * * * * * * * * * * * * * * * * * * * * * * * * * //

dimensions      [0 1 -1 0 0 0 0];

internalField   nonuniform List<vector> 
14161
(
(3.5 9.03456e-16 -9.93991e-25)
(3.5 -3.38035e-16 -1.10276e-23)
(3.5 2.20854e-15 2.55398e-23)
(3.5 6.25215e-15 1.61967e-23)
(3.5 -3.70354e-16 2.99411e-23)
(3.5 1.83274e-15 -4.66046e-23)
(3.5 2.34007e-15 1.08903e-22)
(3.5 3.33655e-15 1.08828e-23)
(3.5 3.18422e-15 6.74969e-23)
(3.5 -1.13724e-16 -1.75896e-23)
(3.5 9.60332e-16 7.43985e-24)
(3.5 -1.37677e-15 1.24708e-23)
(3.5 -3.5836e-15 -1.55303e-23)
(3.5 -3.93819e-15 2.63076e-23)
(3.5 -3.67761e-15 -4.88166e-23)
(3.5 1.17319e-15 -5.2326e-23)
(3.5 2.96651e-15 -6.10402e-23)
(3.5 3.33503e-15 -7.39705e-23)
(3.5 1.30841e-15 -7.70925e-23)
(3.5 2.21312e-15 -1.39074e-22)
(3.5 7.00872e-16 -1.52528e-22)
(3.5 7.20438e-16 -1.30241e-22)
(3.5 3.05343e-15 -1.57195e-22)
(3.5 4.1085e-15 -1.67029e-22)
(3.5 3.20257e-15 -1.87565e-22)
(3.5 1.63124e-15 -1.70829e-22)
(3.5 1.24741e-15 -1.75939e-22)
(3.5 2.59857e-15 -1.59495e-22)
(3.5 -1.81453e-15 -1.79517e-22)
(3.5 -1.53077e-16 -2.03038e-22)
(3.5 1.04075e-15 -2.0342e-22)
(3.5 1.8742e-15 -2.19619e-22)
(3.5 1.15653e-14 -2.27482e-22)
(3.5 1.05572e-13 -2.35096e-22)
(3.5 1.07335e-12 -2.37976e-22)
(3.5 1.13295e-11 -2.43987e-22)
(3.5 1.02602e-10 -2.44354e-22)
(3.5 9.46864e-10 -2.46412e-22)
(3.49999 7.97517e-09 -2.48417e-22)
(3.4999 9.29041e-08 -2.46036e-22)
(3.49956 3.01051e-07 -2.4769e-22)
(3.50301 3.68517e-07 -2.47761e-22)
(3.47516 5.02345e-06 -2.59851e-22)
(2.97495 0.000770498 -3.01783e-22)
(1.53165 0.00187757 -3.3155e-22)
(1.06554 0.00303144 1.10854e-21)
(0.95521 0.00377076 9.46751e-22)
(0.926976 0.0038532 2.22122e-21)
(0.915507 0.00391278 6.29493e-21)
(0.906174 0.00397322 3.94433e-21)
(0.896464 0.00410073 6.12152e-21)
(0.886481 0.00420828 7.20204e-21)
(0.876859 0.00420016 9.20245e-21)
(0.867789 0.00416153 8.97009e-21)
(0.859438 0.00418219 7.70597e-21)
(0.851165 0.00423976 7.67768e-21)
(0.842473 0.0043082 7.03855e-21)
(0.832978 0.00437449 7.43392e-21)
(0.822609 0.00445715 6.05117e-21)
(0.812822 0.00451589 6.77682e-21)
(0.80412 0.00453581 4.77806e-21)
(0.796424 0.00456483 6.90337e-21)
(0.788535 0.00464275 2.03841e-21)
(0.779596 0.0047643 2.29245e-21)
(0.769526 0.0048914 3.49051e-21)
(0.758593 0.00494588 -4.36221e-23)
(0.748305 0.0049663 5.69667e-22)
(0.739289 0.00503658 -3.81606e-22)
(0.731589 0.00516505 1.77924e-21)
(0.723521 0.00529231 -5.39284e-22)
(0.714195 0.0054373 7.81607e-22)
(0.703239 0.00551474 -5.6403e-22)
(0.691621 0.00547887 4.96559e-21)
(0.680731 0.00543769 -1.42167e-21)
(0.670843 0.00550763 2.6869e-21)
(0.661937 0.00560878 9.57583e-22)
(0.652737 0.00569413 7.05685e-22)
(0.64233 0.00573478 1.40139e-21)
(0.63091 0.00566698 3.19067e-22)
(0.620149 0.00553738 1.6777e-21)
(0.610565 0.00548029 2.80682e-21)
(0.601909 0.00556996 5.16003e-22)
(0.592548 0.00576712 3.20477e-22)
(0.581748 0.00601619 6.81177e-22)
(0.569514 0.00607586 5.20937e-22)
(0.557032 0.00598788 1.06815e-21)
(0.545002 0.00591158 -7.32714e-21)
(0.533669 0.0059623 2.15281e-21)
(0.522628 0.00608001 -8.0121e-21)
(0.510926 0.00621448 6.27685e-22)
(0.498731 0.00621655 -2.97095e-21)
(0.486949 0.00607439 3.51548e-21)
(0.475636 0.005976 -5.35173e-21)
(0.463672 0.00601846 -8.733e-22)
(0.450441 0.00621766 1.10306e-21)
(0.435904 0.00644003 -1.25636e-21)
(0.421207 0.00661634 1.99718e-21)
(0.407121 0.00676168 -3.88117e-21)
(0.393717 0.00699896 2.77586e-21)
(0.379382 0.00753615 -8.46593e-21)
(0.363018 0.00818541 4.81929e-22)
(0.344983 0.00846926 1.24163e-20)
(0.327036 0.00830656 -2.85673e-21)
(0.310104 0.00800368 6.98222e-21)
(0.293666 0.00782923 -7.87252e-21)
(0.277597 0.00772607 1.2105e-20)
(0.262321 0.00765618 -5.78376e-21)
(0.24715 0.00771215 -3.04396e-20)
(0.231008 0.00791004 -2.07151e-21)
(0.213342 0.00824284 -1.79886e-20)
(0.194514 0.00867986 8.90581e-21)
(0.17552 0.0091879 -1.54559e-20)
(0.156851 0.00974388 2.31226e-20)
(0.138107 0.0103547 -5.42193e-20)
(0.117589 0.011043 1.2879e-20)
(0.0944918 0.0117687 2.0019e-20)
(0.0697494 0.0128696 -1.48182e-19)
(0.0436845 0.0138131 -1.55068e-19)
(0.0183636 0.0173497 -1.71233e-19)
(3.5 1.13217e-15 3.52757e-25)
(3.5 8.49737e-16 1.04956e-22)
(3.5 1.49712e-15 9.76428e-23)
(3.5 4.01465e-15 -9.1433e-24)
(3.5 -1.24722e-15 1.02465e-23)
(3.5 -1.36335e-15 1.79723e-23)
(3.5 2.49444e-15 2.39629e-24)
(3.5 5.67998e-15 -4.22197e-24)
(3.5 4.76263e-15 6.442e-23)
(3.5 3.2417e-16 -2.09368e-23)
(3.5 -2.20152e-16 7.34137e-23)
(3.5 -4.60751e-15 -5.98891e-24)
(3.5 -9.23597e-15 1.85546e-23)
(3.5 -1.01453e-14 -1.15602e-22)
(3.5 -5.80973e-15 -1.67265e-22)
(3.5 1.23891e-15 -1.11157e-22)
(3.5 4.07994e-15 -6.81913e-23)
(3.5 4.342e-15 -1.72255e-22)
(3.5 4.20836e-15 -1.27143e-22)
(3.5 5.25725e-15 -2.1138e-22)
(3.5 3.35027e-15 -1.82995e-22)
(3.5 4.422e-15 -2.2806e-22)
(3.5 7.05903e-15 -2.76774e-22)
(3.5 6.53063e-15 -2.85414e-22)
(3.5 2.91212e-15 -2.00863e-22)
(3.5 2.14103e-15 -2.05181e-22)
(3.5 1.09837e-15 -2.60433e-22)
(3.5 9.05562e-16 -1.94743e-22)
(3.5 -3.64154e-15 -2.48679e-22)
(3.5 -2.90969e-15 -2.32373e-22)
(3.5 -9.70755e-16 -3.06125e-22)
(3.5 2.25888e-15 -2.90071e-22)
(3.5 4.12945e-14 -2.99304e-22)
(3.5 4.65302e-13 -3.18335e-22)
(3.5 5.35625e-12 -3.16457e-22)
(3.5 6.28383e-11 -3.00541e-22)
(3.5 5.15236e-10 -3.14739e-22)
(3.5 -1.11765e-09 -3.01187e-22)
(3.49999 -1.26768e-07 -2.97659e-22)
(3.4999 6.15215e-07 -2.85342e-22)
(3.49956 2.00915e-06 -2.9104e-22)
(3.50299 -3.8116e-05 -2.80902e-22)
(3.47526 0.000603166 -2.88195e-22)
(2.97532 0.00485666 -3.27719e-22)
(1.53059 0.0085237 -2.53913e-22)
(1.06221 0.00984155 -9.71623e-22)
(0.951191 0.0106095 2.19738e-21)
(0.923168 0.0108003 6.83421e-21)
(0.912077 0.0112107 -4.06868e-21)
(0.903062 0.0115948 1.01052e-21)
(0.893467 0.0119523 -1.24691e-21)
(0.883391 0.0121961 -2.00183e-21)
(0.873781 0.012282 -9.4601e-21)
(0.864865 0.0123884 -3.18169e-21)
(0.856742 0.0125714 -7.13479e-21)
(0.848604 0.0127817 1.13701e-21)
(0.839952 0.0129973 1.59398e-21)
(0.830454 0.0132112 1.31169e-21)
(0.820044 0.0134137 2.25863e-22)
(0.810202 0.0135537 -6.70689e-21)
(0.801432 0.0136652 -2.22181e-21)
(0.793754 0.0138248 -5.4447e-21)
(0.78586 0.0140616 -7.41806e-21)
(0.776894 0.014328 6.29852e-21)
(0.766654 0.014571 -9.76356e-21)
(0.755575 0.0146949 4.66816e-21)
(0.745307 0.0148299 9.5987e-22)
(0.736441 0.0150864 7.18082e-21)
(0.728893 0.015434 1.1784e-21)
(0.720894 0.0158345 1.60395e-21)
(0.711601 0.016213 -6.64085e-22)
(0.70047 0.016437 1.72596e-21)
(0.688923 0.0164404 9.06767e-22)
(0.678267 0.0165064 1.9733e-21)
(0.668742 0.0167004 1.74506e-21)
(0.659966 0.0169696 4.39252e-21)
(0.650604 0.0171627 2.9488e-21)
(0.63966 0.0171936 5.57681e-21)
(0.627777 0.0168943 1.32783e-21)
(0.616798 0.0165506 7.64546e-21)
(0.607252 0.0164247 3.39942e-21)
(0.598682 0.0165682 1.45011e-21)
(0.589392 0.0169571 2.79457e-21)
(0.578332 0.0174299 1.28637e-20)
(0.565794 0.0176841 -8.13601e-21)
(0.553396 0.0176097 1.38797e-20)
(0.54182 0.0176244 -2.38101e-21)
(0.531087 0.0178501 -8.54587e-21)
(0.520288 0.0181409 1.98916e-20)
(0.508193 0.0182913 7.98092e-21)
(0.495416 0.0181515 1.29056e-21)
(0.483274 0.017788 8.96553e-21)
(0.472059 0.017611 -3.27338e-21)
(0.460488 0.0178496 -2.16339e-20)
(0.447542 0.0183409 1.61768e-20)
(0.432992 0.0189382 -1.04817e-20)
(0.418285 0.019459 1.28758e-20)
(0.404307 0.0200065 -2.46529e-20)
(0.391187 0.0206861 1.39749e-20)
(0.377458 0.0216095 -1.01228e-21)
(0.362093 0.022571 2.12368e-20)
(0.345348 0.0228922 -1.64557e-20)
(0.32872 0.0224969 -3.92696e-20)
(0.312943 0.0219302 7.14308e-21)
(0.297226 0.0215925 -9.59668e-21)
(0.281559 0.0215903 -8.29985e-21)
(0.266361 0.0215006 1.57268e-20)
(0.25143 0.0216608 8.19131e-21)
(0.235574 0.022214 3.57157e-20)
(0.218125 0.0232289 -3.37254e-20)
(0.199428 0.0246216 1.46703e-20)
(0.180467 0.0262773 5.43806e-20)
(0.161684 0.0281111 3.45415e-20)
(0.142819 0.0301439 7.25026e-20)
(0.121973 0.032592 6.53994e-20)
(0.0981864 0.0353788 1.81116e-20)
(0.0724757 0.03905 7.18733e-20)
(0.0449406 0.0422419 4.0995e-21)
(0.0184259 0.0509978 -8.96734e-20)
(3.5 2.36162e-16 7.03071e-23)
(3.5 2.69451e-15 -6.21732e-23)
(3.5 2.41112e-15 -3.02456e-23)
(3.5 2.26297e-15 -1.83361e-23)
(3.5 4.73583e-15 2.36674e-23)
(3.5 4.5191e-15 -2.37573e-23)
(3.5 5.65219e-15 -1.75426e-23)
(3.5 4.18624e-15 -3.97592e-23)
(3.5 1.23198e-15 7.01589e-23)
(3.5 -2.16102e-15 1.21479e-23)
(3.5 -4.25786e-15 1.87338e-22)
(3.5 -6.27219e-15 -1.4278e-22)
(3.5 -2.95768e-15 -1.33641e-22)
(3.5 -3.4095e-15 -1.30567e-22)
(3.5 1.94849e-15 2.0153e-23)
(3.5 6.44579e-15 -5.47226e-23)
(3.5 7.12149e-15 -4.33355e-23)
(3.5 5.70309e-15 -1.27439e-22)
(3.5 3.28133e-15 4.46872e-23)
(3.5 6.73114e-15 -6.99252e-23)
(3.5 8.92443e-15 -2.59677e-22)
(3.5 9.20004e-15 -3.9371e-22)
(3.5 9.94274e-15 -1.81103e-22)
(3.5 7.36212e-15 -3.74562e-22)
(3.5 6.88211e-15 -5.3496e-22)
(3.5 5.46686e-15 -4.382e-22)
(3.5 5.22328e-15 -4.37315e-22)
(3.5 4.97209e-15 -4.51869e-22)
(3.5 3.0656e-15 -4.18952e-22)
(3.5 -9.20442e-16 -3.23912e-22)
(3.5 -1.21642e-15 -3.62954e-22)
(3.5 1.25777e-14 -3.43868e-22)
(3.5 2.25253e-13 -3.67299e-22)
(3.5 9.30551e-14 -3.0875e-22)
(3.5 3.01451e-11 -3.25994e-22)
(3.5 4.55197e-10 -2.88923e-22)
(3.5 2.29483e-09 -2.77623e-22)
(3.5 -4.18001e-08 -2.7107e-22)
(3.49999 -1.12881e-06 -2.55305e-22)
(3.49991 2.51402e-06 -2.5364e-22)
(3.4996 9.47169e-06 -2.51867e-22)
(3.50317 -8.47362e-05 -2.36572e-22)
(3.47642 0.00185821 -2.43502e-22)
(2.98453 0.0131694 -1.90818e-22)
(1.53535 0.0185068 1.57883e-22)
(1.06382 0.0195049 3.66012e-21)
(0.951426 0.0200182 5.07761e-21)
(0.923284 0.0200044 1.21871e-20)
(0.91235 0.0204744 5.07615e-21)
(0.903456 0.0209652 1.21598e-20)
(0.893768 0.0214435 -2.33851e-21)
(0.88348 0.0217774 6.61658e-21)
(0.87381 0.021961 4.24522e-21)
(0.864984 0.0220998 -1.22903e-21)
(0.857108 0.0223483 8.03408e-21)
(0.84917 0.0226797 -9.3125e-21)
(0.840578 0.0230378 -4.31157e-23)
(0.830998 0.023371 -1.0162e-20)
(0.820426 0.0236429 -6.50482e-21)
(0.810489 0.02385 6.87629e-21)
(0.801709 0.0240779 -1.46362e-20)
(0.794155 0.0243988 4.00618e-21)
(0.786333 0.0248084 1.0141e-20)
(0.777314 0.0252432 -5.5041e-21)
(0.766739 0.0256141 -4.20698e-21)
(0.755442 0.0258171 -1.5554e-22)
(0.745241 0.0259894 1.43356e-21)
(0.736618 0.0263443 5.31161e-21)
(0.72935 0.026848 1.10351e-20)
(0.721442 0.0274356 1.22044e-20)
(0.712041 0.0280273 7.40301e-21)
(0.700657 0.0284498 7.0989e-21)
(0.689156 0.0285274 1.53764e-20)
(0.678883 0.0285965 1.03705e-20)
(0.670046 0.0289063 2.74056e-21)
(0.661607 0.0293193 1.8734e-20)
(0.652175 0.0296762 4.94329e-21)
(0.64056 0.0298669 1.02396e-20)
(0.62804 0.0295902 -8.1883e-22)
(0.616757 0.0291434 1.91073e-20)
(0.607155 0.028889 5.01034e-21)
(0.598494 0.0290159 7.62946e-21)
(0.588955 0.0294317 -7.81637e-22)
(0.57732 0.0300191 1.48205e-20)
(0.564205 0.0303452 1.20564e-20)
(0.551734 0.0303064 -2.14445e-20)
(0.540706 0.0304054 1.44778e-20)
(0.530573 0.0306896 -2.20444e-20)
(0.519941 0.0310024 -1.9718e-20)
(0.507355 0.0311562 4.21153e-21)
(0.494017 0.0309284 -3.87303e-20)
(0.481577 0.0304843 1.78161e-20)
(0.470494 0.0303289 -2.22296e-20)
(0.459265 0.0306578 1.76569e-20)
(0.446532 0.0313276 1.24682e-20)
(0.43181 0.032167 -2.08007e-20)
(0.416889 0.0329627 1.37556e-20)
(0.402838 0.0338576 -7.04174e-22)
(0.38975 0.0349054 2.783e-22)
(0.376213 0.0360835 -1.60056e-20)
(0.360943 0.037132 1.79841e-20)
(0.344472 0.0373935 2.25933e-20)
(0.328342 0.0369869 2.19143e-20)
(0.313063 0.0363954 1.25698e-20)
(0.297798 0.0360887 1.1145e-20)
(0.28188 0.0362546 -6.00975e-20)
(0.266058 0.0364502 3.15875e-20)
(0.250891 0.0367817 -1.14818e-19)
(0.235232 0.0376655 2.66461e-20)
(0.218024 0.0392628 -2.16403e-20)
(0.199305 0.0415654 1.22007e-19)
(0.180174 0.0443971 2.63977e-20)
(0.161173 0.0475425 2.44046e-20)
(0.142024 0.0509352 1.27458e-19)
(0.120952 0.0550822 9.41584e-21)
(0.0971163 0.0598488 3.9463e-19)
(0.071511 0.0663789 3.47584e-19)
(0.0438589 0.0722461 1.79879e-19)
(0.0178516 0.0837303 2.20105e-19)
(3.5 -1.29827e-15 -6.7658e-23)
(3.5 -5.77606e-16 2.19942e-23)
(3.5 2.34564e-15 7.45205e-23)
(3.5 5.52562e-15 1.16477e-22)
(3.5 4.3054e-15 -3.90813e-23)
(3.5 3.94547e-15 -1.35426e-22)
(3.5 1.00625e-15 -6.1131e-23)
(3.5 -2.34028e-15 -9.5475e-23)
(3.5 -2.94284e-15 -4.41614e-25)
(3.5 -2.49365e-15 -5.83787e-23)
(3.5 -4.72459e-15 -2.22523e-22)
(3.5 -6.26697e-15 -3.10231e-22)
(3.5 -1.30386e-16 -2.44869e-22)
(3.5 1.61251e-16 -3.43556e-22)
(3.5 -5.08357e-16 1.02354e-22)
(3.5 2.12746e-16 -1.55717e-23)
(3.5 1.38417e-15 -9.96597e-23)
(3.5 2.10394e-15 -1.41569e-22)
(3.5 1.45883e-15 -6.59815e-22)
(3.5 5.66792e-15 4.33763e-23)
(3.5 8.83898e-15 3.06961e-24)
(3.5 9.54587e-15 1.06416e-22)
(3.5 1.06462e-14 -8.67514e-23)
(3.5 9.08404e-15 5.98685e-23)
(3.5 8.41742e-15 3.04744e-23)
(3.5 7.37329e-15 -2.02899e-22)
(3.5 6.03695e-15 -5.91868e-23)
(3.5 5.6257e-15 1.19191e-22)
(3.5 4.19138e-15 2.72243e-22)
(3.5 -2.18992e-15 -1.25458e-22)
(3.5 -4.1929e-15 -8.79875e-23)
(3.5 3.92054e-14 -6.65103e-23)
(3.5 4.96689e-13 -5.23761e-23)
(3.5 -8.96332e-12 -5.46158e-23)
(3.5 2.12544e-10 -1.08598e-23)
(3.5 3.62481e-09 1.32161e-24)
(3.5 6.31938e-08 -1.06824e-23)
(3.5 7.31989e-07 2.0863e-23)
(3.49999 2.97881e-06 1.83285e-23)
(3.49992 4.27176e-06 -9.68254e-24)
(3.49967 9.93497e-06 -1.98955e-23)
(3.50346 -0.000177135 -3.18175e-23)
(3.47826 0.00224308 -5.03323e-23)
(3.0002 0.0167755 -3.80374e-22)
(1.54489 0.0249175 -1.15963e-21)
(1.06971 0.0268447 -5.10498e-21)
(0.95584 0.028212 -1.54499e-21)
(0.927424 0.0284267 -9.24043e-21)
(0.916429 0.0290372 -1.76245e-20)
(0.907456 0.0296499 -6.63443e-22)
(0.897569 0.0303294 -1.73229e-20)
(0.887023 0.0308953 2.66186e-21)
(0.877162 0.0312335 -1.29809e-20)
(0.868168 0.0314527 5.32412e-21)
(0.860381 0.0317314 -6.07906e-21)
(0.852617 0.0321547 1.19845e-20)
(0.844105 0.0326724 1.67049e-20)
(0.834383 0.0332211 1.62824e-20)
(0.823549 0.0336452 1.57185e-20)
(0.813476 0.0339226 1.66026e-20)
(0.804717 0.0342216 1.73092e-20)
(0.797346 0.0346463 2.71147e-20)
(0.789715 0.0351975 1.19812e-20)
(0.780753 0.03585 2.92177e-20)
(0.769916 0.0364931 2.04129e-20)
(0.758349 0.0368659 2.25889e-20)
(0.748153 0.0370213 2.18946e-20)
(0.739799 0.0372998 7.18617e-21)
(0.732878 0.0378037 2.00669e-20)
(0.72515 0.0384869 -5.23536e-21)
(0.715731 0.0393278 3.96009e-22)
(0.704021 0.0400837 -3.69687e-21)
(0.692401 0.0403146 1.1336e-20)
(0.682493 0.0403239 3.81502e-21)
(0.67449 0.0405594 2.04746e-21)
(0.666596 0.0409585 6.79966e-21)
(0.65726 0.0414561 4.86782e-21)
(0.645188 0.0419098 7.35088e-21)
(0.632094 0.0419615 1.41617e-20)
(0.620503 0.041698 8.61825e-21)
(0.61075 0.0415078 8.16297e-21)
(0.601829 0.041658 9.69492e-21)
(0.591936 0.0421946 5.02639e-21)
(0.579551 0.0429156 1.03134e-20)
(0.565736 0.043307 -7.42906e-21)
(0.553145 0.043437 2.9681e-20)
(0.542636 0.0435383 9.74407e-21)
(0.53305 0.0437759 -2.11365e-20)
(0.522519 0.043985 4.76322e-20)
(0.509472 0.0441367 2.28078e-20)
(0.495597 0.0439752 3.66721e-20)
(0.48294 0.0436381 6.59761e-20)
(0.472015 0.0435001 -1.38886e-20)
(0.461247 0.043903 1.9735e-20)
(0.448812 0.0447099 -2.09188e-21)
(0.433895 0.0457241 -2.95358e-20)
(0.418697 0.0468513 -2.41601e-20)
(0.404489 0.0481329 -1.06098e-20)
(0.39124 0.0495534 -1.53404e-20)
(0.377647 0.0509184 -2.59998e-20)
(0.362175 0.051921 -4.73634e-20)
(0.345742 0.0520773 -5.65497e-20)
(0.329917 0.0515969 -8.27023e-20)
(0.315138 0.0509876 -5.60942e-20)
(0.300324 0.0507055 -1.1525e-19)
(0.284281 0.050879 -8.71493e-21)
(0.268096 0.051361 -9.54145e-20)
(0.25255 0.0519761 1.03648e-19)
(0.23722 0.0531974 -2.19094e-19)
(0.220449 0.0553964 1.3582e-19)
(0.201875 0.0586182 -2.19754e-19)
(0.182618 0.0626328 9.14918e-21)
(0.163289 0.0671399 -1.97817e-19)
(0.143776 0.0719118 -2.4178e-19)
(0.122497 0.0776663 -1.9202e-19)
(0.0986152 0.0843279 -1.75594e-19)
(0.0733017 0.0935453 1.57159e-19)
(0.0459579 0.102324 -1.76927e-19)
(0.0202068 0.114478 -6.54917e-19)
(3.5 -6.14506e-16 -4.14697e-23)
(3.5 -1.56896e-15 1.34189e-22)
(3.5 -1.73943e-15 -1.40694e-22)
(3.5 -4.21041e-16 1.7625e-22)
(3.5 -3.46488e-15 1.49929e-22)
(3.5 -3.4695e-15 2.79499e-22)
(3.5 -3.39199e-15 1.52327e-22)
(3.5 4.84065e-16 -3.06074e-22)
(3.5 3.04303e-15 1.3033e-22)
(3.5 1.54546e-15 -5.90053e-23)
(3.5 -9.53754e-16 -6.23527e-22)
(3.5 -2.9197e-15 1.33156e-23)
(3.5 -3.68144e-15 -2.37837e-22)
(3.5 -3.92245e-15 -1.78739e-22)
(3.5 -3.85744e-15 -3.7848e-22)
(3.5 -3.82437e-15 -3.44006e-22)
(3.5 -3.6996e-15 -1.98919e-23)
(3.5 -2.11788e-15 -1.86745e-22)
(3.5 4.84268e-15 5.01898e-22)
(3.5 5.78152e-15 -6.28246e-22)
(3.5 6.54887e-15 -5.21953e-22)
(3.5 9.16314e-15 -4.21893e-22)
(3.5 1.05311e-14 -6.24977e-22)
(3.5 7.25632e-15 -5.77645e-22)
(3.5 4.4058e-15 -3.91611e-22)
(3.5 2.853e-15 -1.54431e-22)
(3.5 3.76969e-15 -1.08663e-22)
(3.5 5.88581e-15 -2.5248e-22)
(3.5 7.03469e-15 -1.20035e-22)
(3.5 4.02639e-15 3.41082e-22)
(3.5 1.05307e-15 3.03244e-22)
(3.5 1.61202e-15 2.36818e-22)
(3.5 4.82752e-14 2.74447e-22)
(3.5 4.96924e-12 1.5511e-22)
(3.5 8.55882e-11 1.09826e-22)
(3.5 1.42489e-09 2.23875e-22)
(3.5 2.66468e-08 1.72572e-22)
(3.5 7.26752e-07 1.17626e-22)
(3.50001 3.44075e-06 1.54478e-22)
(3.49992 4.9397e-06 1.24491e-22)
(3.49973 8.40586e-06 1.07563e-22)
(3.50364 -0.000218739 1.3705e-22)
(3.47978 0.00219716 1.45224e-22)
(3.01346 0.0179104 -3.18155e-22)
(1.5533 0.0308049 -3.39753e-22)
(1.07231 0.0354886 4.07497e-21)
(0.955773 0.0378875 2.94515e-22)
(0.926938 0.0384806 1.88885e-20)
(0.915756 0.0391145 -4.00889e-21)
(0.906501 0.0396755 -3.01714e-21)
(0.896187 0.040352 -2.10638e-21)
(0.885069 0.0410227 4.45462e-21)
(0.874783 0.0414546 1.90695e-20)
(0.865538 0.0417986 5.71626e-21)
(0.857757 0.0421762 7.29822e-21)
(0.850025 0.042639 -1.22235e-22)
(0.84138 0.0431948 -2.66756e-21)
(0.831413 0.0437678 6.38136e-21)
(0.820162 0.0443269 8.09622e-21)
(0.80979 0.0446963 4.89334e-21)
(0.800998 0.0450763 -8.50809e-21)
(0.793825 0.0455777 5.99347e-21)
(0.786372 0.04621 -6.28327e-22)
(0.777532 0.0469649 -7.1725e-21)
(0.766596 0.0477177 -1.53674e-21)
(0.754651 0.048314 -9.27309e-21)
(0.74429 0.0486707 -4.26973e-21)
(0.736103 0.0489813 -7.56061e-21)
(0.729631 0.0494059 3.43695e-21)
(0.722331 0.050074 -7.22374e-21)
(0.713152 0.0509767 9.03486e-21)
(0.701182 0.051914 -2.45744e-21)
(0.68938 0.0525718 -2.25811e-22)
(0.679635 0.0529577 2.7608e-20)
(0.672111 0.0532159 3.50525e-22)
(0.664822 0.0535883 1.07715e-20)
(0.655983 0.0540958 -2.14053e-20)
(0.643816 0.0546905 3.20162e-20)
(0.630469 0.0551046 1.65764e-20)
(0.619002 0.0551998 2.19416e-20)
(0.609751 0.055149 3.93716e-21)
(0.601732 0.0552282 -3.89842e-22)
(0.592991 0.0555377 5.52477e-20)
(0.581513 0.0559431 -5.59973e-21)
(0.568318 0.0563607 1.11273e-20)
(0.55632 0.056582 -1.88717e-20)
(0.546466 0.05657 8.64745e-21)
(0.537508 0.0565252 5.07117e-21)
(0.527363 0.0566047 -2.20065e-21)
(0.514024 0.0567808 3.58415e-20)
(0.499597 0.0568773 -1.05064e-20)
(0.486704 0.0568085 8.32041e-20)
(0.475922 0.0567955 6.14388e-20)
(0.465629 0.0570948 7.3825e-20)
(0.453588 0.0578328 4.41914e-20)
(0.438605 0.0590146 6.09135e-20)
(0.423215 0.0604961 4.17825e-20)
(0.408828 0.062205 1.77881e-20)
(0.39538 0.0640188 4.53712e-20)
(0.381525 0.0656362 2.09547e-20)
(0.365624 0.0666545 2.49252e-20)
(0.348962 0.066761 1.0042e-19)
(0.333145 0.0662778 1.30159e-19)
(0.318658 0.0656859 9.49142e-20)
(0.303855 0.065408 1.47813e-19)
(0.287463 0.0655774 5.9963e-20)
(0.270827 0.0663328 1.89076e-20)
(0.254743 0.0676116 1.40106e-19)
(0.239287 0.06947 -8.53137e-20)
(0.222908 0.0722636 -1.46227e-19)
(0.204481 0.0763231 9.49413e-22)
(0.184829 0.0815286 -1.3347e-19)
(0.164747 0.0874785 2.26056e-19)
(0.144206 0.0937049 -1.57168e-19)
(0.1224 0.101025 1.30446e-19)
(0.098333 0.109362 -7.60306e-19)
(0.0736496 0.121001 -3.81824e-19)
(0.0475997 0.132407 1.31379e-19)
(0.0226125 0.144596 5.20755e-19)
(3.5 1.30214e-15 1.0975e-22)
(3.5 9.03194e-16 3.72387e-23)
(3.5 -5.451e-16 1.94511e-22)
(3.5 -2.81311e-15 -2.32144e-22)
(3.5 -4.78566e-15 -4.91254e-22)
(3.5 -4.39948e-15 -9.21893e-22)
(3.5 -9.45098e-16 -9.31155e-22)
(3.5 5.21333e-15 3.30522e-22)
(3.5 9.34708e-15 -9.89918e-22)
(3.5 9.40146e-15 -9.52104e-22)
(3.5 8.05997e-15 1.03685e-22)
(3.5 8.82686e-16 -1.06727e-21)
(3.5 -2.35808e-15 -1.09122e-21)
(3.5 -2.85802e-15 -2.9567e-22)
(3.5 -2.06393e-15 -5.19091e-22)
(3.5 -9.64268e-16 -2.99887e-22)
(3.5 5.94423e-16 -1.29403e-21)
(3.5 2.27896e-15 -2.34086e-22)
(3.5 4.42645e-15 -5.94637e-22)
(3.5 5.38766e-15 -6.99777e-22)
(3.5 4.97804e-15 -4.71751e-22)
(3.5 4.74072e-15 -5.10896e-22)
(3.5 5.62566e-15 -2.94046e-22)
(3.5 5.9355e-15 -5.02771e-22)
(3.5 4.50107e-15 -2.13473e-22)
(3.5 6.31467e-15 2.04932e-22)
(3.5 7.09425e-15 2.28612e-22)
(3.5 9.23005e-15 1.58206e-22)
(3.5 1.11191e-14 1.35333e-22)
(3.5 9.72928e-15 1.13945e-22)
(3.5 5.36923e-15 1.92218e-22)
(3.5 -2.81449e-14 1.2344e-22)
(3.5 -5.69252e-13 1.79397e-22)
(3.5 -9.96724e-12 1.59671e-22)
(3.5 -1.80353e-10 1.97797e-22)
(3.5 -3.21267e-09 2.37626e-22)
(3.5 -4.12876e-08 2.72033e-22)
(3.5 -8.1623e-07 2.96954e-22)
(3.50001 -2.2088e-06 2.72128e-22)
(3.49995 6.98002e-06 2.57594e-22)
(3.49981 1.82882e-05 2.57235e-22)
(3.50387 -0.000287394 2.59891e-22)
(3.48146 0.00294996 4.15751e-22)
(3.02873 0.0233937 6.17811e-22)
(1.5627 0.0403831 1.36768e-21)
(1.07237 0.0454582 -7.06393e-21)
(0.953165 0.0480181 9.73161e-22)
(0.924211 0.0490636 3.53724e-21)
(0.91343 0.0498703 2.59101e-20)
(0.904539 0.0505325 1.42624e-20)
(0.894527 0.0512772 3.16265e-20)
(0.88346 0.0520413 -1.87217e-20)
(0.873234 0.052673 1.71294e-20)
(0.864244 0.0532105 -1.54083e-20)
(0.856823 0.0537142 -1.07603e-20)
(0.849482 0.0542648 -1.67203e-20)
(0.840979 0.0549303 -2.34834e-20)
(0.831015 0.0556285 -2.47242e-20)
(0.819516 0.0564148 -1.80523e-20)
(0.808907 0.057061 -8.03778e-21)
(0.800127 0.0575152 -6.45758e-21)
(0.793224 0.0580083 -3.46704e-20)
(0.786072 0.058628 -2.4165e-20)
(0.777402 0.059416 -1.99995e-20)
(0.766443 0.0602685 -2.62722e-20)
(0.75422 0.0611205 -2.58589e-20)
(0.743659 0.0616897 -2.17589e-20)
(0.735448 0.0618923 -2.81293e-20)
(0.729266 0.0621381 -5.06359e-21)
(0.722512 0.0626635 -3.21598e-20)
(0.713653 0.0635172 -5.38927e-21)
(0.70154 0.0646425 -1.75514e-20)
(0.689636 0.0656921 -4.07333e-20)
(0.679913 0.0662053 -1.35181e-20)
(0.672593 0.0663087 -1.37949e-20)
(0.665891 0.066526 -4.87712e-21)
(0.657866 0.0669512 -1.19459e-20)
(0.646 0.0676416 -7.73309e-21)
(0.632616 0.0684275 -4.85152e-20)
(0.621239 0.0688329 -9.25138e-21)
(0.612222 0.0688306 -2.18544e-20)
(0.60461 0.068667 8.36089e-22)
(0.596289 0.06844 -4.18379e-20)
(0.585062 0.0684586 5.22741e-21)
(0.571797 0.0689435 1.46015e-20)
(0.559668 0.0694016 3.4794e-20)
(0.549705 0.0696009 3.51228e-20)
(0.540756 0.0696352 3.31661e-20)
(0.530694 0.0697284 1.2521e-20)
(0.517108 0.0700599 -1.78043e-20)
(0.502091 0.0705479 -3.77534e-20)
(0.488588 0.0709257 -1.11016e-19)
(0.477299 0.071136 -1.07849e-19)
(0.466644 0.0715613 -1.01494e-19)
(0.454328 0.0723078 -6.3943e-20)
(0.439038 0.0735324 -1.06156e-19)
(0.423285 0.0752652 -5.59396e-20)
(0.408545 0.0772547 -1.17259e-19)
(0.394845 0.0792926 4.20391e-20)
(0.380903 0.0810216 -1.58096e-19)
(0.365199 0.0820308 3.5247e-20)
(0.349416 0.0819965 -7.16852e-20)
(0.334773 0.0814723 -9.23415e-20)
(0.321255 0.0807908 -2.50197e-20)
(0.306902 0.08039 -1.9177e-19)
(0.290648 0.0805433 -3.70711e-20)
(0.273949 0.0815703 -2.29512e-20)
(0.257663 0.0835256 -1.21135e-19)
(0.241848 0.0863195 2.85996e-19)
(0.225409 0.0900797 -1.68917e-19)
(0.206983 0.0950541 3.12288e-19)
(0.187012 0.101286 -2.58224e-19)
(0.166304 0.10842 -2.52079e-19)
(0.144854 0.116013 3.66301e-19)
(0.122383 0.125002 -2.62139e-19)
(0.098459 0.134916 2.64788e-19)
(0.0750402 0.148522 -6.15502e-20)
(0.0504155 0.161475 -6.03662e-19)
(0.0259176 0.173206 -1.17705e-18)
(3.5 -1.32172e-16 2.96157e-22)
(3.5 8.78874e-17 1.20858e-22)
(3.5 1.6383e-16 1.31445e-22)
(3.5 -1.35726e-15 -6.31085e-22)
(3.5 -7.99716e-16 7.25066e-22)
(3.5 -4.56202e-16 8.69419e-22)
(3.5 2.43052e-15 -2.11226e-22)
(3.5 5.72417e-15 1.01772e-21)
(3.5 8.23043e-15 -1.99908e-22)
(3.5 9.55616e-15 -3.17157e-22)
(3.5 8.71491e-15 -3.47498e-22)
(3.5 6.11714e-15 2.46681e-22)
(3.5 4.44081e-15 7.29903e-22)
(3.5 4.41055e-15 -4.38834e-22)
(3.5 2.94202e-15 -1.20275e-21)
(3.5 1.17107e-15 -5.8474e-22)
(3.5 1.77105e-15 5.64322e-22)
(3.5 2.79395e-15 3.16562e-22)
(3.5 3.19441e-15 7.94262e-23)
(3.5 5.86599e-16 1.46417e-21)
(3.5 -1.09445e-15 1.35002e-21)
(3.5 -2.22935e-15 1.388e-21)
(3.5 -1.56115e-15 1.40266e-21)
(3.5 7.60207e-17 1.54833e-21)
(3.5 5.77116e-15 5.25467e-22)
(3.5 1.21369e-14 3.2623e-22)
(3.5 1.40676e-14 -4.13089e-23)
(3.5 1.36573e-14 -5.43053e-25)
(3.5 1.1002e-14 3.0784e-23)
(3.5 8.55067e-15 1.1811e-22)
(3.5 7.06811e-15 4.45613e-22)
(3.5 -1.48019e-15 6.48896e-22)
(3.5 -1.05063e-13 7.71627e-22)
(3.5 -1.92703e-12 8.11969e-22)
(3.5 -3.73941e-11 8.24008e-22)
(3.5 -6.62894e-10 8.8161e-22)
(3.5 -8.21974e-09 9.35125e-22)
(3.5 -1.90216e-07 9.93232e-22)
(3.5 -2.96578e-07 1.10281e-21)
(3.49998 1.04094e-05 1.18921e-21)
(3.50012 6.1641e-05 1.18278e-21)
(3.50486 -0.000436236 1.10987e-21)
(3.48497 0.00482375 1.14168e-21)
(3.05908 0.0337635 1.25482e-21)
(1.58171 0.0532295 9.38141e-22)
(1.07955 0.0571783 7.17823e-23)
(0.956233 0.059715 -6.08207e-21)
(0.926087 0.0611801 -2.50884e-20)
(0.914954 0.0618829 -2.13524e-20)
(0.906043 0.0623482 -3.65607e-20)
(0.896185 0.0630052 -2.5936e-20)
(0.885204 0.0638192 -3.42507e-20)
(0.875029 0.0646301 -3.04531e-20)
(0.866139 0.0652634 -1.21554e-20)
(0.858862 0.0657479 -1.29921e-20)
(0.851853 0.0662612 -3.45143e-20)
(0.843648 0.0669562 -2.80071e-21)
(0.833965 0.0678275 -8.08487e-21)
(0.822501 0.0688964 -1.95674e-20)
(0.811736 0.0699782 -1.76756e-20)
(0.802895 0.070622 -2.49597e-20)
(0.796064 0.07089 -5.92628e-21)
(0.789412 0.0712594 9.54531e-21)
(0.781168 0.0719055 2.89477e-21)
(0.77052 0.0727069 2.15209e-20)
(0.758155 0.0737744 1.21018e-20)
(0.747209 0.0747105 1.2028e-20)
(0.738604 0.0752109 1.47712e-20)
(0.732329 0.0752164 1.19716e-20)
(0.725926 0.075384 1.40096e-20)
(0.717729 0.075845 6.61815e-21)
(0.705856 0.0768182 1.41236e-20)
(0.693643 0.0781053 -1.47512e-20)
(0.683642 0.0790098 5.30654e-21)
(0.676039 0.0792665 -5.07912e-22)
(0.669739 0.0791804 -2.5034e-21)
(0.662386 0.0792401 -2.28968e-21)
(0.651219 0.0796053 4.7444e-21)
(0.637816 0.0806754 -1.33241e-20)
(0.626159 0.0816403 -1.18414e-20)
(0.61687 0.0821097 -1.39785e-20)
(0.60901 0.0820586 -1.09203e-20)
(0.600251 0.0819491 -1.11919e-20)
(0.588398 0.0820567 -2.17906e-20)
(0.574109 0.0826228 1.96454e-20)
(0.561013 0.0831781 1.21679e-19)
(0.550236 0.0834517 6.32356e-21)
(0.54051 0.0836184 1.45869e-19)
(0.529925 0.0838118 3.16312e-20)
(0.516287 0.084188 1.67881e-19)
(0.501252 0.0849357 1.63415e-19)
(0.487636 0.0857394 1.75642e-19)
(0.476089 0.0862714 1.60539e-19)
(0.465506 0.0866933 1.14638e-19)
(0.453571 0.0873652 1.43951e-19)
(0.438793 0.0885563 4.53171e-21)
(0.423349 0.0903621 2.15506e-19)
(0.408822 0.092378 1.82125e-19)
(0.395356 0.094339 2.24532e-20)
(0.381468 0.0958961 1.64609e-19)
(0.366305 0.096703 -8.28128e-21)
(0.351462 0.0967995 1.01949e-19)
(0.337998 0.0962677 5.54359e-20)
(0.325231 0.095514 1.1355e-19)
(0.311209 0.0950635 3.86181e-20)
(0.295062 0.0954054 5.94028e-20)
(0.278175 0.0970776 -1.16991e-19)
(0.26146 0.0999494 1.19942e-19)
(0.245114 0.103815 1.69356e-20)
(0.228215 0.108708 5.49135e-20)
(0.209363 0.114808 -2.77952e-19)
(0.189007 0.12208 6.46563e-19)
(0.167951 0.130253 -5.00843e-19)
(0.146018 0.138851 -3.59261e-19)
(0.123346 0.149209 4.64693e-19)
(0.0997303 0.160586 -1.68979e-19)
(0.0775736 0.175812 -8.8599e-19)
(0.0540512 0.18992 6.01614e-19)
(0.0299235 0.200964 1.59499e-18)
(3.5 -3.08037e-17 -6.10453e-22)
(3.5 -1.3205e-15 -5.30328e-22)
(3.5 -9.05236e-16 -2.13542e-22)
(3.5 -6.16568e-16 -1.41855e-21)
(3.5 1.2781e-15 -1.42944e-21)
(3.5 2.73152e-15 -7.90669e-22)
(3.5 5.48323e-15 5.09845e-22)
(3.5 6.7844e-15 -9.82623e-22)
(3.5 5.867e-15 -2.21126e-22)
(3.5 4.64296e-15 -4.6441e-22)
(3.5 4.99994e-15 -1.44508e-22)
(3.5 5.36207e-15 1.91174e-22)
(3.5 5.57033e-15 1.36495e-21)
(3.5 5.8157e-15 2.77815e-21)
(3.5 5.10348e-15 3.53853e-21)
(3.5 5.05246e-15 2.34206e-21)
(3.5 1.40933e-15 3.2131e-21)
(3.5 4.84869e-17 1.93306e-21)
(3.5 -1.36251e-15 1.93121e-21)
(3.5 -4.16212e-15 3.62689e-21)
(3.5 -5.19518e-15 1.96037e-21)
(3.5 -4.15841e-15 1.74763e-21)
(3.5 -5.46364e-15 1.98234e-21)
(3.5 -3.65218e-15 1.84558e-21)
(3.5 -1.1419e-15 3.10406e-21)
(3.5 -2.05947e-15 2.71506e-21)
(3.5 3.05374e-15 2.4219e-21)
(3.5 5.78714e-15 2.47002e-21)
(3.5 5.66035e-15 2.38443e-21)
(3.5 4.88456e-15 2.19017e-21)
(3.5 4.58957e-15 1.82761e-21)
(3.5 3.99449e-15 1.76014e-21)
(3.5 -1.64676e-15 1.6331e-21)
(3.5 3.42559e-14 1.74474e-21)
(3.5 2.38724e-12 1.52658e-21)
(3.5 8.41244e-11 1.45947e-21)
(3.5 2.78363e-09 1.45634e-21)
(3.5 4.41061e-08 1.33559e-21)
(3.5 1.08934e-06 1.33626e-21)
(3.50006 1.62713e-05 1.38443e-21)
(3.50069 0.000176745 1.37141e-21)
(3.50686 -0.000381393 1.38096e-21)
(3.48904 0.00463326 1.25865e-21)
(3.09432 0.0345612 1.51928e-21)
(1.6054 0.0602595 9.60799e-22)
(1.08889 0.0653168 -4.46903e-21)
(0.96107 0.0701543 -6.19645e-21)
(0.929538 0.0728286 1.46369e-20)
(0.918434 0.07356 -3.4078e-20)
(0.90988 0.0736795 1.2018e-20)
(0.900631 0.07404 2.62887e-21)
(0.890062 0.0748788 1.51973e-20)
(0.879932 0.0759957 1.94227e-20)
(0.870914 0.0770434 2.24514e-20)
(0.863376 0.0777315 -1.57891e-22)
(0.856378 0.0782216 4.68007e-20)
(0.848416 0.078836 1.29889e-20)
(0.839151 0.0797201 2.30154e-20)
(0.828019 0.0810078 -2.4099e-21)
(0.817083 0.0825187 2.06299e-20)
(0.807841 0.0836614 7.33903e-21)
(0.80051 0.0840741 -4.75458e-21)
(0.794116 0.0841152 -1.56211e-20)
(0.786338 0.0843619 2.07992e-20)
(0.776392 0.0849441 2.43753e-20)
(0.764212 0.0862191 1.69226e-20)
(0.75263 0.0877537 1.02588e-20)