/*--------------------------------*- C++ -*----------------------------------*\
| =========                 |                                                 |
| \\      /  F ield         | OpenFOAM: The Open Source CFD Toolbox           |
|  \\    /   O peration     | Version:  2.2.x                                 |
|   \\  /    A nd           | Web:      www.OpenFOAM.org                      |
|    \\/     M anipulation  |                                                 |
\*---------------------------------------------------------------------------*/
FoamFile
{
    version     2.0;
    format      ascii;
    class       volVectorField;
    location    "3.4";
    object      U;
}
// * * * * * * * * * * * * * * * * * * * * * * * * * * * * * * * * * * * * * //

dimensions      [0 1 -1 0 0 0 0];

internalField   nonuniform List<vector> 
14161
(
(1.5 -1.32416e-16 7.18368e-24)
(1.5 2.89562e-16 -5.31422e-23)
(1.5 3.52834e-16 4.79863e-23)
(1.5 5.88764e-16 3.14295e-23)
(1.5 4.07018e-16 1.96232e-23)
(1.5 4.99456e-16 -7.52222e-23)
(1.5 -1.43325e-14 1.75609e-22)
(1.5 4.27384e-14 5.35872e-23)
(1.5 -1.90193e-12 1.41463e-22)
(1.5 2.19898e-12 1.56936e-23)
(1.5 -7.21262e-09 9.85377e-24)
(1.5 3.43695e-08 8.90827e-24)
(1.5 -1.40039e-07 -3.02547e-23)
(1.5 -2.18413e-06 2.87152e-23)
(1.50006 -7.03497e-05 -7.97378e-23)
(1.49955 0.0028711 -1.04766e-22)
(1.51109 -0.0122492 -1.7606e-22)
(1.41872 0.010675 -2.27968e-22)
(0.620495 0.00324044 -1.11088e-21)
(0.527313 0.00138079 5.20507e-21)
(0.519451 0.00139925 -6.89295e-21)
(0.512129 0.00157323 4.39807e-21)
(0.504732 0.00154208 -6.70018e-21)
(0.49749 0.00141712 3.14528e-21)
(0.49072 0.00128829 -6.38408e-21)
(0.484491 0.00115742 1.47863e-21)
(0.478722 0.00100615 -4.06938e-21)
(0.473484 0.000840866 1.45217e-22)
(0.468771 0.000720275 -3.21292e-21)
(0.464364 0.000685381 -1.41066e-21)
(0.460139 0.000728319 -3.21036e-21)
(0.455949 0.000827675 -1.38364e-21)
(0.451704 0.000928117 -2.72515e-21)
(0.447394 0.00102377 -5.72358e-22)
(0.442986 0.00110284 -1.04306e-21)
(0.438518 0.00118008 3.42991e-22)
(0.434005 0.0012331 -5.82332e-22)
(0.429555 0.0012884 1.5088e-22)
(0.425172 0.00132084 -1.03249e-21)
(0.420939 0.00136066 -4.18279e-22)
(0.416895 0.00134452 -8.79626e-22)
(0.413106 0.0013335 -3.96706e-22)
(0.40958 0.00130266 -5.07873e-22)
(0.406302 0.00131003 -2.05982e-22)
(0.403217 0.00128658 9.86866e-23)
(0.400259 0.00129676 -4.22426e-22)
(0.397303 0.00130895 3.14061e-21)
(0.394362 0.00132168 -4.84809e-22)
(0.391427 0.00133652 5.93523e-21)
(0.388491 0.00135532 1.83065e-21)
(0.385547 0.00137742 6.13189e-21)
(0.382585 0.00140288 4.17954e-21)
(0.379603 0.00143107 8.48476e-21)
(0.376597 0.00146226 6.15355e-21)
(0.373565 0.00149671 8.33163e-21)
(0.370501 0.00153414 5.63598e-21)
(0.367398 0.00157445 8.05161e-21)
(0.364254 0.00161447 4.99988e-21)
(0.361071 0.00165221 7.81095e-21)
(0.357851 0.00168795 4.46128e-21)
(0.354594 0.00172232 8.31002e-21)
(0.351301 0.00175664 4.53023e-21)
(0.34797 0.00179127 8.81516e-21)
(0.344598 0.00182643 1.73792e-21)
(0.341185 0.00186195 9.99746e-21)
(0.337726 0.00189958 1.70735e-21)
(0.33422 0.00194001 7.90923e-21)
(0.330664 0.00198198 1.58069e-21)
(0.327058 0.00202459 8.08992e-21)
(0.323401 0.00206668 1.88426e-21)
(0.319692 0.00210715 6.56643e-21)
(0.315929 0.00214513 1.6766e-21)
(0.312113 0.00217991 6.83388e-21)
(0.308243 0.00221164 1.9026e-21)
(0.30432 0.00224033 3.75602e-21)
(0.300344 0.00226635 3.64641e-21)
(0.296316 0.00229025 2.42927e-21)
(0.292234 0.00231244 3.80337e-21)
(0.288097 0.0023332 1.8949e-21)
(0.283903 0.00235317 3.47151e-21)
(0.279647 0.00237468 2.39397e-21)
(0.275324 0.00239943 2.49178e-21)
(0.270926 0.00242514 -5.70652e-22)
(0.266449 0.0024508 1.01672e-21)
(0.261886 0.00247664 -2.50354e-21)
(0.25723 0.0025039 -2.14977e-23)
(0.252473 0.00253355 -6.87894e-21)
(0.247611 0.00256292 -1.4211e-21)
(0.242641 0.0025923 -5.0637e-21)
(0.23756 0.00262277 -5.15788e-21)
(0.232363 0.00265472 -2.44122e-21)
(0.227047 0.00268916 -7.47298e-21)
(0.221608 0.00272703 -3.85362e-21)
(0.216039 0.0027683 -1.25352e-20)
(0.210334 0.00281265 2.36672e-21)
(0.204487 0.00285998 -1.2674e-20)
(0.198488 0.00291138 4.18652e-21)
(0.192326 0.00296815 -1.62264e-20)
(0.185989 0.00302908 4.75375e-21)
(0.17947 0.00309211 -1.69885e-20)
(0.172765 0.00315927 5.11922e-21)
(0.165868 0.00323394 -7.42655e-21)
(0.158771 0.00331649 5.10565e-21)
(0.151467 0.00340797 -1.65985e-20)
(0.143951 0.0035129 7.37631e-21)
(0.136204 0.00363615 -1.92072e-20)
(0.128197 0.00377967 1.7795e-20)
(0.119901 0.00394626 -4.78256e-20)
(0.111279 0.00414247 1.95156e-20)
(0.102285 0.00437357 -5.07248e-20)
(0.0928766 0.00463609 3.42808e-20)
(0.0830274 0.0049191 -5.66334e-20)
(0.0727476 0.00520449 4.18275e-20)
(0.062082 0.00547333 -7.90292e-20)
(0.0511016 0.00569911 8.75609e-21)
(0.0398953 0.00588002 -3.93051e-20)
(0.0284944 0.00601112 1.95221e-20)
(0.0171308 0.00594133 -3.04297e-19)
(0.00607923 0.00624864 2.05452e-19)
(1.5 -2.37454e-16 1.76102e-23)
(1.5 4.1396e-16 2.86964e-22)
(1.5 1.87817e-16 3.64858e-22)
(1.5 6.35236e-16 -5.77657e-24)
(1.5 7.21949e-16 6.46335e-24)
(1.5 9.25404e-16 2.83282e-23)
(1.5 -2.38458e-14 3.14636e-24)
(1.5 1.01424e-13 2.25721e-24)
(1.5 -3.89437e-12 9.48524e-23)
(1.5 1.62809e-11 6.2322e-24)
(1.5 -2.45823e-08 5.5519e-23)
(1.5 8.69658e-08 -2.64841e-24)
(1.5 -7.93914e-08 5.92746e-23)
(1.49999 9.24366e-07 -2.56524e-22)
(1.50005 -8.81329e-05 -3.4024e-22)
(1.50099 0.00221929 -2.36418e-22)
(1.48334 -0.0104709 -2.08513e-22)
(1.46356 0.0101851 -4.36494e-22)
(0.628128 0.00270256 -1.3693e-21)
(0.532622 0.00117411 4.80686e-21)
(0.522405 0.00172751 -7.73238e-21)
(0.514025 0.00213721 5.03809e-21)
(0.506379 0.00242462 -1.15729e-20)
(0.49906 0.0024804 5.5174e-21)
(0.492211 0.00240845 -1.1167e-20)
(0.485867 0.00237321 8.03394e-21)
(0.479897 0.0023199 -1.30815e-20)
(0.474363 0.00228824 6.90029e-21)
(0.469251 0.00225819 -1.48104e-20)
(0.464431 0.0023127 5.50978e-21)
(0.459807 0.00237939 -1.46619e-20)
(0.455321 0.00254432 3.0202e-21)
(0.4509 0.00273498 -1.38941e-20)
(0.446527 0.00298386 4.60611e-21)
(0.442146 0.00323783 -1.45242e-20)
(0.437767 0.00351753 7.02667e-21)
(0.433357 0.00372568 -1.41396e-20)
(0.429005 0.0039264 6.93535e-21)
(0.424712 0.00403043 -1.45658e-20)
(0.420572 0.00414868 6.51728e-21)
(0.416593 0.00412412 -1.43511e-20)
(0.412807 0.00412489 5.75247e-21)
(0.409221 0.00402448 -1.34958e-20)
(0.405882 0.0040236 5.79928e-21)
(0.402756 0.0039306 -1.26028e-20)
(0.399771 0.00394786 6.25202e-21)
(0.396788 0.00397026 -1.51717e-20)
(0.393833 0.00400088 1.08782e-20)
(0.390889 0.00404138 -1.68629e-20)
(0.387949 0.00409613 4.14699e-21)
(0.385003 0.00416245 -1.68685e-20)
(0.382045 0.00424095 2.18843e-21)
(0.379071 0.00432975 -2.30506e-20)
(0.376076 0.00442833 -1.9314e-21)
(0.373059 0.00453816 -2.2427e-20)
(0.370011 0.00465779 -2.65358e-21)
(0.366928 0.00478051 -1.61029e-20)
(0.363808 0.00490227 -2.64851e-21)
(0.360652 0.00501887 -1.65317e-20)
(0.357459 0.00513082 -5.78902e-21)
(0.354228 0.00523921 -2.08984e-20)
(0.350958 0.0053468 -2.79908e-21)
(0.347647 0.00545437 -2.5284e-20)
(0.344295 0.00556263 7.11141e-22)
(0.340901 0.00567139 -2.08324e-20)
(0.337464 0.00578073 -5.47904e-21)
(0.333985 0.00588988 -1.19109e-20)
(0.330463 0.00599929 -5.45699e-21)
(0.326897 0.00610846 -9.93576e-21)
(0.323288 0.00621636 -1.04768e-20)
(0.319633 0.00632207 -1.1918e-20)
(0.315929 0.00642508 -1.25792e-20)
(0.312175 0.00652425 -1.2083e-20)
(0.308366 0.00661884 -1.4683e-20)
(0.304504 0.00670853 -1.25762e-20)
(0.300585 0.00679333 -1.37396e-20)
(0.29661 0.00687378 -1.20278e-20)
(0.292577 0.00695032 -1.32692e-20)
(0.288483 0.00702397 -1.12232e-20)
(0.284326 0.00709584 -1.2392e-20)
(0.280102 0.00716706 -7.48051e-21)
(0.275809 0.00723875 -1.47473e-20)
(0.27144 0.00731005 -6.14086e-21)
(0.266993 0.00737992 -9.02664e-21)
(0.26246 0.00744976 -4.88356e-21)
(0.257836 0.00752186 -1.51983e-20)
(0.253116 0.00759549 7.40822e-21)
(0.248294 0.00766989 -2.79341e-20)
(0.243367 0.00774557 1.88015e-20)
(0.238333 0.0078254 -1.1561e-20)
(0.233187 0.0079115 1.0735e-20)
(0.227923 0.0080027 -1.30737e-20)
(0.222539 0.00810058 1.22468e-20)
(0.217027 0.00820581 -3.02828e-20)
(0.211383 0.00831874 1.81212e-20)
(0.205598 0.00843886 -1.72476e-20)
(0.199666 0.00856924 1.46217e-20)
(0.193574 0.00871382 -2.30634e-20)
(0.18731 0.00886922 8.60841e-21)
(0.180867 0.00902997 -7.3611e-21)
(0.17424 0.00920264 1.08921e-20)
(0.167423 0.00939798 -1.04916e-20)
(0.160405 0.00961741 -2.08216e-20)
(0.153182 0.00986374 -1.22309e-20)
(0.145748 0.0101498 -3.63759e-21)
(0.138087 0.0104885 -2.78801e-20)
(0.130176 0.0108841 1.72386e-20)
(0.121987 0.0113421 -2.45564e-20)
(0.113491 0.0118799 5.70668e-20)
(0.104646 0.0125133 -4.89252e-20)
(0.095407 0.0132362 4.38985e-20)
(0.0857417 0.0140224 -3.73847e-20)
(0.0756426 0.0148324 8.16466e-20)
(0.0651201 0.0156396 -5.97084e-20)
(0.0541647 0.0164389 8.12115e-20)
(0.042766 0.017239 -5.75999e-20)
(0.0309351 0.0179698 -1.57187e-19)
(0.0188544 0.018167 -7.34778e-20)
(0.00674033 0.019223 -3.57045e-19)
(1.5 -2.2799e-16 1.65037e-22)
(1.5 1.9999e-17 -1.43181e-22)
(1.5 1.55364e-16 -1.24684e-22)
(1.5 -5.90527e-17 -1.13392e-22)
(1.5 6.41579e-16 4.07685e-23)
(1.5 1.37916e-15 -4.50801e-23)
(1.5 6.96094e-17 -5.29323e-23)
(1.5 5.297e-14 -6.62747e-23)
(1.5 -8.0481e-12 6.79673e-23)
(1.5 3.64841e-11 2.88898e-23)
(1.5 1.90347e-09 2.71209e-22)
(1.5 -3.71297e-08 -3.75396e-22)
(1.5 2.52757e-07 -2.90514e-22)
(1.5 6.97113e-06 -1.50089e-22)
(1.50002 -4.44375e-05 4.10804e-23)
(1.50114 -0.00038982 -6.0725e-23)
(1.48108 0.00293348 -9.16604e-23)
(1.46568 -0.00306796 -3.18778e-22)
(0.628503 0.00413888 -1.1852e-21)
(0.534361 0.00484946 5.17084e-21)
(0.523889 0.00472126 -8.37045e-21)
(0.51524 0.00467826 1.34119e-21)
(0.507357 0.00470972 -9.43453e-21)
(0.499938 0.00466305 6.66044e-21)
(0.492914 0.00453381 -1.74238e-20)
(0.486344 0.00449769 4.30597e-21)
(0.480116 0.00441357 -1.64693e-20)
(0.474233 0.00437229 3.82607e-21)
(0.468651 0.00416707 -1.77327e-20)
(0.463486 0.00415322 7.38423e-21)
(0.45862 0.00424199 -1.57616e-20)
(0.453951 0.0045022 6.05977e-21)
(0.449389 0.00478039 -1.73474e-20)
(0.444946 0.00515049 3.82239e-21)
(0.44056 0.00552189 -1.77424e-20)
(0.436259 0.00595372 1.27646e-21)
(0.431985 0.00630211 -1.85457e-20)
(0.427777 0.00663961 6.5326e-22)
(0.423626 0.00681415 -1.95581e-20)
(0.419642 0.0070182 4.67531e-22)
(0.415831 0.00702073 -1.90775e-20)
(0.412199 0.00708474 -1.91637e-22)
(0.408734 0.00696717 -1.82211e-20)
(0.405447 0.00698979 -2.10322e-21)
(0.40233 0.00684247 -1.8715e-20)
(0.399324 0.00687493 -2.83827e-21)
(0.396318 0.00691008 -1.14306e-20)
(0.393331 0.00696186 2.08752e-21)
(0.390342 0.00702497 -5.0625e-21)
(0.387354 0.0071062 5.76206e-21)
(0.38436 0.0072034 -4.78234e-21)
(0.381358 0.00731879 2.31732e-21)
(0.378344 0.00745154 1.63656e-21)
(0.375317 0.00760122 2.42284e-21)
(0.372277 0.00776887 1.71465e-21)
(0.369219 0.00795335 4.65063e-21)
(0.366137 0.00814776 -1.22294e-20)
(0.363032 0.00834417 5.0269e-21)
(0.359899 0.00853616 -2.4749e-20)
(0.356737 0.00872422 1.02819e-20)
(0.353539 0.00890897 -2.66693e-20)
(0.350304 0.00909235 -9.92947e-22)
(0.347029 0.00927522 -1.48085e-20)
(0.34371 0.00945831 -5.15626e-23)
(0.340348 0.00964051 -3.30923e-20)
(0.336942 0.00982101 8.13762e-22)
(0.333493 0.00999938 -3.46608e-20)
(0.33 0.0101767 1.15706e-21)
(0.326464 0.0103529 -3.14694e-20)
(0.322884 0.0105271 5.48369e-21)
(0.319258 0.0106989 -3.05941e-20)
(0.315585 0.0108685 2.64621e-21)
(0.31186 0.0110346 -2.75932e-20)
(0.308081 0.0111951 7.8098e-21)
(0.304245 0.0113491 -3.36876e-20)
(0.300349 0.0114967 9.25197e-21)
(0.29639 0.011638 -2.49775e-20)
(0.292368 0.0117732 5.31879e-22)
(0.288279 0.0119038 -2.54853e-20)
(0.284122 0.0120311 -2.75856e-21)
(0.279893 0.0121557 -1.52191e-20)
(0.275591 0.0122784 -1.33672e-20)
(0.271213 0.0123986 -1.54144e-20)
(0.266756 0.0125156 -1.76539e-20)
(0.262217 0.0126324 -4.09531e-21)
(0.257588 0.0127525 -3.57406e-20)
(0.252865 0.0128752 -1.24152e-20)
(0.248041 0.0130005 -3.17989e-20)
(0.243111 0.0131293 -3.13359e-20)
(0.238074 0.0132638 -3.19778e-20)
(0.232932 0.013407 -3.09812e-20)
(0.227679 0.0135601 -5.35344e-20)
(0.222308 0.0137235 -1.12229e-20)
(0.216812 0.0139 -7.89114e-20)
(0.211185 0.0140898 2.99979e-20)
(0.205419 0.0142918 -1.01857e-19)
(0.199507 0.014511 4.15937e-20)
(0.193438 0.0147544 -1.0101e-19)
(0.1872 0.0150167 4.03656e-20)
(0.180784 0.0152894 -1.14958e-19)
(0.174184 0.0155835 7.93834e-20)
(0.167392 0.0159162 -1.05118e-19)
(0.160397 0.0162896 9.0643e-20)
(0.153193 0.0167076 -1.14292e-19)
(0.145777 0.0171909 1.11918e-19)
(0.138133 0.0177598 -1.2552e-19)
(0.130241 0.0184211 1.09765e-19)
(0.12208 0.0191834 -1.04669e-19)
(0.113625 0.0200754 5.70754e-20)
(0.104843 0.0211247 7.24824e-20)
(0.0956945 0.0223254 3.16251e-20)
(0.0861469 0.0236348 3.06991e-19)
(0.0761916 0.0249925 -1.62634e-19)
(0.0658382 0.0263606 5.7381e-19)
(0.0551003 0.0277398 -2.28312e-19)
(0.0439938 0.0291654 4.84668e-19)
(0.0324601 0.0305953 7.23505e-19)
(0.0202258 0.0314739 -3.65702e-19)
(0.00779635 0.0332852 8.41869e-19)
(1.5 2.04905e-16 -1.73313e-22)
(1.5 2.07398e-16 5.57914e-23)
(1.5 3.23476e-16 2.24796e-22)
(1.5 -2.89215e-16 2.85875e-22)
(1.5 3.89523e-16 -2.58154e-23)
(1.5 6.37025e-16 -2.73e-22)
(1.5 1.6729e-14 -1.85569e-22)
(1.5 1.9263e-14 -1.85946e-22)
(1.5 -9.24069e-12 -1.13067e-22)
(1.5 6.24883e-11 -1.746e-22)
(1.5 3.27934e-08 -4.56206e-22)
(1.5 -1.14937e-07 -7.07315e-22)
(1.5 -4.02849e-07 -5.9955e-22)
(1.5 6.68173e-06 -5.4209e-22)
(1.5 -1.88772e-05 1.20272e-22)
(1.5006 -0.00115736 7.95443e-23)
(1.48962 0.00574724 -8.33707e-23)
(1.436 -0.00514541 -5.03404e-22)
(0.622494 0.00471214 -5.4354e-21)
(0.530242 0.0065667 5.51183e-21)
(0.521694 0.00668826 -5.12092e-21)
(0.513885 0.00669051 6.36344e-21)
(0.506279 0.00675832 -2.38179e-21)
(0.498972 0.00673046 1.91033e-21)
(0.491906 0.00656019 6.9215e-21)
(0.485167 0.00644286 -3.4163e-21)
(0.478756 0.0062623 -2.368e-21)
(0.472682 0.00618092 3.9324e-21)
(0.466996 0.00603847 8.47551e-21)
(0.46165 0.00607759 -9.11522e-22)
(0.456603 0.00617686 1.34809e-21)
(0.451784 0.00652145 2.1268e-22)
(0.447104 0.00686249 4.33254e-21)
(0.442606 0.00733458 1.12595e-21)
(0.438226 0.00778567 6.35861e-21)
(0.434044 0.00834943 2.60031e-21)
(0.429985 0.00882527 6.54549e-21)
(0.426092 0.00934047 5.58685e-22)
(0.422307 0.00963327 8.39163e-21)
(0.418672 0.00994196 -5.81767e-22)
(0.415158 0.00999276 7.68169e-21)
(0.411776 0.0101313 -7.28381e-22)
(0.408512 0.010043 8.08076e-21)
(0.405383 0.0101299 1.4459e-21)
(0.402383 0.00997783 8.60038e-21)
(0.399428 0.0100506 1.53017e-21)
(0.396425 0.0101223 3.84691e-21)
(0.393399 0.0102162 3.37738e-21)
(0.390346 0.0103168 -1.06273e-20)
(0.387285 0.0104298 3.45572e-21)
(0.384215 0.0105601 -7.68594e-21)
(0.381141 0.0107121 -8.92938e-22)
(0.37806 0.0108859 -1.48523e-21)
(0.374974 0.0110823 -8.78338e-21)
(0.371883 0.0112993 6.50972e-21)
(0.368786 0.0115323 -1.35514e-20)
(0.365688 0.0117782 2.78577e-20)
(0.362581 0.012028 -6.099e-21)
(0.359459 0.0122785 3.3625e-20)
(0.356315 0.0125305 -3.21847e-21)
(0.353141 0.012783 3.92823e-20)
(0.349932 0.0130364 6.81459e-21)
(0.346685 0.0132906 4.84777e-20)
(0.343397 0.0135459 1.89667e-22)
(0.340066 0.0137996 7.14367e-20)
(0.33669 0.0140497 -2.05978e-21)
(0.33327 0.0142957 8.41739e-20)
(0.329805 0.0145389 -3.56818e-21)
(0.326296 0.0147794 8.40796e-20)
(0.322743 0.0150167 -1.55399e-21)
(0.319144 0.0152508 6.52492e-20)
(0.315497 0.0154824 -1.03548e-21)
(0.311801 0.0157106 6.84588e-20)
(0.308053 0.0159331 5.95436e-21)
(0.304249 0.0161493 6.22515e-20)
(0.300387 0.0163584 -1.2781e-23)
(0.296466 0.0165601 6.53858e-20)
(0.292483 0.016754 -5.74066e-21)
(0.288436 0.0169418 6.87642e-20)
(0.284321 0.0171245 -1.04987e-20)
(0.280133 0.0173027 6.60329e-20)
(0.275868 0.0174763 -1.81533e-20)
(0.27152 0.0176435 7.29543e-20)
(0.267085 0.0178049 -2.84448e-20)
(0.262557 0.0179653 7.82474e-20)
(0.257931 0.0181291 -3.32429e-20)
(0.253203 0.0182963 9.90113e-20)
(0.248367 0.0184689 -5.77595e-20)
(0.243419 0.0186466 9.22727e-20)
(0.238359 0.0188262 -8.31897e-21)
(0.233191 0.0190136 7.11983e-20)
(0.227911 0.0192178 1.9228e-20)
(0.222513 0.0194413 5.78364e-20)
(0.216991 0.0196839 -1.34198e-20)
(0.211337 0.0199444 4.37151e-20)
(0.205548 0.0202208 -4.91109e-20)
(0.199614 0.02052 -1.07353e-20)
(0.193528 0.0208517 -3.73099e-20)
(0.187278 0.0212093 -3.24688e-20)
(0.180857 0.0215826 -3.31092e-20)
(0.174259 0.0219867 -1.1538e-19)
(0.167477 0.0224453 -8.64438e-22)
(0.160502 0.0229607 -1.67487e-19)
(0.153327 0.0235381 3.12125e-20)
(0.145948 0.024205 -2.95539e-19)
(0.138352 0.0249877 7.57882e-20)
(0.130517 0.0258951 -3.94864e-19)
(0.122422 0.0269373 1.80473e-19)
(0.114043 0.0281528 -5.64499e-19)
(0.105349 0.0295815 1.33651e-19)
(0.096297 0.0312221 -4.8324e-19)
(0.0868534 0.0330151 -3.17039e-20)
(0.0770022 0.034885 -1.42804e-19)
(0.066746 0.0367864 -4.86428e-19)
(0.0560919 0.0387215 5.22772e-19)
(0.0450493 0.0407547 -8.67877e-19)
(0.0335831 0.0429331 4.58378e-19)
(0.0214003 0.0447949 3.94698e-19)
(0.00889863 0.0475195 -9.12728e-19)
(1.5 -4.28934e-17 -2.08704e-22)
(1.5 3.38824e-16 3.84409e-22)
(1.5 -6.85487e-18 -4.82229e-22)
(1.5 -3.35454e-16 6.0039e-22)
(1.5 -1.62524e-17 4.36208e-22)
(1.5 3.05792e-16 8.68003e-22)
(1.5 1.63249e-14 3.7063e-22)
(1.5 -3.40072e-13 -3.24594e-22)
(1.5 -1.94162e-11 1.25224e-22)
(1.5 1.64918e-10 -2.0708e-22)
(1.5 1.12296e-08 -1.52805e-21)
(1.5 -7.06135e-08 3.47791e-22)
(1.5 -2.82562e-07 -5.72712e-23)
(1.5 2.44196e-06 -2.56543e-22)
(1.5 -2.13698e-05 -1.03586e-21)
(1.50035 -0.00027157 -1.02035e-21)
(1.49027 0.000382914 -1.242e-23)
(1.43468 0.00242101 7.47326e-23)
(0.620343 0.00812246 2.19349e-21)
(0.527887 0.00865877 -1.14309e-20)
(0.520018 0.00871777 -7.17261e-21)
(0.512828 0.0088265 -3.08139e-21)
(0.505436 0.00895 -8.18064e-21)
(0.498227 0.00898053 -1.15856e-20)
(0.491127 0.00886126 -8.81191e-21)
(0.484243 0.00876855 -2.07663e-21)
(0.477585 0.00856903 -1.24887e-21)
(0.471205 0.00842826 -4.48103e-21)
(0.465217 0.00815214 -1.00647e-20)
(0.459633 0.00816313 8.86998e-22)
(0.454413 0.00831104 2.01494e-21)
(0.449471 0.00879622 4.33026e-23)
(0.444714 0.00918932 -9.70322e-22)
(0.440209 0.00974658 3.26923e-21)
(0.435881 0.0102223 -5.63483e-21)
(0.431812 0.0108437 2.07739e-21)
(0.427907 0.0113447 2.67716e-21)
(0.42423 0.0119435 -1.87152e-22)
(0.420683 0.0122977 4.84411e-22)
(0.417295 0.0127145 2.33227e-21)
(0.414004 0.0128593 -2.09898e-22)
(0.410832 0.0131185 1.06882e-21)
(0.407746 0.0131136 2.43317e-21)
(0.404772 0.0133024 2.05208e-21)
(0.401901 0.0132083 -2.20333e-22)
(0.399035 0.0133642 1.65693e-21)
(0.396101 0.0135162 7.60342e-21)
(0.393133 0.0136778 3.24927e-21)
(0.390121 0.0138394 1.59728e-20)
(0.38708 0.0140078 -1.2113e-20)
(0.384007 0.0141851 1.74425e-20)
(0.380912 0.0143788 -8.42685e-21)
(0.377801 0.0145897 2.9232e-20)
(0.374688 0.0148213 -1.78261e-21)
(0.371577 0.0150722 2.12919e-20)
(0.368471 0.0153374 -3.12952e-21)
(0.365366 0.0156158 1.17028e-20)
(0.362255 0.0159058 -4.09431e-21)
(0.359131 0.016205 1.84711e-20)
(0.355985 0.0165133 -4.21222e-21)
(0.352812 0.0168274 1.20948e-20)
(0.349607 0.0171453 -1.10721e-20)
(0.346368 0.0174662 2.27566e-20)
(0.343092 0.0177897 -1.81901e-20)
(0.339777 0.0181125 1.71519e-20)
(0.336423 0.0184315 -1.82724e-20)
(0.333026 0.0187455 9.51154e-21)
(0.329587 0.0190558 -1.87329e-20)
(0.326103 0.0193619 1.00467e-20)
(0.322575 0.0196631 -1.39044e-20)
(0.318999 0.0199596 6.01315e-21)
(0.315375 0.0202525 7.25901e-22)
(0.3117 0.0205411 -4.72592e-21)
(0.30797 0.0208234 1.62156e-20)
(0.304185 0.0210985 1.0129e-20)
(0.300342 0.0213657 8.45249e-21)
(0.296439 0.0216241 6.25869e-21)
(0.292476 0.0218735 1.8841e-21)
(0.288449 0.0221157 4.38324e-20)
(0.284356 0.0223523 1.92207e-22)
(0.280192 0.0225841 3.42571e-20)
(0.275951 0.0228113 -6.22876e-21)
(0.271627 0.0230319 3.34707e-20)
(0.267215 0.0232451 4.01816e-20)
(0.262709 0.0234562 -2.65788e-20)
(0.258105 0.0236693 6.78595e-20)
(0.253399 0.0238852 -5.8164e-20)
(0.248588 0.0241082 1.11926e-19)
(0.243668 0.0243376 -7.96424e-20)
(0.238637 0.0245676 1.38963e-19)
(0.233492 0.0248066 -9.09024e-20)
(0.22823 0.0250666 1.51322e-19)
(0.222848 0.0253504 -6.50873e-20)
(0.21734 0.0256573 1.74904e-19)
(0.211701 0.0259857 -4.82287e-20)
(0.205927 0.0263329 2.22972e-19)
(0.20001 0.0267083 -4.26916e-20)
(0.19394 0.0271242 2.41139e-19)
(0.187705 0.0275727 -5.78299e-20)
(0.181297 0.028043 2.83591e-19)
(0.174706 0.0285556 -7.20932e-20)
(0.167927 0.0291392 3.12416e-19)
(0.160948 0.0297959 -6.93507e-20)
(0.153766 0.03053 3.23983e-19)
(0.146382 0.0313747 -4.76318e-20)
(0.138787 0.0323648 3.3696e-19)
(0.13096 0.0335121 -6.10906e-20)
(0.12288 0.0348284 2.60081e-19)
(0.114523 0.0363622 9.25098e-20)
(0.105855 0.038168 -1.74924e-19)
(0.0968418 0.0402417 2.69801e-19)
(0.0874521 0.0425122 -5.62794e-19)
(0.0776728 0.0448898 4.02815e-19)
(0.0675087 0.0473273 -6.25301e-19)
(0.0569581 0.04983 -1.05748e-21)
(0.0460234 0.0524864 5.00676e-19)
(0.0347152 0.0554043 -6.95082e-19)
(0.0227337 0.0582497 -1.79937e-19)
(0.0103425 0.0620743 7.83139e-19)
(1.5 -3.21524e-16 3.46118e-22)
(1.5 6.37768e-18 3.06186e-23)
(1.5 -6.63055e-16 3.31358e-22)
(1.5 -5.97852e-16 -1.43273e-22)
(1.5 4.3462e-17 -1.35819e-21)
(1.5 1.54913e-16 -2.4554e-21)
(1.5 8.82825e-15 -1.54532e-21)
(1.5 5.12616e-14 -3.15303e-22)
(1.5 -3.38098e-12 -2.22939e-21)
(1.5 -4.95285e-11 -1.81905e-21)
(1.5 7.84621e-09 -5.24009e-22)
(1.5 -4.43392e-08 -2.94479e-21)
(1.5 8.49016e-07 -3.0162e-21)
(1.5 5.70622e-07 -1.48113e-21)
(1.49999 -2.84397e-05 -1.78843e-21)
(1.50041 2.45533e-05 -1.49958e-21)
(1.48876 -0.000967 -3.55208e-21)
(1.44404 0.00406773 -4.64603e-22)
(0.623727 0.0104173 -4.55822e-21)
(0.530301 0.0106111 -1.75607e-20)
(0.521302 0.0109245 8.78126e-21)
(0.513477 0.0112169 -1.97197e-20)
(0.505925 0.011368 2.21311e-20)
(0.498628 0.0114649 -1.575e-20)
(0.49148 0.0114355 2.79603e-20)
(0.484466 0.0114613 -1.71112e-20)
(0.47759 0.0113618 3.27928e-20)
(0.470911 0.0112986 -2.20637e-20)
(0.464475 0.0110035 3.34691e-20)
(0.458392 0.0109043 -2.3855e-20)
(0.452749 0.0109145 2.86267e-20)
(0.447503 0.0113502 -2.68842e-20)
(0.442638 0.0117325 2.00375e-20)
(0.438117 0.0123394 -2.96568e-20)
(0.433843 0.0128161 1.53076e-20)
(0.429847 0.013476 -2.95454e-20)
(0.426027 0.0139598 1.52272e-20)
(0.422464 0.0145984 -2.83855e-20)
(0.419035 0.014982 1.59717e-20)
(0.415791 0.0154869 -2.96577e-20)
(0.412636 0.0157145 1.49701e-20)
(0.409618 0.0160956 -3.04648e-20)
(0.406672 0.0161891 1.5944e-20)
(0.403842 0.0164964 -2.62098e-20)
(0.401099 0.0164876 1.2926e-20)
(0.398344 0.0167469 -2.18173e-20)
(0.395513 0.0169961 -8.58499e-22)
(0.392643 0.017249 -1.19681e-20)
(0.389721 0.017495 1.19427e-20)
(0.386762 0.017743 2.18553e-22)
(0.383758 0.0179916 1.3682e-20)
(0.380722 0.0182489 -6.4718e-21)
(0.377657 0.0185145 -7.83542e-21)
(0.374577 0.0187919 7.3321e-21)
(0.371482 0.0190807 -2.90493e-20)
(0.368374 0.0193806 7.92043e-21)
(0.365254 0.0196922 -3.59204e-20)
(0.362124 0.0200188 1.63504e-21)
(0.358981 0.0203622 -3.42293e-20)
(0.355819 0.0207223 1.00472e-20)
(0.352633 0.0210934 -2.7303e-20)
(0.349417 0.02147 3.80571e-21)
(0.346168 0.0218504 -5.19294e-20)
(0.342886 0.0222333 1.28915e-20)
(0.339569 0.0226164 -5.61317e-20)
(0.336216 0.022997 9.10331e-21)
(0.332826 0.0233738 -5.91408e-20)
(0.329396 0.0237475 1.46229e-20)
(0.325924 0.0241172 -6.31985e-20)
(0.32241 0.0244814 3.23333e-20)
(0.318849 0.0248402 -8.9752e-20)
(0.31524 0.0251947 6.13988e-20)
(0.31158 0.0255441 -1.16417e-19)
(0.307865 0.0258863 5.85641e-20)
(0.304092 0.02622 -1.05335e-19)
(0.300261 0.0265442 7.3595e-20)
(0.29637 0.0268576 -1.06469e-19)
(0.292416 0.0271599 8.42252e-20)
(0.288399 0.0274535 -1.23309e-19)
(0.284314 0.0277409 7.82705e-20)
(0.280159 0.0280234 -1.03394e-19)
(0.275926 0.0283025 9.45437e-20)
(0.271611 0.0285754 -1.00066e-19)
(0.267206 0.0288399 8.37279e-20)
(0.262708 0.0291011 -5.20148e-20)
(0.258112 0.0293624 1.09078e-19)
(0.253415 0.0296254 -2.77984e-20)
(0.248614 0.029896 1.12197e-19)
(0.243706 0.0301733 -2.722e-20)
(0.238688 0.0304524 7.5779e-20)
(0.233558 0.0307437 -3.47347e-20)
(0.228311 0.0310598 2.98783e-20)
(0.222944 0.0314027 -5.46153e-20)
(0.217455 0.0317716 -1.90604e-20)
(0.211835 0.032165 -3.63659e-20)
(0.206081 0.0325809 -8.18646e-20)
(0.200184 0.0330313 -1.33941e-20)
(0.194135 0.0335311 -1.42307e-19)
(0.18792 0.0340716 1.39252e-20)
(0.18153 0.0346414 -1.55281e-19)
(0.174956 0.0352672 -1.95268e-20)
(0.16819 0.0359815 -1.01185e-19)
(0.161224 0.0367838 -2.45727e-20)
(0.154051 0.0376775 -1.463e-19)
(0.146673 0.0387025 5.36408e-20)
(0.139079 0.0399 -3.24342e-19)
(0.131252 0.041285 3.40723e-19)
(0.123172 0.0428727 -4.65949e-19)
(0.114818 0.0447209 6.07889e-19)
(0.106171 0.0468937 -3.52305e-19)
(0.0972057 0.0493854 5.62703e-19)
(0.087898 0.0521107 -1.16018e-20)
(0.0782347 0.0549689 -2.31984e-19)
(0.0682193 0.0579124 3.68161e-19)
(0.0578444 0.0609591 -9.41107e-19)
(0.0471072 0.0642188 -9.04949e-19)
(0.0360075 0.0678403 1.03874e-18)
(0.0241757 0.0716295 -1.12357e-19)
(0.012205 0.0765529 -9.81961e-19)
(1.5 -3.55044e-16 1.24199e-21)
(1.5 -5.68171e-16 6.06314e-22)
(1.5 -5.44507e-16 3.69604e-22)
(1.5 -3.9682e-16 -1.76564e-22)
(1.5 1.06336e-16 1.52479e-21)
(1.5 -2.36221e-16 2.37715e-21)
(1.5 3.82378e-15 3.6746e-22)
(1.5 5.70749e-13 1.90943e-21)
(1.5 1.07548e-11 -1.60322e-23)
(1.5 -3.46913e-10 -2.65511e-22)
(1.5 6.42521e-09 -3.13409e-22)
(1.5 -8.4082e-09 7.88712e-22)
(1.5 6.03453e-07 2.1524e-21)
(1.5 1.36472e-07 -1.94628e-21)
(1.49998 -1.9484e-06 -2.86292e-21)
(1.50061 -0.000319689 -1.41362e-21)
(1.48831 0.000279832 9.98176e-22)
(1.44574 0.00240436 2.73495e-22)
(0.625031 0.012724 -2.80915e-21)
(0.532159 0.0129006 1.66581e-20)
(0.523074 0.0130005 9.33091e-21)
(0.515022 0.0133059 9.67107e-21)
(0.507323 0.0135434 2.42322e-21)
(0.499926 0.0137836 1.03341e-20)
(0.492735 0.0138917 -5.50572e-21)
(0.485688 0.0140764 -1.90105e-20)
(0.47878 0.0141065 1.81098e-21)
(0.472021 0.0142132 -1.94754e-20)
(0.465295 0.014137 1.02801e-20)
(0.458581 0.0142189 -3.81513e-20)
(0.452103 0.014161 -6.33072e-21)
(0.446299 0.0144093 -3.29703e-20)
(0.441121 0.0145773 -3.91744e-21)
(0.436426 0.0150803 -2.64488e-20)
(0.432076 0.0154806 -7.8214e-21)
(0.428073 0.0161468 -2.28244e-20)
(0.424271 0.016601 -6.79878e-21)
(0.420747 0.0172767 -1.58341e-20)
(0.417364 0.0176805 -6.86717e-21)
(0.414203 0.0182785 -9.97273e-21)
(0.411134 0.0185809 -7.23483e-21)
(0.40824 0.0190879 -1.08167e-20)
(0.405414 0.0192834 -1.6584e-20)
(0.402722 0.0197162 -1.05457e-20)
(0.400108 0.0198049 -2.18428e-20)
(0.397472 0.0201717 -1.00079e-20)
(0.394751 0.0205224 -2.21871e-20)
(0.39199 0.0208756 -2.65478e-20)
(0.389168 0.0212202 -4.23659e-20)
(0.386304 0.0215628 -3.63109e-20)
(0.383385 0.0218995 -5.5831e-20)
(0.380426 0.0222381 -3.70694e-20)
(0.377431 0.0225769 -6.19578e-20)
(0.374409 0.0229205 -3.00902e-20)
(0.371362 0.0232702 -4.78763e-20)
(0.368292 0.0236285 -3.66676e-20)
(0.365198 0.0239945 -5.27267e-20)
(0.362078 0.0243717 -8.49095e-21)
(0.358932 0.0247648 -6.13518e-20)
(0.355761 0.0251744 -1.6938e-20)
(0.352563 0.0255957 -6.6911e-20)
(0.349339 0.0260233 -2.00332e-20)
(0.346086 0.0264559 -5.26764e-20)
(0.342803 0.0268924 -7.39466e-21)
(0.339489 0.0273306 -5.76535e-20)
(0.33614 0.0277674 7.72374e-21)
(0.332755 0.0282019 -6.87315e-20)
(0.329332 0.0286343 1.05244e-20)
(0.32587 0.0290633 -7.10336e-20)
(0.322366 0.0294869 1.18365e-20)
(0.318817 0.029905 -7.37499e-20)
(0.31522 0.0303187 9.18687e-21)
(0.311573 0.0307274 -7.69043e-20)
(0.30787 0.0311284 -9.9691e-21)
(0.30411 0.0315201 -6.66166e-20)
(0.30029 0.031901 -1.81947e-20)
(0.296408 0.0322691 -7.11025e-20)
(0.292463 0.0326235 -1.7927e-20)
(0.288453 0.0329673 -6.79129e-20)
(0.284376 0.0333036 -2.77188e-20)
(0.280226 0.0336349 -7.67145e-20)
(0.275999 0.0339638 -3.09677e-20)
(0.271688 0.0342868 -8.09324e-20)
(0.267288 0.0346005 -4.28321e-20)
(0.262794 0.0349095 -8.33025e-20)
(0.258203 0.0352166 1.86073e-20)
(0.253511 0.0355239 -2.56552e-20)
(0.248716 0.0358392 -1.61044e-20)
(0.243816 0.0361625 7.70669e-20)
(0.238806 0.0364899 -6.54353e-20)
(0.233684 0.0368324 2.03561e-19)
(0.228447 0.0372028 -7.09667e-20)
(0.223092 0.0376025 2.41486e-19)
(0.217614 0.0380308 -6.49641e-20)
(0.212006 0.0384868 2.26236e-19)
(0.206264 0.0389693 -6.26871e-20)
(0.200378 0.0394933 1.9032e-19)
(0.194338 0.0400765 1.39335e-19)
(0.188133 0.0407087 9.58723e-20)
(0.181751 0.0413789 8.51513e-20)
(0.175186 0.0421203 1.01747e-19)
(0.168429 0.0429684 -2.73694e-20)
(0.161473 0.0439168 1.42126e-19)
(0.154313 0.0449705 -7.25324e-20)
(0.146952 0.0461759 1.03395e-19)
(0.139384 0.0475804 -1.0322e-19)
(0.131591 0.0492022 -1.14541e-19)
(0.123554 0.0510591 -6.10184e-20)
(0.115256 0.0532147 -1.74331e-19)
(0.106688 0.055739 7.69776e-21)
(0.0978325 0.0586224 -5.35108e-19)
(0.0886647 0.0617711 5.32562e-19)
(0.0791664 0.0650791 2.03228e-21)
(0.0693329 0.0685032 2.66574e-19)
(0.0591509 0.0720775 1.13026e-18)
(0.0486105 0.0759334 -2.05316e-19)
(0.0376391 0.0802919 -1.69305e-18)
(0.0260161 0.0850915 5.99596e-19)
(0.0143958 0.090945 1.06266e-18)
(1.5 -4.2377e-16 -1.66078e-21)
(1.5 -5.06923e-16 -1.55631e-21)
(1.5 -3.76946e-17 -1.48647e-21)
(1.5 -1.74356e-16 -3.06757e-21)
(1.5 -3.92778e-16 -3.34867e-21)
(1.5 -4.89646e-16 -2.11886e-21)
(1.5 2.84799e-15 3.2969e-23)
(1.5 1.35135e-13 -2.33508e-21)
(1.5 -1.65218e-12 -1.45139e-21)
(1.5 -7.23128e-11 -1.4513e-21)
(1.5 3.36441e-09 -5.6189e-22)
(1.5 4.36683e-09 1.11089e-22)
(1.5 3.378e-07 3.28938e-22)
(1.5 5.22315e-08 8.88543e-21)
(1.49999 1.76083e-05 9.20788e-21)
(1.50023 -0.000405975 7.4823e-21)
(1.4896 0.000555405 8.33698e-21)
(1.44445 0.00234891 4.92483e-21)
(0.624714 0.0149974 9.14362e-22)
(0.531702 0.0153605 6.99061e-20)
(0.522684 0.0155969 -1.90552e-20)
(0.51459 0.0159523 3.4005e-20)
(0.506797 0.016196 -4.60825e-20)
(0.499299 0.0164996 4.08802e-20)
(0.49202 0.0166922 -4.25819e-20)
(0.484899 0.0170021 8.94355e-20)
(0.47789 0.0171342 -6.55522e-20)
(0.471026 0.0173853 9.52768e-20)
(0.46428 0.0174754 -7.42406e-20)
(0.457766 0.0177066 1.17139e-19)
(0.451565 0.017653 -6.97994e-20)
(0.445794 0.0178273 1.18739e-19)
(0.440516 0.0178719 -6.85699e-20)
(0.435668 0.018306 1.14713e-19)
(0.431175 0.0185913 -6.0282e-20)
(0.427043 0.0192032 1.00358e-19)
(0.423135 0.0195813 -6.43265e-20)
(0.41952 0.0202356 9.57128e-20)
(0.416055 0.0205963 -7.01077e-20)
(0.412848 0.0212262 9.54096e-20)
(0.409743 0.0215414 -6.64326e-20)