/*--------------------------------*- C++ -*----------------------------------*\
| =========                 |                                                 |
| \\      /  F ield         | OpenFOAM: The Open Source CFD Toolbox           |
|  \\    /   O peration     | Version:  2.2.x                                 |
|   \\  /    A nd           | Web:      www.OpenFOAM.org                      |
|    \\/     M anipulation  |                                                 |
\*---------------------------------------------------------------------------*/
FoamFile
{
    version     2.0;
    format      ascii;
    class       volScalarField;
    location    "0.19";
    object      p;
}
// * * * * * * * * * * * * * * * * * * * * * * * * * * * * * * * * * * * * * //

dimensions      [1 -1 -2 0 0 0 0];

internalField   nonuniform List<scalar> 
1024
(
1
1
1
1
1
1
1
1
1
1
1
1
1
1
1
1
1
1
1
1
1
1
1
1
1
1
1
1
1
1
1
1
1
1
1
1
1
1
1
1
1
1
1
1
1
1
1
1
1
1
1
1
1
1
1
1
1
1
1
1
1
1.00001
1.00002
1.00006
1.00019
1.0006
1.00185
1.00571
1.01747
1.05245
1.14908
1.32702
1.45835
1.52692
1.55902
1.5734
1.57968
1.58239
1.58364
1.58412
1.58433
1.5844
1.5844
1.58442
1.58442
1.58443
1.58444
1.58443
1.58443
1.58444
1.58446
1.58447
1.58448
1.58446
1.58445
1.58443
1.58442
1.58442
1.58442
1.58443
1.58444
1.58445
1.58446
1.58447
1.58446
1.58446
1.58445
1.58444
1.58443
1.58441
1.5844
1.5844
1.5844
1.58442
1.58443
1.58444
1.58445
1.58444
1.58444
1.58444
1.58444
1.58443
1.58442
1.58441
1.58441
1.58441
1.58442
1.58443
1.58444
1.58443
1.58442
1.58442
1.58441
1.5844
1.5844
1.5844
1.5844
1.5844
1.58441
1.58443
1.58445
1.58446
1.58447
1.58447
1.58446
1.58446
1.58445
1.58445
1.58445
1.58445
1.58445
1.58445
1.58446
1.58447
1.58447
1.58447
1.58446
1.58446
1.58445
1.58444
1.58444
1.58444
1.58445
1.58445
1.58446
1.58447
1.58447
1.58447
1.58447
1.58447
1.58446
1.58445
1.58443
1.58442
1.58441
1.58441
1.58441
1.58441
1.58441
1.58441
1.58441
1.58441
1.58441
1.58441
1.58441
1.5844
1.5844
1.5844
1.5844
1.58441
1.58441
1.58441
1.5844
1.58439
1.58437
1.58435
1.58434
1.58432
1.58431
1.5843
1.5843
1.5843
1.5843
1.58431
1.58432
1.58433
1.58434
1.58435
1.58436
1.58437
1.58437
1.58438
1.58438
1.58439
1.5844
1.5844
1.58441
1.58442
1.58442
1.58442
1.58442
1.58442
1.58442
1.58442
1.58443
1.58444
1.58444
1.58445
1.58446
1.58447
1.58447
1.58447
1.58446
1.58444
1.58442
1.58439
1.58436
1.58434
1.58433
1.58432
1.58432
1.58432
1.58433
1.58433
1.58434
1.58435
1.58436
1.58437
1.58438
1.58439
1.5844
1.5844
1.58441
1.58441
1.58442
1.58442
1.58442
1.58442
1.58442
1.58442
1.58442
1.58442
1.58443
1.58444
1.58445
1.58446
1.58447
1.58448
1.58449
1.5845
1.5845
1.5845
1.5845
1.5845
1.5845
1.5845
1.5845
1.58449
1.58449
1.58448
1.58446
1.58444
1.58442
1.5844
1.58439
1.58437
1.58436
1.58436
1.58436
1.58436
1.58436
1.58437
1.58438
1.58438
1.58437
1.58437
1.58436
1.58435
1.58434
1.58434
1.58435
1.58436
1.58438
1.58438
1.58446
1.5844
1.58455
1.58456
1.58476
1.58501
1.5854
1.5857
1.58586
1.58579
1.58602
1.58573
1.58642
1.58566
1.58658
1.58567
1.58692
1.5858
1.58756
1.58644
1.58786
1.58714
1.58814
1.58811
1.59016
1.59199
1.59711
1.60323
1.61662
1.63735
1.68266
1.74626
1.80535
1.84451
1.87679
1.8918
1.90558
1.91777
1.92311
1.92378
1.92674
1.93001
1.93091
1.93044
1.93071
1.93136
1.93166
1.93166
1.9317
1.93185
1.93195
1.93193
1.93188
1.93183
1.93184
1.93181
1.93185
1.9319
1.93198
1.93208
1.93218
1.93223
1.93228
1.93231
1.93236
1.93236
1.93235
1.93231
1.93223
1.93211
1.93201
1.93193
1.93188
1.93186
1.93188
1.93191
1.93193
1.93195
1.93196
1.93197
1.932
1.932
1.932
1.932
1.932
1.93207
1.93208
1.93207
1.93205
1.93203
1.93203
1.93203
1.93202
1.93198
1.9319
1.93187
1.93189
1.93195
1.93201
1.93204
1.93204
1.93205
1.93204
1.932
1.93196
1.9319
1.93186
1.93182
1.93176
1.93174
1.93172
1.93171
1.9317
1.93169
1.93165
1.93159
1.93153
1.93146
1.93141
1.93139
1.93139
1.9314
1.93144
1.93152
1.93163
1.93174
1.93181
1.93187
1.93197
1.93209
1.9322
1.93229
1.93233
1.93228
1.93222
1.9322
1.93218
1.93235
1.93252
1.93234
1.93214
1.93202
1.9321
1.93256
1.93303
1.93292
1.93151
1.93038
1.9298
1.93081
1.93321
1.93334
1.92994
1.91931
1.90539
1.89725
1.87707
1.81572
1.7579
1.71945
1.69852
1.67987
1.66907
1.66713
1.66706
1.66541
1.66377
1.66181
1.66016
1.65906
1.65791
1.65666
1.65478
1.65637
1.66
1.66302
1.66689
1.65307
1.63929
1.66512
1.64364
1.66326
1.6456
1.66357
1.64965
1.66156
1.65273
1.6584
1.65413
1.65639
1.65483
1.65582
1.65526
1.65567
1.65551
1.65574
1.65576
1.65591
1.65595
1.65601
1.656
1.656
1.65597
1.65593
1.65589
1.65583
1.65577
1.65574
1.65573
1.65573
1.65574
1.65575
1.65578
1.6558
1.6558
1.65581
1.65579
1.65578
1.65575
1.65571
1.65568
1.65567
1.65567
1.65569
1.65569
1.65575
1.65575
1.65582
1.65589
1.65594
1.65595
1.65596
1.65593
1.65593
1.65588
1.65586
1.6558
1.65573
1.6557
1.65569
1.65568
1.6557
1.6557
1.65574
1.65575
1.6558
1.65584
1.65585
1.65586
1.65586
1.65585
1.65585
1.65583
1.65582
1.65582
1.65583
1.65582
1.65584
1.65585
1.65586
1.65586
1.65586
1.65585
1.65585
1.65583
1.65582
1.6558
1.65577
1.65576
1.65575
1.65575
1.65575
1.65575
1.65575
1.65576
1.65576
1.65577
1.65578
1.6558
1.65581
1.65583
1.65586
1.65589
1.6559
1.65591
1.6559
1.6559
1.65588
1.65588
1.65585
1.65583
1.65579
1.65575
1.65573
1.65572
1.65572
1.65572
1.65572
1.65574
1.65574
1.65576
1.65578
1.6558
1.6558
1.65581
1.6558
1.6558
1.65579
1.65578
1.65577
1.65576
1.65575
1.65574
1.65574
1.65575
1.65575
1.65576
1.65576
1.65577
1.65577
1.65578
1.65578
1.65578
1.65578
1.65578
1.65577
1.65576
1.65575
1.65575
1.65574
1.65573
1.65573
1.65573
1.65574
1.65574
1.65575
1.65574
1.65576
1.65577
1.65579
1.65581
1.65584
1.65586
1.6559
1.65594
1.65598
1.656
1.65602
1.65603
1.65603
1.65604
1.65604
1.65604
1.65604
1.65603
1.65604
1.65603
1.65604
1.65604
1.65605
1.65606
1.65608
1.65608
1.65608
1.65608
1.65608
1.65607
1.65607
1.65607
1.65606
1.65606
1.65605
1.65605
1.65605
1.65606
1.65607
1.65608
1.65608
1.65608
1.65603
1.65606
1.65599
1.65616
1.65587
1.65662
1.65555
1.65701
1.65178
1.66414
1.64228
1.6683
1.59854
1.70426
1.44233
1.3503
1.0357
0.962221
0.95142
0.950171
0.95002
0.950002
0.95
0.95
0.95
0.95
0.95
0.95
0.95
0.95
0.95
0.95
0.95
0.95
0.95
0.95
0.95
0.95
0.95
0.95
0.95
0.95
0.95
0.95
0.95
0.95
0.95
0.95
0.95
0.95
0.95
0.95
0.95
0.95
0.95
0.95
0.95
0.95
0.95
0.95
0.95
0.95
0.95
0.95
0.95
0.95
0.95
0.95
0.95
0.95
0.95
0.95
0.95
0.95
0.95
0.95
0.95
0.95
0.95
0.95
0.95
0.95
0.95
0.95
0.95
0.95
0.95
0.95
0.95
0.95
0.95
0.95
0.95
0.95
0.95
0.95
0.95
0.95
0.95
0.95
0.95
0.95
0.95
0.95
0.95
0.95
0.95
0.95
0.95
0.95
0.95
0.95
0.95
0.95
0.95
0.95
0.95
0.95
0.95
0.95
0.95
0.95
0.95
0.95
0.95
0.95
0.95
0.95
0.95
0.95
0.95
0.95
0.95
0.95
0.95
0.95
0.95
0.95
0.95
0.95
0.95
0.95
0.95
0.95
0.95
0.95
0.95
0.95
0.95
0.95
0.95
0.95
0.95
0.95
0.95
0.95
0.95
0.95
0.95
0.95
0.95
0.95
0.95
0.95
0.95
0.95
0.95
0.95
0.95
0.95
0.95
0.95
0.95
0.95
0.95
0.95
0.95
0.95
0.95
0.95
0.95
0.95
0.95
0.95
0.95
0.95
0.95
0.95
0.95
0.95
0.95
0.95
0.95
0.95
0.95
0.95
0.95
0.95
0.95
0.95
0.95
0.95
0.95
0.95
0.95
0.95
0.95
0.95
0.95
0.95
0.95
0.95
0.95
0.95
0.95
0.95
0.95
0.95
0.95
0.95
0.95
0.95
0.95
0.95
0.95
0.95
0.95
0.95
0.95
0.95
0.95
0.95
0.95
0.95
0.95
0.95
0.95
0.95
0.95
0.95
0.95
0.95
0.95
0.95
0.95
0.95
0.95
0.95
0.95
0.95
0.95
0.95
0.95
0.95
0.95
0.95
0.95
0.95
0.95
0.95
0.95
0.95
0.95
0.95
0.95
0.95
0.95
0.95
0.95
0.95
0.95
0.95
0.95
0.95
0.95
0.95
0.95
0.95
0.95
0.95
0.95
0.95
0.95
0.95
0.95
0.95
0.95
0.95
0.95
0.95
0.95
0.95
0.95
0.95
0.95
0.95
0.95
0.95
0.95
0.95
0.95
0.95
0.95
0.95
0.95
0.95
0.95
0.95
0.95
0.95
0.95
0.95
0.95
0.95
0.95
0.95
0.95
0.95
0.95
0.95
0.95
0.95
0.95
0.95
0.95
0.95
0.95
0.95
0.95
0.95
0.95
0.95
0.95
0.95
0.95
0.95
0.95
0.95
0.95
0.95
0.95
)
;

boundaryField
{
    front-back
    {
        type            empty;
    }
    inlet-outlet
    {
        type            zeroGradient;
    }
    top-down
    {
        type            empty;
    }
}


// ************************************************************************* //
