/*--------------------------------*- C++ -*----------------------------------*\
| =========                 |                                                 |
| \\      /  F ield         | OpenFOAM: The Open Source CFD Toolbox           |
|  \\    /   O peration     | Version:  2.2.x                                 |
|   \\  /    A nd           | Web:      www.OpenFOAM.org                      |
|    \\/     M anipulation  |                                                 |
\*---------------------------------------------------------------------------*/
FoamFile
{
    version     2.0;
    format      ascii;
    class       volScalarField;
    location    "0.19";
    object      T;
}
// * * * * * * * * * * * * * * * * * * * * * * * * * * * * * * * * * * * * * //

dimensions      [0 0 0 1 0 0 0];

internalField   nonuniform List<scalar> 
1024
(
0.5
0.5
0.5
0.5
0.5
0.5
0.5
0.5
0.5
0.5
0.5
0.5
0.5
0.5
0.5
0.5
0.5
0.5
0.5
0.5
0.5
0.5
0.5
0.5
0.5
0.5
0.5
0.5
0.5
0.5
0.5
0.5
0.5
0.5
0.5
0.5
0.5
0.5
0.5
0.5
0.5
0.5
0.5
0.5
0.5
0.5
0.5
0.5
0.5
0.5
0.5
0.5
0.5
0.5
0.5
0.5
0.5
0.5
0.5
0.5
0.5
0.500001
0.500004
0.500013
0.500039
0.50012
0.50037
0.501142
0.503502
0.510548
0.529803
0.562841
0.585237
0.596284
0.601296
0.603514
0.604484
0.60491
0.605103
0.605168
0.605194
0.605205
0.605212
0.605218
0.605217
0.605214
0.605214
0.605212
0.605216
0.605219
0.605221
0.605219
0.60522
0.605219
0.605218
0.605217
0.605214
0.605213
0.605212
0.605216
0.605217
0.605219
0.60522
0.605219
0.605219
0.60522
0.605219
0.605217
0.605214
0.605211
0.605209
0.605211
0.605212
0.605214
0.605215
0.605216
0.605217
0.605217
0.605218
0.605217
0.605216
0.605214
0.605213
0.605213
0.605212
0.605213
0.605214
0.605216
0.605216
0.605217
0.605215
0.605214
0.605213
0.605212
0.605212
0.605212
0.605212
0.605212
0.605214
0.605217
0.605219
0.605222
0.605223
0.605222
0.605222
0.605222
0.605221
0.605222
0.605222
0.605221
0.605221
0.605221
0.605222
0.605224
0.605224
0.605224
0.605223
0.605223
0.605221
0.60522
0.605221
0.60522
0.605222
0.605222
0.605223
0.605224
0.605225
0.605225
0.605225
0.605224
0.605223
0.605221
0.605219
0.605217
0.605216
0.605215
0.605215
0.605215
0.605216
0.605215
0.605215
0.605215
0.605215
0.605214
0.605214
0.605212
0.605213
0.605212
0.605212
0.605212
0.605213
0.605212
0.605211
0.605209
0.605206
0.605202
0.6052
0.605197
0.605195
0.605193
0.605192
0.605192
0.605192
0.605193
0.605193
0.605194
0.605195
0.605196
0.605197
0.605198
0.605199
0.605199
0.605199
0.6052
0.6052
0.605201
0.605201
0.605201
0.605201
0.605201
0.6052
0.6052
0.605199
0.6052
0.6052
0.605202
0.605202
0.605203
0.605204
0.605204
0.605205
0.605205
0.605203
0.605201
0.605197
0.605193
0.605189
0.605186
0.605184
0.605184
0.605184
0.605184
0.605185
0.605186
0.605187
0.605189
0.605191
0.605193
0.605195
0.605196
0.605198
0.605199
0.605201
0.605202
0.605203
0.605204
0.605204
0.605205
0.605206
0.605206
0.605206
0.605207
0.605208
0.60521
0.605213
0.605215
0.605217
0.605219
0.605221
0.605223
0.605225
0.605225
0.605226
0.605226
0.605227
0.605227
0.605227
0.605228
0.605228
0.605227
0.605225
0.605222
0.60522
0.605217
0.605216
0.605214
0.605213
0.605212
0.605212
0.605213
0.605214
0.605216
0.605217
0.605218
0.605217
0.605216
0.605215
0.605214
0.605214
0.605214
0.605213
0.605217
0.605219
0.605218
0.605245
0.605209
0.605266
0.605238
0.605306
0.605348
0.605438
0.6055
0.605579
0.605544
0.605716
0.605493
0.605896
0.605313
0.605867
0.605205
0.605828
0.605285
0.605921
0.605498
0.605963
0.605695
0.605972
0.605787
0.606311
0.606329
0.607339
0.607939
0.61006
0.612437
0.619292
0.628019
0.637475
0.643029
0.64796
0.649826
0.652064
0.653761
0.654502
0.654575
0.655005
0.655453
0.655564
0.655496
0.655531
0.655613
0.655649
0.65565
0.655665
0.655699
0.655719
0.655712
0.655695
0.655669
0.655663
0.655652
0.655666
0.655682
0.655706
0.65573
0.655756
0.65577
0.655788
0.655807
0.655828
0.655846
0.655873
0.655892
0.655913
0.65594
0.655973
0.656009
0.656053
0.656102
0.656165
0.656233
0.656312
0.656405
0.656522
0.656678
0.656872
0.657031
0.657144
0.65721
0.657235
0.657248
0.657208
0.657064
0.656737
0.65611
0.655046
0.653333
0.650724
0.646943
0.641732
0.634844
0.626567
0.619087
0.612822
0.607678
0.603544
0.600294
0.597782
0.59587
0.594441
0.59339
0.592635
0.592099
0.591721
0.591466
0.591296
0.59119
0.591128
0.591099
0.591084
0.591076
0.59108
0.591103
0.591155
0.59124
0.591335
0.591415
0.591488
0.59156
0.591632
0.591698
0.591744
0.591779
0.591815
0.591851
0.591879
0.591891
0.591893
0.591878
0.591859
0.591828
0.59177
0.591713
0.591694
0.591629
0.591545
0.591444
0.591337
0.591247
0.591223
0.591161
0.590927
0.590695
0.590502
0.590535
0.590967
0.591233
0.591223
0.589707
0.587731
0.587159
0.585033
0.576031
0.568218
0.563591
0.561249
0.55851
0.557082
0.557045
0.557112
0.556863
0.556751
0.556471
0.55627
0.556132
0.555938
0.555867
0.555463
0.555909
0.556545
0.556824
0.557441
0.553298
0.550699
0.559786
0.550502
0.558107
0.55198
0.558373
0.553328
0.557409
0.554377
0.556343
0.554968
0.555736
0.555251
0.555564
0.555385
0.555507
0.555448
0.555502
0.555492
0.555519
0.555519
0.555531
0.555524
0.555528
0.555522
0.555517
0.555512
0.555503
0.555497
0.555493
0.555492
0.555493
0.555494
0.555495
0.555499
0.555501
0.5555
0.555502
0.555498
0.5555
0.555494
0.55549
0.555486
0.555487
0.555483
0.55549
0.555486
0.555498
0.555494
0.555506
0.555514
0.555521
0.555522
0.555526
0.555519
0.555524
0.555512
0.555513
0.555502
0.555493
0.555488
0.555488
0.555486
0.555491
0.555489
0.555497
0.555497
0.555505
0.55551
0.555512
0.555511
0.555512
0.555509
0.555509
0.555507
0.555506
0.555505
0.555508
0.555508
0.55551
0.555512
0.555513
0.555512
0.555513
0.555509
0.55551
0.555506
0.555506
0.555503
0.5555
0.555499
0.555499
0.555499
0.555498
0.555499
0.555497
0.555498
0.555497
0.5555
0.5555
0.555504
0.555505
0.55551
0.555513
0.555517
0.555518
0.55552
0.555517
0.555518
0.555513
0.555514
0.555508
0.555508
0.555503
0.555499
0.555497
0.555496
0.555495
0.555496
0.555494
0.555497
0.555495
0.555498
0.555501
0.555503
0.555505
0.555507
0.555506
0.555507
0.555505
0.555505
0.555502
0.5555
0.555497
0.555497
0.555496
0.555498
0.555498
0.555502
0.555502
0.555504
0.555505
0.555505
0.555505
0.555504
0.555503
0.555502
0.555501
0.555501
0.5555
0.555501
0.555501
0.555501
0.555501
0.555501
0.555501
0.555499
0.5555
0.555498
0.555502
0.555502
0.555506
0.555509
0.555516
0.555519
0.555526
0.55553
0.555535
0.555537
0.555538
0.555538
0.555538
0.555539
0.555539
0.555541
0.555543
0.555543
0.555544
0.555544
0.555544
0.555544
0.555543
0.555544
0.555545
0.555545
0.555545
0.555547
0.555548
0.555549
0.555549
0.555549
0.555548
0.555548
0.555545
0.555544
0.555541
0.555542
0.555542
0.555546
0.555545
0.555554
0.555546
0.555548
0.555527
0.555603
0.555468
0.555617
0.555452
0.556079
0.553977
0.557652
0.552785
0.560607
0.538062
0.576595
0.510219
0.517552
0.455123
0.442153
0.440075
0.439847
0.439819
0.439815
0.439815
0.439815
0.439815
0.439815
0.439815
0.439815
0.439815
0.439815
0.439815
0.439815
0.439815
0.439815
0.439815
0.439815
0.439815
0.439815
0.439815
0.439815
0.439815
0.439815
0.439815
0.439815
0.439815
0.439815
0.439815
0.439815
0.439815
0.439815
0.439815
0.439815
0.439815
0.439815
0.439815
0.439815
0.439815
0.439815
0.439815
0.439815
0.439815
0.439815
0.439815
0.439815
0.439815
0.439815
0.439815
0.439815
0.439815
0.439815
0.439815
0.439815
0.439815
0.439815
0.439815
0.439815
0.439815
0.439815
0.439815
0.439815
0.439815
0.439815
0.439815
0.439815
0.439815
0.439815
0.439815
0.439815
0.439815
0.439815
0.439815
0.439815
0.439815
0.439815
0.439815
0.439815
0.439815
0.439815
0.439815
0.439815
0.439815
0.439815
0.439815
0.439815
0.439815
0.439815
0.439815
0.439815
0.439815
0.439815
0.439815
0.439815
0.439815
0.439815
0.439815
0.439815
0.439815
0.439815
0.439815
0.439815
0.439815
0.439815
0.439815
0.439815
0.439815
0.439815
0.439815
0.439815
0.439815
0.439815
0.439815
0.439815
0.439815
0.439815
0.439815
0.439815
0.439815
0.439815
0.439815
0.439815
0.439815
0.439815
0.439815
0.439815
0.439815
0.439815
0.439815
0.439815
0.439815
0.439815
0.439815
0.439815
0.439815
0.439815
0.439815
0.439815
0.439815
0.439815
0.439815
0.439815
0.439815
0.439815
0.439815
0.439815
0.439815
0.439815
0.439815
0.439815
0.439815
0.439815
0.439815
0.439815
0.439815
0.439815
0.439815
0.439815
0.439815
0.439815
0.439815
0.439815
0.439815
0.439815
0.439815
0.439815
0.439815
0.439815
0.439815
0.439815
0.439815
0.439815
0.439815
0.439815
0.439815
0.439815
0.439815
0.439815
0.439815
0.439815
0.439815
0.439815
0.439815
0.439815
0.439815
0.439815
0.439815
0.439815
0.439815
0.439815
0.439815
0.439815
0.439815
0.439815
0.439815
0.439815
0.439815
0.439815
0.439815
0.439815
0.439815
0.439815
0.439815
0.439815
0.439815
0.439815
0.439815
0.439815
0.439815
0.439815
0.439815
0.439815
0.439815
0.439815
0.439815
0.439815
0.439815
0.439815
0.439815
0.439815
0.439815
0.439815
0.439815
0.439815
0.439815
0.439815
0.439815
0.439815
0.439815
0.439815
0.439815
0.439815
0.439815
0.439815
0.439815
0.439815
0.439815
0.439815
0.439815
0.439815
0.439815
0.439815
0.439815
0.439815
0.439815
0.439815
0.439815
0.439815
0.439815
0.439815
0.439815
0.439815
0.439815
0.439815
0.439815
0.439815
0.439815
0.439815
0.439815
0.439815
0.439815
0.439815
0.439815
0.439815
0.439815
0.439815
0.439815
0.439815
0.439815
0.439815
0.439815
0.439815
0.439815
0.439815
0.439815
0.439815
0.439815
0.439815
0.439815
0.439815
0.439815
0.439815
0.439815
0.439815
0.439815
0.439815
0.439815
0.439815
0.439815
0.439815
0.439815
0.439815
0.439815
0.439815
0.439815
0.439815
0.439815
0.439815
0.439815
0.439815
0.439815
0.439815
0.439815
0.439815
0.439815
0.439815
0.439815
0.439815
0.439815
0.439815
0.439815
0.439815
0.439815
0.439815
0.439815
0.439815
0.439815
0.439815
0.439815
0.439815
0.439815
0.439815
0.439815
)
;

boundaryField
{
    front-back
    {
        type            empty;
    }
    inlet-outlet
    {
        type            zeroGradient;
    }
    top-down
    {
        type            empty;
    }
}


// ************************************************************************* //
