/*--------------------------------*- C++ -*----------------------------------*\
| =========                 |                                                 |
| \\      /  F ield         | OpenFOAM: The Open Source CFD Toolbox           |
|  \\    /   O peration     | Version:  2.2.x                                 |
|   \\  /    A nd           | Web:      www.OpenFOAM.org                      |
|    \\/     M anipulation  |                                                 |
\*---------------------------------------------------------------------------*/
FoamFile
{
    version     2.0;
    format      ascii;
    class       volScalarField;
    location    "1.1";
    object      Bz;
}
// * * * * * * * * * * * * * * * * * * * * * * * * * * * * * * * * * * * * * //

dimensions      [1 0 -2 0 0 -1 0];

internalField   nonuniform List<scalar> 
14161
(
-1.33828e-15
-1.66441e-15
-1.1887e-15
-1.96698e-15
-2.3157e-15
-2.78364e-15
4.56056e-16
-2.94083e-15
-2.40204e-15
-3.26792e-16
4.66338e-15
-8.07826e-15
-5.25697e-15
-2.14354e-15
1.02034e-14
-7.87133e-15
-9.83288e-15
-1.49547e-14
3.26173e-14
-1.57957e-13
2.93233e-13
-4.45502e-13
4.33575e-13
-4.35046e-13
4.6101e-13
-4.06413e-13
-4.66957e-13
9.89838e-13
-1.26724e-13
-2.59149e-12
6.59713e-12
-8.58618e-12
1.25636e-11
-9.51785e-12
2.09873e-11
-1.05118e-10
3.28756e-10
-1.34434e-09
2.64033e-09
-8.32908e-09
1.33959e-08
-1.67307e-08
6.83174e-08
-6.64007e-07
6.4284e-07
9.42513e-07
1.6958e-05
2.49694e-05
-0.000104353
0.000658162
-0.000188671
-0.00175617
0.000566187
0.00288221
-0.000645808
-0.00348715
3.44466e-05
0.00329459
0.000852897
-0.00315907
-0.000610098
0.00264875
0.00115919
-0.00198442
-0.00211079
-6.9685e-05
0.00199481
0.00186791
0.000275791
-0.00141063
-0.00156153
-0.000453022
0.000691496
0.000828673
0.000373148
-0.000452228
-0.000637211
-0.00031411
0.000201214
0.000432192
0.000337207
0.000105219
-9.80193e-05
-0.000119951
-6.62002e-05
0.000123621
-4.42899e-06
3.11935e-06
-0.000177072
-7.73897e-06
7.97928e-05
-9.02995e-05
8.8038e-06
7.92432e-05
4.06665e-05
-1.55636e-05
-1.97573e-05
4.55131e-05
-8.32374e-05
-0.000138948
2.58324e-05
0.00014049
-2.02186e-06
-0.000135497
-2.09036e-05
5.52722e-05
1.41918e-05
-1.05094e-05
-1.72574e-05
-8.87348e-06
1.96312e-06
2.77382e-06
2.78717e-05
9.74874e-06
-1.75626e-05
-2.92151e-06
-1.47979e-06
-1.33464e-05
-9.44581e-06
-2.43518e-15
-2.4607e-15
-2.34503e-15
-2.54068e-15
-2.40195e-15
-2.70357e-15
-2.02646e-15
-2.70759e-15
-2.48163e-15
-2.02071e-15
-1.45199e-15
-3.71599e-15
-2.07652e-15
-3.73953e-15
2.98142e-15
-9.03653e-15
3.99246e-15
-1.60457e-14
1.25339e-14
-1.52864e-14
-2.78e-16
1.26331e-14
-4.19645e-14
3.55991e-14
-6.74594e-14
7.32028e-14
-4.22308e-14
-4.68899e-14
9.89934e-14
-8.01241e-14
6.05145e-14
-1.84932e-13
1.31682e-12
-4.18077e-12
7.55358e-12
-2.59914e-11
6.3127e-11
-9.15799e-11
-1.02876e-10
1.54922e-09
-8.94916e-09
4.26547e-08
-3.41916e-08
1.13717e-06
-5.79638e-07
-7.36517e-07
8.34602e-06
1.48332e-05
-3.03303e-05
0.000198298
6.86166e-05
-0.000806118
-8.58177e-05
0.00158447
0.000509379
-0.00213326
-0.00103919
0.00197079
0.000967101
-0.00162005
0.000379635
0.00146668
-0.00126029
-0.0021389
-0.000132879
0.00168051
0.00164884
0.000702808
-0.00104474
-0.00151585
-0.00102422
0.000274568
0.00121504
0.00109129
-0.000157434
-0.00130657
-0.000529999
0.000611803
0.000851281
0.000176467
-0.000350741
-0.000328788
0.000119866
8.7161e-05
1.37971e-05
9.49364e-05
-0.000262373
-9.17893e-06
-4.47977e-05
1.92469e-06
4.64845e-05
1.07143e-05
-2.46651e-05
3.60144e-05
4.23262e-05
4.2423e-05
1.54856e-05
-2.78574e-05
5.36439e-06
1.28553e-05
-5.70436e-05
-1.2069e-05
1.55327e-05
2.75488e-05
7.61686e-05
1.62606e-05
-3.26756e-05
-2.16912e-05
1.05443e-05
3.39043e-05
4.49064e-05
1.30162e-05
-9.7556e-06
-3.74923e-06
-4.19471e-06
1.04194e-05
1.13747e-05
-1.72932e-06
-1.63998e-06
3.2477e-15
3.80884e-15
3.87115e-15
3.94736e-15
1.85286e-15
3.14367e-15
-9.95466e-17
4.69044e-15
-4.1837e-15
8.24355e-15
-2.83646e-15
2.61761e-15
2.9591e-15
-5.66259e-15
8.36451e-15
2.55149e-15
-1.80677e-14
3.16532e-14
-3.29815e-14
6.40969e-14
-7.3627e-14
9.7489e-14
-8.63757e-14
8.26215e-14
-5.16079e-14
2.38964e-14
4.25901e-14
-1.09208e-13
2.01626e-13
-2.5504e-13
3.12062e-14
1.24861e-12
-3.63996e-12
3.39969e-12
-8.02307e-12
3.05316e-11
-9.6794e-11
2.7259e-10
-5.47185e-10
9.30203e-10
-7.58586e-10
6.36554e-10
2.71989e-10
6.10476e-08
4.69606e-07
1.81256e-06
6.79131e-06
6.88537e-06
1.30613e-05
-7.10218e-05
0.000139283
0.000362609
-0.00065681
-0.000596525
0.00115051
0.000964525
-0.00119786
-0.00149938
0.00113489
0.0017028
-0.00174564
-0.00149751
0.00160256
0.00182478
-0.000651294
-0.00183294
-0.00103449
0.000758285
0.00143879
0.00098062
-0.000339948
-0.000967968
-0.00108113
0.000248127
0.0010989
0.000582903
-0.000296891
-0.00061562
-0.000301857
0.000127356
0.000267609
-1.63923e-05
-0.000504548
0.000667437
0.000140321
-0.000561291
-0.000164799
0.000163426
9.22341e-05
-0.00010561
3.87167e-05
1.54155e-06
-7.26189e-05
8.88246e-05
2.44311e-05
-2.18261e-05
2.48301e-05
5.41032e-05
-1.57172e-07
-4.26014e-05
-3.07575e-05
-2.46777e-05
-1.73779e-07
2.32936e-05
3.31774e-05
3.36297e-05
1.83831e-05
2.13642e-06
-7.753e-06
-8.59535e-06
1.45042e-05
3.20463e-05
2.59115e-05
-9.92319e-07
-1.44915e-05
-1.00287e-05
-1.49474e-05
-1.31488e-05
-1.92234e-06
6.54534e-16
5.42417e-16
7.232e-16
3.21498e-16
7.23882e-16
1.6915e-16
7.71306e-16
3.48582e-16
1.50254e-16
8.95318e-16
-2.13856e-17
1.19087e-15
-1.992e-16
1.71655e-16
1.85941e-15
-5.1266e-16
1.41042e-15
-3.35901e-16
2.99796e-15
-1.17949e-14
3.42198e-14
-6.66775e-14
7.37073e-14
-1.50501e-14
-1.98942e-13
5.81986e-13
-8.28066e-13
7.46329e-13
-8.76995e-13
7.43045e-13
1.0502e-12
-2.22339e-12
2.72959e-12
-1.37172e-12
1.68637e-12
-8.09789e-13
-5.97346e-12
9.47214e-12
-2.19308e-11
-3.95238e-11
-1.14965e-10
1.16114e-09
-8.1664e-09
1.34047e-08
1.56981e-07
1.44782e-06
6.29569e-06
5.63289e-06
-2.36946e-06
1.36466e-05
3.00746e-05
4.831e-06
-3.15356e-05
-6.67612e-05
-3.18762e-06
0.000110696
8.6303e-05
4.23404e-05
0.000132056
-0.00100527
0.000117226
0.00225194
-0.000103717
-0.0025919
-0.00120513
0.00172176
0.00180025
9.77243e-05
-0.00140709
-0.00116814
0.000157659
0.00118192
0.000995195
-0.000368951
-0.00096951
-0.00022829
0.000354895
0.000389448
8.1529e-05
-8.6222e-05
-0.000218316
-0.000439994
0.00111201
0.000181478
-0.00132337
-0.000304729
0.000639987
9.47922e-05
-2.01876e-05
-4.4475e-05
0.000226763
-0.000284815
0.000144725
4.84031e-05
-0.000132194
-4.37923e-05
9.51216e-05
9.89782e-05
3.68566e-05
-4.21727e-05
-5.15114e-05
-6.85556e-05
-1.86125e-05
5.68592e-05
2.5094e-05
-3.14845e-05
-3.84113e-05
-9.76389e-06
1.82995e-05
2.52435e-05
7.89849e-06
-3.06586e-07
1.07657e-05
6.65938e-06
1.24395e-05
3.70919e-05
1.78655e-05
-2.21474e-06
2.14622e-06
6.72466e-16
9.00334e-16
4.71128e-16
1.3577e-15
-4.12456e-16
1.53231e-15
-1.77783e-15
2.89577e-15
-4.1918e-15
5.43794e-15
-6.15724e-15
6.32174e-15
-5.14079e-15
3.47105e-15
-3.67479e-15
8.46702e-15
-4.30275e-15
-1.03993e-14
7.69455e-14
-2.04736e-13
3.41068e-13
-4.72549e-13
5.6713e-13
-5.51161e-13
5.31705e-13
-4.33649e-13
2.28596e-13
-2.34005e-14
6.49173e-14
-2.71e-14
-1.14214e-13
3.12595e-13
-2.16091e-13
-9.56222e-13
3.12028e-12
-6.86388e-12
8.98284e-12
-5.53228e-12
-4.41957e-11
5.61761e-11
3.77388e-11
-1.34351e-10
8.79588e-10
3.29297e-09
1.38203e-07
1.55954e-06
1.18655e-05
2.89726e-05
2.02378e-05
-0.000123125
0.000205796
0.000240737
-0.000312363
-0.000687574
0.000244275
0.000765786
0.000181291
-0.000336479
0.000101922
-1.37259e-05
-0.00180343
0.000232753
0.00352328
0.00068114
-0.00327121
-0.00249283
0.000956555
0.00202225
0.00140076
-0.000681141
-0.00143991
-0.000352803
0.000816491
0.00080346
-5.23818e-05
-0.000449474
-0.000220974
-6.69743e-05
0.000193578
-2.03517e-05
-0.00117021
0.00245339
0.000714695
-0.00306268
-0.000632347
0.00176322
0.00100658
-0.000422593
-0.0004926
0.000118929
-0.000106238
0.000224367
-0.000260616
-0.000210653
0.000552198
-9.4947e-05
-0.00026616
3.86613e-05
0.000128651
0.000105322
4.31525e-05
-2.31745e-05
-0.000101888
-6.81572e-05
1.07294e-05
3.32025e-05
1.93486e-05
1.02824e-05
1.68893e-05
3.28029e-05
2.0805e-05
-1.30815e-05
8.94579e-06
4.07512e-06
-1.29524e-05
9.83116e-06
4.1293e-06
4.73561e-07
3.9279e-06
-5.89162e-16
-4.3342e-16
-7.0392e-16
2.87813e-17
-1.20552e-15
5.64282e-16
-2.94048e-15
8.54703e-16
-3.70332e-15
-6.34293e-17
-5.91163e-16
-2.29591e-15
-1.47132e-15
2.5785e-15
-3.34357e-15
2.87188e-15
-5.55906e-16
-4.08983e-15
7.54333e-15
-3.1602e-15
-1.44559e-15
7.58767e-15
-1.57479e-14
1.43428e-14
-5.67951e-15
-3.01454e-15
3.44172e-14
-1.39101e-13
2.42393e-13
3.76912e-14
-1.45556e-12
3.44696e-12
-1.19079e-12
-1.09448e-11
1.64569e-11
-5.88919e-12
1.62621e-12
3.33844e-12
-9.35057e-12
3.75505e-11
-5.96057e-11
2.44562e-10
-1.10653e-09
5.60354e-09
1.15811e-07
1.57664e-06
1.04976e-05
6.55859e-05
0.0001452
-0.00039979
-0.00018348
0.000699299
9.2599e-05
-0.00114701
3.78064e-06
0.00147199
6.43181e-05
-0.000854308
0.000270967
0.000566994
-0.00224124
-0.00176711
0.00362379
0.00391165
-0.00161888
-0.00409979
-0.0023651
0.00145106
0.00252308
0.00194932
-0.000496818
-0.00157816
-0.00113601
0.000303082
0.000906084
0.000164969
-0.000280036
-0.000192164
2.54521e-05
-0.00121787
0.00411632
0.000203117
-0.007524
-1.9534e-05
0.00526928
0.00139724
-0.00158283
-0.00151351
-0.00037109
0.000446276
8.6146e-05
1.50093e-05
-0.000290709
0.000707598
-0.000680497
-4.76211e-05
0.000614226
-0.000106448
-0.000173172
-0.000115684
-9.34822e-06
9.00957e-05
0.000173316
2.66107e-05
-0.000154647
-0.000111199
-2.54969e-07
5.08896e-05
2.93072e-05
4.46547e-06
1.17599e-05
2.022e-05
4.36333e-05
2.65926e-05
-6.41697e-06
-7.316e-06
-7.2461e-06
-1.52336e-06
3.78156e-06
7.98206e-16
1.24646e-15
3.34068e-16
2.44045e-15
3.02757e-16
2.91531e-15
9.15653e-16
1.58192e-15
4.68665e-15
-3.40525e-15
9.31037e-15
-7.48399e-15
1.20487e-14
-1.6562e-14
2.9788e-14
-5.00642e-14
1.16604e-13
-2.02249e-13
2.80961e-13
-3.85953e-13
4.43234e-13
-4.44122e-13
4.01242e-13
-3.12815e-13
2.11359e-13
-1.05597e-13
3.59782e-14
-5.01657e-14
1.03422e-15
3.689e-14
1.35235e-13
-2.40834e-13
4.15912e-13
9.15678e-14
-7.98315e-13
2.08605e-12
-2.11423e-12
1.27373e-12
7.39396e-12
-1.34149e-11
4.97451e-13
-5.09309e-11
-1.37216e-10
8.37698e-10
5.80136e-08
1.81383e-07
3.46086e-06
-8.86178e-06
3.38005e-05
9.26735e-05
-0.000288246
-0.000188964
0.000863104
9.07509e-05
-0.000932342
-5.10415e-05
-0.000408499
-0.0006873
0.00296452
0.00307194
-0.00394799
-0.00627706
0.00106931
0.00732051
0.00383744
-0.00400786
-0.00506896
-0.00220726
0.00251415
0.0032795
0.00203641
-0.00141934
-0.00236305
-0.00101055
0.00119418
0.000846098
2.51968e-05
-0.000279065
-0.00106153
0.00200434
0.00190843
-0.00818781
-0.000114533
0.00757097
0.00163058
-0.00225874
-0.00272458
-0.00106272
0.000712898
0.00125119
0.000279917
-0.000202754
-4.13596e-05
5.17664e-05
-0.000147216
0.000439662
-0.000433871
-0.000378078
5.13117e-05
0.000156702
0.00013159
-5.64619e-05
-0.000180343
-3.54492e-05
0.00011534
5.30714e-05
-7.27632e-05
-7.40238e-05
-1.23678e-05
1.77376e-05
3.06815e-06
-1.00425e-05
2.52229e-06
1.74865e-06
-4.61831e-06
-1.80077e-06
-8.67288e-06
-2.96239e-06
2.96735e-06
-1.76063e-15
-9.12566e-16
-2.59344e-15
6.75386e-16
-1.07207e-15
-1.86422e-15
9.97142e-15
-1.1413e-14
2.77802e-14
-3.19455e-14
5.34427e-14
-7.32437e-14
1.16472e-13
-1.99178e-13
2.67963e-13
-3.44688e-13
6.47694e-13
-1.00419e-12
1.41862e-12
-1.94708e-12
2.16285e-12
-2.10788e-12
1.87418e-12
-1.57731e-12
1.06388e-12
-7.21459e-13
3.55047e-13
-3.78332e-13
1.85907e-13
1.36105e-13
2.83109e-13
2.01295e-13
-6.77475e-13
2.85381e-12
-5.63638e-12
3.38697e-12
2.7112e-12
-1.49757e-11
2.37655e-11
-1.41423e-10
6.78809e-10
-1.52289e-09
4.03361e-09
-3.17321e-09
5.45465e-08
-5.32208e-07
-3.26432e-06
3.73268e-06
-1.03754e-05
7.67732e-05
8.08553e-05
-0.000333407
-0.000157007
0.000345262
9.78159e-05
0.000396819
0.000438591
-0.00211454
-0.00169621
0.00322279
0.00452919
-0.00439981
-0.00612741
0.0034203
0.00638865
0.000822987
-0.00407891
-0.00374057
0.000278137
0.00243449
0.002084
-0.000245756
-0.00218473
-0.00103652
0.000616112
0.00107273
0.000547746
-0.000481944
-0.000530963
0.00321662
-0.00564211
-0.00343824
0.0075707
0.00446762
-0.00303708
-0.00354427
-0.00253869
0.001216
0.00332296
0.00095236
-0.000891532
-0.000772941
-0.000106414
8.49335e-05
-0.000177945
0.000235644
2.61831e-05
-8.03312e-05
7.76757e-05
5.85379e-05
-0.000135465
-8.49592e-06
0.000196535
0.000136851
-4.44707e-06
-2.28854e-05
-6.29279e-06
-3.07864e-05
-3.78409e-05
-1.81642e-05
-2.60004e-05
-2.96041e-05
-3.15819e-05
-2.08313e-05
2.18542e-07
9.34415e-06
-4.70931e-06
-2.81154e-06
1.92727e-06
-5.45771e-15
-2.43975e-15
-9.49419e-15
7.11579e-15
-1.44094e-14
1.35176e-14
-1.71325e-14
1.18159e-14
-7.31003e-15
-1.114e-14
3.50172e-14
-8.7424e-14
1.57857e-13
-2.88093e-13
4.77691e-13
-7.75646e-13
1.61156e-12
-2.87312e-12
4.4705e-12
-6.76261e-12
8.67816e-12
-9.45705e-12
9.17052e-12
-8.13196e-12
6.16405e-12
-4.22632e-12
1.4488e-12
-4.02337e-13
-4.01592e-13
8.22607e-13
5.16335e-13
4.72068e-13
-2.32572e-13
-7.76138e-14
-4.34985e-13
-2.56722e-12
5.9398e-12
-1.14304e-11
3.90938e-11
-1.0498e-10
1.6768e-10
-1.41363e-10
-2.56426e-09
2.094e-08
-1.97792e-07
-1.20464e-06
-3.35526e-06
7.53245e-06
3.26959e-05
-9.29281e-05
-1.43225e-09
0.000232817
-6.10244e-05
3.61692e-05
-0.000378548
-0.000679683
0.000719435
0.00148563
-0.000473079
-0.00242066
0.0010237
0.00288245
-0.00373269
-0.00211444
0.00433039
0.00378949
-0.00216001
-0.0035434
-0.00195807
0.00154554
0.00246419
0.00080954
-0.000895617
-0.00117615
-0.000398179
0.000446372
0.000329029
-0.000473381
0.00149857
-0.000871808
-0.00439659
0.00297231
0.00643873
-0.000811052
-0.00537943
-0.00385705
0.00140057
0.00502611
0.00186485
-0.00207182
-0.00214626
-0.000616727
0.000406415
0.00059992
0.000264318
-0.000118778
-0.000345229
0.000161159
0.00011638
-0.000143276
0.000139815
5.56892e-05
-0.000179996
-4.57117e-05
4.42497e-05
-2.89785e-05
-5.58587e-05
-3.36692e-05
-1.33559e-05
1.88762e-05
1.38282e-05
2.70544e-06
-1.99998e-05
-2.47425e-05
-1.69166e-07
1.2862e-05
-1.58739e-06
-1.52373e-06
1.01696e-06
-2.8469e-15
1.24835e-15
-1.04683e-14
1.91354e-14
-2.85127e-14
4.70558e-14
-6.94179e-14
9.95755e-14
-1.36529e-13
1.80515e-13
-2.37802e-13
3.2624e-13
-4.60489e-13
6.2201e-13
-8.83027e-13
1.29432e-12
-1.87007e-12
2.69249e-12
-3.4156e-12
4.10654e-12
-4.62778e-12
4.55317e-12
-3.95885e-12
3.32449e-12
-2.51147e-12
1.69582e-12
-1.30874e-12
1.65429e-12
-1.50372e-12
1.90211e-13
1.22846e-12
-9.87675e-13
-1.8301e-12
3.27322e-12
-1.89963e-12
4.72432e-12
-4.28918e-13
-1.44856e-11
1.57192e-11
-1.95054e-11
1.98116e-11
8.64973e-11
-5.45684e-10
3.86717e-09
-6.17693e-09
-6.34947e-08
-3.30284e-06
-4.29034e-06
-2.11137e-05
7.23122e-06
1.88905e-05
0.000113048
-0.000206038
-0.000259846
0.000518067
0.00069456
-0.000701357
-0.0012927
0.000225714
0.00176361
-0.000191958
-0.00193664
0.00157375
0.000862804
-0.00284809
0.00071909
0.00216679
-0.000111574
-0.00112401
-0.000629027
0.000274769
0.000484005
0.000179311
-0.000200137
-0.000298915
0.000160594
-1.96868e-05
0.000102186
0.00155935
-0.00319523
-0.00137024
0.0045882
0.00280229
-0.00397186
-0.00535926
-0.000114219
0.00601314
0.00320442
-0.00228829
-0.00260697
-0.00107048
0.000520218
0.0012516
0.000754666
-0.0010807
9.80336e-05
0.000331301
-0.000134726
6.89919e-05
0.00011406
3.7522e-05
-3.48803e-05
-0.000131435
-3.4745e-05
4.67892e-05
1.83416e-06
-1.69221e-05
-8.90478e-06
-1.34571e-05
1.52585e-05
2.86869e-05
3.14506e-05
1.24635e-05
-1.33106e-05
-2.12351e-06
9.8781e-06
-6.40029e-07
-2.92577e-08
5.4536e-07
1.39451e-15
1.65647e-15
-6.01224e-16
5.85634e-15
-7.18612e-15
1.57492e-14
-2.24947e-14
4.11174e-14
-5.98445e-14
1.01409e-13
-1.51326e-13
2.15632e-13
-2.84933e-13
4.3677e-13
-7.02127e-13
1.08536e-12
-1.71275e-12
2.5819e-12
-3.39146e-12
4.32255e-12
-5.3874e-12
6.49847e-12
-7.15763e-12
7.94267e-12
-8.18178e-12
7.69003e-12
-7.32023e-12
8.02935e-12
-7.54286e-12
2.75225e-12
2.48782e-12
-2.20196e-12
-5.44894e-12
1.0591e-11
-9.52366e-12
2.9684e-11
-1.67934e-11
-3.25554e-11
-1.72149e-11
6.20073e-11
-2.38176e-12
-1.71942e-10
2.0209e-09
-1.85486e-09
-2.8647e-08
-6.40533e-08
-3.29608e-06
6.66506e-06
-7.33025e-06
-2.25567e-05
-3.07497e-05
0.00014523
0.000232009
-0.000418604
-0.000543536
0.000527598
0.00115715
-0.000599438
-0.00184864
0.000480568
0.00217952
-0.00121805
-0.00128484
0.00288742
-0.000283338
-0.00356434
-0.000719341
0.00276333
0.00226616
-0.000368879
-0.00180059
-0.00119119
0.000167207
0.000837547
0.000512549
0.000151421
-0.000938454
0.000257455
0.00117539
-0.00207486
0.000306843
0.00330852
-0.00017524
-0.00360999
-0.00268805
0.00245348
0.00631126
0.00141538
-0.00418256
-0.00331309
-0.00132471
0.00150924
0.00194829
-3.77229e-05
-0.00109599
0.000560953
0.000138751
-0.000232621
-3.72049e-05
3.33565e-06
-5.00101e-05
-1.94928e-05
-3.41127e-05
-3.32258e-05
5.27011e-07
1.55007e-05
1.38816e-05
-2.75474e-06
-1.93294e-05
6.67821e-06
2.41598e-05
3.20988e-05
3.29342e-05
2.22599e-06
-4.0465e-06
1.99088e-06
-2.06432e-06
1.50816e-06
4.65929e-07
2.02924e-15
-1.68156e-16
6.49042e-15
-1.08254e-14
1.42664e-14
-2.41129e-14
2.91494e-14
-4.25612e-14
4.90957e-14
-6.91265e-14
9.44125e-14
-1.55294e-13
2.13547e-13
-3.02275e-13
3.9928e-13
-5.10981e-13
6.89411e-13
-9.13779e-13
1.12112e-12
-1.35967e-12
1.52008e-12
-1.60362e-12
1.53048e-12
-1.5504e-12
1.92539e-12
-2.26025e-12
2.23834e-12
-1.07981e-13
-3.0987e-12
7.17723e-12
-1.81766e-11
1.87509e-11
-2.39853e-11
4.15809e-11
-4.87765e-11
5.8393e-11
-1.12277e-11
-1.62146e-11
-4.90114e-11
1.21997e-11
1.23238e-11
-4.98253e-11
-5.75325e-10
4.38091e-09
-7.56602e-08
5.19831e-07
-1.04748e-05
-4.57836e-06
4.0902e-05
-0.000144008
-9.28673e-05
0.00015194
0.000465269
-6.00397e-05
-0.000986634
-0.000285296
0.00142227
0.00122222
-0.00269861
-0.000610646
0.00315332
-0.00175336
-0.00349753
0.00522694
0.00333326
-0.00396506
-0.00497704
-0.000520391
0.00310798
0.00337347
0.00108253
-0.00203211
-0.00205205
-0.000832632
0.000858163
0.000931202
-0.00192637
0.00408237
0.000435148
-0.0054915
-0.000207481
0.00513154
0.000411068
-0.00316341
-0.00249731
0.00521311
0.00647468
-0.00446556
-0.00856331
-0.00136209
0.00370087
0.0033205
0.00108342
-0.00140621
-0.000715411
0.000444276
0.000137098
-0.00026289
-6.14036e-05
0.00014644
-7.65803e-05
-7.48817e-05
4.24593e-05
2.30633e-05
-1.73601e-05
-2.27632e-06
5.99209e-06
-9.88979e-06
-1.83779e-05
1.86272e-06
1.33794e-05
1.9418e-05
3.38836e-05
1.14517e-05
-4.10284e-06
-5.46663e-06
-4.59285e-06
2.54488e-06
6.55413e-07
-3.5921e-15
-5.64446e-16
-8.38988e-15
1.13283e-14
-1.64961e-14
2.63745e-14
-3.40082e-14
5.04027e-14
-6.17652e-14
8.28006e-14
-1.06168e-13
1.53505e-13
-2.28375e-13
3.38722e-13
-4.28469e-13
6.36551e-13
-9.80498e-13
1.23993e-12
-1.39074e-12
1.34975e-12
-9.86406e-13
3.26338e-13
3.89915e-13
-8.63348e-13
1.04919e-12
-7.98048e-13
3.38026e-13
-3.09491e-14
-5.95411e-14
9.15529e-14
-3.00138e-13
1.59515e-12
-1.83385e-12
-1.16811e-12
1.38291e-11
-4.35918e-11
5.8908e-11
-1.09684e-11
-7.15748e-12
-8.11696e-11
1.04567e-11
2.52985e-10
-1.75779e-09
1.14221e-08
-2.82184e-08
-3.21236e-07
2.24569e-06
-1.67672e-05
0.000140667
-0.0001329
-0.00029047
-0.000119963
0.000695607
0.00110678
-0.00190612
-0.00155411
0.00219791
0.00172525
-0.00157812
-0.00106476
0.0012811
-0.000181993
-0.00350333
0.00300485
0.00474857
-0.00164789
-0.00467576
-0.00257314
0.00177453
0.00298113
0.00216341
-0.000611087
-0.00160475
-0.00113526
8.42147e-05
-0.000278128
0.00251655
0.000989774
-0.00568747
-0.00220034
0.00678251
0.00460066
-0.00303496
-0.00717661
0.000873179
0.00578777
0.00178002
-0.0067643
-0.00462079
0.00243566
0.0047853
0.00233464
-0.000920669
-0.00235786
-0.000206408
0.000679268
-2.14532e-05
-0.000360739
0.000236459
6.38813e-05
-0.000167798
3.08029e-05
6.12243e-05
-2.90979e-05
-2.59527e-05
2.36841e-05
2.12676e-05
-1.19615e-05
-1.69187e-05
1.36101e-06
6.2196e-06
1.85639e-06
1.72836e-05
9.75132e-06
-3.42841e-06
-1.03321e-05
-6.3712e-06
3.07802e-06
9.78622e-07
1.92576e-15
-2.12061e-16
4.49866e-15
-6.45328e-15
9.04523e-15
-1.27445e-14
1.68914e-14
-2.35363e-14
2.70112e-14
-3.24566e-14
3.4879e-14
-4.57345e-14
4.97302e-14
-6.09661e-14
4.41428e-14
-4.62572e-14
5.51159e-14
-4.50873e-14
4.52875e-14
-3.33537e-14
1.52304e-15
2.6623e-14
-7.22008e-14
8.65019e-14
-1.91698e-14
-1.5025e-13
3.05149e-13
-4.13921e-13
3.23049e-13
-3.37151e-14
-2.61383e-13
1.07961e-12
-2.43799e-12
2.81522e-12
-1.61265e-12
1.93834e-12
-1.70517e-12
-1.04008e-11
1.32865e-11
4.10116e-11
-1.76929e-10
1.80092e-10
4.13242e-10
-8.29117e-09
1.16266e-07
-1.64623e-06
7.17225e-06
6.20416e-06
-4.24568e-05
0.000305847
-0.000109443
-0.000688839
-0.000174895
0.00119226
0.000573778
-0.00138139
-0.000306314
0.000627479
-0.000775271
4.30184e-06
0.00366552
-0.00157517
-0.00694294
0.00209852
0.00745841
0.00250128
-0.00466103
-0.00489528
-0.00193867
0.0029868
0.00375326
0.00128854
-0.00142157
-0.00196354
-0.000767232
0.00121751
-0.00060646
-0.000737372
0.000788589
0.00141636
0.00280981
-0.000905981
-0.00486212
-0.00252076
0.0046056
0.00438406
-0.00209603
-0.00576603
-0.00107028
0.00427618
0.00436855
-0.000423345
-0.00342973
-0.00122169
0.00138993
0.000606586
-0.000759634
0.00025212
0.000399727
-0.000283204
-0.000107496
0.000117545
2.99825e-05
-1.72274e-05
4.10059e-07
1.6341e-05
2.13011e-06
-1.89828e-05
-9.92043e-06
8.70424e-07
-3.60642e-06
-1.34468e-05
-1.5814e-06
4.12438e-06
-6.11028e-07
-1.04073e-05
-6.87872e-06
3.22633e-06
1.17883e-06
-3.04016e-16
8.31275e-16
-1.33498e-15
3.07902e-15
-2.16066e-15
3.72209e-15
-2.23726e-15
2.72635e-15
-2.04937e-16
-1.54523e-15
4.78039e-15
-8.46501e-15
1.6556e-14
-3.15711e-14
5.61255e-14
-9.89297e-14
1.38012e-13
-1.5455e-13
1.76723e-13
-2.14357e-13
2.97868e-13
-4.73093e-13
7.493e-13
-9.90716e-13
1.15141e-12
-1.23847e-12
1.1259e-12
-8.37287e-13
5.62036e-13
-1.23875e-13
-5.49582e-13
1.01749e-12
-1.28134e-12
1.64168e-12
-7.12879e-13
-5.79527e-12
1.2942e-11
1.36773e-12
-8.41366e-11
1.5843e-10
1.22025e-10
-7.82259e-10
9.41743e-10
2.5647e-10
-8.05817e-08
9.30333e-07
-3.04453e-06
3.30365e-06
-7.45686e-06
-0.000205294
0.000574462
0.000265955
-0.00151901
-4.21064e-05
0.0017942
8.54834e-05
-0.00114477
0.000404082
-0.000823793
-0.00181764
0.00464775
0.00218839
-0.00742118
-0.00295809
0.00611149
0.00530195
-0.0015235
-0.00403546
-0.00349753
0.00091708
0.00282057
0.00164103
-0.000411567
-0.00129101
-0.00010508
-0.00187475
0.00216867
0.00425837
-0.00322795
-0.00291538
0.00210732
0.000462318
-0.00263167
0.000131739
0.00398008
0.00153872
-0.00360046
-0.00388503
0.00224632
0.00522607
0.000138326
-0.00425902
-0.00151526
0.00172689
0.00110288
-0.00115035
0.000114401
0.000522567
-0.000358911
-0.000123172
0.000189124
8.0684e-05
2.37468e-05
1.04531e-05
-2.16761e-05
-7.4347e-06
3.05832e-06
-8.28059e-06
-1.6076e-08
3.63628e-07
-1.12457e-05
-2.23372e-05
-1.38584e-05
-4.00766e-07
5.19148e-06
-7.21598e-06
-5.95083e-06
2.89022e-06
1.33179e-06
-8.56422e-16
-1.06387e-15
-8.95801e-16
-7.74714e-16
-1.4898e-15
8.83938e-16
-3.43795e-15
3.1616e-15
-6.1979e-15
6.30586e-15
-1.01529e-14
1.15066e-14
-1.64126e-14
1.88728e-14
-2.24763e-14
1.65969e-14
2.10229e-14
-1.01386e-13
2.26442e-13
-4.35338e-13
6.71296e-13
-1.00511e-12
1.46579e-12
-1.86911e-12
2.16012e-12
-2.37819e-12
2.30048e-12
-1.97516e-12
1.7682e-12
-1.72133e-12
1.78725e-12
-1.67273e-12
1.1548e-12
-4.24965e-13
-4.81348e-13
-3.43344e-13
-1.77776e-12
7.39865e-12
8.77017e-12
-4.06876e-11
-3.74053e-12
8.36651e-11
-1.18094e-09
1.10542e-08
-1.35988e-07
9.79418e-07
5.21885e-07
-6.31527e-07
1.66515e-05
8.02899e-06
-0.000382167
0.00101895
-0.000657531
-0.00128449
0.00160017
0.000410575
-0.000963104
0.000357558
0.000682849
-0.00271977
0.000920993
0.00401463
-0.00274232
-0.00375475
0.00320279
0.00380486
-0.000710433
-0.00236492
-0.00173099
0.000317437
0.00145238
0.000874584
-0.000470635
-0.000721426
-0.00112303
0.0017844
0.00332163
-0.0038344
-0.00479078
0.00383207
0.00340888
-0.00205308
-0.00253403
0.00168389
0.00240774
-0.00123054
-0.00350474
0.000631832
0.00490232
5.10074e-05
-0.00457643
-0.000951607
0.00165565
0.000951423
-0.000860554
-0.000123731
0.000688409
-0.000504888
6.99507e-05
0.000393957
-2.46487e-05
-3.74981e-05
4.93107e-05
-1.5696e-05
-4.51075e-05
5.67579e-06
1.76473e-05
-1.3577e-06
2.71557e-06
-3.41517e-06
-1.73237e-05
-2.45239e-05
-1.83481e-05
-2.3042e-06
1.16443e-05
-1.03015e-06
-5.00091e-06
2.34789e-06
1.31163e-06
-6.72247e-16
-4.76521e-16
-4.57371e-16
-4.39743e-16
3.68075e-16
-1.12251e-15
1.80536e-15
-2.11857e-15
3.5213e-15
-2.47893e-15
2.10754e-15
8.22967e-16
-1.90618e-15
9.34808e-15
-2.09644e-14
4.59368e-14
-1.03459e-13
1.79799e-13
-2.8584e-13
4.59506e-13
-6.30148e-13
8.30699e-13
-1.08993e-12
1.24093e-12
-1.20446e-12
1.07045e-12
-7.97288e-13
4.58141e-13
-2.34988e-13
1.24758e-13
-1.68738e-13
4.27572e-13
-8.78126e-13
2.26255e-12
-4.01252e-12
3.66772e-12
2.67985e-12
-1.90714e-11
2.79383e-11
-1.30729e-11
-2.16124e-11
3.39788e-11
-5.21406e-10
2.08907e-09
-2.36841e-08
-7.61717e-08
-1.77903e-08
4.30853e-07
-5.35131e-06
3.59554e-05
-2.09277e-05
-0.000102386
0.000316746
-0.000383167
0.000477246
-3.14929e-05
-0.000725392
-0.000787044
0.00269998
-0.000232249
-0.0047337
0.00287232
0.00425438
-0.00228414
-0.00300808
-0.000692663
0.00139019
0.00139162
0.000166477
-0.000507658
-0.000204929
-0.000203561
-0.00018174
0.000440026
-0.000377696
0.0010109
-0.00140659
-0.00132787
0.0024057
0.00172678
-0.00220539
-0.00183204
0.00148556
0.00176709
-0.00082068
-0.00189972
0.000280734
0.00252607
-0.000149112
-0.00267674
-0.000504253
0.001034
0.000763046
-0.0001971
-0.000135563
0.000890084
-0.000505074
-1.77717e-05
0.000641065
-0.000190854
-0.000176132
0.000134736
5.48397e-05
-5.05308e-05
-1.86287e-05
3.3541e-05
1.98638e-05
-6.21854e-06
2.76457e-07
-6.42539e-06
-2.02786e-05
-2.36723e-05
-1.83095e-05
-3.57498e-06
1.59622e-05
4.16438e-06
-4.60859e-06
1.57599e-06
1.19715e-06
-2.06428e-16
8.39172e-18
-5.80444e-16
7.53506e-16
-1.24689e-15
1.22802e-15
-1.77477e-15
1.25163e-15
-1.10433e-15
-1.79503e-16
6.82097e-16
-1.4237e-15
1.76737e-15
-5.78759e-15
1.15738e-14
-2.7088e-14
5.56439e-14
-8.95898e-14
1.3512e-13
-1.95192e-13
2.56569e-13
-2.95112e-13
2.99892e-13
-2.18104e-13
4.30048e-14
2.15348e-13
-5.86242e-13
8.78242e-13
-9.92855e-13
9.17922e-13
-5.74562e-13
4.41806e-13
-9.99016e-13
2.04567e-12
-3.66009e-12
7.61993e-13
1.8778e-11
-3.89453e-11
4.04164e-11
-5.50572e-11
3.41812e-11
1.84078e-10
-1.58825e-09
3.43085e-08
-3.2293e-07
8.8926e-07
-5.83413e-07
2.11862e-07
-2.03036e-07
-6.54171e-06
9.64414e-06
-7.09501e-06
-2.78767e-05
0.000103369
-0.000161842
-0.000122268
0.000523067
-0.000246031
-0.000332187
0.000488392
0.000210136
-0.000592176
-0.000247432
0.000267727
0.000133477
0.000194288
-0.000447348
0.000291293
0.000561905
-0.00112165
0.000404452
-8.09244e-05
0.000610949
-0.00019992
0.000167755
0.000181419
-0.000533208
0.000553697
0.000313902
-0.000799987
-0.000335452
0.000679591
0.000506539
-0.000446685
-0.000523939
0.00022976
0.000706564
-0.000180353
-0.00117884
-0.000134615
0.000619064
0.000454725
8.50757e-05
1.60315e-05
0.000485786
-0.00027676
-0.000366156
0.000665242
-9.99134e-05
-0.000388171
0.000186771
0.000118621
-7.73339e-05
-5.2077e-05
2.30273e-05
4.14146e-05
3.34715e-06
-1.42539e-05
1.71564e-07
-7.53186e-06
-2.05683e-05
-1.98326e-05
-1.50206e-05
-3.73982e-06
1.6659e-05
7.18748e-06
-4.67344e-06
3.56778e-07
1.03923e-06
-3.94708e-16
-4.02628e-16
-3.92585e-16
-3.31771e-16
-1.53403e-16
-2.68959e-16
5.60254e-17
-1.08294e-16
-5.47869e-16
9.49238e-16
-1.83321e-15
2.23865e-15
-3.44037e-15
5.5807e-15
-9.11072e-15
1.53441e-14
-2.71997e-14
4.82457e-14
-6.92192e-14
9.25854e-14
-1.17589e-13
1.22733e-13
-1.07477e-13
7.02238e-14
-6.41659e-15
-6.84959e-14
1.40327e-13
-2.10299e-13
2.89887e-13
-3.89218e-13
4.80092e-13
-4.26452e-13
1.8232e-13
1.11195e-13
-5.21194e-13
-2.28156e-12
9.24899e-12
-1.59424e-11
3.4021e-11
-3.91542e-11
-2.66788e-11
1.91849e-10
-3.46932e-09
7.55536e-08
-3.98672e-07
7.16994e-07
-3.03234e-07
1.31583e-06
-3.68577e-06
4.3673e-06
-4.21564e-06
-1.95764e-06
3.88197e-05
-0.000166953
0.000441867
-0.00067084
0.000765448
-0.000846596
0.00116597
-0.000354827
-0.000280432
-0.000350752
-0.000878202
0.00260677
-0.003759
0.00038014
0.00351677
-0.00183775
-0.000745437
0.000816919
0.000253771
-0.000676028
7.69636e-05
-0.000433332
0.00011477
-0.000161261
2.37458e-05
0.000311672
-0.000286622
-0.000162109
0.000282199
0.000173503
-6.28144e-05
-2.56265e-05
0.000166263
0.000153678
-0.000229281
-0.000284544
-6.07943e-05
0.000448372
0.000266244
2.51863e-05
-0.000141001
-2.43364e-05
-0.000215218
-0.00055959
0.000236376
2.59601e-05
-0.000530131
9.59145e-05
0.000227044
-0.00011513
-6.74498e-05
2.81396e-05
5.65229e-05
3.18635e-05
-1.43322e-05
-1.42478e-05
4.49863e-06
-7.18523e-06
-1.96598e-05
-1.63083e-05
-1.20006e-05
-4.3349e-06
1.36853e-05
7.25276e-06
-5.34155e-06
-6.23759e-07
8.07009e-07
6.53623e-17
1.93801e-16
-2.07065e-16
7.53279e-16
-5.91373e-16
1.34956e-15
-9.27484e-16
1.5418e-15
-1.09941e-15
1.75364e-15
-1.60249e-15
1.99049e-15
-1.69517e-15
1.07763e-15
3.57974e-15
-1.26737e-14
2.63212e-14
-4.15164e-14
5.49382e-14
-6.66756e-14
7.32594e-14
-7.50859e-14
6.48919e-14
-5.3926e-14
3.31372e-14
-1.014e-14
-1.19436e-14
5.71056e-14
-6.47876e-14
4.38278e-14
1.26944e-14
-1.02155e-13
2.65352e-13
-2.71697e-13
-7.19954e-13
4.66253e-12
-9.22572e-12
7.31033e-12
4.46758e-12
-2.49732e-11
5.8206e-11
-4.38551e-10
3.94471e-09
-4.99674e-08
1.9746e-07
1.97041e-08
-4.78017e-09
2.15168e-07
-9.10429e-07
-9.09442e-07
5.28044e-06
-1.84517e-05
5.03191e-05
-0.000165822
0.000419289
-0.00111634
0.00154809
-0.00142055
-0.00160944
0.00401512
-0.00972136
0.00849388
0.00364426
-0.0081962
0.0024847
0.0030247
-0.00234245
-0.000650481
0.00140417
-7.32938e-05
-0.000332257
-3.61957e-06
0.000339871
-3.77779e-05
4.86356e-05
-4.69299e-05
0.000119375
0.00013223
-0.000192876
4.13618e-05
0.000125145
3.16179e-05
-2.17846e-05
7.69341e-05
-5.40649e-05
-5.12073e-05
-0.00014377
0.000187568
0.000148923
0.000160912
1.19085e-05
-0.000116313
-0.000143762
-0.000175017
-0.000357504
-0.000150397
2.34539e-05
-0.000255379
1.16947e-05
0.000300403
-7.90776e-05
-9.3992e-05
9.48052e-05
7.53395e-05
5.03033e-05
7.2675e-06
-2.37118e-05
-4.80069e-06
9.2163e-06
-6.45434e-06
-1.68552e-05
-1.1892e-05
-9.15731e-06
-5.08004e-06
8.55467e-06
5.827e-06
-6.08129e-06
-1.6778e-06
6.77664e-07
-6.20722e-16
-6.77871e-16
-5.59393e-16