/*--------------------------------*- C++ -*----------------------------------*\
| =========                 |                                                 |
| \\      /  F ield         | OpenFOAM: The Open Source CFD Toolbox           |
|  \\    /   O peration     | Version:  2.2.x                                 |
|   \\  /    A nd           | Web:      www.OpenFOAM.org                      |
|    \\/     M anipulation  |                                                 |
\*---------------------------------------------------------------------------*/
FoamFile
{
    version     2.0;
    format      ascii;
    class       volScalarField;
    location    "1.1";
    object      divBf;
}
// * * * * * * * * * * * * * * * * * * * * * * * * * * * * * * * * * * * * * //

dimensions      [1 -3 -2 0 0 -1 0];

internalField   nonuniform List<scalar> 
14161
(
1064.25
297.042
387.447
351.478
343.94
331.562
327.466
324.149
326.814
329.569
338.189
345.183
357.321
366.232
376.057
390.176
391.325
400.235
401.329
371.158
395.671
358.461
326.833
278.602
230.071
178.544
123.75
53.709
-0.708446
-79.9239
-142.508
-218.227
-255.534
-281.392
-291.934
-294.581
-275.82
-235.641
-178.706
24.318
155.386
196.124
110.516
272.839
-3079.52
-26193.3
-66603.1
-81362.2
-16660.6
-33216.8
-32320
-32719
-31790.8
-32745.1
-29154.1
-31016
-28573.4
-30164.4
-26766.7
-28017.5
-23868.4
-25011.3
-20427.1
-20718.6
-18948.6
-16532.1
-15796.6
-13862.4
-11767.8
-11044.7
-9454.93
-6887.69
-5765.84
-3998.6
-1922.83
-543.314
1562.5
3615.35
5933.99
8425.15
14076.2
20468.4
27445
23231.5
25521.9
30703.9
20166.9
19753.9
12915.4
10034.5
6390.75
4363.45
2239.52
2144.22
1442.41
2226.16
2130.3
2401.28
2437.58
1896.04
1624.07
826.794
445.038
-735.04
-1417.95
-2727.9
-3250.03
-4531.86
-5179.06
-6295.36
-6705.05
-7246.21
-6364.3
-7571.28
-2771.33
-7177.34
3211.61
-5303.57
9449.88
815.414
50.3255
140.778
103.978
94.5526
79.4256
71.495
63.655
60.5455
57.0834
57.9647
57.0838
59.2509
59.3544
59.1676
60.3305
47.4049
42.3712
37.171
-3.0567
-14.0733
-54.0029
-105.74
-158.115
-224.035
-298.164
-371.977
-463.22
-535.097
-637.143
-704.437
-785.986
-846.561
-903.099
-904.192
-906.11
-861.95
-780.936
-616.658
-479.48
-275.759
30.9962
-96.3263
992.516
-3164.92
-20872.9
-69251.5
-71657.9
-12921.6
-28889.7
-26643
-28654.2
-28976.2
-29872.2
-28418.2
-29532.5
-28489.3
-28622.5
-26528.5
-25634.6
-23155
-21239
-19802.2
-18501.6
-15452.4
-14831.8
-13022
-11278.2
-9667.53
-7543.5
-6534.55
-5252.44
-3147.5
-1394.55
-319.954
1912.03
3402.79
4917.43
6861.44
8936.32
11788.5
8778.4
15258.9
32338.8
30774.1
37185.7
26769.8
28084.8
18576.8
14030
8139.11
5314.5
3867.86
3170.81
2106.98
2276
2289.66
2277.89
2102.48
1767.03
1582.88
886.266
299.055
-759.338
-1333.81
-2411.4
-2973.18
-4065.83
-4619.39
-5373.09
-6064.34
-6686.68
-5689.54
-7054.91
-2170.78
-6697.53
3437.06
-5098.98
8684.02
569.366
-189.685
-98.5448
-134.605
-144.528
-160.932
-171.121
-181.96
-189.142
-197.146
-202.024
-208.994
-214.463
-221.575
-229.744
-244.355
-259.761
-276.869
-293.133
-342.384
-373.128
-421.883
-484.006
-543.773
-625.074
-712.199
-807.69
-902.434
-998.037
-1104.35
-1207.32
-1309.13
-1416.04
-1481.72
-1564.64
-1669.01
-1741.65
-1823.24
-1802.4
-1740.87
-1484.36
-988.2
-774.441
1713.24
-2936.54
-10119.4
-101246
-70396.1
-7541.12
-21143.6
-21867
-23878.2
-23649
-24732
-22842.4
-21971.3
-20920.3
-22095.7
-22242.3
-20703.3
-19911.2
-18385
-17993.5
-15503.4
-14040.5
-13058
-10715.5
-9017.47
-7993.76
-6157.68
-4646.19
-3142.28
-919.324
578.878
2248.57
3139.23
4810.55
7042.86
10260
13337.5
19948.5
28444.3
35470.5
38657.3
34012.9
34276
24817.7
28213.8
20322.9
18441.6
13401.4
10029.8
6261.61
3916.64
2481.42
2143.14
1989.41
1960.35
2178.83
1692.84
1616.97
864.348
431.741
-547.621
-1118.76
-2082.29
-2623.04
-3621.57
-4284.64
-5560.04
-5744.5
-6256.83
-5091.24
-6506.58
-1608.43
-6150.36
3486.92
-5057.95
7912.49
329.166
-422.118
-329.032
-363.045
-372.146
-388.497
-399.637
-411.981
-421.941
-432.619
-442.233
-452.772
-464.728
-477.507
-493.094
-511.164
-533.877
-568.213
-591.555
-637.039
-688.021
-736.425
-817.182
-889.031
-969.133
-1066.79
-1172.66
-1281.93
-1386.98
-1502.25
-1614.55
-1712.9
-1802.95
-1881.64
-1923.16
-1939.85
-1898.81
-1793.98
-1601.45
-1351.43
-1013.97
-357.013
723.651
1544.34
-1885.91
-22047.1
-164367
-38575.1
-9366.59
-16591.1
-17551
-18996.2
-19517
-20209.4
-21291.2
-23365.8
-22129.1
-22974.8
-20396.5
-18220.6
-17398.9
-15744.9
-13402.6
-12663.9
-10555.4
-8464.86
-6984.55
-6542.64
-4371.69
-3358.08
-2214.52
-712.286
229.343
1667.98
3607.78
5889.6
7344.93
8540.09
11439.5
17599
18193.4
28309.5
19860
27410.1
19405.8
26614.1
19563.1
28106.5
24643.5
30474.3
21564.2
15665
9765.18
6775.25
4425.71
3228.41
2849.06
2610.91
2193.63
1923.99
1498.64
1050.46
586.396
-183.183
-741.534
-1780.71
-2400.04
-3687.43
-4103.26
-4972.22
-5245.39
-5796.87
-4309.71
-5918.3
-859.644
-5590.11
3343.8
-4934.82
6734.55
94.8811
-645.526
-549.795
-580.601
-587.853
-603.037
-614.03
-626.785
-638.256
-650.644
-663.401
-676.931
-693.306
-710.022
-729.495
-757.143
-780.6
-822.021
-859.665
-903.58
-962.775
-1028.91
-1101.77
-1191.06
-1283.7
-1384.63
-1491.39
-1605.1
-1731.43
-1853.4
-1991.06
-2121.65
-2256.81
-2358.47
-2486.73
-2633.45
-2796.44
-2939.66
-3000.89
-3086.07
-2873.84
-2467.44
-2416.22
-703.101
-3794.91
-11608.7
-110665
-52667.3
-13724
-18221.5
-18458.8
-21152.9
-19890.5
-19835.5
-19070.9
-21570.1
-18117.8
-21761.6
-16825.9
-18942.4
-15595.8
-13765.7
-12179.3
-9541
-8813.31
-6850.15
-5183.13
-3276.76
-2591.16
-1175.72
257.99
1503.4
3087.46
4793.35
6299.95
8360.88
9648.77
11490.4
14011.3
22811.7
36742.6
36471.9
33415.3
26927.9
20932.2
28194.8
20899.1
30242.1
24436.1
30818.2
29320.2
26601.2
17659.6
11102.2
6332.56
3933.33
3162.86
3023.87
2656.89
2195.89
1998.66
1234.14
693.876
-52.1091
-650.001
-1557.5
-2033.25
-2807.08
-3419.19
-4320.53
-4505.93
-4992.28
-3608.06
-5178.09
-680.089
-5333.18
2924.22
-4836.93
5756.26
-130.863
-858.931
-759.629
-786.279
-790.746
-803.859
-813.76
-825.921
-837.991
-850.784
-865.9
-880.644
-900.086
-919.32
-945.952
-975.909
-1003.97
-1042.16
-1100.08
-1136.87
-1206.71
-1283.04
-1348.52
-1448.88
-1547.85
-1656.06
-1768.5
-1891.7
-2017.53
-2143.34
-2272.4
-2389.25
-2502.29
-2614.14
-2691.81
-2742.66
-2769.35
-2740.87
-2637.78
-2584.77
-2483.31
-2190.73
-1714.64
-2132.48
1877.75
-33874.9
-30890.8
-50879.8
-43098
-37056.1
-34244.9
-34137.4
-33277.7
-33195.2
-30129.9
-31664.6
-23823
-20438
-16099.4
-13794.2
-12766.6
-11211.2
-9880.17
-8174.19
-6930.57
-5798.4
-4234.94
-2990.3
-1895.28
-436.316
600.019
2013.99
3947.32
5846.31
7586.12
9475.5
10694.5
13169.7
13702.3
24012.5
36286.2
39254.8
28723
27914.8
21619.9
28577.9
21890.2
29783.9
25359.5
30225.1
28981.4
31085.1
26012.9
16647.8
9609.51
6393.43
4706.3
3965.55
3446.46
3046.22
2416.33
1839.05
1230.86
557.657
36.4173
-964.364
-1544.72
-2873.59
-2914.72
-4023
-3677.27
-4244.37
-3002.3
-4570.33
-478.689
-4885.79
2356.54
-4616.79
4780.46
-347.769
-1061.13
-957.83
-979.596
-980.585
-990.965
-999.001
-1009.98
-1021.66
-1034.58
-1050.51
-1066.8
-1088.16
-1109.92
-1136.4
-1172.79
-1201.71
-1249.72
-1308.88
-1343.32
-1419.29
-1510.62
-1574.2
-1678.82
-1781.42
-1893.35
-2012.26
-2138.04
-2269.6
-2402.47
-2550.55
-2705.63
-2861.29
-2991.39
-3142.69
-3306.42
-3496.82
-3696.13
-3962.48
-4219.53
-4581.31
-5016.9
-5386.44
-5831.97
-288.082
-9905.87
22659.3
-31594
-37548.1
-41158.1
-40837.6
-37635.5
-35082.9
-31395.7
-28761.8
-27539.4
-22936.9
-20401.1
-18331.7
-17261.3
-14350.9
-11963.2
-8215.39
-7118.12
-4530.55
-3762.59
-2004.45
-646.811
516.246
1877.95
2874.66
3809.52
5363.49
5006.55
7317.34
9683.47
12713.1
18947
27570.6
34389.3
32339.3
24158.2
23712.4
21369.3
18270.6
24816.1
20859.2
28372.1
24684.2
29045.5
28030.7
29870.7
30268.3
22146.8
13708.5
8468.26
6388.08
4885.7
4308.34
3786.51
3463.9
2442.01
1982.5
746.164
481.405
-821.654
-899.238
-1827.79
-2048.2
-2960.6
-2856.5
-3687.92
-2711.88
-3817.06
-599.929
-4558.23
1787.87
-4578.03
3808.82
-553.73
-1251.33
-1143.46
-1159.79
-1156.77
-1163.84
-1169.45
-1178.66
-1189.3
-1201.71
-1217.73
-1234.58
-1256.37
-1280.63
-1310.03
-1347.05
-1380.18
-1423.77
-1490.92
-1535.3
-1609.55
-1696.82
-1766.27
-1869.96
-1980.59
-2093.05
-2221.77
-2344.76
-2478.66
-2608.3
-2744.6
-2883.27
-3019.61
-3144.24
-3266.98
-3349.97
-3432.36
-3507.52
-3528.19
-3652.89
-3806.4
-3834.8
-4136.35
-3748.62
-542.483
8759.81
30959.3
-17590.7
-36568.6
-51209.9
-49672.7
-43887.1
-35800.6
-37001.3
-31005.7
-27022.5
-18525.7
-20825.1
-15623.6
-16431.4
-12644.3
-8914.35
-7604.54
-5737.95
-4182.59
-2633.35
-1705.62
-119.178
1503.09
2210.43
3439.57
4310.33
4561.48
7225
9870.57
13939.7
16584.7
27501.5
32664.5
34317
28589.4
18924.1
20491.1
19068.2
19279.7
23768.3
20222.9
26245.1
22968.1
27244.5
24561.7
28435.4
28617.9
29225.2
18972.9
12403.2
9498.17
8236.95
6941.51
6108.66
5261.33
3883.3
3434.26
2006.52
1467.68
265.012
-167.222
-1698.46
-1418.85
-2705.74
-2120.76
-3245.36
-2380
-3265.85
-903.635
-3903.01
1056.39
-4261.46
2865.15
-748.364
-1428.57
-1316.01
-1326.59
-1319.21
-1322.64
-1325.44
-1332.55
-1341.65
-1353.25
-1368.74
-1386.05
-1408.11
-1434.25
-1462.28
-1500.09
-1538.97
-1587.21
-1648.56
-1700.31
-1777.82
-1851.63
-1950.03
-2043.64
-2157.08
-2267.96
-2397.63
-2523.19
-2657.47
-2800.94
-2947.65
-3106.74
-3262.97
-3433.21
-3551.63
-3726.06
-3874.54
-4074.76
-4280.81
-4718.57
-5144.15
-5872.11
-5854.78
-5439.96
-2351.67
-11557.6
10065.7
-22595.4
-39166.2
-49545.3
-46512.8
-41507.1
-31948.6
-31009.9
-25795.3
-25073.6
-19084.1
-19862.2
-15345.3
-15457.4
-12109
-10263.8
-6724.13
-3945.58
-1709.82
565.077
2757.54
4606.2
3854.14
4726.67
6565.46
6742.48
8435.66
10592.5
12902.4
17337.2
18044.9
24451
26337.4
20572.6
22080.3
17533.5
19181.8
19555.6
19013.5
21862.4
21592.9
22900.2
20132.6
23851.2
21568
24915.4
24116.8
27518.7
21549.6
16580.7
13563.7
12114.9
11591.4
9313.91
7684.32
5493.8
4370.15
2438.12
2149.89
455.688
528.481
-636.346
-523.926
-1898.77
-1508.18
-2720.81
-2182.25
-2806.38
-1242.12
-3531.19
310.795
-4159.84
1945.16
-930.018
-1592.24
-1474.81
-1479.45
-1467.52
-1467.11
-1466.79
-1471.6
-1478.64
-1489.43
-1503.3
-1521.36
-1541.88
-1570.1
-1599.01
-1636.33
-1679.25
-1724.69
-1781.7
-1855.47
-1907.42
-1998.9
-2104.62
-2182.4
-2301.07
-2416.43
-2541.02
-2671.03
-2803.63
-2945.85
-3085.68
-3221.47
-3357.14
-3492.84
-3621.92
-3740.21
-3838.11
-3909.44
-3951.63
-3950.25
-3900.79
-4015.5
-3949.59
-2938.07
-6153.52
-9407.36
-73081.7
-68293.3
-23411.7
-22502.2
-26034.8
-30137.7
-25401.9
-26117.3
-19568.1
-20032.4
-14233.5
-12163.5
-9143.03
-6087.26
-5318.37
-3528.53
-2042.7
-545.791
1767.82
2549.43
2737.55
5036.56
6468.01
8155.16
9239.37
10538
11751.2
12875.4
17440.5
23694.4
30933.8
42306.9
39679.2
31069.2
27043.5
21672.2
22373.2
22089.7
20102.5
17302.6
17608.9
17911.8
17627.1
20442.8
18380
21507.2
21903.5
24013.5
23465.7
22014.5
19244.9
17704.5
15643.7
12654.7
10838.2
8580.44
7175.12
4695.89
3721.74
1662.01
1399.73
-557.213
-214.778
-1803.71
-1118.95
-2398.91
-1824.76
-2654.12
-1715.65
-3143.46
-492.391
-3765.16
1023.67
-1098.34
-1741.64
-1619.53
-1618.24
-1601.77
-1597.46
-1593.95
-1596.32
-1601.23
-1610.79
-1623.36
-1641.18
-1661.36
-1689.53
-1717.78
-1754.02
-1805.12
-1846.65
-1898.81
-1980.1
-2037.05
-2123.02
-2228.88
-2309.7
-2422.82
-2547.32
-2669.87
-2794.07
-2933.72
-3076.82
-3219.93
-3366.28
-3505.95
-3651.91
-3789.33
-3927.1
-4039.06
-4112.93
-4159.02
-4188.63
-4148.1
-3737.55
-3669.74
-3961.24
-6969.23
-31043.2
-197677
-55711
-7547.12
-15202.1
-14538.9
-18317.2
-12884.4
-17145.7
-8659.77
-13677.4
-7562.13
-7007.44
-2743.04
-2338.18
-2100.99
-569.736
2048.62
2507.79
2287.66
3910.82
3749.89
5542.45
6214.09
7310.34
9183.6
10377.5
12143.8
13777.2
19634.6
24065.2
35492.2
46899.4
42089
33263.8
33418.9
29255.1
24471.4
20051.5
18967.4
17323
16339
17679.7
15566.5
19117.6
16370.5
20755.9
21600.1
24351.4
26975.3
25633.4
23011.2
20284.8
17619.7
14678.6
12554.9
10200.1
8574.7
5954.92
4719.14
2473.87
2157.04
498.424
585.127
-808.013
-442.795
-1766.3
-1530.1
-2319.05
-1846.72
-2587.5
-1080.36
-3548.58
166.996
-1252.12
-1876.36
-1749.75
-1742.68
-1721.75
-1713.58
-1706.88
-1706.78
-1709.36
-1717.76
-1728.4
-1746.23
-1764.99
-1792.36
-1823.03
-1857.66
-1908.51
-1950.13
-2007.94
-2080.64
-2148.47
-2222.04
-2323.29
-2429.06
-2521.88
-2645.91
-2779.05
-2894.86
-3031.27
-3167.24
-3305.32
-3446.87
-3567.95
-3697.52
-3834.26
-3962.5
-4090.55
-4187.41
-4218.34
-4167.33
-4003.27
-3980.74
-3966.32
-3820.66
-10877.7
-17259.3
-159448
-116544
-40674.5
-18237.5
-13049.6
-9806.77
-13166.9
-10113.6
-14004.8
-8891.07
-7873.56
-3823.85
-2455.54
-969.12
-831.592
1541.14
3426.28
3565.03
4098.59
5099.06
6184.59
6858.69
6066.24
7697.89
9603.15
9631.9
11615.7
14062.5
17995.5
25055.4
38801.7
45028.2
45089.3
40060.1
33964.3
31292.3
25774.1
23170.6
21056.7
18498.3
17729.6
18593.2
17417.2
21078.8
16846.8
21586
21971.6
24130.4
30594.2
29249.1
26226.4
23212.5
18907.1
15293.5
12675.3
10007.4
8528.68
6166.78
5319.03
3149.67
2783.76
673.8
835.553
-819.1
-371.862
-1619.27
-1449.18
-2170.94
-2305.58
-2437.94
-1848.38
-3279.37
-663.764
-1391.08
-1995.96
-1865.31
-1852.76
-1827.64
-1815.77
-1806.07
-1803.46
-1804.02
-1810.71
-1820.34
-1836.66
-1855.44
-1881.27
-1913.06
-1945.46
-1995.62
-2042.3
-2094.15
-2164.07
-2244.32
-2308.96
-2404.94
-2524.14
-2602.3
-2724.25
-2864.02
-2980.81
-3110.12
-3240.82
-3387.53
-3532.41
-3663.77
-3778.94
-3899.63
-4013.89
-4134.15
-4228.46
-4423.24
-4561.46
-4719.21
-5139.97
-4934.17
-5144.41
-8597.58
-26721.5
-112373
-90509.3
-55423.7
-45430.4
-37574
-24014.5
-19559.8
-16202.1
-14083.1
-10567.6
-5674.94
-4005.88
-934.6
946.535
2704.53
3812.55
3912.96
4477.01
4900.81
5307.24
6537.01
7825.42
8279.23
8068.84
10121.5
10932.9
12250.3
12929
21049.3
27313.2
46156.5
41572.1
42863.8
37261.8
40558.2
30528.4
34845.9
27922.7
29217.3
24717.5
19194.6
17257.1
17354.9
20011.6
20437.3
22488.5
22542.4
21938.3
28494.9
30727.5
26241.2
20474.1
16737.5
14418.4
12607
10364.4
8889.14
6502.89
5554.58
3993.99
3446.82
1832.29
1518.34
-213.7
-6.49486
-1292.68
-1243.2
-1881.16
-2254.76
-2094.8
-2247.82
-2980.51
-1387.49
-1514.45
-2100.24
-1966.02
-1948.39
-1919.4
-1904.08
-1891.56
-1886.52
-1885.16
-1890.13
-1898.67
-1913.5
-1932.18
-1956.33
-1989.22
-2020.87
-2064.41
-2121.88
-2168.44
-2233.22
-2320.22
-2380.89
-2474.95
-2585.6
-2681.38
-2788.47
-2914.7
-3061.75
-3165.68
-3300.51
-3431.99
-3579.53
-3719.26
-3820.61
-3938.83
-4103.01
-4194.32
-4369.04
-4468.61
-4450.89
-4260.33
-4091
-4300.69
-5075.32
-7269.97
-56555
-90844
-73925.2
-57910.3
-60785.2
-49316.9
-33928.4
-25755.2
-15179.4
-10588.7
-6304.11
-5156.03
-703.886
373.334
5974.94
7390.5
5610.57
6472.17
5986.46
6821.25
6920.87
8249.78
8791.32
9305.56
9512.45
10723
11891.4
13986.1
18802.4
22723.3
33567.2
46138.5
40708
40068.6
31715.9
31662.5
29052.3
29214.1
23769.4
24764.2
22548.1
22291.8
22493
22153.5
20747.6
22513.4
19921.7
22159.3
21122.8
25990.9
23637.9
23638.3
20979.1
17896.6
14229.5
12148.8
9647.18
8798.53
6665.73
6073.62
4047.63
3398.37
1873.76
1608.45
88.8229
136.793
-1046.4
-1098.12
-1734.24
-2240.65
-2033.48
-2635.61
-2782.21
-2055.21
-1622.11
-2189.02
-2051.89
-2029.71
-1997.28
-1978.85
-1963.83
-1956.51
-1953.49
-1956.64
-1964.34
-1977.15
-1996.37
-2018.11
-2051.49
-2083.13
-2124.45
-2181.51
-2228.08
-2291.6
-2372.54
-2446.81
-2527.6
-2623.92
-2751
-2832.45
-2950.38
-3096.3
-3231.37
-3330.54
-3455.4
-3603.39
-3780.58
-3852.64
-3968.19
-4080.49
-4135.11
-4254.82
-4420.64
-4284.96
-4284.67
-4743.7
-4785.86
-7485.19
-18385.4
-116614
-35028.9
-34382.4
-43362.1
-60263
-53091.3
-37597.5
-27555.6
-13349.8
-10826.8
-6774.34
-5388.59
-1672.41
-91.8111
4847.37
5818.86
8566.2
7178.95
7435.7
8751.99
10275.1
10196.9
9894.76
9872.79
10381.9
12900.3
15101.1
19389.1
26869.1
45077.3
46037.9
46905.8
39406.9
33175
26018.9
22391.3
22779.8
23465.4
21913
23598
20157.4
20051.4
21463.4
20145.9
20717.8
21663.8
22449.3
20058.2
17319.9
17579
19532.2
19886.7
19648.2
16929
14123.7
11685.8
9564.09
8175.56
6735.08
5958.1
4597.52
3625.55
2271.09
1890.84
582.637
372.963
-736.576
-924.905
-1576.68
-2102.03
-2066.04
-2783.47
-2531.73
-2581.78
-1713.64
-2262.29
-2122.94
-2096.78
-2061.4
-2040.24
-2023.04
-2013.59
-2009.22
-2010.46
-2017.65
-2028.66
-2047.74
-2068.46
-2098.95
-2134.3
-2170.62
-2223.85
-2280.99
-2335.74
-2406.17
-2502
-2564.22
-2660.22
-2786.52
-2874.5
-2983.64
-3104.31
-3274.73
-3358.43
-3485.66
-3609.12
-3757.01
-3927.94
-4016.23
-4102.25
-4292.69
-4298.35
-4496.59
-4723.81
-4739.6
-4596.31
-4812.16
-7840.83
-28036.8
-112155
-7375.29
-8630.48
-19878.6
-37157.6
-52728.1
-63424.1
-48246.1
-35291.3
-20669.3
-16809.7
-8467.9
-4471.97
2098.13
4802.72
7601.36
11308.1
9939.8
9414.42
9568.94
8400.64
11723.8
13272.1
13378.6
17809.6
23126.4
37879.6
52546.2
69362.8
77394
59295.2
38674.4
19238.9
16292.2
17055.6
11729.6
10063.5
9525.2
10892.1
9595.98
13153.7
14334.4
18342.6
17640.3
17614.3
14093.1
15205.1
9890.13
14507.8
15073.2
17673.7
17369.7
14976.8
12534.8
11536
10750.1
9380.44
8360.94
6560.23
5911.29
4369.93
3736.45
2454.87
2044.21
833.23
512.157
-478.129
-753.311
-1338.77
-1947.43
-2011.72
-2754.92
-2496.83
-3060.13
-1789.13
-2320.12
-2179.35
-2149.88
-2112.08
-2088.65
-2069.6
-2058.44
-2052.71
-2052.55
-2058.82
-2068.54
-2086.92
-2107.03
-2135
-2172.24
-2206.45
-2253.4
-2320.34
-2363.92
-2435.32
-2530.56
-2593.71
-2683.64
-2793.28
-2912.1
-2996.99
-3113.97
-3256.23
-3401.21
-3486.5
-3608.86
-3720.05
-3926.42
-4001.28
-4088.96
-4165.08
-4264.91
-4387.85
-4436.75
-4616.21
-4835.71
-5299.42
-9679.33
-54120.7
-103244
-12484.7
-4640.04
-2260.35
-14024.2
-25319.5
-46098.7
-61697.7
-56317.3
-42453.3
-21978.6
-13296.3
-3250.49
5503.36
7138.6
12412
10388.7
13808.1
11461.2
12248.4
15158.8
22325.6
36087.6
50215
66834.6
81346.3
102552
112499
92949.8
56267.5
24128.6
14081.8
2848.07
-2132.98
-2919.75
-3853.48
-3231.93
-470.345
1589.63
4908.75
4989.58
7671.87
7509.2
7960.54
6259.89
4017.89
3512.08
4610.16
3753.29
6995.14
9520.16
12508.9
11491.1
12091.1
11371
10215.7
8884.46
7976.04
6334.38
5721.84
4557.64
3863.94
2680.31
2198.14
1220.82
658.985
-193.578
-630.054
-1182.14
-1875.37
-1916.65
-2737.75
-2580.64
-3290.81
-1848.54
-2362.71
-2221.33
-2189.24
-2149.56
-2124.37
-2103.8
-2091.28
-2084.34
-2083.16
-2088.25
-2097.47
-2113.99
-2134.62
-2159.88
-2198.05
-2231.36
-2275.88
-2338.19
-2387.88
-2454.93
-2533.87
-2620.47
-2697.78
-2788.47
-2926.02
-3004.84
-3120.27
-3231.3
-3414.21
-3491.78
-3602.63
-3734.82
-3833.86
-4071.03
-4121.53
-4156.05
-4286.48
-4313.2
-4402.47
-4373.86
-4777.21
-7287.39
-18617.7
-129810
-47393.3
-7236.24
-4268.07
-672.776
-7499.51
-12567.4
-21233.8
-38071
-55517.3
-57209.4
-43533.1
-20673.9
-6441.25
3140.44
19471.8
17388.9
18020.4
23498.4
29863.4
48411.9
64156.2
82829
107902
125198
111276
93994
66980.5
44827.9
35488.9
22150.9
9834.76
5602.97
-710.167
-4481.48
-5962.53
-6984.25
-6140.7
-5814.71
-5317.46
-5219.15
-3867.76
-2152.45
-1301.03
-581.233
-1551.06
-1000.53
-1764.06
-2560.71
-147.76
3073.57
8001.06
9844.7
9627.64
10139
9717.31
9247.74
8339.36
7266.27
6513.29
5791.58
4442.79
3901.48
2860.39
2346.9
1358.34
795.783
-12.7863
-444.135
-1012.14
-1631.42
-1870.6
-2658.89
-2551.18
-3380.91
-1892.14
-2390.36
-2249.21
-2215.2
-2174.27
-2147.79
-2126.12
-2112.57
-2104.63
-2102.68
-2106.57
-2115.65
-2129.81
-2151.64
-2173.85
-2209.71
-2248.31
-2285.54
-2340.59
-2407.66
-2455.97
-2528.77
-2633.8
-2693.54
-2785.61
-2900.18
-3020.29
-3105.25
-3214.48
-3353.28
-3514.19
-3579.21
-3690.82
-3764.27
-3953.58
-4141.64
-4154.5
-4309.78
-4360.08
-4587.2
-4813.74
-5267.23
-8704.23
-30943.4
-129489
-10687.5
-3420.29
-3621.96
-5577.63
-6446.62
-5359.94
-13613.8
-18422.4
-41205.3
-53846
-60546.9
-41346.6
-5751.07
21018
29876.5
47404.8
63896
78036.4
103442
125833
114271
99902.1
70801.6
52164.7
50678.4
45289.9
37005.9
28908.2
22815.7
16508.3
9858.93
7099.76
3206.87
1242.53
-763.73
-2497.83
-3865.9
-4072.04
-3980.81
-4142.88
-4951.84
-5320.32
-6095.87
-5990.67
-5707.58
-6701.79
-6698.2
-5502.14
-2943.31
559.807
5966.96
8120.91
8943.84
8979.38
7691.96
7120.45
7119.45
7011.57
6250.14
5489.31
4285.31
3739.21
2901.4
2393.45
1620.08
977.097
248.871
-303.053
-866.702
-1459.63
-1845.55
-2582.26
-2583.72
-3369.83
-1920.22
-2403.47
-2263.38
-2228.19
-2186.54
-2159.32
-2136.85
-2122.75
-2113.83
-2111.64
-2114.03
-2123.36
-2135.64
-2157.35
-2179.07
-2209.99
-2253.54
-2286.87
-2334.88
-2407.53
-2453.36
-2522.12
-2611.79
-2694.01
-2775.25
-2862.18
-3009.56
-3084.98
-3200.61
-3299.43
-3489.06
-3573.72
-3673.27
-3812.08
-3875.34
-4125.82
-4245.8
-4363.55
-4476.71
-4424.09
-4744.36
-5768.55
-9946.19
-58201.2
-103472
-11743.2
1955.85
2421.3
1417.26
2271.36
-983.111
-2101.42
-6291.1
-11576.2
-27954.1
-35121
-16345.5
19849.1
65563.1
91581.3
116965
117585
108397
83466.4
62319.2
56664.7
50821.1
41848.5
32991.4
30663.2
25447.1
22084.3
14206
14445.5
10040.3
6935.52
4260.4
3078
1986.89
1514.74
552.992
-339.503
-2388.32
-4007.82
-4936.8
-5751.25
-6092.65
-7470.47
-7293.08
-7075.45
-7404.52
-7739.86
-6498.79
-3929.06
-196.368
3600.96
5562.72
6780.71
6615.44
6376.56
6575.28
6251.15
6364.77
5780.93
5005.53
4194.73
3631.45
3030.04
2523.93
1780.52
1079.1
385.295
-151.799
-714.541
-1288.87
-1726.81
-2437.28
-2467.69
-3251.81
-1933.27
-2402.51
-2264.32
-2228.64
-2186.9
-2159.38
-2136.63
-2122.14
-2112.82
-2110.17
-2111.94
-2120.68
-2132.29
-2152.51
-2175.59
-2202.03
-2244.2
-2280.66
-2324.55
-2386.4
-2447.66
-2504.56
-2576.26
-2688.16
-2745.27
-2836.85
-2953.11
-3079.07
-3162.2
-3261.99
-3389.35
-3579.33
-3639.75
-3743.16
-3784.58
-3956.52
-4199.15
-4117.67
-4049.14
-4027.48
-4146.95
-6487.33
-16860.7
-118457
-46941.6
-7335.26
-602.925
1284.79
1438.89
1436.24
1487.06
2401.02
2610.13
3351.93
5857.06
8250.57
33083.8
101269
130380
110205
82903.4
66727.9
61449.1
53852.9
40207.3
31580.7
26064.4
22986.7
21160.4
19864.9
19382.2
17942.9
15597.7
12608.3
13905.6
10380.5
9085.36
6830.23
4373.36
3352.41
1829.16
511.496
-551.457
-2011.96
-3060.86
-4279.75
-4930.57
-6508.08
-7756.34
-8253.02
-7560.85
-6855.47
-5386.32
-3360.81
-1206.96
2067.89
4273.29
5829.77
5186.95
5773.56
6115.59
6504.86
5369.74
5032
4617.25
4096.67
3588.38
3185.39
2499.85
1878.61
1211.59
560.691
-11.5453
-563.198
-1219.95
-1568.39
-2429.91
-2308.74
-3123.46
-1931.83
-2388.08
-2252.58
-2217.1
-2175.78
-2148.47
-2125.77
-2111.26
-2101.67
-2098.81
-2100.1
-2108.03
-2119.9
-2136.63
-2162.3
-2185.13
-2222.03
-2267.91
-2302.45
-2353.11
-2433.13
-2474.96
-2545.47
-2643.51
-2721
-2804.22
-2888.08
-3044.68
-3121.21
-3227.66
-3326.75
-3498.38
-3644.1
-3694.58
-3871.78
-3921.12
-4231.07
-4401.61
-4779.34
-4871.02
-5376.88
-9576.93
-30272.5
-118978
-12084.4
867.608
1295.57
1298.7
1026.83
2893.12
3857.23
5663.27
6017.27
12995.6
31798.6
79457.6
158024
123679
71243.8
48651
40667.1
31415.7
32579.6
25147.9
21918.1
17896.9
20565.6
16787.8
15697.5
12946.6
13773.4
12913.8
14905.8
13050
13654.2
12670.4
11378.3
10068
6663.96
5371.55
3468.5
2026.14
902.169
-432.498
-2449.03
-3776.02
-5031.93
-5640.59
-6149.37
-6979.43
-6855.93
-6014.08
-4693.29
-2985.93
-960.945
1488.8
3439.28
4748.83
5035.4
5193.6
5477.17
4738.03
4541.09
4500.69
4740.23
4100.74
3629.2
3178.04
2454.64
1976.92
1278.26
681.739
102.623
-442.901
-1044.47
-1415.96
-2257.42
-2076.8
-2934.22
-1916.62
-2360.84
-2228.76
-2194.11
-2153.79
-2127.09
-2104.92
-2090.51
-2081.27
-2077.85
-2079.54
-2086.01
-2098.57
-2113.47
-2138.45
-2162.79
-2191.95
-2240.15
-2275.18
-2321.97
-2388.46
-2449.72
-2508.92
-2578.48
-2696.37
-2754.94
-2840.3
-2952.46
-3098.35
-3177.71
-3260.03
-3385.45
-3616.76
-3683.13
-3770.67
-3937.54
-4040.72
-4220.16
-4112.42
-3988.59
-4549.43
-8320.42
-63492
-80796.7
-13738.5
2232.3
3955.82
3536.55
4189.14
4566.84
6246.18
8927.22
19104.6
40851.4
88252.9
179712
126614
68248
49123.3
30275
22670.8
20122.3
17440.8
14276.7
12891.1
14975.7
15334
13058.5
12003.1
10876.9
11248.2
11264.2
12671
12360.5
11498
13083.1
11261.5
11716.7
9945.77
7957.83
5436
3483.44
2002.86
730.382
47.7529
-1361.95
-3012.41
-3991.6
-4725.17
-5512.75
-5417.7
-4954.82
-4087.39
-2753.78
-1079.86
949.409
2961.69
3508.92
3847.35
4088.59
4018.27
4112.48
4339.35
4367.82
4460.57
3899.57
3454.85
3150.97
2430.23
2025.77
1373.4
840.826
250.995
-291.832
-944.736
-1254.95
-2156.84
-1846.43
-2797.56
-1888.37
-2321.51
-2193.54
-2160.33
-2121.48
-2095.77
-2074.49
-2060.52
-2051.69
-2048.17
-2050.02
-2055.48
-2068.27
-2081.78
-2104.81
-2131.25
-2156.01
-2196.97
-2245.56
-2280.34
-2331.1
-2417.69
-2458.55
-2525.88
-2626.78
-2712.23
-2792.61
-2867.52
-3021.8
-3122.06
-3225.46
-3299.3
-3445.89
-3649.67
-3679.54
-3702
-3835.88
-3891.94
-4154.11
-4694.32
-8407.99
-18011.9
-105884
-36125.3
-11600.9
2294.45
3445.15
4243.38
5637.58
7278.86
10356.6
17345
37668.2
83399.2
168636
154901
76716.9
44505
22862
24225.1
15633.5
12246.2
12141.6
11481.1
12206.1
12871.2
11349
11657.5
10214.2
11103.7
10994.8
10934.4
10703
10140.3
9547.04
10916.6
9925.21
10009.2
9294.96
9302.35
6847.01
5254.95
3025.94
2054.6
791.216
-134.639
-882.909
-2053.95
-3360.35
-3973.81
-4112.24
-3806.27
-3335.59
-2600.93
-1222.53
508.948
1801.28
2513.13
3119.49
3485.76
3746.14
3605.69
3828.52
4045.17
4002.4
3591.84
3184.91
2940.85
2272.74
1953.04
1356.04
925.114
352.499
-161.819
-763.765
-1120.1
-1905.49
-1643.41
-2562.95
-1847.98
-2270.92
-2147.65
-2116.4
-2079.46
-2055.18
-2035.05
-2021.82
-2013.57
-2010.31
-2012.06
-2017.67
-2029.05
-2043.51
-2062.53
-2091.27
-2115.59
-2147.03
-2200.82
-2232.86
-2280.94
-2351.64
-2413.82
-2472.84
-2536.56
-2667.71
-2720.95
-2807.35
-2899.93
-3080.79
-3146.33
-3249.33
-3327.62
-3611.61
-3771.14
-3972.94
-4192.71
-4399.39
-4680.87
-5438.45
-9223.52
-31759.3
-111794
-10911.9
-3941.37
3948.85
4066.08
4066.5
5082.96
9738.11
16420.7
34713.4
79253.1
162796
144907
89222.2
45832.7
25525.3
17746.7
15255.9
14834.5
10525.8
8732.74
9985.17
11853.8
9916.39
10973.6
9576.43
10928.9
11179.3
11053.3
10493.2
9805.97
9507.27
8868.28
9489.73
9023.64
9306.27
8535.28
9130.83
7367.21
6214.37
4904.2
3361.82
1823.75
561.512
-503.998
-1351.9
-1847
-2725.81
-3016.94
-2932.59
-2643.79
-2103.47
-1452.12
-456.054
899.441
1931.34
2530.87
3069.34
3065.3
3327.23
3643.77
3509.54
3512.46
3253.83
3078.35
2893.28
2264.34
2035.63
1494.29
1139.97
511.687
13.3711
-607.97
-916.705
-1726.89
-1429.62
-2328.7
-1796.34
-2209.9
-2091.86
-2063.05
-2028.43
-2005.86
-1987.16
-1974.95
-1967.33
-1964.64
-1966.04
-1972.36
-1981.5
-1997.93
-2012.97
-2040.56
-2068.61
-2093.81
-2136.92
-2188.3
-2223.25
-2271.67
-2363.68
-2404.6
-2468.89
-2566.57
-2666.13
-2741.7
-2809.41
-2945.31
-3104.12
-3176.43
-3254.73
-3363.94
-3596.52
-3613.22
-3523.26
-3416.98
-3423.09
-4414.88
-8424.4
-73968
-63221.8
-16152.8
-5044.22
4229.48
5117.48
6784.73
10252.1
16501.2
33273.5
74252.6
161551
143181
86765.7
45168.9
31962.1
18058
12432
9328.34
11070.2
9652.99
8007.1
9410.63
9859.04
9894.4
9243.85
9496.16
10663.3
10642.2
10125.5
9377.29
8820.64
8637.4
8636.43
8685.91
7960.63
8187.71
7362.02
8030.09
7178.51
6908.42
4876.72
3124.22
2420.4
1598.86
112.14
-207.56
-1012.16
-1558.03
-2081.77
-2301.59
-2431.46
-2029.21
-1569.27
-576.752
583.885
1102.12
2109.97
2343.37
2690.85
2656.12
2896.59
2756.73
2946.66
2906.91
2853.8
2718.6
2191.15
2013.33
1526.02
1119.38
530.517
56.1163
-494.197
-782.426
-1448.33
-1253.47
-2024.37
-1734.47
-2139.37
-2027
-2001.03
-1969.03
-1948.49
-1931.46
-1920.49
-1913.71
-1911.66
-1913.14
-1919.53
-1928.3
-1943.61
-1959.78
-1980.54
-2013.9
-2037.59
-2068.52
-2126.9
-2158.91
-2204.82
-2273.73
-2346.11
-2400.95
-2457.42
-2591.52
-2654.4
-2740.93
-2805.15
-3006.8
-3087.45
-3203.47
-3269
-3538.47
-3700.7
-3893.77
-4121.62
-4367.6
-7629.85
-17575.1
-105121
-20573
-4168.27
-3047.87
5138.27
6806.46
9953.29
16773.2
34641.3
75730.3
158684
157924
79804.7
48638.3
21108.7
20635.9
15600.3
9306.54
7409.61
9482.23
9464.88
8516.4
9178.9
9068.82
9794.85
8993.6
9748.93
9616.73
9486.42
9122.76
8512.88
8199.67
8224.51
8199.23
8072.94
7182.95
7224.61
6320.84
6838.14
6228.88
6716.25
5381.79
4796.26
2598.41
2396.98
1359.89
134.343
-1238.23
-1287.9
-1983.24
-1953.71
-2190.23
-1802.94
-1342.45
-822.55
194.626
1228.13
1813.36
2024.17
2176.56
2108.02
2353.8
2341.39
2734.35
2601.46
2746.01
2703.03
2274.41
2102.41
1615.26
1249.38
724.202
323.235
-307.988
-511.66
-1215.09
-1062.58
-1786.28
-1663.37
-2060.26
-1953.89
-1931.08
-1902.01
-1883.75
-1868.5
-1859.08
-1853.07
-1851.9
-1853.51
-1859.75
-1868.66
-1881.83
-1900.41
-1915.91
-1946.67
-1976.38
-2001.41
-2043.18
-2100.93
-2132.95
-2176.22
-2273.77
-2315.1
-2378.8
-2459.09
-2593.26
-2653.59
-2717.33
-2829.56
-3031.57
-3100.19
-3309.71
-3386.55
-3478.47
-3882.33
-4293.65
-5276.58
-8311.56
-42252
-87565.4
-14984.6
-2969.2
-1908.94
5980.43
7870.43
15820.9
33698.4
74592.5
153764
160574
93028.3
48979.8
29549.1
14050.9
16192.8
12921.1
7202.81
6842.76
7310.33
8249.45
8926.92
8269.84
7991.88
8185.91
8503.85
8692.18
8655.37
8685.17
8196.89
7854.5
7900.35
7701.33
7311.57
7121.19
6212.84
6286.79
5505.83
5821.5
5155.08
5979.35
5225.26
5479.29
3648.64
2062.67
950.887
-100.973
-870.714
-816.744
-1329.74
-1522.59
-1826.92
-1750.84
-1569.19
-874.354
-350.258
641.901
1247.41
1452.13
1600.1
1596.99
1980.28
1995.26
2532.1
2319.62
2480.24
2413.16
2082.63
1822.56
1489.8
1044.34
630.628
246.84
-263.282
-446.99
-962.033
-894.699
-1445.47
-1584.11
-1973.51
-1873.4
-1854.03
-1828.09
-1812.24
-1799.07
-1791.12
-1786.34
-1785.76
-1788.01
-1793.8
-1803.37
-1814.44
-1832.88
-1849.98
-1870.86
-1907.83
-1930.17
-1960.27
-2019.4
-2054.73
-2097.44
-2158.9
-2245
-2296.84
-2341.28
-2472.42
-2556.01
-2650.5
-2676.34
-2849.8
-3014.89
-3058.12
-3038.84
-3144.6
-3100.95
-3206
-4429.79
-10580
-78462.9
-45389.8
-10207.5
-4762.12
-1926.9
8231
16096.5
32734.1
73925.8
155112
138438
79986.4
48609.6
31686.1
14025.2
10056.5
10870.2
12318.9
9104.21
7546.17
6910.62
8182.17
8901.18
7815.71
7335.68
7356.37
7932.54
8209.53
8310.34
8159.7
7893.85
7640.01
7428.39
7058.64
6212
6230.95
5410.98
5584.15
4947.12
5087.34
4291.98
4927.54
4176.77
4771.19
3895.02
2097.56
1449.67
1790.52
204.218
-840.129
-1366.3
-1314.78
-1748.62
-1594.67
-1578.61
-911.15
-282.91
337.579
883.641
908.922
1171.04
1209.7
1446.74
1638.16
2134.98
2154.63
2285.61
2345.57
2077.32
1903.14
1545.66
1323.07
897.864
589.288
-10.2872
-160.539
-744.894
-647.348
-1251
-1497.73
-1880.1
-1786.42
-1770.65