/*--------------------------------*- C++ -*----------------------------------*\
| =========                 |                                                 |
| \\      /  F ield         | OpenFOAM: The Open Source CFD Toolbox           |
|  \\    /   O peration     | Version:  2.2.x                                 |
|   \\  /    A nd           | Web:      www.OpenFOAM.org                      |
|    \\/     M anipulation  |                                                 |
\*---------------------------------------------------------------------------*/
FoamFile
{
    version     2.0;
    format      ascii;
    class       volScalarField;
    location    "2.6";
    object      Bz;
}
// * * * * * * * * * * * * * * * * * * * * * * * * * * * * * * * * * * * * * //

dimensions      [1 0 -2 0 0 -1 0];

internalField   nonuniform List<scalar> 
14161
(
-3.61904e-20
-3.63418e-20
-3.62037e-20
-3.59862e-20
-3.50966e-20
-3.71705e-20
-3.50389e-20
-3.58336e-20
-3.55379e-20
-3.48743e-20
-3.68794e-20
-3.48223e-20
-3.66296e-20
-3.49222e-20
-3.5759e-20
-3.50718e-20
-3.53948e-20
-3.51518e-20
-3.50319e-20
-3.52767e-20
-3.52209e-20
-3.46714e-20
-3.47204e-20
-3.4359e-20
-3.46434e-20
-3.43509e-20
-3.40715e-20
-3.39964e-20
-3.36558e-20
-3.38263e-20
-3.32519e-20
-3.3243e-20
-3.30639e-20
-3.30794e-20
-3.28739e-20
-3.29312e-20
-3.28221e-20
-3.27809e-20
-3.28041e-20
-3.27307e-20
-3.26462e-20
-3.30966e-20
-3.3e-20
-4.17911e-20
3.75134e-19
3.05056e-18
1.26471e-17
1.34992e-17
1.01469e-17
8.42512e-18
8.27007e-18
7.87626e-18
7.75631e-18
7.19348e-18
6.89471e-18
6.50372e-18
6.20149e-18
5.64546e-18
5.33704e-18
5.03779e-18
4.67482e-18
4.23639e-18
3.86682e-18
3.5723e-18
3.29157e-18
3.08656e-18
2.86432e-18
2.67809e-18
2.48746e-18
2.34037e-18
2.23325e-18
2.16357e-18
2.06734e-18
1.94835e-18
1.79735e-18
1.69157e-18
1.5194e-18
1.34604e-18
1.18707e-18
1.18236e-18
8.73797e-19
5.05086e-19
4.34244e-19
2.78617e-19
-2.75524e-20
-2.32499e-19
-6.47836e-19
-1.13071e-18
-1.76302e-18
-2.34511e-18
-2.85302e-18
-3.75526e-18
-4.55489e-18
-5.33677e-18
-5.96394e-18
-6.37767e-18
-6.88614e-18
-6.81141e-18
-7.27941e-18
-7.62601e-18
-1.15381e-17
4.87117e-18
-2.23773e-17
-5.41735e-18
-1.04436e-17
-6.61377e-18
-1.64351e-17
-1.02953e-17
-2.00503e-17
-1.44104e-18
-2.26821e-17
-9.75135e-18
-1.75496e-17
-1.01093e-17
-2.63817e-17
-3.78838e-17
5.37991e-18
-8.89015e-18
1.88552e-17
3.89327e-20
3.98223e-20
3.97563e-20
3.90023e-20
3.92743e-20
3.81967e-20
4.04993e-20
3.64564e-20
4.08019e-20
3.67772e-20
4.04506e-20
3.72398e-20
3.98709e-20
3.9334e-20
3.8046e-20
3.73839e-20
3.87513e-20
3.71084e-20
3.72362e-20
3.68444e-20
3.72421e-20
3.74477e-20
3.69062e-20
3.6408e-20
3.74936e-20
3.84404e-20
3.69045e-20
3.83382e-20
3.66211e-20
3.85469e-20
3.71316e-20
3.7774e-20
3.79297e-20
3.79608e-20
3.75676e-20
3.80438e-20
3.76924e-20
3.78776e-20
3.7842e-20
3.80415e-20
3.7775e-20
3.72813e-20
3.85854e-20
5.16996e-20
3.71629e-19
1.35488e-18
1.11163e-17
1.08972e-17
8.04101e-18
6.77504e-18
5.57085e-18
5.23912e-18
3.47926e-18
3.46447e-18
2.85822e-18
2.94044e-18
2.37446e-18
2.20392e-18
1.833e-18
1.69859e-18
1.6198e-18
1.31174e-18
1.10954e-18
9.33879e-19
7.60581e-19
7.54308e-19
4.56707e-19
4.28234e-19
1.56914e-19
6.04291e-20
-2.46124e-19
-2.76958e-19
-4.73799e-19
-6.31961e-19
-8.76876e-19
-1.3009e-18
-1.29137e-18
-2.41405e-18
-2.87281e-18
-4.14623e-18
-5.69365e-18
-6.32361e-18
-7.92793e-18
-9.36234e-18
-1.03198e-17
-1.10285e-17
-1.16422e-17
-1.20071e-17
-1.20505e-17
-1.25893e-17
-1.2901e-17
-1.27391e-17
-1.36651e-17
-1.1973e-17
-1.83206e-17
7.7892e-18
-4.6832e-17
3.50543e-17
-1.02157e-16
1.74205e-16
-2.34099e-16
3.78372e-16
-5.25466e-16
4.0048e-16
-2.33487e-16
5.14159e-16
2.4588e-16
-1.64434e-18
-1.35816e-17
2.97042e-17
3.46362e-16
1.20053e-16
3.01741e-17
2.70535e-16
2.63927e-16
4.54622e-17
-8.05751e-17
-2.5094e-17
5.50947e-17
7.81496e-20
7.67589e-20
7.66595e-20
7.70474e-20
7.93511e-20
7.42221e-20
8.2159e-20
7.00805e-20
8.1913e-20
7.07446e-20
8.24437e-20
7.24302e-20
7.4147e-20
7.01033e-20
7.30816e-20
7.03939e-20
7.25483e-20
6.82941e-20
7.14077e-20
6.88457e-20
6.75303e-20
6.46799e-20
6.58498e-20
6.51585e-20
5.91147e-20
5.92569e-20
5.85346e-20
5.81417e-20
5.71221e-20
5.90476e-20
5.75326e-20
5.86978e-20
5.69126e-20
5.83632e-20
5.74624e-20
5.77299e-20
5.78019e-20
5.78538e-20
5.78436e-20
5.77312e-20
5.77761e-20
5.85798e-20
6.63944e-20
1.31593e-19
6.18216e-19
2.93052e-18
4.50873e-18
3.55513e-18
2.03119e-18
1.27654e-18
1.03767e-18
8.00011e-19
5.06548e-19
4.48354e-19
3.09937e-19
9.00317e-20
1.62345e-19
-2.21484e-20
-1.17551e-19
-8.94803e-20
-2.70128e-19
-2.82046e-19
-6.8918e-19
-5.89278e-19
-6.93653e-19
-1.15239e-18
-1.15734e-18
-1.44677e-18
-1.72128e-18
-2.14374e-18
-2.79884e-18
-3.54953e-18
-3.7497e-18
-5.17956e-18
-6.17497e-18
-8.04945e-18
-1.05323e-17
-1.17045e-17
-1.27567e-17
-1.54355e-17
-1.67666e-17
-1.79075e-17
-1.93427e-17
-2.00814e-17
-2.00753e-17
-1.90999e-17
-1.81659e-17
-1.79777e-17
-1.92109e-17
-2.45696e-17
-8.66899e-18
2.46993e-17
-1.87431e-16
1.47923e-16
-7.86498e-17
1.20317e-16
-2.08448e-16
1.41086e-16
-1.67325e-16
5.23459e-16
-1.16756e-15
8.94279e-16
6.70193e-16
-1.88399e-15
-1.70305e-16
-2.57795e-15
1.12093e-15
7.24236e-16
-3.29663e-16
-9.52919e-16
-3.44842e-16
1.01118e-15
6.31668e-17
-1.97141e-16
1.66402e-16
1.95731e-16
6.10207e-17
5.63282e-17
5.20117e-17
-2.56357e-20
-2.43928e-20
-2.30998e-20
-2.29881e-20
-2.37225e-20
-2.49189e-20
-2.54164e-20
-2.26381e-20
-2.28026e-20
-2.14028e-20
-1.98462e-20
-2.16971e-20
-1.65749e-20
-1.92865e-20
-1.24604e-20
-8.43762e-21
-8.4441e-21
-4.19052e-21
-1.27072e-20
-2.9494e-21
-1.46063e-21
2.15232e-21
1.40076e-21
4.92922e-21
9.80759e-21
7.25347e-21
1.2359e-20
1.62974e-20
1.96568e-20
1.73939e-20
1.92202e-20
2.10151e-20
2.24897e-20
2.32569e-20
2.49746e-20
2.59889e-20
2.60125e-20
2.69632e-20
2.73526e-20
2.75218e-20
2.77059e-20
2.77762e-20
2.2359e-20
9.65865e-20
6.24743e-19
3.49035e-18
4.10755e-18
3.19388e-18
1.61116e-18
1.0394e-18
-2.64193e-19
3.78742e-20
1.36786e-19
1.53789e-19
8.44319e-20
-1.50336e-19
3.14757e-19
-2.47868e-19
-3.00711e-19
1.82508e-19
-2.57322e-19
-3.0088e-19
-7.42928e-19
-2.77e-19
-5.17912e-19
-1.06794e-18
-1.32678e-18
-1.1405e-18
-1.71732e-18
-1.72817e-18
-2.37055e-18
-3.03283e-18
-3.47755e-18
-4.38885e-18
-5.65838e-18
-7.35162e-18
-8.39085e-18
-1.06578e-17
-1.24088e-17
-1.55755e-17
-1.89124e-17
-1.42002e-17
-2.22943e-17
-2.22156e-17
-2.43743e-17
-1.28326e-17
-2.97895e-17
-3.19998e-17
-7.65325e-18
-9.16616e-17
1.01585e-16
-6.1927e-17
-6.15334e-17
9.97875e-17
-1.41069e-16
1.20297e-16
-4.6311e-17
2.84954e-16
-9.0057e-16
1.23282e-15
-7.86504e-16
2.35797e-16
2.61319e-16
2.26191e-15
1.63473e-16
7.59096e-16
3.01041e-16
-9.9136e-16
-8.181e-16
-7.49639e-16
2.32662e-16
1.10714e-17
-3.47033e-16
8.86036e-17
1.89962e-16
-1.40263e-17
-1.01435e-16
-8.3737e-17
-4.4019e-17
5.87178e-20
6.10096e-20
6.03873e-20
6.23826e-20
5.91257e-20
7.67159e-20
6.58551e-20
8.36746e-20
6.72481e-20
9.5657e-20
6.8479e-20
9.25371e-20
9.76226e-20
1.01374e-19
1.05377e-19
9.73916e-20
1.07486e-19
1.07069e-19
1.17297e-19
1.11324e-19
1.12867e-19
1.14668e-19
1.14081e-19
1.14166e-19
1.15931e-19
1.19313e-19
1.20314e-19
1.19404e-19
1.20851e-19
1.26896e-19
1.28346e-19
1.26965e-19
1.29049e-19
1.29128e-19
1.28133e-19
1.30569e-19
1.31571e-19
1.31325e-19
1.32668e-19
1.33321e-19
1.32067e-19
1.34625e-19
9.4728e-20
2.14023e-19
8.17698e-19
4.6952e-18
5.25248e-18
3.30701e-18
1.01562e-18
3.81969e-19
-1.52736e-21
1.26988e-19
-1.17791e-20
-2.00643e-19
2.12847e-19
-3.25844e-19
2.04608e-19
-5.4684e-19
1.60936e-19
-2.39985e-19
-4.91396e-19
-2.29857e-19
-1.42373e-19
-3.31197e-19
-1.515e-18
3.2635e-19
-7.96127e-19
-1.55364e-18
-8.48403e-19
-1.96024e-18
-1.13331e-18
-2.61008e-18
-3.29316e-18
-3.7433e-18
-5.11193e-18
-5.92411e-18
-8.53783e-18
-9.99378e-18
-1.21816e-17
-1.44241e-17
-1.73713e-17
-1.88173e-17
-1.80601e-17
-3.41348e-17
-1.73161e-17
-2.19995e-17
-3.94046e-17
2.30009e-19
-8.0101e-17
8.56765e-17
-8.13692e-17
-5.32345e-17
1.27229e-16
-1.47335e-16
1.45165e-16
1.10361e-16
-4.213e-16
3.54752e-16
1.35885e-16
5.38669e-16
-1.15454e-15
2.28437e-17
-3.73713e-16
-1.30741e-18
-5.07539e-16
7.86664e-16
-5.08812e-16
-2.51e-16
-5.17328e-16
-1.51883e-17
2.30648e-17
-2.47752e-16
-1.32045e-16
-1.55187e-16
-2.99707e-16
-3.60147e-16
-2.31407e-16
-1.1551e-16
-4.94411e-17
2.21874e-19
2.20991e-19
2.22206e-19
2.21662e-19
2.1653e-19
2.10398e-19
1.99377e-19
2.23743e-19
2.06188e-19
2.0481e-19
2.11189e-19
2.19398e-19
1.76331e-19
2.11969e-19
1.79601e-19
2.24928e-19
1.82016e-19
2.09263e-19
1.99828e-19
1.98311e-19
1.99208e-19
2.00183e-19
2.06534e-19
2.05325e-19
2.10886e-19
2.13231e-19
2.16061e-19
2.12361e-19
2.15038e-19
2.1252e-19
2.16101e-19
2.1495e-19
2.18257e-19
2.19489e-19
2.21186e-19
2.22384e-19
2.23627e-19
2.24558e-19
2.25484e-19
2.25266e-19
2.27675e-19
2.2664e-19
2.34022e-19
1.95649e-19
3.43835e-20
1.01531e-17
1.10872e-17
3.54639e-18
1.97082e-18
1.1556e-18
1.14117e-19
6.84266e-20
2.7421e-19
2.09694e-19
1.25165e-19
1.95121e-19
1.40815e-19
2.59889e-19
8.28169e-20
2.20895e-19
-6.17974e-19
8.39648e-19
-1.03717e-20
-6.48314e-19
-1.57432e-19
-3.49085e-19
2.02059e-19
-1.42459e-19
-8.41982e-19
-1.41257e-18
-1.18798e-18
-1.6658e-18
-2.67971e-18
-3.32054e-18
-4.52864e-18
-4.94587e-18
-6.3433e-18
-7.74636e-18
-9.09169e-18
-1.16016e-17
-1.34645e-17
-1.79024e-17
-1.67289e-17
-2.256e-17
-3.01005e-17
-2.40859e-17
-4.01412e-17
-2.42779e-17
-3.93167e-17
-3.06807e-17
5.68434e-17
-3.55067e-17
-1.09467e-16
3.23145e-16
-2.00133e-16
-7.28827e-16
1.47009e-15
2.16455e-16
-1.85569e-15
-3.1395e-16
1.20649e-16
2.22956e-15
1.28002e-15
-5.29917e-16
-6.98456e-16
3.43335e-16
-3.66068e-16
1.68161e-16
4.38881e-17
2.26813e-16
-5.54573e-17
-1.3004e-16
-7.95689e-17
-1.97105e-16
-2.6319e-16
-2.56444e-16
-1.68344e-16
-8.75637e-17
-3.88094e-17
2.56339e-19
2.50854e-19
2.47088e-19
2.45077e-19
2.49929e-19
2.60966e-19
2.41136e-19
2.49246e-19
2.47326e-19
2.27599e-19
2.42055e-19
2.25088e-19
2.47371e-19
2.35068e-19
2.27544e-19
1.99776e-19
2.19818e-19
2.10476e-19
2.10348e-19
2.27279e-19
2.30254e-19
2.31777e-19
2.32334e-19
2.40519e-19
2.34001e-19
2.37333e-19
2.42161e-19
2.4848e-19
2.53321e-19
2.54421e-19
2.60782e-19
2.65746e-19
2.73647e-19
2.77063e-19
2.81034e-19
2.86234e-19
2.88219e-19
2.91392e-19
2.93551e-19
2.98027e-19
2.96984e-19
3.01992e-19
2.84662e-19
3.21546e-19
1.32437e-18
6.04665e-18
6.84084e-18
4.50788e-18
2.20417e-18
1.42913e-18
9.42154e-19
1.15641e-18
1.03079e-18
1.12843e-18
5.85479e-19
1.06229e-18
1.37922e-18
4.69132e-19
7.31268e-19
4.30432e-19
1.03188e-18
6.67465e-19
6.1227e-19
1.05084e-18
3.08013e-19
2.25444e-19
1.00263e-19
5.38936e-19
7.65589e-19
8.11771e-19
-5.55078e-19
-9.23609e-19
4.95302e-20
3.49494e-19
-6.13156e-19
-1.59515e-18
-2.03546e-18
-2.57746e-18
-4.3444e-18
-3.50877e-18
-1.15138e-17
-7.15902e-18
-1.07335e-17
-3.41001e-17
-2.14867e-18
-3.9159e-17
-1.65363e-17
-7.2942e-17
2.89332e-17
4.53745e-17
-2.29703e-16
2.33759e-16
1.12873e-16
-4.01925e-16
9.16406e-17
1.40371e-15
-1.37822e-15
-2.80939e-15
2.48915e-15
4.72305e-15
2.19334e-16
-2.17359e-15
-2.49556e-15
-1.14186e-15
2.64037e-16
3.29543e-16
-1.383e-17
3.12436e-16
2.24039e-16
2.82777e-16
-2.07859e-17
-3.3057e-17
-6.81985e-17
-1.13003e-16
-1.11603e-16
-2.96377e-17
-3.4323e-17
-3.49173e-17
-2.39226e-17
1.39153e-19
1.47887e-19
1.5293e-19
1.51355e-19
1.58416e-19
1.58602e-19
2.1118e-19
1.75098e-19
2.23855e-19
2.1374e-19
2.31724e-19
2.302e-19
2.81352e-19
2.72885e-19
3.33635e-19
3.02908e-19
3.64854e-19
3.44501e-19
3.55382e-19
3.82819e-19
3.79579e-19
3.83395e-19
3.9252e-19
3.91768e-19
4.13888e-19
4.23177e-19
4.28981e-19
4.40331e-19
4.4409e-19
4.55277e-19
4.58165e-19
4.61096e-19
4.61714e-19
4.64934e-19
4.63937e-19
4.63961e-19
4.65783e-19
4.64803e-19
4.63732e-19
4.66593e-19
4.70961e-19
4.6303e-19
4.05056e-19
6.89509e-19
2.17355e-18
1.08078e-17
1.23984e-17
8.65439e-18
4.54536e-18
3.29733e-18
3.19002e-18
3.1467e-18
2.76793e-18
2.40101e-18
2.57546e-18
2.01574e-18
2.31239e-18
3.52038e-18
2.87554e-18
1.61261e-18
8.97147e-19
1.2188e-19
8.82768e-19
3.16938e-18
3.26582e-18
1.42109e-18
6.45254e-19
5.79809e-19
8.3224e-19
2.52573e-18
2.63901e-18
5.64351e-19
-8.52395e-20
4.06978e-19
1.29683e-18
1.49926e-18
1.1201e-18
1.74913e-18
-1.02042e-18
1.84021e-18
-2.2309e-18
-1.06054e-17
2.17905e-17
-4.62883e-17
-5.13671e-18
-2.35074e-18
-8.60037e-17
1.39258e-16
-2.11971e-16
-8.94731e-17
5.73055e-16
-7.2222e-16
2.51853e-16
9.71207e-16
-6.13081e-16
-1.39014e-15
4.96337e-16
3.68006e-15
1.40103e-15
-6.0819e-15
-6.29585e-15
-7.45743e-16
3.8647e-16
7.14484e-16
2.14281e-15
1.97371e-15
1.17109e-15
6.18758e-16
5.8167e-16
3.663e-16
5.70171e-17
-8.13817e-18
-5.59693e-17
-4.44477e-17
-2.3051e-17
3.79413e-17
3.94844e-17
9.76496e-18
-4.73621e-18
3.67491e-19
3.87713e-19
4.01654e-19
4.3285e-19
4.28237e-19
4.50715e-19
4.74039e-19
4.52589e-19
4.99167e-19
4.88931e-19
5.14163e-19
5.34158e-19
5.2827e-19
5.75273e-19
5.49578e-19
6.1514e-19
5.65194e-19
6.15085e-19
6.36332e-19
6.27229e-19
6.41385e-19
6.57887e-19
6.62048e-19
6.74181e-19
6.62197e-19
6.60312e-19
6.57706e-19
6.63335e-19
6.48883e-19
6.5904e-19
6.44518e-19
6.51604e-19
6.45034e-19
6.46857e-19
6.42386e-19
6.42457e-19
6.43301e-19
6.43517e-19
6.44651e-19
6.44507e-19
6.45259e-19
6.50397e-19
6.8533e-19
8.89791e-19
2.69672e-18
1.05561e-17
1.70256e-17
1.67956e-17
1.05131e-17
5.87381e-18
8.09802e-18
9.68915e-18
9.33381e-18
7.14251e-18
5.11795e-18
3.20958e-18
2.37557e-18
5.29087e-18
7.69207e-18
6.71237e-18
3.23555e-18
1.70358e-18
-1.58981e-18
-1.42976e-18
4.98647e-18
6.62877e-18
5.19646e-18
2.56525e-18
-2.30482e-19
-1.07718e-18
2.88955e-18
3.45076e-18
2.90745e-18
1.10829e-18
1.515e-19
6.73213e-19
2.14825e-18
1.41564e-18
3.78809e-18
-3.42631e-18
7.71137e-18
-6.43271e-18
6.22786e-18
1.66236e-17
-7.25425e-17
8.32759e-17
-7.69585e-17
-3.08103e-17
1.99128e-16
-3.12056e-16
-1.53956e-16
7.09242e-16
-2.09712e-16
-1.25717e-15
1.04758e-15
2.06429e-15
-1.0485e-15
-3.61917e-15
-2.83702e-15
-1.17539e-15
6.83399e-15
8.03745e-15
2.9798e-15
6.75444e-16
1.85417e-15
8.12177e-16
-3.20316e-16
-1.96978e-16
4.76203e-16
2.82381e-16
6.88896e-17
-3.76112e-18
-3.52508e-17
-4.16412e-18
1.24869e-17
3.67237e-17
4.07193e-17
2.3953e-17
1.10908e-17
7.36953e-19
7.29617e-19
7.3111e-19
7.22021e-19
7.25965e-19
7.5897e-19
6.69553e-19
7.59241e-19
6.64979e-19
7.67782e-19
7.28947e-19
7.38968e-19
7.63736e-19
6.90876e-19
7.48372e-19
7.21823e-19
7.37472e-19
7.31023e-19
7.25421e-19
7.23435e-19
7.06011e-19
6.94031e-19
6.88308e-19
6.83288e-19
6.78154e-19
6.86486e-19
6.72845e-19
6.64018e-19
6.76326e-19
6.59175e-19
6.5743e-19
6.49523e-19
6.50531e-19
6.49907e-19
6.51005e-19
6.51126e-19
6.50572e-19
6.48712e-19
6.48483e-19
6.47271e-19
6.45747e-19
6.43121e-19
6.42895e-19
6.44946e-19
6.36368e-19
-1.59836e-19
2.93647e-17
3.45936e-17
2.60724e-17
1.03282e-17
1.00724e-17
1.13212e-17
1.29441e-17
1.44254e-17
1.00486e-17
5.88754e-18
1.81416e-18
1.89799e-18
8.69398e-18
1.24167e-17
8.63688e-18
2.83385e-18
4.24875e-21
-3.27706e-18
-1.06714e-18
7.00202e-18
1.05244e-17
8.17916e-18
4.52846e-18
5.37327e-19
-1.64549e-18
3.34781e-18
4.77438e-18
3.75212e-18
2.10652e-18
8.50081e-19
1.01108e-18
2.63971e-18
2.23488e-18
4.54536e-18
1.78459e-18
4.03937e-18
-5.87235e-18
2.94135e-17
-2.55635e-17
-7.36194e-17
3.2971e-16
-6.04066e-16
5.27102e-16
1.59645e-16
-4.57052e-16
-7.39708e-16
1.95215e-15
4.58354e-16
-2.01325e-15
-1.61602e-15
-5.42443e-16
2.96608e-15
3.85739e-15
1.98759e-15
3.38009e-15
-1.89398e-15
-5.74374e-15
-1.64248e-15
-5.80456e-16
-3.53948e-15
-3.53926e-15
-1.67945e-15
-2.53356e-16
6.62464e-17
1.17192e-16
4.86406e-17
-3.87237e-18
-3.12019e-18
-4.17715e-18
-1.77217e-19
5.90702e-18
4.69568e-18
1.39787e-17
6.81448e-19
6.71987e-19
6.70509e-19
6.76609e-19
6.68444e-19
6.30779e-19
6.59357e-19
6.66162e-19
6.74531e-19
6.41049e-19
6.10435e-19
6.39251e-19
5.90764e-19
6.35796e-19
5.77451e-19
5.78837e-19
5.6201e-19
5.45533e-19
5.32249e-19
5.42101e-19
5.35799e-19
5.47167e-19
5.62586e-19
5.58722e-19
5.72279e-19
5.64199e-19
5.77375e-19
5.94973e-19
5.878e-19
6.1148e-19
6.04234e-19
6.11708e-19
6.11661e-19
6.20722e-19
6.23335e-19
6.25191e-19
6.35629e-19
6.35544e-19
6.40846e-19
6.41724e-19
6.47663e-19
6.52892e-19
6.69236e-19
7.19123e-19
1.02901e-18
3.08582e-18
1.19559e-17
3.8023e-17
3.30687e-17
1.48722e-17
4.96874e-18
8.40434e-18
1.19422e-17
1.51946e-17
1.24706e-17
4.77428e-18
-1.84246e-18
-1.15967e-18
5.40395e-18
1.25617e-17
1.48828e-17
5.39981e-18
1.49095e-18
-3.79874e-18
-9.60785e-18
8.49704e-18
1.80375e-17
1.21439e-17
1.97283e-17
-1.49531e-19
-1.26796e-17
-5.23254e-19
7.60122e-18
1.03638e-17
5.39999e-18
1.69655e-18
-4.19227e-19
1.64686e-18
2.65153e-18
5.86891e-18
7.44669e-18
-3.08057e-18
2.0987e-17
-1.78957e-17
1.93542e-18
5.01624e-17
-1.85915e-16
1.90431e-16
-4.71794e-17
-4.24869e-16
7.19538e-16
-7.23288e-16
-2.62046e-15
-1.73582e-15
1.47503e-15
2.71095e-15
1.02286e-15
1.24926e-16
-2.69999e-15
-4.26992e-15
-8.78004e-16
-8.65384e-15
-5.98031e-15
3.60268e-15
2.96183e-16
-3.83354e-15
-2.3988e-15
-9.20981e-16
-3.70694e-16
2.61874e-17
6.63057e-17
-4.09898e-17
-2.90709e-17
-2.97853e-17
-3.52436e-17
-3.66187e-17
-1.61761e-17
-7.3047e-18
9.61382e-18
5.91936e-19
5.94046e-19
5.95878e-19
5.87067e-19
6.10372e-19
5.63228e-19
6.46594e-19
5.36817e-19
5.91787e-19
5.44243e-19
6.46591e-19
5.45621e-19
6.07194e-19
5.61168e-19
5.93341e-19
5.88994e-19
6.15543e-19
6.10169e-19
6.42599e-19
6.30569e-19
6.63723e-19
6.73062e-19
6.67399e-19
6.65481e-19
6.77746e-19
6.73042e-19
6.87935e-19
6.64718e-19
6.99347e-19
6.89097e-19
7.05234e-19
7.05744e-19
7.09009e-19
7.13245e-19
7.13498e-19
7.13779e-19
7.10636e-19
7.09348e-19
7.09698e-19
7.06379e-19
7.04103e-19
7.0765e-19
7.11953e-19
7.1834e-19
7.34292e-19
4.6381e-19
2.54803e-18
1.65522e-17
1.12851e-17
5.81794e-18
-1.09415e-17
2.51281e-18
1.32125e-17
2.29697e-17
1.98803e-17
6.00502e-18
-9.3982e-18
-1.16471e-17
1.75675e-18
1.53118e-17
2.47224e-17
1.19018e-17
2.56056e-19
-6.29446e-18
-1.41981e-17
6.64207e-18
3.34303e-17
1.87615e-17
2.46353e-17
1.62402e-17
-2.56007e-17
-1.80873e-17
1.62263e-17
1.80598e-17
1.07138e-17
1.92636e-18
-1.31116e-18
-3.21158e-19
6.27966e-18
8.62155e-18
8.47791e-18
8.95677e-18
-6.04147e-18
-1.49517e-17
-3.48042e-17
1.05824e-16
-4.66741e-16
7.15756e-16
-6.52217e-17
-9.144e-16
3.35111e-16
1.24084e-15
1.98036e-15
1.95135e-16
-1.96399e-15
-2.54483e-15
-3.65794e-15
-5.58563e-16
-1.5568e-15
7.21289e-16
2.82412e-15
-4.10912e-15
5.17469e-15
7.27666e-15
-1.72698e-15
-1.15924e-15
2.04672e-15
1.53876e-15
9.29845e-16
8.18662e-16
2.58381e-16
8.32051e-18
1.2454e-17
-3.07788e-17
-4.81314e-17
-4.78913e-17
-2.61769e-17
-9.92451e-18
3.58853e-18
6.41565e-19
6.45865e-19
6.48074e-19
6.36805e-19
6.31657e-19
6.53319e-19
6.59126e-19
6.69532e-19
6.63139e-19
6.78479e-19
6.50798e-19
6.82495e-19
7.00376e-19
6.74619e-19
7.12e-19
6.99085e-19
6.86565e-19
7.17329e-19
7.29303e-19
7.29997e-19
7.44955e-19
7.30042e-19
7.3609e-19
7.31259e-19
7.29846e-19
7.44279e-19
7.42451e-19
7.5277e-19
7.31136e-19
7.32136e-19
7.30199e-19
7.35912e-19
7.23824e-19
7.30029e-19
7.23833e-19
7.28557e-19
7.23764e-19
7.26082e-19
7.21249e-19
7.19614e-19
7.19274e-19
7.5058e-19
6.72516e-19
5.38576e-19
-4.25242e-19
-8.91063e-18
-4.36839e-17
-4.05534e-17
8.70784e-18
-1.97901e-17
-5.15634e-17
-4.13789e-17
1.76432e-17
6.00303e-17
4.9369e-17
1.74476e-17
-2.26482e-17
-3.67122e-17
-1.40368e-17
1.11173e-17
3.42633e-17
3.29815e-17
3.60312e-18
-1.05678e-17
-1.70177e-17
5.17275e-18
4.65136e-17
4.50012e-17
3.16878e-17
1.58017e-17
-2.27996e-17
-3.08217e-17
4.69461e-18
1.9865e-17
1.43559e-17
6.29567e-18
1.48203e-18
3.51531e-18
1.1031e-17
1.28491e-17
1.47033e-17
7.48844e-18
-3.45037e-17
3.92178e-17
-1.44109e-16
3.19992e-16
-4.77857e-16
-2.32852e-16
1.37212e-15
-8.98191e-16
-1.57474e-15
-4.50332e-15
-3.70307e-15
-1.70544e-15
6.76531e-16
1.59305e-15
1.65707e-15
3.9005e-15
9.12323e-16
3.2876e-15
3.83932e-15
1.60546e-15
9.61991e-15
9.95886e-16
-4.49019e-15
1.9724e-15
4.40451e-15
2.07362e-15
1.4688e-15
1.33502e-15
7.00105e-16
2.97196e-16
8.08232e-17
-5.07594e-17
-6.89402e-17
-5.57055e-17
-2.8462e-17
-7.21111e-18
2.81766e-18
6.5506e-19
6.60097e-19
6.83564e-19
6.87669e-19
6.55492e-19
7.36394e-19
5.99633e-19
6.59179e-19
6.60897e-19
7.57175e-19
6.31154e-19
7.75439e-19
6.56022e-19
7.67722e-19
7.48582e-19
7.75755e-19
7.62796e-19
7.49865e-19
7.77869e-19
7.74193e-19
7.62139e-19
7.40157e-19
7.41799e-19
7.33832e-19
7.4447e-19
7.3387e-19
7.40993e-19
7.34919e-19
7.2625e-19
7.24071e-19
7.28086e-19
7.23851e-19
7.18305e-19
7.10313e-19
7.09145e-19
7.01956e-19
7.03174e-19
6.95146e-19
6.9405e-19
6.87225e-19
6.86351e-19
6.77447e-19
6.70416e-19
5.73593e-19
-1.50314e-18
-2.43474e-17
-1.00027e-16
-1.20383e-16
-5.73285e-17
-6.07703e-17
-1.46167e-16
-1.10855e-16
-2.26778e-17
6.71582e-17
7.09441e-17
4.3616e-17
-3.81514e-17
-9.03493e-17
-7.52733e-17
-2.26255e-17
2.69901e-17
6.621e-17
4.35984e-17
3.3566e-18
-1.18452e-17
8.02588e-18
5.92583e-17
6.64064e-17
6.25771e-17
4.09995e-18
-4.5873e-17
-3.93102e-17
-1.59518e-17
1.35171e-17
2.05545e-17
1.70086e-17
1.4253e-17
1.4367e-17
2.02838e-17
1.84354e-17
1.78035e-17
3.33046e-18
-6.14862e-17
6.65899e-17
-5.08018e-16
4.05909e-16
1.18705e-15
-1.46112e-15
-1.94765e-15
3.33019e-15
5.62307e-15
5.117e-15
6.03403e-15
2.66781e-15
2.16012e-15
1.37502e-15
-2.38827e-16
5.98515e-16
-2.5662e-15
1.30516e-15
-4.9734e-16
-1.5774e-15
2.49278e-15
-5.81135e-15
-3.6527e-15
2.84219e-15
1.94624e-15
3.95946e-17
5.9337e-16
9.03546e-16
7.34221e-16
3.97263e-16
1.1179e-16
-4.03223e-17
-6.2343e-17
-5.10348e-17
-2.69868e-17
-5.25077e-18
1.60252e-18
6.5151e-19
6.4504e-19
6.2186e-19
6.27215e-19
6.32132e-19
6.26594e-19
6.52295e-19
7.50719e-19
7.05171e-19
6.34385e-19
7.34951e-19
7.02833e-19
7.4022e-19
7.58512e-19
7.30751e-19
7.62147e-19
7.64135e-19
7.93399e-19
7.51683e-19
7.29629e-19
7.09278e-19
7.5771e-19
7.42943e-19
7.56987e-19
7.65595e-19
7.49003e-19
7.40267e-19
7.0989e-19
7.09227e-19
6.95473e-19
6.92237e-19
6.7898e-19
6.7514e-19
6.7266e-19
6.54306e-19
6.62727e-19
6.40503e-19
6.44512e-19
6.44019e-19
6.35246e-19
6.38294e-19
6.14322e-19
5.45557e-19
-1.93995e-20
-2.34629e-18
-5.85997e-17
-1.5663e-16
-1.92763e-16
-2.07395e-16
-1.56272e-16
-2.50589e-16
-2.08915e-16
-7.28278e-17
5.63684e-17
9.43414e-17
9.51105e-17
-3.56111e-17
-1.35151e-16
-1.33639e-16
-7.11366e-17
3.84959e-18
9.97826e-17
1.1466e-16
3.64472e-17
8.84197e-18
1.71354e-17
4.28577e-17
1.01557e-16
6.90756e-17
-1.62326e-17
-6.64424e-17
-5.82151e-17
-3.15237e-17
1.23646e-17
3.41229e-17
3.74684e-17
4.0036e-17
3.39271e-17
2.80914e-17
5.1679e-17
-6.19391e-17
1.32579e-16
-3.4058e-16
2.45125e-16
-2.80782e-16
-2.90165e-15
1.07941e-16
7.82131e-16
-1.50101e-15
-1.40835e-14
-1.99337e-14
-1.42536e-14
-9.10299e-15
-5.37447e-15
-2.06819e-15
-2.59366e-15
-2.06134e-15
-1.38126e-15
-3.88195e-15
-1.45198e-15
-5.27276e-15
-3.62414e-15
-5.33578e-16
-6.04923e-15
-3.15586e-16
2.67522e-15
-7.16466e-16
-1.21943e-15
-2.12681e-16
2.06636e-16
3.70949e-16
2.19825e-16
6.92433e-17
-4.57047e-17
-6.35247e-17
-5.58002e-17
-2.94228e-17
-4.21838e-18
1.31145e-18
6.92252e-19
6.67351e-19
6.54343e-19
6.74868e-19
6.8051e-19
7.75383e-19
7.2559e-19
8.50971e-19
7.61751e-19
8.33729e-19
7.46881e-19
6.70359e-19
8.2265e-19
6.79146e-19
7.53331e-19
6.79958e-19
7.27946e-19
6.46684e-19
6.07316e-19
6.69935e-19
6.76521e-19
6.5827e-19
6.39654e-19
6.52173e-19
6.11493e-19
6.30407e-19
5.86482e-19
6.00532e-19
5.94605e-19
5.8834e-19
5.81221e-19
5.7059e-19
5.77698e-19
5.61833e-19
5.57754e-19
5.54833e-19
5.55212e-19
5.51887e-19
5.49232e-19
5.46179e-19
5.3902e-19
4.93027e-19
3.11752e-19
-1.87388e-18
-6.39661e-18
-1.44575e-16
-2.51001e-16
-2.65792e-16
-2.99038e-16
-3.68482e-16
-3.31488e-16
-2.92449e-16
-2.63856e-16
-8.26556e-17
6.49008e-17
1.05956e-16
-7.27515e-18
-1.546e-16
-2.01743e-16
-1.36798e-16
-2.04792e-17
1.2699e-16
2.01642e-16
1.33213e-16
4.35804e-17
2.74556e-17
6.8981e-19
5.0476e-17
7.66207e-17
-3.00451e-17
-1.00241e-16
-1.05806e-16
-2.06293e-17
4.07366e-17
7.34173e-17
8.46248e-17
7.52476e-17
6.15565e-17
6.55527e-17
-2.80129e-17
1.41223e-16
-4.36187e-16
6.46941e-16
-2.88382e-15
1.93178e-15
6.47211e-15
-3.2333e-15
9.51696e-15
1.40894e-14
2.21545e-14
2.09744e-14
1.16837e-14
6.03904e-15
3.03971e-15
3.79309e-15
1.78452e-15
1.98435e-15
2.06975e-15
9.72304e-16
3.34458e-15
-9.87679e-16
1.10006e-15
-1.92882e-18
-3.53214e-15
2.7381e-15
4.80415e-16
-2.89902e-15
-1.67849e-15
-9.59954e-16
-6.83116e-16
-2.3049e-16
-2.53827e-16
-2.25693e-16
-1.46586e-16
-6.95962e-17
-5.53741e-17
-3.08856e-17
-7.07733e-18
4.03968e-18
7.42363e-19
7.84348e-19
7.72703e-19
7.5019e-19
7.19449e-19
6.53915e-19
6.43522e-19
6.57752e-19
5.47225e-19
7.03211e-19
5.23839e-19
7.26107e-19
5.51669e-19
7.16037e-19
5.51451e-19
6.33063e-19
5.46988e-19
6.0916e-19
6.20236e-19
5.65636e-19
5.12561e-19
5.57588e-19
5.37136e-19
5.4098e-19
5.1243e-19
5.05739e-19
5.29925e-19
5.34656e-19
5.28147e-19
5.14795e-19
5.26337e-19
5.14373e-19
4.96868e-19
4.93973e-19
4.86005e-19
4.83453e-19
4.78705e-19
4.71677e-19
4.66011e-19
4.60678e-19
4.45257e-19
3.70751e-19
1.65206e-19
-5.60273e-18
-2.39274e-17
-2.56095e-16
-4.42301e-16
-4.1368e-16
-3.89809e-16
-5.28513e-16
-6.55809e-16
-6.88062e-16
-8.0458e-16
-4.60193e-16
-2.1557e-16
2.35732e-17
-2.61292e-17
-1.84347e-16
-2.74817e-16
-2.09371e-16
-7.21371e-17
1.65468e-16
3.12927e-16
2.18037e-16
6.83901e-17
-2.43823e-17
-6.12691e-17
-2.13786e-17
-2.56433e-18
-6.86717e-17
-1.35771e-16
-1.49587e-16
-6.11254e-18
7.2694e-17
1.25458e-16
1.40993e-16
1.02059e-16
1.10743e-16
-1.78601e-17
9.23696e-17
-4.08033e-16
1.46109e-16
-1.55204e-15
3.33176e-16
-6.28612e-15
-8.7966e-15
-1.2041e-14
-2.68544e-14
-2.44411e-14
-1.42227e-14
-1.66911e-15
1.87369e-15
2.57122e-15
1.29722e-15
8.13065e-16
-3.8138e-16
1.73703e-15
1.36132e-15
1.62351e-15
2.79868e-15
-5.26214e-16
2.4746e-15
-1.54277e-16
-6.96085e-16
3.82325e-15
-6.85286e-16
-1.77441e-15
-3.4767e-16
-6.07357e-16
-5.22559e-16
-4.87327e-16
-7.26003e-16
-5.16588e-16
-2.24939e-16
-1.05182e-16
-7.49798e-17
-3.53342e-17
-8.07678e-18
2.51163e-18
6.56301e-19
6.3957e-19
6.68534e-19
6.77144e-19
7.85235e-19
6.58916e-19
8.50392e-19
6.0934e-19
8.12338e-19
6.2097e-19
7.74875e-19
6.90215e-19
6.10695e-19
6.5407e-19
5.7315e-19
6.69447e-19
5.39382e-19
6.93696e-19
5.68972e-19
6.56001e-19
5.71906e-19
6.37609e-19
5.88577e-19
5.72761e-19
5.31357e-19
5.65682e-19
5.26036e-19
5.20737e-19
4.86112e-19
4.78711e-19
4.72707e-19
4.5736e-19
4.28493e-19
4.37039e-19
4.13665e-19
3.97895e-19
3.92469e-19
3.86834e-19
3.80796e-19
3.56909e-19
2.93132e-19
6.19247e-20
-8.008e-19
-1.94979e-17
-1.92432e-18
-5.0098e-16
-8.40969e-16
-7.95071e-16
-6.99436e-16
-7.20881e-16
-8.33599e-16
-1.24213e-15
-1.4669e-15
-1.14012e-15
-6.51716e-16
-2.10539e-16
-1.4139e-16
-2.48085e-16
-3.37676e-16
-2.5551e-16
-8.40468e-17
1.81994e-16
3.69255e-16
2.4455e-16
6.81197e-17
-7.37722e-17
-1.99447e-16
-1.38551e-16
-7.87795e-17
-8.31279e-17
-2.12447e-16
-1.69926e-16
-4.98142e-17
8.68748e-17
1.74952e-16
1.74102e-16
1.70173e-16
6.43515e-17
6.80012e-17
-5.51825e-16
9.49826e-17
-3.05541e-15
1.216e-15
8.55865e-15
3.30064e-14
3.9537e-14
3.79992e-14
1.88967e-14
-5.5684e-15
-1.3863e-14
-1.24875e-14
-4.58584e-15
-2.89194e-15
-4.29483e-15
-2.33406e-15
-3.09833e-15
-2.57039e-15
-3.53417e-15
-2.46685e-15
-8.2287e-16
5.63741e-17
4.17318e-15
1.2302e-15
2.93976e-15
5.19137e-15
-1.36214e-16
-7.39746e-16
-2.17514e-16
1.16467e-17
-1.02954e-16
-7.38928e-16
-1.00013e-15
-6.02443e-16
-2.45147e-16
-1.34384e-16
-6.60279e-17
-2.92408e-17
-8.61394e-18
1.37095e-18
7.08848e-19
7.10919e-19
6.66086e-19
6.2985e-19
6.66058e-19
7.18914e-19
6.28107e-19
6.31381e-19
6.55038e-19
5.50427e-19
6.69269e-19
4.31705e-19
7.02053e-19
4.71318e-19
6.03734e-19
4.43753e-19
5.91175e-19
4.59736e-19
5.29325e-19
4.34363e-19
4.24058e-19
4.36685e-19
3.53779e-19
3.80162e-19
3.595e-19
3.40453e-19
2.71549e-19
2.68058e-19
2.70047e-19
2.84454e-19
2.54418e-19
2.49477e-19
2.8429e-19
2.56541e-19
2.81277e-19
2.96548e-19
2.99738e-19
3.12807e-19
3.12185e-19
2.97246e-19
1.78655e-19
-5.5986e-19
-2.58399e-18
-6.58961e-17
1.66108e-16
-8.57189e-16
-1.26135e-15
-1.37893e-15
-9.68575e-16
-9.02578e-16
-7.85669e-16
-1.53334e-15
-1.84816e-15
-1.30481e-15
-1.84493e-15
-1.14917e-15
-5.60018e-16
-1.7928e-16
-1.94779e-17
3.11189e-17
2.28422e-17
5.10405e-17
1.34643e-16
7.04894e-17
-2.84774e-17
-1.24936e-16
-3.35547e-16
-4.36481e-16
-2.18187e-16
-1.98045e-16
-2.56906e-16
-1.79666e-16
-8.28474e-17
1.11669e-16
2.39186e-16
2.71692e-16
3.02235e-16
3.19304e-16
-2.55459e-16
-1.42186e-15
-5.76228e-15
2.30046e-15
-1.74958e-14
-4.85367e-14
-5.83669e-14
-3.16312e-14
5.83623e-15
3.7441e-14
3.41778e-14
1.30199e-14
4.22672e-15
8.1115e-16
4.66099e-16
1.57406e-15
1.03939e-15
-5.05794e-16
-2.06123e-17
-2.68623e-15
-1.80988e-15
-1.80628e-15
-1.98167e-15
5.03326e-16
-2.21853e-15
1.30866e-15
1.23919e-15
-3.28443e-15
-2.07507e-15
1.53011e-16
9.42029e-16
1.67045e-16
-6.96555e-16
-8.68047e-16
-5.38128e-16
-2.65473e-16
-1.38983e-16
-5.86716e-17
-3.6472e-17
-1.19888e-17
5.89119e-19
6.99731e-19
7.14514e-19
7.35358e-19
7.07825e-19
6.70991e-19
7.17743e-19
5.79557e-19
5.88948e-19
3.96326e-19
6.67678e-19
4.68711e-19
6.71345e-19
5.33899e-19
5.56194e-19
6.54253e-19
4.37588e-19
6.00699e-19
3.01716e-19
4.23809e-19
2.5242e-19
3.75587e-19
7.11268e-20
3.04654e-19
1.63273e-19
1.98712e-19
1.69664e-19
2.36303e-19
2.03351e-19
2.59288e-19
2.39727e-19
2.44861e-19
2.84761e-19
2.79935e-19
3.00313e-19
2.8327e-19
3.06899e-19
2.97493e-19
3.17519e-19
3.34114e-19
3.05581e-19
3.20094e-20
-2.18907e-18
-7.30075e-18
-2.3664e-16
1.00919e-16
-1.16815e-15
-2.19822e-15
-2.38662e-15
-1.65843e-15
-1.35499e-15
-4.24287e-16
-1.47675e-15
-1.17033e-15
2.66938e-16
-4.40266e-15
8.18111e-16
1.59453e-15
1.99895e-15
1.0181e-15
1.19048e-16
-4.79701e-16
-9.6803e-16
-8.91942e-16
-5.80487e-17
7.07402e-16
8.09324e-16
6.98158e-16
5.24242e-18
-1.73302e-16
-1.18968e-16
-1.58835e-16
-3.45889e-16
-4.53634e-16
-5.62933e-16
-7.13661e-16
-6.38806e-16
1.9289e-16
2.297e-15
3.02635e-15
2.74116e-15
-6.55618e-15
1.37825e-14
7.83933e-14
4.97943e-14
-1.70717e-14
-6.72654e-14
-5.66654e-14
-2.10678e-14
8.98759e-15
1.31272e-14
7.02729e-15
2.39e-15
1.03509e-15
1.33958e-15
2.77104e-15
3.13297e-15
2.78343e-15
-1.72625e-16
-1.21084e-15
-3.73291e-15
-3.87819e-15
-2.98438e-15
-4.84971e-15
-1.26435e-15
-3.26149e-15
-4.99117e-15
-3.34077e-17
2.11842e-15
1.4129e-15
2.18851e-16
-4.65029e-16
-6.17617e-16
-4.50556e-16
-2.3094e-16
-9.02437e-17
-4.85876e-17
-3.90579e-17
-1.26936e-17
-1.03311e-18