/*--------------------------------*- C++ -*----------------------------------*\
| =========                 |                                                 |
| \\      /  F ield         | OpenFOAM: The Open Source CFD Toolbox           |
|  \\    /   O peration     | Version:  2.2.x                                 |
|   \\  /    A nd           | Web:      www.OpenFOAM.org                      |
|    \\/     M anipulation  |                                                 |
\*---------------------------------------------------------------------------*/
FoamFile
{
    version     2.0;
    format      ascii;
    class       volScalarField;
    location    "2.6";
    object      rho;
}
// * * * * * * * * * * * * * * * * * * * * * * * * * * * * * * * * * * * * * //

dimensions      [1 -3 0 0 0 0 0];

internalField   nonuniform List<scalar> 
14161
(
0.991148
0.991132
0.991066
0.991006
0.990885
0.990772
0.990647
0.990483
0.990325
0.990213
0.99013
0.990029
0.989875
0.989676
0.989563
0.989485
0.989445
0.989419
0.989419
0.989435
0.989457
0.989484
0.989543
0.989626
0.989715
0.989807
0.989914
0.990008
0.990119
0.990323
0.990563
0.990725
0.990852
0.99097
0.991264
0.991687
0.991916
0.992032
0.992062
0.99214
0.991857
0.992061
0.990675
0.993668
1.01028
1.16015
1.99269
2.57021
2.44716
2.32963
2.3023
2.29456
2.28731
2.28182
2.27263
2.26182
2.25313
2.24134
2.22554
2.21167
2.19775
2.1853
2.17315
2.16298
2.15566
2.14991
2.14638
2.14473
2.14425
2.14354
2.14373
2.14258
2.14273
2.14456
2.14961
2.15709
2.16668
2.17869
2.18956
2.20081
2.21621
2.23555
2.26041
2.28845
2.33148
2.37627
2.40855
2.4255
2.43405
2.43317
2.42781
2.42751
2.43006
2.43403
2.44099
2.44755
2.44187
2.43901
2.43255
2.44139
2.45967
2.50355
2.55459
2.63189
2.72112
2.81973
2.91286
3.00249
3.07047
3.12878
3.16741
3.20532
3.22386
3.24063
3.24067
3.23767
3.22875
3.21629
3.23313
0.991154
0.991127
0.991058
0.990991
0.990863
0.990759
0.990652
0.990482
0.990316
0.990202
0.990124
0.990027
0.989861
0.989661
0.989543
0.989466
0.989428
0.98941
0.989417
0.989438
0.989461
0.989503
0.989565
0.989635
0.989703
0.989783
0.989885
0.989977
0.990075
0.990264
0.990459
0.990583
0.990633
0.990704
0.99092
0.991231
0.991292
0.991305
0.991124
0.990929
0.99043
0.990264
0.988222
0.989233
0.995195
1.27175
2.1879
2.4561
2.41883
2.36525
2.34674
2.3303
2.31527
2.30033
2.28573
2.27337
2.2629
2.24887
2.23366
2.22147
2.2077
2.19754
2.18845
2.18194
2.17839
2.17769
2.1791
2.18136
2.18222
2.18288
2.18401
2.18452
2.18462
2.18329
2.18016
2.17586
2.17081
2.16523
2.15903
2.15297
2.14972
2.15435
2.16778
2.1898
2.22661
2.26578
2.28812
2.29778
2.29599
2.29407
2.28625
2.27771
2.28256
2.30587
2.35214
2.40275
2.45266
2.52201
2.58676
2.62827
2.68365
2.7597
2.80603
2.85981
2.90999
2.9646
3.01381
3.06263
3.10354
3.14029
3.16823
3.19823
3.21575
3.23417
3.23991
3.23871
3.22716
3.22275
3.248
0.991167
0.991124
0.991048
0.990985
0.990865
0.990769
0.990648
0.990472
0.990311
0.990202
0.990123
0.990022
0.989858
0.989653
0.989539
0.989461
0.989424
0.989398
0.989405
0.989418
0.989443
0.989476
0.98954
0.989629
0.989705
0.989789
0.989899
0.990015
0.990147
0.990369
0.990652
0.990875
0.991046
0.991272
0.991681
0.992262
0.992673
0.993056
0.993321
0.993698
0.993968
0.994938
0.994841
0.997668
0.990275
1.52296
2.3455
2.60351
2.6329
2.57038
2.53497
2.51221
2.49208
2.47414
2.45839
2.44332
2.43057
2.41195
2.39572
2.38074
2.36428
2.35036
2.33696
2.32458
2.31182
2.29963
2.28936
2.27702
2.26581
2.25581
2.24713
2.23801
2.22853
2.21826
2.20591
2.19209
2.17728
2.16426
2.15653
2.14835
2.14523
2.14584
2.15629
2.19178
2.23652
2.27181
2.29495
2.30748
2.30881
2.30298
2.30941
2.36113
2.42559
2.50851
2.64009
2.73449
2.80657
2.8503
2.90638
2.92379
2.95803
2.9773
2.98516
3.0003
3.01285
3.02633
3.04474
3.06359
3.08438
3.10654
3.12924
3.15309
3.16676
3.17935
3.18418
3.1816
3.18213
3.18763
3.23347
0.991173
0.991119
0.991039
0.990984
0.990866
0.990755
0.990633
0.990464
0.990306
0.990198
0.990115
0.990014
0.98985
0.989644
0.989531
0.989454
0.989417
0.989387
0.989394
0.989406
0.989424
0.989461
0.989525
0.989597
0.989669
0.989743
0.989833
0.989907
0.989994
0.990147
0.990305
0.990384
0.990406
0.990387
0.990468
0.990616
0.990613
0.990545
0.990425
0.990098
0.989604
0.989889
0.989562
0.992253
0.981046
1.67858
2.43149
2.67393
2.73062
2.69851
2.67196
2.64627
2.6242
2.60256
2.57779
2.55547
2.53694
2.5101
2.48588
2.46249
2.43724
2.41671
2.39663
2.37827
2.36103
2.34459
2.3291
2.3139
2.30016
2.28707
2.27542
2.26433
2.25417
2.24404
2.23252
2.22022
2.20878
2.19768
2.18445
2.17518
2.17242
2.18061
2.19658
2.22012
2.26485
2.31078
2.34091
2.35638
2.38014
2.42077
2.45195
2.52627
2.66497
2.74359
2.7911
2.83269
2.89941
2.94543
2.97464
2.99788
3.00924
2.99172
2.99064
2.99716
3.00427
3.0164
3.03427
3.04907
3.06099
3.0657
3.07818
3.09582
3.11106
3.12536
3.13997
3.15412
3.16343
3.18361
3.22127
0.991192
0.991123
0.991034
0.99098
0.990864
0.990755
0.990628
0.990457
0.990302
0.990196
0.990115
0.990009
0.989835
0.989634
0.989521
0.98944
0.989404
0.989375
0.989378
0.989392
0.989413
0.989447
0.989501
0.98959
0.989671
0.989758
0.989871
0.989988
0.990123
0.990369
0.9907
0.990955
0.991151
0.991428
0.991903
0.992638
0.993291
0.993974
0.994541
0.99517
0.995902
0.998092
0.999148
1.00124
0.987041
1.7123
2.4939
2.70169
2.76072
2.75601
2.73222
2.70419
2.67589
2.65588
2.62514
2.59639
2.57618
2.54206
2.51214
2.48564
2.45604
2.4328
2.40862
2.3892
2.36884
2.35184
2.33484
2.32029
2.30465
2.29193
2.28008
2.26771
2.25618
2.24523
2.23282
2.21987
2.20663
2.19359
2.18218
2.17472
2.17198
2.17266
2.18905
2.2265
2.26166
2.30883
2.36433
2.4234
2.47075
2.51078
2.59318
2.66457
2.70019
2.73333
2.79754
2.83887
2.88066
2.91691
2.97047
3.0054
3.01307
3.00597
3.00895
3.0083
3.01205
3.01881
3.02652
3.02777
3.03366
3.04074
3.05665
3.08016
3.10047
3.12184
3.13918
3.15665
3.16711
3.18988
3.22564
0.991196
0.991121
0.991025
0.990973
0.990857
0.990747
0.990622
0.99045
0.990295
0.990186
0.990104
0.990001
0.989831
0.989627
0.989514
0.989431
0.989392
0.989359
0.989361
0.989372
0.989392
0.989422
0.989477
0.989547
0.989617
0.989687
0.989767
0.989838
0.989892
0.989979
0.990098
0.990157
0.990173
0.990115
0.990066
0.99005
0.989996
0.989872
0.989633
0.989363
0.988849
0.9891
0.988779
0.988544
0.972544
1.71104
2.54699
2.71518
2.78379
2.7849
2.76882
2.73525
2.70314
2.68177
2.64577
2.60807
2.58358
2.54819
2.51065
2.48041
2.44898
2.42242
2.39538
2.37593
2.35668
2.34072
2.32585
2.30872
2.29209
2.2805
2.26876
2.25582
2.24362
2.23213
2.21972
2.20745
2.19499
2.18274
2.1709
2.16051
2.15778
2.16618
2.17497
2.19639
2.25137
2.32674
2.38972
2.42997
2.48566
2.57427
2.61354
2.63517
2.68117
2.72193
2.75292
2.78321
2.83621
2.88368
2.93088
2.96556
2.98553
2.99047
2.99699
2.99906
3.00554
3.01311
3.01867
3.02391
3.03284
3.04152
3.05915
3.08435
3.10637
3.13141
3.15139
3.17199
3.18235
3.20857
3.23585
0.99122
0.991128
0.991019
0.990968
0.990853
0.990744
0.990616
0.990444
0.990289
0.990183
0.990101
0.989992
0.989814
0.989615
0.989501
0.989418
0.989376
0.989343
0.989343
0.98935
0.98937
0.989401
0.98945
0.98953
0.98961
0.989697
0.989804
0.989948
0.990104
0.990286
0.990575
0.990912
0.991243
0.991582
0.992035
0.99269
0.993604
0.994493
0.995368
0.996285
0.997028
0.998839
1.00096
1.00341
0.990704
1.72507
2.49985
2.73224
2.7582
2.72751
2.70967
2.67659
2.64045
2.6146
2.57852
2.54047
2.51585
2.48669
2.45962
2.43206
2.40286
2.38558
2.36288
2.34494
2.33127
2.31882
2.30712
2.29292
2.27901
2.27015
2.26039
2.24867
2.23765
2.22661
2.21532
2.20443
2.19396
2.18203
2.16976
2.16286
2.16128
2.15733
2.16497
2.20688
2.24992
2.30376
2.37193
2.45226
2.5276
2.55424
2.58495
2.63312
2.64347
2.65863
2.69765
2.73856
2.77234
2.80961
2.85799
2.91734
2.9489
2.96646
2.97942
2.98878
2.99876
3.00219
3.00495
3.01305
3.02793
3.04377
3.06564
3.09684
3.1226
3.1546
3.1774
3.19862
3.20852
3.23476
3.24857
0.991224
0.99113
0.991014
0.990962
0.990848
0.990737
0.99061
0.990437
0.990284
0.990175
0.99009
0.98998
0.989806
0.989605
0.989492
0.989407
0.989358
0.989324
0.989316
0.98932
0.98934
0.98937
0.989404
0.98947
0.989541
0.989604
0.989671
0.989743
0.98979
0.989823
0.98988
0.989914
0.989906
0.989849
0.989711
0.989552
0.989368
0.989173
0.988816
0.988327
0.98749
0.987384
0.986703
0.988621
0.975683
1.66163
2.399
2.69017
2.72717
2.6697
2.63372
2.59751
2.55799
2.53383
2.50823
2.48143
2.46334
2.44405
2.42697
2.41035
2.38374
2.36751
2.34628
2.33204
2.31972
2.30828
2.30175
2.2903
2.28428
2.27325
2.26654
2.25909
2.25163
2.2443
2.23579
2.22679
2.21795
2.20827
2.19862
2.18764
2.18075
2.18161
2.19488
2.20803
2.23572
2.31584
2.39166
2.44493
2.49077
2.54519
2.57799
2.57442
2.58517
2.6153
2.6354
2.66678
2.69868
2.74113
2.79293
2.84023
2.89476
2.93463
2.9505
2.96067
2.97584
2.98454
2.98937
3.00025
3.02665
3.0575
3.08153
3.11956
3.15035
3.18875
3.21308
3.23372
3.24179
3.26267
3.26199
0.991246
0.991137
0.99101
0.990958
0.990844
0.990735
0.990604
0.990429
0.990276
0.99017
0.990084
0.989967
0.989786
0.989592
0.989477
0.989391
0.989339
0.989304
0.98929
0.989296
0.989309
0.989333
0.989376
0.989447
0.989526
0.989603
0.989695
0.989839
0.990019
0.990208
0.99041
0.990711
0.99109
0.991499
0.991975
0.992592
0.993404
0.994389
0.995326
0.996149
0.997019
0.99833
0.998932
1.002
1.00001
1.48225
2.23695
2.59355
2.62359
2.53272
2.50541
2.48346
2.45415
2.43762
2.42105
2.39271
2.3825
2.36409
2.34748
2.33668
2.31391
2.30132
2.26995
2.26053
2.24392
2.23825
2.23203
2.21804
2.21507
2.204
2.19794
2.19409
2.18949
2.18444
2.17859
2.17392
2.16913
2.16265
2.15582
2.14681
2.14953
2.15775
2.16446
2.18584
2.23043
2.30217
2.36249
2.42159
2.48967
2.50891
2.52859
2.53749
2.54472
2.55528
2.57265
2.60227
2.62985
2.66485
2.71299
2.76425
2.83763
2.89196
2.92085
2.94483
2.96106
2.96541
2.9737
2.98576
3.01756
3.05829
3.10102
3.14934
3.17912
3.21731
3.24055
3.25945
3.26777
3.27902
3.27694
0.991251
0.99114
0.991007
0.990954
0.99084
0.990727
0.990596
0.990422
0.990272
0.990163
0.990072
0.989954
0.989774
0.989579
0.989464
0.989375
0.989315
0.989277
0.989255
0.989258
0.98927
0.989293
0.989327
0.989387
0.989441
0.989479
0.989529
0.989598
0.989651
0.989685
0.989711
0.989692
0.989649
0.989532
0.98937
0.989129
0.988813
0.988431
0.987854
0.98693
0.985542
0.983856
0.982681
0.982493
0.990089
1.16968
1.79704
2.53529
2.531
2.45328
2.41508
2.38755
2.36231
2.35523
2.34801
2.32679
2.32001
2.28526
2.2828
2.27433
2.25421
2.23941
2.21039
2.19721
2.1812
2.18069
2.17013
2.15865
2.15506
2.14895
2.13496
2.13368
2.13046
2.12523
2.12021
2.11554
2.10989
2.10387
2.09727
2.08974
2.09054
2.09721
2.11066
2.14267
2.1755
2.2616
2.34248
2.3987
2.44178
2.46607
2.48591
2.49183
2.49875
2.5167
2.53205
2.54579
2.56616
2.59507
2.64685
2.69838
2.7682
2.8342
2.8837
2.91463
2.93476
2.94299
2.9521
2.96538
2.9984
3.04798
3.10065
3.15706
3.19275
3.2268
3.2476
3.26559
3.27557
3.28243
3.28758
0.99127
0.991148
0.991006
0.990951
0.990834
0.990722
0.990589
0.990414
0.990264
0.990156
0.990063
0.989937
0.989754
0.989562
0.989445
0.989355
0.989292
0.989249
0.989221
0.989223
0.989231
0.989253
0.989289
0.989348
0.98941
0.989476
0.98956
0.989667
0.989793
0.989974
0.990213
0.990473
0.990756
0.991136
0.991593
0.992141
0.992852
0.993708
0.994657
0.995112
0.996226
0.99642
0.998249
0.999216
1.00869
1.05675
1.47298
2.63802
2.63377
2.53321
2.45373
2.39661
2.34981
2.32414
2.3017
2.28004
2.26509
2.23653
2.23536
2.21802
2.21653
2.19328
2.17586
2.14365
2.14584
2.13541
2.1341
2.12324
2.11745
2.1037
2.09685
2.09318
2.08948
2.08412
2.07825
2.07207
2.06569
2.05859
2.05167
2.03865
2.03939
2.04415
2.05962
2.08021
2.13885
2.2189
2.32316
2.33724
2.38007
2.45339
2.45817
2.44858
2.45687
2.47675
2.49077
2.50777
2.53098
2.56309
2.59499
2.63427
2.69062
2.76731
2.83742
2.88331
2.91385
2.92533
2.92979
2.93949
2.97179
3.02488
3.09049
3.15244
3.19411
3.22566
3.24692
3.26208
3.27212
3.27731
3.28995
0.991276
0.991152
0.991004
0.990947
0.990829
0.990717
0.990582
0.990407
0.990258
0.990148
0.990052
0.989922
0.989736
0.989548
0.98943
0.989336
0.989265
0.989214
0.98918
0.989173
0.989179
0.989195
0.989224
0.989271
0.989307
0.989341
0.989384
0.989425
0.989447
0.989452
0.98948
0.98948
0.989447
0.989329
0.989141
0.988883
0.988566
0.988212
0.987692
0.986261
0.985592
0.983248
0.984156
0.979659
0.98681
1.00451
1.6555
2.65671
2.58832
2.48979
2.39489
2.33896
2.28994
2.26329
2.24046
2.23623
2.22602
2.20301
2.20619
2.19192
2.19796
2.17522
2.15999
2.12416
2.1311
2.12085
2.12228
2.11279
2.10823
2.0916
2.08619
2.08233
2.07847
2.07316
2.06702
2.05897
2.05115
2.04288
2.03161
2.0155
2.01393
2.02153
2.02003
2.05293
2.10449
2.20915
2.27568
2.31662
2.36839
2.38882
2.37356
2.41101
2.46864
2.47886
2.48095
2.48612
2.5042
2.52736
2.54656
2.57854
2.62462
2.6987
2.78282
2.84775
2.89025
2.90893
2.91744
2.92616
2.94865
2.99504
3.06409
3.13797
3.18861
3.21926
3.24002
3.24939
3.25971
3.26164
3.28667
0.99129
0.991157
0.991004
0.990944
0.990824
0.99071
0.990572
0.990397
0.990249
0.990139
0.990038
0.989903
0.989713
0.989528
0.989408
0.989311
0.989236
0.98918
0.989142
0.989127
0.989131
0.989142
0.989169
0.989214
0.98925
0.989291
0.989354
0.98945
0.989556
0.989665
0.989843
0.990105
0.99039
0.990675
0.990984
0.991426
0.99205
0.99283
0.993725
0.994191
0.99537
0.99564
0.998472
0.997588
1.00557
1.02603
1.85142
2.50904
2.52934
2.4574
2.42412
2.38039
2.32907
2.2956
2.26944
2.26164
2.25089
2.22566
2.22729
2.21024
2.21448
2.18953
2.17595
2.13935
2.14489
2.13451
2.13816
2.13006
2.12327
2.10529
2.10159
2.09442
2.09048
2.08531
2.07896
2.07192
2.06292
2.05338
2.04059
2.02432
2.01993
2.02315
2.02389
2.0626
2.13012
2.22887
2.27028
2.3276
2.32343
2.30724
2.3414
2.39961
2.42535
2.42076
2.4326
2.45653
2.47865
2.49195
2.50389
2.5347
2.57785
2.63859
2.72008
2.80179
2.86146
2.89048
2.90031
2.90664
2.92262
2.9589
3.02584
3.10621
3.17104
3.20322
3.22319
3.22538
3.23654
3.23498
3.27545
0.991295
0.991161
0.991004
0.990941
0.990821
0.990703
0.990562
0.990387
0.990241
0.990129
0.990028
0.989886
0.989691
0.989509
0.989388
0.989286
0.989204
0.989139
0.989093
0.989071
0.989068
0.989072
0.989089
0.989116
0.989131
0.989147
0.989177
0.9892
0.989208
0.989208
0.989241
0.98927
0.989261
0.989199
0.989045
0.988878
0.98872
0.988539
0.988217
0.987501
0.987055
0.986509
0.986517
0.986427
0.992016
1.07119
1.91173
2.29449
2.41516
2.44205
2.42732
2.39783
2.34297
2.31459
2.28432
2.27345
2.2615
2.23672
2.23713
2.2159
2.21516
2.18628
2.17444
2.14394
2.14651
2.13929
2.14392
2.13644
2.12882
2.11164
2.1098
2.10388
2.10015
2.09397
2.08825
2.08047
2.07254
2.06086
2.05052
2.03219
2.02573
2.0266
2.04251
2.08851
2.18551
2.25893
2.33677
2.34447
2.26666
2.27366
2.35885
2.40347
2.3669
2.36267
2.40665
2.44274
2.45391
2.46335
2.47961
2.50484
2.54117
2.58798
2.65958
2.75318
2.8376
2.87492
2.89114
2.89701
2.90812
2.93281
2.98589
3.06537
3.14424
3.1811
3.20022
3.19563
3.20684
3.20735
3.25311
0.991304
0.991165
0.991003
0.990938
0.990815
0.990694
0.990549
0.990375
0.99023
0.99012
0.990014
0.989867
0.989665
0.989483
0.98936
0.989253
0.989165
0.989095
0.989045
0.989019
0.98901
0.989011
0.989021
0.989035
0.989041
0.989055
0.989096
0.989161
0.989221
0.989287
0.989424
0.989642
0.989857
0.990077
0.990286
0.990588
0.991039
0.991598
0.992211
0.992814
0.993229
0.994527
0.994725
0.997962
1.00683
1.29018
1.98218
2.13225
2.24561
2.34938
2.3986
2.37864
2.33805
2.30879
2.27543
2.26096
2.24906
2.24183
2.23981
2.2257
2.22112
2.18858
2.17625
2.15257
2.15154
2.14676
2.15074
2.1437
2.13564
2.1194
2.11762
2.11311
2.10941
2.10234
2.09657
2.08759
2.07883
2.06729
2.05558
2.03547
2.02848
2.0271
2.06304
2.15224
2.26019
2.29635
2.32091
2.3296
2.29967
2.31543
2.35705
2.3441
2.33759
2.3825
2.42739
2.43508
2.43342
2.44508
2.47095
2.49708
2.52113
2.55381
2.60443
2.68927
2.78313
2.841
2.86886
2.88014
2.89012
2.90573
2.94759
3.02191
3.11051
3.15525
3.17465
3.17552
3.18782
3.18957
3.22282
0.991307
0.991167
0.991003
0.990935
0.990808
0.990685
0.990537
0.990364
0.99022
0.990109
0.990002
0.989849
0.989642
0.989459
0.989332
0.98922
0.989124
0.989045
0.988985
0.988952
0.988938
0.988932
0.98893
0.988919
0.988896
0.988887
0.988893
0.988913
0.988923
0.98892
0.988941
0.988994
0.989
0.988993
0.988952
0.988912
0.988883
0.988877
0.988872
0.988919
0.989009
0.989469
0.989225
0.992493
1.01203
1.57251
1.97762
2.05823
2.12454
2.23968
2.36963
2.37919
2.3731
2.35196
2.31906
2.29904
2.27452
2.27494
2.26017
2.25734
2.23256
2.21438
2.18442
2.17631
2.16543
2.1696
2.16598
2.16523
2.1496
2.14031
2.13709
2.13275
2.1254
2.11894
2.1104
2.10181
2.08913
2.07821
2.05872
2.03869
2.02901
2.03656
2.11168
2.23311
2.33011
2.36067
2.30949
2.27657
2.31754
2.35468
2.34249
2.29321
2.31687
2.37258
2.39768
2.39651
2.41019
2.43121
2.44747
2.46066
2.47607
2.50955
2.55834
2.63951
2.73113
2.81432
2.86017
2.87567
2.8845
2.89245
2.91935
2.97819
3.06871
3.12416
3.14988
3.16033
3.17833
3.18066
3.20087
0.991312
0.991169
0.991001
0.990931
0.990802
0.990675
0.990523
0.99035
0.990207
0.990097
0.989986
0.989829
0.989615
0.989431
0.9893
0.98918
0.989076
0.988987
0.98892
0.988881
0.988862
0.988855
0.988845
0.988817
0.988773
0.988741
0.988751
0.988791
0.988841
0.988878
0.988947
0.989068
0.989219
0.989372
0.989539
0.989697
0.989885
0.990146
0.990507
0.990738
0.991141
0.991308
0.992487
0.99606
1.03146
1.79683
2.01184
2.04266
2.06732
2.11868
2.21137
2.30989
2.34397
2.343
2.33408
2.31886
2.29126
2.29213
2.27528
2.26776
2.23338
2.2174
2.18602
2.18124
2.17226
2.17632
2.17184
2.16877
2.15127
2.14767
2.14475
2.14046
2.13448
2.12761
2.11891
2.10941
2.09862
2.08395
2.06252
2.04439
2.0461
2.09465
2.24016
2.30617
2.32881
2.38664
2.3863
2.33198
2.3257
2.34259
2.32834
2.31859
2.34859
2.37112
2.3628
2.38274
2.41207
2.43784
2.44602
2.45494
2.46699
2.49729
2.54207
2.60995
2.69798
2.79049
2.85113
2.86954
2.87725
2.88182
2.90104
2.94469
3.0229
3.09073
3.12399
3.14444
3.17076
3.17578
3.19144
0.991313
0.99117
0.990999
0.990927
0.990793
0.990663
0.990509
0.990338
0.990194
0.990082
0.989969
0.989808
0.989589
0.989405
0.989269
0.989142
0.989028
0.988928
0.988849
0.988798
0.988772
0.988759
0.988741
0.988693
0.988618
0.988544
0.988526
0.988533
0.988541
0.98854
0.988549
0.988577
0.988619
0.988647
0.988653
0.988647
0.988637
0.988645
0.988739
0.988606
0.988986
0.987867
0.9892
0.995453
1.16852
1.94111
2.04006
2.04796
2.04946
2.06756
2.09646
2.18034
2.26716
2.33215
2.33461
2.32992
2.31637
2.2926
2.29229
2.26855
2.24887
2.2077
2.19449
2.17709
2.18197
2.17686
2.17887
2.1659
2.1559
2.15181
2.1485
2.14276
2.13633
2.12844
2.12059
2.11056
2.09735
2.07992
2.06122
2.06191
2.10108
2.22863
2.37566
2.432
2.3505
2.33089
2.36239
2.36414
2.33004
2.31215
2.31471
2.33208
2.34797
2.34161
2.34579
2.36948
2.39152
2.41274
2.42332
2.43802
2.45366
2.47318
2.50396
2.55409
2.63472
2.7303
2.81302
2.84265
2.85733
2.86337
2.88005
2.91384
2.97913
3.05492
3.09876
3.12893
3.1638
3.1721
3.18752
0.991315
0.991168
0.990995
0.990921
0.990786
0.990653
0.990494
0.990322
0.990178
0.990065
0.989949
0.989782
0.989557
0.989374
0.989233
0.989099
0.988972
0.988859
0.988769
0.988709
0.988674
0.988663
0.988637
0.988574
0.98848
0.98838
0.988337
0.988326
0.988333
0.988354
0.988394
0.988461
0.988526
0.988579
0.988649
0.988691
0.988768
0.988841
0.989043
0.988909
0.989322
0.988437
0.99123
1.00123
1.4625
1.97957
2.02881
2.03183
2.03129
2.04023
2.05479
2.08209
2.15559
2.2484
2.29602
2.32476
2.32564
2.30769
2.31441
2.28663
2.26509
2.21416
2.201
2.18437
2.19203
2.18515
2.18719
2.1718
2.16396
2.16019
2.15628
2.15028
2.14316
2.1354
2.12687
2.11548
2.09984
2.08957
2.09969
2.1668
2.29836
2.42642
2.38045
2.42072
2.42838
2.36968
2.34267
2.35421
2.34326
2.31897
2.33534
2.35315
2.34538
2.33157
2.34911
2.36917
2.38121
2.38942
2.4061
2.42424
2.43968
2.44978
2.46981
2.51132
2.58233
2.67357
2.77279
2.82173
2.84711
2.85524
2.86816
2.89173
2.94297
3.01747
3.07315
3.11095
3.15414
3.1676
3.18691
0.991309
0.991165
0.990991
0.990916
0.990781
0.990642
0.990479
0.990307
0.990163
0.990048
0.989928
0.989756
0.989523
0.989339
0.989195
0.989056
0.988916
0.988788
0.988686
0.988612
0.988567
0.988551
0.988512
0.988422
0.988308
0.988203
0.988116
0.98805
0.988012
0.988004
0.988005
0.988016
0.988051
0.988082
0.988087
0.988069
0.988038
0.988069
0.988095
0.988264
0.988667
0.988813
0.992494
1.01314
1.72873
2.05557
2.06877
2.06045
2.05343
2.04936
2.04521
2.04739
2.07685
2.12706
2.19883
2.29049
2.31499
2.30853
2.31732
2.2975
2.27306
2.21801
2.20781
2.19556
2.20322
2.19791
2.19716
2.17972
2.17413
2.17293
2.16926
2.16327
2.15597
2.14671
2.14525
2.14169
2.14155
2.20059
2.29407
2.41666
2.48823
2.55701
2.46619
2.40492
2.41169
2.39368
2.35556
2.34539
2.33839
2.32989
2.34037
2.34808
2.3346
2.33379
2.34767
2.35932
2.36618
2.37368
2.38864
2.40388
2.41786
2.4335
2.45308
2.4919
2.55328
2.63703
2.73774
2.80208
2.83663
2.84659
2.85672
2.87232
2.91001
2.97719
3.04295
3.08792
3.14034
3.16188
3.18371
0.991307
0.99116
0.990984
0.990908
0.990773
0.990631
0.990463
0.990289
0.990145
0.990028
0.989905
0.989728
0.989484
0.989297
0.989148
0.989004
0.988851
0.988706
0.98859
0.988507
0.98846
0.988436
0.988374
0.988234
0.988115
0.988032
0.98795
0.987827
0.987743
0.987704
0.987693
0.987691
0.987699
0.98773
0.98775
0.987744
0.987671
0.987484
0.986936
0.986967
0.986231
0.9869
0.990834
1.06158
1.91462
2.10255
2.10905
2.10063
2.08912
2.0768
2.06199
2.05089
2.0503
2.06204
2.09781
2.1598
2.23936
2.27016
2.28098
2.28951
2.25737
2.22731
2.19432
2.19778
2.19388
2.19822
2.18789
2.17944
2.17213
2.1753
2.17829
2.18141
2.18664
2.20069
2.24259
2.30747
2.39187
2.49755
2.60274
2.61527
2.57089
2.52319
2.49409
2.44506
2.41387
2.40319
2.37661
2.35718
2.35395
2.35168
2.34773
2.3414
2.33864
2.34436
2.34786
2.34882
2.3503
2.35843
2.37094
2.38642
2.40315
2.42013
2.43875
2.47161
2.52409
2.6049
2.70623
2.78201
2.82534
2.83626
2.84584
2.85393
2.8836
2.94183
3.01141
3.06673
3.12499
3.15599
3.18163
0.991295
0.991152
0.990977
0.9909
0.990764
0.99062
0.990448
0.990272
0.990126
0.990007
0.989883
0.989701
0.989447
0.989254
0.989098
0.988948
0.988785
0.988622
0.988491
0.988395
0.988341
0.988312
0.988223
0.988033
0.987902
0.987814
0.987724
0.987581
0.987424
0.987341
0.987299
0.987287
0.987292
0.98731
0.987299
0.987233
0.987006
0.986769
0.986202
0.986428
0.985051
0.987098
0.992001
1.24008
2.04571
2.11529
2.12045
2.11494
2.10667
2.09497
2.07896
2.06296
2.0505
2.05336
2.05406
2.08243
2.13762
2.22695
2.27617
2.2661
2.26659
2.20727
2.19545
2.19568
2.20295
2.20889
2.21471
2.21325
2.21778
2.2624
2.30856
2.3682
2.42635
2.49106
2.57669
2.6576
2.71914
2.70462
2.67187
2.63049
2.56686
2.49698
2.46835
2.44021
2.41956
2.40583
2.38891
2.37474
2.37351
2.3677
2.35513
2.34854
2.34964
2.34963
2.34578
2.34676
2.35191
2.35563
2.36512
2.37912
2.39651
2.41322
2.43112
2.4559
2.50247
2.57578
2.67193
2.75901
2.81173
2.82452
2.8348
2.83991
2.86166
2.91006
2.97729
3.04074
3.10512
3.14589
3.17695
0.991291
0.991144
0.990967
0.990889
0.990752
0.990609
0.990432
0.990253
0.990104
0.989983
0.989858
0.989673
0.989408
0.989203
0.989042
0.988886
0.988712
0.988531
0.988383
0.98827
0.988203
0.988173
0.98807
0.987839
0.987685
0.987586
0.987484
0.987334
0.987121
0.987001
0.986929
0.986891
0.98686
0.986826
0.986709
0.986576
0.986338
0.986347
0.986162
0.986765
0.98585
0.989221
0.997183
1.50242
2.06808
2.10738
2.10993
2.10752
2.10278
2.09798
2.08943
2.07741
2.06424
2.05718
2.05327
2.04542
2.06653
2.1411
2.22192
2.27451
2.2956
2.22451
2.25185
2.28197
2.31051
2.37154
2.4187
2.47119
2.52443
2.60097
2.66508
2.73306
2.78064
2.79774
2.81848
2.79137
2.77089
2.73741
2.68101
2.63466
2.5811
2.52269
2.48698
2.46361
2.43416
2.41096
2.39167
2.3793
2.37461
2.36405
2.35266
2.34851
2.34768
2.34208
2.33641
2.33767
2.34006
2.34593
2.35421
2.36941
2.38719
2.40249
2.41856
2.44098
2.48016
2.54609
2.63691
2.73175
2.79383
2.81094
2.8232
2.82633
2.84288
2.8828
2.94282
3.01252
3.08444
3.13167
3.17365
0.991272
0.99113
0.990955
0.990876
0.990738
0.990595
0.990415
0.990233
0.990081
0.989957
0.989832
0.989645
0.989371
0.989152
0.988982
0.988818
0.988638
0.988439
0.988276
0.988147
0.988061
0.988014
0.987901
0.987643
0.987451
0.987335
0.987219
0.987051
0.986793
0.986632
0.986543
0.986504
0.986504
0.98648
0.986377
0.986143
0.986001
0.985979
0.986148
0.986584
0.986738
0.989998
1.01003
1.73048
2.11024
2.12729
2.12482
2.12439
2.12106
2.11577
2.11133
2.10537
2.09279
2.0726
2.0591
2.05817
2.07297
2.09061
2.19014
2.30903
2.3748
2.42256
2.46792
2.5604
2.61936
2.69883
2.76048
2.7953
2.82317
2.84456
2.85552
2.86121
2.85653
2.83632
2.82162
2.79634
2.76887
2.73908
2.70076
2.66422
2.6204
2.57278
2.53407
2.50118
2.46399
2.44003
2.41897
2.40432
2.39371
2.37694
2.36436
2.35885
2.35397
2.34585
2.33898
2.33774
2.33692
2.33637
2.3438
2.35637
2.37293
2.38863
2.40483
2.42624
2.4611
2.52139
2.60858
2.70279
2.77276
2.79629
2.81275
2.81504
2.82796
2.85983
2.91153
2.98283
3.05652
3.11174
3.16938
0.991263
0.991118
0.99094
0.990862
0.990722
0.99058
0.990398
0.990212
0.990055
0.989929
0.989803
0.989613
0.989332
0.989097
0.988915
0.988744
0.988557
0.988344
0.988163
0.988014
0.987907
0.987838
0.987712
0.987438
0.987212
0.987072
0.986937
0.986739
0.98643
0.986222
0.986098
0.986038
0.986015
0.98589
0.985624
0.98499
0.984562
0.98409
0.983897
0.982858
0.983422
0.987329
1.04825
1.91666
2.12679
2.14694
2.1478
2.14738
2.14034
2.13233
2.12729
2.12507
2.1236
2.11742
2.10624
2.10247
2.13051
2.21614
2.37675
2.59059
2.67284
2.76519
2.79743
2.83892
2.84895
2.86967
2.87516
2.87735
2.86165
2.85721
2.84885
2.84606
2.84279
2.83134
2.818
2.79805
2.77635
2.75419
2.72558
2.69389
2.65567
2.61727
2.57218
2.53112
2.48443
2.45168
2.42492
2.40642
2.39205
2.37587
2.36406
2.35724
2.35162
2.34345
2.33822
2.3373
2.33751
2.33662
2.33922
2.34891
2.36342
2.37874
2.3937
2.41331
2.44583
2.50098
2.5824
2.67222
2.74966
2.78086
2.80204
2.80351
2.81341
2.83853
2.88204
2.95223
3.02788
3.0929
3.16189
0.991239
0.991099
0.990924
0.990846
0.990705
0.990563
0.99038
0.990188
0.990027
0.989899
0.989772
0.98958
0.989292
0.98904
0.988846
0.988664
0.988471
0.988255
0.98806
0.987889
0.987751
0.987642
0.987495
0.987221
0.986968
0.9868
0.986643
0.986418
0.986066
0.985826
0.985693
0.985644
0.985667
0.985561
0.985329
0.984692
0.984462
0.98425
0.984592
0.983677
0.985782
0.991175
1.22502
2.04264
2.1233
2.13359
2.13331
2.13237
2.12863
2.12546
2.1265
2.13182
2.14265
2.15017
2.15905
2.18444
2.27615
2.46206
2.6794
2.81117
2.83883
2.83368
2.84727
2.85251
2.85596
2.86048
2.85638
2.85645
2.85011
2.84296
2.8344
2.82916
2.82718
2.82224
2.81329
2.79918
2.78223
2.76331
2.74374
2.72234
2.69259
2.66048
2.61688
2.5688
2.52077
2.48279
2.45396
2.43173
2.41113
2.39384
2.37962
2.36906
2.36036
2.34927
2.33988
2.33388
2.33229
2.33161
2.33253
2.34198
2.35714
2.37318
2.38824
2.4066
2.43484
2.48216
2.55622
2.64165
2.72495
2.76461
2.79095
2.79273
2.80039
2.8199
2.85681
2.92289
2.99915
3.07193
3.15183
0.991223
0.991081
0.990905
0.990828
0.990685
0.990546
0.990361
0.990164
0.989999
0.989867
0.989739
0.989544
0.98925
0.98898
0.988773
0.988579
0.988375
0.988162
0.987976
0.987804
0.987613
0.987414
0.987222
0.986975
0.986711
0.986516
0.986335
0.986074
0.98566
0.985366
0.985197
0.985113
0.985102
0.984902
0.984545
0.983743
0.983279
0.982957
0.983272
0.982675
0.985869
0.997681
1.51497
2.05603
2.10085
2.10667
2.11236
2.1155
2.11799
2.1204
2.1261
2.13528
2.14946
2.16948
2.21797
2.33058
2.52964
2.73715
2.84238
2.86354
2.84704
2.8423
2.84253
2.83922
2.83052
2.82666
2.82058
2.82486
2.82827
2.82482
2.82293
2.81863
2.81667
2.81455
2.80998
2.79961
2.78739
2.77406
2.75852
2.74109
2.71744
2.69037
2.65352
2.60786
2.55992
2.51987
2.48162
2.44988
2.42238
2.40086
2.38281
2.36961
2.35903
2.34755
2.33889
2.33591
2.33471
2.33313
2.33349
2.33869
2.35071
2.36647
2.382
2.39897
2.42298
2.46412
2.53191
2.61456
2.70069
2.74834
2.77947
2.78127
2.78679
2.80203
2.83305
2.89505
2.97146
3.04798
3.13796
0.991194
0.991057
0.990885
0.990808
0.990664
0.990525
0.990342
0.990138
0.989968
0.989831
0.989704
0.989507
0.989207
0.988914
0.988692
0.988477
0.988259
0.988049
0.987879
0.987739
0.98755
0.987259
0.986943
0.986682
0.986434
0.986231
0.986043
0.985767
0.985287
0.984935
0.984747
0.984665
0.98469
0.984625
0.984374
0.983889
0.98333
0.983486
0.983549
0.984225
0.988089
1.01715
1.76876
2.09276
2.11818
2.12237
2.12332
2.12212
2.12229
2.12586
2.1342
2.14825
2.17133
2.23037
2.37206
2.5948
2.78169
2.85435
2.86
2.84662
2.82543
2.82697
2.82708
2.82022
2.81086
2.80855
2.80257
2.802
2.80312
2.80189
2.80643
2.8043
2.80523
2.8031
2.80019
2.79431
2.78646
2.77675
2.76478
2.75133
2.73389
2.71271
2.68429
2.64799
2.60133
2.55437
2.50911
2.47004
2.43919
2.41529
2.39575
2.37947
2.3668
2.35297
2.34397
2.3396
2.33618
2.33231
2.33176
2.33564
2.34564
2.35988
2.37517
2.39137
2.4134
2.45027
2.51229
2.59214
2.67895
2.73215
2.76691
2.769
2.77393
2.78569
2.81181
2.86983
2.94407
3.02358
3.12396
0.99117
0.991033
0.99086
0.990786
0.990641
0.990504
0.990321
0.990112
0.989935
0.989795
0.989667
0.989468
0.989164
0.988844
0.988606
0.988371
0.988132
0.987921
0.987756
0.987641
0.987461
0.98713
0.986684
0.986372
0.986117
0.985913
0.985738
0.985456
0.984927
0.984465
0.984219
0.984077
0.984059
0.983992
0.983634
0.982904
0.981482
0.981083
0.979506
0.98044
0.986091
1.10581
1.94602
2.11083
2.13521
2.13888
2.13377
2.12794
2.12588
2.12958
2.14615
2.17434
2.24117
2.40082
2.63841
2.80984
2.84144
2.8378
2.84108
2.81563
2.80258
2.80822
2.80704
2.80258
2.79618
2.79448
2.78991
2.78696
2.78412
2.7794
2.7812
2.77741
2.77974
2.78027
2.78103
2.78038
2.77857
2.77387
2.76601
2.75548
2.74194
2.72565
2.70358
2.67409
2.63602
2.59072
2.54165
2.49718
2.46142
2.43324
2.40974
2.38843
2.37064
2.35574
2.3452
2.33898
2.33506
2.3312
2.33054
2.33386
2.34276
2.35574
2.37088
2.38686
2.40692
2.4405
2.49723
2.57339
2.65879
2.71455
2.75279
2.75618
2.76131
2.77027
2.79171
2.84503
2.91815
2.99804
3.10699
0.991136
0.991004
0.990835
0.990761
0.990615
0.990479
0.990299
0.990084
0.989901
0.989756
0.989627
0.989427
0.989121
0.988774
0.988519
0.988264
0.988008
0.987787
0.987619
0.987519
0.987358
0.987013
0.986453
0.986081
0.98579
0.985562
0.985394
0.985133
0.98459
0.983998
0.983683
0.983496
0.983419
0.983445
0.983188
0.982705
0.981646
0.981413
0.980938
0.984192
0.993714
1.40354
2.05276
2.07832
2.09521
2.10486
2.11248
2.11472
2.11788
2.13467
2.18434
2.27509
2.44231
2.66477
2.82922
2.84173
2.814
2.81503
2.80845
2.78461
2.77901
2.78496
2.7846
2.78139
2.77682
2.77657
2.77468
2.77157
2.76837
2.76545
2.76227
2.75592
2.75722