/*--------------------------------*- C++ -*----------------------------------*\
| =========                 |                                                 |
| \\      /  F ield         | OpenFOAM: The Open Source CFD Toolbox           |
|  \\    /   O peration     | Version:  2.2.x                                 |
|   \\  /    A nd           | Web:      www.OpenFOAM.org                      |
|    \\/     M anipulation  |                                                 |
\*---------------------------------------------------------------------------*/
FoamFile
{
    version     2.0;
    format      ascii;
    class       volScalarField;
    location    "1.85";
    object      divBf;
}
// * * * * * * * * * * * * * * * * * * * * * * * * * * * * * * * * * * * * * //

dimensions      [1 -3 -2 0 0 -1 0];

internalField   nonuniform List<scalar> 
14161
(
1000.26
318.915
309.496
261.869
218.412
173.735
127.645
79.4194
27.7619
-27.9282
-88.1945
-153.9
-226.401
-307.55
-396.519
-491.389
-600.236
-719.408
-840.873
-972.882
-1120.6
-1276.06
-1426.41
-1590.56
-1765
-1947.81
-2105.01
-2279.95
-2446.95
-2615.22
-2781.62
-2950.48
-3153.72
-3276.76
-3389.55
-3560.98
-3733.17
-3802.42
-3254.74
-3390.62
-1973.06
8764.73
1808.61
6186.93
3646.75
-25810.7
-26724.2
-27021
-27191.5
-27175.6
-28052.7
-27154.1
-28152.6
-28015
-26931.8
-27686.5
-26286.4
-25743.2
-25818.6
-23426.6
-23361.7
-22417.4
-20054.9
-19776.5
-18554
-16082.8
-15363.8
-13629.4
-11618.1
-10876.7
-9242.54
-6698.47
-5602.71
-3799.29
-1765.34
-674.15
1399.62
3089.4
4332.51
6046.42
7929.28
8813.32
10287.8
11496.8
12392.8
13785
14877.9
14871.5
15920
16296.6
15796.2
15509.5
16658.5
16102.3
15826.7
15058.7
12673.2
12693.3
10911.5
9896.5
9011.28
7394.2
6575.87
4568.15
321.306
-6424.26
-15231
-18113
-16263.3
-15324.9
-14379.8
-13749.8
-12598.7
-11769.1
-8471.18
-6101.61
6531.22
-8640.89
52430
751.352
72.0942
63.3887
15.4212
-29.1343
-75.5895
-124.03
-175.182
-229.97
-289.1
-353.926
-424.64
-502.372
-586.336
-679.342
-783.354
-894.128
-1014.31
-1142.97
-1284.85
-1431.76
-1584.95
-1744.97
-1923.27
-2094.34
-2269.61
-2442.32
-2619.14
-2792.14
-2982.57
-3152.16
-3339.59
-3488.97
-3675.11
-3765.48
-4007.72
-4113.85
-3981.74
-3522.51
-2680.98
-1586.38
8074.28
3830.39
517.682
1409.7
-23682.7
-24151.7
-24572.8
-24690.6
-24807.9
-24896.8
-24823.6
-25001.2
-24566.1
-24031.6
-23887.8
-23293.1
-22512.2
-22114.8
-20522.8
-19809.3
-19407.5
-17677.3
-16367.5
-15594.2
-13913.1
-12724.3
-11350.4
-9341.3
-8084.56
-6576.01
-4384.51
-3381.54
-2077.41
70.2878
1223.78
2973.53
4699.28
5945.58
7359.84
9425.54
10443.8
12021.9
13292.2
13954.6
15130.9
16887.2
16718.9
17266
18357.1
17870.7
18265
18510.8
18170.1
16599.1
16006.6
14126.5
13403.2
11574.7
8769.84
5173.33
1031.54
-3334.98
-9018.8
-14824.5
-21217.7
-25615
-22690
-20606.9
-18300.3
-16626.8
-15351.6
-13920.9
-12447.2
-9007.16
-7687.04
5249.9
-10179.6
44417.2
506.686
-168.138
-174.847
-221.768
-265.965
-312.573
-361.901
-414.528
-470.943
-532.23
-599.328
-672.01
-751.926
-839.606
-935.147
-1041.63
-1154.83
-1277.77
-1411.35
-1551.47
-1700.35
-1860.14
-2023.32
-2195.12
-2371.48
-2553.42
-2729.18
-2909.06
-3091.65
-3273.95
-3446.99
-3637.31
-3800.34
-3997.1
-4072.44
-4332.87
-4381.58
-4184.27
-4040.78
-3842.93
-2700.93
4615.76
-1345.48
23.1892
981.264
-18746.9
-19661.5
-19730.5
-20225.7
-20671.1
-20979.6
-21427
-21449.8
-21466.3
-21327.1
-20935.3
-20687.8
-19906.8
-18942.1
-18573.4
-17065
-16542.3
-15546.2
-13653.4
-12992.7
-11655.6
-10158.9
-9330.16
-7567.31
-6155.16
-5033.87
-3188.09
-1940.23
-655.03
1410.77
2901.5
4256.5
5957.81
7123.26
8220.19
10262.6
11514
12871.9
14166.2
14529.8
15398.6
16763.2
17385.3
18039.6
18899.2
18989.8
19412.2
19961.1
18807.7
17598.1
17433.7
15938.3
14649.4
13014.7
11533.5
9357.92
6766.05
4906.24
1246.54
-7266.31
-6116.48
-12204.1
-13468.5
-13646.1
-12877.2
-12125.8
-11768.4
-10858.4
-10249.7
-7051.65
-6167.02
5277.61
-8981.04
39347.1
268.281
-400.791
-404.27
-448.778
-491.442
-536.812
-585.673
-638.413
-695.178
-757.007
-824.769
-899.143
-980.793
-1069.49
-1167.04
-1275.12
-1389.06
-1512.65
-1649.53
-1789.55
-1937.54
-2099
-2266.65
-2437.2
-2615.31
-2796.36
-2975.61
-3160.97
-3340.32
-3522.83
-3711.16
-3891.11
-4057.7
-4237.34
-4325.94
-4509.51
-4516.31
-4403.15
-3988.94
-4440.08
-1875
-1605.33
-6949.72
-6887.49
-5331.51
-21195.6
-19892.6
-19584
-19363.6
-19306.6
-19181.9
-19147.8
-19161.9
-18956.5
-18371.4
-18826.2
-17763.4
-17805.1
-16046.5
-16034
-15359.6
-13909.7
-13571.8
-11538
-10903
-9829.91
-8058.77
-7278.97
-5757.47
-4124.93
-2990.71
-1501.01
-167.3
904.979
2670.3
4377.45
5625.96
7380.08
8514.97
9573.45
11195.8
12869
13661.9
15129.7
15756.9
16064.6
17823
18793.6
19462.5
20161.5
20970.5
20439.5
20132.3
19562.2
19106.8
18333.9
16910.2
15830.5
14156.8
11283.1
7936.41
3447.11
40.5994
-1216.83
-3950.85
-5673.96
-7228.7
-9205.65
-9240.7
-9551.37
-9570.08
-9368.23
-8724.97
-8466.22
-5464.02
-5490.69
4517.69
-7900.65
33520.2
36.9242
-624.45
-623.659
-664.506
-704.688
-747.802
-794.891
-846.304
-902.619
-963.919
-1031.56
-1105.69
-1187.77
-1277.2
-1375.4
-1480.61
-1598.32
-1723.33
-1855.24
-1996.32
-2147.61
-2309.4
-2474.95
-2645.69
-2824.6
-3002.93
-3186.06
-3370.99
-3547.44
-3748.77
-3921.91
-4103.1
-4265.83
-4415.58
-4548.14
-4681.82
-4590.99
-4534.64
-4186.9
-4650.51
-3856.24
-2181.63
-10423
-6169.23
-9350.99
-20509.5
-19568.2
-18880
-18453.3
-18087.5
-17718
-17692.6
-17661.5
-17458
-16875
-17534.6
-16202
-16056.3
-14578.1
-14063.2
-13751.7
-11822.6
-11406.9
-9748.26
-9020.53
-8216.5
-6519
-5484.08
-4472.05
-3003.49
-2066.11
-164.639
1105.69
1993.54
3435.26
5126.85
6677.1
8427.94
9369.71
10598.2
12002
13507.4
14656.7
15824.4
16870.9
18145.7
19302.1
20539.9
21213.4
21269.7
21375
21486.9
21400.8
21127.5
20563.4
19758.2
19097.7
18524.4
17201.3
14556.2
12614.6
9714.97
4657.34
1165.18
-409.689
-2734.86
-5803.93
-6332.07
-7018.21
-7646.82
-7533.33
-7695.73
-7238.1
-6964.95
-4161.81
-4575.5
3341.95
-6954.84
28191.1
-185.509
-838.152
-831.872
-868.284
-905.165
-945.127
-989.688
-1038.77
-1093.54
-1153.71
-1220.43
-1293.65
-1374.51
-1464.03
-1560.5
-1666.19
-1784.61
-1907.72
-2036.46
-2180.65
-2332.19
-2489.73
-2653.27
-2831.09
-3006.15
-3185.19
-3366.44
-3546.04
-3738.04
-3925.08
-4107.55
-4271.54
-4454.7
-4548.78
-4727.91
-4784.71
-4646.13
-4583.86
-4361.14
-4556.09
-5128.46
-3438.05
-12018.8
-7132.94
-13324.9
-21989.3
-20954.6
-19216.8
-18172.1
-17358.5
-16827.5
-16592.2
-16028.8
-15686.5
-15142.3
-15054.7
-14282.8
-13626.3
-12977.6
-12180.9
-12115
-10555.6
-9874.05
-8605.98
-7604.76
-6980.18
-5472.97
-4375.26
-2833.8
-1538.95
-1057.76
523.818
2470.53
3283.81
4560.97
5993.76
7057.18
9129.04
9731.49
11600.1
12616.9
13873.9
15911.3
17437.2
18886.2
19960.7
21078.5
21596.4
21511.6
22439.3
22779.8
23074.1
23229.2
23196.3
23350.4
23149
23025.7
21759.4
20558.6
18032.3
11998
8405.4
6464.66
3291.12
755.382
-1741.71
-3926.4
-3742.52
-5723.2
-5876.48
-6071.3
-6252.26
-5917.98
-5710.14
-3173.36
-3906.36
2250.86
-6195.01
23364.1
-398.019
-1040.83
-1027.93
-1059.29
-1092.37
-1128.38
-1169.7
-1215.85
-1268.24
-1326.47
-1391.27
-1463.27
-1542.94
-1630.74
-1726.41
-1830.65
-1946.34
-2068.44
-2199.62
-2340.85
-2490.86
-2645.66
-2807.38
-2986.84
-3161.93
-3338.22
-3515.22
-3704.09
-3893.75
-4070.57
-4267.86
-4422.39
-4598.8
-4656.42
-4864.63
-4880.59
-4686.26
-4611.15
-4411.4
-4319.9
-4895.19
-4102.68
-12494.3
-6840.72
-13171.6
-19099.1
-19913.6
-18992.3
-17711.2
-16977.4
-16322.6
-15581.3
-15189.6
-14945.8
-14839.1
-14063.5
-13467.9
-12546.4
-12088.7
-11514.8
-10133
-9534.33
-8407.89
-7894.24
-6750.33
-5868.53
-4703.65
-3016.06
-1874.63
-590.792
225.951
1254.32
3549.73
4780.8
5805.5
7265.28
8113.48
10026.1
11739.8
13532.4
14628.1
16374.9
17700.1
19093.8
20848.2
21279.7
21891.2
22864.6
23723.1
24336
24613.9
25792.8
27082.8
27522.6
28146.8
28282.9
28925.1
28532.7
21669.8
16360
12798.1
8501.05
5556.06
2964.32
954.15
-1489.49
-2133.63
-3129.71
-4468.87
-4783.19
-4884.48
-5077.25
-4867.1
-4669.31
-2601.95
-3314.16
1309.7
-5745.39
19389.9
-599.271
-1231.61
-1211.44
-1236.87
-1265.91
-1297.31
-1335
-1377.98
-1427.2
-1482.92
-1545.62
-1615.47
-1693.2
-1779.62
-1873.75
-1975.99
-2087.26
-2208.96
-2342.24
-2480.11
-2626.49
-2777.63
-2946.91
-3118.68
-3297.26
-3466.48
-3646.48
-3835.79
-4016.33
-4217.56
-4381.48
-4554.03
-4694.06
-4767.63
-4960.21
-4981.04
-4742.11
-4643.35
-4459.84
-4299.2
-4296.44
-4570.08
-11039.9
-7094.38
-12118.4
-17877.6
-19811.7
-18242.6
-17680.9
-17012
-16401.4
-16077.9
-15529
-15004.2
-14307.3
-13476.6
-12389
-12193.3
-11286.9
-10668.2
-9863.94
-8327.36
-7951.98
-6639.89
-5645.9
-4142.67
-3300.14
-2447.75
-662.008
601.972
1307.68
2334.52
3608.06
5596.96
6239.36
8174.38
9006.29
11290.3
13015
15010
16714.7
18740.6
19763.1
20695.7
21568.5
23117.3
24237.8
25404.8
26226.4
27382.6
29045.7
30888
32992.8
34084.2
35763.1
36451.6
30455.9
23974.9
18748.5
13820
10055.3
7347.06
5114.55
2994.71
907.918
-710.966
-1234.9
-2442.8
-3278.8
-3696.67
-3793.33
-4030.39
-3890.84
-3712.43
-2264.89
-2732.88
756.379
-5370.87
16159.2
-788.143
-1409.4
-1381.75
-1400.99
-1424.75
-1452.43
-1485.43
-1525.17
-1570.68
-1623.72
-1684
-1751.14
-1826.05
-1911.02
-2002.57
-2101.86
-2212.55
-2333.19
-2463.12
-2599.55
-2741.73
-2891.1
-3062.78
-3233.53
-3407.41
-3571.07
-3758.72
-3941.7
-4136.65
-4324.66
-4492.54
-4656.49
-4772.42
-4901.08
-5023.03
-5085.67
-4845.85
-4760.43
-4642.63
-4532.92
-4105.66
-4193.4
-7611.32
-6713.83
-10238.4
-15978.8
-18280.4
-17489.2
-17312
-16748.9
-16146.3
-15888.5
-15432.8
-15002.7
-14351.9
-13441.3
-12983.4
-12093
-11721.7
-10321.9
-9390.83
-8540.06
-6881.87
-6863.26
-5039.38
-3674.94
-2730.6
-1835.59
-779.855
543.381
2328.85
3097.62
4518.52
6241.9
8224.26
9744.91
11531.9
13208.2
15232
17297.1
18640.3
19675.9
21285.9
22745.8
24155.6
25523.7
27218.5
29180.7
31385.3
33572.9
36574.8
38989.5
42150
43823.6
37594.9
30603.2
24754.1
18978.8
14416.4
11301.7
8714.71
6278.35
4494.93
2333.88
830.978
271.284
-547.529
-1601.18
-2279.53
-2794.69
-2863.6
-3133.44
-3091.59
-2949.5
-2008.86
-2498.39
423.918
-5260.84
13737.1
-963.768
-1573.77
-1538.04
-1551.39
-1569.2
-1593.23
-1621.35
-1657.25
-1699.68
-1749.04
-1806.2
-1871.11
-1943.67
-2025.18
-2114.61
-2213.29
-2320.38
-2439.39
-2566.24
-2700.26
-2836.94
-2994.44
-3156.81
-3327.86
-3499.87
-3661.1
-3852.22
-4038.6
-4228.79
-4405.33
-4594.92
-4738.22
-4861.71
-4995.72
-5113.12
-5197.02
-4991.31
-4901.44
-4814.72
-4883.67
-3093.07
-5431.24
-5281.67
-9281.04
-10267.3
-15554.4
-18196.2
-18029.6
-18490.9
-17401
-18259.4
-17880
-17407
-16623.4
-15571.1
-14633.2
-13165.4
-12445.6
-10917.3
-10294.9
-8735.59
-7615.23
-7213.63
-5240.83
-5017.27
-3478.65
-1715.07
-1368.34
-625.505
1263.68
3277.53
5290.1
7056.6
8602.74
10736.9
12786.3
15042.2
16562.3
17458.8
18723.1
20301.7
22320.7
24144.9
25997.7
27814.9
30287
33222.7
36365
40227.5
42914.6
47121
49889
43521.7
35971.7
29503.1
23517.1
18380.6
14752.3
11798.2
9343.85
7372.9
5577.67
3965.89
2453.55
2009.66
1127.8
386.327
-581.485
-1147.19
-1655.29
-1861.06
-2250.63
-2335.52
-2230.55
-1647.09
-2304.61
319.99
-5097.38
11779.2
-1125.32
-1724.1
-1680.05
-1687.34
-1699.48
-1719.41
-1743.36
-1774.86
-1813.65
-1859.74
-1913.67
-1975.92
-2045.73
-2124.02
-2211.52
-2308.65
-2413.88
-2527.56
-2651.48
-2779.35
-2922.45
-3077.06
-3236.31
-3403.32
-3568.81
-3740.43
-3926.49
-4118.97
-4296.15
-4487.95
-4669.99
-4811.11
-4948.14
-5095.78
-5241.04
-5279.57
-5089.07
-4958.14
-4787.09
-4668.59
-3097.28
-4298.65
-5248.82
-11048.8
-10904.8
-15374.4
-17202.9
-19113.3
-19522.6
-19485.5
-19431.2
-18469.4
-17449.6
-16472.9
-15517.5
-14107.4
-13327.2
-11898.1
-11306
-9411.46
-8853.72
-7717.4
-6047.33
-5590.74
-4006
-3253.1
-1811.81
437.439
1988.73
3764.26
5718.6
7392.28
9903.73
11722.3
13892.8
15313.2
16347.7
17658.1
20102.5
22315.8
24217.3
26503.1
28921.3
31725.2
34962.4
38882.9
43457
46957.2
52217.8
54897.8
47473.3
39406.2
33175.8
26862.8
21514.8
17676.1
14417.1
11762.3
9757.05
8083.04
6545.27
5088.79
3754.84
3023.92
2497.47
1644.4
966.596
92.1481
-406.077
-1032.71
-1184
-1586.14
-1814.14
-1764.42
-1335.06
-2376.98
99.2916
-5224.43
10153.8
-1271.73
-1859.66
-1807.71
-1808.61
-1815.83
-1830.58
-1851.8
-1878.42
-1913.53
-1956.58
-2007.38
-2066.28
-2132.94
-2208.43
-2294.3
-2388.65
-2489.44
-2601.12
-2723.4
-2847.47
-2994.17
-3141.43
-3300.16
-3463.85
-3622.91
-3807.29
-3991.44
-4177.38
-4354.15
-4554.72
-4718.06
-4897.97
-5022.91
-5202.27
-5358.59
-5399.38
-5265.83
-5148.27
-5108.56
-5095.43
-3918.56
-5734.7
-6706.29
-10946.4
-12649.6
-15991.1
-17153
-19723.1
-20751.1
-21104.7
-21092.1
-19576.2
-18382.3
-17171.9
-15814.1
-14592.2
-13089.6
-12183.7
-10376.3
-10247.3
-7995.58
-7562.96
-6744.22
-4324.41
-3135.38
-306.221
1326.45
3302.5
5184.77
6596.04
9414.06
11090.2
12851.4
14093.6
15436.6
17500.1
20245.2
22782.1
24864.6
27398
30303
33625
37346.8
41797.6
46532
51091
56530.2
57868.2
49663.1
41099.3
35372.7
28958.4
23662.8
19688.3
16426.2
13643.1
11680.4
9826.1
8427.38
7242.03
6049.82
4956.59
4296.22
3766.48
3136.78
2409.73
1818.19
998.758
340.5
-256.425
-628.136
-1123.25
-1475.8
-1636.54
-1356.16
-2734.22
-237.523
-5457.57
8799.58
-1402.61
-1979.99
-1921.34
-1915.38
-1917.55
-1927.36
-1945.85
-1968.57
-1999.85
-2039.01
-2086.72
-2142.73
-2206.87
-2279.62
-2362.4
-2453.58
-2551.41
-2662.12
-2776.84
-2907.7
-3046.33
-3190.23
-3349.04
-3508.47
-3667.25
-3856.67
-4043.76
-4217.33
-4401.97
-4597.68
-4771.58
-4964.28
-5105.91
-5309.82
-5459.02
-5538.54
-5440.51
-5370.09
-5363.12
-5335.77
-5191.68
-5634.87
-8464.47
-13227.9
-14737.4
-17197.7
-17407.4
-19351.3
-21637.8
-22259.7
-21998.4
-20562.6
-19149
-17795.4
-16236.2
-15214.2
-13587.4
-12333
-11571.6
-9521.42
-8820.19
-5708.69
-3942.7
-1298.15
1106.75
2003.63
4976.33
6005.37
8304.39
10607
11862.6
13267
15073.9
17964.9
20627.9
23325.9
25982.6
28908
32483.3
36116.3
40522.6
45784.3
50364.9
55760.4
60544.1
57699.7
49851.6
41731.5
36179.4
29788.2
24712.9
20802
17571.4
15023
12915.4
10985.4
9809.67
8507.45
7457.37
6533.4
5630.17
4908.74
4501.89
3969.72
3344.7
2715.23
2034.75
1364.37
620.477
77.9195
-391.005
-834.011
-1252.56
-1493.35
-1314.51
-2763.68
-367.043
-5373.82
7729.04
-1517.32
-2085.04
-2020.02
-2008.48
-2004.59
-2010.72
-2024.62
-2046.23
-2072.96
-2108.53
-2152.99
-2206.22
-2267.98
-2337.95
-2416.89
-2504
-2600.8
-2709.81
-2818.49
-2952.37
-3084.72
-3225.59
-3383.03
-3538.83
-3701.08
-3889.83
-4082.27
-4249.72
-4438.09
-4624.63
-4817.13
-4999.06
-5199.73
-5407.44
-5569.11
-5689.02
-5638.69
-5604.47
-5631.07
-5728.75
-5919.94
-7705.99
-11342.3
-17050.7
-19118
-19424.9
-20106
-21974.1
-22788.3
-22624.6
-21594.6
-20630.6
-19456.7
-17450
-17030.8
-14737
-14885.5
-11639.3
-10126.7
-7225.17
-3711.18
-3010
1169.34
1774.18
3909.9
6449.75
8118.42
10379.7
11521.9
13341.7
15784.8
18817.1
21902.5
24575.4
27883.1
31429.4
35371.6
39931.5
45117.8
50086.7
55196.7
60876.3
64328.8
57396.8
49015.4
41682.3
35400.1
29206
24618
21001.1
18000.3
15473.7
13332.4
11799.7
10536.2
9235.19
8390.79
7503.39
6713.44
5973.64
5335.52
4947.27
4502.96
3968.71
3421.39
2862.66
2240.21
1655.57
876.813
463.144
-62.8933
-460.525
-983.001
-1256.66
-1349.72
-2794.12
-647.709
-5393.53
6669.33
-1615.49
-2174.58
-2103.89
-2087.53
-2077.68
-2079.95
-2090.26
-2109.41
-2133.94
-2165.78
-2206.9
-2256.72
-2315.64
-2382.55
-2458.98
-2543.04
-2637.71
-2742.88
-2851.61
-2979.9
-3112.7
-3249.5
-3400.8
-3557.45
-3726.02
-3906.76
-4096.84
-4279.05
-4466.94
-4637.1
-4848.28
-5033.49
-5285.76
-5493.49
-5685.33
-5835.44
-5808.7
-5819
-5992.95
-6175.03
-7887.43
-9799.13
-15369.2
-21903.2
-24922.5
-22682.1
-24042.5
-25218.1
-24889.7
-23436.1
-22311.8
-20614.5
-19803.3
-19109.3
-16756.4
-16603.2
-11646.5
-10778.9
-4560.59
-3748.16
322.919
2216.33
3910.52
6726.11
8618.38
10162.5
12048.4
14220.8
17594.6
20440.6
23357.3
26788.8
30848.1
35230.7
40008.5
45469.5
50773.7
55840.6
61815.3
66181.1
62294
54321.9
45649.2
40242.6
33730.2
27972
23872.5
20180.6
17417.6
15167.6
13322.9
11796.5
10493.9
9542.47
8773.32
7945.89
7298.78
6638.55
6064.68
5529.13
5193.4
4852.32
4443.07
3982.76
3494.4
3000.64
2402.92
1880.8
1067.72
808.371
90.9094
-254.985
-891.831
-1125.88
-1485.72
-2728.4
-814.028
-5239.68
5850.9
-1697.05
-2248.63
-2172.92
-2152.09
-2138.14
-2135.52
-2142.9
-2158.35
-2183.11
-2210.79
-2249.2
-2295.07
-2351.22
-2415.38
-2488.67
-2570.56
-2662.53
-2762.77
-2874.25
-2993.44
-3127.27
-3263.07
-3406.2
-3564.04
-3741.42
-3910
-4095.32
-4294.85
-4480.62
-4645.87
-4871.99
-5076.78
-5335.67
-5524.2
-5765.84
-5974.33
-6004.38
-6057.86
-6337.28
-6768.05
-10957
-14249.6
-21773
-27753.3
-30858.3
-27400.8
-27976.3
-28409
-25221.6
-24305.3
-21556.8
-21935.6
-19124.1
-19276.6
-13765.7
-12638.1
-6721.78
-4732.84
-758.923
1858.2
4705.02
7454.78
8621.82
10777.4
12413.8
15588.5
18858.9
22263.6
26053.8
30464.9
34971.6
40637.3
46811.2
52619.5
58018.8
64175
68839.5
66918.9
59206.8
50580.3
43840.7
37639.7
31188.4
26135.4
22440.1
19032.3
16525.1
14284.8
12548.3
11169.2
10063.5
9128.71
8442.56
7890.46
7352.96
6800.59
6280.88
5916.37
5532.71
5183.84
4931.77
4633.06
4287.57
3941.17
3524.42
3116.48
2574.25
2104.72
1311.47
1059.25
294.941
56.9104
-741.337
-864.381
-1462.5
-2529.49
-978.115
-5007.83
4930.72
-1762.03
-2307.35
-2227.28
-2202.55
-2185.43
-2178.19
-2182.4
-2195.14
-2216.95
-2246.03
-2278.8
-2323.09
-2374.64
-2436.91
-2507.12
-2587.14
-2674.84
-2770.41
-2884.44
-2995.6
-3129.47
-3263.43
-3400.97
-3556.74
-3737.15
-3904.24
-4084.49
-4286.08
-4488.79
-4657.78
-4870.6
-5125.32
-5337.72
-5542.15
-5793.41
-6068.63
-6219.23
-6435.82
-7164.01
-9295.15
-14448.7
-22967.8
-31029.2
-33325
-35027.9
-30296.9
-26782.5
-23091.6
-21622.5
-20241.8
-19867.5
-18254.9
-16420.5
-13386.6
-9401.06
-6209.16
-1808.64
1705.44
4946.02
7519.51
9011.73
11259.8
13807.1
18079.3
20965.3
25410.3
30009.2
35180
41593.2
48400.8
54837.2
60956.8
67882.3
72915.7
71487.2
63290.6
54019.3
46595.1
40416.8
33690.7
28483.6
24193.6
20657.5
17610
15172.2
13236.2
11623.5
10325.8
9239.52
8344.17
7692.27
7136.66
6783.02
6481.05
6087.35
5803.94
5462.9
5271
4987.76
4762.85
4576.68
4338
4069.17
3768.54
3433.83
3082.15
2597.98
2172.76
1433.9
1198.32
365.506
289.931
-661.472
-739.208
-1447.99
-2334.17
-1105.36
-4831.82
4238.44
-1810.34
-2350.75
-2267.17
-2239.24
-2219.25
-2209.83
-2209.36
-2219.57
-2238.99
-2266.46
-2300.34
-2338.54
-2388.36
-2446.9
-2515.02
-2591.79
-2677.48
-2768.01
-2879.28
-2989.43
-3114.89
-3254.88
-3389.58
-3540.97
-3714.31
-3892.12
-4058.67
-4263.63
-4467.89
-4677.3
-4859.49
-5111.16
-5331.12
-5563.7
-5803.81
-6065.23
-6370.97
-6767.57
-8209.63
-11829
-22052.6
-36021.2
-43399.1
-36997
-35642.6
-26687.7
-21253.2
-19111.9
-17912.1
-17343.2
-16158.5
-14578.6
-11530.1
-8655.12
-5152.8
-319.417
4502.92
6397.74
8999.07
11538.9
16597
20289
25558.7
30050.9
35744.6
42413.2
50022.8
57451.7
65137.6
72492.3
77775.2
75012.4
66321.2
56550.4
48782.4
42712.6
36056.3
30212.2
26036.7
21844
18803.3
16026.9
13990.9
12151.9
10655.8
9488.72
8460.96
7617.99
6958.31
6372.59
5953.02
5615.46
5438.26
5251.41
5022.62
4962.8
4720.36
4546.05
4381.14
4277.65
4199.38
4063.1
3864.65
3647.9
3405.77
3130.39
2701.6
2321.69
1653.08
1429.42
561.586
489.929
-567.728
-611.296
-1336.33
-2089.42
-1199.81
-4523.27
3502.81
-1842.42
-2379.31
-2292.95
-2262.48
-2240.1
-2228.59
-2225.72
-2232.33
-2249.58
-2274.97
-2307.64
-2347.34
-2389.98
-2446.73
-2511.37
-2585.39
-2668.13
-2758.03
-2860.03
-2976.11
-3087.95
-3231.24
-3366.53
-3516.65
-3675.55
-3862.79
-4027.01
-4224.33
-4432.15
-4661.93
-4854.94
-5056.41
-5274.74
-5541.33
-5756.51
-6054.39
-6404.59
-7118.21
-9386.55
-15736.6
-33229.1
-50041.8
-38451.7
-35872.5
-32590.1
-20738.3
-18235.8
-16889.2
-16448
-15818
-15099.5
-13607.8
-10895.8
-7961.13
-1616.86
4429.34
7423.41
12380.9
18478.2
24099.8
30493.4
36844.3
44219.6
52455.2
59812.3
69642
77467.8
83199.3
78129.6
68693.7
58182.9
50446.7
44086.8
37639.7
31812.1
27362.9
23488.5
19521
17135.7
14681.8
12685.4
10995.3
9585.41
8493.5
7570.22
6863.25
6205.07
5670.54
5228.56
4844.77
4535.1
4342.01
4244.03
4183.67
4100.72
4141.69
4049.7
3887.76
3871.76
3820.52
3822.14
3709.67
3548.9
3392.41
3215.48
2976.9
2635.73
2319.13
1734.6
1505.93
662.627
457.189
-382.625
-537.431
-1208.46
-1836.41
-1311.84
-4289.41
2921.47
-1858.51
-2393.32
-2304.99
-2272.73
-2248.52
-2235.36
-2230.45
-2235.81
-2249
-2272.65
-2303.37
-2340.97
-2387.56
-2435.73
-2497.46
-2569.15
-2648.29
-2736.44
-2832.51
-2946.2
-3059.31
-3189.82
-3335.35
-3478.36
-3632.21
-3806.92
-3999.14
-4164.76
-4385.39
-4606.53
-4831.21
-5019.21
-5202.6
-5485.83
-5651.85
-5848.83
-6176.4
-6774.81
-9210.2
-16338.9
-32473.9
-37688.4
-30303.6
-29314.3
-29919.1
-21274.2
-21547
-21036
-20293.3
-20846
-19404.5
-17181.3
-12713.3
-3073.65
4994.17
9001.42
18208
27340.9
36520.7
45411.3
54410.6
63908.8
74262.5
83301.2
88752.6
80744.2
70335.9
59482.2
52143.8
45304.9
38416
32602.7
28122
24068.5
20890.5
18259.2
15907.9
13573.3
11694.7
10178.6
8995.99
7955.96
7047.39
6273.24
5645.09
5132.94
4703.24
4333.79
4025.62
3748.8
3492.63
3340.71
3270.77
3242.88
3205.12
3333.39
3357.1
3235.17
3328.74
3300.42
3406.99
3337.01
3258.09
3179.92
3075.11
2908.34
2666.49
2422.35
1902.41
1655.01
906.536
643.165
-123.326
-419.183
-1095.97
-1591.53
-1393.27
-3932.06
2388.17
-1859.13
-2393.29
-2303.76
-2270.45
-2244.95
-2230.47
-2224.77
-2228.39
-2238.82
-2259.68
-2288.33
-2324.55
-2367.96
-2420.72
-2475.29
-2541.75
-2618.89
-2704.25
-2797.58
-2901.3
-3022.65
-3137.94
-3286.38
-3429.09
-3584.34
-3741.64
-3935.77
-4124.31
-4305.81
-4531.36
-4762.86
-4979
-5156.48
-5370.89
-5553.68
-5787.43
-6110.04
-7293.61
-10273.7
-17843.5
-26188.9
-28690.2
-26182.7
-25702.6
-28305.8
-20951.5
-24287
-25746.1
-24452.2
-25265.2
-21236.6
-12481.2
-967.897
5664.54
14922.8
28314.8
42052
56634.6
67479
80391.8
88902.8
93199.9
83608.9
72155
60216.4
53056.1
46142
39026.8
33302.6
28843
25040.7
21948.3
19264.9
16742.7
14580.6
12840.8
11389.6
10196.9
8802.34
7746.01
6774.98
6018.91
5432.62
4893.48
4383.53
3948.83
3583.58
3278.75
3034.05
2835.04
2666.46
2572.44
2498.85
2509.2
2496.07
2642.94
2741.22
2682.54
2883.28
2825.74
3076.06
2925.36
2921.76
2910.73
2826.33
2727.86
2552.13
2323.51
1876.66
1609.03
1050.3
689.124
39.2168
-368.836
-1014.71
-1337.93
-1393.04
-3554.63
1888.37
-1844.86
-2379.78
-2289.81
-2256.12
-2230
-2214.26
-2208.73
-2209.85
-2221.03
-2236.26
-2263.73
-2298.21
-2339.77
-2389.09
-2446.28
-2509.5
-2579.9
-2659.71
-2753.39
-2850.83
-2966.43
-3087.99
-3216.89
-3369.26
-3518.14
-3682.88
-3849.65
-4056.36
-4242.27
-4428.89
-4665.67
-4901.46
-5124.12
-5267.96
-5491.73
-5647.89
-6031.84
-7217.25
-10179.2
-18737.2
-26008.6
-23474.1
-24146.3
-24457
-29920.3
-29413.8
-34011.6
-34016.8
-30722
-20604.4
-10528.1
-1989.69
5573.1
22411
42165.5
64135.9
83128.9
97411.6
102089
89394.2
75053.6
61417.9
54256.4
46776.6
39350.3
33580.2
29309.5
25643.9
22668.2
20010.1
17636.8
15649.5
14082.2
12748.9
11489.2
10417.7
9373.86
8611.61
7712.27
6865.1
5989.81
5306.31
4748.24
4286.62
3817.04
3393.92
3006.4
2653.96
2373.29
2135
1949.72
1836.21
1726.53
1712.65
1723.2
1841.32
2010.78
2021.6
2285.72
2267.18
2617.04
2391.91
2632.25
2617.65
2557.08
2565.05
2454.02
2290.71
1952.77
1742.26
1336.1
839.493
279.593
-191.148
-905.844
-1124.35
-1351.7
-3061.9
1403.87
-1816.46
-2353.5
-2263.8
-2230.26
-2204.33
-2187.97
-2181.76
-2181.95
-2193
-2206.14
-2230.25
-2263.04
-2301.79
-2348.25
-2402.64
-2465.13
-2536.38
-2611.03
-2696.4
-2790.58
-2899.76
-3024.13
-3144.36
-3292.38
-3438.98
-3605.82
-3771.48
-3945.52
-4169.55
-4342.46
-4554.37
-4792.68
-5041.58
-5192.74
-5387.77
-5570.34
-6095.12
-7564.93
-11479.9
-21762.1
-27132
-23695.7
-23901.8
-25641.4
-30690.3
-23083.1
-20927
-17183.8
-12648.7
-5901.39
932.073
12743.5
34603
63032.9
93401.2
112212
102829
83199.7
65777.7
56405.1
47169.6
39393.9
33332.6
29131.9
25617.6
22691.8
20103.2
17910.1
16341.4
15170
14071
13001.8
12010.5
11031.7
10021.1
9116.12
8188.66
7590.85
6780.78
6036.22
5246.43
4589.17
4014.48
3579.96
3175.14
2797.76
2460.52
2130.18
1879.2
1658.26
1530.21
1422.18
1343.67
1269.35
1280.87
1350.97
1533.91
1579.4
1818.03
1867
2268.88
1955.23
2385.92
2306.36
2274.05
2397.19
2286.83
2218.54
1938.37
1705.8
1350.69
703.493
461.078
-141.035
-835.051
-886.74
-1264.36
-2578.7
923.992
-1774.67
-2315.12
-2226.35
-2193.57
-2168.34
-2152.01
-2144.46
-2145.67
-2154.63
-2168.41
-2187.75
-2219.73
-2256.08
-2300.23
-2349.85
-2409.36
-2476.9
-2552.22
-2637.19
-2725.39
-2824.52
-2940.45
-3069.37
-3201.41
-3351.58
-3506.06
-3679.03
-3849.86
-4042.96
-4273.84
-4446.19
-4675.1
-4943.77
-5112.25
-5314.61
-5596.37
-6296.66
-8123.58
-13061.1
-23753.5
-27571.9
-24256.2
-23488.6
-27617.5
-26213.1
-12755.4
-7397.98
-1524.62
3973.61
8067.74
22812.5
48706.7
83310.2
117827
110621
82703.8
64553.4
51419.7
41396.9
34139.5
29235.6
25352.8
22255.3
19639.9
17685
16252.2
15143.3
14161.7
13300.2
12664.2
12235.5
11670.1
11072.6
10488.5
9715.24
9125.16
8228.74
7703.56
6937.94
6292.6
5549.07
4837.27
4254.06
3685.35
3264.99
2839.06
2486.6
2115.56
1799.87
1506.99
1299.34
1129.65
1006.81
899.708
859.102
914.233
1039.92
1134.5
1332
1421.6
1839.61
1468.61
2023.19
1864.6
1970.26
2145.76
2006.82
2171.93
1871.78
1734.28
1475.94
819.278
843.638
-18.2343
-611.304
-723.891
-1190.3
-2052.01
442.832
-1720.47
-2265.51
-2178.17
-2146.77
-2122.62
-2106.77
-2098.39
-2100.65
-2106.23
-2122.72
-2138.26
-2167.52
-2202.23
-2244.24
-2289.6
-2344.94
-2409.27
-2479.71
-2561.93
-2651.78
-2749.25
-2852.68
-2973.56
-3104.28
-3249.46
-3400.89
-3564.59
-3748
-3924.07
-4141.31
-4368.94
-4550.57
-4790.4
-5040.4
-5249.62
-5647.74
-6498.45
-8602.76
-14135
-25329
-29601.5
-27355.7
-27991.2
-22511.3
-17169.8
-2465.94
4108.87
6247.23
16004.1
36139.6
65986.8
107152
132730
98768.3
70195.6
52198.3
39796.9
31759
26166.5
22197
19262.5
17169.8
15688.6
14568.3
13683.6
13034
12524.4
12147.7
11711.8
11312
10926.5
10684.8
10256.7
10047
9234.54
8752.31
8040.74
7508.99
6749.18
6250.83
5562.28
4819.33
4171.32
3448.42
3001.6
2483.87
2136.13
1752.99
1411.59
1066.82
864.503
683.242
547.845
462.942
401.076
450.488
516.259
641.413
819.074
989.398
1387.24
1068.02
1677.06
1489.76
1738.48
1938.9
1736.11
2188.75
1654.44
1748.7
1472.46
773.647
871.385
-65.9912
-529.04
-580.981
-1051.91
-1547.05
-7.47563
-1654.77
-2205.5
-2120.13
-2090.56
-2067.53
-2053.04
-2044.51
-2045.92
-2051.92
-2067.51
-2082.87
-2106.12
-2142.73
-2176.94
-2228.59
-2270.2
-2331.38
-2400.76
-2476.48
-2566.99
-2654.83
-2756.56
-2874.38
-3004.11
-3131.64
-3284.36
-3443.92
-3619.19
-3808.14
-3995.98
-4234.18
-4458.31
-4662.7
-4909.71
-5185.83
-5747.61
-6983.86
-9860.94
-17224
-27276.8
-32911
-28955.4
-21005.9
-16084.7
-8597.02
4424.29
9167.38
24449.7
46713.9
81523.4
126038
132620
89772.3
63409.8
45024.2
33607.2
25976.6
20987.9
17673.9
15484.5
13974.8
12921.4
12217.3
11780.5
11399.8
11146.4
10868.8
10642.6
10367.4
10139
9850.57
9724.36
9398.32
9250.14
9255.39
9022.57
8701.85
8050.88
7245.3
6772.71
5897.49
5195.12
4435.2
3532.45
2988.18
2355.31
1969.97
1575.96
1219.07
822.726
536.386
328.346
138.511
42.0004
-53.7696
4.99413
47.785
187.624
361.947
513.802
885.466
656.878
1233.43
1030.98
1465.96
1598.6
1405.8
1992.77
1423.7
1832.19
1452.39
945.763
1024.26
187.975
-293.559
-311.904
-986.389
-1225.42
-396.585
-1578.67
-2136.02
-2053.1
-2025.64
-2003.84
-1991.48
-1983.28
-1983.08
-1990.61
-2002.78
-2021.5
-2039.26
-2072.25
-2106.25
-2153.31
-2196.99
-2243.82
-2314.96
-2378.26
-2471.46
-2555.82
-2647.7
-2753.75
-2879.03
-3018
-3164.91
-3329.24
-3467.65
-3647.63
-3849.97
-4064.3
-4310.63
-4548.25
-4780.31
-5155.89
-5921.9
-7740.35
-12122
-23224.9
-32444.6
-31439.9
-21162.7
-13091.5
-4430.59
-2088.19
14224.4
31586.4
57666.7
94947.2
141700
129546
85915.6
58528.2
40536.6
29372.2
22091.3
17511.7
14606.3
12774.7
11646
10949.9
10508.8
10225.2
10060.6
9913.8
9798.02
9713.15
9665.65
9563.84
9443.05
9247.39
9090.96
8847.72
8596.25
8543.02
8274.8
8132.89
8065.43
7514.83
7032.08
6031.15
5458.96
4550.92
3710.17
2964.01
2258.03
1800.14
1411.05
1060.77
641.94
246.954
29.0861
-211.469
-341.739
-459.388
-429.679
-427.87
-294.786
-129.156
67.7849
351.316
287.794
879.104
654.814
1162.25
1375.22
1236.84
2016.54
1190.49
2003.91
1219.23
940.258
919.883
214.574
-242.694
-153.315
-823.849
-783.865
-734.805
-1493.17
-2057.95
-1977.91
-1952.73
-1932.92
-1921.76
-1915.19
-1913.83
-1921.82
-1930.84
-1952.62
-1967.57
-1993.32
-2031.3
-2064.91
-2120.81
-2153.98
-2212.58
-2287.29
-2349.57
-2460.5
-2525.14
-2622.93
-2740.18
-2878.59
-3014.3
-3190.28
-3353.53
-3512.6
-3662.7
-3860.09
-4121.55
-4382.13
-4671.85
-5185.07
-6245.47
-8942.27
-15692
-31705.9
-38685.5
-27187.5
-11557.5
-3939.13
-678.652
11329.9
37801.6
67412
107834
150931
120845
79664.4
53393.9
36515.7
25960
19225.4
15008.8
12350.6
10728.4
9761.91
9227.44
8943.98
8799.68
8749.58
8755.05
8792.29
8835.69
8875.99
8914.23
8914.42
8861.05
8740.13
8536.29
8295.21
7984.27
7783.52
7496.69
7287.19
7286.37
6941.68
6753.66
6437.38
5691.21
4737.29
4040.72
3040.14
2338.97
1719.48
1283.46
921.393
511.146
25.2931
-241.613
-494.881
-671.167
-801.359
-813.935
-866.459
-734.696
-587.925
-378.124
-145.895
-108.932
443.247
234.479
762.081
992.595
892.962
1785.59
864.992
1998.39
1077.89
1086.22
951.565
594.879
4.14666
111.503
-820.933
-438.474
-1092.55
-1399.39
-1972.28
-1895.37
-1872.7
-1855.56
-1844.46
-1840.63
-1839.02
-1845.2
-1855.56
-1873.28
-1892.55
-1909.63
-1945.84
-1975.77
-2028.04
-2067.51
-2105.65
-2175.8
-2236.48
-2327.57
-2424.23
-2486.93
-2582.21
-2710.47
-2854
-3012.14
-3217.28
-3363.25
-3535.4
-3672.96
-3911.52
-4204.7
-4566.53
-5194.14
-6560.56
-9998.51
-18059.9
-33521
-35899.7
-16608.3
-3600.74
-627.54
13972.1
38162.4
74936.2
120542
151271
108724
71937.6
47844.9
32680.9
23082.1
17086.6
13353
11028
9594.62
8731.92
8218.61
7953.88
7845.28
7818.53
7810.17
7838.57
7875.81
7943.04
8009.08
8099.58
8151.74
8136.67
8045.57
7881.18
7649.81
7386.19
7062.7
6752.4
6500.6
6374.73
6096.4
5847.15
5714.55
5121.72
4942.38
4073.39
3168.55
2405.65
1669.7
1116.54
750.589
370.895
-121.194
-475.436
-742.467
-956.054
-1094.66
-1164.85
-1271.73
-1168.82
-1066.61
-833.483
-637.461
-530.529
19.9686
-74.43
445.857
762.849
705.89
1644.79
714.483
2104.79
860.25
1083.96
875
600.948
-28.3228
171.132
-658.668
-66.9497
-1228.84
-1298.43
-1879.93
-1806.31
-1786.58
-1771.55
-1761.71
-1759.81
-1758.55
-1762.7
-1775.14
-1786.18
-1811.51
-1824.19