/*--------------------------------*- C++ -*----------------------------------*\
| =========                 |                                                 |
| \\      /  F ield         | OpenFOAM: The Open Source CFD Toolbox           |
|  \\    /   O peration     | Version:  2.2.x                                 |
|   \\  /    A nd           | Web:      www.OpenFOAM.org                      |
|    \\/     M anipulation  |                                                 |
\*---------------------------------------------------------------------------*/
FoamFile
{
    version     2.0;
    format      ascii;
    class       volScalarField;
    location    "1.2";
    object      rho;
}
// * * * * * * * * * * * * * * * * * * * * * * * * * * * * * * * * * * * * * //

dimensions      [1 -3 0 0 0 0 0];

internalField   nonuniform List<scalar> 
14161
(
0.999944
0.999945
0.999939
0.999926
0.999906
0.999876
0.999837
0.999784
0.999717
0.999632
0.999527
0.999397
0.99924
0.999053
0.99883
0.998571
0.99827
0.997919
0.997553
0.997127
0.996612
0.996152
0.995641
0.995006
0.994486
0.993895
0.99338
0.992928
0.992434
0.99215
0.992037
0.991954
0.992013
0.992163
0.992549
0.993228
0.994185
0.995515
0.997269
0.999389
1.00129
1.00359
1.00754
1.01092
1.01365
1.02086
1.02287
1.08104
2.15444
2.68954
2.74454
2.74966
2.73628
2.71867
2.68026
2.64894
2.60556
2.57053
2.5346
2.50202
2.47099
2.44
2.4105
2.38253
2.35675
2.3364
2.31618
2.29416
2.27601
2.26059
2.24693
2.23653
2.22655
2.21641
2.20827
2.20206
2.19645
2.195
2.18715
2.17464
2.1603
2.14749
2.1386
2.13504
2.13273
2.12887
2.10911
2.09401
2.0915
2.04865
2.04228
2.03766
2.01846
1.99246
1.96966
1.94911
1.93352
1.93185
1.92576
1.93578
1.94711
2.00122
2.07426
2.25261
2.51851
2.78672
2.93835
3.02126
3.0805
3.11811
3.14614
3.17044
3.18577
3.19334
3.19486
3.19414
3.19389
3.19301
3.20225
0.999944
0.999945
0.999939
0.999926
0.999906
0.999876
0.999837
0.999784
0.999717
0.999632
0.999527
0.999398
0.99924
0.999053
0.99883
0.998571
0.998269
0.997922
0.997552
0.997123
0.996626
0.996147
0.995629
0.995019
0.994459
0.993918
0.993363
0.992879
0.992468
0.992152
0.991991
0.991911
0.991976
0.992158
0.992535
0.993166
0.994051
0.995344
0.997085
0.999175
1.00116
1.00351
1.00732
1.01089
1.01386
1.02041
1.02334
1.09098
2.15997
2.67747
2.73879
2.74333
2.72855
2.71109
2.67188
2.64016
2.59762
2.56152
2.52512
2.49088
2.45884
2.42701
2.39515
2.36778
2.34231
2.3198
2.29937
2.27929
2.2622
2.24852
2.23503
2.22388
2.21493
2.20621
2.19789
2.19083
2.1835
2.17862
2.17466
2.16819
2.1583
2.14647
2.13523
2.12708
2.12069
2.11617
2.10273
2.0921
2.09057
2.04786
2.03555
2.02734
2.00885
1.98704
1.96674
1.95119
1.93744
1.93733
1.93317
1.9535
1.98534
2.0741
2.19514
2.41204
2.64297
2.83361
2.94724
3.02425
3.08278
3.12095
3.14835
3.17175
3.18729
3.19539
3.19679
3.19584
3.19522
3.19086
3.20459
0.999944
0.999945
0.999939
0.999926
0.999906
0.999876
0.999837
0.999784
0.999717
0.999632
0.999527
0.999398
0.999241
0.999053
0.99883
0.99857
0.998268
0.997925
0.997544
0.997118
0.996647
0.996131
0.995614
0.995038
0.994427
0.993925
0.993322
0.992818
0.992481
0.992115
0.991862
0.991801
0.991873
0.992085
0.992456
0.993007
0.993733
0.994868
0.996517
0.998534
1.00077
1.00331
1.00674
1.01044
1.01365
1.0193
1.02142
1.09541
2.15862
2.66396
2.73441
2.73423
2.71493
2.69689
2.65613
2.62602
2.58427
2.54917
2.51295
2.47827
2.44593
2.41303
2.37962
2.34803
2.32087
2.2971
2.27742
2.26111
2.24668
2.23182
2.21719
2.20644
2.20013
2.1936
2.18476
2.17632
2.16639
2.15605
2.15042
2.14726
2.14611
2.14365
2.1334
2.12098
2.10927
2.09943
2.08701
2.08172
2.08607
2.05054
2.0367
2.02253
2.00147
1.98238
1.96791
1.95844
1.94921
1.95518
1.96598
2.01724
2.08836
2.23499
2.41303
2.60642
2.73315
2.82542
2.90839
2.98455
3.04621
3.08987
3.12382
3.15067
3.17054
3.18312
3.18925
3.19169
3.19172
3.1842
3.20019
0.999944
0.999945
0.999939
0.999926
0.999906
0.999876
0.999837
0.999784
0.999717
0.999633
0.999527
0.999398
0.999241
0.999053
0.99883
0.998569
0.998269
0.997929
0.997535
0.997111
0.996664
0.996117
0.995593
0.995049
0.994417
0.993912
0.993299
0.992762
0.992442
0.992071
0.991699
0.991584
0.991658
0.991865
0.992207
0.99267
0.993248
0.994059
0.995369
0.997255
0.999811
1.00259
1.00562
1.00906
1.01267
1.01824
1.01948
1.09303
2.13883
2.65245
2.73241
2.72603
2.6998
2.67943
2.63393
2.6015
2.55742
2.52097
2.48519
2.4488
2.41638
2.38421
2.35041
2.31959
2.29012
2.26612
2.2471
2.23156
2.22155
2.21149
2.19775
2.18624
2.17732
2.17094
2.16567
2.15737
2.14802
2.13757
2.12801
2.12372
2.1254
2.12938
2.12261
2.11176
2.09944
2.08678
2.07153
2.06555
2.07235
2.04537
2.03323
2.01854
2.00142
1.9843
1.97768
1.97483
1.97549
2.0045
2.04468
2.16039
2.31699
2.5119
2.6671
2.78005
2.83079
2.8666
2.91923
2.97744
3.02301
3.06106
3.09674
3.12661
3.14978
3.16693
3.17907
3.18463
3.1864
3.17589
3.19338
0.999944
0.999945
0.999939
0.999926
0.999906
0.999876
0.999837
0.999785
0.999718
0.999633
0.999527
0.999398
0.999241
0.999053
0.998831
0.998569
0.99827
0.997932
0.997531
0.997104
0.996669
0.996112
0.995567
0.99505
0.994416
0.993848
0.993291
0.992731
0.992308
0.991977
0.991595
0.991328
0.991276
0.99143
0.991712
0.992124
0.992611
0.9931
0.993801
0.995281
0.997894
1.00073
1.00359
1.00682
1.01078
1.01664
1.01797
1.07352
2.09792
2.64132
2.72837
2.71568
2.67954
2.65572
2.60422
2.56925
2.52373
2.48345
2.44541
2.4056
2.3728
2.34503
2.3163
2.29042
2.26498
2.23615
2.21377
2.19957
2.18984
2.18755
2.1812
2.16989
2.16049
2.15205
2.14669
2.14138
2.13375
2.12677
2.11885
2.11207
2.10909
2.10784
2.10284
2.09717
2.0905
2.08079
2.06557
2.05883
2.06259
2.04087
2.03192
2.01841
2.00798
1.99968
2.00288
2.0125
2.0338
2.1117
2.22153
2.41171
2.59014
2.72736
2.8013
2.84591
2.87937
2.90794
2.93819
2.97135
3.00383
3.03836
3.07024
3.09873
3.12551
3.14866
3.16606
3.17468
3.17757
3.16663
3.18431
0.999945
0.999945
0.999939
0.999926
0.999906
0.999877
0.999837
0.999785
0.999718
0.999633
0.999528
0.999399
0.999242
0.999053
0.998831
0.998569
0.998271
0.997932
0.997529
0.997102
0.996668
0.996114
0.995539
0.995041
0.994417
0.99376
0.993271
0.992719
0.992115
0.991791
0.991501
0.991103
0.99078
0.990739
0.99092
0.991313
0.991744
0.992067
0.992254
0.992818
0.994433
0.996944
1.00028
1.00368
1.00742
1.01267
1.01393
1.03719
2.0365
2.62927
2.72191
2.70072
2.64855
2.62161
2.56463
2.52682
2.48333
2.43977
2.40048
2.35999
2.32652
2.30888
2.28381
2.26459
2.2471
2.22102
2.19467
2.17553
2.16433
2.16041
2.15986
2.15611
2.14996
2.14135
2.1325
2.12505
2.11916
2.11545
2.11439
2.11074
2.10469
2.09666
2.0847
2.08012
2.07773
2.07486
2.06481
2.06019
2.06218
2.04532
2.03702
2.02622
2.02905
2.03351
2.05683
2.09707
2.16463
2.32651
2.49234
2.66342
2.76728
2.82125
2.85186
2.8819
2.90987
2.93165
2.95011
2.97055
2.99766
3.02578
3.05057
3.07382
3.10179
3.12973
3.15107
3.16171
3.16666
3.15709
3.17406
0.999945
0.999945
0.999939
0.999926
0.999906
0.999877
0.999837
0.999785
0.999718
0.999634
0.999528
0.999399
0.999243
0.999054
0.998832
0.99857
0.99827
0.997929
0.99753
0.9971
0.996658
0.996122
0.995528
0.995009
0.994412
0.993708
0.993204
0.992668
0.991972
0.991517
0.991245
0.990887
0.990342
0.989934
0.98987
0.990155
0.990482
0.990723
0.990806
0.990519
0.99036
0.991424
0.994602
0.998439
1.00156
1.00533
1.00682
1.0144
1.92566
2.60628
2.70947
2.67569
2.60077
2.57125
2.51101
2.47222
2.43905
2.40222
2.36537
2.33381
2.29809
2.28276
2.26198
2.24328
2.23442
2.21361
2.18834
2.1647
2.15095
2.14458
2.14352
2.14024
2.1386
2.13618
2.12785
2.11788
2.10977
2.10417
2.10268
2.10538
2.10176
2.09496
2.08326
2.07637
2.07345
2.07305
2.06592
2.06673
2.07063
2.06245
2.06205
2.0531
2.08423
2.10821
2.16865
2.27808
2.42017
2.59778
2.72075
2.79471
2.82718
2.84973
2.87319
2.90051
2.9242
2.94169
2.95654
2.97489
2.99547
3.01423
3.03198
3.05304
3.08109
3.11076
3.13469
3.14735
3.15503
3.14789
3.16346
0.999945
0.999945
0.999939
0.999926
0.999906
0.999877
0.999838
0.999786
0.999719
0.999635
0.999529
0.9994
0.999243
0.999055
0.998832
0.998571
0.998269
0.997925
0.997536
0.997097
0.996635
0.996129
0.995532
0.994949
0.994387
0.993703
0.993078
0.992555
0.991923
0.991259
0.990817
0.990474
0.990003
0.98931
0.988681
0.98852
0.988699
0.988865
0.988908
0.988633
0.987058
0.985748
0.986324
0.989179
0.992396
0.994127
0.995799
1.00283
1.73661
2.56249
2.69599
2.65141
2.55826
2.52033
2.46078
2.42264
2.40126
2.37889
2.34219
2.32437
2.28631
2.26693
2.24664
2.22438
2.21796
2.19775
2.17632
2.1534
2.13847
2.12971
2.12638
2.1265
2.12462
2.12157
2.11713
2.10971
2.10317
2.09602
2.09144
2.09039
2.09231
2.09162
2.08529
2.08064
2.07887
2.0799
2.07403
2.08497
2.09314
2.09538
2.12001
2.12681
2.19143
2.2597
2.38758
2.5472
2.68207
2.7768
2.81761
2.83395
2.84591
2.86278
2.88359
2.90867
2.93151
2.9475
2.96286
2.978
2.9914
3.00208
3.01715
3.03725
3.06346
3.09282
3.11893
3.13451
3.14421
3.13888
3.1529
0.999945
0.999946
0.999939
0.999927
0.999907
0.999878
0.999838
0.999786
0.99972
0.999636
0.999531
0.999401
0.999245
0.999057
0.998834
0.998573
0.99827
0.997923
0.997542
0.997095
0.996605
0.996125
0.995541
0.994885
0.994338
0.993711
0.992942
0.992385
0.991847
0.991105
0.990324
0.989881
0.989453
0.988864
0.987812
0.986793
0.986409
0.986424
0.98642
0.986113
0.985104
0.981767
0.978865
0.978214
0.978372
0.978192
0.978745
0.989038
1.43461
2.4348
2.69051
2.64036
2.53767
2.47693
2.42492
2.38623
2.36771
2.35002
2.30974
2.30101
2.26858
2.24521
2.22942
2.20205
2.19694
2.1745
2.15663
2.13737
2.12306
2.11359
2.11107
2.10994
2.10558
2.10047
2.09738
2.09543
2.09309
2.08646
2.0811
2.07981
2.0839
2.08995
2.08817
2.08993
2.08976
2.0988
2.09593
2.12535
2.1465
2.16107
2.22121
2.2705
2.40191
2.52232
2.65766
2.76804
2.82273
2.83758
2.84157
2.84691
2.85531
2.86792
2.88606
2.91221
2.93468
2.95114
2.96525
2.97639
2.98362
2.99171
3.00596
3.02389
3.04776
3.07668
3.10467
3.12267
3.13405
3.13028
3.14329
0.999946
0.999946
0.99994
0.999927
0.999907
0.999878
0.999839
0.999787
0.999721
0.999637
0.999532
0.999403
0.999247
0.999059
0.998836
0.998575
0.998271
0.997922
0.997542
0.997093
0.996588
0.996111
0.995542
0.994843
0.994269
0.993684
0.99287
0.992172
0.991642
0.990942
0.989997
0.989198
0.988702
0.988141
0.987245
0.985684
0.984211
0.983524
0.983228
0.983004
0.98209
0.980122
0.975677
0.969801
0.966154
0.962378
0.958513
0.96644
1.07194
2.21103
2.79461
2.66941
2.5361
2.45103
2.39919
2.36082
2.33783
2.3213
2.28399
2.27869
2.25165
2.21296
2.20417
2.17312
2.16528
2.14521
2.12854
2.11314
2.0994
2.09161
2.08729
2.08457
2.08068
2.07691
2.07668
2.07928
2.08286
2.0821
2.07741
2.07688
2.08193
2.09386
2.09773
2.11208
2.12077
2.14479
2.14831
2.19855
2.24598
2.30088
2.42637
2.53547
2.67326
2.76363
2.82583
2.85246
2.85451
2.85001
2.84911
2.85255
2.85888
2.86892
2.8896
2.91547
2.9378
2.95325
2.96446
2.97058
2.97574
2.98367
2.99626
3.01168
3.03418
3.06259
3.09138
3.1108
3.12388
3.12237
3.13508
0.999946
0.999946
0.99994
0.999928
0.999908
0.999879
0.99984
0.999788
0.999722
0.999638
0.999534
0.999406
0.999249
0.999062
0.998839
0.998578
0.998273
0.997923
0.99754
0.997091
0.996583
0.996085
0.995535
0.994832
0.994177
0.993596
0.992846
0.991971
0.991318
0.99069
0.989851
0.988631
0.987723
0.987158
0.986455
0.985234
0.982966
0.981027
0.979821
0.978942
0.978447
0.977226
0.974314
0.968703
0.960678
0.953354
0.942564
0.943026
0.968553
1.82133
2.96031
2.72634
2.55933
2.45615
2.3912
2.34359
2.31247
2.28167
2.24999
2.24542
2.22657
2.1675
2.16773
2.13947
2.12406
2.10906
2.09061
2.07988
2.06934
2.06269
2.05951
2.05989
2.06001
2.06105
2.06361
2.07035
2.077
2.08055
2.08147
2.08429
2.09255
2.11641
2.13147
2.16649
2.18598
2.2295
2.26396
2.35965
2.45558
2.55897
2.69274
2.78013
2.8472
2.86872
2.87242
2.86733
2.85803
2.85404
2.85459
2.8568
2.86083
2.87302
2.89433
2.91984
2.93992
2.95279
2.96012
2.96406
2.9698
2.97698
2.98737
3.00098
3.02278
3.05026
3.07851
3.09874
3.11364
3.11509
3.12789
0.999947
0.999947
0.999941
0.999928
0.999908
0.99988
0.999841
0.99979
0.999724
0.99964
0.999537
0.999408
0.999253
0.999065
0.998842
0.99858
0.998276
0.997925
0.997535
0.997092
0.996585
0.99605
0.99551
0.99484
0.994092
0.993474
0.992803
0.991834
0.990958
0.990363
0.989644
0.988293
0.986836
0.986073
0.985571
0.984645
0.982587
0.979455
0.977303
0.975528
0.974262
0.973664
0.972579
0.96905
0.96319
0.952144
0.940683
0.944921
0.994643
1.52558
2.76041
2.69341
2.59662
2.49709
2.42251
2.35798
2.3147
2.26402
2.22162
2.19969
2.18665
2.12719
2.12597
2.10849
2.08248
2.07319
2.05603
2.04937
2.04417
2.04128
2.04199
2.04637
2.05197
2.05779
2.06235
2.06988
2.08363
2.09308
2.10584
2.1211
2.13554
2.17582
2.20986
2.28093
2.33697
2.4181
2.51034
2.622
2.71637
2.79894
2.86896
2.89108
2.89445
2.88417
2.87367
2.86527
2.85921
2.85836
2.85893
2.85904
2.86571
2.8792
2.90076
2.92382
2.94043
2.94957
2.95478
2.95924
2.96464
2.97038
2.97959
2.99239
3.01279
3.0381
3.06598
3.08808
3.10433
3.10762
3.12039
0.999947
0.999947
0.999941
0.999929
0.999909
0.999881
0.999842
0.999791
0.999726
0.999643
0.999539
0.999412
0.999256
0.999069
0.998847
0.998584
0.99828
0.99793
0.99753
0.997092
0.996587
0.996022
0.995473
0.994838
0.994043
0.993337
0.992695
0.991755
0.990694
0.989985
0.989292
0.988111
0.986392
0.985196
0.984489
0.98375
0.982178
0.979092
0.975897
0.973672
0.971716
0.970705
0.9707
0.969193
0.96468
0.95562
0.941979
0.947833
1.05533
1.47492
2.26756
2.46629
2.54025
2.51014
2.43054
2.34955
2.31426
2.25878
2.20251
2.16374
2.14773
2.10116
2.0914
2.08316
2.05136
2.04593
2.0332
2.03034
2.03009
2.033
2.03745
2.0443
2.05299
2.0663
2.07757
2.08901
2.11619
2.14029
2.17172
2.21317
2.24714
2.3247
2.39616
2.5029
2.5937
2.68264
2.76644
2.83419
2.87889
2.90529
2.91446
2.89865
2.88635
2.87853
2.87113
2.86443
2.86196
2.86088
2.86031
2.86375
2.87242
2.88631
2.9061
2.92543
2.9386
2.94565
2.9505
2.95442
2.95894
2.96445
2.97327
2.98502
3.00229
3.0247
3.05439
3.07918
3.09595
3.09956
3.11219
0.999948
0.999948
0.999942
0.99993
0.99991
0.999882
0.999843
0.999793
0.999728
0.999645
0.999542
0.999416
0.999261
0.999075
0.998852
0.998589
0.998286
0.997935
0.997531
0.997091
0.996586
0.99601
0.995432
0.994817
0.994038
0.993229
0.992532
0.991696
0.990587
0.989605
0.988846
0.987887
0.986322
0.984667
0.983567
0.982781
0.981634
0.979133
0.975456
0.97308
0.971165
0.970013
0.969839
0.969871
0.967985
0.962628
0.957691
0.976759
1.31128
1.7547
1.92538
2.14043
2.32557
2.39224
2.40464
2.34318
2.31824
2.26353
2.19508
2.15266
2.13113
2.08796
2.06906
2.06135
2.03744
2.03405
2.02715
2.02566
2.02663
2.03773
2.05082
2.06237
2.07781
2.10428
2.13122
2.15655
2.20703
2.26374
2.33126
2.41376
2.49023
2.58583
2.65951
2.74734
2.82199
2.87131
2.89196
2.90541
2.91252
2.90594
2.89795
2.88514
2.87815
2.87464
2.869
2.86519
2.86378
2.8635
2.86405
2.86918
2.87831
2.89214
2.90961
2.92554
2.93612
2.94251
2.94683
2.95009
2.95408
2.95939
2.96732
2.97635
2.99048
3.01246
3.04417
3.07082
3.08774
3.0917
3.10427
0.999948
0.999949
0.999943
0.99993
0.999911
0.999883
0.999845
0.999795
0.999731
0.999649
0.999546
0.99942
0.999266
0.999081
0.998859
0.998597
0.998292
0.99794
0.997536
0.99709
0.996583
0.996007
0.995397
0.994786
0.99404
0.993168
0.992354
0.991584
0.990562
0.989364
0.988425
0.987591
0.9863
0.984514
0.983185
0.982139
0.981025
0.979006
0.975448
0.973179
0.971503
0.97057
0.970277
0.970618
0.971018
0.968571
0.970415
1.02577
1.64888
1.91519
1.9274
1.9702
2.1082
2.27351
2.40291
2.35434
2.32987
2.27906
2.19621
2.16004
2.13229
2.08706
2.06158
2.04863
2.03802
2.03547
2.04219
2.04627
2.04565
2.0736
2.10176
2.12712
2.16455
2.21466
2.27353
2.33387
2.42171
2.51039
2.59523
2.67587
2.744
2.80523
2.85238
2.88898
2.90586
2.91053
2.9048
2.89758
2.89867
2.8921
2.88195
2.87607
2.87432
2.87098
2.86709
2.86567
2.86605
2.8664
2.86833
2.8733
2.88299
2.89694
2.91224
2.92513
2.93393
2.93932
2.94313
2.94666
2.95049
2.95381
2.95867
2.96536
2.97991
3.00315
3.03469
3.06045
3.07831
3.08482
3.09737
0.999949
0.999949
0.999943
0.999931
0.999912
0.999885
0.999847
0.999797
0.999734
0.999653
0.999551
0.999426
0.999273
0.999088
0.998868
0.998606
0.9983
0.997949
0.997545
0.997089
0.996581
0.996008
0.995378
0.994757
0.994037
0.993144
0.992238
0.991435
0.990517
0.989328
0.988154
0.987202
0.986118
0.98459
0.983177
0.981969
0.980623
0.978545
0.975516
0.973586
0.972266
0.971773
0.971719
0.972228
0.973697
0.975015
0.986969
1.20821
1.85244
1.95325
1.94141
1.94202
1.9837
2.07173
2.26213
2.30632
2.29463
2.27428
2.20641
2.17893
2.14495
2.09897
2.06195
2.06021
2.06343
2.05797
2.08988
2.11188
2.11596
2.17568
2.23484
2.29195
2.36934
2.45741
2.54015
2.60907
2.68509
2.75103
2.80835
2.85036
2.86785
2.88189
2.89894
2.90755
2.89957
2.89202
2.88998
2.88788
2.88599
2.8778
2.87187
2.87038
2.86949
2.86681
2.86612
2.8662
2.86746
2.86918
2.87105
2.87606
2.88662
2.90064
2.91418
2.9247
2.93176
2.9362
2.94021
2.94378
2.94617
2.94656
2.94912
2.95511
2.97164
2.9957
3.02449
3.04836
3.06823
3.07845
3.09122
0.99995
0.99995
0.999944
0.999932
0.999913
0.999886
0.999849
0.9998
0.999737
0.999657
0.999557
0.999432
0.99928
0.999096
0.998877
0.998617
0.998311
0.997961
0.997558
0.997096
0.996584
0.996011
0.995373
0.994736
0.994025
0.99314
0.992183
0.9913
0.990441
0.989355
0.988012
0.98686
0.985848
0.984714
0.983401
0.982057
0.980416
0.978016
0.975684
0.974224
0.973345
0.973108
0.973113
0.973477
0.974576
0.977847
1.00509
1.47544
1.97337
1.96694
1.95147
1.94269
1.94806
1.97389
2.05314
2.18353
2.24735
2.27932
2.22844
2.23052
2.16132
2.13958
2.08441
2.11546
2.13614
2.13223
2.2089
2.26018
2.30234
2.40483
2.48886
2.56167
2.63689
2.71276
2.771
2.80989
2.84124
2.86021
2.87435
2.88222
2.88268
2.88435
2.88868
2.88996
2.88252
2.87675
2.87768
2.87741
2.87325
2.86619
2.86446
2.86442
2.86327
2.86308
2.86431
2.86626
2.86821
2.86981
2.87212
2.87839
2.88927
2.90302
2.91545
2.92435
2.92985
2.9337
2.9375
2.94
2.93949
2.93845
2.94087
2.94739
2.96462
2.98752
3.01277
3.03704
3.05857
3.07153
3.08461
0.999951
0.999951
0.999945
0.999934
0.999915
0.999888
0.999852
0.999803
0.999741
0.999662
0.999563
0.99944
0.999289
0.999107
0.998889
0.998631
0.998326
0.997977
0.997574
0.99711
0.996594
0.996021
0.995378
0.994721
0.994011
0.993138
0.992163
0.991241
0.990396
0.989362
0.987919
0.986667
0.985663
0.984815
0.98379
0.98237
0.980289
0.977653
0.976038
0.975033
0.974555
0.974262
0.973988
0.974024
0.975045
0.979668
1.03681
1.74118
2.00505
2.00394
1.98939
1.97521
1.96004
1.95672
1.97136
2.03501
2.11532
2.229
2.24125
2.29235
2.20259
2.22438
2.17567
2.27107
2.3013
2.32799
2.44679
2.51264
2.58062
2.66845
2.72957
2.77523
2.81426
2.83946
2.84918
2.8578
2.86574
2.8693
2.86793
2.86786
2.87131
2.87496
2.87495
2.87184
2.86474
2.86372
2.86542
2.86421
2.86037
2.85746
2.8572
2.85675
2.85761
2.86027
2.86265
2.86504
2.86673
2.86867
2.87307
2.88057
2.89066
2.90365
2.91571
2.92398
2.92879
2.93214
2.93452
2.93415
2.9318
2.93132
2.93388
2.94219
2.95776
2.97651
3.00111
3.02725
3.04961
3.06351
3.07677
0.999952
0.999952
0.999946
0.999935
0.999917
0.99989
0.999854
0.999807
0.999746
0.999668
0.99957
0.999449
0.9993
0.999119
0.998903
0.998647
0.998345
0.997996
0.997596
0.997132
0.996614
0.996048
0.995398
0.99471
0.993987
0.993127
0.992161
0.991239
0.990399
0.989337
0.987822
0.986572
0.985623
0.984955
0.984144
0.982767
0.980212
0.977743
0.976515
0.975795
0.975567
0.975474
0.9756
0.976176
0.978677
0.991864
1.23403
1.90612
2.01323
2.01168
2.00761
2.00279
1.98665
1.97139
1.96635
1.99375
2.02059
2.10923
2.24977
2.36685
2.34063
2.38426
2.41577
2.51773
2.55319
2.59221
2.67112
2.72883
2.77426
2.80809
2.82377
2.83609
2.84741
2.85106
2.85024
2.84759
2.85173
2.85556
2.85481
2.85669
2.8593
2.86013
2.85748
2.85446
2.8511
2.85104
2.85265
2.85063
2.8489
2.84869
2.84891
2.85072
2.85451
2.85758
2.86007
2.86219
2.86448
2.86813
2.87407
2.88159
2.89131
2.90397
2.91572
2.92372
2.92816
2.9306
2.93015
2.92705
2.92482
2.92543
2.92868
2.93724
2.94918
2.96479
2.99051
3.01841
3.04081
3.0548
3.06824
0.999953
0.999953
0.999948
0.999937
0.999919
0.999893
0.999857
0.999811
0.999751
0.999674
0.999578
0.999458
0.999312
0.999134
0.99892
0.998666
0.998367
0.998019
0.997622
0.997161
0.996647
0.996095
0.995435
0.99471
0.993963
0.993122
0.992189
0.991297
0.990429
0.989284
0.987737
0.986535
0.985664
0.985142
0.984418
0.983068
0.98025
0.978067
0.977109
0.97655
0.97636
0.976329
0.976592
0.97749
0.980144
1.00492
1.50042
2.02275
2.01584
2.01094
2.01097
2.01213
2.00823
1.99397
1.98233
2.01064
2.02902
2.06838
2.28779
2.48844
2.57339
2.60715
2.65367
2.71246
2.73078
2.75603
2.78673
2.80563
2.81682
2.82431
2.82631
2.82871
2.83151
2.83371
2.83624
2.83707
2.83887
2.841
2.8407
2.84162
2.84219
2.84202
2.8394
2.83897
2.83878
2.83886
2.84
2.83899
2.83947
2.84092
2.84261
2.84647
2.85162
2.85488
2.85744
2.85988
2.86319
2.86829
2.87484
2.88221
2.89197
2.90389
2.91518
2.92326
2.92678
2.92754
2.92454
2.92073
2.91923
2.92123
2.92459
2.9305
2.93898
2.95475
2.98109
3.00919
3.03158
3.0458
3.05923
0.999954
0.999955
0.999949
0.999938
0.999921
0.999896
0.999861
0.999815
0.999757
0.999682
0.999587
0.99947
0.999326
0.999151
0.99894
0.998689
0.998396
0.998051
0.997653
0.997195
0.996695
0.996156
0.995488
0.994728
0.993954
0.993128
0.992262
0.991451
0.990511
0.989215
0.987704
0.986582
0.985818
0.985287
0.984487
0.983124
0.980426
0.978794
0.97798
0.977449
0.977085
0.976735
0.976374
0.9768
0.980214
1.0311
1.77078
2.05364
2.05404
2.04675
2.03993
2.03679
2.03338
2.02225
2.02523
2.06337
2.11572
2.2209
2.4994
2.66803
2.73573
2.74946
2.75961
2.77242
2.78192
2.79068
2.79821
2.80173
2.79913
2.80198
2.80766
2.81213
2.81333
2.81589
2.81802
2.82061
2.82195
2.82289
2.82261
2.82402
2.82546
2.82704
2.82646
2.82715
2.82847
2.82829
2.8283
2.82779
2.82996
2.83251
2.8364
2.84263
2.84798
2.85148
2.85415
2.8575
2.86261
2.86909
2.87581
2.883
2.89292
2.90408
2.91401
2.9212
2.92381
2.92269
2.91883
2.91579
2.91522
2.91676
2.91812
2.92218
2.92966
2.94619
2.97162
2.9989
3.02208
3.03688
3.05009
0.999956
0.999956
0.999951
0.99994
0.999923
0.999899
0.999865
0.999821
0.999763
0.99969
0.999598
0.999483
0.999342
0.999171
0.998963
0.998719
0.998432
0.998089
0.997691
0.997236
0.996758
0.99623
0.995551
0.994763
0.993975
0.993165
0.992408
0.991606
0.99058
0.989169
0.987825
0.986818
0.986032
0.985303
0.984285
0.982796
0.98102
0.980115
0.979421
0.97893
0.978602
0.97811
0.977505
0.978511
0.989711
1.22883
1.93952
2.05617
2.05925
2.05906
2.05653
2.06079
2.06309
2.06063
2.08278
2.15585
2.28771
2.48301
2.75183
2.79708
2.7982
2.78679
2.77748
2.77352
2.77078
2.77182
2.77491
2.77749
2.77687
2.77779
2.78333
2.78957
2.79339
2.79692
2.79927
2.80234
2.80428
2.80516
2.80508
2.8062
2.80844
2.81183
2.81367
2.81523
2.81656
2.81614
2.81549
2.81654
2.81994
2.82364
2.83021
2.83806
2.84323
2.84721
2.85081
2.856
2.8631
2.87026
2.87658
2.88335
2.89316
2.90374
2.91188
2.9176
2.91934
2.91706
2.91375
2.91202
2.91069
2.90999
2.90975
2.91392
2.92187
2.93806
2.96104
2.98762
3.0127
3.02834
3.04107
0.999957
0.999957
0.999952
0.999942
0.999926
0.999902
0.999869
0.999826
0.999771
0.999699
0.99961
0.999498
0.99936
0.999193
0.998991
0.998755
0.998475
0.998133
0.997735
0.997287
0.996838
0.996318
0.99562
0.994818
0.994037
0.993284
0.992586
0.991684
0.99054
0.989268
0.988243
0.987296
0.986271
0.985044
0.983699
0.982512
0.981795
0.981457
0.981378
0.981092
0.98035
0.978689
0.976678
0.978789
1.00332
1.50892
2.06089
2.05125
2.05413
2.05919
2.06168
2.07452
2.08867
2.10755
2.17992
2.29635
2.55214
2.73573
2.83637
2.82359
2.79819
2.78021
2.76481
2.75608
2.74894
2.74515
2.7441
2.74542
2.74842
2.75222
2.7574
2.76321
2.76924
2.77497
2.7784
2.78166
2.78368
2.78497
2.78544
2.78728
2.79065
2.79523
2.79861
2.80064
2.80123
2.80103
2.80117
2.80413
2.80881
2.81492
2.82337
2.83098
2.83648
2.84143
2.84703
2.85401
2.86215
2.86967
2.876
2.88253
2.8919
2.90217
2.9088
2.91271
2.91342
2.91129
2.90937
2.90722
2.90409
2.90245
2.90187
2.90612
2.91504
2.9293
2.94962
2.97601
3.00301
3.0198
3.03185
0.999959
0.999959
0.999954
0.999945
0.999929
0.999906
0.999874
0.999833
0.999779
0.99971
0.999623
0.999516
0.999382
0.999219
0.999022
0.998798
0.998525
0.998182
0.997788
0.997353
0.996934
0.996413
0.995688
0.994895
0.994179
0.993524
0.992742
0.991642
0.990477
0.989612
0.988902
0.988021
0.986425
0.984448
0.983283
0.982639
0.982403
0.982414
0.982842
0.982642
0.981498
0.977591
0.974654
0.978321
1.03867
1.79338
2.08788
2.09206
2.0874
2.08478
2.08541
2.10668
2.12797
2.19471
2.3572
2.53795
2.78012
2.83855
2.82638
2.80225
2.78597
2.76585
2.74921
2.73711
2.72781
2.72177
2.71808
2.71569
2.71808
2.72205
2.7275
2.7341
2.74038
2.74711
2.75249
2.75691
2.75972
2.7619
2.76378
2.76662
2.77088
2.77613
2.78068
2.78323
2.78383
2.78452
2.78629
2.79061
2.79657
2.80514
2.81406
2.82035
2.82628
2.83323
2.84073
2.84872
2.85726
2.86525
2.87229
2.87902
2.88774
2.89792
2.90423
2.90686
2.90706
2.90573
2.90458
2.9009
2.89684
2.89508
2.89482
2.89921
2.90715
2.9188
2.93818
2.96504
2.99323
3.01076
3.02154
0.999961
0.999961
0.999956
0.999947
0.999932
0.99991
0.99988
0.99984
0.999788
0.999722
0.999638
0.999536
0.999407
0.999247
0.999058
0.998848
0.998581
0.998235
0.997848
0.997443
0.997057
0.996515
0.995746
0.99503
0.994426
0.993819
0.992847
0.99153
0.990603
0.990102
0.989704
0.988785
0.986454
0.984121
0.983192
0.982865
0.982832
0.982953
0.983537
0.983313
0.982113
0.978411
0.977914
0.991996
1.26189
1.96637
2.08771
2.09756
2.09938
2.10203
2.1153
2.15643
2.20092
2.36412
2.6116
2.76361
2.84829
2.82927
2.80213
2.78757
2.76769
2.74828
2.73234
2.72011
2.71087
2.70472
2.70089
2.69788
2.69727
2.69666
2.699
2.70296
2.70792
2.7152
2.72297
2.72977
2.73425
2.73783
2.74104
2.74499
2.74948
2.75487
2.75998
2.76294
2.76493
2.76686
2.77055
2.77604
2.7839
2.79297
2.80079
2.80634
2.81377
2.82304
2.832
2.84067
2.84935
2.85786
2.86641
2.87448
2.88297
2.89279
2.89947
2.90152
2.90149
2.90077
2.89878
2.89397
2.88997
2.88836
2.88864
2.89162
2.89724
2.90796
2.92752
2.95501
2.98335
3.00057
3.01005
0.999963
0.999963
0.999959
0.99995
0.999935
0.999914
0.999886
0.999848
0.999798
0.999735
0.999656
0.999559
0.999434
0.999279
0.999097
0.998904
0.998646
0.998297
0.997919
0.997563
0.997198
0.996612
0.995831
0.995232
0.994752
0.994142
0.992912
0.991554
0.990886
0.99065
0.990399
0.989376
0.986469
0.984247
0.983478
0.983133
0.982972
0.982967
0.983358
0.983241
0.98216
0.979558
0.981434
1.01713
1.57653
2.0887
2.0883
2.09245
2.10215
2.1156
2.14238
2.24604
2.36404
2.60507
2.7981
2.85744
2.83511
2.80359
2.78723
2.76761
2.74827
2.73025
2.71591
2.70523
2.69756
2.69205
2.68738
2.6832
2.68005
2.67776
2.6787
2.67962
2.68297
2.68888
2.6952
2.70226
2.70805
2.71305
2.71712
2.72151
2.72581
2.73163
2.7376
2.74172
2.74583
2.74971
2.75528
2.76267
2.77164
2.78076
2.78746
2.79415
2.80357
2.81417
2.82379
2.83292
2.84157
2.85037
2.86049
2.87031
2.87881
2.88748
2.89421
2.89651
2.89632
2.89542
2.89202
2.88676
2.88321
2.88135
2.88067
2.88239
2.88672
2.8977
2.91768
2.9459
2.97352
2.98973
2.99728
0.999965
0.999965
0.999961
0.999953
0.999939
0.999919
0.999892
0.999856
0.99981
0.99975
0.999675
0.999585
0.999465
0.999315
0.999142
0.998967
0.99872
0.998368
0.998008
0.997709
0.997358
0.996721
0.99597
0.995488
0.99511
0.994461
0.993024
0.991808
0.991245
0.991071
0.990851
0.989803
0.987134
0.984951
0.984044
0.983341
0.982772
0.982451
0.982345
0.982535
0.981784
0.980129
0.986181
1.11961
1.87192
2.09804
2.10355
2.10777
2.12415
2.16534
2.2163
2.41981
2.61825
2.79996
2.86258
2.84081
2.80803
2.78835
2.76725
2.74963
2.73263
2.71762
2.70524
2.69581
2.68899
2.68342
2.67793
2.67286
2.66884
2.66597
2.66441
2.66339
2.66533
2.66814
2.67152
2.67654
2.68197
2.68785
2.69261
2.69902
2.70492
2.71108
2.71748
2.72326
2.72826
2.73336
2.73951
2.74752
2.75655
2.76554
2.77253
2.78092
2.79197
2.80339
2.81325
2.82263
2.83174
2.84133
2.85299
2.86467
2.8738
2.88127
2.8874
2.89066
2.89073
2.88921
2.88477
2.87986
2.87657
2.87345
2.87129
2.87231
2.87621
2.88789
2.90874
2.93722
2.96334
2.978
2.98474
0.999967
0.999967
0.999964
0.999956
0.999943
0.999925
0.999899
0.999866
0.999822
0.999766
0.999696
0.999614
0.9995
0.999355
0.999193
0.999036
0.998802
0.99845
0.998125
0.997872
0.997535
0.996862
0.99619
0.995783
0.995451
0.994778
0.993353
0.992266
0.991644
0.991291
0.991095
0.990262
0.98863
0.986204
0.984626
0.983543
0.982579
0.981856
0.981546
0.981722
0.982416
0.985724
1.00878
1.44121
2.0244
2.08323
2.09798
2.11971
2.16241
2.27106
2.39923
2.65856
2.80067
2.85772
2.83909
2.80846
2.78859
2.76665
2.74936
2.73398
2.72013
2.70769
2.69706
2.68875
2.68236
2.67665
2.67078
2.66531
2.66055
2.65641
2.6538
2.65221
2.65236
2.6524
2.65364
2.65557
2.65812
2.66243
2.66727
2.67542
2.68286
2.69015
2.69711
2.70454
2.71139
2.71773
2.72486
2.733
2.74155
2.75072
2.75887
2.76835
2.77996
2.79149
2.80101
2.81034
2.81999
2.83057
2.84308
2.8561
2.86667
2.87379
2.87895
2.88263
2.88358
2.8816
2.87707
2.87237
2.86863
2.86477
2.86192
2.86252
2.86608
2.87807
2.90007
2.92852
2.95274
2.96597
2.9718
0.99997
0.99997
0.999967
0.999959
0.999948
0.999931
0.999907
0.999876
0.999836
0.999783
0.999719
0.999644
0.999538
0.9994
0.999251
0.999113
0.998894
0.998551
0.998268
0.998045
0.997725
0.997078
0.996474
0.996078
0.995757
0.995153
0.993973
0.992857
0.992108
0.991555
0.991295
0.990905
0.989921
0.988134
0.985183
0.983613
0.982511
0.981585
0.981178
0.980961
0.981501
0.988153
1.05478
1.78958
2.10298
2.11619
2.132
2.18217
2.25231
2.47086
2.64989
2.81312
2.84996
2.83248
2.80395
2.78691
2.7666
2.74956
2.73461
2.72226
2.71131
2.70099
2.69143
2.68333
2.67669
2.67057
2.66452
2.65901
2.65392
2.64928
2.64583
2.64313
2.64132
2.63968
2.6396
2.6385
2.63934
2.64179
2.64521
2.65267
2.6603
2.66907
2.67717
2.68539
2.6931
2.69967
2.70656
2.71546
2.72497
2.73528
2.74504
2.75618
2.76802
2.77933
2.78865
2.79837
2.8089
2.82041
2.83347
2.84728
2.85912
2.86689
2.87143
2.8744
2.87566
2.87353
2.86985
2.86485
2.85919
2.85492
2.85222
2.85342
2.8573
2.86976
2.89165
2.91895
2.94141
2.95353
2.95878
0.999972
0.999973
0.99997
0.999963
0.999953
0.999937
0.999916
0.999888
0.999851
0.999803
0.999745
0.999678
0.99958
0.999453
0.999318
0.999196
0.998997
0.998678
0.998426
0.998226
0.997937
0.997381
0.996811
0.9964
0.996069
0.995601
0.99476
0.993532
0.992642
0.991972
0.991649
0.991594
0.990949
0.989511
0.98611
0.98387
0.982805
0.981769
0.981611
0.981851
0.98384
1.00331
1.2994
2.01423
2.1244
2.14562
2.19132
2.30501
2.45255
2.70691
2.79928
2.83763
2.82264
2.79785
2.78279
2.76449
2.74936
2.73506
2.72284
2.7127
2.70382
2.69517
2.68637
2.67836
2.67133
2.66471
2.65848
2.65291
2.64786
2.64298
2.63876
2.6351