/*--------------------------------*- C++ -*----------------------------------*\
| =========                 |                                                 |
| \\      /  F ield         | OpenFOAM: The Open Source CFD Toolbox           |
|  \\    /   O peration     | Version:  2.2.x                                 |
|   \\  /    A nd           | Web:      www.OpenFOAM.org                      |
|    \\/     M anipulation  |                                                 |
\*---------------------------------------------------------------------------*/
FoamFile
{
    version     2.0;
    format      ascii;
    class       volScalarField;
    location    "1.2";
    object      T;
}
// * * * * * * * * * * * * * * * * * * * * * * * * * * * * * * * * * * * * * //

dimensions      [0 0 0 1 0 0 0];

internalField   nonuniform List<scalar> 
14161
(
0.999736
0.999739
0.999702
0.999636
0.999532
0.999386
0.99919
0.998934
0.998606
0.998194
0.997682
0.997055
0.996297
0.99539
0.994319
0.993057
0.991643
0.989975
0.988107
0.986201
0.983864
0.981425
0.979029
0.976174
0.973633
0.970785
0.968301
0.966459
0.964169
0.962869
0.962349
0.96232
0.962913
0.964292
0.966357
0.96993
0.974856
0.981352
0.989681
1.00012
1.01175
1.02356
1.03868
1.05556
1.06883
1.09167
1.10238
1.17474
2.6147
2.97049
3.01036
3.02898
3.02357
3.02129
3.00139
2.99123
2.96529
2.94289
2.91572
2.88754
2.8574
2.83018
2.8019
2.77757
2.75927
2.7393
2.72474
2.71416
2.69748
2.68597
2.67813
2.66865
2.65977
2.65437
2.64583
2.63867
2.63813
2.64116
2.6338
2.62261
2.60433
2.5882
2.57392
2.56818
2.56826
2.56874
2.55118
2.53556
2.52458
2.48324
2.46062
2.45744
2.43244
2.4096
2.38043
2.34977
2.31811
2.30056
2.27883
2.27036
2.25351
2.28505
2.31265
2.42967
2.56527
2.66749
2.79142
2.88183
2.94419
2.98691
3.0233
3.05688
3.08054
3.09473
3.10983
3.12789
3.14712
3.16357
3.18043
0.999736
0.999739
0.999702
0.999635
0.999532
0.999386
0.99919
0.998933
0.998606
0.998193
0.997682
0.997055
0.996296
0.99539
0.994318
0.993063
0.991636
0.989977
0.98812
0.986171
0.983885
0.981445
0.978984
0.976269
0.973512
0.970874
0.968357
0.966108
0.964221
0.962978
0.962144
0.962077
0.962594
0.963855
0.966046
0.969593
0.97432
0.980524
0.98868
0.998914
1.01065
1.02253
1.03741
1.05539
1.07139
1.09376
1.11464
1.21748
2.64735
2.98736
3.02195
3.03959
3.02621
3.02055
2.99498
2.98349
2.95909
2.93788
2.91385
2.88772
2.86236
2.83479
2.81007
2.78652
2.76698
2.75107
2.73326
2.71785
2.70203
2.68887
2.68124
2.67402
2.66292
2.65319
2.64519
2.63621
2.63017
2.62588
2.61762
2.60898
2.59992
2.58632
2.5715
2.5622
2.55581
2.54983
2.52894
2.52371
2.51839
2.47826
2.45855
2.44719
2.41367
2.38972
2.36357
2.33639
2.31328
2.30033
2.28353
2.29004
2.3115
2.39679
2.51721
2.70422
2.83017
2.91277
2.97076
3.00123
3.02649
3.04545
3.06685
3.08979
3.10639
3.11656
3.12866
3.14353
3.15602
3.16421
3.1789
0.999736
0.999739
0.999702
0.999635
0.999532
0.999386
0.99919
0.998934
0.998606
0.998194
0.997682
0.997055
0.996296
0.99539
0.994319
0.993068
0.991626
0.989981
0.988135
0.986109
0.983893
0.981465
0.97891
0.976288
0.973391
0.970943
0.968258
0.965722
0.964221
0.962805
0.961658
0.961449
0.96182
0.963015
0.96517
0.96853
0.973086
0.978621
0.986067
0.995725
1.00726
1.01969
1.03445
1.05188
1.06891
1.09029
1.10652
1.19557
2.64557
2.99507
3.03108
3.05361
3.03532
3.0292
2.99728
2.97917
2.94851
2.92397
2.89925
2.87283
2.84933
2.82607
2.80258
2.78278
2.76236
2.74579
2.72901
2.71073
2.69747
2.68644
2.67866
2.6706
2.66205
2.65228
2.64418
2.63575
2.62539
2.61547
2.60484
2.5964
2.5949
2.58598
2.57274
2.56084
2.54689
2.5321
2.51327
2.50528
2.51126
2.47072
2.4528
2.43187
2.39795
2.37179
2.34728
2.32622
2.31183
2.30616
2.30173
2.35239
2.41416
2.54096
2.69981
2.84165
2.99442
3.07376
3.09443
3.09596
3.0994
3.10343
3.11285
3.12444
3.13123
3.13464
3.14025
3.14931
3.15629
3.15792
3.16844
0.999736
0.999739
0.999702
0.999636
0.999532
0.999386
0.99919
0.998934
0.998606
0.998194
0.997682
0.997056
0.996297
0.995389
0.994318
0.993068
0.991607
0.989991
0.988148
0.986046
0.983899
0.981485
0.978846
0.976248
0.973374
0.970907
0.968216
0.965494
0.963978
0.962636
0.961113
0.960468
0.960662
0.961658
0.963561
0.966495
0.970693
0.97564
0.981945
0.990179
1.00092
1.01449
1.02928
1.04571
1.06335
1.08723
1.1055
1.18384
2.63393
2.99564
3.03255
3.06309
3.03462
3.03265
2.99945
2.98177
2.95047
2.92131
2.89106
2.86291
2.83286
2.80793
2.78383
2.76181
2.74355
2.72431
2.70839
2.68995
2.67269
2.66388
2.65478
2.64669
2.63839
2.63022
2.62161
2.61329
2.60533
2.59745
2.58662
2.573
2.56583
2.56267
2.55082
2.54199
2.52696
2.50743
2.48808
2.47136
2.47712
2.43947
2.4212
2.40139
2.37183
2.35038
2.33411
2.32145
2.3116
2.34323
2.3639
2.48016
2.6265
2.78425
2.94775
3.05128
3.11258
3.16396
3.18459
3.18466
3.17855
3.1744
3.17459
3.17253
3.16487
3.15711
3.15342
3.15403
3.15526
3.15158
3.15915
0.999736
0.999739
0.999703
0.999636
0.999533
0.999387
0.999191
0.998935
0.998607
0.998195
0.997683
0.997056
0.996298
0.99539
0.994318
0.993069
0.991592
0.989997
0.988153
0.98602
0.98389
0.981493
0.978788
0.976181
0.973423
0.970654
0.968032
0.965396
0.963267
0.961924
0.960526
0.959431
0.959079
0.959541
0.960941
0.963199
0.966523
0.971205
0.9757
0.982382
0.991359
1.00494
1.01913
1.03503
1.05354
1.08152
1.10762
1.18748
2.60874
2.993
3.03207
3.06887
3.02846
3.02425
2.98412
2.96296
2.92958
2.89931
2.8677
2.84247
2.81062
2.7794
2.75405
2.72642
2.70766
2.69035
2.67016
2.65469
2.63887
2.62081
2.60855
2.60154
2.59298
2.58767
2.58041
2.57092
2.56368
2.55441
2.54458
2.53176
2.51876
2.51609
2.50456
2.49636
2.48417
2.46729
2.44422
2.42524
2.42694
2.3916
2.37584
2.36055
2.34185
2.33071
2.32999
2.33422
2.34286
2.42513
2.52152
2.68346
2.82976
2.98655
3.08804
3.12729
3.16035
3.19337
3.21696
3.22463
3.22152
3.2198
3.21808
3.20877
3.19252
3.17703
3.16592
3.15836
3.15315
3.14589
3.151
0.999737
0.99974
0.999703
0.999636
0.999533
0.999388
0.999192
0.998936
0.998608
0.998196
0.997685
0.997058
0.9963
0.995392
0.99432
0.993068
0.99159
0.989997
0.988146
0.986013
0.983867
0.981492
0.978742
0.976105
0.973419
0.970289
0.967831
0.965465
0.96253
0.960686
0.959614
0.958394
0.957057
0.956731
0.957304
0.958663
0.961165
0.964387
0.96849
0.972621
0.979361
0.988674
1.00119
1.01793
1.03685
1.06478
1.08628
1.15196
2.535
2.97757
3.02928
3.07561
3.02247
3.0149
2.96513
2.9373
2.90253
2.86793
2.8286
2.79841
2.76243
2.72468
2.69167
2.65974
2.6404
2.6193
2.60103
2.58898
2.57254
2.55207
2.53489
2.52931
2.52271
2.5171
2.51171
2.50411
2.49555
2.48645
2.47792
2.46743
2.4548
2.44662
2.43619
2.42423
2.41408
2.40226
2.38285
2.36962
2.36233
2.34271
2.33316
2.32639
2.32403
2.32554
2.34558
2.39206
2.44134
2.59734
2.74099
2.88567
3.02584
3.09296
3.1289
3.1521
3.18177
3.20742
3.22717
3.24087
3.24835
3.25003
3.24613
3.23384
3.21608
3.19446
3.17719
3.16207
3.15166
3.14184
3.14448
0.999738
0.999741
0.999704
0.999637
0.999534
0.999389
0.999193
0.998937
0.998611
0.998199
0.997688
0.997062
0.996304
0.995396
0.994323
0.993071
0.991602
0.989987
0.988132
0.98602
0.983811
0.981456
0.978709
0.976017
0.973353
0.970076
0.967486
0.965197
0.962133
0.959505
0.958094
0.956852
0.955142
0.953332
0.952651
0.952874
0.954251
0.956048
0.958441
0.961331
0.963479
0.968231
0.975564
0.991716
1.00843
1.03108
1.0511
1.10758
2.40014
2.94866
3.02655
3.07405
2.99944
2.9797
2.91328
2.87076
2.82688
2.78502
2.74311
2.7095
2.68094
2.63886
2.60415
2.56937
2.54711
2.52756
2.51461
2.5031
2.4918
2.46904
2.44943
2.44031
2.43704
2.4325
2.42744
2.4211
2.41267
2.40051
2.38943
2.38737
2.37862
2.37012
2.35806
2.34964
2.34145
2.33455
2.3217
2.31545
2.31516
2.30975
2.31088
2.29893
2.33885
2.35587
2.41005
2.52286
2.64595
2.77709
2.92837
3.02528
3.08431
3.11579
3.1352
3.16333
3.18944
3.2124
3.23172
3.25141
3.26295
3.26702
3.26206
3.25157
3.23355
3.20946
3.18635
3.16492
3.15007
3.13894
3.13942
0.999739
0.999742
0.999705
0.999638
0.999536
0.99939
0.999195
0.99894
0.998614
0.998203
0.997692
0.997067
0.996309
0.995401
0.994328
0.993074
0.991622
0.989965
0.988114
0.986033
0.983732
0.98136
0.978722
0.975865
0.973116
0.970095
0.966996
0.964496
0.961745
0.958666
0.956075
0.954417
0.952743
0.950473
0.94781
0.945941
0.945514
0.94591
0.94652
0.947137
0.947039
0.945171
0.945952
0.949928
0.962781
0.974359
0.984699
1.05447
2.13285
2.89582
3.01019
3.05316
2.94327
2.9041
2.8226
2.76406
2.70719
2.67028
2.63188
2.5963
2.57631
2.53852
2.51119
2.47546
2.45286
2.43496
2.42537
2.41614
2.40635
2.39103
2.37321
2.35888
2.3547
2.35086
2.34581
2.34103
2.33454
2.32378
2.31605
2.31064
2.30971
2.30425
2.29661
2.29085
2.28747
2.2897
2.28382
2.29256
2.29848
2.29516
2.32047
2.32021
2.39056
2.46149
2.56548
2.71345
2.83632
2.95427
3.01812
3.0601
3.08854
3.11141
3.13758
3.16335
3.18955
3.21318
3.23543
3.25544
3.2675
3.27172
3.27074
3.26242
3.24604
3.22066
3.1922
3.16646
3.14844
3.1363
3.13549
0.99974
0.999743
0.999706
0.99964
0.999537
0.999393
0.999198
0.998943
0.998618
0.998208
0.997698
0.997073
0.996316
0.99541
0.994335
0.993077
0.991634
0.98995
0.988095
0.986058
0.983691
0.981245
0.978717
0.975687
0.972852
0.970026
0.966507
0.963557
0.960971
0.958138
0.954323
0.951404
0.94932
0.947078
0.943931
0.939496
0.935894
0.933508
0.931725
0.929736
0.928053
0.924234
0.914271
0.908097
0.903597
0.897592
0.892945
0.944845
1.55884
2.77917
2.98778
2.97083
2.82862
2.75903
2.67979
2.62645
2.57145
2.54808
2.52576
2.49071
2.47871
2.4468
2.4292
2.3958
2.37624
2.35649
2.34833
2.34174
2.32945
2.31901
2.30575
2.29625
2.28891
2.28163
2.27622
2.27839
2.27449
2.26818
2.26143
2.25766
2.2607
2.26267
2.2604
2.26368
2.26405
2.27341
2.26579
2.29604
2.31475
2.31472
2.37716
2.41244
2.52763
2.66348
2.7629
2.89098
2.97086
3.01097
3.03422
3.05273
3.07886
3.10571
3.13281
3.16173
3.18835
3.21298
3.23624
3.25442
3.26542
3.27252
3.27453
3.26839
3.25383
3.22762
3.19578
3.16711
3.14679
3.13376
3.13209
0.999742
0.999744
0.999708
0.999642
0.99954
0.999395
0.999201
0.998948
0.998623
0.998214
0.997706
0.997082
0.996325
0.99542
0.994345
0.993086
0.991642
0.989947
0.988081
0.986054
0.983668
0.981168
0.978652
0.975535
0.972549
0.969703
0.966312
0.962687
0.959848
0.956878
0.952966
0.948782
0.945397
0.942461
0.939084
0.934231
0.927271
0.921199
0.915475
0.910853
0.906184
0.899628
0.891921
0.871297
0.851618
0.824879
0.793392
0.800256
0.845197
2.34369
2.96965
2.81608
2.71544
2.62136
2.54394
2.49832
2.45769
2.43991
2.43244
2.39417
2.39173
2.36177
2.35055
2.32504
2.30399
2.28576
2.27481
2.27029
2.2618
2.25312
2.24637
2.24034
2.23584
2.23184
2.22658
2.23046
2.23102
2.23085
2.22727
2.2273
2.23122
2.24489
2.24275
2.25994
2.26215
2.2847
2.28644
2.3319
2.3824
2.41366
2.52321
2.63621
2.72044
2.84923
2.94041
2.98618
3.00578
3.01576
3.02504
3.0436
3.06845
3.09398
3.12519
3.15327
3.18275
3.20944
3.23205
3.24809
3.26039
3.26992
3.27426
3.27048
3.25714
3.23144
3.19791
3.16663
3.14466
3.13139
3.12916
0.999744
0.999746
0.99971
0.999644
0.999542
0.999399
0.999205
0.998953
0.99863
0.998222
0.997715
0.997093
0.996337
0.995432
0.994358
0.9931
0.991649
0.98996
0.98807
0.986027
0.98365
0.981069
0.97848
0.97549
0.972228
0.969213
0.965991
0.96203
0.958341
0.955147
0.951572
0.946891
0.941757
0.937084
0.933468
0.928549
0.921983
0.912096
0.902886
0.893292
0.882873
0.874798
0.863168
0.848036
0.818047
0.777426
0.709796
0.642989
0.579847
1.64965
2.86705
2.68292
2.59511
2.52501
2.47031
2.42471
2.39919
2.36637
2.35841
2.32471
2.33236
2.30472
2.28519
2.27366
2.24929
2.23905
2.22339
2.21936
2.2173
2.2108
2.20703
2.20479
2.20301
2.20069
2.20055
2.20304
2.2078
2.21027
2.21393
2.21795
2.22117
2.24434
2.25275
2.28591
2.30277
2.34347
2.38043
2.45955
2.54455
2.61967
2.71604
2.8358
2.91738
2.96963
2.99056
3.00232
3.0051
3.00531
3.01478
3.03514
3.0572
3.08688
3.11664
3.14611
3.17724
3.20386
3.22367
3.2395
3.25371
3.26464
3.27143
3.26937
3.25746
3.2328
3.19796
3.16488
3.14217
3.12898
3.12633
0.999746
0.999748
0.999712
0.999647
0.999546
0.999403
0.999211
0.998959
0.998638
0.998232
0.997727
0.997106
0.996353
0.995448
0.994376
0.993118
0.991658
0.989982
0.988066
0.985983
0.983634
0.980976
0.978282
0.975414
0.971951
0.96865
0.965404
0.961626
0.957055
0.953264
0.949848
0.945438
0.938595
0.932777
0.927569
0.923578
0.917393
0.906332
0.894424
0.881822
0.868342
0.853368
0.843784
0.830239
0.810707
0.790555
0.726622
0.717365
0.877588
1.12916
2.6745
2.55787
2.54775
2.49821
2.45041
2.40134
2.37767
2.33239
2.31831
2.28956
2.28671
2.27644
2.24631
2.24631
2.22069
2.21061
2.19954
2.19516
2.1925
2.19142
2.18694
2.18714
2.1887
2.19078
2.19179
2.19378
2.20619
2.21245
2.22213
2.24272
2.24787
2.2891
2.3134
2.37836
2.4398
2.50611
2.58766
2.65546
2.74078
2.83246
2.91523
2.98118
2.98608
2.99645
2.9983
2.99696
2.99651
2.99781
3.01087
3.02599
3.05003
3.07848
3.10882
3.13985
3.17033
3.19405
3.21288
3.23046
3.24613
3.25846
3.26655
3.26629
3.25536
3.23134
3.19597
3.16224
3.13989
3.12643
3.12308
0.999748
0.999751
0.999715
0.99965
0.999549
0.999408
0.999217
0.998967
0.998647
0.998243
0.997741
0.997123
0.996371
0.995468
0.994398
0.993139
0.991672
0.990007
0.988087
0.985935
0.983621
0.980944
0.978092
0.975217
0.971754
0.968108
0.964784
0.961034
0.95611
0.951575
0.948001
0.943322
0.936728
0.929891
0.923006
0.918419
0.912088
0.90394
0.88934
0.876234
0.861714
0.846717
0.830587
0.819356
0.801857
0.77966
0.707506
0.675232
0.80712
1.21457
2.26947
2.39465
2.48003
2.4964
2.4655
2.40892
2.384
2.34588
2.32076
2.28908
2.26216
2.26496
2.23113
2.24148
2.21262
2.20171
2.19244
2.19029
2.18834
2.18769
2.18825
2.18818
2.18849
2.19917
2.20595
2.21162
2.23958
2.25613
2.28329
2.33004
2.3536
2.43109
2.48946
2.56377
2.65793
2.73019
2.80667
2.87126
2.9381
2.97951
2.99584
3.0116
2.99641
2.98904
2.98939
2.99048
2.9908
2.99802
3.00674
3.02172
3.04452
3.07178
3.10223
3.13366
3.1614
3.18348
3.20333
3.22183
3.23894
3.25253
3.26096
3.26169
3.25082
3.22705
3.19225
3.16067
3.13847
3.12354
3.11972
0.999751
0.999753
0.999718
0.999653
0.999554
0.999413
0.999224
0.998976
0.998658
0.998257
0.997757
0.997142
0.996393
0.995493
0.994424
0.993165
0.991698
0.99003
0.988105
0.985923
0.983598
0.980911
0.977926
0.974959
0.971646
0.967764
0.964019
0.960195
0.955644
0.950448
0.945755
0.941226
0.935869
0.928106
0.920791
0.913701
0.908628
0.901181
0.888022
0.874935
0.862457
0.849862
0.836125
0.82669
0.817621
0.808117
0.812182
0.890241
1.29493
1.92699
2.09387
2.32393
2.51633
2.5154
2.51705
2.45345
2.40738
2.37523
2.34375
2.30565
2.26858
2.26523
2.22796
2.23518
2.21272
2.20553
2.1987
2.19419
2.19327
2.20008
2.20844
2.21547
2.221
2.24769
2.26774
2.28398
2.34365
2.38843
2.44511
2.52049
2.57813
2.65448
2.72277
2.79361
2.87488
2.94587
2.99461
2.9967
3.00685
3.02587
3.00853
2.9951
2.98666
2.9861
2.98565
2.98632
2.98944
2.99601
3.00473
3.01911
3.0401
3.06579
3.09475
3.1247
3.15088
3.17373
3.19453
3.21363
3.23155
3.24602
3.25445
3.25513
3.2445
3.22159
3.18906
3.15946
3.13615
3.11976
3.11562
0.999754
0.999757
0.999721
0.999658
0.999559
0.999419
0.999232
0.998986
0.998671
0.998273
0.997776
0.997165
0.99642
0.995523
0.994456
0.993199
0.991736
0.990054
0.988127
0.985938
0.983571
0.980877
0.977829
0.974711
0.971442
0.967544
0.963374
0.959419
0.955115
0.949628
0.944178
0.939572
0.934348
0.927093
0.919648
0.911873
0.907031
0.899335
0.888502
0.875926
0.864791
0.854756
0.84527
0.835312
0.829266
0.820806
0.829759
0.861705
1.75637
2.07764
2.09717
2.12343
2.30653
2.35475
2.4765
2.4495
2.40595
2.39919
2.35842
2.31618
2.28657
2.26391
2.23074
2.22341
2.21632
2.21187
2.21683
2.22056
2.21416
2.24723
2.26649
2.28888
2.31379
2.36887
2.41644
2.4629
2.53968
2.62175
2.69316
2.76498
2.83007
2.88407
2.94406
2.99834
3.03131
3.03117
3.03653
3.03197
3.01485
3.01043
2.99952
2.98925
2.98328
2.98337
2.98331
2.98517
2.98956
2.99456
3.00274
3.01651
3.03657
3.06021
3.08714
3.11546
3.14173
3.16503
3.18641
3.2062
3.2246
3.23846
3.24632
3.24738
3.23689
3.2165
3.18699
3.15684
3.13268
3.11602
3.11118
0.999758
0.99976
0.999725
0.999662
0.999565
0.999427
0.999241
0.998998
0.998686
0.998291
0.997799
0.997191
0.996452
0.995559
0.994495
0.993243
0.991779
0.990088
0.988166
0.985985
0.983552
0.980854
0.977801
0.974515
0.971192
0.967434
0.963044
0.958644
0.954273
0.949353
0.943518
0.938032
0.932635
0.926472
0.919212
0.912076
0.906707
0.899341
0.888902
0.878339
0.869245
0.861955
0.8563
0.850258
0.850708
0.860779
0.935024
1.06122
1.99462
2.13789
2.14281
2.13807
2.1862
2.28424
2.37346
2.48694
2.46461
2.42325
2.3804
2.32767
2.31472
2.28554
2.23862
2.24534
2.24919
2.23897
2.27349
2.29422
2.28399
2.35496
2.40001
2.44776
2.51281
2.581
2.65653
2.72538
2.78729
2.86664
2.92829
2.98305
3.02009
3.03094
3.03809
3.05626
3.06704
3.04624
3.02926
3.02381
3.01542
3.0062
2.99289
2.98543
2.98318
2.98147
2.98218
2.98534
2.98852
2.99342
3.00061
3.01308
3.03192
3.0537
3.07869
3.10616
3.13237
3.15588
3.17794
3.19888
3.21648
3.22959
3.23805
3.23849
3.22961
3.21237
3.18295
3.15355
3.12944
3.11291
3.10716
0.999762
0.999764
0.99973
0.999668
0.999571
0.999435
0.999252
0.999012
0.998703
0.998312
0.997825
0.997223
0.996489
0.995602
0.994543
0.993297
0.991832
0.990136
0.988224
0.986035
0.98357
0.98085
0.977785
0.974407
0.971043
0.96732
0.962871
0.958166
0.953767
0.948974
0.943304
0.937297
0.931312
0.925603
0.919345
0.913285
0.907085
0.899994
0.889845
0.881744
0.874686
0.869321
0.864966
0.858796
0.859532
0.869566
0.98157
1.46645
2.20632
2.18981
2.17324
2.16252
2.15405
2.21208
2.22201
2.39893
2.40715
2.45004
2.38175
2.35529
2.33649
2.32637
2.26092
2.30453
2.32786
2.30822
2.39765
2.444
2.47006
2.54399
2.61447
2.69371
2.75918
2.83091
2.90265
2.96907
3.00774
3.04257
3.05882
3.05899
3.06243
3.06713
3.06925
3.05574
3.05153
3.03897
3.03037
3.02162
3.01139
2.99913
2.9894
2.98568
2.98247
2.98094
2.98264
2.98482
2.98761
2.99204
2.99815
3.0098
3.02692
3.04783
3.07166
3.09804
3.1238
3.14767
3.17053
3.19075
3.20685
3.21956
3.22874
3.22961
3.22275
3.20662
3.17788
3.14982
3.12655
3.10933
3.10265
0.999766
0.999768
0.999735
0.999673
0.999579
0.999445
0.999264
0.999027
0.998722
0.998337
0.997855
0.997259
0.996532
0.995653
0.994601
0.993361
0.991905
0.990204
0.988297
0.986106
0.983628
0.980888
0.977817
0.974372
0.970975
0.967229
0.962767
0.958017
0.953459
0.948726
0.943254
0.936902
0.930912
0.924925
0.919865
0.914877
0.908856
0.900027
0.891722
0.885067
0.879724
0.874566
0.868469
0.85905
0.850239
0.855724
0.899488
1.90307
2.19758
2.20732
2.18961
2.18264
2.17529
2.17379
2.17104
2.26955
2.26776
2.43677
2.38834
2.4249
2.37044
2.40327
2.33206
2.42049
2.48122
2.48854
2.58884
2.67301
2.72739
2.78746
2.86502
2.93552
2.9874
3.03184
3.06124
3.0693
3.07141
3.08284
3.08751
3.07415
3.06493
3.06059
3.0629
3.05383
3.0468
3.03665
3.0297
3.01842
3.00633
2.99538
2.98931
2.98496
2.98164
2.98155
2.98201
2.98303
2.98516
2.98874
2.99534
3.00662
3.02268
3.0423
3.06462
3.09031
3.11607
3.14045
3.16256
3.18074
3.19632
3.20907
3.2185
3.22147
3.21584
3.19965
3.17282
3.14637
3.12399
3.10534
3.09805
0.999771
0.999773
0.99974
0.99968
0.999587
0.999455
0.999278
0.999045
0.998745
0.998365
0.99789
0.997301
0.996582
0.995713
0.994671
0.993439
0.991994
0.990301
0.988389
0.986205
0.983709
0.980952
0.977914
0.974455
0.970939
0.967131
0.962695
0.957968
0.953509
0.948723
0.943175
0.936815
0.930865
0.924888
0.921116
0.91596
0.910744
0.901068
0.89418
0.888467
0.884279
0.880576
0.877043
0.874877
0.880289
0.957012
1.13848
2.09127
2.22252
2.22892
2.22273
2.2217
2.2116
2.19691
2.18309
2.21915
2.23116
2.34035
2.41117
2.46488
2.4915
2.50275
2.52621
2.60012
2.70197
2.75816
2.84615
2.90666
2.96897
3.00914
3.04353
3.06298
3.07215
3.08482
3.09109
3.09426
3.08391
3.07553
3.07398
3.06828
3.06795
3.05979
3.05786
3.0483
3.04176
3.03418
3.02844
3.01508
3.00363
2.9953
2.98922
2.98423
2.98219
2.98152
2.98097
2.981
2.98238
2.98564
2.99249
3.00371
3.01911
3.03727
3.05829
3.08369
3.10952
3.13325
3.15282
3.16966
3.18552
3.19858
3.20885
3.21255
3.20791
3.19326
3.16781
3.14293
3.12028
3.10116
3.09394
0.999777
0.999779
0.999746
0.999687
0.999596
0.999467
0.999293
0.999064
0.99877
0.998397
0.99793
0.997351
0.996641
0.995783
0.994754
0.993532
0.9921
0.990427
0.988515
0.986334
0.983796
0.981077
0.978113
0.97468
0.971008
0.967127
0.962739
0.958016
0.953813
0.948991
0.943095
0.936818
0.930977
0.925464
0.922372
0.917198
0.912283
0.903172
0.897023
0.891878
0.888059
0.88516
0.88149
0.883127
0.891062
0.997433
1.52631
2.27565
2.25729
2.24516
2.23643
2.23286
2.22642
2.22392
2.20355
2.22784
2.25596
2.25725
2.51983
2.59249
2.67415
2.74049
2.78187
2.86617
2.94163
3.00045
3.02876
3.05107
3.06678
3.07275
3.08419
3.09309
3.09254
3.08442
3.08096
3.08153
3.0814
3.07354
3.07138
3.06481
3.06393
3.05703
3.05375
3.04615
3.04136
3.03313
3.02512
3.01263
3.00269
2.99502
2.98799
2.98359
2.98164
2.97998
2.97876
2.97867
2.98005
2.98333
2.99017
3.00059
3.01472
3.03159
3.05164
3.07661
3.10244
3.12434
3.14219
3.15892
3.17461
3.18873
3.19979
3.20205
3.19927
3.18691
3.16383
3.13856
3.11536
3.0967
3.09006
0.999783
0.999785
0.999753
0.999696
0.999607
0.999481
0.99931
0.999087
0.998799
0.998433
0.997975
0.997407
0.996709
0.995865
0.994851
0.993641
0.992226
0.99058
0.988682
0.986497
0.983929
0.981304
0.978405
0.974964
0.971226
0.967197
0.962799
0.958415
0.954247
0.949495
0.943023
0.937081
0.931429
0.926494
0.92323
0.918455
0.91303
0.905177
0.899765
0.894953
0.890495
0.885602
0.877198
0.868866
0.870095
0.917644
1.94949
2.2664
2.27067
2.26283
2.25493
2.25291
2.25727
2.25455
2.24731
2.29835
2.35634
2.42273
2.71406
2.83766
2.93944
2.98728
3.02697
3.05185
3.06837
3.07545
3.07927
3.08397
3.09054
3.08164
3.07624
3.07984
3.08239
3.08329
3.08116
3.07678
3.07593
3.0694
3.06541
3.05954
3.05736
3.05146
3.04836
3.04242
3.03861
3.03011
3.02163
3.01104
3.00299
2.99524
2.9883
2.98364
2.98033
2.97799
2.97647
2.97672
2.97797
2.98104
2.98757
2.99727
3.01041
3.02614
3.0451
3.06877
3.09384
3.11462
3.13207
3.14919
3.16536
3.17919
3.18906
3.19091
3.1897
3.1805
3.15974
3.1338
3.11014
3.09265
3.08708
0.999789
0.999791
0.99976
0.999705
0.999618
0.999496
0.99933
0.999112
0.998831
0.998474
0.998026
0.997471
0.996788
0.99596
0.994963
0.993765
0.992379
0.990767
0.988887
0.986705
0.984155
0.981629
0.978781
0.975292
0.971484
0.967378
0.963049
0.959183
0.954732
0.94994
0.943606
0.93795
0.93246
0.928268
0.923923
0.919312
0.912335
0.907249
0.902837
0.898628
0.895997
0.893909
0.892748
0.894826
0.961372
1.11894
2.13786
2.26903
2.27909
2.2818
2.281
2.28729
2.29551
2.29274
2.30808
2.3852
2.51735
2.61409
2.8882
3.06038
3.10344
3.09781
3.10039
3.10088
3.10146
3.08972
3.08008
3.07255
3.07823
3.08089
3.07745
3.0767
3.07486
3.07271
3.07123
3.0672
3.06597
3.06108
3.05774
3.05288
3.0507
3.04689
3.04554
3.04113
3.03696
3.0294
3.02012
3.01063
3.0029
2.99497
2.98818
2.98319
2.97894
2.97641
2.97467
2.97494
2.9763
2.97929
2.98523
2.99387
3.00602
3.02063
3.03853
3.06103
3.08446
3.1046
3.12297
3.14079
3.15648
3.16914
3.17825
3.17973
3.18043
3.17319
3.15404
3.12885
3.10496
3.08929
3.08472
0.999796
0.999798
0.999769
0.999715
0.999631
0.999512
0.999351
0.99914
0.998867
0.998521
0.998085
0.997544
0.996878
0.996069
0.995092
0.993905
0.992573
0.990994
0.989136
0.986961
0.984501
0.982037
0.979245
0.975658
0.971845
0.967737
0.963907
0.959868
0.955549
0.949963
0.944533
0.93947
0.934873
0.929941
0.924235
0.918583
0.913612
0.909248
0.905221
0.903339
0.900386
0.899446
0.89862
0.905066
1.01799
1.549
2.33656
2.30637
2.29382
2.29378
2.29321
2.30931
2.31976
2.32602
2.42368
2.49261
2.70581
2.88984
3.0831
3.13591
3.1222
3.11494
3.10251
3.09149
3.08664
3.08303
3.07938
3.0735
3.06901
3.07068
3.06694
3.06533
3.06138
3.06043
3.06173
3.06081
3.05957
3.0563
3.05331
3.0496
3.0474
3.04393
3.04142
3.03699
3.03169
3.02471
3.01517
3.00743
3.00081
2.99447
2.98858
2.98301
2.97801
2.97471
2.97287
2.97304
2.97475
2.97761
2.98259
2.98967
3.00024
3.01411
3.03136
3.05271
3.07481
3.09492
3.11438
3.1317
3.14724
3.15973
3.16769
3.16921
3.17136
3.16443
3.14752
3.12368
3.1003
3.08622
3.08186
0.999804
0.999806
0.999778
0.999726
0.999645
0.99953
0.999375
0.999171
0.998907
0.998572
0.99815
0.997626
0.996982
0.996195
0.995238
0.99408
0.992808
0.991263
0.989428
0.987276
0.984946
0.982535
0.979744
0.976116
0.972351
0.968628
0.965
0.960833
0.955561
0.950411
0.945689
0.942226
0.937788
0.930512
0.924338
0.919288
0.915118
0.910987
0.907032
0.905247
0.900355
0.893979
0.879584
0.880319
0.951139
2.01046
2.31814
2.32026
2.31186
2.3077
2.30841
2.34342
2.35215
2.40293
2.59146
2.67237
2.92636
3.09379
3.14204
3.11709
3.10305
3.08975
3.082
3.07535
3.0706
3.06558
3.06208
3.06018
3.05568
3.05797
3.05688
3.05915
3.05675
3.05362
3.05201
3.05044
3.04872
3.04498
3.04172
3.03858
3.03743
3.03538
3.03332
3.03275
3.02763
3.02234
3.01344
3.00585
2.99835
2.9919
2.9858
2.98006
2.97455
2.97094
2.96903
2.96899
2.97047
2.97317
2.97751
2.98355
2.99313
3.0064
3.02283
3.04338
3.06507
3.0857
3.10516
3.12251
3.1385
3.15023
3.15805
3.15957
3.16112
3.15537
3.14059
3.11772
3.09544
3.08253
3.07793
0.999813
0.999815
0.999788
0.999738
0.99966
0.999551
0.999402
0.999206
0.998953
0.99863
0.998223
0.997716
0.9971
0.99634
0.995403
0.994291
0.993084
0.991589
0.989763
0.987648
0.98552
0.98317
0.980225
0.976682
0.973037
0.970084
0.966442
0.9612
0.956106
0.951156
0.947941
0.944291
0.940136
0.931163
0.925098
0.920276
0.916492
0.912655
0.909508
0.908023
0.905046
0.902851
0.906802
0.978917
1.23387
2.18796
2.30346
2.31479
2.32126
2.32247
2.34117
2.40007
2.41598
2.55304
2.7424
2.93271
3.09615
3.1403
3.11636
3.09861
3.0791
3.06922
3.06219
3.05643
3.0523
3.04887
3.04672
3.04549
3.04189
3.0449
3.0445
3.04668
3.0442
3.04295
3.04129
3.04128
3.04141
3.03969
3.03716
3.03481
3.03399
3.03156
3.02683
3.02536
3.0186
3.01304
3.0054
3.0001
2.99483
2.98895
2.98454
2.97718
2.97079
2.96681
2.96483
2.96435
2.96534
2.96791
2.97168
2.9775
2.98659
2.99892
3.01455
3.03403
3.05541
3.07651
3.09568
3.1135
3.12948
3.14101
3.14922
3.14933
3.15092
3.14674
3.1332
3.11138
3.0908
3.07853
3.07369
0.999822
0.999824
0.999798
0.999751
0.999678
0.999573
0.999431
0.999244
0.999003
0.998695
0.998302
0.997817
0.997235
0.996504
0.995593
0.994543
0.993402
0.991955
0.990141
0.988092
0.986231
0.98397
0.98069
0.977411
0.974234
0.97153
0.967827
0.961845
0.957107
0.952486
0.95048
0.946428
0.941793
0.932509
0.926652
0.921999
0.917906
0.913935
0.909976
0.908227
0.905112
0.903557
0.906671
1.02333
1.6827
2.34219
2.33057
2.33139
2.34312
2.35785
2.38127
2.51069
2.5672
2.76503
2.94211
3.08924
3.13485
3.11167
3.09618
3.07384
3.06088
3.05117
3.04448
3.03961
3.03691
3.03556
3.03434
3.03349
3.03048
3.02957
3.02782
3.0311
3.03089
3.03401
3.0343
3.03314
3.03022
3.02725
3.02385
3.02116
3.02048
3.01864
3.01492
3.01523
3.0127
3.00846
3.00231
2.99716
2.9927
2.98447
2.97843
2.97042
2.96386
2.96095
2.95974
2.9591
2.95972
2.96237
2.96596
2.97119
2.97959
2.99099
3.00631
3.02552
3.04669
3.06711
3.08624
3.10473
3.12113
3.1329
3.13997
3.13912
3.141
3.13718
3.12492
3.10507
3.08603
3.07437
3.06879
0.999832
0.999834
0.99981
0.999766
0.999696
0.999598
0.999464
0.999287
0.999059
0.998767
0.998391
0.997935
0.997389
0.996689
0.995814
0.994837
0.993763
0.99235
0.990572
0.988694
0.986999
0.984758
0.981427
0.97836
0.97574
0.972961
0.969008
0.963166
0.958681
0.954414
0.952268
0.948288
0.943467
0.935166
0.929556
0.924367
0.919331
0.914634
0.909459
0.904256
0.899286
0.887516
0.914435
1.02115
2.08299
2.32801
2.34191
2.34545
2.35983
2.4155
2.42797
2.64534
2.77073
2.96368
3.08807
3.12521
3.10361
3.09214
3.07188
3.05636
3.04414
3.03523
3.02908
3.02522
3.02402
3.02358
3.02309
3.02278
3.02022
3.01831
3.01664
3.01805
3.01829
3.02206
3.02348
3.02408
3.02095
3.02062
3.01796
3.01492
3.01276
3.0115
3.00788
3.00196
2.99855
2.99516
2.99048
2.98717
2.9869
2.98256
2.97675
2.96949
2.96265
2.95847
2.95517
2.9529
2.95278
2.95553
2.95938
2.96436
2.97219
2.98276
2.99747
3.0165
3.03752
3.05734
3.07668
3.09571
3.11273
3.12387
3.12976
3.12818
3.13004
3.12697
3.11661
3.09904
3.08109
3.06995
3.06523
0.999843
0.999845
0.999823
0.999781
0.999717
0.999624
0.999499
0.999334
0.99912
0.998846
0.99849
0.998067
0.997562
0.996895
0.996067
0.995169
0.994177
0.992779
0.991104
0.989426
0.987809
0.985611
0.982441
0.979612
0.977244
0.974544
0.970617
0.965278
0.96102
0.956877
0.953307
0.949975
0.944806
0.939857
0.932731
0.926868
0.921301
0.916009
0.911543
0.907366
0.909255
0.921022
1.02086
1.57362
2.29023
2.34489
2.35405
2.37264
2.40921
2.54714
2.58135
2.82219
2.99696
3.09659
3.12496
3.09928
3.09029
3.07091
3.05519
3.04145
3.03075
3.02321
3.01802
3.0151
3.01433
3.01369
3.01309
3.01243
3.0112
3.01056
3.00867
3.00855
3.00762
3.01025
3.01054
3.01214
3.00885
3.0111
3.00715
3.00505
3.00093
2.99824
2.99594
2.99149
2.98903
2.99059
2.98885
2.98511
2.98134
2.97517
2.96773
2.96114
2.9545
2.94984
2.94591
2.94266
2.94217
2.94498
2.94882
2.95366
2.96153
2.97278
2.98752
3.00605
3.02708
3.04749
3.0673
3.0866
3.10397
3.11488
3.12014
3.11807
3.11964
3.11742
3.1086
3.09214
3.07544
3.06516
3.06114
0.999855
0.999857
0.999836
0.999798
0.999739
0.999654
0.999538
0.999385
0.999187
0.998933
0.998599
0.998214
0.997752
0.997126
0.996354
0.995538
0.994634
0.993278
0.991756
0.990219
0.988708
0.986637
0.983762
0.981134
0.978625
0.97623
0.972848
0.967966
0.96376
0.959451
0.954828
0.951964
0.94783
0.943582
0.937303
0.929278
0.922922
0.916582
0.910608
0.903351
0.895705
0.900325
0.974614
1.99151
2.3429
2.35842
2.36314
2.42787
2.45882
2.68816
2.81875
3.01975
3.10372
3.1252
3.09943
3.08934
3.07138
3.05676
3.04214
3.02917
3.01926
3.01278
3.00902
3.00697
3.00626
3.00566
3.00509
3.00419
3.0032
3.00266
3.00126
3.0011
3.00025
3.00057
2.99886
2.99909
2.99495
2.99866
2.99617
2.99808
2.99483
2.99152
2.98905
2.98431
2.97902
2.97613
2.97449
2.97145
2.96905
2.96955
2.96674
2.96266
2.95504
2.94955
2.94321
2.93739
2.93551
2.93772
2.94126
2.94616
2.95366
2.96474
2.97859
2.99613
3.01683
3.03726
3.05764
3.07666
3.09336
3.10365
3.10942
3.10786
3.10907
3.10752
3.09981
3.08437
3.0696
3.06062
3.05761
0.999868
0.99987
0.999851
0.999817
0.999763
0.999685
0.99958
0.99944
0.999261
0.999029
0.998722
0.998376
0.997959
0.997385
0.996681
0.995945
0.995125
0.993886
0.992512
0.991071
0.989727
0.987902
0.985324
0.982895
0.980199
0.978258
0.975276
0.971257
0.966717
0.962323
0.957966
0.954542
0.951721
0.947202
0.941901
0.932048
0.924829
0.918059
0.912726
0.911524
0.91544
0.999465
1.2929
2.24814
2.37031
2.3875
2.41866
2.5609
2.61751
2.87295
3.05332
3.11761
3.12801
3.09787
3.08658
3.06871
3.05537
3.0427
3.02986
3.01763
3.00806
3.00236
2.99972
2.99893
2.99908
2.99891
2.99841
2.99769
2.99644