/*--------------------------------*- C++ -*----------------------------------*\
| =========                 |                                                 |
| \\      /  F ield         | OpenFOAM: The Open Source CFD Toolbox           |
|  \\    /   O peration     | Version:  2.2.x                                 |
|   \\  /    A nd           | Web:      www.OpenFOAM.org                      |
|    \\/     M anipulation  |                                                 |
\*---------------------------------------------------------------------------*/
FoamFile
{
    version     2.0;
    format      ascii;
    class       volScalarField;
    location    "0.03";
    object      Ma;
}
// * * * * * * * * * * * * * * * * * * * * * * * * * * * * * * * * * * * * * //

dimensions      [0 0 0 0 0 0 0];

internalField   nonuniform List<scalar> 
1024
(
0
0
0
0
0
0
0
0
0
0
0
0
0
0
0
0
0
0
0
0
0
0
0
0
0
0
0
0
0
0
0
0
0
0
0
0
0
0
0
0
0
0
0
0
0
0
0
0
0
0
0
0
0
0
0
0
0
0
0
0
0
0
0
0
0
0
0
0
0
0
0
0
0
0
0
0
0
0
0
0
0
0
0
0
0
0
0
0
0
0
0
0
0
0
0
0
0
0
0
0
0
0
0
0
0
0
0
0
0
0
0
0
0
0
0
0
0
0
0
0
0
0
0
0
0
0
0
0
0
0
0
0
0
0
0
0
0
0
0
0
0
0
0
0
0
0
0
0
0
0
0
0
0
0
0
0
0
0
0
0
0
0
0
0
0
0
0
0
0
0
0
0
0
0
0
0
0
0
0
0
0
0
0
0
0
0
0
0
0
0
0
0
0
0
0
0
0
0
0
0
0
0
0
0
0
0
0
0
0
0
0
0
0
0
0
0
0
0
0
0
0
0
0
0
0
0
0
0
0
0
0
0
0
0
0
0
0
0
0
0
0
0
0
0
0
0
0
0
0
0
0
0
0
0
0
0
0
0
0
0
0
0
0
0
0
0
0
0
0
0
0
0
0
0
0
0
0
0
0
0
0
0
0
0
0
0
0
0
0
0
0
0
0
0
0
0
0
0
0
0
0
0
0
0
0
0
0
0
0
0
0
0
0
0
0
0
0
0
0
0
0
0
0
0
0
0
0
0
0
0
0
0
0
0
0
0
0
0
0
0
0
0
0
0
0
0
0
0
0
0
0
0
0
0
0
0
0
0
0
2.64179e-16
2.50124e-15
1.29644e-14
5.16442e-14
1.66197e-13
4.75298e-13
1.29087e-12
3.42412e-12
8.96463e-12
2.32645e-11
5.98627e-11
1.5301e-10
3.88311e-10
9.78739e-10
2.45134e-09
6.1008e-09
1.50948e-08
3.71378e-08
9.08903e-08
2.21354e-07
5.36569e-07
1.29537e-06
3.09174e-06
6.97318e-06
9.82623e-06
1.3557e-05
1.27931e-05
1.5604e-05
1.38594e-05
1.09941e-05
3.21464e-06
3.89707e-05
0.000122754
0.000309761
0.000674735
0.00140209
0.0027195
0.00516533
0.00938186
0.0169316
0.0300355
0.0481624
0.0669353
0.0769323
0.0907745
0.105923
0.120666
0.129814
0.142912
0.155378
0.166783
0.174436
0.184093
0.195314
0.206496
0.217032
0.229086
0.242071
0.255735
0.265778
0.276387
0.283671
0.293483
0.298535
0.305119
0.30864
0.311639
0.314363
0.316208
0.31701
0.317788
0.3177
0.317397
0.315397
0.311502
0.30576
0.29959
0.297384
0.294251
0.293102
0.291024
0.290715
0.290014
0.290568
0.291714
0.294505
0.296743
0.298849
0.298505
0.299371
0.299105
0.299139
0.298341
0.297685
0.296954
0.296774
0.296484
0.295742
0.294039
0.291063
0.287769
0.28699
0.285684
0.286117
0.288544
0.293475
0.298385
0.302235
0.305888
0.291964
0.511136
0.771149
0.96784
0.935906
0.987152
0.997305
0.981342
0.989242
0.986598
0.986325
0.986768
0.985966
0.986062
0.98665
0.986871
0.987507
0.988943
0.990993
0.995437
1.00604
1.02932
1.07569
1.15654
1.26987
1.3615
1.42354
1.4618
1.48319
1.49374
1.49836
1.50008
1.50058
1.50223
1.50623
1.50941
1.51267
1.51476
1.51715
1.51569
1.51057
1.50521
1.5019
1.49276
1.47194
1.44472
1.41418
1.36813
1.31317
1.2561
1.17135
1.11517
1.01862
0.745076
0.677249
0.671966
0.675264
0.67814
0.679331
0.679271
0.677189
0.67335
0.666716
0.658213
0.647258
0.632726
0.617471
0.600371
0.580908
0.560501
0.53958
0.517792
0.496322
0.47448
0.452737
0.430453
0.408261
0.386176
0.364523
0.343229
0.322375
0.301336
0.280289
0.259255
0.238296
0.217667
0.197315
0.177351
0.157706
0.13834
0.119236
0.100984
0.0840346
0.0684713
0.0544418
0.0421062
0.0315883
0.0229346
0.0160894
0.0108969
0.00712359
0.00449689
0.00274365
0.00161984
0.000926692
0.000514453
0.000277537
0.000145697
7.45219e-05
3.71814e-05
1.81149e-05
8.62634e-06
4.0187e-06
1.83296e-06
8.19117e-07
3.5888e-07
1.54253e-07
6.5079e-08
2.69651e-08
1.09781e-08
4.39351e-09
1.72919e-09
6.69564e-10
2.55166e-10
9.57387e-11
3.53791e-11
1.28783e-11
4.61811e-12
1.63009e-12
5.65173e-13
1.92075e-13
6.33036e-14
1.9689e-14
5.26974e-15
9.84946e-16
1.42211e-16
0
0
0
0
0
0
0
0
0
0
0
0
0
0
0
0
0
0
0
0
0
0
0
0
0
0
0
0
0
0
0
0
0
0
0
0
0
0
0
0
0
0
0
0
0
0
0
0
0
0
0
0
0
0
0
0
0
0
0
0
0
0
0
0
0
0
0
0
0
0
0
0
0
0
0
0
0
0
0
0
0
0
0
0
0
0
0
0
0
0
0
0
0
0
0
0
0
0
0
0
0
0
0
0
0
0
0
0
0
0
0
0
0
0
0
0
0
0
0
0
0
0
0
0
0
0
0
0
0
0
0
0
0
0
0
0
0
0
0
0
0
0
0
0
0
0
0
0
0
0
0
0
0
0
0
0
0
0
0
0
0
0
0
0
0
0
0
0
0
0
0
0
0
0
0
0
0
0
0
0
0
0
0
0
0
0
0
0
0
0
0
0
0
0
0
0
0
0
0
0
0
0
0
0
0
0
0
0
0
0
0
0
0
0
0
0
0
0
0
0
0
0
0
0
0
0
0
0
0
0
0
0
0
0
0
0
0
0
0
0
0
0
0
0
0
0
0
0
0
0
0
0
0
0
0
0
0
0
0
0
0
0
0
0
0
0
0
0
0
0
0
0
0
0
0
0
0
0
0
0
0
0
0
0
0
0
0
0
0
0
0
0
0
0
0
0
0
0
0
0
0
0
0
0
0
0
0
0
0
0
0
0
0
0
0
0
0
0
0
0
0
0
0
0
0
0
0
0
0
0
0
0
0
0
0
0
0
0
0
0
0
0
0
0
0
0
0
0
0
0
0
0
0
0
0
0
0
0
0
0
0
0
0
0
0
0
0
0
0
0
0
0
0
0
0
0
0
0
0
0
0
0
0
0
0
0
0
0
0
0
0
0
0
0
0
0
0
0
0
0
0
0
0
0
0
0
0
0
0
0
0
0
0
0
0
0
0
0
0
0
)
;

boundaryField
{
    front-back
    {
        type            empty;
    }
    inlet-outlet
    {
        type            calculated;
        value           uniform 0;
    }
    top-down
    {
        type            empty;
    }
}


// ************************************************************************* //
