/*--------------------------------*- C++ -*----------------------------------*\
| =========                 |                                                 |
| \\      /  F ield         | OpenFOAM: The Open Source CFD Toolbox           |
|  \\    /   O peration     | Version:  2.2.x                                 |
|   \\  /    A nd           | Web:      www.OpenFOAM.org                      |
|    \\/     M anipulation  |                                                 |
\*---------------------------------------------------------------------------*/
FoamFile
{
    version     2.0;
    format      ascii;
    class       surfaceScalarField;
    location    "1.05";
    object      cfmax;
}
// * * * * * * * * * * * * * * * * * * * * * * * * * * * * * * * * * * * * * //

dimensions      [0 3 -1 0 0 0 0];

internalField   nonuniform List<scalar> 
28084
(
0.00125115
0.00124402
0.0012399
0.00123595
0.00123302
0.00123067
0.00122902
0.00122796
0.00122748
0.00122747
0.00122798
0.00122888
0.00123013
0.00123173
0.00123359
0.00123566
0.00123792
0.00124033
0.00124281
0.00124533
0.0012479
0.00125045
0.00125292
0.00125531
0.00125759
0.00125973
0.00126172
0.00126355
0.00126519
0.0012666
0.0012678
0.00126876
0.00126951
0.00126997
0.00127017
0.00127011
0.00126978
0.0012691
0.00126814
0.00126692
0.00126548
0.0012637
0.00126152
0.00125939
0.00125722
0.00127292
0.00128939
0.0013097
0.00132968
0.00137142
0.00119867
0.00101685
0.00102457
0.00104442
0.00106162
0.00107449
0.00108636
0.00109863
0.0011128
0.00112486
0.00113575
0.00114643
0.0011569
0.00116721
0.00117643
0.00118465
0.00119272
0.00120082
0.00120922
0.00121775
0.00122697
0.00123656
0.00124612
0.00125503
0.0012603
0.00126105
0.00125348
0.00123909
0.00122589
0.00121749
0.00121341
0.00120975
0.00120669
0.00118744
0.00109979
0.000992578
0.000891082
0.000809773
0.000750528
0.000709624
0.000677903
0.000655494
0.000640008
0.000629394
0.000622266
0.000617418
0.000615265
0.000615245
0.000617219
0.000620323
0.000623915
0.000627465
0.00063081
0.000634133
0.000638269
0.000643234
0.000648963
0.000655385
0.000661815
0.000668462
0.000674999
0.000681591
0.000688575
0.000696065
0.000704693
0.00071492
0.00072755
0.000742203
0.00361278
0.00360061
0.00125705
0.00358934
0.00125372
0.00356846
0.00125338
0.0035409
0.00125316
0.00350618
0.00125391
0.00346474
0.0012552
0.00341681
0.00125716
0.00336281
0.00125967
0.00330311
0.00126271
0.00323841
0.00126619
0.0031692
0.00127013
0.00309563
0.00127441
0.00301826
0.00127898
0.00293756
0.00128387
0.002854
0.00128893
0.00276811
0.00129414
0.00268042
0.00129946
0.00259131
0.00130486
0.00250128
0.00131025
0.00241079
0.0013156
0.00232025
0.00132091
0.00222996
0.00132614
0.00214029
0.00133119
0.00205158
0.00133604
0.0019641
0.00134068
0.00187813
0.00134509
0.00179386
0.00134925
0.00171151
0.00135314
0.00163123
0.00135674
0.00155316
0.00136002
0.00147742
0.00136301
0.0014041
0.00136565
0.00133326
0.00136794
0.00126495
0.00136989
0.00119919
0.00137149
0.00113604
0.00137273
0.00107566
0.00137366
0.00101783
0.00137418
0.000962526
0.00137437
0.000909739
0.00137426
0.000859327
0.00137383
0.000811325
0.00137309
0.000765654
0.00137215
0.000722397
0.0013712
0.000730878
0.00137016
0.000731836
0.00138592
0.000734202
0.00140312
0.000739506
0.00142163
0.000767534
0.00144254
0.000836244
0.00145835
0.000632394
0.00101114
0.000607994
0.000918934
0.000611858
0.000927268
0.000615734
0.00094104
0.00061695
0.000959592
0.000618021
0.000976243
0.000622096
0.000994039
0.000626166
0.00101579
0.000630272
0.00103901
0.000634364
0.00106166
0.00063954
0.00108578
0.000646427
0.00110857
0.000651965
0.00113038
0.000656477
0.00115133
0.000660734
0.00117084
0.00066498
0.00118721
0.000669455
0.00120088
0.000671233
0.00121423
0.000673638
0.00122756
0.000676829
0.00124043
0.000680049
0.00125265
0.000683501
0.00126617
0.000687301
0.0012776
0.000691591
0.00128657
0.000695536
0.00128821
0.000697097
0.001286
0.000697876
0.0012736
0.000695983
0.00124697
0.000698253
0.0012194
0.000702384
0.00120505
0.000703146
0.00118884
0.000682386
0.00115242
0.000680332
0.00108773
0.00068329
0.0010324
0.000667971
0.000969468
0.0006509
0.000909358
0.000620264
0.000857719
0.00059589
0.000811333
0.000576281
0.000768899
0.000566362
0.000735976
0.000558349
0.00071731
0.000553365
0.000702199
0.000552273
0.000690119
0.000552507
0.000680649
0.000553298
0.000672959
0.00055577
0.000666361
0.000561832
0.000660742
0.000568036
0.000656045
0.000573579
0.000652332
0.000578379
0.000649954
0.000582364
0.000648623
0.000586495
0.00064855
0.000590619
0.00064971
0.000595004
0.000652282
0.000599382
0.000655423
0.000603664
0.000659244
0.000609158
0.00066387
0.000615332
0.000669216
0.000621936
0.000674756
0.000628616
0.000681107
0.00063587
0.000687533
0.00064284
0.0006943
0.000650165
0.000701136
0.000657464
0.000708451
0.00066609
0.000716442
0.000675852
0.000725543
0.000689604
0.000736713
0.000702719
0.000748224
0.00361386
0.00360123
0.00126492
0.00358955
0.00126535
0.00356826
0.00126873
0.00354031
0.0012722
0.00350521
0.00127658
0.00346343
0.00128148
0.00341625
0.00128701
0.00336321
0.00129304
0.00330437
0.00129956
0.00324027
0.00130648
0.00317129
0.00131382
0.0030979
0.00132145
0.00302069
0.00132931
0.00294012
0.00133742
0.00285667
0.00134566
0.00277084
0.00135398
0.0026832
0.00136233
0.00259412
0.0013707
0.0025041
0.00137899
0.00241359
0.00138716
0.00232302
0.00139519
0.00223267
0.00140301
0.00214292
0.00141058
0.00205412
0.00141787
0.00196653
0.00142487
0.00188042
0.00143154
0.00179601
0.00143786
0.00171352
0.00144382
0.00163308
0.0014494
0.00155486
0.00145456
0.00147896
0.0014593
0.00140546
0.00146361
0.00133444
0.00146753
0.00126595
0.00147097
0.00120001
0.00147396
0.00113665
0.00147648
0.00107584
0.00147852
0.00101745
0.00147998
0.00096225
0.00148094
0.000909527
0.00148154
0.000859117
0.00148141
0.00081112
0.00148055
0.000765336
0.00147932
0.00072169
0.00147733
0.000737324
0.00147432
0.000736441
0.00148472
0.000737048
0.00149473
0.000732124
0.0015028
0.000763731
0.00150629
0.000736789
0.00149683
0.000588098
0.000953883
0.000556855
0.00087322
0.000558345
0.000880775
0.000571411
0.000903187
0.000577184
0.000937881
0.000587943
0.000967231
0.000599348
0.000996696
0.000608823
0.00102707
0.000618312
0.0010587
0.000629175
0.00108954
0.000638183
0.00111874
0.000645089
0.00114591
0.00065162
0.00117171
0.000660118
0.00119674
0.000665286
0.00121526
0.000670222
0.0012305
0.000674986
0.00124519
0.000680016
0.00126098
0.000686356
0.00127642
0.000691871
0.00128866
0.000697513
0.00130091
0.000702698
0.00131251
0.000705474
0.00132347
0.000709779
0.00133387
0.000715301
0.00133605
0.00071074
0.00132771
0.000708469
0.0012972
0.000704368
0.00127281
0.000701405
0.00123797
0.000665702
0.00117594
0.00065867
0.00111236
0.000671821
0.00107001
0.000657295
0.00101256
0.000655394
0.000944654
0.000670664
0.000909268
0.00066296
0.000881054
0.000645473
0.000849058
0.000624239
0.000813784
0.00060192
0.000780244
0.000581457
0.000753786
0.000571392
0.000733372
0.000565184
0.000717568
0.000562287
0.00070438
0.00056151
0.000695022
0.000561584
0.000687634
0.000562564
0.000681668
0.000565065
0.00067665
0.000570324
0.000672093
0.000574359
0.000668654
0.000578452
0.000666212
0.000582564
0.000664678
0.000586862
0.000664361
0.000591496
0.000665278
0.000596366
0.000667505
0.00060089
0.000670238
0.000605855
0.00067372
0.000611499
0.00067772
0.000618323
0.000682069
0.000625394
0.000686194
0.000633318
0.000691119
0.000641608
0.000695899
0.000650461
0.000701576
0.000659165
0.000707424
0.000668375
0.000713729
0.000678518
0.000720549
0.000690435
0.00072787
0.000709488
0.000736786
0.000725774
0.000748565
0.0036127
0.00359965
0.00127476
0.00358758
0.0012789
0.0035659
0.00128596
0.00353923
0.00129305
0.00350604
0.00130103
0.00346602
0.00130948
0.00341944
0.00131853
0.00336667
0.00132803
0.00330809
0.001338
0.00324421
0.00134832
0.00317541
0.00135901
0.00310219
0.00136994
0.00302509
0.00138106
0.00294462
0.00139235
0.00286122
0.00140375
0.00277543
0.00141514
0.00268779
0.0014265
0.00259871
0.00143779
0.00250866
0.0014489
0.00241806
0.00145982
0.00232738
0.00147052
0.0022369
0.00148097
0.00214702
0.00149105
0.00205806
0.00150076
0.00197031
0.00151007
0.00188403
0.00151895
0.00179944
0.00152738
0.00171676
0.00153536
0.0016361
0.00154285
0.00155766
0.00154981
0.00148153
0.0015563
0.00140779
0.00156222
0.00133655
0.0015676
0.00126782
0.00157248
0.00120166
0.00157683
0.00113808
0.00158065
0.00107701
0.00158397
0.00101839
0.00158681
0.000962329
0.0015892
0.00090894
0.00159118
0.000858759
0.00159268
0.00081099
0.00159383
0.000765479
0.00159468
0.000722059
0.00159523
0.000746253
0.00159521
0.000746068
0.00160804
0.000745442
0.00162152
0.000742644
0.00163427
0.000757639
0.00164649
0.000644313
0.00160344
0.000556564
0.000975724
0.00053859
0.000891768
0.000551041
0.000898941
0.000568144
0.000925967
0.000580251
0.000972227
0.000594244
0.00101017
0.000607771
0.00104772
0.000619194
0.00108376
0.000629577
0.00111992
0.000639459
0.00115465
0.000649596
0.00118491
0.000655123
0.00121415
0.000660615
0.00123886
0.000666439
0.00125901
0.000670641
0.00127754
0.000676088
0.00129821
0.000680356
0.00131375
0.000684949
0.00132669
0.00069045
0.00133868
0.000695965
0.00134987
0.000701103
0.00136256
0.000706268
0.00137589
0.000710431
0.00138942
0.000711131
0.00139334
0.000718309
0.00138951
0.000717607
0.0013823
0.000722329
0.00136932
0.00070137
0.00130894
0.000699788
0.00123511
0.000682774
0.00119304
0.000689501
0.00115208
0.000681383
0.00108464
0.000686112
0.00102767
0.000678551
0.000997786
0.000694479
0.000964963
0.000685975
0.000930925
0.000675797
0.000895593
0.000647092
0.000862346
0.000623645
0.000822592
0.000599488
0.000786942
0.000584837
0.000759543
0.000575537
0.000741226
0.000570029
0.000726428
0.000567307
0.000716036
0.000566537
0.000708355
0.000566681
0.00070207
0.000567867
0.000696553
0.000573188
0.000691397
0.00057835
0.000687389
0.000583064
0.000684644
0.000587728
0.000682843
0.000592429
0.000681879
0.000597301
0.000681916
0.000602007
0.000683238
0.000606503
0.00068527
0.000612142
0.000687668
0.000618321
0.000690306
0.000625971
0.000693058
0.000633191
0.000695412
0.000641856
0.000698194
0.000650591
0.000700985
0.000660134
0.000704739
0.000669869
0.000708914
0.000680936
0.000713769
0.000693086
0.000719478
0.00070779
0.000725814
0.000729639
0.00073452
0.000748973
0.000748132
0.00360931
0.0035972
0.00128658
0.00358803
0.00129437
0.00356923
0.00130504
0.00354364
0.0013157
0.00351077
0.00132722
0.00347107
0.00133917
0.00342476
0.00135168
0.00337225
0.00136462
0.00331389
0.00137797
0.00325019
0.00139163
0.00318156
0.00140563
0.00310846
0.00141982
0.00303145
0.00143416
0.00295103
0.00144858
0.00286768
0.00146306
0.00278192
0.0014775
0.00269423
0.00149182
0.00260505
0.001506
0.00251487
0.00151993
0.00242415
0.00153358
0.00233332
0.00154692
0.0022427
0.00155991
0.00215262
0.00157246
0.00206345
0.00158454
0.00197547
0.00159614
0.00188893
0.00160723
0.00180409
0.00161778
0.00172115
0.00162779
0.00164022
0.00163723
0.00156151
0.00164605
0.00148509
0.00165426
0.00141107
0.00166187
0.00133954
0.00166887
0.00127053
0.00167523
0.00120406
0.00168096
0.00114019
0.00168603
0.0010789
0.00169042
0.00102
0.00169403
0.000963591
0.00169689
0.000909617
0.00169913
0.000858056
0.00170055
0.000810465
0.00170089
0.000765084
0.00170046
0.000721977
0.00169897
0.000753877
0.00169646
0.000753148
0.00170433
0.000752402
0.00171043
0.000745893
0.00171356
0.000735412
0.00171563
0.000600153
0.00166175
0.000528931
0.00105605
0.000546717
0.000966812
0.000570391
0.000977396
0.00059248
0.00101094
0.000601653
0.00105978
0.000617712
0.00110401
0.000631842
0.00114608
0.000641885
0.00118272
0.000653299
0.00121968
0.000660137
0.00125206
0.000668368
0.00128278
0.000671886
0.00131091
0.000673927
0.00133334
0.000676965
0.00135917
0.000680336
0.00137757
0.000684633
0.00139483
0.000689991
0.00141028
0.000694854
0.00142359
0.000698813
0.00143542
0.000703236
0.00144656
0.000706542
0.00145714
0.000709889
0.00146569
0.000710203
0.00147353
0.000713268
0.00147931
0.000724584
0.00148408
0.000742004
0.00148148
0.000735923
0.00145161
0.00072576
0.00139659
0.000721538
0.00135786
0.000733069
0.00130309
0.000739082
0.00122525
0.000712991
0.00117813
0.000721264
0.00114005
0.000736741
0.0010954
0.000731425
0.00105763
0.00071552
0.00102458
0.000709099
0.000984966
0.000681885
0.000942145
0.000654816
0.000889984
0.000622419
0.000839281
0.00060153
0.000800958
0.000588353
0.00077484
0.000579173
0.000755031
0.000574521
0.000741419
0.00057279
0.00073189
0.000572508
0.000724812
0.000573167
0.000718719
0.00057708
0.000713279
0.000582302
0.000708379
0.000587242
0.000704638
0.000592025
0.000701873
0.000596685
0.000700049
0.000601376
0.000698997
0.000605576
0.000698754
0.000610103
0.000699205
0.0006172
0.000699981
0.00062421
0.00070086
0.000632918
0.000701939
0.000640859
0.000702606
0.000650574
0.000703368
0.00066011
0.000703653
0.000670773
0.000705257
0.000681348
0.000707084
0.000694068
0.000710301
0.00070814
0.000714861
0.000724866
0.00072095
0.000748453
0.000731163
0.000770414
0.000747222
0.00361228
0.00360277
0.00130039
0.00359395
0.00131175
0.0035755
0.00132598
0.00355023
0.00134015
0.00351767
0.00135514
0.00347826
0.00137053
0.00343221
0.00138644
0.00337993
0.00140275
0.00332176
0.00141943
0.00325823
0.00143642
0.00318974
0.00145363
0.00311673
0.00147104
0.00303976
0.00148852
0.00295936
0.00150607
0.00287599
0.0015236
0.00279019
0.001541
0.0027024
0.00155822
0.00261313
0.00157522
0.00252283
0.00159194
0.00243193
0.00160829
0.00234088
0.00162424
0.00225001
0.00163974
0.00215968
0.00165471
0.00207025
0.00166913
0.00198199
0.00168297
0.00189518
0.00169619
0.00181005
0.00170879
0.0017268
0.00172073
0.00164555
0.00173202
0.0015665
0.00174258
0.00148976
0.00175243
0.0014154
0.00176159
0.00134353
0.00177002
0.00127417
0.00177772
0.00120739
0.00178474
0.00114319
0.00179108
0.00108157
0.00179679
0.00102226
0.00180194
0.000965519
0.00180647
0.000911173
0.00181038
0.000859141
0.00181381
0.000809468
0.00181695
0.000764437
0.00181992
0.000721529
0.00182246
0.000762162
0.00182406
0.000761971
0.00183573
0.000759262
0.00184807
0.000754979
0.00186065
0.000715352
0.00187352
0.000697006
0.00188075
0.000548551
0.00125552
0.000572182
0.00110265
0.000609701
0.00111574
0.000640928
0.00117123
0.000649125
0.00122298
0.000667112
0.00126861
0.000678842
0.00131119
0.000682627
0.00134189
0.000690643
0.00137184
0.000692586
0.0013974
0.00069604
0.00142141
0.00069316
0.00144169
0.000695721
0.00146029
0.000697594
0.00148659
0.000697695
0.00149696
0.000700668
0.00150907
0.000704085
0.0015215
0.000707292
0.00153111
0.000710018
0.00154052
0.000712066
0.00154874
0.000714132
0.00155534
0.000715347
0.00156279
0.000713137
0.00156832
0.000724425
0.00157578
0.000743937
0.00158248
0.000754355
0.00157699
0.00075902
0.00155359
0.000776245
0.0015331
0.000789535
0.00146947
0.000783933
0.0014199
0.000783415
0.00136916
0.000799381
0.00132514
0.000796556
0.00127873
0.000785195
0.00123444
0.000782411
0.00118892
0.000776529
0.00114513
0.000762636
0.00109667
0.000732372
0.00104408
0.00069726
0.000985758
0.000657048
0.000913324
0.000625954
0.000852004
0.000606161
0.000812173
0.000591051
0.000784651
0.000583039
0.000766159
0.000579085
0.000754382
0.000578178
0.000745424
0.000578837
0.000737734
0.000581401
0.000731109
0.000586516
0.000725518
0.000591345
0.000720787
0.000596128
0.000717052
0.000600546
0.000714019
0.000604584
0.000711556
0.000608366
0.000709556
0.00061512
0.000708038
0.000623071
0.000706945
0.000630855
0.000705957
0.000640743
0.000704871
0.000649472
0.000703486
0.000660687
0.00070279
0.000670747
0.000702402
0.000682906
0.000703957
0.000694167
0.000705422
0.000708113
0.000708449
0.000723343
0.000712723
0.000740657
0.000719056
0.000765235
0.000730015
0.000789215
0.000747555
0.00361971
0.00361058
0.00131619
0.00360209
0.00133105
0.00358396
0.00134876
0.003559
0.00136636
0.00352673
0.00138476
0.00348758
0.00140353
0.00344177
0.00142278
0.0033897
0.0014424
0.00333172
0.00146235
0.00326831
0.00148256
0.00319991
0.00150297
0.00312696
0.00152353
0.00305004
0.00154413
0.00296965
0.00156469
0.00288622
0.00158521
0.0028003
0.00160554
0.00271235
0.00162563
0.00262293
0.0016454
0.00253244
0.00166485
0.00244133
0.00168383
0.00235002
0.00170234
0.00225888
0.00172031
0.00216825
0.00173768
0.00207849
0.00175443
0.00198987
0.00177049
0.00190269
0.00178585
0.00181718
0.00180049
0.00173356
0.00181441
0.00165192
0.00182757
0.00157248
0.00183996
0.00149534
0.00185156
0.0014206
0.00186236
0.00134831
0.00187239
0.00127856
0.00188163
0.00121137
0.00189004
0.00114676
0.00189763
0.0010848
0.00190436
0.00102541
0.00191014
0.000968216
0.00191509
0.000913568
0.00191912
0.000861366
0.00192237
0.000811487
0.00192479
0.000764907
0.00192639
0.00072275
0.0019271
0.000772391
0.00192715
0.000773859
0.00193692
0.000774531
0.00194699
0.000776018
0.00195919
0.000735618
0.00197394
0.000812684
0.001999
0.000618507
0.0016961
0.000620391
0.00130829
0.000684877
0.00134181
0.000717342
0.00140713
0.000724263
0.00143707
0.000732823
0.00147009
0.000734593
0.00149352
0.000729046
0.00150505
0.000730307
0.001522
0.000725329
0.00154044
0.000723796
0.00155287
0.000717996
0.00156984
0.000721515
0.00158198
0.000715359
0.00160264
0.000711778
0.001611
0.000714622
0.00162786
0.000716001
0.00163376
0.00071817
0.0016404
0.000720997
0.00164821
0.00072218
0.00165322
0.000723351
0.00165745
0.00072284
0.00166292
0.000721785
0.0016657
0.000736965
0.00167478
0.00075458
0.00167785
0.000772221
0.00167658
0.000806083
0.00166049
0.000808072
0.00163213
0.000830832
0.00156886
0.000847961
0.00153694
0.000857715
0.00149269
0.000868136
0.00146006
0.000866084
0.00142162
0.000862993
0.00137621
0.000853612
0.00132231
0.00084498
0.00127501
0.000824549
0.00122671
0.00080325
0.00116431
0.000760561
0.00109939
0.000710072
0.00101863
0.0006605
0.000934698
0.000630191
0.000866137
0.000606543
0.000822321
0.000593516
0.000794487
0.000586887
0.000777916
0.000584331
0.000766182
0.000584648
0.000756641
0.000586141
0.0007487
0.000590092
0.000742071
0.000594888
0.000736381
0.000599325
0.000731489
0.00060319
0.000727134
0.000607169
0.000723378
0.000614045
0.000719732
0.000620881
0.000716003
0.000629205
0.00071206
0.000637837
0.000707893
0.000648838
0.000704891
0.000658025
0.00070261
0.000669652
0.000700184
0.000680759
0.000698826
0.000694667
0.000700986
0.000707021
0.000703978
0.000722232
0.000707376
0.000737953
0.000712358
0.000755473
0.000718663
0.000780497
0.000730153
0.00080629
0.000748642
0.00362942
0.0036206
0.001334
0.00361242
0.00135228
0.0035946
0.00137339
0.00356992
0.00139435
0.00353792
0.00141609
0.00349902
0.00143816
0.00345343
0.00146068
0.00340154
0.00148353
0.00334371
0.00150669
0.0032804
0.00153008
0.00321208
0.0015536
0.0031392
0.00157723
0.00306224
0.00160087
0.00298177
0.00162443
0.00289827
0.00164784
0.00281222
0.00167106
0.0027241
0.00169395
0.00263446
0.00171646
0.00254373
0.00173856
0.00245234
0.00176014
0.00236072
0.00178116
0.00226926
0.00180155
0.00217829
0.00182125
0.00208817
0.00184024
0.00199918
0.00185847
0.0019116
0.00187589
0.00182568
0.0018925
0.00174162
0.00190828
0.00165957
0.0019232
0.00157969
0.00193723
0.00150211
0.00195039
0.0014269
0.00196265
0.00135418
0.00197399
0.00128398
0.00198444
0.00121638
0.00199406
0.00115137
0.00200289
0.00108895
0.0020109
0.001029
0.00201812
0.000971337
0.00202472
0.000916314
0.00203072
0.000863678
0.00203616
0.000813419
0.00204153
0.000765405
0.00204617
0.000721756
0.00204966
0.000780342
0.0020526
0.00078235
0.00206446
0.000784541
0.00207864
0.0007855
0.00209552
0.00076073
0.00211361
0.000833703
0.00213526
0.000678928
0.00213967
0.000709609
0.00157321
0.000765027
0.00152736
0.000776802
0.00156159
0.000779545
0.00159429
0.000781093
0.0016196
0.000775544
0.00162938
0.000765568
0.00163245
0.000765301
0.00164392
0.000756183
0.00165374
0.000754027
0.00165697
0.000744867
0.00167266
0.000745421
0.00168088
0.000738242
0.00169849
0.000739142
0.00170524
0.000738407
0.00172178
0.000739197
0.00172445
0.000740439
0.00173134
0.000741006
0.00173392
0.000740952
0.00173876
0.000740996
0.00174274
0.000739722
0.00174404
0.000740313
0.00174736
0.000759071
0.00174981
0.000779512
0.00176045
0.000806368
0.00175581
0.000822839
0.00175246
0.000847257
0.0016854
0.000875423
0.00165228
0.000904751
0.00162532
0.000911264
0.00158823
0.000926165
0.00155775
0.00092823
0.00152785
0.000925572
0.0014872
0.000917063
0.00144154
0.000911507
0.00139766
0.000893334
0.00134769
0.000872605
0.0012897
0.000835377
0.00122585
0.000782563
0.00114686
0.000717715
0.00104921
0.000666391
0.00094621
0.000629647
0.000872915
0.000607727
0.00082763
0.000596998
0.000802521
0.000591485
0.000786719
0.000590946
0.000775015
0.000591803
0.000765435
0.000594358
0.000757484
0.000597868
0.000750723
0.000602076
0.00074425
0.00060713
0.00073807
0.000613061
0.000731983
0.000620566
0.000726345
0.000628241
0.000721114
0.000637853
0.000716571
0.000646549
0.000712016
0.000658001
0.000708202
0.000668177
0.000704958
0.000679998
0.000703011
0.000690416
0.000702066
0.000704781
0.000701805
0.000719105
0.000703707
0.000735133
0.000707139
0.000752161
0.0007124
0.000769198
0.000718984
0.000794648
0.000731024
0.000821822
0.000750111
0.00364131
0.00363282
0.00135383
0.00362493
0.00137543
0.00360739
0.00139986
0.00358298
0.00142411
0.00355124
0.00144909
0.00351256
0.00147438
0.00346716
0.0015001
0.00341544
0.00152611
0.00335777
0.00155239
0.00329453
0.00157888
0.00322624
0.00160544
0.00315337
0.00163209
0.00307638
0.0016587
0.00299579
0.00168517
0.00291216
0.00171143
0.00282595
0.00173746
0.00273761
0.00176309
0.00264771
0.00178827
0.00255669
0.00181297
0.00246499
0.00183708
0.00237303
0.00186055
0.00228115
0.00188332
0.00218976
0.00190532
0.00209921
0.00192652
0.00200977
0.00194688
0.00192171
0.00196638
0.0018353
0.00198497
0.00175074
0.00200266
0.00166816
0.00201943
0.00158778
0.00203524
0.00150969
0.00205008
0.00143399
0.00206396
0.00136074
0.0020769
0.00129003
0.00208889
0.00122192
0.00209993
0.00115641
0.00211
0.00109347
0.00211907
0.00103319
0.00212703
0.000975476
0.00213404
0.00092
0.00214018
0.000867005
0.00214527
0.000816493
0.00214974
0.000768269
0.00215338
0.000722143
0.00215588
0.000788889
0.00215741
0.000790923
0.00216538
0.000793829
0.0021733
0.000793104
0.00218124
0.000790198
0.00218701
0.000786508
0.00219105
0.000733545
0.0021959
0.0007393
0.0016013
0.000781292
0.00157233
0.000791523
0.00163594
0.000802079
0.00167113
0.000802052
0.00169686
0.000796566
0.00171042
0.000785985
0.00171532
0.000783928
0.00172537
0.000771562
0.00173078
0.000769249
0.00173218
0.00075861
0.00174776
0.000758333
0.00175542
0.000750455
0.00177386
0.000751643
0.00177828
0.00074896
0.00179264
0.000749025
0.00179243
0.000748269
0.00179427
0.000748179
0.00179835
0.000748127
0.00180075
0.000746859
0.0018051
0.000745518
0.00180586
0.000753273
0.00180968
0.000774882
0.0018111
0.000793716
0.00182449
0.000821601
0.0018162
0.000843267
0.00180676
0.000879693
0.00174062
0.000911156
0.00170311
0.000941764
0.0016737
0.000953688
0.00165332
0.000967837
0.00163202
0.000977058
0.00160385
0.000976492
0.00156455
0.000972515
0.00152379
0.000968531
0.00148375
0.000957008
0.00143973
0.00094297
0.00139038
0.000914059
0.00133335
0.000868102
0.00126448
0.000802648
0.00117306
0.000724902
0.00106598
0.000665282
0.00094943
0.000629186
0.00087658
0.000610127
0.000835652
0.000600467
0.000810932
0.000597819
0.000795411
0.000598362
0.00078355
0.000600419
0.000774424
0.000604527
0.000766543
0.000609093
0.00075872
0.000614162
0.000750782
0.000620043
0.000742837
0.000627941
0.000735476
0.000636201
0.000728934
0.000646757
0.000723967
0.000656242
0.000719969
0.000668462
0.000716271
0.000678386
0.000713323
0.000691219
0.000710433
0.000702252
0.000708298
0.000715622
0.000707382
0.000730887
0.000707259
0.000747422
0.000710633
0.000765697
0.000715802
0.000782099
0.000722018
0.000807959
0.000733624
0.00083587
0.000752935
0.00365542
0.00364721
0.00137571
0.00363959
0.00140053
0.00362231
0.00142819
0.00359816
0.00145562
0.00356665
0.00148377
0.00352818
0.0015122
0.00348297
0.00154102
0.00343139
0.00157011
0.00337383
0.00159944
0.00331064
0.00162894
0.00324237
0.00165848
0.00316948
0.00168805
0.0030924
0.00171757
0.00301169
0.00174688
0.00292789
0.00177592
0.00284146
0.00180468
0.00275287
0.00183297
0.00266267
0.00186076
0.0025713
0.00188799
0.00247923
0.00191458
0.00238686
0.00194043
0.00229457
0.00196551
0.00220272
0.00198975
0.00211169
0.00201308
0.00202176
0.0020355
0.00193321
0.00205696
0.00184629
0.00207742
0.00176122
0.00209688
0.00167813
0.00211532
0.0015972
0.00213269
0.00151854
0.002149
0.00144229
0.00216423
0.00136852
0.00217841
0.00129726
0.00219157
0.0012286
0.00220367
0.00116255
0.0022148
0.00109912
0.00222502
0.00103827
0.00223436
0.000979834
0.00224279
0.000923788
0.00225032
0.000870269
0.00225701
0.000819263
0.00226303
0.00077057
0.00226851
0.000724002
0.00227264
0.000795885
0.00227576
0.000798228
0.0022831
0.000800633
0.00229023
0.000802117
0.0022962
0.000809635
0.00230292
0.000863558
0.00230226
0.00084861
0.00230227
0.000780915
0.00168745
0.000779369
0.00164447
0.000794528
0.00167829
0.000802759
0.00172316
0.000808181
0.0017564
0.000802447
0.00177806
0.000797289
0.00179265
0.00078961
0.00179997
0.000776964
0.00179995
0.000774644
0.00180537
0.000763719
0.00181965
0.000762912
0.00182794
0.000754728
0.0018446
0.00075518
0.00185331
0.000750849
0.00186125
0.000749185
0.00185801
0.000747208
0.00185938
0.000746728
0.00185845
0.000744618
0.00186284
0.000743239
0.00186247
0.000742254
0.00186404
0.000759923
0.00186234
0.000777254
0.0018738
0.000803239
0.00187616
0.000824384
0.00187236
0.000863506
0.00181606
0.000905293
0.00177666
0.000940743
0.001745
0.000961406
0.00172021
0.000990021
0.00171025
0.00100186
0.00170056
0.0010137
0.00166448
0.00101883
0.00163412
0.00102102
0.0016057
0.00101793
0.00157189
0.00101264
0.00153073
0.000998878
0.001482
0.000979047
0.00143157
0.000944919
0.00137291
0.000890924
0.00129758
0.00081109
0.00119993
0.000720532
0.00108043
0.000664146
0.000953065
0.000629602
0.000880749
0.000612594
0.000841301
0.000605804
0.000818805
0.000605413
0.000804233
0.000607575
0.000793199
0.000611897
0.000783607
0.000616992
0.000774589
0.000622345
0.000765687
0.000628433
0.000757143
0.00063598
0.000748574
0.000643837
0.000740388
0.000654904
0.00073425
0.000665483
0.000729542
0.000678441
0.000725512
0.000689621
0.000722212
0.000703076
0.000719557
0.00071481
0.000717391
0.000728287
0.000716598
0.000742298
0.000716209
0.000759618
0.000717517
0.00077893
0.000722472
0.000794791
0.000727968
0.000820746
0.000738014
0.000849301
0.00075606
0.00367167
0.00366375
0.00139964
0.00365637
0.00142759
0.00363935
0.00145838
0.00361543
0.0014889
0.00358414
0.00152012
0.00354587
0.00155158
0.00350082
0.00158342
0.00344936
0.0016155
0.00339188
0.00164779
0.00332875
0.00168021
0.00326045
0.00171265
0.00318751
0.00174506
0.00311034
0.00177738
0.00302945
0.00180946
0.00294545
0.0018412
0.00285876
0.00187262
0.00276987
0.00190351
0.00267932
0.00193382
0.00258759
0.00196351
0.0024951
0.00199251
0.00240224
0.00202068
0.00230947
0.00204801
0.0022171
0.00207443
0.00212552
0.00209988
0.00203502
0.00212433
0.00194587
0.00214774
0.00185835
0.0021701
0.00177265
0.00219138
0.00168894
0.00221159
0.00160737
0.00223068
0.00152809
0.00224864
0.00145122
0.00226547
0.00137683
0.00228121
0.00130497
0.00229586
0.00123568
0.00230941
0.00116902
0.00232189
0.00110498
0.00233319
0.00104356
0.00234326
0.000984732
0.00235223
0.000928353
0.00236018
0.000874422
0.00236713
0.000822753
0.00237297
0.000773408
0.00237763
0.000726614
0.00238171
0.000802878
0.00238492
0.000805895
0.00239172
0.000808267
0.00239848
0.000812312
0.00240726
0.000827928
0.00241625
0.00094417
0.0024208
0.000953642
0.00238192
0.000839701
0.00187878
0.000795622
0.00179637
0.000806757
0.00179569
0.00080537
0.0017908
0.000811634
0.00181488
0.00080706
0.00184289
0.000803831
0.00185301
0.00079204
0.00185689
0.000781196
0.00186566
0.000776475
0.00187335
0.000766087
0.00188008
0.00076385
0.00189761
0.000756388
0.00190576
0.000756577
0.00192402
0.00075112
0.00192489
0.000749304
0.00192231
0.000746086
0.0019173
0.000745146
0.00191885
0.000742504
0.00191735
0.000740368
0.00192048
0.000749657
0.00191833
0.000765592
0.00192463
0.000786459
0.00192649
0.000810262
0.00193517
0.000834536
0.00191262
0.00087983
0.0018343
0.000925645
0.001792
0.000951205
0.00177083
0.000985656
0.00175893
0.00101492
0.0017656
0.00102688
0.0017449
0.00103906
0.00171569
0.00104789
0.00168481
0.00106121
0.00167253
0.00105991
0.00164675
0.00105557
0.00160242
0.0010469
0.00156162
0.00103395
0.00151924
0.00101128
0.00146844
0.000970039
0.00140524
0.000907125
0.00131916
0.000816186
0.00120875
0.000720292
0.00107297
0.00066051
0.000948672
0.000629377
0.000883307
0.000616071
0.000849366
0.000613451
0.000828436
0.000614959
0.000813754
0.00061911
0.000802333
0.000624934
0.000792424
0.000630955
0.000782678
0.000637137
0.000772596
0.000644584
0.000762581
0.000651997
0.000753597
0.000663161
0.000745998
0.000674439
0.000740441
0.000688011
0.000736066
0.000700092
0.000732863
0.00071438
0.000730363
0.000726898
0.00072827
0.000741166
0.000727476
0.000754747
0.000726929
0.000771892
0.00072769
0.000791843
0.00073113
0.00080808
0.000735547
0.000833714
0.000743567
0.00086292
0.000759226
0.00369008
0.00368239
0.00142567
0.00367526
0.00145663
0.00365846
0.00149044
0.00363477
0.00152394
0.00360368
0.00155812
0.00356559
0.00159253
0.00352068
0.00162729
0.00346934
0.00166225
0.00341192
0.0016974
0.0033488
0.00173266
0.00328047
0.0017679
0.00320744
0.00180306
0.00313013
0.00183811
0.00304905
0.00187287
0.0029648
0.00190721
0.00287782
0.00194121
0.00278859
0.00197462
0.00269765
0.00200739
0.00260548
0.00203946
0.00251252
0.00207079
0.00241915
0.00210121
0.00232586
0.0021307
0.00223294
0.00215923
0.00214078
0.00218671
0.00204969
0.0022131
0.00195994
0.00223837
0.00187179
0.00226249
0.00178547
0.00228544
0.00170114
0.00230721
0.00161896
0.00232776
0.00153904
0.0023471
0.00146152
0.00236522
0.00138649
0.00238211
0.00131398
0.00239783
0.00124405
0.00241237
0.00117675
0.00242575
0.00111208
0.00243803
0.00104997
0.00244933
0.000990489
0.00245967
0.000933388
0.00246897
0.000878707
0.00247713
0.000826478