/*--------------------------------*- C++ -*----------------------------------*\
| =========                 |                                                 |
| \\      /  F ield         | OpenFOAM: The Open Source CFD Toolbox           |
|  \\    /   O peration     | Version:  2.2.x                                 |
|   \\  /    A nd           | Web:      www.OpenFOAM.org                      |
|    \\/     M anipulation  |                                                 |
\*---------------------------------------------------------------------------*/
FoamFile
{
    version     2.0;
    format      ascii;
    class       volVectorField;
    location    "1.05";
    object      U;
}
// * * * * * * * * * * * * * * * * * * * * * * * * * * * * * * * * * * * * * //

dimensions      [0 1 -1 0 0 0 0];

internalField   nonuniform List<vector> 
14161
(
(1.50569 4.32899e-06 1.64139e-22)
(1.50572 -1.00491e-05 -7.65461e-22)
(1.50581 1.91418e-06 1.24969e-22)
(1.50586 2.9935e-07 -4.69456e-22)
(1.50602 -8.16281e-07 1.34836e-21)
(1.50622 -1.97413e-06 -2.84076e-21)
(1.50644 2.01901e-06 1.99253e-21)
(1.50669 1.48478e-06 1.6987e-22)
(1.50698 1.07601e-06 1.8475e-21)
(1.50727 -1.21078e-06 3.99047e-22)
(1.50757 1.42977e-07 5.94953e-22)
(1.50791 9.14082e-07 7.51262e-22)
(1.50823 4.54585e-07 4.53109e-22)
(1.50854 -5.816e-07 1.30974e-21)
(1.5089 3.92835e-07 1.07821e-21)
(1.50922 1.03841e-07 1.17412e-21)
(1.50952 1.55115e-07 8.55573e-22)
(1.50986 1.8261e-06 8.3613e-22)
(1.51015 1.6185e-06 1.17506e-21)
(1.51042 2.8162e-06 7.25788e-22)
(1.51067 5.55362e-06 6.69272e-22)
(1.51094 5.7176e-07 1.38278e-21)
(1.51117 5.34172e-07 1.33497e-21)
(1.51133 1.86409e-07 1.15373e-21)
(1.51149 3.88034e-07 7.64881e-22)
(1.51159 1.03009e-06 9.05148e-22)
(1.51168 -2.10941e-07 1.08357e-21)
(1.51173 1.49113e-06 1.0858e-21)
(1.51179 9.60463e-07 1.2038e-21)
(1.51176 2.37613e-06 1.14046e-21)
(1.51171 3.21713e-06 1.60841e-21)
(1.51161 1.00785e-06 1.53263e-21)
(1.51151 -1.00215e-06 1.56499e-21)
(1.51138 -1.79224e-06 1.61712e-21)
(1.51118 1.51934e-07 1.71821e-21)
(1.51095 2.73408e-06 1.69896e-21)
(1.51067 4.78185e-06 1.78374e-21)
(1.51033 1.09084e-05 1.80983e-21)
(1.50995 4.16135e-05 1.85609e-21)
(1.50952 7.52171e-05 1.9067e-21)
(1.50905 0.000107191 1.97661e-21)
(1.50866 0.000186862 1.99583e-21)
(1.5081 0.000292271 2.07993e-21)
(1.50764 0.000345018 2.14942e-21)
(1.50725 0.000519925 2.4027e-21)
(1.5075 0.000544766 1.80567e-21)
(1.50708 0.000402621 3.40644e-21)
(1.51237 -0.000192413 9.01426e-21)
(1.51136 -0.00415695 2.55825e-20)
(1.53704 -0.0464725 2.79699e-19)
(1.4134 -0.219785 1.8499e-19)
(0.869586 -0.0845519 1.20219e-18)
(0.858487 -0.0160789 1.011e-18)
(0.861065 0.000820282 8.86767e-19)
(0.87081 0.000551052 5.68263e-19)
(0.871818 0.00191861 4.85746e-19)
(0.870208 0.00311252 4.17717e-19)
(0.868793 0.00258509 3.48063e-19)
(0.870802 0.00359257 2.67374e-19)
(0.871508 0.00389078 2.05167e-19)
(0.870976 0.00396507 1.5822e-19)
(0.870479 0.00404266 1.4597e-19)
(0.870486 0.00412735 1.18261e-19)
(0.871799 0.00403392 1.09035e-19)
(0.87207 0.00321118 9.46275e-20)
(0.871779 0.0027569 7.80912e-20)
(0.871447 0.0023714 6.66459e-20)
(0.872282 0.0016978 6.68705e-20)
(0.874668 0.00131621 7.31429e-20)
(0.87813 0.00106385 8.33594e-20)
(0.883029 0.000524495 8.89121e-20)
(0.889552 4.33331e-05 1.07346e-19)
(0.897198 -0.000156126 1.23729e-19)
(0.906731 0.000225868 1.19412e-19)
(0.913618 0.00049587 1.60612e-19)
(0.916227 0.000639922 2.09368e-19)
(0.908624 0.000981574 2.56564e-19)
(0.894953 0.000721945 3.89808e-19)
(0.876708 -0.00140261 4.42901e-19)
(0.866932 -0.00158083 5.97386e-19)
(0.862758 -0.00266538 7.09907e-19)
(0.864581 -0.000542361 8.53447e-19)
(0.869293 0.00389639 1.04218e-18)
(0.865504 0.0203713 1.4272e-18)
(0.791316 0.06717 1.81085e-18)
(0.668807 0.108309 2.19256e-18)
(0.537135 0.124474 1.44317e-18)
(0.425002 0.0891474 9.91507e-19)
(0.332338 0.0569835 5.74106e-19)
(0.267781 0.0400318 1.64663e-19)
(0.218821 0.0347233 1.94949e-19)
(0.183594 0.026671 2.15576e-19)
(0.160028 0.0181499 1.27857e-19)
(0.145169 0.0117393 1.39247e-19)
(0.136761 0.00637757 1.2971e-19)
(0.13324 0.00181305 1.59262e-19)
(0.133729 -0.00125559 1.46057e-19)
(0.136646 -0.00403332 1.94704e-19)
(0.142157 -0.00604698 1.99357e-19)
(0.148628 -0.00649118 2.7201e-19)
(0.154974 -0.00568056 4.42197e-19)
(0.16023 -0.00421242 5.41352e-19)
(0.163991 -0.00277775 4.47975e-19)
(0.166151 -0.00122822 5.99567e-19)
(0.167183 -0.000446153 7.02718e-19)
(0.167503 0.000454482 7.6718e-19)
(0.166827 0.00148523 8.06143e-19)
(0.164933 0.00260045 8.07572e-19)
(0.161071 0.00385038 9.24857e-19)
(0.154624 0.00518759 1.04209e-18)
(0.145678 0.00662668 1.26918e-18)
(0.134052 0.0081334 1.15414e-18)
(0.120351 0.00942166 1.49012e-18)
(0.104652 0.0102488 1.1196e-18)
(0.0877645 0.0110381 1.7439e-18)
(0.0695257 0.0115032 1.13516e-18)
(0.0506976 0.0121068 2.00989e-18)
(0.029991 0.0127687 6.43293e-19)
(0.00953129 0.0108557 1.58817e-18)
(1.50569 1.25838e-06 5.67741e-23)
(1.50573 -6.14759e-06 2.31627e-21)
(1.50581 2.08692e-06 2.71111e-21)
(1.50586 9.41784e-08 2.75669e-21)
(1.50602 -1.73013e-06 8.87389e-22)
(1.50621 -2.16129e-06 2.46007e-21)
(1.50644 2.77456e-06 1.38196e-21)
(1.5067 1.63257e-06 9.96511e-22)
(1.50699 5.60468e-07 1.77843e-21)
(1.50727 -8.31822e-07 8.86403e-22)
(1.50758 -2.10317e-07 7.90283e-22)
(1.50791 8.06668e-07 7.20221e-22)
(1.50823 -3.06579e-07 1.62503e-21)
(1.50855 -6.1658e-07 -9.93193e-22)
(1.50891 2.05613e-06 -2.2024e-21)
(1.50923 1.72832e-06 -1.63484e-21)
(1.50953 1.43188e-07 -1.82287e-21)
(1.50985 1.05078e-06 -3.67785e-21)
(1.51014 3.34681e-06 -3.17005e-21)
(1.51041 2.99055e-06 -5.26843e-21)
(1.51067 2.05752e-06 -4.68455e-21)
(1.51095 1.84207e-06 -5.40995e-21)
(1.51119 3.57378e-06 -6.14883e-21)
(1.51136 4.04803e-06 -6.76502e-21)
(1.51152 5.91742e-06 -5.23871e-21)
(1.51162 8.46318e-06 -5.57977e-21)
(1.5117 7.15442e-06 -6.23558e-21)
(1.51174 7.08126e-06 -6.03125e-21)
(1.51178 1.00006e-05 -6.92996e-21)
(1.51174 1.25439e-05 -5.92826e-21)
(1.51168 1.66386e-05 -7.41883e-21)
(1.51161 1.82961e-05 -7.07961e-21)
(1.51148 1.85214e-05 -7.10464e-21)
(1.51133 2.22073e-05 -7.73636e-21)
(1.51114 2.41824e-05 -7.88589e-21)
(1.5109 2.7067e-05 -7.7496e-21)
(1.51065 2.45894e-05 -8.27691e-21)
(1.51037 2.78417e-05 -8.06405e-21)
(1.51005 2.11926e-05 -8.09518e-21)
(1.50976 -3.13899e-06 -7.91971e-21)
(1.50942 -2.46001e-05 -8.20355e-21)
(1.50912 -7.41616e-05 -8.07449e-21)
(1.50882 -0.000138782 -8.07686e-21)
(1.5089 -0.000292201 -8.19665e-21)
(1.50897 -0.000534964 -8.09655e-21)
(1.5096 -0.000983955 -9.22837e-21)
(1.51023 -0.00184769 -8.56972e-21)
(1.51325 -0.00409814 -7.31658e-21)
(1.51292 -0.00959316 1.29112e-20)
(1.50718 -0.0753396 2.76042e-19)
(0.992041 -0.286321 7.2866e-19)
(0.615564 -0.0788409 6.97954e-19)
(0.59011 -0.00770577 7.14144e-19)
(0.592577 0.000786476 3.97067e-19)
(0.603449 0.000469578 2.49034e-19)
(0.612693 0.00060866 1.71817e-19)
(0.622261 0.00305759 6.73525e-20)
(0.635576 0.0011094 1.78103e-20)
(0.652937 0.0026222 2.21154e-20)
(0.670089 0.00282583 3.72905e-20)
(0.688432 0.00259089 2.02209e-20)
(0.707432 0.00400289 4.69365e-20)
(0.72471 0.00368298 7.65734e-20)
(0.741073 0.00282358 5.704e-20)
(0.755919 0.00247427 4.92488e-20)
(0.769004 0.00322606 1.12777e-19)
(0.779172 0.00281853 1.16758e-19)
(0.788049 0.00189844 1.65987e-19)
(0.797439 0.00132907 1.84989e-19)
(0.80684 0.000605502 2.70332e-19)
(0.817063 8.89525e-05 3.01725e-19)
(0.829242 7.13368e-05 4.73304e-19)
(0.842787 -0.000310446 6.07696e-19)
(0.853145 0.00129162 8.36272e-19)
(0.85948 0.00176183 9.58503e-19)
(0.859868 0.00182726 1.12532e-18)
(0.851071 0.000990682 1.30932e-18)
(0.825494 -0.00195053 1.51956e-18)
(0.787722 -0.00284403 1.58954e-18)
(0.777463 -0.00723041 1.63794e-18)
(0.765465 -0.00684935 1.70454e-18)
(0.732299 -0.00436168 1.75755e-18)
(0.671546 0.00337713 1.90146e-18)
(0.610664 0.0333541 1.64591e-18)
(0.544781 0.0833071 2.09521e-18)
(0.464468 0.120287 1.407e-18)
(0.401938 0.136167 1.57543e-18)
(0.348769 0.123551 8.87681e-19)
(0.300538 0.100643 7.52263e-19)
(0.257051 0.073546 8.59507e-19)
(0.231044 0.050382 3.30399e-19)
(0.214664 0.0335721 3.26544e-19)
(0.201993 0.0220047 2.79585e-19)
(0.192992 0.0141314 2.45744e-19)
(0.186873 0.00822004 2.06046e-19)
(0.182697 0.00338614 3.24969e-19)
(0.179441 -0.00019945 2.10205e-19)
(0.177541 -0.00356219 2.43144e-19)
(0.176401 -0.00591028 3.30036e-19)
(0.175144 -0.00637617 4.88357e-19)
(0.174428 -0.00558512 5.21898e-19)
(0.17433 -0.00427304 5.37323e-19)
(0.174249 -0.00277876 6.54142e-19)
(0.174107 -0.00123693 8.03243e-19)
(0.173679 -0.000239137 9.98527e-19)
(0.172785 0.000801193 1.16456e-18)
(0.17132 0.00210065 1.2915e-18)
(0.168783 0.00381812 1.4321e-18)
(0.165337 0.00686343 1.5707e-18)
(0.159645 0.00975061 1.59124e-18)
(0.151989 0.0133406 1.77009e-18)
(0.141776 0.0163301 1.67042e-18)
(0.129464 0.0196507 1.94195e-18)
(0.1148 0.0219379 1.73012e-18)
(0.0987268 0.0250006 2.189e-18)
(0.0807465 0.0271469 1.50806e-18)
(0.0618423 0.0302195 1.66334e-18)
(0.0397094 0.0362448 3.12496e-19)
(0.0141102 0.0354782 -3.33668e-18)
(1.50568 2.47942e-06 7.61818e-22)
(1.50572 -1.04332e-05 -8.98021e-22)
(1.50581 3.0052e-06 -3.35172e-21)
(1.50586 2.71451e-07 -1.62142e-21)
(1.50602 -1.05447e-06 -2.44446e-21)
(1.50621 -1.91461e-06 -2.17307e-21)
(1.50644 1.35564e-06 -2.99901e-21)
(1.5067 4.01624e-07 -3.75192e-21)
(1.50699 -1.61593e-07 -3.2232e-21)
(1.50726 -1.37235e-06 -3.95237e-21)
(1.50758 -6.57029e-07 -9.53884e-22)
(1.50792 1.51298e-06 -5.52044e-21)
(1.50824 -3.90218e-07 -6.43722e-21)
(1.50854 -4.64943e-07 -6.07988e-21)
(1.5089 3.63508e-06 -5.32867e-21)
(1.50923 2.05012e-06 -6.34686e-21)
(1.50952 1.22757e-06 -7.16902e-21)
(1.50985 3.23669e-06 -8.1561e-21)
(1.51015 3.21627e-06 -5.84589e-21)
(1.51043 3.62289e-06 -8.29799e-21)
(1.5107 3.794e-06 -8.92344e-21)
(1.51096 5.80611e-06 -1.37258e-20)
(1.51118 7.61406e-06 -1.19197e-20)
(1.51135 8.27368e-06 -1.44047e-20)
(1.51151 1.02968e-05 -1.8725e-20)
(1.51162 1.23326e-05 -1.80117e-20)
(1.51171 1.22527e-05 -1.94316e-20)
(1.51177 1.20101e-05 -1.98968e-20)
(1.51183 1.31613e-05 -2.02758e-20)
(1.51181 1.72603e-05 -1.79347e-20)
(1.51177 2.00181e-05 -1.82392e-20)
(1.51168 1.83845e-05 -1.76656e-20)
(1.51158 1.97067e-05 -1.83721e-20)
(1.51147 2.1284e-05 -1.77174e-20)
(1.51128 2.45474e-05 -1.82294e-20)
(1.51106 2.7424e-05 -1.78997e-20)
(1.51077 3.65397e-05 -1.79401e-20)
(1.51038 4.36611e-05 -1.80628e-20)
(1.50988 6.64683e-05 -1.80845e-20)
(1.50948 8.47074e-05 -1.81188e-20)
(1.50888 9.65079e-05 -1.81618e-20)
(1.50805 0.000125906 -1.79402e-20)
(1.50722 0.000143957 -1.81605e-20)
(1.50618 0.000117471 -1.81748e-20)
(1.50471 1.80973e-05 -1.8328e-20)
(1.50257 -0.000252766 -1.64568e-20)
(1.50041 -0.00080513 -1.51775e-20)
(1.49512 -0.00230379 -1.1988e-20)
(1.49109 -0.00656798 7.08963e-21)
(1.47664 -0.0558404 1.91108e-19)
(0.734705 -0.151367 4.98364e-19)
(0.487095 -0.0737773 4.71295e-19)
(0.442982 -0.0131826 2.80425e-19)
(0.454959 -0.00662968 2.09034e-20)
(0.485696 -0.00750416 7.15908e-20)
(0.515196 -0.00983177 -1.22249e-20)
(0.541444 -0.0124538 3.50284e-20)
(0.568115 -0.0172609 3.88942e-20)
(0.597211 -0.0160365 3.67606e-20)
(0.625208 -0.0153724 1.76453e-20)
(0.652925 -0.0154427 3.79074e-20)
(0.677038 -0.0166863 9.81367e-20)
(0.699008 -0.0125364 6.90432e-20)
(0.722788 -0.0101716 5.2955e-20)
(0.739846 -0.00802493 1.114e-19)
(0.751231 -0.00622403 1.95469e-19)
(0.761475 -0.00556714 2.43792e-19)
(0.773088 -0.0049909 2.66691e-19)
(0.786193 -0.00463512 3.74018e-19)
(0.797416 -0.00588786 4.03407e-19)
(0.80828 -0.00638485 6.52022e-19)
(0.82025 -0.00631689 7.78772e-19)
(0.832846 -0.00387495 8.9744e-19)
(0.844905 -0.000384677 1.07804e-18)
(0.852894 0.00359097 1.39145e-18)
(0.846793 0.00879078 1.71166e-18)
(0.818712 0.0157026 1.93713e-18)
(0.799353 0.0196527 2.08207e-18)
(0.768319 0.0230276 2.08344e-18)
(0.703165 0.0262294 1.95833e-18)
(0.624326 0.032586 1.72098e-18)
(0.582615 0.0500676 1.66362e-18)
(0.535939 0.0801592 1.55031e-18)
(0.434182 0.105622 1.42443e-18)
(0.374213 0.137163 1.40722e-18)
(0.346624 0.162389 1.29727e-18)
(0.31459 0.163858 1.27874e-18)
(0.289587 0.153887 1.24579e-18)
(0.26013 0.127386 1.3089e-18)
(0.23739 0.100182 4.76962e-19)
(0.219727 0.0686938 1.71204e-18)
(0.203743 0.0467991 3.77452e-19)
(0.191804 0.0311343 3.28129e-20)
(0.183117 0.0203052 1.31814e-18)
(0.178662 0.0131951 2.91474e-19)
(0.175933 0.00654055 4.1998e-19)
(0.174617 0.00184984 5.7624e-19)
(0.174415 -0.00227347 7.98363e-19)
(0.174332 -0.00489367 9.09108e-19)
(0.17434 -0.00577147 1.22258e-18)
(0.174451 -0.00536192 1.33249e-18)
(0.174718 -0.00436198 1.54648e-18)
(0.175248 -0.00295027 1.85537e-18)
(0.175528 -0.00129265 2.01171e-18)
(0.17539 0.000519795 2.01967e-18)
(0.175031 0.00231491 1.83977e-18)
(0.173962 0.00481616 1.72867e-18)
(0.171084 0.00750481 1.47837e-18)
(0.167416 0.012489 1.45819e-18)
(0.160821 0.016964 1.39367e-18)
(0.152966 0.0230541 1.45935e-18)
(0.142294 0.0279828 1.47238e-18)
(0.130069 0.0338479 1.35449e-18)
(0.115473 0.0379308 1.2186e-18)
(0.0995957 0.0432854 6.59245e-19)
(0.0812111 0.0472766 6.05543e-19)
(0.0609091 0.0525507 -3.55562e-19)
(0.0392936 0.0627324 -1.75617e-18)
(0.0146395 0.0641948 -4.7924e-18)
(1.50567 3.81821e-06 -8.37343e-22)
(1.50572 -1.21934e-05 -5.2687e-22)
(1.50581 2.05292e-06 2.42017e-21)
(1.50586 -3.08599e-07 1.42772e-21)
(1.50603 -8.77152e-07 2.26979e-21)
(1.50621 -1.72525e-06 -3.68463e-21)
(1.50644 4.17455e-07 -2.13111e-21)
(1.5067 1.25591e-06 -1.94701e-21)
(1.50699 -5.94373e-07 -8.8892e-22)
(1.50727 -1.08321e-06 -3.95176e-22)
(1.50759 -4.72051e-07 -1.36814e-21)
(1.50792 1.77227e-06 -3.55068e-21)
(1.50824 1.69189e-07 -9.46345e-22)
(1.50855 -1.51855e-07 -4.0074e-22)
(1.50891 4.34731e-06 4.71642e-21)
(1.50924 4.23521e-06 5.62511e-21)
(1.50955 2.61459e-07 5.85417e-21)
(1.50987 2.48055e-06 7.21173e-21)
(1.51016 5.9654e-06 -1.45236e-21)
(1.51043 6.26338e-06 8.68716e-21)
(1.51068 5.94337e-06 9.3425e-21)
(1.51096 8.26569e-06 1.51794e-20)
(1.51119 1.0297e-05 1.2674e-20)
(1.51137 1.29586e-05 1.82039e-20)
(1.51153 1.47181e-05 1.61257e-20)
(1.51164 1.93962e-05 1.19059e-20)
(1.51172 2.44384e-05 1.72949e-20)
(1.51176 2.21305e-05 2.06676e-20)
(1.51181 2.43709e-05 2.19186e-20)
(1.51177 3.10544e-05 1.8135e-20)
(1.51172 3.56327e-05 1.80377e-20)
(1.51164 3.74596e-05 1.78442e-20)
(1.5115 4.03541e-05 1.76021e-20)
(1.51135 4.6247e-05 1.68394e-20)
(1.51117 5.18481e-05 1.70236e-20)
(1.51094 6.09242e-05 1.71977e-20)
(1.51071 7.03531e-05 1.62813e-20)
(1.51046 8.09144e-05 1.67141e-20)
(1.51022 8.20623e-05 1.67699e-20)
(1.51005 8.16494e-05 1.63952e-20)
(1.50986 5.62999e-05 1.63894e-20)
(1.50976 7.9072e-05 1.59184e-20)
(1.50978 4.92424e-05 1.63849e-20)
(1.50993 -5.20346e-05 1.58346e-20)
(1.51008 -5.58086e-05 1.64034e-20)
(1.50994 -0.000114495 1.56009e-20)
(1.50991 -0.000323888 1.8453e-20)
(1.50911 -0.000483445 1.74059e-20)
(1.50947 -6.82769e-05 1.59411e-20)
(1.48001 -0.00365758 1.72399e-19)
(0.695964 -0.00970852 5.29896e-19)
(0.44134 -0.0160231 5.17774e-19)
(0.393668 -0.0328124 3.65943e-19)
(0.403878 -0.0475599 2.38045e-19)
(0.444728 -0.055918 1.97061e-19)
(0.485653 -0.051654 1.66304e-19)
(0.52126 -0.0555386 1.41589e-19)
(0.556268 -0.0582738 1.30089e-19)
(0.591368 -0.0532366 1.07915e-19)
(0.62408 -0.0513787 8.00791e-20)
(0.654528 -0.0447318 8.78736e-20)
(0.683838 -0.0439266 8.81995e-20)
(0.709246 -0.034716 6.26042e-20)
(0.723425 -0.0221259 6.82521e-20)
(0.740074 -0.0169389 9.53686e-20)
(0.756645 -0.0159422 1.25697e-19)
(0.771862 -0.0152949 1.04487e-19)
(0.782891 -0.0141938 1.53989e-19)
(0.792038 -0.0128919 3.04309e-19)
(0.802513 -0.0110759 3.90356e-19)
(0.813202 -0.0121064 4.83314e-19)
(0.827561 -0.0124554 6.57227e-19)
(0.843627 -0.00876822 8.74635e-19)
(0.85191 -0.0043727 1.01135e-18)
(0.852015 0.00490745 1.25216e-18)
(0.851715 0.0184979 1.5826e-18)
(0.84695 0.0348649 1.88394e-18)
(0.792634 0.0481663 2.05496e-18)
(0.705972 0.0545609 1.92297e-18)
(0.664043 0.0730491 1.6496e-18)
(0.631167 0.0940473 1.33476e-18)
(0.549819 0.122633 1.14068e-18)
(0.468753 0.144029 9.56844e-19)
(0.435132 0.172068 9.99666e-19)
(0.399704 0.193993 1.00578e-18)
(0.356358 0.208025 1.12854e-18)
(0.32445 0.199176 1.10197e-18)
(0.297786 0.194537 1.54474e-18)
(0.274233 0.161286 1.22382e-18)
(0.244854 0.130127 2.24749e-18)
(0.222377 0.0908396 7.04597e-19)
(0.204679 0.0629053 2.14513e-18)
(0.191161 0.0421698 1.99381e-18)
(0.183432 0.0266365 4.804e-19)
(0.17834 0.0155867 1.25713e-18)
(0.176818 0.00810228 2.27238e-18)
(0.17563 0.00200774 1.78576e-18)
(0.175448 -0.0019782 1.43101e-18)
(0.175315 -0.00486272 1.97126e-18)
(0.175666 -0.00581704 2.30168e-18)
(0.176369 -0.0056348 2.3163e-18)
(0.176907 -0.00480426 2.1514e-18)
(0.177127 -0.00333807 1.85682e-18)
(0.177001 -0.00148757 1.30371e-18)
(0.177049 0.00123279 8.64885e-19)
(0.175739 0.00364234 2.97555e-19)
(0.174222 0.00765252 -5.70151e-20)
(0.169983 0.0113212 -2.42861e-19)
(0.165285 0.0183335 -5.7027e-19)
(0.156852 0.0237409 -4.35806e-19)
(0.148301 0.0323909 -7.61563e-19)
(0.136281 0.0389921 -6.29618e-19)
(0.123465 0.0470791 -7.58015e-19)
(0.108254 0.0527419 -1.4348e-18)
(0.0926815 0.0604641 -1.08195e-18)
(0.0746436 0.0664261 -3.13943e-18)
(0.0554175 0.0741302 -2.609e-18)
(0.036667 0.0862284 -4.243e-18)
(0.0149734 0.0899844 -7.06226e-18)
(1.50566 5.31842e-06 -1.39857e-21)
(1.50572 -1.39436e-05 2.73224e-21)
(1.50581 2.03959e-06 -3.34435e-21)
(1.50586 -5.86346e-07 1.53013e-21)
(1.50602 -7.9976e-07 2.34667e-21)
(1.50621 -1.3755e-06 1.10109e-20)
(1.50644 -1.41793e-07 1.96264e-20)
(1.5067 1.56824e-06 6.90764e-21)
(1.50699 -1.10102e-06 1.5146e-20)
(1.50727 -8.68321e-07 1.45706e-20)
(1.50757 -7.43506e-07 1.67002e-21)
(1.50792 1.51729e-06 1.67734e-20)
(1.50825 8.20557e-07 1.54846e-20)
(1.50855 1.2775e-07 1.45625e-20)
(1.50889 4.89383e-06 6.60076e-21)
(1.50923 3.55912e-06 4.81829e-21)
(1.50955 -5.02605e-07 1.70984e-20)
(1.50988 5.00737e-06 1.371e-20)
(1.51018 1.03583e-05 1.97203e-20)
(1.51046 9.59034e-06 5.80737e-21)
(1.51071 8.16957e-06 3.17654e-21)
(1.51098 7.79307e-06 9.69109e-22)
(1.5112 1.10981e-05 -3.49491e-21)
(1.51138 1.51955e-05 -7.11319e-21)
(1.51154 1.76548e-05 -2.23163e-21)
(1.51165 2.41124e-05 9.56879e-22)
(1.51175 2.67172e-05 -1.26068e-21)
(1.51182 2.88859e-05 -3.7008e-21)
(1.5119 2.81069e-05 -6.17359e-21)
(1.51191 3.41067e-05 7.79382e-22)
(1.51188 3.85945e-05 -2.07297e-22)
(1.51182 4.19146e-05 -3.71483e-21)
(1.51174 4.38928e-05 -1.46607e-21)
(1.51163 4.61922e-05 -4.70681e-21)
(1.51147 5.08082e-05 -6.83818e-21)
(1.51127 6.03668e-05 -4.24042e-21)
(1.51099 6.97635e-05 -4.85589e-21)
(1.51062 8.48198e-05 -6.42477e-21)
(1.51012 0.000102715 -5.94954e-21)
(1.50963 0.00012165 -6.61873e-21)
(1.50897 0.000161269 -7.31596e-21)
(1.50807 0.000219589 -7.47048e-21)
(1.50694 0.000272714 -6.70519e-21)
(1.50545 0.000285034 -8.9814e-21)
(1.50391 0.000505845 -7.74808e-21)
(1.50191 0.000423235 -8.25525e-21)
(1.49916 0.000573677 -8.23258e-21)
(1.4906 0.00152732 1.18556e-22)
(1.4884 0.00627157 7.3594e-20)
(1.45732 0.0570066 7.82912e-19)
(0.682058 0.133282 1.83302e-18)
(0.458005 0.045405 1.41835e-18)
(0.407844 -0.0462725 8.89606e-19)
(0.421436 -0.0989094 3.76567e-19)
(0.470487 -0.116305 2.45752e-19)
(0.514633 -0.103804 2.28313e-19)
(0.558351 -0.105207 2.20442e-19)
(0.596774 -0.102027 2.50178e-19)
(0.632015 -0.0881745 2.20987e-19)
(0.667782 -0.0860716 1.41277e-19)
(0.695868 -0.0736785 5.22241e-20)
(0.724256 -0.0635864 2.42038e-20)
(0.747029 -0.0471326 -7.95993e-20)
(0.768879 -0.0390768 -8.24452e-20)
(0.788351 -0.0321079 -6.57086e-20)
(0.801578 -0.0228166 -1.29687e-19)
(0.815434 -0.0177075 -1.48745e-19)
(0.827648 -0.0171952 -1.32296e-19)
(0.83831 -0.0187788 -8.99401e-20)
(0.849462 -0.0181232 -1.03502e-20)
(0.86069 -0.0161207 4.83297e-20)
(0.871451 -0.0129843 1.02022e-19)
(0.881649 -0.00985043 1.94222e-19)
(0.88852 -0.00372559 3.10238e-19)
(0.9012 0.0100655 4.82158e-19)
(0.905439 0.0282325 7.87868e-19)
(0.878788 0.0499166 1.31033e-18)
(0.83209 0.0726906 1.62563e-18)
(0.791784 0.0957538 1.8322e-18)
(0.737843 0.122773 1.53186e-18)
(0.643815 0.153865 9.76659e-19)
(0.592905 0.190442 6.60177e-19)
(0.544085 0.214888 5.6869e-19)
(0.493313 0.229107 4.11157e-19)
(0.450952 0.23602 3.64182e-19)
(0.419598 0.240712 3.56321e-19)
(0.388497 0.230867 5.36695e-19)
(0.351087 0.223334 6.76651e-19)
(0.317621 0.192522 1.0616e-18)
(0.275207 0.15798 1.0564e-18)
(0.245199 0.115138 1.80195e-18)
(0.220987 0.0786674 2.18212e-18)
(0.201647 0.053747 6.02034e-19)
(0.19019 0.0320541 4.02365e-18)
(0.183006 0.0183618 2.6214e-18)
(0.180193 0.00839465 -2.72083e-19)
(0.179114 0.00185474 2.33446e-18)
(0.17882 -0.00219763 3.15428e-18)
(0.178768 -0.00474018 1.05121e-18)
(0.17887 -0.00567284 -3.72728e-20)
(0.178929 -0.00552479 -8.29788e-22)
(0.178978 -0.00471357 -3.96783e-20)
(0.179031 -0.00308852 -2.5938e-19)
(0.178287 -0.000643524 -6.03191e-19)
(0.177101 0.00312441 -7.07828e-19)
(0.174425 0.00668208 -6.33601e-19)
(0.171424 0.0121039 -4.38126e-19)
(0.165498 0.0171677 -6.6611e-19)
(0.159889 0.0262957 -9.15132e-19)
(0.150241 0.0340258 -1.86549e-18)
(0.139949 0.0436408 -1.50587e-18)
(0.126183 0.0508462 -2.86628e-18)
(0.112449 0.0602702 -1.75915e-18)
(0.0960949 0.0662222 -3.91165e-18)
(0.0806284 0.075362 -3.27715e-18)
(0.0634839 0.08305 -5.19272e-18)
(0.0468597 0.0924241 -6.13668e-18)
(0.0326641 0.105916 -3.9714e-18)
(0.0152486 0.111751 -6.86097e-18)
(1.50566 6.92061e-06 9.01474e-22)
(1.50572 -1.44788e-05 -3.19322e-21)
(1.50581 1.09861e-06 1.0994e-21)
(1.50586 -1.08251e-06 -1.00307e-20)
(1.50603 -5.73006e-07 -5.98432e-21)
(1.50621 -1.0226e-06 -3.32827e-20)
(1.50645 -5.84017e-07 -4.09573e-20)
(1.5067 1.9728e-06 -2.39367e-20)
(1.50698 -3.97494e-08 -3.75422e-20)
(1.50728 1.45825e-07 -5.82638e-20)
(1.50758 -1.03154e-06 -2.39552e-20)
(1.50792 1.39386e-06 -5.06484e-20)
(1.50825 1.02532e-06 -6.40389e-20)
(1.50856 1.45624e-06 -5.48611e-20)
(1.50891 4.17448e-06 -5.40748e-20)
(1.50925 4.13819e-06 -4.43215e-20)
(1.50958 8.04868e-07 -7.22627e-20)
(1.50988 6.35637e-06 -5.69268e-20)
(1.51019 1.16038e-05 -6.40295e-20)
(1.51048 1.37221e-05 -6.73002e-20)
(1.51074 1.10335e-05 -6.82858e-20)
(1.511 1.22471e-05 -6.82237e-20)
(1.51123 1.59082e-05 -6.09898e-20)
(1.51141 2.01485e-05 -6.15003e-20)
(1.51156 2.40762e-05 -5.3537e-20)
(1.51168 3.32187e-05 -5.00477e-20)
(1.51176 3.42515e-05 -4.92479e-20)
(1.51181 3.81346e-05 -5.02069e-20)
(1.51188 3.66375e-05 -5.14351e-20)
(1.51186 5.01972e-05 -5.29998e-20)
(1.51181 5.27218e-05 -5.08011e-20)
(1.51172 5.95972e-05 -5.29406e-20)
(1.51162 6.56394e-05 -5.19859e-20)
(1.51146 7.24059e-05 -5.22679e-20)
(1.51128 8.05017e-05 -5.17475e-20)
(1.51108 0.000100716 -5.15339e-20)
(1.51084 0.000108998 -5.14312e-20)
(1.51069 0.000145234 -5.15112e-20)
(1.51055 0.000166725 -5.21538e-20)
(1.51042 0.000190621 -5.27387e-20)
(1.51033 0.000241675 -5.30669e-20)
(1.51048 0.000303233 -5.36808e-20)
(1.51076 0.000402023 -5.25453e-20)
(1.51113 0.000570515 -5.43977e-20)
(1.5118 0.000829146 -5.25984e-20)
(1.51206 0.001514 -5.18867e-20)
(1.51167 0.0023202 -4.84563e-20)
(1.51306 0.00463075 -3.30417e-20)
(1.51056 0.0127449 7.28001e-20)
(1.50885 0.0946703 1.47515e-18)
(0.905621 0.307693 3.99827e-18)
(0.564569 0.0968905 4.65827e-18)
(0.497168 -0.0542028 3.45913e-18)
(0.521802 -0.138856 2.18846e-18)
(0.579049 -0.161912 2.05011e-18)
(0.623635 -0.148698 1.73663e-18)
(0.667395 -0.141157 1.4815e-18)
(0.704133 -0.133232 1.49246e-18)
(0.729849 -0.113834 1.31841e-18)
(0.760879 -0.103278 1.2202e-18)
(0.780042 -0.0875794 7.03526e-19)
(0.806086 -0.0748424 5.11498e-19)
(0.815581 -0.0577366 3.40241e-19)
(0.842195 -0.0438365 2.13474e-19)
(0.857848 -0.0328415 1.32404e-19)
(0.862751 -0.0267291 1.05947e-19)
(0.87368 -0.0239018 6.25173e-20)
(0.881637 -0.0222712 1.73094e-20)
(0.891119 -0.0209305 -2.25405e-20)
(0.899858 -0.0200987 -6.84188e-20)
(0.907591 -0.0178936 -6.11721e-20)
(0.915993 -0.015463 -3.24664e-20)
(0.924476 -0.0119984 -1.40101e-20)
(0.935288 -0.00509995 2.17415e-20)
(0.94927 0.00949682 5.65113e-20)
(0.951959 0.0305421 2.02847e-19)
(0.926038 0.0576269 5.79304e-19)
(0.921406 0.0936773 1.18497e-18)
(0.847172 0.121698 1.81696e-18)
(0.79528 0.162915 1.58598e-18)
(0.74055 0.20548 1.322e-18)
(0.689358 0.240562 6.11586e-19)
(0.636429 0.263783 4.06209e-19)
(0.592857 0.275303 2.79263e-19)
(0.550872 0.284739 2.26865e-19)
(0.506198 0.285651 -1.37671e-21)
(0.467479 0.283046 -2.57403e-20)
(0.423978 0.269132 -3.0774e-19)
(0.38392 0.248358 8.33282e-20)
(0.326768 0.206095 -2.26785e-19)
(0.278475 0.156702 6.43393e-19)
(0.240649 0.107099 2.43628e-19)
(0.213137 0.0728222 1.39594e-18)
(0.195897 0.0419474 -6.83136e-19)
(0.186411 0.0228456 1.09831e-18)
(0.181004 0.00982449 2.89013e-18)
(0.178948 0.00211259 -1.62048e-18)
(0.176741 -0.00245943 -1.44033e-18)
(0.176046 -0.00458258 1.50438e-18)
(0.175604 -0.00558725 8.4431e-19)
(0.175416 -0.00556405 2.05577e-19)
(0.174821 -0.00455661 -4.21729e-19)
(0.1739 -0.00279373 -3.59867e-19)
(0.172028 0.000150193 1.52278e-19)
(0.169415 0.00443075 4.28911e-19)
(0.164688 0.00888136 1.78846e-19)
(0.160716 0.0164272 -1.09539e-18)
(0.152494 0.0234227 -2.49876e-18)
(0.145655 0.0343773 -2.76977e-18)
(0.133185 0.0413648 -4.24199e-18)
(0.125505 0.0555398 -3.78572e-18)
(0.112292 0.0639999 -4.27176e-18)
(0.100181 0.0741296 -4.7782e-18)
(0.0850537 0.0809182 -3.44835e-18)
(0.0713862 0.0911723 -5.87169e-18)
(0.0560586 0.0994041 -3.90087e-18)
(0.0417417 0.108258 -5.07398e-18)
(0.0306685 0.121745 -3.64151e-18)
(0.0165435 0.129408 -4.34769e-18)
(1.50564 8.35274e-06 5.46922e-21)
(1.50571 -1.43575e-05 4.23226e-21)
(1.50581 6.94534e-07 -5.83378e-21)
(1.50586 -1.30248e-06 7.06407e-21)
(1.50603 -1.44998e-07 -1.20344e-20)
(1.50621 -8.11293e-07 3.8339e-20)
(1.50645 -7.97405e-07 -9.48038e-21)
(1.5067 1.32195e-06 3.23241e-20)
(1.50698 7.61437e-07 3.62512e-21)
(1.50728 6.50165e-07 9.70418e-21)
(1.50758 -2.1507e-06 -9.53885e-22)
(1.50791 1.04858e-06 7.06911e-21)
(1.50825 2.56873e-06 2.36357e-20)
(1.50858 2.14305e-06 -1.1651e-20)
(1.50891 3.26649e-06 -2.21285e-20)
(1.50926 5.92708e-06 -2.25555e-20)
(1.50959 8.01179e-07 -5.77124e-21)
(1.50989 5.77975e-06 -1.52321e-20)
(1.5102 1.39624e-05 -1.75605e-20)
(1.51049 1.62319e-05 -4.78396e-21)
(1.51076 1.34155e-05 -1.67889e-21)
(1.51102 1.48036e-05 1.85579e-21)
(1.51125 1.80462e-05 1.09003e-21)
(1.51145 2.25472e-05 9.01965e-21)
(1.51162 2.82526e-05 -5.0099e-21)
(1.51175 3.76885e-05 -6.33975e-21)
(1.51185 4.05858e-05 -5.79154e-21)
(1.51193 4.45312e-05 -2.83315e-21)
(1.512 4.303e-05 -1.28593e-21)
(1.51205 5.26668e-05 -1.01143e-20)
(1.51204 5.99178e-05 -6.77548e-21)
(1.51201 6.34975e-05 -5.4637e-21)
(1.51195 7.13329e-05 -1.9007e-21)
(1.51189 7.74047e-05 -6.98848e-22)
(1.51178 8.50366e-05 -1.45466e-22)
(1.51162 9.7971e-05 1.44434e-21)
(1.51138 0.000101991 2.99657e-21)
(1.51108 0.0001141 4.25359e-21)
(1.51067 0.000120257 6.10124e-21)
(1.51018 0.000167822 7.54443e-21)
(1.50969 0.000200434 8.12314e-21)
(1.50905 0.000244602 6.87846e-21)
(1.50833 0.000310237 7.59781e-21)
(1.50759 0.000418632 6.99721e-21)
(1.50632 0.000616441 7.87093e-21)
(1.50607 0.000749293 9.24339e-21)
(1.5055 0.00123414 1.04443e-20)
(1.5077 0.00237586 1.39682e-20)
(1.50525 0.0100442 1.58284e-19)
(1.50776 0.0821413 1.86701e-18)
(1.34593 0.307866 6.41029e-18)
(0.717508 0.161556 1.26741e-17)
(0.649531 -0.0964736 1.02155e-17)
(0.690337 -0.190797 7.89757e-18)
(0.731963 -0.206069 5.11413e-18)
(0.758379 -0.19213 4.46147e-18)
(0.787767 -0.177436 3.58356e-18)
(0.808356 -0.156462 3.16813e-18)
(0.815991 -0.132434 2.52082e-18)
(0.842609 -0.119121 2.10151e-18)
(0.847445 -0.100657 1.49252e-18)
(0.872076 -0.0827359 1.20272e-18)
(0.873211 -0.0650205 9.08647e-19)
(0.900525 -0.0515247 6.73364e-19)
(0.901302 -0.0376166 5.13405e-19)
(0.919421 -0.0272413 3.45857e-19)
(0.924528 -0.0241779 3.39419e-19)
(0.928827 -0.0228191 1.84523e-19)
(0.936357 -0.0229206 1.06373e-19)
(0.942431 -0.0216047 7.17648e-20)
(0.947809 -0.0194411 2.34271e-20)
(0.956421 -0.0165142 4.00113e-21)
(0.962347 -0.0119616 -2.55662e-20)
(0.97372 -0.0044897 -1.67839e-20)
(0.985166 0.010081 6.57868e-21)
(0.991085 0.0340236 1.30777e-19)
(0.965678 0.0699298 4.69841e-19)
(0.9598 0.107971 1.24629e-18)
(0.883236 0.154989 1.83265e-18)
(0.842403 0.209 1.62438e-18)
(0.797982 0.261246 1.08818e-18)
(0.756151 0.29207 6.13902e-19)
(0.724131 0.318648 4.04358e-19)
(0.681663 0.332339 2.38724e-19)
(0.643837 0.337723 1.92467e-19)
(0.599033 0.337371 2.53513e-20)
(0.559062 0.33418 -3.37715e-20)
(0.50909 0.318273 -2.32857e-19)
(0.458242 0.303344 -1.60489e-19)
(0.40176 0.264993 -5.19925e-19)
(0.337981 0.212642 -2.22745e-19)
(0.284518 0.147274 -4.1527e-19)
(0.236382 0.0993086 -1.54775e-19)
(0.208026 0.0584479 -6.03806e-20)
(0.191581 0.0311603 -9.66829e-19)
(0.183329 0.0145281 -5.75869e-20)
(0.178029 0.0038245 1.58682e-18)
(0.174932 -0.000810322 -2.2657e-19)
(0.173208 -0.00374413 -1.17565e-18)
(0.171749 -0.00446149 -1.55548e-19)
(0.170592 -0.00405981 2.73989e-19)
(0.169417 -0.00262719 4.84308e-19)
(0.167868 0.000639167 -4.62613e-19)
(0.164536 0.0046452 -1.66644e-18)
(0.160911 0.0109905 -2.77984e-18)
(0.153854 0.0160788 -3.12228e-18)
(0.146152 0.0237589 -3.17239e-18)
(0.135502 0.0308877 -3.21409e-18)
(0.128291 0.0431593 -3.6169e-18)
(0.116367 0.0516051 -2.92612e-18)
(0.106274 0.0618882 -3.69151e-18)
(0.0937309 0.0700433 -2.52916e-18)
(0.087885 0.0852636 -4.01079e-18)
(0.0746339 0.0933195 -2.84149e-18)
(0.0643698 0.105321 -3.16117e-18)
(0.0510035 0.113828 -3.00983e-18)
(0.0381203 0.121626 -3.83965e-18)
(0.029416 0.134905 -4.78279e-19)
(0.0184547 0.144271 3.36053e-19)
(1.50564 1.01668e-05 -6.45718e-21)
(1.50571 -1.41462e-05 -8.00232e-21)
(1.50581 -2.25834e-08 5.74623e-21)
(1.50586 -1.81549e-06 -2.43344e-20)
(1.50603 -1.45106e-08 -8.46536e-21)
(1.50622 -2.99721e-07 -3.35587e-20)
(1.50645 -8.79597e-07 1.88898e-20)
(1.50671 8.94493e-07 -1.07323e-20)
(1.50698 1.31496e-06 -4.27975e-21)
(1.50729 -1.30593e-07 -6.71641e-21)
(1.50761 -6.6792e-07 -1.60929e-21)
(1.50791 -1.55319e-06 1.05019e-21)
(1.50826 2.11862e-06 5.66477e-21)
(1.5086 2.01365e-06 4.88197e-20)
(1.50891 2.89216e-06 6.76685e-20)
(1.50927 3.98375e-06 6.14023e-20)
(1.5096 4.21838e-06 7.86296e-20)
(1.50991 8.20123e-06 5.13401e-20)
(1.51022 1.33438e-05 5.03856e-20)
(1.51051 1.8301e-05 6.78229e-20)
(1.51079 1.501e-05 5.3078e-20)
(1.51106 1.7075e-05 4.07315e-20)
(1.51129 2.10025e-05 4.04418e-20)
(1.51148 2.94786e-05 3.37927e-20)
(1.51166 3.58942e-05 5.63149e-20)