/*--------------------------------*- C++ -*----------------------------------*\
| =========                 |                                                 |
| \\      /  F ield         | OpenFOAM: The Open Source CFD Toolbox           |
|  \\    /   O peration     | Version:  2.2.x                                 |
|   \\  /    A nd           | Web:      www.OpenFOAM.org                      |
|    \\/     M anipulation  |                                                 |
\*---------------------------------------------------------------------------*/
FoamFile
{
    version     2.0;
    format      ascii;
    class       volScalarField;
    location    "0.95";
    object      Bx;
}
// * * * * * * * * * * * * * * * * * * * * * * * * * * * * * * * * * * * * * //

dimensions      [1 0 -2 0 0 -1 0];

internalField   nonuniform List<scalar> 
14161
(
1.00093
1.00076
1.00086
1.00099
1.00118
1.00142
1.00172
1.00208
1.00251
1.00302
1.0036
1.00427
1.00501
1.00584
1.00674
1.00773
1.00877
1.00988
1.01104
1.01224
1.01345
1.01467
1.01589
1.01706
1.01818
1.0193
1.02027
1.02119
1.02196
1.02267
1.02325
1.0238
1.0242
1.02448
1.02463
1.02468
1.02458
1.02435
1.024
1.02349
1.02283
1.022
1.02108
1.02013
1.01923
1.01969
1.02625
1.04189
1.11891
1.12447
1.12204
1.11681
1.11797
1.11865
1.12028
1.12099
1.12122
1.12307
1.1222
1.11983
1.11773
1.11683
1.11605
1.11672
1.11794
1.11934
1.12041
1.12131
1.12214
1.12277
1.12302
1.12233
1.1205
1.11707
1.11327
1.11054
1.10905
1.10613
1.0954
1.0699
1.02529
0.943512
0.848306
0.725302
0.605285
0.504981
0.411306
0.340551
0.283871
0.241439
0.214059
0.196288
0.192171
0.197195
0.207257
0.220569
0.233685
0.245942
0.255602
0.26438
0.271737
0.278682
0.283826
0.288449
0.291168
0.293198
0.293455
0.291177
0.286242
0.277589
0.264499
0.251594
0.224768
0.212079
0.168292
0.158482
0.0922115
0.0868902
-0.00029025
1.00093
1.00076
1.00086
1.00099
1.00118
1.00142
1.00172
1.00208
1.00252
1.00302
1.00361
1.00427
1.00502
1.00585
1.00675
1.00773
1.00878
1.00989
1.01106
1.01224
1.01345
1.01467
1.0159
1.0171
1.01822
1.01929
1.02024
1.02117
1.02198
1.02274
1.02333
1.02386
1.02423
1.02449
1.02462
1.02464
1.02452
1.0243
1.02395
1.02344
1.02277
1.02202
1.02117
1.02018
1.01865
1.01849
1.01068
1.02281
0.954966
0.910055
0.936372
0.966749
0.994512
1.02297
1.04792
1.07106
1.09112
1.10881
1.12229
1.13251
1.13957
1.14675
1.15329
1.15903
1.16349
1.16685
1.16968
1.17141
1.17273
1.17333
1.17282
1.17168
1.16861
1.16238
1.15088
1.13415
1.11405
1.08794
1.06624
1.03329
1.00133
0.931845
0.853359
0.750002
0.64864
0.545046
0.452282
0.383366
0.323157
0.28607
0.260324
0.247276
0.236665
0.233372
0.236612
0.242216
0.24873
0.255841
0.262353
0.267968
0.273155
0.277684
0.282511
0.286231
0.289022
0.290564
0.291723
0.29097
0.287587
0.280793
0.268781
0.257477
0.232741
0.219746
0.177785
0.166006
0.101877
0.0940945
0.00653576
1.00093
1.00076
1.00086
1.00099
1.00118
1.00142
1.00172
1.00208
1.00252
1.00302
1.00361
1.00427
1.00502
1.00585
1.00675
1.00774
1.00879
1.0099
1.01105
1.01225
1.01347
1.01469
1.01591
1.01709
1.01822
1.01932
1.02032
1.02123
1.02202
1.02274
1.02337
1.02388
1.02429
1.0246
1.02478
1.02487
1.02485
1.02468
1.02434
1.02383
1.02308
1.02219
1.02081
1.01902
1.0163
1.01321
1.00358
0.981894
0.84896
0.823332
0.852936
0.898343
0.941901
0.979461
1.01376
1.0453
1.07417
1.09896
1.11937
1.13973
1.15844
1.17428
1.18494
1.1923
1.19645
1.20007
1.20263
1.2052
1.20704
1.20794
1.20874
1.20959
1.2098
1.20934
1.2037
1.19247
1.17965
1.15309
1.1273
1.07067
1.01659
0.934611
0.871924
0.806398
0.731557
0.648937
0.56685
0.484674
0.409122
0.350236
0.300285
0.269904
0.252585
0.248226
0.248321
0.2534
0.26082
0.26843
0.276525
0.284112
0.290772
0.295916
0.300291
0.303279
0.305919
0.307541
0.306833
0.30529
0.301211
0.294946
0.281596
0.269723
0.242478
0.226777
0.182037
0.165705
0.100673
0.0878689
0.00495898
1.00093
1.00076
1.00086
1.00099
1.00118
1.00142
1.00172
1.00209
1.00252
1.00303
1.00361
1.00428
1.00503
1.00586
1.00677
1.00775
1.0088
1.00991
1.01107
1.01227
1.01349
1.01472
1.01594
1.01714
1.01828
1.01935
1.02038
1.02128
1.02211
1.02283
1.02349
1.02401
1.02441
1.02466
1.02481
1.02482
1.02472
1.02452
1.02423
1.02385
1.02339
1.02282
1.02213
1.02132
1.01942
1.01621
1.00174
1.01257
0.907782
0.847887
0.906173
0.965725
1.00519
1.03851
1.071
1.09634
1.12136
1.14005
1.1613
1.178
1.1917
1.20077
1.20607
1.21102
1.21417
1.21687
1.2199
1.22189
1.22355
1.22516
1.22578
1.22539
1.22543
1.22071
1.22133
1.20884
1.2044
1.17884
1.16266
1.10929
1.08528
1.02724
0.980214
0.935006
0.881086
0.817634
0.731974
0.628122
0.526711
0.442742
0.373092
0.331452
0.305336
0.29387
0.289501
0.290877
0.293731
0.297889
0.302311
0.307215
0.311973
0.315886
0.318603
0.320106
0.320504
0.319543
0.317085
0.313227
0.307753
0.300834
0.286545
0.273476
0.243464
0.225025
0.175628
0.159039
0.0956934
0.0869559
0.00921075
1.00093
1.00076
1.00086
1.00099
1.00118
1.00142
1.00172
1.00209
1.00252
1.00303
1.00362
1.00428
1.00503
1.00586
1.00677
1.00776
1.00881
1.00993
1.01109
1.01229
1.01351
1.01475
1.01597
1.01717
1.01833
1.01939
1.02043
1.02134
1.02219
1.02293
1.0236
1.02414
1.02461
1.02496
1.02523
1.02537
1.02543
1.02535
1.02512
1.02479
1.02436
1.02374
1.02322
1.02254
1.02235
1.02197
1.02802
1.02845
1.08162
1.08203
1.1108
1.11208
1.11719
1.12475
1.13855
1.14527
1.1592
1.16676
1.18033
1.18813
1.19829
1.20682
1.21373
1.22097
1.22585
1.23006
1.23322
1.23624
1.23959
1.2431
1.24681
1.25039
1.25295
1.25037
1.25719
1.24942
1.25281
1.23544
1.21299
1.18287
1.13766
1.11087
1.06364
1.03428
0.988068
0.942517
0.87628
0.798066
0.702822
0.588341
0.483738
0.409994
0.36159
0.337793
0.32919
0.327254
0.327897
0.330072
0.331856
0.333155
0.333925
0.3338
0.33354
0.331312
0.329885
0.325925
0.321925
0.315539
0.308067
0.299082
0.281949
0.26852
0.237237
0.221181
0.17412
0.158052
0.0958403
0.0850865
0.0134944
1.00093
1.00077
1.00086
1.001
1.00119
1.00143
1.00173
1.00209
1.00253
1.00304
1.00362
1.00429
1.00504
1.00588
1.00679
1.00778
1.00883
1.00995
1.01112
1.01233
1.01357
1.0148
1.01602
1.01723
1.01841
1.01949
1.02054
1.02147
1.02235
1.0231
1.02378
1.02433
1.02474
1.02506
1.02521
1.02529
1.02524
1.02511
1.02497
1.0248
1.02476
1.02511
1.02579
1.0272
1.03057
1.03559
1.04828
1.05835
1.18302
1.17519
1.19696
1.18904
1.19012
1.18906
1.19397
1.19448
1.20546
1.20793
1.22079
1.22357
1.23567
1.23879
1.24822
1.25226
1.2569
1.26042
1.26358
1.26583
1.26795
1.27035
1.27223
1.2743
1.27358
1.27791
1.27183
1.27749
1.2592
1.26528
1.22138
1.21226
1.16051
1.15242
1.11883
1.09837
1.05882
1.02383
0.975706
0.925362
0.859488
0.766225
0.648108
0.536751
0.460234
0.418343
0.396745
0.389238
0.386177
0.383346
0.380115
0.374864
0.369718
0.36269
0.357172
0.349183
0.343171
0.334827
0.32662
0.316379
0.305199
0.294936
0.276937
0.263795
0.232014
0.216801
0.168836
0.155926
0.0981207
0.0898008
0.0210825
1.00094
1.00077
1.00086
1.001
1.00119
1.00143
1.00173
1.0021
1.00253
1.00304
1.00363
1.0043
1.00505
1.00588
1.0068
1.00779
1.00885
1.00997
1.01115
1.01236
1.0136
1.01485
1.01608
1.01729
1.01848
1.01958
1.02064
1.02161
1.02249
1.02329
1.02398
1.0246
1.02512
1.02554
1.02587
1.02608
1.0262
1.02622
1.02607
1.02581
1.02544
1.02478
1.02433
1.02371
1.02417
1.0232
1.02927
1.01488
1.06746
1.08975
1.12895
1.14802
1.16187
1.17467
1.18984
1.20347
1.217
1.22377
1.23516
1.23884
1.24924
1.2504
1.25878
1.2594
1.26476
1.26685
1.26977
1.27126
1.27352
1.27491
1.27633
1.27816
1.27717
1.28274
1.27521
1.28141
1.25701
1.25964
1.21157
1.20769
1.16072
1.15762
1.12438
1.11645
1.08508
1.06497
1.03179
0.99836
0.952342
0.894998
0.818201
0.704822
0.593802
0.522474
0.483821
0.466442
0.454746
0.443765
0.431305
0.41739
0.403928
0.389832
0.377648
0.365055
0.354101
0.341938
0.330223
0.315923
0.301598
0.289595
0.270281
0.25786
0.227685
0.214667
0.169376
0.155097
0.0976999
0.0889625
0.0275294
1.00094
1.00077
1.00087
1.001
1.00119
1.00143
1.00173
1.0021
1.00254
1.00305
1.00364
1.00431
1.00506
1.0059
1.00682
1.00781
1.00888
1.01001
1.01119
1.01241
1.01366
1.01492
1.01617
1.01739
1.0186
1.01973
1.02079
1.02183
1.02273
1.02357
1.02428
1.02489
1.02539
1.02572
1.02598
1.02607
1.02606
1.02592
1.02571
1.02541
1.02502
1.02456
1.02409
1.02326
1.02243
1.01931
1.0158
1.00273
1.01049
0.997478
1.0574
1.08884
1.11986
1.14171
1.16678
1.18492
1.20685
1.21892
1.23714
1.24238
1.25523
1.25647
1.26614
1.26651
1.2722
1.27394
1.27681
1.27891
1.28093
1.28233
1.28398
1.28624
1.28554
1.29026
1.28125
1.2877
1.2584
1.25643
1.2002
1.20396
1.16241
1.16128
1.12987
1.12501
1.10045
1.09075
1.071
1.05197
1.02657
0.99327
0.950078
0.875483
0.780409
0.684725
0.625861
0.593754
0.56776
0.54481
0.519626
0.493636
0.468305
0.442798
0.419349
0.396086
0.375448
0.354035
0.336313
0.316217
0.29646
0.279606
0.259222
0.248303
0.218947
0.206948
0.163557
0.153305
0.101563
0.0952414
0.0386701
1.00094
1.00077
1.00087
1.001
1.00119
1.00143
1.00174
1.0021
1.00254
1.00305
1.00365
1.00432
1.00508
1.00591
1.00684
1.00784
1.00891
1.01004
1.01123
1.01246
1.01371
1.01498
1.01626
1.0175
1.01874
1.01989
1.02097
1.022
1.02296
1.02382
1.02461
1.02531
1.02594
1.02644
1.02688
1.02713
1.02728
1.02729
1.02707
1.02654
1.02564
1.02416
1.02249
1.01989
1.01717
1.01259
1.00942
0.997353
1.00977
0.997263
1.0631
1.09074
1.13196
1.15697
1.18337
1.2001
1.22228
1.23266
1.25176
1.2564
1.27175
1.2721
1.28313
1.2817
1.28725
1.28629
1.2899
1.29099
1.29179
1.29284
1.29262
1.29409
1.29159
1.29401
1.28068
1.27977
1.23844
1.22898
1.18122
1.19164
1.15783
1.16231
1.13652
1.13676
1.11969
1.11694
1.10668
1.09809
1.08584
1.06945
1.04777
1.00803
0.950742
0.872594
0.803581
0.747494
0.697246
0.654377
0.613441
0.573977
0.534417
0.496676
0.460675
0.427272
0.395599
0.365665
0.337065
0.311176
0.284955
0.263332
0.244511
0.235813
0.209498
0.20176
0.163854
0.153616
0.103603
0.0975651
0.0464482
1.00094
1.00077
1.00087
1.001
1.00119
1.00144
1.00174
1.00211
1.00255
1.00306
1.00366
1.00433
1.00509
1.00594
1.00686
1.00787
1.00895
1.01009
1.01129
1.01254
1.0138
1.01508
1.01638
1.01766
1.01888
1.0201
1.02123
1.02229
1.02333
1.0242
1.02503
1.02574
1.02635
1.02683
1.02712
1.0273
1.02729
1.02716
1.02685
1.0264
1.0258
1.02498
1.02393
1.02274
1.02159
1.01961
1.02134
1.0129
1.03631
1.02859
1.09338
1.1184
1.1633
1.18832
1.21595
1.22827
1.25432
1.25815
1.27995
1.27816
1.29376
1.2915
1.30282
1.30064
1.30689
1.30814
1.31218
1.31289
1.31693
1.3179
1.32173
1.32225
1.32623
1.31732
1.321
1.30035
1.27914
1.2556
1.21228
1.21015
1.17643
1.1783
1.15555
1.15678
1.14339
1.14496
1.13922
1.13874
1.13649
1.12939
1.12191
1.09323
1.05939
0.978762
0.904505
0.829409
0.762385
0.705989
0.656657
0.611519
0.568193
0.526364
0.483931
0.442556
0.401631
0.367085
0.33682
0.309541
0.284059
0.259993
0.231403
0.219112
0.195622
0.191182
0.159792
0.154037
0.111327
0.106617
0.0573765
1.00094
1.00077
1.00087
1.001
1.0012
1.00144
1.00174
1.00211
1.00255
1.00307
1.00367
1.00434
1.00511
1.00596
1.00689
1.0079
1.00898
1.01014
1.01134
1.01261
1.0139
1.01518
1.0165
1.01781
1.01906
1.02031
1.02149
1.02258
1.02363
1.02461
1.0255
1.02633
1.02706
1.02774
1.02824
1.02865
1.02888
1.02896
1.02886
1.02834
1.02752
1.0261
1.02424
1.02199
1.01944
1.01519
1.0125
1.00321
1.00462
0.999125
1.06651
1.09734
1.14275
1.18243
1.20427
1.23336
1.25473
1.26922
1.28728
1.28292
1.29826
1.29212
1.30401
1.30216
1.3099
1.31223
1.31331
1.31696
1.31932
1.32198
1.32453
1.32642
1.32537
1.33027
1.31357
1.31159
1.26926
1.27109
1.22555
1.22905
1.19815
1.19942
1.17874
1.17959
1.16766
1.16732
1.16131
1.15872
1.15505
1.14919
1.1431
1.12105
1.09577
1.02199
0.957292
0.865346
0.786805
0.718092
0.658726
0.606412
0.56053
0.519347
0.479945
0.442269
0.404454
0.367161
0.327295
0.294487
0.266324
0.243728
0.217571
0.204983
0.184069
0.183247
0.158307
0.154982
0.116248
0.11074
0.0652461
1.00094
1.00077
1.00087
1.00101
1.0012
1.00144
1.00175
1.00212
1.00256
1.00308
1.00368
1.00436
1.00513
1.00598
1.00692
1.00794
1.00904
1.0102
1.01142
1.0127
1.01401
1.01532
1.01667
1.018
1.0193
1.02058
1.02184
1.02298
1.02407
1.02513
1.02606
1.02692
1.02769
1.02833
1.02882
1.02912
1.02931
1.02926
1.02906
1.02875
1.0283
1.02768
1.02685
1.02567
1.02399
1.02099
1.02067
1.01057
1.02518
1.01791
1.07956
1.09424
1.14577
1.18951
1.20393
1.24377
1.25228
1.28224
1.28067
1.30237
1.30496
1.30426
1.31329
1.31117
1.31859
1.3179
1.32187
1.32363
1.32517
1.32762
1.32795
1.33146
1.33019
1.3362
1.31964
1.3085
1.27195
1.27439
1.2315
1.23448
1.20665
1.20629
1.18662
1.18509
1.17445
1.17284
1.16695
1.16259
1.15424
1.14319
1.12529
1.09407
1.0542
0.985437
0.927178
0.834276
0.761113
0.691537
0.627801
0.572403
0.526031
0.486789
0.451074
0.419665
0.388653
0.355918
0.320683
0.288732
0.256943
0.233925
0.210639
0.198806
0.178983
0.177961
0.157361
0.15685
0.124637
0.120475
0.0769626
1.00094
1.00077
1.00087
1.00101
1.0012
1.00145
1.00175
1.00213
1.00257
1.00309
1.00369
1.00438
1.00515
1.00601
1.00695
1.00798
1.00908
1.01026
1.0115
1.01279
1.01412
1.01548
1.01683
1.0182
1.01955
1.02085
1.02216
1.0234
1.02455
1.02566
1.02674
1.0277
1.02858
1.02941
1.03019
1.03084
1.03136
1.03175
1.03204
1.03225
1.03227
1.03194
1.03132
1.03031
1.02895
1.02643
1.02897
1.02086
1.06619
1.08306
1.13229
1.13616
1.18864
1.2065
1.22955
1.26758
1.26583
1.29871
1.28908
1.31706
1.307
1.32201
1.31624
1.32289
1.32213
1.32347
1.32531
1.32502
1.32757
1.326
1.32791
1.32878
1.32787
1.33172
1.30157
1.29687
1.23996
1.24974
1.20991
1.20964
1.18538
1.18285
1.16629
1.16137
1.15049
1.14691
1.13516
1.12454
1.10492
1.08363
1.04915
1.00421
0.95237
0.89059
0.832229
0.753499
0.696203
0.646929
0.604504
0.562762
0.518824
0.475891
0.437081
0.403718
0.371898
0.343927
0.315993
0.288058
0.256951
0.230931
0.207449
0.193716
0.176778
0.174109
0.15927
0.159037
0.130894
0.124986
0.0859274
1.00094
1.00077
1.00087
1.00101
1.0012
1.00145
1.00176
1.00213
1.00258
1.0031
1.00371
1.0044
1.00517
1.00604
1.00699
1.00803
1.00915
1.01034
1.0116
1.0129
1.01426
1.01565
1.01704
1.01846
1.01985
1.02121
1.02255
1.02388
1.02511
1.02629
1.02746
1.02851
1.02946
1.03031
1.03111
1.0318
1.03237
1.03284
1.03323
1.03357
1.0339
1.03446
1.03512
1.03664
1.03886
1.04521
1.05236
1.07085
1.12781
1.13871
1.17727
1.18421
1.23895
1.24942
1.28702
1.30759
1.3018
1.32957
1.31532
1.34223
1.32959
1.34499
1.33686
1.34004
1.33746
1.3386
1.33585
1.33578
1.33603
1.33479
1.32843
1.32656
1.30911
1.29424
1.24144
1.23141
1.16923
1.16545
1.13199
1.12689
1.1051
1.09956
1.08254
1.07448
1.05593
1.04397
1.02153
1.00169
0.966036
0.938374
0.900188
0.862185
0.829935
0.787424
0.746123
0.692424
0.650538
0.605441
0.566845
0.529721
0.493278
0.460766
0.427489
0.395056
0.361764
0.332671
0.305194
0.280099
0.252
0.226194
0.202403
0.187994
0.172642
0.169035
0.159795
0.159127
0.138694
0.134573
0.0974262
1.00094
1.00078
1.00088
1.00101
1.00121
1.00145
1.00176
1.00214
1.00259
1.00311
1.00372
1.00442
1.0052
1.00607
1.00703
1.00808
1.00922
1.01042
1.0117
1.01303
1.01441
1.01584
1.01727
1.01871
1.02017
1.0216
1.02297
1.02438
1.02573
1.02702
1.02824
1.02947
1.03062
1.03168
1.03269
1.03372
1.03479
1.03582
1.03677
1.03771
1.03872
1.03996
1.04127
1.04284
1.04365
1.04714
1.03854
1.12694
1.07093
1.10254
1.13524
1.16915
1.23507
1.24505
1.30668
1.29104
1.33534
1.31623
1.34755
1.33578
1.35472
1.34506
1.35214
1.34844
1.34775
1.34442
1.33821
1.33258
1.32482
1.30906
1.27343
1.22463
1.15561
1.08484
1.00442
0.971401
0.923907
0.917581
0.893627
0.891403
0.877353
0.87236
0.860223
0.852504
0.837572
0.824327
0.80064
0.783222
0.761853
0.742552
0.725575
0.721082
0.707495
0.695478
0.66857
0.638287
0.601562
0.567755
0.534499
0.502542
0.471398
0.443612
0.41281
0.383431
0.354015
0.327798
0.302231
0.278464
0.25189
0.22761
0.203728
0.187461
0.172939
0.168223
0.161309
0.162063
0.14522
0.140948
0.106839
1.00094
1.00078
1.00088
1.00102
1.00121
1.00146
1.00177
1.00215
1.0026
1.00313
1.00374
1.00444
1.00523
1.00611
1.00708
1.00814
1.00929
1.01051
1.01182
1.01318
1.01458
1.01604
1.01753
1.019
1.02053
1.02203
1.02348
1.02495
1.02641
1.02781
1.02913
1.03048
1.03175
1.03293
1.034
1.03508
1.03607
1.03702
1.03777
1.03844
1.03896
1.03938
1.03976
1.04015
1.03944
1.04222
1.03319
1.09327
1.06616
1.07825
1.0939
1.10887
1.15776
1.16961
1.23995
1.24548
1.31569
1.31157
1.35501
1.33775
1.36415
1.35216
1.35857
1.35103
1.34978
1.33216
1.2975
1.24762
1.17914
1.10001
1.00209
0.87638
0.770986
0.704765
0.645154
0.629262
0.605633
0.602624
0.596909
0.599379
0.597589
0.599884
0.598611
0.601703
0.603641
0.608118
0.61409
0.616499
0.621709
0.628795
0.633822
0.638616
0.634976
0.629179
0.609598
0.588236
0.560157
0.534579
0.508565
0.485592
0.460567
0.433586
0.401723
0.372679
0.344404
0.320178
0.295383
0.272968
0.24907
0.225672
0.201973
0.185419
0.171508
0.166246
0.160569
0.164266
0.151989
0.15161
0.119319
1.00094
1.00078
1.00088
1.00102
1.00121
1.00146
1.00178
1.00216
1.00261
1.00314
1.00376
1.00446
1.00526
1.00615
1.00713
1.00821
1.00938
1.01061
1.01194
1.01334
1.01477
1.01627
1.01781
1.01935
1.02091
1.0225
1.02406
1.02557
1.02715
1.02866
1.03014
1.03156
1.03306
1.03449
1.03587
1.0372
1.03852
1.0399
1.04137
1.04266
1.04381
1.04502
1.04623
1.04811
1.05052
1.05461
1.06358
1.11189
1.09979
1.1042
1.10967
1.11997
1.13071
1.17521
1.19834
1.28327
1.28434
1.35559
1.33179
1.36444
1.33966
1.34731
1.31682
1.27908
1.2184
1.14601
1.0509
0.922223
0.807476
0.713888
0.642978
0.600444
0.549068
0.522483
0.49883
0.486125
0.473613
0.468934
0.467353
0.470305
0.477055
0.483835
0.491933
0.498165
0.505763
0.513831
0.526597
0.537449
0.552436
0.566202
0.576428
0.590262
0.59109
0.591973
0.575675
0.560343
0.54077
0.52084
0.494451
0.469664
0.443488
0.417131
0.389874
0.365724
0.340628
0.317777
0.293582
0.271698
0.249222
0.227661
0.205127
0.188052
0.174697
0.168023
0.164067
0.168647
0.159195
0.160462
0.130426
1.00094
1.00078
1.00088
1.00102
1.00122
1.00147
1.00178
1.00216
1.00262
1.00316
1.00378
1.00449
1.0053
1.00619
1.00719
1.00828
1.00946
1.01073
1.01207
1.0135
1.01499
1.0165
1.0181
1.01972
1.02132
1.023
1.02466
1.02629
1.02791
1.02958
1.03121
1.03279
1.03436
1.03595
1.0375
1.03895
1.04025
1.04164
1.04307
1.04457
1.04607
1.04738
1.04879
1.04934
1.05326
1.04693
1.12345
1.09083
1.09897
1.10242
1.10538
1.10741
1.12256
1.13584
1.17785
1.1952
1.28846
1.27778
1.34719
1.29361
1.27979
1.17962
1.12623
0.988399
0.889497
0.78362
0.713361
0.663925
0.609631
0.567729
0.523328
0.496096
0.468063
0.455474
0.447727
0.443049
0.439297
0.435936
0.435891
0.435821
0.439485
0.443389
0.452986
0.461005
0.470485
0.480562
0.492346
0.504685
0.520441
0.535142
0.544936
0.557146
0.559453
0.561776
0.547792
0.536696
0.518805
0.500979
0.47722
0.45431
0.428877
0.404938
0.381805
0.360506
0.335922
0.313096
0.288947
0.267822
0.247155
0.22719
0.205774
0.189266
0.17632
0.170077
0.166331
0.173514
0.167263
0.172368
0.143732
1.00095
1.00078
1.00088
1.00102
1.00122
1.00147
1.00179
1.00217
1.00263
1.00317
1.0038
1.00452
1.00533
1.00624
1.00725
1.00836
1.00956
1.01086
1.01222
1.01368
1.01521
1.01677
1.01842
1.02011
1.0218
1.02351
1.02529
1.02705
1.02876
1.03055
1.03233
1.03408
1.03577
1.03761
1.03947
1.04121
1.04298
1.04461
1.04627
1.04786
1.04935
1.05028
1.05078
1.04984
1.05157
1.04198
1.10212
1.08043
1.08516
1.09301
1.10122
1.11258
1.12669
1.14276
1.16659
1.18538
1.24337
1.22964
1.2587
1.17025
1.03257
0.940124
0.828038
0.765475
0.699907
0.650621
0.607571
0.579315
0.553306
0.537103
0.515169
0.49891
0.478031
0.465876
0.456964
0.450185
0.446598
0.440828
0.439845
0.437338
0.439182
0.440576
0.445797
0.450784
0.45831
0.466957
0.477608
0.490314
0.505522
0.519128
0.528478
0.536396
0.537829
0.535782
0.523865
0.51578
0.498332
0.481461
0.46015
0.440908
0.419886
0.400033
0.380599
0.360439
0.336118
0.31332
0.289671
0.268994
0.249413
0.230839
0.210572
0.194437
0.181731
0.175139
0.172354
0.179486
0.176034
0.182695
0.155711
1.00095
1.00078
1.00089
1.00103
1.00123
1.00148
1.0018
1.00218
1.00265
1.00319
1.00382
1.00455
1.00537
1.00629
1.00731
1.00844
1.00966
1.01098
1.01239
1.01387
1.01545
1.01708
1.01874
1.02052
1.02231
1.02408
1.02596
1.02783
1.02968
1.03152
1.03348
1.03538
1.03725
1.03909
1.04103
1.0429
1.04468
1.04631
1.04793
1.04958
1.05141
1.05366
1.05623
1.06022
1.0659
1.07738
1.12276
1.10961
1.10469
1.10838
1.11299
1.1171
1.1212
1.12613
1.12998
1.12877
1.12724
1.08871
1.01423
0.88044
0.833108
0.760753
0.726435
0.673433
0.648572
0.621184
0.600613
0.584211
0.563299
0.548356
0.535734
0.525818
0.511558
0.497486
0.486616
0.475455
0.469712
0.461041
0.457701
0.452025
0.451209
0.450242
0.452961
0.456402
0.462027
0.468423
0.477698
0.48819
0.49993
0.510872
0.518379
0.523417
0.524981
0.520805
0.51016
0.501853
0.485381
0.472336
0.454302
0.438335
0.41793
0.39898
0.379189
0.357604
0.332435
0.309609
0.287279
0.267587
0.249123
0.231641
0.212766
0.197268
0.185037
0.179382
0.176849
0.186403
0.185441
0.194845
0.169556
1.00095
1.00079
1.00089
1.00103
1.00123
1.00149
1.00181
1.0022
1.00266
1.00321
1.00385
1.00458
1.00541
1.00635
1.00738
1.00853
1.00977
1.01111
1.01256
1.01407
1.0157
1.01739
1.01911
1.02094
1.02282
1.02471
1.02661
1.02863
1.03063
1.0326
1.03461
1.0367
1.03877
1.04081
1.04294
1.04528
1.04755
1.04987
1.05206
1.05442
1.0565
1.05895
1.06096
1.06629
1.05753
1.14698
1.08425
1.09975
1.10729
1.11144
1.11342
1.11552
1.11563
1.11412
1.11183
1.08723
1.01151
0.912883
0.788925
0.764319
0.713965
0.696775
0.661244
0.647984
0.632978
0.622077
0.609715
0.599382
0.58363
0.571814
0.561042
0.55336
0.545951
0.53311
0.524506
0.512072
0.505341
0.494024
0.488478
0.479279
0.474734
0.470614
0.470475
0.471508
0.474953
0.477937
0.482567
0.489456
0.497547
0.506429
0.512817
0.516113
0.516692
0.511744
0.504536
0.493089
0.477726
0.465136
0.449245
0.434355
0.415535
0.396597
0.375792
0.354914
0.332426
0.311816
0.290532
0.271642
0.253259
0.236789
0.218697
0.203915
0.191901
0.186479
0.184476
0.194186
0.195364
0.205912
0.182551
1.00095
1.00079
1.00089
1.00103
1.00123
1.00149
1.00181
1.00221
1.00268
1.00323
1.00388
1.00462
1.00546
1.00641
1.00746
1.00862
1.00989
1.01125
1.01274
1.0143
1.01595
1.01771
1.01952
1.02136
1.02335
1.02534
1.02734
1.02943
1.03157
1.0337
1.03578
1.038
1.04021
1.04237
1.04445
1.04657
1.04853
1.05029
1.05169
1.05282
1.05373
1.05451
1.05508
1.05756
1.05522
1.10622
1.09469
1.09887
1.10442
1.10786
1.11068
1.11234
1.11075
1.10384
1.08231
1.01769
0.902101
0.777377
0.734833
0.703061
0.685804
0.664785
0.655258
0.64711
0.639535
0.630407
0.62197
0.611248
0.602395
0.593878
0.585333
0.577353
0.570885
0.560913
0.553772
0.543622
0.536958
0.527535
0.521019
0.510887
0.504672
0.496032
0.491643
0.488483
0.488563
0.488959
0.491164
0.493875
0.497529
0.50269
0.507651
0.509726
0.510608
0.505558
0.499425
0.486236
0.473272
0.459634
0.443982
0.42898
0.409805
0.391219
0.371442
0.35252
0.332154
0.3132
0.292413
0.273694
0.255487
0.239609
0.222524
0.208541
0.196828
0.192328
0.190604
0.20243
0.205892
0.218376
0.196598
1.00095
1.00079
1.00089
1.00104
1.00124
1.0015
1.00182
1.00222
1.00269
1.00325
1.0039
1.00465
1.00551
1.00647
1.00754
1.00872
1.01001
1.0114
1.01292
1.01454
1.01621
1.01804
1.01993
1.02184
1.02387
1.02597
1.0281
1.03022
1.03251
1.03478
1.03702
1.03924
1.04165
1.04399
1.04631
1.04858
1.05121
1.05407
1.05699
1.0601
1.06347
1.06737
1.07319
1.07724
1.11506
1.12588
1.11636
1.11208
1.11007
1.11102
1.11021
1.10944
1.10141
1.0868
1.02189
0.91463
0.78741
0.733818
0.709682
0.692196
0.677331
0.6675
0.660656
0.653456
0.648265
0.641749
0.632446
0.626125
0.619953
0.613432
0.607162
0.598914
0.591347
0.582819
0.576277
0.567838
0.561816
0.55296
0.546886
0.537376
0.530134
0.520029
0.512786
0.506394
0.502979
0.50094
0.500625
0.500779
0.501553
0.502845
0.504973
0.50623
0.506101
0.50055
0.49427
0.480166
0.468933
0.453584
0.439937
0.425323
0.407633
0.390866
0.372903
0.35554
0.336937
0.318617
0.298033
0.279559
0.261315
0.246079
0.22979
0.216599
0.205205
0.201026
0.199583
0.211649
0.216686
0.230223
0.210097
1.00096
1.00079
1.0009
1.00104
1.00124
1.00151
1.00183
1.00223
1.00271
1.00328
1.00393
1.00469
1.00556
1.00653
1.00762
1.00882
1.01014
1.01157
1.0131
1.01478
1.01652
1.01835
1.02032
1.02235
1.02439
1.02661
1.02885
1.03109
1.0334
1.03581
1.03822
1.04058
1.043
1.04551
1.04791
1.05001
1.05212
1.05385
1.05536
1.05606
1.0564
1.05472
1.05756
1.04625
1.1121
1.08987
1.09497
1.09921
1.1032
1.10535
1.10338
1.09664
1.07692
1.02779
0.913191
0.796811
0.732461
0.71017
0.693092
0.685209
0.676062
0.669454
0.664442
0.658676
0.655608
0.647672
0.641557
0.63672
0.630346
0.625739
0.620682
0.613189
0.607111
0.600002
0.594364
0.58736
0.581775
0.573514
0.567352
0.559108
0.552461
0.543161
0.535135
0.526023
0.520079
0.514804
0.511382
0.509146
0.507375
0.506465
0.505951
0.505059
0.502672
0.497881
0.490341
0.478166
0.466906
0.451808
0.439071
0.424325
0.407988
0.392279
0.375589
0.358939
0.34093
0.322699
0.301997
0.283897
0.26604
0.251263
0.235817
0.223039
0.212047
0.208261
0.206859
0.220769
0.227913
0.243157
0.224263
1.00096
1.00079
1.0009
1.00104
1.00125
1.00151
1.00184
1.00225
1.00273
1.0033
1.00397
1.00473
1.00561
1.0066
1.0077
1.00892
1.01027
1.01174
1.0133
1.01501
1.01682
1.01869
1.02072
1.02283
1.02498
1.02722
1.02957
1.03196
1.03431
1.03682
1.03934
1.04184
1.0443
1.04687
1.04943
1.05199
1.05447
1.05704
1.0603
1.06408
1.06899
1.07497
1.08274
1.09715
1.13618
1.11389
1.10912
1.10541
1.105
1.10312
1.09712
1.08096
1.0331
0.935219
0.799635
0.746945
0.715328
0.697743
0.690949
0.682838
0.677031
0.672957
0.667469
0.666538
0.662144
0.65571
0.651668
0.646686
0.640946
0.637221
0.631429
0.625116
0.620495
0.614849
0.610106
0.604241
0.598815
0.591605
0.585968
0.578994
0.57283
0.564699
0.556821
0.545033
0.536413
0.528424
0.522757
0.518074
0.51412
0.511203
0.508687
0.506196
0.502501
0.496985
0.489057
0.477492
0.466809
0.452086
0.44049
0.425655
0.411034
0.39587
0.379822
0.363493
0.345744
0.328211
0.30831
0.291176
0.273321
0.25922
0.244419
0.232229
0.221318
0.217883
0.216637
0.230753
0.239482
0.255652
0.237955
1.00096
1.0008
1.0009
1.00105
1.00126
1.00152
1.00185
1.00226
1.00275
1.00332
1.004
1.00478
1.00566
1.00667
1.00779
1.00904
1.0104
1.01191
1.01351
1.01524
1.01711
1.01907
1.0211
1.0233
1.02557
1.02784
1.03029
1.03278
1.03529
1.03778
1.04047
1.04312
1.04572
1.04827
1.05085
1.05336
1.05561
1.05759
1.05936
1.06094
1.06096
1.06449
1.04823
1.14117
1.07193
1.08875
1.09236
1.09741
1.09867
1.09445
1.08215
1.0361
0.938555
0.803504
0.750034
0.718238
0.701396
0.697413
0.690193
0.686552
0.682453
0.679343
0.673744
0.672448
0.668432
0.663835
0.660509
0.655099
0.65193
0.647639
0.641909
0.636814
0.632261
0.627532
0.623482
0.618085
0.613017
0.606984
0.601847
0.595798
0.589972
0.582442
0.574856
0.564266
0.555225
0.54496
0.537012
0.52995
0.523906
0.518659
0.514202
0.509503
0.504478
0.497778
0.489074
0.478745
0.467199
0.4538
0.4417
0.427212
0.413411
0.398665
0.382734
0.366695
0.349507
0.332523
0.313211
0.29668
0.279167
0.265365
0.251186
0.239261
0.228845
0.225728
0.224693
0.240265
0.251295
0.268954
0.252378
1.00097
1.0008
1.00091
1.00105
1.00126
1.00153
1.00186
1.00227
1.00277
1.00335
1.00403
1.00482
1.00572
1.00674
1.00788
1.00915
1.01054
1.01207
1.01373
1.01548
1.0174
1.01943
1.02152
1.02376
1.02611
1.02852
1.03095
1.03357
1.03619
1.0388
1.04144
1.04416
1.04683
1.04936
1.05181
1.05435
1.05689
1.05944
1.06209
1.0656
1.06997
1.07539
1.08659
1.12802
1.10344
1.1014
1.09837
1.09862
1.09131
1.08085
1.03344
0.947956
0.81726
0.758191
0.726962
0.708613
0.699312
0.693072
0.692219
0.689781
0.688172
0.685086
0.681081
0.679752
0.676624
0.673814
0.670623
0.665564
0.663269
0.658219
0.652944
0.648354
0.643334
0.639647
0.636132
0.630913
0.626157
0.621018
0.615964
0.610245
0.6046
0.598067
0.591293
0.582921
0.573991
0.562359
0.552606
0.543647
0.535444
0.528323
0.521539
0.514882
0.508273
0.500516
0.491484
0.48095
0.469255
0.456191
0.443591
0.429287
0.41587
0.401396
0.385638
0.370457
0.3543
0.338752
0.320766
0.305021
0.287759
0.274343
0.260367
0.248984
0.238746
0.235979
0.23529
0.251024
0.26388
0.282319
0.266395
1.00097
1.0008
1.00091
1.00106
1.00127
1.00154
1.00188
1.00229
1.00279
1.00338
1.00407
1.00486
1.00577
1.00681
1.00797
1.00926
1.01068
1.01223
1.01394
1.01575
1.01767
1.01977
1.02196
1.0242
1.02664
1.02915
1.03167
1.03432
1.03705
1.03979
1.04246
1.0453
1.04812
1.05093
1.05364
1.05643
1.05941
1.06211
1.06451
1.06561
1.0699
1.05862
1.15107
1.06369
1.0864
1.08856
1.09096
1.08228
1.06984
1.02619
0.937807
0.829211
0.751506
0.731959
0.719393
0.710777
0.703948
0.701285
0.699991
0.699005
0.696054
0.692766
0.689612
0.687684
0.685254
0.682205
0.678258
0.675118
0.672903
0.668804
0.664501
0.659709
0.65482
0.650829
0.646141
0.64149
0.63713
0.632852
0.628043
0.623032
0.617615
0.612108
0.605952
0.59902
0.591005
0.579167
0.569206
0.557863
0.54884
0.540215
0.531603
0.522779
0.514436
0.504979
0.495653
0.484256
0.472139
0.459227
0.445976
0.431873
0.418547
0.404591
0.389527
0.37508
0.359648
0.344461
0.327268
0.311417
0.294448
0.280855
0.267295
0.256248
0.246666
0.244214
0.244129
0.260807
0.275933
0.295842
0.281004
1.00097
1.00081
1.00091
1.00106
1.00127
1.00154
1.00189
1.0023
1.00281
1.0034
1.0041
1.00491
1.00583
1.00688
1.00806
1.00937
1.01082
1.0124
1.01412
1.01601
1.01797
1.02009
1.02235
1.02469
1.02712
1.02972
1.03238
1.03503
1.03786
1.04068
1.04347
1.04619
1.04898
1.05164
1.05411
1.05642
1.05857
1.06056
1.06226
1.06395
1.06555
1.06881
1.10286
1.08468
1.08021
1.07828
1.07621
1.05963
1.02869
0.936056
0.843063
0.757989
0.728381
0.711952
0.713147
0.707173
0.704025
0.701594
0.703757
0.704556
0.702153
0.698588
0.695515
0.693823
0.692286
0.688988
0.685032
0.682875
0.680507
0.677261
0.673232
0.66799
0.66416
0.660025
0.6547
0.650633
0.645853
0.642098
0.63752
0.633054
0.628351
0.623756
0.618154
0.612466
0.605091
0.59512
0.584847
0.572471
0.561501
0.551462
0.541718
0.531926
0.522052
0.511368
0.500963
0.488681
0.476092
0.463092
0.449203
0.43564
0.422513
0.409185
0.394808
0.38116
0.366289
0.351971
0.335764
0.320357
0.303697
0.290415
0.276956
0.266606
0.257493
0.255339
0.255869
0.272328
0.289593
0.31017
0.29559
1.00098
1.00081
1.00092
1.00107
1.00128
1.00155
1.0019
1.00232
1.00283
1.00343
1.00414
1.00495
1.00589
1.00695
1.00815
1.00948
1.01096
1.01258
1.01432
1.01623
1.01827
1.0204
1.02272
1.02515
1.02762
1.03027
1.03301
1.0358
1.03858
1.04153
1.04447
1.04737
1.05026
1.05341
1.05657
1.05988
1.0634
1.0674
1.07222
1.07882
1.07901
1.14138
1.09287
1.0907
1.08659
1.08365
1.06321
1.03112
0.940848
0.827281
0.769315
0.740221
0.72049
0.719567
0.720204
0.717016
0.70958
0.706679
0.706887
0.708089
0.70687