/*--------------------------------*- C++ -*----------------------------------*\
| =========                 |                                                 |
| \\      /  F ield         | OpenFOAM: The Open Source CFD Toolbox           |
|  \\    /   O peration     | Version:  2.2.x                                 |
|   \\  /    A nd           | Web:      www.OpenFOAM.org                      |
|    \\/     M anipulation  |                                                 |
\*---------------------------------------------------------------------------*/
FoamFile
{
    version     2.0;
    format      ascii;
    class       volScalarField;
    location    "0.95";
    object      T;
}
// * * * * * * * * * * * * * * * * * * * * * * * * * * * * * * * * * * * * * //

dimensions      [0 0 0 1 0 0 0];

internalField   nonuniform List<scalar> 
14161
(
0.996773
0.996994
0.99664
0.996134
0.99542
0.994501
0.993346
0.991944
0.990271
0.988313
0.986052
0.98348
0.980589
0.977381
0.973863
0.97005
0.96597
0.961643
0.957143
0.952428
0.947754
0.942917
0.938089
0.933536
0.929131
0.924709
0.920744
0.917215
0.914253
0.911503
0.908969
0.906812
0.905266
0.904402
0.904306
0.904153
0.904589
0.905773
0.90696
0.908834
0.911292
0.91472
0.918191
0.922607
0.926035
0.924153
0.91017
0.955871
2.58228
2.7861
2.79672
2.79526
2.7882
2.78387
2.77513
2.76947
2.76416
2.75543
2.74918
2.74406
2.73647
2.72673
2.71424
2.70216
2.69227
2.68264
2.67414
2.66672
2.66034
2.65434
2.65002
2.65086
2.65188
2.6561
2.6648
2.673
2.67818
2.68802
2.69919
2.73167
2.77957
2.86468
2.94673
3.02751
3.08072
3.12002
3.1427
3.16243
3.18541
3.20962
3.22715
3.2379
3.24305
3.24781
3.25217
3.25803
3.26696
3.27434
3.27728
3.2779
3.27891
3.28016
3.28257
3.2859
3.28978
3.29356
3.29708
3.3009
3.30664
3.31297
3.32296
3.32877
3.33826
3.34163
3.35133
3.35221
3.36277
3.36893
3.37653
0.996767
0.996989
0.996635
0.996127
0.995413
0.994492
0.993336
0.991932
0.990257
0.988297
0.986034
0.983459
0.980566
0.977354
0.973834
0.970017
0.965933
0.961605
0.957014
0.952411
0.947706
0.942913
0.93805
0.9334
0.929006
0.924753
0.920876
0.917309
0.914154
0.911217
0.908611
0.906541
0.90508
0.904333
0.904323
0.904279
0.90485
0.905963
0.907153
0.909044
0.911676
0.914555
0.917702
0.921685
0.926473
0.932135
0.95004
1.22116
2.89974
3.02189
3.01219
2.98261
2.95655
2.92961
2.9017
2.87333
2.847
2.81916
2.79752
2.77532
2.75524
2.73776
2.72108
2.7058
2.69287
2.68137
2.67083
2.66573
2.66336
2.66071
2.65983
2.66356
2.66935
2.6831
2.70655
2.73933
2.77256
2.81001
2.8393
2.87617
2.90115
2.95706
3.01052
3.06346
3.10159
3.12661
3.14773
3.16758
3.18725
3.2087
3.22512
3.23258
3.23698
3.24035
3.24471
3.24867
3.25502
3.26436
3.27068
3.27292
3.27365
3.27472
3.2762
3.27879
3.28277
3.28731
3.29096
3.29352
3.29665
3.30153
3.31029
3.31808
3.33008
3.33497
3.34562
3.34713
3.3576
3.36443
3.37354
0.996766
0.996987
0.996633
0.996125
0.995409
0.994488
0.993332
0.991927
0.990252
0.988291
0.986027
0.983452
0.980556
0.977344
0.973822
0.970005
0.965919
0.96159
0.957077
0.952375
0.947659
0.942855
0.93801
0.933404
0.928999
0.924602
0.920573
0.917064
0.914029
0.911207
0.908507
0.906456
0.904908
0.90385
0.903641
0.903292
0.903404
0.904242
0.905663
0.907475
0.91041
0.914138
0.919822
0.926402
0.936152
0.953277
0.964875
1.53724
3.02907
3.05954
3.06732
3.03733
2.99701
2.96715
2.93592
2.90263
2.869
2.83508
2.80446
2.77322
2.74504
2.71518
2.6951
2.67921
2.6669
2.65366
2.64302
2.63323
2.62424
2.61896
2.61434
2.61129
2.61326
2.61473
2.62893
2.6587
2.6863
2.73535
2.77963
2.85878
2.90591
2.96875
3.01131
3.04125
3.07917
3.10228
3.13074
3.15297
3.17915
3.20342
3.22479
3.23629
3.24035
3.24412
3.24848
3.25229
3.25782
3.26594
3.27439
3.27704
3.27695
3.27662
3.27669
3.27793
3.28073
3.28514
3.29094
3.29423
3.29699
3.3006
3.30751
3.31445
3.32661
3.33236
3.34369
3.34568
3.35461
3.36132
3.36982
0.996761
0.996981
0.996626
0.996118
0.995401
0.994478
0.993319
0.991912
0.990235
0.98827
0.986004
0.983423
0.980524
0.977305
0.973777
0.969951
0.965857
0.961523
0.956989
0.952314
0.947537
0.942696
0.937926
0.933212
0.928751
0.924491
0.920369
0.916817
0.913688
0.910825
0.908042
0.905932
0.904366
0.903582
0.903611
0.903647
0.904111
0.905055
0.906126
0.907569
0.909166
0.911486
0.914174
0.916908
0.923798
0.944954
0.978146
1.35529
2.95458
3.04888
3.02756
2.9732
2.93345
2.89888
2.86143
2.82647
2.78927
2.75681
2.72051
2.68976
2.66258
2.63636
2.62188
2.60422
2.59243
2.58308
2.57327
2.5672
2.5604
2.55504
2.55133
2.55035
2.54964
2.56078
2.56097
2.59562
2.61154
2.66339
2.69755
2.78238
2.80402
2.8584
2.90748
2.95476
3.00854
3.05116
3.10266
3.13487
3.16702
3.19715
3.2235
3.2378
3.24152
3.24304
3.24672
3.2504
3.25571
3.26167
3.27004
3.27712
3.27882
3.27823
3.27735
3.27731
3.2786
3.28186
3.28732
3.29386
3.29755
3.30082
3.30632
3.31174
3.32272
3.32884
3.34133
3.34317
3.35056
3.35657
3.3645
0.99676
0.996979
0.996624
0.996114
0.995397
0.994473
0.993313
0.991905
0.990226
0.98826
0.985991
0.983409
0.980507
0.977284
0.973751
0.969922
0.965821
0.961479
0.956922
0.952268
0.947452
0.942557
0.937845
0.933047
0.928546
0.924295
0.920127
0.916563
0.913369
0.9104
0.907652
0.905487
0.903667
0.902359
0.901869
0.901341
0.901097
0.901479
0.902536
0.903695
0.905607
0.908084
0.9109
0.913618
0.91784
0.916664
0.904743
0.993507
2.50923
2.83951
2.80434
2.78711
2.77996
2.76662
2.74453
2.7294
2.70341
2.68893
2.65821
2.6459
2.62256
2.60321
2.58228
2.5628
2.54826
2.53627
2.52688
2.51727
2.50886
2.50191
2.49191
2.48484
2.47903
2.48694
2.47076
2.50557
2.51262
2.55524
2.6072
2.64973
2.7008
2.71287
2.76479
2.79692
2.853
2.90157
2.97449
3.04813
3.12063
3.17576
3.21668
3.23979
3.25134
3.2533
3.25312
3.25712
3.26111
3.2655
3.27168
3.28012
3.28551
3.28697
3.28657
3.28578
3.28487
3.2853
3.28694
3.29168
3.2979
3.30385
3.30847
3.31275
3.32157
3.32612
3.33701
3.33812
3.34529
3.35137
3.35828
0.996757
0.996974
0.996618
0.996107
0.995388
0.994462
0.9933
0.991889
0.990207
0.988236
0.985963
0.983373
0.980465
0.977233
0.973689
0.969846
0.965728
0.961371
0.956803
0.952096
0.947218
0.942333
0.937678
0.932757
0.92823
0.923929
0.919753
0.916058
0.912703
0.909696
0.906887
0.904693
0.90317
0.902024
0.901972
0.901833
0.902038
0.902741
0.90329
0.903858
0.904145
0.90245
0.899893
0.894198
0.882758
0.856004
0.827374
0.771695
1.59431
2.79846
2.7353
2.71819
2.70396
2.70045
2.69166
2.68445
2.66176
2.65347
2.62489
2.61575
2.58871
2.57865
2.55574
2.54044
2.52655
2.5146
2.50294
2.49126
2.48489
2.47578
2.47241
2.46615
2.46728
2.45357
2.47933
2.47232
2.53029
2.53203
2.60946
2.60455
2.65651
2.64515
2.66563
2.68286
2.72972
2.76966
2.82994
2.89346
2.96837
3.05551
3.14825
3.20978
3.24034
3.25038
3.25373
3.25063
3.25409
3.25823
3.2625
3.26872
3.27653
3.28239
3.28506
3.28654
3.28396
3.28155
3.28124
3.28339
3.28857
3.29614
3.30421
3.31003
3.31882
3.32246
3.33244
3.33218
3.33874
3.3444
3.35155
0.996756
0.996971
0.996615
0.996103
0.995382
0.994455
0.993291
0.991879
0.990194
0.988221
0.985944
0.98335
0.980436
0.977198
0.973646
0.969794
0.965665
0.961287
0.956665
0.951991
0.947122
0.942157
0.93742
0.932537
0.927914
0.923574
0.919415
0.915554
0.912093
0.90895
0.906163
0.903648
0.901718
0.899992
0.899195
0.89839
0.89789
0.897916
0.898613
0.899689
0.901496
0.904285
0.906647
0.909426
0.910182
0.912346
0.903244
0.974615
2.43475
2.85319
2.85039
2.82326
2.78996
2.77675
2.74996
2.7266
2.69101
2.67297
2.63991
2.62687
2.59907
2.59004
2.56587
2.55617
2.53871
2.52852
2.51735
2.50777
2.50131
2.49506
2.4909
2.48659
2.4878
2.47384
2.50728
2.50171
2.57203
2.57712
2.66139
2.62876
2.67258
2.64408
2.66558
2.64372
2.66428
2.6751
2.71113
2.75635
2.81774
2.89194
2.98688
3.09876
3.18323
3.21862
3.23606
3.23577
3.23859
3.24226
3.24836
3.25449
3.26185
3.26966
3.27618
3.28133
3.28332
3.28126
3.27592
3.2764
3.28057
3.28672
3.29647
3.30437
3.31348
3.31631
3.32698
3.32593
3.3324
3.33762
3.34403
0.996753
0.996967
0.996609
0.996096
0.995373
0.994443
0.993277
0.99186
0.990171
0.988192
0.985908
0.983307
0.980381
0.977132
0.973562
0.969695
0.965542
0.961144
0.956532
0.951755
0.946832
0.941866
0.937064
0.932155
0.927411
0.923008
0.918787
0.914665
0.911144
0.907816
0.904968
0.902459
0.900752
0.899302
0.898879
0.89857
0.898602
0.899432
0.900259
0.901346
0.903105
0.904703
0.906247
0.909142
0.913312
0.92354
0.943036
1.03789
2.72823
2.91014
2.90697
2.8715
2.82225
2.80454
2.76554
2.73773
2.69465
2.67142
2.62925
2.61829
2.58563
2.57661
2.54911
2.54086
2.52271
2.51217
2.50183
2.49049
2.4836
2.47644
2.47412
2.46831
2.46866
2.45502
2.4961
2.49511
2.57695
2.57225
2.66232
2.61019
2.65249
2.62518
2.6544
2.63309
2.64689
2.64025
2.65295
2.67462
2.70595
2.75543
2.82644
2.9319
3.0519
3.13572
3.17683
3.18884
3.19724
3.20277
3.21361
3.22536
3.23703
3.24689
3.2553
3.26307
3.26839
3.27095
3.26825
3.26589
3.27016
3.27573
3.28526
3.29464
3.30545
3.31034
3.32244
3.31883
3.3252
3.33025
3.33675
0.996752
0.996964
0.996605
0.99609
0.995366
0.994434
0.993266
0.991846
0.990153
0.98817
0.985881
0.983273
0.980338
0.977079
0.973497
0.969613
0.965443
0.961018
0.95639
0.95156
0.946631
0.941664
0.93667
0.931768
0.926888
0.922376
0.918092
0.91395
0.910272
0.906864
0.903736
0.9008
0.898514
0.896431
0.895063
0.894088
0.893416
0.893525
0.894568
0.896636
0.900333
0.906269
0.912948
0.923034
0.937328
0.950421
0.96809
1.08516
2.74454
2.90331
2.89245
2.86382
2.81427
2.78951
2.74622
2.71766
2.66974
2.6515
2.60664
2.59516
2.55793
2.55157
2.52043
2.51807
2.49858
2.49564
2.48298
2.4775
2.47496
2.47165
2.47169
2.4679
2.47337
2.46217
2.50844
2.51306
2.62002
2.60004
2.67039
2.61367
2.64596
2.61343
2.6385
2.61404
2.62004
2.60596
2.60779
2.61126
2.61915
2.64244
2.68388
2.76464
2.87353
2.9822
3.05198
3.08844
3.11451
3.13098
3.15
3.16516
3.18318
3.20046
3.21719
3.23121
3.24156
3.24758
3.25015
3.24921
3.25514
3.26116
3.27224
3.28192
3.29488
3.30037
3.31593
3.31175
3.31834
3.32221
3.32923
0.996749
0.996959
0.9966
0.996083
0.995356
0.994421
0.993249
0.991826
0.990127
0.988137
0.985838
0.98322
0.98027
0.976995
0.973391
0.969481
0.965275
0.960803
0.956152
0.951218
0.946266
0.941306
0.936145
0.931127
0.926365
0.921478
0.9171
0.912788
0.908791
0.905295
0.902061
0.899179
0.896819
0.895107
0.894053
0.893637
0.893512
0.89426
0.895785
0.897487
0.899504
0.902615
0.906461
0.910533
0.917151
0.92024
0.918927
1.02695
2.67933
2.83806
2.83032
2.80474
2.76786
2.7337
2.68996
2.67216
2.62456
2.61828
2.56673
2.56229
2.51986
2.51923
2.48224
2.48203
2.45527
2.44822
2.43551
2.43218
2.42208
2.42008
2.41569
2.41754
2.40752
2.43176
2.43058
2.49227
2.56801
2.54508
2.60854
2.56761
2.60213
2.57189
2.5992
2.57857
2.58442
2.56821
2.56386
2.55797
2.55846
2.57019
2.59035
2.66131
2.75563
2.89314
2.99638
3.055
3.09996
3.11717
3.1327
3.14661
3.16112
3.17694
3.19278
3.20532
3.21627
3.22361
3.22729
3.22968
3.23151
3.23765
3.2495
3.2614
3.27912
3.29013
3.30734
3.3031
3.3112
3.31382
3.32197
0.996747
0.996956
0.996595
0.996077
0.995348
0.994411
0.993235
0.991807
0.990104
0.988108
0.985801
0.983172
0.980211
0.97692
0.973298
0.969366
0.965136
0.960625
0.95593
0.950969
0.94584
0.940903
0.93565
0.930538
0.925696
0.920627
0.916053
0.91175
0.907676
0.903735
0.900182
0.896937
0.893967
0.89145
0.889378
0.887875
0.886802
0.886597
0.887104
0.889221
0.892547
0.898242
0.905744
0.914196
0.925858
0.940639
0.958039
1.07693
2.7024
2.83561
2.8205
2.79906
2.77786
2.7231
2.69835
2.6507
2.6225
2.59177
2.54287
2.5351
2.4898
2.49587
2.45479
2.45218
2.42696
2.4207
2.41751
2.4034
2.39576
2.39087
2.39353
2.39576
2.40075
2.38759
2.4591
2.47749
2.57804
2.52358
2.58245
2.53452
2.56615
2.53491
2.55729
2.53997
2.54513
2.52971
2.52748
2.52324
2.52291
2.5311
2.54906
2.60831
2.69516
2.84735
2.93622
3.01978
3.07399
3.10425
3.1279
3.14853
3.16352
3.17557
3.18522
3.1936
3.19659
3.20342
3.21243
3.21991
3.22694
3.2323
3.24187
3.24971
3.26479
3.27658
3.29705
3.29416
3.30337
3.30517
3.31401
0.996744
0.996952
0.99659
0.996069
0.995337
0.994396
0.993216
0.991784
0.990073
0.988068
0.98575
0.983108
0.980129
0.976816
0.973169
0.969199
0.964933
0.960374
0.955611
0.950603
0.945376
0.940353
0.935041
0.929766
0.924744
0.919639
0.914616
0.910196
0.90596
0.901632
0.897911
0.894544
0.891634
0.889173
0.887257
0.885955
0.885452
0.885641
0.886688
0.888092
0.889844
0.892248
0.895623
0.899584
0.90609
0.915657
0.923467
1.041
2.59171
2.75511
2.72524
2.73211
2.71315
2.66348
2.66132
2.59416
2.5947
2.52808
2.53236
2.47608
2.44584
2.43935
2.40221
2.39881
2.37568
2.37815
2.36733
2.35952
2.35421
2.35177
2.35587
2.3527
2.35702
2.34683
2.43605
2.4593
2.53319
2.4864
2.53451
2.50192
2.53068
2.5057
2.52341
2.50585
2.51016
2.50476
2.50051
2.49465
2.50224
2.51535
2.55151
2.62184
2.72286
2.86023
2.93904
3.02262
3.06973
3.09894
3.12608
3.15327
3.1736
3.18598
3.19441
3.19955
3.19934
3.20207
3.20648
3.21342
3.22082
3.22567
3.23249
3.23645
3.24901
3.26186
3.28527
3.28573
3.29496
3.29536
3.3059
0.996742
0.996948
0.996584
0.996062
0.995327
0.994383
0.993199
0.991761
0.990044
0.988031
0.985702
0.983046
0.980052
0.976716
0.973045
0.969042
0.96474
0.960135
0.955275
0.950271
0.944962
0.939671
0.934448
0.928932
0.923694
0.918652
0.913299
0.908479
0.90406
0.899636
0.895161
0.891401
0.888024
0.884893
0.881802
0.878837
0.876898
0.875241
0.874119
0.873572
0.873742
0.875235
0.877903
0.882181
0.888221
0.895849
0.895398
1.01311
2.32123
2.59022
2.5678
2.62846
2.59971
2.60157
2.59678
2.53285
2.55525
2.47838
2.49592
2.4149
2.42391
2.37565
2.39267
2.35507
2.35216
2.34899
2.34586
2.34801
2.33805
2.34425
2.34315
2.34995
2.35478
2.34387
2.46325
2.44536
2.52929
2.47296
2.52192
2.49667
2.51897
2.50805
2.52343
2.50836
2.5151
2.51784
2.52595
2.52554
2.54706
2.57719
2.63421
2.71761
2.82081
2.93033
3.00705
3.06948
3.09996
3.11734
3.1348
3.15359
3.16535
3.17691
3.18878
3.19709
3.19959
3.20102
3.20154
3.20632
3.21336
3.21941
3.22413
3.22564
3.23364
3.24475
3.2707
3.27555
3.28616
3.2868
3.29752
0.996738
0.996943
0.996578
0.996053
0.995316
0.994367
0.993178
0.991734
0.990008
0.987984
0.985643
0.982968
0.979954
0.976588
0.972885
0.968838
0.964482
0.959827
0.954822
0.949817
0.944451
0.938934
0.933648
0.92795
0.922429
0.917194
0.91189
0.906481
0.901763
0.897204
0.892299
0.888101
0.884394
0.881472
0.87858
0.875268
0.872901
0.871158
0.869573
0.868873
0.868394
0.866432
0.863586
0.857554
0.845998
0.81899
0.818969
0.862282
2.06446
2.39304
2.41469
2.52011
2.49801
2.5197
2.5035
2.46958
2.50665
2.43354
2.45478
2.37131
2.38071
2.33279
2.36067
2.32605
2.33127
2.31785
2.33169
2.33414
2.32996
2.33099
2.35769
2.36937
2.40885
2.4394
2.56834
2.50818
2.57799
2.54868
2.58069
2.56765
2.59139
2.5948
2.61361
2.60609
2.62235
2.63472
2.65182
2.66056
2.69668
2.72065
2.76151
2.81803
2.87822
2.95567
3.01744
3.06881
3.10831
3.13468
3.15296
3.16457
3.16842
3.17378
3.1851
3.19381
3.19779
3.19977
3.19984
3.2029
3.20844
3.2147
3.21942
3.21979
3.22409
3.23135
3.25534
3.2667
3.27702
3.2777
3.28923
0.996735
0.996939
0.996572
0.996045
0.995304
0.994352
0.993158
0.991707
0.989973
0.987938
0.985583
0.982891
0.979855
0.976461
0.972724
0.968638
0.964218
0.959521
0.954428
0.949291
0.943899
0.938191
0.93269
0.927055
0.921133
0.915646
0.910366
0.904469
0.899164
0.894345
0.889525
0.884124
0.879591
0.87563
0.872079
0.868119
0.863071
0.858747
0.854615
0.851393
0.848464
0.844427
0.836699
0.831147
0.826054
0.824451
0.883385
1.10974
2.18789
2.29408
2.32302
2.38013
2.35504
2.46606
2.41726
2.49473
2.42578
2.49787
2.39585
2.40942
2.33907
2.35525
2.32991
2.33312
2.33793
2.32268
2.34488
2.36154
2.36623
2.39657
2.48944
2.57712
2.67867
2.71588
2.79996
2.76826
2.79445
2.76468
2.77722
2.75959
2.77009
2.77695
2.78732
2.78733
2.79557
2.79645
2.81422
2.8172
2.83078
2.84525
2.86955
2.89653
2.94575
2.99967
3.05276
3.09106
3.1128
3.13217
3.15335
3.16651
3.17101
3.17514
3.18401
3.19079
3.19455
3.19774
3.19798
3.19987
3.2031
3.20853
3.2132
3.21378
3.21689
3.22129
3.23983
3.25453
3.26757
3.26915
3.28071
0.99673
0.996934
0.996566
0.996035
0.995291
0.994334
0.993134
0.991675
0.989932
0.987884
0.985512
0.982799
0.979736
0.976313
0.972532
0.968401
0.963899
0.959154
0.954014
0.948627
0.943283
0.937434
0.931599
0.925932
0.919698
0.913835
0.908331
0.902408
0.89635
0.891086
0.886061
0.880326
0.874903
0.870234
0.866192
0.863015
0.859069
0.854677
0.851341
0.84901
0.846902
0.846379
0.844982
0.845274
0.846723
0.846176
0.930784
1.88589
2.1993
2.21195
2.24043
2.29353
2.30033
2.43248
2.44003
2.52507
2.44608
2.50722
2.39652
2.42764
2.33788
2.35261
2.32311
2.34529
2.34427
2.35255
2.46032
2.5539
2.64439
2.73323
2.80803
2.89179
2.95293
2.94996
2.97302
2.93984
2.9477
2.93851
2.94076
2.92621
2.93128
2.9319
2.94032
2.93999
2.93809
2.92617
2.91537
2.9085
2.90217
2.89852
2.90289
2.92505
2.96643
3.01605
3.06536
3.09157
3.11184
3.1361
3.15738
3.16849
3.17211
3.17513
3.1807
3.18694
3.19211
3.19761
3.19833
3.19874
3.1991
3.20335
3.20775
3.20809
3.21044
3.2138
3.22775
3.24229
3.25787
3.25983
3.27274
0.996726
0.996928
0.996559
0.996026
0.995278
0.994317
0.99311
0.991643
0.989889
0.987828
0.98544
0.982706
0.979615
0.976159
0.972329
0.96815
0.963567
0.958735
0.953571
0.94796
0.942442
0.936626
0.930427
0.92445
0.918396
0.911904
0.905915
0.900105
0.893508
0.887406
0.882048
0.876495
0.869736
0.863754
0.858145
0.853589
0.84939
0.844454
0.836775
0.830845
0.825692
0.820609
0.816136
0.80847
0.799823
0.80524
0.884922
2.06469
2.17505
2.16882
2.17261
2.18491
2.22052
2.22342
2.33035
2.30792
2.43674
2.35281
2.46221
2.3481
2.3893
2.32204
2.41252
2.51159
2.59813
2.68707
2.78271
2.89069
2.96238
3.00299
3.03392
3.03888
3.05756
3.04354
3.03685
3.00745
3.00181
2.98939
2.97571
2.95935
2.94887
2.94418
2.94919
2.95835
2.96266
2.95779
2.95056
2.94124
2.93174
2.93172
2.93941
2.9498
2.97659
3.01074
3.05773
3.08676
3.11043
3.13229
3.15408
3.16619
3.17143
3.17389
3.17828
3.18383
3.18984
3.19671
3.19794
3.19693
3.1947
3.19755
3.2014
3.20185
3.20362
3.20621
3.21754
3.22994
3.24794
3.25096
3.26469
0.996721
0.996922
0.996551
0.996015
0.995263
0.994297
0.993083
0.991607
0.989842
0.987766
0.985357
0.9826
0.979475
0.975982
0.972107
0.967869
0.963239
0.958229
0.95306
0.947382
0.941526
0.935792
0.929246
0.922908
0.916838
0.909994
0.90335
0.897182
0.890859
0.883684
0.877427
0.871691
0.865187
0.857574
0.851304
0.845062
0.842308
0.838427
0.833249
0.823447
0.816903
0.811291
0.805782
0.801101
0.795181
0.854076
1.09097
2.17484
2.19477
2.18007
2.17058
2.17034
2.1531
2.17548
2.16826
2.30025
2.28294
2.46871
2.37131
2.51982
2.50498
2.63912
2.71592
2.85762
2.93197
2.98591
3.00351
3.00285
3.0337
3.04738
3.06369
3.05275
3.06232
3.05219
3.04516
3.02196
3.01093
3.00065
2.99409
2.98693
2.97787
2.96811
2.96259
2.96651
2.97377
2.97444
2.96547
2.95744
2.94872
2.94842
2.95724
2.96704
2.98771
3.01613
3.05236
3.08168
3.11029
3.12752
3.14237
3.15462
3.16566
3.17207
3.17918
3.1837
3.18881
3.19556
3.19769
3.1953
3.19087
3.19235
3.1955
3.19597
3.19728
3.19936
3.20861
3.21795
3.23792
3.24154
3.25658
0.996715
0.996916
0.996543
0.996004
0.995248
0.994276
0.993056
0.99157
0.989792
0.987701
0.985272
0.982489
0.979332
0.975798
0.971872
0.967565
0.962873
0.957682
0.952485
0.946724
0.940586
0.934674
0.928105
0.921275
0.914824
0.908216
0.900705
0.893927
0.887468
0.880176
0.872684
0.866361
0.859798
0.851224
0.843095
0.835805
0.829069
0.825936
0.8198
0.812741
0.803224
0.799424
0.798407
0.799309
0.803762
0.905598
1.84374
2.16453
2.16666
2.16319
2.15405
2.13472
2.11564
2.10798
2.10426
2.16101
2.20289
2.46163
2.57848
2.67246
2.82088
2.87953
2.96522
2.97724
3.01391
3.02125
3.0345
3.03889
3.04206
3.03609
3.0464
3.04128
3.0459
3.03897
3.03517
3.02286
3.00986
3.00023
2.99175
2.98516
2.97899
2.97494
2.97295
2.974
2.97927
2.98265
2.97854
2.9697
2.95734
2.95306
2.95789
2.96844
2.98944
3.01701
3.04814
3.07717
3.10557
3.12117
3.13527
3.14879
3.16251
3.17148
3.1803
3.18275
3.18551
3.19184
3.19497
3.1918
3.18584
3.18639
3.18918
3.18953
3.19076
3.19223
3.19987
3.20681
3.22825
3.2323
3.24847
0.996708
0.996909
0.996534
0.995992
0.995232
0.994254
0.993026
0.99153
0.989738
0.987629
0.985178
0.982366
0.979175
0.975594
0.971616
0.967223
0.96248
0.957218
0.951718
0.946057
0.939702
0.933338
0.927002
0.919658
0.912684
0.905991
0.898277
0.890595
0.883616
0.87666
0.868254
0.860488
0.853725
0.846229
0.836603
0.828823
0.821483
0.81688
0.813405
0.807409
0.799977
0.787821
0.771373
0.7575
0.758803
0.850363
2.01674
2.14602
2.14993
2.14313
2.13687
2.12932
2.11831
2.11589
2.13393
2.21776
2.38128
2.72629
2.84451
2.96632
2.93161
2.98138
2.98291
3.00093
2.99704
3.00346
3.00653
3.0088
3.01796
3.01835
3.0258
3.02624
3.03122
3.02724
3.02558
3.02068
3.01057
3.00168
2.99204
2.98614
2.98104
2.97729
2.97577
2.97529
2.97602
2.97973
2.98005
2.97714
2.9665
2.96055
2.96165
2.96855
2.98495
3.01008
3.04159
3.07303
3.09868
3.11256
3.12555
3.1429
3.15974
3.1698
3.17788
3.18004
3.18219
3.18868
3.19245
3.18901
3.18106
3.18097
3.18314
3.1836
3.1847
3.18566
3.19199
3.19595
3.21848
3.22231
3.23994
0.996701
0.996902
0.996525
0.99598
0.995215
0.994231
0.992994
0.991488
0.989682
0.987555
0.98508
0.982238
0.97901
0.975381
0.971347
0.96687
0.962049
0.956748
0.950959
0.945251
0.938785
0.932005
0.925479
0.918209
0.910511
0.903326
0.896043
0.88732
0.879348
0.872252
0.864465
0.854935
0.846729
0.83888
0.829807
0.819185
0.809545
0.799998
0.794094
0.786592
0.776872
0.769271
0.748495
0.740735
0.807455
1.0965
2.17998
2.16963
2.16024
2.15046
2.13763
2.13395
2.13996
2.16365
2.2251
2.39962
2.72687
2.97205
3.05106
3.01285
3.01691
3.0018
3.0016
2.9895
2.99323
2.99197
2.99352
2.99035
2.99504
3.00048
3.00934
3.01031
3.00961
3.01074
3.00724
3.00783
2.99974
2.99356
2.98084
2.97563
2.97385
2.9745
2.9739
2.97219
2.97306
2.97472
2.97565
2.98009
2.97628
2.97094
2.97035
2.97495
2.98637
3.00551
3.03078
3.06042
3.08723
3.1056
3.12058
3.13929
3.15539
3.16603
3.17257
3.17482
3.17822
3.18498
3.18868
3.18495
3.17542
3.17487
3.17686
3.17736
3.17821
3.17888
3.18408
3.18617
3.20866
3.21273
3.23167
0.996694
0.996894
0.996515
0.995967
0.995197
0.994206
0.99296
0.991442
0.989621
0.987474
0.984974
0.982099
0.978832
0.97515
0.971055
0.966511
0.961543
0.956221
0.950272
0.944238
0.937958
0.930749
0.923725
0.916743
0.908426
0.900548
0.893078
0.884553
0.87545
0.867494
0.859768
0.850364
0.840306
0.83185
0.824125
0.815047
0.805843
0.798962
0.794392
0.792552
0.789113
0.786779
0.784039
0.786597
0.886674
1.91827
2.13929
2.14365
2.13983
2.13464
2.13408
2.13767
2.15909
2.22067
2.37527
2.68312
2.97044
3.06269
3.03342
3.01895
3.01379
3.00576
2.9931
2.98954
2.98741
2.98431
2.97374
2.96883
2.97261
2.97753
2.98831
2.99048
2.98914
2.99256
2.99202
2.9953
2.98979
2.98515
2.97477
2.97224
2.96722
2.96912
2.96913
2.96831
2.96649
2.96816
2.97264
2.97711
2.98075
2.97906
2.97759
2.98004
2.98793
3.00392
3.02403
3.04788
3.07519
3.09597
3.11417
3.13325
3.1487
3.16079
3.16815
3.17181
3.17634
3.18183
3.18431
3.18055
3.16997
3.1693
3.17099
3.17136
3.17176
3.17174
3.17602
3.1759
3.19857
3.20276
3.22321
0.996685
0.996886
0.996505
0.995953
0.995178
0.99418
0.992925
0.991394
0.989557
0.98739
0.984864
0.981956
0.978646
0.974914
0.970754
0.966145
0.961011
0.955654
0.949661
0.943214
0.936892
0.929555
0.92197
0.914733
0.906676
0.897867
0.889783
0.881732
0.871821
0.862518
0.854608
0.846046
0.834495
0.824563
0.815859
0.807306
0.796924
0.783527
0.771109
0.758338
0.746715
0.727975
0.707096
0.733171
0.952402
2.05101
2.12094
2.1218
2.12152
2.1236
2.13272
2.15343
2.21661
2.35272
2.65074
2.94996
3.05951
3.03309
3.00399
2.99286
2.98334
2.97301
2.97563
2.98025
2.97691
2.96658
2.95794
2.95664
2.95973
2.96274
2.96699
2.96718
2.9671
2.972
2.97506
2.98002
2.97772
2.97567
2.96707
2.96307
2.9547
2.95597
2.95798
2.95913
2.96062
2.96428
2.96786
2.97342
2.97918
2.98142
2.98319
2.98597
2.99203
3.00327
3.01837
3.03827
3.06511
3.08782
3.10843
3.12725
3.14148
3.15422
3.16215
3.16666
3.17205
3.17676
3.17847
3.17501
3.1641
3.16362
3.16504
3.16517
3.16516
3.16445
3.16826
3.1671
3.18874
3.19315
3.21498
0.996676
0.996876
0.996493
0.995938
0.995158
0.994153
0.992888
0.991344
0.98949
0.9873
0.984746
0.981803
0.978447
0.974663
0.970422
0.965749
0.960509
0.954938
0.948988
0.942307
0.935546
0.928565
0.920383
0.912529
0.904794
0.895427
0.886367
0.878083
0.869058
0.858296
0.848784
0.840202
0.830348
0.818313
0.808522
0.800906
0.794674
0.786911
0.77887
0.776572
0.776776
0.784865
0.792576
0.904826
1.73355
2.12905
2.12659
2.1302
2.13085
2.13884
2.1606
2.21638
2.35317
2.62684
2.95095
3.0465
3.05264
3.01163
2.99024
2.97377
2.95544
2.95588
2.96564
2.96859
2.96297
2.9537
2.95181
2.95154
2.95602
2.95475
2.9501
2.94855
2.94942
2.95619
2.95901
2.96378
2.96312
2.96499
2.9614
2.96179
2.95399
2.95166
2.9503
2.95393
2.95575
2.95707
2.9598
2.96556
2.97233
2.97795
2.98179
2.98577
2.99154
3.0005
3.0129
3.0293
3.05478
3.07854
3.10073
3.11882
3.1333
3.14682
3.1558
3.16191
3.16779
3.17157
3.17259
3.16907
3.15878
3.15849
3.1593
3.1589
3.15788
3.15645
3.15979
3.15704
3.17835
3.18316
3.20616
0.996666
0.996867
0.996482
0.995923
0.995137
0.994124
0.992849
0.991292
0.98942
0.987208
0.984625
0.981645
0.978245
0.974404
0.970099
0.965333
0.960053
0.954183
0.94825
0.941471
0.93423
0.927162
0.918998
0.910388
0.90227
0.893518
0.883347
0.874188
0.865383
0.854811
0.843794
0.834322
0.825245
0.814226
0.802086
0.791498
0.784626
0.774215
0.760082
0.741441
0.713817
0.694281
0.700695
0.889748
1.9946
2.12552
2.12636
2.13731
2.15241
2.16717
2.21516
2.33649
2.59627
2.92865
3.02253
3.04436
3.00725
2.99102
2.98565
2.95964
2.94755
2.95145
2.95773
2.9561
2.94935
2.94749
2.94918
2.95151
2.95329
2.94957
2.94203
2.93939
2.93844
2.94281
2.94406
2.94582
2.94577
2.95018
2.95073
2.95451
2.95096
2.94843
2.9437
2.94411
2.94531
2.94873
2.95204
2.95736
2.9642
2.97099
2.97686
2.98189
2.98766
2.99575
3.00727
3.02168
3.04428
3.06916
3.0915
3.10856
3.12371
3.13797
3.1481
3.15581
3.16162
3.16513
3.16586
3.16252
3.15348
3.15337
3.15332
3.15226
3.15036
3.14835
3.15182
3.14884
3.1692
3.17356
3.19802
0.996655
0.996856
0.996469
0.995906
0.995115
0.994094
0.992808
0.991237
0.989346
0.987111
0.984497
0.98148
0.978032
0.974132
0.969758
0.964879
0.959551
0.95353
0.947294
0.940676
0.933095
0.925489
0.917776
0.908532
0.899659
0.891048
0.88082
0.870474
0.861193
0.85165
0.83933
0.828377
0.819088
0.809622
0.796942
0.786259
0.777541
0.771918
0.762819
0.756721
0.753333
0.757722
0.856401
1.5174
2.15966
2.15906
2.1588
2.16708
2.18127
2.22552
2.33673
2.58529
2.92674
3.02136
3.04549
3.01278
2.98905
2.97137
2.9655
2.9408
2.93847
2.9476
2.95056
2.94838
2.94134
2.94168
2.94605
2.94864
2.94834
2.94042
2.93553
2.93299
2.93107
2.93227
2.93059
2.93061
2.93115
2.93723
2.93955
2.94425
2.9447
2.94616
2.94107
2.93904
2.93776
2.94118
2.94364
2.94837
2.9548
2.96244
2.96937
2.97544
2.98157
2.98928
3.00042
3.01327
3.0336
3.05855
3.08136
3.09742
3.1133
3.12811
3.13927
3.14816
3.15397
3.15777
3.15884
3.15654
3.14856
3.14832
3.14725
3.1451
3.14254
3.14014
3.14324
3.13878
3.15812
3.16311
3.18844
0.996643
0.996845
0.996455
0.995889
0.995092
0.994063
0.992767
0.991181
0.989271
0.987011
0.984368
0.981312
0.977816
0.973857
0.969414
0.964443
0.959014
0.952986
0.946341
0.939706
0.932068
0.923896
0.915985
0.907073
0.897283
0.888117
0.878758
0.867316
0.856772
0.847279
0.836574
0.82401
0.813217
0.80503
0.795668
0.782705
0.771862
0.761654
0.751191
0.732282
0.717702
0.727635
0.834383
1.98503
2.15696
2.16313
2.17543
2.18516
2.22449
2.32276
2.56092
2.88734
3.01001
3.02623
3.01258
2.98091
2.97824
2.97387
2.95913
2.94019
2.93928
2.94718
2.94748
2.94291
2.93575
2.93684
2.94095
2.94119
2.93705
2.92839
2.9264
2.92417
2.92253
2.92159
2.91777
2.91653
2.918
2.9236
2.92636
2.93194
2.93297
2.93573
2.93352
2.93372
2.93037
2.93184
2.93451
2.93902
2.94362
2.95127
2.9589
2.96651
2.97362
2.9815
2.99225
3.00473
3.02338
3.04803
3.07007
3.0855
3.10122
3.11612
3.12839
3.13876
3.14552
3.14987
3.1509
3.15016
3.14324
3.14276
3.14073
3.13761
3.13482
3.13222
3.13557
3.13059
3.14924
3.15377
3.18009
0.996631
0.996833
0.996441
0.995871
0.995069
0.994032
0.992723
0.991123
0.989193
0.986908
0.984234
0.981136
0.977594
0.973572
0.969057
0.964016
0.958411
0.952382
0.945583
0.9385
0.931162
0.92259
0.913991
0.905492
0.895276
0.885186
0.875685
0.865049
0.853158
0.842667
0.832528
0.820251
0.807831
0.797323
0.787649
0.776016
0.761239
0.749079
0.739808
0.733971
0.733606
0.818327
1.21057
2.23811
2.20895
2.20834
2.2108
2.24861
2.34584
2.56506
2.88135
3.02673
3.03377
2.99664
2.97648
2.94957
2.95553
2.95275
2.94233
2.93447
2.9388
2.94484
2.94402
2.93644
2.92824
2.92883
2.93066
2.92833
2.92115
2.91602
2.91481
2.913
2.91205
2.9093
2.90502
2.90453
2.90717
2.91123
2.9145
2.92007
2.92216
2.92575
2.92533
2.92724
2.92589
2.92657
2.92823
2.93148
2.93499
2.94101
2.94807
2.95625
2.96436
2.97296
2.9838
2.99655
3.01414
3.03762
3.05793
3.0728
3.08772
3.10268
3.11634
3.12843
3.13638
3.14124
3.143
3.14381
3.13792
3.13695
3.1342
3.12998
3.12709
3.12428
3.12699
3.12049
3.1373
3.14266
3.17049
0.996618
0.99682
0.996427
0.995853
0.995044
0.993999
0.992679
0.991063
0.989114
0.986803
0.984097
0.980962
0.977369
0.97329
0.968702
0.963586
0.957863
0.951713
0.944912
0.937385
0.929917
0.921517
0.912248
0.903303
0.893843
0.882812
0.872459
0.862409
0.850272
0.838448
0.828143
0.817752
0.804533
0.793459
0.784108
0.775232
0.765845
0.757014
0.746317
0.741964
0.756609
0.86397
2.01347
2.21161
2.22106
2.22664
2.24964
2.34574
2.54284
2.85187
3.00374
3.05025
3.01785
3.00066
2.97175
2.95304
2.95968
2.95598
2.94143
2.93255
2.93652
2.94191
2.94054
2.93129
2.92289
2.92181
2.91934
2.9155
2.90732
2.90347
2.90331
2.90255
2.90094
2.89626
2.8944
2.89401
2.89765
2.89926
2.90228
2.90776
2.91065
2.91636
2.91756
2.9203
2.92019
2.92312
2.92402
2.92564
2.92777
2.93134
2.93721
2.94553
2.95431
2.9641
2.97558
2.98886
3.00573
3.02719
3.04508
3.05963
3.07344
3.08879
3.10363
3.11745
3.12649
3.13187
3.13409
3.13659
3.13183
3.13066
3.1273
3.12234
3.11972
3.11673
3.11911
3.11219
3.12825
3.13368
3.16178
0.996604
0.996807
0.996411
0.995834
0.995019
0.993965
0.992633
0.991002
0.989034
0.986697
0.983959
0.980784
0.97714
0.973007
0.96834
0.963144
0.957364
0.950957
0.944199
0.936595
0.928511
0.920408
0.910902
0.901163
0.891775
0.881056
0.869652
0.859025
0.848183
0.835123
0.823091
0.812638
0.800858
0.786205
0.772836
0.760532
0.74639
0.730434
0.70041
0.686338
0.737305
1.0426
2.18753
2.24029
2.24755
2.27141
2.36354
2.55453
2.85484
2.97697
3.04093
3.00934
2.98924
2.97717
2.95023
2.9428
2.95393
2.95299
2.94686
2.93486
2.93356
2.93641
2.933
2.92353
2.91439
2.91147
2.90802