/*--------------------------------*- C++ -*----------------------------------*\
| =========                 |                                                 |
| \\      /  F ield         | OpenFOAM: The Open Source CFD Toolbox           |
|  \\    /   O peration     | Version:  2.2.x                                 |
|   \\  /    A nd           | Web:      www.OpenFOAM.org                      |
|    \\/     M anipulation  |                                                 |
\*---------------------------------------------------------------------------*/
FoamFile
{
    version     2.0;
    format      ascii;
    class       volScalarField;
    location    "1.9";
    object      T;
}
// * * * * * * * * * * * * * * * * * * * * * * * * * * * * * * * * * * * * * //

dimensions      [0 0 0 1 0 0 0];

internalField   nonuniform List<scalar> 
14161
(
0.993318
0.993971
0.993932
0.993936
0.993958
0.99402
0.994135
0.994336
0.994665
0.995161
0.995859
0.996796
0.998029
0.999612
1.00158
1.00398
1.00689
1.01026
1.01423
1.01878
1.02409
1.02991
1.03632
1.04319
1.05062
1.05856
1.06707
1.07644
1.08618
1.09619
1.10673
1.11735
1.12758
1.13856
1.1502
1.16204
1.17503
1.19168
1.21382
1.23647
1.5723
2.40408
2.77841
2.90255
2.92442
2.8763
2.83785
2.80836
2.7855
2.76644
2.75205
2.73877
2.7271
2.71678
2.70697
2.69844
2.68867
2.68038
2.67236
2.66408
2.65764
2.65063
2.64347
2.63743
2.63142
2.62537
2.62054
2.61414
2.60879
2.6027
2.59451
2.58785
2.58074
2.57328
2.5649
2.55468
2.54329
2.5329
2.5224
2.511
2.49853
2.48512
2.47216
2.459
2.44566
2.43237
2.41862
2.40544
2.39196
2.37803
2.36388
2.34885
2.33415
2.3195
2.30451
2.2914
2.27914
2.26969
2.26067
2.2573
2.25294
2.25607
2.27187
2.31059
2.37835
2.47687
2.58336
2.67222
2.77063
2.85703
2.91889
2.95943
2.98886
3.01445
3.04156
3.07004
3.09454
3.11079
3.12827
0.993309
0.993966
0.993926
0.99393
0.993951
0.994012
0.994127
0.994336
0.994665
0.995153
0.995839
0.996779
0.998014
0.999602
1.00157
1.00398
1.0069
1.01028
1.01422
1.01874
1.02402
1.02992
1.03633
1.04319
1.05063
1.05856
1.06709
1.07646
1.08618
1.09618
1.10663
1.1172
1.12738
1.13828
1.14978
1.16152
1.17453
1.19109
1.21265
1.23097
1.5536
2.36985
2.74017
2.8571
2.87953
2.84331
2.81336
2.78945
2.77066
2.75457
2.74217
2.73024
2.72005
2.71076
2.70224
2.69486
2.68629
2.67957
2.6727
2.66577
2.66043
2.6538
2.64766
2.64201
2.6363
2.63078
2.62588
2.61959
2.61471
2.60876
2.60087
2.59448
2.58734
2.58028
2.57213
2.56152
2.55084
2.54049
2.52998
2.51884
2.50608
2.49305
2.47948
2.46579
2.45148
2.43732
2.42396
2.40998
2.39553
2.38082
2.36471
2.35048
2.33802
2.32483
2.31079
2.29902
2.28756
2.2794
2.2742
2.27938
2.29192
2.31615
2.36485
2.44304
2.54765
2.66351
2.76733
2.84932
2.91532
2.95944
2.99042
3.01073
3.02717
3.0436
3.06327
3.08462
3.10072
3.11
3.12647
0.993293
0.993951
0.99391
0.993913
0.993935
0.993996
0.994109
0.994314
0.994641
0.995126
0.995814
0.996751
0.997983
0.999553
1.00151
1.00392
1.00684
1.01024
1.01416
1.01866
1.0239
1.02982
1.03624
1.04308
1.05049
1.05841
1.06693
1.07628
1.086
1.09597
1.10639
1.11688
1.12696
1.13767
1.1488
1.15978
1.17303
1.18956
1.2088
1.21927
1.51646
2.3335
2.70829
2.823
2.84981
2.82151
2.7978
2.77914
2.76508
2.75246
2.74231
2.73202
2.723
2.71474
2.70678
2.6999
2.69204
2.68583
2.67939
2.67256
2.66714
2.66072
2.655
2.64969
2.64401
2.63857
2.63358
2.6275
2.62275
2.61665
2.60839
2.60164
2.59425
2.58705
2.57841
2.56672
2.55527
2.54459
2.53358
2.52259
2.50937
2.49543
2.48179
2.46691
2.45298
2.43787
2.42317
2.40919
2.39442
2.37853
2.36251
2.34756
2.33648
2.32644
2.31804
2.31091
2.30479
2.30289
2.30912
2.32484
2.35541
2.40395
2.47583
2.57547
2.68342
2.79688
2.91266
2.98769
3.02581
3.04355
3.05443
3.05934
3.06287
3.06775
3.07583
3.08744
3.09779
3.10312
3.11661
0.993267
0.993928
0.993886
0.993887
0.993907
0.993968
0.994079
0.99428
0.994603
0.995084
0.995769
0.996699
0.997923
0.999476
1.0014
1.00385
1.00674
1.01013
1.01405
1.01853
1.02371
1.02965
1.0361
1.04293
1.05031
1.0582
1.06671
1.07602
1.08569
1.09563
1.10599
1.11635
1.12624
1.13666
1.14729
1.15746
1.17099
1.18662
1.20108
1.20354
1.47799
2.32298
2.70503
2.82621
2.8561
2.83139
2.80787
2.79079
2.77677
2.7648
2.75472
2.74494
2.73576
2.72766
2.71924
2.71186
2.70371
2.69726
2.69055
2.68281
2.67649
2.66979
2.66377
2.65839
2.65202
2.64596
2.6402
2.63345
2.62802
2.62123
2.61183
2.60447
2.59691
2.58909
2.58047
2.56865
2.55724
2.54723
2.53595
2.52492
2.51191
2.49697
2.48291
2.46773
2.45316
2.43801
2.4217
2.4061
2.39145
2.37822
2.36613
2.3551
2.34521
2.33597
2.33201
2.33201
2.33806
2.35295
2.38095
2.42671
2.49475
2.57707
2.67928
2.78826
2.90418
2.98944
3.04822
3.08916
3.11003
3.11775
3.11842
3.11218
3.10247
3.09439
3.08887
3.08978
3.0939
3.09599
3.10682
0.993237
0.993898
0.993852
0.993851
0.993867
0.993924
0.994031
0.994222
0.994538
0.995011
0.995685
0.9966
0.997811
0.999345
1.00128
1.0037
1.00657
1.00994
1.01384
1.0183
1.02341
1.02934
1.03581
1.04261
1.04996
1.05782
1.06628
1.07556
1.08519
1.09507
1.10531
1.11548
1.12514
1.13517
1.14514
1.15485
1.16769
1.18079
1.1933
1.19928
1.47426
2.33042
2.71822
2.84358
2.87931
2.85865
2.83561
2.81711
2.80052
2.78651
2.7739
2.76267
2.75187
2.7428
2.7336
2.72539
2.71719
2.70976
2.70289
2.69434
2.6871
2.68005
2.67322
2.66753
2.66068
2.65435
2.64843
2.64179
2.63667
2.63033
2.62142
2.61399
2.60652
2.59834
2.58903
2.57613
2.56366
2.55294
2.54029
2.5278
2.51497
2.50167
2.48758
2.47191
2.45498
2.4384
2.42348
2.41006
2.3983
2.38719
2.37718
2.36652
2.35974
2.35774
2.36544
2.37994
2.40497
2.44562
2.50486
2.5769
2.65996
2.76045
2.87284
2.97779
3.04924
3.08467
3.10884
3.13312
3.15028
3.15972
3.15908
3.1489
3.13313
3.1154
3.09995
3.09143
3.08943
3.08969
3.09818
0.993198
0.993858
0.993806
0.9938
0.993814
0.993864
0.993968
0.99415
0.994455
0.994918
0.995581
0.996478
0.997671
0.999185
1.00112
1.00349
1.00634
1.00971
1.0136
1.01799
1.02305
1.02895
1.03542
1.04224
1.04957
1.05734
1.06574
1.07497
1.08453
1.09434
1.10443
1.11436
1.1238
1.1333
1.14253
1.15179
1.1636
1.17408
1.18625
1.19427
1.47409
2.33847
2.72938
2.84924
2.88613
2.87323
2.85237
2.83418
2.81944
2.80612
2.79373
2.78179
2.77107
2.7608
2.7512
2.74185
2.73361
2.72483
2.71726
2.70861
2.7013
2.69445
2.68735
2.68169
2.67449
2.66872
2.66289
2.65554
2.64938
2.64187
2.63326
2.62477
2.61628
2.60718
2.59708
2.58472
2.57224
2.56139
2.54849
2.53536
2.52052
2.50563
2.48977
2.47237
2.45612
2.44096
2.42821
2.4174
2.40803
2.39861
2.39429
2.38961
2.39297
2.40566
2.42941
2.46776
2.52439
2.5938
2.67382
2.76239
2.85881
2.96569
3.0436
3.08888
3.11517
3.12961
3.14385
3.16083
3.17465
3.1835
3.18334
3.1736
3.15453
3.13086
3.10998
3.09365
3.08573
3.08478
3.0904
0.993154
0.993815
0.993754
0.993739
0.993746
0.993788
0.993884
0.994053
0.994342
0.994786
0.995426
0.996296
0.997474
0.998986
1.00087
1.0032
1.00601
1.00937
1.01323
1.01759
1.02262
1.02842
1.03481
1.04167
1.04896
1.0567
1.06509
1.07422
1.0837
1.0934
1.10325
1.11284
1.12217
1.13119
1.13965
1.14833
1.15867
1.16732
1.17861
1.19064
1.48662
2.35179
2.7467
2.85694
2.89227
2.89003
2.87465
2.85701
2.84378
2.83108
2.81871
2.80666
2.79508
2.78368
2.77337
2.7636
2.75475
2.74575
2.73724
2.72847
2.72096
2.71405
2.70636
2.69997
2.6919
2.68523
2.67819
2.66925
2.66197
2.65347
2.6445
2.63472
2.62449
2.61415
2.60349
2.59156
2.57752
2.56475
2.54981
2.53455
2.51703
2.50066
2.48487
2.47021
2.45732
2.44637
2.43689
2.42817
2.42384
2.42058
2.42502
2.43648
2.45655
2.49207
2.54498
2.61032
2.68639
2.76981
2.8586
2.95651
3.03372
3.08198
3.1137
3.13329
3.14513
3.1547
3.16707
3.17866
3.18877
3.19641
3.19764
3.18886
3.16923
3.14291
3.11773
3.09537
3.08265
3.0807
3.08363
0.993101
0.993764
0.993694
0.993665
0.993663
0.993697
0.993783
0.99394
0.994211
0.994631
0.995244
0.996076
0.997246
0.998722
1.00056
1.00285
1.00561
1.00893
1.01274
1.0171
1.02207
1.02768
1.03398
1.04091
1.04822
1.05596
1.06429
1.07321
1.08256
1.09213
1.10166
1.11115
1.12044
1.12912
1.13685
1.1451
1.15383
1.16253
1.17488
1.20056
1.53463
2.38375
2.77012
2.87035
2.90313
2.90748
2.89391
2.87476
2.86204
2.84825
2.83534
2.82318
2.81194
2.80169
2.79223
2.78341
2.77442
2.766
2.75693
2.74771
2.73795
2.72894
2.71968
2.71025
2.7008
2.69165
2.68354
2.67338
2.66406
2.65443
2.64449
2.63424
2.62188
2.61032
2.59777
2.58413
2.5681
2.55408
2.53833
2.52405
2.50838
2.4957
2.48463
2.47453
2.46459
2.45533
2.45107
2.44765
2.45253
2.4654
2.48709
2.52195
2.5706
2.63145
2.7023
2.78154
2.86636
2.95716
3.02999
3.07465
3.10481
3.12602
3.14138
3.15153
3.15927
3.16851
3.17767
3.18643
3.19583
3.20301
3.20546
3.19789
3.17961
3.15193
3.12286
3.09585
3.07985
3.07695
3.07769
0.993041
0.993705
0.993625
0.993582
0.993566
0.993591
0.993663
0.993805
0.994055
0.994446
0.99503
0.995834
0.996959
0.998386
1.00019
1.00241
1.00513
1.0084
1.01217
1.01646
1.02133
1.02684
1.03301
1.03987
1.04729
1.05507
1.06327
1.07192
1.08106
1.09038
1.09982
1.10943
1.11865
1.12723
1.13442
1.14226
1.15031
1.15955
1.17355
1.21586
1.59388
2.41743
2.78868
2.87955
2.9093
2.91593
2.90516
2.88994
2.8795
2.86646
2.85501
2.84411
2.83331
2.82153
2.8096
2.79764
2.78571
2.77347
2.762
2.75083
2.73967
2.72811
2.71688
2.70582
2.69522
2.68492
2.67443
2.66509
2.65384
2.64438
2.63477
2.62542
2.61181
2.59909
2.58483
2.57006
2.55468
2.53987
2.5258
2.51376
2.50246
2.49369
2.48693
2.47923
2.47669
2.4748
2.47961
2.49199
2.51336
2.54836
2.59709
2.65746
2.72438
2.79724
2.8761
2.96034
3.02895
3.07055
3.09773
3.11619
3.12998
3.14037
3.1488
3.1566
3.16471
3.17347
3.18076
3.1889
3.19842
3.20595
3.20893
3.2027
3.18649
3.15832
3.12554
3.09567
3.07735
3.0729
3.07221
0.992968
0.993636
0.993548
0.993491
0.993456
0.993466
0.993523
0.993644
0.993864
0.994218
0.994775
0.995555
0.996603
0.997979
0.999738
1.0019
1.00457
1.00774
1.01143
1.01565
1.02045
1.02587
1.03192
1.03858
1.04605
1.05395
1.06204
1.07039
1.07918
1.08835
1.09789
1.10777
1.11698
1.12546
1.13228
1.13959
1.14704
1.15619
1.17251
1.23042
1.65071
2.4456
2.80468
2.88894
2.92005
2.92987
2.91747
2.90946
2.89395
2.88107
2.86626
2.85127
2.83694
2.82298
2.80871
2.7944
2.7797
2.76525
2.7509
2.73798
2.72509
2.71264
2.70044
2.68944
2.67777
2.66651
2.65585
2.64513
2.63319
2.62175
2.60947
2.59771
2.58301
2.56842
2.55396
2.54114
2.52945
2.5197
2.51274
2.50589
2.50114
2.49678
2.49483
2.49652
2.50399
2.51902
2.54163
2.57602
2.62275
2.68061
2.74705
2.81622
2.88952
2.96557
3.02805
3.06643
3.09247
3.10922
3.12043
3.12841
3.13646
3.14443
3.14959
3.15524
3.16256
3.17035
3.17916
3.18847
3.19789
3.20558
3.20928
3.20444
3.18954
3.16106
3.12618
3.09494
3.07472
3.06835
3.06641
0.992889
0.99356
0.993462
0.993389
0.993334
0.99332
0.993362
0.993459
0.993645
0.993966
0.994483
0.995211
0.996189
0.997526
0.999225
1.00132
1.00388
1.0069
1.01052
1.01472
1.01944
1.02475
1.03064
1.03709
1.04455
1.05255
1.06071
1.06865
1.07687
1.08603
1.09609
1.10619
1.11548
1.12401
1.13078
1.13776
1.14559
1.15595
1.17549
1.24675
1.7074
2.47352
2.81819
2.89829
2.92818
2.93607
2.92255
2.91057
2.89205
2.87523
2.85726
2.83959
2.82236
2.80665
2.79145
2.77638
2.76189
2.74658
2.73159
2.71647
2.70173
2.68709
2.67349
2.66002
2.647
2.63454
2.62162
2.60988
2.59747
2.5845
2.57157
2.55942
2.54648
2.53473
2.52503
2.51764
2.51327
2.50963
2.50852
2.50804
2.50904
2.51378
2.52176
2.53897
2.56744
2.60542
2.65181
2.70565
2.76987
2.8325
2.90168
2.97223
3.02651
3.06076
3.08487
3.10187
3.11349
3.12084
3.1267
3.13208
3.13517
3.13939
3.14433
3.15064
3.1577
3.16605
3.1754
3.18439
3.19331
3.20112
3.20538
3.20131
3.18704
3.15964
3.125
3.09346
3.07177
3.06335
3.06032
0.992797
0.993473
0.993365
0.993273
0.993198
0.993156
0.993175
0.993253
0.993404
0.993687
0.994135
0.994806
0.995731
0.997006
0.998617
1.00061
1.00305
1.00591
1.00947
1.01366
1.01826
1.02342
1.0291
1.03536
1.04284
1.05097
1.05914
1.06669
1.07435
1.08352
1.09428
1.10468
1.11417
1.12295
1.12987
1.13674
1.14512
1.15572
1.17787
1.25931
1.75077
2.49138
2.82082
2.8994
2.92562
2.92754
2.91166
2.89818
2.87968
2.86189
2.84177
2.82206
2.80257
2.78352
2.76487
2.74728
2.73001
2.71334
2.69666
2.68017
2.66401
2.64802
2.63184
2.61737
2.60396
2.59018
2.57739
2.5645
2.55249
2.54032
2.53036
2.52173
2.51447
2.51072
2.50711
2.50551
2.50967
2.51292
2.51697
2.52727
2.53889
2.558
2.58909
2.62894
2.67865
2.73299
2.79135
2.84756
2.91562
2.97813
3.02362
3.05521
3.0773
3.09218
3.10275
3.11105
3.11871
3.12398
3.12554
3.12817
3.13058
3.13412
3.13843
3.14382
3.15052
3.15876
3.16803
3.17754
3.18666
3.19461
3.19906
3.19562
3.18214
3.15672
3.12328
3.09164
3.06852
3.058
3.05411
0.992693
0.993377
0.993258
0.993142
0.993044
0.992973
0.992957
0.993011
0.993127
0.993355
0.993741
0.994362
0.995223
0.996385
0.997893
0.999785
1.00208
1.00481
1.00827
1.01237
1.01688
1.02182
1.02723
1.03333
1.04082
1.04903
1.0572
1.06445
1.07167
1.08097
1.09205
1.10298
1.11295
1.1222
1.12935
1.13624
1.14541
1.15668
1.18098
1.26775
1.77522
2.49939
2.81715
2.89482
2.91935
2.91106
2.89146
2.87252
2.8528
2.83395
2.81277
2.79184
2.77135
2.75019
2.72966
2.70942
2.68824
2.66923
2.64883
2.62955
2.61236
2.59348
2.57794
2.56482
2.55213
2.54139
2.5291
2.51846
2.50898
2.50207
2.49906
2.49823
2.49767
2.50117
2.50608
2.5134
2.52089
2.53586
2.55173
2.57791
2.61262
2.65443
2.70219
2.7554
2.80978
2.86662
2.93016
2.98299
3.01981
3.04751
3.06891
3.08324
3.09243
3.09962
3.10643
3.11301
3.11716
3.11956
3.12169
3.12469
3.12654
3.12967
3.13347
3.13851
3.14521
3.15325
3.16228
3.17176
3.18083
3.18858
3.19307
3.18999
3.17673
3.153
3.12072
3.08924
3.06494
3.05233
3.04794
0.99258
0.993269
0.993138
0.993003
0.99287
0.992774
0.992714
0.992731
0.992819
0.992992
0.993312
0.993845
0.994624
0.995686
0.99709
0.998875
1.00102
1.00359
1.00689
1.0109
1.01526
1.01997
1.02513
1.03108
1.03845
1.04673
1.05484
1.06195
1.06895
1.07821
1.08901
1.10086
1.11146
1.12139
1.12979
1.13687
1.14689
1.15948
1.18575
1.27637
1.79069
2.5045
2.81278
2.89365
2.91437
2.8946
2.87167
2.84713
2.82282
2.79989
2.77449
2.7498
2.72438
2.69826
2.67464
2.64917
2.62647
2.60338
2.58313
2.56652
2.54848
2.53493
2.52002
2.50905
2.49798
2.4888
2.48318
2.47714
2.47596
2.47723
2.48203
2.48881
2.49675
2.50674
2.52203
2.54122
2.56469
2.59873
2.63812
2.68389
2.72948
2.77948
2.82774
2.8856
2.94271
2.98672
3.01718
3.03952
3.0583
3.07138
3.08151
3.0884
3.09322
3.09948
3.10603
3.10925
3.11163
3.1148
3.1173
3.12038
3.12253
3.12524
3.12874
3.13359
3.14015
3.14791
3.1567
3.16574
3.17426
3.18148
3.18643
3.18366
3.17022
3.14823
3.11689
3.08634
3.06121
3.04664
3.04148
0.99245
0.993145
0.993005
0.992853
0.992687
0.992549
0.992443
0.992413
0.992462
0.992592
0.992835
0.993272
0.993942
0.994873
0.996153
0.997813
0.999809
1.00222
1.00525
1.00918
1.01344
1.0179
1.02283
1.0286
1.03563
1.04399
1.05214
1.05937
1.06635
1.07501
1.08537
1.09794
1.10929
1.12025
1.13016
1.13804
1.14969
1.16364
1.19049
1.27983
1.7824
2.49289
2.79606
2.88071
2.89498
2.86128
2.83215
2.80072
2.77145
2.74486
2.71745
2.68942
2.66181
2.63253
2.60254
2.57712
2.54927
2.52878
2.50937
2.49371
2.48077
2.46981
2.45987
2.45127
2.44636
2.44588
2.44699
2.45104
2.4561
2.46703
2.4805
2.49494
2.517
2.54191
2.57675
2.61735
2.66417
2.70944
2.7572
2.80347
2.85435
2.91118
2.95612
2.9902
3.01602
3.03425
3.04808
3.05784
3.06656
3.07431
3.08054
3.0862
3.09112
3.096
3.10228
3.1048
3.10568
3.10946
3.1126
3.11568
3.11796
3.12053
3.12378
3.12846
3.13472
3.14221
3.15047
3.15869
3.16665
3.17345
3.17903
3.17691
3.16323
3.14275
3.11221
3.08285
3.05694
3.04053
3.03462
0.992305
0.99301
0.992858
0.992684
0.992491
0.9923
0.992147
0.992054
0.992047
0.992119
0.992289
0.99262
0.993162
0.993948
0.995146
0.996646
0.998459
1.00067
1.00342
1.0072
1.01136
1.01556
1.02026
1.02574
1.03234
1.0406
1.04867
1.05645
1.06344
1.07129
1.08143
1.09411
1.10649
1.11841
1.12956
1.13933
1.15324
1.1695
1.19877
1.28907
1.75759
2.465
2.77309
2.85634
2.85422
2.80923
2.76677
2.7251
2.68852
2.65937
2.62784
2.60173
2.57077
2.5423
2.51516
2.49013
2.46698
2.45448
2.4391
2.42766
2.4213
2.41313
2.41424
2.41187
2.41471
2.42086
2.43005
2.44532
2.46179
2.48567
2.51361
2.54855
2.59035
2.63889
2.68647
2.73508
2.78235
2.82987
2.88602
2.93362
2.97067
2.99723
3.01661
3.03105
3.0404
3.04766
3.05318
3.0595
3.06523
3.07085
3.07604
3.0815
3.08658
3.09193
3.09732
3.09918
3.10009
3.10424
3.10728
3.11021
3.11269
3.11548
3.1191
3.12396
3.13003
3.13697
3.1443
3.15161
3.15908
3.16535
3.1711
3.16964
3.15613
3.13651
3.10691
3.07866
3.0522
3.03445
3.02812
0.992147
0.992859
0.992694
0.992501
0.99228
0.992043
0.991826
0.991665
0.991574
0.991582
0.99168
0.991909
0.992303
0.992936
0.994005
0.995316
0.996919
0.998896
1.00138
1.00494
1.00896
1.01294
1.01738
1.02248
1.02865
1.03663
1.04468
1.05278
1.05983
1.06754
1.07717
1.08862
1.10279
1.1157
1.12805
1.1402
1.15565
1.17473
1.20658
1.30673
1.71432
2.41581
2.72677
2.79836
2.77796
2.72576
2.6749
2.63167
2.59792
2.56856
2.53838
2.51225
2.48375
2.45828
2.43793
2.41635
2.40073
2.39791
2.38667
2.38562
2.38436
2.38338
2.39127
2.39387
2.41043
2.4269
2.45502
2.48432
2.52154
2.5647
2.61512
2.66426
2.71461
2.76488
2.81422
2.87162
2.91946
2.95664
2.98469
3.00476
3.01967
3.02912
3.03468
3.04117
3.04413
3.04897
3.05174
3.05587
3.06046
3.0655
3.07066
3.07608
3.08147
3.08697
3.09179
3.09406
3.09565
3.09934
3.10187
3.10464
3.10754
3.11077
3.11475
3.11956
3.12503
3.13102
3.13751
3.14419
3.15099
3.15653
3.16241
3.16127
3.14866
3.12992
3.10129
3.07365
3.04688
3.02817
3.02138
0.991969
0.992691
0.992512
0.9923
0.992046
0.991762
0.99149
0.99124
0.991059
0.990972
0.99098
0.991103
0.991371
0.991845
0.992688
0.99382
0.995193
0.996911
0.999128
1.00235
1.00613
1.01
1.0141
1.01881
1.02457
1.03198
1.04002
1.04822
1.05568
1.06301
1.07152
1.0828
1.09795
1.11169
1.12492
1.13883
1.15644
1.17641
1.21352
1.35037
1.709
2.34286
2.61889
2.67081
2.65204
2.60797
2.56263
2.52613
2.4971
2.46887
2.44339
2.4245
2.4075
2.39239
2.37981
2.36667
2.36517
2.36372
2.36078
2.36939
2.36753
2.38608
2.39913
2.42726
2.45787
2.49947
2.54618
2.59903
2.64993
2.70385
2.75602
2.80857
2.86722
2.91643
2.95295
2.98141
3.0008
3.0147
3.02676
3.03325
3.03614
3.0395
3.0395
3.04264
3.04323
3.04643
3.0484
3.05151
3.05524
3.05963
3.06484
3.07055
3.07604
3.08144
3.08614
3.08928
3.09122
3.09428
3.09636
3.09894
3.10225
3.10593
3.10996
3.11442
3.1192
3.12453
3.13054
3.13665
3.14284
3.14773
3.15333
3.15179
3.14083
3.1232
3.09533
3.06797
3.0412
3.02179
3.01453
0.991776
0.99251
0.992316
0.992077
0.991787
0.991446
0.991132
0.990793
0.990499
0.990302
0.990185
0.990191
0.990329
0.990649
0.991211
0.992152
0.993314
0.994766
0.996677
0.999426
1.0029
1.00664
1.01041
1.01482
1.02011
1.02646
1.03444
1.04259
1.05078
1.05777
1.06524
1.07621
1.09052
1.10543
1.11917
1.1341
1.15246
1.17231
1.21764
1.36928
1.76503
2.26131
2.4941
2.53977
2.53504
2.50712
2.47958
2.44634
2.4263
2.40192
2.39109
2.38436
2.37249
2.36032
2.35447
2.34911
2.3611
2.34693
2.37245
2.37674
2.40515
2.43616
2.48361
2.53091
2.58659
2.64026
2.70109
2.75649
2.81309
2.87271
2.92137
2.95773
2.98707
3.00691
3.01934
3.02894
3.03607
3.03888
3.04018
3.04255
3.03983
3.04218
3.04034
3.04192
3.04144
3.04289
3.0446
3.04679
3.04994
3.0538
3.0587
3.06464
3.07049
3.07607
3.08128
3.08452
3.08655
3.08949
3.0911
3.09342
3.09659
3.10038
3.10449
3.1088
3.11322
3.118
3.12343
3.12898
3.1345
3.13876
3.14372
3.14115
3.13279
3.11618
3.08895
3.06221
3.03557
3.0152
3.00654
0.991564
0.99231
0.992099
0.991834
0.991503
0.991108
0.990727
0.990331
0.989909
0.989571
0.989319
0.989156
0.989153
0.989309
0.989625
0.9903
0.991214
0.992395
0.99397
0.996165
0.999263
1.00276
1.00622
1.01027
1.01499
1.02065
1.02793
1.03594
1.04428
1.05158
1.05891
1.06863
1.08049
1.0957
1.10982
1.12519
1.14067
1.16113
1.21721
1.36905
1.83991
2.20743
2.39602
2.44472
2.46434
2.46725
2.46989
2.44105
2.4314
2.41365
2.40745
2.39038
2.36062
2.35846
2.34073
2.36487
2.35831
2.38778
2.41584
2.46277
2.51442
2.57323
2.63231
2.69857
2.75577
2.81953
2.88096
2.92948
2.96595
2.9952
3.01482
3.02786
3.03763
3.0435
3.04398
3.04402
3.04438
3.04647
3.04332
3.04454
3.03992
3.03968
3.03771
3.0385
3.03862
3.03974
3.04118
3.04312
3.04559
3.04867
3.05286
3.05818
3.06416
3.07007
3.07591
3.07946
3.0817
3.08485
3.0862
3.08851
3.09102
3.09445
3.09862
3.10289
3.10722
3.11166
3.11629
3.12097
3.12561
3.12952
3.13396
3.12999
3.12403
3.10855
3.08201
3.05589
3.02949
3.00798
2.99886
0.991332
0.992093
0.991863
0.99157
0.991197
0.990748
0.990277
0.989829
0.989295
0.988791
0.988372
0.988035
0.987827
0.987783
0.987925
0.988211
0.988857
0.989735
0.990944
0.992612
0.995171
0.998258
1.00152
1.00507
1.00933
1.01437
1.02044
1.02795
1.03605
1.04422
1.05139
1.05982
1.07042
1.08203
1.09659
1.11235
1.12639
1.15192
1.22741
1.42566
1.91664
2.26276
2.4031
2.45122
2.47081
2.48244
2.49181
2.46139
2.45248
2.41397
2.36941
2.33846
2.30749
2.33938
2.33786
2.3871
2.41589
2.48484
2.53728
2.61202
2.68355
2.74564
2.8173
2.88163
2.93129
2.97075
3.00047
3.01937
3.03301
3.04291
3.04863
3.05131
3.05239
3.05241
3.05272
3.04815
3.04419
3.04373
3.04002
3.04112
3.03795
3.03736
3.03476
3.03481
3.0348
3.0358
3.03704
3.03889
3.04132
3.04413
3.04774
3.05218
3.05742
3.06329
3.06947
3.0733
3.07578
3.07937
3.08057
3.08308
3.0848
3.08789
3.09186
3.09616
3.10081
3.10498
3.1088
3.1125
3.11652
3.12016
3.12432
3.11909
3.11423
3.10039
3.07498
3.04907
3.02268
3.00144
2.99233
0.99108
0.991856
0.991604
0.991283
0.990866
0.990353
0.989795
0.989273
0.988638
0.987971
0.987362
0.986847
0.986394
0.986065
0.985959
0.986007
0.986238
0.986783
0.987593
0.988786
0.990654
0.993229
0.996087
0.999115
1.00285
1.00728
1.01257
1.01882
1.02633
1.03441
1.04226
1.04963
1.05868
1.06846
1.08095
1.09254
1.10786
1.1388
1.25135
1.52395
2.08109
2.34561
2.42524
2.43886
2.42723
2.41121
2.36802
2.31534
2.27946
2.23596
2.23479
2.2387
2.29596
2.32358
2.40997
2.4759
2.56656
2.64699
2.72201
2.80596
2.87469
2.92681
2.96744
2.99775
3.01744
3.0319
3.04234
3.0488
3.05296
3.05599
3.05655
3.05506
3.05104
3.04796
3.04701
3.046
3.04199
3.0421
3.0381
3.03829
3.03518
3.03445
3.03172
3.03123
3.03078
3.03171
3.03305
3.0346
3.03681
3.03975
3.04315
3.04709
3.05169
3.05707
3.06322
3.06733
3.07019
3.07441
3.07547
3.07806
3.07858
3.08168
3.08496
3.08914
3.09392
3.09786
3.10112
3.1039
3.10717
3.11045
3.11442
3.10832
3.10368
3.0914
3.06761
3.04148
3.01498
2.99471
2.98629
0.990806
0.991597
0.991322
0.99097
0.990509
0.989923
0.989268
0.988641
0.987938
0.987101
0.986297
0.985541
0.984892
0.984247
0.983776
0.983476
0.983359
0.983504
0.983874
0.984603
0.985708
0.98763
0.989945
0.992318
0.995581
0.999353
1.00379
1.00895
1.01509
1.02293
1.03074
1.0378
1.04495
1.05422
1.06418
1.07325
1.09009
1.13393
1.2847
1.6654
2.17689
2.35877
2.39526
2.35921
2.30364
2.25359
2.19548
2.15832
2.13781
2.14798
2.1964
2.26956
2.36987
2.47621
2.58232
2.68453
2.7919
2.87244
2.9302
2.96958
2.99834
3.01664
3.02948
3.03864
3.04494
3.04951
3.05267
3.05305
3.05144
3.05007
3.0497
3.04931
3.04795
3.04576
3.04359
3.04306
3.03974
3.03902
3.03562
3.0353
3.03217
3.03115
3.02817
3.02714
3.02595
3.02642
3.02764
3.02946
3.03151
3.03439
3.03778
3.04148
3.04568
3.0503
3.05588
3.06037
3.06366
3.06856
3.06988
3.07271
3.07222
3.0755
3.07757
3.08157
3.0866
3.09057
3.09353
3.09516
3.0976
3.10048
3.10401
3.09761
3.09272
3.08184
3.05945
3.03357
3.00713
2.98805
2.98038
0.990508
0.991316
0.99102
0.99063
0.990121
0.989467
0.988713
0.987949
0.987153
0.98617
0.985152
0.984159
0.983263
0.982341
0.981448
0.980734
0.980157
0.979808
0.979773
0.979957
0.98046
0.981412
0.983098
0.984798
0.987228
0.990397
0.99389
0.9979
1.00285
1.00962
1.01686
1.02394
1.03003
1.03844
1.04578
1.05455
1.07165
1.12719
1.29659
1.79848
2.22075
2.32932
2.34357
2.27244
2.20424
2.1548
2.11012
2.09909
2.12018
2.19166
2.29679
2.44347
2.58842
2.72379
2.85824
2.94279
2.98987
3.01637
3.03048
3.03921
3.04468
3.0479
3.04964
3.04967
3.04916
3.04708
3.04624
3.04636
3.04579
3.04484
3.04374
3.0426
3.04089
3.03958
3.03696
3.0365
3.03408
3.03302
3.0305
3.03006
3.02737
3.02657
3.02366
3.0225
3.02066
3.02068
3.02135
3.02332
3.02553
3.0283
3.03167
3.03525
3.0392
3.0435
3.04868
3.05351
3.05724
3.06274
3.06444
3.06745
3.06641
3.06974
3.07002
3.07388
3.07886
3.08249
3.08566
3.08602
3.08776
3.09027
3.09341
3.08685
3.08179
3.0715
3.05037
3.02546
2.99944
2.98136
2.97398
0.990187
0.991016
0.990696
0.990254
0.989702
0.98898
0.988122
0.987199
0.986291
0.985175
0.983919
0.982675
0.981488
0.980324
0.978985
0.977785
0.976724
0.975825
0.975185
0.974699
0.974594
0.974728
0.975441
0.976474
0.978007
0.980225
0.98272
0.985667
0.989528
0.994475
1.00094
1.0072
1.01352
1.02097
1.02645
1.03604
1.05634
1.13183
1.30997
1.92005
2.20799
2.26181
2.24596
2.18639
2.13317
2.10073
2.0958
2.1366
2.21381
2.34252
2.50899
2.67433
2.84618
2.98458
3.03974
3.05772
3.0633
3.06413
3.06346
3.0613
3.05946
3.05448
3.05071
3.04769
3.04565
3.04394
3.04141
3.0398
3.03821
3.03665
3.03496
3.0335
3.03129
3.03101
3.0291
3.02925
3.02833
3.02748
3.02604
3.02547
3.02329
3.02296
3.02014
3.01889
3.01629
3.01572
3.01549
3.01721
3.01945
3.02188
3.02518
3.02868
3.03235
3.03633
3.04119
3.04633
3.05045
3.05634
3.05832
3.0616
3.06047
3.06364
3.06241
3.06618
3.07049
3.07358
3.07718
3.07652
3.07806
3.08024
3.0828
3.07611
3.0706
3.06049
3.04101
3.0172
2.99238
2.97558
2.96909
0.98984
0.990693
0.990347
0.989841
0.989252
0.988461
0.987489
0.986403
0.985341
0.98411
0.982613
0.981063
0.979533
0.978096
0.976451
0.974629
0.973017
0.97153
0.970314
0.969057
0.968011
0.967299
0.966995
0.967256
0.967943
0.968826
0.970153
0.97205
0.974695
0.97801
0.982792
0.988292
0.994408
1.00116
1.00675
1.01756
1.04389
1.14546
1.36845
1.92118
2.14072
2.17173
2.15283
2.11226
2.08714
2.08657
2.13385
2.21622
2.36656
2.53852
2.72752
2.92379
3.04867
3.08095
3.08846
3.08288
3.07966
3.0748
3.06953
3.06459
3.06054
3.05651
3.05233
3.04844
3.04474
3.0416
3.03839
3.03542
3.03259
3.03001
3.02739
3.02596
3.02348
3.02316
3.02175
3.02117
3.02119
3.02019
3.01924
3.01835
3.01684
3.01684
3.01447
3.01354
3.01092
3.01006
3.00897
3.0102
3.01251
3.01459
3.01778
3.0214
3.02492
3.02882
3.0334
3.03869
3.04334
3.04959
3.05185
3.05535
3.05425
3.05707
3.0551
3.05866
3.06177
3.06398
3.06789
3.06643
3.06836
3.06985
3.07196
3.06504
3.05893
3.04963
3.03127
3.0079
2.98466
2.96936
2.96382
0.989467
0.990347
0.989972
0.989408
0.988756
0.987905
0.98683
0.98559
0.984299
0.982948
0.981241
0.979343
0.977437
0.975661
0.973701
0.971325
0.969039
0.966878
0.965033
0.963095
0.960939
0.959117
0.957751
0.95696
0.956443
0.95612
0.9561
0.95669
0.957856
0.959825
0.962455
0.966798
0.971831
0.977384
0.983771
0.995539
1.02782
1.15322
1.44004
1.88183
2.05779
2.08337
2.08628
2.0669
2.07325
2.11201
2.21443
2.3763
2.55479
2.75801
2.96753
3.06646
3.09217
3.08899
3.08426
3.07987
3.07541
3.07148
3.06752
3.06353
3.05954
3.05556
3.05166
3.04807
3.04469
3.04123
3.03762
3.03404
3.03058
3.02723
3.02374
3.02128
3.01809
3.01553
3.01389
3.01159
3.01175
3.01059
3.00975
3.00904
3.00874
3.00907
3.0078
3.00735
3.00521
3.00473
3.00313
3.00343
3.00559
3.00735
3.01
3.01356
3.01698
3.0208
3.02517
3.03038
3.03546
3.04214
3.04478
3.04862
3.04771
3.0499
3.04786
3.05116
3.05257
3.05442
3.05816
3.05612
3.05853
3.05885
3.0608
3.05406
3.04798
3.03848
3.02096
2.9981
2.97714
2.96376
2.95954
0.989067
0.989975
0.989574
0.988961
0.988194
0.987309
0.986131
0.984725
0.983181
0.981662
0.979808
0.977556
0.975229
0.97295
0.97067
0.967928
0.96479
0.961911
0.959246
0.956604
0.953607
0.950245
0.94762
0.945366
0.943907
0.942185
0.940062
0.938608
0.938591
0.938815
0.939772
0.941321
0.944284
0.948739
0.954689
0.966326
1.0082
1.14891
1.51614
1.85113
1.95865
2.03083
2.04814
2.05246
2.10251
2.21599
2.38577
2.57695
2.79181
2.99843
3.07403
3.09118
3.08169
3.07633
3.07152
3.06735
3.06407
3.06119
3.0585
3.05564
3.0526
3.04938
3.04607
3.04292
3.0401
3.03742
3.0348
3.03196
3.02873
3.02534
3.02173
3.01871
3.01519
3.0114
3.00868
3.00486
3.00366
3.00148
2.99988
2.99851
2.99819
2.99851
2.99861
2.9986
2.99749
2.99758
2.99634
2.99606
2.99805
2.99975
3.00162
3.00507
3.00856
3.01221
3.01648
3.02152
3.02681
3.03402
3.03714
3.04135
3.04057
3.04177
3.04029
3.04334
3.04295
3.04477
3.0478
3.04564
3.04855
3.04698
3.04903
3.04259
3.03712
3.02703
3.01025
2.98849
2.96916
2.95701
2.95409
0.988637
0.989576
0.98915
0.988487
0.987608
0.98666
0.98538
0.983814
0.982039
0.980252
0.978249
0.975698
0.972884
0.970032
0.967455
0.964302
0.96033
0.956496
0.952809
0.949692
0.945875
0.94085
0.936493
0.932806
0.929737
0.927498
0.923946
0.918997
0.915197
0.913456
0.912998
0.912567
0.912467
0.914336
0.920199
0.932172
0.990008
1.12579
1.53889
1.76183
1.88048
1.98686
2.03055
2.09679
2.22732
2.40007
2.60672
2.83439
3.01916
3.07299
3.08472
3.07226
3.0665
3.062
3.05809
3.05509
3.05269
3.05059
3.04863
3.04651
3.0442
3.04164
3.03899
3.03631
3.03386
3.03158
3.02968
3.02781
3.02553
3.02261
3.01909
3.01602
3.01274
3.00875
3.00565
3.00091
2.99808
2.99412
2.99133
2.98837
2.98697
2.98691
2.98743
2.98813
2.98867
2.98978
2.98923
2.98882
2.99043
2.9923
2.9936
2.99641
2.99986
3.00328
3.00741
3.01229
3.01754
3.02506
3.0288
3.03329
3.03275
3.03298
3.03197
3.0347
3.03285
3.03511
3.03709
3.03481
3.03836
3.03434
3.03665
3.03055
3.02591
3.01551
2.99943
2.97891
2.96202
2.9518
2.95022
0.988178
0.98915
0.988694
0.987981
0.987004
0.985938
0.984586
0.982862
0.980862
0.978712
0.976527
0.973779
0.970461
0.96704
0.963872
0.960288
0.955764
0.950776
0.946015
0.941902
0.937287
0.931481
0.924436
0.9188
0.914034
0.910048
0.906648
0.901331
0.892503
0.885805
0.8811
0.878924
0.876777
0.875671
0.880744
0.89979
0.982605
1.10581
1.5895
1.66111
1.84509
1.98732
2.08011
2.24079
2.41911
2.63363
2.87229
3.02682
3.07003
3.07201
3.0618
3.05643
3.05222
3.04855
3.0456
3.04328
3.04132
3.03961
3.03817
3.03663
3.03499
3.03306
3.03102
3.0288
3.02654
3.02434
3.02254
3.02133
3.01987
3.01791
3.01522
3.01231
3.00908
3.00543
3.00256
2.99795
2.99448
2.98943
2.98562
2.98079
2.97787
2.97608
2.97532
2.97625
2.97753
2.97983
2.98038
2.98035
2.98167
2.98416
2.9855
2.98732
2.99051
2.99386
2.9978
3.0026
3.00764
3.01531
3.01975
3.02435
3.024
3.02347
3.02307
3.02545
3.02272
3.02555
3.02583
3.02338
3.02717
3.02216
3.02454
3.01883
3.01474
3.00442
2.98909
2.96954
2.95414
2.94559
2.94452
0.98769
0.988697
0.988206
0.987453
0.986394
0.985142
0.983731
0.981857
0.979618
0.977118
0.974669
0.971731
0.967971
0.963899
0.959871
0.956012
0.95112
0.944749
0.938679
0.933
0.928272
0.92182
0.912547
0.903372
0.896242
0.890075
0.885282
0.880993
0.873514
0.860512
0.850459
0.843998
0.839881
0.836502
0.83731
0.871686
0.965492
1.13682
1.59669
1.581
1.88143
2.06932