/*--------------------------------*- C++ -*----------------------------------*\
| =========                 |                                                 |
| \\      /  F ield         | OpenFOAM: The Open Source CFD Toolbox           |
|  \\    /   O peration     | Version:  2.2.x                                 |
|   \\  /    A nd           | Web:      www.OpenFOAM.org                      |
|    \\/     M anipulation  |                                                 |
\*---------------------------------------------------------------------------*/
FoamFile
{
    version     2.0;
    format      ascii;
    class       volScalarField;
    location    "0.45";
    object      rho;
}
// * * * * * * * * * * * * * * * * * * * * * * * * * * * * * * * * * * * * * //

dimensions      [1 -3 0 0 0 0 0];

internalField   nonuniform List<scalar> 
14161
(
0.975227
0.982062
1.0401
1.05231
1.03571
1.00477
0.980243
1.00088
1.01625
1.01327
1.03644
1.06994
1.0717
1.05477
1.03049
1.02557
1.01292
1.00939
1.0258
1.05035
1.04939
1.06908
1.10155
1.12471
1.11771
1.11506
1.09582
1.0726
1.04835
1.02778
1.02227
1.01709
1.01081
1.02693
1.04816
1.05613
1.05188
1.04386
1.04347
1.04468
1.0324
1.0263
1.02663
1.02459
1.01545
1.00083
0.990392
0.983404
0.981241
0.977233
0.968021
0.962675
0.948665
1.27559
2.43485
2.5096
2.63388
2.71817
2.79121
2.81035
2.79735
2.77974
2.7741
2.77832
2.78018
2.77242
2.75236
2.72804
2.7209
2.72117
2.72882
2.75054
2.78953
2.83299
2.85561
2.858
2.85035
2.84211
2.83851
2.83866
2.84279
2.84979
2.85756
2.86133
2.86264
2.86258
2.8617
2.86028
2.8567
2.85432
2.85945
2.87424
2.90195
2.94194
2.98231
3.01678
3.04067
3.06156
3.06967
3.06734
3.05601
3.0378
3.00656
2.94528
2.86555
2.82166
2.81491
2.82471
2.84783
2.87085
2.88534
2.89952
2.90745
2.92547
2.93005
2.9527
2.95844
2.96954
2.95937
1.02368
1.07853
1.09839
1.04858
0.972528
0.876734
0.819577
0.845273
0.905871
0.990264
1.0511
1.08299
1.10369
1.09465
1.07336
1.02846
0.989101
0.981051
0.999004
1.02289
1.05574
1.0895
1.10826
1.12824
1.12196
1.10357
1.07127
1.02172
0.981084
0.973323
0.97467
0.98364
1.01242
1.02886
1.07392
1.09912
1.12004
1.13317
1.13757
1.12259
1.09732
1.06531
1.04874
1.03521
1.01986
1.01444
1.0048
0.998887
0.999375
0.996364
0.991248
0.983668
0.960519
1.79932
2.33095
2.40775
2.50108
2.57074
2.59013
2.582
2.57529
2.57333
2.5654
2.54771
2.53688
2.53964
2.55619
2.59023
2.64306
2.69382
2.72113
2.71612
2.69974
2.67954
2.65704
2.6419
2.63541
2.6344
2.63822
2.64408
2.65048
2.65855
2.66938
2.6839
2.69806
2.70456
2.70825
2.70991
2.70916
2.71168
2.72254
2.74531
2.78076
2.8216
2.85749
2.8826
2.89686
2.90914
2.92098
2.93188
2.92583
2.8912
2.82453
2.73905
2.65543
2.60991
2.60179
2.63241
2.69975
2.76457
2.81461
2.85679
2.89317
2.92524
2.94935
2.97527
2.98179
2.97348
2.95592
0.984212
0.84756
0.841856
0.917073
1.07075
1.25163
1.30047
1.32864
1.28922
1.17991
1.02095
0.922967
0.896167
0.908402
0.945036
1.02276
1.10593
1.1918
1.24688
1.23841
1.19691
1.11162
1.04438
1.01887
0.99613
1.00878
1.0385
1.09045
1.14295
1.18114
1.20037
1.22234
1.19947
1.15158
1.11816
1.10427
1.0815
1.07852
1.07354
1.08727
1.12027
1.15422
1.19862
1.23445
1.24506
1.23935
1.22356
1.19684
1.17318
1.15726
1.1389
1.1182
1.07684
1.42334
2.73778
2.75001
2.78903
2.81061
2.82039
2.83594
2.84918
2.85466
2.8435
2.81388
2.76993
2.71745
2.67141
2.6426
2.63258
2.63417
2.63871
2.64216
2.65365
2.67695
2.69898
2.71885
2.73999
2.76184
2.78502
2.81131
2.83617
2.85639
2.87344
2.88796
2.90356
2.92238
2.94727
2.97304
2.98948
3.00023
3.01243
3.02896
3.05146
3.08237
3.11327
3.1424
3.16616
3.19583
3.22753
3.24591
3.25475
3.25023
3.21703
3.15094
3.06436
2.98546
2.92212
2.8765
2.85575
2.84966
2.85124
2.86154
2.88227
2.9185
2.94243
2.97368
2.97552
2.94658
2.93515
1.02341
1.12311
1.14748
1.05331
0.850532
0.691864
0.611633
0.642671
0.720388
0.836475
0.993127
1.06012
1.09204
1.08384
1.05726
0.976661
0.868331
0.822491
0.841037
0.875536
0.926218
1.00708
1.06837
1.11211
1.10572
1.09033
1.04747
0.977451
0.898553
0.861051
0.85423
0.872511
0.899324
0.952717
1.024
1.08714
1.13908
1.16517
1.17274
1.14766
1.1105
1.06139
1.00316
0.963903
0.948889
0.92341
0.911669
0.914526
0.919756
0.93362
0.942479
0.944845
0.926012
1.31419
2.3117
2.44139
2.51067
2.51488
2.5215
2.52192
2.53389
2.55314
2.56387
2.56555
2.55736
2.53972
2.51172
2.49546
2.4794
2.46652
2.46482
2.47807
2.50885
2.55461
2.60427
2.64776
2.69033
2.73957
2.7946
2.85614
2.91098
2.94992
2.96359
2.96436
2.95858
2.94617
2.9299
2.91365
2.90822
2.91171
2.9252
2.95167
2.9907
3.04025
3.08807
3.12415
3.15037
3.18011
3.20003
3.20368
3.20031
3.18639
3.15408
3.10441
3.03966
2.97827
2.92938
2.89865
2.88245
2.87068
2.86083
2.85972
2.87115
2.89897
2.91814
2.9388
2.9366
2.90095
2.8978
0.970672
0.755882
0.698016
0.793898
0.982315
1.17151
1.35105
1.43298
1.40824
1.29878
1.06906
0.87959
0.811275
0.810459
0.853236
0.955681
1.08332
1.22178
1.30452
1.30582
1.26812
1.15427
1.03755
0.978883
0.912767
0.913385
0.93558
0.99811
1.05657
1.12002
1.17974
1.24795
1.24944
1.21883
1.16959
1.10994
1.05965
1.04417
1.02493
1.04277
1.06552
1.09758
1.14459
1.20226
1.22007
1.21848
1.21348
1.20093
1.18634
1.17097
1.15375
1.13542
1.09268
1.19456
2.31013
2.52627
2.60982
2.57315
2.54196
2.50439
2.48198
2.48275
2.49225
2.5073
2.5123
2.50514
2.48697
2.47069
2.4561
2.44321
2.43483
2.4449
2.46478
2.49999
2.54599
2.59555
2.64679
2.70845
2.79624
2.91619
3.02986
3.07266
3.07915
3.06425
3.02373
2.96645
2.91925
2.89395
2.88962
2.89924
2.92032
2.95544
3.00251
3.05126
3.09578
3.13006
3.15471
3.17825
3.19156
3.19135
3.18314
3.16809
3.1364
3.09211
3.04008
2.98985
2.95004
2.92999
2.91743
2.9049
2.89302
2.89222
2.9025
2.9259
2.93319
2.93213
2.90859
2.87698
2.89503
1.03879
1.15901
1.1828
1.09029
0.840805
0.64901
0.566017
0.584415
0.649907
0.783517
0.982104
1.0685
1.11635
1.10183
1.06704
0.981454
0.873606
0.810014
0.808074
0.832267
0.881625
0.977593
1.08273
1.14732
1.14359
1.13971
1.10848
1.0342
0.925923
0.830438
0.811801
0.827316
0.852114
0.901675
0.971551
1.04711
1.12852
1.16407
1.18336
1.22021
1.22263
1.20769
1.16799
1.11915
1.07709
1.03242
1.01624
1.00062
0.995673
0.992355
0.99527
0.999964
0.992356
1.00458
1.88888
2.40403
2.47973
2.45237
2.40862
2.36854
2.35172
2.34294
2.35061
2.366
2.37843
2.38111
2.38054
2.3857
2.41051
2.4109
2.39277
2.38005
2.38527
2.40866
2.45193
2.50963
2.56823
2.63901
2.73094
2.85157
2.98928
3.10879
3.15924
3.1669
3.15159
3.10952
3.04624
2.98169
2.94771
2.94125
2.95157
2.97843
3.01948
3.06904
3.11532
3.15022
3.17244
3.19021
3.19681
3.19229
3.17593
3.15252
3.11719
3.07246
3.0252
2.98188
2.95027
2.93845
2.93467
2.93231
2.93129
2.93608
2.94426
2.9639
2.95972
2.93389
2.887
2.8577
2.8908
0.955071
0.70277
0.613587
0.714562
0.919256
1.12603
1.34248
1.46155
1.47075
1.38822
1.14099
0.884845
0.780412
0.768233
0.804736
0.909947
1.0658
1.22045
1.3511
1.38155
1.36141
1.26375
1.11907
1.00174
0.901026
0.868175
0.880687
0.919804
0.988485
1.066
1.14313
1.21352
1.23247
1.27724
1.26602
1.23185
1.16858
1.11515
1.08148
1.06614
1.05537
1.06606
1.0888
1.12086
1.11949
1.14228
1.16203
1.16228
1.15164
1.12587
1.10615
1.09143
1.07865
1.09467
1.53046
2.65343
2.50305
2.36915
2.30858
2.28391
2.27195
2.25384
2.2559
2.25413
2.25232
2.24291
2.21522
2.18598
2.20247
2.1969
2.18584
2.19151
2.21022
2.25165
2.28
2.29988
2.327
2.37227
2.4602
2.57706
2.70824
2.84722
2.99636
3.14394
3.2339
3.25437
3.24235
3.19486
3.11756
3.04331
3.00894
3.01721
3.04922
3.0939
3.14458
3.19069
3.21826
3.22659
3.22426
3.20935
3.18193
3.15149
3.1114
3.06308
3.01245
2.97098
2.94837
2.94685
2.95363
2.9594
2.9626
2.96463
2.97103
2.98499
2.97404
2.93324
2.86566
2.8487
2.88811
1.04209
1.17777
1.19093
1.11102
0.885932
0.700281
0.599959
0.594945
0.636344
0.748367
0.956868
1.06946
1.12006
1.13174
1.11733
1.08462
0.980948
0.869269
0.825543
0.845293
0.886628
0.964274
1.07793
1.16066
1.18694
1.18728
1.17285
1.13758
1.04729
0.933997
0.85132
0.841124
0.8398
0.86579
0.906636
0.9662
1.02599
1.10605
1.19184
1.22052
1.23825
1.27074
1.27894
1.27744
1.26811
1.22528
1.1824
1.14947
1.11447
1.09733
1.08473
1.07167
1.06211
1.1142
1.38984
1.87218
2.61193
2.47825
2.34699
2.27639
2.25967
2.26884
2.27914
2.24154
2.24447
2.25725
2.22284
2.19624
2.19254
2.1896
2.1756
2.17045
2.20559
2.24552
2.28539
2.3081
2.32073
2.33817
2.34218
2.36103
2.39672
2.46876
2.57894
2.70083
2.83348
2.97097
3.12055
3.24318
3.29427
3.29085
3.24734
3.17449
3.13979
3.14793
3.17544
3.21137
3.24237
3.25137
3.24809
3.22951
3.19619
3.16072
3.11498
3.06298
3.01102
2.97128
2.95104
2.95743
2.97633
2.98667
2.97976
2.97336
2.97751
2.98895
2.97554
2.9257
2.85271
2.8417
2.88307
0.947428
0.681857
0.58367
0.678737
0.88396
1.12381
1.31878
1.4757
1.49011
1.42129
1.17928
0.879454
0.751059
0.744055
0.775212
0.862107
1.03292
1.17927
1.35714
1.42414
1.42617
1.37189
1.21975
1.02099
0.896903
0.803267
0.770399
0.791051
0.844106
0.91838
1.01246
1.11334
1.2031
1.30308
1.32679
1.33461
1.3119
1.26663
1.20992
1.13384
1.08397
1.06007
1.04983
1.04591
1.04641
1.06255
1.0896
1.11086
1.10986
1.10195
1.08684
1.06304
1.03976
1.0733
1.32666
2.08395
2.20255
2.09751
2.03465
1.95992
1.9299
1.92221
1.9185
1.91501
1.96586
2.01999
2.02484
2.02608
2.02584
2.02942
2.02341
2.02823
2.07477
2.1423
2.2027
2.25155
2.29475
2.33057
2.35431
2.37627
2.39424
2.4076
2.44245
2.48163
2.53077
2.60328
2.6921
2.80034
2.9327
3.09916
3.25351
3.35051
3.38358
3.35988
3.30735
3.28652
3.28782
3.28782
3.2803
3.25764
3.2216
3.18529
3.13544
3.07699
3.01959
2.97765
2.95785
2.96703
2.99258
3.00202
2.98724
2.97287
2.97348
2.98171
2.96601
2.9081
2.83903
2.83382
2.87837
1.03135
1.1765
1.18333
1.11237
0.956549
0.7898
0.663169
0.639011
0.643403
0.702852
0.873796
1.03194
1.11748
1.14359
1.13118
1.14179
1.05766
0.919628
0.830281
0.815177
0.86538
0.87211
0.957795
1.08242
1.1735
1.17154
1.15151
1.13027
1.0879
0.986196
0.872685
0.823431
0.806016
0.814324
0.834656
0.863375
0.898088
0.950568
1.02847
1.09164
1.1467
1.21915
1.2469
1.28464
1.30261
1.28235
1.2499
1.21936
1.18374
1.14275
1.06943
1.01291
1.01919
1.22061
1.63264
1.85953
2.05682
2.10276
2.08819
2.01526
1.987
1.97724
1.97074
1.94452
1.95056
1.99131
2.01202
2.00638
1.99095
1.99767
1.99318
1.99603
2.01328
2.04591
2.08632
2.13089
2.20972
2.28729
2.33432
2.37286
2.42198
2.46522
2.50146
2.5266
2.55796
2.61993
2.69996
2.76914
2.8388
2.95054
3.11854
3.29578
3.43422
3.52354
3.52863
3.47451
3.40184
3.36724
3.33866
3.30907
3.26926
3.22785
3.17657
3.11507
3.05155
3.00373
2.97902
2.98572
3.01544
3.02257
2.99812
2.96898
2.95845
2.9581
2.938
2.8822
2.83278
2.83041
2.87132
0.946421
0.682298
0.592224
0.667856
0.848616
1.09935
1.28019
1.4283
1.43863
1.37786
1.17272
0.849041
0.69638
0.684291
0.696963
0.762055
0.900568
1.0895
1.23945
1.29775
1.37672
1.33785
1.20621
0.990788
0.824449
0.706094
0.639185
0.638773
0.642029
0.681537
0.765585
0.88064
1.05911
1.17907
1.24814
1.28034
1.2912
1.29843
1.26109
1.20451
1.11685
1.06503
1.03323
1.00037
0.963053
0.957956
0.966517
0.980937
0.991585
0.988548
0.976981
0.9452
0.967555
1.7381
1.89864
1.95193
2.0661
2.07431
2.02556
1.95269
1.89173
1.8778
1.86892
1.88301
1.90313
1.93934
1.96801
1.98877
2.00379
2.01386
2.02572
2.03787
2.07166
2.10423
2.13755
2.1748
2.20862
2.24628
2.29216
2.33685
2.38367
2.42122
2.45122
2.47114
2.50016
2.55916
2.63242
2.69007
2.74091
2.81996
2.93783
3.12278
3.35471
3.56061
3.69356
3.72253
3.67025
3.57288
3.4888
3.43261
3.37734
3.32041
3.25722
3.18206
3.10302
3.04037
3.00431
3.00288
3.02996
3.03643
3.00727
2.96285
2.93285
2.92013
2.89541
2.8532
2.83521
2.83133
2.86338
1.00786
1.15209
1.15919
1.09167
1.00988
0.868587
0.712666
0.684254
0.628204
0.64481
0.752525
0.918577
1.01986
1.05724
1.04674
1.07761
1.02269
0.881016
0.750729
0.692364
0.731802
0.700053
0.750266
0.851801
0.975696
1.07362
1.06286
1.04806
1.00272
0.913583
0.852704
0.796024
0.752288
0.73766
0.721844
0.716454
0.71963
0.726546
0.758717
0.812824
0.883861
0.960631
1.01458
1.10171
1.18827
1.17964
1.15854
1.11798
1.08256
1.0555
1.0243
0.95501
1.05655
2.06193
2.12336
2.17511
2.27219
2.25874
2.225
2.18663
2.14939
2.14296
2.12287
2.09501
2.07805
2.08781
2.10206
2.12301
2.14877
2.17078
2.19881
2.23566
2.28112
2.32169
2.36154
2.39181
2.41446
2.4373
2.46024
2.48336
2.50545
2.51836
2.52788
2.5429
2.57275
2.62909
2.68947
2.73518
2.7774
2.83834
2.92465
3.05024
3.25523
3.47964
3.66495
3.76967
3.7681
3.69844
3.58127
3.46166
3.37679
3.31428
3.25601
3.18928
3.11455
3.05441
3.01711
3.01161
3.0374
3.04334
3.00964
2.95125
2.89474
2.86836
2.84902
2.84041
2.84122
2.83572
2.85914
0.946725
0.697383
0.620555
0.673306
0.802985
1.0066
1.22315
1.28568
1.26184
1.192
1.0372
0.781558
0.624372
0.603109
0.599889
0.65151
0.73829
0.926591
1.02212
1.0482
1.15856
1.15569
1.09272
0.93163
0.730388
0.608112
0.574263
0.545269
0.554514
0.569106
0.622031
0.705667
0.797839
0.93649
1.04997
1.13676
1.17187
1.16898
1.1611
1.14087
1.1055
1.03049
0.975928
0.947444
0.918437
0.905877
0.885849
0.873854
0.872475
0.864178
0.863621
0.848706
1.06407
2.12681
2.19293
2.28566
2.35608
2.41605
2.40496
2.40861
2.40777
2.4105
2.39793
2.39034
2.36859
2.35891
2.34446
2.34164
2.34092
2.35068
2.37284
2.41677
2.46268
2.50052
2.52447
2.53817
2.55014
2.56273
2.57766
2.5929
2.60575
2.61135
2.61198
2.62758
2.66369
2.71332
2.75762
2.79416
2.83055
2.87791
2.95327
3.07005
3.27187
3.49077
3.67825
3.80625
3.83121
3.77271
3.63838
3.48783
3.39192
3.32464
3.27866
3.22466
3.15089
3.08173
3.03411
3.02137
3.04245
3.045
3.01043
2.93748
2.85045
2.8161
2.81258
2.84141
2.85147
2.84066
2.85323
0.97301
1.09811
1.10403
1.04373
1.00666
0.904169
0.805366
0.764035
0.665154
0.656772
0.713247
0.829669
0.932767
0.978907
0.976915
1.01201
0.979632
0.864577
0.742946
0.635683
0.646155
0.623382
0.636959
0.71267
0.817002
0.903864
1.0099
1.02113
1.01101
0.98943
0.951219
0.868899
0.781902
0.712386
0.673257
0.64121
0.597981
0.580428
0.582715
0.599487
0.637855
0.687626
0.743466
0.813079
0.880627
0.964021
0.978993
0.987116
0.984409
0.96387
0.946936
0.922945
1.06148
2.24978
2.38085
2.42683
2.51925
2.6256
2.64926
2.68459
2.66793
2.66335
2.66115
2.66268
2.65082
2.63227
2.60964
2.59074
2.57686
2.5597
2.54836
2.54
2.53373
2.5264
2.52362
2.52637
2.53604
2.55356
2.57609
2.60339
2.63771
2.67233
2.70668
2.74658
2.7829
2.81108
2.83441
2.85945
2.88663
2.93214
3.01254
3.14016
3.33853
3.55293
3.7278
3.82492
3.83228
3.77071
3.62116
3.48331
3.39601
3.33564
3.29618
3.24637
3.17247
3.09762
3.04489
3.02831
3.04637
3.0464
3.00961
2.92254
2.80951
2.77906
2.79282
2.85005
2.86724
2.84679
2.84692
0.945742
0.744288
0.671512
0.696659
0.780401
0.9429
1.08284
1.11318
1.10157
1.04589
0.948316
0.815139
0.713105
0.6782
0.664962
0.700561
0.749304
0.843276
0.934168
0.988801
1.06327
1.04479
0.996163
0.927926
0.825134
0.695297
0.649778
0.628592
0.596429
0.601068
0.609949
0.638593
0.696588
0.772562
0.843697
0.968513
1.00786
1.03707
1.05932
1.06167
1.03648
1.00843
0.980278
0.941115
0.890672
0.837081
0.819322
0.816163
0.824732
0.83443
0.841965
0.851535
0.975248
2.14078
2.37734
2.52328
2.6236
2.68517
2.76393
2.81656
2.79419
2.78806
2.79789
2.80844
2.79983
2.77994
2.7467
2.71696
2.69178
2.6611
2.63602
2.61924
2.60664
2.59141
2.57804
2.57405
2.57906
2.59773
2.63042
2.6731
2.72376
2.77792
2.82532
2.86338
2.88517
2.89799
2.911
2.9326
2.96867
3.03035
3.12913
3.27337
3.46458
3.62607
3.74404
3.80317
3.78785
3.71157
3.5625
3.46211
3.38976
3.34497
3.30839
3.26121
3.18991
3.11295
3.05759
3.03688
3.05212
3.04873
3.00952
2.91355
2.78952
2.76049
2.78522
2.86639
2.88916
2.85433
2.83794
0.935063
1.01336
1.01974
0.96247
0.942918
0.901497
0.87909
0.86181
0.80483
0.797827
0.827182
0.888983
0.974181
1.01103
1.00784
1.02153
0.996816
0.935947
0.869184
0.787902
0.761021
0.752716
0.765203
0.785664
0.837353
0.891315
0.946817
1.02481
1.02322
1.01093
0.993217
0.97105
0.932127
0.862114
0.791838
0.754848
0.710643
0.644253
0.632307
0.619621
0.629173
0.647418
0.67171
0.712879
0.748903
0.792817
0.863602
0.901044
0.923435
0.923698
0.920479
0.921468
0.934987
1.15926
2.39577
2.51438
2.54235
2.64309
2.77951
2.83492
2.82931
2.83336
2.85456
2.87139
2.88025
2.8695
2.84065
2.80632
2.7555
2.68976
2.6576
2.64651
2.64007
2.63503
2.62968
2.62766
2.63155
2.64815
2.68007
2.7219
2.76989
2.81843
2.86169
2.89804
2.93027
2.96047
2.99237
3.03134
3.08557
3.16195
3.26091
3.38589
3.51599
3.63007
3.70126
3.73165
3.70005
3.60869
3.50053
3.44457
3.39363
3.35536
3.31619
3.26584
3.1988
3.12665
3.06926
3.0444
3.05716
3.04924
3.0073
2.90286
2.77046
2.74878
2.78654
2.89091
2.91676
2.8609
2.82574
0.933468
0.84521
0.804668
0.792761
0.843684
0.953839
1.03723
1.04857
1.04268
1.01348
0.970315
0.927726
0.883497
0.853855
0.836149
0.848744
0.866844
0.900076
0.971
1.01146
1.02295
1.03825
1.02555
0.997347
0.961289
0.910084
0.846939
0.7976
0.77411
0.744003
0.741853
0.747847
0.758024
0.790752
0.828911
0.872517
0.938953
0.963175
0.992318
1.01233
1.01898
1.01174
0.999958
0.984934
0.943663
0.878641
0.859544
0.854493
0.858375
0.855676
0.830455
0.819983
0.875941
1.11175
1.59484
1.80434
1.92715
2.18911
2.52977
2.73791
2.79733
2.86068
2.90473
2.91036
2.89824
2.86948
2.83482
2.80192
2.75914
2.70821
2.65969
2.63652
2.63146
2.63519
2.64694
2.65812
2.66854
2.68386
2.70717
2.73917
2.77905
2.82201
2.86382
2.90487
2.94395
2.98664
3.03763
3.09562
3.15802
3.2267
3.30619
3.40728
3.50145
3.57364
3.6041
3.60711
3.56114
3.47579
3.44601
3.42853
3.39837
3.36063
3.31815
3.26865
3.20632
3.13785
3.07905
3.05123
3.06116
3.0504
3.00388
2.89272
2.7639
2.74749
2.79219
2.92075
2.94816
2.87006
2.80754
0.936097
0.984494
1.00385
0.98083
0.981314
0.966416
0.941775
0.923886
0.928562
0.932032
0.940705
0.961163
0.98881
1.01288
1.0116
1.01345
0.999881
0.976269
0.956616
0.937179
0.923034
0.920995
0.917991
0.918343
0.925557
0.945623
0.973327
1.00464
1.02927
1.02377
1.01968
1.0112
0.998821
0.981552
0.954531
0.921853
0.876642
0.849625
0.836117
0.817023
0.802244
0.801507
0.801471
0.804758
0.810342
0.82215
0.835967
0.847201
0.847772
0.849802
0.852205
0.840936
0.994464
1.36416
1.57999
1.60671
1.58214
2.01022
2.61104
2.73494
2.75198
2.7338
2.74215
2.78133
2.81117
2.82737
2.82277
2.81226
2.79372
2.75999
2.7095
2.66531
2.65
2.64859
2.66403
2.6844
2.69613
2.7037
2.71095
2.72773
2.7574
2.79475
2.83681
2.88295
2.93267
2.98807
3.04587
3.10663
3.16698
3.23084
3.30055
3.37515
3.42859
3.45955
3.46718
3.45323
3.42934
3.40423
3.40422
3.40914
3.39373
3.35784
3.31405
3.26826
3.2097
3.14236
3.08359
3.05529
3.06342
3.05198
2.99875
2.87827
2.75668
2.74746
2.80088
2.94297
2.97555
2.879
2.78032
0.94871
0.937445
0.938763
0.92698
0.950104
0.989675
1.00734
1.00943
1.01381
1.0087
0.995885
0.978845
0.957279
0.952138
0.948884
0.951195
0.955791
0.96406
0.981053
0.996078
1.01108
1.02347
1.01919
1.00952
0.995964
0.982901
0.96654
0.947166
0.92868
0.91516
0.899535
0.895425
0.889773
0.891924
0.901326
0.916519
0.93963
0.956956
0.968127
0.981177
0.990754
0.995199
0.991733
0.982747
0.969361
0.949649
0.930007
0.911173
0.885671
0.870979
0.853878
0.915688
1.46954
1.72894
1.72454
1.66069
1.81294
2.20162
2.27991
2.37427
2.4856
2.56355
2.62477
2.68155
2.71748
2.73865
2.74973
2.7683
2.78024
2.77857
2.76884
2.74838
2.72802
2.71587
2.70886
2.7039
2.70401
2.70919
2.71668
2.72854
2.74724
2.77381
2.80982
2.85542
2.90977
2.97001
3.02928
3.08689
3.14232
3.197
3.25134
3.29254
3.31208
3.32501
3.33819
3.34886
3.36173
3.36925
3.38733
3.39804
3.38537
3.34842
3.30525
3.2643
3.20915
3.14108
3.08628
3.06044
3.06701
3.05392
2.99171
2.8621
2.75441
2.74878
2.80935
2.95871
2.99613
2.88628
2.74459
0.954794
0.972294
1.01425
1.01132
1.00225
0.986511
0.976533
0.972886
0.976822
0.97978
0.981763
0.984977
0.987896
0.99337
0.99518
0.99549
0.994061
0.988622
0.983444
0.979509
0.980628
0.981968
0.983492
0.981686
0.977436
0.978258
0.982907
0.992043
1.00182
1.0078
1.00907
1.01088
1.00705
1.00027
0.992987
0.983973
0.976218
0.966185
0.949255
0.936282
0.928379
0.918787
0.906972
0.898727
0.89093
0.884716
0.878154
0.872239
0.869597
0.872985
0.881567
1.20462
1.83932
1.9067
1.91866
2.03844
2.38058
2.62658
2.57335
2.52728
2.52527
2.53504
2.55089
2.59123
2.62957
2.66289
2.69302
2.72271
2.74746
2.75562
2.76229
2.76289
2.76593
2.7646
2.75682
2.74213
2.72496
2.71769
2.71795
2.72209
2.72867
2.74458
2.77465
2.81612
2.86618
2.92113
2.97825
3.03264
3.08096
3.12809
3.16516
3.1795
3.19742
3.2259
3.25894
3.29296
3.32876
3.35621
3.38136
3.3893
3.37437
3.33609
3.29969
3.26178
3.2079
3.13679
3.08675
3.06553
3.07258
3.05348
2.9818
2.84225
2.75119
2.75143
2.81887
2.96985
3.01053
2.89219
2.69967
0.976093
0.972845
0.986709
0.983984
0.993432
1.00087
1.00022
0.998155
0.999574
0.99864
0.99478
0.988272
0.980818
0.979152
0.979627
0.981445
0.98354
0.985701
0.99059
0.995986
1.00069
1.00343
1.00437
1.00262
0.998362
0.992937
0.987277
0.983333
0.981034
0.976051
0.973313
0.971709
0.96899
0.966462
0.963095
0.961021
0.961749
0.963228
0.965052
0.966883
0.966526
0.965006
0.962821
0.960881
0.957111
0.947249
0.930555
0.914922
0.905894
0.895388
0.920742
1.49941
1.93234
2.03438
2.11311
2.39005
2.65815
2.72477
2.6975
2.67294
2.64246
2.62242
2.62203
2.62768
2.64657
2.6655
2.68316
2.69939
2.72238
2.74833
2.77177
2.79501
2.80338
2.80533
2.8005
2.78289
2.75741
2.73806
2.72881
2.72612
2.7249
2.72781
2.73974
2.7675
2.80567
2.85141
2.90264
2.94852
2.9916
3.02971
3.05521
3.07875
3.11367
3.15411
3.20015
3.251
3.30055
3.33988
3.36922
3.37613
3.36198
3.32847
3.29948
3.26333
3.20599
3.13331
3.08863
3.07203
3.07932
3.05412
2.96882
2.8253
2.74982
2.75611
2.83078
2.98112
3.02255
2.89693
2.65461
0.975437
0.984448
1.01223
1.01264
1.00824
1.00154
0.993597
0.988041
0.989495
0.990275
0.989526
0.987566
0.987238
0.988346
0.990303
0.990652
0.990844
0.990798
0.993072
0.993673
0.99463
0.995317
0.996162
0.995921
0.993806
0.992103
0.991317
0.991905
0.993805
0.995892
0.99793
1.0001
0.999785
0.99909
0.997253
0.994408
0.991138
0.987433
0.982621
0.978627
0.974317
0.967545
0.958667
0.949622
0.939817
0.922282
0.898596
0.882726
0.868876
0.885546
0.995309
1.70952
2.13126
2.34049
2.57284
2.82638
2.83445
2.82035
2.8003
2.77331
2.73853
2.70756
2.68372
2.66543
2.65523
2.65753
2.66299
2.67523
2.69653
2.7268
2.76026
2.79999
2.81754
2.82077
2.81369
2.80031
2.78286
2.76873
2.75607
2.74567
2.73482
2.72674
2.72555
2.73586
2.75742
2.78631
2.82033
2.85219
2.88565
2.91845
2.95347
2.99939
3.0516
3.10433
3.16284
3.22389
3.27771
3.32069
3.34948
3.35702
3.34737
3.32248
3.29837
3.26199
3.20165
3.13158
3.09435
3.08022
3.08384
3.05132
2.95221
2.80974
2.75007
2.76346
2.84085
2.99001
3.03025
2.89987
2.6181
0.981892
0.989471
1.00385
1.00114
1.00256
1.00534
1.00403
1.00023
0.997515
0.996198
0.993293
0.987575
0.985927
0.986045
0.987102
0.988415
0.990064
0.991709
0.994646
0.998018
0.99937
0.999933
1.00013
0.999763
0.998136
0.995801
0.993798
0.992294
0.991441
0.990963
0.990385
0.990325
0.990007
0.988968
0.987741
0.986462
0.984591
0.982915
0.980014
0.972847
0.966598
0.960736
0.956705
0.948263
0.933286
0.921002
0.907947
0.884891
0.891202
1.01637
1.55247
2.21699
2.48813
2.63083
2.75534
2.84604
2.84992
2.82676
2.79466
2.7817
2.76566
2.74318
2.72651
2.71087
2.69446
2.67941
2.6678
2.66641
2.676
2.69824
2.72849
2.77119
2.8004
2.8071
2.80261
2.79424
2.78585
2.77659
2.76632
2.75649
2.74444
2.72838
2.71816
2.71775
2.72461
2.73757
2.7559
2.77479
2.79992
2.83527
2.88188
2.94207
3.00439
3.06809
3.13458
3.19908
3.25278
3.29521
3.32299
3.33375
3.33223
3.31702
3.29477
3.25799
3.1969
3.13382
3.10263
3.08979
3.08561
3.04404
2.93209
2.79836
2.75309
2.7724
2.85219
2.9972
3.03465
2.90161
2.59295
0.983698
0.995236
1.01197
1.01053
1.00921
1.00736
1.0035
1.00029
0.997548
0.995174
0.99255
0.98798
0.987133
0.987419
0.989299
0.991131
0.992006
0.992459
0.993959
0.997582
0.998931
0.999237
0.999278
0.999066
0.997733
0.995952
0.995092
0.994831
0.994946
0.995436
0.996233
0.996865
0.997461
0.998083
0.998905
1.00007
1.00172
1.00436
1.00854
1.0138
1.02057
1.029
1.03963
1.05041
1.06478
1.07241
1.07754
1.08079
1.23864
1.91093
2.3452
2.63523
2.62231
2.71148
2.73593
2.74088
2.73991
2.74225
2.73801
2.74068
2.73593
2.72635
2.71491
2.70491
2.69006
2.67953
2.66437
2.6561
2.65722
2.66888
2.69531
2.73287
2.766
2.78151
2.78665
2.78771
2.78433
2.78304
2.77845
2.76965
2.75467
2.73526
2.72049
2.70962
2.70156
2.70557
2.71399
2.72793
2.74947
2.7831
2.83114
2.89461
2.96151
3.03448
3.10683
3.17134
3.22456
3.26666
3.2962
3.31384
3.32047
3.31087
3.29068
3.25448
3.19633
3.1379
3.11103
3.098
3.08553
3.03449
2.91179
2.79214
2.75943
2.78244
2.86303
3.00188
3.03647
2.90401
2.57639
0.987644
0.997468
1.01253
1.0118
1.01058
1.0101
1.00892
1.00542
1.00076
0.99664
0.99319
0.988526
0.987857
0.988095
0.989864
0.992149
0.993259
0.993883
0.994681
0.99742
0.999314
0.999503
0.999527
0.999472
0.99906
0.998136
0.996668
0.995225
0.994582
0.994861
0.995232
0.99546
0.995671
0.995826
0.995824
0.99562
0.994733
0.993031
0.990233
0.986127
0.979994
0.971952
0.961671
0.948556
0.933485
0.912719
0.897776
0.926934
1.97263
2.01302
2.01176
2.18518
2.31946
2.3886
2.40988
2.40271
2.4043
2.40396
2.43115
2.46668
2.50607
2.53909
2.57011
2.59332
2.61579
2.6236
2.62356
2.62259
2.6239
2.62715
2.64052
2.66725
2.69931
2.72932
2.75171
2.76835
2.7768
2.78165
2.78405
2.77637
2.76455
2.74711
2.72688
2.71003
2.69068
2.68569
2.6886
2.6982
2.71666
2.74684
2.79119
2.85136
2.91868
2.99733
3.07351
3.13815
3.19292
3.2382
3.27479
3.30023
3.31036
3.3058
3.28862
3.25051
3.1967
3.1426
3.11795
3.1034
3.08426
3.02389
2.89303
2.79242
2.769
2.79367
2.87286
3.00454
3.03464
2.90292
2.56611
0.990085
0.999285
1.01415
1.01502
1.01355
1.01105
1.00939
1.0072
1.00351
0.998643
0.994318
0.989547
0.988788
0.989182
0.991378
0.993669
0.994061
0.994342
0.994911
0.996831
0.998723
0.999354
0.999388
0.999363
0.998997
0.997619
0.996412
0.995477
0.994924
0.994774
0.994443
0.993857
0.992986
0.991709
0.989735
0.986621
0.98198
0.976163
0.969964
0.963385
0.959144
0.953742
0.95443
0.957668
0.964412
0.973825
0.979071
0.98853
1.09445
1.31928
2.00986
2.93077
3.2466
3.28498
3.31511
3.2863
3.23336
3.16999
3.09387
2.98954
2.88697
2.80511
2.74675
2.70216
2.67202
2.65469
2.63493
2.6182
2.60202
2.59308
2.59787
2.60872
2.62528
2.65593
2.69463
2.7297
2.75611
2.77175
2.78186
2.77976
2.77208
2.75896
2.73815
2.71569
2.68942
2.6725
2.6703
2.67811
2.69258
2.71641
2.75373
2.80712
2.87512
2.95363
3.03206
3.09975
3.15947
3.21122
3.2562
3.28783
3.2997
3.29971
3.28574
3.2504
3.19629
3.14498
3.12218
3.10605
3.08215
3.01273
2.87881
2.79636
2.78029
2.80558
2.88256
3.00487
3.02804
2.89835
2.56194
0.992205
1.00159
1.0141
1.01496
1.01399
1.01195
1.01089
1.01018
1.0078
1.00344
0.998157
0.992913
0.991339
0.991819
0.992796
0.99453
0.995343
0.994984
0.994862
0.995813
0.997907
0.998814
0.999386
1.00009
1.00019
0.999882
0.998073
0.995934
0.995031
0.994414
0.993677
0.992778
0.99201
0.991458
0.990943
0.989837
0.986761
0.982289
0.977633
0.97278
0.96727
0.959929
0.950008
0.936465
0.919729
0.896098
0.868127
0.840449
0.807445
1.73036
1.97718
2.228
2.35487
2.44433
2.50253
2.54734
2.60855
2.66998
2.7167
2.73218
2.72406
2.70772
2.68959
2.6701
2.64938
2.63031
2.61769
2.59715
2.57958
2.56052
2.55682
2.56074
2.56887
2.59041
2.63089
2.68051
2.72343
2.75361
2.77258
2.77935
2.77686
2.76756
2.75017
2.72636
2.69497
2.66628
2.65495
2.6612
2.67316
2.69009
2.71832
2.76222
2.82922
2.90459
2.98371
3.05792
3.12549
3.18604
3.23855
3.27429
3.29077
3.29747
3.28095
3.24884
3.19275
3.14455
3.12338
3.1087
3.08052
3.00011
2.86852
2.80419
2.79181
2.81774
2.88976
3.00058
3.01885
2.8905
2.55884
0.993631
1.00152
1.01357
1.01596
1.01538
1.01407
1.013
1.01258
1.01093
1.00726
1.00226
0.996211
0.995332
0.995686
0.994775
0.994713
0.995417
0.995731
0.995403
0.995816
0.99688
0.997608
0.99796
0.99865
0.999907
0.999884
0.999415
0.998488
0.996375
0.99463
0.993127
0.991437
0.989537
0.98782
0.987399
0.98731
0.980071
0.96927
0.960046
0.951041
0.944632
0.939655
0.940035
0.943897
0.959777
0.976112
0.978469
0.979338
0.969861
1.54855
2.36601
2.66183
2.82987
2.89004
2.93223
2.91475
2.8713
2.81107
2.76962
2.73497
2.70207
2.68003
2.6617
2.64428
2.6254
2.60485
2.58647
2.56989
2.5554
2.54695
2.53869
2.53802
2.53932
2.54623
2.56914
2.61773
2.66839
2.71465
2.74893
2.77014
2.7738
2.77013
2.75606
2.73283
2.70002
2.66729
2.64484
2.64605
2.65429
2.66431
2.68435
2.7222
2.7787
2.85229
2.93089
3.01344
3.0911
3.16249
3.22237
3.26074
3.28372
3.2937
3.27332
3.2405
3.18438
3.14118
3.12402
3.11165
3.07985
2.98727
2.86284
2.81369
2.80464
2.83
2.89613
2.99434
3.00077
2.87891
2.55377
0.994386
1.00144
1.01125
1.01436
1.01561
1.0151
1.01435
1.0135
1.01218
1.0089
1.00503
1.00104
0.999977
0.999855
0.99775
0.996276
0.99663
0.996856
0.996163
0.995338
0.995387
0.995774
0.996446
0.997201
0.998537
0.999601
0.999749
0.999394
0.99804
0.996003
0.995029
0.9941
0.993191
0.992792
0.992779
0.993475
0.992954
0.989807
0.988134
0.987735
0.986409
0.983418
0.983433
0.986996
0.979958
0.953857
0.936089
0.936826
0.932759
1.54757
2.42996
2.62919
2.74181
2.84657
2.90765
2.92715
2.91685
2.89851
2.87494
2.83565
2.80228
2.76722
2.73609
2.70046
2.6656
2.62174
2.59349
2.572
2.55754
2.54937
2.54083
2.53062
2.52872
2.5282
2.53816
2.56399
2.60167
2.65206
2.70281
2.738
2.75586
2.7594
2.75196
2.73209
2.69999
2.66826
2.63847
2.63426
2.63855
2.64216
2.65543
2.68623
2.73553
2.80725
2.88371
2.96997
3.05581
3.13841
3.20639
3.2473
3.27652
3.2842
3.26524
3.22635
3.17144
3.13694
3.12622
3.11485
3.07719
2.97471
2.86378
2.82577
2.8187
2.8398
2.89966
2.98536
2.97807
2.86028
2.5453
0.995407
0.999603
1.007
1.01451
1.01623
1.01555
1.01499
1.01418
1.01287
1.01006
1.0067
1.00374
1.00153
1.00025
0.999131
0.997407
0.996989
0.996734
0.995853
0.995206
0.994864
0.994809
0.99508
0.995724
0.996711
0.998334
0.999036
0.99838
0.99774
0.997939
0.998119
0.99776
0.997245
0.997909
0.999571
1.00181
1.00395
1.00618
1.00799
1.01018
1.01172
1.01358
1.01686
1.01717
1.01412
1.00683
0.99239
0.952906
1.53017
2.25818
2.43774
2.43506
2.47769
2.54251
2.58801
2.62878
2.65954
2.68205
2.70012
2.69991
2.6924
2.68528
2.68038
2.66724
2.64586
2.6087
2.5855
2.56592
2.55148
2.54223
2.53067
2.51683
2.51034
2.5101
2.51332
2.52573
2.54465
2.58152
2.63691
2.68987
2.72322
2.73577
2.73408
2.72133
2.69555
2.66616
2.63594
2.62524
2.62392
2.62332
2.63263
2.65832
2.70397
2.77013
2.84181
2.92817
3.01877
3.11121
3.18723
3.23364
3.26737
3.26919
3.25171
3.20655
3.15795
3.13377
3.12945
3.11786
3.07296
2.9624
2.86821
2.84007
2.83314
2.84881
2.90275
2.97298
2.95259
2.83536
2.53441
0.996224
0.999419
1.00382
1.0108
1.01429
1.01532
1.01503
1.01429