/*--------------------------------*- C++ -*----------------------------------*\
| =========                 |                                                 |
| \\      /  F ield         | OpenFOAM: The Open Source CFD Toolbox           |
|  \\    /   O peration     | Version:  2.2.x                                 |
|   \\  /    A nd           | Web:      www.OpenFOAM.org                      |
|    \\/     M anipulation  |                                                 |
\*---------------------------------------------------------------------------*/
FoamFile
{
    version     2.0;
    format      ascii;
    class       volVectorField;
    location    "0.45";
    object      U;
}
// * * * * * * * * * * * * * * * * * * * * * * * * * * * * * * * * * * * * * //

dimensions      [0 1 -1 0 0 0 0];

internalField   nonuniform List<vector> 
14161
(
(1.48105 -0.00596368 2.72271e-23)
(1.47365 -0.0296836 -1.95334e-22)
(1.44483 -0.0280415 -1.93687e-22)
(1.47157 -0.00656977 -3.5797e-21)
(1.49899 0.0348021 -2.60153e-21)
(1.52304 0.0713953 -6.51516e-21)
(1.54138 0.078414 -3.46188e-21)
(1.52461 0.065328 -4.67392e-21)
(1.47468 0.0486778 -5.50883e-21)
(1.44015 -0.000922208 -7.02129e-21)
(1.43055 -0.0410466 -8.2071e-21)
(1.3985 -0.0453832 -8.46173e-21)
(1.39167 -0.0396777 -8.80802e-21)
(1.39244 -0.024985 -7.7715e-21)
(1.41272 0.000321419 -8.07542e-21)
(1.43142 0.0277347 -8.342e-21)
(1.43486 0.0500041 -8.56753e-21)
(1.43788 0.0546941 -8.33264e-21)
(1.44166 0.0451192 -8.53096e-21)
(1.40529 0.0368843 -9.22034e-21)
(1.39331 0.00952938 -9.6497e-21)
(1.38189 -0.0169593 -9.58021e-21)
(1.38387 -0.0309542 -1.01051e-20)
(1.3641 -0.0258848 -1.03841e-20)
(1.37052 -0.018887 -1.08806e-20)
(1.37687 -0.00565777 -1.09566e-20)
(1.38765 0.0112254 -1.07926e-20)
(1.39996 0.0310189 -1.14518e-20)
(1.40359 0.0478641 -1.11985e-20)
(1.39981 0.0507375 -1.18534e-20)
(1.37439 0.0459097 -1.13117e-20)
(1.34907 0.0333203 -1.1997e-20)
(1.34435 0.00499429 -1.18442e-20)
(1.34051 -0.0154682 -1.17832e-20)
(1.33776 -0.0219413 -1.16719e-20)
(1.35228 -0.0209546 -1.18473e-20)
(1.37196 -0.0117121 -1.17826e-20)
(1.40044 -0.00556518 -1.18407e-20)
(1.42563 0.0036135 -1.18188e-20)
(1.45202 0.0213905 -1.20286e-20)
(1.46375 0.0430516 -1.23139e-20)
(1.47892 0.0561506 -1.21463e-20)
(1.49062 0.0647137 -1.2343e-20)
(1.49224 0.0671463 -1.23732e-20)
(1.49524 0.0673362 -1.2914e-20)
(1.50178 0.0648141 -1.20734e-20)
(1.50511 0.055952 -1.21125e-20)
(1.51861 0.0459578 -1.20443e-20)
(1.52614 0.032496 -1.09565e-20)
(1.54081 0.021535 -1.19986e-20)
(1.56731 0.0165547 -1.06089e-20)
(1.59254 0.0195623 -1.26497e-20)
(1.637 0.0112704 -4.46404e-21)
(1.4378 -0.0646994 6.26857e-21)
(0.705645 0.0733428 1.98506e-20)
(0.584255 0.115723 1.20135e-20)
(0.493284 0.0761447 2.39016e-20)
(0.442014 0.0364896 -4.16151e-21)
(0.424287 0.0165985 -9.49374e-21)
(0.41368 0.010536 1.40723e-20)
(0.40596 0.0106899 9.33839e-21)
(0.396445 0.010248 -7.98834e-21)
(0.384557 0.0116829 -5.47194e-21)
(0.369504 0.0142889 4.83474e-21)
(0.351404 0.0174951 1.24011e-20)
(0.330267 0.0203243 1.40998e-20)
(0.307397 0.0200457 1.80101e-20)
(0.284756 0.0197291 3.35646e-20)
(0.263233 0.0175268 2.80434e-20)
(0.243147 0.014196 3.17893e-20)
(0.224583 0.0095494 4.78188e-20)
(0.209651 0.00767495 1.69293e-20)
(0.199263 0.00594043 1.90735e-20)
(0.192828 0.00408211 4.5035e-20)
(0.190212 0.00247799 6.40359e-20)
(0.191041 0.000670782 5.96032e-20)
(0.195827 -0.0011458 5.5648e-20)
(0.203831 -0.0026907 4.56496e-20)
(0.21467 -0.0039137 5.75201e-20)
(0.227545 -0.00437502 8.35409e-20)
(0.241514 -0.00445705 1.14068e-19)
(0.255548 -0.00353762 1.26931e-19)
(0.268833 -0.00163372 1.2616e-19)
(0.279863 0.00135471 1.07982e-19)
(0.28837 0.00396141 9.7632e-20)
(0.294709 0.00563117 8.71971e-20)
(0.299509 0.00634649 1.08664e-19)
(0.302947 0.00699511 1.32044e-19)
(0.304766 0.00811403 1.56005e-19)
(0.303892 0.00931322 1.78215e-19)
(0.299302 0.0106819 1.98048e-19)
(0.290185 0.0116391 2.13411e-19)
(0.276595 0.0124919 2.23788e-19)
(0.259547 0.0136188 2.4912e-19)
(0.243217 0.0153186 2.63931e-19)
(0.228463 0.0171637 2.61058e-19)
(0.215146 0.0184549 2.62171e-19)
(0.203584 0.0187882 2.67945e-19)
(0.193112 0.0187662 2.61053e-19)
(0.182197 0.0181737 2.51558e-19)
(0.172096 0.0167333 2.28299e-19)
(0.160499 0.015464 1.99258e-19)
(0.145838 0.0118898 1.54794e-19)
(0.126467 0.00788271 1.24321e-19)
(0.102533 0.00571122 1.01852e-19)
(0.0887644 0.00359839 9.96141e-20)
(0.085945 0.000463419 9.05882e-20)
(0.0879583 -0.00125094 1.01023e-19)
(0.0937981 -9.23165e-05 1.0676e-19)
(0.0982095 0.00490677 4.78733e-20)
(0.0988542 0.0103573 -1.16871e-19)
(0.0946919 0.0151517 -2.88751e-19)
(0.086816 0.0209108 -4.16501e-19)
(0.0757561 0.0226705 -5.47508e-19)
(0.0638013 0.0264396 -4.00268e-19)
(0.0505893 0.0266211 -2.58131e-19)
(0.0373328 0.0296749 -4.3144e-20)
(0.0247013 0.0273796 -5.25193e-20)
(0.0154786 0.0380896 2.12057e-19)
(1.52058 -0.00396604 -1.12889e-21)
(1.53816 0.00300126 4.90105e-21)
(1.47774 0.0222493 6.42727e-21)
(1.42981 0.0295497 4.44207e-21)
(1.39124 0.00553606 1.88034e-21)
(1.35815 -0.0249796 1.54089e-21)
(1.45797 -0.0468623 1.37442e-21)
(1.48592 -0.0542687 1.70699e-21)
(1.52524 -0.0330938 2.66671e-21)
(1.56472 -0.0334021 1.88233e-21)
(1.54244 -0.00728431 3.67687e-21)
(1.50373 0.0116351 1.53478e-21)
(1.4571 0.0178568 1.50354e-21)
(1.42351 0.0227725 -1.5953e-21)
(1.37415 0.0182257 -4.65622e-21)
(1.32903 0.00171259 -5.81914e-21)
(1.33489 -0.015614 -7.17356e-21)
(1.36073 -0.0266771 -9.08408e-21)
(1.3871 -0.0349213 -8.99868e-21)
(1.42554 -0.0210016 -1.06143e-20)
(1.45939 -0.0271296 -1.02392e-20)
(1.48155 -0.00729406 -1.07906e-20)
(1.45839 -0.00102333 -1.23242e-20)
(1.42161 0.00803237 -1.26512e-20)
(1.39349 0.0140902 -1.21386e-20)
(1.34896 0.0206807 -1.27267e-20)
(1.30654 0.00665565 -1.37767e-20)
(1.26335 -0.00181143 -1.43097e-20)
(1.29182 -0.00852793 -1.52606e-20)
(1.30725 -0.0121034 -1.48582e-20)
(1.32759 -0.0159074 -1.54727e-20)
(1.36358 -0.0164214 -1.48979e-20)
(1.38893 -0.0342666 -1.48657e-20)
(1.42129 -0.0207804 -1.43509e-20)
(1.4289 -0.0086175 -1.54461e-20)
(1.42076 0.00168607 -1.46464e-20)
(1.4089 0.0117591 -1.48118e-20)
(1.38067 0.0165916 -1.45418e-20)
(1.35146 0.0177464 -1.41036e-20)
(1.33544 0.011604 -1.43839e-20)
(1.32894 0.0101097 -1.3815e-20)
(1.34742 0.00360055 -1.42546e-20)
(1.37094 -0.001389 -1.42532e-20)
(1.39635 -0.00419271 -1.42498e-20)
(1.42786 -0.00661439 -1.38695e-20)
(1.45275 -0.00865937 -1.56818e-20)
(1.47668 -0.0119468 -1.37738e-20)
(1.49556 -0.0176419 -1.34875e-20)
(1.49361 -0.0184522 -1.49319e-20)
(1.49176 -0.0215157 -1.45639e-20)
(1.48479 -0.0225836 -1.5015e-20)
(1.4743 -0.0243222 -1.45197e-20)
(1.47478 -0.0200329 -1.79196e-20)
(0.615739 -0.0109685 2.72035e-21)
(0.371935 0.0806722 -2.45887e-20)
(0.318891 0.0998624 9.83229e-21)
(0.302498 0.057408 1.38483e-19)
(0.296883 0.0208049 -2.45449e-19)
(0.294066 0.00358924 1.27094e-19)
(0.288861 0.000788122 1.95031e-19)
(0.283275 0.00421286 3.0029e-19)
(0.273551 0.0063264 -1.71753e-20)
(0.262207 0.00908922 -1.57102e-19)
(0.249457 0.0117063 1.99316e-19)
(0.237502 0.0154643 1.74153e-19)
(0.225701 0.0198169 -4.83449e-20)
(0.21286 0.0198056 -1.74519e-20)
(0.20049 0.0197813 2.61179e-19)
(0.188072 0.0173954 1.62527e-19)
(0.174978 0.0137746 8.02964e-20)
(0.160369 0.00883659 1.8284e-19)
(0.144949 0.0071845 2.8777e-19)
(0.131978 0.00417053 2.82095e-19)
(0.1232 0.000886219 2.96611e-19)
(0.117328 -0.00106314 3.83544e-19)
(0.113798 -0.00322954 4.43834e-19)
(0.11247 -0.00512357 4.5933e-19)
(0.113524 -0.00696056 4.53332e-19)
(0.116484 -0.00863361 4.15901e-19)
(0.121204 -0.00955879 4.15037e-19)
(0.127349 -0.0100813 3.93761e-19)
(0.134309 -0.00937006 4.0327e-19)
(0.141707 -0.00754099 3.97308e-19)
(0.148711 -0.00397945 3.85941e-19)
(0.154791 -0.000532963 3.88482e-19)
(0.160033 0.0021131 3.97564e-19)
(0.163774 0.00370653 3.34929e-19)
(0.165468 0.00526662 2.76256e-19)
(0.164869 0.00689999 2.52324e-19)
(0.161741 0.00853615 2.75305e-19)
(0.154997 0.0103246 3.46793e-19)
(0.143674 0.011801 3.69029e-19)
(0.127729 0.0131481 3.72056e-19)
(0.110821 0.0144208 3.70964e-19)
(0.0960343 0.0158083 3.82041e-19)
(0.084152 0.017179 2.82951e-19)
(0.0744434 0.0177593 3.18397e-19)
(0.066338 0.0167672 1.66098e-19)
(0.0590207 0.0153695 1.82476e-19)
(0.0515769 0.013389 5.34654e-20)
(0.0445341 0.0103441 -5.02407e-20)
(0.0354901 0.00699296 -1.88695e-19)
(0.0223875 0.00148602 -2.56005e-19)
(0.00201805 -0.00464016 -5.09365e-19)
(-0.0250808 -0.00725883 -5.77829e-19)
(-0.0448792 -0.00799728 -8.68344e-19)
(-0.0569161 -0.00853187 -1.05032e-18)
(-0.0647156 -0.00861198 -1.2408e-18)
(-0.0680323 -0.00578524 -1.42266e-18)
(-0.0662873 0.000173209 -1.46836e-18)
(-0.0617118 0.00588154 -1.74113e-18)
(-0.0556622 0.010509 -1.60496e-18)
(-0.0498742 0.0163082 -1.64079e-18)
(-0.0422203 0.0189395 -1.36352e-18)
(-0.0362053 0.0248874 -1.17885e-18)
(-0.0282712 0.0254637 -2.92005e-19)
(-0.0211293 0.0299075 2.15224e-21)
(-0.0125843 0.0285652 1.48298e-19)
(-0.00775132 0.0399559 1.84309e-19)
(1.42368 -0.0143002 4.5531e-22)
(1.39462 -0.0367136 -4.57075e-21)
(1.45524 -0.0221628 -5.35876e-21)
(1.58388 0.00315842 -4.44423e-21)
(1.6788 0.0180875 -1.60205e-21)
(1.69364 0.0230303 -7.05729e-22)
(1.65673 0.0217936 1.91597e-21)
(1.56565 0.0212702 2.46006e-21)
(1.46256 0.0230141 3.36483e-21)
(1.36469 0.00947259 8.41498e-22)
(1.30493 -0.0195673 4.42967e-21)
(1.31972 -0.0345837 -7.02874e-22)
(1.36093 -0.0293841 9.59198e-22)
(1.39738 -0.016417 2.26257e-21)
(1.47579 0.00125048 3.13569e-21)
(1.53254 0.0104052 3.6616e-21)
(1.53805 0.0153788 1.76257e-22)
(1.55757 0.017504 -8.74931e-22)
(1.47379 0.0151598 1.23568e-22)
(1.4242 0.0170345 -1.03962e-21)
(1.36312 0.0126734 -1.7605e-21)
(1.30488 -0.00429426 -6.55397e-21)
(1.34419 -0.0261599 -2.25025e-21)
(1.33155 -0.0253151 -5.32858e-21)
(1.37877 -0.0168268 -8.74585e-21)
(1.41611 -0.0101711 -9.28709e-21)
(1.45578 -0.00277631 -1.18028e-20)
(1.4704 0.00722342 -1.1369e-20)
(1.46322 0.0118118 -1.15973e-20)
(1.42603 0.0213964 -9.35214e-21)
(1.38818 0.0220076 -9.96659e-21)
(1.32772 0.0178506 -9.61847e-21)
(1.2945 0.00704315 -1.03053e-20)
(1.26779 -0.00048798 -8.44627e-21)
(1.29952 -0.0147812 -9.91522e-21)
(1.32696 -0.0221859 -9.65116e-21)
(1.37267 -0.0180817 -9.86477e-21)
(1.41567 -0.015929 -1.00478e-20)
(1.48036 -0.0109611 -9.58292e-21)
(1.53339 -0.00196171 -1.0852e-20)
(1.57065 0.000804277 -1.03145e-20)
(1.58307 0.00689111 -9.16075e-21)
(1.58657 0.0107803 -9.89446e-21)
(1.55856 0.0184852 -9.86032e-21)
(1.53657 0.0201591 -9.75441e-21)
(1.52101 0.0288843 -7.22802e-21)
(1.50976 0.0272117 -6.31992e-21)
(1.50308 0.0234501 -3.08784e-21)
(1.52047 0.0177751 -2.77461e-21)
(1.53738 0.0104485 -1.56386e-21)
(1.55528 0.00621727 -3.38698e-21)
(1.57031 -0.00127011 -1.51823e-21)
(1.61181 0.011765 -4.54081e-21)
(1.30578 0.111531 -1.56383e-20)
(0.604862 0.128394 -3.00287e-20)
(0.537486 0.1127 -2.32118e-20)
(0.513567 0.0669369 2.03743e-20)
(0.504108 0.0306761 -1.41935e-20)
(0.503617 0.0168508 2.65364e-21)
(0.497581 0.0170836 4.09296e-21)
(0.488045 0.0229712 8.52896e-21)
(0.473109 0.0245186 8.61769e-20)
(0.455113 0.0267561 -5.61376e-20)
(0.435383 0.0274884 -4.05204e-20)
(0.414863 0.0302608 1.96582e-19)
(0.394772 0.035098 2.90497e-20)
(0.374895 0.0339278 -3.96141e-20)
(0.357269 0.0332583 1.58931e-19)
(0.340762 0.0299002 8.1595e-20)
(0.324939 0.0257554 5.4534e-20)
(0.30924 0.0205729 1.07634e-19)
(0.293039 0.0189216 1.7615e-19)
(0.278906 0.0142702 1.3535e-19)
(0.268013 0.00921232 8.1792e-20)
(0.25905 0.0060675 1.80524e-19)
(0.252867 0.00241188 2.3166e-19)
(0.248903 -0.00061697 1.72315e-19)
(0.247378 -0.0038914 1.83247e-19)
(0.248263 -0.00710915 1.91737e-19)
(0.251241 -0.00928334 2.39035e-19)
(0.255986 -0.0117035 2.37325e-19)
(0.262152 -0.0129845 2.81473e-19)
(0.269071 -0.0129478 2.76423e-19)
(0.275781 -0.0102294 2.62491e-19)
(0.282104 -0.00692822 2.21741e-19)
(0.287725 -0.00358385 2.04591e-19)
(0.292171 -0.000382678 2.1379e-19)
(0.295243 0.0029933 1.7421e-19)
(0.296627 0.00616526 2.06209e-19)
(0.295852 0.00908469 2.0706e-19)
(0.291425 0.012208 2.20627e-19)
(0.282963 0.014795 2.39185e-19)
(0.270461 0.0171043 2.34241e-19)
(0.254487 0.0188846 2.43188e-19)
(0.239452 0.0204924 1.80852e-19)
(0.226818 0.0219805 2.46079e-19)
(0.215866 0.0222409 1.76839e-19)
(0.206678 0.0208037 2.12089e-19)
(0.198638 0.0185069 2.09691e-19)
(0.190388 0.0161855 2.88475e-19)
(0.180902 0.012763 3.00517e-19)
(0.169119 0.00944016 3.59092e-19)
(0.152231 0.00491041 4.55581e-19)
(0.126703 0.00060585 5.47467e-19)
(0.0937843 -0.00109297 6.56558e-19)
(0.0633419 -0.00120424 5.14658e-19)
(0.0402867 0.000201543 2.67662e-19)
(0.0223986 0.00294386 -3.22078e-19)
(0.00873702 0.00620915 -6.42061e-19)
(-0.00116829 0.0112353 -1.47569e-18)
(-0.00772172 0.0168425 -1.96551e-18)
(-0.0125397 0.0209104 -2.62282e-18)
(-0.0136602 0.0270255 -2.45026e-18)
(-0.0149465 0.0274729 -2.74806e-18)
(-0.0141181 0.0325911 -2.14023e-18)
(-0.0107977 0.0326847 -1.98121e-18)
(-0.00832315 0.0384765 -6.2734e-19)
(-0.00475146 0.0367784 -8.25681e-19)
(-0.00235597 0.0479981 -1.95953e-19)
(1.59002 0.000918918 -3.83643e-21)
(1.64279 0.000612159 -6.72898e-21)
(1.54033 0.0134258 -5.96901e-21)
(1.40859 0.0192262 -6.01082e-22)
(1.30371 0.00637498 4.66876e-21)
(1.3741 0.00179273 6.7922e-21)
(1.47178 -0.0139902 7.09764e-21)
(1.49955 -0.0252216 7.44832e-21)
(1.5622 -0.0141811 7.00594e-21)
(1.64221 -0.00488795 3.46709e-21)
(1.64348 -0.0015617 5.79712e-22)
(1.58097 -0.000957603 1.53772e-21)
(1.50052 0.00202545 2.99732e-21)
(1.43388 0.00746435 4.59614e-21)
(1.33783 0.0138328 1.1389e-20)
(1.27204 0.00648342 1.6308e-20)
(1.26286 -0.00532216 9.77562e-21)
(1.34723 -0.0135266 1.34287e-20)
(1.38626 -0.0179354 3.50482e-21)
(1.45738 -0.0110389 5.71097e-21)
(1.54578 -0.00365285 8.30717e-21)
(1.59113 -0.00163318 5.08021e-21)
(1.55972 -0.00457257 6.46901e-21)
(1.48047 -0.000312727 9.57363e-21)
(1.43023 0.00457444 1.25162e-20)
(1.34429 0.00846593 1.01674e-20)
(1.25666 0.00870671 1.54136e-20)
(1.20433 0.00524963 2.31818e-20)
(1.20982 -0.0045846 2.55463e-20)
(1.2594 -0.00038596 1.7129e-20)
(1.30251 0.00289974 1.57202e-20)
(1.36397 -0.00514731 1.4734e-20)
(1.44582 -0.0101784 1.12043e-20)
(1.50038 -0.00775727 1.19341e-20)
(1.51986 -0.00901445 1.02795e-20)
(1.50499 -0.0113757 1.02999e-20)
(1.45431 -0.00626479 1.0741e-20)
(1.39958 -0.00408484 1.14553e-20)
(1.34621 0.00546888 1.30241e-20)
(1.31447 0.0128045 1.35909e-20)
(1.29581 0.00605489 1.3651e-20)
(1.31534 0.0116524 1.65413e-20)
(1.34114 0.0164223 1.47421e-20)
(1.39583 0.0232776 1.4703e-20)
(1.4314 0.0252326 1.37123e-20)
(1.48996 0.016219 1.16268e-20)
(1.53652 0.0151719 1.35698e-20)
(1.56199 0.0163255 9.34247e-21)
(1.58422 0.0157601 7.88444e-21)
(1.59812 0.0135291 1.13979e-20)
(1.60342 0.0111489 1.06394e-20)
(1.59812 0.00824962 1.17239e-20)
(1.62036 0.0262674 4.52659e-21)
(1.17931 0.155334 -1.86685e-20)
(0.560381 0.220745 -3.67242e-20)
(0.512895 0.16005 -3.11267e-21)
(0.495415 0.0839331 6.28335e-20)
(0.489541 0.040812 2.62571e-20)
(0.494881 0.0257529 4.67299e-20)
(0.495618 0.0299012 6.4337e-20)
(0.493265 0.0409856 7.4747e-20)
(0.482979 0.04675 1.22947e-19)
(0.469076 0.0525882 6.96408e-20)
(0.452261 0.0537293 8.98779e-20)
(0.433604 0.0570257 1.7342e-20)
(0.414154 0.0610655 1.82608e-20)
(0.393479 0.0617381 8.26342e-20)
(0.372315 0.0568452 2.79712e-20)
(0.352997 0.0511025 1.18104e-19)
(0.333944 0.0460297 6.90937e-20)
(0.314803 0.0381132 1.96149e-20)
(0.294449 0.0334213 1.81458e-19)
(0.275226 0.0267828 1.37482e-19)
(0.257835 0.0207672 8.44406e-20)
(0.242736 0.0171281 2.79583e-19)
(0.231259 0.0122396 2.55266e-19)
(0.223536 0.0087675 2.21144e-19)
(0.219408 0.00564844 2.86611e-19)
(0.218459 0.00149563 2.79311e-19)
(0.220706 -0.00218936 2.25344e-19)
(0.225243 -0.00581684 2.35264e-19)
(0.231919 -0.00776717 3.32339e-19)
(0.239506 -0.00835923 2.40804e-19)
(0.246697 -0.00539941 1.60569e-19)
(0.252968 -0.00206914 1.46697e-19)
(0.258654 0.00129778 1.92885e-19)
(0.26344 0.00473713 1.16157e-19)
(0.266721 0.00836759 2.04487e-19)
(0.269244 0.0116267 1.61498e-19)
(0.268932 0.0161509 9.9551e-20)
(0.26599 0.0224652 1.39188e-19)
(0.257651 0.0274485 2.03681e-19)
(0.244837 0.0317895 2.56386e-19)
(0.227793 0.0350634 2.66409e-19)
(0.210598 0.0370265 1.69801e-19)
(0.194591 0.0383848 2.32043e-19)
(0.179676 0.037713 1.46189e-19)
(0.165976 0.0355482 1.992e-19)
(0.153602 0.0313302 1.12767e-19)
(0.141769 0.0266278 1.56403e-19)
(0.131388 0.0215701 8.46888e-20)
(0.120749 0.0165329 1.60337e-19)
(0.108929 0.0105668 1.49737e-19)
(0.0925786 0.0056187 2.5448e-19)
(0.0710312 0.00333736 2.81681e-19)
(0.0505917 0.00399576 4.49804e-19)
(0.0328731 0.00808678 2.17445e-19)
(0.0179634 0.0135493 3.03677e-19)
(0.00574175 0.0177891 -2.69446e-19)
(-0.0040344 0.022138 -2.14732e-19)
(-0.0109377 0.0277114 -1.83663e-18)
(-0.0162831 0.0315274 -1.57569e-18)
(-0.0169819 0.0381879 -3.27045e-18)
(-0.0179846 0.0391969 -3.0893e-18)
(-0.0161306 0.0453116 -3.73589e-18)
(-0.0142392 0.0428761 -2.73992e-18)
(-0.0104915 0.0511644 -1.5453e-18)
(-0.00650365 0.0469458 -8.25815e-19)
(-0.0029808 0.0587897 2.77069e-18)
(1.3709 -0.0122999 1.39388e-20)
(1.31125 -0.03577 3.32462e-20)
(1.49211 -0.019692 3.41157e-20)
(1.67016 0.00589499 2.52005e-20)
(1.78663 0.0111981 6.66255e-21)
(1.80759 0.0138975 8.96679e-21)
(1.79096 0.00927948 1.86968e-21)
(1.63427 0.00736763 2.28512e-21)
(1.51095 0.011045 1.21124e-20)
(1.35794 0.0118019 2.74619e-20)
(1.24795 -0.00255032 2.17485e-20)
(1.27624 -0.0252591 4.70189e-20)
(1.32521 -0.027482 3.86962e-20)
(1.39271 -0.0184666 3.125e-20)
(1.50967 -0.00413281 1.39707e-20)
(1.59811 -0.000265671 4.71748e-21)
(1.62238 0.00284618 7.3309e-21)
(1.64837 0.00472784 6.33944e-21)
(1.53271 0.00692307 8.97191e-21)
(1.47093 0.0113159 5.95667e-21)
(1.37767 0.0144617 1.47468e-20)
(1.30568 0.00846941 1.99912e-20)
(1.31701 -0.010384 2.17008e-20)
(1.30269 -0.0251809 2.38396e-20)
(1.36741 -0.0221358 2.88654e-20)
(1.41849 -0.0153475 2.9197e-20)
(1.48888 -0.00826082 2.3786e-20)
(1.52361 -0.0025793 1.91828e-20)
(1.5198 -0.000333381 1.71773e-20)
(1.4955 0.00726021 2.32125e-20)
(1.45325 0.00971325 2.33547e-20)
(1.3388 0.0119334 2.39804e-20)
(1.27883 0.0140258 2.76664e-20)
(1.24622 0.0137891 2.73352e-20)
(1.24667 0.0086674 3.00764e-20)
(1.26754 -0.00957507 3.17512e-20)
(1.33475 -0.0156198 3.07857e-20)
(1.38186 -0.0163732 2.95003e-20)
(1.46686 -0.016392 2.79415e-20)
(1.53 -0.0345178 2.66811e-20)
(1.58455 -0.0325119 2.65676e-20)
(1.61601 -0.0180808 2.33215e-20)
(1.63994 -0.0145247 2.21175e-20)
(1.60505 -0.00922915 2.14212e-20)
(1.57444 -0.00779811 2.1978e-20)
(1.55469 0.000506896 2.34748e-20)
(1.53328 0.00407696 2.40775e-20)
(1.52095 0.00745966 2.89628e-20)
(1.52435 0.00851979 2.35181e-20)
(1.53478 0.0074145 2.42924e-20)
(1.54904 0.00328843 2.41949e-20)
(1.55889 -0.00408412 2.83119e-20)
(1.58896 0.00786855 2.5964e-20)
(1.52448 0.176664 -5.59649e-21)
(0.714245 0.278822 -2.65077e-20)
(0.621598 0.182096 -1.94623e-20)
(0.589764 0.0780374 8.71071e-21)
(0.597979 0.0218711 1.74325e-20)
(0.62435 0.0114019 6.29262e-21)
(0.635897 0.0197291 -2.41191e-23)
(0.643923 0.0372162 3.58982e-21)
(0.635475 0.0502936 4.61417e-20)
(0.617923 0.0651708 6.81596e-21)
(0.589023 0.0726979 6.45629e-20)
(0.553631 0.0854625 5.61523e-20)
(0.513767 0.0927501 1.65421e-20)
(0.470693 0.0917942 1.53744e-19)
(0.429488 0.0832047 -2.40092e-20)
(0.390559 0.0785613 1.42364e-19)
(0.352611 0.0773072 6.06999e-20)
(0.317102 0.0707292 6.3483e-20)
(0.28807 0.0548674 1.3558e-19)
(0.265721 0.0443686 1.4175e-19)
(0.247126 0.0371539 9.63642e-20)
(0.230769 0.0316693 1.4763e-19)
(0.217312 0.023819 1.79001e-19)
(0.205566 0.0168585 4.1063e-19)
(0.196739 0.0103692 3.21177e-19)
(0.190999 0.00391592 2.71654e-19)
(0.18914 -0.000643807 4.81964e-19)
(0.189582 -0.00489517 5.17309e-19)
(0.192798 -0.0073362 3.84943e-19)
(0.198925 -0.00712632 4.80714e-19)
(0.204388 -0.00505768 3.64278e-19)
(0.209181 -0.00217399 3.8269e-19)
(0.212697 0.00182175 2.10124e-19)
(0.2167 0.00573055 1.20504e-19)
(0.218822 0.0101365 2.39076e-20)
(0.221094 0.013983 3.89666e-21)
(0.219384 0.0182767 1.254e-22)
(0.216858 0.0232812 9.26194e-20)
(0.210445 0.0284875 3.4779e-19)
(0.200842 0.0339018 3.75558e-19)
(0.189697 0.0381871 4.30364e-19)
(0.179716 0.0423743 2.98718e-19)
(0.171856 0.0463847 3.17392e-19)
(0.163639 0.0482154 9.13915e-20)
(0.155112 0.0467248 9.55669e-20)
(0.146922 0.0423265 -6.40427e-20)
(0.137449 0.0360854 -1.10693e-19)
(0.12931 0.0284313 -2.95351e-19)
(0.12027 0.0193466 -2.36099e-19)
(0.108724 0.00958841 -3.49825e-19)
(0.091497 0.00262948 -9.33836e-20)
(0.0690225 0.00117783 -2.92163e-20)
(0.0465579 0.00531711 2.80115e-19)
(0.027173 0.0135341 9.20002e-20)
(0.0129547 0.0221536 4.88814e-19)
(0.00212564 0.0279386 2.34892e-20)
(-0.00597299 0.0325176 2.74792e-19)
(-0.010773 0.0384389 -5.02274e-20)
(-0.0146649 0.0406574 -8.18003e-19)
(-0.0139101 0.0468315 -1.46421e-18)
(-0.0133162 0.0481364 -3.78616e-18)
(-0.0115922 0.0561082 -2.96163e-18)
(-0.00955714 0.0532043 -3.8462e-18)
(-0.00653639 0.0630063 -4.65302e-18)
(-0.00327366 0.0557059 -2.20997e-18)
(-0.000263254 0.0684913 -1.3045e-18)
(1.63465 0.0018579 -6.37356e-21)
(1.69428 -0.00240827 -2.45411e-20)
(1.58649 0.00642519 -2.69338e-20)
(1.41656 0.0175354 -1.62165e-20)
(1.26136 0.0133991 9.41244e-23)
(1.35842 0.0121894 -2.45077e-21)
(1.45418 -0.00120331 -1.09485e-20)
(1.48876 -0.0135798 1.71063e-20)
(1.56614 -0.011514 1.25444e-21)
(1.68144 -0.0040751 -6.2261e-21)
(1.67741 0.000203113 -2.38576e-21)
(1.62328 0.000381644 -1.22216e-20)
(1.51125 0.000903203 -6.09942e-21)
(1.43995 -0.00137877 1.0923e-20)
(1.33485 0.00805543 1.35574e-20)
(1.2542 0.00522702 3.42709e-20)
(1.24479 -0.00625021 8.82563e-21)
(1.32847 -0.018418 3.64328e-20)
(1.38214 -0.0149317 2.52298e-20)
(1.45652 -0.0119914 1.86093e-20)
(1.57557 -0.00460766 1.59343e-20)
(1.63387 -0.00480436 1.27172e-20)
(1.65153 0.000897538 2.30653e-20)
(1.53955 -0.0013818 2.37509e-20)
(1.47816 0.000750606 2.70411e-20)
(1.37145 0.00703735 3.03053e-20)
(1.25719 0.0185601 3.27045e-20)
(1.17865 0.0131782 3.72145e-20)
(1.13748 0.00541967 3.82604e-20)
(1.20978 -0.00404958 3.30241e-20)
(1.25875 -0.0108474 3.2978e-20)
(1.31554 -0.0112564 2.94097e-20)
(1.4088 -0.0107698 2.9318e-20)
(1.4916 -0.02269 2.61153e-20)
(1.54209 -0.0193249 2.39132e-20)
(1.57437 -0.0219355 2.55836e-20)
(1.54342 -0.0144014 2.41246e-20)
(1.49273 -0.0139366 2.30626e-20)
(1.45819 -0.011499 2.17761e-20)
(1.39882 -0.00392835 2.04602e-20)
(1.3701 0.0117612 2.05232e-20)
(1.35606 0.0218587 1.95852e-20)
(1.36919 0.0281413 2.36841e-20)
(1.39844 0.0230489 2.15125e-20)
(1.41609 0.0166387 2.21216e-20)
(1.49022 0.00441294 2.13361e-20)
(1.5329 0.00790991 1.9696e-20)
(1.58154 0.010969 2.53258e-20)
(1.61547 0.0127724 2.3991e-20)
(1.64515 0.0166128 2.70042e-20)
(1.66881 0.0181667 2.54872e-20)
(1.67585 0.0187828 1.64673e-20)
(1.683 0.0272196 1.95013e-20)
(1.67415 0.145063 2.2712e-20)
(0.928214 0.391149 3.69438e-20)
(0.724247 0.186127 2.64353e-20)
(0.684248 0.0576965 3.56501e-20)
(0.716804 0.0129647 3.90344e-20)
(0.744508 0.0186624 3.30516e-20)
(0.763126 0.0383246 3.01303e-20)
(0.775973 0.0667764 -2.64123e-20)
(0.779102 0.0943863 -1.4679e-20)
(0.775991 0.114665 5.79371e-20)
(0.755687 0.130912 6.36234e-20)
(0.732745 0.148618 9.28044e-20)
(0.704669 0.157726 8.74331e-20)
(0.668354 0.15395 1.38813e-19)
(0.620756 0.13564 1.05551e-19)
(0.555378 0.13074 1.32938e-19)
(0.489979 0.130479 8.4656e-20)
(0.428983 0.119635 8.38505e-20)
(0.37774 0.102009 8.8538e-20)
(0.333999 0.0827225 1.22707e-19)
(0.295954 0.0680017 1.60686e-19)
(0.263814 0.0571727 1.23419e-19)
(0.236864 0.0461487 1.69286e-19)
(0.213828 0.0378445 2.83037e-19)
(0.199668 0.0232603 2.60259e-19)
(0.192468 0.0152292 3.40883e-19)
(0.18982 0.00942244 5.2053e-19)
(0.18944 0.00412934 5.38529e-19)
(0.190252 -0.00208853 5.79414e-19)
(0.193897 -0.00469885 5.75855e-19)
(0.198552 -0.00367007 6.05177e-19)
(0.202538 -0.00196859 5.27536e-19)
(0.20644 0.00130275 3.1189e-19)
(0.210859 0.00595213 3.16736e-22)
(0.213203 0.011205 -2.07145e-19)
(0.215147 0.0162165 -3.05794e-19)
(0.215292 0.0207223 -2.76789e-19)
(0.21369 0.0263015 -2.1357e-19)
(0.208639 0.032148 6.43355e-20)
(0.200385 0.0365432 3.69919e-19)
(0.189967 0.0419175 4.82597e-19)
(0.180431 0.0476549 3.72314e-19)
(0.173043 0.0530801 3.15523e-19)
(0.166393 0.0574423 4.10969e-20)
(0.158988 0.0565023 -1.36511e-19)
(0.152031 0.0512018 -3.6438e-19)
(0.142458 0.0437772 -4.95472e-19)
(0.133634 0.0335648 -6.49043e-19)
(0.123231 0.0220149 -7.68931e-19)
(0.109805 0.0112127 -7.7537e-19)
(0.0911322 0.00462664 -6.55033e-19)
(0.0671945 0.00414554 -4.21983e-19)
(0.0427204 0.01054 -3.91859e-19)
(0.0227606 0.0210187 -2.9808e-19)
(0.00898629 0.030629 -4.06115e-19)
(-0.000402477 0.0375117 -3.05153e-19)
(-0.00786283 0.0420031 -3.60102e-19)
(-0.0115661 0.0481644 -1.63531e-19)
(-0.0150854 0.0497833 -1.10419e-18)
(-0.0146089 0.0552533 -8.46595e-19)
(-0.0111404 0.0573612 -2.18128e-18)
(-0.00973371 0.066631 -3.09137e-18)
(-0.00761368 0.0644083 -2.38922e-18)
(-0.00373285 0.0755509 1.18244e-19)
(0.000165509 0.0645775 8.91748e-19)
(0.0032754 0.0796323 -4.07142e-18)
(1.34374 -0.00655344 4.23471e-20)
(1.25878 -0.0279306 6.2208e-20)
(1.51164 -0.0151066 7.00537e-20)
(1.70439 0.0036637 3.55259e-20)
(1.82891 0.00599598 1.29752e-20)
(1.82964 0.0103977 1.81543e-20)
(1.85536 0.007071 -1.19557e-20)
(1.66884 0.00933186 5.31993e-22)
(1.5453 0.00714271 5.52479e-21)
(1.37301 0.00854173 2.71589e-20)
(1.24069 0.00117605 4.95498e-20)
(1.2368 -0.0139976 5.9737e-20)
(1.28281 -0.0295878 6.22961e-20)
(1.37222 -0.0335632 3.37798e-20)
(1.50509 -0.016757 1.72501e-20)
(1.63378 -0.0119312 8.48483e-21)
(1.67829 -0.00499652 3.10446e-20)
(1.69252 -0.000654384 2.20536e-20)
(1.60484 0.00455322 2.55685e-20)
(1.51706 0.00687149 3.17811e-20)
(1.41853 0.0106117 3.08845e-20)
(1.33473 0.0139703 3.2668e-20)
(1.27602 0.00462059 2.43129e-20)
(1.29771 -0.0172817 3.17277e-20)
(1.30835 -0.0294073 5.22622e-21)
(1.38824 -0.0284656 2.37374e-21)
(1.46431 -0.0210948 4.40965e-21)
(1.53663 -0.0169813 1.94057e-20)
(1.58063 -0.00577892 1.29905e-20)
(1.54729 -0.00299074 1.04428e-20)
(1.52648 -0.000219806 1.2366e-20)
(1.42434 -0.000534885 1.01611e-20)
(1.37365 0.00124298 6.30489e-21)
(1.28879 0.0100445 1.60538e-21)
(1.25644 0.0195732 -3.72359e-21)
(1.24463 0.0118893 -7.84921e-21)
(1.26378 0.00670858 -1.39078e-20)
(1.30787 -0.0166195 -8.31094e-21)
(1.36172 -0.0264148 -5.81836e-21)
(1.41394 -0.0225967 -3.30413e-21)
(1.48601 -0.0216501 2.845e-21)
(1.53479 -0.0398873 1.0821e-21)
(1.57783 -0.0533937 8.77441e-21)
(1.58425 -0.0557375 -3.1149e-21)
(1.5921 -0.0546849 5.69022e-21)
(1.58333 -0.0377921 6.99151e-21)
(1.5723 -0.0205995 -2.83962e-21)
(1.5679 -0.01303 -1.12642e-20)
(1.56479 -0.0065567 -1.20997e-20)
(1.56683 -0.000948009 -1.87323e-20)
(1.58274 0.00443415 -1.72603e-20)
(1.59476 0.00722626 -2.6655e-20)
(1.61344 0.0130791 -1.31419e-20)
(1.62377 0.0747232 4.69222e-20)
(1.38407 0.327107 2.00266e-19)
(0.768116 0.172495 4.24225e-19)
(0.835265 0.022234 4.61488e-19)
(0.885741 -0.0188799 4.58912e-19)
(0.907172 -0.0115503 4.42392e-19)
(0.91474 0.00573477 3.93174e-19)
(0.915377 0.032591 3.2068e-19)
(0.924942 0.0704659 2.97484e-19)
(0.922048 0.110741 3.03564e-19)
(0.916863 0.145633 3.19648e-19)
(0.913032 0.168415 3.67128e-19)
(0.901357 0.188531 3.74678e-19)
(0.890759 0.206296 4.02163e-19)
(0.869663 0.221305 4.25614e-19)
(0.813864 0.221609 3.71468e-19)
(0.757829 0.213578 4.01915e-19)
(0.693814 0.194944 3.00792e-19)
(0.62065 0.163945 2.35177e-19)
(0.544935 0.139088 1.69778e-19)
(0.480083 0.113699 2.04407e-19)
(0.422381 0.0977056 1.24342e-19)
(0.373732 0.0802554 2.51859e-19)
(0.33251 0.0604838 2.05036e-19)
(0.299569 0.0424355 4.00514e-19)
(0.273505 0.030994 2.9156e-19)
(0.252367 0.0229435 5.48264e-19)
(0.234957 0.0151295 4.87269e-19)
(0.22482 0.00622728 6.29701e-19)
(0.220869 0.00148059 6.59344e-19)
(0.220136 0.000985598 6.57919e-19)
(0.221344 0.000550258 7.27462e-19)
(0.223775 0.00162193 4.14653e-19)
(0.227172 0.00440928 1.68178e-19)
(0.230366 0.0105043 8.73036e-20)
(0.231565 0.016117 -2.25369e-19)
(0.231386 0.0224199 -9.40706e-20)
(0.2283 0.0290216 -1.98466e-19)
(0.222783 0.0351015 5.30432e-20)
(0.212875 0.0392053 4.23708e-19)
(0.203182 0.0455298 6.65898e-19)
(0.193088 0.0512309 6.412e-19)
(0.185511 0.0571814 4.08811e-19)
(0.178458 0.0618234 8.16579e-20)
(0.170846 0.0623254 -5.32254e-19)
(0.162797 0.0587376 -8.27675e-19)
(0.151889 0.0520412 -1.11323e-18)
(0.140348 0.0423872 -1.49555e-18)
(0.12698 0.0293872 -1.54338e-18)
(0.111553 0.016818 -1.64829e-18)
(0.0918366 0.00999178 -1.26699e-18)
(0.0681 0.010132 -1.289e-18)
(0.0439275 0.018359 -1.1181e-18)
(0.024087 0.0302299 -1.34877e-18)
(0.010025 0.0399398 -1.40774e-18)
(0.00122028 0.0472456 -1.20566e-18)
(-0.0060959 0.0515043 -1.46089e-18)
(-0.00935339 0.0577976 -9.7443e-19)
(-0.0128386 0.0589264 -9.09208e-19)
(-0.0124021 0.0637092 -2.35611e-18)
(-0.00994621 0.0661008 -1.16789e-18)
(-0.00798535 0.0756916 -2.73297e-18)
(-0.00570228 0.074846 -6.3812e-19)
(-0.00143385 0.0868544 1.81573e-18)
(0.00205686 0.0736955 1.94609e-18)
(0.00606764 0.0915431 -3.19805e-18)
(1.66032 0.0035804 -2.89707e-21)
(1.71876 0.000509759 -2.18556e-20)
(1.62573 0.00478772 -2.7189e-20)
(1.44179 0.0149613 -3.71446e-20)
(1.27893 0.0140601 -3.4034e-20)
(1.32731 0.00773041 -5.11459e-20)
(1.42959 -0.01583 -1.46446e-20)
(1.45959 -0.00937956 -4.54057e-20)
(1.53622 -0.0126215 -3.65996e-20)
(1.68767 -0.0061754 -1.69964e-20)
(1.71618 0.000341669 -1.72487e-20)
(1.62423 0.00928282 1.31616e-20)
(1.54737 0.00128334 2.00076e-20)
(1.47867 -0.00958355 2.9687e-20)
(1.40174 -0.0058903 2.45546e-20)
(1.30383 -0.00191817 3.11476e-21)
(1.26259 -0.00966695 7.08448e-21)
(1.3033 -0.0299974 -4.84642e-21)
(1.39006 -0.0309296 -1.21831e-20)
(1.44449 -0.0218467 4.58141e-21)
(1.55885 -0.0159276 -6.14125e-22)
(1.66003 -0.00209394 4.79051e-23)
(1.70822 0.00714335 3.1302e-20)
(1.60825 0.0103195 1.7348e-20)
(1.53452 0.00746302 1.43947e-20)
(1.45357 0.000908156 -6.72152e-21)
(1.34425 0.00769753 -3.30966e-20)
(1.2263 0.0195616 -6.31464e-20)
(1.1423 0.017733 -9.76741e-20)
(1.14993 -0.000373167 -1.09025e-19)
(1.20828 -0.0229047 -1.01684e-19)
(1.25398 -0.0349272 -9.6641e-20)
(1.32841 -0.0244332 -8.51675e-20)
(1.4166 -0.0286114 -6.68676e-20)
(1.51371 -0.0298822 -5.84535e-20)
(1.58129 -0.026842 -3.93429e-20)
(1.61761 -0.0256545 -2.95074e-20)
(1.63773 -0.0266671 -2.25905e-20)
(1.59575 -0.0220213 -4.2872e-20)