/*--------------------------------*- C++ -*----------------------------------*\
| =========                 |                                                 |
| \\      /  F ield         | OpenFOAM: The Open Source CFD Toolbox           |
|  \\    /   O peration     | Version:  2.2.x                                 |
|   \\  /    A nd           | Web:      www.OpenFOAM.org                      |
|    \\/     M anipulation  |                                                 |
\*---------------------------------------------------------------------------*/
FoamFile
{
    version     2.0;
    format      ascii;
    class       surfaceScalarField;
    location    "0.8";
    object      cfmax;
}
// * * * * * * * * * * * * * * * * * * * * * * * * * * * * * * * * * * * * * //

dimensions      [0 3 -1 0 0 0 0];

internalField   nonuniform List<scalar> 
28084
(
0.00124842
0.00124194
0.00123765
0.00123375
0.00123079
0.00122845
0.0012268
0.00122575
0.00122526
0.00122532
0.00122583
0.00122675
0.00122806
0.00122972
0.00123162
0.00123374
0.00123612
0.00123857
0.00124112
0.00124374
0.00124641
0.00124904
0.00125163
0.00125413
0.0012565
0.00125873
0.00126081
0.00126272
0.00126445
0.00126597
0.00126727
0.00126835
0.00126918
0.00126976
0.0012701
0.00127016
0.00126998
0.00126957
0.00126891
0.00126787
0.00126655
0.00126506
0.00126334
0.00126138
0.00125904
0.0012742
0.00128987
0.00130632
0.00132325
0.00134149
0.00136152
0.00138557
0.00139776
0.00103942
0.000994617
0.000999522
0.00100786
0.00101759
0.00103116
0.00104519
0.00106083
0.00107742
0.00109446
0.00111582
0.00113363
0.00114871
0.00116277
0.00117647
0.00118889
0.00119755
0.00120126
0.00120354
0.00119463
0.00117353
0.00114822
0.00112893
0.00111149
0.00108542
0.00103135
0.000961868
0.000892051
0.000822789
0.000774529
0.000736319
0.000702858
0.000678106
0.00065915
0.000642083
0.000631525
0.000626406
0.000623457
0.000621944
0.000621411
0.000621597
0.00062177
0.000621308
0.000620574
0.000620147
0.000620176
0.000620785
0.000622022
0.000623927
0.000626461
0.00063004
0.000634424
0.000639889
0.000645928
0.000652745
0.000659877
0.000667507
0.000675378
0.000683513
0.00069218
0.000701242
0.000710585
0.00072062
0.000730475
0.000745177
0.00360569
0.00359603
0.00125431
0.00358412
0.00125163
0.0035634
0.00125111
0.00353581
0.00125092
0.00350113
0.00125164
0.00345975
0.00125294
0.0034119
0.0012549
0.00335797
0.00125741
0.00329841
0.00126042
0.00323385
0.00126393
0.00316479
0.0012679
0.00309143
0.0012722
0.0030143
0.00127688
0.00293376
0.00128177
0.0028504
0.00128686
0.00276481
0.00129211
0.00267732
0.00129756
0.00258843
0.00130301
0.00249864
0.00130846
0.0024084
0.0013139
0.00231809
0.00131932
0.00222803
0.00132466
0.00213861
0.00132982
0.0020501
0.00133479
0.0019628
0.00133954
0.00187698
0.00134403
0.00179286
0.00134827
0.00171064
0.00135223
0.00163051
0.00135593
0.00155257
0.00135933
0.00147697
0.0013624
0.00140377
0.00136516
0.00133303
0.00136757
0.0012648
0.00136963
0.00119911
0.00137134
0.00113601
0.00137265
0.00107577
0.00137362
0.0010181
0.00137431
0.000962902
0.00137471
0.000910155
0.00137464
0.000859876
0.00137413
0.000812035
0.00137341
0.000766486
0.00137243
0.000723212
0.00137113
0.000731375
0.00136954
0.000731694
0.00138421
0.00073211
0.00139948
0.000732961
0.00141561
0.000733787
0.0014329
0.000738123
0.00145234
0.000748724
0.00147246
0.000826129
0.00150009
0.000703514
0.00127706
0.000600716
0.000951948
0.000592995
0.000924409
0.000592648
0.000935131
0.00059713
0.000956645
0.000605854
0.000978585
0.000612847
0.00100558
0.000620062
0.00103302
0.000626746
0.00105883
0.0006337
0.00108367
0.000641716
0.00111067
0.000648743
0.00113671
0.000651934
0.00115945
0.000654856
0.00117918
0.000659631
0.00119515
0.000663457
0.00120847
0.000664823
0.00122021
0.000665777
0.00123277
0.000667892
0.00123892
0.000667488
0.00123611
0.000660165
0.00120487
0.000658568
0.00117841
0.000654759
0.00116083
0.000650064
0.00113807
0.000633679
0.00109557
0.000637448
0.00105192
0.000639094
0.00101669
0.000619697
0.000966669
0.000600252
0.000915294
0.000574929
0.000866396
0.000559552
0.000818087
0.000548984
0.000778023
0.000540557
0.000744305
0.000535746
0.000718732
0.000532909
0.000699787
0.000531708
0.000685493
0.000532003
0.000673705
0.000534368
0.000665151
0.000539809
0.000658539
0.000545731
0.000653159
0.00055138
0.000649137
0.000556149
0.000645821
0.000560844
0.000643595
0.0005659
0.000642217
0.000571174
0.000641153
0.00057659
0.000640598
0.000582399
0.000640463
0.000588135
0.000640635
0.000593993
0.000641201
0.000599768
0.000642387
0.000605742
0.00064432
0.00061156
0.000647131
0.000617539
0.000650803
0.000623479
0.000655512
0.000629765
0.000660871
0.000636468
0.000667052
0.000643253
0.00067388
0.000650299
0.000681422
0.000657383
0.000689436
0.000663746
0.000697889
0.000670662
0.000706387
0.000677046
0.00071546
0.00068371
0.000724054
0.000689317
0.000733938
0.000693665
0.00074205
0.000705051
0.000752362
0.00360678
0.00359666
0.00126216
0.00358433
0.00126324
0.0035632
0.00126644
0.00353522
0.00126992
0.00350016
0.00127428
0.00345844
0.00127917
0.00341133
0.00128468
0.00335837
0.00129071
0.00329965
0.00129723
0.00323572
0.00130418
0.00316684
0.00131153
0.00309372
0.00131913
0.00301672
0.0013271
0.00293633
0.00133524
0.00285306
0.00134352
0.00276755
0.00135187
0.00268011
0.00136036
0.00259124
0.00136878
0.00250144
0.00137713
0.00241119
0.00138537
0.00232086
0.0013935
0.00223074
0.00140142
0.00214124
0.00140911
0.00205264
0.00141653
0.00196524
0.00142365
0.00187927
0.00143041
0.00179501
0.00143682
0.00171265
0.00144286
0.00163237
0.00144855
0.00155427
0.00145383
0.0014785
0.00145871
0.00140512
0.00146317
0.00133421
0.0014672
0.0012658
0.0014708
0.00119993
0.00147396
0.0011366
0.00147671
0.0010759
0.00147908
0.00101776
0.001481
0.000962671
0.00148243
0.000910145
0.00148341
0.000860076
0.0014839
0.000812426
0.00148396
0.000767078
0.00148365
0.000724029
0.0014829
0.0007404
0.00148133
0.000740726
0.00149426
0.000740909
0.00150685
0.000740559
0.00151939
0.000739822
0.00153033
0.000738314
0.00153982
0.000742046
0.00154366
0.000784318
0.00154627
0.000600142
0.00110894
0.000540698
0.000877065
0.000552156
0.000872991
0.000568594
0.000901457
0.000585615
0.000950053
0.000598771
0.000988131
0.000613995
0.00102784
0.000626212
0.0010656
0.000634771
0.00109751
0.000645867
0.00112815
0.000653955
0.00115824
0.000660007
0.0011873
0.000665684
0.00121536
0.000671122
0.00123819
0.000676028
0.00125799
0.000677578
0.00127749
0.000680247
0.00129819
0.000684042
0.00131052
0.000689769
0.00131089
0.000685802
0.00129733
0.000675662
0.00128562
0.000678875
0.00126927
0.000669244
0.00121826
0.000664848
0.00115911
0.000652002
0.0011215
0.000661642
0.00108561
0.000665444
0.00104041
0.000655965
0.00100525
0.000647646
0.000977614
0.000622521
0.000939382
0.00060217
0.000890938
0.00058138
0.000847134
0.000565736
0.000805621
0.000554246
0.000771126
0.000546133
0.000740481
0.000542577
0.000718006
0.000540457
0.000701297
0.000540384
0.000689036
0.000541117
0.000680222
0.000546557
0.000673798
0.000552227
0.0006691
0.000557222
0.000665414
0.000561932
0.000662577
0.000567058
0.000660605
0.000572297
0.00065915
0.00057758
0.000658162
0.000583245
0.000657678
0.000588726
0.000657494
0.000594343
0.000657684
0.000599884
0.000658494
0.000605767
0.000659848
0.000611328
0.000662092
0.0006172
0.000665296
0.000623584
0.000669474
0.000630202
0.000674356
0.000637716
0.000680054
0.000645091
0.000686531
0.00065338
0.000693693
0.000661614
0.000701375
0.000670318
0.00070933
0.00067824
0.000717132
0.000687463
0.000724784
0.000694756
0.000732017
0.000703817
0.000739582
0.000709286
0.000746328
0.000722969
0.000755027
0.00360563
0.00359509
0.00127199
0.00358236
0.00127677
0.00356085
0.00128364
0.00353414
0.00129074
0.00350099
0.00129868
0.00346102
0.00130712
0.00341451
0.00131614
0.00336183
0.00132565
0.00330341
0.00133558
0.00323965
0.00134594
0.00317097
0.00135663
0.00309799
0.00136756
0.00302112
0.00137874
0.00294081
0.00139009
0.00285762
0.0014015
0.0027721
0.00141291
0.0026847
0.00142437
0.00259585
0.00143574
0.00250603
0.00144696
0.0024157
0.00145799
0.0023252
0.00146879
0.00223496
0.00147929
0.0021453
0.00148946
0.00205658
0.00149931
0.00196901
0.00150875
0.0018829
0.00151775
0.00179847
0.0015263
0.00171593
0.00153438
0.00163543
0.00154198
0.0015571
0.00154906
0.00148109
0.00155563
0.00140746
0.00156168
0.00133629
0.00156719
0.00126765
0.00157214
0.00120153
0.00157659
0.00113796
0.00158047
0.00107695
0.00158379
0.0010185
0.00158658
0.000962566
0.00158888
0.000909473
0.0015907
0.000859612
0.001592
0.000812178
0.00159275
0.000767108
0.00159315
0.000724233
0.00159311
0.000749142
0.00159255
0.000749875
0.0016052
0.000750089
0.00161786
0.000749984
0.0016309
0.000749233
0.00164316
0.000746722
0.00165613
0.000742434
0.00166489
0.000672817
0.00167361
0.00054143
0.00110812
0.000532342
0.000909031
0.000560233
0.000911813
0.000585754
0.000950663
0.000603468
0.00101222
0.000619569
0.0010587
0.000634392
0.00110127
0.000645567
0.0011389
0.000651555
0.00117502
0.000661917
0.00121357
0.000667928
0.001246
0.000673285
0.00127666
0.000679578
0.001305
0.000685226
0.00132728
0.000691056
0.00134552
0.000696561
0.00136116
0.000698353
0.00137381
0.000696723
0.00138504
0.000701922
0.00139003
0.000712554
0.00139279
0.000721707
0.00138252
0.000714165
0.00134337
0.00069477
0.00130256
0.000691089
0.00127086
0.000699198
0.00122275
0.000706893
0.00117388
0.000693334
0.00114627
0.000701652
0.00112124
0.000698959
0.00109026
0.000676663
0.001053
0.000657808
0.00101109
0.000627167
0.000954234
0.000604672
0.000894868
0.000586101
0.000844575
0.000569372
0.00080043
0.000558991
0.000767828
0.000551433
0.00074486
0.000547598
0.000727495
0.000545789
0.000714104
0.000547802
0.000704645
0.000554366
0.000697424
0.000560161
0.000692138
0.000565443
0.000687739
0.00057052
0.000684332
0.000575771
0.000681792
0.000581036
0.000679979
0.000586507
0.000678689
0.000591529
0.000677793
0.000596833
0.000677207
0.000601938
0.00067716
0.000607662
0.000677609
0.000613084
0.000678714
0.000618695
0.000680413
0.000625124
0.000683181
0.00063219
0.000687033
0.000640376
0.000692046
0.000648453
0.000697867
0.000657772
0.000704609
0.000666952
0.000711632
0.000677623
0.000719082
0.000687188
0.000726372
0.00069922
0.000733567
0.000708154
0.000740997
0.000719729
0.000748117
0.000726446
0.000754458
0.000742372
0.000760783
0.00360226
0.00359263
0.00128379
0.00358282
0.00129221
0.00356417
0.00130268
0.00353854
0.00131335
0.00350572
0.00132482
0.00346606
0.00133675
0.00341983
0.00134924
0.0033674
0.00136216
0.0033092
0.00137549
0.00324563
0.00138919
0.00317714
0.00140317
0.00310424
0.00141736
0.00302749
0.00143173
0.00294723
0.00144624
0.00286405
0.00146075
0.00277852
0.00147518
0.00269108
0.00148961
0.00260218
0.00150385
0.00251222
0.00151786
0.00242176
0.00153158
0.00233115
0.00154505
0.00224072
0.00155815
0.00215088
0.00157083
0.00206196
0.00158307
0.00197417
0.0015948
0.00188783
0.00160599
0.00180314
0.00161663
0.00172034
0.00162672
0.00163956
0.00163625
0.00156095
0.00164523
0.00148465
0.00165359
0.00141075
0.00166136
0.00133928
0.00166853
0.00127035
0.00167512
0.00120395
0.00168109
0.00114009
0.00168648
0.00107878
0.0016913
0.00102003
0.00169554
0.000963815
0.00169917
0.000910055
0.00170224
0.000858872
0.00170455
0.000811739
0.00170638
0.000766958
0.00170759
0.000724383
0.00170802
0.000757636
0.00170762
0.000758817
0.0017187
0.000759785
0.00172983
0.000760371
0.0017407
0.00075951
0.00174973
0.000758627
0.00175986
0.000732954
0.00176184
0.000698296
0.00176585
0.000571212
0.001359
0.000541445
0.00104932
0.000592618
0.00104705
0.000625287
0.00109008
0.000637994
0.0011607
0.000654627
0.00120907
0.000664823
0.00124725
0.000674632
0.00128308
0.000681714
0.00131331
0.000692757
0.00134591
0.000692345
0.00137035
0.000696357
0.00139447
0.000699088
0.00142664
0.000701706
0.00144571
0.000703816
0.00146056
0.000703354
0.00147206
0.000702433
0.00148236
0.000697582
0.00149246
0.000717663
0.00150034
0.000731472
0.00150428
0.000739484
0.00148933
0.000736358
0.00147664
0.000749611
0.00143743
0.000759383
0.00140022
0.000750576
0.0013585
0.000758348
0.00132372
0.000764751
0.00129281
0.000765411
0.00125779
0.000763282
0.0012288
0.000754382
0.0011963
0.000735285
0.00115013
0.00069861
0.00109603
0.000665953
0.00103075
0.000631397
0.000957733
0.000604058
0.000889979
0.000584083
0.000834527
0.000569406
0.000794891
0.000560355
0.00076636
0.000554796
0.000746189
0.000552502
0.000732693
0.000556845
0.000723399
0.000562858
0.000717009
0.000568175
0.000712287
0.000573502
0.000708512
0.000578701
0.000705207
0.0005836
0.00070263
0.000588595
0.000700515
0.000593111
0.000698532
0.000598024
0.000696772
0.000602784
0.000695294
0.00060809
0.00069446
0.000613259
0.000694157
0.000619267
0.000694516
0.000626464
0.000695811
0.000633588
0.000698154
0.000642526
0.000701779
0.000650914
0.000706285
0.000661793
0.000711395
0.000671928
0.000717139
0.000684851
0.00072295
0.000696097
0.000729218
0.000710768
0.000735081
0.000721688
0.000741933
0.000736419
0.00074823
0.00074588
0.000754749
0.000765468
0.000761548
0.00360522
0.00359819
0.00129757
0.00358874
0.00130957
0.00357042
0.00132358
0.00354512
0.00133775
0.00351261
0.00135269
0.00347324
0.00136805
0.00342727
0.00138394
0.00337508
0.00140023
0.00331706
0.00141688
0.00325366
0.00143386
0.00318529
0.0014511
0.00311249
0.00146848
0.00303579
0.00148601
0.00295557
0.00150362
0.00287238
0.00152116
0.00278681
0.00153858
0.00269927
0.00155589
0.00261022
0.00157299
0.00252012
0.00158978
0.00242948
0.00160621
0.00233868
0.00162227
0.00224807
0.00163787
0.002158
0.00165297
0.0020688
0.00166755
0.00198073
0.00168154
0.00189407
0.00169489
0.00180906
0.00170758
0.00172595
0.00171963
0.00164487
0.00173102
0.00156594
0.00174172
0.00148931
0.0017517
0.00141506
0.00176097
0.00134327
0.00176951
0.00127398
0.00177735
0.00120721
0.00178445
0.00114301
0.00179077
0.00108138
0.00179643
0.00102225
0.00180139
0.000965677
0.00180557
0.000911563
0.00180912
0.000859939
0.00181209
0.000810815
0.00181448
0.000766297
0.00181613
0.000724064
0.00181716
0.000765885
0.00181767
0.000767269
0.00182874
0.000768585
0.00183984
0.00076845
0.00185121
0.000769041
0.00186328
0.000764538
0.00187655
0.000747283
0.00189359
0.000792923
0.00192264
0.000684421
0.00187866
0.000586633
0.00131428
0.000672998
0.00126424
0.000703337
0.00130495
0.00071235
0.00136682
0.000718356
0.00140413
0.000717535
0.00143318
0.000717687
0.00145553
0.000719596
0.00148012
0.00072195
0.00150091
0.000717148
0.00151281
0.000717288
0.0015266
0.000714803
0.00155935
0.000715778
0.00157528
0.000715352
0.00158414
0.000713353
0.00159125
0.000711656
0.00159703
0.000706861
0.00160487
0.00072752
0.00161323
0.000746136
0.00160953
0.000761746
0.00161389
0.000781951
0.0015905
0.000788448
0.00156459
0.000809758
0.00152826
0.00081507
0.00150506
0.000825297
0.00147734
0.000829298
0.00144942
0.000826788
0.00141421
0.000833302
0.0013776
0.000826378
0.00134233
0.00081289
0.001294
0.000788332
0.00124068
0.000758717
0.00117834
0.000708892
0.00110885
0.000665262
0.00102815
0.000627347
0.00094413
0.000599318
0.000875257
0.000580612
0.000826177
0.000567881
0.0007952
0.000561399
0.000774253
0.000560194
0.000760657
0.000567362
0.000750723
0.000573347
0.000742905
0.000578876
0.000736235
0.000584048
0.000730266
0.000589004
0.000725124
0.000593693
0.000720969
0.000597684
0.000717421
0.000601852
0.000714305
0.000605904
0.00071177
0.000611488
0.000709752
0.000617411
0.000708323
0.000623053
0.00070743
0.000630237
0.000707802
0.000637175
0.000709094
0.000646587
0.000711186
0.000655388
0.000714405
0.000667322
0.000718215
0.000678698
0.000722904
0.000693479
0.000727443
0.000706601
0.00073317
0.00072302
0.000738505
0.000736299
0.000745027
0.000753672
0.000751318
0.000765244
0.000758249
0.000787182
0.000764941
0.00361266
0.00360599
0.00131334
0.00359686
0.00132883
0.00357887
0.00134632
0.00355388
0.00136392
0.00352165
0.00138226
0.00348255
0.001401
0.00343682
0.00142021
0.00338483
0.0014398
0.00332697
0.00145973
0.00326372
0.00147992
0.00319545
0.00150035
0.00312272
0.0015209
0.00304603
0.00154151
0.00296581
0.00156215
0.00288258
0.00158268
0.00279688
0.00160303
0.00270922
0.00162319
0.00262002
0.00164309
0.00252975
0.00166259
0.0024389
0.00168165
0.00234782
0.00170028
0.00225689
0.00171836
0.00216652
0.00173586
0.00207701
0.00175274
0.0019886
0.00176894
0.00190158
0.00178443
0.0018162
0.00179919
0.00173271
0.00181323
0.00165124
0.00182653
0.00157193
0.00183907
0.00149489
0.00185083
0.00142024
0.00186183
0.00134806
0.00187205
0.00127838
0.00188151
0.00121121
0.00189024
0.00114661
0.00189824
0.0010846
0.00190551
0.00102509
0.00191205
0.000968085
0.00191794
0.000913597
0.00192304
0.000861578
0.00192739
0.000811908
0.00193096
0.000765455
0.00193373
0.000723574
0.00193589
0.000773812
0.0019375
0.00077561
0.00194785
0.000777178
0.00195926
0.000778672
0.00197146
0.000780827
0.00198558
0.000782436
0.00200176
0.000783032
0.00202513
0.00076253
0.00204379
0.00081955
0.00207609
0.000695459
0.00184163
0.000753003
0.0014805
0.000771175
0.00149892
0.000775013
0.00155727
0.000777218
0.00158496
0.000767494
0.00159533
0.000763223
0.001602
0.000760382
0.00162124
0.000752704
0.00162222
0.0007445
0.00161879
0.000742108
0.00163623
0.000740088
0.00164805
0.000737286
0.00167904
0.000734512
0.00167901
0.000732281
0.00168844
0.000727227
0.00168786
0.00072631
0.00169727
0.000741008
0.00170308
0.000766993
0.00170693
0.000788299
0.0017052
0.000811279
0.00169241
0.00081977
0.00165554
0.000849867
0.00163239
0.000862238
0.00161506
0.000875471
0.00159404
0.000886705
0.00157116
0.000884744
0.00154499
0.000894789
0.00151159
0.000891727
0.00147884
0.000882772
0.00143343
0.000864762
0.00138253
0.000842484
0.00132391
0.000805174
0.00125851
0.000760911
0.00117987
0.000702711
0.00108826
0.000650409
0.000992244
0.00061434
0.000904805
0.00059085
0.000849796
0.000576487
0.000815616
0.00057
0.000794327
0.000571901
0.000780401
0.000577882
0.000770969
0.000582815
0.000762653
0.000587122
0.000755116
0.000592013
0.000747642
0.000596625
0.000740987
0.000600251
0.000735288
0.000604077
0.000730116
0.00060912
0.00072599
0.000614908
0.000722419
0.000621035
0.000719917
0.000626096
0.000717806
0.000633349
0.000716397
0.000640316
0.000715936
0.000649747
0.000716531
0.000659095
0.000718155
0.000672159
0.000720638
0.00068514
0.000724532
0.00070129
0.000728319
0.000716895
0.000733752
0.000735292
0.000739351
0.000751235
0.000746047
0.000770593
0.000753146
0.000784974
0.000760618
0.00080837
0.000767949
0.00362236
0.003616
0.00133111
0.00360718
0.00135002
0.0035895
0.00137091
0.00356479
0.00139186
0.00353283
0.00141353
0.00349397
0.00143556
0.00344846
0.00145804
0.00339665
0.00148086
0.00333895
0.00150398
0.0032758
0.00152734
0.00320762
0.00155089
0.00313491
0.00157453
0.00305821
0.00159814
0.00297794
0.00162177
0.00289462
0.00164523
0.00280877
0.00166846
0.00272095
0.00169139
0.00263154
0.00171403
0.00254102
0.00173619
0.00244989
0.00175784
0.00235852
0.00177897
0.00226728
0.00179949
0.00217656
0.00181933
0.00208665
0.00183847
0.00199786
0.00185683
0.00191045
0.0018744
0.00182469
0.00189113
0.00174078
0.00190705
0.0016589
0.00192212
0.00157915
0.00193631
0.00150169
0.00194961
0.0014266
0.00196201
0.00135395
0.00197351
0.00128384
0.00198409
0.00121625
0.00199383
0.00115122
0.00200267
0.00108871
0.00201058
0.00102878
0.00201749
0.000971385
0.0020237
0.000916474
0.00202911
0.000864013
0.00203364
0.000813853
0.00203738
0.000766072
0.00204005
0.000722662
0.00204215
0.000781397
0.00204373
0.000783327
0.00205285
0.000784995
0.00206193
0.000786404
0.00207072
0.000787111
0.00207926
0.000789285
0.0020866
0.000784993
0.00209405
0.000801078
0.00209501
0.000816447
0.00209122
0.000752313
0.00189664
0.000790381
0.00159958
0.000800261
0.00160088
0.000809596
0.00164568
0.000806902
0.00167164
0.00079694
0.00167987
0.000788886
0.00168076
0.000782101
0.00168885
0.000767347
0.00169166
0.000761046
0.00168361
0.00074989
0.0017019
0.000755672
0.00171269
0.000747337
0.00174458
0.000745913
0.00174266
0.000740189
0.00175147
0.000735771
0.00175097
0.000735292
0.00175766
0.000758147
0.00176505
0.00077986
0.00177228
0.00080953
0.00176348
0.000824713
0.00175885
0.000859165
0.001724
0.000872086
0.00170254
0.000901712
0.00168762
0.000905411
0.00167473
0.000927879
0.00165552
0.000930081
0.00163508
0.000941505
0.00160365
0.000943212
0.00157492
0.000940661
0.00153823
0.000931254
0.00149912
0.000916667
0.00145429
0.00089245
0.00139983
0.0008573
0.00133689
0.000802617
0.0012551
0.000735782
0.00115442
0.000669928
0.00104264
0.000625427
0.000937215
0.000599155
0.000877115
0.000585064
0.000844015
0.000580024
0.000823872
0.000583026
0.000809316
0.000587616
0.000797659
0.000590878
0.000787237
0.00059464
0.000777207
0.000598613
0.000767367
0.000604096
0.000759065
0.000608713
0.00075164
0.000614209
0.000745017
0.000619384
0.00073911
0.000625365
0.000734178
0.000630062
0.000729512
0.000637355
0.00072626
0.000643743
0.000723553
0.000653415
0.000722274
0.000663285
0.000722268
0.00067718
0.000723169
0.000691823
0.00072573
0.00070936
0.000729653
0.000727102
0.000735279
0.000747574
0.000741597
0.00076574
0.000749015
0.000787286
0.000756537
0.000804217
0.000763718
0.000828741
0.000772583
0.00363426
0.00362821
0.0013509
0.00361967
0.00137314
0.00360227
0.00139734
0.00357783
0.00142156
0.00354612
0.00144648
0.00350749
0.00147172
0.00346218
0.00149739
0.00341054
0.00152336
0.00335295
0.00154962
0.0032899
0.00157605
0.00322178
0.00160265
0.00314904
0.0016293
0.00307228
0.00165587
0.00299194
0.00168239
0.00290851
0.00170873
0.00282247
0.00173477
0.00273442
0.00176042
0.00264477
0.00178573
0.00255397
0.00181049
0.0024625
0.00183469
0.00237077
0.00185826
0.00227915
0.00188117
0.00218802
0.0019033
0.00209769
0.00192464
0.00200843
0.00194513
0.00192054
0.00196476
0.0018343
0.00198348
0.00174989
0.00200131
0.0016675
0.00201824
0.00158724
0.00203423
0.00150928
0.00204928
0.00143367
0.00206339
0.00136052
0.00207658
0.0012899
0.00208885
0.00122183
0.00210022
0.00115629
0.00211075
0.00109329
0.00212035
0.00103287
0.00212911
0.000974995
0.00213712
0.000919612
0.00214441
0.00086665
0.00215055
0.000816014
0.00215587
0.000767719
0.00216035
0.000721764
0.00216396
0.000788628
0.00216696
0.000790851
0.00217562
0.00079276
0.002185
0.000794242
0.00219468
0.000795349
0.00220515
0.000796756
0.00221523
0.000803013
0.00222749
0.000850143
0.00223777
0.000974899
0.00224196
0.000834331
0.00183101
0.000812668
0.00164745
0.000800968
0.00163206
0.000809872
0.00166513
0.000807806
0.00170702
0.000802479
0.00172384
0.000790307
0.00173229
0.000786557
0.00174289
0.000769573
0.00174776
0.000764365
0.00174165
0.000754725
0.00176445
0.000759623
0.00177788
0.000750683
0.00180751
0.000748587
0.00180755
0.000740948
0.00181495
0.000735769
0.00181078
0.000743783
0.00182082
0.000766295
0.00182866
0.000785163
0.00183121
0.000818888
0.00181278
0.000838843
0.00179535
0.00088101
0.00176768
0.000895051
0.00175471
0.000926117
0.00174081
0.000934907
0.00173481
0.000956013
0.00171299
0.000962985
0.0016977
0.000975277
0.00167373
0.000980724
0.00164455
0.000983691
0.00161816
0.000982489
0.00158766
0.000974906
0.00155157
0.000962631
0.00150815
0.000940076
0.001461
0.000903001
0.00140108
0.000846448
0.00132408
0.000766916
0.00121916
0.000682918
0.00109174
0.000633213
0.000970413
0.000607674
0.000909178
0.000596357
0.000875284
0.00059365
0.000853834
0.000595282
0.000837218
0.000599446
0.000822012
0.000603452
0.000808414
0.000606386
0.000795106
0.000611257
0.000783257
0.000614865
0.000772065
0.000620117
0.000762588
0.000624599
0.00075386
0.000630569
0.000746738
0.000634874
0.000739603
0.000642224
0.000733828
0.00064855
0.000729794
0.000658477
0.000727419
0.000668916
0.000726291
0.000683142
0.00072649
0.000698589
0.000728442
0.000717348
0.00073176
0.000736843
0.00073701
0.000759341
0.000743629
0.000780007
0.00075162
0.00080399
0.00075985
0.000823195
0.000768101
0.000849903
0.000776547
0.00364835
0.00364258
0.00137274
0.00363431
0.0013982
0.00361717
0.00142561
0.00359298
0.00145302
0.00356151
0.00148109
0.00352309
0.00150946
0.00347796
0.00153823
0.00342647
0.00156728
0.00336898
0.00159658
0.00330598
0.00162601
0.0032379
0.00165558
0.00316513
0.00168516
0.00308827
0.00171463
0.00300781
0.00174397
0.00292421
0.0017731
0.00283796
0.00180187
0.00274965
0.00183019
0.00265969
0.00185811
0.00256857
0.00188541
0.00247673
0.00191206
0.0023846
0.00193802
0.00229254
0.00196324
0.00220094
0.00198761
0.00211012
0.0020111
0.00202038
0.00203367
0.001932
0.00205527
0.00184525
0.00207589
0.00176034
0.00209552
0.00167744
0.00211412
0.00159666
0.00213168
0.00151815
0.00214816
0.00144203
0.0021636
0.00136834
0.00217798
0.00129719
0.00219128
0.00122858
0.00220355
0.00116253
0.00221481
0.00109902
0.00222497
0.00103808
0.00223404
0.000979715
0.00224221
0.000923811
0.00224947
0.000870326
0.00225558
0.000819213
0.00226062
0.000770451
0.00226472
0.000723972
0.00226783
0.000795796
0.00227022
0.000798204
0.00227761
0.000800105
0.00228468
0.000802013
0.00229194
0.000803044
0.00229854
0.000806314
0.00230582
0.000817551
0.00231238
0.000906944
0.0023153
0.00103076
0.0023507
0.000906967
0.00190858
0.000838833
0.00177051
0.000808159
0.00174092
0.000816866
0.00176017
0.000808191
0.00177821
0.000807344
0.00178983
0.000789172
0.00179786
0.000783946
0.0017994
0.000764981
0.0018048
0.000759701
0.00179759
0.000749243
0.00182218
0.00075361
0.00183488
0.000744832
0.00186644
0.000742195
0.00186381
0.00073315
0.00186823
0.000727142
0.00186526
0.000741771
0.0018685
0.000766031
0.00187493
0.000787547
0.00187602
0.000827829
0.00185101
0.000851307
0.00182916
0.000895012
0.00181626
0.000908621
0.0018082
0.000939585
0.00178157
0.000957217
0.00178162
0.000974215
0.00176678
0.000987895
0.00174438
0.000997505
0.00172783
0.00100645
0.00171407
0.00101626
0.00168558
0.00102026
0.00166003
0.00101836
0.00163169
0.001014
0.00159777
0.00100321
0.00156008
0.000984234
0.00151824
0.000946118
0.00146439
0.000885295
0.00138649
0.000790931
0.00127621
0.000693897
0.00113258
0.000643627
0.00101033
0.000619478
0.000951383
0.00061273
0.00091698
0.000612168
0.000891471
0.000614376
0.000869111
0.000617221
0.000849789
0.00061898
0.000830602
0.000622178
0.000813566
0.000624374
0.000798575
0.000628994
0.000785506
0.000632079
0.000773592
0.000637901
0.00076399
0.000641637
0.00075456
0.000648699
0.000746766
0.00065438
0.000740729
0.000664347
0.000736341
0.000674888
0.000733627
0.000689663
0.000732734
0.000705821
0.000733808
0.000725518
0.000736225
0.000746519
0.00074085
0.000770645
0.000747124
0.000793944
0.000755276
0.000819935
0.000763956
0.000842778
0.000771999
0.000869821
0.000781621
0.0036646
0.00365909
0.00139662
0.00365107
0.00142522
0.00363418
0.00145575
0.00361023
0.00148624
0.00357897
0.00151737
0.00354075
0.00154878
0.00349577
0.00158056
0.00344442
0.00161258
0.00338701
0.00164485
0.00332404
0.00167719
0.00325595
0.00170964
0.00318314
0.00174207
0.00310615
0.00177435
0.00302555
0.00180643
0.00294173
0.00183828
0.00285523
0.0018697
0.00276661
0.00190061
0.00267633
0.00193105
0.00258481
0.00196083
0.00249253
0.00198989
0.00239995
0.00201815
0.00230741
0.00204564
0.00221529
0.00207219
0.00212393
0.00209777
0.00203363
0.00212237
0.00194467
0.00214594
0.00185733
0.00216844
0.00177179
0.0021899
0.00168825
0.00221027
0.00160684
0.00222956
0.00152771
0.00224774
0.00145098
0.00226483
0.00137667
0.00228083
0.0013049
0.0022958
0.0012357
0.00230968
0.00116905
0.00232254
0.00110495
0.0023344
0.00104344
0.0023453
0.000984477
0.00235537
0.000928006
0.0023643
0.000873945
0.0023721
0.000822296
0.00237891
0.000772964
0.00238504
0.000725901
0.00239019
0.000802267
0.00239429
0.000804844
0.0024012
0.000806956
0.00240822
0.000808806
0.00241563
0.000810193
0.0024227
0.000815182
0.00243186
0.000832519
0.00244003
0.000990132
0.00244377
0.00104897
0.00234112
0.000982357
0.002044
0.000896231
0.00196594
0.000839916
0.00189912
0.000835572
0.00187215
0.00081412
0.0018574
0.000808132
0.00184653
0.000791995
0.0018566
0.000784982
0.00185845
0.000765049
0.00186664
0.000760116
0.00186413
0.000748969
0.00189315
0.000753969
0.00191166
0.000744124
0.00193941
0.000739659
0.0019386
0.000730513
0.00194302
0.000731574
0.00193645
0.000748533
0.00193701
0.000772257
0.0019455
0.000794791
0.00193404
0.000832559
0.00189721
0.000867916
0.00187263
0.000909085
0.00186603
0.000927288
0.0018676
0.000950496
0.00184148
0.00097449
0.00182274
0.000991162
0.00181913
0.00100641
0.0018025
0.00102088
0.00177715
0.00103235
0.00176333
0.00103983
0.00174303
0.00104663
0.00172169
0.00105076
0.0016978
0.00105093
0.00166869
0.00104887
0.00163998
0.00104296
0.00161055
0.00102141
0.00157269
0.000982139
0.0015172
0.000912106
0.00143964
0.000804632
0.00132134
0.000705328
0.00116062
0.000660088
0.00106025
0.000643346
0.00100297
0.000638018
0.000962454
0.000637114
0.000928756
0.000637744
0.000900303
0.000635528
0.000874427
0.000636279
0.000851216
0.000636456
0.000829373
0.000639922
0.000810746
0.000641666
0.000794032
0.000647198
0.000780477
0.000650047
0.000768153
0.000656585
0.000758106
0.000661307
0.000749543
0.000670934
0.000743635
0.000681514
0.000739887
0.000696465
0.000738127
0.000713552
0.000738456
0.000733941
0.000740385
0.000755829
0.000744314
0.000781777
0.000750612
0.00080758
0.000758587
0.000836133
0.00076809
0.000861686
0.000775767
0.000889452
0.000786849
0.00368298
0.00367771
0.0014226
0.00366993
0.00145421
0.00365327
0.00148775
0.00362954
0.00152122
0.00359849
0.00155531
0.00356044
0.00158965
0.00351561
0.00162434
0.00346437
0.00165925
0.00340702
0.00169437
0.00334406
0.00172955
0.00327594
0.00176479
0.00320304
0.00179997
0.0031259
0.00183497
0.00304511
0.0018697
0.00296106
0.00190418
0.00287426
0.00193817
0.0027853
0.0019716
0.00269463
0.0020045
0.00260268
0.00203666
0.00250992
0.00206802
0.00241684
0.00209852
0.00232377
0.00212821
0.00223109
0.00215688
0.00213914
0.0021845
0.00204824
0.00221104
0.00195868
0.00223648
0.00187072
0.00226077
0.00178457
0.00228392
0.00170042
0.0023059
0.00161841
0.00232667
0.00153865
0.00234622
0.00146127
0.00236455
0.00138635
0.00238168
0.00131396
0.00239761
0.00124413
0.00241238
0.00117688
0.00242595
0.00111219
0.00243836
0.00105007
0.00244957
0.000990533
0.00245966
0.000933449
0.00246871
0.000878875