/*--------------------------------*- C++ -*----------------------------------*\
| =========                 |                                                 |
| \\      /  F ield         | OpenFOAM: The Open Source CFD Toolbox           |
|  \\    /   O peration     | Version:  2.2.x                                 |
|   \\  /    A nd           | Web:      www.OpenFOAM.org                      |
|    \\/     M anipulation  |                                                 |
\*---------------------------------------------------------------------------*/
FoamFile
{
    version     2.0;
    format      ascii;
    class       surfaceScalarField;
    location    "1.6";
    object      phi;
}
// * * * * * * * * * * * * * * * * * * * * * * * * * * * * * * * * * * * * * //

dimensions      [1 0 -1 0 0 0 0];

internalField   nonuniform List<scalar> 
28084
(
0.000746226
0.000742994
0.000740221
0.000737889
0.000735977
0.000734462
0.000733323
0.000732532
0.000732066
0.000731898
0.000731998
0.000732341
0.000732899
0.000733646
0.000734553
0.000735599
0.000736755
0.000737998
0.000739306
0.000740651
0.00074202
0.00074339
0.000744741
0.00074606
0.000747339
0.000748561
0.000749713
0.000750783
0.000751794
0.000752716
0.00075349
0.000754092
0.000754492
0.000754785
0.000755054
0.000755283
0.000755448
0.000755499
0.000755309
0.000754926
0.000754602
0.000754495
0.000754572
0.000755763
0.000763126
0.000789487
0.000817614
0.00084494
0.000870969
0.000894569
0.000916105
0.000936514
0.000956649
0.000976229
0.00099484
0.00101336
0.00103174
0.00104917
0.00106672
0.00108319
0.00109897
0.00111486
0.00112924
0.00114284
0.00115657
0.00116918
0.00118129
0.00119351
0.0012045
0.00121514
0.00122428
0.00123228
0.00124036
0.00124883
0.00125526
0.00126074
0.00126439
0.00126722
0.00127079
0.00127486
0.00127569
0.00127483
0.00127429
0.0012734
0.00127264
0.00127017
0.00126536
0.00126026
0.00125535
0.00125037
0.00124571
0.00124177
0.00123773
0.00123427
0.00122962
0.00122281
0.00121691
0.00121565
0.0012143
0.00120696
0.00119075
0.00116175
0.00111522
0.00104635
0.000961383
0.000871089
0.000788035
0.000717007
0.000655263
0.000600122
0.000550126
0.000503373
0.000455339
0.00040411
0.000345458
0.000278453
0.000199931
0.00011889
3.71368e-06
3.23658e-06
0.000749743
2.77688e-06
0.00074879
2.33646e-06
0.000748268
1.91621e-06
0.000748159
1.51764e-06
0.000748444
1.14251e-06
0.000749103
7.93031e-07
0.000750112
4.70369e-07
0.000751444
1.73329e-07
0.000753075
-9.8328e-08
0.000754975
-3.41697e-07
0.000757117
-5.57126e-07
0.000759469
-7.44518e-07
0.000762002
-9.06846e-07
0.000764688
-1.04719e-06
0.000767498
-1.16005e-06
0.000770407
-1.25096e-06
0.000773378
-1.3135e-06
0.000776386
-1.34778e-06
0.000779418
-1.37199e-06
0.000782446
-1.38207e-06
0.000785444
-1.36967e-06
0.000788381
-1.33896e-06
0.000791244
-1.29645e-06
0.00079402
-1.23929e-06
0.000796699
-1.16743e-06
0.00079927
-1.08315e-06
0.000801714
-9.90051e-07
0.000804018
-8.9161e-07
0.000806206
-7.84728e-07
0.000808244
-6.65643e-07
0.000810077
-5.40113e-07
0.000811681
-4.15373e-07
0.000813013
-2.92966e-07
0.0008142
-1.56507e-07
0.000815318
-5.41299e-09
0.000816334
1.33388e-07
0.000817239
2.17863e-07
0.00081798
2.06546e-07
0.000818403
1.35704e-08
0.000818647
-4.21471e-07
0.000818964
-1.29523e-06
0.000820076
-3.9008e-06
0.000823183
-9.69352e-06
0.000831774
-2.69777e-05
0.000846823
-2.82244e-05
0.000876914
-2.72735e-05
0.000905192
-2.59094e-05
0.000930825
-2.3468e-05
0.000954299
-2.17967e-05
0.000975886
-2.06236e-05
0.00099593
-2.00181e-05
0.00101534
-1.96093e-05
0.00103451
-1.9241e-05
0.00105336
-1.88119e-05
0.00107133
-1.86624e-05
0.00108883
-1.84525e-05
0.00110682
-1.77946e-05
0.00112364
-1.72686e-05
0.00113986
-1.68731e-05
0.0011557
-1.64364e-05
0.00117053
-1.58282e-05
0.0011855
-1.50227e-05
0.00119895
-1.41143e-05
0.00121137
-1.33058e-05
0.00122391
-1.24127e-05
0.00123552
-1.1573e-05
0.0012465
-1.10305e-05
0.001258
-1.03262e-05
0.00126806
-9.35754e-06
0.00127704
-8.15012e-06
0.00128543
-7.20548e-06
0.00129253
-6.79953e-06
0.00129921
-6.4908e-06
0.00130698
-5.64538e-06
0.00131276
-4.59967e-06
0.00131663
-3.34207e-06
0.00131971
-2.13106e-06
0.00132232
-1.74094e-06
0.00132489
-1.60968e-06
0.0013274
-7.81353e-07
0.00132638
5.3164e-07
0.00132358
1.73766e-06
0.00132156
2.53268e-06
0.00131921
3.07203e-06
0.00131695
3.76744e-06
0.00131323
4.43369e-06
0.00130665
4.7071e-06
0.0012997
4.87553e-06
0.00129342
4.83193e-06
0.00128667
4.63698e-06
0.00128047
4.75061e-06
0.00127539
4.71188e-06
0.00127054
4.28505e-06
0.00126555
4.30324e-06
0.00126073
4.07938e-06
0.00125326
3.72677e-06
0.00124515
5.84275e-06
0.00123789
9.16023e-06
0.00122987
1.47034e-05
0.00121462
2.69924e-05
0.00118724
4.70194e-05
0.00114174
7.16519e-05
0.00107121
8.7234e-05
0.000979542
9.1266e-05
0.000888624
8.2175e-05
0.000806845
7.10686e-05
0.000733908
6.19765e-05
0.000669857
5.47973e-05
0.000612664
4.97122e-05
0.000560523
4.68418e-05
0.000512323
4.81293e-05
0.000466101
5.11705e-05
0.00041813
5.83705e-05
0.000366881
6.65979e-05
0.000307382
7.82851e-05
0.00024313
8.12224e-05
0.00017044
0.000119236
9.16018e-05
5.1155e-06
4.19387e-06
0.000754438
3.30346e-06
0.000755735
2.44959e-06
0.000757435
1.63492e-06
0.000759522
8.62776e-07
0.000761979
1.37338e-07
0.000764785
-5.36757e-07
0.000767917
-1.15669e-06
0.000771349
-1.7239e-06
0.000775053
-2.23699e-06
0.000778999
-2.69211e-06
0.000783158
-3.08879e-06
0.000787498
-3.43044e-06
0.000791986
-3.7171e-06
0.000796591
-3.95599e-06
0.000801284
-4.13382e-06
0.00080603
-4.26737e-06
0.000810798
-4.35193e-06
0.000815562
-4.37914e-06
0.000820298
-4.37409e-06
0.000824986
-4.33408e-06
0.000829592
-4.25336e-06
0.000834079
-4.13497e-06
0.000838439
-3.99372e-06
0.000842667
-3.82373e-06
0.000846738
-3.62479e-06
0.000850632
-3.39761e-06
0.000854343
-3.15127e-06
0.000857865
-2.89431e-06
0.000861224
-2.62494e-06
0.000864377
-2.33624e-06
0.000867261
-2.0375e-06
0.000869859
-1.73602e-06
0.000872108
-1.42785e-06
0.000874173
-1.0969e-06
0.000876128
-7.46357e-07
0.000877918
-4.20128e-07
0.000879544
-1.87385e-07
0.000880943
-2.15908e-07
0.000882029
-6.16429e-07
0.00088291
-2.07794e-06
0.000884093
-5.67511e-06
0.000886635
-1.54067e-05
0.000894581
-2.72818e-05
0.000910626
-5.78027e-05
0.000932535
-5.65988e-05
0.000964722
-5.28311e-05
0.000993333
-4.92459e-05
0.00101713
-4.49405e-05
0.00103802
-4.2021e-05
0.0010574
-4.01303e-05
0.00107593
-3.91111e-05
0.00109414
-3.84517e-05
0.00111231
-3.76776e-05
0.00113027
-3.69212e-05
0.00114772
-3.66925e-05
0.00116448
-3.60679e-05
0.00118174
-3.48556e-05
0.0011978
-3.34405e-05
0.00121283
-3.26153e-05
0.00122781
-3.19664e-05
0.00124172
-3.05944e-05
0.00125573
-2.88955e-05
0.001268
-2.721e-05
0.00127903
-2.54593e-05
0.00129011
-2.38443e-05
0.00130076
-2.22729e-05
0.00131079
-2.08387e-05
0.00132134
-1.94651e-05
0.00133029
-1.75468e-05
0.00133783
-1.53627e-05
0.0013456
-1.35907e-05
0.00135174
-1.25475e-05
0.0013569
-1.1748e-05
0.00136325
-1.03022e-05
0.00136817
-8.46904e-06
0.00137095
-6.05584e-06
0.00137364
-3.56731e-06
0.00137561
-1.96272e-06
0.00137657
-1.4677e-06
0.00137785
1.67293e-07
0.00137616
2.73463e-06
0.00137242
5.18886e-06
0.00136907
6.9078e-06
0.00136523
7.96223e-06
0.00136116
9.13781e-06
0.00135653
9.8058e-06
0.00134955
1.04859e-05
0.00134217
1.12766e-05
0.00133475
1.10444e-05
0.00132705
1.02148e-05
0.00131899
1.0187e-05
0.00131124
1.0342e-05
0.00130297
9.67594e-06
0.00129496
9.80427e-06
0.00128709
1.00331e-05
0.0012771
1.21958e-05
0.00126375
1.75474e-05
0.00124746
2.66245e-05
0.00122497
4.19234e-05
0.00118828
7.17503e-05
0.00113382
0.000118264
0.00105164
0.000165084
0.00095361
0.000179452
0.000865655
0.000173389
0.000788902
0.000154672
0.000724086
0.000135231
0.00066675
0.000119126
0.000614227
0.000106489
0.000564929
9.77501e-05
0.000517598
9.32569e-05
0.000471792
9.62244e-05
0.000426311
0.000102323
0.000378984
0.00011754
0.000328157
0.000130421
0.000272683
0.000150751
0.000213256
0.000160296
0.000146694
0.000211162
7.5627e-05
4.23579e-06
2.90044e-06
0.000760311
1.60794e-06
0.000763827
3.66819e-07
0.000767717
-8.17151e-07
0.00077197
-1.93878e-06
0.000776567
-2.99043e-06
0.000781491
-3.96427e-06
0.000786718
-4.85835e-06
0.000792221
-5.66814e-06
0.000797972
-6.394e-06
0.000803938
-7.03003e-06
0.000810088
-7.57686e-06
0.00081639
-8.03713e-06
0.000822808
-8.4117e-06
0.000829309
-8.70303e-06
0.000835859
-8.90582e-06
0.000842418
-9.03503e-06
0.000848962
-9.09524e-06
0.000855457
-9.0721e-06
0.000861878
-8.986e-06
0.0008682
-8.83515e-06
0.000874395
-8.63259e-06
0.000880418
-8.38405e-06
0.00088626
-8.09051e-06
0.000891919
-7.74214e-06
0.000897358
-7.35257e-06
0.000902558
-6.92892e-06
0.000907521
-6.47768e-06
0.000912246
-6.00704e-06
0.000916761
-5.51329e-06
0.000921013
-4.99915e-06
0.00092493
-4.48078e-06
0.000928502
-3.94487e-06
0.000931671
-3.39376e-06
0.000934602
-2.8144e-06
0.000937379
-2.22751e-06
0.00093994
-1.65189e-06
0.000942259
-1.23356e-06
0.000944317
-1.24089e-06
0.000946044
-2.1045e-06
0.000947486
-5.19066e-06
0.000949053
-1.49993e-05
0.000951795
-3.46311e-05
0.00095965
-5.19093e-05
0.000977297
-9.06589e-05
0.00100058
-8.53378e-05
0.00103562
-7.65298e-05
0.00106486
-6.99677e-05
0.00108821
-6.41501e-05
0.00110792
-6.05732e-05
0.00112652
-5.83464e-05
0.00114457
-5.7151e-05
0.00116228
-5.63663e-05
0.00117978
-5.53399e-05
0.00119711
-5.43323e-05
0.00121417
-5.38252e-05
0.00123053
-5.28587e-05
0.00124702
-5.07727e-05
0.00126262
-4.86222e-05
0.00127708
-4.73441e-05
0.00129151
-4.62551e-05
0.00130504
-4.41723e-05
0.00131832
-4.14073e-05
0.00133035
-3.87797e-05
0.00134072
-3.64173e-05
0.00135086
-3.42949e-05
0.00136097
-3.20051e-05
0.00137035
-2.9694e-05
0.00137992
-2.7388e-05
0.00138777
-2.45796e-05
0.00139431
-2.15473e-05
0.00140125
-1.90872e-05
0.001407
-1.73859e-05
0.00141098
-1.60735e-05
0.00141531
-1.38849e-05
0.001419
-1.10428e-05
0.00142095
-7.81355e-06
0.00142344
-4.3121e-06
0.00142515
-1.9168e-06
0.00142435
-3.04228e-07
0.00142256
2.44565e-06
0.00142025
6.36307e-06
0.00141639
9.85373e-06
0.00141223
1.22679e-05
0.00140776
1.39316e-05
0.00140261
1.53979e-05
0.0013975
1.59568e-05
0.00139019
1.75807e-05
0.00138101
1.86194e-05
0.00137279
1.86955e-05
0.00136372
1.88566e-05
0.00135284
1.8834e-05
0.00134248
1.83864e-05
0.00133151
1.81467e-05
0.00131931
1.92497e-05
0.00130524
2.19576e-05
0.00128673
2.88738e-05
0.00126009
4.23509e-05
0.001221
6.53512e-05
0.00116948
9.68616e-05
0.00109239
0.000154148
0.000982983
0.000217394
0.000875394
0.00025407
0.000792964
0.000256878
0.000728818
0.000238228
0.000675004
0.000212014
0.000628194
0.00018814
0.000585076
0.00016832
0.000543732
0.000153329
0.000502535
0.000143484
0.000461303
0.00013893
0.000420676
0.00014371
0.00037996
0.000153114
0.000336764
0.000172742
0.000291225
0.000189387
0.000240603
0.000217045
0.000186132
0.000231638
0.000125847
0.000287132
6.31739e-05
1.10804e-06
-6.11037e-07
0.000767365
-2.27816e-06
0.000773062
-3.88145e-06
0.000779108
-5.41047e-06
0.000785491
-6.85836e-06
0.000792197
-8.21262e-06
0.000799207
-9.46216e-06
0.000806497
-1.0606e-05
0.00081404
-1.1633e-05
0.000821807
-1.25431e-05
0.000829763
-1.33296e-05
0.000837876
-1.39942e-05
0.000846111
-1.45405e-05
0.000854431
-1.49633e-05
0.000862799
-1.52642e-05
0.000871178
-1.54524e-05
0.000879531
-1.5533e-05
0.000887827
-1.55186e-05
0.000896028
-1.53971e-05
0.00090411
-1.51892e-05
0.000912044
-1.48724e-05
0.000919792
-1.44911e-05
0.00092733
-1.40626e-05
0.000934649
-1.35579e-05
0.000941717
-1.29758e-05
0.000948497
-1.23395e-05
0.000954987
-1.16625e-05
0.000961192
-1.09498e-05
0.000967106
-1.02151e-05
0.000972763
-9.44032e-06
0.000978088
-8.64249e-06
0.000983017
-7.84142e-06
0.000987548
-7.0194e-06
0.00099164
-6.17491e-06
0.000995415
-5.30103e-06
0.000998983
-4.42819e-06
0.00100231
-3.57357e-06
0.00100533
-2.90258e-06
0.00100803
-2.78728e-06
0.00101041
-3.949e-06
0.00101253
-8.52787e-06
0.00101479
-2.43947e-05
0.00101791
-5.58584e-05
0.00102635
-7.81349e-05
0.00104399
-0.000126267
0.00106399
-0.000114513
0.00109421
-9.96993e-05
0.00112091
-8.94715e-05
0.00114381
-8.25135e-05
0.00116381
-7.84437e-05
0.00118243
-7.59926e-05
0.00120059
-7.45179e-05
0.00121837
-7.35864e-05
0.00123581
-7.2457e-05
0.00125327
-7.11984e-05
0.00127056
-7.0354e-05
0.00128733
-6.89186e-05
0.00130369
-6.61312e-05
0.00131958
-6.31803e-05
0.00133442
-6.13091e-05
0.00134862
-5.98947e-05
0.00136247
-5.71488e-05
0.00137543
-5.31858e-05
0.00138738
-4.95415e-05
0.00139796
-4.65409e-05
0.00140761
-4.39786e-05
0.00141761
-4.10343e-05
0.00142649
-3.75447e-05
0.00143434
-3.40715e-05
0.00144151
-3.07213e-05
0.00144722
-2.69986e-05
0.00145268
-2.37721e-05
0.00145851
-2.14875e-05
0.00146188
-1.94737e-05
0.00146416
-1.64468e-05
0.00146639
-1.2689e-05
0.0014678
-8.54915e-06
0.00147005
-4.12351e-06
0.00147137
-8.44046e-07
0.00146879
1.62129e-06
0.00146471
5.53557e-06
0.00146137
1.04776e-05
0.00145774
1.50871e-05
0.00145363
1.83155e-05
0.00144957
2.01945e-05
0.00144393
2.24137e-05
0.00143672
2.45976e-05
0.00142819
2.58923e-05
0.00141827
2.74771e-05
0.00140793
2.88199e-05
0.00139565
2.95148e-05
0.00138236
2.97726e-05
0.00136826
3.0478e-05
0.00135182
3.27558e-05
0.00133179
3.80057e-05
0.00130512
4.82436e-05
0.00126674
6.80212e-05
0.00121357
9.5249e-05
0.00113596
0.00014388
0.00102618
0.000207129
0.000902271
0.000263118
0.000796976
0.000301153
0.000717185
0.000318585
0.000658478
0.000310451
0.000615429
0.000284214
0.000580714
0.00025527
0.00054774
0.000230378
0.000515203
0.000209662
0.000482005
0.000193887
0.000446684
0.000183968
0.000410064
0.00017996
0.000373381
0.000187119
0.000336528
0.000198634
0.000297507
0.000223123
0.000255723
0.000243452
0.000210545
0.000277119
0.000161434
0.000294578
0.000108823
0.000350629
5.35832e-05
-4.2299e-06
-6.30346e-06
0.000775603
-8.31933e-06
0.000783441
-1.02611e-05
0.000791603
-1.21125e-05
0.00080008
-1.38635e-05
0.000808857
-1.54982e-05
0.000817916
-1.70006e-05
0.000827233
-1.8369e-05
0.000836782
-1.95879e-05
0.000846529
-2.06544e-05
0.000856444
-2.15611e-05
0.000866488
-2.23119e-05
0.000876623
-2.29085e-05
0.000886814
-2.33439e-05
0.000897018
-2.36185e-05
0.000907195
-2.37516e-05
0.000917314
-2.37388e-05
0.000927333
-2.36053e-05
0.000937215
-2.33377e-05
0.00094693
-2.29489e-05
0.000956447
-2.24273e-05
0.000965727
-2.18187e-05
0.000974755
-2.11443e-05
0.000983517
-2.03681e-05
0.000991968
-1.95057e-05
0.00100007
-1.85727e-05
0.00100783
-1.75869e-05
0.00101525
-1.65547e-05
0.00102233
-1.54933e-05
0.00102911
-1.43887e-05
0.00103549
-1.32549e-05
0.00104142
-1.21159e-05
0.0010469
-1.09491e-05
0.00105192
-9.76328e-06
0.00105653
-8.5494e-06
0.00106086
-7.34311e-06
0.00106491
-6.17395e-06
0.00106864
-5.24425e-06
0.00107203
-4.95749e-06
0.00107504
-6.40883e-06
0.00107775
-1.22614e-05
0.0010804
-3.46241e-05
0.00108327
-7.76125e-05
0.00108786
-0.000101482
0.00109937
-0.000156969
0.0011125
-0.000140931
0.00113714
-0.000122179
0.00116099
-0.000109097
0.00118435
-0.000100828
0.00120611
-9.63494e-05
0.00122676
-9.36204e-05
0.00124657
-9.18972e-05
0.0012658
-9.0935e-05
0.00128483
-8.97494e-05
0.00130384
-8.8205e-05
0.00132236
-8.69121e-05
0.0013401
-8.50289e-05
0.00135728
-8.15157e-05
0.00137376
-7.7558e-05
0.0013897
-7.51049e-05
0.00140454
-7.32411e-05
0.00141833
-6.98466e-05
0.00143096
-6.46462e-05
0.00144204
-5.9751e-05
0.00145263
-5.62031e-05
0.00146221
-5.28714e-05
0.00147162
-4.90822e-05
0.00148076
-4.45037e-05
0.00148823
-3.99142e-05
0.00149508
-3.60229e-05
0.00150072
-3.19131e-05
0.00150542
-2.78639e-05
0.00151104
-2.48079e-05
0.00151488
-2.20431e-05
0.0015161
-1.80947e-05
0.00151711
-1.35105e-05
0.00151824
-8.53498e-06
0.00151982
-3.47911e-06
0.00152085
8.8989e-07
0.00151854
4.41541e-06
0.00151512
9.02019e-06
0.00151167
1.45926e-05
0.00150725
2.00243e-05
0.0015017
2.43299e-05
0.00149567
2.84097e-05
0.00148737
3.14046e-05
0.00147818
3.42593e-05
0.00146756
3.65145e-05
0.00145463
3.95634e-05
0.00143981
4.1624e-05
0.00142437
4.32441e-05
0.0014064
4.59193e-05
0.00138441
5.05707e-05
0.00135567
6.0155e-05
0.00131649
7.72068e-05
0.00126273
0.000101995
0.00118657
0.000146345
0.0010769
0.000205924
0.000946459
0.000268272
0.000826705
0.000313411
0.000732992
0.000344126
0.00066038
0.000360091
0.000605048
0.000361059
0.000563993
0.000344379
0.000534054
0.000316905
0.000508558
0.000288777
0.000483553
0.00026438
0.000457614
0.000244192
0.000428199
0.000229874
0.000397341
0.000220925
0.000366117
0.000217289
0.00033347
0.000226328
0.000298747
0.000240342
0.000262387
0.000268086
0.000223805
0.000292333
0.000183234
0.000329648
0.000139526
0.000350031
9.38605e-05
0.000404466
4.54152e-05
-1.17365e-05
-1.41365e-05
0.000785031
-1.64761e-05
0.000794966
-1.87337e-05
0.000805201
-2.08849e-05
0.00081573
-2.29181e-05
0.000826537
-2.48116e-05
0.000837604
-2.65452e-05
0.00084891
-2.81132e-05
0.000860426
-2.94993e-05
0.000872118
-3.06952e-05
0.000883954
-3.16933e-05
0.000895892
-3.24996e-05
0.000907894
-3.31104e-05
0.000919919
-3.35218e-05
0.000931925
-3.37388e-05
0.000943872
-3.37737e-05
0.000955719
-3.36259e-05
0.000967428
-3.33278e-05
0.000978967
-3.28642e-05
0.000990282
-3.2243e-05
0.00100135
-3.14756e-05
0.00101214
-3.05851e-05
0.00102262
-2.96033e-05
0.0010328
-2.85023e-05
0.00104261
-2.73052e-05
0.00105202
-2.60265e-05
0.00106102
-2.46788e-05
0.00106963
-2.32705e-05
0.00107786
-2.1822e-05
0.00108573
-2.03391e-05
0.00109314
-1.88224e-05
0.00110005
-1.72903e-05
0.00110648
-1.57255e-05
0.00111243
-1.41465e-05
0.00111786
-1.25441e-05
0.00112294
-1.0967e-05
0.0011277
-9.45706e-06
0.00113212
-8.19672e-06
0.00113614
-7.65847e-06
0.00113975
-9.20217e-06
0.00114302
-1.57724e-05
0.00114579
-4.12776e-05
0.00114802
-9.37363e-05
0.00114882
-0.000118297
0.00115224
-0.000182188
0.00115759
-0.000164496
0.00117392
-0.00014506
0.00119366
-0.000130432
0.00121746
-0.000121206
0.00124167
-0.000115924
0.00126515
-0.000112693
0.00128699
-0.000110868
0.0013077
-0.000109824
0.00132834
-0.000108205
0.00134883
-0.000106046
0.00136879
-0.000104053
0.00138819
-0.000101457
0.00140701
-9.73848e-05
0.00142511
-9.2597e-05
0.00144273
-8.89179e-05
0.00145939
-8.60231e-05
0.00147463
-8.14564e-05
0.00148853
-7.54859e-05
0.0015009
-6.95043e-05
0.00151281
-6.5452e-05
0.00152405
-6.18715e-05
0.0015344
-5.70963e-05
0.00154348
-5.15555e-05
0.00155129
-4.58046e-05
0.00155783
-4.10955e-05
0.00156364
-3.66512e-05
0.00156847
-3.18269e-05
0.00157309
-2.7682e-05
0.00157645
-2.38354e-05
0.00157738
-1.90241e-05
0.00157756
-1.33024e-05
0.00157848
-8.22869e-06
0.00157984
-2.96807e-06
0.00157859
2.03863e-06
0.00157378
7.31516e-06
0.00156745
1.34677e-05
0.00156065
2.06559e-05
0.00155385
2.74957e-05
0.00154689
3.33917e-05
0.00153941
3.80871e-05
0.00152959
4.24889e-05
0.00151738
4.70202e-05
0.00150249
5.15141e-05
0.00148578
5.53083e-05
0.00146716
5.949e-05
0.00144491
6.48192e-05
0.00141572
7.42487e-05
0.00137584
9.00756e-05
0.00132051
0.000115008
0.00124575
0.000154553
0.00113884
0.000212719
0.00100388
0.000277784
0.000873904
0.00032625
0.000768721
0.000362381
0.000684406
0.000386799
0.000618743
0.000399916
0.000568228
0.000400703
0.000529532
0.00039038
0.000499678
0.00036975
0.000476065
0.000342932
0.000454827
0.0003161
0.000432972
0.000293254
0.000410168
0.000273882
0.000383977
0.000261129
0.000356402
0.000254042
0.000327463
0.000252264
0.000296783
0.000262778
0.000264652
0.000278819
0.000231219
0.000308524
0.000195915
0.000336
0.000159219
0.000375323
0.000120624
0.000398618
8.09795e-05
0.000450038
3.8602e-05
-2.13664e-05
-2.40669e-05
0.000795656
-2.67064e-05
0.00080764
-2.92574e-05
0.000819901
-3.16868e-05
0.000832435
-3.39814e-05
0.000845227
-3.61135e-05
0.00085826
-3.80576e-05
0.000871511
-3.98014e-05
0.000884952
-4.13307e-05
0.000898547
-4.26301e-05
0.000912263
-4.3694e-05
0.000926057
-4.45236e-05
0.000939886
-4.51142e-05
0.000953707
-4.54673e-05
0.000967478
-4.55883e-05
0.000981155
-4.54873e-05
0.000994696
-4.51648e-05
0.00100806
-4.4652e-05
0.00102122
-4.394e-05
0.0010341
-4.30479e-05
0.00104668
-4.1983e-05
0.00105894
-4.07612e-05
0.00107086
-3.94164e-05
0.00108243
-3.79394e-05
0.00109357
-3.63538e-05
0.00110425
-3.46772e-05
0.00111447
-3.29158e-05
0.00112425
-3.10777e-05
0.0011336
-2.9189e-05
0.00114252
-2.72726e-05
0.00115096
-2.53295e-05
0.00115886
-2.33546e-05
0.00116621
-2.13305e-05
0.00117303
-1.93149e-05
0.00117928
-1.72827e-05
0.00118513
-1.52864e-05
0.0011906
-1.33724e-05
0.00119568
-1.16849e-05
0.00120031
-1.08096e-05
0.00120456
-1.20862e-05
0.00120831
-1.87744e-05
0.00121118
-4.45114e-05
0.00121289
-0.000102228
0.00121196
-0.000127601
0.00120938
-0.000199395
0.00120982
-0.000184362
0.00121877
-0.000168539
0.00123433
-0.000154267
0.00125697
-0.000144374
0.0012817
-0.000137503
0.00130696
-0.000133294
0.00133084
-0.000131436
0.00135382
-0.000130148
0.00137775
-0.00012795
0.00140176
-0.000125318
0.00142548
-0.000122652
0.00144854
-0.000119323
0.0014699
-0.000114683
0.00148997
-0.000109075
0.00150908
-0.000104205
0.00152692
-9.98896e-05
0.00154287
-9.448e-05
0.00155782
-8.72273e-05
0.00157108
-8.08159e-05
0.00158343
-7.5681e-05
0.00159472
-7.09815e-05
0.00160445
-6.53778e-05
0.00161325
-5.86056e-05
0.0016201
-5.21543e-05
0.0016257
-4.64579e-05
0.00163084
-4.13162e-05
0.00163481
-3.54919e-05
0.00163801
-2.9854e-05
0.00164044
-2.49298e-05
0.00164114
-1.9542e-05
0.00164101
-1.25896e-05
0.00163975
-5.94789e-06
0.00163738
8.81508e-08
0.00163502
6.45405e-06
0.00163
1.33578e-05
0.00162316
2.08783e-05
0.00161442
2.91287e-05
0.00160504
3.65172e-05
0.0015954
4.39263e-05
0.00158404
5.05096e-05
0.00157042
5.74185e-05
0.00155344
6.36822e-05
0.00153332
7.05346e-05
0.00150915
7.84104e-05
0.00147932
8.92779e-05
0.00144046
0.000104883
0.00138538
0.000129723
0.00131252
0.000165528
0.0012085
0.000222844
0.00107207
0.000290254
0.000934126
0.000343318
0.000820006
0.00038334
0.000727189
0.000410657
0.000652624
0.000428243
0.000593101
0.000437633
0.000545521
0.000438672
0.00050837
0.000430427
0.000479827
0.000414119
0.000457017
0.000391595
0.000437076
0.000365885
0.000417496
0.000339408
0.000396234
0.000318074
0.000372806
0.000300876
0.00034789
0.000290357
0.000322349
0.00028489
0.000294827
0.000284485
0.000265698
0.000296317
0.000235482
0.00031414
0.000204131
0.000345255
0.000171962
0.000374669
0.000139042
0.000414995
0.00010453
0.000441046
6.96941e-05
0.000488679
3.27594e-05
-3.30701e-05
-3.6046e-05
0.000807488
-3.89626e-05
0.000821468
-4.17865e-05
0.000835703
-4.44747e-05
0.000850192
-4.70092e-05
0.000864921
-4.93606e-05
0.000879872
-5.14948e-05
0.000895021
-5.33926e-05
0.00091034
-5.50412e-05
0.000925794
-5.64197e-05
0.000941343
-5.75218e-05
0.000956948
-5.8344e-05
0.000972563
-5.8884e-05
0.000988138
-5.91448e-05
0.00100363
-5.91324e-05
0.001019
-5.88566e-05
0.0010342
-5.83197e-05
0.00104918
-5.75392e-05
0.0010639
-5.65382e-05
0.00107833
-5.53279e-05
0.00109241
-5.39182e-05
0.00110611
-5.23169e-05
0.00111941
-5.0557e-05
0.00113232
-4.86539e-05
0.00114476
-4.66296e-05
0.00115669
-4.45051e-05
0.0011681
-4.22736e-05
0.00117902
-3.99652e-05
0.00118945
-3.75796e-05
0.00119939
-3.51811e-05
0.00120885
-3.2745e-05
0.00121771
-3.02786e-05
0.00122596
-2.77569e-05
0.00123365
-2.52589e-05
0.0012407
-2.27463e-05
0.00124728
-2.02875e-05
0.00125345
-1.7883e-05
0.00125916
-1.57423e-05
0.00126444
-1.4425e-05
0.00126931
-1.51707e-05
0.00127342
-2.14343e-05
0.00127641
-4.63243e-05
0.0012777
-0.000105013
0.00127444
-0.000132121
0.00126782
-0.000209473
0.0012647
-0.00020014
0.00127066
-0.000190957
0.00128502
-0.000178618
0.00130624
-0.000169282
0.00133216
-0.000161077
0.00135958
-0.0001561
0.00138799
-0.000155289
0.00141822
-0.000153943
0.00144735
-0.000151315
0.00147512
-0.000148027
0.00150167
-0.000143854
0.00152631
-0.000139023
0.00154892
-0.000133235
0.00156974
-0.000126504
0.00158929
-0.000120153
0.00160728
-0.000114507
0.00162346
-0.000107768
0.00163745
-9.98839e-05
0.00165057
-9.22079e-05
0.00166291
-8.5903e-05
0.0016739
-7.96165e-05
0.00168336
-7.24067e-05
0.00169049
-6.52917e-05
0.00169748
-5.7689e-05
0.00170288
-5.12441e-05
0.00170735
-4.53467e-05
0.0017112
-3.84146e-05
0.0017132
-3.1632e-05
0.00171364
-2.52538e-05
0.00171348
-1.82733e-05
0.00171105
-1.03565e-05
0.00170757
-2.46331e-06
0.00170313
5.03231e-06
0.00169785
1.31802e-05
0.00169043
2.19805e-05
0.00168122
3.06856e-05
0.0016706
3.95255e-05
0.00165762
4.88394e-05
0.00164322
5.82992e-05
0.00162714
6.7806e-05
0.00160731
7.75468e-05
0.00158213
8.78914e-05
0.00155016
0.000101125
0.00150929
0.000118569
0.0014535
0.000145602
0.00138148
0.000178653
0.00128092
0.000234502
0.0011455
0.000302651
0.00100286
0.000361236
0.000880979
0.00040461
0.000781354
0.000436377
0.000700268
0.000458084
0.000634679
0.000470312
0.000581276
0.000475942
0.00053802
0.00047487
0.000502758
0.000467431
0.000473601
0.000453664
0.000449435
0.000434584
0.000428616
0.00041185
0.000408779
0.000387418
0.000388585
0.000361873
0.000366971
0.000342462
0.000343927
0.000326783
0.000319622
0.000318045
0.000294593
0.000313891
0.000267517
0.00031484
0.000239754
0.000327979
0.000211328
0.0003465
0.000181648
0.000378314
0.000151899
0.000409282
0.000122087
0.000449843
9.0905e-05
0.000477966
5.9919e-05
0.000521375
2.78483e-05
-4.67929e-05
-5.00208e-05
0.000820538
-5.31931e-05
0.000836456
-5.62702e-05
0.00085261
-5.91998e-05
0.000868999
-6.1955e-05
0.000885613
-6.45051e-05
0.000902429
-6.68097e-05
0.000919425
-6.8842e-05
0.000936572
-7.05858e-05
0.000953836
-7.20207e-05
0.000971171
-7.31336e-05
0.000988537
-7.39186e-05
0.00100589
-7.43804e-05
0.00102318
-7.45146e-05
0.00104035
-7.43334e-05
0.00105737
-7.38384e-05
0.00107417
-7.30471e-05
0.00109072
-7.19613e-05
0.00110698
-7.06329e-05
0.00112291
-6.90512e-05
0.00113844
-6.72458e-05
0.00115354
-6.52169e-05
0.00116819
-6.29966e-05
0.0011824
-6.06182e-05
0.00119611
-5.81018e-05
0.00120926
-5.54793e-05
0.00122184
-5.27317e-05
0.00123388
-4.98975e-05
0.00124538
-4.69961e-05
0.00125633
-4.40371e-05
0.00126672
-4.10543e-05
0.00127652
-3.80413e-05
0.00128565
-3.49769e-05
0.00129415
-3.19538e-05
0.00130198
-2.89219e-05
0.00130928
-2.59508e-05
0.00131612
-2.29869e-05
0.00132247
-2.03573e-05
0.00132848
-1.84924e-05
0.00133389
-1.85406e-05
0.00133835
-2.38418e-05
0.00134162
-4.60627e-05
0.00134322
-0.000104225
0.00134006
-0.0001333
0.00133106
-0.000216401
0.00132814
-0.000214546
0.00133529
-0.000211887
0.00135328
-0.00020412
0.00137532
-0.000196349
0.00140131
-0.000189199
0.00142978
-0.000186207
0.00146133
-0.000184588
0.00149372
-0.000181676
0.00152493
-0.000177423
0.00155445
-0.000172273
0.001583
-0.000166331
0.00161029
-0.000159751
0.00163542
-0.000152453
0.00165825
-0.000144241
0.00167917
-0.000136235
0.00169844
-0.000128699
0.00171534
-0.000121024
0.00172985
-0.00011234
0.0017426
-0.000103709
0.00175461
-9.58492e-05
0.00176518
-8.77243e-05
0.00177341
-7.93185e-05
0.00177957
-7.09746e-05
0.001785
-6.27832e-05
0.00178968
-5.5249e-05
0.00179367
-4.79483e-05
0.00179591
-3.97212e-05
0.00179624
-3.14047e-05
0.00179506
-2.36245e-05
0.0017929
-1.52766e-05
0.0017892
-6.08395e-06
0.00178336
3.32737e-06
0.0017761
1.28844e-05
0.001767
2.26682e-05
0.00175634
3.29044e-05
0.00174292
4.40481e-05
0.00172785
5.46371e-05
0.00171148
6.60098e-05
0.00169013
7.91023e-05
0.00166303
9.34538e-05
0.00162884
0.000109888
0.00158524
0.000129505
0.00152702
0.000158172
0.00145296
0.000192147
0.00135327
0.00024748
0.00121924
0.000314927
0.00107355
0.000377556
0.000945099
0.000424795
0.000840151
0.000460942
0.000754485
0.000485748
0.000684875
0.000502082
0.000627422
0.000511719
0.00057966
0.00051382
0.000539404
0.000511283
0.000504971
0.000504082
0.000476148
0.00049189
0.000451568
0.000474995
0.000430027
0.000454979
0.000410081
0.000432293
0.00039
0.000408608
0.00036899
0.000384133
0.000346137
0.000367047
0.000322244
0.000352269
0.000297785
0.000344898
0.000272645
0.000341525
0.000245928
0.000343637
0.000219108
0.000358126
0.000192009
0.000376507
0.00016381
0.000408263
0.000135856
0.000440574
0.000108368
0.000480858
7.999e-05
0.00050998
5.22455e-05
0.000549084
2.43689e-05
-6.24755e-05
-6.59336e-05
0.00083482
-6.93419e-05
0.000852614
-7.26542e-05
0.000870627
-7.58091e-05
0.000888857
-7.87662e-05
0.000907296
-8.14957e-05
0.000925923
-8.39519e-05
0.000944711
-8.61e-05
0.000963631
-8.79182e-05
0.000982649
-8.93839e-05
0.00100172
-9.04826e-05
0.0010208
-9.12038e-05
0.00103983
-9.15559e-05
0.00105878
-9.15309e-05
0.00107759
-9.11407e-05
0.0010962
-9.03921e-05
0.00111456
-8.93053e-05
0.00113264
-8.78927e-05
0.00115039
-8.61744e-05
0.00116778
-8.41754e-05
0.00118472
-8.19253e-05
0.00120118
-7.94267e-05
0.00121716
-7.6707e-05
0.00123262
-7.3803e-05
0.00124756
-7.07436e-05
0.00126189
-6.75613e-05
0.0012756
-6.42528e-05
0.00128872
-6.08479e-05
0.00130125
-5.73642e-05
0.00131316
-5.38338e-05
0.00132453
-5.02325e-05
0.00133519
-4.66093e-05
0.00134514
-4.29462e-05
0.0013544
-3.93688e-05
0.00136301
-3.58001e-05
0.00137105
-3.22186e-05
0.00137856
-2.87256e-05
0.00138566
-2.55405e-05
0.00139234
-2.30535e-05
0.00139811
-2.23787e-05
0.00140284
-2.67047e-05
0.00140647
-4.61839e-05
0.00140853
-0.00010149
0.00140636
-0.000134814
0.00139865
-0.0002244
0.00139739
-0.000232413
0.00141078
-0.000233559
0.00143248
-0.000229667
0.00145785
-0.000224407
0.00148615
-0.000220531
0.00151725
-0.000218528
0.00155213
-0.000216024
0.00158845
-0.000211374
0.00162301
-0.000205655
0.001655
-0.000198968
0.0016854
-0.000191195
0.00171415
-0.000182716
0.00174061
-0.000173483
0.00176502
-0.000163526
0.00178675
-0.000153435
0.00180606
-0.000143719
0.00182403
-0.000134075
0.00183866
-0.00012442
0.00185079
-0.000114768
0.00186269
-0.000104957
0.00187152
-9.51309e-05
0.00187841
-8.55051e-05
0.00188444
-7.58285e-05
0.0018882
-6.64557e-05
0.00189094
-5.7577e-05
0.0018931
-4.86473e-05
0.00189264
-3.90303e-05
0.0018908
-2.94832e-05
0.00188689
-1.98299e-05
0.0018813
-9.65708e-06
0.00187432
8.38628e-07
0.00186507
1.21753e-05
0.00185327
2.35682e-05
0.00183842
3.63172e-05
0.00182256
4.84825e-05
0.0018053
6.11189e-05
0.00178179
7.70002e-05
0.00175097
9.43534e-05
0.00171324
0.000114393
0.00166576
0.000137775
0.00160508
0.000168843
0.0015272
0.000204788
0.00142403
0.000259707
0.00128871
0.00032799
0.0011415
0.000393987
0.00100953
0.000443429
0.000900618
0.000482434
0.00081037
0.00051048
0.000736965
0.000530564
0.000676665
0.00054323
0.000626487
0.000549968
0.000583843
0.000552245
0.000547208
0.000548484
0.000516117
0.000540244
0.00048857
0.000528795