/*--------------------------------*- C++ -*----------------------------------*\
| =========                 |                                                 |
| \\      /  F ield         | OpenFOAM: The Open Source CFD Toolbox           |
|  \\    /   O peration     | Version:  2.2.x                                 |
|   \\  /    A nd           | Web:      www.OpenFOAM.org                      |
|    \\/     M anipulation  |                                                 |
\*---------------------------------------------------------------------------*/
FoamFile
{
    version     2.0;
    format      ascii;
    class       volScalarField;
    location    "1";
    object      By;
}
// * * * * * * * * * * * * * * * * * * * * * * * * * * * * * * * * * * * * * //

dimensions      [1 0 -2 0 0 -1 0];

internalField   nonuniform List<scalar> 
14161
(
-1.22615e-08
-5.25727e-09
-5.58568e-09
-4.67348e-09
-5.85599e-09
-1.01638e-08
-1.18876e-08
-1.07143e-08
-1.30129e-08
-1.63411e-08
-3.71603e-08
-1.07243e-08
-2.48847e-08
-1.62561e-08
-6.66607e-08
-4.85769e-08
1.82126e-07
-5.5443e-07
1.44755e-06
-8.3844e-07
-2.52624e-06
9.5554e-06
-7.84683e-06
-1.98473e-06
1.50283e-05
-2.34975e-05
4.74645e-05
-2.79066e-05
-4.1553e-05
0.000109621
1.44099e-06
-6.79482e-05
1.93592e-05
3.71825e-05
3.77002e-05
4.19053e-05
5.00595e-05
5.41494e-05
6.43072e-05
8.84533e-05
0.000128586
0.000173675
0.000209773
0.00023121
0.00023939
0.000206688
0.00032853
-6.77203e-06
0.00048628
-0.000769269
0.00417636
0.0197289
0.0139072
0.00222549
-0.00581057
-0.0103989
-0.0148003
-0.0163331
-0.0173598
-0.0158983
-0.0144057
-0.013636
-0.0127865
-0.0110622
-0.00953032
-0.00722661
-0.00688295
-0.00743689
-0.00612368
-0.0041689
-0.00308905
-0.00368276
-0.00467408
-0.00516619
-0.00389783
-0.00229648
-0.0026485
-0.003803
-0.0045803
-0.00525636
-0.00440085
-0.00344543
-0.00340201
-0.00416645
-0.00503446
-0.00580078
-0.00577014
-0.00551676
-0.00535909
-0.00526147
-0.00465643
-0.00436651
-0.00397379
-0.00479484
-0.00571434
-0.00441797
-0.00264762
0.00040028
0.00602037
0.0171151
0.0326918
0.0585496
0.0784469
0.0858461
0.07479
0.0584787
0.04814
0.0409779
0.0355234
0.0312505
0.0280758
0.0260826
0.0258139
0.026907
0.0289918
0.0328057
0.0421668
0.0496355
0.0490372
-2.48686e-08
-1.32518e-08
-1.44311e-08
-1.08774e-08
-1.28214e-08
-2.07147e-08
-2.91692e-08
-3.1222e-08
-3.7854e-08
-4.35269e-08
-7.5137e-08
-4.78153e-08
-5.31928e-08
-5.14158e-08
-5.39953e-08
-5.28252e-08
3.17198e-07
-6.93819e-07
1.96538e-06
-4.34629e-07
-4.21132e-06
1.24282e-05
-4.3058e-06
-6.99773e-06
2.61377e-05
-2.41498e-05
4.46274e-05
-1.40666e-05
-5.38266e-05
0.000120323
4.32391e-05
-6.77802e-05
4.51038e-05
0.000100413
0.000106794
0.000112503
0.000115415
0.00011283
0.000136252
0.000207384
0.000334263
0.000463673
0.000562609
0.000564985
0.000527594
0.000496718
0.000771658
0.000434588
0.000789646
0.000648092
0.0161611
0.0497273
0.0319248
0.00233554
-0.0200457
-0.0332147
-0.0447868
-0.0468651
-0.0462167
-0.0453932
-0.0428098
-0.039784
-0.0362413
-0.0330524
-0.027544
-0.0237916
-0.0218946
-0.0203724
-0.0175491
-0.0128988
-0.0109304
-0.01261
-0.0139266
-0.0130213
-0.0108707
-0.00885076
-0.00879342
-0.010192
-0.0122966
-0.0146827
-0.0124613
-0.0093163
-0.00894262
-0.0117314
-0.0145273
-0.0171066
-0.016917
-0.0147259
-0.0142498
-0.0147302
-0.014053
-0.0110785
-0.00914462
-0.00955833
-0.00863489
-0.00763818
-0.00333524
0.00353565
0.0120376
0.0338947
0.0638309
0.125153
0.192448
0.211408
0.189368
0.159699
0.135022
0.11567
0.10058
0.0890574
0.0806494
0.0752871
0.0736565
0.0758412
0.080707
0.0905809
0.105722
0.114369
0.113342
-3.96164e-08
-2.34696e-08
-2.36357e-08
-2.08518e-08
-2.43215e-08
-3.48283e-08
-4.70254e-08
-5.77109e-08
-6.99269e-08
-7.79e-08
-1.21667e-07
-9.08905e-08
-1.02336e-07
-8.6537e-08
-9.37606e-08
-1.61717e-08
2.92156e-07
-6.55399e-07
2.71236e-06
-1.13989e-06
-3.84295e-06
1.48193e-05
-5.35235e-06
-4.33131e-06
2.37378e-05
-6.03996e-06
2.11835e-05
4.65945e-06
-1.04395e-05
8.49894e-05
4.57626e-05
-1.05e-05
6.5085e-05
0.000150101
0.000163531
0.000187102
0.000200021
0.000215193
0.000269309
0.000369655
0.000547805
0.000744468
0.000976661
0.00106533
0.00106337
0.00101243
0.00137079
0.00130448
0.00187527
0.00502503
0.0408477
0.0857964
0.0494083
-0.00201289
-0.040597
-0.065139
-0.0815334
-0.0852217
-0.0793482
-0.0745423
-0.0691127
-0.0633477
-0.0581534
-0.0515581
-0.0455893
-0.0397434
-0.0351349
-0.0309181
-0.0256754
-0.0202456
-0.0179339
-0.019033
-0.0198331
-0.0183185
-0.0156397
-0.0142342
-0.0155503
-0.0167929
-0.0188934
-0.0223771
-0.0207327
-0.0167886
-0.0150371
-0.0178324
-0.0205581
-0.025204
-0.0258445
-0.0234806
-0.0229263
-0.0239215
-0.0237886
-0.0197397
-0.016109
-0.0130516
-0.00957849
-0.00710438
0.00447993
0.0219064
0.0465692
0.0980125
0.166923
0.256089
0.293518
0.2869
0.254015
0.219627
0.191395
0.168317
0.149752
0.135064
0.124214
0.117637
0.116923
0.121835
0.131508
0.149002
0.165267
0.174821
0.176301
-4.74771e-08
-3.05727e-08
-3.15742e-08
-2.88827e-08
-3.18135e-08
-4.34954e-08
-6.31255e-08
-8.16768e-08
-9.55251e-08
-1.01709e-07
-1.56318e-07
-1.42286e-07
-1.3349e-07
-1.29926e-07
-1.11396e-07
-4.95881e-08
2.31392e-07
-2.91453e-07
2.31436e-06
-3.26079e-07
-2.196e-06
1.07313e-05
4.81685e-07
-1.11522e-06
2.08912e-05
1.09115e-05
-1.59847e-05
4.78024e-05
3.70816e-05
-1.25049e-05
6.77131e-05
0.000124677
5.98348e-05
0.000100139
0.000191963
0.000273578
0.000312889
0.000343459
0.000398206
0.000513589
0.000667497
0.000871379
0.00124562
0.00155585
0.0016078
0.00151243
0.00184533
0.00237778
0.00301691
0.00971996
0.0686517
0.129089
0.066979
-0.0117397
-0.0685178
-0.102383
-0.122534
-0.131028
-0.122759
-0.112136
-0.102109
-0.0922926
-0.0824056
-0.0724653
-0.0628398
-0.0554032
-0.0479245
-0.0399942
-0.0320054
-0.0273401
-0.0256544
-0.0265097
-0.026643
-0.0253084
-0.0227984
-0.0210143
-0.0225847
-0.0233264
-0.0248225
-0.0292278
-0.0298817
-0.0278406
-0.0257341
-0.0288088
-0.029688
-0.0343872
-0.034546
-0.0308989
-0.0305489
-0.0312526
-0.0313836
-0.0259677
-0.0202823
-0.0143669
-0.00302938
0.0049489
0.0294336
0.0721169
0.122462
0.219384
0.298495
0.36008
0.377899
0.353417
0.310638
0.271159
0.239261
0.213143
0.192052
0.175642
0.164157
0.157769
0.158096
0.165329
0.17809
0.200261
0.216256
0.226004
0.229819
-6.1506e-08
-3.98042e-08
-4.12792e-08
-3.96216e-08
-4.51912e-08
-6.03871e-08
-8.51784e-08
-1.10663e-07
-1.37731e-07
-1.51329e-07
-2.00155e-07
-2.12095e-07
-1.71249e-07
-2.06206e-07
-1.16776e-07
-4.58356e-08
1.09034e-07
4.08596e-07
9.35043e-07
8.85448e-07
1.17497e-06
3.37001e-06
9.54257e-06
1.36139e-06
1.28712e-05
3.57039e-05
-3.38205e-05
6.32042e-05
8.94497e-05
-5.85938e-05
5.09938e-05
0.000243483
0.000146223
6.88922e-05
0.000159024
0.000334673
0.000469095
0.000528347
0.000572742
0.000665271
0.000816555
0.00100843
0.00137088
0.00191298
0.00237745
0.0025512
0.00303602
0.00326205
0.00420086
0.0130373
0.0909516
0.176965
0.0830947
-0.027209
-0.104034
-0.144979
-0.162896
-0.174083
-0.167592
-0.151906
-0.137703
-0.124641
-0.110314
-0.0947874
-0.0804894
-0.0676799
-0.0591952
-0.0497463
-0.0394531
-0.0332925
-0.0313991
-0.0298912
-0.030045
-0.0308138
-0.0304461
-0.0289223
-0.0286475
-0.0284208
-0.0292505
-0.0328769
-0.0372153
-0.0378415
-0.0376697
-0.0389755
-0.0376546
-0.0399039
-0.0394209
-0.0337622
-0.0342257
-0.0340041
-0.033346
-0.0278114
-0.0166192
-0.00445356
0.0180271
0.0489751
0.0950175
0.185548
0.27932
0.365682
0.415075
0.435904
0.423841
0.389518
0.34654
0.307252
0.275844
0.249888
0.228626
0.211719
0.199864
0.193845
0.195133
0.20424
0.220227
0.244533
0.260172
0.270173
0.275799
-6.82036e-08
-4.72155e-08
-4.81992e-08
-4.85869e-08
-5.84287e-08
-7.35729e-08
-9.77256e-08
-1.3316e-07
-1.75122e-07
-1.91618e-07
-2.24858e-07
-2.77058e-07
-2.31228e-07
-2.84472e-07
-1.02309e-07
-7.40485e-08
-1.06255e-08
1.09541e-06
-4.6064e-07
2.41973e-06
5.16079e-06
-3.10128e-06
1.47545e-05
1.11121e-05
1.20417e-06
3.24517e-05
-5.81653e-06
4.72824e-05
7.38224e-05
3.41416e-06
4.02982e-05
0.000178019
0.000246678
0.000168234
0.000155708
0.000283485
0.000515406
0.00075144
0.000779723
0.000791918
0.000871847
0.00104278
0.00126052
0.00172715
0.00255822
0.00364518
0.00433888
0.00402566
0.00507224
0.014773
0.103261
0.223186
0.0979491
-0.051366
-0.145343
-0.194471
-0.213477
-0.223383
-0.215823
-0.19335
-0.171624
-0.15197
-0.132798
-0.115464
-0.0992803
-0.08094
-0.0644687
-0.0552671
-0.0484904
-0.0394177
-0.0356893
-0.0343303
-0.0328558
-0.0332466
-0.0353435
-0.0368715
-0.0376792
-0.0372728
-0.0361724
-0.0381468
-0.0450837
-0.0464586
-0.0448611
-0.0489549
-0.0473778
-0.0484974
-0.0448437
-0.0370701
-0.0354151
-0.0334291
-0.0303613
-0.0177448
0.0021011
0.0285448
0.071732
0.146013
0.245899
0.347771
0.428154
0.476253
0.488683
0.479561
0.451663
0.413355
0.373563
0.337218
0.306579
0.280658
0.259675
0.243308
0.232225
0.226845
0.229141
0.239908
0.258051
0.281959
0.297852
0.308121
0.314913
-8.38641e-08
-5.85676e-08
-5.85769e-08
-6.19953e-08
-7.74683e-08
-9.62252e-08
-1.2704e-07
-1.73812e-07
-2.27381e-07
-2.60464e-07
-2.9211e-07
-3.72895e-07
-3.28537e-07
-3.92148e-07
-1.67251e-07
-4.11585e-08
-1.68011e-07
1.46853e-06
-9.99094e-07
3.18055e-06
7.63512e-06
-5.19122e-06
1.51733e-05
2.08784e-05
-9.58086e-06
3.00261e-05
5.05279e-05
-1.249e-05
4.37374e-05
0.00015387
5.79962e-05
7.58663e-06
0.00020103
0.000400989
0.000270316
0.00020012
0.000332799
0.000646573
0.00106996
0.00107769
0.00103573
0.00110365
0.00130524
0.00160703
0.00220191
0.00319902
0.00471581
0.00584877
0.00671922
0.0142407
0.0949014
0.264062
0.102305
-0.0858323
-0.192437
-0.246886
-0.267547
-0.27453
-0.260768
-0.234348
-0.206632
-0.181293
-0.155455
-0.131075
-0.109889
-0.093708
-0.0757943
-0.0592663
-0.053169
-0.0481518
-0.0399939
-0.036762
-0.0374653
-0.0380699
-0.0393535
-0.042323
-0.045031
-0.0462333
-0.04457
-0.0460261
-0.0503322
-0.0513804
-0.0497207
-0.0525845
-0.0509684
-0.0483819
-0.0432785
-0.0349878
-0.0335771
-0.0230592
-0.00910369
0.0124643
0.0532556
0.110692
0.198423
0.3193
0.417859
0.493024
0.531916
0.543597
0.532843
0.506212
0.470631
0.43133
0.39438
0.360642
0.331767
0.307185
0.287523
0.272218
0.262052
0.257291
0.260369
0.272191
0.291618
0.314219
0.330252
0.340865
0.348332
-8.97869e-08
-6.66763e-08
-6.70907e-08
-7.07938e-08
-8.92579e-08
-1.13341e-07
-1.48725e-07
-2.01292e-07
-2.61197e-07
-3.11993e-07
-3.39179e-07
-4.29214e-07
-4.13238e-07
-4.82797e-07
-3.06723e-07
-3.75061e-08
-1.24048e-07
1.26481e-06
-4.11113e-07
3.15125e-06
6.73796e-06
-2.07771e-06
1.14937e-05
2.88831e-05
-4.27033e-06
1.88662e-05
9.07925e-05
-2.29804e-05
2.10934e-05
0.000222462
9.87055e-05
-3.71305e-05
0.000178375
0.000481627
0.000462723
0.00025264
0.000194077
0.00044892
0.000878558
0.00148869
0.00145224
0.00126967
0.00127856
0.00137934
0.00156139
0.00218893
0.00327676
0.00466105
0.00765056
0.014629
0.0720105
0.277398
0.0778406
-0.150913
-0.252383
-0.303651
-0.315606
-0.309383
-0.289529
-0.262266
-0.233416
-0.202684
-0.171676
-0.144142
-0.120912
-0.100115
-0.082412
-0.0646018
-0.054163
-0.0516206
-0.0484629
-0.0438812
-0.0407985
-0.0403266
-0.0432114
-0.0472249
-0.051684
-0.05362
-0.0515699
-0.0517903
-0.053953
-0.0554564
-0.0516359
-0.0508902
-0.0477412
-0.0442133
-0.0377658
-0.0232799
-0.0125452
0.00578669
0.0412052
0.0861174
0.164413
0.280216
0.38297
0.484846
0.547627
0.582931
0.593854
0.584993
0.559969
0.525683
0.486077
0.447345
0.412621
0.381557
0.354826
0.331882
0.313542
0.299169
0.290123
0.28592
0.289519
0.301803
0.321287
0.34247
0.358289
0.369203
0.37694
-1.05081e-07
-7.93104e-08
-8.14985e-08
-8.44562e-08
-1.08634e-07
-1.43966e-07
-1.86897e-07
-2.47343e-07
-3.25075e-07
-4.0407e-07
-4.3845e-07
-5.27813e-07
-5.43371e-07
-5.65702e-07
-5.53997e-07
-7.22031e-08
-1.43293e-07
6.45878e-07
1.03945e-06
1.83214e-06
5.20084e-06
5.08362e-06
6.24896e-06
2.29814e-05
1.30613e-05
1.77533e-05
5.72415e-05
2.16977e-05
3.20342e-05
0.000103417
0.000133052
9.14977e-05
0.000104003
0.000199129
0.00043823
0.000516018
0.000382736
0.000244363
0.000346234
0.000792009
0.00166625
0.00184815
0.00163681
0.00163281
0.00180912
0.00165603
0.00195467
0.00318872
0.00499345
0.0120453
0.0527116
0.216928
0.0383279
-0.229571
-0.316019
-0.353759
-0.356955
-0.345019
-0.320321
-0.285468
-0.251106
-0.217749
-0.182498
-0.15059
-0.124088
-0.102819
-0.0869765
-0.0686748
-0.0567645
-0.0556576
-0.0506271
-0.0461813
-0.0455635
-0.0457445
-0.0467939
-0.0480857
-0.0539339
-0.0574743
-0.0563593
-0.0537302
-0.0525791
-0.0513733
-0.0462894
-0.0435515
-0.0368505
-0.0254509
-0.0162796
0.00675618
0.0379428
0.0752335
0.151297
0.247275
0.347965
0.457095
0.538508
0.594711
0.624936
0.638419
0.631391
0.610067
0.579397
0.540552
0.499594
0.46209
0.429781
0.401229
0.376551
0.355176
0.338178
0.324937
0.316781
0.312987
0.316857
0.32888
0.347819
0.367523
0.382918
0.393997
0.40184
-1.10661e-07
-8.56114e-08
-9.22222e-08
-9.53935e-08
-1.2029e-07
-1.64318e-07
-2.16242e-07
-2.78314e-07
-3.59149e-07
-4.61781e-07
-5.23032e-07
-5.92124e-07
-6.66689e-07
-5.97579e-07
-8.13381e-07
-1.63688e-07
-1.70067e-07
7.57439e-08
2.77617e-06
5.30514e-07
3.90844e-06
1.38142e-05
1.53434e-06
1.4488e-05
4.11821e-05
7.34742e-06
1.11231e-05
0.000111457
6.33068e-05
-2.8685e-05
0.000170414
0.000341134
0.000132237
-1.78069e-05
0.000243793
0.000653828
0.000714679
0.000464845
0.000133325
0.000225507
0.000641013
0.00162133
0.00185295
0.00166014
0.00145228
0.00142678
0.00109845
0.00057381
0.000949626
-0.000771385
0.0134775
0.055174
-0.0815364
-0.268069
-0.327005
-0.360286
-0.366637
-0.361728
-0.344171
-0.311016
-0.270051
-0.227496
-0.187258
-0.155782
-0.128009
-0.102732
-0.0867263
-0.0683101
-0.0572873
-0.0563478
-0.0542817
-0.0493514
-0.0483682
-0.0487456
-0.0477145
-0.0474463
-0.0492302
-0.0540107
-0.0542833
-0.0524545
-0.0465253
-0.0413462
-0.0311157
-0.0206179
-0.00824781
0.0144515
0.0399505
0.0790425
0.152692
0.235101
0.332845
0.433057
0.519856
0.585833
0.630956
0.659333
0.672426
0.669403
0.653344
0.628258
0.594155
0.552964
0.512161
0.476855
0.44696
0.42044
0.397546
0.377704
0.362169
0.349942
0.342497
0.338958
0.342838
0.3541
0.372107
0.390185
0.404909
0.415921
0.423772
-1.26108e-07
-9.70591e-08
-1.07514e-07
-1.14265e-07
-1.41261e-07
-1.95486e-07
-2.64876e-07
-3.4045e-07
-4.28496e-07
-5.4823e-07
-6.62073e-07
-7.25567e-07
-8.48707e-07
-7.23279e-07
-9.86853e-07
-4.26512e-07
-1.38642e-07
-3.64061e-07
3.49567e-06
1.22326e-07
2.5827e-06
1.73941e-05
2.57939e-06
7.06765e-06
5.37338e-05
1.70628e-05
-3.75327e-06
0.000136645
7.76143e-05
-4.37218e-05
0.000152121
0.000349382
0.000153828
-3.84738e-05
0.000170697
0.000595384
0.000733446
0.000475642
0.000207139
-5.81143e-05
7.4683e-05
0.000610993
0.00141441
0.0014472
0.00110739
0.000774747
6.11516e-05
-0.000865466
-0.00262552
-0.00763188
-0.0283668
-0.148191
-0.378153
-0.362215
-0.327431
-0.337662
-0.35267
-0.353562
-0.346247
-0.32268
-0.284519
-0.238107
-0.191645
-0.155111
-0.127646
-0.0980195
-0.082959
-0.0684134
-0.0520306
-0.0511779
-0.0521302
-0.050528
-0.0482164
-0.0477614
-0.0477654
-0.043101
-0.04107
-0.0421273
-0.0425139
-0.0400801
-0.0314649
-0.015182
0.0029369
0.0320101
0.0591051
0.104605
0.164517
0.241582
0.334329
0.423384
0.509088
0.574023
0.624258
0.66063
0.684536
0.697885
0.698155
0.68728
0.668376
0.640924
0.604818
0.563781
0.524903
0.491982
0.464026
0.439083
0.417846
0.399601
0.385441
0.374094
0.367293
0.363837
0.367513
0.377805
0.394613
0.411054
0.42497
0.435702
0.443552
-1.33006e-07
-1.02727e-07
-1.15398e-07
-1.29203e-07
-1.57182e-07
-2.13144e-07
-2.94782e-07
-3.84493e-07
-4.78885e-07
-6.04825e-07
-7.41632e-07
-8.34247e-07
-9.76825e-07
-8.83328e-07
-1.05421e-06
-8.59243e-07
-1.85554e-07
-3.29031e-07
2.73348e-06
1.43623e-06
2.07122e-06
1.31817e-05
9.7951e-06
6.76321e-06
3.7571e-05
3.29063e-05
1.38138e-05
5.61845e-05
9.71376e-05
6.1138e-05
4.23171e-05
0.000121698
0.00023401
0.000205799
8.36543e-05
9.26548e-05
0.000420544
0.000538001
0.000438595
0.00016614
-0.000138104
-0.000182763
0.000156138
0.000881125
0.000777464
0.000525271
-0.000181562
-0.000396537
-0.00175609
-0.0119608
-0.0767725
-0.398117
-0.648064
-0.499004
-0.36472
-0.349835
-0.356731
-0.352845
-0.346317
-0.327716
-0.294032
-0.248636
-0.19763
-0.154173
-0.122403
-0.0928198
-0.0801425
-0.0619684
-0.0432967
-0.0424427
-0.0477208
-0.0470804
-0.0424183
-0.0384716
-0.0383591
-0.0327232
-0.0229785
-0.022247
-0.0161578
-0.00298539
0.0155759
0.0477659
0.084008
0.141533
0.204602
0.277871
0.350299
0.429327
0.509423
0.569129
0.617422
0.655095
0.685528
0.70481
0.716049
0.718604
0.711792
0.698699
0.678411
0.649626
0.613203
0.573483
0.537413
0.506852
0.480611
0.457299
0.43778
0.421088
0.408138
0.397528
0.391328
0.387825
0.391209
0.400396
0.415716
0.430512
0.443542
0.453779
0.461513
-1.48737e-07
-1.14333e-07
-1.27642e-07
-1.50884e-07
-1.87196e-07
-2.4601e-07
-3.40616e-07
-4.54515e-07
-5.70532e-07
-6.99955e-07
-8.8543e-07
-1.00298e-06
-1.1891e-06
-1.1396e-06
-1.11279e-06
-1.32274e-06
-1.90618e-07
-7.45431e-07
9.89383e-07
3.916e-06
2.06995e-06
7.054e-06
1.82619e-05
8.67213e-06
1.57229e-05
5.80992e-05
4.36626e-05
-3.25561e-06
0.000113104
0.0001901
2.65381e-05
-1.20663e-05
0.000279326
0.000438502
0.000184971
-0.000114462
4.7563e-05
0.000541932
0.000601406
0.000515209
9.17731e-06
-0.000438084
-0.000481283
-7.73416e-06
0.00035312
0.000122574
8.83174e-05
-0.000557097
-0.00434174
-0.0269129
-0.179124
-0.651649
-0.762563
-0.653163
-0.488127
-0.405285
-0.376904
-0.354225
-0.346095
-0.325718
-0.293971
-0.252562
-0.201344
-0.152588
-0.114421
-0.0844625
-0.0744549
-0.0520173
-0.0317404
-0.0290722
-0.0344499
-0.0335286
-0.0297052
-0.0229192
-0.0191334
-0.00942569
0.0127465
0.0274275
0.046313
0.0827498
0.121327
0.184142
0.254488
0.319619
0.384266
0.454587
0.520207
0.572478
0.614153
0.651598
0.682739
0.704641
0.719795
0.729289
0.73298
0.729108
0.720491
0.70625
0.684824
0.655937
0.620272
0.582697
0.549357
0.520949
0.496392
0.47482
0.457025
0.441787
0.429837
0.419801
0.414206
0.410568
0.413906
0.421915
0.435616
0.448816
0.460983
0.470604
0.478059
-1.56844e-07
-1.21512e-07
-1.33867e-07
-1.62773e-07
-2.10952e-07
-2.72354e-07
-3.66381e-07
-4.99822e-07
-6.48825e-07
-7.70833e-07
-9.65876e-07
-1.13303e-06
-1.35603e-06
-1.449e-06
-1.14363e-06
-1.76876e-06
-4.90619e-07
-7.93799e-07
-6.05265e-07
6.08323e-06
2.62095e-06
2.29177e-06
2.14155e-05
1.48333e-05
4.48758e-06
5.99342e-05
5.42195e-05
-5.17464e-06
8.16024e-05
0.000170484
5.67723e-05
-1.9177e-05
0.000165018
0.000339296
0.000207912
-9.58774e-05
-7.56242e-05
0.000279874
0.000586365
0.000430115
0.000152212
-0.000336709
-0.000661891
-0.0005315
1.81875e-05
5.65032e-05
0.000210748
-0.00105746
-0.00781906
-0.0541118
-0.360192
-0.78752
-0.803461
-0.754508
-0.656817
-0.52722
-0.427023
-0.382838
-0.357769
-0.329219
-0.292688
-0.250487
-0.19426
-0.145304
-0.101514
-0.0696975
-0.0600837
-0.0366074
-0.0170024
-0.013455
-0.0165711
-0.0118409
-0.00348785
0.0130593
0.0363523
0.0586439
0.0920748
0.135627
0.182456
0.252382
0.307561
0.367686
0.432005
0.48922
0.537507
0.581649
0.614361
0.651373
0.679882
0.701383
0.718788
0.731343
0.738946
0.743227
0.741422
0.735978
0.72599
0.710585
0.688767
0.660621
0.626568
0.591481
0.560742
0.534385
0.511554
0.491747
0.475614
0.461605
0.450424
0.440898
0.435852
0.432266
0.435614
0.442404
0.454469
0.466047
0.477317
0.486254
0.493318
-1.72373e-07
-1.3466e-07
-1.47463e-07
-1.79337e-07
-2.42253e-07
-3.19322e-07
-4.15148e-07
-5.6092e-07
-7.54669e-07
-9.18982e-07
-1.09076e-06
-1.33275e-06
-1.55364e-06
-1.85612e-06
-1.42028e-06
-1.85094e-06
-1.35121e-06
-5.92238e-07
-1.63852e-06
5.16217e-06
3.87664e-06
-1.59672e-07
1.58774e-05
2.42612e-05
4.57184e-06
2.74664e-05
6.42714e-05
3.34503e-05
1.48181e-05
9.67307e-05
0.000137182
6.36884e-05
1.34392e-05
0.000150613
0.000229202
0.00014679
-5.66586e-05
-5.81648e-05
0.000233613
0.000331438
0.000202041
-6.20803e-05
-0.00042057
-0.000560431
-0.000242235
-1.50177e-05
0.000322393
-0.00158844
-0.0145471
-0.113948
-0.57933
-0.821239
-0.818929
-0.798788
-0.756345
-0.676896
-0.564984
-0.456583
-0.394261
-0.351283
-0.302989
-0.250966
-0.182796
-0.131392
-0.0820489
-0.0526003
-0.0379296
-0.0128404
0.00628393
0.0128859
0.0250843
0.0472866
0.067026
0.0980441
0.155055
0.203383
0.257941
0.313431
0.367592
0.430355
0.478184
0.522036
0.562298
0.596642
0.619134
0.653015
0.677502
0.697785
0.71548
0.729195
0.739303
0.745733
0.749726
0.749746
0.746659
0.740067
0.729373
0.713432
0.691846
0.664739
0.632522
0.599918
0.57159
0.547167
0.526114
0.508094
0.493421
0.480322
0.469822
0.460864
0.456316
0.453043
0.456239
0.461817
0.47238
0.482359
0.492707
0.500883
0.50751
-1.8132e-07
-1.42575e-07
-1.59226e-07
-1.89825e-07
-2.58999e-07
-3.56925e-07
-4.62646e-07
-6.0207e-07
-8.17343e-07
-1.04469e-06
-1.2175e-06
-1.46475e-06
-1.71414e-06
-2.16643e-06
-1.90895e-06
-1.93182e-06
-2.23209e-06
-5.15848e-07
-2.24984e-06
1.96778e-06
5.97421e-06
-2.7034e-07
7.63017e-06
2.65944e-05
1.91408e-05
6.76733e-06
5.74129e-05
7.74462e-05
5.02331e-06
3.26983e-05
0.000162767
0.000135414
-2.1113e-05
3.59088e-06
0.000212742
0.000279394
7.41785e-05
-0.000157916
-6.07166e-05
0.000172206
0.000246843
8.80274e-05
-0.000157439
-0.00049819
-0.00050381
-0.000199165
-0.000333025
-0.00433411
-0.0322247
-0.225851
-0.734134
-0.842247
-0.83821
-0.826092
-0.804423
-0.768999
-0.70598
-0.605037
-0.493467
-0.398905
-0.319732
-0.244901
-0.163052
-0.106524
-0.0492977
-0.0216052
0.00485802
0.0373736
0.0706706
0.0859178
0.113815
0.169641
0.222457
0.275381
0.332607
0.375102
0.431217
0.481706
0.521177
0.557933
0.583844
0.606501
0.633582
0.658547
0.674931
0.69366
0.710396
0.724431
0.735911
0.744345
0.750168
0.754031
0.755649
0.754047
0.749866
0.742692
0.731326
0.715224
0.694078
0.668373
0.638314
0.608279
0.582125
0.559539
0.540284
0.523943
0.510352
0.497939
0.488128
0.479842
0.47578
0.472867
0.47574
0.480152
0.489446
0.497879
0.507256
0.514563
0.520794
-1.96911e-07
-1.53984e-07
-1.77393e-07
-2.1217e-07
-2.81506e-07
-3.99508e-07
-5.34769e-07
-6.79315e-07
-9.01995e-07
-1.19254e-06
-1.43328e-06
-1.68829e-06
-1.95309e-06
-2.46538e-06
-2.52856e-06
-2.16513e-06
-3.19991e-06
-1.00255e-06
-2.06965e-06
-1.2764e-06
6.9734e-06
1.18493e-06
-8.04498e-09
2.1369e-05
2.73729e-05
4.89357e-06
2.77464e-05
7.57309e-05
3.9139e-05
-8.51234e-06
8.45211e-05
0.000139266
4.57981e-05
-3.68953e-05
7.94905e-05
0.000204607
0.000128018
-9.97397e-05
-0.000108654
8.70257e-05
0.000210173
0.000119823
-3.45117e-05
-0.000338873
-0.00058511
-0.000211536
-0.00101338
-0.0076852
-0.0597219
-0.41996
-0.822213
-0.849073
-0.845922
-0.838517
-0.82648
-0.807945
-0.776889
-0.723198
-0.635158
-0.508564
-0.375196
-0.233608
-0.132018
-0.0563716
0.0142974
0.0565245
0.0863297
0.135502
0.202772
0.246283
0.281813
0.343993
0.395019
0.443989
0.486351
0.522076
0.556681
0.58279
0.601631
0.625746
0.645781
0.660127
0.67535
0.690604
0.704576
0.717843
0.729855
0.739595
0.747513
0.753085
0.756867
0.759108
0.758757
0.756552
0.751915
0.744128
0.732552
0.716627
0.696382
0.67214
0.644196
0.616487
0.592319
0.571597
0.554101
0.539157
0.526326
0.514628
0.505503
0.497922
0.494354
0.491663
0.494082
0.497556
0.505662
0.512636
0.521003
0.527388
0.533272
-2.08038e-07
-1.61005e-07
-1.87387e-07
-2.33616e-07
-3.02982e-07
-4.24779e-07
-5.90668e-07
-7.5945e-07
-9.70052e-07
-1.28929e-06
-1.60708e-06
-1.91951e-06
-2.20663e-06
-2.63503e-06
-3.11669e-06
-2.63286e-06
-3.84792e-06
-2.4032e-06
-1.58886e-06
-3.52907e-06
4.57501e-06
3.28008e-06
-3.1743e-06
1.22763e-05
3.01533e-05
1.18619e-05
1.04579e-05
5.68959e-05
6.79959e-05
8.53307e-06
9.12434e-06
0.000105093
0.000130084
1.20705e-05
-3.61282e-05
6.77559e-05
0.000134152
4.023e-05
-5.16154e-05
2.73224e-05
0.000127414
0.000102564
2.07777e-05
-0.000141215
-0.000350846
-3.71207e-05
-0.00167428
-0.0160557
-0.129851
-0.625075
-0.837619
-0.848661
-0.849028
-0.845401
-0.840864
-0.833502
-0.816977
-0.785235
-0.737666
-0.624851
-0.464294
-0.242261
-0.074988
0.0515713
0.126124
0.215211
0.257592
0.299225
0.360457
0.40855
0.452291
0.49558
0.529459
0.556202
0.578413
0.598619
0.62048
0.640659
0.653039
0.6646
0.678182
0.687648
0.699885
0.711195
0.721824
0.731524
0.740677
0.748142
0.753888
0.758282
0.761281
0.76238
0.761411
0.758466
0.753297
0.74506
0.733466
0.717983
0.698851
0.676119
0.650231
0.624615
0.602289
0.583307
0.567333
0.553507
0.541394
0.530537
0.522121
0.51524
0.512107
0.509422
0.51137
0.514248
0.521082
0.52665
0.534036
0.539628
0.545198
-2.24703e-07
-1.72948e-07
-1.99946e-07
-2.59231e-07
-3.40556e-07
-4.61152e-07
-6.4748e-07
-8.63846e-07
-1.09981e-06
-1.41424e-06
-1.80512e-06
-2.20824e-06
-2.64921e-06
-2.94053e-06
-3.56677e-06
-3.40921e-06
-4.40346e-06
-4.24201e-06
-1.80145e-06
-4.70129e-06
1.04072e-07
4.28989e-06
-3.80117e-06
4.55108e-06
2.44415e-05
1.34645e-05
4.72089e-06
3.68204e-05
6.85873e-05
2.38096e-05
-4.29122e-06
6.03168e-05
0.000130818
8.71888e-05
-4.04758e-05
-4.10931e-05
6.06018e-05
0.000100016
2.45716e-05
1.45008e-05
8.31327e-05
9.28806e-05
-4.01378e-05
-0.00014216
-0.000180635
-0.00106063
-0.0056754
-0.0376959
-0.27305
-0.76582
-0.850283
-0.850718
-0.851027
-0.850195
-0.849201
-0.845497
-0.836204
-0.813257
-0.777404
-0.661137
-0.479971
-0.178857
0.0637307
0.202695
0.300879
0.368436
0.421224
0.457418
0.498836
0.532415
0.55868
0.579873
0.597145
0.618063
0.634929
0.646371
0.656661
0.668433
0.679425
0.687969
0.697683
0.704481
0.713604
0.722599
0.732064
0.740544
0.748445
0.754906
0.759368
0.762777
0.764987
0.765121
0.76342
0.75995
0.754294
0.746066
0.734852
0.720114
0.702049
0.680632
0.656537
0.632863
0.612217
0.594773
0.580012
0.567106
0.555737
0.545782
0.538085
0.531816
0.528951
0.526088
0.527713
0.530124
0.535699
0.539922
0.546319
0.551264
0.556475
-2.37629e-07
-1.83883e-07
-2.07515e-07
-2.74803e-07
-3.7598e-07
-5.02364e-07
-6.87317e-07
-9.33844e-07
-1.23316e-06
-1.55339e-06
-1.93688e-06
-2.42008e-06
-3.05827e-06
-3.44319e-06
-3.83113e-06
-4.1737e-06
-4.93881e-06
-6.05993e-06
-2.71849e-06
-5.36485e-06
-4.19233e-06
3.67016e-06
-3.09381e-06
-2.27705e-06
1.67919e-05
1.61261e-05
-1.02994e-07
2.26686e-05
5.16543e-05
2.48642e-05
-2.24855e-06
3.82664e-05
0.00010237
0.0001046
9.93944e-06
-8.3528e-05
-1.87702e-05
0.00010907
0.000110182
4.41511e-05
5.77132e-05
0.000141329
1.56719e-05
-3.46066e-05
-0.000158435
-0.00146257
-0.00975076
-0.074479
-0.483563
-0.833673
-0.851574
-0.851659
-0.852715
-0.852367
-0.848954
-0.845328
-0.835996
-0.805341
-0.75643
-0.586057
-0.306355
0.0179227
0.233062
0.359394
0.439431
0.492882
0.527047
0.55324
0.577907
0.60028
0.620218
0.633988
0.641522
0.650208
0.66112
0.670699
0.67941
0.688211
0.697464
0.704045
0.711759
0.717306
0.724499
0.731338
0.739184
0.746919
0.753661
0.759123
0.762634
0.765358
0.766932
0.766678
0.76447
0.760724
0.755056
0.747108
0.736349
0.722482
0.705451
0.685307
0.662902
0.641043
0.621917
0.60585
0.592086
0.580028
0.569403
0.560423
0.553407
0.547817
0.545048
0.542005
0.543378
0.545262
0.549637
0.552691
0.558153
0.562509
0.567302
-2.53901e-07
-1.98738e-07
-2.23441e-07
-2.91625e-07
-4.11027e-07
-5.63768e-07
-7.52498e-07
-1.00743e-06
-1.3675e-06
-1.78539e-06
-2.14596e-06
-2.64068e-06
-3.45503e-06
-4.17855e-06
-4.31732e-06
-4.97927e-06
-5.60061e-06
-7.64558e-06
-4.85157e-06
-5.54605e-06
-8.37021e-06
4.53827e-07
-2.5973e-06
-5.86539e-06
7.0956e-06
1.23711e-05
-6.2946e-07
6.75273e-06
4.05669e-05
2.82543e-05
2.40587e-07
2.76898e-05
7.91747e-05
8.34569e-05
2.10208e-05
-9.47685e-05
-8.32698e-05
9.50733e-05
0.000169273
0.000121858
9.89166e-05
0.000140699
5.11735e-05
-9.45407e-05
-0.000219976
-0.00317048
-0.0231486
-0.16614
-0.680613
-0.842144
-0.849008
-0.849884
-0.850192
-0.850241
-0.843187
-0.834051
-0.813656
-0.745846
-0.639325
-0.36356
-0.0231263
0.22905
0.376393
0.464319
0.520949
0.562212
0.59388
0.615962
0.631855
0.642654
0.652407
0.663487
0.671154
0.67735
0.684551
0.691197
0.697424
0.703194
0.71027
0.715367
0.721218
0.724989
0.730318
0.735845
0.742757
0.750383
0.756714
0.761939
0.765457
0.768258
0.769578
0.768721
0.765931
0.761852
0.756213
0.748613
0.738287
0.72507
0.70891
0.689972
0.669195
0.649062
0.63144
0.616565
0.603529
0.592242
0.582396
0.574418
0.567971
0.563196
0.560325
0.557316
0.558177
0.559458
0.56267
0.564729
0.569405
0.57314
0.577505
-2.67287e-07
-2.10242e-07
-2.39862e-07
-3.07721e-07
-4.30864e-07
-6.12475e-07
-8.2919e-07
-1.07577e-06
-1.45001e-06
-1.97845e-06
-2.42193e-06
-2.85887e-06
-3.71417e-06
-4.81328e-06
-5.06583e-06
-5.74921e-06
-6.64702e-06
-8.48939e-06
-7.74318e-06
-5.65496e-06
-1.15596e-05
-5.12361e-06
-2.59996e-06
-7.68407e-06
-2.48778e-06
4.79211e-06
-4.85167e-06
-4.03284e-06
2.32427e-05
2.6395e-05
1.11471e-05
2.80151e-05
5.27023e-05
7.66366e-05
2.56188e-05
-6.60753e-05
-4.77606e-05
0.000101754
0.000125694
8.40169e-05
6.66652e-05
0.000108265
-1.77317e-05
-1.86681e-05
-0.00074136
-0.00653571
-0.0507921
-0.362713
-0.798137
-0.844054
-0.843282
-0.842137
-0.843299
-0.841438
-0.828384
-0.810041
-0.757101
-0.613049
-0.375748
-0.0424197
0.218853
0.377302
0.476279
0.538997
0.580501
0.610128
0.63253
0.650075
0.662701
0.672208
0.679283
0.686315
0.693378
0.696258
0.699712
0.704136
0.70877
0.71216
0.717621
0.721527
0.726698
0.730405
0.735647
0.741531
0.748094
0.755039
0.760352
0.764585
0.767484
0.769818
0.770898
0.76966
0.766873
0.763103
0.757973
0.750957
0.741147
0.728508
0.713113
0.695261
0.675891
0.65728
0.640893
0.626898
0.614521
0.604028
0.595014
0.587944
0.58201
0.578219
0.575015
0.572211
0.572458
0.573006
0.575198
0.576381
0.580355
0.583525
0.587378
-2.8403e-07
-2.22559e-07
-2.58855e-07
-3.36252e-07
-4.59231e-07
-6.54329e-07
-9.18847e-07
-1.19523e-06
-1.55336e-06
-2.15118e-06
-2.74584e-06
-3.24927e-06
-4.09346e-06
-5.30919e-06
-5.97823e-06
-6.68143e-06
-8.4099e-06
-8.99521e-06
-9.70627e-06
-7.8915e-06
-1.33158e-05
-1.17943e-05
-5.81394e-06
-1.03474e-05
-1.37827e-05
-4.95251e-06
-6.38743e-06
-1.30895e-05
5.66169e-06
2.31569e-05
2.27098e-05
2.95091e-05
1.89294e-05
3.62941e-05
1.31045e-05
2.5829e-05
5.71015e-05
0.000134904
8.37413e-05
4.56744e-05
1.75127e-06
4.10914e-05
8.67293e-05
0.000246874
-0.00137471
-0.0150246
-0.122153
-0.598997
-0.82263
-0.835882
-0.836927
-0.835749
-0.837577
-0.829654
-0.800478
-0.754133
-0.620064
-0.361679
-0.0380667
0.219661
0.381464
0.483094
0.547705
0.590854
0.621416
0.644161
0.66095
0.673731
0.683011
0.689972
0.696079
0.700358
0.706489
0.707715
0.710169
0.714926
0.719818
0.723662
0.728396
0.731279
0.734791
0.737275
0.741069
0.745819
0.751158
0.75702
0.761862
0.766564
0.770469