/*--------------------------------*- C++ -*----------------------------------*\
| =========                 |                                                 |
| \\      /  F ield         | OpenFOAM: The Open Source CFD Toolbox           |
|  \\    /   O peration     | Version:  2.2.x                                 |
|   \\  /    A nd           | Web:      www.OpenFOAM.org                      |
|    \\/     M anipulation  |                                                 |
\*---------------------------------------------------------------------------*/
FoamFile
{
    version     2.0;
    format      ascii;
    class       surfaceScalarField;
    location    "1";
    object      cfmax;
}
// * * * * * * * * * * * * * * * * * * * * * * * * * * * * * * * * * * * * * //

dimensions      [0 3 -1 0 0 0 0];

internalField   nonuniform List<scalar> 
28084
(
0.000746234
0.000742999
0.000740226
0.000737896
0.000735988
0.00073448
0.00073335
0.000732575
0.00073213
0.00073199
0.000732131
0.000732527
0.000733155
0.000733989
0.000735007
0.000736185
0.000737501
0.000738933
0.00074046
0.000742059
0.00074373
0.000745412
0.0007471
0.000748846
0.00075051
0.000752131
0.000753722
0.000755168
0.00075657
0.000757723
0.000758723
0.000759651
0.000760291
0.00076072
0.000760953
0.000760954
0.000760685
0.000760188
0.000759419
0.000758141
0.000756548
0.000754579
0.000752034
0.000749008
0.000745742
0.000753127
0.000758751
0.000764474
0.000770658
0.000778481
0.000626494
0.000432874
0.000419108
0.000421828
0.00042914
0.000438987
0.000448807
0.000460363
0.000471381
0.00048257
0.000493177
0.000503424
0.000513068
0.000522272
0.000531406
0.000539615
0.000546555
0.000552851
0.00055834
0.000563513
0.000568182
0.000571789
0.000574471
0.000576963
0.000579013
0.000581377
0.000581883
0.000581849
0.000581296
0.00058153
0.000583187
0.00058321
0.000580206
0.000580926
0.000579193
0.000578713
0.000576911
0.0005751
0.000573516
0.000579627
0.000581566
0.000585189
0.000587848
0.000590446
0.000597554
0.000598865
0.000600165
0.00059668
0.000594922
0.000575943
0.000555624
0.000522576
0.000490027
0.000461328
0.000441272
0.000428627
0.000420125
0.000413882
0.000410168
0.000408893
0.000408632
0.00040929
0.00041115
0.000414467
0.000418561
0.000422486
0.000425319
0.000427656
0.00144511
0.00144285
0.000749751
0.00143754
0.000748796
0.00142922
0.000748273
0.00141796
0.000748166
0.00140385
0.000748455
0.00138701
0.000749121
0.00136758
0.00075014
0.0013457
0.000751488
0.00132156
0.000753141
0.00129543
0.000755072
0.00126756
0.000757255
0.00123797
0.000759663
0.00120687
0.000762269
0.00117446
0.000765047
0.00114095
0.000767972
0.00110655
0.000771018
0.00107145
0.000774161
0.00103585
0.000777377
0.000999913
0.000780642
0.000963823
0.000783935
0.000927724
0.000787244
0.000891779
0.000790519
0.000856128
0.000793762
0.000820852
0.000796984
0.000786076
0.000800098
0.000751934
0.000803092
0.000718446
0.000806015
0.000685689
0.000808755
0.000653727
0.000811314
0.000622651
0.000813655
0.000592446
0.000815788
0.000563159
0.000817673
0.000534837
0.000819286
0.0005075
0.000820624
0.000481151
0.00082173
0.000455804
0.000822532
0.000431591
0.000822998
0.00040832
0.000823143
0.000386019
0.000822947
0.000364682
0.000822231
0.000344244
0.000821076
0.000324691
0.000819647
0.00030605
0.000817483
0.000288352
0.000814697
0.000291776
0.000811682
0.000291169
0.000818308
0.000290504
0.000823229
0.000289994
0.00082785
0.000288596
0.000832578
0.000277473
0.000837879
0.000289301
0.000666554
0.000289302
0.000464717
0.000289607
0.000448428
0.000293325
0.000451965
0.000295492
0.000459583
0.000299023
0.000469923
0.000301481
0.00047977
0.000303977
0.000491266
0.000306269
0.000502214
0.000308367
0.000513153
0.000310437
0.000523615
0.000312875
0.00053378
0.000314509
0.000543296
0.000317005
0.000552477
0.000319093
0.000560908
0.000320339
0.000568677
0.00032181
0.000575676
0.000323703
0.000582007
0.000325775
0.000587557
0.000327256
0.000591945
0.000328572
0.000595627
0.000330175
0.000598762
0.000332226
0.000601342
0.000334566
0.000603617
0.000336781
0.000605436
0.000338599
0.000606606
0.0003405
0.000606466
0.000342891
0.000605852
0.000346412
0.000604842
0.000350035
0.000604732
0.000352782
0.000606097
0.000355153
0.000605816
0.000357793
0.000602379
0.000361328
0.000602602
0.000365247
0.000600511
0.000368928
0.000599688
0.000372627
0.000597302
0.000376568
0.000594946
0.000380854
0.000593869
0.000384628
0.000601074
0.000388804
0.000603091
0.00039352
0.000606743
0.000397474
0.000609226
0.000402074
0.000610423
0.000406461
0.000614665
0.000410655
0.000613874
0.000414407
0.000611905
0.000417511
0.000600896
0.00041966
0.000592018
0.000419213
0.000564157
0.000416803
0.000547381
0.000410851
0.000516262
0.00039929
0.00048667
0.000389641
0.000460862
0.000381217
0.000443222
0.00037556
0.000430645
0.000371949
0.000421684
0.000370051
0.00041505
0.000369783
0.000411068
0.000370295
0.000409438
0.000371201
0.000408702
0.000372953
0.000408867
0.000375444
0.000410244
0.00037889
0.000412909
0.000383121
0.000416117
0.000387981
0.000419328
0.000391836
0.000422134
0.000402282
0.000424454
0.00144568
0.0014432
0.000754446
0.00143767
0.000755741
0.00142915
0.000757441
0.00141769
0.000759529
0.0014034
0.00076199
0.00138638
0.000764803
0.00136732
0.000767946
0.00134592
0.000771393
0.00132222
0.00077512
0.00129639
0.000779099
0.00126862
0.000783301
0.00123912
0.000787698
0.0012081
0.000792262
0.00117576
0.000796963
0.0011423
0.000801774
0.00110794
0.000806668
0.00107287
0.000811618
0.00103727
0.000816599
0.00100134
0.000821585
0.000965233
0.000826556
0.000929116
0.000831482
0.000893143
0.000836344
0.000857443
0.000841126
0.000822129
0.00084578
0.000787304
0.000850342
0.00075308
0.000854713
0.000719549
0.000858939
0.000686706
0.000862921
0.000654666
0.000866643
0.000623535
0.000870215
0.000593247
0.000873417
0.000563864
0.000876289
0.000535461
0.000878892
0.000508048
0.000881173
0.000481612
0.000883154
0.000456163
0.000884772
0.000431707
0.000885984
0.000408214
0.000886767
0.000385969
0.000887136
0.000364757
0.000887011
0.000344487
0.000886361
0.000325051
0.000885593
0.000306508
0.000884058
0.000288894
0.000881623
0.000296396
0.000878963
0.000295939
0.000884704
0.00029544
0.000888934
0.000294885
0.000892691
0.000292463
0.000896173
0.000278149
0.000900065
0.000294662
0.000711187
0.000292003
0.000497956
0.000292319
0.000478485
0.000298333
0.000482237
0.000302128
0.000490672
0.00030631
0.000501481
0.000309089
0.000511994
0.000311337
0.000524061
0.000313548
0.000535424
0.000315421
0.00054624
0.000317417
0.000556848
0.000319254
0.000567003
0.000321195
0.000576408
0.000322732
0.000585243
0.000324452
0.000593427
0.000325851
0.000600636
0.000327063
0.000607396
0.00032834
0.000613313
0.000329753
0.000618477
0.000331142
0.00062216
0.000331989
0.000625256
0.000333142
0.000627926
0.000335141
0.000630175
0.000337278
0.000631844
0.000339047
0.000633065
0.000340541
0.000633424
0.000342084
0.000632594
0.00034411
0.00063149
0.000347433
0.000629986
0.000350802
0.000629116
0.000353903
0.000629852
0.000357255
0.000629634
0.000359922
0.000625252
0.000363621
0.000625273
0.000367897
0.000622979
0.000371711
0.000621944
0.000375239
0.000619076
0.000379469
0.000617604
0.000383618
0.000617393
0.000386574
0.000622855
0.000389718
0.000623968
0.000393328
0.000626753
0.00039721
0.000627466
0.000402773
0.000626668
0.00040659
0.00062689
0.000410619
0.000621713
0.000413008
0.000612334
0.000414742
0.000590078
0.000415454
0.000574086
0.00041351
0.000548037
0.000413724
0.000520576
0.000412931
0.000493266
0.000407566
0.000471854
0.000397801
0.000454263
0.000389543
0.000440709
0.000383611
0.000430501
0.000379545
0.00042275
0.000377191
0.00041668
0.000376454
0.000412884
0.00037647
0.000410972
0.000377062
0.000409818
0.000379137
0.000409225
0.000382235
0.000409775
0.00038685
0.000411553
0.000392233
0.000414168
0.000398814
0.000417021
0.000404193
0.000420034
0.000416144
0.000423547
0.00144513
0.00144244
0.000760319
0.00143672
0.000763832
0.001428
0.000767722
0.00141717
0.000771976
0.00140383
0.000776579
0.0013877
0.00078151
0.00136893
0.000786748
0.00134767
0.000792267
0.00132409
0.000798041
0.00129836
0.00080404
0.00127069
0.000810236
0.00124127
0.000816597
0.00121031
0.000823094
0.00117801
0.000829694
0.00114459
0.000836369
0.00111024
0.000843088
0.00107517
0.000849823
0.00103956
0.000856546
0.0010036
0.000863232
0.000967461
0.00086986
0.000931305
0.000876379
0.000895276
0.000882808
0.000859491
0.000889116
0.000824115
0.000895193
0.000789218
0.000901178
0.000754891
0.000906914
0.000721259
0.000912413
0.000688337
0.000917646
0.000656209
0.000922552
0.000624934
0.000927274
0.000594567
0.000931577
0.000565078
0.000935452
0.000536573
0.000938998
0.000509062
0.000942267
0.000482512
0.000945119
0.000456944
0.000947612
0.000432369
0.000949597
0.000408773
0.000951043
0.00038613
0.00095203
0.000364636
0.000952545
0.000344569
0.000952607
0.000325328
0.000952376
0.000306927
0.000951744
0.000289422
0.000950123
0.000301083
0.000947778
0.000300757
0.000952903
0.000300429
0.000956172
0.0002999
0.000959538
0.000296329
0.000962297
0.0002858
0.000966233
0.000302516
0.00077249
0.000293598
0.000534754
0.000294892
0.000510417
0.000303161
0.000514036
0.000309442
0.000524612
0.000314599
0.000534914
0.000318516
0.000546708
0.000320352
0.000558593
0.000322046
0.000570743
0.00032354
0.000582166
0.000325269
0.000593469
0.00032689
0.000603783
0.000328119
0.000613194
0.000329177
0.000621789
0.000329975
0.000629015
0.000331039
0.000635557
0.000332104
0.000641233
0.000332807
0.000646461
0.000333587
0.000651042
0.000334406
0.000654016
0.000335099
0.000656448
0.000336059
0.000658543
0.000337672
0.000660155
0.000339531
0.00066089
0.000341162
0.000661291
0.00034248
0.000660869
0.000343994
0.000659916
0.000345916
0.000658541
0.000348923
0.000656568
0.000351926
0.00065492
0.000354169
0.000655166
0.000357387
0.00065553
0.000360486
0.000649821
0.000364373
0.000649464
0.000368466
0.000646192
0.000372426
0.000644677
0.000376264
0.000644205
0.000380566
0.000644052
0.000384758
0.000642867
0.000387679
0.000646283
0.0003905
0.000645973
0.000394105
0.000645384
0.000397894
0.000643796
0.000402817
0.000638461
0.000405246
0.000635255
0.000407978
0.00061344
0.000410141
0.000600864
0.000409482
0.000573327
0.00041003
0.00054597
0.000409044
0.000515231
0.000413195
0.000487232
0.00041715
0.000467918
0.000416083
0.000453796
0.000406566
0.000444511
0.000398824
0.000435931
0.000393295
0.000427787
0.000388967
0.000421594
0.000385923
0.000416241
0.000384272
0.000412717
0.000383675
0.000410508
0.000384433
0.00040893
0.000386794
0.000408198
0.000390447
0.000408602
0.000395667
0.000410291
0.000401734
0.000412652
0.000409442
0.0004154
0.000415509
0.000418746
0.000427711
0.000423316
0.00144348
0.00144122
0.000767373
0.00143697
0.000773067
0.00142967
0.000779113
0.00141939
0.000785498
0.0014062
0.000792208
0.00139023
0.000799225
0.0013716
0.000806526
0.00135047
0.000814086
0.00132699
0.000821876
0.00130136
0.000829867
0.00127377
0.000838028
0.00124441
0.000846325
0.00121349
0.000854726
0.00118122
0.000863198
0.00114781
0.000871709
0.00111346
0.000880228
0.00107836
0.000888723
0.00104272
0.000897164
0.00100671
0.000905525
0.000970505
0.000913784
0.000934276
0.000921883
0.000898165
0.000929853
0.00086228
0.000937656
0.000826804
0.000945155
0.000791811
0.000952532
0.000757357
0.000959631
0.000723584
0.000966373
0.000690564
0.000972872
0.000658315
0.000979003
0.000626893
0.000984763
0.000596383
0.000990192
0.000566793
0.000995138
0.000538174
0.000999657
0.000510522
0.00100381
0.000483847
0.00100758
0.00045815
0.0010109
0.000433436
0.00101381
0.000409721
0.00101606
0.000386985
0.0010177
0.000365209
0.00101892
0.00034448
0.0010197
0.000325508
0.00102011
0.000307424
0.00102013
0.000290001
0.00101995
0.000305857
0.00101862
0.000305684
0.00102348
0.000305618
0.00102605
0.000305204
0.00102955
0.000301269
0.00103266
0.000294849
0.00103799
0.000310416
0.000859286
0.000296228
0.000576838
0.000298763
0.000546073
0.000309201
0.000549526
0.000317717
0.000560346
0.000323415
0.000572259
0.000328182
0.000585588
0.000330677
0.000597243
0.000332186
0.000609854
0.000333398
0.000621582
0.000334764
0.000632486
0.000335758
0.0006432
0.00033658
0.000652321
0.000336591
0.000659819
0.000336101
0.000666017
0.00033564
0.000671646
0.00033621
0.000676768
0.000337031
0.000681439
0.000337489
0.000685086
0.000337714
0.000687618
0.000338116
0.000689322
0.00033869
0.000690659
0.00033972
0.000691407
0.000341386
0.000691498
0.000343237
0.000690809
0.000344754
0.000689827
0.000346207
0.000688584
0.000347722
0.000687622
0.00035025
0.000685736
0.000352764
0.000682774
0.000355882
0.000682332
0.000359649
0.000681401
0.000363127
0.00067525
0.00036676
0.000674761
0.000370169
0.000672608
0.000374107
0.000674688
0.000378378
0.000672483
0.000382798
0.000671914
0.000387076
0.000668627
0.000389752
0.000669399
0.000392099
0.000666794
0.000395526
0.000661015
0.000398671
0.000655359
0.000402239
0.000638517
0.000403054
0.000631084
0.000404082
0.000599903
0.000405396
0.000579715
0.000403039
0.000543351
0.000407691
0.000510022
0.000412732
0.000484941
0.000415615
0.000464609
0.000417265
0.000450982
0.00041488
0.000441607
0.000409858
0.000435558
0.00040422
0.00043059
0.000398993
0.000424982
0.000394974
0.000419701
0.000392468
0.000415495
0.000391179
0.000412474
0.000390858
0.000410454
0.000391578
0.000408803
0.000394257
0.000407643
0.000398171
0.000407809
0.000404134
0.00040929
0.000410858
0.000411616
0.000419405
0.000414394
0.000425913
0.000418386
0.000437969
0.000423537
0.00144499
0.001444
0.000775611
0.00143993
0.000783446
0.00143281
0.000791608
0.00142268
0.000800086
0.00140965
0.000808867
0.00139382
0.000817934
0.00137532
0.000827263
0.0013543
0.000836828
0.00133092
0.000846602
0.00130537
0.000856551
0.00127784
0.000866643
0.00124853
0.000876844
0.00121764
0.000887119
0.00118538
0.000897432
0.00115195
0.00090775
0.00111757
0.000918039
0.00108244
0.000928265
0.00104673
0.000938398
0.00101065
0.000948407
0.00097436
0.000958269
0.000938031
0.000967929
0.000901803
0.000977409
0.000865802
0.000986671
0.000830197
0.000995598
0.000795063
0.00100431
0.000760478
0.00101274
0.000726543
0.00102075
0.00069337
0.00102845
0.000661001
0.0010358
0.000629411
0.00104262
0.000598736
0.00104903
0.000569007
0.00105522
0.00054024
0.00106074
0.000512441
0.00106573
0.000485626
0.0010703
0.000459789
0.00107462
0.000434946
0.00107847
0.000411102
0.00108176
0.00038823
0.00108432
0.000366349
0.00108612
0.000345428
0.00108762
0.000325512
0.0010888
0.000307703
0.00108958
0.000290733
0.00109001
0.000310816
0.00109037
0.00031096
0.00109618
0.000311097
0.00110033
0.000310961
0.00110301
0.000307108
0.00110712
0.000298323
0.00111367
0.000319559
0.000976007
0.000299937
0.000621206
0.000304197
0.000582979
0.000316953
0.000587421
0.000328312
0.000601224
0.000334414
0.000614914
0.0003393
0.00062966
0.000342157
0.000641774
0.000343284
0.000653051
0.000343637
0.000664174
0.000344338
0.000673886
0.000344639
0.000683154
0.00034421
0.000691952
0.000342979
0.000699303
0.00034193
0.000705002
0.000340729
0.00070996
0.000339746
0.000713574
0.000340217
0.000718677
0.000340756
0.000721646
0.000340615
0.000723857
0.000340936
0.000725645
0.000341275
0.000726175
0.000341874
0.000725707
0.000342946
0.000724882
0.000344564
0.0007236
0.000346347
0.000721615
0.000348233
0.000719651
0.000349789
0.000718976
0.000352147
0.000717625
0.000354106
0.000713767
0.000358411
0.000717626
0.000362395
0.000713913
0.000365873
0.000707786
0.000369205
0.000711002
0.000371817
0.000707908
0.000375599
0.00070767
0.000380112
0.000703495
0.000384571
0.000700935
0.00038841
0.000694434
0.000390605
0.000692032
0.000393837
0.00067873
0.00039642
0.000665445
0.000397963
0.00065546
0.000400021
0.000628989
0.000400259
0.000618397
0.000400198
0.000577326
0.000403464
0.000543621
0.000410258
0.000510975
0.000415427
0.000486008
0.000418153
0.000467419
0.000418729
0.000453125
0.000417916
0.000443132
0.00041498
0.000436686
0.00041077
0.000431752
0.00040658
0.000426823
0.000402645
0.000422412
0.000399809
0.00041852
0.000398324
0.000415161
0.000397814
0.000412931
0.000397905
0.000411112
0.00039868
0.000408986
0.000401402
0.000407693
0.000405804
0.000407593
0.000412376
0.000408901
0.000419593
0.000410905
0.000428606
0.000413957
0.00043558
0.000418324
0.000447278
0.000423913
0.00144872
0.0014479
0.000785039
0.00144399
0.000794971
0.00143702
0.000805206
0.00142705
0.000815735
0.00141417
0.000826546
0.00139847
0.000837622
0.00138008
0.00084894
0.00135916
0.000860473
0.00133587
0.000872192
0.00131039
0.000884062
0.0012829
0.000896051
0.00125362
0.00090812
0.00122274
0.000920234
0.00119047
0.000932354
0.00115701
0.000944446
0.00112259
0.000956472
0.00108739
0.000968398
0.0010516
0.000980191
0.00101542
0.000991819
0.000979019
0.00100325
0.000942561
0.00101446
0.000906196
0.00102541
0.000870058
0.00103609
0.000834283
0.00104645
0.000798984
0.00105648
0.000764249
0.0010662
0.000730137
0.00107548
0.000696768
0.00108435
0.000664229
0.0010929
0.000632458
0.00110082
0.000601636
0.00110824
0.0005717
0.00111551
0.000542758
0.00112213
0.000514792
0.00112807
0.000487853
0.00113347
0.000461933
0.00113849
0.000436911
0.00114343
0.000412901
0.00114788
0.000389889
0.00115154
0.000367854
0.00115444
0.00034681
0.0011565
0.000326714
0.00115841
0.000307785
0.00115998
0.000291225
0.00116111
0.000316181
0.00116196
0.000316788
0.00116961
0.000317179
0.00117677
0.000317138
0.00118336
0.000314072
0.00118663
0.000301394
0.00119318
0.000330843
0.00112972
0.000303641
0.000677281
0.000312196
0.000622847
0.000328504
0.000631261
0.00034177
0.000648522
0.0003491
0.000663302
0.000353293
0.000679001
0.000355769
0.000690533
0.000354932
0.000701024
0.000354013
0.000711196
0.000353194
0.000720852
0.000352255
0.000727646
0.000350936
0.00073617
0.000348721
0.000742411
0.000346358
0.000748229
0.000345164
0.000752212
0.000343858
0.0007542
0.000342232
0.000758396
0.000342826
0.000761218
0.000343266
0.000762818
0.00034343
0.000763453
0.000343924
0.000766828
0.000344289
0.000768033
0.000344607
0.000768127
0.000345439
0.000767973
0.000346946
0.000767082
0.000348931
0.000765154
0.000350606
0.000764556
0.000352859
0.000764103
0.000356046
0.00076138
0.000360694
0.000763753
0.000365272
0.000757699
0.000369272
0.000749711
0.0003725
0.000747838
0.000375177
0.000742628
0.000378733
0.000736462
0.000382885
0.000730655
0.000385916
0.000727783
0.000389745
0.000710581
0.00039207
0.000700635
0.000393623
0.000675906
0.000396225
0.000661732
0.000396712
0.000648617
0.000397071
0.000609892
0.000398979
0.000582392
0.000406707
0.000543414
0.000414659
0.000514573
0.000419304
0.000491343
0.0004221
0.000473828
0.000422684
0.000459708
0.000421446
0.000448986
0.000418875
0.000441529
0.000415239
0.000435833
0.000411194
0.000430232
0.000408022
0.000425509
0.000405632
0.00042182
0.000404323
0.000418591
0.000403793
0.000416022
0.000403681
0.000413807
0.000404181
0.000411284
0.000405502
0.000409485
0.000408576
0.000408276
0.000413257
0.000408059
0.000420342
0.000409072
0.000427814
0.000410907
0.000437103
0.000413994
0.000444572
0.000418544
0.000455839
0.000424403
0.00145355
0.00145289
0.000795664
0.00144913
0.000807645
0.00144232
0.000819905
0.00143249
0.00083244
0.00141973
0.000845236
0.00140415
0.000858278
0.00138588
0.000871541
0.00136505
0.000885
0.00134183
0.000898622
0.0013164
0.000912374
0.00128895
0.000926218
0.00125968
0.000940117
0.00122879
0.000954031
0.00119649
0.000967921
0.00116299
0.00098175
0.00112849
0.000995478
0.00109321
0.00100907
0.00105732
0.00102249
0.00102102
0.0010357
0.00098448
0.00104867
0.000947863
0.00106139
0.000911337
0.00107378
0.000875035
0.00108587
0.00083906
0.00109764
0.000803568
0.00110895
0.000768639
0.00111991
0.000734345
0.00113049
0.000700755
0.00114053
0.000667971
0.00115013
0.000636061
0.00115929
0.000605042
0.00116784
0.000574897
0.00117588
0.000545728
0.00118353
0.000517568
0.00119073
0.000490471
0.00119716
0.000464372
0.00120291
0.000439287
0.0012083
0.000415122
0.00121356
0.000391955
0.00121901
0.000369757
0.00122323
0.000348571
0.00122661
0.0003283
0.00122925
0.00030902
0.00123169
0.000291392
0.00123362
0.000321095
0.00123514
0.000322865
0.00124193
0.000323754
0.00125228
0.000324152
0.00126218
0.000322108
0.00127071
0.000301835
0.0012766
0.000341446
0.00126882
0.000306662
0.000758518
0.00032373
0.000666701
0.000343007
0.000680982
0.000356043
0.000703475
0.00036302
0.000719599
0.000366908
0.000736713
0.000368071
0.000747978
0.000366185
0.000755748
0.000364573
0.000764414
0.000362339
0.000773009
0.000359544
0.00077663
0.000357429
0.000784256
0.000354542
0.000789264
0.000350997
0.000792994
0.000349116
0.000795896
0.000347577
0.00080002
0.000345688
0.000808541
0.000345213
0.000816007
0.000345225
0.00082066
0.000345667
0.000823599
0.000346337
0.00082561
0.000346709
0.000825507
0.000346839
0.000825054
0.000347158
0.0008242
0.000348
0.000822937
0.000349701
0.000818363
0.000353434
0.000813338
0.000356311
0.000807866
0.000359252
0.000804396
0.000363253
0.000802738
0.00036786
0.000796098
0.000371942
0.000785794
0.000375562
0.000777334
0.000377873
0.000769741
0.00038131
0.000756014
0.000385761
0.000745197
0.000387324
0.000737194
0.000389524
0.000706161
0.000391993
0.00069643
0.000393382
0.000671027
0.000395083
0.000644316
0.000395991
0.000618105
0.00040005
0.000576737
0.000411041
0.000545614
0.000418951
0.000519679
0.00042424
0.000499836
0.00042684
0.00048321
0.000427684
0.00046958
0.000426582
0.000458472
0.000423653
0.000450095
0.000419896
0.000443347
0.000415814
0.000436682
0.000412401
0.000430955
0.000410388
0.000426448
0.000409207
0.000422994
0.0004087
0.000420113
0.000408558
0.000417449
0.000409035
0.000414517
0.000409997
0.000412173
0.000411873
0.000410446
0.000415432
0.000409403
0.000420522
0.000409078
0.000427922
0.000409706
0.000435517
0.00041144
0.00044491
0.000414346
0.000452904
0.000418993
0.000463826
0.000424994
0.00145948
0.00145896
0.000807496
0.00145535
0.000821473
0.00144867
0.000835708
0.00143897
0.000850197
0.00142634
0.000864929
0.00141087
0.000879888
0.00139269
0.000895051
0.00137194
0.000910389
0.00134879
0.00092587
0.0013234
0.000941458
0.00129597
0.000957114
0.00126669
0.0009728
0.00123578
0.000988472
0.00120344
0.00100409
0.00116987
0.00101962
0.00113529
0.00103501
0.00109989
0.00105022
0.00106387
0.00106523
0.00102743
0.00107999
0.000990731
0.00109447
0.000953932
0.00110866
0.000917218
0.00112247
0.00088072
0.00113592
0.000844545
0.00114903
0.000808817
0.00116165
0.000773668
0.00117379
0.000739171
0.00118564
0.000705334
0.00119685
0.000672336
0.00120744
0.000640188
0.00121786
0.000608949
0.00122745
0.00057858
0.00123636
0.00054924
0.00124481
0.000520837
0.00125342
0.000493467
0.00126094
0.000467163
0.00126763
0.000441916
0.00127368
0.000417757
0.00127941
0.000394448
0.00128565
0.00037208
0.00129208
0.000350688
0.00129709
0.000330206
0.00130112
0.000310703
0.00130452
0.000292251
0.00130767
0.000325853
0.00130989
0.000327899
0.00131713
0.000329972
0.00132627
0.00033258
0.00133632
0.000332102
0.0013554
0.000315335
0.0013676
0.000351329
0.00137979
0.000309273
0.000998051
0.000340289
0.000728142
0.000362567
0.000737414
0.000374059
0.000768519
0.000380478
0.000784261
0.000382573
0.0007997
0.000380608
0.000809948
0.000377558
0.000817346
0.000374783
0.000822719
0.000370313
0.000828597
0.000366944
0.000828788
0.000363094
0.000835355
0.000359504
0.000837647
0.000356153
0.0008417
0.00035245
0.000855695
0.000351194
0.000861775
0.000349389
0.000869845
0.000347268
0.000876304
0.000347797
0.000878382
0.000347992
0.00087955
0.000347714
0.000879832
0.000348423
0.0008791
0.000349261
0.000877084
0.000349211
0.000875274
0.000350342
0.000871653
0.000353999
0.000864233
0.000357531
0.000855561
0.000360389
0.000846835
0.000363219
0.000836922
0.000367053
0.000833253
0.000371417
0.000824007
0.000375019
0.000813999
0.000378752
0.000793729
0.000381474
0.000779374
0.000383041
0.00076114
0.000386578
0.000737751
0.00038768
0.000735302
0.000388821
0.000696787
0.000391928
0.000678417
0.000392375
0.000647446
0.000395193
0.000608534
0.000405074
0.000575292
0.000414538
0.000548025
0.000422583
0.000526405
0.00042846
0.000509048
0.000431806
0.000494353
0.000432962
0.000481446
0.000432188
0.00047049
0.000429647
0.000461532
0.00042561
0.000453728
0.000421283
0.000446215
0.000417343
0.000439138
0.000414748
0.000433504
0.000413339
0.000429179
0.000412703
0.000425694
0.000412605
0.000422278
0.000412928
0.000418844
0.000413622
0.000415894
0.000415393
0.000413658
0.000417976
0.000412017
0.000422097
0.000411166
0.000427519
0.00041055
0.000434965
0.000410792
0.000442671
0.000412227
0.000452131
0.000415022
0.000460637
0.000419708
0.000471291
0.00042572
0.00146649
0.0014661
0.000820546
0.00146262
0.000836461
0.00145607
0.000852615
0.0014465
0.000869004
0.00143398
0.00088562
0.00141861
0.000902444
0.00140052
0.000919455
0.00137984
0.000936622
0.00135673
0.000953912
0.00133137
0.000971287
0.00130395
0.000988709
0.00127466
0.00100613
0.00124371
0.00102352
0.0012113
0.00104082
0.00117765
0.001058
0.00114295
0.00107501
0.00110743
0.00109181
0.00107126
0.00110836
0.00103464
0.00112463
0.000997762
0.00114058
0.000960763
0.00115619
0.000923833
0.0011714
0.000887107
0.00118618
0.0008507
0.0012006
0.000814717
0.00121451
0.000779327
0.00122783
0.000744562
0.00124086
0.000710486
0.00125321
0.000677238
0.0012649
0.000644792
0.00127636
0.000613307
0.00128709
0.000582727
0.00129707
0.000553191
0.00130644
0.000524578
0.00131575
0.000496862
0.00132455
0.000470279
0.00133243
0.000444805
0.00133948
0.000420507
0.00134587
0.000397082
0.00135219
0.000374697
0.0013589
0.000353047
0.00136654
0.000332442
0.00137259
0.000312721
0.00137768
0.000293876
0.00138216
0.000330239
0.00138677
0.000332842
0.00139286
0.000335695
0.00140267
0.000339332
0.00141559
0.000344385
0.00143463
0.00034173
0.00146768
0.000343631
0.00151222
0.000329011
0.00139446
0.000359271
0.000831916
0.000376176
0.000790645
0.000385162
0.000831878
0.000390726
0.000848924
0.000393028
0.000861628
0.000392794
0.00087155
0.000389657
0.000879483
0.000384498
0.000885357
0.000377715
0.000887152
0.000373639
0.000884819
0.000368564
0.000892612
0.000364819
0.00090118
0.000360989
0.000903842
0.000357371
0.000920453
0.000355142
0.000925847
0.000352991
0.000929485
0.000350506
0.000934984
0.000349681
0.000935488
0.000350042
0.00093376
0.000350122
0.000931031
0.000349922
0.000927688
0.000350378
0.000925167
0.000350427
0.000918351
0.000354079
0.000911577
0.000358295
0.000901738
0.000362111
0.000889683
0.000365107
0.000879336
0.000367971
0.000861355
0.00037107
0.00085184
0.000375363
0.000837159
0.000378007
0.000822618
0.000381003
0.000790012
0.000384257
0.000770593
0.000385037
0.000757338
0.000386788
0.000725549
0.000387791
0.000711239
0.000387792
0.000672332
0.000391236
0.000638712
0.000399321
0.000604798
0.000409372
0.000575741
0.000418029
0.000551828
0.000425842
0.000534094
0.000431563
0.000519064
0.000435353
0.000505885
0.000437477
0.000493851
0.000437534
0.000483493
0.000435825
0.000474624
0.000432499
0.000466404
0.000427772
0.000458032
0.000423282
0.00045003
0.000419866
0.000443034
0.000417734
0.000437563
0.000416667
0.000433165
0.000416316
0.000428905
0.000416269
0.000424726
0.000416667
0.000420984
0.000418194
0.000418091
0.000420682
0.000415939
0.000423984
0.000414318
0.000428596
0.000413457
0.000434155
0.000412354
0.000441462
0.000412194
0.000449335
0.000413267
0.000458885
0.000416027
0.000467843
0.000420704
0.000478332
0.000426621
0.00147456
0.00147429
0.000834827
0.00147093
0.000852619
0.0014645
0.000870631
0.00145505
0.000888862
0.00144263
0.000907303
0.00142736
0.000925936
0.00140935
0.000944739
0.00138873
0.00096368
0.00136566
0.000982726
0.00134032
0.00100184
0.00131289
0.00102097
0.00128357
0.00104009
0.00125256
0.00105913
0.00122007
0.00107807
0.00118631
0.00109685
0.00115149
0.00111543
0.00111581
0.00113377
0.00107947
0.00115183
0.00104266
0.00116956
0.00100557
0.00118694
0.00096835
0.00120393
0.000931172
0.00122051
0.000894195
0.00123659
0.000857526
0.00125223
0.000821283
0.00126741
0.000785597
0.00128196
0.000750549
0.00129599
0.000716217
0.00130959
0.000682674
0.00132248
0.000649948
0.00133468
0.000618146
0.00134644
0.000587344
0.00135776
0.000557525
0.00136821
0.000528608
0.00137786
0.000500771
0.00138714
0.000473903
0.00139691
0.000448073
0.0014053
0.000423416
0.00141286
0.000399836
0.00141933
0.000377159
0.0014258
0.00035567
0.00143262
0.000334797
0.00144156
0.000314934
0.0014488
0.000295895
0.00145462
0.000334354
0.00145987
0.000336371
0.00146715
0.000339118
0.00147448
0.000342664
0.00148201
0.000349673
0.00149292
0.000353555
0.00150806
0.000371909
0.00151568
0.00037679
0.0014074
0.000381408
0.000932966
0.000388878
0.000849798
0.00039268
0.000877572
0.00039645
0.000896116
0.000399194
0.000909294
0.000400053
0.000921402
0.000399398
0.000933185
0.000394646
0.000941719
0.000386264
0.0009453
0.000381172
0.000945004
0.000375419
0.00095255
0.000369651
0.000965309
0.000366333
0.000964498
0.000361995
0.000979854
0.000360126
0.00098389
0.000357311
0.000986109
0.00035415
0.000988646
0.000352182
0.000985521
0.000351279
0.000982136
0.000350702
0.0009759
0.000349682
0.000969074
0.000351131
0.000961694
0.000354592
0.000951176
0.000358427
0.000941293
0.000362749
0.000929128
0.000367433
0.000913662
0.000370317
0.00089804
0.000371972
0.000869729
0.000374355
0.000850202
0.000377312
0.00082379
0.000379877
0.000809004
0.000382457
0.000782309
0.000385643
0.000755986
0.000385679
0.00073633
0.000384838
0.000695203
0.000387805
0.000664358
0.000394624
0.000629496
0.000404375
0.000601984
0.000413171
0.000577572
0.000421374
0.000558235
0.000428102
0.00054251
0.000433867
0.000529586
0.00043829
0.000517922
0.000440841
0.000506849
0.0004418
0.000496867
0.00044113
0.000488107
0.000439015
0.000479856
0.000435092
0.000471409
0.000430128
0.000462928
0.000425907
0.000454794
0.000422894
0.000447948
0.000421042
0.00044241
0.000420271
0.000437345
0.000419667
0.000432304
0.00041964
0.00042772
0.000420697
0.000424
0.000422893
0.0004211
0.000425954
0.000418876
0.000429831
0.000417167
0.000434845
0.000416028
0.000440357
0.000414541
0.000447589
0.000413964
0.000455669
0.000414763
0.000465306
0.00041744
0.000474598
0.000422006
0.000485023
0.000427722