/*--------------------------------*- C++ -*----------------------------------*\
| =========                 |                                                 |
| \\      /  F ield         | OpenFOAM: The Open Source CFD Toolbox           |
|  \\    /   O peration     | Version:  2.2.x                                 |
|   \\  /    A nd           | Web:      www.OpenFOAM.org                      |
|    \\/     M anipulation  |                                                 |
\*---------------------------------------------------------------------------*/
FoamFile
{
    version     2.0;
    format      ascii;
    class       volScalarField;
    location    "1";
    object      Ma;
}
// * * * * * * * * * * * * * * * * * * * * * * * * * * * * * * * * * * * * * //

dimensions      [0 0 0 0 0 0 0];

internalField   nonuniform List<scalar> 
14161
(
2.5982
2.5982
2.59823
2.59827
2.59836
2.59847
2.59861
2.59883
2.59912
2.59949
2.59999
2.60063
2.60144
2.60244
2.60368
2.60519
2.607
2.60914
2.61166
2.61446
2.61777
2.62148
2.62518
2.62981
2.63448
2.63905
2.64419
2.64863
2.65393
2.65784
2.66037
2.66359
2.66584
2.66632
2.66593
2.66444
2.66154
2.65661
2.65128
2.6428
2.63114
2.61755
2.60049
2.57863
2.55491
2.53198
2.50297
2.46195
2.41178
2.39562
1.61056
0.628274
0.511836
0.49352
0.495012
0.512148
0.527375
0.55502
0.579618
0.607595
0.634461
0.660702
0.685612
0.70977
0.731883
0.753629
0.7723
0.787671
0.801477
0.813869
0.825936
0.83704
0.844406
0.85052
0.857049
0.863783
0.870027
0.873394
0.87563
0.876868
0.896422
0.903568
0.90179
0.92342
0.932092
0.951844
0.963411
0.973402
0.981895
1.01238
1.0264
1.04542
1.06359
1.07975
1.11034
1.1297
1.14234
1.14488
1.14946
1.11552
1.0681
0.957125
0.808222
0.663461
0.551319
0.467052
0.405683
0.355932
0.314342
0.280552
0.250926
0.223264
0.197798
0.173442
0.148903
0.122785
0.0940161
0.062016
0.0429095
2.5982
2.5982
2.59823
2.59827
2.59836
2.59847
2.59861
2.59883
2.59912
2.59949
2.59999
2.60063
2.60144
2.60244
2.60368
2.60519
2.607
2.60914
2.61165
2.61449
2.61777
2.62145
2.62528
2.62971
2.63443
2.63911
2.64408
2.64906
2.65364
2.65758
2.66114
2.66394
2.66582
2.66655
2.66632
2.6651
2.66248
2.65793
2.65225
2.64388
2.63237
2.61905
2.60333
2.58201
2.55826
2.53588
2.50664
2.46436
2.41038
2.37562
1.54455
0.617348
0.501411
0.4893
0.491898
0.514017
0.532251
0.561254
0.586374
0.612701
0.638742
0.663759
0.688697
0.712112
0.734395
0.754669
0.773165
0.790469
0.805496
0.81892
0.829417
0.839323
0.847843
0.854857
0.862407
0.868364
0.874502
0.879289
0.882406
0.884895
0.90526
0.912662
0.910355
0.931763
0.940178
0.96067
0.973062
0.984684
0.993529
1.02351
1.03911
1.0597
1.07871
1.0943
1.11828
1.13121
1.13565
1.12168
1.10256
1.03814
0.94529
0.808005
0.67504
0.562449
0.479816
0.418081
0.369027
0.326663
0.29028
0.260116
0.232931
0.207122
0.183041
0.160106
0.137271
0.114104
0.0917195
0.0677818
0.0680961
2.5982
2.5982
2.59823
2.59827
2.59836
2.59847
2.59861
2.59883
2.59912
2.59949
2.59999
2.60063
2.60144
2.60244
2.60368
2.60519
2.607
2.60914
2.61164
2.61451
2.61778
2.6214
2.62545
2.62969
2.63438
2.63922
2.64413
2.64938
2.65346
2.6577
2.66208
2.66444
2.66606
2.6673
2.66761
2.66684
2.66474
2.66077
2.65492
2.64689
2.63615
2.62331
2.61015
2.59146
2.56883
2.54749
2.51844
2.47574
2.41696
2.37558
1.51495
0.611266
0.492985
0.485683
0.487918
0.513737
0.535543
0.567419
0.596549
0.625495
0.651374
0.67694
0.701166
0.725235
0.747352
0.768164
0.784974
0.801321
0.817021
0.829866
0.840021
0.848587
0.85724
0.864462
0.871793
0.878924
0.884315
0.888923
0.892648
0.894886
0.91542
0.923615
0.920393
0.941583
0.950765
0.97109
0.983562
0.996272
1.0062
1.03312
1.04741
1.0681
1.0855
1.09814
1.11233
1.11413
1.10638
1.06321
1.0023
0.903146
0.773549
0.653642
0.547934
0.473369
0.418792
0.375952
0.338665
0.304395
0.273682
0.24698
0.221895
0.19733
0.17448
0.152987
0.133617
0.115421
0.10214
0.0890329
0.0997855
2.5982
2.5982
2.59823
2.59827
2.59836
2.59847
2.59861
2.59883
2.59912
2.59949
2.59999
2.60063
2.60144
2.60244
2.60368
2.60519
2.607
2.60914
2.61164
2.61456
2.61778
2.62138
2.62554
2.62975
2.63436
2.63939
2.6443
2.64948
2.65361
2.65793
2.66282
2.6654
2.66698
2.66855
2.66958
2.66961
2.66826
2.66508
2.65972
2.65253
2.64322
2.63193
2.6213
2.6073
2.58852
2.56781
2.53976
2.49799
2.43872
2.39674
1.56896
0.621443
0.497471
0.485672
0.495777
0.524748
0.548937
0.578953
0.60927
0.640365
0.669765
0.697822
0.724334
0.749358
0.773258
0.792595
0.810431
0.825289
0.83955
0.851356
0.860112
0.868655
0.877129
0.884596
0.891329
0.898136
0.902558
0.907825
0.912645
0.913719
0.935435
0.944504
0.941857
0.964499
0.974126
0.991959
1.004
1.01677
1.02666
1.05042
1.0629
1.07748
1.08853
1.08896
1.09801
1.06309
1.02959
0.938419
0.8141
0.687412
0.566136
0.48406
0.432362
0.392043
0.3572
0.326947
0.299506
0.273014
0.248333
0.225572
0.203522
0.182865
0.164363
0.148029
0.134564
0.122868
0.11792
0.111512
0.125137
2.5982
2.5982
2.59823
2.59827
2.59836
2.59847
2.59861
2.59883
2.59912
2.59949
2.59999
2.60063
2.60144
2.60244
2.60368
2.60519
2.607
2.60915
2.61164
2.6146
2.61777
2.62138
2.62558
2.6298
2.63435
2.63957
2.6445
2.64944
2.65438
2.65868
2.66302
2.66675
2.66926
2.67079
2.67217
2.67324
2.67321
2.67158
2.6676
2.66186
2.65464
2.6464
2.63673
2.62787
2.61734
2.60037
2.57377
2.53779
2.4885
2.45155
1.73595
0.655286
0.514762
0.490292
0.519204
0.540938
0.577099
0.60684
0.638725
0.669603
0.699775
0.728373
0.756646
0.782109
0.80546
0.827496
0.845175
0.861806
0.873366
0.883371
0.892971
0.900212
0.908308
0.915213
0.921005
0.925924
0.930379
0.936004
0.943486
0.944052
0.967053
0.975231
0.97382
0.996205
1.00406
1.01978
1.03033
1.04118
1.0484
1.06755
1.0753
1.0789
1.08231
1.0591
1.0467
0.966066
0.870471
0.744684
0.619443
0.512594
0.440611
0.397844
0.367701
0.341617
0.318295
0.295177
0.271899
0.249449
0.228981
0.210155
0.191918
0.174234
0.159667
0.147196
0.139897
0.133812
0.135307
0.132629
0.146651
2.5982
2.5982
2.59823
2.59827
2.59836
2.59847
2.59861
2.59883
2.59912
2.59949
2.59999
2.60063
2.60142
2.60244
2.60367
2.60519
2.607
2.60914
2.61165
2.61458
2.61779
2.62141
2.62559
2.6299
2.63439
2.63977
2.64474
2.6495
2.65542
2.65971
2.66325
2.66807
2.67232
2.67445
2.67548
2.67693
2.67923
2.68027
2.679
2.67569
2.67028
2.66491
2.65876
2.65261
2.64728
2.64228
2.62931
2.60387
2.56409
2.53148
2.04188
0.709015
0.534271
0.501627
0.547725
0.570177
0.614803
0.648056
0.681374
0.711828
0.744727
0.772875
0.800949
0.82767
0.851148
0.873881
0.894652
0.909412
0.921544
0.931517
0.940805
0.948375
0.955389
0.960918
0.96569
0.970315
0.974647
0.981418
0.990619
0.992386
1.01329
1.01785
1.01822
1.03421
1.04045
1.05079
1.05756
1.06602
1.06653
1.07765
1.06939
1.05805
1.04523
0.981561
0.922236
0.795329
0.674356
0.559874
0.473849
0.422922
0.386428
0.357856
0.33381
0.31279
0.291584
0.269986
0.250538
0.232739
0.216389
0.200634
0.184497
0.169585
0.158379
0.150538
0.147807
0.146444
0.151733
0.151564
0.164953
2.5982
2.5982
2.59823
2.59827
2.59836
2.59847
2.59861
2.59883
2.59912
2.59949
2.59999
2.60063
2.60141
2.60243
2.60367
2.60518
2.60699
2.60914
2.61165
2.61456
2.61784
2.62151
2.62558
2.63005
2.6346
2.63987
2.64502
2.64988
2.65597
2.66076
2.66451
2.66951
2.67485
2.67866
2.6806
2.68222
2.68477
2.68963
2.69304
2.69346
2.69134
2.68853
2.68667
2.684
2.68084
2.68401
2.69032
2.69073
2.6821
2.65033
2.51658
0.810126
0.561128
0.520158
0.594601
0.620889
0.674291
0.710797
0.746253
0.772647
0.807526
0.837076
0.861299
0.888212
0.907286
0.931719
0.951878
0.964623
0.978964
0.988734
0.996705
1.00448
1.01116
1.01626
1.02105
1.0257
1.02981
1.035
1.04072
1.04249
1.05979
1.06192
1.05956
1.06734
1.07075
1.07167
1.07326
1.08322
1.06381
1.06343
1.03226
0.991694
0.945714
0.833162
0.725241
0.612326
0.516478
0.455986
0.418712
0.389478
0.36402
0.339101
0.317155
0.295205
0.273322
0.254217
0.238087
0.223354
0.208908
0.194099
0.18008
0.168233
0.160794
0.156373
0.157724
0.159167
0.16674
0.1683
0.180629
2.5982
2.5982
2.59823
2.59827
2.59835
2.59847
2.59861
2.59883
2.59911
2.59948
2.59999
2.6006
2.60141
2.60243
2.60366
2.60518
2.60699
2.60914
2.61166
2.61455
2.61789
2.62161
2.62556
2.63016
2.63496
2.63983
2.64549
2.65079
2.65615
2.66201
2.66711
2.67164
2.67629
2.68294
2.68768
2.69061
2.69301
2.69665
2.70451
2.71271
2.71725
2.71801
2.72093
2.7247
2.72568
2.73107
2.74404
2.77594
2.80295
2.80565
2.73999
1.04506
0.591592
0.54798
0.663878
0.698806
0.758235
0.797372
0.829253
0.849936
0.883977
0.911189
0.928899
0.953786
0.968903
0.990801
1.0084
1.02245
1.03509
1.04493
1.05384
1.06046
1.06608
1.07058
1.07483
1.07959
1.08199
1.08202
1.08248
1.07928
1.09103
1.09177
1.08888
1.08459
1.08362
1.07558
1.0664
1.07057
1.02759
1.00064
0.940201
0.852062
0.762728
0.652159
0.553186
0.486132
0.44923
0.423957
0.401744
0.379389
0.355167
0.33188
0.307982
0.284398
0.263944
0.247233
0.232842
0.219049
0.205111
0.191453
0.179566
0.17043
0.165872
0.164076
0.168225
0.171384
0.180186
0.183016
0.1942
2.5982
2.5982
2.59823
2.59827
2.59835
2.59845
2.59861
2.59883
2.59911
2.59948
2.59996
2.6006
2.6014
2.6024
2.60366
2.60517
2.60698
2.60914
2.61166
2.61454
2.61792
2.6217
2.62558
2.63028
2.63524
2.64004
2.64602
2.6517
2.65666
2.66299
2.66987
2.67431
2.67857
2.6861
2.69446
2.69992
2.70349
2.70716
2.71255
2.72742
2.74137
2.75252
2.76119
2.77226
2.78205
2.79612
2.81779
2.84999
2.91969
3.02561
2.96179
1.68381
0.660471
0.601662
0.764208
0.802228
0.851577
0.884702
0.912265
0.931136
0.956351
0.982963
0.992442
1.01756
1.02698
1.04967
1.06331
1.07439
1.08978
1.09812
1.10364
1.10981
1.11332
1.11619
1.11898
1.12207
1.12002
1.11647
1.11251
1.10358
1.10652
1.10378
1.10155
1.08188
1.0687
1.0586
1.02509
1.00989
0.929192
0.856639
0.775242
0.672075
0.580093
0.508054
0.468021
0.446392
0.431072
0.417379
0.398815
0.376855
0.353397
0.328498
0.302916
0.280179
0.261388
0.245745
0.231266
0.217432
0.203693
0.191438
0.182157
0.175284
0.173045
0.172935
0.178488
0.182919
0.192291
0.195973
0.206014
2.5982
2.5982
2.59823
2.59826
2.59835
2.59845
2.59861
2.59882
2.59911
2.59948
2.59996
2.60059
2.60139
2.60239
2.60363
2.60514
2.60697
2.60913
2.61166
2.61455
2.61793
2.62176
2.6257
2.63036
2.6355
2.64045
2.64622
2.65245
2.65781
2.66409
2.67136
2.67748
2.68277
2.68958
2.69873
2.70805
2.71526
2.72097
2.72726
2.73679
2.75567
2.77856
2.79828
2.81801
2.84134
2.87237
2.9028
2.96146
3.05796
3.35474
3.76301
3.37495
0.892036
0.702523
0.841319
0.888659
0.927474
0.954357
0.980586
1.004
1.02112
1.04535
1.04857
1.07776
1.08503
1.1036
1.11696
1.12652
1.13825
1.14637
1.14978
1.15092
1.15126
1.15205
1.14974
1.14845
1.14326
1.13525
1.12847
1.11257
1.1055
1.09327
1.08351
1.04996
1.01614
0.988795
0.91855
0.856353
0.763304
0.67197
0.588638
0.517443
0.473093
0.454155
0.446037
0.438161
0.42913
0.416165
0.398847
0.37901
0.354481
0.328261
0.30246
0.280991
0.263057
0.247179
0.232413
0.218035
0.205203
0.195082
0.187581
0.182395
0.181472
0.182338
0.188381
0.193847
0.203369
0.207509
0.216475
2.59819
2.5982
2.59823
2.59826
2.59835
2.59844
2.5986
2.59882
2.59909
2.59947
2.59995
2.60058
2.60138
2.60238
2.60361
2.60513
2.60694
2.6091
2.61164
2.61457
2.61793
2.62177
2.62594
2.63042
2.63566
2.64107
2.64657
2.65308
2.65952
2.66577
2.67204
2.6809
2.68829
2.69468
2.70161
2.71269
2.72578
2.73583
2.74501
2.75217
2.76564
2.78408
2.81811
2.84442
2.87028
2.90094
2.94049
2.9671
3.01177
3.08122
3.05058
2.41289
1.13602
0.801375
0.872304
0.920252
0.954474
0.98555
1.0161
1.04636
1.06837
1.09568
1.09581
1.12529
1.13378
1.14886
1.16042
1.16679
1.1782
1.18093
1.18178
1.17958
1.17541
1.17229
1.16441
1.15791
1.14948
1.13566
1.1249
1.09562
1.07314
1.04711
1.01307
0.957628
0.889954
0.8342
0.739171
0.657637
0.578449
0.513013
0.471395
0.45348
0.448068
0.443636
0.441275
0.438976
0.430424
0.417574
0.401774
0.380629
0.355768
0.329241
0.304724
0.284184
0.266473
0.250255
0.234718
0.220862
0.209771
0.201246
0.194987
0.190836
0.190611
0.191949
0.198241
0.204378
0.213723
0.217952
0.22597
2.59819
2.5982
2.59821
2.59826
2.59833
2.59844
2.5986
2.5988
2.59908
2.59946
2.59994
2.60057
2.60135
2.60235
2.6036
2.60511
2.60692
2.60908
2.61163
2.61459
2.6179
2.62179
2.62616
2.63056
2.63583
2.64166
2.64715
2.65342
2.66128
2.66737
2.67353
2.6837
2.69301
2.69967
2.70581
2.71571
2.73429
2.74826
2.75995
2.76668
2.77704
2.79087
2.8182
2.85276
2.87936
2.90782
2.93755
2.97407
2.99391
2.97479
2.95229
1.88082
1.50174
0.957628
0.885932
0.944872
0.964617
0.99794
1.02863
1.06211
1.09257
1.12345
1.12798
1.15356
1.16045
1.17659
1.18703
1.19159
1.19897
1.19895
1.19758
1.18939
1.18211
1.17665
1.16079
1.14531
1.13122
1.09948
1.07462
1.02744
0.977952
0.924778
0.853742
0.784608
0.703834
0.632618
0.553846
0.497641
0.463257
0.44992
0.443186
0.440315
0.443739
0.445027
0.444401
0.439929
0.431062
0.419609
0.40291
0.382427
0.357739
0.332134
0.308882
0.288942
0.271001
0.25414
0.238964
0.226487
0.216691
0.209239
0.203714
0.199887
0.200091
0.201737
0.208229
0.214602
0.223538
0.227634
0.234868
2.59819
2.59819
2.59821
2.59826
2.59833
2.59844
2.5986
2.59879
2.59908
2.59944
2.59993
2.60054
2.60134
2.60233
2.60356
2.60506
2.60688
2.60904
2.61159
2.61461
2.6179
2.6218
2.62628
2.63077
2.63599
2.64213
2.64792
2.65413
2.66219
2.66948
2.67627
2.68503
2.69575
2.70519
2.71239
2.72257
2.7373
2.75475
2.76868
2.78144
2.78896
2.80324
2.819
2.85102
2.88065
2.90529
2.92999
2.96009
2.98855
2.97467
2.83944
1.71765
1.34023
1.20995
1.03838
1.00033
0.986089
1.00721
1.0381
1.06288
1.10305
1.13676
1.14713
1.17187
1.17515
1.18855
1.19835
1.20091
1.20499
1.20165
1.19854
1.18045
1.16517
1.15087
1.11728
1.08386
1.06004
0.995144
0.940774
0.876321
0.79424
0.723287
0.65086
0.582469
0.522625
0.479089
0.450757
0.445444
0.436985
0.437058
0.442572
0.445292
0.447799
0.447592
0.445975
0.440491
0.432894
0.420829
0.404741
0.384358
0.360256
0.335394
0.313054
0.293387
0.275311
0.258871
0.244932
0.233749
0.224788
0.217922
0.212782
0.209059
0.209724
0.211705
0.218284
0.224479
0.232931
0.236819
0.243407
2.59819
2.59819
2.59821
2.59826
2.59833
2.59844
2.59859
2.59879
2.59907
2.59943
2.5999
2.60052
2.6013
2.60229
2.60351
2.60502
2.60683
2.60901
2.61155
2.61457
2.61792
2.62181
2.62632
2.6311
2.63617
2.64238
2.64885
2.65516
2.66249
2.67141
2.6794
2.68724
2.69683
2.70947
2.72034
2.72842
2.73982
2.75601
2.77456
2.78969
2.80428
2.81243
2.82652
2.84101
2.87112
2.89776
2.91814
2.93288
2.93672
2.80137
2.3939
1.42595
1.31286
1.29928
1.19416
1.14612
1.0313
1.01236
1.04152
1.05938
1.10021
1.13307
1.14591
1.1738
1.17658
1.18757
1.19391
1.19453
1.19063
1.1762
1.16303
1.12849
1.09345
1.06336
1.00199
0.94024
0.890772
0.803602
0.728593
0.662091
0.587001
0.529689
0.489064
0.45719
0.439619
0.436891
0.426185
0.433614
0.440405
0.443778
0.446939
0.449428
0.450614
0.450214
0.446847
0.441841
0.433697
0.421895
0.406134
0.386318
0.363248
0.339215
0.317382
0.297983
0.280419
0.265073
0.252244
0.241928
0.233383
0.226602
0.221761
0.218286
0.21949
0.221751
0.22815
0.23404
0.241962
0.245616
0.251677
2.59819
2.59819
2.59821
2.59826
2.59832
2.59843
2.59859
2.59878
2.59906
2.59942
2.59989
2.60049
2.60128
2.60226
2.60348
2.60496
2.60679
2.60896
2.61149
2.6145
2.61798
2.62181
2.62629
2.63137
2.6365
2.64246
2.64952
2.65618
2.66314
2.67278
2.68182
2.68939
2.6985
2.71259
2.72475
2.73452
2.74321
2.75562
2.77815
2.7951
2.80936
2.82139
2.82851
2.84164
2.85631
2.89044
2.9137
2.92789
2.92385
2.76824
1.76191
1.27361
1.27108
1.28115
1.26052
1.2264
1.14244
1.04751
1.05695
1.05129
1.09243
1.11739
1.13291
1.15834
1.15752
1.17241
1.15707
1.15566
1.12661
1.09064
1.06456
0.997158
0.933782
0.874052
0.796702
0.720765
0.659262
0.588038
0.530244
0.487764
0.455232
0.438923
0.434612
0.43087
0.421196
0.429432
0.435086
0.441167
0.444655
0.448804
0.452119
0.45377
0.454364
0.452607
0.449021
0.443454
0.434883
0.423025
0.407557
0.38832
0.365929
0.342588
0.321615
0.303051
0.286457
0.272118
0.260163
0.250318
0.241835
0.235171
0.230788
0.2279
0.2293
0.23175
0.237762
0.24332
0.25075
0.25415
0.259737
2.59819
2.59819
2.59821
2.59825
2.59832
2.59843
2.59856
2.59877
2.59903
2.5994
2.59987
2.60047
2.60124
2.60221
2.60343
2.60491
2.60671
2.60889
2.61143
2.61443
2.61797
2.62179
2.62624
2.63145
2.63687
2.64268
2.64984
2.65718
2.6644
2.67302
2.68328
2.6923
2.70146
2.71309
2.72687
2.73894
2.74729
2.7597
2.77846
2.79661
2.81108
2.82476
2.83106
2.84238
2.8543
2.88517
2.91829
2.94973
2.91751
2.79979
1.46851
1.27778
1.27294
1.28242
1.28698
1.27548
1.25811
1.1692
1.14768
1.06121
1.09022
1.09146
1.10941
1.10863
1.11453
1.106
1.06374
1.0503
0.977748
0.916277
0.857826
0.780198
0.706503
0.640011
0.576928
0.523886
0.486277
0.455127
0.437238
0.431176
0.426761
0.419706
0.421059
0.429362
0.43144
0.437477
0.440629
0.446395
0.450546
0.454104
0.456222
0.457266
0.456795
0.4543
0.450711
0.444705
0.436067
0.424234
0.409023
0.390379
0.368702
0.346531
0.326767
0.309148
0.293491
0.279963
0.268502
0.258675
0.250279
0.243942
0.240029
0.237722
0.238989
0.241539
0.247169
0.252537
0.259446
0.262478
0.267477
2.59819
2.59819
2.5982
2.59825
2.59832
2.59842
2.59856
2.59876
2.59902
2.59937
2.59983
2.60042
2.60119
2.60216
2.60337
2.60484
2.60663
2.60879
2.61135
2.61433
2.61788
2.62182
2.62619
2.6314
2.63718
2.64301
2.64984
2.65782
2.66561
2.67363
2.68392
2.69441
2.70391
2.71415
2.72764
2.74077
2.75257
2.76324
2.77701
2.79643
2.8114
2.82445
2.8356
2.84188
2.85365
2.86703
2.88244
2.86868
2.69622
2.03042
1.29022
1.2552
1.25868
1.26014
1.26968
1.2722
1.27215
1.23953
1.21099
1.10578
1.06694
1.0036
1.07448
0.984357
1.01885
0.936992
0.876026
0.837232
0.754462
0.686393
0.614865
0.560613
0.511351
0.477009
0.453485
0.43746
0.431597
0.425161
0.418791
0.419146
0.426631
0.428723
0.431236
0.432875
0.437618
0.443112
0.447207
0.451852
0.455918
0.458602
0.460116
0.460468
0.459313
0.457048
0.452854
0.446373
0.437228
0.425293
0.410355
0.392391
0.371939
0.351199
0.332586
0.315908
0.301014
0.288015
0.276742
0.266888
0.258843
0.252992
0.249381
0.24748
0.248493
0.251094
0.256561
0.26165
0.267965
0.270607
0.27494
2.59818
2.59819
2.5982
2.59825
2.59831
2.59842
2.59855
2.59874
2.59901
2.59935
2.59981
2.6004
2.60115
2.6021
2.60328
2.60476
2.60653
2.60868
2.61125
2.6142
2.61772
2.6218
2.6261
2.63128
2.63726
2.64334
2.64986
2.65809
2.66652
2.67462
2.68389
2.69548
2.70601
2.71602
2.72744
2.7416
2.75462
2.76511
2.77764
2.79564
2.81126
2.82434
2.83688
2.84243
2.85388
2.87269
2.90017
2.90194
2.78297
1.56863
1.23719
1.23115
1.23366
1.23599
1.24451
1.25455
1.26146
1.26331
1.22906
1.17502
1.00843
0.902078
0.903562
0.821567
0.791593
0.718882
0.653572
0.592227
0.544082
0.503426
0.468753
0.449558
0.438408
0.431417
0.424605
0.418436
0.417827
0.424332
0.428084
0.429554
0.43202
0.431905
0.436483
0.439858
0.444423
0.449153
0.453684
0.4575
0.460215
0.462006
0.462957
0.462778
0.461338
0.458851
0.454374
0.447829
0.438723
0.427074
0.412544
0.395428
0.376112
0.356704
0.339105
0.323133
0.308811
0.296107
0.284944
0.275343
0.267766
0.262312
0.258797
0.256992
0.257771
0.260701
0.266008
0.27058
0.276214
0.278511
0.282207
2.59818
2.59818
2.5982
2.59825
2.59831
2.59841
2.59854
2.59873
2.59899
2.59932
2.59977
2.60035
2.60109
2.60203
2.6032
2.60465
2.60641
2.60854
2.61109
2.61404
2.61754
2.62169
2.626
2.63108
2.63713
2.64359
2.65001
2.65795
2.66683
2.67552
2.68432
2.69538
2.70692
2.71786
2.72866
2.74113
2.75443
2.76635
2.77892
2.79438
2.81048
2.82362
2.83504
2.8436
2.85035
2.86405
2.882
2.80482
2.57199
1.37152
1.23166
1.22204
1.22006
1.2238
1.23237
1.23639
1.23854
1.23883
1.17146
1.11943
0.852946
0.728467
0.651099
0.596544
0.567982
0.518715
0.489152
0.462431
0.449517
0.441445
0.431851
0.426766
0.42071
0.42261
0.425091
0.427269
0.429085
0.430563
0.434732
0.436223
0.439915
0.439702
0.443065
0.44562
0.450591
0.455165
0.459848
0.462908
0.464874
0.466155
0.466526
0.465898
0.464184
0.461111
0.45637
0.449746
0.440867
0.429585
0.415643
0.39927
0.380976
0.362734
0.345838
0.330315
0.316341
0.303954
0.293095
0.284021
0.27686
0.271645
0.268094
0.266277
0.267097
0.270411
0.275388
0.279221
0.284164
0.286234
0.289406
2.59818
2.59818
2.5982
2.59824
2.59831
2.59839
2.59853
2.59872
2.59896
2.59929
2.59972
2.60029
2.60101
2.60193
2.60309
2.60453
2.60627
2.60837
2.6109
2.61384
2.61731
2.62147
2.62588
2.63084
2.63693
2.64357
2.64997
2.65761
2.66698
2.67603
2.68451
2.69468
2.70739
2.71876
2.73019
2.7411
2.75323
2.76557
2.77854
2.79437
2.80915
2.821
2.83084
2.83825
2.84093
2.84211
2.82352
2.65593
1.8693
1.21278
1.21208
1.2153
1.214
1.21181
1.21352
1.20804
1.18741
1.16211
1.03239
0.92653
0.64896
0.514742
0.46489
0.448896
0.445909
0.44052
0.436411
0.428671
0.427172
0.42478
0.430164
0.434154
0.433381
0.43214
0.431448
0.433653
0.436982
0.439377
0.442227
0.443616
0.447
0.447644
0.451122
0.453784
0.45844
0.46249
0.466507
0.468553
0.469581
0.470305
0.470255
0.469088
0.467007
0.463605
0.458766
0.452297
0.443801
0.432983
0.419526
0.403745
0.38642
0.369144
0.352638
0.337393
0.323888
0.311978
0.301534
0.292975
0.2861
0.280963
0.27738
0.275465
0.276603
0.279916
0.284501
0.287634
0.291973
0.293926
0.296757
2.59818
2.59818
2.59819
2.59824
2.5983
2.59838
2.59851
2.5987
2.59894
2.59925
2.59967
2.60023
2.60094
2.60185
2.60297
2.60437
2.6061
2.60816
2.61066
2.6136
2.61701
2.62111
2.62565
2.63049
2.63658
2.64328
2.64977
2.65724
2.66686
2.67606
2.68427
2.69402
2.7073
2.71901
2.73082
2.74109
2.75101
2.76313
2.77772
2.79349
2.80725
2.81955
2.83036
2.84082
2.85024
2.86601
2.86061
2.76826
1.44674
1.20044
1.19876
1.19876
1.19632
1.19278
1.19088
1.17071
1.11638
1.05763
0.836908
0.661758
0.465913
0.403191
0.40584
0.411854
0.419252
0.423161
0.428078
0.430637
0.435143
0.436349
0.437584
0.441562
0.441383
0.443818
0.445171
0.447117
0.4492
0.450353
0.452714
0.453549
0.456141
0.45686
0.459835
0.461843
0.465661
0.46878
0.472143
0.473589
0.474713
0.475484
0.475482
0.474033
0.471457
0.467622
0.462551
0.456098
0.447747
0.437103
0.42395
0.408667
0.392074
0.375269
0.359131
0.344495
0.331566
0.320142
0.310141
0.302007
0.295298
0.290312
0.286765
0.284923
0.28624
0.289131
0.293171
0.295921
0.299713
0.301568
0.304138
2.59818
2.59818
2.59819
2.59823
2.59829
2.59837
2.59849
2.59867
2.5989
2.59921
2.59962
2.60017
2.60086
2.60174
2.60284
2.6042
2.60588
2.60792
2.61037
2.61328
2.61664
2.62066
2.62524
2.63006
2.63604
2.64277
2.64935
2.65667
2.66639
2.67563
2.68378
2.69328
2.70681
2.7188
2.73035
2.74057
2.74859
2.75997
2.7766
2.7915
2.80482
2.81653
2.82489
2.83023
2.82944
2.81448
2.66647
2.16016
1.26645
1.19657
1.19013
1.18798
1.17993
1.16888
1.16327
1.10569
0.998366
0.882854
0.619448
0.461413
0.389906
0.390716
0.405923
0.418739
0.428678
0.434364
0.437779
0.439295
0.443244
0.447327
0.45113
0.45508
0.457091
0.457551
0.459384
0.460068
0.46042
0.460773
0.462319
0.463078
0.465194
0.465901
0.468813
0.470913
0.474737
0.477282
0.479565
0.480753
0.481592
0.481691
0.48087
0.47889
0.475837
0.471813
0.466774
0.460367
0.452141
0.44164
0.42876
0.413888
0.397766
0.381436
0.36584
0.351892
0.339484
0.328513
0.318913
0.311101
0.30452
0.299768
0.296213
0.294618
0.295615
0.298076
0.301517
0.304026
0.307426
0.309138
0.311617
2.59817
2.59817
2.59819
2.59821
2.59827
2.59836
2.59848
2.59865
2.59888
2.59917
2.59956
2.60008
2.60075
2.60159
2.60267
2.60401
2.60564
2.60763
2.61002
2.61285
2.6162
2.62014
2.62466
2.62946
2.6353
2.64202
2.64858
2.65584
2.66557
2.67479
2.68287
2.69229
2.70595
2.71791
2.72921
2.73845
2.74662
2.75727
2.77469
2.78844
2.8007
2.81192
2.82232
2.83474
2.83988
2.82978
2.68078
1.5488
1.16926
1.16547
1.16425
1.16493
1.15371
1.13339
1.11621
0.989185
0.827522
0.63641
0.455013
0.389213
0.394787
0.412764
0.428766
0.440488
0.448369
0.453019
0.456549
0.458244
0.460285
0.462694
0.465425
0.467186
0.469822
0.468896
0.471251
0.473429
0.474736
0.475453
0.476487
0.476948
0.478386
0.478686
0.480678
0.481728
0.483763
0.484747
0.486112
0.487424
0.488349
0.488884
0.488251
0.486028
0.482692
0.478552
0.473377
0.466728
0.458181
0.447397
0.434358
0.419568
0.403746
0.387876
0.372899
0.359608
0.347641
0.337032
0.327734
0.320173
0.313787
0.309361
0.305797
0.304316
0.304797
0.306883
0.309855
0.312196
0.31517
0.316593
0.318807
2.59815
2.59815
2.59818
2.59821
2.59826
2.59835
2.59847
2.59861
2.59883
2.59912
2.59949
2.6
2.60064
2.60145
2.60249
2.60377
2.60535
2.60728
2.60961
2.61236
2.61564
2.61951
2.62383
2.62864
2.63441
2.641
2.64745
2.65472
2.66426
2.67334
2.68125
2.69085
2.70458
2.71593
2.72706
2.73471
2.74388
2.75565
2.77278
2.78551
2.79748
2.80909
2.8203
2.83047
2.83476
2.73613
2.51831
1.29437
1.16114
1.15073
1.14464
1.14446
1.11941
1.07442
1.02687
0.80786
0.623988
0.459543
0.392514
0.400466
0.418842
0.436005
0.450245
0.460269
0.466982
0.470819
0.473625
0.475125
0.476744
0.477131
0.478514
0.478842
0.481467
0.481384
0.484001
0.486402
0.489148
0.490308
0.490545
0.490058
0.490257
0.489735
0.490876
0.492337
0.494495
0.495033
0.49591
0.496936
0.497283
0.496523
0.494981
0.492251
0.488608
0.484478
0.479134
0.472353
0.463706
0.452964
0.440107
0.425616
0.410153
0.394705
0.380401
0.367695
0.356154
0.345842
0.336782
0.329384
0.323164
0.31898
0.315351
0.313793
0.313791
0.315584
0.31824
0.320383
0.32293
0.324059
0.326024
2.59815
2.59815
2.59818
2.5982
2.59825
2.59833
2.59844
2.59859
2.59879
2.59906
2.59942
2.59989
2.60051
2.60128
2.60227
2.6035
2.60502
2.60688
2.60911
2.61177
2.61494
2.61876
2.62279
2.62757
2.63325
2.63967
2.6458
2.65318
2.66243
2.67122
2.67902
2.68899
2.70229
2.71296
2.72354
2.72976
2.73999
2.75527
2.77029
2.78175
2.79175
2.80019
2.80393
2.80035
2.78264
2.57298
1.80768
1.11713
1.13427
1.13634
1.12626
1.12347
1.06969
0.957662
0.850235
0.597829
0.456961
0.394924
0.405282
0.424094
0.442546
0.457927
0.469401
0.477198
0.482371
0.485577
0.487936
0.489508
0.49063
0.491685
0.491933
0.491088
0.492586
0.492586
0.494906
0.497056
0.500414
0.503098
0.505418
0.506874
0.506989
0.505986
0.50568
0.504479
0.504372
0.503684
0.503546
0.504386
0.504863
0.50475
0.503852
0.501587
0.498254
0.494247
0.488651
0.481317
0.471905
0.460489
0.447255
0.432706
0.41738
0.40234
0.388602
0.37631
0.365058
0.354989
0.346112
0.338723
0.33259
0.328532
0.324832
0.323338
0.322908
0.324353
0.326721
0.32865
0.330808
0.33164
0.333121
2.59815
2.59815
2.59817
2.5982
2.59825
2.59831
2.59842
2.59855
2.59874
2.599
2.59935
2.59978
2.60036
2.6011
2.60203
2.6032
2.60462
2.60641
2.60853
2.61107
2.61411
2.61779
2.62158
2.62618
2.63184
2.63789
2.64377
2.65122
2.66001
2.66833
2.67616
2.68648
2.69905
2.70933
2.71838
2.72527
2.73514
2.75577
2.76739
2.7765
2.78528
2.79649
2.81062
2.82645
2.79487
2.66315
1.31895
1.132
1.1261
1.1189
1.09657
1.08286
0.977936
0.787364
0.615285
0.45272
0.397014
0.411722
0.429081
0.448313
0.464945
0.477372
0.486199
0.492026
0.495894
0.498528
0.500462
0.501888
0.502415
0.503552
0.503897
0.502917
0.503564
0.503617
0.50546
0.507316
0.510381
0.513805
0.516243
0.519201
0.51978
0.519016
0.517538
0.515788
0.515987
0.515853
0.515801
0.516083
0.51525
0.513553
0.511669
0.508981
0.506166
0.502222
0.496384
0.488597
0.478886
0.467398
0.454283
0.440037
0.425172
0.410633
0.397335
0.385314
0.374285
0.364359
0.35558
0.348067
0.341946
0.337921
0.334202
0.332943
0.332051
0.333182
0.335299
0.337017
0.338672
0.339255
0.340587
2.59814
2.59814
2.59815
2.59819
2.59824
2.5983
2.59838
2.59853
2.5987
2.59894
2.59925
2.59966
2.60019
2.60088
2.60175
2.60285
2.60419
2.60585
2.60789
2.61022
2.61312
2.61664
2.62017
2.6245
2.63007
2.6357
2.64128
2.64868
2.65698
2.6648
2.67248
2.68277
2.69469
2.7047
2.71276
2.72057
2.73254
2.75303
2.76334
2.76964
2.77454
2.7753
2.76546
2.73841
2.55884
1.8341
1.13701
1.1169
1.11512
1.08951
1.02968
0.977739
0.789697
0.58906
0.451109
0.39825
0.414948
0.432346
0.451785
0.46822
0.481665
0.491731
0.498888
0.503791
0.507163
0.509628
0.51134
0.512632
0.512906
0.513691
0.514207
0.513527
0.514297
0.514195
0.515451
0.517064
0.519536
0.523222
0.525245
0.529336
0.531824
0.531909
0.531429
0.528699
0.527081
0.525904
0.524382
0.523632
0.523042
0.522271
0.521624
0.519932
0.51774
0.513878
0.507742
0.499454
0.489152
0.477149
0.463732
0.449343
0.434512
0.42017
0.407016
0.39506
0.383983
0.37391
0.364921
0.3573
0.351288
0.347284
0.343673
0.342691
0.341502
0.342404
0.344111
0.345389
0.346447
0.346881
0.348065
2.59814
2.59814
2.59815
2.59818
2.59821
2.59827
2.59836
2.59848
2.59865
2.59885
2.59914
2.59952
2.60001
2.60064
2.60145
2.60245
2.60368
2.60524
2.60713
2.60925
2.61196
2.61525
2.61852
2.62255
2.62784
2.63307
2.6383
2.64532
2.65318
2.66072
2.66791
2.67735
2.68902
2.69893
2.70808
2.71583
2.72766
2.74642
2.75774
2.76823
2.77734
2.78921
2.79706
2.77341
2.63568
1.3564
1.11092
1.0987
1.08794
1.04624
0.907739
0.796522
0.570439
0.442771
0.398518
0.417502
0.434711
0.454402
0.470635
0.484022
0.494733
0.502801
0.508696
0.513101
0.516287
0.518685
0.520398
0.521759
0.522217
0.52272
0.5236
0.523354
0.52434
0.524555
0.525536
0.526686
0.528666
0.531691
0.533672
0.538074
0.542035
0.542931
0.543487
0.541718
0.540371
0.539395
0.537716
0.536399
0.534977
0.533255
0.530695
0.528078
0.526452
0.522795
0.516453
0.508125
0.497819
0.485753
0.47235
0.458017
0.443458
0.429674
0.416934
0.405181
0.394009
0.383738
0.374545
0.366731
0.360682
0.356538
0.352968
0.352256
0.3511
0.351718
0.352912
0.353768
0.35434
0.354755
0.355651
2.59813
2.59813
2.59814
2.59816
2.5982
2.59825
2.59832
2.59843
2.59859
2.59877
2.59902
2.59937
2.59981
2.60037
2.6011
2.60199
2.60311
2.60454
2.60625
2.60813
2.61061
2.61364
2.61662
2.62025
2.62512
2.62996
2.63473
2.64104
2.64848
2.65581
2.66215
2.67029
2.68189
2.69206
2.70284
2.7113
2.7221
2.73446
2.74906
2.7626
2.77058
2.77078
2.75217
2.58643
1.98993
1.16179
1.09083
1.07008
1.00572
0.937229
0.728449
0.563988
0.437687
0.397881
0.419078
0.435961
0.456531
0.472296
0.48591
0.49734
0.506595
0.513441
0.518324
0.521969
0.524668
0.526772
0.528248
0.529606
0.530346
0.530888
0.53213
0.532341
0.533626
0.534011
0.535359
0.536054
0.537587
0.5398
0.541786
0.545635
0.55018
0.552647
0.555087
0.554487
0.553182
0.55034
0.547564
0.545129
0.543137
0.542321
0.541105
0.539345
0.538136
0.534768
0.528628
0.520411
0.510153
0.497887
0.483973
0.469108
0.454368
0.440696
0.427836
0.415854
0.404232
0.393648
0.38422
0.376321
0.370304
0.366079
0.362623
0.362225
0.361119
0.361299
0.361839
0.362237
0.362375
0.362677
0.363216
2.59813
2.59813
2.59813
2.59815
2.59819
2.59824
2.5983
2.59838
2.5985
2.59867
2.5989
2.5992
2.59959
2.60007
2.60071
2.60151
2.60247
2.60373
2.60526
2.60687
2.60905
2.61173
2.61443
2.61754
2.62187
2.62628
2.63047
2.63587
2.64282
2.6496
2.65524
2.66246
2.67261
2.68393
2.69463
2.70538
2.71253
2.72348
2.73724
2.76165
2.78347