/*--------------------------------*- C++ -*----------------------------------*\
| =========                 |                                                 |
| \\      /  F ield         | OpenFOAM: The Open Source CFD Toolbox           |
|  \\    /   O peration     | Version:  2.2.x                                 |
|   \\  /    A nd           | Web:      www.OpenFOAM.org                      |
|    \\/     M anipulation  |                                                 |
\*---------------------------------------------------------------------------*/
FoamFile
{
    version     2.0;
    format      ascii;
    class       volScalarField;
    location    "1";
    object      T;
}
// * * * * * * * * * * * * * * * * * * * * * * * * * * * * * * * * * * * * * //

dimensions      [0 0 0 1 0 0 0];

internalField   nonuniform List<scalar> 
14161
(
0.999933
0.999932
0.999918
0.999893
0.999852
0.999791
0.999707
0.999591
0.999436
0.999231
0.998964
0.998621
0.998187
0.997644
0.996977
0.996166
0.995196
0.994051
0.992701
0.99121
0.989457
0.987493
0.985528
0.983119
0.980665
0.978245
0.97558
0.97331
0.970566
0.968522
0.967271
0.965686
0.964526
0.964287
0.964503
0.965315
0.96687
0.969537
0.97242
0.976903
0.983127
0.990435
0.999637
1.01153
1.0249
1.03784
1.05473
1.07867
1.10837
1.11812
1.65852
2.8267
2.99267
3.03028
3.04485
3.02615
3.02001
2.98861
2.96627
2.93762
2.90828
2.87839
2.85019
2.82066
2.79641
2.7745
2.75495
2.73391
2.7175
2.70429
2.6872
2.67312
2.66519
2.65534
2.6484
2.64496
2.64117
2.63608
2.63246
2.63618
2.6171
2.60613
2.61424
2.58667
2.57668
2.55179
2.53446
2.52375
2.52244
2.48451
2.46509
2.43964
2.41978
2.39793
2.35566
2.32522
2.29776
2.29157
2.27512
2.30676
2.33307
2.43003
2.55477
2.65909
2.77296
2.86362
2.9304
2.97581
3.00749
3.03932
3.06469
3.07864
3.08812
3.09915
3.11375
3.1301
3.14481
3.1542
3.16696
0.999933
0.999932
0.999918
0.999893
0.999852
0.999791
0.999707
0.999591
0.999436
0.999231
0.998964
0.998621
0.998187
0.997644
0.996976
0.996165
0.995195
0.99405
0.992711
0.991198
0.989453
0.987506
0.985475
0.983152
0.980687
0.978227
0.975651
0.97307
0.970699
0.9687
0.966878
0.965474
0.964544
0.96417
0.964306
0.964977
0.966366
0.968806
0.971833
0.976263
0.982392
0.989608
0.998065
1.00964
1.02297
1.03555
1.05245
1.07728
1.10905
1.13132
1.73176
2.85468
3.01815
3.04616
3.0533
3.02634
3.01168
2.97508
2.95159
2.92643
2.89994
2.87353
2.84706
2.82139
2.79614
2.77563
2.75376
2.73407
2.71678
2.70086
2.6866
2.67233
2.66097
2.65305
2.64566
2.64192
2.63405
2.62462
2.61955
2.62057
2.5993
2.58783
2.60037
2.57317
2.56371
2.53896
2.52011
2.50341
2.49802
2.4604
2.43565
2.40595
2.38423
2.36345
2.33212
2.31234
2.30126
2.31795
2.33648
2.41261
2.51972
2.67688
2.80421
2.89273
2.95345
2.98648
3.01398
3.0336
3.05033
3.07231
3.09012
3.09915
3.10587
3.11446
3.12691
3.14054
3.15052
3.15443
3.16601
0.999933
0.999932
0.999918
0.999893
0.999852
0.999791
0.999707
0.999591
0.999436
0.999231
0.998964
0.998621
0.998187
0.997644
0.996976
0.996165
0.995195
0.994049
0.992717
0.991181
0.989449
0.987527
0.985391
0.983151
0.980715
0.978184
0.975623
0.972887
0.970797
0.968662
0.9664
0.965182
0.964392
0.963807
0.963683
0.964099
0.965199
0.967274
0.970355
0.974588
0.980294
0.987289
0.994484
1.00458
1.01711
1.02891
1.04538
1.07022
1.1045
1.13131
1.76238
2.86311
3.0418
3.06017
3.06715
3.03755
3.01751
2.97634
2.94415
2.91251
2.8866
2.86205
2.8368
2.81085
2.78599
2.7617
2.74503
2.72766
2.70983
2.69392
2.67902
2.66711
2.65627
2.64933
2.64038
2.63309
2.62374
2.61477
2.60883
2.60907
2.58582
2.57037
2.58449
2.55918
2.55092
2.52817
2.511
2.49142
2.47738
2.44143
2.41579
2.38278
2.36196
2.34753
2.32946
2.32365
2.32564
2.37397
2.43974
2.54454
2.68613
2.8116
2.96056
3.05258
3.08192
3.0848
3.08798
3.09086
3.09519
3.10669
3.11621
3.11967
3.12201
3.12625
3.13422
3.14347
3.14951
3.14919
3.1578
0.999933
0.999932
0.999919
0.999893
0.999852
0.999791
0.999707
0.999591
0.999436
0.999231
0.998964
0.998621
0.998187
0.997645
0.996976
0.996165
0.995193
0.994047
0.992716
0.991157
0.98945
0.987548
0.985348
0.983126
0.980725
0.978096
0.97553
0.972838
0.970724
0.968549
0.966026
0.96467
0.963898
0.963169
0.962704
0.962714
0.963408
0.965031
0.967797
0.971566
0.976492
0.982656
0.988603
0.996277
1.00647
1.0177
1.03288
1.0568
1.09123
1.11833
1.70634
2.84513
3.03676
3.06233
3.05856
3.02646
3.00511
2.975
2.94311
2.90855
2.87787
2.85055
2.82091
2.7918
2.76166
2.73482
2.71186
2.69652
2.67987
2.66607
2.65315
2.6399
2.62977
2.62101
2.61091
2.60163
2.59488
2.58774
2.57983
2.58283
2.55793
2.54007
2.55136
2.52441
2.51506
2.49431
2.47678
2.45474
2.4353
2.40215
2.3792
2.35862
2.3481
2.3517
2.33335
2.37725
2.4018
2.50416
2.64289
2.7724
2.92027
3.02286
3.09078
3.15313
3.17583
3.17819
3.17313
3.16621
3.15996
3.15839
3.15552
3.15025
3.14485
3.14171
3.14281
3.14549
3.1473
3.1436
3.1505
0.999933
0.999932
0.999919
0.999893
0.999852
0.999792
0.999707
0.999592
0.999437
0.999232
0.998965
0.998622
0.998188
0.997646
0.996977
0.996166
0.995194
0.994046
0.992716
0.991141
0.989451
0.987545
0.98533
0.9831
0.980724
0.978012
0.975433
0.972879
0.970332
0.968131
0.965918
0.964035
0.962708
0.961972
0.961366
0.960862
0.960895
0.961725
0.963727
0.966689
0.970474
0.974932
0.980288
0.985366
0.991055
1.00021
1.01375
1.03398
1.06162
1.08517
1.54895
2.79546
3.01487
3.06082
3.03382
3.01312
2.97454
2.94547
2.91015
2.87992
2.84672
2.81931
2.78856
2.75713
2.72069
2.68597
2.65986
2.63891
2.62904
2.61728
2.60346
2.59362
2.58081
2.57196
2.56404
2.55566
2.54987
2.54497
2.53663
2.54187
2.51207
2.49507
2.50073
2.47257
2.46209
2.44094
2.42498
2.40808
2.39338
2.3682
2.35388
2.3531
2.34512
2.37777
2.37728
2.47038
2.57152
2.7002
2.82974
2.96501
3.06411
3.11021
3.14868
3.18406
3.20875
3.22071
3.21818
3.20988
3.20326
3.19758
3.18963
3.17715
3.16459
3.15539
3.15023
3.14714
3.14457
3.13876
3.14406
0.999933
0.999933
0.999919
0.999893
0.999852
0.999792
0.999708
0.999592
0.999437
0.999233
0.998966
0.998624
0.99819
0.997648
0.996979
0.996168
0.995195
0.994047
0.992712
0.991146
0.989438
0.987522
0.985327
0.983048
0.98069
0.977902
0.975317
0.972851
0.969802
0.967556
0.965778
0.963427
0.961176
0.960039
0.959591
0.958919
0.957882
0.957383
0.958013
0.959605
0.962368
0.965178
0.968544
0.97215
0.975204
0.978059
0.985018
0.997854
1.0188
1.03971
1.3069
2.72568
2.99681
3.05886
3.00679
2.99584
2.94976
2.90643
2.86589
2.82793
2.78339
2.74769
2.71514
2.68007
2.64792
2.61133
2.58263
2.56585
2.55336
2.54325
2.53439
2.52511
2.51368
2.50416
2.49631
2.48911
2.48296
2.47437
2.46759
2.47294
2.44594
2.43552
2.43068
2.41019
2.39983
2.38578
2.37871
2.36964
2.36734
2.35276
2.36142
2.37074
2.37499
2.4506
2.50318
2.6378
2.77069
2.89172
3.01128
3.07302
3.11408
3.14417
3.1759
3.20187
3.22152
3.23293
3.23581
3.23461
3.23227
3.2287
3.21934
3.20186
3.18297
3.16752
3.1571
3.14859
3.14225
3.13494
3.13848
0.999934
0.999933
0.999919
0.999893
0.999852
0.999792
0.999708
0.999593
0.999439
0.999235
0.998968
0.998626
0.998193
0.997651
0.996982
0.99617
0.995198
0.994048
0.992709
0.991162
0.989413
0.987476
0.98532
0.982974
0.980573
0.977843
0.975167
0.97265
0.969517
0.967014
0.965121
0.962646
0.95993
0.957936
0.956945
0.956138
0.954968
0.952728
0.951045
0.950773
0.951615
0.953002
0.953981
0.955466
0.957343
0.956509
0.953883
0.95427
0.956997
0.975254
1.01982
2.58696
2.97815
3.05443
2.9623
2.94147
2.87166
2.8126
2.7657
2.73253
2.68559
2.64852
2.62153
2.58901
2.57033
2.53266
2.50455
2.49113
2.47286
2.46662
2.4597
2.44921
2.44042
2.43254
2.42351
2.41623
2.40968
2.39976
2.39392
2.39875
2.37983
2.37334
2.37029
2.35832
2.35379
2.35465
2.35538
2.34167
2.36673
2.3594
2.39283
2.43445
2.47072
2.59709
2.70673
2.81561
2.94809
3.02179
3.06957
3.10108
3.12773
3.15939
3.1866
3.20837
3.22288
3.23624
3.24655
3.25153
3.25371
3.25069
3.23891
3.22107
3.19904
3.17903
3.1633
3.14995
3.14001
3.13172
3.13369
0.999934
0.999933
0.999919
0.999894
0.999853
0.999793
0.999709
0.999595
0.999441
0.999237
0.998971
0.99863
0.998197
0.997655
0.996987
0.996175
0.995202
0.99405
0.992703
0.991169
0.989392
0.987411
0.985334
0.982924
0.980399
0.977847
0.974924
0.972185
0.96941
0.966422
0.963775
0.961489
0.959166
0.955909
0.953394
0.951848
0.950641
0.948924
0.945446
0.94145
0.93887
0.938287
0.936669
0.934645
0.934155
0.931499
0.926207
0.91172
0.899723
0.899235
0.931307
2.27457
2.95523
3.04771
2.87305
2.8328
2.7508
2.69588
2.65418
2.62724
2.58285
2.54848
2.53032
2.50205
2.48777
2.45752
2.4332
2.41319
2.39853
2.39115
2.38183
2.37241
2.3653
2.35968
2.35517
2.34957
2.34347
2.33763
2.33388
2.34029
2.33163
2.33065
2.33061
2.33455
2.33333
2.34211
2.34987
2.33924
2.38897
2.41132
2.47712
2.5755
2.6583
2.76294
2.88256
2.97306
3.02654
3.05686
3.07921
3.1058
3.13459
3.16189
3.18759
3.2053
3.2208
3.2381
3.2521
3.26166
3.26489
3.26047
3.25121
3.23439
3.21189
3.18893
3.16839
3.15053
3.13762
3.12887
3.12957
0.999934
0.999934
0.99992
0.999894
0.999854
0.999794
0.999711
0.999596
0.999443
0.99924
0.998975
0.998634
0.998202
0.997661
0.996994
0.996181
0.995208
0.994054
0.992699
0.991173
0.989381
0.987371
0.985317
0.982859
0.980263
0.97773
0.97466
0.971696
0.969126
0.96597
0.962361
0.960107
0.957937
0.954349
0.950115
0.947167
0.945271
0.943418
0.940941
0.93419
0.9276
0.921794
0.917078
0.911241
0.906178
0.898944
0.888831
0.873895
0.846421
0.801213
0.834458
1.59681
2.81721
3.00561
2.73205
2.69032
2.63107
2.59735
2.55776
2.53342
2.50011
2.45909
2.44982
2.41423
2.4048
2.37911
2.3564
2.34216
2.32429
2.31342
2.31036
2.30332
2.29805
2.29493
2.29597
2.29393
2.29388
2.29071
2.28928
2.29645
2.29962
2.30712
2.30708
2.32875
2.34088
2.34194
2.37628
2.37926
2.47159
2.55469
2.63444
2.73967
2.83465
2.92619
2.98447
3.01862
3.04238
3.05627
3.07891
3.10636
3.13318
3.15969
3.18254
3.20007
3.21972
3.23887
3.25544
3.26437
3.2663
3.26479
3.25863
3.24403
3.22225
3.19661
3.1713
3.14982
3.13517
3.12633
3.12607
0.999935
0.999934
0.999921
0.999895
0.999855
0.999795
0.999712
0.999598
0.999446
0.999243
0.998979
0.99864
0.998209
0.997668
0.997002
0.99619
0.995217
0.994061
0.992704
0.991167
0.989375
0.987338
0.985255
0.982809
0.980127
0.977514
0.97454
0.971307
0.968528
0.965336
0.96164
0.958489
0.955787
0.952398
0.947936
0.943285
0.93947
0.936478
0.933402
0.92889
0.920242
0.909678
0.899941
0.889989
0.878394
0.863197
0.848708
0.822734
0.782843
0.677892
0.562366
0.653323
2.40624
2.84546
2.63821
2.58353
2.53874
2.50923
2.47302
2.44402
2.42129
2.38235
2.37866
2.3373
2.32774
2.3098
2.29015
2.27732
2.2661
2.25238
2.24779
2.24646
2.24737
2.24614
2.25046
2.25324
2.25732
2.26485
2.26307
2.27507
2.28555
2.30537
2.31409
2.3463
2.38346
2.39811
2.47773
2.53214
2.62206
2.73062
2.81242
2.9044
2.96429
2.99417
3.01261
3.02537
3.0361
3.0529
3.07567
3.10033
3.12793
3.15267
3.17563
3.19596
3.21805
3.23879
3.25321
3.25988
3.26388
3.2659
3.26187
3.25103
3.23018
3.20133
3.1723
3.14821
3.1328
3.1241
3.12324
0.999936
0.999935
0.999921
0.999896
0.999856
0.999797
0.999714
0.999601
0.999449
0.999248
0.998985
0.998647
0.998217
0.997678
0.997013
0.996201
0.995227
0.994071
0.992716
0.991155
0.989373
0.987327
0.985129
0.982766
0.980033
0.977212
0.974334
0.970998
0.96766
0.96445
0.961267
0.95683
0.952983
0.949771
0.94628
0.941124
0.934639
0.929345
0.924605
0.92106
0.914542
0.906581
0.891168
0.878792
0.866508
0.852257
0.834147
0.821999
0.802839
0.778873
0.796953
1.13662
2.27481
2.72193
2.62136
2.55156
2.50247
2.4608
2.41936
2.38559
2.35664
2.31713
2.32031
2.28141
2.26571
2.25258
2.23824
2.23172
2.22149
2.21368
2.20653
2.20737
2.21388
2.21502
2.22127
2.23173
2.23966
2.25233
2.26048
2.28639
2.3066
2.335
2.37264
2.43086
2.51026
2.54912
2.64556
2.72667
2.80805
2.89916
2.95938
2.98647
2.99632
3.00778
3.01628
3.01974
3.03149
3.04824
3.06836
3.09496
3.12105
3.14554
3.16916
3.19193
3.21492
3.23409
3.24553
3.25364
3.2608
3.26492
3.26338
3.25472
3.23464
3.20386
3.17191
3.14655
3.13096
3.12215
3.12086
0.999936
0.999935
0.999922
0.999897
0.999857
0.999799
0.999717
0.999604
0.999453
0.999253
0.998992
0.998655
0.998227
0.99769
0.997026
0.996216
0.99524
0.994085
0.992726
0.991138
0.98938
0.987331
0.985016
0.982686
0.979943
0.976907
0.974034
0.970813
0.966778
0.963639
0.960448
0.955451
0.950599
0.947201
0.944123
0.939428
0.93065
0.923588
0.917374
0.913867
0.908748
0.902187
0.891051
0.875491
0.863464
0.850543
0.836785
0.820411
0.81079
0.821145
0.83622
1.53658
1.86284
2.46398
2.59325
2.49062
2.46603
2.42907
2.39367
2.3588
2.32345
2.2796
2.28134
2.24486
2.23384
2.21979
2.20638
2.20279
2.19591
2.18838
2.18347
2.19103
2.19723
2.20112
2.21543
2.23358
2.24795
2.28007
2.30608
2.35329
2.40235
2.45624
2.53222
2.59406
2.6859
2.74885
2.83066
2.90864
2.95623
2.98284
2.99428
3.0001
2.99929
3.00396
3.0085
3.01545
3.02801
3.04223
3.06383
3.08728
3.11356
3.1387
3.16313
3.18683
3.20851
3.22401
3.2354
3.24737
3.25667
3.26308
3.26268
3.25475
3.23533
3.20402
3.17087
3.14554
3.12971
3.12035
3.11861
0.999937
0.999936
0.999923
0.999898
0.999859
0.999801
0.999719
0.999608
0.999458
0.99926
0.999
0.998665
0.998239
0.997704
0.997043
0.996234
0.995258
0.994103
0.99274
0.991132
0.98938
0.987324
0.984947
0.982567
0.979855
0.976665
0.973646
0.970412
0.966318
0.96254
0.959041
0.954659
0.949345
0.944423
0.940887
0.935806
0.92891
0.920589
0.913549
0.90693
0.903187
0.896386
0.889281
0.876094
0.862919
0.85194
0.840743
0.826985
0.813831
0.820274
0.882506
1.61772
2.05923
2.17613
2.38644
2.39947
2.44076
2.42227
2.38667
2.36092
2.31295
2.26503
2.26135
2.22168
2.21544
2.20791
2.19017
2.18702
2.18328
2.1809
2.17706
2.19538
2.20877
2.2239
2.25801
2.29497
2.31123
2.38189
2.44546
2.5088
2.59342
2.65501
2.72601
2.79758
2.8776
2.93518
2.96646
2.97702
2.99501
2.99741
2.99005
2.99005
2.99418
2.99956
3.00388
3.01292
3.02237
3.03846
3.05788
3.08085
3.10689
3.13314
3.15733
3.17972
3.19853
3.21252
3.22684
3.24136
3.25298
3.25973
3.25939
3.25189
3.23349
3.2029
3.16995
3.14471
3.12835
3.11845
3.11613
0.999938
0.999937
0.999924
0.999899
0.99986
0.999803
0.999723
0.999612
0.999464
0.999267
0.99901
0.998677
0.998254
0.997722
0.997062
0.996256
0.995282
0.994123
0.992761
0.991153
0.989365
0.987311
0.98493
0.982402
0.979744
0.976528
0.97316
0.969877
0.966141
0.96159
0.957482
0.953466
0.948769
0.942495
0.936898
0.932987
0.927346
0.919962
0.911119
0.903624
0.896254
0.892325
0.885631
0.879222
0.867294
0.855632
0.846338
0.839325
0.838055
0.904275
1.11927
1.93241
2.07584
2.07769
2.20586
2.23991
2.3873
2.43111
2.40148
2.37489
2.32015
2.27277
2.26838
2.2224
2.21323
2.20877
2.19135
2.18803
2.1914
2.2059
2.21716
2.25142
2.28597
2.31483
2.37612
2.44489
2.48018
2.56929
2.67
2.73187
2.79989
2.86141
2.91841
2.96842
2.99051
2.9902
3.00676
2.99607
2.98824
2.9855
2.98512
2.98663
2.99137
2.9949
3.0017
3.00869
3.01978
3.0349
3.05343
3.07582
3.10147
3.12693
3.14923
3.1699
3.18731
3.20264
3.21895
3.23567
3.24768
3.25424
3.25477
3.24751
3.23005
3.20134
3.16883
3.14346
3.12673
3.11656
3.11353
0.999939
0.999938
0.999925
0.999901
0.999862
0.999806
0.999726
0.999617
0.999471
0.999276
0.999021
0.998691
0.998271
0.997743
0.997086
0.996284
0.995312
0.994149
0.992791
0.991192
0.989338
0.98731
0.984943
0.982268
0.979563
0.976468
0.97282
0.969377
0.965757
0.9609
0.956238
0.95243
0.947812
0.940973
0.934791
0.929904
0.925678
0.919876
0.90952
0.901399
0.894219
0.88831
0.884797
0.87862
0.873081
0.859103
0.848578
0.84179
0.844231
0.920319
1.59138
2.12276
2.12381
2.10833
2.12873
2.16604
2.25708
2.40192
2.37701
2.38257
2.32796
2.28846
2.2818
2.24046
2.23444
2.21412
2.2312
2.22446
2.25714
2.30055
2.31993
2.3904
2.45799
2.51067
2.58161
2.66843
2.72696
2.80714
2.88839
2.93251
2.97068
2.99275
3.00416
3.00981
3.01935
3.00099
2.99391
2.98934
2.98545
2.98153
2.98109
2.98435
2.98718
2.992
2.99818
3.0061
3.01723
3.03167
3.04995
3.07173
3.09559
3.11879
3.14018
3.16037
3.17786
3.19459
3.21267
3.22872
3.23989
3.24727
3.24888
3.24227
3.22613
3.19897
3.16685
3.14186
3.12516
3.11468
3.11094
0.99994
0.999939
0.999927
0.999903
0.999865
0.999809
0.999731
0.999623
0.999478
0.999286
0.999034
0.998708
0.998291
0.997767
0.997115
0.996316
0.995348
0.994185
0.992827
0.991232
0.98934
0.987313
0.984969
0.982234
0.979365
0.976336
0.972653
0.968852
0.965098
0.960737
0.95554
0.950953
0.946284
0.940638
0.933855
0.927714
0.923811
0.917748
0.909209
0.900673
0.893729
0.886789
0.883885
0.878477
0.87311
0.861118
0.846506
0.831243
0.846279
0.898605
1.87288
2.10531
2.11358
2.10257
2.09149
2.10473
2.12245
2.234
2.23844
2.36606
2.31994
2.31018
2.3007
2.29096
2.27196
2.27615
2.32922
2.32731
2.41126
2.48039
2.53186
2.61113
2.69536
2.75517
2.8224
2.89362
2.94609
2.99029
3.00964
3.00855
3.0171
3.03222
3.02592
3.01039
3.00681
2.99717
2.99166
2.98475
2.98097
2.97914
2.97997
2.98173
2.98428
2.98917
2.99498
3.00352
3.01468
3.029
3.04651
3.06653
3.08754
3.10937
3.13131
3.15125
3.16936
3.1879
3.20615
3.22026
3.23084
3.23916
3.2413
3.23668
3.22164
3.19535
3.1643
3.14005
3.12354
3.11258
3.10848
0.999941
0.999941
0.999928
0.999905
0.999867
0.999813
0.999736
0.99963
0.999487
0.999297
0.999049
0.998727
0.998315
0.997796
0.997149
0.996355
0.995393
0.994235
0.992868
0.991283
0.989395
0.987295
0.984992
0.982256
0.979216
0.976158
0.972628
0.968523
0.964507
0.960378
0.955217
0.949876
0.945127
0.939993
0.933462
0.926974
0.921217
0.916114
0.909704
0.900754
0.89369
0.887301
0.881928
0.878927
0.873608
0.868857
0.862738
0.86994
0.958554
1.37825
2.08888
2.14132
2.13674
2.13647
2.12443
2.11982
2.11626
2.15475
2.18057
2.31049
2.32895
2.41142
2.31068
2.41412
2.34915
2.44542
2.52621
2.54403
2.63516
2.71804
2.79679
2.85768
2.92181
2.96805
2.99894
3.01847
3.02182
3.02901
3.03946
3.03242
3.02076
3.02091
3.01665
3.01141
3.0018
2.99321
2.98679
2.98189
2.97874
2.97714
2.97683
2.97808
2.98115
2.985
2.99121
2.99995
3.01114
3.02478
3.0413
3.05995
3.08012
3.10148
3.12317
3.14336
3.16227
3.18133
3.19791
3.21043
3.22144
3.23052
3.23339
3.23008
3.21582
3.19113
3.16168
3.13865
3.12172
3.10991
3.10567
0.999943
0.999942
0.99993
0.999907
0.99987
0.999817
0.999741
0.999637
0.999497
0.999311
0.999066
0.998749
0.998342
0.997829
0.99719
0.996402
0.995447
0.994296
0.992923
0.99135
0.989478
0.987304
0.985031
0.982316
0.979183
0.975989
0.972597
0.968388
0.964034
0.959869
0.955178
0.949394
0.944073
0.939052
0.933466
0.926603
0.920184
0.915307
0.909307
0.901076
0.893793
0.8876
0.881398
0.878881
0.873489
0.865853
0.853814
0.853357
0.910566
1.76355
2.1596
2.1686
2.16441
2.16221
2.15137
2.14078
2.13279
2.124
2.15668
2.19872
2.37683
2.51474
2.47695
2.55027
2.57808
2.66008
2.75508
2.82003
2.88464
2.94083
2.99368
3.01719
3.02725
3.03418
3.04249
3.04645
3.03864
3.0261
3.02664
3.02658
3.02077
3.02006
3.01136
3.00499
2.99559
2.98852
2.98357
2.98043
2.97755
2.97435
2.97319
2.97472
2.97755
2.98102
2.98687
2.99483
3.00587
3.01975
3.03657
3.0545
3.07365
3.0945
3.11647
3.13661
3.15495
3.17303
3.18825
3.20043
3.21155
3.22148
3.22501
3.22227
3.20921
3.1868
3.15985
3.13708
3.11918
3.10651
3.10228
0.999944
0.999944
0.999932
0.999909
0.999874
0.999821
0.999747
0.999646
0.999509
0.999326
0.999085
0.998774
0.998374
0.997868
0.997237
0.996458
0.995512
0.994372
0.993
0.991436
0.989574
0.987362
0.985079
0.982414
0.979252
0.975871
0.9725
0.968455
0.96389
0.959435
0.954922
0.949458
0.94365
0.938194
0.932803
0.926768
0.920282
0.914669
0.908678
0.901679
0.894171
0.888019
0.88238
0.87832
0.875154
0.869653
0.86175
0.900319
1.01386
1.98585
2.1615
2.17733
2.18022
2.17599
2.16311
2.15705
2.15108
2.13739
2.22508
2.23669
2.56151
2.67629
2.75776
2.83093
2.8555
2.92789
2.96873
3.00803
3.02245
3.03217
3.04624
3.05436
3.0579
3.04341
3.03173
3.0288
3.03019
3.02857
3.023
3.022
3.01435
3.0138
3.00679
3.00063
2.99155
2.98647
2.98135
2.97729
2.97282
2.96979
2.96957
2.97081
2.97305
2.97699
2.98263
2.99041
3.00158
3.01563
3.03184
3.04883
3.0675
3.0887
3.11013
3.1287
3.14654
3.16368
3.17803
3.19066
3.20236
3.21195
3.21566
3.21406
3.20244
3.18298
3.15817
3.13517
3.11647
3.10315
3.09904
0.999946
0.999945
0.999934
0.999912
0.999877
0.999826
0.999754
0.999655
0.999521
0.999343
0.999108
0.998802
0.998411
0.997914
0.997293
0.996526
0.995589
0.994462
0.993104
0.991538
0.989698
0.98749
0.985144
0.982546
0.979364
0.975884
0.972529
0.968611
0.96383
0.959165
0.954822
0.949763
0.943486
0.937768
0.932072
0.926662
0.920807
0.91499
0.908928
0.901645
0.894807
0.889283
0.884531
0.881025
0.879708
0.879938
0.889972
0.978739
1.50474
2.18494
2.19027
2.18684
2.18818
2.19153
2.18639
2.19002
2.20977
2.22107
2.38905
2.4272
2.75041
2.93803
3.01511
3.0378
3.04285
3.04683
3.04927
3.06085
3.06084
3.05629
3.04261
3.03478
3.03745
3.03626
3.03093
3.02645
3.02553
3.02309
3.01755
3.01529
3.00783
3.00585
2.99868
2.99346
2.98692
2.98278
2.97804
2.97399
2.97006
2.9679
2.96753
2.96868
2.97065
2.97423
2.97958
2.98723
2.99777
3.01113
3.02672
3.04323
3.06152
3.08232
3.10231
3.11991
3.13805
3.1542
3.16776
3.18085
3.1932
3.20217
3.20645
3.20522
3.19612
3.17916
3.15473
3.1326
3.11363
3.1004
3.09664
0.999948
0.999947
0.999936
0.999915
0.999881
0.999832
0.999762
0.999666
0.999536
0.999362
0.999133
0.998835
0.998453
0.997967
0.997358
0.996605
0.995683
0.994571
0.993236
0.991665
0.989856
0.987685
0.985268
0.982716
0.979546
0.976034
0.972648
0.968794
0.963909
0.959126
0.954981
0.950064
0.943546
0.937709
0.931729
0.926611
0.921851
0.916067
0.909467
0.902015
0.895637
0.889913
0.884734
0.879648
0.874802
0.867637
0.870735
0.915551
1.88898
2.19889
2.20531
2.20546
2.20894
2.21414
2.21119
2.23089
2.29033
2.3146
2.57769
2.73087
2.98414
3.09537
3.09272
3.09322
3.08557
3.07337
3.05955
3.05115
3.04435
3.04421
3.03935
3.02863
3.02757
3.02391
3.02002
3.01711
3.01603
3.01523
3.00947
3.00634
2.99954
2.99734
2.99207
2.98946
2.9854
2.98212
2.97681
2.97205
2.96791
2.96531
2.96415
2.965
2.967
2.97069
2.9762
2.98351
2.99374
3.00684
3.02204
3.03771
3.05496
3.07498
3.09404
3.11137
3.12925
3.14449
3.15776
3.17096
3.18338
3.1924
3.19734
3.19681
3.19023
3.17465
3.15097
3.12886
3.11039
3.09848
3.0951
0.99995
0.999949
0.999939
0.999918
0.999886
0.999838
0.999771
0.999678
0.999552
0.999384
0.999162
0.998873
0.998501
0.998027
0.997433
0.996697
0.995795
0.994702
0.993393
0.991838
0.990048
0.987914
0.985479
0.982944
0.979827
0.976304
0.972884
0.969094
0.964155
0.959344
0.955242
0.950435
0.943816
0.937852
0.931954
0.926818
0.923034
0.917612
0.910068
0.902998
0.896774
0.891297
0.887239
0.884636
0.885196
0.892848
0.971687
1.27133
2.11271
2.20567
2.21394
2.21604
2.22664
2.24116
2.23471
2.30655
2.42033
2.47979
2.78122
3.00235
3.11431
3.11261
3.09871
3.08528
3.07426
3.0652
3.05663
3.04997
3.04262
3.03643
3.02991
3.02089
3.0134
3.01234
3.01043
3.0105
3.00976
3.00941
3.0044
3.00011
2.99335
2.99132
2.98677
2.98487
2.98104
2.97725
2.97259
2.96756
2.96436
2.9628
2.96204
2.96265
2.96444
2.96785
2.97296
2.98015
2.99025
3.00271
3.01691
3.03147
3.04778
3.06682
3.08498
3.10278
3.12019
3.13474
3.1484
3.16141
3.17372
3.18259
3.18799
3.18946
3.18409
3.16961
3.14716
3.12486
3.10718
3.09671
3.09319
0.999952
0.999952
0.999941
0.999922
0.999891
0.999845
0.999781
0.999691
0.99957
0.999408
0.999194
0.998915
0.998556
0.998097
0.99752
0.996805
0.995926
0.994857
0.993579
0.99206
0.990283
0.988192
0.985787
0.983259
0.980208
0.976693
0.973279
0.96952
0.964585
0.959783
0.955713
0.950946
0.944277
0.938328
0.932496
0.927907
0.924019
0.919017
0.911096
0.904554
0.898781
0.8935
0.888488
0.882211
0.879663
0.884769
0.960837
1.77936
2.2451
2.24619
2.24778
2.2462
2.26161
2.28463
2.28011
2.44343
2.58689
2.75378
2.99886
3.11489
3.10481
3.08588
3.07182
3.06078
3.05232
3.04459
3.03697
3.0313
3.0263
3.02249
3.01817
3.01481
3.00734
3.00896
3.00698
3.00456
3.00099
2.99837
2.99309
2.98802
2.98173
2.98044
2.97893
2.97936
2.97709
2.97456
2.96988
2.96462
2.96131
2.95866
2.95667
2.95686
2.95847
2.96199
2.96753
2.97536
2.98545
2.99717
3.01041
3.02428
3.04016
3.05797
3.0755
3.09415
3.11154
3.12548
3.13932
3.15221
3.1642
3.17258
3.17901
3.18165
3.17698
3.16421
3.14286
3.12117
3.10451
3.09481
3.09137
0.999955
0.999954
0.999944
0.999926
0.999896
0.999853
0.999791
0.999706
0.999591
0.999436
0.999231
0.998963
0.998618
0.998177
0.997621
0.996929
0.996079
0.995042
0.993798
0.992329
0.99058
0.988519
0.986223
0.983688
0.980679
0.977227
0.973865
0.970105
0.965251
0.960518
0.95654
0.9517
0.944988
0.9393
0.933518
0.929824
0.925433
0.920061
0.912076
0.905974
0.900244
0.894671
0.889068
0.883839
0.881688
0.932065
1.03934
2.06998
2.24424
2.25946
2.2699
2.26746
2.30043
2.34821
2.36351
2.6284
2.77154
2.99894
3.11055
3.10057
3.08347
3.06543
3.05162
3.04098
3.03243
3.02532
3.01927
3.01511
3.01139
3.00919
3.00579
3.0063
3.00131
3.00226
3.00023
2.99736
2.99233
2.98835
2.98407
2.9798
2.97532
2.97602
2.97567
2.97412
2.96986
2.9665
2.96209
2.95794
2.95668
2.95558
2.95417
2.95399
2.95553
2.95877
2.96482
2.97255
2.98192
2.99219
3.00384
3.01653
3.03162
3.04863
3.06628
3.08561
3.10335
3.11721
3.13089
3.14355
3.15527
3.16331
3.17049
3.17312
3.16974
3.15828
3.13833
3.11786
3.10199
3.09237
3.08913
0.999958
0.999957
0.999948
0.99993
0.999903
0.999861
0.999803
0.999722
0.999613
0.999466
0.999272
0.999017
0.998688
0.998267
0.997735
0.997074
0.996258
0.99526
0.994063
0.992645
0.990948
0.988914
0.986776
0.984259
0.981282
0.977914
0.974703
0.970912
0.966185
0.961616
0.957652
0.952678
0.946142
0.940706
0.93522
0.932371
0.927344
0.920568
0.91335
0.907819
0.902855
0.898457
0.896647
0.898644
0.908255
1.02163
1.54524
2.30581
2.28447
2.28141
2.2967
2.28791
2.35104
2.48109
2.53424
2.83043
3.01503
3.10937
3.09413
3.07588
3.06162
3.04867
3.03742
3.028
3.01952
3.01305
3.00877
3.00647
3.00459
3.0014
2.99771
2.99735
2.9934
2.99396
2.99259
2.99075
2.98634
2.98081
2.97388
2.96656
2.96284
2.96364
2.96337
2.96465
2.96336
2.96168
2.95946
2.95657
2.95417
2.95035
2.94661
2.94516
2.94647
2.95023
2.9568
2.96463
2.9741
2.98424
2.99557
3.00796
3.0228
3.03947
3.05764
3.07723
3.09524
3.10952
3.12292
3.13522
3.14675
3.15422
3.16139
3.16434
3.16209
3.15183
3.13383
3.11451
3.09893
3.08918
3.08651
0.99996
0.99996
0.999951
0.999935
0.999909
0.999871
0.999816
0.999741
0.999638
0.9995
0.999317
0.999077
0.998767
0.998369
0.997866
0.997239
0.996465
0.995512
0.994368
0.99302
0.991392
0.989425
0.987406
0.984999
0.982033
0.978846
0.975746
0.971949
0.967413
0.963097
0.959079
0.954005
0.94774
0.942396
0.937806
0.934518
0.9299
0.92051
0.914795
0.91012
0.905517
0.899742
0.892229
0.884358
0.900528
0.962751
2.03739
2.2836
2.29191
2.29978
2.33105
2.323
2.43948
2.63756
2.795
3.01868
3.11271
3.08836
3.07095
3.05599
3.04478
3.03573
3.02756
3.0202
3.01259
3.00674
3.00321
3.00155
3.00076
2.99746
2.9931
2.99136
2.98765
2.9864
2.98428
2.98256
2.97951
2.97388
2.96882
2.96022
2.95586
2.95477
2.95426
2.95549
2.95234
2.94986
2.94988
2.94884
2.94724
2.94581
2.94357
2.94315
2.94353
2.94688
2.9529
2.96034
2.96873
2.97774
2.98807
2.99976
3.01409
3.03068
3.04944
3.06906
3.08692
3.10133
3.11434
3.12648
3.13792
3.14516
3.15255
3.15498
3.15385
3.14511
3.12894
3.11026
3.09515
3.08591
3.0831
0.999964
0.999963
0.999955
0.99994
0.999916
0.999881
0.99983
0.99976
0.999665
0.999537
0.999367
0.999144
0.998856
0.998485
0.998014
0.997428
0.996703
0.995804
0.994715
0.993463
0.99192
0.990047
0.988153
0.985878
0.982974
0.980002
0.977043
0.97328
0.968969
0.964911
0.960939
0.955898
0.949901
0.94465
0.940635
0.936854
0.931402
0.921862
0.916604
0.913308
0.910733
0.91029
0.915219
0.929624
1.03063
1.53799
2.27467
2.31175
2.30883
2.33683
2.41454
2.4306
2.63031
2.82363
3.0275
3.1153
3.09168
3.07221
3.05315
3.04154
3.03299
3.02612
3.01969
3.01357
3.00761
3.00258
2.99931
2.99742
2.99636
2.99331
2.989
2.98724
2.98313
2.98063
2.9775
2.97465
2.97173
2.96578
2.96295
2.95416
2.94575
2.94232
2.93945
2.94231
2.94319
2.94353
2.94709
2.94741
2.94439
2.93961
2.93544
2.93501
2.935
2.93722
2.9422
2.94939
2.95796
2.96764
2.97812
2.98983
3.00462
3.02197
3.04138
3.06099
3.07836
3.09213
3.10537
3.11789
3.12908
3.1363
3.14373
3.14567
3.14536
3.13829
3.12354
3.10534
3.09094
3.08294
3.08046
0.999967
0.999967
0.99996
0.999946
0.999924
0.999892
0.999846
0.999782
0.999695
0.999579
0.999423
0.999219
0.998955
0.998614
0.99818
0.997642
0.996973
0.996138
0.995121
0.993982
0.992539
0.990783
0.98903
0.986911
0.984148
0.981375
0.978595
0.975034
0.970934
0.966991
0.963274
0.958599
0.952744
0.947594
0.94293
0.939198
0.933703
0.924873
0.919257
0.914036
0.909333
0.903036
0.898629
0.910595
0.980747
1.98544
2.31616
2.33093
2.33459
2.36442
2.54841
2.59886
2.84883
3.03617
3.11013
3.08864
3.07301
3.05517
3.04266
3.033
3.02554
3.01935
3.01315
3.00712
3.00194
2.99785
2.99492
2.99283
2.9912
2.98889
2.98437
2.98241
2.97843
2.97542
2.97144
2.9679
2.96381
2.95767
2.95502
2.94678
2.93764
2.93316
2.92934
2.93012
2.93103
2.9317
2.9348
2.93507
2.93284
2.93072
2.93098
2.93288
2.93147
2.93237
2.93706
2.9436
2.95184
2.96165
2.97162
2.98245
2.99676
3.01378
3.03296
3.052
3.06833
3.08134
3.09501
3.10804
3.1195
3.12722
3.13495
3.13701
3.13716
3.13108
3.11735
3.09977
3.08604
3.07938
3.07809
0.999971
0.999971
0.999964
0.999952
0.999933
0.999904
0.999863
0.999806
0.999728
0.999624
0.999485
0.999301
0.999064
0.998758
0.998366
0.997882
0.997279
0.996519
0.99559
0.994582
0.99326
0.991647
0.990049
0.988135
0.985584
0.983002
0.980462
0.977251
0.973378
0.969488
0.966245
0.96209
0.956337
0.951146
0.945529
0.941345
0.936019
0.930267
0.923374
0.916951
0.912942
0.912975
0.922652
1.01351
1.39651
2.23938
2.35127
2.35926
2.4284
2.46094
2.69705
2.86303
3.04998
3.11129
3.08446
3.07052
3.0511
3.04083
3.03241
3.02476
3.01804
3.01158
3.00508
2.99914
2.99457
2.991
2.98883
2.98728
2.98603
2.98409
2.97969
2.97729
2.973
2.97001
2.96527
2.96108
2.95626
2.94978
2.94609
2.9394
2.93103
2.92567
2.91937
2.9184
2.91937
2.92319
2.92734
2.9293
2.9284
2.92577
2.92464
2.92473
2.92131
2.92062
2.92431
2.93114
2.93958
2.94993
2.96052
2.97175
2.9866
3.00403
3.02343
3.04237
3.0582
3.07099
3.08511
3.09825
3.10969
3.11763
3.12555
3.12798
3.12842
3.1233
3.1112
3.09433
3.08107
3.07556
3.07535
0.999975
0.999975
0.999969
0.999959
0.999942
0.999917
0.999881
0.999832
0.999764
0.999673
0.999552
0.999392
0.999185
0.998918
0.998574
0.998145
0.997624
0.996952
0.996127
0.995251
0.994096
0.992662
0.991222
0.989565
0.987294
0.984935
0.982716
0.979914
0.97632
0.972688
0.969804
0.966045
0.961048
0.955304
0.949757
0.944106
0.94051
0.935126
0.928891
0.917439
0.906674
0.898005
0.902518
0.986498
1.92879
2.36082
2.39503
2.4389
2.5809
2.6784
2.90379
3.06178
3.11483
3.08518
3.0731
3.05194
3.04084
3.03207
3.02407
3.01701
3.01066
3.00387
2.99711