/*--------------------------------*- C++ -*----------------------------------*\
| =========                 |                                                 |
| \\      /  F ield         | OpenFOAM: The Open Source CFD Toolbox           |
|  \\    /   O peration     | Version:  2.2.x                                 |
|   \\  /    A nd           | Web:      www.OpenFOAM.org                      |
|    \\/     M anipulation  |                                                 |
\*---------------------------------------------------------------------------*/
FoamFile
{
    version     2.0;
    format      ascii;
    class       volScalarField;
    location    "0.55";
    object      Bz;
}
// * * * * * * * * * * * * * * * * * * * * * * * * * * * * * * * * * * * * * //

dimensions      [1 0 -2 0 0 -1 0];

internalField   nonuniform List<scalar> 
14161
(
4.14469e-20
4.16046e-20
4.13923e-20
4.07345e-20
4.04127e-20
3.98717e-20
4.06947e-20
3.97258e-20
4.02792e-20
3.89627e-20
3.91219e-20
3.88371e-20
3.84595e-20
3.88262e-20
3.90056e-20
3.95528e-20
3.97769e-20
3.95687e-20
3.98146e-20
3.97117e-20
3.95301e-20
3.96907e-20
3.93954e-20
4.03658e-20
3.93327e-20
4.00184e-20
3.87561e-20
4.01533e-20
3.95558e-20
4.00505e-20
4.04559e-20
4.18205e-20
4.0392e-20
4.20342e-20
4.16558e-20
4.2275e-20
4.27026e-20
4.30729e-20
4.33584e-20
4.32994e-20
4.33496e-20
4.33602e-20
4.28223e-20
4.27522e-20
4.28097e-20
4.31625e-20
4.38031e-20
4.45553e-20
4.38938e-20
4.42064e-20
4.60545e-20
4.59246e-20
4.39432e-20
4.62226e-20
3.67984e-20
7.18048e-20
-7.0969e-21
9.49931e-20
-1.732e-19
6.56347e-19
2.68937e-18
2.6069e-18
2.27567e-18
1.21569e-18
6.12026e-19
1.80741e-19
1.61009e-19
1.55753e-19
1.40441e-19
1.17803e-19
7.52247e-20
7.49138e-20
6.25635e-20
1.53861e-21
9.32209e-21
5.15168e-20
5.58144e-20
5.98596e-20
1.47492e-19
2.27339e-19
3.26685e-19
4.32323e-19
4.19267e-19
4.40053e-19
4.49994e-19
4.81785e-19
5.67043e-19
5.55301e-19
7.10568e-19
7.60319e-19
8.79456e-19
8.32415e-19
4.28565e-19
3.04374e-19
2.78577e-19
2.8384e-19
2.64324e-19
2.54516e-19
2.30851e-19
1.77305e-19
1.68251e-19
1.71538e-19
1.7208e-19
1.42705e-19
1.30123e-19
1.44187e-19
1.29414e-19
2.58297e-19
2.64693e-19
2.46614e-19
2.54286e-19
2.49784e-19
2.73721e-19
3.34485e-19
4.0863e-19
4.02019e-19
4.04742e-19
3.93447e-19
3.94782e-19
4.3396e-20
4.29498e-20
4.24298e-20
4.19697e-20
4.21103e-20
4.21064e-20
4.1736e-20
4.10371e-20
4.14416e-20
4.10159e-20
4.06071e-20
3.97286e-20
3.96599e-20
3.99122e-20
3.98323e-20
4.10117e-20
4.13653e-20
4.06026e-20
4.15569e-20
4.10356e-20
4.05558e-20
4.05024e-20
4.13643e-20
4.24473e-20
4.05719e-20
4.08311e-20
3.98591e-20
4.14752e-20
4.02601e-20
4.273e-20
4.1853e-20
4.3331e-20
4.21299e-20
4.28438e-20
4.3317e-20
4.39091e-20
4.40112e-20
4.44194e-20
4.48129e-20
4.46284e-20
4.45361e-20
4.44636e-20
4.40833e-20
4.39571e-20
4.43465e-20
4.39912e-20
4.51879e-20
4.5186e-20
4.48845e-20
4.46865e-20
4.5693e-20
4.56879e-20
4.50286e-20
4.71272e-20
4.56662e-20
4.52167e-20
4.54208e-20
5.31834e-20
7.0443e-20
6.47237e-19
2.92853e-18
3.01199e-18
2.77957e-18
9.05356e-19
6.35208e-19
3.94062e-19
1.96623e-19
1.56877e-19
1.25562e-19
7.34884e-20
2.1556e-20
2.53833e-20
2.21672e-20
-2.9269e-20
-1.65468e-20
3.6348e-20
4.63074e-20
6.3873e-20
1.49683e-19
2.39173e-19
3.38814e-19
4.42269e-19
4.41218e-19
4.76413e-19
4.77022e-19
5.26044e-19
5.73834e-19
6.08281e-19
7.39648e-19
7.75045e-19
9.16654e-19
8.04996e-19
4.64568e-19
3.27404e-19
3.01103e-19
3.12747e-19
2.99137e-19
2.95903e-19
2.9098e-19
2.44472e-19
2.37253e-19
2.51202e-19
2.96612e-19
2.70561e-19
2.61959e-19
3.1758e-19
3.40011e-19
4.47761e-19
4.9197e-19
4.71837e-19
5.38115e-19
5.5631e-19
5.62616e-19
6.97153e-19
6.65059e-19
9.27999e-19
9.44497e-19
1.17547e-18
1.2113e-18
4.62591e-20
4.53733e-20
4.52628e-20
4.53779e-20
4.43388e-20
4.38762e-20
4.2907e-20
4.24091e-20
4.27289e-20
4.28443e-20
4.20224e-20
4.07216e-20
4.09292e-20
4.16469e-20
4.2595e-20
4.40717e-20
4.40375e-20
4.25762e-20
4.39671e-20
4.3081e-20
4.22256e-20
4.28634e-20
4.45508e-20
4.49357e-20
4.23634e-20
4.23185e-20
4.2461e-20
4.34366e-20
4.2543e-20
4.62767e-20
4.49158e-20
4.52869e-20
4.53019e-20
4.6642e-20
4.6914e-20
4.78308e-20
4.73006e-20
4.7876e-20
4.83882e-20
4.86513e-20
4.86234e-20
4.79975e-20
4.73286e-20
4.69481e-20
4.56404e-20
4.82692e-20
4.87267e-20
4.98861e-20
4.94286e-20
4.83921e-20
4.83184e-20
5.02902e-20
4.97522e-20
4.99793e-20
5.04427e-20
4.86546e-20
5.40881e-20
4.77056e-20
9.5194e-20
6.04364e-19
3.20945e-18
3.69176e-18
3.13998e-18
1.33792e-18
9.58976e-19
6.30867e-19
3.25398e-19
2.41601e-19
1.98534e-19
1.23394e-19
4.52704e-20
2.42966e-20
1.6578e-20
-4.61515e-20
-3.13861e-20
1.56515e-20
4.19447e-20
8.57564e-20
1.60002e-19
2.77444e-19
3.64898e-19
4.63482e-19
4.8603e-19
5.21053e-19
5.23631e-19
5.7608e-19
6.36694e-19
6.66823e-19
7.90799e-19
7.99452e-19
8.77915e-19
6.87148e-19
4.38651e-19
3.30886e-19
2.97422e-19
3.38048e-19
3.27886e-19
3.35106e-19
3.18476e-19
3.26995e-19
3.14971e-19
3.71377e-19
3.40626e-19
3.63713e-19
3.13766e-19
4.38943e-19
3.85684e-19
5.44902e-19
6.80526e-19
6.87896e-19
5.76864e-19
5.74764e-19
6.02329e-19
6.74295e-19
6.86794e-19
9.29447e-19
9.63313e-19
1.16711e-18
1.19243e-18
4.92876e-20
5.03418e-20
5.09698e-20
5.06725e-20
4.98321e-20
4.96881e-20
5.02129e-20
5.02286e-20
5.0623e-20
4.86598e-20
4.73917e-20
4.97182e-20
4.80224e-20
5.13848e-20
5.06187e-20
4.94579e-20
5.10755e-20
5.28909e-20
5.08252e-20
5.19424e-20
5.16835e-20
5.35769e-20
5.04409e-20
5.34963e-20
5.08081e-20
5.03277e-20
5.19524e-20
5.09447e-20
4.91141e-20
5.10414e-20
5.04154e-20
4.99395e-20
5.34928e-20
5.42297e-20
5.65597e-20
5.56313e-20
6.05956e-20
5.74744e-20
5.7842e-20
5.69355e-20
5.77242e-20
5.70597e-20
5.84214e-20
5.4969e-20
5.56984e-20
5.30016e-20
5.58829e-20
5.54548e-20
5.63104e-20
5.87408e-20
5.68108e-20
6.00273e-20
5.93923e-20
6.1794e-20
6.11638e-20
6.13763e-20
6.94179e-20
5.25082e-20
1.12815e-19
6.18669e-19
3.45632e-18
4.90239e-18
4.26099e-18
2.54609e-18
1.82735e-18
1.26671e-18
6.68353e-19
4.71859e-19
3.30328e-19
2.17516e-19
1.25398e-19
1.2977e-19
9.56845e-20
7.85854e-20
8.56611e-20
9.73248e-20
1.56337e-19
2.26296e-19
3.02134e-19
3.95277e-19
4.65037e-19
5.23507e-19
5.86079e-19
5.86905e-19
6.15303e-19
6.69309e-19
7.19521e-19
7.66739e-19
8.69402e-19
8.18753e-19
7.73527e-19
5.71754e-19
3.91201e-19
3.4138e-19
3.13326e-19
3.8382e-19
3.88244e-19
4.41109e-19
4.39828e-19
4.71978e-19
5.22016e-19
6.02434e-19
6.12233e-19
6.07943e-19
6.61728e-19
6.71404e-19
6.94288e-19
5.8645e-19
4.83424e-19
8.52693e-19
3.84769e-19
5.30644e-19
4.63075e-19
5.52699e-19
6.36494e-19
5.61882e-19
6.03315e-19
1.29525e-18
1.33178e-18
6.13007e-20
6.02628e-20
5.85853e-20
5.94178e-20
5.97297e-20
5.96853e-20
5.74095e-20
6.06695e-20
5.93762e-20
5.83888e-20
5.84339e-20
5.86255e-20
5.82083e-20
6.0476e-20
5.85061e-20
5.96804e-20
6.08847e-20
6.54536e-20
6.43101e-20
6.13222e-20
6.38346e-20
6.39238e-20
6.45122e-20
6.36769e-20
6.50657e-20
6.46817e-20
6.50182e-20
6.14727e-20
6.23624e-20
6.59712e-20
5.96307e-20
6.00898e-20
6.72016e-20
6.76674e-20
7.11945e-20
7.28967e-20
7.65797e-20
7.29526e-20
7.10937e-20
7.17608e-20
7.06302e-20
7.04806e-20
6.97206e-20
6.9357e-20
6.69033e-20
7.06237e-20
6.94253e-20
7.18467e-20
7.07709e-20
7.41703e-20
7.75793e-20
8.15232e-20
8.58653e-20
8.73404e-20
9.1191e-20
9.40514e-20
1.00104e-19
1.15827e-19
1.16667e-19
6.06629e-19
3.14627e-18
7.156e-18
6.31771e-18
4.05803e-18
2.75153e-18
2.0623e-18
1.35125e-18
8.92146e-19
6.25015e-19
3.87223e-19
2.37221e-19
1.89441e-19
1.53173e-19
1.56085e-19
1.63449e-19
1.44561e-19
1.86222e-19
2.6594e-19
3.36406e-19
4.43763e-19
5.28455e-19
5.69011e-19
6.7273e-19
6.82641e-19
7.3606e-19
7.91413e-19
8.32021e-19
8.70959e-19
8.90333e-19
7.67944e-19
6.06228e-19
4.72809e-19
3.42975e-19
3.10339e-19
3.11121e-19
3.44401e-19
3.57597e-19
3.63307e-19
4.04157e-19
3.60488e-19
5.08143e-19
4.97039e-19
5.38493e-19
4.78463e-19
5.82796e-19
4.83249e-19
6.4617e-19
4.20395e-19
2.02819e-19
3.59077e-19
5.72071e-19
1.19962e-19
2.05522e-19
2.5973e-19
1.14558e-19
5.31364e-19
5.50238e-19
8.59639e-19
8.81347e-19
7.89525e-20
7.77703e-20
7.92367e-20
7.62094e-20
7.45768e-20
7.2726e-20
7.55396e-20
7.95014e-20
7.35751e-20
7.64093e-20
7.75501e-20
7.29354e-20
7.78146e-20
8.33901e-20
8.02274e-20
8.38455e-20
8.07933e-20
9.21884e-20
8.05105e-20
8.55803e-20
8.84606e-20
9.29883e-20
9.07989e-20
8.58637e-20
8.95954e-20
8.92942e-20
8.2967e-20
8.55149e-20
8.50105e-20
8.41257e-20
8.76653e-20
9.06154e-20
8.84462e-20
8.85349e-20
9.18734e-20
9.93162e-20
1.02833e-19
1.04868e-19
1.07068e-19
1.03095e-19
1.01684e-19
9.89342e-20
1.0091e-19
9.93445e-20
1.0335e-19
9.84739e-20
1.02559e-19
1.05485e-19
1.10094e-19
1.12245e-19
1.14839e-19
1.1025e-19
1.19247e-19
1.17905e-19
1.18434e-19
1.19615e-19
1.33482e-19
1.65323e-19
3.59513e-20
5.91581e-19
2.93535e-18
9.56284e-18
9.13074e-18
5.67134e-18
3.34277e-18
2.52246e-18
1.67715e-18
1.14541e-18
7.98494e-19
4.68908e-19
3.55182e-19
2.73242e-19
2.15706e-19
2.71151e-19
3.15566e-19
2.7406e-19
3.04248e-19
3.3908e-19
4.07208e-19
5.88703e-19
6.54885e-19
6.99708e-19
7.63998e-19
8.04876e-19
8.44086e-19
9.03869e-19
8.99662e-19
9.05735e-19
7.9296e-19
6.24616e-19
4.66603e-19
3.69827e-19
3.09326e-19
2.67864e-19
2.73678e-19
2.58021e-19
2.83453e-19
2.94227e-19
2.88524e-19
2.74712e-19
3.9514e-19
2.82897e-19
3.73149e-19
3.22498e-19
3.17566e-19
4.7682e-19
2.81719e-19
5.70536e-19
8.18141e-20
-1.57167e-20
1.58792e-19
-1.27868e-19
-7.7531e-20
7.3569e-20
4.85397e-20
2.36011e-19
1.34561e-19
8.35682e-19
8.73555e-19
1.00905e-19
1.01512e-19
1.00424e-19
9.89613e-20
1.06456e-19
1.07532e-19
1.04653e-19
1.12343e-19
1.06305e-19
1.05581e-19
1.08191e-19
1.09784e-19
1.13188e-19
1.11712e-19
1.12194e-19
1.15193e-19
1.21093e-19
1.18602e-19
1.14428e-19
1.25003e-19
1.28444e-19
1.29209e-19
1.22629e-19
1.20344e-19
1.16315e-19
1.19716e-19
1.11606e-19
1.21599e-19
1.19374e-19
1.21664e-19
1.22355e-19
1.25536e-19
1.23067e-19
1.27453e-19
1.30535e-19
1.41932e-19
1.47483e-19
1.51313e-19
1.5479e-19
1.51687e-19
1.48703e-19
1.46199e-19
1.41157e-19
1.41662e-19
1.42471e-19
1.44184e-19
1.44418e-19
1.50589e-19
1.53779e-19
1.59333e-19
1.68996e-19
1.79254e-19
1.87692e-19
2.02265e-19
2.03815e-19
2.15304e-19
2.0789e-19
2.12075e-19
1.89897e-19
3.78756e-19
2.10154e-18
9.61002e-18
9.69337e-18
7.17182e-18
4.14648e-18
2.79536e-18
1.91005e-18
1.36434e-18
9.66905e-19
5.83988e-19
4.76328e-19
3.44031e-19
2.87797e-19
3.62492e-19
3.74651e-19
3.5604e-19
3.97082e-19
4.07425e-19
4.95405e-19
6.43942e-19
7.2049e-19
7.81328e-19
8.4897e-19
8.84527e-19
9.24486e-19
9.4824e-19
8.7103e-19
7.90431e-19
6.45525e-19
5.13755e-19
3.8031e-19
3.28255e-19
2.88439e-19
2.83679e-19
2.44257e-19
3.016e-19
2.39168e-19
1.14638e-19
9.97617e-20
1.34826e-19
7.66985e-20
1.92454e-19
1.00994e-19
1.37077e-19
6.73896e-20
-1.52634e-20
-5.21026e-21
2.39803e-19
-1.74513e-19
-2.09845e-19
1.17271e-19
9.4337e-20
-2.26536e-19
-3.67233e-20
-3.33609e-20
7.03709e-20
1.83327e-20
2.23466e-21
3.52653e-21
1.49025e-19
1.49713e-19
1.49738e-19
1.50621e-19
1.49742e-19
1.5952e-19
1.59466e-19
1.51457e-19
1.53418e-19
1.55714e-19
1.6166e-19
1.60194e-19
1.73809e-19
1.83696e-19
1.76248e-19
1.71064e-19
1.766e-19
1.67985e-19
1.78416e-19
1.93235e-19
1.78113e-19
1.76953e-19
1.79756e-19
1.87205e-19
1.8596e-19
1.81373e-19
1.77933e-19
1.90081e-19
1.84167e-19
1.88503e-19
1.85524e-19
1.91289e-19
1.93529e-19
2.10279e-19
2.12278e-19
2.18096e-19
2.24944e-19
2.23717e-19
2.16793e-19
2.29203e-19
2.17411e-19
2.23264e-19
2.18823e-19
2.28678e-19
2.23676e-19
2.31987e-19
2.28791e-19
2.41879e-19
2.29478e-19
2.40152e-19
2.37598e-19
2.5059e-19
2.51842e-19
2.60846e-19
2.53206e-19
2.72175e-19
2.61791e-19
2.6284e-19
2.80477e-19
4.49743e-19
1.45908e-18
7.69638e-18
9.08644e-18
7.51691e-18
5.31331e-18
3.31819e-18
1.91737e-18
1.46056e-18
9.74522e-19
6.22423e-19
5.15465e-19
3.86682e-19
3.12072e-19
4.07239e-19
3.83752e-19
3.93239e-19
4.28068e-19
4.8945e-19
5.78572e-19
6.76742e-19
7.6964e-19
8.49909e-19
8.99787e-19
9.07675e-19
8.66802e-19
8.29443e-19
7.22055e-19
6.01047e-19
4.94085e-19
3.57904e-19
2.9959e-19
3.02575e-19
2.47624e-19
2.57991e-19
2.15401e-19
1.81804e-19
1.83629e-19
5.37878e-20
1.56864e-19
5.68173e-20
1.44013e-19
1.67231e-21
-4.78597e-20
9.26731e-20
1.04462e-19
-4.81387e-20
-1.66382e-19
-7.37546e-20
1.67926e-19
-4.58484e-19
-2.03552e-19
3.45174e-20
2.19005e-19
2.78511e-19
2.96909e-19
2.41833e-20
2.05505e-20
-1.00007e-19
-1.27612e-19
2.11783e-19
2.14281e-19
2.17243e-19
2.3244e-19
2.22311e-19
2.27703e-19
2.3209e-19
2.29196e-19
2.36921e-19
2.33164e-19
2.43191e-19
2.5411e-19
2.50712e-19
2.50448e-19
2.57623e-19
2.53584e-19
2.54381e-19
2.67226e-19
2.59991e-19
2.52471e-19
2.61564e-19
2.7065e-19
2.62795e-19
2.69741e-19
2.53741e-19
2.60698e-19
2.70889e-19
2.91008e-19
2.75325e-19
2.7847e-19
2.74254e-19
2.98962e-19
2.8411e-19
2.96121e-19
2.93893e-19
2.99397e-19
2.97038e-19
2.98192e-19
2.9783e-19
3.06058e-19
3.05791e-19
3.11422e-19
3.05549e-19
3.07581e-19
3.05493e-19
3.18863e-19
3.22319e-19
3.28236e-19
3.32225e-19
3.3117e-19
3.356e-19
3.2846e-19
3.23689e-19
3.29072e-19
3.08591e-19
3.19516e-19
3.13032e-19
3.14899e-19
3.49071e-19
6.5696e-19
2.48664e-18
5.33147e-18
6.34465e-18
7.26204e-18
5.84594e-18
3.8069e-18
2.03179e-18
1.54914e-18
9.09513e-19
6.27277e-19
5.6351e-19
4.00449e-19
3.73425e-19
4.33678e-19
3.68153e-19
4.11206e-19
4.72514e-19
5.50166e-19
6.30905e-19
7.2254e-19
8.12103e-19
8.39488e-19
8.45076e-19
7.83909e-19
6.8252e-19
6.56477e-19
5.45164e-19
4.85628e-19
4.18001e-19
3.33457e-19
2.79819e-19
2.85311e-19
2.69232e-19
2.80005e-19
2.07818e-19
2.52468e-19
1.13028e-19
1.06325e-19
9.66008e-20
1.33863e-19
8.64187e-20
5.45784e-20
-1.23079e-19
1.24981e-19
5.33663e-21
7.36383e-20
3.97019e-20
-2.02802e-19
-1.41027e-19
-2.83324e-19
-3.35667e-19
9.87064e-20
3.07323e-20
4.52779e-19
1.7597e-19
4.02571e-20
1.74552e-20
1.38817e-19
1.40337e-19
3.36132e-19
3.36449e-19
3.35448e-19
3.36766e-19
3.685e-19
3.49996e-19
3.35611e-19
3.47518e-19
3.48158e-19
3.66362e-19
3.49053e-19
3.68193e-19
3.64372e-19
3.48468e-19
3.64326e-19
3.62307e-19
3.6339e-19
3.64961e-19
3.707e-19
3.63056e-19
3.66975e-19
3.57499e-19
3.66503e-19
3.77928e-19
3.80737e-19
3.88132e-19
3.91257e-19
3.99581e-19
3.89071e-19
3.95621e-19
4.01265e-19
3.98758e-19
4.03505e-19
3.95169e-19
3.93526e-19
3.88668e-19
3.84568e-19
3.884e-19
3.92487e-19
3.98951e-19
3.96449e-19
3.97933e-19
3.93414e-19
3.93379e-19
3.86217e-19
3.88033e-19
3.86156e-19
3.87675e-19
3.87691e-19
3.91157e-19
3.92657e-19
3.8934e-19
3.92697e-19
3.92839e-19
3.94112e-19
3.97588e-19
3.76981e-19
3.66901e-19
4.18443e-19
8.73767e-19
2.55126e-18
3.47793e-18
4.18329e-18
5.47231e-18
6.36008e-18
4.55321e-18
2.8152e-18
1.76117e-18
1.03407e-18
7.28563e-19
5.56881e-19
4.73411e-19
4.80359e-19
4.60085e-19
4.13602e-19
3.91757e-19
4.63115e-19
5.65312e-19
5.92652e-19
6.77752e-19
7.16857e-19
7.00712e-19
6.3511e-19
5.76198e-19
5.23071e-19
4.5399e-19
4.31697e-19
3.97942e-19
3.73399e-19
2.95582e-19
2.55406e-19
2.64604e-19
2.77806e-19
2.64637e-19
2.1795e-19
3.13477e-19
1.31701e-19
1.98362e-20
1.80446e-19
9.99198e-20
1.43582e-19
4.26401e-20
1.62047e-19
5.05122e-20
2.00204e-19
4.17943e-19
1.6399e-19
-2.52995e-19
1.74467e-19
2.31418e-19
-1.89327e-19
6.04583e-21
2.75249e-20
4.21863e-19
1.87336e-19
-9.53338e-20
-1.46115e-19
-3.05094e-19
-3.5123e-19
4.74141e-19
4.71749e-19
4.71414e-19
4.74058e-19
4.55258e-19
4.56321e-19
4.74144e-19
4.76922e-19
4.62864e-19
4.64604e-19
4.66769e-19
4.79062e-19
4.78989e-19
4.71276e-19
4.76969e-19
4.81264e-19
4.69221e-19
4.73845e-19
4.73609e-19
4.85505e-19
4.67968e-19
4.75483e-19
4.89906e-19
4.9337e-19
4.83621e-19
4.8933e-19
5.08981e-19
5.15029e-19
5.06769e-19
5.16245e-19
4.93383e-19
4.93555e-19
4.91015e-19
4.9679e-19
4.8163e-19
4.69761e-19
4.6133e-19
4.63906e-19
4.56382e-19
4.48643e-19
4.49343e-19
4.46775e-19
4.48001e-19
4.49858e-19
4.44464e-19
4.26267e-19
4.33061e-19
4.29307e-19
4.16564e-19
4.23057e-19
4.19716e-19
4.21326e-19
4.02334e-19
3.96564e-19
3.86769e-19
3.79737e-19
3.67057e-19
3.67639e-19
4.43932e-19
1.0645e-18
2.15028e-18
2.26331e-18
2.42081e-18
3.35276e-18
4.59084e-18
4.54916e-18
3.22625e-18
1.90877e-18
1.13075e-18
6.50219e-19
4.88118e-19
3.60506e-19
4.33144e-19
3.95049e-19
3.53378e-19
3.42048e-19
3.97034e-19
4.57367e-19
4.54087e-19
5.38804e-19
5.16601e-19
4.55258e-19
4.1293e-19
4.24342e-19
3.46058e-19
3.59727e-19
3.77142e-19
3.61792e-19
3.77973e-19
3.32176e-19
2.9487e-19
2.6605e-19
3.58679e-19
2.76548e-19
2.65869e-19
5.44018e-19
3.02082e-20
4.08972e-20
1.07706e-19
2.92127e-19
6.25978e-20
1.10195e-19
7.21857e-20
3.2005e-19
3.96997e-19
1.96404e-19
1.15252e-19
-1.07365e-19
3.43692e-19
2.01454e-20
1.36941e-19
3.14917e-19
1.92429e-19
-9.51245e-20
5.10805e-20
-6.53851e-20
5.44872e-20
-1.44537e-20
-3.10238e-20
5.84185e-19
5.86252e-19
5.89041e-19
5.76633e-19
5.78977e-19
5.87697e-19
6.0334e-19
5.72605e-19
5.88285e-19
6.12816e-19
6.12173e-19
6.02706e-19
5.994e-19
5.82476e-19
6.09448e-19
5.94924e-19
5.949e-19
5.88915e-19
5.86785e-19
5.62353e-19
5.825e-19
5.78834e-19
5.71093e-19
5.53604e-19
5.40567e-19
5.40075e-19
5.65972e-19
5.68001e-19
5.65159e-19
5.44953e-19
5.44333e-19
5.47779e-19
5.3471e-19
5.26437e-19
5.1093e-19
5.02053e-19
4.89689e-19
4.76936e-19
4.69272e-19
4.63384e-19
4.55186e-19
4.49898e-19
4.41538e-19
4.3595e-19
4.3676e-19
4.28688e-19
4.19268e-19
4.15014e-19
3.95436e-19
4.05936e-19
3.96943e-19
3.98288e-19
3.68303e-19
3.55944e-19
3.39633e-19
3.28871e-19
3.2104e-19
3.28318e-19
4.40347e-19
1.18303e-18
1.5693e-18
1.57509e-18
1.64188e-18
2.07875e-18
2.89246e-18
3.43153e-18
3.14644e-18
2.11108e-18
1.30517e-18
7.23052e-19
6.03222e-19
3.3024e-19
3.78697e-19
2.98448e-19
3.0478e-19
2.70851e-19
3.13325e-19
3.10802e-19
2.95336e-19
3.20708e-19
3.58734e-19
3.28141e-19
2.95671e-19
3.28496e-19
3.42e-19
3.28273e-19
3.62683e-19
3.03644e-19
3.54669e-19
3.47679e-19
2.8223e-19
2.48087e-19
3.04114e-19
9.45736e-20
3.13374e-19
5.57069e-19
3.09374e-19
-1.22872e-19
1.45542e-19
1.72068e-19
-1.42769e-19
2.98097e-19
2.27494e-19
2.13269e-19
5.46501e-19
1.0436e-19
-3.41686e-20
-7.38864e-20
4.30837e-19
2.98624e-20
3.97865e-19
1.93412e-19
2.13062e-19
-1.98273e-19
-1.29051e-19
7.74938e-20
5.7535e-20
1.47608e-20
3.89543e-20
6.61351e-19
6.66012e-19
6.76182e-19
6.57708e-19
6.59897e-19
6.70125e-19
6.73926e-19
6.54742e-19
6.73692e-19
6.60483e-19
6.65468e-19
6.70217e-19
6.66507e-19
6.61481e-19
6.6965e-19
6.41549e-19
6.32188e-19
6.31875e-19
6.2205e-19
6.23994e-19
6.35037e-19
5.71805e-19
5.48769e-19
5.34708e-19
5.23175e-19
5.13029e-19
5.44993e-19
5.28703e-19
4.91432e-19
5.02832e-19
4.94963e-19
4.86102e-19
4.68775e-19
4.65524e-19
4.54987e-19
4.55885e-19
4.31396e-19
4.22465e-19
4.17874e-19
4.09241e-19
4.06392e-19
3.93287e-19
3.76824e-19
3.81079e-19
3.72014e-19
3.70647e-19
3.67227e-19
3.63612e-19
3.35566e-19
3.37881e-19
2.98544e-19
3.03261e-19
2.81157e-19
2.72024e-19
2.62825e-19
2.49518e-19
2.52298e-19
2.61555e-19
3.91834e-19
9.62292e-19
1.09889e-18
1.16958e-18
1.16471e-18
1.38631e-18
1.84832e-18
2.24105e-18
2.39333e-18
2.08986e-18
1.46801e-18
7.64199e-19
5.72786e-19
2.97131e-19
3.19363e-19
2.62371e-19
2.83919e-19
1.74524e-19
2.08631e-19
1.94293e-19
2.17219e-19
1.96573e-19
2.59898e-19
2.81336e-19
2.4865e-19
2.59514e-19
2.65105e-19
3.58626e-19
3.93212e-19
3.54336e-19
4.28315e-19
3.98084e-19
3.17952e-19
3.24791e-19
1.81359e-19
1.21351e-19
2.82809e-19
4.1393e-19
2.96773e-19
-3.86383e-20
-1.39348e-20
8.05493e-20
-1.22984e-19
8.38289e-20
1.77351e-19
2.82899e-19
3.44196e-19
-1.28743e-19
2.76515e-20
-1.36539e-19
1.15464e-19
3.95236e-20
1.23925e-19
-2.67797e-19
-4.17576e-20
-1.86561e-19
-6.04144e-19
-7.67167e-19
-7.57652e-19
-4.30363e-19
-3.71167e-19
6.48351e-19
6.55363e-19
6.67316e-19
6.70136e-19
6.59179e-19
6.54637e-19
5.97131e-19
6.48149e-19
6.78881e-19
6.48265e-19
6.42801e-19
6.2936e-19
6.21002e-19
6.72547e-19
6.29564e-19
6.22909e-19
5.82167e-19
5.77456e-19
5.97167e-19
5.67027e-19
5.18526e-19
4.93812e-19
4.85093e-19
4.69698e-19
4.7464e-19
4.49121e-19
4.18994e-19
3.61908e-19
3.37079e-19
3.39393e-19
3.48789e-19
3.33446e-19
3.27163e-19
3.06952e-19
3.0149e-19
2.72358e-19
2.82813e-19
2.73319e-19
2.66664e-19
2.6028e-19
2.41462e-19
2.46848e-19
2.45899e-19
2.43564e-19
2.24702e-19
2.38272e-19
2.1533e-19
2.07791e-19
2.07332e-19
1.90065e-19
1.72099e-19
1.60729e-19
1.64136e-19
1.57057e-19
1.49832e-19
1.43878e-19
1.53099e-19
1.62037e-19
2.77848e-19
5.45518e-19
4.87593e-19
4.75106e-19
5.51563e-19
7.56477e-19
1.17212e-18
1.44757e-18
1.68516e-18
1.60295e-18
1.16522e-18
6.96072e-19
4.47138e-19
2.70036e-19
2.58122e-19
2.40741e-19
2.37475e-19
1.59022e-19
1.6055e-19
1.82548e-19
1.8726e-19
1.55822e-19
2.29137e-19
2.21112e-19
2.71905e-19
1.97963e-19
2.10694e-19
2.88818e-19
3.32972e-19
4.16036e-19
4.50238e-19
4.5702e-19
4.01749e-19
2.6542e-19
2.82138e-19
1.79727e-19
-1.88591e-20
3.89668e-19
3.68036e-19
1.87569e-19
1.13435e-19
-3.82593e-20
-1.0187e-19
-2.07379e-19
7.11299e-20
4.47735e-19
1.72381e-19
2.99914e-21
-2.55212e-19
-4.65194e-19
-9.47854e-20
-6.42553e-19
-3.5975e-19
-1.0037e-18
-8.95657e-19
-1.28963e-18
-1.16908e-18
-1.2266e-18
-1.21513e-18
-1.17632e-18
-1.26282e-18
5.14392e-19
5.01617e-19
4.82238e-19
4.93879e-19
4.98417e-19
4.9767e-19
5.28256e-19
5.37018e-19
4.50142e-19
4.71396e-19
4.7762e-19
4.60887e-19
4.636e-19
4.59477e-19
4.37441e-19
4.53045e-19
4.71557e-19
4.36328e-19
3.99503e-19
3.93375e-19
3.80275e-19
4.10994e-19
3.82022e-19
3.74685e-19
3.70501e-19
3.38437e-19
2.83396e-19
2.48249e-19
2.62162e-19
2.36233e-19
2.24718e-19
1.8538e-19
1.73433e-19
1.62305e-19
1.3523e-19
1.37234e-19
1.38053e-19
1.28272e-19
1.30985e-19
1.04322e-19
1.24266e-19
1.12673e-19
1.10942e-19
1.06233e-19
1.02402e-19
1.02967e-19
8.73608e-20
8.0982e-20
7.19725e-20
6.64393e-20
6.16306e-20
6.35855e-20
6.3212e-20
6.15646e-20
6.11299e-20
6.23118e-20
5.72439e-20
6.88353e-20
1.40512e-19
2.57261e-19
2.98329e-19
2.91487e-19
4.22416e-19
5.94813e-19
6.8033e-19
8.10457e-19
1.11374e-18
1.08663e-18
8.33393e-19
5.63367e-19
3.57885e-19
2.12354e-19
1.7181e-19
1.64114e-19
1.59041e-19
9.25566e-20
1.35598e-19
1.5154e-19
1.82564e-19
2.02299e-19
1.8677e-19
1.45659e-19
2.67788e-19
3.09712e-19
3.42285e-19
4.17058e-19
4.96926e-19
5.08221e-19
4.57495e-19
4.09132e-19
3.69989e-19
2.66466e-19
3.29908e-19
2.04341e-19
2.84253e-19
6.52866e-19
1.99805e-19
-2.00727e-20
3.91168e-19
-5.16699e-21
-1.95281e-19
-3.04779e-19
-9.59327e-21
-1.05625e-19
-1.56412e-19
-2.15475e-19
-5.63028e-19
-6.23473e-19
-4.3758e-19
-7.20588e-19
-8.09896e-19
-1.04997e-18
-1.00873e-18
-1.4058e-18
-1.42375e-18
-1.28393e-18
-1.45252e-18
-1.675e-18
-1.65654e-18
2.29327e-19
2.22841e-19
2.04585e-19
2.18598e-19
2.48802e-19
2.59032e-19
2.72878e-19
2.80613e-19
2.73925e-19
2.55377e-19
1.73752e-19
2.21929e-19
2.63755e-19
2.23557e-19
2.46924e-19
2.47565e-19
2.55538e-19
2.1221e-19
2.20165e-19
2.74259e-19
2.85481e-19
2.83829e-19
2.83213e-19
2.93112e-19
2.50838e-19
2.77455e-19
2.52175e-19
2.57776e-19
2.19342e-19
1.84848e-19
1.94798e-19
1.56314e-19
1.7002e-19
1.31185e-19
1.22779e-19
9.38618e-20
1.08103e-19
7.71759e-20
8.33692e-20
5.49178e-20
7.77588e-20
4.74185e-20
6.26099e-20
3.03849e-20
5.13135e-20
4.39345e-20
3.16942e-20
3.0651e-20
2.67704e-20
2.6811e-20
1.29022e-20
3.26585e-20
2.59104e-20
3.84719e-20
4.11667e-20
4.24486e-20
4.2019e-20
5.0041e-20
1.11357e-19
1.19204e-19
1.43068e-19
1.8421e-19
2.26424e-19
2.62356e-19
4.14153e-19
5.59165e-19
7.16286e-19
6.88843e-19
5.74914e-19
4.17286e-19
3.26991e-19
2.85862e-19
1.54152e-19
1.98935e-19
1.4779e-19
1.04704e-19
1.91266e-19
2.50115e-19
1.67013e-19
2.30679e-19
2.53176e-19
3.05237e-19
2.80854e-19
3.48065e-19
4.78752e-19
5.08392e-19
4.5982e-19
5.0686e-19
5.56379e-19
5.4083e-19
4.91118e-19
3.48676e-19
4.28319e-19
6.94171e-19
1.75862e-19
3.96179e-19
2.00759e-19
4.3973e-19
1.6472e-19
-2.5864e-19
1.42963e-19
-1.3328e-19
1.95884e-20
-1.12821e-19
-6.97806e-19
-3.20975e-19
-3.52429e-19
-5.73036e-19
-1.12091e-18
-1.00356e-18
-9.23033e-19
-1.19019e-18
-1.33929e-18
-8.98363e-19
-6.56166e-19
-9.25745e-19
-1.12327e-18
-9.2215e-19
-8.58062e-19
3.35665e-20
4.43072e-20
2.46735e-20
-1.67866e-20
-7.51269e-20
-6.50067e-20
-4.5513e-20
-4.41711e-20
-2.34603e-21
1.44222e-20
3.43546e-20
3.35649e-20
4.91299e-20
9.62695e-20
5.90198e-20
1.01336e-19
9.79729e-20
1.85786e-19
2.15103e-19
1.75578e-19
1.42752e-19
2.01541e-19
2.21361e-19
2.64201e-19
2.4855e-19
2.57997e-19
2.75699e-19
2.70616e-19
2.54323e-19
2.63814e-19
2.94511e-19
2.40776e-19
2.20872e-19
1.95568e-19
1.86074e-19
1.61964e-19
1.73199e-19
1.32358e-19
1.33505e-19
1.08337e-19
1.14431e-19
9.9373e-20
9.65457e-20
9.38598e-20
8.5468e-20
7.90842e-20
7.51912e-20
7.24386e-20
7.21859e-20
7.13526e-20
6.68792e-20
8.063e-20
6.81824e-20
6.98007e-20
6.38277e-20
6.32498e-20
6.63146e-20
1.03735e-19
1.82128e-19
1.34434e-19
1.25922e-19
1.01404e-19
1.01635e-19
1.00093e-19
1.74873e-19
2.86739e-19
3.63819e-19
4.17828e-19
3.4566e-19
2.94653e-19
2.61631e-19
2.53978e-19
2.09126e-19
2.08411e-19
2.76309e-19
1.57865e-19
3.07205e-19
2.34258e-19
1.92943e-19
1.71705e-19
1.24919e-19
2.60924e-19
4.46445e-19
3.76285e-19
4.38063e-19
4.03288e-19
4.75567e-19
6.01415e-19
6.74686e-19
6.81139e-19
5.75311e-19
4.32806e-19
6.96576e-19
3.00012e-19
5.80888e-19
3.53228e-19
7.6038e-20
1.22134e-18
5.48674e-19
-6.42583e-19
3.23236e-20
-5.5566e-19
-1.92231e-19
1.00321e-20
-7.18184e-19
-5.95825e-19
-5.31159e-19
-4.47429e-19
-1.55196e-18
-1.6742e-18
-1.32308e-18
-1.08576e-18
-1.14905e-18
-1.43732e-18
-1.46952e-18
-1.56142e-18
-1.5441e-18
-1.69431e-18
-1.84037e-18
-2.20725e-19
-2.0945e-19
-1.71514e-19
-1.96167e-19
-1.14494e-19
-1.36089e-19
-1.00145e-19
-1.12737e-19
-1.26996e-19
-1.24991e-19
-7.60378e-20
-7.01677e-20
-8.0399e-20
-3.47175e-20
-6.63998e-21
3.25568e-20
6.24238e-20
1.4394e-19
1.33321e-19
1.89168e-19
1.74431e-19
2.37603e-19
2.28923e-19
2.29303e-19
2.3565e-19
2.83881e-19
2.6072e-19
2.69214e-19
2.54247e-19
2.5303e-19
2.69485e-19
2.13484e-19
2.03844e-19
2.21176e-19
2.2522e-19
1.94985e-19
1.89287e-19
1.62252e-19
1.73256e-19
1.6161e-19
1.5628e-19
1.47295e-19
1.44526e-19
1.50396e-19
1.29639e-19
1.38156e-19
1.3233e-19
1.28187e-19
1.12319e-19
1.18364e-19
1.17825e-19
1.10756e-19
9.63776e-20
9.24325e-20
8.58224e-20
9.01648e-20
1.03646e-19
2.41449e-19
2.60443e-19
1.74047e-19
1.30227e-19
7.22802e-20
3.89669e-20
2.15468e-20
6.99412e-20
1.5621e-19
1.9408e-19
2.69716e-19
2.47317e-19
2.02822e-19
2.38054e-19
2.47569e-19
2.43211e-19
2.37799e-19
3.27909e-19
2.96133e-19
3.00906e-19
2.64023e-19
2.19194e-19
1.82035e-19
1.48817e-19
4.10603e-19
3.71764e-19
4.43054e-19
5.86746e-19
5.42812e-19
5.62305e-19
7.87376e-19
8.63282e-19
8.01423e-19
5.40605e-19
6.68122e-19
1.16078e-18
6.50677e-19
7.09003e-19
6.86897e-19
3.60165e-19
1.01175e-18
5.7498e-19
1.94019e-19
8.89533e-20
1.37427e-20
-2.6555e-19
2.55836e-19
-6.43676e-19
-8.19662e-19
-4.01866e-19
-1.26748e-18
-1.05177e-18
-1.0125e-18
-1.36715e-18
-7.67467e-19
-2.28029e-19
3.50873e-20
-2.98204e-19
-1.94046e-19
-1.1233e-19
-1.65367e-19
-1.52316e-19
-7.12614e-20
-8.75746e-20
-1.13865e-19
-1.60764e-19
-9.55751e-20
-6.2893e-20
-9.79795e-20
-1.05602e-19
-1.17771e-19
-8.50933e-20
-9.91669e-20
-5.26634e-20
-8.77173e-21
-1.47022e-20
-1.8143e-21
1.83809e-21
4.77044e-20
2.94854e-20
6.06689e-20
3.22466e-20
8.60583e-20
9.63681e-20
4.97848e-20
7.28963e-20
7.76546e-20
7.23804e-20
7.0884e-20
9.25071e-20
1.28385e-19
1.37424e-19
7.80122e-20
9.04244e-20
1.31445e-19
1.31419e-19
1.32842e-19
1.20905e-19
1.40099e-19
1.31952e-19
1.61344e-19
1.26635e-19
1.61897e-19
1.27832e-19
1.66531e-19
1.23266e-19
1.54819e-19
1.42189e-19
1.38453e-19
1.20403e-19
1.18163e-19
1.07978e-19
1.01595e-19
1.02633e-19
9.31851e-20
9.61433e-20
9.40736e-20
1.00004e-19
1.56207e-19
3.92249e-19
3.2179e-19
2.38931e-19
1.60054e-19
6.73693e-20
6.74113e-21
-7.47955e-20
-3.61743e-20
2.53736e-20
1.08741e-19
1.64958e-19
2.01585e-19
1.91133e-19
1.54619e-19
3.11484e-19
1.66965e-19
2.05179e-19
3.42317e-19
2.06721e-19
4.91187e-19
2.91658e-19
6.52294e-20
1.99791e-19
1.94839e-19
2.04974e-19
2.64638e-19
4.14109e-19
2.965e-19
4.91581e-19
5.1587e-19
5.8928e-19
6.01965e-19
6.32948e-19
6.38845e-19
7.26649e-19
8.21718e-19
8.576e-19
1.30758e-18
1.47073e-18
6.43825e-19
1.42766e-18
8.87947e-19
1.51434e-18
-4.16231e-20
-4.3268e-20
2.50767e-19
-1.20417e-19
5.25102e-19
-2.90209e-19
-2.77636e-19
-1.00789e-18
-1.09318e-18
-3.64364e-19
2.44424e-19
6.27396e-21
2.26709e-19
6.16279e-19
8.03137e-19
1.2426e-18
1.16375e-18
1.12787e-18
1.17334e-18
2.4662e-20
3.09607e-20
3.51681e-20
3.28272e-20
5.21901e-21
3.54703e-20
-3.9912e-20
-1.09439e-19
-9.51568e-20
-2.26544e-20
-9.62366e-21
8.58653e-21
-6.97232e-20
-2.83123e-20
-4.41627e-20
-1.00899e-19
-8.34392e-20
-1.99264e-19
-1.73773e-19
-1.7369e-19
-2.07111e-19
-2.80609e-19
-1.48892e-19
-1.92881e-19
-1.54403e-19
-1.68573e-19
-1.14212e-19
-1.44653e-19
-1.01657e-19
-1.11877e-19
-8.69045e-20
-4.37699e-21
-8.0628e-21
-1.53342e-20
-2.18821e-20
-2.19041e-20
-5.30223e-21
-1.88203e-20
2.45635e-20
1.57993e-21
2.85812e-20
3.40885e-20
6.22937e-20
4.368e-20
6.41421e-20
6.86109e-20
5.85606e-20
6.10613e-20
7.07688e-20
7.7455e-20
7.95002e-20
7.98807e-20
7.47116e-20
7.37329e-20
7.69987e-20
9.8079e-20
2.1331e-19
4.45594e-19
4.12076e-19
3.33911e-19
1.96247e-19
8.18804e-20
2.16377e-20
-6.35602e-20
-6.02839e-20
8.42337e-20
4.99437e-20
1.70332e-19
6.88549e-20
9.78399e-20
1.73718e-19
2.49037e-19
9.56634e-20
1.52439e-19
1.96873e-19
1.8733e-19
2.73222e-19
2.03326e-19
2.94795e-19
2.64822e-19
1.48514e-19
2.10402e-19
2.23041e-19
2.68879e-19
2.71286e-19
1.09461e-19
1.69799e-19
1.65637e-19
5.98707e-19
7.09011e-19
5.54156e-19
5.17574e-19
7.50106e-19
9.81904e-19
1.21235e-18
1.10433e-18
3.07437e-19
1.65466e-18
1.02149e-18
1.49102e-18
1.02514e-18
5.81607e-19
7.03852e-19
1.15707e-18
7.61699e-19
2.95122e-19
2.53364e-19
5.44955e-19
-6.91416e-19
2.51503e-20
3.44187e-19
8.57678e-19
1.2614e-18
1.38266e-18
1.60961e-18
1.17261e-18
1.19322e-18
1.30472e-18
1.31789e-18
1.47612e-20
6.82343e-20
1.46056e-19
3.01604e-19
2.16395e-19
4.53593e-20
1.27662e-19
1.00321e-19
9.32399e-20
4.63191e-20
2.89989e-20
-1.4582e-19
-8.94128e-20
-3.38644e-19
-2.72943e-19
-3.00122e-19
-3.70674e-19
-3.38594e-19
-4.00752e-19
-3.8928e-19
-3.27813e-19
-3.34741e-19
-3.59967e-19
-3.12833e-19
-3.2335e-19
-2.75969e-19
-2.99097e-19
-2.55669e-19
-2.53349e-19
-2.47777e-19
-2.18597e-19
-1.86563e-19
-2.10068e-19
-1.41152e-19
-1.31011e-19
-7.13899e-20
-5.67613e-20
-4.56338e-20
-4.0929e-20
-4.99983e-20
-7.56789e-21
-1.86097e-20
-1.20393e-20
2.91211e-21
4.27656e-21
7.47981e-21
3.01764e-20
2.68533e-20