/*--------------------------------*- C++ -*----------------------------------*\
| =========                 |                                                 |
| \\      /  F ield         | OpenFOAM: The Open Source CFD Toolbox           |
|  \\    /   O peration     | Version:  2.2.x                                 |
|   \\  /    A nd           | Web:      www.OpenFOAM.org                      |
|    \\/     M anipulation  |                                                 |
\*---------------------------------------------------------------------------*/
FoamFile
{
    version     2.0;
    format      ascii;
    class       surfaceScalarField;
    location    "0.55";
    object      phi;
}
// * * * * * * * * * * * * * * * * * * * * * * * * * * * * * * * * * * * * * //

dimensions      [1 0 -1 0 0 0 0];

internalField   nonuniform List<scalar> 
28084
(
0.000746224
0.000742989
0.000740214
0.000737879
0.000735964
0.000734447
0.000733303
0.00073251
0.000732039
0.000731867
0.000731964
0.000732305
0.000732862
0.000733609
0.000734518
0.000735564
0.000736722
0.000737968
0.000739278
0.000740632
0.000742008
0.000743388
0.000744754
0.000746088
0.00074738
0.000748609
0.000749767
0.000750856
0.000751831
0.000752699
0.00075349
0.00075417
0.000754685
0.00075509
0.000755397
0.000755552
0.000755525
0.000755396
0.000755136
0.000754713
0.000754097
0.000753344
0.000752486
0.000751463
0.000750268
0.000759492
0.000769036
0.00077887
0.000788962
0.000799298
0.000809811
0.00082051
0.000831343
0.000842058
0.000852559
0.000862857
0.000873098
0.000882883
0.00089217
0.000877324
0.000827193
0.000811027
0.000836043
0.00087742
0.000934147
0.000990467
0.00103874
0.00108159
0.00111658
0.00114588
0.00116874
0.00118728
0.0012032
0.0012145
0.00122307
0.00122767
0.00122905
0.00122912
0.00122935
0.00122979
0.00123069
0.00123101
0.0012311
0.00122967
0.00122674
0.00122411
0.00122118
0.00121576
0.00120961
0.00119457
0.0011568
0.00106407
0.000944173
0.000841711
0.000764714
0.000703607
0.000653561
0.000611116
0.000573446
0.000539435
0.000508965
0.000481619
0.000456388
0.000433093
0.000411402
0.000390694
0.000370759
0.000351248
0.000331426
0.000310875
0.000288834
0.000265016
0.00023819
0.000208488
0.00017448
0.000137897
9.72579e-05
5.55576e-05
3.71189e-06
3.2351e-06
0.000749741
2.7757e-06
0.000748785
2.33535e-06
0.00074826
1.91573e-06
0.000748149
1.51832e-06
0.000748432
1.14448e-06
0.000749087
7.95412e-07
0.000750092
4.72055e-07
0.000751421
1.75196e-07
0.000753048
-9.47032e-08
0.000754945
-3.37371e-07
0.000757083
-5.52783e-07
0.000759432
-7.41336e-07
0.000761965
-9.02912e-07
0.000764651
-1.0395e-06
0.000767461
-1.14994e-06
0.000770368
-1.23701e-06
0.000773343
-1.30123e-06
0.000776361
-1.34339e-06
0.000779396
-1.36542e-06
0.000782424
-1.36785e-06
0.000785424
-1.35341e-06
0.000788374
-1.32185e-06
0.000791256
-1.27727e-06
0.000794052
-1.21755e-06
0.000796747
-1.14609e-06
0.000799325
-1.06449e-06
0.000801773
-9.71313e-07
0.000804094
-8.71767e-07
0.000806245
-7.62183e-07
0.00080823
-6.48602e-07
0.000810082
-5.29446e-07
0.000811767
-4.03168e-07
0.000813233
-2.67516e-07
0.000814532
-1.37429e-07
0.000815674
-3.80984e-09
0.000816619
1.39593e-07
0.000817335
2.97257e-07
0.000817887
4.35696e-07
0.00081826
5.80393e-07
0.000818427
7.22692e-07
0.000818364
8.84265e-07
0.000818097
1.05884e-06
0.000817677
1.21943e-06
0.000817072
-9.22342e-06
0.000816249
-9.576e-06
0.000824985
-9.89296e-06
0.000834022
-1.01338e-05
0.000843316
-1.03334e-05
0.000852851
-1.04965e-05
0.000862589
-1.06086e-05
0.000872435
-1.0664e-05
0.000882429
-1.06974e-05
0.000892503
-1.06046e-05
0.000902539
-1.04576e-05
0.000912399
-1.01904e-05
0.000922309
-9.97524e-06
0.000931986
-8.93742e-06
0.000940897
4.66235e-07
0.00094945
3.25575e-05
0.000946613
1.54046e-05
0.000878383
-2.25528e-05
0.000870557
-3.82175e-05
0.000904942
-5.43366e-05
0.000957926
-5.51147e-05
0.0010179
-4.67228e-05
0.00107825
-4.06032e-05
0.00112854
-3.58884e-05
0.00117274
-2.99103e-05
0.00120454
-2.35706e-05
0.00122677
-2.03724e-05
0.00124486
-1.5094e-05
0.00125814
-1.02711e-05
0.00126813
-6.96495e-06
0.00127622
-4.83452e-06
0.00128256
-2.96832e-06
0.00128621
-2.07496e-06
0.00128696
-1.62502e-06
0.00128602
-1.37167e-06
0.00128518
-7.90824e-07
0.00128464
4.21608e-07
0.00128489
1.16102e-06
0.00128361
1.83794e-06
0.00128259
2.45791e-06
0.00128035
2.29842e-06
0.00127611
2.59045e-06
0.00127219
4.63834e-06
0.00126704
5.91325e-06
0.00125898
1.48402e-05
0.00125074
4.11684e-05
0.00123627
9.81205e-05
0.00119801
0.000124511
0.00111702
0.000104275
0.00101701
7.72366e-05
0.000912877
6.10156e-05
0.00082186
5.0561e-05
0.000748434
4.32511e-05
0.000688682
3.76715e-05
0.000638823
3.32958e-05
0.000595083
2.99256e-05
0.000555443
2.71957e-05
0.000519601
2.52545e-05
0.000487735
2.36837e-05
0.000459104
2.24173e-05
0.000433319
2.15151e-05
0.00040976
2.0666e-05
0.000387606
1.98868e-05
0.000366537
1.99855e-05
0.000346003
2.06811e-05
0.000325151
2.2258e-05
0.000303627
2.41957e-05
0.000280645
2.73344e-05
0.000255971
3.00724e-05
0.000228292
3.42612e-05
0.000198563
3.63878e-05
0.000165461
3.99012e-05
0.00012992
4.03895e-05
9.00578e-05
5.36783e-05
4.78927e-05
5.11202e-06
4.19069e-06
0.000754435
3.30112e-06
0.000755731
2.44746e-06
0.000757428
1.63378e-06
0.000759512
8.63768e-07
0.000761966
1.40812e-07
0.000764769
-5.32164e-07
0.000767897
-1.15273e-06
0.000771324
-1.71893e-06
0.000775024
-2.22947e-06
0.000778967
-2.6835e-06
0.000783123
-3.08081e-06
0.000787459
-3.42193e-06
0.000791946
-3.70708e-06
0.00079655
-3.93891e-06
0.000801241
-4.11714e-06
0.000805988
-4.24555e-06
0.000810762
-4.32606e-06
0.000815532
-4.3606e-06
0.000820273
-4.35322e-06
0.000824958
-4.30553e-06
0.000829564
-4.22262e-06
0.000834068
-4.10394e-06
0.000838449
-3.9581e-06
0.00084269
-3.78176e-06
0.000846774
-3.58096e-06
0.000850685
-3.36163e-06
0.00085441
-3.11671e-06
0.000857946
-2.85979e-06
0.000861261
-2.58638e-06
0.000864358
-2.30127e-06
0.000867256
-2.00436e-06
0.000869933
-1.69825e-06
0.000872342
-1.3793e-06
0.000874523
-1.06181e-06
0.000876491
-7.40285e-07
0.000878218
-4.04223e-07
0.00087967
-4.89489e-08
0.000880892
2.8421e-07
0.000881894
6.21606e-07
0.000882639
9.65016e-07
0.000883126
1.32476e-06
0.000883356
1.70252e-06
0.000883371
2.06216e-06
0.000883147
-1.79594e-05
0.000882676
-1.86405e-05
0.000890911
-1.92336e-05
0.000899447
-1.972e-05
0.000908211
-2.00897e-05
0.000917176
-2.03717e-05
0.000926292
-2.05608e-05
0.000935519
-2.06574e-05
0.000944873
-2.06493e-05
0.000954351
-2.04964e-05
0.000963758
-2.02317e-05
0.000973048
-1.98349e-05
0.0009821
-1.90983e-05
0.000990886
-1.74589e-05
0.000998764
-5.12006e-06
0.00100664
7.62043e-05
0.00100979
2.08045e-05
0.000946954
-5.42498e-05
0.000945068
-8.73448e-05
0.000995559
-0.000112653
0.00105509
-0.000115156
0.00111835
-9.62544e-05
0.00117567
-7.89432e-05
0.00122353
-6.7026e-05
0.00127301
-5.36716e-05
0.00130757
-4.11039e-05
0.00132705
-3.49253e-05
0.00134744
-2.53936e-05
0.00135718
-1.81616e-05
0.00136206
-1.22201e-05
0.00136475
-8.84722e-06
0.00136561
-5.20145e-06
0.0013652
-3.23266e-06
0.0013632
-2.44855e-06
0.00135989
-1.90743e-06
0.00135696
-6.53561e-07
0.00135521
1.98851e-06
0.00135398
2.98755e-06
0.00135073
4.52442e-06
0.00134842
6.0661e-06
0.00134505
5.55173e-06
0.00133866
7.72604e-06
0.00133137
1.20244e-05
0.00132333
1.43072e-05
0.00131142
2.94935e-05
0.00129285
8.3125e-05
0.00125864
0.000184334
0.00118003
0.000228786
0.0010902
0.000210194
0.000998255
0.000168298
0.000909366
0.000134135
0.000826119
0.000110607
0.000754431
9.37572e-05
0.000694751
8.1323e-05
0.000643737
7.21763e-05
0.00059833
6.52212e-05
0.00055749
5.89637e-05
0.000521095
5.39809e-05
0.000488691
4.99073e-05
0.000459143
4.67412e-05
0.0004322
4.44938e-05
0.000407335
4.24513e-05
0.000383881
4.07709e-05
0.00036143
4.09916e-05
0.000339349
4.2356e-05
0.000316894
4.54809e-05
0.00029394
4.92429e-05
0.000269877
5.55073e-05
0.000244764
6.0199e-05
0.000217083
6.76258e-05
0.000187831
7.16878e-05
0.000155733
7.89305e-05
0.000121453
8.12226e-05
8.34435e-05
9.97118e-05
4.37619e-05
4.23052e-06
2.89588e-06
0.000760309
1.60444e-06
0.000763822
3.63648e-07
0.000767709
-8.19317e-07
0.000771959
-1.93787e-06
0.000776554
-2.98594e-06
0.000781475
-3.95831e-06
0.000786697
-4.85057e-06
0.000792196
-5.65918e-06
0.000797942
-6.38164e-06
0.000803905
-7.01625e-06
0.000810052
-7.56252e-06
0.00081635
-8.02078e-06
0.000822766
-8.39167e-06
0.000829264
-8.67837e-06
0.000835813
-8.88167e-06
0.000842377
-9.00653e-06
0.000848926
-9.05615e-06
0.000855427
-9.03401e-06
0.000861853
-8.9464e-06
0.000868174
-8.79653e-06
0.000874366
-8.5908e-06
0.000880404
-8.32993e-06
0.000886266
-8.02707e-06
0.000891934
-7.67798e-06
0.00089739
-7.29151e-06
0.000902616
-6.87743e-06
0.000907602
-6.42328e-06
0.000912337
-5.9522e-06
0.000916806
-5.46195e-06
0.000921008
-4.94745e-06
0.000924931
-4.41649e-06
0.000928574
-3.87624e-06
0.000931919
-3.32436e-06
0.000934981
-2.76519e-06
0.000937766
-2.1979e-06
0.000940257
-1.62678e-06
0.000942435
-1.03281e-06
0.000944325
-4.45164e-07
0.00094594
1.30345e-07
0.000947255
7.1959e-07
0.000948274
1.3187e-06
0.000949008
1.92971e-06
0.000949454
2.54895e-06
0.000949604
-2.61794e-05
0.000949473
-2.71625e-05
0.000957216
-2.80092e-05
0.000965248
-2.87222e-05
0.000973499
-2.92724e-05
0.000981902
-2.9635e-05
0.000990353
-2.99002e-05
0.000999024
-3.00254e-05
0.00100783
-3.0002e-05
0.00101664
-2.97896e-05
0.00102541
-2.9355e-05
0.00103402
-2.86407e-05
0.00104234
-2.74001e-05
0.00105034
-2.51541e-05
0.0010582
-8.36382e-06
0.00106648
0.000105366
0.00107363
1.99618e-05
0.00104436
-0.000102674
0.00104833
-0.000144057
0.00112243
-0.000175093
0.00120643
-0.000173782
0.00128159
-0.000143747
0.00133387
-0.000120117
0.00137565
-0.00010049
0.00142128
-7.49783e-05
0.00144633
-5.9316e-05
0.00146005
-4.52042e-05
0.00147646
-3.13792e-05
0.00147805
-2.17266e-05
0.0014788
-1.37569e-05
0.00147527
-9.16473e-06
0.00146975
-4.68841e-06
0.00146483
-1.85529e-06
0.00145992
-1.15072e-06
0.00145483
-1.12638e-06
0.0014502
8.72553e-07
0.00144564
5.16184e-06
0.00144134
6.15442e-06
0.00143512
8.624e-06
0.00142925
1.20416e-05
0.00142237
1.18917e-05
0.00141174
1.62914e-05
0.00139908
2.34381e-05
0.00138396
3.41939e-05
0.00136322
6.52966e-05
0.00131985
0.000165789
0.00123841
0.00027864
0.00112074
0.000323505
0.00102636
0.000300914
0.000951787
0.000251831
0.00088032
0.000205759
0.000807696
0.000170873
0.000742578
0.000145342
0.000686783
0.000126508
0.000638675
0.000112184
0.000595615
0.000101076
0.000556595
9.12949e-05
0.000521193
8.36881e-05
0.000489164
7.73936e-05
0.000459552
7.24766e-05
0.000432156
6.89151e-05
0.000406423
6.56622e-05
0.000381856
6.31527e-05
0.000358131
6.35658e-05
0.000334599
6.54605e-05
0.000310563
6.97948e-05
0.000286075
7.47275e-05
0.000260657
8.36725e-05
0.000234494
8.98318e-05
0.000206659
9.99822e-05
0.000177645
0.000105711
0.000146439
0.000116069
0.000113554
0.000119568
7.77095e-05
0.000141614
4.04086e-05
1.10113e-06
-6.16674e-07
0.000767362
-2.28267e-06
0.000773057
-3.88536e-06
0.000779099
-5.4137e-06
0.00078548
-6.85748e-06
0.000792183
-8.2074e-06
0.000799189
-9.45535e-06
0.000806475
-1.05944e-05
0.000814013
-1.16192e-05
0.000821775
-1.25254e-05
0.000829728
-1.33104e-05
0.000837837
-1.39732e-05
0.000846068
-1.45136e-05
0.000854385
-1.49332e-05
0.000862751
-1.52348e-05
0.00087113
-1.54213e-05
0.000879486
-1.54983e-05
0.000887784
-1.54704e-05
0.000895992
-1.53435e-05
0.000904078
-1.51251e-05
0.000912012
-1.48207e-05
0.000919767
-1.44389e-05
0.000927317
-1.39823e-05
0.000934639
-1.34668e-05
0.000941713
-1.2889e-05
0.00094852
-1.22618e-05
0.000955044
-1.15943e-05
0.000961273
-1.0879e-05
0.000967189
-1.0138e-05
0.000972792
-9.37003e-06
0.000978081
-8.57123e-06
0.000983009
-7.75326e-06
0.000987602
-6.92867e-06
0.000991877
-6.09185e-06
0.000995823
-5.23201e-06
0.000999397
-4.37226e-06
0.00100263
-3.51613e-06
0.00100553
-2.63856e-06
0.00100809
-1.75115e-06
0.00101032
-8.77042e-07
0.00101218
-8.74698e-09
0.00101373
8.71792e-07
0.00101496
1.76071e-06
0.00101585
2.66762e-06
0.00101638
-3.38941e-05
0.00101657
-3.51522e-05
0.0010238
-3.62343e-05
0.00103132
-3.71337e-05
0.00103904
-3.78527e-05
0.00104687
-3.83276e-05
0.00105465
-3.86242e-05
0.00106269
-3.87905e-05
0.00107092
-3.86987e-05
0.00107918
-3.84237e-05
0.00108731
-3.78621e-05
0.00109526
-3.68491e-05
0.00110264
-3.55036e-05
0.00110988
-3.33246e-05
0.00111778
-1.50295e-05
0.00112597
0.000111676
0.00114177
9.30128e-06
0.00113142
-0.000176383
0.00120419
-0.000225725
0.00132162
-0.000249029
0.00140487
-0.000228751
0.00145886
-0.000185558
0.00150179
-0.000156627
0.00154155
-0.000125401
0.00157434
-9.00766e-05
0.00158524
-6.98996e-05
0.00159649
-4.72588e-05
0.00160737
-3.14539e-05
0.00159996
-1.90156e-05
0.00159645
-1.12056e-05
0.00159027
-5.8153e-06
0.0015798
-9.56238e-07
0.00157105
1.71541e-06
0.00156362
1.7619e-06
0.00155649
2.09412e-06
0.00154806
5.23586e-06
0.00153801
1.13732e-05
0.00153015
1.26652e-05
0.00152093
1.61407e-05
0.00150925
2.31588e-05
0.0014954
2.36381e-05
0.00148075
3.29572e-05
0.00145916
4.38354e-05
0.00143041
8.08405e-05
0.0013784
0.000149804
0.00129232
0.000286585
0.00114813
0.000375992
0.00103412
0.000399479
0.000957612
0.000373332
0.000900245
0.000325013
0.000848851
0.000270934
0.000795147
0.000227052
0.000743249
0.000193806
0.000694576
0.00016925
0.000649011
0.000150415
0.000605977
0.000136024
0.000566019
0.000123384
0.000529413
0.000113706
0.000495976
0.000105534
0.000464924
9.91765e-05
0.000436185
9.44487e-05
0.000409063
9.00622e-05
0.000383181
8.69821e-05
0.000358156
8.77572e-05
0.000333258
9.01574e-05
0.000307844
9.54882e-05
0.00028193
0.000101206
0.000254934
0.000111902
0.000227625
0.000119214
0.000199313
0.000131426
0.000170115
0.000138398
0.000139347
0.00015103
0.000107521
0.000155523
7.34798e-05
0.000180278
3.78889e-05
-4.23858e-06
-6.31059e-06
0.0007756
-8.32493e-06
0.000783436
-1.02652e-05
0.000791595
-1.21159e-05
0.000800068
-1.38625e-05
0.000808842
-1.54918e-05
0.000817897
-1.69922e-05
0.00082721
-1.83539e-05
0.000836754
-1.95691e-05
0.000846497
-2.06316e-05
0.000856407
-2.15375e-05
0.000866446
-2.2285e-05
0.000876579
-2.28734e-05
0.000886766
-2.33049e-05
0.000896968
-2.35823e-05
0.000907147
-2.37106e-05
0.000917265
-2.3696e-05
0.000927285
-2.35447e-05
0.000937172
-2.32651e-05
0.00094689
-2.28662e-05
0.000956411
-2.2356e-05
0.000965703
-2.17458e-05
0.000974741
-2.104e-05
0.000983498
-2.02578e-05
0.000991955
-1.93967e-05
0.00100009
-1.84735e-05
0.00100789
-1.74946e-05
0.00101534
-1.64649e-05
0.00102242
-1.53974e-05
0.00102914
-1.42954e-05
0.00103549
-1.31601e-05
0.00104141
-1.20114e-05
0.00104695
-1.0843e-05
0.00105214
-9.65835e-06
0.00105693
-8.45458e-06
0.00106128
-7.26155e-06
0.00106526
-6.06417e-06
0.00106886
-4.8481e-06
0.0010721
-3.62634e-06
0.00107492
-2.41243e-06
0.0010773
-1.21454e-06
0.00107938
-4.46472e-09
0.0010811
1.20875e-06
0.00108243
2.43381e-06
0.00108335
-4.11053e-05
0.00108383
-4.26187e-05
0.00109054
-4.3903e-05
0.00109752
-4.49608e-05
0.00110469
-4.57955e-05
0.00111191
-4.63858e-05
0.00111914
-4.67767e-05
0.00112656
-4.68777e-05
0.00113429
-4.67478e-05
0.00114196
-4.63676e-05
0.00114948
-4.56154e-05
0.00115656
-4.44565e-05
0.00116339
-4.32211e-05
0.00117082
-4.11113e-05
0.001179
-2.90931e-05
0.0011888
9.52664e-05
0.00121429
-7.15588e-05
0.0013641
-0.000288463
0.00152325
-0.00030415
0.00159482
-0.000303056
0.00163689
-0.000274917
0.00165851
-0.000227519
0.00167591
-0.000183502
0.00169492
-0.000138308
0.00170536
-0.000101077
0.00169842
-7.22205e-05
0.00170268
-4.35224e-05
0.00170711
-2.65895e-05
0.00169432
-1.20966e-05
0.00168565
-3.4162e-06
0.00167705
1.11319e-06
0.00166543
6.16512e-06
0.00165404
7.83484e-06
0.00164459
8.08974e-06
0.00163536
1.04103e-05
0.00162374
1.22384e-05
0.00161062
2.07841e-05
0.00159839
2.46839e-05
0.00158718
2.95029e-05
0.00157055
4.0298e-05
0.00155204
4.39308e-05
0.00152728
6.3912e-05
0.00148201
9.67548e-05
0.0014204
0.000172047
0.00131414
0.000296735
0.00115754
0.000401969
0.00102758
0.000453275
0.000945316
0.000457079
0.000888645
0.000425085
0.000845746
0.000379592
0.000803831
0.000322882
0.000760086
0.000275807
0.000717029
0.000239489
0.000675109
0.000211957
0.000634878
0.000189805
0.000595819
0.000172393
0.000558366
0.000157079
0.000523179
0.000145415
0.000490094
0.000135227
0.000458735
0.000127342
0.000429352
0.000121243
0.000401355
0.00011567
0.000374712
0.000112206
0.000348977
0.000113415
0.000323308
0.000116331
0.000297276
0.00012275
0.000271227
0.000128794
0.000244736
0.000140542
0.000218241
0.000148798
0.000190905
0.000162389
0.000162615
0.0001701
0.000132948
0.000184283
0.000102233
0.000189741
6.96841e-05
0.000216624
3.55359e-05
-1.17471e-05
-1.41456e-05
0.000785028
-1.64832e-05
0.000794961
-1.8738e-05
0.000805192
-2.08889e-05
0.000815716
-2.29167e-05
0.00082652
-2.48036e-05
0.000837585
-2.65342e-05
0.000848886
-2.80952e-05
0.000860397
-2.94758e-05
0.000872084
-3.06678e-05
0.000883914
-3.16657e-05
0.000895848
-3.24665e-05
0.000907846
-3.30695e-05
0.000919868
-3.34768e-05
0.000931873
-3.36918e-05
0.000943819
-3.37209e-05
0.000955666
-3.35713e-05
0.000967376
-3.32516e-05
0.000978909
-3.27722e-05
0.000990231
-3.21439e-05
0.00100131
-3.13781e-05
0.00101211
-3.04868e-05
0.00102261
-2.94808e-05
0.00103277
-2.83769e-05
0.00104259
-2.71789e-05
0.00105203
-2.59039e-05
0.00106108
-2.45611e-05
0.00106972
-2.31626e-05
0.00107794
-2.17111e-05
0.00108577
-2.02214e-05
0.00109315
-1.87008e-05
0.00110004
-1.71663e-05
0.00110653
-1.5596e-05
0.00111261
-1.40152e-05
0.00111823
-1.24284e-05
0.00112334
-1.08444e-05
0.00112804
-9.25586e-06
0.00113235
-7.65434e-06
0.00113623
-6.05808e-06
0.00113963
-4.47215e-06
0.00114254
-2.89498e-06
0.00114513
-1.3007e-06
0.00114733
2.81593e-07
0.00114909
1.8608e-06
0.00115036
-4.78076e-05
0.00115119
-4.95468e-05
0.00115739
-5.1007e-05
0.00116382
-5.22049e-05
0.00117038
-5.31386e-05
0.00117691
-5.38362e-05
0.00118362
-5.42269e-05
0.00119051
-5.43868e-05
0.00119753
-5.42224e-05
0.00120469
-5.37193e-05
0.00121129
-5.29048e-05
0.00121724
-5.19124e-05
0.00122333
-5.09381e-05
0.00122956
-5.06104e-05
0.00123607
-5.52767e-05
0.00124371
-8.54802e-05
0.00126688
-0.000258574
0.00141051
-0.000344689
0.00168105
-0.000335933
0.00176415
-0.000321408
0.00177991
-0.000293955
0.00179133
-0.000247534
0.00179168
-0.00019448
0.00179387
-0.00013798
0.00179596
-0.000102673
0.00177896
-6.72058e-05
0.00178526
-3.45789e-05
0.00178459
-1.73819e-05
0.00176871
-2.28269e-06
0.0017596
7.52411e-06
0.00175102
1.11134e-05
0.00174141
1.59101e-05
0.00172741
1.62817e-05
0.00171399
1.74257e-05
0.0017017
2.17145e-05
0.00168665
2.31471e-05
0.00167064
3.16519e-05
0.00165347
4.15544e-05
0.0016356
4.84103e-05
0.00161053
6.79804e-05
0.00157355
8.79992e-05
0.00152266
0.00012831
0.00143209
0.000206867
0.0012999
0.000333395
0.00113084
0.000427998
0.00100456
0.000484364
0.00091922
0.00050952
0.00086331
0.000500045
0.000826261
0.000467329
0.000794111
0.000423881
0.000760825
0.000365778
0.000726544
0.000317794
0.000688897
0.000279941
0.000651287
0.000250851
0.00061418
0.000226997
0.000577949
0.0002076
0.00054315
0.000190565
0.000510272
0.000177563
0.000478656
0.00016568
0.000448368
0.000156457
0.000419547
0.00014885
0.000391509
0.00014205
0.000364633
0.000138314
0.000338484
0.000139735
0.000312321
0.000142663
0.000286223
0.000149401
0.000260266
0.000155493
0.000233941
0.000168168
0.000207796
0.000177478
0.000181192
0.000192246
0.000153826
0.000200706
0.000125435
0.00021612
9.61777e-05
0.000222572
6.53888e-05
0.000250817
3.30021e-05
-2.13789e-05
-2.40775e-05
0.000795653
-2.67145e-05
0.000807634
-2.92616e-05
0.000819892
-3.16917e-05
0.000832421
-3.39801e-05
0.000845209
-3.61039e-05
0.000858239
-3.80431e-05
0.000871486
-3.97805e-05
0.000884922
-4.13023e-05
0.000898512
-4.25977e-05
0.000912221
-4.36594e-05
0.000926009
-4.44831e-05
0.000939834
-4.50677e-05
0.000953653
-4.54156e-05
0.000967422
-4.55304e-05
0.000981099
-4.54202e-05
0.00099464
-4.50933e-05
0.001008
-4.45609e-05
0.00102115
-4.38353e-05
0.00103404
-4.29294e-05
0.00104664
-4.18588e-05
0.00105892
-4.06359e-05
0.00107085
-3.92783e-05
0.00108239
-3.77981e-05
0.00109353
-3.62109e-05
0.00110425
-3.45312e-05
0.00111453
-3.27725e-05
0.00112434
-3.09487e-05
0.00113369
-2.90634e-05
0.00114258
-2.71324e-05
0.00115097
-2.51774e-05
0.00115882
-2.31942e-05
0.00116624
-2.11803e-05
0.00117318
-1.91551e-05
0.00117959
-1.71348e-05
0.00118546
-1.51138e-05
0.0011909
-1.30771e-05
0.0011959
-1.10477e-05
0.00120039
-9.03495e-06
0.00120432
-7.03254e-06
0.00120779
-5.02657e-06
0.00121088
-3.01974e-06
0.00121354
-1.03253e-06
0.0012157
9.44443e-07
0.00121731
-5.39789e-05
0.00121854
-5.59198e-05
0.00122422
-5.75454e-05
0.0012301
-5.88626e-05
0.00123601
-5.98972e-05
0.00124189
-6.06252e-05
0.00124807
-6.10352e-05
0.00125436
-6.11236e-05
0.00126086
-6.08628e-05
0.00126736
-6.02284e-05
0.00127322
-5.93188e-05
0.00127831
-5.81397e-05
0.00128375
-5.70283e-05
0.00128939
-5.77577e-05
0.00129538
-7.72498e-05
0.00130486
-0.000233524
0.00134359
-0.000572233
0.0015451
-0.000419461
0.00163143
-0.000343281
0.00175576
-0.000327627
0.00182053
-0.000296133
0.00184933
-0.000249873
0.00183969
-0.000201142
0.00184844
-0.00013653
0.00184708
-0.000102271
0.00184353
-5.70382e-05
0.00184695
-2.4484e-05
0.0018376
-5.73847e-06
0.00182285
1.07172e-05
0.00181577
2.12675e-05
0.00180647
2.54693e-05
0.00179686
2.88408e-05
0.00178423
2.73848e-05
0.00176855
2.99954e-05
0.00175166
3.55453e-05
0.00173372
3.95379e-05
0.0017133
4.98337e-05
0.00168578
6.87466e-05
0.00165219
8.76007e-05
0.00160239
0.000122068
0.00152399
0.000178724
0.00140988
0.000263889
0.00124522
0.000380034
0.00108213
0.000461644
0.000965927
0.00051339
0.000885473
0.000539843
0.000831823
0.00054605
0.000793188
0.000531859
0.000766356
0.000500538
0.000743257
0.000458111
0.000718543
0.00040328
0.000693206
0.000355447
0.000662374
0.000317286
0.000629113
0.000286959
0.000595136
0.000261724
0.000560845
0.000240745
0.000527367
0.000222724
0.000495351
0.000208676
0.00046468
0.000195605
0.000435724
0.000185584
0.000408011
0.000176667
0.000380962
0.000168877
0.000354925
0.000165012
0.00032913
0.000166176
0.000303054
0.00016887
0.000276879
0.000175767
0.000250921
0.000181704
0.000224505
0.000195005
0.000198419
0.000205229
0.000172064
0.000220837
0.000145336
0.00022983
0.000118115
0.000246224
9.02782e-05
0.000253688
6.12056e-05
0.000282579
3.06373e-05
-3.30839e-05
-3.60578e-05
0.000807485
-3.89716e-05
0.000821462
-4.17901e-05
0.000835694
-4.44795e-05
0.000850178
-4.70088e-05
0.000864902
-4.93495e-05
0.000879849
-5.14766e-05
0.000894995
-5.33687e-05
0.000910309
-5.50082e-05
0.000925757
-5.63816e-05
0.000941301
-5.74796e-05
0.000956899
-5.82965e-05
0.000972507
-5.88306e-05
0.000988081
-5.90844e-05
0.00100357
-5.90621e-05
0.00101894
-5.87734e-05
0.00103414
-5.82279e-05
0.00104912
-5.74391e-05
0.00106384
-5.64221e-05
0.00107826
-5.51913e-05
0.00109235
-5.37676e-05
0.00110607
-5.21639e-05
0.00111939
-5.04022e-05
0.00113228
-4.84955e-05
0.00114472
-4.64671e-05
0.00115669
-4.43303e-05
0.00116816
-4.21023e-05
0.00117912
-3.98001e-05
0.00118956
-3.74266e-05
0.00119948
-3.50102e-05
0.00120885
-3.25661e-05
0.00121767
-3.0077e-05
0.00122599
-2.75693e-05
0.00123375
-2.50601e-05
0.00124092
-2.25603e-05
0.00124757
-2.00415e-05
0.00125373
-1.75215e-05
0.00125937
-1.50217e-05
0.00126444
-1.25472e-05
0.00126894
-1.00787e-05
0.00127297
-7.60729e-06
0.00127654
-5.15193e-06
0.00127961
-2.71791e-06
0.00128214
-3.03525e-07
0.00128415
-5.96198e-05
0.00128576
-6.17442e-05
0.00129093
-6.35137e-05
0.00129619
-6.49283e-05
0.00130141
-6.60321e-05
0.00130671
-6.67762e-05
0.0013123
-6.71857e-05
0.00131797
-6.7213e-05
0.00132378
-6.67979e-05
0.00132919
-6.60584e-05
0.00133409
-6.50341e-05
0.00133876
-6.37135e-05
0.00134354
-6.28553e-05
0.00134835
-6.70771e-05
0.0013534
-0.000115766
0.00136444
-0.000453156
0.00143157
-0.000685599
0.00157344
-0.000539746
0.00157375
-0.000406138
0.0016633
-0.000356271
0.00179069
-0.000296657
0.00184416
-0.000258428
0.00185876
-0.000203273
0.00188674
-0.00014425
0.00189113
-9.316e-05
0.00189989
-4.27362e-05
0.00190206
-1.63378e-05
0.0018961
9.58572e-06
0.00186735
2.58788e-05
0.00185935
3.6737e-05
0.00184731
4.10221e-05
0.00183354
4.15236e-05
0.0018219
4.10549e-05
0.00180724
4.55639e-05
0.0017826
5.40098e-05
0.00175348
6.83006e-05
0.00171874
8.56017e-05
0.0016656
0.000122384
0.00159166
0.000169405
0.00148135
0.000238852
0.00132708
0.000344188
0.00115538
0.000429359
0.001019
0.000498022
0.000918107
0.000542257
0.000848349
0.00056647
0.000799632
0.000577649
0.00076359
0.000572461
0.00073874
0.000554686
0.000718337
0.000524985
0.000699848
0.000483031
0.000681387
0.000433816
0.000660832
0.000388774
0.00063574
0.000351602
0.000607022
0.000321295
0.000576424
0.000295376
0.00054478
0.000273184
0.000513071
0.000254056
0.000481839
0.000238666
0.000451266
0.000224444
0.000422035
0.000213703
0.000393881
0.000203604
0.000366729
0.000195396
0.000340785
0.000191732
0.000315214
0.000192761
0.00028946
0.000195042
0.000263791
0.000202177
0.000238505
0.000207787
0.000212856
0.000221524
0.000187477
0.00023232
0.000162019
0.000248263
0.000136495
0.000257441
0.000110716
0.000274542
8.43836e-05
0.000283001
5.69513e-05
0.000311991
2.82492e-05
-4.6808e-05
-5.00337e-05
0.000820535
-5.32032e-05
0.00083645
-5.62733e-05
0.000852601
-5.92032e-05
0.000868985
-6.19548e-05
0.000885592
-6.44935e-05
0.000902404
-6.67888e-05
0.000919397
-6.88144e-05
0.000936539
-7.0549e-05
0.000953796
-7.19759e-05
0.000971126
-7.30834e-05
0.000988487
-7.38644e-05
0.00100583
-7.43169e-05
0.00102312
-7.44426e-05
0.00104029
-7.42475e-05
0.0010573
-7.37421e-05
0.00107411
-7.29372e-05
0.00109066
-7.18497e-05
0.00110691
-7.04965e-05
0.00112283
-6.88956e-05
0.00113837
-6.70706e-05
0.00115349
-6.50372e-05
0.00116817
-6.28213e-05
0.00118237
-6.04395e-05
0.00119607
-5.79187e-05
0.00120925
-5.52729e-05
0.00122189
-5.25231e-05
0.00123396
-4.96891e-05
0.00124547
-4.67827e-05
0.00125639
-4.38334e-05
0.00126672
-4.08368e-05
0.0012765
-3.78019e-05
0.00128567
-3.47501e-05
0.0012942
-3.17181e-05
0.00130216
-2.86733e-05
0.00130958
-2.56198e-05
0.00131642
-2.25748e-05
0.00132264
-1.95599e-05
0.00132828
-1.65826e-05
0.00133338
-1.36019e-05
0.00133796
-1.06323e-05
0.00134198
-7.6909e-06
0.00134543
-4.7718e-06
0.00134832
-1.8737e-06
0.00135075
-6.47199e-05
0.00135272
-6.70084e-05
0.00135737
-6.88989e-05
0.00136206
-7.04021e-05
0.00136661
-7.1532e-05
0.00137142
-7.22547e-05
0.00137632
-7.25908e-05
0.00138128
-7.24939e-05
0.00138615
-7.19779e-05
0.00139069
-7.11093e-05
0.00139495
-6.98993e-05
0.00139939
-6.83622e-05
0.00140375
-6.78313e-05
0.00140815
-7.83068e-05
0.00141354
-0.000185735
0.0014309
-0.000609163
0.00154607
-0.000699655
0.00163085
-0.000635226
0.00164245
-0.000533313
0.00168543
-0.000416511
0.00176857
-0.000329978
0.00187
-0.000281852
0.00193654
-0.000207901
0.00195653
-0.000149008
0.00195184
-8.53374e-05
0.00196212
-3.25222e-05
0.00194252
2.84784e-06
0.00193127
2.35234e-05
0.00190447
4.10432e-05
0.00189062
5.32881e-05
0.00187532
5.5764e-05
0.00185486
5.59734e-05
0.00183411
6.32e-05
0.00181167
7.29295e-05
0.00177267
8.5929e-05
0.00171672
0.00012526
0.00163487
0.000164122
0.0015262
0.000237798
0.00137049
0.000325807
0.00120333
0.000411842
0.00105851
0.000481154
0.000947306
0.000531026
0.000865936
0.000568232
0.000806549
0.000590776
0.000765164
0.000602254
0.000734312
0.000602191
0.000711617
0.000592445
0.000693612
0.000572917
0.000678249
0.00054323
0.000663755
0.000503318
0.000649168
0.000458836
0.000631801
0.000417975
0.00060989
0.000382966
0.000584041
0.00035329
0.000555689
0.000327286
0.000526103
0.000304846
0.000496628
0.000285477
0.000467714
0.000269021
0.000439429
0.000253708
0.000411806
0.000241855
0.000384454
0.000230445
0.000357758
0.000221804
0.000331857
0.000218271
0.00030598
0.000218933
0.000279889
0.000220524
0.000254051
0.000227833
0.000228783
0.000233153
0.000203295
0.000247119
0.000178062
0.000258287
0.000153144
0.000274282
0.000128509
0.000283323
0.000103887
0.000301059
7.87956e-05
0.000310463
5.27926e-05
0.000339023
2.59227e-05
-6.24923e-05
-6.5948e-05
0.000834816
-6.93534e-05
0.000852608
-7.26569e-05
0.000870617
-7.58095e-05
0.000888842
-7.87659e-05
0.000907274
-8.14846e-05
0.000925895
-8.39293e-05
0.00094468
-8.60684e-05
0.000963596
-8.78764e-05
0.000982607
-8.9333e-05
0.00100167
-9.04242e-05
0.00102074
-9.11413e-05
0.00103978
-9.14815e-05
0.00105872
-9.14465e-05
0.00107752
-9.10436e-05
0.00109613
-9.02834e-05
0.0011145
-8.918e-05
0.00113258
-8.77521e-05
0.00115032
-8.60195e-05
0.00116769
-8.40038e-05
0.00118463
-8.17301e-05
0.00120112
-7.92203e-05
0.00121712
-7.65014e-05
0.00123259
-7.35959e-05
0.00124752
-7.05322e-05
0.00126187
-6.73272e-05
0.00127563
-6.40058e-05
0.00128879
-6.05928e-05
0.00130133
-5.71067e-05
0.00131323
-5.35651e-05
0.00132452
-4.99676e-05
0.00133518
-4.63391e-05
0.00134515
-4.27183e-05
0.00135447
-3.90958e-05
0.00136323
-3.54596e-05
0.00137136
-3.1825e-05
0.00137882
-2.82274e-05
0.00138562
-2.46638e-05
0.00139186
-2.11177e-05
0.00139755
-1.7582e-05
0.00140263
-1.40829e-05
0.00140706
-1.06153e-05
0.00141088
-7.18482e-06
0.00141419
-3.77178e-06
0.00141697
-6.93103e-05
0.00141925
-7.17184e-05
0.00142336
-7.36855e-05
0.00142744
-7.52689e-05
0.00143152
-7.64006e-05
0.00143574
-7.70704e-05
0.00144
-7.72996e-05
0.00144419
-7.7085e-05
0.00144822
-7.64769e-05
0.00145192
-7.54631e-05
0.0014556
-7.405e-05
0.00145932
-7.25991e-05
0.00146257
-7.32151e-05
0.00146544
-9.65072e-05
0.00146982
-0.000313586
0.00149504
-0.00070114
0.00163005
-0.000713586
0.00166103
-0.000681993
0.0016693
-0.000624506
0.00168713
-0.000527105
0.00172306
-0.000400482
0.00181731
-0.000296365
0.00192037
-0.000205225
0.0019665
-0.00014136
0.00199189
-5.83167e-05
0.00198674
-1.81817e-05
0.00197335
2.41557e-05
0.00195495
3.9617e-05
0.00193146
5.84235e-05
0.00190822
7.40534e-05
0.00188233
7.7848e-05
0.00185223
8.05841e-05
0.0018056
0.000101841
0.00174775
0.000128106
0.00166639
0.000167286
0.00154456
0.000239586
0.00138626
0.00032356
0.00122338
0.000407664
0.00108129
0.00047125
0.000969758
0.000523205
0.000884096
0.000562708
0.000820119
0.000590906
0.000772829
0.000610027
0.000736995
0.000621691
0.000709346
0.000624828
0.000688343
0.000619945
0.000671714
0.000607445
0.000657803
0.000587164
0.0006452
0.000557851
0.000633555
0.000520874
0.000621234
0.000481284