/*--------------------------------*- C++ -*----------------------------------*\
| =========                 |                                                 |
| \\      /  F ield         | OpenFOAM: The Open Source CFD Toolbox           |
|  \\    /   O peration     | Version:  2.2.x                                 |
|   \\  /    A nd           | Web:      www.OpenFOAM.org                      |
|    \\/     M anipulation  |                                                 |
\*---------------------------------------------------------------------------*/
FoamFile
{
    version     2.0;
    format      ascii;
    class       volVectorField;
    location    "1";
    object      U;
}
// * * * * * * * * * * * * * * * * * * * * * * * * * * * * * * * * * * * * * //

dimensions      [0 1 -1 0 0 0 0];

internalField   nonuniform List<vector> 
14161
(
(1.5 -3.42335e-17 2.34251e-37)
(1.5 4.27181e-16 -1.10849e-22)
(1.5 5.38118e-16 -1.10849e-22)
(1.5 4.17332e-17 -1.10849e-22)
(1.5 1.00732e-16 -1.10849e-22)
(1.5 -4.14791e-16 -2.23243e-22)
(1.5 -2.99357e-16 5.83238e-23)
(1.5 -5.51127e-16 -5.44789e-23)
(1.5 -4.95431e-16 3.0215e-23)
(1.5 -4.13211e-16 -9.69078e-23)
(1.5 1.05348e-16 -1.03919e-22)
(1.5 -3.76071e-16 -1.03731e-22)
(1.5 -5.68238e-16 -1.59781e-22)
(1.5 -8.98074e-16 -4.68308e-23)
(1.5 -6.13359e-16 -1.03245e-22)
(1.5 -1.52395e-16 -1.03208e-22)
(1.5 -2.17319e-17 -1.59309e-22)
(1.5 -3.33962e-16 -1.59526e-22)
(1.5 -4.5189e-16 -1.59747e-22)
(1.5 4.67884e-17 -2.16203e-22)
(1.5 1.47384e-16 -2.16615e-22)
(1.5 5.39467e-16 -1.61482e-22)
(1.5 2.34045e-16 -1.90142e-22)
(1.5 1.2851e-16 -1.9096e-22)
(1.39828 -0.0198574 -2.7339e-22)
(0.534253 0.00107235 -2.17724e-22)
(0.516561 0.0035404 -2.18506e-22)
(0.507116 0.00281743 -2.19493e-22)
(0.500322 0.00201674 -2.19696e-22)
(0.49515 0.00150041 -2.20434e-22)
(0.490957 0.0011844 1.59905e-22)
(0.487416 0.000977229 2.82427e-23)
(0.484355 0.000831483 2.46862e-23)
(0.481665 0.000729168 2.08319e-23)
(0.479253 0.000665811 8.23927e-23)
(0.477037 0.000641378 1.23021e-23)
(0.474939 0.000656322 7.50313e-23)
(0.472894 0.000710044 7.17748e-23)
(0.470845 0.000800554 6.90664e-23)
(0.46875 0.000924692 1.34346e-22)
(0.46658 0.00107861 1.32507e-22)
(0.464316 0.00125847 1.31197e-22)
(0.461946 0.00146127 1.30363e-22)
(0.459463 0.00168599 2.6866e-22)
(0.456859 0.00193512 5.85436e-23)
(0.45391 0.00240299 1.22876e-21)
(0.450683 0.0026989 1.21754e-21)
(0.44728 0.00295766 2.29972e-21)
(0.443686 0.00320521 3.3569e-21)
(0.439909 0.00344269 3.3261e-21)
(0.435965 0.00366525 4.43487e-21)
(0.431876 0.00386661 5.46311e-21)
(0.427671 0.00404038 6.51956e-21)
(0.42338 0.00418084 6.48478e-21)
(0.419038 0.00428342 6.44935e-21)
(0.414683 0.00434522 6.42217e-21)
(0.410349 0.00436529 6.38624e-21)
(0.406072 0.00434472 6.33873e-21)
(0.401883 0.00428665 6.13655e-21)
(0.397807 0.00419597 6.18876e-21)
(0.393865 0.00407896 6.09471e-21)
(0.390072 0.00394265 5.98592e-21)
(0.386434 0.00379365 4.50588e-21)
(0.382955 0.00363907 4.67024e-21)
(0.37963 0.0034866 4.56096e-21)
(0.37645 0.00334435 3.36971e-21)
(0.373395 0.00322141 3.29119e-21)
(0.370435 0.00312723 3.23134e-21)
(0.367544 0.00306737 3.46722e-21)
(0.364695 0.00304188 2.89453e-21)
(0.361856 0.00305052 3.17326e-21)
(0.358999 0.00309193 3.75167e-21)
(0.356095 0.00316342 4.35157e-21)
(0.35312 0.00326094 3.27639e-21)
(0.350051 0.00337926 4.19498e-21)
(0.346871 0.00351223 3.69475e-21)
(0.343567 0.00365314 3.78763e-21)
(0.340131 0.00379511 3.85953e-21)
(0.336562 0.00393149 3.92358e-21)
(0.332862 0.0040563 4.57573e-21)
(0.329039 0.0041646 4.61343e-21)
(0.325103 0.00425275 4.01479e-21)
(0.321068 0.00431861 4.01526e-21)
(0.316949 0.0043616 3.99888e-21)
(0.312762 0.00438259 3.96866e-21)
(0.308522 0.0043837 2.60006e-21)
(0.304242 0.004368 1.87402e-21)
(0.299934 0.00433907 2.52282e-21)
(0.295608 0.00430059 1.0683e-21)
(0.291269 0.00425594 2.48934e-21)
(0.286923 0.00420783 2.47609e-21)
(0.282573 0.00415807 2.47723e-21)
(0.278221 0.00410745 9.34071e-22)
(0.273871 0.00405581 2.54927e-21)
(0.269527 0.00400228 2.57934e-21)
(0.265195 0.00394552 2.61075e-21)
(0.260883 0.00388424 2.63941e-21)
(0.256601 0.0038176 2.66238e-21)
(0.252361 0.00374568 2.67819e-21)
(0.248171 0.00366993 1.32031e-21)
(0.244042 0.00359361 5.03326e-21)
(0.239976 0.00352226 5.03502e-21)
(0.235971 0.00346428 3.11339e-21)
(0.232011 0.00343157 3.11245e-21)
(0.228065 0.00344046 3.11406e-21)
(0.224078 0.0035127 5.11737e-21)
(0.219971 0.00367669 -9.28661e-22)
(0.215625 0.00396886 -2.96481e-21)
(0.210878 0.00443508 -9.07268e-22)
(0.205518 0.00513199 -9.16706e-22)
(0.19927 0.00612781 1.17013e-21)
(0.191796 0.00750213 -9.95184e-22)
(0.182688 0.00934338 -1.02807e-21)
(0.171482 0.0117424 -1.00373e-20)
(0.157667 0.0147797 -6.74339e-22)
(0.140732 0.018502 -7.17877e-22)
(0.120223 0.0228852 -2.31381e-20)
(0.0958577 0.0278035 -2.32679e-20)
(0.081989 0.0856913 -2.34841e-20)
(1.5 -1.58814e-17 -1.99455e-38)
(1.5 2.04686e-16 4.38944e-22)
(1.5 2.34267e-16 5.46975e-22)
(1.5 -1.88161e-16 3.24521e-22)
(1.5 -6.08102e-18 3.23409e-22)
(1.5 -3.6171e-16 3.77452e-22)
(1.5 -1.88112e-16 3.14945e-22)
(1.5 -3.72851e-16 3.14147e-22)
(1.5 -4.25789e-16 3.95719e-22)
(1.5 -5.232e-16 2.98593e-22)
(1.5 -1.09836e-16 3.0546e-22)
(1.5 -3.75205e-16 3.03218e-22)
(1.5 -5.49743e-16 4.09536e-22)
(1.5 -8.81057e-16 2.92814e-23)
(1.5 -5.8275e-16 -1.31536e-22)
(1.5 -6.83161e-18 -7.69243e-23)
(1.5 -1.65684e-16 -7.62017e-23)
(1.5 -5.6421e-16 -2.88821e-22)
(1.5 -6.4314e-16 -2.85365e-22)
(1.5 -9.8664e-17 -4.94173e-22)
(1.5 3.2584e-16 -4.4038e-22)
(1.5 5.61707e-16 -4.94237e-22)
(1.5 1.10714e-16 -6.50607e-22)
(1.5 6.77752e-18 -6.51572e-22)
(1.3121 -0.00973057 -3.60618e-22)
(0.496125 0.00287575 -4.14078e-22)
(0.492817 0.00398003 -1.3729e-21)
(0.489205 0.00365214 -1.36361e-21)
(0.482809 0.00333108 -2.0831e-21)
(0.474856 0.00315742 -1.10823e-21)
(0.466136 0.00307205 -2.36838e-21)
(0.457135 0.00301984 -1.61745e-21)
(0.448168 0.00297346 -1.63253e-21)
(0.439452 0.00292427 -2.18522e-21)
(0.431143 0.00287319 -2.27211e-21)
(0.423348 0.00282514 -2.00151e-21)
(0.416134 0.0027867 -2.58333e-21)
(0.409535 0.00276467 -2.35866e-21)
(0.403552 0.00276535 -2.34136e-21)
(0.398161 0.0027942 -2.08238e-21)
(0.393319 0.00285591 -2.35158e-21)
(0.388965 0.00295474 -2.14675e-21)
(0.385032 0.00309539 -2.09302e-21)
(0.381443 0.00328428 -2.19399e-21)
(0.37812 0.00353134 -2.13456e-21)
(0.374857 0.00315634 -3.4857e-21)
(0.371688 0.00322634 -1.10726e-21)
(0.368582 0.0034111 -1.92025e-21)
(0.365507 0.00363292 -5.56246e-21)
(0.362443 0.00386974 -5.36132e-21)
(0.35937 0.00411126 -6.45732e-21)
(0.356272 0.00434943 -9.40058e-21)
(0.353131 0.00457669 -1.1706e-20)
(0.349932 0.00478607 -1.08814e-20)
(0.346661 0.00497143 -1.13315e-20)
(0.343305 0.005128 -7.46941e-21)
(0.339854 0.00525266 -7.38206e-21)
(0.336301 0.00534404 -7.32088e-21)
(0.332641 0.00540248 -9.14471e-21)
(0.328875 0.00542987 -1.15989e-20)
(0.325006 0.00542913 -1.0271e-20)
(0.321046 0.00540443 -1.27644e-20)
(0.317004 0.00536087 -1.14284e-20)
(0.31289 0.0053048 -8.78885e-21)
(0.308717 0.00524238 -1.26525e-20)
(0.304505 0.00518001 -7.34247e-21)
(0.300274 0.00512489 -7.29639e-21)
(0.296054 0.00508509 -5.90856e-21)
(0.291865 0.00506693 -8.59156e-21)
(0.287725 0.00507343 -9.23895e-21)
(0.283645 0.00510736 -9.88327e-21)
(0.279634 0.00517014 -9.11555e-21)
(0.275697 0.00526163 -9.72798e-21)
(0.271834 0.00538 -9.61317e-21)
(0.268041 0.00552175 -9.10156e-21)
(0.26431 0.00568185 -8.92521e-21)
(0.260631 0.00585413 -8.92795e-21)
(0.256992 0.00603164 -8.69967e-21)
(0.25338 0.00620721 -8.45662e-21)
(0.249781 0.00637393 -6.65728e-21)
(0.246183 0.00652568 -7.9867e-21)
(0.242574 0.00665756 -7.74002e-21)
(0.238944 0.00676619 -4.22749e-21)
(0.235282 0.00684988 -4.05217e-21)
(0.231581 0.00690862 -7.29209e-21)
(0.227833 0.0069439 -1.86956e-21)
(0.22403 0.00695842 -8.91923e-21)
(0.220166 0.00695564 -5.00446e-21)
(0.216234 0.00693933 4.4681e-21)
(0.212224 0.00691308 -1.29983e-21)
(0.208129 0.00687986 -1.16782e-21)
(0.203938 0.00684177 -1.00369e-21)
(0.199642 0.00679985 -9.24711e-21)
(0.195227 0.00675415 -8.89591e-21)
(0.190682 0.00670384 3.04585e-22)
(0.185994 0.00664761 -4.18007e-21)
(0.18115 0.00658399 -3.98456e-21)
(0.176137 0.00651178 -8.6954e-21)
(0.170944 0.00643045 1.72885e-21)
(0.165557 0.00634053 1.06888e-21)
(0.159968 0.00624401 1.16424e-21)
(0.154169 0.00614475 -1.57676e-20)
(0.148155 0.00604918 -1.53675e-20)
(0.141924 0.00596711 -5.74301e-21)
(0.135479 0.00591302 -1.21119e-20)
(0.128825 0.00590757 -5.07041e-21)
(0.12197 0.00597969 1.95146e-21)
(0.114923 0.00616894 1.65107e-20)
(0.107688 0.00652824 1.61994e-20)
(0.100263 0.00712654 -3.05269e-22)
(0.0926272 0.00805096 1.70767e-20)
(0.0847386 0.00940735 3.4001e-20)
(0.0765212 0.0113176 3.16364e-20)
(0.0678603 0.0139111 4.73903e-20)
(0.0585994 0.017307 4.05669e-20)
(0.0485473 0.0215832 8.92838e-21)
(0.0374986 0.026727 4.69202e-20)
(0.0252881 0.0325973 1.6234e-20)
(0.0234412 0.0973944 -1.66456e-20)
(1.5 -1.85772e-16 2.18062e-22)
(1.5 -2.85457e-16 -2.16865e-22)
(1.5 -4.5555e-16 -3.22521e-22)
(1.5 -5.26988e-16 -3.20437e-22)
(1.5 -2.39786e-16 -2.1026e-22)
(1.5 5.62836e-17 -2.64423e-22)
(1.5 -1.54387e-16 -2.58427e-22)
(1.5 -2.32152e-16 -2.59483e-22)
(1.5 -4.38352e-16 -1.00727e-22)
(1.5 -1.63372e-16 -1.037e-22)
(1.5 -3.46033e-16 3.11859e-22)
(1.5 -5.55714e-16 -3.29442e-22)
(1.5 -1.93586e-16 -2.32927e-22)
(1.5 -6.9084e-16 -3.45562e-23)
(1.5 -4.8823e-16 1.68623e-22)
(1.5 -1.74169e-16 6.30788e-23)
(1.5 -6.62547e-16 5.90355e-23)
(1.5 -9.45136e-16 -4.86676e-23)
(1.5 -8.71439e-16 3.3502e-22)
(1.5 -2.62096e-16 1.26606e-22)
(1.5 2.40395e-16 -2.73589e-22)
(1.5 2.69937e-16 -7.11806e-22)
(1.5 -2.29356e-17 -4.57311e-22)
(1.5 -2.1337e-16 -8.375e-22)
(1.34755 0.00738512 -1.64445e-21)
(0.512905 0.00479168 -1.48415e-21)
(0.502426 0.00493324 -2.71719e-21)
(0.496274 0.00546244 -3.96451e-21)
(0.489718 0.00587699 -3.48436e-21)
(0.482878 0.00621004 -1.66294e-21)
(0.475919 0.00647507 -2.12615e-21)
(0.46897 0.00667221 -1.65599e-21)
(0.462122 0.00680177 -2.58918e-21)
(0.45544 0.006867 -1.64083e-21)
(0.44897 0.00687474 -2.61259e-21)
(0.442745 0.00683543 -2.11819e-21)
(0.436786 0.006762 -2.12992e-21)
(0.431107 0.00666887 -2.19877e-21)
(0.425718 0.00657067 -2.2021e-21)
(0.420629 0.00648119 -2.20024e-21)
(0.415846 0.00641258 -2.18301e-21)
(0.411379 0.00637506 -1.77622e-21)
(0.407242 0.00637718 -2.04298e-21)
(0.403455 0.00642651 -2.03573e-21)
(0.400046 0.00653081 -1.75124e-21)
(0.397113 0.00650725 2.7138e-21)
(0.394214 0.00666228 5.44992e-21)
(0.391279 0.00688544 9.14199e-21)
(0.388337 0.00714553 1.11114e-20)
(0.385392 0.00743089 1.14222e-20)
(0.382436 0.00773401 9.50663e-21)
(0.379463 0.00804786 1.25929e-20)
(0.376463 0.00836523 1.23379e-20)
(0.373428 0.00867914 1.21472e-20)
(0.370348 0.00898293 1.30562e-20)
(0.367214 0.00927072 6.44221e-21)
(0.364017 0.00953757 6.43545e-21)
(0.36075 0.00977947 9.86832e-22)
(0.357406 0.00999315 3.21123e-21)
(0.35398 0.0101757 3.21766e-21)
(0.350473 0.010326 -3.39142e-21)
(0.346878 0.0104464 3.26653e-21)
(0.343184 0.0105405 3.26695e-21)
(0.339388 0.0106113 -5.66789e-21)
(0.335485 0.0106613 -5.69158e-21)
(0.331475 0.0106931 -5.6705e-21)
(0.327356 0.0107096 -5.66194e-21)
(0.323128 0.0107153 -3.35174e-21)
(0.318794 0.0107163 -1.0595e-21)
(0.31436 0.0107191 5.38481e-23)
(0.30983 0.0107293 -1.23347e-21)
(0.305212 0.0107522 1.09404e-21)
(0.300511 0.0107917 4.0046e-21)
(0.295733 0.0108503 1.33272e-21)
(0.290885 0.0109286 1.31274e-21)
(0.285972 0.0110253 6.05636e-21)
(0.280998 0.0111374 7.18002e-22)
(0.275967 0.0112603 4.93691e-22)
(0.270882 0.0113884 -1.07197e-21)
(0.265745 0.0115159 4.27049e-21)
(0.260558 0.0116368 -3.08979e-22)
(0.255322 0.011746 -5.37707e-22)
(0.250038 0.0118396 -6.46386e-22)
(0.244708 0.0119155 5.31264e-21)
(0.239331 0.0119729 -1.3605e-21)
(0.233907 0.0120129 -7.70021e-21)
(0.228436 0.0120381 -1.17935e-21)
(0.222916 0.0120518 -1.48751e-20)
(0.217345 0.0120579 -1.04178e-20)
(0.21172 0.0120602 -9.95614e-21)
(0.206036 0.0120618 -1.69475e-20)
(0.20029 0.0120647 -4.46366e-21)
(0.194474 0.0120699 -1.28439e-20)
(0.188582 0.0120772 4.14744e-21)
(0.182608 0.0120855 -4.78466e-21)
(0.176544 0.0120932 -9.34592e-21)
(0.170383 0.0120986 4.06206e-22)
(0.164116 0.0121003 -5.04359e-21)
(0.157736 0.0120977 -9.77838e-21)
(0.151232 0.012091 -9.13874e-21)
(0.144597 0.0120822 2.8072e-21)
(0.137822 0.0120746 1.65468e-21)
(0.130901 0.012074 6.14527e-22)
(0.123825 0.0120894 -3.17557e-21)
(0.116593 0.0121341 -1.75051e-20)
(0.109203 0.0122279 -2.39339e-20)
(0.101656 0.0123992 -2.21474e-20)
(0.0939617 0.0126884 -5.23584e-20)
(0.0861306 0.013151 -1.16203e-20)
(0.0781806 0.0138627 8.10877e-21)
(0.070134 0.0149224 4.92195e-20)
(0.0620161 0.0164553 3.88986e-21)
(0.0538513 0.018612 9.07314e-21)
(0.0456571 0.0215607 1.82416e-20)
(0.0374361 0.0254678 -2.65324e-20)
(0.0291671 0.0304599 1.48917e-19)
(0.0208 0.0365622 1.4789e-19)
(0.0122689 0.0436386 -4.38897e-22)
(0.0109371 0.111146 -1.57797e-20)
(1.5 1.17363e-17 -2.16065e-22)
(1.5 -5.23671e-16 8.70116e-25)
(1.5 -4.35252e-16 3.22183e-22)
(1.5 -6.9991e-16 3.22359e-22)
(1.5 -4.31636e-16 -9.99784e-23)
(1.5 -2.44108e-16 -5.04464e-22)
(1.5 -2.98433e-16 -4.81234e-22)
(1.5 -2.52383e-16 -4.64404e-22)
(1.5 -1.03864e-16 -4.35843e-22)
(1.5 2.54476e-16 -5.10914e-22)
(1.5 -1.40205e-16 -8.11741e-22)
(1.5 -2.27442e-16 -1.17033e-21)
(1.5 2.26152e-16 -1.12133e-21)
(1.5 -4.31958e-16 -1.07475e-21)
(1.5 -1.43947e-16 -2.60396e-22)
(1.5 -3.69376e-16 -1.49481e-22)
(1.5 -6.21485e-16 -3.07904e-22)
(1.5 -1.02925e-15 -5.5923e-22)
(1.5 -9.70663e-16 -1.65156e-21)
(1.5 -5.08062e-16 -4.82749e-22)
(1.5 -4.7297e-16 -1.88272e-22)
(1.5 -2.87432e-16 2.8266e-22)
(1.5 -2.09946e-16 1.76383e-22)
(1.5 -3.01379e-16 6.21398e-22)
(1.37833 0.00268125 7.51068e-22)
(0.525185 0.00737761 -2.49683e-21)
(0.510678 0.00758175 2.40113e-21)
(0.503334 0.00790907 7.97774e-21)
(0.497325 0.00826824 6.98652e-21)
(0.492047 0.00862385 1.9728e-21)
(0.487205 0.00894945 1.94308e-21)
(0.482648 0.00922776 1.92332e-21)
(0.478294 0.00944988 1.88546e-21)
(0.474089 0.0096136 1.87557e-21)
(0.469996 0.0097221 2.69813e-21)
(0.465984 0.00978265 2.67687e-21)
(0.46203 0.00980548 2.23646e-21)
(0.458119 0.00980224 3.11291e-21)
(0.454247 0.00978446 3.10776e-21)
(0.450415 0.00976223 2.88712e-21)
(0.446633 0.00974314 2.87919e-21)
(0.44292 0.00973166 2.77766e-21)
(0.439297 0.00972882 3.23782e-21)
(0.435791 0.0097322 2.76589e-21)
(0.432436 0.00973611 2.29284e-21)
(0.429247 0.0105265 -8.74836e-22)
(0.425977 0.0109512 -7.17302e-22)
(0.42263 0.0113025 -8.03646e-21)
(0.419228 0.0116478 -8.80723e-21)
(0.415787 0.0120005 -7.7006e-21)
(0.412318 0.0123605 -1.03645e-20)
(0.408832 0.0127242 -7.32689e-21)
(0.405339 0.013087 -1.09033e-20)
(0.401845 0.0134442 -6.97775e-21)
(0.398355 0.0137918 -8.79405e-21)
(0.394869 0.0141263 7.23006e-22)
(0.391385 0.0144452 4.484e-21)
(0.387899 0.0147464 6.3338e-21)
(0.384398 0.0150287 8.19884e-21)
(0.380866 0.015291 1.00508e-20)
(0.377277 0.0155309 1.57782e-20)
(0.373624 0.0157475 1.95704e-20)
(0.369907 0.0159425 1.75275e-20)
(0.366119 0.0161166 2.70972e-20)
(0.362255 0.0162708 2.68414e-20)
(0.358308 0.0164062 3.04543e-20)
(0.354273 0.0165245 3.00405e-20)
(0.350143 0.016628 2.75946e-20)
(0.345913 0.0167205 2.91629e-20)
(0.341577 0.0168063 1.84456e-20)
(0.337133 0.0168898 1.90364e-20)
(0.332576 0.0169752 1.8556e-20)
(0.327904 0.017066 2.23071e-20)
(0.323116 0.0171646 1.73634e-20)
(0.31821 0.0172722 1.65846e-20)
(0.313184 0.0173884 1.62338e-20)
(0.308038 0.0175112 1.55427e-20)
(0.302773 0.0176375 1.48297e-20)
(0.297388 0.0177631 1.51973e-20)
(0.291884 0.0178835 1.10936e-20)
(0.286261 0.0179941 1.04688e-20)
(0.280522 0.0180911 9.85402e-21)
(0.274667 0.0181719 9.25753e-21)
(0.268699 0.0182351 9.00579e-21)
(0.26262 0.0182814 8.39737e-21)
(0.256433 0.0183127 1.83566e-20)
(0.250141 0.0183326 5.82329e-21)
(0.243747 0.0183456 4.41933e-21)
(0.237253 0.0183565 2.77256e-20)
(0.230662 0.01837 1.88996e-20)
(0.223976 0.0183899 2.92712e-20)
(0.217195 0.0184188 2.67742e-20)
(0.210319 0.018458 2.65236e-21)
(0.203349 0.0185073 1.0163e-20)
(0.196284 0.0185656 -6.38899e-21)
(0.189121 0.0186313 -1.85346e-20)
(0.181859 0.0187027 -1.69361e-20)
(0.174494 0.0187784 -1.15653e-20)
(0.167023 0.0188581 -1.14086e-20)
(0.159441 0.0189423 -1.12033e-20)
(0.151744 0.019033 -1.24192e-20)
(0.143925 0.0191335 -1.17251e-20)
(0.13598 0.0192492 -1.05067e-20)
(0.127904 0.0193879 -1.5674e-20)
(0.119696 0.0195617 -2.20853e-20)
(0.111357 0.0197878 -8.83821e-21)
(0.102892 0.0200916 -1.03921e-20)
(0.0943147 0.0205095 -3.79994e-22)
(0.0856434 0.0210926 -6.7564e-20)
(0.0769078 0.0219116 1.50151e-20)
(0.0681469 0.0230615 -9.18871e-20)
(0.0594094 0.0246659 -2.95545e-20)
(0.0507513 0.0268783 -1.06793e-19)
(0.0422307 0.0298775 -1.09936e-19)
(0.0338979 0.0338505 -2.57094e-20)
(0.0257824 0.0389565 -8.39808e-20)
(0.0178767 0.0452618 6.73317e-20)
(0.0101314 0.0526654 -8.74938e-20)
(0.0092299 0.117129 -6.8689e-20)
(1.5 -5.47098e-17 -2.14595e-22)
(1.5 -8.04187e-16 2.14399e-22)
(1.5 -7.65876e-16 -4.19987e-22)
(1.5 -8.21625e-16 4.17187e-22)
(1.5 -7.74283e-16 7.95214e-22)
(1.5 -6.04791e-16 1.94085e-21)
(1.5 -3.35755e-16 1.73064e-21)
(1.5 -3.0014e-16 9.35912e-22)
(1.5 3.55272e-16 1.69986e-21)
(1.5 2.96551e-16 1.45288e-21)
(1.5 3.94019e-16 -3.0705e-22)
(1.5 4.20439e-16 1.86533e-21)
(1.5 3.4443e-16 1.74121e-21)
(1.5 1.36076e-16 1.56636e-21)
(1.5 3.08468e-16 6.46469e-22)
(1.5 -2.93934e-16 5.05791e-22)
(1.5 -5.90696e-16 1.76686e-21)
(1.5 -7.88935e-16 1.68723e-21)
(1.5 -8.89312e-16 2.11622e-21)
(1.5 -8.09025e-16 4.7122e-22)
(1.5 -7.20944e-16 3.0611e-22)
(1.5 -4.98797e-16 1.56233e-22)
(1.5 -4.92549e-16 -5.74274e-22)
(1.5 -6.16597e-16 -7.55436e-22)
(1.34489 0.000857693 -3.15355e-22)
(0.510549 0.00976356 2.47971e-21)
(0.501802 0.0100516 1.91239e-23)
(0.496448 0.0102713 -3.73234e-21)
(0.490516 0.0105954 -1.26704e-21)
(0.484311 0.0109571 5.72459e-21)
(0.478054 0.01131 5.5585e-21)
(0.471884 0.0116306 4.60231e-21)
(0.465885 0.0119081 6.09095e-21)
(0.460102 0.0121394 3.48934e-21)
(0.45456 0.0123264 2.58613e-21)
(0.449268 0.0124751 5.88558e-21)
(0.444229 0.0125935 4.92096e-21)
(0.439439 0.0126913 3.56385e-21)
(0.434893 0.0127778 4.83033e-21)
(0.430583 0.0128612 4.10999e-21)
(0.426497 0.0129479 3.61923e-21)
(0.422616 0.0130413 4.47785e-21)
(0.41892 0.0131427 5.34062e-21)
(0.415379 0.0132507 3.33671e-21)
(0.411957 0.0133616 3.29744e-21)
(0.408458 0.0134691 6.79528e-21)
(0.405012 0.0137537 7.51414e-21)
(0.401618 0.0140894 1.11037e-20)
(0.39826 0.0144486 3.51853e-21)
(0.394932 0.0148235 3.52512e-21)
(0.391632 0.0152099 5.36246e-21)
(0.388357 0.015604 1.08098e-20)
(0.385101 0.016002 1.44027e-20)
(0.38186 0.0164005 1.03558e-20)
(0.378628 0.0167963 1.01438e-20)
(0.375399 0.0171869 6.17046e-21)
(0.372168 0.0175708 6.05155e-21)
(0.368933 0.0179469 9.75736e-21)
(0.365692 0.0183155 9.74958e-21)
(0.362448 0.0186777 5.90157e-21)
(0.359208 0.0190346 2.05217e-21)
(0.355961 0.019383 6.00775e-21)
(0.352703 0.0197207 2.19979e-21)
(0.349426 0.0200468 -1.45353e-21)
(0.346128 0.0203608 -1.11732e-21)
(0.342802 0.0206628 -4.57936e-21)
(0.339444 0.0209531 -3.98058e-21)
(0.336048 0.0212324 -3.34312e-21)
(0.332609 0.0215026 -5.90623e-22)
(0.329122 0.0217662 -2.12392e-21)
(0.32558 0.0220256 4.59673e-21)
(0.321976 0.0222835 9.56246e-22)
(0.318302 0.022542 5.878e-21)
(0.314552 0.0228022 1.47073e-20)
(0.310714 0.0230641 6.3942e-21)
(0.30678 0.0233264 6.86042e-21)
(0.302739 0.0235866 -1.34679e-21)
(0.298582 0.0238409 1.92134e-20)
(0.294297 0.0240848 1.22986e-20)
(0.289875 0.0243137 9.96752e-21)
(0.285307 0.024523 7.814e-22)
(0.280586 0.0247089 6.09313e-21)
(0.275703 0.0248689 2.06257e-20)
(0.270655 0.0250024 1.50165e-22)
(0.265437 0.0251102 5.8199e-21)
(0.260046 0.0251955 1.69693e-21)
(0.254481 0.0252627 1.25859e-20)
(0.248742 0.0253178 1.18274e-20)
(0.242829 0.025367 1.32432e-20)
(0.236743 0.0254168 1.93589e-20)
(0.230486 0.0254726 1.42992e-20)
(0.224058 0.0255389 4.02072e-20)
(0.217462 0.0256185 3.62529e-20)
(0.210699 0.0257128 4.00421e-20)
(0.203769 0.0258219 3.49136e-20)
(0.196673 0.0259454 4.32755e-20)
(0.189411 0.0260827 3.6327e-20)
(0.181985 0.0262335 3.06694e-20)
(0.174393 0.0263984 2.97055e-20)
(0.166636 0.0265789 7.17467e-21)
(0.158712 0.0267776 6.9835e-21)
(0.150621 0.026998 2.57124e-20)
(0.142363 0.0272451 2.08301e-20)
(0.133937 0.0275257 1.57583e-20)
(0.125348 0.0278497 2.16043e-20)
(0.116601 0.0282313 -7.3136e-21)
(0.107707 0.0286914 1.81654e-20)
(0.098684 0.0292608 1.52765e-20)
(0.089557 0.0299833 -5.88842e-20)
(0.0803612 0.030921 -7.3987e-20)
(0.0711431 0.03216 -1.10546e-20)
(0.0619607 0.0338151 -1.63188e-20)
(0.0528819 0.0360343 3.17123e-20)
(0.0439802 0.0389968 -2.50024e-20)
(0.0353258 0.0429008 -2.51335e-20)
(0.0269706 0.0479311 -2.33913e-19)
(0.0189293 0.0541972 -2.54789e-20)
(0.0111669 0.0616502 -7.60076e-20)
(0.0105878 0.12176 -6.92157e-20)
(1.5 -5.76181e-16 2.36375e-22)
(1.5 -1.02089e-15 -5.16261e-23)
(1.5 -1.27527e-15 2.87921e-22)
(1.5 -8.39199e-16 -5.08691e-22)
(1.5 -7.70444e-16 -2.00609e-21)
(1.5 -3.40936e-16 -4.19576e-21)
(1.5 -2.88454e-16 -3.77435e-21)
(1.5 1.84296e-17 -2.7067e-21)
(1.5 5.16454e-16 -4.98044e-21)
(1.5 3.02526e-16 -4.69157e-21)
(1.5 6.45407e-16 -2.92622e-21)
(1.5 4.18895e-16 -5.80384e-21)
(1.5 4.21591e-16 -6.68333e-21)
(1.5 5.50133e-16 -4.96494e-21)
(1.5 2.79111e-16 -5.01226e-21)
(1.5 -3.27705e-17 -4.69111e-21)
(1.5 -2.58438e-16 -7.27885e-21)
(1.5 -4.27055e-16 -4.78786e-21)
(1.5 -6.24698e-16 -6.15349e-21)
(1.5 -7.21119e-16 -6.56133e-21)
(1.5 -6.29224e-16 -6.27976e-21)
(1.5 -4.14505e-16 -6.01036e-21)
(1.5 -3.70473e-16 -5.09536e-21)
(1.5 -5.03409e-16 -4.87075e-21)
(1.35982 0.0060698 -3.88556e-21)
(0.516074 0.012357 2.34462e-22)
(0.50477 0.0122845 1.38195e-21)
(0.498481 0.0127085 -4.29695e-22)
(0.492272 0.01326 -2.10636e-21)
(0.486104 0.0138037 -5.0124e-21)
(0.480013 0.0143007 -4.9093e-21)
(0.474039 0.0147419 -7.8007e-21)
(0.468215 0.0151262 -7.5912e-21)
(0.462561 0.0154544 -8.97695e-21)
(0.457088 0.0157299 -8.834e-21)
(0.451803 0.0159577 -8.59583e-21)
(0.44671 0.0161453 -8.40746e-21)
(0.441814 0.0163013 -8.25734e-21)
(0.437117 0.0164351 -8.87646e-21)
(0.432625 0.0165557 -9.50278e-21)
(0.428342 0.0166714 -9.71651e-21)
(0.424271 0.016789 -9.4802e-21)
(0.420416 0.0169139 -7.5324e-21)
(0.416777 0.0170504 -8.9666e-21)
(0.413356 0.0172014 -6.81436e-21)
(0.410082 0.0174869 -1.38557e-20)
(0.4068 0.0178117 -8.65512e-21)
(0.403525 0.0181618 -1.87349e-21)
(0.400262 0.0185306 4.80354e-21)
(0.397011 0.0189149 6.09355e-21)
(0.393771 0.0193125 3.87016e-21)
(0.390539 0.0197214 -7.13726e-21)
(0.387312 0.0201394 -2.83822e-22)
(0.384085 0.0205642 -1.11099e-20)
(0.380853 0.0209934 -1.12095e-20)
(0.377609 0.0214246 -1.48773e-20)
(0.374348 0.0218555 -1.84364e-20)
(0.371063 0.0222836 -1.84291e-20)
(0.36775 0.0227068 -1.48015e-20)
(0.364402 0.0231232 -1.11034e-20)
(0.361014 0.023532 -1.46879e-20)
(0.357585 0.023933 -2.55071e-20)
(0.354115 0.0243246 -2.15523e-20)
(0.350601 0.0247056 -2.12725e-20)
(0.347046 0.025075 -2.46785e-20)
(0.343448 0.0254325 -2.43063e-20)
(0.33981 0.0257784 -2.38621e-20)
(0.336133 0.0261138 -2.33401e-20)
(0.332418 0.0264407 -1.69136e-20)
(0.328665 0.0267618 -2.60423e-20)
(0.324876 0.0270804 -1.51695e-20)
(0.321051 0.0273999 -2.33e-20)
(0.317187 0.0277234 -2.93814e-20)
(0.313281 0.0280529 -1.93923e-20)
(0.309331 0.0283893 -1.79383e-20)
(0.305328 0.0287319 -1.43864e-20)
(0.301267 0.0290787 -1.55496e-20)
(0.297139 0.0294258 -1.7294e-20)
(0.292933 0.0297684 -2.57216e-20)
(0.288638 0.0301009 -9.99177e-21)
(0.284244 0.0304178 -9.06539e-21)
(0.27974 0.0307139 -3.28357e-21)
(0.275114 0.0309853 -1.47807e-20)
(0.270356 0.0312298 5.28659e-21)
(0.265457 0.0314471 1.00939e-20)
(0.260409 0.0316391 1.89873e-20)
(0.255203 0.0318096 1.82883e-20)
(0.249835 0.0319642 1.75469e-20)
(0.244299 0.0321093 6.39991e-21)
(0.238589 0.0322518 -2.8723e-21)
(0.232701 0.0323982 -1.20148e-20)
(0.226633 0.032554 -2.86264e-20)
(0.220379 0.0327232 -2.03121e-20)
(0.213938 0.0329085 -1.23682e-20)
(0.207306 0.0331117 -5.98788e-21)
(0.200481 0.0333334 -1.92348e-20)
(0.193459 0.0335745 -1.13185e-20)
(0.186239 0.0338361 -5.19165e-21)
(0.17882 0.0341201 1.54093e-20)
(0.171199 0.0344294 -1.81062e-20)
(0.163376 0.0347674 3.65818e-20)
(0.15535 0.0351384 -1.84701e-21)
(0.147122 0.0355474 2.0082e-21)
(0.138692 0.0360004 -4.15473e-22)
(0.130065 0.0365057 -3.80128e-20)
(0.12125 0.0370745 1.21528e-20)
(0.112257 0.0377235 -9.7761e-21)
(0.103106 0.0384776 2.0261e-20)
(0.0938233 0.0393729 7.98611e-20)
(0.0844444 0.0404626 -1.59516e-20)
(0.0750168 0.0418216 4.60298e-20)
(0.0656003 0.0435541 -1.0207e-19)
(0.056266 0.0457987 -5.09585e-20)
(0.0470932 0.0487301 3.28559e-20)
(0.0381614 0.0525517 -7.27844e-20)
(0.0295367 0.0574694 6.15278e-20)
(0.0212507 0.0636325 -1.59309e-19)
(0.0132859 0.0710478 -1.16491e-20)
(0.0129332 0.126757 2.65627e-20)
(1.5 -4.85617e-16 1.60876e-21)
(1.5 -8.33476e-16 1.7002e-21)
(1.5 -1.11846e-15 1.37137e-21)
(1.5 -6.78631e-16 1.15384e-21)
(1.5 -2.57927e-16 4.00053e-21)
(1.5 -4.95819e-17 5.14891e-21)
(1.5 -6.35364e-17 3.45149e-21)
(1.5 7.41377e-16 5.63835e-21)
(1.5 7.31694e-16 3.85141e-21)
(1.5 6.32189e-16 3.60447e-21)
(1.5 5.99664e-16 3.21549e-21)
(1.5 5.69717e-16 4.27568e-21)
(1.5 6.49021e-16 5.24124e-21)
(1.5 6.96289e-16 1.09147e-21)
(1.5 2.49027e-16 -1.33783e-21)
(1.5 1.29677e-16 -9.54675e-22)
(1.5 1.35321e-16 8.31743e-22)
(1.5 -2.54659e-16 -5.01178e-23)
(1.5 -3.17838e-16 1.38845e-22)
(1.5 -5.50152e-16 1.84948e-21)
(1.5 -6.06857e-16 2.09875e-21)
(1.5 -5.59599e-16 2.28127e-21)
(1.5 -4.01875e-16 2.45091e-21)
(1.5 -4.67889e-16 2.62226e-21)
(1.36498 0.00682561 2.98216e-22)
(0.516487 0.0151378 -3.14404e-21)
(0.505115 0.0149783 -4.01532e-21)
(0.498854 0.0154313 -2.30945e-21)
(0.492683 0.0160766 -7.59664e-21)
(0.486581 0.0167299 -1.56495e-20)
(0.480582 0.0173401 -1.37949e-20)
(0.474718 0.0178973 -1.20893e-20)
(0.469014 0.0184001 -1.04155e-20)
(0.463481 0.0188487 -1.02641e-20)
(0.458126 0.0192435 -1.01259e-20)
(0.45295 0.0195869 -8.54826e-21)
(0.447956 0.0198827 -7.00299e-21)
(0.443144 0.0201367 -5.482e-21)
(0.438518 0.0203554 -3.26059e-21)
(0.434084 0.0205463 -1.11155e-21)
(0.429844 0.0207164 -1.31303e-21)
(0.425804 0.0208721 -3.06252e-21)
(0.421966 0.0210186 -3.15358e-21)
(0.418333 0.0211599 -3.26595e-21)
(0.414905 0.0212985 -3.5365e-21)
(0.41161 0.0216709 -3.4633e-21)
(0.408308 0.0220329 -9.94559e-21)
(0.40501 0.022403 -1.96773e-20)
(0.401721 0.0227861 -2.2816e-20)
(0.398443 0.0231834 -2.90585e-20)
(0.395175 0.0235954 -2.86358e-20)
(0.391915 0.0240223 -3.15298e-20)
(0.388661 0.0244638 -2.77306e-20)
(0.385408 0.024919 -2.07017e-20)
(0.382152 0.0253869 -2.38703e-20)
(0.378886 0.0258659 -2.70602e-20)
(0.375605 0.0263536 -1.34037e-20)
(0.372302 0.0268475 -1.6771e-20)
(0.368971 0.0273445 -2.01867e-20)
(0.365606 0.0278416 -2.01332e-20)
(0.362204 0.0283358 -2.00917e-20)
(0.358762 0.0288241 -9.77527e-21)
(0.355276 0.0293033 -2.99612e-21)
(0.351745 0.0297705 -3.31918e-21)
(0.348168 0.0302229 3.30625e-21)
(0.344543 0.030659 -9.46481e-22)
(0.340872 0.0310779 -1.59746e-21)
(0.337155 0.0314798 -2.2976e-21)
(0.333392 0.0318663 -4.6278e-21)
(0.329584 0.03224 -5.49047e-21)
(0.325732 0.0326048 -8.66643e-21)
(0.321836 0.0329649 -8.4463e-21)
(0.317897 0.0333246 -1.75602e-20)
(0.313913 0.0336876 -9.77962e-21)
(0.309883 0.0340569 -1.12256e-20)
(0.305804 0.0344336 -1.14048e-20)
(0.30167 0.0348175 -9.71039e-21)
(0.297477 0.0352064 -8.28721e-21)
(0.293218 0.0355967 -1.37646e-20)
(0.288886 0.0359837 -1.33856e-20)
(0.28447 0.036362 -1.29393e-20)
(0.279964 0.0367263 -1.1938e-20)
(0.275357 0.0370723 -1.22206e-20)
(0.27064 0.0373967 -1.02644e-20)
(0.265806 0.0376983 1.9319e-20)
(0.260844 0.037978 3.7889e-20)
(0.255748 0.0382387 1.6344e-20)
(0.25051 0.0384853 4.57885e-20)
(0.245123 0.0387239 2.031e-20)
(0.23958 0.0389613 6.8794e-20)
(0.233875 0.0392043 5.69734e-20)
(0.228 0.0394588 5.51791e-20)
(0.22195 0.0397296 4.36227e-20)
(0.215718 0.0400203 3.48049e-20)
(0.209298 0.0403332 2.82019e-20)
(0.202683 0.0406702 2.00637e-20)
(0.19587 0.0410331 8.07006e-20)
(0.188851 0.041424 5.17934e-20)
(0.181624 0.0418461 1.6462e-20)
(0.174184 0.0423031 4.01694e-20)
(0.166528 0.0427998 1.83618e-22)
(0.158654 0.043341 3.28126e-20)
(0.150561 0.0439319 2.65908e-20)
(0.142249 0.0445783 2.99533e-20)
(0.133721 0.0452869 1.51608e-20)
(0.124983 0.0460666 4.52296e-21)
(0.116047 0.0469303 -2.0606e-20)
(0.106929 0.0478976 5.78059e-20)
(0.0976526 0.0489975 1.68419e-20)
(0.0882516 0.0502739 6.38951e-21)
(0.0787704 0.0517912 1.9662e-20)
(0.0692662 0.0536416 1.45632e-19)
(0.0598085 0.0559526 -1.18405e-19)
(0.0504777 0.0588917 -1.09443e-19)
(0.0413577 0.0626634 -2.17648e-20)
(0.032524 0.067489 -3.78435e-20)
(0.0240234 0.0735536 -1.94624e-19)
(0.0158568 0.0809172 -1.11485e-19)
(0.0156692 0.132559 2.46936e-19)
(1.5 -1.15027e-16 -1.94899e-21)
(1.5 -3.95417e-16 -2.18966e-21)
(1.5 -8.95046e-16 -2.22101e-21)
(1.5 -9.25382e-16 -4.83193e-21)
(1.5 -1.57917e-16 -6.25133e-21)
(1.5 1.03303e-16 -5.8672e-21)
(1.5 5.4814e-16 -3.85188e-21)
(1.5 6.37131e-16 -6.44616e-21)
(1.5 6.28135e-16 -5.68626e-21)
(1.5 7.56908e-16 -5.61525e-21)
(1.5 8.56239e-16 -4.85626e-21)
(1.5 9.34904e-16 -4.28503e-21)
(1.5 8.68306e-16 -1.08707e-21)
(1.5 8.42954e-16 4.49404e-21)
(1.5 4.76818e-16 7.10204e-21)
(1.5 2.31438e-16 6.98812e-21)
(1.5 1.85508e-16 9.279e-21)
(1.5 8.97341e-18 6.71481e-21)
(1.5 -6.76951e-17 8.00325e-21)
(1.5 -3.17163e-16 1.02978e-20)
(1.5 -3.2663e-16 7.91318e-21)
(1.5 -6.95501e-16 6.69476e-21)
(1.5 -7.63593e-16 6.71993e-21)
(1.5 -7.63305e-16 7.12801e-21)
(1.37008 0.00810827 1.03784e-20)
(0.516421 0.0179769 9.23931e-21)
(0.504947 0.0177634 7.48928e-21)
(0.498668 0.0182888 8.52115e-21)
(0.4924 0.019043 1.32895e-20)
(0.486177 0.0198083 1.76831e-20)
(0.480056 0.0205302 1.53835e-20)
(0.474082 0.021201 1.58377e-20)
(0.468286 0.0218207 1.36226e-20)
(0.46268 0.0223888 1.68887e-20)
(0.457273 0.0229037 1.18699e-20)
(0.452064 0.0233645 9.7825e-21)
(0.447055 0.0237718 9.22552e-21)
(0.442246 0.0241281 5.90796e-21)
(0.437637 0.0244377 5.60913e-21)
(0.43323 0.024706 6.85753e-21)
(0.429026 0.0249392 6.62377e-21)
(0.425026 0.0251435 6.34523e-21)
(0.421227 0.0253247 3.85046e-21)
(0.417628 0.0254877 6.64948e-21)
(0.414224 0.0256365 6.34112e-21)
(0.410926 0.0259943 2.29411e-22)
(0.407629 0.0263626 3.78331e-22)
(0.404345 0.0267416 5.57281e-22)