/*--------------------------------*- C++ -*----------------------------------*\
| =========                 |                                                 |
| \\      /  F ield         | OpenFOAM: The Open Source CFD Toolbox           |
|  \\    /   O peration     | Version:  2.2.x                                 |
|   \\  /    A nd           | Web:      www.OpenFOAM.org                      |
|    \\/     M anipulation  |                                                 |
\*---------------------------------------------------------------------------*/
FoamFile
{
    version     2.0;
    format      ascii;
    class       surfaceScalarField;
    location    "2.4";
    object      phi;
}
// * * * * * * * * * * * * * * * * * * * * * * * * * * * * * * * * * * * * * //

dimensions      [1 0 -1 0 0 0 0];

internalField   nonuniform List<scalar> 
28084
(
0.000746228
0.000742995
0.000740214
0.000737873
0.000735968
0.000734466
0.000733315
0.000732511
0.000732041
0.000731879
0.000731971
0.000732303
0.000732859
0.00073361
0.000734512
0.000735546
0.000736702
0.000737937
0.000739225
0.00074055
0.000741884
0.000743245
0.000744609
0.000745944
0.000747243
0.000748501
0.00074964
0.000750676
0.000751617
0.000752461
0.000753197
0.000753786
0.000754141
0.000754349
0.000754611
0.000754985
0.000755027
0.000754764
0.000754245
0.000753641
0.000753263
0.000753066
0.000752347
0.000743518
0.000735409
0.000753974
0.000775902
0.00080214
0.000831913
0.000861896
0.00088911
0.000913924
0.00093815
0.000960671
0.00098355
0.00100552
0.00102624
0.00104525
0.00106174
0.00107696
0.0010911
0.0011044
0.00111691
0.00112853
0.00113887
0.00114815
0.00115654
0.00116392
0.00117053
0.00117627
0.00118136
0.00118609
0.00119018
0.00119356
0.0011962
0.00119785
0.00119861
0.00119839
0.00119721
0.00119534
0.0011928
0.00118971
0.00118605
0.0011818
0.00117742
0.00117341
0.00116835
0.00116278
0.00115658
0.00115049
0.00114494
0.00113908
0.00113345
0.00112807
0.00112303
0.00111884
0.00111521
0.00111257
0.0011128
0.00111425
0.00111754
0.00112205
0.00112678
0.00113115
0.00113859
0.00115034
0.00116666
0.00119306
0.00122412
0.00128634
0.00127484
0.00119853
0.00110028
0.00100492
0.000897134
0.000771662
0.000604547
0.000368178
3.71043e-06
3.23635e-06
0.000749752
2.7827e-06
0.000748796
2.34305e-06
0.00074828
1.90803e-06
0.000748176
1.50441e-06
0.000748447
1.15338e-06
0.00074908
8.0658e-07
0.000750104
4.696e-07
0.000751461
1.62511e-07
0.000753074
-8.72573e-08
0.000754946
-3.3052e-07
0.000757097
-5.54611e-07
0.000759465
-7.35593e-07
0.000761983
-8.99244e-07
0.000764671
-1.04091e-06
0.000767476
-1.14644e-06
0.000770367
-1.23383e-06
0.000773338
-1.29731e-06
0.000776346
-1.33735e-06
0.00077936
-1.36057e-06
0.00078236
-1.3691e-06
0.000785314
-1.34997e-06
0.000788241
-1.31145e-06
0.000791121
-1.27131e-06
0.000793915
-1.20488e-06
0.000796617
-1.13725e-06
0.00079922
-1.05611e-06
0.000801645
-9.65818e-07
0.000803912
-8.6695e-07
0.000806018
-7.40468e-07
0.000807969
-6.30177e-07
0.000809787
-5.17768e-07
0.000811389
-4.00977e-07
0.000812704
-2.57409e-07
0.000813749
-1.15106e-07
0.00081482
2.46593e-08
0.000815983
1.70005e-07
0.000816775
3.02546e-07
0.00081716
4.98059e-07
0.000817241
6.35172e-07
0.000817308
7.24099e-07
0.000817464
1.03001e-06
0.000817864
6.52277e-06
0.000817627
3.00838e-06
0.000819539
-1.93135e-05
0.000817492
-2.24636e-05
0.00083391
-2.49597e-05
0.000853674
-2.64846e-05
0.000876627
-2.71098e-05
0.000903595
-2.57287e-05
0.000930895
-2.45297e-05
0.000957258
-2.44808e-05
0.000983063
-2.33992e-05
0.00100905
-2.32851e-05
0.00103418
-2.23407e-05
0.00105865
-2.07182e-05
0.00108037
-1.96959e-05
0.00110051
-1.78018e-05
0.00111959
-1.65715e-05
0.0011369
-1.52969e-05
0.00115312
-1.45635e-05
0.00116825
-1.36262e-05
0.00118236
-1.27371e-05
0.00119499
-1.16148e-05
0.00120622
-1.02328e-05
0.00121632
-8.97336e-06
0.0012251
-7.83323e-06
0.00123269
-6.85267e-06
0.00123929
-6.04855e-06
0.0012449
-5.25989e-06
0.00124994
-4.82193e-06
0.0012545
-4.13599e-06
0.00125871
-3.6408e-06
0.00126276
-2.92482e-06
0.00126614
-2.08963e-06
0.0012689
-1.3723e-06
0.00127058
-5.80696e-07
0.001271
2.76866e-07
0.00127023
9.0343e-07
0.00126856
1.55019e-06
0.00126612
2.40703e-06
0.001263
3.19765e-06
0.00125919
4.1503e-06
0.00125489
4.64849e-06
0.00125001
4.69196e-06
0.00124479
5.38652e-06
0.0012397
5.62916e-06
0.00123339
6.10446e-06
0.00122659
5.98927e-06
0.00121939
5.45774e-06
0.00121228
5.91102e-06
0.00120545
5.65682e-06
0.00119865
5.24351e-06
0.00119235
4.78901e-06
0.00118657
3.80935e-06
0.0011812
3.31761e-06
0.00117664
2.15975e-06
0.00117288
-3.46132e-07
0.00116919
-1.57311e-06
0.00116911
-3.6157e-06
0.00116998
-5.11822e-06
0.00117207
-4.15503e-06
0.00117532
-4.48022e-06
0.00117697
-7.20402e-06
0.00117744
-1.11171e-05
0.0011849
-1.55797e-05
0.00119699
-2.68922e-05
0.00121607
-3.01979e-05
0.00124373
-6.21104e-05
0.00126755
1.34391e-05
0.00116076
7.82654e-05
0.000975929
9.95543e-05
0.000793343
9.58316e-05
0.000654513
0.000108127
0.000552721
0.00012604
0.000465075
0.000167761
0.000382821
0.000236438
0.00029112
0.00036778
0.000204662
5.10314e-06
4.19417e-06
0.00075444
3.30089e-06
0.000755738
2.44914e-06
0.000757436
1.64047e-06
0.00075952
8.74833e-07
0.000761983
1.32088e-07
0.000764803
-5.4642e-07
0.000767912
-1.14188e-06
0.00077131
-1.7079e-06
0.000775031
-2.23398e-06
0.000779002
-2.69756e-06
0.00078314
-3.07238e-06
0.000787448
-3.41434e-06
0.000791946
-3.70499e-06
0.000796562
-3.93955e-06
0.000801241
-4.10804e-06
0.000805976
-4.23885e-06
0.000810744
-4.31785e-06
0.000815503
-4.34768e-06
0.000820223
-4.34539e-06
0.00082488
-4.30369e-06
0.00082944
-4.21349e-06
0.000833921
-4.08185e-06
0.000838297
-3.94037e-06
0.000842536
-3.76084e-06
0.000846625
-3.56705e-06
0.00085057
-3.34424e-06
0.00085428
-3.10039e-06
0.000857768
-2.83816e-06
0.00086103
-2.55142e-06
0.00086409
-2.26541e-06
0.000866962
-1.97941e-06
0.000869572
-1.68235e-06
0.000871837
-1.34942e-06
0.000873735
-1.01523e-06
0.000875586
-6.7546e-07
0.000877535
-3.45712e-07
0.000879072
-2.35168e-08
0.000880131
3.55003e-07
0.000880863
6.87047e-07
0.000881539
9.30115e-07
0.000882235
1.51513e-06
0.000883053
3.55549e-06
0.000883269
1.35126e-06
0.000875466
-3.62077e-05
0.000889541
-4.2476e-05
0.000911474
-4.8716e-05
0.000934329
-5.36057e-05
0.000958932
-5.38216e-05
0.000985453
-5.1882e-05
0.00101105
-5.02064e-05
0.00103502
-4.9893e-05
0.00105751
-4.80304e-05
0.00108111
-4.75935e-05
0.00110395
-4.46476e-05
0.001127
-4.13332e-05
0.00114862
-3.8867e-05
0.00116815
-3.50927e-05
0.00118636
-3.23416e-05
0.0012029
-2.99698e-05
0.0012178
-2.83875e-05
0.00123155
-2.63885e-05
0.00124436
-2.44356e-05
0.00125565
-2.21957e-05
0.00126611
-1.97027e-05
0.00127558
-1.73888e-05
0.00128375
-1.52932e-05
0.00129084
-1.32063e-05
0.00129709
-1.17274e-05
0.00130266
-1.02539e-05
0.00130757
-9.30376e-06
0.00131209
-8.27701e-06
0.00131611
-7.05509e-06
0.00131986
-5.47799e-06
0.00132308
-3.8053e-06
0.00132516
-2.18578e-06
0.001326
-4.64048e-07
0.00132595
1.27669e-06
0.00132489
2.75357e-06
0.0013229
4.22302e-06
0.00132019
6.03418e-06
0.00131681
7.53725e-06
0.00131277
9.34386e-06
0.00130809
1.04258e-05
0.00130235
1.04844e-05
0.00129595
1.19459e-05
0.00128952
1.25407e-05
0.00128187
1.32487e-05
0.00127344
1.30342e-05
0.00126463
1.2222e-05
0.00125579
1.28328e-05
0.0012473
1.2247e-05
0.00123877
1.13518e-05
0.00123078
1.03034e-05
0.00122346
8.44386e-06
0.00121658
7.09754e-06
0.00121046
5.48752e-06
0.00120568
-2.92828e-07
0.00120046
-2.65009e-06
0.00119881
-6.2912e-06
0.00119863
-8.66689e-06
0.00119916
-5.71391e-06
0.00120009
-6.21963e-06
0.00119941
-1.40212e-05
0.00120056
-2.25898e-05
0.00120583
-3.4175e-05
0.00121462
-5.59465e-05
0.00123751
-5.03363e-05
0.00123531
4.71107e-05
0.00113231
0.000198287
0.000919963
0.000260388
0.000721118
0.000238398
0.000578246
0.000198096
0.00045781
0.00019641
0.000361872
0.000209001
0.000279537
0.000259968
0.000209864
0.000322952
0.000142542
0.000572101
8.95574e-05
4.21807e-06
2.89913e-06
0.000760318
1.60635e-06
0.000763832
3.67266e-07
0.000767728
-8.20598e-07
0.000771986
-1.94278e-06
0.000776568
-2.97437e-06
0.000781464
-3.94102e-06
0.000786709
-4.86208e-06
0.000792236
-5.67647e-06
0.000797962
-6.36744e-06
0.000803895
-7.00389e-06
0.000810062
-7.56825e-06
0.000816384
-8.02167e-06
0.000822782
-8.3825e-06
0.000829254
-8.67346e-06
0.000835807
-8.87055e-06
0.000842374
-8.99809e-06
0.00084891
-9.04554e-06
0.000855399
-9.01485e-06
0.000861804
-8.93343e-06
0.000868098
-8.79614e-06
0.000874249
-8.5764e-06
0.000880256
-8.29708e-06
0.000886111
-8.00297e-06
0.000891777
-7.65257e-06
0.00089723
-7.26681e-06
0.000902485
-6.85091e-06
0.00090746
-6.39114e-06
0.00091215
-5.91616e-06
0.000916565
-5.41425e-06
0.000920702
-4.90174e-06
0.000924595
-4.3808e-06
0.000928201
-3.84327e-06
0.000931407
-3.27201e-06
0.000934242
-2.69767e-06
0.000936815
-2.10188e-06
0.000939493
-1.54599e-06
0.000941829
-9.90227e-07
0.000943563
-3.79163e-07
0.000944892
2.13851e-07
0.000946113
7.51114e-07
0.000947341
1.53875e-06
0.00094872
8.82892e-06
0.0009494
-1.47483e-05
0.000949535
-5.76101e-05
0.000958085
-6.45265e-05
0.000979635
-7.30915e-05
0.00100465
-8.0146e-05
0.00103144
-7.92991e-05
0.00105821
-7.65702e-05
0.00108459
-7.40423e-05
0.00111109
-7.45816e-05
0.00113643
-7.13077e-05
0.00116188
-7.06211e-05
0.00118589
-6.60913e-05
0.00120974
-6.0809e-05
0.0012314
-5.67397e-05
0.00125176
-5.12678e-05
0.00127021
-4.73423e-05
0.00128596
-4.37907e-05
0.00130084
-4.14336e-05
0.00131376
-3.83435e-05
0.00132552
-3.52277e-05
0.00133567
-3.20031e-05
0.00134497
-2.85041e-05
0.0013534
-2.50542e-05
0.0013606
-2.20196e-05
0.00136697
-1.8841e-05
0.00137231
-1.64082e-05
0.00137667
-1.42635e-05
0.00138015
-1.25845e-05
0.00138281
-1.12007e-05
0.00138479
-9.45521e-06
0.00138646
-6.80319e-06
0.00138759
-4.13222e-06
0.00138784
-1.86268e-06
0.00138685
7.08306e-07
0.00138492
3.37243e-06
0.00138213
5.62053e-06
0.00137853
7.88111e-06
0.00137428
1.05938e-05
0.00136941
1.27491e-05
0.00136378
1.54901e-05
0.0013575
1.7218e-05
0.00135049
1.73477e-05
0.00134303
1.95208e-05
0.00133555
2.05497e-05
0.00132744
2.1487e-05
0.00131849
2.13202e-05
0.00130959
2.02036e-05
0.00130053
2.09627e-05
0.00129157
2.00501e-05
0.00128236
1.84756e-05
0.00127351
1.69114e-05
0.00126529
1.43255e-05
0.0012576
1.19087e-05
0.00125069
1.05317e-05
0.00124443
1.27756e-06
0.00123932
-2.64941e-06
0.00123742
-7.00879e-06
0.00123647
-9.59602e-06
0.00123654
-5.06983e-06
0.00123737
-8.04935e-06
0.00123622
-1.86429e-05
0.00123382
-3.00112e-05
0.00123762
-5.57768e-05
0.0012539
-5.22836e-05
0.00125106
5.47597e-05
0.00111965
0.000261222
0.000858538
0.00039797
0.0006614
0.000403899
0.000530875
0.000359179
0.000432634
0.000294623
0.000344421
0.000279321
0.000264778
0.00027916
0.000197433
0.000327453
0.000142188
0.000375789
9.01232e-05
0.000661533
5.00512e-05
1.08218e-06
-6.12566e-07
0.000767367
-2.2877e-06
0.000773067
-3.88785e-06
0.0007791
-5.39948e-06
0.000785469
-6.8364e-06
0.000792191
-8.21641e-06
0.000799227
-9.46592e-06
0.000806495
-1.0586e-05
0.000814003
-1.16069e-05
0.000821787
-1.25303e-05
0.000829768
-1.3324e-05
0.000837858
-1.39658e-05
0.00084606
-1.44897e-05
0.000854392
-1.49305e-05
0.000862777
-1.52377e-05
0.00087114
-1.54024e-05
0.000879474
-1.54857e-05
0.000887768
-1.54543e-05
0.000895961
-1.53178e-05
0.000904026
-1.51068e-05
0.000911931
-1.48162e-05
0.000919648
-1.44174e-05
0.000927168
-1.39431e-05
0.00093448
-1.3432e-05
0.000941553
-1.28556e-05
0.000948355
-1.22194e-05
0.000954897
-1.15583e-05
0.000961145
-1.08361e-05
0.00096702
-1.00826e-05
0.000972564
-9.31182e-06
0.000977782
-8.51646e-06
0.000982668
-7.70626e-06
0.000987225
-6.89157e-06
0.000991347
-6.0108e-06
0.000995044
-5.13518e-06
0.000998414
-4.27511e-06
0.00100179
-3.39312e-06
0.00100486
-2.56567e-06
0.00100729
-1.68608e-06
0.00100926
-8.09727e-07
0.00101107
-2.02733e-08
0.00101277
1.02303e-06
0.00101457
6.89079e-06
0.00101584
-2.44641e-05
0.00101636
-7.94072e-05
0.00102771
-8.96522e-05
0.0010498
-9.99368e-05
0.00107871
-0.00010799
0.00110925
-0.000105936
0.00113938
-0.00010266
0.00116791
-9.90646e-05
0.00119521
-9.9837e-05
0.00122156
-9.52544e-05
0.00124636
-9.36633e-05
0.0012684
-8.70165e-05
0.0012903
-8.04088e-05
0.00130961
-7.40677e-05
0.00132893
-6.6165e-05
0.00134568
-6.14008e-05
0.0013601
-5.64259e-05
0.00137307
-5.35976e-05
0.00138448
-4.93389e-05
0.00139501
-4.46373e-05
0.00140383
-4.01761e-05
0.00141102
-3.55216e-05
0.00141667
-3.11936e-05
0.00142178
-2.7296e-05
0.00142685
-2.30934e-05
0.00143043
-1.98111e-05
0.00143262
-1.68133e-05
0.0014342
-1.44122e-05
0.00143534
-1.24432e-05
0.00143616
-1.00959e-05
0.00143641
-6.43884e-06
0.00143591
-2.80118e-06
0.00143467
1.42452e-07
0.00143217
3.53546e-06
0.00142847
7.10921e-06
0.00142447
1.01514e-05
0.00141991
1.31652e-05
0.00141476
1.65678e-05
0.00140901
1.92235e-05
0.00140241
2.26976e-05
0.00139491
2.49215e-05
0.00138671
2.53031e-05
0.00137791
2.80521e-05
0.0013689
2.96289e-05
0.00135942
3.03995e-05
0.00134955
3.03312e-05
0.00133982
2.90848e-05
0.00133
2.98445e-05
0.00132042
2.86463e-05
0.0013106
2.63375e-05
0.00130111
2.4172e-05
0.00129226
2.08501e-05
0.00128392
1.79034e-05
0.0012764
1.55015e-05
0.00126957
3.12252e-06
0.00126355
-1.79048e-06
0.00126093
-6.64347e-06
0.00125943
-1.00038e-05
0.0012554
-3.52259e-06
0.00125414
-5.72814e-06
0.00125107
-2.13784e-05
0.00124666
-4.45783e-05
0.00125255
-5.05155e-05
0.00123703
8.14965e-05
0.00107105
0.000317214
0.000794956
0.000458527
0.000622677
0.000528374
0.000508352
0.000501724
0.000434636
0.000447267
0.000368257
0.000374301
0.000301208
0.000346878
0.000233485
0.000334361
0.000175138
0.000379224
0.000128911
0.000415682
7.94681e-05
0.000711538
3.9926e-05
-4.25954e-06
-6.30964e-06
0.000775608
-8.31762e-06
0.000783445
-1.02543e-05
0.000791615
-1.21192e-05
0.000800098
-1.38689e-05
0.000808858
-1.5482e-05
0.000817886
-1.69711e-05
0.000827223
-1.83681e-05
0.000836797
-1.95861e-05
0.000846523
-2.06179e-05
0.000856401
-2.15224e-05
0.000866462
-2.22943e-05
0.000876621
-2.28729e-05
0.000886795
-2.32905e-05
0.000896975
-2.35676e-05
0.000907162
-2.36983e-05
0.000917282
-2.36788e-05
0.000927275
-2.3523e-05
0.000937144
-2.32352e-05
0.000946844
-2.28411e-05
0.000956333
-2.23485e-05
0.000965589
-2.17207e-05
0.000974596
-2.09932e-05
0.000983337
-2.02108e-05
0.000991788
-1.93565e-05
0.000999918
-1.84307e-05
0.00100771
-1.74507e-05
0.00101517
-1.64116e-05
0.00102223
-1.53369e-05
0.00102889
-1.42226e-05
0.00103517
-1.30873e-05
0.00104106
-1.19384e-05
0.00104657
-1.0785e-05
0.0010516
-9.56804e-06
0.00105611
-8.34437e-06
0.00106027
-7.1273e-06
0.00106432
-5.92397e-06
0.00106815
-4.75649e-06
0.00107122
-3.58675e-06
0.00107379
-2.347e-06
0.00107608
-1.1072e-06
0.00107831
5.23868e-08
0.00108048
4.8525e-06
0.00108242
-3.79059e-05
0.00109168
-0.000102574
0.00110641
-0.000119042
0.00112409
-0.000129168
0.00114869
-0.000137681
0.00117923
-0.000134387
0.00120821
-0.000129823
0.00123666
-0.000125539
0.00126483
-0.000125045
0.0012935
-0.000117855
0.00131833
-0.00011555
0.00134131
-0.000106446
0.00136169
-9.91728e-05
0.00138008
-8.97881e-05
0.00139608
-7.92846e-05
0.00140951
-7.28991e-05
0.00142205
-6.70467e-05
0.00143327
-6.37858e-05
0.00144353
-5.8217e-05
0.00145291
-5.22103e-05
0.00146117
-4.67886e-05
0.00146914
-4.10897e-05
0.00147509
-3.56664e-05
0.00147861
-3.0891e-05
0.00148223
-2.54306e-05
0.00148659
-2.12077e-05
0.00148842
-1.75687e-05
0.00148833
-1.46743e-05
0.00148768
-1.17362e-05
0.00148689
-8.8335e-06
0.00148535
-4.64296e-06
0.00148271
-2.4054e-07
0.0014798
3.6522e-06
0.0014759
7.57542e-06
0.00147106
1.20142e-05
0.0014659
1.58353e-05
0.00146015
1.95757e-05
0.00145359
2.36816e-05
0.00144634
2.69268e-05
0.00143809
3.0931e-05
0.00142899
3.37515e-05
0.0014194
3.4488e-05
0.00140931
3.78313e-05
0.00139879
3.97426e-05
0.00138775
4.02688e-05
0.00137659
4.0355e-05
0.0013658
3.88506e-05
0.00135507
3.94913e-05
0.00134456
3.79476e-05
0.00133393
3.49871e-05
0.00132344
3.22664e-05
0.00131343
2.83039e-05
0.00130378
2.48284e-05
0.00129517
2.16814e-05
0.00128667
6.18341e-06
0.00127958
8.84341e-08
0.00127551
-2.12002e-06
0.00127138
-8.75115e-06
0.00126779
-5.10338e-07
0.00126678
-1.35147e-06
0.00125988
-2.63263e-05
0.00126115
-2.6292e-05
0.0012404
0.00011847
0.00106089
0.000357311
0.000774222
0.000490996
0.000586546
0.000574092
0.000472073
0.000602761
0.000398934
0.000568147
0.000355872
0.000514514
0.000315989
0.000442107
0.000265924
0.000405198
0.00020741
0.000380252
0.000153799
0.00042813
0.000118124
0.000454797
7.59351e-05
0.000751322
3.94145e-05
-1.17726e-05
-1.41442e-05
0.000785035
-1.64848e-05
0.000794972
-1.87344e-05
0.000805203
-2.08762e-05
0.000815728
-2.28947e-05
0.000826539
-2.48161e-05
0.000837622
-2.6543e-05
0.000848913
-2.80902e-05
0.000860397
-2.94626e-05
0.000872105
-3.06758e-05
0.000883959
-3.1675e-05
0.00089588
-3.24627e-05
0.000907858
-3.30559e-05
0.000919887
-3.34661e-05
0.000931885
-3.36812e-05
0.000943833
-3.37066e-05
0.000955685
-3.35453e-05
0.000967367
-3.32256e-05
0.000978887
-3.27366e-05
0.000990195
-3.21094e-05
0.00100124
-3.13657e-05
0.001012
-3.04604e-05
0.00102246
-2.94262e-05
0.0010326
-2.8318e-05
0.00104241
-2.71275e-05
0.00105184
-2.58514e-05
0.00106088
-2.45063e-05
0.00106955
-2.30986e-05
0.00107777
-2.16428e-05
0.00108553
-2.01409e-05
0.00109283
-1.86144e-05
0.00109971
-1.70658e-05
0.00110615
-1.55195e-05
0.00111207
-1.39269e-05
0.00111742
-1.22997e-05
0.00112235
-1.06684e-05
0.00112706
-9.09016e-06
0.0011316
-7.5428e-06
0.00113536
-6.01288e-06
0.00113854
-4.40222e-06
0.00114122
-2.76997e-06
0.00114377
-1.48132e-06
0.00114642
-3.72324e-06
0.00114848
-5.24718e-05
0.00114848
-0.000121786
0.00113283
-0.000145498
0.00114776
-0.000159791
0.0011761
-0.000167931
0.0012136
-0.000163591
0.00124821
-0.000157947
0.00128141
-0.000153926
0.00131403
-0.000149971
0.00134495
-0.000140975
0.00137241
-0.000135464
0.00139851
-0.000125202
0.00142025
-0.000116272
0.00144623
-0.000103984
0.00146351
-9.23021e-05
0.00147823
-8.3318e-05
0.00149298
-7.66753e-05
0.00150466
-7.29872e-05
0.00151567
-6.65295e-05
0.00152609
-5.94138e-05
0.00153448
-5.28837e-05
0.00154233
-4.59294e-05
0.00155016
-3.91695e-05
0.00155441
-3.38716e-05
0.00155832
-2.69706e-05
0.00156192
-2.08113e-05
0.00156283
-1.71534e-05
0.00156373
-1.38517e-05
0.00156167
-9.77104e-06
0.00155996
-5.77818e-06
0.00155782
-1.45616e-06
0.00155346
3.91723e-06
0.00154827
8.77767e-06
0.00154239
1.31518e-05
0.00153515
1.82801e-05
0.00152734
2.29706e-05
0.00151951
2.72663e-05
0.001511
3.20848e-05
0.00150148
3.5947e-05
0.00149124
4.03462e-05
0.00148044
4.36699e-05
0.00146958
4.49023e-05
0.00145817
4.90119e-05
0.00144645
5.1066e-05
0.0014335
5.12243e-05
0.00142087
5.13915e-05
0.00140784
4.97126e-05
0.00139564
5.02426e-05
0.0013833
4.83179e-05
0.00137106
4.4804e-05
0.00135898
4.15465e-05
0.00134715
3.66146e-05
0.00133607
3.37252e-05
0.00132563
2.87404e-05
0.00131655
1.07265e-05
0.00130731
4.33816e-06
0.00130189
1.73714e-06
0.00129818
-7.66089e-06
0.00129519
5.15373e-06
0.00128858
-2.00982e-06
0.00128679
-2.85408e-06
0.00127174
0.00015651
0.0010893
0.000406678
0.000793838
0.000542986
0.000596371
0.000604823
0.000463309
0.000647785
0.00037901
0.000646656
0.000327588
0.000608362
0.000297191
0.000565024
0.000269347
0.000500935
0.00023238
0.0004589
0.00018519
0.000415469
0.000138122
0.000469839
0.000102606
0.000491165
6.45099e-05
0.000790515
3.43254e-05
-2.14084e-05
-2.40784e-05
0.00079566
-2.6713e-05
0.000807643
-2.92563e-05
0.000819903
-3.16848e-05
0.000832433
-3.39743e-05
0.000845229
-3.61042e-05
0.000858269
-3.80256e-05
0.000871508
-3.97943e-05
0.000884957
-4.13165e-05
0.000898541
-4.25961e-05
0.000912236
-4.36451e-05
0.000926027
-4.44902e-05
0.000939867
-4.50651e-05
0.000953682
-4.53997e-05
0.000967431
-4.55161e-05
0.000981111
-4.54022e-05
0.000994659
-4.50584e-05
0.00100799
-4.45301e-05
0.00102112
-4.37958e-05
0.001034
-4.28863e-05
0.00104656
-4.18339e-05
0.00105881
-4.06061e-05
0.0010707
-3.92207e-05
0.00108222
-3.77282e-05
0.00109334
-3.61446e-05
0.00110405
-3.44743e-05
0.0011143
-3.27041e-05
0.00112411
-3.08747e-05
0.00113348
-2.8983e-05
0.00114231
-2.70458e-05
0.00115065
-2.50706e-05
0.00115848
-2.30734e-05
0.00116584
-2.1081e-05
0.00117265
-1.90667e-05
0.00117888
-1.69993e-05
0.0011845
-1.49201e-05
0.00118982
-1.28688e-05
0.00119494
-1.08511e-05
0.00119944
-8.86475e-06
0.00120327
-6.83551e-06
0.00120641
-4.84978e-06
0.00120918
-3.05247e-06
0.00121207
-3.59873e-06
0.00121466
-3.77701e-05
0.00120787
-0.000138323
0.00117092
-0.000175413
0.00118355
-0.000197547
0.00122145
-0.000205353
0.00127309
-0.000197994
0.00132116
-0.000190174
0.00136484
-0.000184929
0.00140662
-0.000177651
0.0014445
-0.000169258
0.00147807
-0.000157922
0.00150442
-0.000149608
0.00153388
-0.000134923
0.00155993
-0.000119328
0.00158158
-0.000108751
0.00160775
-9.50381e-05
0.00162453
-8.61531e-05
0.00163429
-8.15219e-05
0.00164692
-7.3807e-05
0.00165914
-6.65705e-05
0.00167083
-5.97254e-05
0.00168183
-4.92395e-05
0.00168881
-4.28439e-05
0.0016958
-3.74347e-05
0.00170214
-2.81238e-05
0.0017038
-2.09769e-05
0.00170561
-1.48301e-05
0.00170621
-1.19575e-05
0.00170617
-7.16938e-06
0.00170226
-1.07428e-06
0.00169874
3.80698e-06
0.00169323
9.89198e-06
0.00168616
1.59439e-05
0.00167816
2.0985e-05
0.00166844
2.62407e-05
0.00165749
3.18258e-05
0.00164569
3.69573e-05
0.00163261
4.25936e-05
0.00161868
4.69952e-05
0.00160403
5.16981e-05
0.00158852
5.56301e-05
0.00157222
5.72083e-05
0.00155576
6.23707e-05
0.00153842
6.39812e-05
0.00152186
6.44507e-05
0.00150478
6.41892e-05
0.00148814
6.24436e-05
0.00147132
6.23291e-05
0.00145447
5.98751e-05
0.00143801
5.57316e-05
0.00142189
5.21297e-05
0.00140652
4.68019e-05
0.00139235
4.16881e-05
0.0013797
3.7718e-05
0.00136793
1.66685e-05
0.00135741
8.19511e-06
0.00134985
4.63854e-06
0.0013444
-1.19481e-06
0.00133532
5.95436e-06
0.00133319
1.61392e-05
0.00131692
0.000183524
0.00113667
0.000451174
0.000844892
0.000604238
0.000652309
0.000676059
0.000524552
0.000689432
0.000427726
0.000699196
0.000351919
0.000677404
0.000301642
0.000636702
0.000270051
0.000602599
0.000241513
0.000548547
0.000209138
0.00050614
0.00016813
0.00045063
0.000126364
0.000507439
9.03266e-05
0.000521247
5.69931e-05
0.000824631
3.23522e-05
-3.31176e-05
-3.60588e-05
0.000807491
-3.897e-05
0.000821471
-4.17832e-05
0.000835712
-4.44779e-05
0.000850205
-4.70115e-05
0.00086492
-4.93412e-05
0.000879847
-5.14726e-05
0.000895008
-5.33746e-05
0.000910342
-5.50076e-05
0.000925783
-5.63882e-05
0.000941331
-5.74749e-05
0.000956919
-5.82944e-05
0.000972535
-5.8826e-05
0.000988116
-5.90654e-05
0.00100359
-5.9043e-05
0.00101895
-5.875e-05
0.00103415
-5.81942e-05
0.00104911
-5.74024e-05
0.0010638
-5.63813e-05
0.00107821
-5.51401e-05
0.00109226
-5.37253e-05
0.00110596
-5.21273e-05
0.00111926
-5.03476e-05
0.00113213
-4.8421e-05
0.00114453
-4.63796e-05
0.00115647
-4.42503e-05
0.00116792
-4.20274e-05
0.00117887
-3.97113e-05
0.0011893
-3.73408e-05
0.0011992
-3.49128e-05
0.00120854
-3.24456e-05
0.00121733
-2.99543e-05
0.00122557
-2.74517e-05
0.00123326
-2.49383e-05
0.00124036
-2.24013e-05
0.00124684
-1.9828e-05
0.00125275
-1.72418e-05
0.00125831
-1.46954e-05
0.00126357
-1.22467e-05
0.00126825
-9.69223e-06
0.00127214
-7.22836e-06
0.00127568
-4.85443e-06
0.00127913
3.26064e-06
0.00128217
-2.89909e-06
0.00127985
-0.000150971
0.00124001
-0.000213803
0.0012586
-0.000249273
0.00131089
-0.000254543
0.00136972
-0.000242859
0.00143426
-0.000232308
0.00149566
-0.000221627
0.00155258
-0.000212752
0.00159845
-0.000199555
0.00164286
-0.000186849
0.00167866
-0.000176399
0.00170846
-0.000155589
0.00174285
-0.000141341
0.0017645
-0.000127309
0.00179214
-0.000107436
0.00180255
-9.87885e-05
0.00181382
-9.1798e-05
0.00182766
-8.33477e-05
0.00183829
-7.50305e-05
0.00184579
-6.53155e-05
0.00185428
-5.61252e-05
0.00185869
-4.87302e-05
0.00186366
-3.87987e-05
0.00186818
-3.04929e-05
0.00186883
-2.13119e-05
0.00186912
-1.40397e-05
0.00186784
-7.80553e-06
0.00186615
-3.43724e-06
0.00186154
4.64363e-06
0.00185453
1.1049e-05
0.0018474
1.79329e-05
0.00183926
2.57217e-05
0.00182977
3.20193e-05
0.00181879
3.81111e-05
0.0018068
4.50384e-05
0.00179347
5.11416e-05
0.00177885
5.76053e-05
0.00176347
6.28504e-05
0.00174718
6.85196e-05
0.00172973
7.29197e-05
0.00171163
7.54485e-05
0.00169265
7.99265e-05
0.00167229
8.19761e-05
0.00165231
8.163e-05
0.00163202
8.1404e-05
0.00161064
7.9662e-05
0.0015892
7.86854e-05
0.00156732
7.56706e-05
0.00154576
7.07504e-05
0.00152499
6.59111e-05
0.00150551
5.90776e-05
0.00148714
5.32102e-05
0.00147085
4.80248e-05
0.00145672
2.43373e-05
0.00144306
1.33123e-05
0.00143206
1.33229e-05
0.00142626
1.4085e-06
0.00142258
2.18954e-05
0.00139515
0.000197092
0.00121936
0.000475764
0.000906497
0.000641852
0.000663267
0.000731485
0.000524251
0.000773565
0.000433097
0.000765421
0.000368067
0.000749448
0.000306916
0.000709172
0.00026758
0.000665671
0.000241298
0.000635624
0.000215125
0.00059004
0.000186674
0.000548169
0.000152957
0.000486482
0.00011679
0.000540512
8.27671e-05
0.000545922
5.34776e-05
0.000856831
2.93258e-05
-4.68443e-05
-5.00356e-05
0.000820542
-5.3208e-05
0.000836463
-5.62737e-05
0.000852609
-5.91897e-05
0.000868987
-6.1935e-05
0.000885605
-6.44998e-05
0.000902441
-6.68055e-05
0.000919423
-6.88124e-05
0.000936539
-7.05541e-05
0.000953811
-7.19788e-05
0.00097116
-7.30768e-05
0.000988512
-7.38611e-05
0.00100586
-7.43128e-05
0.00102315
-7.44247e-05
0.0010403
-7.42223e-05
0.00105731
-7.37169e-05
0.00107412
-7.28983e-05
0.00109066
-7.18045e-05
0.00110687
-7.04539e-05
0.00112277
-6.88398e-05
0.00113827
-6.70122e-05
0.00115337
-6.49882e-05
0.00116804
-6.27679e-05
0.00118222
-6.03662e-05
0.00119589
-5.78198e-05
0.00120901
-5.51743e-05
0.00122161
-5.24339e-05
0.00123366
-4.9593e-05
0.00124515
-4.66869e-05
0.0012561
-4.37269e-05
0.00126642
-4.07204e-05
0.00127613
-3.76905e-05
0.00128524
-3.46325e-05
0.00129374
-3.15766e-05
0.00130164
-2.84882e-05
0.00130892
-2.54308e-05
0.00131558
-2.23535e-05
0.00132157
-1.92825e-05
0.00132716
-1.6242e-05
0.00133225
-1.32225e-05
0.00133665
-1.03395e-05
0.00134015
-7.19361e-06
0.00134334
5.43693e-06
0.00134615
3.58834e-05
0.00135593
-0.00017038
0.00133856
-0.000266781
0.00140434
-0.000309837
0.00149581
-0.000321514
0.00157814
-0.000304121
0.0016542
-0.000289461
0.00172426
-0.000268804
0.00177761
-0.000258184
0.00182457
-0.000240692
0.00186352
-0.000219019
0.00188378
-0.000209953
0.0019098
-0.000175548
0.00193321
-0.000164752
0.00195016
-0.000138761
0.00196166
-0.000121731
0.00196986
-0.000111827
0.0019763
-0.000100956
0.00198376
-9.02204e-05
0.00198629
-8.14284e-05
0.00199207
-6.93808e-05
0.00199456
-6.05684e-05
0.00199542
-5.19523e-05
0.00199605
-3.93683e-05
0.00199721
-3.08393e-05
0.00199557
-2.03919e-05
0.00199374
-1.13188e-05
0.00198978
-3.3385e-06
0.00198533
3.28585e-06
0.00197839
1.18521e-05
0.00196852
1.97955e-05
0.00195944
2.7934e-05
0.0019494
3.70759e-05
0.00193886
4.43429e-05
0.00192733
5.14872e-05
0.0019148
5.97752e-05
0.0019012
6.69068e-05
0.00188634
7.44735e-05
0.0018702
8.07704e-05
0.0018534
8.72767e-05
0.00183579
9.29418e-05
0.00181734
9.69531e-05
0.00179813
0.000101115
0.00177823
0.000103564
0.00175804
0.000103779
0.00173737
0.00010319
0.00171687
0.000101817
0.00169548
0.000100039
0.00167465
9.60551e-05
0.00165411
8.97003e-05
0.00163485
8.36998e-05
0.00161533
7.49628e-05
0.00159608
6.71469e-05
0.00157905
6.17865e-05
0.00156288
3.56434e-05
0.00154862
1.90104e-05
0.00153734
1.761e-05
0.00153496
3.00651e-05
0.00150417
0.000197091
0.00131549
0.00051025
0.000973579
0.000721125
0.000758424
0.000781332
0.000612804
0.000822731
0.000494044
0.000839451
0.000409853
0.000826605
0.000348198
0.000789121
0.000297015
0.000736098
0.000255583
0.000692394
0.000226456
0.000664832
0.000200529
0.000624298
0.000173746
0.000584699
0.000142312
0.000520521
0.000107842
0.000569758
7.52409e-05
0.000570234
4.8902e-05
0.000886081
2.60715e-05
-6.25322e-05
-6.59542e-05
0.000834822
-6.93512e-05
0.000852616
-7.26487e-05
0.000870629
-7.58045e-05
0.000888859
-7.87678e-05
0.0009073
-8.14781e-05
0.000925914
-8.39198e-05
0.000944705
-8.60804e-05
0.000963637
-8.78989e-05
0.000982638
-8.93377e-05
0.00100168
-9.04156e-05
0.00102076
-9.11341e-05
0.0010398
-9.14766e-05
0.00105875
-9.14276e-05
0.00107754
-9.10102e-05
0.00109613
-9.02539e-05
0.0011145
-8.91365e-05
0.00113258
-8.76984e-05
0.00115029
-8.59727e-05
0.00116761
-8.3941e-05
0.00118453
-8.166e-05
0.00120099
-7.91492e-05
0.00121698
-7.64434e-05
0.00123245
-7.35231e-05
0.00124735
-7.0433e-05
0.00126165
-6.72051e-05
0.00127532
-6.3899e-05
0.00128845
-6.04946e-05
0.00130097
-5.69981e-05
0.00131289
-5.34489e-05
0.0013242
-4.98625e-05
0.00133483
-4.62398e-05
0.0013448
-4.25925e-05
0.00135413
-3.89342e-05
0.00136279
-3.52542e-05
0.00137072
-3.1574e-05
0.00137803
-2.79261e-05
0.0013849
-2.42453e-05
0.00139126
-2.06084e-05
0.00139708
-1.67688e-05
0.00140239
-1.33888e-05
0.00140733
-9.63783e-06
0.00141216
-4.03792e-06
0.00141626
5.10797e-05
0.00142508
-0.0002377
0.00162207
-0.000358935
0.00177318
-0.000393903
0.00183416
-0.00039866
0.00186251
-0.000375163
0.00189653
-0.000344648
0.00193223
-0.000317336
0.00197146
-0.000297123
0.00200762
-0.00026662
0.00202946
-0.000244241
0.0020437
-0.000228512
0.00205754
-0.000194522
0.0020669
-0.000175056
0.00207758
-0.000146305
0.00207992
-0.000128503
0.00208954
-0.000118977
0.00208121
-0.000103262
0.00208151
-9.43086e-05
0.00208519
-8.21935e-05
0.00208782
-7.0156e-05
0.00208596
-6.17159e-05
0.00208819
-5.08568e-05
0.00208646
-3.89869e-05
0.00208491
-2.93848e-05
0.00208187
-1.67714e-05
0.00207609
-6.52128e-06
0.00206942
2.9281e-06
0.00206237
1.16992e-05
0.00205405
2.0751e-05
0.00204463
3.00742e-05
0.00203332
3.90351e-05
0.00202185
4.90955e-05
0.00200928
5.75742e-05
0.00199629
6.53157e-05
0.00198309
7.4843e-05
0.00196813
8.3297e-05
0.00195297
9.17827e-05
0.00193683
9.90001e-05
0.00191987
0.000106198
0.00190207
0.000113037
0.00188381
0.000117766
0.00186463
0.000122016
0.00184458
0.000125174
0.00182399
0.00012479
0.0018033
0.000124966
0.00178228
0.000122917
0.00176106
0.000120635
0.00173986
0.000115122
0.00171899
0.000109104
0.00170006
0.000102596
0.00168115
9.16713e-05
0.00166441
8.33709e-05
0.00164777
7.62446e-05
0.00163387
4.73606e-05
0.0016266
2.12844e-05
0.00160236
4.93984e-05
0.00151355
0.000219647
0.00129452
0.000542191
0.00098306
0.000725151
0.00075103
0.000866354