/*--------------------------------*- C++ -*----------------------------------*\
| =========                 |                                                 |
| \\      /  F ield         | OpenFOAM: The Open Source CFD Toolbox           |
|  \\    /   O peration     | Version:  2.2.x                                 |
|   \\  /    A nd           | Web:      www.OpenFOAM.org                      |
|    \\/     M anipulation  |                                                 |
\*---------------------------------------------------------------------------*/
FoamFile
{
    version     2.0;
    format      ascii;
    class       volScalarField;
    location    "2.4";
    object      T;
}
// * * * * * * * * * * * * * * * * * * * * * * * * * * * * * * * * * * * * * //

dimensions      [0 0 0 1 0 0 0];

internalField   nonuniform List<scalar> 
14161
(
0.986162
0.989706
0.988992
0.988722
0.98825
0.987695
0.987072
0.98641
0.985635
0.984792
0.983935
0.983063
0.982078
0.981088
0.980191
0.979195
0.978226
0.977454
0.976568
0.975875
0.975278
0.974583
0.974154
0.973948
0.97392
0.974018
0.974483
0.975058
0.975855
0.976938
0.978428
0.98033
0.982593
0.9851
0.986684
0.989431
0.994088
0.998712
1.00356
1.00783
1.01062
1.01639
1.01827
1.15698
2.67172
2.96365
2.96525
2.93201
2.91149
2.88011
2.85576
2.83218
2.81065
2.78833
2.76797
2.74553
2.72674
2.70797
2.6925
2.68144
2.67066
2.66115
2.65362
2.64701
2.6427
2.6396
2.63876
2.63737
2.63828
2.63923
2.63884
2.63958
2.63359
2.6316
2.62654
2.62306
2.61957
2.61613
2.61292
2.61061
2.6067
2.60324
2.60039
2.59787
2.59641
2.5874
2.58051
2.57454
2.56712
2.56152
2.55156
2.54365
2.53687
2.53078
2.52719
2.52418
2.51973
2.53991
2.51242
2.49946
2.4752
2.43087
2.37625
2.33183
2.27256
2.26308
2.25494
2.25943
2.25597
2.26445
2.48614
2.67723
2.83716
2.93682
3.03364
3.07343
3.13938
3.17681
3.24832
0.986141
0.989704
0.988956
0.988665
0.988252
0.987763
0.987062
0.986344
0.985616
0.984839
0.983913
0.982996
0.982062
0.981062
0.980155
0.979178
0.978214
0.977427
0.976545
0.975845
0.97523
0.97457
0.97413
0.973921
0.973903
0.973992
0.974451
0.975019
0.975826
0.976975
0.978322
0.98023
0.982432
0.984989
0.986605
0.989437
0.993887
0.998605
1.00319
1.00719
1.01035
1.01516
1.022
1.1096
2.63564
2.95394
2.95649
2.92674
2.90883
2.88223
2.85985
2.83866
2.81635
2.79304
2.76961
2.74623
2.72708
2.70786
2.69115
2.67469
2.66105
2.64867
2.6382
2.63059
2.62561
2.62095
2.6203
2.61905
2.62102
2.62261
2.6227
2.62385
2.61777
2.61496
2.60926
2.60459
2.60031
2.59637
2.59267
2.58996
2.58548
2.58148
2.57781
2.57417
2.57138
2.56173
2.55505
2.54961
2.54229
2.53665
2.52674
2.51919
2.51199
2.50505
2.49965
2.49569
2.49104
2.50961
2.48146
2.46654
2.44248
2.39422
2.35352
2.31286
2.24705
2.23455
2.22028
2.23751
2.30145
2.64283
2.83427
3.03987
3.17737
3.21968
3.26999
3.2693
3.26776
3.22822
3.24788
0.986149
0.989705
0.988969
0.988686
0.98823
0.987683
0.987086
0.986457
0.985609
0.984757
0.983934
0.983088
0.98206
0.98107
0.980158
0.979187
0.97822
0.977411
0.976549
0.97583
0.975195
0.97455
0.974099
0.973891
0.973857
0.973927
0.974388
0.974941
0.975737
0.976838
0.978101
0.979919
0.982068
0.984593
0.986439
0.989099
0.993214
0.997934
1.00249
1.00628
1.00943
1.01474
1.0197
1.16955
2.62167
2.94311
2.94108
2.91069
2.89443
2.87118
2.85153
2.83453
2.8147
2.79413
2.77012
2.7457
2.72399
2.70177
2.68499
2.6704
2.65835
2.64688
2.63723
2.63052
2.62403
2.62001
2.61812
2.61596
2.61656
2.61724
2.61527
2.61547
2.6085
2.60365
2.59733
2.59282
2.58756
2.58298
2.57855
2.57485
2.56942
2.56459
2.56015
2.55628
2.55347
2.54425
2.53837
2.53443
2.52877
2.52486
2.51592
2.51016
2.50445
2.49842
2.49421
2.49077
2.48701
2.50478
2.47767
2.46228
2.43852
2.39358
2.35454
2.30458
2.25071
2.24431
2.23297
2.38757
2.63342
2.78558
2.98078
3.07469
3.18548
3.23678
3.28313
3.27629
3.27566
3.22324
3.20987
0.98614
0.989701
0.988952
0.988661
0.988247
0.987759
0.987061
0.986347
0.985621
0.984859
0.983905
0.982977
0.982063
0.981135
0.980134
0.979159
0.978232
0.977365
0.976547
0.975784
0.975115
0.974524
0.974032
0.973817
0.973776
0.973868
0.97423
0.974811
0.975525
0.976582
0.977804
0.979445
0.981585
0.983824
0.985998
0.988355
0.992218
0.996904
1.00123
1.00468
1.00771
1.01195
1.01721
1.11649
2.60837
2.94425
2.9425
2.91409
2.89573
2.87276
2.84876
2.82417
2.7996
2.77712
2.7508
2.72677
2.70388
2.67918
2.66462
2.64811
2.63572
2.62551
2.61712
2.61183
2.60483
2.60054
2.59743
2.59495
2.595
2.59639
2.59585
2.59618
2.59042
2.58681
2.58176
2.57795
2.5737
2.57003
2.56595
2.56241
2.55711
2.55256
2.54846
2.54436
2.54086
2.53174
2.52556
2.52132
2.51423
2.50904
2.4989
2.49295
2.48718
2.48132
2.47724
2.47385
2.47323
2.48639
2.45952
2.44456
2.42024
2.37549
2.3333
2.29176
2.24012
2.2302
2.35047
2.65848
2.8463
2.99933
3.06702
3.12161
3.18343
3.22539
3.27604
3.27562
3.29414
3.21715
3.18462
0.986156
0.989696
0.988985
0.988719
0.988225
0.987657
0.987075
0.986444
0.985595
0.984752
0.983915
0.983058
0.982045
0.981041
0.980117
0.979193
0.978211
0.977309
0.976537
0.97574
0.975032
0.974474
0.97396
0.973727
0.973636
0.973729
0.97394
0.974552
0.975243
0.97613
0.977357
0.978897
0.980912
0.98299
0.985116
0.987226
0.990775
0.995201
0.999576
1.00266
1.00613
1.00999
1.01494
1.1034
2.59728
2.94442
2.93773
2.90774
2.88387
2.85649
2.83345
2.80966
2.78432
2.76439
2.73756
2.71784
2.69256
2.66774
2.65239
2.63511
2.62539
2.61384
2.6064
2.60008
2.5965
2.59856
2.59573
2.59508
2.59666
2.59829
2.59883
2.59992
2.5946
2.59205
2.58711
2.58334
2.58041
2.57724
2.57311
2.5691
2.56384
2.55901
2.55551
2.55097
2.54736
2.53831
2.53343
2.5284
2.52178
2.51591
2.50474
2.49803
2.49158
2.48546
2.48068
2.47645
2.47545
2.48647
2.45993
2.44197
2.42324
2.37634
2.32585
2.29266
2.25071
2.37112
2.69563
2.89046
3.02115
3.05733
3.08893
3.11995
3.16148
3.1967
3.2477
3.25641
3.28959
3.22195
3.17875
0.986163
0.989705
0.988947
0.988654
0.988241
0.987753
0.987054
0.986329
0.985607
0.984849
0.983884
0.98294
0.982042
0.981104
0.98006
0.979122
0.978216
0.977252
0.976492
0.975707
0.974952
0.974404
0.973891
0.97361
0.973471
0.97353
0.973701
0.974235
0.974882
0.975709
0.97676
0.97814
0.979933
0.981936
0.983913
0.985787
0.988785
0.993264
0.997461
1.001
1.00384
1.00762
1.01297
1.086
2.5836
2.9336
2.93702
2.90192
2.87973
2.85325
2.83404
2.80925
2.78429
2.76501
2.73502
2.71854
2.68908
2.67584
2.66069
2.64303
2.62936
2.61629
2.60903
2.60133
2.59453
2.59354
2.59391
2.59032
2.59041
2.59187
2.59335
2.59664
2.59062
2.59105
2.58651
2.58322
2.58074
2.5772
2.57279
2.56945
2.565
2.56148
2.55977
2.55546
2.55249
2.5449
2.54164
2.5373
2.53152
2.52561
2.51483
2.5074
2.50096
2.49502
2.49015
2.48615
2.48539
2.49559
2.46688
2.45443
2.42588
2.3771
2.3472
2.29045
2.37401
2.71163
2.89805
3.04976
3.08879
3.08378
3.1012
3.11684
3.14889
3.17769
3.22574
3.24028
3.27983
3.22083
3.16802
0.986181
0.989704
0.988969
0.98868
0.988218
0.987654
0.987069
0.986419
0.985581
0.984738
0.983887
0.982998
0.982015
0.981075
0.98003
0.979106
0.978219
0.977205
0.976424
0.975646
0.974856
0.974276
0.973818
0.973484
0.973275
0.973263
0.97338
0.973789
0.974384
0.975117
0.976005
0.977183
0.978698
0.980519
0.98238
0.983856
0.986209
0.990511
0.994723
0.999389
1.00288
1.00835
1.01774
1.11849
2.62139
2.96693
2.9629
2.92456
2.89723
2.86927
2.84393
2.81458
2.78973
2.76129
2.73701
2.70644
2.67783
2.66092
2.6352
2.61592
2.60668
2.58898
2.5832
2.57139
2.55998
2.55621
2.54778
2.54532
2.54568
2.53986
2.54288
2.5484
2.54041
2.5395
2.53806
2.53577
2.53512
2.5358
2.53387
2.53202
2.53043
2.52914
2.52935
2.52618
2.52394
2.51822
2.51531
2.51178
2.51014
2.50498
2.49626
2.49107
2.48666
2.48247
2.47955
2.47581
2.47426
2.48416
2.45558
2.44035
2.40375
2.383
2.32955
2.35947
2.6852
2.89924
3.00669
3.07502
3.08881
3.09186
3.10368
3.11104
3.13664
3.16215
3.20559
3.22507
3.27336
3.21806
3.15842
0.986203
0.989721
0.988976
0.988687
0.988224
0.987674
0.987072
0.986339
0.98559
0.984803
0.983891
0.982933
0.982023
0.981095
0.980001
0.979074
0.9782
0.977163
0.976353
0.975571
0.974763
0.974118
0.97369
0.973345
0.973044
0.972963
0.973063
0.973267
0.973811
0.974382
0.975147
0.976003
0.977246
0.978677
0.980368
0.981796
0.983505
0.986475
0.989997
0.994392
1.00059
1.00826
1.01504
1.14016
2.62735
2.9999
2.9736
2.92735
2.89905
2.87083
2.83595
2.80598
2.76971
2.73771
2.70955
2.66338
2.64029
2.59653
2.56163
2.54771
2.53031
2.51606
2.5063
2.48624
2.48443
2.47344
2.45851
2.46767
2.46163
2.4568
2.45392
2.46194
2.45537
2.45229
2.45189
2.45016
2.44951
2.45132
2.45043
2.45098
2.45078
2.45123
2.45299
2.45215
2.45128
2.45139
2.44576
2.44552
2.44309
2.44006
2.43447
2.43174
2.43016
2.42864
2.42691
2.42453
2.42358
2.43023
2.4093
2.3995
2.38323
2.35097
2.37744
2.67114
2.81798
2.97016
3.00103
3.02573
3.05355
3.0733
3.09334
3.10312
3.12309
3.14733
3.18644
3.21019
3.26157
3.21508
3.15079
0.986232
0.989734
0.988978
0.988671
0.988247
0.987745
0.987067
0.98634
0.985593
0.984764
0.983904
0.982935
0.982001
0.981083
0.979986
0.979042
0.978142
0.977161
0.97628
0.975487
0.974657
0.973932
0.973475
0.97315
0.972836
0.972577
0.972576
0.972711
0.973042
0.973525
0.974068
0.974703
0.97549
0.976423
0.977601
0.978831
0.979657
0.981007
0.983005
0.986875
0.98986
0.996429
1.0068
1.08162
2.56763
3.01444
2.95893
2.91572
2.86316
2.81461
2.7616
2.71854
2.67049
2.63432
2.60786
2.55319
2.53623
2.47568
2.46007
2.44146
2.41883
2.39951
2.39926
2.37631
2.3811
2.36649
2.35633
2.3682
2.35945
2.35718
2.3562
2.36158
2.36099
2.35577
2.35498
2.3544
2.35307
2.35427
2.35462
2.35514
2.35497
2.35626
2.35859
2.35849
2.35853
2.35991
2.35545
2.35651
2.35816
2.35639
2.35354
2.35202
2.35282
2.35109
2.35267
2.35528
2.35452
2.36679
2.35543
2.34751
2.31309
2.4062
2.65373
2.76803
2.94151
2.97816
2.99623
3.02133
3.04471
3.07286
3.09556
3.10186
3.1109
3.13162
3.1675
3.19661
3.25114
3.21099
3.14246
0.986262
0.989739
0.989013
0.988729
0.988244
0.987667
0.987087
0.986433
0.985595
0.984743
0.983891
0.982931
0.981986
0.981061
0.979991
0.979003
0.978089
0.977125
0.976198
0.97538
0.974535
0.973758
0.973222
0.972897
0.972615
0.972224
0.972029
0.972068
0.97218
0.972483
0.97286
0.973234
0.973681
0.974113
0.974663
0.975226
0.975786
0.976332
0.976785
0.977477
0.978312
0.977556
0.975719
0.979655
2.37491
3.00464
2.86984
2.7978
2.72896
2.67242
2.63089
2.59048
2.52464
2.51567
2.47032
2.4504
2.40923
2.3839
2.37542
2.34838
2.32932
2.32868
2.31398
2.3063
2.30982
2.29618
2.29551
2.30089
2.29543
2.29872
2.29928
2.30451
2.30556
2.29914
2.2983
2.29784
2.29563
2.29631
2.2959
2.29486
2.29415
2.29436
2.29479
2.29348
2.29197
2.29055
2.28609
2.28761
2.28614
2.28464
2.28045
2.27893
2.27898
2.28078
2.28523
2.28926
2.29641
2.31002
2.30541
2.31784
2.38396
2.63856
2.7616
2.86415
2.82469
2.87454
2.9107
2.95439
2.99809
3.04574
3.08089
3.09621
3.10007
3.11882
3.15215
3.183
3.23782
3.20721
3.13326
0.986298
0.98977
0.98902
0.988723
0.988247
0.987723
0.987078
0.986361
0.985607
0.984814
0.983915
0.982941
0.981972
0.981033
0.980004
0.978964
0.978018
0.977085
0.976118
0.975255
0.974407
0.973598
0.972939
0.972576
0.97228
0.971908
0.971433
0.971287
0.97127
0.971301
0.971433
0.971561
0.971656
0.971631
0.971498
0.971191
0.970258
0.968868
0.96665
0.963324
0.95713
0.949493
0.935618
0.939474
1.60988
2.76381
2.68145
2.61396
2.54178
2.51903
2.50243
2.46297
2.42914
2.43714
2.38006
2.39799
2.33085
2.34373
2.31849
2.30578
2.3028
2.29423
2.28507
2.28618
2.27826
2.27327
2.27442
2.27253
2.2755
2.2776
2.27952
2.28582
2.28424
2.28348
2.28132
2.2835
2.28071
2.28027
2.28161
2.27778
2.2755
2.27329
2.27271
2.26917
2.26667
2.26499
2.26093
2.26096
2.26116
2.25865
2.25587
2.25402
2.25628
2.25887
2.26227
2.27206
2.28432
2.29945
2.36807
2.53505
2.71187
2.80639
2.88578
2.89617
2.85232
2.86751
2.89459
2.9285
2.97257
3.02897
3.07317
3.09405
3.09005
3.10498
3.13667
3.16894
3.22535
3.19986
3.12398
0.986337
0.989789
0.989033
0.988725
0.988292
0.98773
0.987085
0.986407
0.985617
0.984775
0.983936
0.982969
0.981965
0.981018
0.980034
0.978935
0.977958
0.977038
0.976058
0.975096
0.974264
0.973414
0.972688
0.972172
0.971899
0.971575
0.970851
0.970432
0.970248
0.970087
0.969886
0.969715
0.96961
0.969379
0.968801
0.968177
0.96646
0.964157
0.962035
0.959002
0.956886
0.955794
0.954479
0.97317
1.96135
2.35826
2.44963
2.53692
2.47332
2.45941
2.421
2.41356
2.39402
2.38382
2.37395
2.35176
2.34475
2.30387
2.35943
2.28912
2.30269
2.30803
2.30009
2.29788
2.29352
2.29431
2.29329
2.29222
2.29414
2.29464
2.2982
2.30499
2.30354
2.30011
2.29741
2.29856
2.29442
2.29361
2.29354
2.28879
2.28519
2.28186
2.28031
2.27701
2.27272
2.27024
2.2657
2.26413
2.26603
2.26281
2.26251
2.26296
2.27391
2.28103
2.29674
2.33631
2.40099
2.52607
2.66302
2.78813
2.90415
2.95361
2.89404
2.8034
2.765
2.78608
2.83587
2.88034
2.93675
3.00244
3.05853
3.08688
3.08003
3.09295
3.12304
3.15611
3.21239
3.1934
3.11432
0.986379
0.989797
0.989069
0.988776
0.988297
0.987727
0.987115
0.986417
0.985638
0.984785
0.983938
0.982998
0.981972
0.981003
0.980043
0.978908
0.977888
0.976972
0.975977
0.97495
0.974079
0.973205
0.97241
0.971733
0.971413
0.970991
0.970414
0.969583
0.969124
0.968777
0.968395
0.967882
0.967368
0.966983
0.966177
0.96489
0.962234
0.958295
0.953109
0.944442
0.932106
0.908696
0.875714
0.831116
1.61952
2.21412
2.31091
2.29803
2.36418
2.42019
2.40733
2.41233
2.43523
2.40471
2.41974
2.36658
2.39824
2.32113
2.35995
2.34977
2.33531
2.34712
2.32669
2.32451
2.32463
2.32479
2.32461
2.32476
2.32425
2.32242
2.32549
2.32966
2.3272
2.32257
2.32142
2.32174
2.32083
2.31937
2.3176
2.31555
2.31201
2.30924
2.30732
2.30529
2.29912
2.29964
2.29454
2.29796
2.30514
2.3077
2.32029
2.33478
2.37859
2.42422
2.5087
2.61992
2.72867
2.8078
2.93677
2.98826
3.02308
2.95082
2.89996
2.84526
2.78399
2.78562
2.8316
2.87229
2.92906
2.99164
3.05026
3.08236
3.07363
3.08263
3.11067
3.14353
3.19977
3.18505
3.10564
0.986425
0.98984
0.989089
0.988786
0.988307
0.987776
0.98713
0.986433
0.985667
0.984805
0.983948
0.983029
0.98197
0.98098
0.980022
0.978911
0.977823
0.976891
0.97588
0.974789
0.97389
0.972985
0.972103
0.971336
0.970817
0.970381
0.96988
0.968758
0.968023
0.967476
0.966886
0.966199
0.965321
0.964825
0.964064
0.962734
0.961083
0.95817
0.957038
0.954943
0.960296
0.95311
1.00406
1.22796
1.9937
2.21011
2.18133
2.34125
2.36471
2.51253
2.48814
2.51149
2.51581
2.48005
2.47761
2.42504
2.46414
2.36403
2.38971
2.379
2.36545
2.37872
2.35326
2.34895
2.34644
2.34467
2.34667
2.34875
2.34917
2.35083
2.35287
2.3582
2.35533
2.3516
2.35007
2.348
2.34895
2.34776
2.34398
2.34198
2.33823
2.34089
2.34148
2.34283
2.34046
2.35213
2.35824
2.38832
2.41694
2.45965
2.51738
2.60163
2.68571
2.77899
2.85505
2.92131
3.01258
3.03297
3.06941
3.05229
3.00985
2.94072
2.86883
2.79452
2.74334
2.75346
2.80961
2.85045
2.91174
2.98449
3.04581
3.07877
3.06875
3.07318
3.09936
3.13196
3.18768
3.17686
3.09657
0.986474
0.989873
0.989114
0.988796
0.98836
0.987804
0.987146
0.986469
0.985709
0.984838
0.98396
0.983064
0.981981
0.980962
0.979995
0.978909
0.977769
0.97678
0.975775
0.974627
0.973677
0.972742
0.971779
0.970932
0.970174
0.969698
0.969072
0.968107
0.966943
0.966149
0.965412
0.964589
0.963593
0.96273
0.962188
0.961053
0.960096
0.95794
0.957386
0.957744
0.962244
0.965038
1.01482
1.81535
2.17057
2.21197
2.19698
2.18423
2.29847
2.44725
2.46019
2.55776
2.48921
2.54595
2.47097
2.49104
2.40192
2.42161
2.36969
2.376
2.38073
2.36279
2.35506
2.34806
2.34641
2.34502
2.34884
2.35271
2.35493
2.36085
2.36267
2.36965
2.37001
2.36941
2.36797
2.37006
2.36757
2.37816
2.37617
2.38348
2.3869
2.40321
2.42057
2.45051
2.47553
2.52579
2.58062
2.65342
2.73527
2.80795
2.87282
2.92551
2.98109
3.03552
3.07016
3.09134
3.1219
3.10492
3.08282
3.0435
3.00611
2.9421
2.89121
2.8197
2.76639
2.77133
2.81996
2.85702
2.90895
2.97683
3.0426
3.07721
3.0654
3.06491
3.0889
3.12071
3.1754
3.16828
3.08918
0.986526
0.989904
0.989159
0.988856
0.988382
0.987815
0.98719
0.986496
0.985742
0.984874
0.98398
0.983083
0.982005
0.980951
0.979974
0.9789
0.977713
0.976664
0.975639
0.974496
0.973442
0.972471
0.971435
0.970466
0.969587
0.968912
0.96823
0.967437
0.965918
0.964878
0.964018
0.96309
0.962123
0.960939
0.960356
0.959551
0.958276
0.957399
0.953297
0.949602
0.941898
0.930338
0.914332
1.92654
2.18959
2.20293
2.17821
2.18152
2.21161
2.21403
2.42705
2.48595
2.5762
2.53764
2.50641
2.48978
2.44476
2.46696
2.37533
2.37954
2.39477
2.36652
2.37936
2.37008
2.37153
2.37041
2.37644
2.37871
2.38073
2.38395
2.39421
2.39848
2.40321
2.40642
2.41339
2.42124
2.44004
2.46019
2.47876
2.50881
2.54605
2.59255
2.6569
2.72261
2.78742
2.84697
2.89318
2.94682
2.99201
3.03687
3.07282
3.09107
3.11908
3.13696
3.1473
3.132
3.12584
3.10438
3.0781
3.04047
2.99475
2.93669
2.8721
2.80193
2.75696
2.75641
2.80883
2.85188
2.90789
2.97528
3.04113
3.07567
3.06313
3.05721
3.07892
3.10998
3.16376
3.15971
3.08184
0.986581
0.989943
0.989194
0.988888
0.988407
0.987882
0.987232
0.986517
0.985778
0.984914
0.984001
0.983095
0.982054
0.980952
0.979949
0.978891
0.977662
0.976535
0.975489
0.974376
0.973173
0.972153
0.971108
0.969993
0.968968
0.968049
0.967384
0.966563
0.965079
0.96363
0.962587
0.961584
0.960584
0.959498
0.958492
0.95816
0.957285
0.956884
0.955867
0.957497
0.949521
0.968493
1.05452
2.04373
2.21234
2.22405
2.21735
2.22715
2.19834
2.20245
2.31384
2.39638
2.58197
2.5404
2.59398
2.47383
2.48906
2.45625
2.38126
2.41094
2.41631
2.37828
2.40467
2.39203
2.39869
2.39953
2.41179
2.41869
2.4247
2.44035
2.46076
2.47641
2.50066
2.52198
2.55187
2.59267
2.63666
2.68983
2.74566
2.79304
2.84164
2.8816
2.92903
2.97125
3.01327
3.03903
3.06636
3.08678
3.11685
3.13162
3.14441
3.14629
3.14681
3.14715
3.14318
3.13014
3.11928
3.09736
3.06993
3.03703
2.9924
2.93988
2.88204
2.8222
2.77354
2.76704
2.8115
2.85655
2.91073
2.97558
3.04053
3.075
3.06127
3.0498
3.06873
3.09944
3.15291
3.15105
3.07547
0.986639
0.989981
0.989227
0.988908
0.988469
0.987925
0.987271
0.986572
0.985825
0.984969
0.984028
0.983113
0.982107
0.980973
0.979914
0.978854
0.977637
0.976416
0.975333
0.974232
0.972916
0.971817
0.970745
0.969464
0.968331
0.967235
0.966417
0.965527
0.964516
0.962581
0.961249
0.960153
0.959171
0.958214
0.957288
0.957156
0.957189
0.958304
0.960156
0.966348
0.972471
1.01752
1.61019
2.25586
2.27776
2.26056
2.24568
2.23659
2.21942
2.2203
2.19905
2.31478
2.43053
2.46189
2.5909
2.47159
2.47954
2.41778
2.39775
2.43028
2.43345
2.40513
2.43463
2.43592
2.4563
2.46713
2.49353
2.51486
2.54178
2.59216
2.62573
2.6787
2.73346
2.7825
2.82371
2.86529
2.89922
2.94266
2.98042
3.01639
3.04407
3.07132
3.08501
3.10186
3.11489
3.12055
3.13231
3.13335
3.14066
3.14322
3.14449
3.14043
3.14095
3.13846
3.13778
3.13085
3.11742
3.09616
3.06847
3.03288
2.98975
2.94087
2.88136
2.82236
2.77742
2.76954
2.81293
2.86052
2.9141
2.97762
3.03928
3.07281
3.06014
3.0426
3.05877
3.08964
3.14218
3.14208
3.06739
0.9867
0.990021
0.989281
0.988978
0.988506
0.987951
0.987338
0.986613
0.985872
0.985038
0.98407
0.983131
0.982151
0.980994
0.979889
0.978815
0.977613
0.976309
0.975163
0.974023
0.972714
0.971457
0.970322
0.969
0.967654
0.966446
0.965301
0.964557
0.963492
0.961986
0.959984
0.958682
0.957628
0.956522
0.955461
0.954214
0.953553
0.953132
0.952637
0.954256
0.949789
0.974873
1.92882
2.27536
2.2866
2.2679
2.25826
2.25264
2.23738
2.21961
2.21683
2.2275
2.22117
2.43713
2.48437
2.53945
2.48984
2.46781
2.45351
2.46809
2.48461
2.46551
2.52122
2.54716
2.59831
2.64408
2.68836
2.73789
2.79123
2.83754
2.87978
2.92323
2.96007
3.00597
3.04555
3.07223
3.08155
3.091
3.10126
3.111
3.11826
3.12597
3.12934
3.13139
3.13287
3.12975
3.13134
3.12857
3.1341
3.13597
3.139
3.13667
3.13715
3.13307
3.13125
3.1228
3.11201
3.09148
3.06579
3.03529
2.99203
2.94564
2.88811
2.83497
2.78909
2.7807
2.81891
2.86735
2.9194
2.97943
3.04009
3.07185
3.0598
3.03482
3.04893
3.08074
3.13183
3.13311
3.06121
0.986765
0.990067
0.989328
0.989027
0.988546
0.988031
0.987397
0.986666
0.985921
0.985111
0.984123
0.983162
0.982188
0.981023
0.979868
0.978792
0.97758
0.976206
0.97497
0.973805
0.972529
0.971092
0.969894
0.968557
0.966919
0.96559
0.964237
0.963389
0.962377
0.961365
0.959053
0.957333
0.956137
0.954924
0.95362
0.951924
0.949475
0.94514
0.941331
0.933606
0.918873
0.893192
1.98219
2.25534
2.28258
2.27503
2.27923
2.268
2.26334
2.24797
2.24033
2.24184
2.22357
2.31449
2.4277
2.60786
2.44677
2.55289
2.52111
2.59375
2.65814
2.68737
2.75335
2.81402
2.84798
2.88574
2.91973
2.96023
3.00794
3.04713
3.06579
3.07401
3.07932
3.09609
3.11183
3.123
3.12694
3.13067
3.13197
3.13137
3.12914
3.12462
3.12224
3.1223
3.12764
3.12657
3.12841
3.1278
3.13031
3.1309
3.13361
3.13113
3.13032
3.12822
3.12885
3.11991
3.10952
3.08898
3.06339
3.03207
2.99182
2.94703
2.89319
2.844
2.79858
2.78934
2.82522
2.87428
2.92564
2.98272
3.03996
3.06903
3.05692
3.02799
3.03952
3.06966
3.12166
3.12257
3.05596
0.986832
0.990114
0.989374
0.989065
0.988621
0.988089
0.98747
0.986739
0.985978
0.985188
0.984187
0.983204
0.982222
0.981074
0.979861
0.978764
0.977558
0.976114
0.974771
0.97361
0.972299
0.970774
0.969431
0.968098
0.966285
0.964716
0.963308
0.962049
0.961271
0.960012
0.958729
0.956171
0.954642
0.953374
0.95225
0.951136
0.950236
0.948546
0.949885
0.943061
0.962653
1.08426
2.10447
2.29645
2.30688
2.31414
2.31298
2.30156
2.28876
2.27931
2.25905
2.25127
2.25264
2.20164
2.47834
2.62633
2.62942
2.73399
2.75057
2.81217
2.87423
2.91617
2.95071
2.99001
3.0101
3.02382
3.04695
3.06895
3.08371
3.09721
3.10367
3.10849
3.11285
3.12105
3.1262
3.12683
3.12194
3.12404
3.12478
3.12555
3.12385
3.12069
3.11748
3.11589
3.12098
3.12149
3.12395
3.12241
3.12273
3.12347
3.1266
3.12627
3.12421
3.12166
3.12226
3.11353
3.10239
3.083
3.05932
3.03058
2.99311
2.94939
2.89884
2.85247
2.80819
2.79929
2.83281
2.88107
2.9301
2.98398
3.04092
3.0674
3.05467
3.02078
3.03075
3.05908
3.11207
3.11311
3.05023
0.986903
0.990162
0.989441
0.989147
0.988665
0.988148
0.987551
0.986814
0.986046
0.985263
0.984267
0.983254
0.982269
0.981132
0.979876
0.978729
0.977535
0.976037
0.974613
0.97336
0.972013
0.970533
0.968945
0.967531
0.965847
0.963878
0.962307
0.960757
0.959873
0.958824
0.957559
0.955829
0.953451
0.952329
0.951985
0.951734
0.952225
0.953149
0.957101
0.960397
0.988612
1.57525
2.32043
2.35666
2.34525
2.336
2.33069
2.32653
2.32258
2.31346
2.3034
2.31892
2.34278
2.33016
2.65339
2.76236
2.88172
2.95866
3.0072
3.03523
3.03818
3.05103
3.05812
3.07335
3.08419
3.09026
3.09651
3.10155
3.10325
3.10571
3.10108
3.10209
3.10414
3.11202
3.11693
3.11913
3.11505
3.11437
3.11681
3.12006
3.11879
3.11632
3.11242
3.11124
3.11478
3.11784
3.1228
3.12018
3.11805
3.11737
3.12093
3.12064
3.11782
3.11589
3.11586
3.1072
3.09634
3.07842
3.05636
3.02942
2.99373
2.95113
2.90329
2.85744
2.81333
2.80853
2.84051
2.88888
2.93721
2.9873
3.03878
3.06322
3.05077
3.01201
3.02165
3.0484
3.10259
3.10345
3.04684
0.986978
0.990219
0.989503
0.989217
0.988754
0.98821
0.987636
0.986903
0.986122
0.985335
0.984367
0.983315
0.982333
0.981202
0.979902
0.978706
0.977501
0.976011
0.974487
0.973097
0.971764
0.970256
0.968441
0.966974
0.965408
0.96316
0.961292
0.959738
0.958248
0.957459
0.956143
0.955131
0.952605
0.950691
0.949757
0.948856
0.948069
0.948041
0.948777
0.9484
0.964359
1.96954
2.34999
2.36442
2.34542
2.33775
2.32916
2.32488
2.32438
2.3241
2.31483
2.36976
2.44296
2.55821
2.83537
2.99796
3.0568
3.05738
3.0715
3.08118
3.0936
3.09785
3.1041
3.10918
3.11246
3.10999
3.10627
3.1031
3.09923
3.10008
3.09365
3.092
3.09131
3.09645
3.09877
3.10177
3.10169
3.10504
3.10715
3.11033
3.10821
3.1074
3.1043
3.1038
3.10679
3.11048
3.11755
3.1162
3.11403
3.11317
3.11692
3.11787
3.11403
3.11243
3.11124
3.10272
3.09145
3.07375
3.05194
3.02531
2.99161
2.95149
2.90856
2.86407
2.82324
2.81528
2.84516
2.89222
2.93723
2.98584
3.03667
3.0598
3.04622
3.00419
3.01317
3.03883
3.09243
3.09407
3.04103
0.987059
0.990279
0.989572
0.989293
0.988838
0.98829
0.987718
0.98701
0.986205
0.985419
0.984478
0.983398
0.982401
0.981284
0.979936
0.978686
0.977473
0.976018
0.974366
0.972849
0.971525
0.969973
0.967985
0.966348
0.964765
0.96283
0.960387
0.958503
0.956824
0.955619
0.954711
0.953314
0.952136
0.949861
0.947795
0.946361
0.944675
0.942991
0.939341
0.933267
0.929548
1.96315
2.34241
2.36221
2.35397
2.35193
2.35156
2.35194
2.35449
2.35936
2.34718
2.47433
2.62941
2.84251
3.01295
3.09044
3.10413
3.10529
3.10971
3.10773
3.10841
3.10673
3.10627
3.10569
3.10462
3.09944
3.09338
3.08807
3.08404
3.0819
3.07667
3.07297
3.0691
3.07117
3.07434
3.08042
3.08639
3.09252
3.09601
3.10003
3.09924
3.09967
3.09816
3.09841
3.10101
3.10542
3.11557
3.11628
3.11396
3.11247
3.11635
3.11729
3.11333
3.10994
3.10612
3.09701
3.08537
3.06785
3.04736
3.02229
2.99079
2.95252
2.90945
2.86426
2.82715
2.82364
2.8548
2.90305
2.94562
2.98942
3.03181
3.05403
3.03922
2.99547
3.00469
3.02926
3.08323
3.0851
3.03948
0.987143
0.990346
0.989646
0.989374
0.988929
0.988374
0.987807
0.987131
0.986306
0.985511
0.9846
0.983501
0.982473
0.981376
0.979988
0.978676
0.977472
0.97604
0.974263
0.972622
0.971292
0.969693
0.967572
0.965661
0.96416
0.962437
0.959733
0.957354
0.955551
0.953759
0.952727
0.951682
0.950136
0.949106
0.9458
0.944145
0.942268
0.94131
0.934927
0.94085
0.970103
2.11804
2.35123
2.36079
2.36202
2.36212
2.36255
2.36235
2.38216
2.41682
2.42982
2.67541
2.85076
3.02949
3.10539
3.11435
3.11057
3.10936
3.11207
3.10784
3.10786
3.10588
3.10679
3.10341
3.09831
3.09208
3.08575
3.08035
3.07495
3.07042
3.06704
3.06296
3.05579
3.05133
3.05326
3.06048
3.06818
3.07825
3.08424
3.08905
3.08934
3.09088
3.09135
3.09184
3.095
3.09971
3.11019
3.11325
3.1117
3.10965
3.11307
3.1136
3.10957
3.10613
3.10024
3.09083
3.0797
3.06303
3.04312
3.0183
2.98691
2.95018
2.91393
2.87472
2.83344
2.82582
2.85526
2.90525
2.94582
2.98834
3.0301
3.0504
3.03264
2.98751
2.99682
3.0205
3.07399
3.07605
3.03234
0.987235
0.990417
0.989728
0.989461
0.989025
0.988478
0.987904
0.987253
0.986428
0.98561
0.984728
0.983621
0.982562
0.981477
0.980068
0.978695
0.977486
0.976094
0.974203
0.972476
0.971004
0.96939
0.967222
0.965093
0.963313
0.961702
0.959647
0.956472
0.954103
0.952296
0.950399
0.949543
0.948493
0.947361
0.946644
0.946066
0.946598
0.95027
0.950517
0.974319
1.38477
2.3119
2.3824
2.37393
2.36888
2.36678
2.36961
2.36959
2.39387
2.51045
2.5855
2.87013
3.03758
3.09495
3.10282
3.09135
3.09421
3.09139
3.09181
3.08878
3.09061
3.09235
3.09615
3.09555
3.09221
3.08837
3.08346
3.07896
3.07105
3.06205
3.05362
3.04696
3.04295
3.03573
3.02879
3.03233
3.04217
3.05711
3.06588
3.073
3.0755
3.07864
3.083
3.08488
3.08904
3.09448
3.10434
3.11209
3.11218
3.1104
3.11295
3.11319
3.10808
3.10318
3.09622
3.0859
3.07491
3.05862
3.03897
3.01461
2.98471
2.94949
2.90983
2.87442
2.84134
2.8354
2.86369
2.91352
2.95165
2.9894
3.0249
3.04275
3.02487
2.97933
2.9886
3.01178
3.06568
3.06759
3.03103
0.987331
0.990494
0.989815
0.989554
0.98913
0.988599
0.988013
0.987382
0.986561
0.985727
0.984863
0.983761
0.982666
0.981575
0.980217
0.978773
0.977462
0.976084
0.974261
0.9724
0.970713
0.969049
0.96699
0.964604
0.962399
0.960928
0.958983
0.956288
0.952898
0.950465
0.948559
0.946456
0.945534
0.944217
0.94285
0.941671
0.938339
0.936408
0.931467
0.948542
1.7025
2.32656
2.37185
2.36403
2.36344
2.36596
2.3772
2.40663
2.45025
2.68532
2.85857
3.02834
3.10024
3.0985
3.08401
3.07721
3.07627
3.07379
3.07257
3.07097
3.07394
3.07802
3.08209
3.08369
3.08352
3.08389
3.08124
3.07806
3.07036
3.06118
3.04993
3.03816
3.02814
3.02215
3.01724
3.01523
3.01707
3.03251
3.04241
3.05378
3.05915
3.06429
3.07036
3.07382
3.07906
3.08491
3.09367
3.10289
3.10525
3.10431
3.10672
3.1063
3.10127
3.09615
3.08925
3.07881
3.06814
3.05296
3.03416
3.01076
2.9816
2.94742
2.91347
2.88166
2.84082
2.8336
2.86102
2.91237
2.95039
2.98676
3.0228
3.03865
3.01926
2.97278
2.98172
3.00366
3.05736
3.05848
3.02401
0.987437
0.990578
0.989911
0.989657
0.989244
0.988729
0.988134
0.987517
0.986713
0.985863
0.985004
0.983939
0.982785
0.981693
0.980408
0.978885
0.977461
0.976087
0.974426
0.972359
0.970465
0.968798
0.966771
0.964117
0.961765
0.959763
0.958108
0.956019
0.95235
0.948958
0.946328
0.944091
0.941551
0.939996
0.938534
0.935903
0.933325
0.930022
0.917503
0.919607
1.90632
2.34632
2.3683
2.36236
2.3616
2.37258
2.38994
2.51455
2.61119
2.88501
3.04054
3.11354
3.10551
3.08895
3.07609
3.06819
3.06664
3.06249
3.05955
3.05779
3.05952
3.06256
3.06572
3.06763
3.06905
3.07185
3.07304
3.07414
3.06996
3.06279
3.05233
3.03977
3.02618
3.01447
3.00826
3.00553
3.0028
3.00642
3.01363
3.02905
3.03926
3.04648
3.05649
3.06332
3.07214
3.0791
3.08667
3.09611
3.10188
3.10186
3.10289
3.10245
3.0972
3.09116
3.08464
3.07358
3.06305
3.04883
3.03063
3.00799
2.97944
2.94546
2.90791
2.87994
2.84795
2.84023
2.86591
2.91515
2.95205
2.9853
3.01694
3.03103
3.01152
2.96555
2.97361
2.99484
3.04902
3.0503
3.02331
0.987549
0.990668
0.990015
0.989772
0.989368
0.988867
0.988271
0.987662
0.98689
0.986014
0.985165
0.984146
0.98295
0.981831
0.980623
0.979039
0.977494
0.976149
0.974583
0.972421
0.970361
0.968536
0.966557
0.963763
0.961207
0.958633
0.95696
0.954744
0.952486
0.947928
0.944236
0.941057
0.93809
0.934389
0.930709
0.92725
0.923672
0.913466
0.907404
0.888514
2.06719
2.33916
2.36027
2.36963
2.3733
2.42609
2.47031
2.72095
2.9005
3.04957
3.11544
3.10923
3.09618
3.07998
3.06828
3.0633
3.05948
3.05421
3.04977
3.04767
3.0479
3.05044
3.05295
3.05531
3.05642
3.05881
3.06075
3.06354
3.06241
3.05956
3.05227
3.04228
3.03007
3.01557
3.00321
2.99446
2.98936
2.98971
2.99029
3.00293
3.01527
3.02674
3.03886
3.04773
3.05803
3.06507
3.07199
3.08077
3.08907
3.09125
3.09245
3.09255
3.08865
3.08204
3.07618
3.06489
3.05412
3.04101
3.02402
3.00321
2.97641
2.94472
2.91152
2.88337
2.846
2.8354
2.85994
2.90943
2.94783
2.98081
3.01339
3.02726
3.00766
2.96187
2.96871
2.98743
3.04119
3.0417
3.01597
0.987673
0.990768
0.990127
0.989893
0.989504
0.989018
0.988423
0.987823
0.987084
0.98619
0.985347
0.984371
0.983149
0.981998
0.980822
0.979279
0.977659
0.976179
0.974628
0.97269
0.970434
0.968342
0.966266
0.963706
0.960778
0.958028
0.955511
0.953697
0.950869
0.948043
0.942783
0.938877
0.936099
0.934058
0.933284
0.933545
0.939067
0.941001
0.974483
1.43948
2.32412
2.38985
2.38003
2.40246
2.41677
2.55545
2.70335
2.92308
3.0611
3.1176
3.10856
3.10174
3.08983
3.07985
3.07417
3.07157
3.06353
3.05595
3.04797
3.04209
3.0395
3.03947
3.0398
3.04141
3.04241
3.04503
3.04735
3.05065
3.05142
3.05067
3.04799
3.04236
3.03272
3.01936
3.0036
2.98956
2.98091
2.97693
2.97439
2.9791
2.98911
3.00469
3.0197
3.03282
3.04568
3.05504