/*--------------------------------*- C++ -*----------------------------------*\
| =========                 |                                                 |
| \\      /  F ield         | OpenFOAM: The Open Source CFD Toolbox           |
|  \\    /   O peration     | Version:  2.2.x                                 |
|   \\  /    A nd           | Web:      www.OpenFOAM.org                      |
|    \\/     M anipulation  |                                                 |
\*---------------------------------------------------------------------------*/
FoamFile
{
    version     2.0;
    format      ascii;
    class       volVectorField;
    location    "2.4";
    object      U;
}
// * * * * * * * * * * * * * * * * * * * * * * * * * * * * * * * * * * * * * //

dimensions      [0 1 -1 0 0 0 0];

internalField   nonuniform List<vector> 
14161
(
(1.5 3.89691e-16 -4.55916e-24)
(1.5 -2.06118e-16 -8.76066e-23)
(1.5 -3.42964e-16 9.53701e-24)
(1.5 -6.22052e-16 2.8428e-23)
(1.5 -4.76454e-16 5.4823e-23)
(1.5 -7.00107e-16 -1.23995e-22)
(1.5 -9.27393e-16 2.09033e-22)
(1.5 -3.57254e-16 7.02098e-23)
(1.5 -3.86875e-14 1.54407e-22)
(1.5 3.17928e-13 1.3949e-23)
(1.5 6.77862e-12 9.81174e-24)
(1.5 1.46513e-10 4.59621e-24)
(1.5 -1.05639e-09 -4.26402e-23)
(1.5 5.11293e-09 1.56921e-23)
(1.5 8.72218e-07 -8.62828e-23)
(1.49998 2.40361e-05 -1.07118e-22)
(1.50236 -0.00239564 -1.69376e-22)
(1.47738 0.00439745 -2.0562e-22)
(1.43191 -0.00346232 -1.92051e-22)
(0.613504 0.00130316 1.19807e-21)
(0.528839 0.00202405 -7.09637e-21)
(0.519213 0.00150646 5.25303e-21)
(0.510812 0.0011842 -4.72463e-21)
(0.502761 0.00109576 4.19561e-21)
(0.494864 0.00104092 -5.20594e-21)
(0.487461 0.00101932 1.16213e-21)
(0.480743 0.000956217 -5.69773e-21)
(0.474661 0.00093944 5.76123e-22)
(0.469272 0.000914842 -5.02469e-21)
(0.464315 0.000895013 1.50834e-21)
(0.459705 0.00090384 -4.31974e-21)
(0.455224 0.00094653 2.05651e-21)
(0.450771 0.00100581 -5.56698e-21)
(0.446248 0.00108367 1.81779e-21)
(0.441677 0.00115794 -6.18757e-21)
(0.437055 0.00123238 2.38012e-21)
(0.432413 0.00127455 -4.88442e-21)
(0.427879 0.00133205 3.77186e-21)
(0.423454 0.00130046 -2.52501e-21)
(0.419308 0.00130216 3.59554e-21)
(0.415352 0.00127451 -1.97684e-21)
(0.411661 0.00128449 2.48491e-21)
(0.408161 0.00126851 -2.49304e-21)
(0.404877 0.00128381 1.20187e-21)
(0.40177 0.00126993 -2.75498e-21)
(0.398773 0.00128906 -2.27251e-22)
(0.395757 0.00131025 -2.40576e-22)
(0.392732 0.00133289 -4.30565e-22)
(0.389687 0.00135747 3.08085e-21)
(0.386618 0.00138687 2.34208e-21)
(0.383517 0.00142528 4.04668e-21)
(0.380396 0.00146423 5.51229e-21)
(0.377261 0.00149943 7.24088e-21)
(0.374119 0.00153108 7.38116e-21)
(0.370972 0.00155717 6.96162e-21)
(0.367819 0.00158138 6.09525e-21)
(0.364662 0.00160484 6.20991e-21)
(0.361496 0.00162919 4.17794e-21)
(0.358322 0.00165521 4.63643e-21)
(0.35513 0.00168359 1.44018e-21)
(0.351916 0.00171213 2.947e-21)
(0.348673 0.00174124 -9.82341e-22)
(0.345399 0.00176994 1.57224e-21)
(0.342092 0.00179766 -5.13639e-21)
(0.338749 0.00182456 2.53925e-21)
(0.33537 0.00185142 -5.10886e-21)
(0.331953 0.00187865 1.21877e-21)
(0.328497 0.00190566 -4.82521e-21)
(0.32501 0.00193224 1.79772e-21)
(0.321491 0.00195979 -4.68665e-21)
(0.317939 0.0019888 3.60725e-22)
(0.314352 0.00201966 -5.68368e-21)
(0.310727 0.00205174 4.18109e-22)
(0.307059 0.0020844 -6.21824e-21)
(0.303331 0.00211779 -2.76847e-21)
(0.299556 0.0021542 -4.62359e-21)
(0.295719 0.00219661 -3.21335e-21)
(0.291796 0.00225128 -3.22759e-21)
(0.287765 0.00231739 -2.2843e-21)
(0.283593 0.00240501 -2.98184e-21)
(0.279264 0.00251309 -1.25264e-21)
(0.274796 0.00258312 -3.95756e-21)
(0.27024 0.00258754 -3.63242e-21)
(0.265634 0.00257288 -4.68157e-21)
(0.260997 0.00256273 -4.05626e-21)
(0.256331 0.0025629 -3.87177e-21)
(0.251598 0.00257505 -6.54827e-21)
(0.246809 0.00259031 -4.46131e-21)
(0.241927 0.00260316 -5.07692e-21)
(0.236964 0.00261829 -7.67489e-21)
(0.231934 0.0026365 -2.15276e-21)
(0.226816 0.00265742 -9.02182e-21)
(0.221606 0.00268111 -2.5941e-21)
(0.2163 0.00270774 -1.35415e-20)
(0.210892 0.00273748 2.3713e-21)
(0.205376 0.00277141 -1.37949e-20)
(0.199742 0.00281019 3.12516e-21)
(0.193979 0.00285418 -1.48049e-20)
(0.18807 0.0029047 5.24309e-21)
(0.181996 0.00296333 -1.6375e-20)
(0.175736 0.00303182 3.53913e-21)
(0.16927 0.00311221 -6.47066e-21)
(0.162575 0.00320811 4.78718e-21)
(0.155626 0.00332349 -1.38121e-20)
(0.148401 0.00345771 7.99153e-21)
(0.140877 0.00361211 -1.57366e-20)
(0.13302 0.00379359 1.90349e-20)
(0.124783 0.00399981 -4.34579e-20)
(0.11614 0.00422674 2.58193e-20)
(0.107071 0.00446388 -4.98647e-20)
(0.0975778 0.00470203 4.65386e-20)
(0.0876723 0.00494718 -6.15262e-20)
(0.077355 0.00520685 6.9332e-20)
(0.0666122 0.00549592 -1.01265e-19)
(0.055412 0.00583354 7.21635e-20)
(0.04373 0.00619245 -1.10506e-19)
(0.0315703 0.00654526 1.37072e-19)
(0.0190854 0.00663998 -3.92285e-19)
(0.00687238 0.00707119 4.97131e-19)
(1.5 1.98003e-16 3.07406e-24)
(1.5 -4.46394e-16 2.82805e-22)
(1.5 -1.22707e-15 4.34475e-22)
(1.5 -1.40057e-15 -5.15785e-25)
(1.5 -3.49125e-16 2.25225e-23)
(1.5 -6.09913e-16 6.23759e-23)
(1.5 -1.55458e-15 1.26734e-23)
(1.5 2.12224e-15 1.59475e-23)
(1.5 -6.66872e-14 1.05232e-22)
(1.5 -1.27384e-12 7.02462e-24)
(1.5 5.09981e-12 4.42488e-23)
(1.5 2.87499e-10 -4.36105e-24)
(1.5 -1.22657e-09 4.09026e-23)
(1.5 9.54317e-09 -2.75479e-22)
(1.5 9.47815e-07 -3.48415e-22)
(1.49999 2.11148e-05 -2.59374e-22)
(1.50135 -0.00279034 -2.35531e-22)
(1.48723 0.00339058 -4.18319e-22)
(1.41593 -0.00213894 -3.4163e-22)
(0.608769 0.00231076 4.80386e-22)
(0.52582 0.00281215 -6.93664e-21)
(0.517438 0.00274657 4.95767e-21)
(0.509819 0.00281575 -8.90682e-21)
(0.502175 0.00300267 3.43928e-21)
(0.494418 0.00311978 -1.00186e-20)
(0.486943 0.00307705 6.25862e-21)
(0.480117 0.0028121 -1.1348e-20)
(0.473967 0.00267681 5.19916e-21)
(0.468529 0.00253939 -1.21002e-20)
(0.463542 0.00245304 4.90172e-21)
(0.458923 0.00251656 -1.05754e-20)
(0.454481 0.00273706 2.1057e-21)
(0.450099 0.00300897 -1.13258e-20)
(0.445672 0.00331198 1.7867e-21)
(0.441215 0.00356617 -1.42508e-20)
(0.436737 0.00380619 2.96811e-21)
(0.432261 0.00393093 -1.37403e-20)
(0.427902 0.00404177 4.35527e-21)
(0.423635 0.00398408 -1.17611e-20)
(0.419576 0.00399054 4.25084e-21)
(0.415671 0.00391297 -1.05524e-20)
(0.411995 0.0039413 2.73589e-21)
(0.408508 0.00388862 -1.09843e-20)
(0.405237 0.00393079 1.91271e-21)
(0.402144 0.00388529 -1.20254e-20)
(0.399146 0.00394398 1.63793e-21)
(0.396124 0.00401234 -1.5729e-20)
(0.393082 0.00408766 6.4096e-21)
(0.390014 0.00416781 -1.78472e-20)
(0.386924 0.00425038 1.13532e-21)
(0.383819 0.00433362 -1.80266e-20)
(0.380713 0.00441831 7.60093e-22)
(0.377608 0.00450381 -2.40652e-20)
(0.374503 0.00458781 -2.30054e-21)
(0.371397 0.00466991 -2.3644e-20)
(0.368283 0.00475335 -2.51788e-21)
(0.365157 0.0048353 -1.73904e-20)
(0.362018 0.00491281 -2.46565e-21)
(0.358862 0.00499099 -1.84255e-20)
(0.355687 0.00507253 -6.49329e-21)
(0.352489 0.00515424 -2.40843e-20)
(0.349262 0.00523758 -4.44521e-21)
(0.346005 0.00531975 -2.93413e-20)
(0.342714 0.00539974 -1.84209e-22)
(0.339386 0.00547879 -2.40413e-20)
(0.336019 0.00555905 -4.28051e-21)
(0.332613 0.00564154 -1.27805e-20)
(0.329164 0.00572475 -2.01e-21)
(0.325682 0.00580753 -9.09876e-21)
(0.322165 0.00589284 -5.50543e-21)
(0.318614 0.0059826 -9.62851e-21)
(0.315027 0.00607756 -6.9999e-21)
(0.311403 0.0061756 -8.96965e-21)
(0.307738 0.00627326 -9.07574e-21)
(0.304015 0.00637228 -8.83545e-21)
(0.300248 0.00648083 -8.4149e-21)
(0.296422 0.00660542 -7.38144e-21)
(0.292522 0.00675485 -7.22008e-21)
(0.288525 0.00693546 -5.9842e-21)
(0.284414 0.00713734 -6.73466e-21)
(0.280188 0.00731921 -3.3237e-21)
(0.27586 0.00743726 -1.04762e-20)
(0.271443 0.00747245 -3.46107e-21)
(0.266941 0.00745372 -5.9895e-21)
(0.262357 0.00743162 -3.25198e-21)
(0.257711 0.00743613 -1.2135e-20)
(0.252989 0.00746701 8.72214e-21)
(0.248217 0.00750554 -2.68354e-20)
(0.243348 0.00753881 1.93988e-20)
(0.238399 0.00757413 -1.49833e-20)
(0.233386 0.0076169 1.11479e-20)
(0.22829 0.0076664 -1.94921e-20)
(0.223106 0.0077228 1.36362e-20)
(0.217828 0.00778733 -3.96733e-20)
(0.212451 0.00786139 2.03768e-20)
(0.206966 0.00794857 -2.87271e-20)
(0.201366 0.00805082 1.70821e-20)
(0.195636 0.00816869 -3.37979e-20)
(0.189763 0.00830572 1.49016e-20)
(0.183728 0.00846635 -1.89751e-20)
(0.177511 0.00865492 1.64665e-20)
(0.171094 0.00887659 -2.24109e-20)
(0.164457 0.00914143 -1.02299e-20)
(0.157578 0.00946063 -2.02525e-20)
(0.150433 0.00983346 9.21607e-21)
(0.143001 0.0102633 -3.36871e-20)
(0.135248 0.0107733 2.94334e-20)
(0.127124 0.0113612 -2.89281e-20)
(0.118594 0.0120225 6.52735e-20)
(0.109626 0.0127329 -4.99848e-20)
(0.100209 0.0134665 4.67014e-20)
(0.0903501 0.0142383 -2.72236e-20)
(0.0800499 0.0150636 7.3598e-20)
(0.0693035 0.0159761 -3.14461e-20)
(0.0580771 0.0170505 6.11838e-20)
(0.0462902 0.0182476 5.85444e-21)
(0.0338016 0.0195802 -2.97409e-19)
(0.0207346 0.0202283 -1.53684e-20)
(0.00757879 0.0216507 -7.52002e-19)
(1.5 -1.28988e-16 1.59207e-22)
(1.5 3.79488e-17 -1.90196e-22)
(1.5 -8.57411e-16 -1.15331e-22)
(1.5 -9.30089e-16 -5.65781e-23)
(1.5 -1.24555e-16 6.9266e-23)
(1.5 -1.77031e-16 -2.68571e-23)
(1.5 -9.10224e-16 -4.22041e-23)
(1.5 7.24651e-15 -5.04321e-23)
(1.5 4.4722e-14 8.23425e-23)
(1.5 -2.95979e-12 2.63214e-23)
(1.5 3.16358e-12 2.71321e-22)
(1.5 5.84334e-10 -3.67011e-22)
(1.5 -5.97618e-10 -2.75022e-22)
(1.5 -7.3083e-10 -1.05642e-22)
(1.5 -2.32708e-07 4.13503e-23)
(1.49999 -1.0409e-05 -6.56059e-23)
(1.50087 -0.00102787 -9.1384e-23)
(1.48787 -0.00106859 -2.71018e-22)
(1.41956 0.00217781 8.15586e-23)
(0.609317 0.0046502 1.42566e-21)
(0.525698 0.00491528 -6.35975e-21)
(0.517412 0.00493475 1.86301e-21)
(0.509838 0.00499969 -8.34864e-21)
(0.502318 0.00526551 8.51885e-21)
(0.494656 0.00546459 -1.89434e-20)
(0.487183 0.00542595 7.63456e-22)
(0.480202 0.00500246 -1.93166e-20)
(0.473855 0.00473954 6.47444e-22)
(0.468197 0.00449086 -2.31786e-20)
(0.46293 0.00431426 4.76737e-21)
(0.458001 0.00433904 -1.91437e-20)
(0.453316 0.00461727 5.26434e-21)
(0.448786 0.00499708 -2.02742e-20)
(0.444317 0.00549151 3.68891e-21)
(0.439889 0.00593006 -1.96305e-20)
(0.435486 0.00635023 1.59342e-21)
(0.431115 0.00657894 -1.84722e-20)
(0.426889 0.00678601 1.39462e-21)
(0.422746 0.00675537 -1.76668e-20)
(0.418779 0.00681123 -1.78296e-21)
(0.414933 0.00672037 -2.06604e-20)
(0.411292 0.00677848 -5.2166e-21)
(0.407831 0.00669316 -2.32359e-20)
(0.404586 0.00676596 -9.60207e-21)
(0.401523 0.00669549 -2.53569e-20)
(0.398556 0.00679594 -1.16749e-20)
(0.395575 0.00691369 -1.69631e-20)
(0.392595 0.00704521 -5.8174e-21)
(0.389605 0.00718521 -7.78691e-21)
(0.3866 0.0073237 7.3335e-22)
(0.383572 0.00745793 -4.12995e-21)
(0.380525 0.00759718 4.47648e-22)
(0.377461 0.00774077 4.92719e-21)
(0.374381 0.007885 1.82876e-21)
(0.371286 0.00802972 5.94407e-21)
(0.368176 0.00817707 5.10502e-21)
(0.36505 0.00832182 -7.26853e-21)
(0.361903 0.00845985 6.63112e-21)
(0.358734 0.00859592 -1.92519e-20)
(0.355542 0.00873291 1.12554e-20)
(0.352326 0.00886895 -2.15396e-20)
(0.349081 0.00900725 -1.303e-21)
(0.345806 0.00914449 -1.00194e-20)
(0.342495 0.00927943 -1.12103e-21)
(0.339143 0.00941331 -2.71885e-20)
(0.335748 0.00954897 5.93253e-22)
(0.332307 0.00968796 -2.68064e-20)
(0.32882 0.00982794 2.28391e-21)
(0.325295 0.00996594 -2.25984e-20)
(0.321731 0.0101056 7.08971e-21)
(0.318131 0.0102512 -2.16729e-20)
(0.314495 0.010404 3.65054e-21)
(0.310821 0.0105608 -1.9492e-20)
(0.307106 0.0107153 7.64904e-21)
(0.303336 0.0108722 -2.72268e-20)
(0.299521 0.011046 8.4502e-21)
(0.295651 0.0112459 -1.99181e-20)
(0.291709 0.0114798 4.30798e-22)
(0.287691 0.0117583 -1.98755e-20)
(0.2836 0.0120588 -3.34558e-21)
(0.279437 0.0123271 -9.00865e-21)
(0.275198 0.0125198 -1.59604e-20)
(0.270877 0.0126208 -7.47812e-21)
(0.266459 0.0126538 -2.28171e-20)
(0.261928 0.0126693 6.02598e-21)
(0.257302 0.012701 -4.08249e-20)
(0.252579 0.0127512 -2.80857e-21)
(0.247792 0.0128155 -3.37301e-20)
(0.242907 0.0128682 -2.62134e-20)
(0.237944 0.0129197 -3.26436e-20)
(0.232921 0.0129835 -2.72253e-20)
(0.227821 0.0130599 -5.36786e-20)
(0.222638 0.0131494 -8.02203e-21)
(0.217364 0.0132543 -7.17247e-20)
(0.211993 0.0133768 2.5238e-20)
(0.206517 0.0135221 -9.37208e-20)
(0.200926 0.0136928 3.24828e-20)
(0.195207 0.0138894 -8.55726e-20)
(0.189348 0.0141178 4.11841e-20)
(0.183329 0.0143856 -9.60311e-20)
(0.177132 0.0147 5.75012e-20)
(0.17074 0.0150697 -7.5143e-20)
(0.164134 0.0155117 7.85475e-20)
(0.157294 0.0160442 -7.85173e-20)
(0.150197 0.0166668 9.4671e-20)
(0.142823 0.0173859 -9.21358e-20)
(0.135138 0.0182394 1.05391e-19)
(0.127088 0.0192272 -7.45788e-20)
(0.118632 0.0203453 5.13677e-20)
(0.109718 0.0215546 7.16363e-20)
(0.100316 0.0228095 1.45812e-20)
(0.0904237 0.024128 2.94846e-19)
(0.0800474 0.0255259 -1.45204e-19)
(0.0692107 0.0270473 5.82769e-19)
(0.0579479 0.0288224 -2.52274e-19)
(0.0462407 0.0308025 5.69979e-19)
(0.0341134 0.0330586 5.94694e-19)
(0.0213341 0.0345874 -3.86733e-19)
(0.00836236 0.0370704 8.89148e-19)
(1.5 1.31285e-18 -2.07844e-22)
(1.5 5.62022e-17 2.51262e-23)
(1.5 -3.51863e-16 2.07659e-22)
(1.5 -8.75015e-16 2.09669e-22)
(1.5 -6.86027e-16 -8.46311e-24)
(1.5 -5.51199e-16 -4.03734e-22)
(1.5 -8.08846e-16 -2.39172e-22)
(1.5 6.32154e-15 -2.15522e-22)
(1.5 1.37447e-13 -1.20952e-22)
(1.5 -1.31059e-12 -1.80102e-22)
(1.5 1.38571e-11 -5.14911e-22)
(1.5 6.20157e-10 -7.72874e-22)
(1.5 -8.66253e-10 -6.46013e-22)
(1.5 -7.78713e-09 -5.79435e-22)
(1.5 9.08734e-07 2.81436e-23)
(1.49998 -9.12966e-07 2.13693e-23)
(1.50088 -0.000502028 -1.60112e-22)
(1.48653 -0.000938098 -4.54939e-22)
(1.42461 0.00182946 -1.60193e-21)
(0.61104 0.00586892 4.50453e-21)
(0.527959 0.00618709 -1.05735e-21)
(0.519395 0.00635898 5.87244e-21)
(0.511553 0.00670008 6.43723e-22)
(0.503753 0.00729791 -2.87884e-22)
(0.495925 0.00772094 7.42173e-21)
(0.488359 0.00778725 -4.95843e-21)
(0.481209 0.00726944 7.62896e-22)
(0.474552 0.0069651 2.61005e-21)
(0.468526 0.00670096 1.28607e-20)
(0.462871 0.00651532 1.78601e-22)
(0.457545 0.00654454 3.58159e-21)
(0.45251 0.00693522 3.36428e-21)
(0.447677 0.00742391 5.22515e-21)
(0.442987 0.00803562 3.52256e-21)
(0.438425 0.00853846 7.27774e-21)
(0.434048 0.00904775 5.92177e-21)
(0.429829 0.00931033 9.7854e-21)
(0.425797 0.0095913 6.28832e-21)
(0.421849 0.00960761 1.27977e-20)
(0.418065 0.00974088 7.16228e-21)
(0.414376 0.00967813 1.68271e-20)
(0.410867 0.0097888 8.3305e-21)
(0.407507 0.00969742 1.82524e-20)
(0.404337 0.00980905 1.1598e-20)
(0.401331 0.00972314 1.7433e-20)
(0.398407 0.00985701 1.17827e-20)
(0.395465 0.0100074 1.02494e-20)
(0.392518 0.0101725 1.23433e-20)
(0.389557 0.0103494 -6.49109e-21)
(0.386579 0.0105318 1.02757e-20)
(0.383576 0.0107234 -5.61158e-21)
(0.380557 0.0109271 3.88021e-21)
(0.377525 0.0111371 2.74278e-23)
(0.37448 0.0113474 -4.40502e-21)
(0.371422 0.0115578 9.10558e-21)
(0.36835 0.0117695 -9.36942e-21)
(0.36526 0.0119784 3.07233e-20)
(0.362145 0.0121809 -2.24967e-21)
(0.359005 0.0123799 3.47508e-20)
(0.355837 0.0125758 4.30418e-22)
(0.352638 0.0127674 3.89849e-20)
(0.349404 0.0129608 1.27118e-20)
(0.346132 0.0131547 4.85801e-20)
(0.342817 0.0133503 7.22536e-21)
(0.339451 0.0135468 7.01553e-20)
(0.336033 0.0137451 4.4664e-21)
(0.332564 0.0139483 8.03941e-20)
(0.329042 0.0141529 2.14454e-21)
(0.325476 0.0143533 8.0013e-20)
(0.321866 0.0145533 4.30376e-21)
(0.318217 0.0147601 6.09323e-20)
(0.314529 0.0149747 3.06932e-21)
(0.310801 0.0151928 6.33865e-20)
(0.307033 0.0154058 9.49778e-21)
(0.303209 0.0156219 5.63597e-20)
(0.299343 0.0158606 3.58181e-21)
(0.295425 0.0161328 5.97839e-20)
(0.291442 0.016446 -1.96756e-21)
(0.287398 0.0167826 6.19523e-20)
(0.283303 0.017116 -5.91853e-21)
(0.279157 0.0174106 5.63664e-20)
(0.274951 0.0176316 -1.14032e-20)
(0.27067 0.0177753 5.92648e-20)
(0.266293 0.0178683 -1.59924e-20)
(0.261805 0.0179461 6.02561e-20)
(0.257204 0.0180345 -1.62074e-20)
(0.252494 0.0181335 8.10316e-20)
(0.247692 0.0182318 -4.28634e-20)
(0.242785 0.0183082 7.84467e-20)
(0.237791 0.0183766 9.05346e-21)
(0.232732 0.018459 5.28354e-20)
(0.227592 0.0185578 4.65627e-20)
(0.222366 0.0186745 3.24694e-20)
(0.217049 0.0188132 2.29807e-21)
(0.211637 0.018977 2.87599e-20)
(0.206122 0.0191729 -2.96708e-20)
(0.200497 0.0194037 -3.00479e-20)
(0.194751 0.0196693 -2.10464e-20)
(0.188873 0.0199779 -6.22814e-20)
(0.182847 0.0203398 -1.91357e-20)
(0.176657 0.0207648 -1.02211e-19)
(0.170286 0.0212648 -3.87458e-21)
(0.163716 0.0218647 -1.67535e-19)
(0.156927 0.0225872 3.13243e-20)
(0.149895 0.0234328 -2.61864e-19)
(0.142596 0.0244164 6.47579e-20)
(0.134995 0.0255876 -3.59797e-19)
(0.127034 0.0269562 1.60783e-19)
(0.118662 0.0285236 -4.89285e-19)
(0.109818 0.0302404 1.66645e-19)
(0.100463 0.0320392 -4.17079e-19)
(0.0906013 0.0339298 -1.4072e-20)
(0.0802477 0.0359116 -1.48972e-19)
(0.0694386 0.0380202 -4.75449e-19)
(0.0582321 0.0404244 5.09152e-19)
(0.0466288 0.0430875 -9.55124e-19)
(0.0347125 0.0460744 5.91841e-19)
(0.0221303 0.0484648 3.4654e-19)
(0.00929311 0.0520958 -1.18743e-18)
(1.5 -3.93191e-16 -2.85423e-22)
(1.5 -8.69762e-16 2.84353e-22)
(1.5 -3.66772e-16 -3.56114e-22)
(1.5 -5.05198e-16 4.96267e-22)
(1.5 -6.91462e-16 6.25723e-22)
(1.5 -8.62764e-16 1.02257e-21)
(1.5 -1.18901e-15 5.48449e-22)
(1.5 5.62355e-15 -1.84128e-22)
(1.5 6.61506e-15 2.4474e-22)
(1.5 2.503e-13 -1.71828e-22)
(1.5 1.69357e-11 -1.51218e-21)
(1.5 1.72446e-10 2.26138e-22)
(1.5 -2.86238e-10 -2.05885e-22)
(1.5 -6.42203e-09 -4.24139e-22)
(1.5 1.00155e-06 -1.11356e-21)
(1.49999 1.03572e-05 -1.11324e-21)
(1.50072 -0.000724847 -2.06205e-22)
(1.48626 3.81569e-05 -2.55081e-22)
(1.42459 0.000670078 -1.88684e-22)
(0.611176 0.00775039 -1.08888e-20)
(0.528441 0.00853412 -2.07196e-21)
(0.520123 0.00872125 -6.35824e-21)
(0.512455 0.00902987 -3.40208e-21)
(0.504848 0.00966157 -1.229e-20)
(0.497231 0.0101053 -1.57445e-21)
(0.489755 0.0102299 -1.47106e-21)
(0.482471 0.00980818 1.74305e-21)
(0.475605 0.00953002 -1.96433e-21)
(0.469165 0.00931942 -6.17739e-21)
(0.462991 0.00928353 7.92131e-21)
(0.457031 0.00924458 3.6812e-21)
(0.45142 0.00957205 7.63129e-21)
(0.446234 0.0100052 -2.79226e-22)
(0.441447 0.0106839 8.38234e-21)
(0.436976 0.0112579 -5.56301e-21)
(0.432768 0.0118563 5.09022e-21)
(0.428726 0.0121287 3.30657e-21)
(0.424861 0.0124688 3.38418e-21)
(0.421054 0.0125252 1.94185e-21)
(0.4174 0.0127322 3.89498e-21)
(0.41382 0.0127071 -1.30882e-21)
(0.410411 0.0128807 7.61665e-22)
(0.407131 0.0128063 -1.29518e-21)
(0.404027 0.0129723 -1.20776e-21)
(0.401075 0.0128912 -4.90568e-21)
(0.398186 0.0130693 -3.45067e-21)
(0.395272 0.0132635 2.29669e-21)
(0.392342 0.0134735 -1.86684e-21)
(0.389393 0.0136983 1.09564e-20)
(0.38642 0.0139332 -1.44586e-20)
(0.383421 0.0141817 1.44832e-20)
(0.380406 0.0144454 -7.27689e-21)
(0.377378 0.0147178 2.81404e-20)
(0.374338 0.0149921 9.69383e-22)
(0.371285 0.0152682 2.09491e-20)
(0.368218 0.0155464 7.85604e-22)
(0.365133 0.0158237 1.20902e-20)
(0.362025 0.0160967 -1.28323e-21)
(0.35889 0.0163648 1.78446e-20)
(0.355726 0.0166269 -3.90543e-21)
(0.352528 0.0168817 7.79131e-21)
(0.34929 0.017137 -1.39355e-20)
(0.346012 0.0173947 1.58635e-20)
(0.34269 0.0176566 -2.19315e-20)
(0.339318 0.0179221 1.1403e-20)
(0.335894 0.0181918 -1.96031e-20)
(0.332416 0.0184679 6.8335e-21)
(0.328884 0.0187465 -1.6935e-20)
(0.3253 0.0190191 9.96643e-21)
(0.321664 0.0192875 -1.01057e-20)
(0.317982 0.0195574 5.38335e-21)
(0.314258 0.0198306 5.47934e-21)
(0.310495 0.0201039 -9.6535e-21)
(0.306692 0.0203675 2.10792e-20)
(0.302836 0.0206325 2.30149e-21)
(0.298943 0.0209209 1.12433e-20)
(0.295007 0.0212445 -1.3488e-22)
(0.291029 0.0216057 2.01012e-21)
(0.28701 0.0219737 3.84949e-20)
(0.282945 0.0223238 -2.18724e-21)
(0.27883 0.0226337 2.55271e-20)
(0.274651 0.0228792 -1.14178e-20)
(0.270393 0.023067 2.4136e-20)
(0.266039 0.023223 3.43411e-20)
(0.26158 0.0233679 -2.63309e-20)
(0.257009 0.0235233 6.18698e-20)
(0.252339 0.0236885 -4.7385e-20)
(0.247575 0.0238329 1.07352e-19)
(0.242695 0.0239507 -7.45688e-20)
(0.237705 0.0240589 1.35351e-19)
(0.23262 0.0241769 -8.57507e-20)
(0.227437 0.0243073 1.43499e-19)
(0.222155 0.0244568 -3.83693e-20)
(0.216772 0.024632 1.74928e-19)
(0.211284 0.0248374 -3.6675e-20)
(0.205685 0.0250812 2.07521e-19)
(0.199971 0.0253656 -6.89796e-21)
(0.194133 0.0256896 2.21738e-19)
(0.188163 0.0260628 -9.66405e-23)
(0.182049 0.0264987 2.58128e-19)
(0.175779 0.0270098 -4.82954e-20)
(0.169344 0.0276128 2.82924e-19)
(0.162733 0.0283427 -1.03167e-20)
(0.155929 0.0292351 2.88965e-19)
(0.148902 0.0302954 -9.54097e-21)
(0.141617 0.0315404 3.19248e-19)
(0.134041 0.0330245 -1.32316e-20)
(0.126127 0.0347708 2.61803e-19)
(0.117832 0.0367887 7.1165e-20)
(0.109101 0.0390172 -1.80987e-19)
(0.0998933 0.041366 2.0846e-19)
(0.0902092 0.0438314 -5.37529e-19)
(0.0800543 0.0463959 3.8826e-19)
(0.0694536 0.0490877 -6.13236e-19)
(0.05847 0.052105 -1.30081e-21)
(0.0470988 0.0554042 5.0186e-19)
(0.0354603 0.0590444 -7.37167e-19)
(0.0230945 0.0623226 1.73206e-20)
(0.0107362 0.066996 8.11052e-19)
(1.5 -6.42421e-16 3.04764e-22)
(1.5 -1.01604e-15 4.46266e-23)
(1.5 -1.29827e-16 3.52879e-22)
(1.5 1.27756e-17 -2.02703e-22)
(1.5 4.91117e-16 -6.09686e-22)
(1.5 -5.26609e-16 -3.55099e-21)
(1.5 -6.61235e-16 -1.7286e-21)
(1.5 2.12134e-15 -4.86119e-22)
(1.5 -5.44717e-14 -2.49937e-21)
(1.5 3.53724e-13 -1.82042e-21)
(1.5 1.15493e-11 -4.08247e-22)
(1.5 -2.97417e-11 -2.8325e-21)
(1.5 4.92692e-10 -3.28859e-21)
(1.5 -1.12107e-08 -1.54819e-21)
(1.5 -4.34383e-07 -1.70807e-21)
(1.49999 2.41702e-06 -1.5412e-21)
(1.50036 -0.000661257 -3.62083e-21)
(1.48782 0.000302258 -1.03511e-21)
(1.4223 0.000949182 -3.06225e-21)
(0.610058 0.00934354 -1.63846e-20)
(0.527295 0.010344 2.17564e-20)
(0.519148 0.0107849 -3.40712e-20)
(0.511606 0.0113241 2.26706e-20)
(0.504121 0.0122097 -2.78874e-20)
(0.496669 0.0128208 2.52614e-20)
(0.489265 0.0130951 -1.88449e-20)
(0.48186 0.0128011 3.83925e-20)
(0.474571 0.0124472 -2.2054e-20)
(0.467781 0.0120543 4.19896e-20)
(0.461438 0.0119748 -3.7621e-20)
(0.45556 0.0120427 3.93037e-20)
(0.450044 0.0124697 -3.79373e-20)
(0.444972 0.0129076 3.54585e-20)
(0.440279 0.013593 -3.48131e-20)
(0.435895 0.0141261 3.40551e-20)
(0.431793 0.0147354 -3.31894e-20)
(0.427851 0.0150124 2.87745e-20)
(0.424087 0.0154197 -3.1319e-20)
(0.420371 0.0155311 2.30684e-20)
(0.41681 0.0158244 -3.07843e-20)
(0.413309 0.0158493 2.24249e-20)
(0.409978 0.0160978 -2.98557e-20)
(0.406759 0.0160595 2.57946e-20)
(0.403709 0.0162903 -2.54485e-20)
(0.4008 0.0162332 2.62565e-20)
(0.397942 0.0164635 -1.9896e-20)
(0.395052 0.0167111 1.5825e-20)
(0.39214 0.0169745 -8.11312e-21)
(0.389203 0.017254 3.1783e-20)
(0.38624 0.0175453 4.9179e-21)
(0.383247 0.0178515 3.20994e-20)
(0.380237 0.0181744 -3.01122e-21)
(0.377212 0.0185075 7.11934e-21)
(0.374175 0.018844 9.33678e-21)
(0.371124 0.0191835 -1.64209e-20)
(0.368059 0.0195263 7.85712e-21)
(0.364977 0.0198702 -2.47328e-20)
(0.361874 0.020211 2.76236e-21)
(0.358744 0.0205474 -2.24164e-20)
(0.355586 0.0208776 1.51428e-20)
(0.352393 0.0211981 -1.3253e-20)
(0.349163 0.0215172 1.37581e-20)
(0.345895 0.0218397 -3.5576e-20)
(0.342584 0.0221671 2.54868e-20)
(0.339224 0.0224997 -4.27344e-20)
(0.335813 0.0228384 1.74751e-20)
(0.332349 0.0231864 -5.08953e-20)
(0.328832 0.0235397 1.71629e-20)
(0.325261 0.0238899 -5.55932e-20)
(0.321634 0.0242343 3.38764e-20)
(0.317954 0.0245739 -8.03085e-20)
(0.314224 0.0249088 6.51311e-20)
(0.310452 0.0252367 -1.02811e-19)
(0.306636 0.025552 6.07682e-20)
(0.302764 0.0258656 -8.89974e-20)
(0.298852 0.0262009 7.27801e-20)
(0.294898 0.0265702 -9.30218e-20)
(0.290903 0.0269625 8.1023e-20)
(0.286867 0.0273455 -1.14258e-19)
(0.282788 0.0277041 7.27722e-20)
(0.278661 0.0280265 -9.16113e-20)
(0.274472 0.0282982 8.72945e-20)
(0.270205 0.0285311 -8.43839e-20)
(0.265844 0.028746 7.36404e-20)
(0.261382 0.0289521 -4.40719e-20)
(0.256809 0.0291671 9.68498e-20)
(0.252137 0.0293842 -3.44174e-20)
(0.24737 0.0295735 9.85248e-20)
(0.242484 0.0297377 -2.91697e-20)
(0.237484 0.0298993 5.59615e-20)
(0.232386 0.0300695 -3.48057e-20)
(0.227178 0.0302474 -8.93238e-21)
(0.22186 0.0304414 -6.79408e-20)
(0.216431 0.0306635 -5.8288e-20)
(0.210889 0.0309193 -3.09512e-20)
(0.205232 0.031219 -1.13438e-19)
(0.199452 0.0315649 -3.88937e-20)
(0.193543 0.0319546 -1.50435e-19)
(0.187495 0.0323989 -2.32359e-20)
(0.181296 0.0329125 -1.61839e-19)
(0.174936 0.0335087 -5.54667e-20)
(0.168408 0.034206 -8.35916e-20)
(0.161706 0.0350457 -7.99599e-20)
(0.154824 0.0360756 -1.23264e-19)
(0.147744 0.0373155 1.20457e-20)
(0.140433 0.0387977 -3.01242e-19)
(0.132858 0.0405714 2.44205e-19)
(0.124983 0.0426618 -4.30959e-19)
(0.116779 0.0450918 5.48285e-19)
(0.108195 0.0477918 -3.4481e-19)
(0.099183 0.0506533 5.51874e-19)
(0.0897402 0.0536673 -1.88297e-20)
(0.0798565 0.0568002 -1.87081e-19)
(0.0695413 0.0600731 4.29169e-19)
(0.0588613 0.0637049 -8.33348e-19)
(0.0478096 0.0676321 -8.21447e-19)
(0.0364753 0.0719051 1.17644e-18)
(0.0244172 0.0761126 -2.06281e-19)
(0.0125488 0.0816041 -1.01704e-18)
(1.5 -7.1554e-16 1.07055e-21)
(1.5 -9.62866e-16 6.44082e-22)
(1.5 -6.86512e-16 4.51825e-22)
(1.5 -2.47372e-16 -4.26931e-22)
(1.5 1.77962e-16 1.63495e-21)
(1.5 1.01131e-16 2.2145e-21)
(1.5 -2.62873e-16 2.31392e-22)
(1.5 -6.67376e-16 2.05873e-21)
(1.5 -2.27902e-14 2.04098e-22)
(1.5 1.50147e-13 -1.32982e-22)
(1.5 8.44777e-12 -1.90786e-22)
(1.5 -7.232e-12 9.66873e-22)
(1.5 -1.7718e-10 2.06766e-21)
(1.5 -1.85044e-08 -1.00339e-21)
(1.5 -9.7192e-07 -2.56465e-21)
(1.49999 -1.6405e-05 -1.58494e-21)
(1.50023 -0.000220961 -2.78721e-23)
(1.48796 3.6047e-05 -1.05138e-21)
(1.42257 0.00197553 -1.13258e-21)
(0.60989 0.0117353 8.32427e-22)
(0.526558 0.0125233 2.85204e-20)
(0.518237 0.0129651 -1.71508e-20)
(0.510566 0.0135746 2.29314e-20)
(0.50309 0.0146049 -7.74193e-21)
(0.495728 0.0153463 2.07954e-20)
(0.488466 0.0158411 -3.68278e-20)
(0.481223 0.0158503 1.59464e-20)
(0.474059 0.0157071 -4.31035e-20)
(0.467126 0.015306 1.90228e-20)
(0.460565 0.0151589 -6.12978e-20)
(0.454602 0.0151272 -1.79088e-21)
(0.449078 0.0155169 -4.86771e-20)
(0.444043 0.0159016 -1.21391e-21)
(0.439377 0.0165599 -3.95765e-20)
(0.43502 0.0170512 -5.95374e-21)
(0.430963 0.0176781 -3.8595e-20)
(0.42706 0.0179708 -1.19559e-20)
(0.423354 0.0184532 -3.79427e-20)
(0.419694 0.0186247 -1.79538e-20)
(0.416209 0.019013 -2.5581e-20)
(0.412776 0.0190977 -1.25119e-20)
(0.409522 0.0194347 -1.66107e-20)
(0.406366 0.019451 -1.59902e-20)
(0.403381 0.0197576 -1.19199e-20)
(0.400524 0.0197412 -2.05475e-20)
(0.39771 0.0200328 -9.2561e-21)
(0.394857 0.0203426 -2.00908e-20)
(0.391976 0.0206684 -2.51622e-20)
(0.389064 0.0210104 -4.41322e-20)
(0.386119 0.0213639 -3.73596e-20)
(0.383141 0.0217323 -6.24798e-20)
(0.380142 0.0221177 -4.19793e-20)
(0.377125 0.0225137 -7.01872e-20)
(0.374093 0.0229139 -3.46555e-20)
(0.371046 0.0233177 -5.52974e-20)
(0.367983 0.0237258 -3.89107e-20)
(0.364902 0.0241359 -6.02672e-20)
(0.361801 0.0245442 -7.56231e-21)
(0.358674 0.0249497 -6.61463e-20)
(0.355519 0.0253478 -9.9201e-21)
(0.352331 0.0257321 -6.26776e-20)
(0.349107 0.0261122 -4.26316e-21)
(0.345849 0.0264963 -4.09842e-20)
(0.34255 0.0268861 9.98671e-21)
(0.339204 0.0272837 -4.75517e-20)
(0.335808 0.0276902 2.21389e-20)
(0.332362 0.0281089 -6.40202e-20)
(0.328865 0.0285364 2.30885e-20)
(0.325315 0.0289641 -7.00085e-20)
(0.32171 0.0293887 2.43733e-20)
(0.318048 0.0298078 -7.51538e-20)
(0.314328 0.0302166 2.27975e-20)
(0.310552 0.0306091 -7.64182e-20)
(0.306724 0.0309787 8.231e-21)
(0.302836 0.0313391 -6.25482e-20)
(0.298906 0.0317152 9.27534e-21)
(0.294938 0.0321146 -6.7256e-20)
(0.290934 0.0325241 1.69328e-20)
(0.286892 0.032916 -6.33566e-20)
(0.282808 0.0332801 8.38345e-21)
(0.278673 0.0336128 -7.25775e-20)
(0.274477 0.0339092 5.11126e-22)
(0.270202 0.0341845 -7.39763e-20)
(0.265837 0.0344538 -1.08425e-20)
(0.261377 0.034718 -6.72908e-20)
(0.256812 0.0349893 5.60109e-20)
(0.252151 0.0352566 3.84735e-21)
(0.247396 0.0354946 1.24282e-20)
(0.242521 0.0357086 9.81357e-20)
(0.237529 0.035926 -3.89319e-20)
(0.232435 0.0361559 2.20576e-19)
(0.227216 0.0363965 -2.7436e-20)
(0.221866 0.0366508 2.49228e-19)
(0.216388 0.0369267 -3.18069e-20)
(0.210784 0.0372361 2.24321e-19)
(0.205056 0.0375921 -1.66762e-20)
(0.1992 0.0379986 1.86251e-19)
(0.193208 0.038453 1.45992e-19)
(0.187074 0.038968 9.56837e-20)
(0.180786 0.039561 1.00762e-19)
(0.174335 0.0402458 1.30488e-19)
(0.167712 0.0410429 -2.53878e-20)
(0.160914 0.0419967 1.65002e-19)
(0.153938 0.0431617 -4.50232e-20)
(0.146772 0.0445671 1.35603e-19)
(0.139399 0.0462601 -4.16904e-20)
(0.131793 0.0482869 -2.62909e-20)
(0.123931 0.0506741 -2.79625e-20)
(0.115802 0.0534605 -1.05773e-19)
(0.107364 0.0565739 2.63586e-21)
(0.0985642 0.0598972 -5.32789e-19)
(0.0893949 0.0634218 3.78952e-19)
(0.0798282 0.0670981 -1.61832e-19)
(0.0698528 0.0709434 1.99408e-19)
(0.0595369 0.0751849 1.06426e-18)
(0.0488625 0.0797236 -2.96537e-19)
(0.0378022 0.0846621 -1.59354e-18)
(0.0261838 0.0898298 8.02001e-19)
(0.0147044 0.0959328 1.12358e-18)
(1.5 -4.2457e-16 -1.59796e-21)
(1.5 -5.73393e-16 -1.53205e-21)
(1.5 -6.58047e-16 -9.88521e-22)
(1.5 -1.78388e-16 -3.17362e-21)
(1.5 -1.52857e-16 -3.54681e-21)
(1.5 -1.2087e-17 -2.14859e-21)
(1.5 2.28092e-16 8.7782e-22)
(1.5 -5.89928e-16 -2.67722e-21)
(1.5 -2.47219e-14 -1.68372e-21)
(1.5 3.21861e-13 -1.43707e-21)
(1.5 4.30032e-12 -5.21619e-22)
(1.5 -2.51643e-11 -2.71496e-23)
(1.5 -2.21998e-11 3.00386e-21)
(1.5 -7.95318e-09 7.06516e-21)
(1.5 -2.28604e-07 8.31417e-21)
(1.49998 -1.0962e-05 7.25056e-21)
(1.50031 1.84203e-05 1.08818e-20)
(1.48787 -0.00010913 6.05913e-21)
(1.42337 0.00285483 9.08456e-21)
(0.61046 0.0141895 5.66624e-20)
(0.526952 0.0149666 -6.55555e-20)
(0.518332 0.0155457 6.9733e-20)
(0.510391 0.0162504 -6.75114e-20)
(0.502721 0.0173297 4.86469e-20)
(0.495248 0.0181151 -6.02341e-20)
(0.487942 0.0187494 8.38568e-20)
(0.480717 0.0189595 -7.83235e-20)
(0.473672 0.0190037 1.02295e-19)
(0.466882 0.0186979 -9.99789e-20)
(0.460402 0.0185586 1.32935e-19)
(0.45444 0.0184566 -9.29031e-20)
(0.448901 0.0188175 1.27408e-19)
(0.44383 0.0191413 -8.26059e-20)
(0.439141 0.0197721 1.28848e-19)
(0.434744 0.0202048 -7.43481e-20)
(0.43066 0.0208417 1.12749e-19)
(0.42673 0.02114 -8.06693e-20)
(0.423012 0.0216811 9.69006e-20)
(0.419342 0.0218933 -8.28483e-20)