/*--------------------------------*- C++ -*----------------------------------*\
| =========                 |                                                 |
| \\      /  F ield         | OpenFOAM: The Open Source CFD Toolbox           |
|  \\    /   O peration     | Version:  2.2.x                                 |
|   \\  /    A nd           | Web:      www.OpenFOAM.org                      |
|    \\/     M anipulation  |                                                 |
\*---------------------------------------------------------------------------*/
FoamFile
{
    version     2.0;
    format      ascii;
    class       volScalarField;
    location    "1.65";
    object      p;
}
// * * * * * * * * * * * * * * * * * * * * * * * * * * * * * * * * * * * * * //

dimensions      [1 -1 -2 0 0 0 0];

internalField   nonuniform List<scalar> 
14161
(
0.25543
0.255392
0.242561
0.235713
0.246972
0.25588
0.267556
0.267613
0.268777
0.26764
0.267019
0.264816
0.268344
0.271351
0.274702
0.277405
0.279523
0.276625
0.275183
0.272429
0.269872
0.269368
0.268463
0.270625
0.270323
0.268931
0.267809
0.266654
0.265319
0.261172
0.25441
0.241037
0.264106
0.775415
1.08565
1.01818
1.01249
1.05283
1.05653
1.06055
1.06671
1.07246
1.07782
1.08522
1.10239
1.11587
1.13223
1.14929
1.16629
1.18349
1.19908
1.21192
1.221
1.2261
1.2283
1.2267
1.22083
1.2127
1.20367
1.19305
1.18158
1.17065
1.16071
1.15224
1.15089
1.15453
1.16885
1.19248
1.22336
1.25073
1.27484
1.29764
1.31891
1.33795
1.36345
1.40132
1.4383
1.4707
1.48468
1.49471
1.49483
1.48746
1.48159
1.47545
1.46944
1.45446
1.43608
1.41907
1.41168
1.43692
1.50376
1.60319
1.71183
1.80478
1.85828
1.89474
1.91435
1.92866
1.93096
1.93151
1.93837
1.94334
1.94813
1.95561
1.9626
1.97009
1.97923
1.98547
1.98586
1.98133
1.97342
1.96386
1.94928
1.93641
1.92514
1.91914
1.91041
1.92967
1.95618
0.224095
0.301116
0.278259
0.252931
0.238885
0.223885
0.228769
0.24066
0.257215
0.279002
0.298736
0.298036
0.290751
0.283304
0.271308
0.264668
0.269437
0.273093
0.27907
0.287662
0.292558
0.293297
0.289705
0.289095
0.286447
0.283399
0.283017
0.28377
0.283984
0.284086
0.281668
0.274612
0.310265
0.896876
1.17948
1.26052
1.33094
1.3859
1.41441
1.43147
1.44233
1.44651
1.44718
1.44772
1.45308
1.45203
1.44901
1.44646
1.44134
1.43532
1.42799
1.41947
1.41052
1.40129
1.39224
1.38387
1.37635
1.36932
1.3631
1.3564
1.3492
1.34227
1.33617
1.33262
1.33357
1.33799
1.34822
1.36309
1.37587
1.38531
1.39322
1.3975
1.40136
1.40592
1.41704
1.43795
1.46385
1.4887
1.50164
1.51213
1.51958
1.52546
1.53631
1.5431
1.55356
1.56561
1.58644
1.61711
1.6618
1.71292
1.77581
1.82582
1.87203
1.90707
1.91794
1.92489
1.92679
1.93406
1.93149
1.92941
1.93036
1.93528
1.94167
1.94905
1.95881
1.96966
1.98155
1.98994
1.99443
1.995
1.9916
1.986
1.97992
1.97383
1.96824
1.96317
1.95929
1.96784
1.98357
0.248782
0.191202
0.212987
0.246464
0.271046
0.300583
0.287592
0.259649
0.252067
0.241103
0.227532
0.238745
0.265009
0.279838
0.296114
0.305168
0.293213
0.278312
0.272885
0.264937
0.257235
0.257538
0.264925
0.27545
0.276124
0.276222
0.274952
0.273994
0.272656
0.271014
0.271008
0.271045
0.426409
1.21578
1.43872
1.52593
1.58194
1.61022
1.61897
1.61065
1.60024
1.59
1.57936
1.56951
1.56131
1.55029
1.54133
1.53186
1.52114
1.5105
1.49976
1.4881
1.47695
1.46645
1.45634
1.44719
1.43921
1.43275
1.4272
1.42173
1.41552
1.40867
1.40222
1.39719
1.39561
1.39666
1.39868
1.40434
1.41145
1.41362
1.411
1.40754
1.41273
1.42534
1.43951
1.46467
1.49532
1.52343
1.54332
1.56163
1.57739
1.59243
1.61727
1.64434
1.67469
1.70854
1.74967
1.78738
1.82421
1.8519
1.86719
1.88018
1.89135
1.91137
1.92311
1.93386
1.93727
1.93649
1.93491
1.93298
1.93383
1.93849
1.94332
1.94938
1.95695
1.96883
1.97958
1.98665
1.99115
1.99139
1.98823
1.983
1.97605
1.96583
1.96009
1.948
1.92848
1.93611
1.95171
0.191702
0.339989
0.278566
0.237702
0.209942
0.18228
0.191255
0.223579
0.25334
0.300107
0.329901
0.319319
0.292953
0.273996
0.256742
0.243518
0.252446
0.268913
0.28327
0.296222
0.30814
0.309615
0.298551
0.294263
0.286978
0.28086
0.279903
0.282217
0.285795
0.292383
0.305327
0.315773
0.867897
1.36849
1.53889
1.61174
1.63009
1.62893
1.61769
1.60271
1.58711
1.57263
1.55871
1.54514
1.53467
1.52418
1.5123
1.50267
1.49435
1.48682
1.47974
1.47262
1.46578
1.45882
1.45187
1.44492
1.43834
1.43212
1.42594
1.41925
1.41158
1.40362
1.39678
1.39192
1.39061
1.39272
1.40168
1.40903
1.41794
1.42821
1.44057
1.45237
1.46934
1.48594
1.50914
1.54697
1.58358
1.61611
1.63877
1.65882
1.67537
1.68895
1.71115
1.73732
1.76365
1.78532
1.80771
1.83531
1.86075
1.8767
1.8789
1.88419
1.89134
1.90657
1.92255
1.93842
1.94124
1.93741
1.93303
1.9302
1.93256
1.93628
1.93985
1.94597
1.9547
1.96684
1.97825
1.98577
1.99072
1.99395
1.99468
1.99007
1.98223
1.97314
1.96164
1.94864
1.92268
1.92056
1.95172
0.241296
0.150044
0.174196
0.229022
0.27468
0.330757
0.309898
0.261436
0.247035
0.2302
0.208317
0.215124
0.251664
0.278055
0.306248
0.327734
0.31549
0.290666
0.281031
0.270749
0.258357
0.254395
0.262892
0.27685
0.279609
0.281229
0.280828
0.281187
0.282258
0.284056
0.289442
0.292735
0.475031
1.28255
1.49128
1.58982
1.62388
1.63145
1.62177
1.60853
1.59835
1.58822
1.57845
1.57055
1.5617
1.55449
1.54303
1.53243
1.52188
1.51155
1.50184
1.49229
1.48346
1.47496
1.46644
1.45759
1.44976
1.44246
1.43551
1.4287
1.42107
1.41383
1.40739
1.40265
1.39836
1.39548
1.39637
1.4028
1.40749
1.41444
1.42454
1.4311
1.43693
1.44855
1.47507
1.50507
1.53062
1.55791
1.58204
1.60611
1.6282
1.64702
1.67058
1.69476
1.73318
1.76831
1.79981
1.82824
1.84489
1.85342
1.85402
1.86024
1.87168
1.89131
1.91804
1.93675
1.93952
1.93569
1.93589
1.93344
1.93389
1.93315
1.9364
1.94239
1.95191
1.96365
1.97533
1.98219
1.98687
1.98982
1.99082
1.98708
1.98059
1.97169
1.95688
1.94852
1.91771
1.91521
1.94873
0.14676
0.362379
0.278881
0.224056
0.189945
0.155463
0.15838
0.203828
0.238179
0.30358
0.347457
0.338177
0.299196
0.274568
0.253068
0.231368
0.235224
0.258074
0.27642
0.295202
0.312225
0.318835
0.310925
0.30211
0.289892
0.280785
0.276766
0.275478
0.276404
0.278531
0.281842
0.276901
0.287731
1.10511
1.33702
1.47345
1.53314
1.55543
1.55892
1.54816
1.54327
1.53634
1.53145
1.527
1.52421
1.52229
1.50997
1.49954
1.4885
1.47658
1.46507
1.45318
1.44021
1.42674
1.4134
1.4
1.38772
1.37709
1.36628
1.35669
1.3468
1.33634
1.32765
1.3192
1.31162
1.30562
1.30064
1.30516
1.31464
1.32368
1.33585
1.34699
1.35908
1.38145
1.40356
1.43374
1.46067
1.4965
1.53242
1.56088
1.58964
1.61026
1.6422
1.67174
1.71515
1.75746
1.78766
1.81152
1.81724
1.81974
1.81922
1.82351
1.83838
1.86218
1.89899
1.92629
1.93731
1.93508
1.93719
1.93339
1.93294
1.93244
1.93364
1.93979
1.94917
1.96084
1.97175
1.97848
1.98246
1.98586
1.98489
1.98133
1.97754
1.96717
1.95512
1.94683
1.9142
1.91341
1.94422
0.233866
0.127487
0.135092
0.196541
0.265898
0.345076
0.325721
0.263478
0.244634
0.228847
0.199893
0.192735
0.233468
0.266018
0.29807
0.332902
0.331491
0.30057
0.285154
0.275037
0.261587
0.254699
0.251054
0.263474
0.268837
0.270984
0.272133
0.272608
0.273952
0.2774
0.282394
0.281189
0.28501
0.975009
1.2868
1.39969
1.47511
1.49613
1.49761
1.4833
1.47652
1.47062
1.46796
1.46521
1.46184
1.45975
1.44915
1.43833
1.42641
1.41451
1.40197
1.38883
1.3754
1.36136
1.34571
1.32917
1.31228
1.29524
1.27849
1.26469
1.24882
1.23586
1.22547
1.21482
1.208
1.20485
1.20288
1.20771
1.20845
1.22024
1.22491
1.23834
1.24755
1.26314
1.28225
1.31894
1.35481
1.39509
1.43784
1.46808
1.50042
1.52238
1.56378
1.59864
1.6521
1.7061
1.74692
1.77885
1.78733
1.78112
1.77191
1.77193
1.78406
1.81451
1.86637
1.9084
1.93137
1.92957
1.93247
1.93012
1.92879
1.9293
1.93133
1.93856
1.94884
1.96079
1.96967
1.97615
1.98073
1.98373
1.98096
1.97888
1.97452
1.96387
1.95242
1.94429
1.91249
1.91243
1.94024
0.0923732
0.375887
0.282082
0.205953
0.174072
0.136102
0.12481
0.178229
0.21631
0.286232
0.34062
0.344251
0.297635
0.269928
0.248018
0.218519
0.208389
0.226901
0.248595
0.269762
0.284134
0.294846
0.295686
0.28502
0.275309
0.266279
0.258073
0.253248
0.249751
0.245496
0.244137
0.243881
0.253058
0.893667
1.28097
1.39862
1.45192
1.46127
1.45077
1.43995
1.42971
1.42267
1.4167
1.40999
1.40451
1.39774
1.37975
1.36384
1.3473
1.33179
1.31719
1.30338
1.2903
1.27766
1.26393
1.24681
1.22774
1.20962
1.19059
1.17292
1.15312
1.13941
1.12302
1.11264
1.10371
1.09049
1.08895
1.08536
1.09168
1.0952
1.11141
1.11788
1.13132
1.13791
1.15836
1.17398
1.21834
1.24606
1.29979
1.33465
1.37873
1.40119
1.45274
1.48797
1.54646
1.61584
1.66459
1.71425
1.74162
1.74515
1.73165
1.72484
1.72901
1.75616
1.81768
1.87857
1.91863
1.91926
1.92327
1.92647
1.92592
1.92498
1.927
1.93475
1.94422
1.95599
1.96649
1.97418
1.97859
1.98212
1.97874
1.97339
1.9691
1.95972
1.94914
1.94097
1.91028
1.91096
1.93589
0.226531
0.120288
0.113741
0.138023
0.24253
0.335925
0.33339
0.262983
0.238804
0.223047
0.18663
0.163929
0.195762
0.233029
0.264051
0.303654
0.318608
0.292853
0.271416
0.258721
0.241574
0.227397
0.221326
0.228867
0.234467
0.237778
0.241488
0.242759
0.241718
0.235533
0.233147
0.232357
0.241665
0.845372
1.27031
1.39445
1.44121
1.42324
1.39815
1.37414
1.35784
1.35096
1.34644
1.34136
1.3309
1.32217
1.30382
1.28409
1.26364
1.2427
1.22222
1.20093
1.18021
1.15763
1.13695
1.11776
1.09841
1.08319
1.06758
1.05508
1.03894
1.03099
1.01352
1.01174
0.994164
0.985293
0.980372
0.967764
0.966963
0.957339
0.970342
0.96689
0.981781
0.977158
1.00594
1.01485
1.05841
1.07895
1.14313
1.17948
1.23637
1.25935
1.32099
1.35668
1.42005
1.50881
1.57162
1.63978
1.68128
1.70285
1.69315
1.68235
1.68454
1.70456
1.76673
1.84723
1.90544
1.91055
1.91088
1.91852
1.91731
1.91868
1.92184
1.9301
1.93991
1.95128
1.96253
1.97078
1.9744
1.97718
1.97349
1.96712
1.96431
1.95523
1.94559
1.93743
1.90836
1.90936
1.93133
0.0364272
0.379665
0.283229
0.195116
0.161083
0.118238
0.0860227
0.135668
0.17754
0.239134
0.294515
0.314532
0.276192
0.244474
0.226035
0.194181
0.164079
0.163754
0.182138
0.202829
0.218582
0.234154
0.240645
0.232744
0.222004
0.211242
0.20138
0.187467
0.183483
0.182605
0.186104
0.194971
0.213287
0.720988
1.25958
1.4132
1.45555
1.38834
1.34083
1.29282
1.26805
1.2578
1.25411
1.24996
1.24109
1.23523
1.21067
1.18933
1.1654
1.14099
1.11395
1.08617
1.05926
1.03783
1.01909
1.00207
0.985709
0.972825
0.959691
0.950121
0.936194
0.934225
0.917656
0.916335
0.905695
0.899243
0.891871
0.892758
0.883994
0.890367
0.889713
0.897486
0.898111
0.893734
0.907525
0.902064
0.934018
0.950159
1.02048
1.04698
1.10718
1.12701
1.19654
1.22583
1.28098
1.37949
1.44239
1.52593
1.58704
1.63475
1.64956
1.64399
1.64501
1.66149
1.72208
1.82013
1.8944
1.90595
1.90238
1.91273
1.91088
1.91291
1.91727
1.92567
1.93552
1.94554
1.95703
1.96559
1.97004
1.97179
1.96733
1.96138
1.95942
1.95198
1.94301
1.93505
1.90675
1.90803
1.92889
0.221242
0.108457
0.0786368
0.0977369
0.2004
0.295876
0.320052
0.250395
0.219945
0.201376
0.166773
0.13426
0.147347
0.175853
0.213138
0.240988
0.266071
0.25741
0.232846
0.221345
0.206335
0.190628
0.172524
0.171122
0.173932
0.177618
0.181432
0.184427
0.186327
0.183089
0.174468
0.159682
0.140943
0.494629
1.19828
1.35656
1.38668
1.28452
1.22236
1.17416
1.1453
1.12993
1.12293
1.11873
1.1035
1.09201
1.06461
1.03827
1.01284
0.989264
0.966022
0.944465
0.9276
0.919419
0.911916
0.90651
0.897445
0.888665
0.887689
0.877476
0.870725
0.865369
0.861015
0.851586
0.85138
0.839592
0.838057
0.832537
0.829236
0.821101
0.830913
0.817655
0.835311
0.823819
0.8457
0.831757
0.862379
0.856753
0.927196
0.93898
0.993892
0.996887
1.0731
1.09185
1.12672
1.21059
1.26527
1.36167
1.44209
1.5229
1.56664
1.58109
1.59361
1.61381
1.67626
1.79183
1.88536
1.90862
1.90155
1.90844
1.91068
1.91171
1.91671
1.92431
1.93413
1.94264
1.95473
1.96118
1.96511
1.96532
1.95919
1.95358
1.95273
1.94807
1.93986
1.93272
1.90341
1.90524
1.92732
-0.0169149
0.357034
0.272652
0.200902
0.15772
0.107859
0.0447426
0.0718282
0.120823
0.162535
0.215762
0.244164
0.226371
0.202806
0.185585
0.158395
0.122023
0.104489
0.117575
0.136176
0.149354
0.164798
0.174363
0.172698
0.165348
0.152237
0.14526
0.133878
0.124384
0.113726
0.101955
0.0942922
0.108314
0.219567
1.07466
1.26212
1.27592
1.14049
1.07964
1.0318
1.00794
0.994044
0.984129
0.977669
0.968243
0.959701
0.938826
0.915956
0.895197
0.877456
0.862847
0.848989
0.840332
0.834686
0.828737
0.827393
0.819715
0.816436
0.816016
0.815945
0.808241
0.808032
0.807767
0.805234
0.797905
0.798873
0.795159
0.791053
0.781308
0.787845
0.779461
0.781958
0.787249
0.781283
0.798917
0.784683
0.815029
0.806256
0.85017
0.855595
0.905556
0.895559
0.934128
0.960591
0.992148
1.03975
1.07827
1.17554
1.24086
1.34989
1.44486
1.49401
1.53748
1.57409
1.63828
1.761
1.86499
1.90347
1.90026
1.90184
1.90605
1.91021
1.91574
1.92546
1.93716
1.94637
1.95622
1.95817
1.9607
1.95739
1.95011
1.94473
1.94285
1.93947
1.9338
1.92693
1.89844
1.90169
1.92467
0.218292
0.0952052
0.0545696
0.0895698
0.164345
0.235624
0.278039
0.237139
0.206862
0.179937
0.151999
0.12534
0.126528
0.147903
0.16814
0.187071
0.210064
0.213194
0.200047
0.18903
0.177665
0.163951
0.147664
0.142792
0.144268
0.144311
0.147006
0.151633
0.157616
0.164533
0.171922
0.178996
0.183691
0.206645
0.849578
1.10859
1.11725
1.00355
0.941372
0.897541
0.87548
0.861298
0.85545
0.853843
0.852042
0.852659
0.84515
0.840235
0.830554
0.822952
0.813778
0.805264
0.802827
0.799499
0.796336
0.798766
0.794805
0.788837
0.79624
0.79628
0.790937
0.789039
0.790955
0.784862
0.783022
0.778113
0.783129
0.773225
0.772751
0.772073
0.767145
0.763882
0.765355
0.75873
0.768347
0.771799
0.762523
0.784242
0.769329
0.813333
0.820883
0.82601
0.810014
0.835104
0.844193
0.883935
0.923133
1.00321
1.05089
1.17196
1.28721
1.36122
1.42974
1.48467
1.56181
1.71199
1.83032
1.88314
1.89135
1.89191
1.89755
1.90644
1.91226
1.92223
1.93482
1.94466
1.95246
1.95286
1.95513
1.94945
1.93995
1.93428
1.93058
1.92824
1.92412
1.91935
1.8931
1.89801
1.92334
-0.0550023
0.278952
0.243084
0.199217
0.154413
0.117882
0.060298
0.0684352
0.109271
0.139303
0.178185
0.199929
0.193123
0.17913
0.171003
0.15453
0.135415
0.123251
0.126119
0.135041
0.146944
0.154957
0.16017
0.159018
0.15239
0.145386
0.138177
0.130457
0.115094
0.100982
0.0847755
0.0648959
0.0515696
0.0699053
0.202559
1.06101
1.09053
0.993368
0.895023
0.832825
0.79494
0.782792
0.780348
0.779242
0.774653
0.789346
0.793814
0.794812
0.795043
0.7947
0.791785
0.789433
0.787374
0.785916
0.785424
0.787888
0.780741
0.781333
0.782822
0.774118
0.772966
0.776424
0.769484
0.773041
0.773469
0.770757
0.775561
0.770115
0.765472
0.770191
0.760735
0.762201
0.761918
0.757693
0.761771
0.76686
0.746909
0.780333
0.760383
0.805908
0.792716
0.783897
0.770598
0.753255
0.745805
0.799642
0.824714
0.854601
0.91887
0.974342
1.08805
1.20514
1.31899
1.39971
1.49895
1.68342
1.81308
1.86364
1.87989
1.88666
1.89306
1.90581
1.91629
1.92628
1.93867
1.95005
1.95775
1.95618
1.95736
1.94787
1.93469
1.9261
1.92033
1.91568
1.91438
1.90966
1.88636
1.89246
1.92267
0.218674
0.109761
0.101563
0.122757
0.166205
0.20215
0.233618
0.220876
0.202447
0.179478
0.158368
0.141299
0.139796
0.147472
0.158036
0.167697
0.178026
0.182149
0.176855
0.16987
0.164299
0.155881
0.146395
0.142495
0.14152
0.139784
0.13709
0.135537
0.134563
0.133673
0.130757
0.123731
0.12056
0.167331
0.580787
1.29931
1.08995
0.992896
0.898331
0.837259
0.795235
0.781305
0.77545
0.779626
0.784257
0.790484
0.793534
0.793927
0.795358
0.792618
0.794583
0.794279
0.794585
0.797832
0.798388
0.796744
0.79415
0.794509
0.785778
0.783469
0.785943
0.787424
0.782368
0.792294
0.784584
0.792014
0.785565
0.783937
0.783675
0.779373
0.779699
0.779894
0.782512
0.777171
0.787909
0.78136
0.803969
0.819331
0.860627
0.849424
0.838097
0.792947
0.809857
0.784274
0.765573
0.772852
0.780011
0.784764
0.856566
0.874963
0.942319
1.0494
1.18814
1.32092
1.48193
1.68456
1.81308
1.84815
1.86411
1.8795
1.89398
1.90758
1.91983
1.93017
1.9414
1.95501
1.96582
1.9743
1.9678
1.95417
1.93699
1.92233
1.91349
1.9064
1.90422
1.90031
1.87909
1.88437
1.92021
-0.0424771
0.207504
0.207327
0.19023
0.170115
0.146893
0.118059
0.12007
0.146945
0.163403
0.18186
0.194424
0.185024
0.179345
0.174894
0.165666
0.158755
0.151898
0.150674
0.153945
0.157835
0.160929
0.162564
0.158659
0.152645
0.147052
0.139919
0.134098
0.123484
0.114782
0.107624
0.105876
0.113846
0.177535
0.50034
1.11751
1.06152
1.00465
0.925521
0.878056
0.82719
0.819725
0.814541
0.820128
0.826215
0.831326
0.83904
0.846443
0.852282
0.853957
0.860695
0.864659
0.873731
0.875797
0.880355
0.88084
0.890488
0.877404
0.887882
0.881166
0.892472
0.889742
0.902974
0.899483
0.903296
0.891776
0.891165
0.881335
0.892682
0.884225
0.896116
0.899808
0.925314
0.938961
0.96861
0.978611
1.03169
1.03253
1.04682
0.96196
0.920912
0.846005
0.841989
0.818811
0.822406
0.838926
0.827974
0.800057
0.823708
0.849306
0.880867
0.951778
1.07288
1.24749
1.46619
1.69523
1.81311
1.84126
1.85573
1.86913
1.88294
1.89727
1.91365
1.92917
1.94358
1.95291
1.96371
1.96298
1.96844
1.95813
1.94242
1.92094
1.90568
1.89564
1.89183
1.88939
1.87019
1.87499
1.91603
0.230921
0.134511
0.132998
0.141869
0.162937
0.181716
0.197634
0.194213
0.190066
0.178661
0.168766
0.157431
0.156136
0.157856
0.162612
0.165008
0.168064
0.168545
0.166974
0.16405
0.16047
0.155843
0.149353
0.143439
0.137816
0.130749
0.123595
0.115479
0.105219
0.0921884
0.0735612
0.0476912
0.0357926
0.0865863
0.438216
0.868223
0.974583
1.0003
0.952814
0.932298
0.898631
0.911333
0.920305
0.926337
0.931859
0.933696
0.943975
0.951282
0.964316
0.975204
0.987611
1.00049
1.01757
1.03417
1.04945
1.05963
1.07506
1.08199
1.09175
1.10111
1.11902
1.13827
1.16376
1.19029
1.21025
1.22851
1.24251
1.25632
1.2659
1.29202
1.30943
1.34257
1.36479
1.39659
1.41228
1.42343
1.41803
1.39206
1.31851
1.20354
1.10739
0.996879
0.885547
0.819667
0.836611
0.878508
0.88521
0.879268
0.863047
0.88102
0.936626
0.95898
1.04724
1.23871
1.51141
1.75395
1.82705
1.84486
1.85943
1.87325
1.88895
1.90347
1.91658
1.92803
1.94122
1.94692
1.95964
1.96587
1.97356
1.96592
1.94972
1.92058
1.90126
1.88676
1.88069
1.87867
1.85984
1.86521
1.9056
0.0539297
0.195155
0.192703
0.181559
0.171303
0.162982
0.153315
0.154721
0.166115
0.174715
0.181289
0.18472
0.182086
0.17565
0.172875
0.168906
0.165294
0.162415
0.160073
0.159553
0.159407
0.158945
0.157988
0.155809
0.151871
0.146464
0.139504
0.132668
0.123301
0.116722
0.10679
0.101482
0.11475
0.316396
0.678907
0.903386
1.07965
1.10457
1.07874
1.06572
1.05325
1.06051
1.07691
1.09456
1.10391
1.11678
1.13405
1.14794
1.15948
1.17161
1.18498
1.20127
1.22125
1.24648
1.27603
1.30379
1.33442
1.36048
1.38606
1.41181
1.44247
1.47782
1.5189
1.55812
1.59232
1.6188
1.64198
1.66192
1.68109
1.69889
1.7167
1.73359
1.74462
1.75067
1.74725
1.73061
1.6983
1.65891
1.57738
1.47798
1.34864
1.21962
1.09901
0.995355
0.886649
0.85169
0.82596
0.840205
0.890082
0.958473
0.945884
0.941521
1.0539
1.34179
1.63116
1.80624
1.85382
1.86584
1.88012
1.89245
1.90538
1.91653
1.92194
1.92989
1.94086
1.94582
1.95764
1.96621
1.97221
1.96805
1.95211
1.92383
1.89851
1.88044
1.8714
1.86904
1.85009
1.85412
1.89175
0.211839
0.156042
0.150182
0.149779
0.162474
0.170613
0.178368
0.177719
0.17746
0.176229
0.17249
0.168735
0.16772
0.166991
0.167509
0.167546
0.167143
0.1661
0.164433
0.162493
0.159544
0.157103
0.153728
0.14858
0.143768
0.13861
0.133098
0.126914
0.121049
0.11453
0.101728
0.095071
0.119703
0.562875
0.812062
0.937976
1.11458
1.21181
1.22893
1.22837
1.23409
1.24835
1.26262
1.28194
1.29595
1.3097
1.33463
1.3564
1.37791
1.39879
1.42079
1.44368
1.47065
1.50444
1.54403
1.58844
1.63216
1.67187
1.70518
1.73182
1.75342
1.76819
1.78104
1.79191
1.79945
1.8048
1.80965
1.81284
1.81643
1.81613
1.81191
1.81008
1.80662
1.80007
1.78684
1.76607
1.73704
1.7076
1.66685
1.61366
1.51384
1.38002
1.20984
1.0984
1.06161
1.00303
0.96278
0.980618
0.973764
0.995291
1.03258
1.09028
1.2237
1.51383
1.739
1.84133
1.87355
1.88547
1.89948
1.90829
1.91805
1.9211
1.92394
1.93168
1.94177
1.94688
1.95939
1.96827
1.97229
1.96511
1.95166
1.92596
1.89613
1.87487
1.86373
1.85986
1.84046
1.84201
1.8755
0.130141
0.186943
0.18064
0.17004
0.167996
0.166168
0.164757
0.165939
0.17056
0.173475
0.176583
0.177108
0.175546
0.17267
0.170663
0.168708
0.165719
0.16389
0.161681
0.159588
0.157801
0.156972
0.155013
0.15135
0.14757
0.143151
0.138574
0.132395
0.123439
0.112384
0.103234
0.109857
0.130723
0.749487
0.928138
1.0479
1.2195
1.3261
1.36222
1.38687
1.40968
1.42975
1.4525
1.47317
1.49624
1.51525
1.54491
1.57384
1.60199
1.63001
1.65587
1.68034
1.70287
1.72254
1.73838
1.75252
1.76179
1.77114
1.78013
1.78881
1.79677
1.80428
1.81156
1.81725
1.82104
1.82202
1.81675
1.80603
1.79965
1.78624
1.77891
1.77628
1.76976
1.76124
1.75246
1.73816
1.72052
1.70295
1.68121
1.64288
1.57595
1.50306
1.31105
1.08146
1.01619
1.01369
1.01227
1.04053
1.02637
0.98797
1.04278
1.20175
1.41987
1.65332
1.80304
1.8606
1.88895
1.90438
1.91385
1.92047
1.92192
1.92174
1.92674
1.93365
1.94428
1.95085
1.96317
1.97102
1.97305
1.96534
1.95133
1.92809
1.89364
1.86848
1.85517
1.85018
1.83096
1.82925
1.85908
0.177393
0.164947
0.161364
0.157744
0.163532
0.167131
0.171532
0.172164
0.172836
0.173453
0.173087
0.172261
0.171053
0.170134
0.169303
0.168054
0.166167
0.16457
0.162626
0.160204
0.158066
0.156675
0.153625
0.149224
0.146453
0.144351
0.142971
0.141633
0.140479
0.139609
0.135483
0.138656
0.277436
0.985942
1.1349
1.29458
1.44953
1.54309
1.57988
1.60365
1.62206
1.63826
1.65443
1.66664
1.68162
1.68972
1.71103
1.72861
1.74569
1.7612
1.77543
1.78688
1.79502
1.8
1.80252
1.80212
1.80182
1.80314
1.80684
1.8101
1.81236
1.81524
1.81868
1.82119
1.8217
1.81877
1.80819
1.78467
1.77173
1.76775
1.76571
1.76168
1.76227
1.7529
1.74899
1.74078
1.73114
1.71553
1.70079
1.66943
1.62196
1.55141
1.39183
1.19533
1.07842
1.01372
1.01564
1.013
1.05209
1.069
1.17809
1.3682
1.60147
1.76153
1.84266
1.8793
1.90435
1.91607
1.92052
1.92292
1.92521
1.9252
1.92981
1.93835
1.94804
1.95717
1.96712
1.97255
1.97306
1.96483
1.95082
1.92895
1.89368
1.86257
1.84651
1.84049
1.82094
1.81583
1.84287
0.153374
0.173139
0.17143
0.167322
0.16668
0.166311
0.167746
0.169257
0.171108
0.172295
0.173195
0.173197
0.172577
0.171128
0.169492
0.167761
0.166049
0.16336
0.161666
0.159075
0.157119
0.155566
0.152759
0.150009
0.148634
0.14658
0.144603
0.142747
0.142109
0.142544
0.147424
0.162239
0.618136
1.16571
1.39985
1.55259
1.63831
1.68058
1.70502
1.72194
1.73298
1.74136
1.74678
1.75078
1.75905
1.7631
1.77162
1.77902
1.78641
1.79248
1.79625
1.79842
1.79916
1.79937
1.79819
1.79568
1.79386
1.79109
1.78856
1.78382
1.78148
1.78047
1.78073
1.78508
1.7838
1.77624
1.76345
1.73156
1.72383
1.72951
1.7341
1.72708
1.73108
1.73794
1.74288
1.74332
1.7384
1.72711
1.71885
1.69513
1.66133
1.60572
1.48882
1.32417
1.16824
1.07296
1.05433
1.02985
1.06601
1.16161
1.34486
1.56564
1.73209
1.81765
1.85805
1.88711
1.91039
1.91686
1.91859
1.91418
1.92264
1.92595
1.93268
1.94204
1.94843
1.96028
1.9687
1.97296
1.97213
1.96352
1.95029
1.92927
1.89395
1.85702
1.8371
1.83045
1.8101
1.80166
1.82722
0.162162
0.16531
0.164168
0.164534
0.166388
0.167956
0.170188
0.17132
0.171768
0.171965
0.172373
0.171831
0.171373
0.170603
0.16919
0.167305
0.165873
0.163328
0.161088
0.159136
0.157691
0.156314
0.154055
0.152165
0.15191
0.153154
0.156299
0.159711
0.166043
0.175925
0.179707
0.198242
1.00297
1.38873
1.59464
1.68289
1.72785
1.75585
1.77196
1.78368
1.78761
1.7897
1.78981
1.78958
1.79187
1.79139
1.79555
1.79936
1.80266
1.80413
1.80453
1.8048
1.80548
1.8054
1.80402
1.80165
1.79865
1.79439
1.78853
1.77941
1.76618
1.7528
1.73778
1.72659
1.72385
1.7278
1.7212
1.69999
1.67856
1.6729
1.69018
1.70531
1.72065
1.72632
1.73417
1.73994
1.73808
1.73217
1.7273
1.71029
1.68361
1.64117
1.5693
1.45621
1.28587
1.16769
1.11402
1.08091
1.1309
1.27511
1.5305
1.72867
1.80537
1.85084
1.8693
1.8906
1.90872
1.91214
1.914
1.91007
1.91865
1.92527
1.93471
1.9447
1.95206
1.96335
1.97041
1.97385
1.9718
1.96258
1.94951
1.92904
1.89413
1.85241
1.82794
1.81999
1.79825
1.78674
1.81232
0.158188
0.1686
0.168283
0.167011
0.167807
0.16849
0.169513
0.170409
0.170941
0.171419
0.171678
0.171606
0.171294
0.170951
0.169452
0.167177
0.164996
0.16273
0.160252
0.15847
0.157077
0.155551
0.153041
0.151282
0.150166
0.149831
0.15028
0.152033
0.156532
0.165758
0.173316
0.404993
1.35868
1.61921
1.72721
1.76998
1.78918
1.80668
1.81405
1.81553
1.81364
1.81269
1.81267
1.811
1.81131
1.81103
1.81158
1.81118
1.81246
1.81374
1.81337
1.81264
1.81218
1.81241
1.81323
1.81229
1.8094
1.80543
1.79674
1.78277
1.76449
1.74366
1.72154
1.69803
1.67457
1.65922
1.65197
1.65723
1.6521
1.6371
1.62408
1.63603
1.64925
1.663
1.67703
1.70327
1.7197
1.72882
1.73231
1.7204
1.70838
1.68185
1.63189
1.5643
1.45852
1.35993
1.32384
1.29298
1.35137
1.50143
1.67446
1.786
1.83467
1.85977
1.87467
1.89129
1.90259
1.9045
1.90699
1.90838
1.91488
1.92291
1.93357
1.94547
1.95597
1.96549
1.97264
1.97523
1.97257
1.96279
1.94991
1.92924
1.89405
1.84853
1.81941
1.80959
1.78606
1.77199
1.79787
0.16191
0.166129
0.166383
0.166777
0.168786
0.169916
0.17055
0.171497
0.171795
0.171823
0.171705
0.171454
0.170864
0.170327
0.168931
0.166667
0.164412
0.16247
0.159884
0.157966
0.156652
0.155802
0.154704
0.15399
0.155419
0.160208
0.169102
0.184055
0.208245
0.246398
0.271671
0.987004
1.4164
1.63376
1.70584
1.73727
1.75786
1.76791
1.76823
1.77022
1.77249
1.77628
1.78061
1.78531
1.79159
1.79451
1.79634
1.79767
1.7984
1.79925
1.7987
1.79844
1.79751
1.79712
1.79782
1.79879
1.79828
1.80011
1.79832
1.79222
1.77845
1.75594
1.72982
1.70047
1.6699
1.638
1.6099
1.58573
1.56378
1.55558
1.56984
1.58509
1.59949
1.60544
1.60812
1.61645
1.63591
1.64454
1.65938
1.68317
1.70309
1.70186
1.67691
1.61449
1.53643
1.46563
1.44588
1.45016
1.50608
1.60575
1.70778
1.77421
1.82845
1.85222
1.86589
1.88419
1.89309
1.89641
1.89721
1.90607
1.91299
1.9228
1.9341
1.94422
1.95765
1.96838
1.97557
1.97656
1.97313
1.96285
1.94983
1.92875
1.89328
1.84446
1.81078
1.79868
1.77371
1.75693
1.78442
0.163023
0.16699
0.167944
0.168408
0.169652
0.170512
0.170995
0.171974
0.172019
0.171705
0.171798
0.171482
0.170808
0.170074
0.168625
0.166453
0.163999
0.161659
0.159136
0.156881
0.155131
0.154391
0.152608
0.148873
0.147273
0.145786
0.143546
0.138252
0.128448
0.10756
0.0660586
0.0543719
0.848868
1.17021
1.37333
1.50891
1.63091
1.71248
1.74769
1.77107
1.78224
1.78794
1.79585
1.80245
1.8101
1.81553
1.82186
1.82653
1.82885
1.82875
1.8279
1.82863
1.82937
1.83057
1.83237
1.8347
1.83731
1.83975
1.84064
1.83865
1.83208
1.8204
1.80029
1.77503
1.73691
1.68451
1.63262
1.58915
1.55241
1.52154
1.50161
1.49702
1.5019
1.52489
1.54818
1.55629
1.5749
1.5741
1.56685
1.57069
1.58722
1.61673
1.64101
1.63876
1.61031
1.56171
1.54799
1.53701
1.56128
1.61887
1.69638
1.74805
1.80576
1.83434
1.84886
1.86781
1.87644
1.8835
1.88406
1.89807
1.91082
1.92141
1.93414
1.94026
1.95659
1.96914
1.97549
1.97556
1.97201
1.96176
1.94868
1.92732
1.89153
1.84002
1.80187
1.78724
1.76261
1.74309
1.77173
0.164385
0.167164
0.16763
0.169312
0.171018
0.171801
0.17254
0.173121
0.17285
0.172759
0.172147
0.171397
0.1706
0.169409
0.167503
0.165879
0.163062
0.16033
0.158303
0.155844
0.153534
0.152586
0.150979
0.14801
0.143832
0.141483
0.138742
0.137424
0.134071
0.129202
0.125636
0.138536
0.544796
0.884321
1.04576
1.17298
1.31779
1.46491
1.57861
1.65184
1.70317
1.72279
1.74248
1.75704
1.77058
1.77302
1.77766
1.77713
1.77475
1.77331
1.77181
1.77131
1.77181
1.7713
1.77145
1.77179
1.77551
1.78138
1.78715
1.79142
1.79072
1.78535
1.7779
1.76795
1.75302
1.72158
1.67941
1.63003
1.57656
1.53586
1.50416
1.4828
1.47618
1.47358
1.46896
1.45805
1.45737
1.47637
1.49188
1.5075
1.51942
1.52032
1.53152
1.5296
1.54122
1.56333
1.56669
1.56359
1.57402
1.60516
1.66544
1.72762
1.78357
1.81244
1.82846
1.84801
1.85602
1.86484
1.87364
1.89001
1.90241
1.91581
1.93068
1.93621
1.9545
1.96777
1.97342
1.97304
1.97001
1.96032
1.94713
1.92525
1.88906
1.83536
1.79323
1.77677
1.75041
1.72945
1.76043
0.165702
0.168003
0.169159
0.170109
0.172073
0.172868
0.17363
0.173823
0.173734
0.173454
0.172447
0.171593
0.170473
0.169091
0.167245
0.165476
0.162485
0.15943
0.157057
0.154901
0.152583
0.149901
0.147721
0.14562
0.142409
0.138155
0.133524
0.130104
0.126275
0.119067
0.112448
0.112493
0.275445
0.624043
0.707994
0.802569
0.941925
1.09885
1.25467
1.38107
1.47676
1.53018
1.55028
1.56665
1.54909
1.52659
1.51935
1.49627
1.46873
1.4449
1.42384
1.40422
1.38972
1.37106
1.36541
1.38506
1.41255
1.44888
1.48174
1.52095
1.56204
1.59554
1.62233
1.63933
1.64255
1.63458
1.62036
1.58872
1.54954
1.508
1.47757
1.45956
1.4594
1.46569
1.46277
1.44911
1.42337
1.40723
1.39958
1.39955
1.40438
1.40493
1.44125
1.46488
1.49754
1.51156
1.5156
1.53204
1.55328
1.58632
1.63235
1.67885
1.73859
1.77391
1.79955
1.8254
1.83443
1.84478
1.86254
1.87768
1.89015
1.90607
1.92332
1.93388
1.9513
1.96347
1.96888
1.96925
1.96696
1.95815
1.94477
1.92221
1.88545
1.83023
1.78488
1.76699
1.7394
1.71545
1.7492
0.166982
0.16909
0.169889
0.171398
0.173315
0.174006
0.174481
0.174596
0.174705
0.174348
0.173368
0.171885
0.170557
0.168918
0.166962
0.165152
0.162112
0.158364
0.155774
0.153417
0.151596
0.148432
0.144449
0.140894
0.137153
0.132513
0.124257
0.115757
0.104517
0.0887189
0.0618266
0.0507449
0.0616607
0.421502
0.534341
0.591502
0.682935
0.757954
0.818926
0.870771
0.846839
0.855106
0.768494
0.83423
0.847383
0.937869
1.12055
1.16054
1.16667
1.16112
1.16374
1.19095
1.21482
1.23295
1.22321
1.22309
1.21861
1.2129
1.19838
1.18825
1.18338
1.19762
1.22882
1.26926
1.30723
1.34056
1.3694
1.38229
1.36335
1.36712
1.34534
1.35603
1.3848
1.41578
1.43322
1.44362
1.42729
1.39216
1.36048
1.33795
1.32702
1.32093
1.33765
1.34823
1.3827
1.42907
1.46905
1.49113
1.51842
1.55005
1.59425
1.64373
1.69965
1.73915
1.77352
1.80277
1.81453
1.8279
1.85168
1.86605
1.8778
1.89441
1.91277
1.92976
1.94437
1.956
1.96145
1.96471
1.96294
1.95503
1.94122
1.91785
1.88054
1.82477
1.77684
1.75768
1.72899
1.70195
1.73849
0.168146
0.170129
0.171367
0.172756
0.174357
0.174967
0.175252
0.175441
0.17546
0.175159
0.174306
0.172766
0.171144
0.169318
0.166965
0.164935
0.161992
0.157966
0.154863
0.152074
0.149897
0.146698
0.140511
0.136127
0.131948
0.128235
0.125175
0.121314
0.117227
0.115037
0.111322
0.117812
0.142792
0.325759
0.457496
0.47022
0.495094
0.515987
0.546736
0.588624
0.62562
0.771033
0.935554
1.1001
1.22155
1.30266
1.29793
1.18873
1.108
1.01946
0.980122
0.960543
0.939296
0.916968
0.906374
0.895987
0.897435
0.89068