/*--------------------------------*- C++ -*----------------------------------*\
| =========                 |                                                 |
| \\      /  F ield         | OpenFOAM: The Open Source CFD Toolbox           |
|  \\    /   O peration     | Version:  2.2.x                                 |
|   \\  /    A nd           | Web:      www.OpenFOAM.org                      |
|    \\/     M anipulation  |                                                 |
\*---------------------------------------------------------------------------*/
FoamFile
{
    version     2.0;
    format      ascii;
    class       volScalarField;
    location    "1.65";
    object      pB;
}
// * * * * * * * * * * * * * * * * * * * * * * * * * * * * * * * * * * * * * //

dimensions      [1 1 -3 0 0 -1 0];

internalField   nonuniform List<scalar> 
14161
(
0.0122138
-0.00799964
-0.00334856
0.00305612
0.00505095
0.00383621
0.00303303
-0.000433767
-0.00121887
-0.00331237
-0.00284739
-0.0015489
0.000911626
0.00199338
0.00251276
0.00184039
0.000791056
-0.000778567
-0.0016
-0.00236698
-0.0019543
-0.00122045
-0.000732592
-0.000181964
-0.000210168
-7.28923e-05
-0.000276429
-0.000377255
-0.000574847
-0.00144203
-0.0025991
-0.00621913
0.0006249
0.0453202
-0.0122967
-0.00894255
-0.00176133
-0.00172522
-0.00166049
-0.00132998
-0.000998527
-0.000651819
-0.000253819
0.000401523
0.00168186
0.000263799
0.00167359
0.00134055
0.0016429
0.00180398
0.00181636
0.00145033
0.00110768
0.000630992
-0.000118687
-0.000299984
-0.00102288
-0.00128926
-0.00144048
-0.00156637
-0.00153474
-0.00155026
-0.00153896
-0.00138974
-0.00138328
4.18727e-05
0.000971158
0.00203761
0.00287115
0.00285317
0.00294147
0.00216502
0.00207015
0.00166975
0.00172403
0.00185134
0.00178102
0.00183259
0.00128797
0.000162931
-0.000692555
-0.00110154
-0.000325014
-0.00187888
-0.000965146
-0.00357391
-0.00397979
-0.00306394
-0.00270424
0.000460788
0.00344331
0.00534459
0.00483285
0.00366742
0.00238682
0.00126099
0.000912425
0.000618064
-0.000131084
0.000358224
-0.000289842
-0.000433433
-0.000446581
-0.000284211
-0.000324975
-0.000487199
-0.000557123
-0.000441073
-0.000625038
-0.000617678
-0.00067474
-0.000571487
-0.000904728
-0.000506059
-0.000976689
0.000695631
-0.00369196
0.00463917
-0.00963833
-0.00127185
0.0270623
0.00116228
-0.00377661
-0.012085
-0.014335
-0.00300415
0.000998098
0.0057098
0.0117517
0.0114021
0.00324015
-0.000839769
-0.00462474
-0.00860702
-0.00623403
-0.00144414
0.000462921
0.00253026
0.00488111
0.00479355
0.00201003
-0.000566206
-0.00138012
-0.00196659
-0.00172425
-0.000882283
-0.000283209
0.00014457
0.0002846
4.49381e-05
-0.00147743
-0.00233101
0.00702753
0.00496442
0.000880039
0.00284585
0.00318386
0.00388293
0.0051667
0.00436768
0.0029999
0.00200101
0.000872812
0.00113528
0.00454351
9.8763e-05
-0.000401012
-0.00166359
-0.0020401
-0.00222819
-0.00234703
-0.00221405
-0.00160341
-0.00177591
-0.00129657
-0.000690939
-2.60955e-05
0.00015613
5.72716e-05
-0.000152081
-0.00051741
-0.000796489
-0.00110034
-0.00101387
-0.000891862
-0.000510106
-0.00100408
-0.00180343
-0.00153341
-0.00163371
-0.000806715
-0.000850522
-0.000101874
-0.000500246
-0.00018857
0.000186974
-0.000438946
0.000228449
6.33256e-05
0.00115
-0.000116453
0.000720466
-0.00054951
0.0011398
0.000391732
0.00289397
0.00316589
0.00779857
0.00189212
0.0029771
0.00103389
0.00144392
0.00101639
-0.000446481
-0.000436217
-0.00066894
-0.000552931
-0.000614618
-0.000510824
-0.000297589
-0.000289502
-0.000383313
-0.00030215
-0.000684457
-0.000564337
-0.000271671
-0.000467807
-0.000116679
-0.000516302
0.000305617
-6.82084e-05
0.000264939
0.00014285
-0.0018268
0.00199142
-0.00361839
0.00441018
-0.00488193
0.0249354
-0.0419889
-0.00501155
0.00764276
0.0193183
0.0236899
0.00668022
-0.000601305
-0.00837666
-0.0169908
-0.0166597
-0.0038457
0.00138344
0.00758475
0.0129731
0.0103502
0.00170997
-0.00103399
-0.00506802
-0.00909352
-0.00878361
-0.00428881
-0.000480342
0.000998796
0.00159631
0.00141379
0.000541178
0.000388491
-0.000550286
-0.0010388
-0.0009547
-0.000778795
-0.00325624
0.022105
0.0142703
0.00685269
0.00334699
0.00343507
-0.00284644
-0.0053653
-0.00511348
-0.00468605
-0.00348295
-0.0036541
-0.00334091
-0.00591944
-0.00307088
-0.00241593
-0.00178747
-0.00167818
-0.00161207
-0.00141745
-0.00140479
-0.0016745
-0.000701417
-0.00069819
-0.000456099
-0.000495641
-0.000195291
0.000194313
0.00054625
0.000908477
0.00118242
0.00129494
0.00110821
0.00156456
0.000961248
0.000301077
0.000199358
-0.000216948
-0.000968095
-0.00218362
-0.0021315
-0.00210802
-0.00303899
-0.000571936
-0.000622337
-0.000587716
0.000568306
-0.000206713
0.00158341
0.000210773
0.00354473
0.00119324
0.00321064
0.000991437
0.00233614
-0.000323334
0.000716707
6.86302e-05
-0.000222438
-0.000747668
8.64727e-05
-4.71683e-05
0.000130299
-0.000254091
-0.000211596
-9.11151e-05
-0.000248819
-0.000149388
-0.000261498
-0.000727611
-0.000248749
-0.000404569
-0.000375281
-0.000284387
-0.00055207
-0.000388581
-0.00043574
-0.000334708
-0.000867894
-0.000547207
-0.000966599
-0.000301305
-0.00206989
0.00126413
-0.00475988
0.00380954
-0.00676041
-0.0134904
0.0587506
0.00355366
-0.00702066
-0.025889
-0.0320418
-0.00831587
0.00160761
0.011554
0.0226786
0.0247339
0.00764723
-0.00176865
-0.00947066
-0.0175797
-0.0150966
-0.00352574
0.000576181
0.00536927
0.00974108
0.0112184
0.00491709
-0.000316412
-0.00195551
-0.00358393
-0.00359384
-0.00195354
-0.000888282
0.000904301
0.00303581
0.00702703
0.014077
0.0101049
-0.00618684
-0.0035254
-0.00142951
-0.00076323
-0.00129456
0.000336386
0.00113556
0.00138342
0.000756696
0.000540389
-0.000382909
0.000245472
-0.000808925
-0.000491877
-0.000380511
-0.000278063
-0.00015277
-1.33273e-05
0.000180072
0.000298499
0.000393065
0.000503109
0.00034256
0.000315597
0.0001085
-0.00010566
-0.000347114
-0.00071383
-0.00102004
-0.00147951
-0.0017407
-0.00166194
-0.0013232
-0.00135694
-0.00117508
-0.00124409
-0.00137495
-0.00108834
-5.77188e-05
0.00292189
0.00596177
0.00461428
0.00576945
0.00370397
0.00335633
0.00281635
0.00127668
0.00148826
-0.00183079
-0.00279189
-0.00241461
-0.00132665
-0.000712254
0.000752354
0.00250355
0.00219582
-0.000592201
0.000989557
-0.00121717
0.000172455
0.000406038
6.70676e-05
-0.000258496
-0.000447544
-0.000557357
-0.000504217
-0.000475572
-0.000518342
-0.000397935
-0.000550956
-0.000612333
-0.000547909
-0.00063116
-0.000298856
-0.000468821
-0.000190931
-0.000391557
-0.000141362
-0.000215755
-0.000848259
0.000602284
-0.00231734
0.00213293
-0.0042565
0.00342568
-0.00493419
0.0368028
-0.0705037
-0.00611878
0.00842629
0.0299342
0.0409448
0.0136471
-0.0012178
-0.012727
-0.0265526
-0.0279127
-0.00862791
0.00150057
0.0103492
0.0193155
0.0199641
0.00535958
-0.000941868
-0.0066314
-0.0108609
-0.0143531
-0.00802422
-0.00159441
0.000510555
0.00253245
0.00270894
0.00188633
0.00132307
0.000908735
0.00108494
0.0010288
0.00150294
-0.00154324
0.0149493
0.0125472
0.00940864
0.00436481
0.00229147
-0.00198915
-0.00242916
-0.00311677
-0.00311005
-0.00286384
-0.00294964
-0.00244711
-0.00336814
-0.00297498
-0.00220253
-0.00202857
-0.00175518
-0.00152467
-0.00124663
-0.0011373
-0.000997929
-0.000910721
-0.000750451
-0.000626344
-0.00045146
-0.000360657
-5.6464e-05
0.000225214
0.000447327
0.00072952
0.000923594
0.00152229
0.00156564
0.00228242
0.00189452
0.000602304
0.000246827
-0.000824392
-0.00248585
-0.00529569
-0.00751191
-0.00422481
-0.00410378
-0.00524739
-0.00224091
-0.00242744
-0.00122634
0.000844135
-0.000909796
0.00401655
-0.000270365
0.00241012
-0.000615242
0.000935573
-0.000310652
0.000488651
-0.000641891
0.000278147
-0.00184782
-0.000938905
-0.00123857
-0.000525686
0.00034811
-2.00668e-05
4.22502e-05
-0.000269763
-0.000559247
-0.000477161
-0.000483407
-0.000637935
-0.000282099
-0.00063645
-0.000167444
-0.000269722
-0.000234625
-0.000389171
-0.000292862
-0.00057251
-0.000372456
-0.00148708
0.000578485
-0.00245623
0.0019414
-0.00409704
0.00308956
-0.00446824
-0.0263457
0.0822351
0.00973273
-0.00776238
-0.0360183
-0.045776
-0.0144506
0.000736006
0.0139771
0.0278985
0.0347247
0.0138622
-0.00105359
-0.0110055
-0.0218534
-0.0237806
-0.0082265
-0.000344984
0.00563758
0.0100587
0.0144436
0.0089263
0.00172617
-0.00141652
-0.00376232
-0.00495137
-0.00375029
-0.00241243
-0.00127162
-0.000340145
0.000666783
-0.00233072
0.00993644
-0.00709412
0.015939
0.00266266
0.000821308
0.00101756
0.000395036
0.00045895
0.00105392
0.000738852
0.00119871
0.000446737
0.00127876
0.000866869
3.21003e-05
0.00137243
2.20891e-05
-8.13432e-05
-0.00031842
-0.000300493
-0.000238049
-5.04804e-05
-0.000199501
-0.000225199
-0.000143457
-0.000216995
-0.000157049
-0.000214333
-0.000615638
-0.000689952
-0.00130832
-0.00146809
-0.00180934
-0.00336215
-0.00328597
-0.00131588
-0.00112349
-1.80888e-05
0.000953732
0.00316565
0.00465495
0.00534596
0.00419239
0.00322137
0.00242818
0.00192363
0.00278956
-0.000668752
0.00274757
-0.000294903
0.00242559
0.000492915
0.00283773
0.00123781
0.000305628
-0.000227532
-0.000448802
-0.0011813
0.000578088
-0.00153978
0.000774902
-9.58395e-05
0.000533428
0.000482387
-0.000250187
7.99426e-05
-0.00048816
-0.000683761
-0.000471328
-0.000500798
-0.000506189
-0.000536442
-0.000576865
-0.000613109
-0.000655383
-0.000543154
-0.000355424
-0.000361449
-0.000253333
4.31627e-05
-0.00157625
0.0010498
-0.00250201
0.00213416
-0.0036787
0.00293099
-0.00355398
0.0478921
-0.0907474
-0.00984078
0.00677537
0.0361667
0.0533929
0.0219506
-0.000224062
-0.013873
-0.0297498
-0.0372056
-0.0147778
0.000482509
0.0101748
0.0204461
0.0277786
0.0118476
0.000652985
-0.00567065
-0.0110309
-0.0143187
-0.0120178
-0.00676269
-0.000708038
0.00135567
0.00267091
0.00270817
0.00276557
0.00243687
0.00215994
0.00226197
0.00122361
0.00245853
0.00915094
0.0159621
0.00436163
0.00420901
0.00168513
-0.00105199
-0.00122514
-0.00129204
-0.00127654
-0.00151885
-0.00160805
-0.00180709
-0.00111776
-0.00199562
-0.000216309
-0.00100836
-0.000720164
-0.00107936
-0.00120021
-0.00127675
-0.0012529
-0.00159142
-0.00152956
-0.00149185
-0.00143601
-0.00128635
-0.00119159
-0.000909724
-0.000281203
0.000177774
0.000690378
0.000644104
0.00147114
0.000784997
0.000485479
-0.000143955
-0.0012614
-0.00237724
-0.00349995
-0.00462843
-0.00448754
-0.00268456
1.27907e-05
-0.0020599
-0.000120466
0.000753382
-0.00255479
0.0016241
-0.00279203
0.00171372
-0.00201963
0.00225261
0.00082204
0.00119329
0.00110004
-0.000288355
-0.000502511
0.00045378
-0.00138702
0.000698651
-0.000541756
0.000886038
0.000366009
-0.000677926
-6.96536e-05
-0.000562189
-0.000655492
-0.000559635
-0.000480631
-0.000668682
-0.000255382
-0.00046957
-0.000245539
-0.000377269
-0.000130148
-4.14074e-05
-0.000263821
-0.000559056
-0.000288661
-0.00168191
0.00106336
-0.00249353
0.00194806
-0.0034077
0.00270543
-0.00312831
-0.0393995
0.0973083
0.0184446
-0.00641671
-0.0416428
-0.0549697
-0.021494
-0.000733906
0.0139964
0.0276593
0.0400143
0.0197096
0.000704727
-0.00995837
-0.0205296
-0.0296095
-0.0150539
-0.00155328
0.00316687
0.00889744
0.0125679
0.0122382
0.00587183
0.000981318
-0.00266165
-0.00452171
-0.0039206
-0.00275636
-0.00224221
-0.00127274
-0.000413804
0.000408196
0.00210725
0.0137034
0.0172193
0.00326323
0.00497863
-0.00109742
0.000397327
-0.000359346
-0.000154917
-0.000137898
0.000487334
4.94552e-05
-0.000327223
0.000172085
-0.00135654
0.000333166
-0.000314062
-0.000131352
4.29365e-05
0.000304166
0.000284158
0.00126737
0.000804425
0.000355641
0.000389049
-0.000457037
-0.000491095
-0.00138342
-0.00105199
-0.00164222
-0.00245721
-0.00131331
-0.0011525
-0.00132622
-0.00169528
0.000296271
9.62178e-05
0.00217563
0.00194839
0.00073104
0.00116435
0.000110011
-0.000611683
-0.00102087
-0.000721559
-0.00264315
0.00117073
-0.00467588
0.00274263
-0.00288524
0.00307017
-0.000579439
0.00225137
0.00200945
0.000148722
0.00225646
0.00183593
0.000570663
0.000516528
0.000401381
0.00057379
0.00124773
0.000997614
0.00117837
-0.000486391
0.00043425
-0.000651769
-0.000458856
-0.000870765
-0.000393361
-0.000626303
-0.000429621
-0.000555135
-0.000486568
-0.000713184
-0.000498975
-0.0004487
-0.000251918
-0.000242033
-0.000272112
-0.00144446
0.00100949
-0.00229998
0.00191102
-0.00293058
0.00243765
-0.00252382
0.0577304
-0.102525
-0.0168005
0.00659019
0.0362176
0.0605006
0.0306968
0.00130812
-0.012639
-0.0282064
-0.0400959
-0.0206388
-0.00132941
0.00842624
0.0178825
0.0291384
0.0199965
0.00302256
-0.00209135
-0.00959673
-0.0141185
-0.0144911
-0.00821971
-0.00250964
0.00112626
0.00240999
0.00522168
0.00481308
0.00288226
0.00222016
-0.000231337
0.000122546
-0.00106961
0.0175748
0.0167713
0.00211896
0.00117776
-0.00182009
-0.00178961
-0.00156135
-0.00152656
-0.000994269
-0.000882565
-0.00167253
-0.00249171
-0.000695505
-0.00254551
-0.00135677
-0.0015355
-0.00184009
-0.00174042
-0.00199164
-0.00169779
-0.00195103
-0.00198949
-0.001853
-0.00116048
-0.00115368
-0.000354649
-0.000640258
0.000242838
-0.000628144
0.000158408
-0.00047236
-0.00108142
0.000192034
-0.000595888
-0.000858235
-0.00102718
-0.000912314
-0.000527393
-0.000818202
-0.000658613
-0.000593823
-0.000418333
6.68097e-05
-0.000329078
-0.00214748
0.00141593
-0.00470003
0.00435251
-0.00461912
0.00277941
-0.00157963
-0.00159615
0.00295804
-0.000221778
0.00317562
0.0022345
0.00117179
0.00111147
-0.00027403
-0.000584816
0.000197526
0.000162794
0.00112546
-0.000810143
-0.000199816
-0.000696809
-0.000628988
-0.000546179
-0.000833092
-0.000680806
-0.000250358
-0.000517915
-0.000203939
-0.000472594
-0.000373668
-0.000291078
-0.000317063
-0.000354168
-0.000233168
-0.00145219
0.00102463
-0.00218701
0.00156951
-0.00264672
0.00213778
-0.00229669
-0.0516724
0.105257
0.0240456
-0.0042546
-0.0401363
-0.0602536
-0.0284306
-0.00181775
0.0121699
0.0246979
0.037948
0.0233632
0.0028124
-0.00611707
-0.0166753
-0.0272273
-0.0219117
-0.00551777
0.00104904
0.00713526
0.0108898
0.0127362
0.00888239
0.00228998
-0.000429605
-0.00282095
-0.00398847
-0.0058652
-0.00359739
-0.000989355
0.000203779
0.00471792
0.00421868
0.0265988
0.0146152
0.013015
-0.00386653
-0.00286961
0.000243028
-0.00174728
-0.000508224
-7.05745e-05
0.000632667
0.000293029
-0.000198932
0.00171035
-0.000920208
0.00142466
0.000292265
0.000228036
-0.000180221
-0.000739356
-0.00138654
-0.00196806
-0.00219151
-0.0025195
-0.00206552
-0.00248279
-0.00157598
-0.00177363
-0.00111534
-0.000335385
-0.000822084
-0.000435801
-0.00122505
-0.000567956
-0.000696945
-0.000718585
-0.000275204
0.000141538
-0.000343732
0.00120033
-0.00246517
0.000933758
-0.00174815
-0.000702692
-0.000518503
0.00193549
0.00293378
-0.00144755
0.00371208
-0.00606242
0.00583228
0.000701099
-0.00336209
0.00603461
-0.00073242
0.00494464
0.000820083
0.00303693
0.00111266
0.00249328
0.000780849
0.00200992
0.0010273
0.00171723
-0.00013442
-0.00132522
0.000113376
-0.000709491
-0.000354991
-0.00087089
-0.000640118
-0.000425874
-0.000440744
-0.000347683
-0.000577782
-0.000319324
-0.000417045
8.89312e-05
-0.000437631
9.2408e-05
-0.00137752
0.00100041
-0.00206182
0.0015256
-0.00226496
0.0019089
-0.00191714
0.0656411
-0.109816
-0.0203994
0.0053759
0.033844
0.0558692
0.0383263
0.00267754
-0.00987926
-0.0243454
-0.0370219
-0.0245157
-0.00250539
0.00391726
0.0140573
0.0230421
0.023038
0.00757109
-0.000551278
-0.00615301
-0.0102445
-0.0147051
-0.0111892
-0.00447548
0.000274008
0.00218516
0.00375219
0.00474397
0.00392765
0.00212645
-6.40027e-06
-0.00348058
-0.011943
0.0465116
0.00382528
0.0102429
-0.0112844
-0.0065533
-0.00195144
-0.00178001
-0.00172346
-0.00211421
-0.000778639
-0.00110342
-0.00317556
-0.000189959
-0.00296276
-0.00218142
-0.00211102
-0.00217887
-0.00189483
-0.00130062
-0.000752109
0.00103872
0.00150092
0.00156499
0.00144708
0.00081941
0.0012455
-1.68114e-05
0.00021668
0.000242787
-0.000151418
0.00037737
-0.000557049
-0.000423265
-0.000100154
-1.40783e-06
-0.000353641
-0.00099267
-0.000728945
-0.0011851
-0.000587153
-0.000788626
-0.000770728
-0.000691469
-0.00146448
0.000793932
0.00188985
-0.00134051
-0.00125877
-0.0139794
0.00838
-0.000635662
-0.00843313
0.000811814
-0.00556137
0.00455701
-0.00261569
0.000427149
-0.00111882
-0.00164677
-0.000906525
-0.00209461
-0.000922827
0.000576254
-0.000786988
-0.00184354
-0.00109586
-0.000849507
-0.000888104
-0.00048712
-0.000481752
-0.000213791
-0.000250875
4.6759e-05
-0.000242764
-0.00025954
-0.000571147
5.48124e-05
-0.00025021
0.000260143
-0.00110239
0.000878775
-0.00194717
0.0013093
-0.00219442
0.00174075
-0.0017676
-0.0632098
0.10379
0.0242278
-0.0029597
-0.0319432
-0.0526287
-0.0348593
-0.00284184
0.00891651
0.0207923
0.0309083
0.0233581
0.00463847
-0.00152992
-0.0104377
-0.0180238
-0.0226014
-0.00912616
-0.000230399
0.00425158
0.00825078
0.0116953
0.00877689
0.00447075
0.000442493
-0.00094496
-0.00373914
-0.00612593
-0.00753302
-0.00798517
-0.00706278
-0.00143077
-0.000213813
0.051205
0.0195416
0.0301269
0.00257886
0.00110315
0.00324125
-0.000571513
-0.00025048
0.00105521
5.52562e-05
-0.000870424
-0.00229429
-0.000434761
-0.00292263
-0.00275569
-0.00280377
-0.00260055
-0.00220592
-0.00192894
-0.00174627
-0.00106149
-0.00161268
-0.00166969
-0.00115639
-0.00107829
-0.000957393
-0.00124841
-0.000388825
-0.000424468
-9.5981e-05
-0.000167562
0.000266689
-0.000279662
-0.000875838
-0.000650461
-0.000920246
-0.000339285
-0.000211191
0.000916346
0.000161992
0.000942435
-0.00100949
0.00146882
-0.00159365
-0.000412404
-0.00439982
0.00278571
-0.00243147
-0.00241728
-0.0023559
-0.00778088
-0.00465364
-0.00207225
-0.00705427
0.00675174
-0.0153694
0.00159249
-0.00200583
-0.00130596
0.00087457
-0.00282532
-0.000186122
-5.81241e-05
-0.000877681
-0.00236614
-0.0012103
-0.000927631
-0.000241551
-0.000963092
-1.96524e-05
-0.000614998
-0.000533478
-0.000289021
-0.000382558
-1.63976e-05
-0.000772923
0.000142055
-0.00040101
0.000457511
-0.0010776
0.000495881
-0.00190784
0.00121355
-0.00190661
0.00172568
-0.00159543
0.069494
-0.104475
-0.019088
0.00382814
0.0259121
0.0425806
0.0365515
0.00405825
-0.00515422
-0.0183893
-0.0283039
-0.0196374
-0.00486799
0.00143817
0.00763629
0.0127983
0.0170066
0.00798443
0.000309061
-0.00275397
-0.00702542
-0.0106243
-0.00965398
-0.0048018
-0.00123221
0.000432392
0.00184763
0.0039884
0.00639485
0.00799464
0.0102525
0.00653886
0.00630373
0.00630234
0.0323184
-0.0112078
-0.0266335
-0.0154704
-0.00566341
-0.0021277
0.000534913
0.000712335
0.00116564
0.00131341
-0.000150044
0.00100652
-7.48191e-05
-6.59019e-05
-2.18018e-05
-0.00021966
-0.000398128
-0.00030316
-0.000442784
-0.0001772
8.87398e-05
0.000130892
-0.000256405
0.00050292
0.000299209
0.000690662
0.000827751
0.000517937
-7.77555e-05
0.000231661
0.000254572
0.000237877
-4.00267e-06
0.000493857
0.001018
1.86162e-07
1.24291e-05
-0.00102628
-0.00122235
-0.00170078
-0.000449251
-0.00184249
-0.00126093
-0.00689899
-0.00109435
0.000304913
-0.00493487
-0.00409249
-0.00910366
-0.0160557
-0.0124962
-0.00577795
-0.00461143
-0.000211413
-0.0162735
0.00475872
-0.00466767
-0.00947147
-0.00610928
-0.00832728
-0.00258903
0.000938626
0.00218376
0.000394845
-0.000306157
0.000366466
-0.000981141
0.000239085
-0.000130088
0.000160616
-0.000251294
7.98027e-05
-0.000389633
5.79514e-05
-0.000707496
8.65551e-05
-0.000393329
0.000260184
-0.000990514
6.25978e-05
-0.00177554
0.00108773
-0.0018901
0.00171997
-0.00177422
-0.0723287
0.0898003
0.0224299
-0.000420387
-0.0190762
-0.0349282
-0.0314228
-0.00363731
0.00474781
0.0151871
0.0224017
0.0150917
0.0050929
-0.00012646
-0.00433539
-0.00879229
-0.0135505
-0.00774504
-0.000881566
0.00140979
0.00472268
0.00723679
0.0059535
0.00295062
0.000814291
-0.00102893
-0.00275475
-0.00472356
-0.00762762
-0.00942457
-0.0106912
-0.0128144
-0.0022098
0.00701909
0.0739114
0.0124668
-0.000154256
-0.0101088
-0.00416455
-0.00522494
-0.00372772
-0.00315094
-0.00224495
-0.00225302
-0.00183043
-0.00123237
-0.000920908
-0.000730101
-0.00045826
-0.000613616
-0.000896555
-0.000809565
-0.000965889
-0.000497399
-0.000369791
-0.000483382
-0.000335263
-0.000745966
-0.00111324
-0.000946195
-0.000982357
-0.00109574
-0.00046704
-0.000111528
0.000557076
0.000836517
0.00146431
0.000770731
0.000773771
0.000698601
3.18891e-05
-0.000390877
-4.89937e-05
-0.000455923
-0.000603494
-0.00271246
-0.0010184
-0.00315459
-0.00253003
-0.00170614
9.15241e-05
-0.00118817
-0.00566182
-0.00954719
-0.00446911
-0.000735734
-0.00151269
-0.0108107
-0.0150168
-0.00309381
0.0025535
-0.000929065
0.00249642
-0.000749141
0.00101868
0.00384579
0.00185266
-0.000137588
-0.00105941
-0.000536194
-0.000671378
-0.000672226
-0.000342972
-5.66015e-05
-0.000206953
0.000118773
-0.000418001
0.000435356
-0.000643631
0.000249414
-0.000487016
8.00828e-05
-8.61566e-05
-0.000461808
-0.0014001
0.00109288
-0.00163418
0.00164396
-0.00186342
0.0645699
-0.0842843
-0.0171429
0.00175012
0.0144767
0.024459
0.0233998
0.00453486
-0.00180213
-0.0106359
-0.0170626
-0.0128909
-0.00473675
4.94283e-05
0.00225685
0.00552222
0.00832541
0.00429893
0.000671609
-0.0014479
-0.00347331
-0.00579135
-0.00564232
-0.00265253
-0.00139294
-0.00104135
-0.00075769
-6.85949e-05
0.000928893
0.00131095
0.000595938
-0.00075966
-0.00300125
0.0135672
0.0773038
0.0144912
-0.0104989
-0.00777454
-0.00813752
-0.0077824
-0.00634882
-0.00537449
-0.00361882
-0.00219959
-0.000682671
-0.00109021
-0.00113107
-0.00124245
-0.00134699
-0.00145103
-0.0010972
-0.00129509
-0.00107964
-0.0010188
-0.00122927
-0.00109289
-0.00112432
-0.0019167
-0.000734677
-0.00121534
-0.00124121
-0.000949729
-0.000940762
-0.000508344
-0.00043058
0.00010103
0.000309918
0.00116904
-0.000153496
0.00202351
0.00147842
0.00122525
0.00203055
0.00164202
0.000655186
0.000941026
0.00352386
0.00446127
0.0042989
0.00142118
0.00259226
0.000580637
-0.00497981
-0.00648069
0.0056966
0.00920942
0.0021244
-0.0197949
0.00815099
-0.00879138
-0.000738003
-0.00860755
0.00261048
-0.00236096
0.00173883
0.00544208
0.00353796
1.40633e-05
0.000419533
-0.000214405
0.000765936
-0.000413702
5.04856e-05
0.000325052
-0.000368729
0.000390236
-0.000406086
0.000628869
-0.000448659
0.000397396
-0.000371312
-0.000105969
-6.9126e-05
-0.000844601
-0.00083166
0.000544185
-0.00112737
0.00135636
-0.00191008
-0.0723102
0.070954
0.0187697
0.00159521
-0.00777726
-0.0168255
-0.018087
-0.00318474
0.00199785
0.00848321
0.0125864
0.00965321
0.00269882
0.000429908
-0.00178542
-0.00367117
-0.00497053
-0.00422248
-0.00170397
0.000467018
0.00156991
0.00289532
0.00291995
0.000545164
-0.000622901
-0.00122023
-0.00184656
-0.00247231
-0.00350433
-0.00345254
-0.00153453
0.000254675
0.00889763
0.0240627
0.0844181
0.0178855
-0.00791837
-0.00504863
-0.0045764
-0.00504259
-0.00522377
-0.00452301
-0.00361196
-0.0031265
-0.00152247
-0.0017044
-0.000221142
-0.0007442
-0.000620297
-0.000926536
-0.00104972
-0.00123404
-0.00138512
-0.00229967
-0.00229026
-0.00209033
-0.00318628
-0.00153333
-0.00203562
-0.00147803
-0.00200533
-0.00167996
-0.00173283
-0.00268092
-0.00273365
-0.00208223
-0.00172454
0.000514232
0.000757636
0.00144877
0.00268999
0.00278471
0.00483124
0.00407994
0.00622949
0.00694136
0.00856542
0.0131724
9.78494e-05
-0.000352109
0.00706457
-0.0032576
0.000648245
0.00288786
0.0229482
0.0117107
0.00733437
0.00178054
0.00554704
0.00611803
0.00633527
-0.00196328
0.00140972
0.0002925
0.00422248
0.00372592
0.00160094
0.000433019
0.000421339
8.82141e-05
0.000193378
0.000307832
-0.000266443
0.000435699
-0.000344125
0.000557181
-0.000365374
0.000317923
-0.000267009
0.000143793
-0.000783622
0.000257667
-0.000274805
-0.000518535
-0.000654868
4.63927e-05
-0.000677557
0.000254503
-0.00153548
0.0437908
-0.0538475
-0.0125403
0.000141377
0.0061072
0.0114413
0.0108574
0.00292718
-0.000299154
-0.00428255
-0.00747254
-0.00678898
-0.00245445
-0.000323808
0.000939686
0.00184634
0.00230685
0.0016482
0.000531176
-0.000763081
-0.00182362
-0.0023972
-0.0034036
-0.00366343
-0.00322106
-0.0030032
-0.00295114
-0.00318429
-0.00448687
-0.00650437
-0.00873846
-0.0107786
-0.0111137
-0.00569726
0.0201564
0.0249179
0.00261099
-0.00145742
-0.00124177
-0.00348213
0.000287636
0.0011898
0.000443304
-0.000481853
-0.000539904
-0.00221143
-0.000833504
-0.00174492
6.14938e-05
-0.000958245
-8.06951e-05
-0.000444871
0.000285835
-0.000134515
-0.000736144
-0.000902104
3.83812e-05
-0.000804418
-0.000802892
-0.000803593
-0.000929225
-0.00136275
0.000873619
0.00139212
0.00465516
0.00404876
0.00623434
0.00505243
0.00443023
0.00640267
0.00459117
0.00797231
0.00429509
0.00784189
0.00421054
0.0078382
0.00380716
0.00647648
0.000209324
0.00759262
-0.00112664
0.00147492
0.00189852
-0.00025532
0.0043814
0.00239611
0.00863391
0.0116294
0.00665795
0.0060628
0.0101049
-0.00467295
0.000713892
0.00425237
0.00448261
0.00797487
0.000726684
0.000654514
0.000271071
0.00043092
0.00079184
0.000995455
3.63427e-05
0.000671804
-0.000178497
0.000634699
-3.57968e-05
0.000369541
-0.000406335
6.28594e-05
-0.000115586
0.000249012
-0.000415706
-0.000142256
-0.000508312
-0.000113713
-0.000249339
-0.000173064
-0.0010609
-0.0483874
0.043326
0.0111912
0.00156214
-0.00282044
-0.00626327
-0.00707135
-0.00192644
0.000838514
0.00337906
0.00519831
0.00385888
0.00154337
-7.13257e-05
-0.000828779
-0.00153253
-0.00175212
-0.00208042
-0.00127852
-0.000476605
-3.54055e-05
0.000360987
0.000425892
6.85904e-05
-0.000632325
-0.00137365
-0.00200818
-0.00305631
-0.00359442
-0.00348003
-0.0017788
-0.000660527
-0.00290385
0.044884
0.0027109
0.00337325
0.014249
-0.00219505
-0.0010567
-0.00297361
-0.00119385
-0.000229332
0.00140761
-0.00079085
0.000305573
-0.00149469
-0.000254566
-0.00174289
-0.00178146
-0.0020761
-0.00229822
-0.00208463
-0.00198474
-0.00131668
-0.00119533
-0.00120415
0.000276348
0.000322676
0.000453832
0.00170735
0.00274777
0.00379896
0.00448401
0.00419159
0.00399409
0.0033976
0.00222
0.00240471
0.00288508
0.00269919
0.00425213
0.00255366
0.00416513
0.00388453
0.00412968
0.00397318
0.00322881
0.00424432
0.00409552
0.00951393
0.00195105
0.00838398
0.00978158
0.016694
0.00614142
0.00173042
-0.00273687
-0.00226963
0.0050144
0.0132996
0.0121618
0.00460501
0.0091638
0.0051614
0.0115111
0.00237641
0.00224116
0.00168733
0.00047001
0.0014859
0.000402305
0.000901377
-0.00023078
0.000794677
-0.000131279
0.000573631
-0.000131121
9.16398e-05
-0.000240213
-0.000186841
-0.000762178
0.000222263
-0.00037373
0.000195476
-0.000486296
-0.000151661
-0.000215185
-0.000529069
-0.000347887
0.0171451
-0.0246966
-0.00625659
-0.000156676
0.00238419
0.00478981
0.00429427
0.00141833
-0.000118535
-0.000912923
-0.00226867
-0.00221888
-0.00102858
-0.000137518
0.000184007
0.00046317
0.000458039
0.000333549
-4.53038e-05
-0.000562078
-0.00106336
-0.00126211
-0.00184289
-0.00221519
-0.0022065
-0.00209313
-0.00218675
-0.00203831
-0.0021104
-0.00231292
-0.00412782
-0.00453729
0.0119254
0.0406438
-0.00397066
0.00632887
0.0173747
0.00807151
0.00412006
0.0022967
0.00213119
0.00138533
-0.000253105
-0.000282188
-0.000218059
-0.00042797
0.00117015
-0.000495566
0.000641271
0.000145403
0.00106397
0.000989742
0.00217401
0.00228305
0.00304953
0.00272767
0.00289498
0.00260964
0.00310252
0.00345135
0.00333191
0.00240673
0.00151158
0.00107668
0.000372406
6.85985e-05
-0.000607124
-0.000835522
-0.00165327
-0.00173364
-0.0021067
-0.00186816
-0.00215262
-0.00218892
-0.00223611
-0.00215316
-0.00168733
-0.00089715
0.000443314
0.00256658
0.00330342
0.00373968
0.00366575
-0.00912002
-0.00110842
0.00396725
-0.00176229
0.00625068
0.00860739
0.00113127
-0.000720324
0.00434153
0.0040759
0.00750341
-0.00024874
0.00379107
0.000521392
0.000499859
0.000478572
0.000553354
0.000561056
0.000621175
0.000644678
0.000182897
0.000227434
0.000533147
-2.50747e-05
0.000133418
-5.37126e-05
1.29131e-05
0.000171059
-0.000231548
-0.000242579
4.54781e-05
-0.000447481
-5.64791e-05
-0.000423137
-0.000162663
-6.796e-05
-0.0235746
0.0190239
0.00466375
0.000455742
-0.000978676
-0.00194372
-0.0018984
-0.00066103
0.000127157
0.00105973
0.00163405
0.00130188
0.000495033
-6.6695e-05
-0.000364629
-0.000651773
-0.000808048
-0.000899764
-0.000908535
-0.000807608
-0.000668892
-0.000634012
-0.000528552
-0.000766665
-0.000941033
-0.00163832
-0.0023287
-0.00285269
-0.00443799
-0.00515813
-0.00306012
-0.00120453
0.0167334
0.0324705
-0.00344728
0.00314441
0.00933207
0.00072048
-0.000354002
-0.000618299
0.000425797
8.71969e-05
0.000870125
0.000652491
0.00219968
0.000225921
0.00205372
0.000662929
0.00160215
0.00111395
0.00139146
0.00128843
0.00160434
0.00149752
0.00149098
0.00197298
0.00174613
0.00140729
0.00110217
0.000514897
0.000210049
-0.000200418
-0.000309524
-0.000420977
-0.00051468
-0.00101584
-0.00131535
-0.00156973
-0.00248584
-0.0026168
-0.00302825
-0.00321075
-0.00226507
-0.00307407
-0.00226137
-0.00285841
-0.00204839
-0.00209401
-0.00179505
-0.00113367
-0.00103581
0.00128413
-0.000157982
0.000960863
-0.000834085
-0.00182089
-0.00132266
0.00011983
-0.00505327
-0.00216125
-0.00303789
-0.00213566
-0.00105235
0.00503153
-0.00212772
0.000478091
0.00108755
0.00114515
0.00169148
0.000488871
0.00122118
0.000395467
0.000665506
0.000405245
0.000108145
0.000509435
-5.93073e-05
0.000121372
-4.41305e-05
2.1125e-05
-7.63322e-05
-0.000148046
-0.000123668
-1.84385e-05
-0.000217079
-0.000198936
-0.000313483
-6.5889e-05
6.39357e-05
0.000152201
-0.00692808
-0.00277843
0.000312518
0.00102568
0.00186865
0.0016426
0.00069575
-2.92957e-05
-0.000127265
-0.000317649
-0.000612533
-0.000235778
-0.000103847
-1.64969e-05
-6.0328e-05
-0.000186145
-0.000123102
-0.000479945
-0.000669526
-0.000829557
-0.000962233
-0.000973132
-0.00125307
-0.00115315
-0.000850229
-0.000467108
-0.000227604
-0.000176504
-0.000567067
-0.00191042
-0.00553736
0.0307718
0.00791685
-0.000102668
0.00410339
0.0046766
0.00312622
0.00137772
0.000590919
0.000532487
-0.000173366
0.000423121
-9.76999e-05
0.00122054
-0.000648796
0.00182858
-0.000499241
0.00143931
0.000593319
0.00128424
0.000935374
0.00111416
0.000726097
0.000387113
4.99351e-06
-0.000399202
-0.000444749
-0.000301681
-0.00029387
-0.000229929
-0.000114925
-0.000655861
-0.000366922
-0.00121161
-0.000947307
-0.00105471
-0.000511129
-0.00179927
-0.000841971
-0.000970217
-0.000898065
-0.000439172
-0.00049734
2.97365e-05
0.000105516
0.000410733
0.000407594
0.000589472
0.00021314
0.00146939
0.000963471
0.00458753
0.0034906
0.00788047
-0.000971203
0.00561963
0.00145462
0.0065109
-0.000959264
0.00132233
0.0042012
0.00371495
0.00439299
0.000573536
0.00185529