/*--------------------------------*- C++ -*----------------------------------*\
| =========                 |                                                 |
| \\      /  F ield         | OpenFOAM: The Open Source CFD Toolbox           |
|  \\    /   O peration     | Version:  2.2.x                                 |
|   \\  /    A nd           | Web:      www.OpenFOAM.org                      |
|    \\/     M anipulation  |                                                 |
\*---------------------------------------------------------------------------*/
FoamFile
{
    version     2.0;
    format      ascii;
    class       volScalarField;
    location    "1.65";
    object      T;
}
// * * * * * * * * * * * * * * * * * * * * * * * * * * * * * * * * * * * * * //

dimensions      [0 0 0 1 0 0 0];

internalField   nonuniform List<scalar> 
14161
(
1.19898
1.17839
1.14474
1.13867
1.19709
1.23342
1.27871
1.2698
1.27101
1.2583
1.25074
1.23253
1.24508
1.25902
1.27829
1.2913
1.30768
1.29922
1.29049
1.27554
1.26228
1.25555
1.24618
1.25131
1.25163
1.24829
1.2464
1.24524
1.24505
1.23073
1.20283
1.14438
1.17994
2.0661
2.41089
2.33473
2.29967
2.34067
2.34421
2.34904
2.35766
2.36709
2.37544
2.38571
2.40439
2.42178
2.44016
2.45796
2.475
2.49131
2.50461
2.51467
2.52183
2.52664
2.53066
2.53077
2.52796
2.52375
2.5194
2.51389
2.50735
2.50088
2.49546
2.48841
2.49432
2.50102
2.52047
2.54757
2.58042
2.60502
2.62824
2.64561
2.65743
2.66807
2.68068
2.70284
2.72381
2.74801
2.75134
2.77159
2.78142
2.78717
2.7934
2.7971
2.79476
2.78072
2.7539
2.72784
2.71299
2.73996
2.80728
2.90007
2.98825
3.08092
3.11624
3.13919
3.14976
3.17678
3.19473
3.19647
3.18663
3.1684
3.15762
3.15209
3.1558
3.16295
3.17239
3.18316
3.18881
3.18755
3.18444
3.1795
3.17368
3.16864
3.1702
3.17107
3.17447
3.18297
3.19082
1.06751
1.38375
1.31734
1.24803
1.1735
1.07687
1.06735
1.11518
1.19692
1.30545
1.40365
1.41125
1.37764
1.34463
1.28929
1.24914
1.25868
1.27304
1.29424
1.32773
1.35294
1.36231
1.35203
1.35205
1.34674
1.34157
1.34669
1.35463
1.35654
1.35832
1.34771
1.31815
1.40841
2.48373
2.71411
2.79159
2.84631
2.90395
2.92822
2.94912
2.9544
2.95336
2.94907
2.94416
2.94541
2.94709
2.94582
2.94742
2.94933
2.94989
2.94674
2.94166
2.93468
2.92557
2.91516
2.90518
2.89518
2.88508
2.87609
2.86778
2.85987
2.85325
2.84837
2.84796
2.85448
2.86132
2.87381
2.88901
2.89989
2.90488
2.91018
2.91035
2.90843
2.90526
2.90618
2.91786
2.93278
2.95172
2.95383
2.95968
2.96368
2.96968
2.97861
2.98581
2.99361
3.00438
3.02464
3.04911
3.08215
3.11083
3.14702
3.16581
3.18513
3.1954
3.18631
3.18141
3.18626
3.19614
3.20479
3.21133
3.20839
3.20037
3.18675
3.17926
3.17738
3.18892
3.20307
3.21704
3.22766
3.2326
3.23438
3.23318
3.23177
3.2309
3.23249
3.22778
3.21751
3.20982
3.20516
1.25059
0.926994
0.976375
1.0917
1.21284
1.39166
1.42751
1.32845
1.27341
1.17982
1.06491
1.05643
1.14384
1.20673
1.29398
1.37076
1.37175
1.32592
1.29569
1.24824
1.19745
1.17879
1.18792
1.22308
1.22454
1.22589
1.2197
1.21255
1.20287
1.19189
1.18519
1.18463
1.59608
2.77332
2.89215
2.97076
3.01114
3.00923
3.03003
3.03888
3.04165
3.04033
3.03182
3.0196
3.00288
2.9876
2.97691
2.96579
2.95429
2.94478
2.93651
2.9294
2.92405
2.92032
2.9152
2.91218
2.90924
2.9074
2.90691
2.90695
2.9066
2.90605
2.9059
2.90705
2.91145
2.91594
2.91906
2.92404
2.93135
2.93097
2.92502
2.91813
2.91519
2.91656
2.9198
2.9337
2.95084
2.96773
2.97491
2.9829
2.99024
3.00644
3.02881
3.05346
3.08009
3.10815
3.14046
3.17164
3.2075
3.22293
3.24685
3.25864
3.25604
3.2539
3.22672
3.22371
3.22954
3.23528
3.24157
3.23401
3.21649
3.20196
3.2012
3.20401
3.21251
3.22687
3.24005
3.24925
3.2577
3.26163
3.26309
3.26127
3.25697
3.25054
3.24427
3.23272
3.21571
3.20949
3.20692
0.898724
1.52366
1.33451
1.24381
1.10737
0.921692
0.896074
1.02671
1.14871
1.34728
1.5138
1.53083
1.45175
1.372
1.27406
1.18279
1.18911
1.23372
1.2865
1.34969
1.41951
1.45535
1.42986
1.41765
1.40226
1.38514
1.37911
1.38635
1.39774
1.42267
1.47397
1.51922
2.80533
3.19125
3.26209
3.27115
3.29426
3.29847
3.29253
3.27699
3.24866
3.22117
3.1953
3.17213
3.1488
3.1273
3.10776
3.08728
3.0705
3.05677
3.04272
3.03008
3.0179
3.00724
2.99648
2.98727
2.97863
2.97157
2.96527
2.95826
2.9505
2.94298
2.93648
2.93064
2.92645
2.92558
2.92702
2.93111
2.93618
2.94102
2.94854
2.95528
2.96867
2.97952
2.99518
3.02166
3.04315
3.06365
3.0702
3.07736
3.08037
3.08951
3.10707
3.12873
3.15255
3.17526
3.20653
3.23825
3.26348
3.27819
3.28373
3.27991
3.27449
3.26518
3.25411
3.26119
3.26687
3.26728
3.25708
3.23364
3.21866
3.22037
3.22584
3.23122
3.24048
3.25352
3.26361
3.26972
3.27751
3.28279
3.28558
3.28252
3.27737
3.26706
3.25751
3.2451
3.22594
3.21062
3.20785
1.30266
0.773583
0.803853
0.969878
1.17392
1.48396
1.5492
1.39067
1.30302
1.16404
0.991214
0.947638
1.07255
1.17606
1.31433
1.45401
1.47887
1.396
1.35193
1.29174
1.21388
1.16968
1.18188
1.22099
1.23293
1.24379
1.24274
1.24141
1.24198
1.24446
1.25617
1.26933
1.75267
2.82732
3.04004
3.12102
3.17288
3.16576
3.15327
3.13306
3.11069
3.09094
3.07199
3.05617
3.04029
3.02357
3.00512
2.98758
2.97048
2.95483
2.94046
2.92637
2.91355
2.90138
2.88996
2.87862
2.86929
2.86148
2.85532
2.85015
2.84592
2.84297
2.84108
2.84065
2.83966
2.84163
2.84321
2.85136
2.85484
2.85949
2.86814
2.87045
2.8723
2.87759
2.90264
2.92978
2.95135
2.97592
2.99461
3.01011
3.02509
3.04324
3.06871
3.09533
3.13479
3.1745
3.20969
3.23773
3.25852
3.27369
3.27484
3.26902
3.26598
3.26064
3.2697
3.28088
3.2912
3.28979
3.27531
3.24571
3.23803
3.23994
3.24912
3.25431
3.26186
3.27203
3.28029
3.28364
3.28851
3.29183
3.29298
3.2894
3.28391
3.27545
3.26706
3.25509
3.23177
3.21304
3.20841
0.681684
1.57509
1.33502
1.21922
1.05495
0.814644
0.748155
0.928458
1.04401
1.30469
1.53237
1.58591
1.48153
1.38451
1.26801
1.13166
1.10023
1.16087
1.22082
1.30065
1.38699
1.44461
1.44129
1.42157
1.38982
1.36191
1.34212
1.332
1.3287
1.32914
1.32929
1.30527
1.25513
2.69531
2.82963
2.92703
3.0086
3.01296
3.00921
2.9959
2.98678
2.97754
2.96801
2.96099
2.95563
2.95521
2.94841
2.9376
2.92359
2.90803
2.89264
2.87751
2.86174
2.84579
2.83036
2.81557
2.79997
2.78738
2.77541
2.76635
2.75774
2.7481
2.74301
2.73907
2.73046
2.72772
2.72538
2.72555
2.73396
2.73953
2.75136
2.76193
2.7711
2.79215
2.80716
2.834
2.85878
2.89275
2.92868
2.95494
2.98594
3.00845
3.04229
3.07091
3.11033
3.15106
3.17493
3.20626
3.22625
3.25001
3.25496
3.24981
3.25039
3.25074
3.27081
3.28981
3.3105
3.30974
3.29239
3.26401
3.25658
3.2586
3.26851
3.27494
3.2821
3.28951
3.2945
3.29599
3.29746
3.2966
3.2962
3.2904
3.28484
3.27875
3.27179
3.26218
3.2347
3.2173
3.20844
1.35986
0.701149
0.637337
0.813532
1.10481
1.50876
1.61835
1.44364
1.34514
1.20395
0.989969
0.87981
1.01563
1.13842
1.29041
1.47857
1.54868
1.45308
1.39687
1.33724
1.25701
1.19701
1.16632
1.20186
1.21867
1.22733
1.23577
1.24274
1.24499
1.25584
1.27536
1.27157
1.26763
2.53273
2.78988
2.85462
2.9388
2.93776
2.94197
2.92528
2.91284
2.89973
2.88837
2.87965
2.8721
2.86787
2.85817
2.85275
2.8483
2.8436
2.83768
2.8289
2.81801
2.80357
2.78688
2.76915
2.74913
2.72936
2.7079
2.69264
2.67529
2.66121
2.65569
2.64943
2.64887
2.65614
2.66073
2.67362
2.67235
2.68969
2.68804
2.70207
2.70133
2.71249
2.71974
2.74435
2.7716
2.80471
2.83751
2.8571
2.89096
2.91306
2.95758
2.99029
3.03796
3.08907
3.12063
3.15996
3.18283
3.19697
3.2097
3.21146
3.22073
3.2321
3.26157
3.29056
3.32763
3.329
3.31156
3.28195
3.2707
3.27146
3.28344
3.29654
3.30653
3.31185
3.31159
3.31059
3.30901
3.30612
3.3
3.28969
3.28423
3.27811
3.27347
3.26392
3.23697
3.22084
3.20704
0.42684
1.57431
1.33282
1.15765
1.00497
0.734949
0.597239
0.800789
0.918963
1.19169
1.45482
1.56805
1.45494
1.36712
1.25312
1.08002
0.977979
1.01704
1.07812
1.15391
1.22155
1.28498
1.30923
1.29247
1.2636
1.23954
1.21471
1.19794
1.18627
1.16957
1.16252
1.15957
1.18232
2.45458
2.75674
2.83921
2.87732
2.89412
2.8822
2.86331
2.84493
2.83094
2.81758
2.80575
2.79701
2.79413
2.78378
2.78047
2.77568
2.77032
2.76416
2.75711
2.74951
2.73937
2.72938
2.71729
2.70068
2.68518
2.66597
2.64962
2.62599
2.6113
2.59615
2.58165
2.57495
2.55932
2.56492
2.56066
2.57437
2.57597
2.59806
2.6047
2.62319
2.62167
2.64344
2.64078
2.68335
2.69217
2.734
2.74947
2.78706
2.80035
2.85588
2.88556
2.93942
3.00249
3.0402
3.08634
3.12464
3.14727
3.15691
3.16274
3.17693
3.19786
3.24082
3.28293
3.33641
3.3435
3.3312
3.30437
3.28628
3.28314
3.2911
3.30928
3.32239
3.33006
3.33114
3.32638
3.31929
3.31494
3.30563
3.29041
3.28275
3.27694
3.27259
3.2635
3.23805
3.22363
3.20599
1.40912
0.706326
0.57156
0.579655
0.981088
1.42623
1.61851
1.4625
1.35919
1.23448
0.996052
0.81594
0.914348
1.05806
1.20118
1.39243
1.50924
1.44847
1.3672
1.30701
1.22381
1.14493
1.09967
1.12282
1.14106
1.15866
1.18315
1.19803
1.20232
1.181
1.17096
1.16506
1.20374
2.48501
2.79394
2.86173
2.91209
2.89767
2.8823
2.84339
2.82214
2.80232
2.78252
2.76885
2.75363
2.74143
2.72344
2.70557
2.6881
2.67086
2.6542
2.63727
2.61915
2.59886
2.5797
2.56497
2.54326
2.52831
2.51104
2.49854
2.47584
2.47243
2.45292
2.45471
2.43511
2.42302
2.42258
2.40774
2.41595
2.40112
2.42571
2.41662
2.44512
2.43153
2.47808
2.47812
2.53933
2.54709
2.62215
2.64412
2.70042
2.70026
2.76247
2.78065
2.83475
2.91945
2.96407
3.02441
3.05785
3.10163
3.11119
3.12382
3.1548
3.17814
3.22304
3.27105
3.34051
3.36095
3.35568
3.33223
3.30034
3.29161
3.29744
3.31465
3.33306
3.34424
3.34777
3.34255
3.33133
3.32158
3.30901
3.29032
3.28445
3.27724
3.27183
3.2637
3.23849
3.22623
3.20601
0.167838
1.53584
1.31369
1.1076
0.953484
0.658976
0.423649
0.606056
0.748231
0.99628
1.26057
1.42806
1.35375
1.25606
1.16089
0.984757
0.802421
0.766403
0.812054
0.876802
0.945766
1.0212
1.0713
1.06678
1.04378
1.01408
0.990746
0.938324
0.918865
0.913214
0.92956
0.96867
1.04975
2.24528
2.82015
2.85713
2.9434
2.86245
2.82346
2.78097
2.74903
2.72179
2.70602
2.69591
2.67861
2.67365
2.64806
2.62629
2.59979
2.57314
2.54388
2.51504
2.48095
2.45499
2.42647
2.40145
2.37734
2.35553
2.33431
2.32527
2.30061
2.30218
2.289
2.28549
2.27295
2.27189
2.25534
2.26253
2.25385
2.26644
2.26556
2.27789
2.27796
2.27031
2.29549
2.2859
2.34095
2.34802
2.44605
2.46643
2.55019
2.55185
2.64801
2.66733
2.71858
2.82346
2.86473
2.93857
2.96909
3.03174
3.05929
3.07136
3.10931
3.14425
3.2039
3.27192
3.34892
3.37785
3.3671
3.34631
3.31226
3.30095
3.30524
3.31768
3.33808
3.35039
3.35598
3.35313
3.3423
3.32769
3.31194
3.29301
3.28246
3.27466
3.26928
3.26233
3.23921
3.22925
3.20616
1.45216
0.685709
0.416287
0.426741
0.834824
1.2783
1.55646
1.42856
1.32103
1.21447
0.993813
0.759579
0.77986
0.900696
1.0652
1.21287
1.35891
1.36059
1.27242
1.21728
1.13883
1.05081
0.95633
0.94308
0.953815
0.977587
1.00296
1.02507
1.04384
1.03765
1.00608
0.929084
0.830082
1.86096
2.90524
2.90768
2.9278
2.79486
2.72245
2.66766
2.62906
2.60997
2.592
2.58478
2.56548
2.55116
2.51523
2.48057
2.44363
2.40837
2.37456
2.34327
2.31393
2.29513
2.27417
2.25745
2.23702
2.21109
2.20342
2.19372
2.1822
2.16998
2.17551
2.16664
2.16795
2.15485
2.15035
2.14511
2.14579
2.12549
2.14567
2.12197
2.15381
2.13625
2.17464
2.14858
2.21004
2.19124
2.31264
2.30379
2.39011
2.38452
2.51032
2.50892
2.53839
2.65387
2.69918
2.79889
2.8483
2.92779
2.9702
2.99853
3.04151
3.0874
3.15703
3.24386
3.33146
3.37703
3.3687
3.35221
3.32953
3.31533
3.31353
3.32028
3.33744
3.35024
3.35906
3.35737
3.34825
3.33228
3.31472
3.29487
3.28043
3.27225
3.26704
3.26133
3.23893
3.23113
3.20766
-0.077958
1.42105
1.23138
1.1001
0.920982
0.61064
0.231611
0.330573
0.531018
0.717708
0.977171
1.16215
1.14471
1.076
0.993425
0.849255
0.644097
0.530358
0.570478
0.632957
0.693562
0.76917
0.827233
0.837147
0.819886
0.775877
0.755839
0.700925
0.654847
0.602411
0.542785
0.499392
0.562858
0.931571
2.63574
2.65446
2.7167
2.56866
2.53936
2.50586
2.49468
2.48147
2.45934
2.4419
2.42345
2.4019
2.36255
2.32006
2.28264
2.24686
2.21869
2.19138
2.16874
2.15308
2.13194
2.12136
2.10396
2.08561
2.07293
2.08041
2.07303
2.06773
2.07186
2.08296
2.07061
2.06527
2.06063
2.06528
2.04234
2.0514
2.04316
2.04177
2.05744
2.04355
2.07658
2.04773
2.10584
2.07026
2.1645
2.12979
2.2161
2.20363
2.27412
2.27169
2.32767
2.42963
2.47766
2.60278
2.65492
2.76099
2.83771
2.89244
2.95927
3.02845
3.11666
3.21777
3.30729
3.36795
3.37083
3.36188
3.34742
3.32779
3.31364
3.31359
3.32942
3.3479
3.36115
3.35954
3.35183
3.33567
3.31701
3.29599
3.27852
3.26732
3.26347
3.25833
3.23741
3.23228
3.2077
1.47415
0.64777
0.308876
0.430401
0.760593
1.10945
1.40735
1.35647
1.277
1.15003
0.969754
0.771087
0.738971
0.834551
0.91634
1.0149
1.13694
1.17507
1.1294
1.07853
1.01757
0.939044
0.848363
0.814707
0.820897
0.821374
0.837617
0.866641
0.905942
0.952625
1.00422
1.06286
1.08765
1.14531
2.5569
2.75642
2.72287
2.54171
2.45736
2.39836
2.35874
2.31714
2.28776
2.26398
2.23928
2.214
2.18388
2.16364
2.14186
2.12732
2.11344
2.1003
2.09526
2.08949
2.0764
2.07595
2.07075
2.04874
2.04866
2.05822
2.05569
2.04853
2.06107
2.06251
2.06457
2.04647
2.05514
2.04482
2.03698
2.03536
2.03385
2.02068
2.03077
2.01817
2.02966
2.05096
2.00963
2.05451
2.00399
2.07593
2.08537
2.08852
2.01688
2.07929
2.12342
2.23765
2.28383
2.38033
2.42242
2.56883
2.6813
2.75996
2.84671
2.95035
3.06954
3.20779
3.29561
3.35748
3.37706
3.37055
3.36119
3.34972
3.32804
3.31549
3.32626
3.34357
3.35594
3.35701
3.35219
3.33981
3.32208
3.29873
3.27676
3.26104
3.25741
3.25385
3.23464
3.23267
3.20804
-0.255112
1.12833
1.08603
1.03486
0.862655
0.652498
0.317867
0.32673
0.503024
0.647383
0.846532
0.98804
1.00302
0.964254
0.925129
0.840565
0.730333
0.649586
0.648093
0.674619
0.727508
0.769022
0.801819
0.805888
0.785448
0.761981
0.730314
0.694523
0.620209
0.547998
0.463078
0.357247
0.280086
0.363047
0.771763
2.32141
2.31295
2.22373
2.13053
2.08253
2.04396
2.03263
2.02792
2.02341
2.00918
2.02916
2.03652
2.04035
2.04469
2.04847
2.04852
2.0528
2.05557
2.05442
2.04909
2.0553
2.04115
2.03524
2.04772
2.03904
2.03046
2.04473
2.0399
2.04557
2.05459
2.04653
2.05684
2.05635
2.03971
2.05359
2.03776
2.03441
2.04343
2.03628
2.03624
2.06081
2.00485
2.05719
2.00212
2.0926
2.05343
1.98468
1.93166
1.95045
1.94795
2.07258
2.08497
2.12092
2.27028
2.37493
2.46723
2.57574
2.7195
2.85123
2.99935
3.16661
3.25755
3.30311
3.33672
3.34362
3.33832
3.33209
3.32128
3.30358
3.30042
3.31801
3.33592
3.34634
3.34857
3.33758
3.31869
3.30128
3.28108
3.25476
3.25154
3.24767
3.23155
3.23141
3.20802
1.44079
0.74003
0.601313
0.635269
0.827512
1.0085
1.20867
1.21793
1.16515
1.0632
0.940459
0.823301
0.793754
0.819281
0.857116
0.902566
0.955319
0.982784
0.961205
0.929217
0.898767
0.851857
0.798908
0.775
0.768806
0.760038
0.747014
0.740422
0.738384
0.737943
0.728217
0.698862
0.679709
0.859479
1.91764
2.63962
2.36208
2.30641
2.21599
2.16228
2.10754
2.08763
2.07195
2.07078
2.07795
2.09175
2.10256
2.10439
2.1113
2.10742
2.10803
2.10758
2.1034
2.10049
2.09956
2.09774
2.09049
2.09746
2.09717
2.09182
2.09538
2.11238
2.10028
2.11606
2.10101
2.11052
2.111
2.10808
2.10878
2.11318
2.11248
2.11507
2.13095
2.11456
2.13179
2.11625
2.15222
2.14803
2.21949
2.18162
2.17958
2.02222
2.05068
2.07956
2.03981
1.99621
1.97443
2.00992
2.18792
2.26647
2.31812
2.41885
2.5908
2.7697
2.95262
3.14282
3.23587
3.26731
3.29801
3.31837
3.32611
3.32277
3.31418
3.2993
3.28927
3.29969
3.31696
3.33511
3.34244
3.33917
3.31751
3.2959
3.28004
3.25358
3.24696
3.24043
3.22885
3.22758
3.20637
-0.205834
0.895834
0.948904
0.958277
0.91302
0.790925
0.621192
0.597617
0.707907
0.787633
0.887453
0.972269
0.960211
0.949905
0.929373
0.886368
0.847683
0.806935
0.793647
0.80091
0.812445
0.827701
0.838703
0.824853
0.79986
0.777289
0.745075
0.719898
0.669392
0.626663
0.591762
0.585658
0.620604
0.876596
1.64074
2.49101
2.40865
2.41022
2.31483
2.2416
2.16565
2.15861
2.14135
2.14922
2.16444
2.17873
2.19568
2.20928
2.21878
2.2154
2.21533
2.21072
2.21584
2.21417
2.22578
2.22952
2.26099
2.25457
2.27926
2.2672
2.29135
2.28079
2.29537
2.28444
2.29156
2.26896
2.2793
2.27191
2.30101
2.29056
2.31366
2.31552
2.35405
2.36032
2.40164
2.40234
2.48924
2.44646
2.50285
2.35589
2.27045
2.10036
2.17535
2.18054
2.14209
2.11462
2.11168
2.08415
2.13491
2.17991
2.19816
2.28348
2.4324
2.64549
2.91215
3.1392
3.22298
3.24799
3.26939
3.2886
3.30111
3.30341
3.30054
3.29292
3.28533
3.29415
3.30471
3.32003
3.32616
3.32962
3.31686
3.29283
3.2807
3.25256
3.24175
3.23348
3.22554
3.22126
3.204
1.37555
0.832089
0.765516
0.754207
0.83204
0.92413
1.01694
1.0186
1.01302
0.961426
0.906904
0.843436
0.829408
0.834476
0.850574
0.863366
0.881366
0.886453
0.879788
0.864888
0.844976
0.819341
0.78401
0.752178
0.725544
0.692602
0.658575
0.619554
0.569732
0.504263
0.408683
0.267978
0.198599
0.419414
1.43372
2.1391
2.2611
2.35189
2.2765
2.25644
2.22299
2.24719
2.2699
2.28763
2.30471
2.31264
2.33126
2.34294
2.35276
2.36167
2.37448
2.39451
2.42218
2.45476
2.48948
2.51128
2.53924
2.55033
2.55654
2.56338
2.58383
2.61128
2.64664
2.68787
2.71056
2.7425
2.76341
2.78855
2.79759
2.82796
2.84015
2.88117
2.90521
2.95055
2.97392
2.99224
2.97943
2.93821
2.86233
2.72259
2.55185
2.41213
2.2545
2.11124
2.14081
2.20701
2.26464
2.23847
2.19073
2.20357
2.33241
2.34504
2.44486
2.63833
2.94309
3.16861
3.2195
3.23771
3.2549
3.27411
3.28857
3.29309
3.29057
3.28566
3.2805
3.28587
3.29531
3.31122
3.32435
3.32023
3.31479
3.28918
3.2761
3.2505
3.23568
3.22694
3.21989
3.21455
3.19728
0.262931
0.898573
0.92937
0.934162
0.905188
0.863085
0.803797
0.794415
0.834775
0.873624
0.909438
0.936152
0.936638
0.917316
0.905952
0.890608
0.872909
0.856643
0.841491
0.835267
0.829912
0.824617
0.820544
0.811752
0.795633
0.773602
0.744195
0.717
0.672205
0.641277
0.595759
0.567067
0.63134
1.22448
1.96994
2.33228
2.56373
2.58841
2.5414
2.5442
2.54376
2.55579
2.57589
2.60726
2.61241
2.62129
2.63454
2.64517
2.65247
2.66539
2.6845
2.70915
2.73899
2.77367
2.81085
2.84085
2.87167
2.89405
2.92061
2.94818
2.97883
3.01199
3.05002
3.08447
3.11375
3.12864
3.14301
3.15644
3.16774
3.17673
3.18745
3.20295
3.21175
3.2155
3.21633
3.21623
3.20168
3.17733
3.11008
3.02457
2.88257
2.75034
2.61649
2.42519
2.22218
2.17708
2.13459
2.15875
2.25579
2.40086
2.35488
2.30695
2.42754
2.75932
3.03606
3.19501
3.22957
3.23453
3.2483
3.26509
3.27816
3.28224
3.27707
3.27238
3.27023
3.27726
3.28767
3.30539
3.31637
3.31487
3.30584
3.28708
3.27466
3.25093
3.23179
3.22131
3.21318
3.20683
3.18863
1.14361
0.867492
0.811944
0.785838
0.832801
0.872046
0.913494
0.91673
0.91772
0.911072
0.890209
0.870453
0.865774
0.862753
0.865543
0.867521
0.869152
0.865467
0.857847
0.847364
0.830312
0.816222
0.80034
0.775884
0.752668
0.729156
0.704591
0.676627
0.649645
0.619229
0.556292
0.51753
0.613246
1.75281
2.19473
2.36222
2.56468
2.65878
2.6883
2.69167
2.6988
2.71622
2.73316
2.76029
2.78012
2.80512
2.83873
2.86566
2.89503
2.92214
2.95051
2.97839
3.00871
3.04294
3.08165
3.12181
3.15878
3.1901
3.21879
3.24071
3.26201
3.27194
3.27869
3.2822
3.28721
3.29101
3.29497
3.29795
3.29715
3.29722
3.28953
3.28857
3.27496
3.26804
3.26115
3.25565
3.23535
3.21465
3.17876
3.1376
3.04081
2.92464
2.67096
2.63172
2.538
2.39757
2.30713
2.29263
2.28581
2.37638
2.45812
2.4637
2.61368
2.90337
3.08674
3.21449
3.2217
3.22378
3.24472
3.26285
3.27058
3.26547
3.2594
3.25886
3.26264
3.26982
3.28242
3.30258
3.31006
3.30646
3.29863
3.28357
3.27138
3.24999
3.2312
3.21655
3.2063
3.19838
3.1781
0.647429
0.912709
0.909342
0.886404
0.881025
0.871074
0.858579
0.857739
0.873592
0.884908
0.899588
0.905037
0.902065
0.893084
0.885064
0.878305
0.865156
0.855713
0.844066
0.832066
0.820453
0.814948
0.806486
0.791009
0.774227
0.753994
0.73321
0.705264
0.662095
0.607832
0.558723
0.590863
0.63284
2.08218
2.35716
2.51657
2.71142
2.80397
2.83193
2.86655
2.90006
2.92942
2.96273
2.99561
3.02672
3.05834
3.09649
3.12814
3.15383
3.17482
3.19156
3.2093
3.22568
3.24191
3.25373
3.26608
3.27377
3.2819
3.29193
3.30246
3.31341
3.32431
3.33438
3.33929
3.3399
3.33846
3.33031
3.31197
3.30165
3.31109
3.29957
3.29218
3.2727
3.26664
3.2574
3.24733
3.22981
3.20487
3.18
3.14329
3.09599
3.06748
2.82
2.51703
2.42955
2.42385
2.39542
2.45104
2.3694
2.32486
2.41823
2.58206
2.80742
3.00442
3.16134
3.20331
3.20057
3.21938
3.24369
3.2523
3.24067
3.23895
3.24428
3.2489
3.25392
3.26096
3.27989
3.30282
3.30732
3.30153
3.29321
3.28151
3.26695
3.24774
3.22734
3.21147
3.1998
3.1892
3.16748
0.925612
0.860619
0.839369
0.817793
0.842189
0.859756
0.881066
0.885737
0.88855
0.890606
0.887387
0.884053
0.879368
0.876299
0.873312
0.868948
0.86274
0.855716
0.846157
0.833576
0.821487
0.814684
0.802109
0.78199
0.768283
0.758186
0.751754
0.745568
0.740552
0.737784
0.718103
0.73452
1.14483
2.50325
2.65942
2.84937
2.9867
3.0556
3.08471
3.09856
3.12268
3.14271
3.16232
3.17799
3.18795
3.19922
3.21517
3.22609
3.24043
3.25483
3.27082
3.28261
3.29411
3.3
3.30688
3.31269
3.32114
3.32934
3.3431
3.35311
3.36006
3.36159
3.36203
3.35911
3.35248
3.33908
3.32167
3.29534
3.27929
3.28402
3.27304
3.2658
3.25183
3.23869
3.23218
3.23151
3.22185
3.20574
3.1863
3.15423
3.11784
3.05407
2.88123
2.64424
2.50497
2.41335
2.38075
2.4153
2.44543
2.45272
2.56833
2.75109
2.93622
3.08414
3.18601
3.17969
3.19035
3.21628
3.2322
3.22846
3.22545
3.23134
3.23544
3.23666
3.24417
3.25799
3.28287
3.30329
3.30431
3.29741
3.28824
3.27864
3.26433
3.24211
3.22244
3.20595
3.19289
3.17922
3.15668
0.782219
0.875751
0.876907
0.868821
0.86771
0.864784
0.868598
0.873073
0.879979
0.884196
0.887421
0.887912
0.886714
0.881754
0.875109
0.867753
0.861524
0.849337
0.840623
0.827389
0.81674
0.809653
0.797905
0.785275
0.778443
0.768201
0.757831
0.747367
0.742002
0.740439
0.759926
0.821573
2.03242
2.73434
2.9527
3.08197
3.1175
3.13631
3.13963
3.1563
3.17262
3.19047
3.20482
3.22068
3.23378
3.24942
3.2619
3.27487
3.28852
3.30015
3.31045
3.32025
3.32843
3.33545
3.34079
3.34514
3.34786
3.351
3.35337
3.3539
3.35994
3.36072
3.36032
3.35757
3.34701
3.32142
3.29337
3.25276
3.2456
3.25963
3.25518
3.23817
3.22974
3.22776
3.22707
3.22526
3.21898
3.20787
3.19755
3.17593
3.15196
3.09169
2.96933
2.79939
2.62447
2.50357
2.44529
2.4424
2.47661
2.59635
2.74561
2.91446
3.03508
3.14238
3.17748
3.17563
3.19517
3.21046
3.21561
3.2118
3.21961
3.22396
3.22252
3.22624
3.23773
3.25982
3.28694
3.30163
3.29972
3.29212
3.28429
3.27479
3.26182
3.23883
3.21574
3.19923
3.18525
3.16849
3.14552
0.839109
0.850828
0.844566
0.848
0.857154
0.865373
0.875816
0.881669
0.883759
0.884226
0.884869
0.882292
0.880609
0.877568
0.871883
0.863707
0.858216
0.847291
0.836682
0.827005
0.819536
0.813654
0.804642
0.796341
0.795043
0.800806
0.816407
0.832327
0.859817
0.904199
0.921848
0.973338
2.75215
2.99926
3.0967
3.12142
3.12266
3.13016
3.15626
3.18349
3.20542
3.22734
3.24585
3.26555
3.28202
3.30289
3.32169
3.33965
3.35886
3.37708
3.39699
3.41128
3.4253
3.43646
3.4419
3.44083
3.43708
3.43111
3.42354
3.41274
3.40184
3.38657
3.37404
3.34809
3.33743
3.3228
3.29283
3.26374
3.23765
3.23566
3.24562
3.24828
3.24126
3.23133
3.22533
3.21827
3.20079
3.1869
3.18421
3.18361
3.16207
3.10884
3.03225
2.92206
2.74592
2.60057
2.51065
2.48113
2.53391
2.69338
2.86904
3.0465
3.12431
3.17395
3.17961
3.17597
3.18727
3.19285
3.19782
3.20123
3.21009
3.20981
3.2078
3.21908
3.235
3.2656
3.28856
3.29816
3.29434
3.28717
3.28154
3.27336
3.25931
3.23383
3.20912
3.19243
3.17653
3.15691
3.1351
0.815097
0.863898
0.864776
0.861755
0.865531
0.868958
0.873501
0.877648
0.87988
0.88161
0.881795
0.881092
0.879428
0.878178
0.87238
0.862538
0.853037
0.843542
0.832052
0.823082
0.815869
0.809027
0.798759
0.790437
0.784102
0.780774
0.780234
0.784014
0.797752
0.829105
0.84972
1.57665
2.87609
3.02239
3.09737
3.11578
3.13029
3.16179
3.18642
3.2096
3.23241
3.25613
3.27812
3.29845
3.3193
3.34119
3.3674
3.398
3.41877
3.43882
3.45617
3.47062
3.48399
3.49838
3.51033
3.52025
3.51478
3.50568
3.49198
3.47453
3.4547
3.43454
3.41008
3.39254
3.35566
3.31675
3.27405
3.24354
3.2161
3.20556
3.18923
3.19741
3.20752
3.21197
3.20151
3.20383
3.19685
3.18759
3.18502
3.16947
3.1535
3.10107
3.04366
3.02468
2.92367
2.82581
2.7444
2.7035
2.72678
2.85161
2.98288
3.10903
3.16458
3.17098
3.16245
3.16511
3.17604
3.17939
3.18773
3.19443
3.19622
3.18921
3.1949
3.21478
3.2388
3.26865
3.28654
3.29215
3.28821
3.28285
3.2795
3.27128
3.25606
3.22753
3.20196
3.18428
3.16738
3.14531
3.12505
0.837069
0.853957
0.855187
0.857299
0.866248
0.872263
0.876319
0.882504
0.884172
0.884072
0.882684
0.881
0.877447
0.87495
0.869332
0.859968
0.850073
0.841767
0.830055
0.820765
0.81388
0.809801
0.806809
0.804701
0.811145
0.833834
0.876607
0.948017
1.0618
1.23665
1.36389
2.9454
3.18742
3.33626
3.30673
3.30997
3.34272
3.36432
3.36478
3.35881
3.36004
3.3664
3.37693
3.38702
3.40057
3.41238
3.42311
3.42845
3.43405
3.44263
3.45314
3.46823
3.48673
3.51054
3.54273
3.57462
3.58001
3.57557
3.56741
3.55297
3.53045
3.50079
3.46847
3.43778
3.40629
3.37482
3.3445
3.2866
3.22428
3.16475
3.15787
3.16744
3.17869
3.16947
3.1525
3.15242
3.14234
3.14054
3.14145
3.16247
3.16838
3.15174
3.08561
3.00249
2.89288
2.80919
2.81755
2.81157
2.84368
2.93793
3.03034
3.10886
3.14546
3.14279
3.1413
3.15624
3.16793
3.17345
3.18059
3.18838
3.18101
3.17633
3.18995
3.21352
3.23965
3.26848
3.28119
3.28423
3.28297
3.28075
3.27828
3.26839
3.25079
3.22068
3.19533
3.17659
3.15805
3.13352
3.11572
0.841543
0.858143
0.863216
0.865319
0.870442
0.87508
0.878394
0.88465
0.885013
0.8829
0.882776
0.880731
0.877382
0.874163
0.868486
0.859326
0.848532
0.838085
0.826479
0.815352
0.806036
0.802176
0.795718
0.77935
0.771228
0.762567
0.750061
0.7225
0.671671
0.563185
0.351073
0.253116
2.29773
2.58221
2.81652
2.9871
3.12733
3.20794
3.25383
3.27058
3.28587
3.29452
3.30463
3.31117
3.31698
3.32393
3.33391
3.34586
3.36034
3.37639
3.3934
3.4116
3.43031
3.45156
3.47829
3.51303
3.55804
3.58667
3.59466
3.59235
3.58376
3.56964
3.54809
3.52044
3.48145
3.43051
3.37261
3.31977
3.27344
3.21308
3.14759
3.10706
3.08736
3.08246
3.10864
3.11571
3.11295
3.08976
3.05368
3.05704
3.05013
3.06728
3.08024
3.06332
3.02018
2.92524
2.86952
2.85807
2.87594
2.93637
3.02117
3.07751
3.1159
3.11679
3.12105
3.14382
3.15938
3.16978
3.17439
3.17923
3.17195
3.17289
3.1902
3.21234
3.23749
3.26293
3.27261
3.27708
3.27916
3.27878
3.27633
3.26421
3.24357
3.2127
3.18827
3.16884
3.14951
3.12176
3.10731
0.848221
0.860094
0.861149
0.86793
0.875642
0.880054
0.88471
0.888805
0.887568
0.887238
0.884462
0.880368
0.87655
0.871577
0.862986
0.856189
0.84432
0.832032
0.822531
0.810616
0.798653
0.793605
0.786804
0.775925
0.756832
0.745279
0.730831
0.723986
0.708701
0.684568
0.665779
0.713183
1.79386
2.30491
2.51729
2.69355
2.86261
3.00643
3.12495
3.19516
3.24309
3.26833
3.28733
3.29979
3.31598
3.32888
3.34642
3.36311
3.38202
3.40394
3.42225
3.4288
3.42879
3.42371
3.42121
3.42372
3.43754
3.46306
3.49726
3.52831
3.5502
3.56412
3.57269
3.55533
3.53698
3.50868
3.47244
3.42306
3.3715
3.32378
3.2734
3.2123
3.16119
3.10502
3.055
3.02681
3.00559
3.00606
3.00843
3.01566
3.00948
2.98284
2.97704
2.94436
2.93448
2.93763
2.91393
2.90097
2.90239
2.9283
2.99673
3.06122
3.08912
3.09152
3.10112
3.13358
3.15176
3.16424
3.17084
3.17112
3.16312
3.16757
3.18831
3.20979
3.23353
3.25504
3.26355
3.26961
3.27454
3.27598
3.27294
3.25911
3.23702
3.20498
3.181
3.16054
3.14107
3.11075
3.09829
0.854088
0.864048
0.868658
0.871341
0.880037
0.884301
0.888676
0.890204
0.890054
0.889099
0.884432
0.880555
0.875738
0.870054
0.861948
0.854567
0.842825
0.82899
0.817581
0.806654
0.794891
0.781561
0.771284
0.762531
0.749719
0.730962
0.709208
0.69285
0.676377
0.640949
0.607477
0.603067
1.0732
1.79844
1.96326
2.12281
2.34203
2.55645
2.75239
2.91283
3.03926
3.09964
3.12505
3.15264
3.15536
3.1435
3.15399
3.14899
3.1404
3.12712
3.10402
3.07148
3.03727
3.00069
2.97284
2.97305
2.97488
2.98767
3.01183
3.04306
3.08607
3.12322
3.16162
3.19821
3.2281
3.2517
3.28077
3.28181
3.2791
3.25316
3.25238
3.23112
3.22579
3.20674
3.16155
3.11329
3.05158
2.98958
2.94008
2.91435
2.90017
2.87995
2.91144
2.90898
2.92785
2.90804
2.87959
2.88294
2.89347
2.92439
2.97122
3.01523
3.0449
3.05515
3.082
3.12726
3.14897
3.16063
3.1672
3.16205
3.1543
3.16227
3.18445
3.20738
3.22814
3.24474
3.25346
3.26241
3.26967
3.27265
3.26868
3.25368
3.23075
3.19765
3.17442
3.15297
3.13234
3.09942
3.08967
0.859885
0.869257
0.871732
0.876925
0.885507
0.889159
0.891846
0.892463
0.892765
0.891447
0.887584
0.881242
0.875884
0.869438
0.860578
0.852859
0.841549
0.824625
0.811872
0.799218
0.789985
0.776344
0.757784
0.740641
0.722526
0.701783
0.663825
0.622113
0.565233
0.483347
0.340245
0.27601
0.29441
1.3242
1.55741
1.67079
1.84643
1.98237
2.08406
2.22642
2.19153
2.2491
2.08556
2.15499
2.18963
2.27831
2.48934
2.51704
2.52773
2.5115
2.50575
2.52712
2.5369
2.56481
2.54005
2.54902
2.55876
2.57328
2.56086
2.54101
2.5256
2.53169
2.55648
2.59054
2.63308
2.69085
2.75837
2.83103
2.87478
2.94389
2.98288
3.03892
3.09585
3.14102
3.17237
3.15995
3.13244
3.07827
3.01263
2.94201
2.89413
2.83367
2.81618
2.79055
2.80885
2.8392
2.85779
2.85814
2.87101
2.89772
2.93588
2.97243
2.99862
3.01564
3.06152
3.11532
3.14138
3.15544
3.16363
3.15668
3.15037
3.1603
3.18023
3.20381
3.21946
3.23301
3.24197
3.2552
3.26427
3.26844
3.26355
3.24779
3.22431
3.19109
3.16849
3.1462
3.1241
3.08898
3.08146
0.864816
0.873868
0.878978
0.883552
0.890474
0.893295
0.894773
0.895691
0.895295
0.893947
0.890463
0.883984
0.877565
0.870987
0.860439
0.851706
0.84092
0.822943
0.807912
0.793355
0.782162
0.768975
0.740401
0.719123
0.698309
0.679614
0.66548
0.648756
0.631615
0.623352
0.606536
0.635162
0.731344
1.20749
1.44574
1.42602
1.45172
1.46924
1.51203
1.62478
1.68751
1.89012
2.12486
2.4078
2.5819
2.62999
2.65239
2.52357
2.43711
2.34111
2.32311
2.30343
2.26374
2.21495
2.17996
2.13847
2.14065
2.13307
2.15359
2.14029
2.18547
2.20237
2.26315
2.27238
2.31854
2.33398
2.347
2.4215
2.41807
2.50044
2.55623
2.65912
2.78338
2.89625
3.01587
3.09238
3.10697
3.07034
3.02407
2.96047
2.91236
2.86027
2.83558
2.78912
2.76014
2.76013
2.77868
2.80327
2.8301
2.86183
2.89343
2.92541
2.95084
2.9763
3.03851
3.1017
3.13302
3.15205
3.15873
3.15331
3.15011
3.15947
3.17576
3.19628
3.20729
3.21914
3.22908
3.24722
3.25804
3.26304
3.25751
3.24139
3.21784
3.18487
3.16285
3.13941
3.11655
3.07802
3.07332
0.870763
0.878767
0.884776
0.889703
0.894318
0.896611
0.898283
0.898705
0.89733
0.895497
0.89277
0.887213
0.880558
0.871492
0.859902
0.851619
0.841109
0.821288
0.804642
0.786739
0.77497
0.763506
0.732785
0.703783
0.681124
0.657423
0.62884
0.6087
0.588003
0.546189
0.542206
0.578581
0.717704
1.15731
2.12354
2.1978
2.37416