/*--------------------------------*- C++ -*----------------------------------*\
| =========                 |                                                 |
| \\      /  F ield         | OpenFOAM: The Open Source CFD Toolbox           |
|  \\    /   O peration     | Version:  2.2.x                                 |
|   \\  /    A nd           | Web:      www.OpenFOAM.org                      |
|    \\/     M anipulation  |                                                 |
\*---------------------------------------------------------------------------*/
FoamFile
{
    version     2.0;
    format      ascii;
    class       volScalarField;
    location    "1.8";
    object      Ma;
}
// * * * * * * * * * * * * * * * * * * * * * * * * * * * * * * * * * * * * * //

dimensions      [0 0 0 0 0 0 0];

internalField   nonuniform List<scalar> 
14161
(
2.60199
2.60188
2.60213
2.60259
2.60323
2.60409
2.6053
2.60668
2.60821
2.61032
2.61276
2.61516
2.618
2.62165
2.62547
2.62928
2.63359
2.63879
2.64358
2.64774
2.65318
2.66029
2.6635
2.66439
2.66628
2.67158
2.67307
2.67296
2.67172
2.66929
2.66275
2.65451
2.64637
2.63435
2.61443
2.59479
2.57313
2.56018
2.53592
2.50879
2.46666
2.42883
2.42358
0.825916
0.550862
0.526837
0.525232
0.532598
0.540217
0.555095
0.568357
0.585823
0.601219
0.617251
0.633115
0.648175
0.662533
0.675993
0.690502
0.703912
0.715065
0.724762
0.73288
0.741605
0.752102
0.76202
0.769549
0.775469
0.781137
0.787556
0.794967
0.803877
0.811072
0.81728
0.824404
0.831884
0.839749
0.847609
0.854626
0.861379
0.868432
0.877806
0.887338
0.896449
0.90555
0.914584
0.924177
0.93313
0.946982
0.959417
0.977864
0.989281
1.01042
1.02622
1.04427
1.06618
1.09111
1.1167
1.14215
1.16757
1.19268
1.21856
1.24338
1.26604
1.28058
1.2913
1.29231
1.25255
1.17312
0.992946
0.777648
0.604026
0.475586
0.38047
0.304919
0.239492
0.178645
0.115728
0.0845719
2.60199
2.60188
2.60213
2.60259
2.60323
2.6041
2.60529
2.60668
2.60822
2.61032
2.61276
2.61518
2.61799
2.62165
2.6255
2.62923
2.63355
2.63892
2.6434
2.64766
2.6537
2.66005
2.66308
2.66438
2.66634
2.67183
2.67339
2.67331
2.6721
2.6697
2.66315
2.65508
2.64667
2.63491
2.61591
2.59618
2.57436
2.56151
2.53736
2.50769
2.46361
2.42372
2.4054
0.817721
0.546789
0.52339
0.522154
0.531956
0.540384
0.556559
0.57063
0.588145
0.604061
0.619216
0.635088
0.649601
0.663588
0.677656
0.690535
0.70416
0.715762
0.725682
0.735831
0.744545
0.753116
0.76263
0.770925
0.778315
0.785617
0.792382
0.798867
0.806221
0.813193
0.819786
0.826833
0.834536
0.842474
0.851303
0.858944
0.865971
0.873281
0.882152
0.892395
0.901949
0.910619
0.919348
0.929414
0.938242
0.948946
0.962052
0.981704
0.994442
1.01713
1.03304
1.05135
1.07262
1.0966
1.12137
1.14613
1.17136
1.19622
1.22072
1.24407
1.26357
1.26882
1.26307
1.22027
1.12575
0.965119
0.765403
0.601045
0.479776
0.39332
0.323541
0.262556
0.208612
0.165649
0.119704
0.123735
2.60199
2.60188
2.60213
2.60259
2.60323
2.60411
2.60527
2.6067
2.60824
2.61029
2.61275
2.61522
2.61799
2.62171
2.62552
2.62918
2.63366
2.63893
2.64317
2.64776
2.65419
2.65939
2.66267
2.66446
2.66672
2.67221
2.67403
2.67407
2.67298
2.67068
2.66422
2.65685
2.64759
2.63654
2.61976
2.60011
2.57845
2.56496
2.54154
2.50957
2.46222
2.42605
2.41034
0.821461
0.546296
0.521057
0.517311
0.529452
0.537975
0.555948
0.570556
0.589607
0.606489
0.623777
0.639742
0.655499
0.669629
0.684461
0.698242
0.710756
0.722325
0.73263
0.742765
0.752797
0.761472
0.769777
0.777904
0.785668
0.793467
0.800827
0.807704
0.814357
0.821027
0.827868
0.835254
0.843397
0.851316
0.85957
0.866937
0.873789
0.881227
0.889536
0.898747
0.909374
0.918044
0.927189
0.938344
0.947862
0.958497
0.969599
0.989725
1.00185
1.02261
1.03982
1.05927
1.08016
1.10284
1.12634
1.15079
1.1758
1.19811
1.21982
1.23589
1.24128
1.2267
1.17243
1.07127
0.906759
0.716025
0.564064
0.461132
0.389537
0.33429
0.283233
0.239078
0.201697
0.179921
0.155416
0.176769
2.60199
2.60188
2.60213
2.60258
2.60323
2.60411
2.60526
2.6067
2.60828
2.61026
2.6127
2.61525
2.61796
2.62176
2.62551
2.62913
2.63387
2.63892
2.64302
2.6479
2.65434
2.65876
2.66235
2.6651
2.66752
2.67276
2.67494
2.67525
2.67437
2.67227
2.66615
2.65945
2.65022
2.6403
2.62635
2.6065
2.58581
2.57001
2.54758
2.51419
2.46421
2.43245
2.40609
0.825068
0.543805
0.520767
0.514166
0.530861
0.539152
0.559337
0.574829
0.59432
0.612349
0.6306
0.647654
0.663657
0.680401
0.696185
0.711427
0.72368
0.734945
0.746851
0.757773
0.768267
0.776979
0.784111
0.79168
0.800347
0.80896
0.817076
0.823716
0.830024
0.836508
0.844281
0.852029
0.860337
0.868353
0.875544
0.882808
0.889661
0.896965
0.905139
0.914523
0.923964
0.934928
0.943346
0.954644
0.963829
0.973557
0.983925
1.00251
1.01505
1.03401
1.05164
1.07173
1.0916
1.1139
1.13455
1.15599
1.17777
1.19496
1.20925
1.21226
1.18315
1.12557
0.990232
0.806106
0.630776
0.488331
0.41115
0.367259
0.329116
0.291366
0.256136
0.229416
0.207483
0.20137
0.190138
0.213884
2.60197
2.60188
2.60213
2.60257
2.60323
2.60412
2.60525
2.60669
2.60833
2.61023
2.61267
2.61528
2.61796
2.62176
2.62551
2.6291
2.634
2.63898
2.64302
2.64812
2.65445
2.65857
2.66214
2.66599
2.66913
2.67342
2.67605
2.67707
2.67649
2.6748
2.66956
2.66342
2.65523
2.64655
2.63512
2.61586
2.59572
2.5779
2.5572
2.52444
2.47203
2.44258
2.39359
0.828174
0.540765
0.517961
0.509328
0.531437
0.541094
0.564863
0.582721
0.604392
0.624457
0.64417
0.662728
0.680224
0.698026
0.715239
0.730471
0.744252
0.756578
0.769162
0.781184
0.790956
0.800025
0.808069
0.815106
0.823474
0.833
0.841323
0.848042
0.853625
0.859303
0.866919
0.875557
0.883689
0.891479
0.898169
0.905112
0.912802
0.920721
0.928903
0.937302
0.945524
0.95557
0.965953
0.976411
0.986109
0.9951
1.00384
1.02127
1.03372
1.05234
1.06814
1.08848
1.10683
1.12471
1.14337
1.16144
1.17723
1.18171
1.18684
1.14468
1.06128
0.920492
0.729547
0.562747
0.443651
0.386598
0.353293
0.323853
0.295658
0.268801
0.245085
0.230769
0.221176
0.225151
0.220918
0.242535
2.60197
2.60188
2.60213
2.60255
2.60323
2.60413
2.60521
2.60665
2.60835
2.6102
2.61263
2.61529
2.618
2.62174
2.62551
2.6291
2.63409
2.63896
2.64308
2.64835
2.65457
2.65853
2.6621
2.66703
2.6711
2.67427
2.67703
2.67916
2.67933
2.67791
2.675
2.66925
2.66257
2.65438
2.6455
2.62959
2.6101
2.59124
2.57249
2.54303
2.48885
2.46066
2.39508
0.843752
0.540633
0.517466
0.507661
0.537298
0.548719
0.576478
0.59676
0.620576
0.642357
0.664274
0.68508
0.70538
0.725202
0.74339
0.759657
0.773965
0.788333
0.802137
0.813331
0.823311
0.832604
0.841188
0.849872
0.857698
0.866235
0.874041
0.880756
0.88663
0.892586
0.899951
0.908124
0.915756
0.923133
0.930101
0.936807
0.943894
0.952228
0.96004
0.967832
0.975861
0.985336
0.996219
1.00599
1.01454
1.02246
1.03082
1.04587
1.05706
1.0763
1.09041
1.10799
1.12076
1.13663
1.14815
1.16249
1.16347
1.1434
1.11226
1.00341
0.843309
0.668709
0.518263
0.422987
0.380437
0.355953
0.332261
0.305985
0.281641
0.260566
0.245267
0.239701
0.236188
0.245344
0.245816
0.264581
2.60196
2.60187
2.60212
2.60255
2.60322
2.60413
2.6052
2.60663
2.60837
2.6102
2.61257
2.61532
2.61807
2.62166
2.6255
2.62916
2.63402
2.63886
2.64317
2.64848
2.65459
2.65861
2.66226
2.6679
2.67295
2.67562
2.6782
2.68088
2.68327
2.683
2.68112
2.67797
2.67185
2.66528
2.65767
2.64732
2.63151
2.6136
2.59661
2.57077
2.5198
2.48703
2.41029
0.87565
0.543594
0.518847
0.509217
0.548234
0.564894
0.59828
0.623573
0.649469
0.673331
0.697297
0.720076
0.742342
0.762956
0.78161
0.79828
0.814433
0.830664
0.843959
0.85518
0.86544
0.87566
0.885311
0.894456
0.902526
0.909423
0.916523
0.924714
0.931677
0.938376
0.944177
0.950185
0.957386
0.965146
0.973303
0.979867
0.986337
0.993458
1.00023
1.00697
1.01379
1.02312
1.0332
1.04482
1.05119
1.0568
1.06302
1.0748
1.08349
1.10087
1.11181
1.12134
1.13525
1.14451
1.14075
1.14691
1.11376
1.04601
0.941758
0.777355
0.61636
0.488765
0.42486
0.393793
0.37088
0.349297
0.32362
0.299216
0.27809
0.262115
0.252162
0.251319
0.251326
0.262287
0.266037
0.282035
2.60195
2.60186
2.60211
2.60254
2.60322
2.60412
2.60519
2.6066
2.60837
2.61021
2.61249
2.6153
2.61816
2.62149
2.62546
2.62929
2.63382
2.6387
2.64334
2.64863
2.65465
2.6589
2.66252
2.66846
2.67431
2.67722
2.67965
2.68197
2.68689
2.68934
2.68967
2.68803
2.68308
2.6786
2.67331
2.66762
2.65892
2.64875
2.63415
2.61224
2.57006
2.52963
2.43494
0.934997
0.552856
0.521094
0.519053
0.567615
0.592815
0.631611
0.663459
0.693247
0.720031
0.746344
0.770932
0.793255
0.814559
0.833392
0.851137
0.868188
0.883476
0.897491
0.909638
0.920523
0.930448
0.94143
0.952145
0.959728
0.966359
0.973147
0.980358
0.987903
0.994219
0.99991
1.00412
1.00965
1.01697
1.02457
1.03055
1.03569
1.04102
1.04701
1.05252
1.05739
1.06345
1.07053
1.08036
1.08674
1.09054
1.09342
1.10062
1.10559
1.12029
1.12859
1.12937
1.14093
1.12716
1.10247
1.0761
0.985679
0.856374
0.706558
0.569702
0.470431
0.43076
0.410364
0.394063
0.374674
0.351057
0.325997
0.301812
0.283235
0.269564
0.262469
0.264122
0.265652
0.276999
0.28269
0.296237
2.60194
2.60185
2.6021
2.60254
2.60319
2.60411
2.60519
2.60658
2.60833
2.61024
2.61242
2.61524
2.61822
2.62136
2.62529
2.62945
2.63374
2.63838
2.64361
2.64889
2.65453
2.65908
2.66316
2.66916
2.67529
2.67878
2.68158
2.68436
2.69001
2.69504
2.69866
2.69943
2.6974
2.69517
2.69303
2.69091
2.68882
2.69181
2.68787
2.67519
2.65092
2.60393
2.47598
1.0788
0.56845
0.52146
0.550434
0.602226
0.644808
0.688165
0.72502
0.759738
0.789459
0.816841
0.842746
0.863077
0.88519
0.903047
0.921764
0.937537
0.950465
0.96271
0.974335
0.98527
0.994353
1.00434
1.01469
1.0221
1.02833
1.03385
1.0398
1.04542
1.05062
1.0554
1.05927
1.06192
1.06706
1.0726
1.07847
1.08056
1.08417
1.08873
1.09112
1.09458
1.09847
1.10129
1.10649
1.10989
1.11105
1.11412
1.11644
1.11583
1.12532
1.12119
1.10866
1.10341
1.05969
0.992238
0.906414
0.774196
0.641377
0.525017
0.462065
0.437778
0.424407
0.419649
0.404634
0.382572
0.357684
0.330512
0.307794
0.291367
0.279653
0.274394
0.277302
0.279397
0.290578
0.297038
0.308678
2.60193
2.60183
2.60207
2.60253
2.60318
2.60409
2.60517
2.60654
2.60829
2.61024
2.61234
2.6152
2.61823
2.6213
2.62508
2.62955
2.63372
2.63807
2.64397
2.64927
2.65424
2.65905
2.66448
2.67045
2.67582
2.67979
2.68456
2.68876
2.69455
2.69936
2.70542
2.71112
2.71386
2.71526
2.71598
2.71764
2.72171
2.73091
2.75155
2.7623
2.76579
2.74864
2.60252
1.39569
0.610838
0.530352
0.609785
0.658302
0.729136
0.781447
0.81767
0.853788
0.877114
0.900839
0.925338
0.942406
0.965815
0.978636
0.996914
1.0101
1.01956
1.02978
1.03746
1.04534
1.0529
1.05931
1.06684
1.07394
1.0794
1.0828
1.08625
1.09023
1.09467
1.09764
1.10079
1.1027
1.10338
1.10636
1.11075
1.11227
1.11227
1.1157
1.11612
1.11522
1.1182
1.11727
1.11792
1.11721
1.11302
1.114
1.1092
1.09647
1.09762
1.07253
1.03688
1.00174
0.904822
0.797117
0.681773
0.57185
0.489771
0.457162
0.444471
0.439633
0.437773
0.428958
0.411722
0.391375
0.364948
0.338243
0.317467
0.302615
0.291763
0.287013
0.290136
0.292889
0.303478
0.30987
0.320087
2.6019
2.60181
2.60206
2.60252
2.60316
2.60404
2.60517
2.60651
2.60824
2.61022
2.61232
2.6151
2.61825
2.62128
2.62493
2.62961
2.63368
2.63789
2.64432
2.6496
2.65413
2.65905
2.66648
2.67204
2.67627
2.68095
2.68778
2.69458
2.70045
2.70584
2.71029
2.71936
2.73032
2.73694
2.74365
2.74989
2.76076
2.77502
2.79818
2.84815
2.90592
2.96312
2.92546
2.27989
0.74165
0.560723
0.707534
0.766995
0.836154
0.889303
0.921999
0.952738
0.959095
0.984659
0.998825
1.01341
1.03248
1.03608
1.05576
1.06337
1.0718
1.07952
1.08502
1.09101
1.09579
1.10036
1.10471
1.10991
1.11417
1.118
1.11956
1.12166
1.12404
1.1265
1.12647
1.12689
1.1258
1.12518
1.12766
1.12669
1.12605
1.1278
1.12374
1.12034
1.12225
1.11415
1.1098
1.10278
1.09008
1.08061
1.06902
1.03617
1.01392
0.953674
0.882395
0.798004
0.695941
0.593465
0.505091
0.466078
0.452671
0.447907
0.453607
0.453151
0.447722
0.436151
0.420272
0.397516
0.371136
0.346617
0.327631
0.313731
0.303436
0.299045
0.302335
0.305917
0.315778
0.321798
0.330967
2.60188
2.6018
2.60204
2.60248
2.60313
2.604
2.60515
2.60648
2.60818
2.6102
2.6123
2.615
2.6182
2.62128
2.62483
2.6296
2.6337
2.63785
2.64439
2.64989
2.6541
2.65892
2.66801
2.67379
2.67721
2.68164
2.69079
2.70079
2.70681
2.71347
2.71672
2.72435
2.74091
2.75789
2.77237
2.7885
2.80226
2.82467
2.85484
2.89885
3.00278
3.19007
3.33101
3.22615
1.28784
0.649122
0.810584
0.875743
0.930576
0.974361
1.00182
1.02108
1.02983
1.0431
1.05115
1.0597
1.07544
1.07631
1.0928
1.09696
1.10317
1.11088
1.1158
1.12083
1.12584
1.12879
1.13161
1.13434
1.13809
1.14032
1.14158
1.14076
1.14062
1.1396
1.13911
1.13674
1.13492
1.13207
1.13207
1.12685
1.12361
1.12527
1.11389
1.10481
1.10321
1.08457
1.0685
1.05717
1.02393
0.993912
0.964529
0.900247
0.838097
0.76365
0.675353
0.586866
0.512487
0.464448
0.450714
0.444954
0.455077
0.460926
0.463196
0.461877
0.453958
0.441375
0.423965
0.402388
0.378409
0.355947
0.33815
0.324607
0.314776
0.311065
0.314445
0.318412
0.327416
0.332808
0.340806
2.60184
2.60177
2.60201
2.60246
2.60311
2.60397
2.6051
2.60647
2.6081
2.61014
2.61232
2.61489
2.61807
2.62128
2.62478
2.62945
2.63373
2.63799
2.64428
2.64994
2.65426
2.6593
2.66869
2.67503
2.67845
2.68284
2.69207
2.7055
2.71305
2.72011
2.72495
2.73215
2.74313
2.77307
2.79274
2.81524
2.84095
2.86826
2.89532
2.93152
2.9773
3.12107
3.1238
2.81302
1.97576
0.808071
0.886929
0.922975
0.964657
1.00958
1.0356
1.05579
1.06824
1.07736
1.08232
1.08643
1.09879
1.09844
1.11167
1.11398
1.12203
1.12774
1.13332
1.13825
1.14123
1.14382
1.14618
1.14788
1.1489
1.15029
1.14938
1.14684
1.14544
1.14184
1.13854
1.13644
1.13113
1.12647
1.12131
1.11015
1.1007
1.09756
1.07601
1.05629
1.04172
1.00584
0.969851
0.940684
0.884385
0.829805
0.781129
0.702597
0.626288
0.555923
0.493061
0.452179
0.446594
0.433847
0.447481
0.457912
0.465661
0.469617
0.470337
0.466114
0.457042
0.444491
0.428218
0.408757
0.386484
0.365201
0.348176
0.334904
0.326073
0.323198
0.326235
0.33043
0.338408
0.343089
0.349956
2.60182
2.60175
2.60199
2.60242
2.60308
2.60392
2.60506
2.60644
2.60803
2.61003
2.61232
2.6148
2.61789
2.62129
2.6248
2.62915
2.63372
2.63825
2.64408
2.6497
2.65471
2.66016
2.66887
2.6755
2.67991
2.68501
2.69338
2.70816
2.71818
2.72623
2.73343
2.73943
2.74976
2.7754
2.80391
2.82936
2.85757
2.88885
2.92657
2.95203
2.99496
3.15657
3.25633
2.83032
2.22971
1.05189
0.982379
0.959493
0.943284
1.00052
1.0228
1.04694
1.06542
1.08039
1.08511
1.09211
1.09939
1.10315
1.11337
1.1164
1.12635
1.13192
1.13607
1.14037
1.14093
1.14302
1.1461
1.14605
1.14543
1.14704
1.14291
1.13834
1.13691
1.12944
1.12128
1.11501
1.10331
1.09383
1.07421
1.05655
1.03382
1.01542
0.981991
0.940323
0.901123
0.855915
0.801089
0.748821
0.684241
0.622402
0.566161
0.507744
0.457606
0.433167
0.432811
0.417755
0.436092
0.446572
0.458992
0.46706
0.47297
0.474562
0.472924
0.467633
0.459678
0.448208
0.433376
0.415104
0.394319
0.374071
0.357274
0.345053
0.337498
0.335106
0.337672
0.341876
0.348832
0.352785
0.358458
2.60178
2.6017
2.60195
2.60238
2.60306
2.60387
2.60498
2.60642
2.60794
2.60991
2.61229
2.61473
2.61765
2.62124
2.62484
2.62874
2.63364
2.63853
2.64372
2.64929
2.6553
2.66148
2.66874
2.67542
2.68181
2.68803
2.69602
2.70974
2.72154
2.73143
2.74109
2.74601
2.75756
2.77442
2.80926
2.8341
2.85927
2.88656
2.9169
2.93622
2.94747
2.93974
2.77798
2.07334
1.4521
1.26645
1.07859
0.968191
0.936913
0.967091
0.991276
1.01894
1.03964
1.06178
1.07152
1.08055
1.08324
1.09342
1.10122
1.10862
1.11738
1.12359
1.12645
1.13069
1.12989
1.13049
1.1342
1.13154
1.12577
1.12647
1.11514
1.1082
1.1028
1.08653
1.06819
1.05274
1.02764
1.00647
0.965293
0.936292
0.89273
0.850886
0.812375
0.75365
0.696745
0.642954
0.589581
0.535448
0.491636
0.447966
0.422604
0.411419
0.409406
0.404338
0.421902
0.431383
0.446594
0.456479
0.466758
0.473648
0.476995
0.476727
0.474369
0.469563
0.462142
0.451762
0.438062
0.421068
0.401225
0.381573
0.366354
0.355514
0.348879
0.346423
0.348561
0.352579
0.358747
0.361844
0.366355
2.60176
2.60166
2.60191
2.60234
2.60301
2.60382
2.60492
2.60635
2.60788
2.60978
2.61218
2.61469
2.61745
2.62113
2.62479
2.62849
2.63345
2.63866
2.64362
2.6487
2.65595
2.66275
2.66896
2.67505
2.68308
2.69191
2.70047
2.71032
2.72305
2.73528
2.74645
2.75309
2.76339
2.77507
2.80961
2.83434
2.85647
2.87718
2.89752
2.92401
2.93673
2.91977
2.82164
1.54097
1.28288
1.26518
1.22053
1.08705
1.01132
0.954783
0.971743
0.995441
1.00274
1.03042
1.04324
1.05324
1.06125
1.07589
1.0819
1.09538
1.10445
1.1085
1.10936
1.11476
1.10938
1.10598
1.10878
1.09535
1.08523
1.08218
1.05456
1.03823
1.02247
0.991378
0.953802
0.919945
0.87952
0.83877
0.784404
0.735999
0.683713
0.633364
0.59132
0.541175
0.497901
0.458791
0.426539
0.403604
0.392905
0.390792
0.385078
0.392549
0.404449
0.417677
0.432616
0.441155
0.454291
0.46431
0.472434
0.477654
0.479333
0.478417
0.475808
0.471436
0.464721
0.454989
0.442152
0.425935
0.407225
0.389446
0.375979
0.366124
0.360096
0.357362
0.359178
0.362597
0.367881
0.370355
0.373876
2.60171
2.60163
2.60188
2.60229
2.60294
2.60378
2.60485
2.60625
2.60783
2.60965
2.61206
2.61461
2.61729
2.62102
2.62471
2.62837
2.63321
2.63874
2.64356
2.64843
2.65624
2.66352
2.66933
2.67521
2.68404
2.69508
2.70423
2.71244
2.72225
2.73673
2.74893
2.76044
2.76853
2.78171
2.80288
2.83119
2.85056
2.86324
2.87298
2.88119
2.87427
2.72495
2.38664
1.33808
1.22611
1.22842
1.22606
1.17832
1.12618
0.98426
0.958006
0.940989
0.958828
0.992808
1.00471
1.02534
1.03813
1.05831
1.06565
1.07572
1.08898
1.08584
1.08143
1.08786
1.07032
1.05898
1.05779
1.0253
1.00271
0.988676
0.940733
0.902778
0.866464
0.823601
0.768508
0.716489
0.667152
0.618402
0.571155
0.527429
0.487243
0.450934
0.426618
0.404925
0.387969
0.379498
0.377439
0.376935
0.370734
0.376985
0.389676
0.401601
0.415179
0.424932
0.439382
0.449296
0.460626
0.46964
0.47594
0.479541
0.480492
0.479318
0.477047
0.473053
0.466633
0.457543
0.44541
0.43038
0.413593
0.397814
0.385633
0.376568
0.370952
0.368197
0.36953
0.372127
0.376507
0.378539
0.381175
2.60166
2.60159
2.60184
2.60224
2.60288
2.60373
2.60475
2.60613
2.60776
2.60954
2.61188
2.61451
2.6172
2.62075
2.6246
2.62833
2.63301
2.6387
2.64356
2.64851
2.65627
2.66383
2.6698
2.67568
2.68453
2.69755
2.7068
2.71467
2.7226
2.73437
2.75161
2.76424
2.77542
2.78519
2.79766
2.82193
2.84015
2.85037
2.85761
2.85725
2.84454
2.65115
1.83033
1.18899
1.18838
1.20292
1.20493
1.19937
1.16126
1.06661
1.01692
0.929885
0.956105
0.955661
0.982675
1.01228
1.00959
1.0496
1.05047
1.04377
1.06667
1.04173
1.02623
1.03079
0.990487
0.962546
0.94657
0.894496
0.854956
0.817283
0.758664
0.70574
0.653567
0.610124
0.561846
0.517337
0.477276
0.445227
0.419163
0.399958
0.386383
0.375796
0.372633
0.369015
0.366287
0.362609
0.365899
0.375591
0.382373
0.38671
0.396424
0.407752
0.421932
0.432885
0.445295
0.45564
0.465675
0.473041
0.477684
0.480095
0.480757
0.480251
0.478468
0.474691
0.468678
0.460065
0.448908
0.435526
0.420658
0.406396
0.394964
0.386568
0.381618
0.378843
0.379639
0.381393
0.384827
0.386423
0.388329
2.60161
2.60153
2.60178
2.60218
2.60281
2.60366
2.60468
2.60601
2.60768
2.60944
2.61165
2.61436
2.61714
2.62039
2.62438
2.62834
2.63279
2.63839
2.6436
2.64888
2.65608
2.66374
2.67045
2.6764
2.68509
2.69883
2.70867
2.71681
2.72293
2.73179
2.75382
2.76761
2.77938
2.78981
2.79743
2.808
2.82603
2.84418
2.85701
2.86666
2.86169
2.75395
1.44795
1.1593
1.15772
1.17049
1.17482
1.17991
1.18253
1.15253
1.13314
1.01144
0.987194
0.943848
0.976683
0.985125
0.981309
1.03576
1.00522
0.989266
1.00979
0.956227
0.924736
0.905909
0.850453
0.80309
0.760246
0.705268
0.654327
0.603707
0.553993
0.512168
0.471935
0.445432
0.421666
0.403345
0.389698
0.378991
0.37157
0.367336
0.364982
0.361382
0.359377
0.362599
0.369387
0.373101
0.377227
0.380611
0.388643
0.394096
0.405042
0.414599
0.427845
0.438757
0.450593
0.460494
0.468798
0.4748
0.478284
0.480257
0.481039
0.481006
0.479593
0.476304
0.470821
0.462942
0.453109
0.441476
0.428258
0.415038
0.404096
0.396278
0.391914
0.389123
0.389476
0.390444
0.393059
0.394209
0.395549
2.60155
2.60148
2.60172
2.60213
2.60272
2.60359
2.60459
2.60588
2.60754
2.60934
2.61141
2.61414
2.61703
2.62006
2.62405
2.62828
2.63261
2.63777
2.64357
2.64925
2.65568
2.66338
2.67098
2.67766
2.6861
2.699
2.70967
2.7185
2.72387
2.7322
2.75244
2.76995
2.78184
2.79156
2.79915
2.80526
2.81313
2.83096
2.84326
2.85131
2.77627
2.54709
1.29927
1.15591
1.14832
1.15509
1.16019
1.17049
1.17899
1.18335
1.17098
1.11418
1.06438
0.995028
0.934716
0.954081
0.913772
0.979206
0.909491
0.888519
0.868228
0.808837
0.758029
0.710032
0.658283
0.608734
0.554708
0.513469
0.475191
0.444135
0.42184
0.405773
0.393086
0.385716
0.379807
0.374523
0.370184
0.366158
0.361088
0.360919
0.364876
0.36822
0.370144
0.369299
0.374466
0.37847
0.385306
0.389116
0.396722
0.402274
0.41237
0.42125
0.433285
0.444121
0.454931
0.463764
0.470831
0.475784
0.478884
0.480888
0.481817
0.482042
0.480903
0.477945
0.473006
0.46616
0.457711
0.447649
0.435611
0.423098
0.413153
0.405954
0.401881
0.398849
0.398929
0.3993
0.401071
0.401608
0.402372
2.6015
2.60142
2.60166
2.60207
2.60265
2.60348
2.60451
2.60573
2.60737
2.6092
2.61119
2.61391
2.61684
2.61982
2.62365
2.62809
2.6324
2.63709
2.64341
2.64952
2.65553
2.66244
2.67129
2.67934
2.68753
2.69782
2.7094
2.71951
2.72637
2.73538
2.75
2.77049
2.78326
2.79237
2.80135
2.80578
2.81145
2.81864
2.82508
2.81977
2.6535
2.08643
1.18145
1.13411
1.13335
1.13851
1.14798
1.1572
1.16494
1.17585
1.18102
1.15362
1.1098
1.05418
0.906616
0.872655
0.823913
0.825735
0.757503
0.714238
0.666322
0.61587
0.563325
0.518215
0.48195
0.451966
0.426347
0.409828
0.397391
0.387905
0.383909
0.379843
0.375846
0.373332
0.370334
0.369609
0.37031
0.372143
0.371531
0.369297
0.370565
0.372865
0.377762
0.379852
0.384581
0.38846
0.394011
0.397532
0.404569
0.409872
0.418966
0.427043
0.438045
0.448649
0.458516
0.46628
0.4722
0.476378
0.479372
0.481444
0.482644
0.483022
0.482122
0.479536
0.475333
0.46958
0.462358
0.45328
0.442263
0.430942
0.422089
0.415577
0.411434
0.408328
0.408124
0.408036
0.408945
0.408868
0.409192
2.60143
2.60136
2.60159
2.602
2.60255
2.60336
2.60441
2.6056
2.60717
2.60905
2.61101
2.61359
2.6166
2.61958
2.62322
2.62783
2.6321
2.63657
2.64316
2.64949
2.65528
2.66164
2.67141
2.68031
2.68867
2.69715
2.70812
2.72043
2.73071
2.73862
2.74944
2.76857
2.78372
2.79365
2.80229
2.81003
2.81388
2.8191
2.82457
2.81666
2.60958
1.71616
1.09057
1.11071
1.12381
1.13424
1.14231
1.14694
1.15306
1.15868
1.15636
1.13746
1.09115
1.0321
0.818925
0.7279
0.655825
0.624899
0.566364
0.532271
0.486971
0.459363
0.435641
0.416085
0.403632
0.394656
0.388403
0.383305
0.378906
0.376584
0.37399
0.376192
0.377171
0.379671
0.379007
0.377905
0.376123
0.377351
0.379428
0.380494
0.381918
0.383206
0.386679
0.389265
0.39358
0.397629
0.402918
0.406423
0.412939
0.417682
0.425792
0.433213
0.443047
0.452567
0.461146
0.467973
0.473342
0.477183
0.480205
0.482284
0.483589
0.484067
0.48343
0.481462
0.478213
0.473367
0.466903
0.458645
0.448805
0.438765
0.430812
0.424976
0.420873
0.417781
0.41711
0.416494
0.416488
0.415863
0.415443
2.60136
2.6013
2.6015
2.60191
2.60245
2.60324
2.60429
2.60545
2.60695
2.60884
2.61083
2.61322
2.61626
2.61936
2.62279
2.62737
2.63182
2.63635
2.64262
2.64923
2.65512
2.66135
2.67099
2.68078
2.68958
2.69668
2.70595
2.72183
2.73363
2.74386
2.75186
2.76273
2.7824
2.79712
2.80586
2.81542
2.82442
2.83269
2.85482
2.8609
2.75278
1.35899
1.10762
1.1072
1.116
1.12105
1.12653
1.12744
1.12562
1.12767
1.11438
1.0569
1.00068
0.861133
0.649916
0.538532
0.481643
0.456069
0.435272
0.420834
0.407669
0.3993
0.393131
0.387686
0.383216
0.381129
0.379097
0.3815
0.383822
0.385274
0.385923
0.384858
0.384297
0.384613
0.386021
0.386568
0.385936
0.386958
0.388968
0.390639
0.392199
0.394078
0.39701
0.400037
0.403575
0.407674
0.412329
0.415351
0.421111
0.424944
0.431817
0.438045
0.446938
0.4557
0.463988
0.47044
0.475245
0.478971
0.481779
0.483695
0.484779
0.485112
0.484578
0.483252
0.480828
0.477066
0.471634
0.464322
0.455523
0.446679
0.439445
0.43404
0.430031
0.42702
0.425861
0.424795
0.423824
0.422686
0.421859
2.60127
2.60121
2.60142
2.60181
2.60237
2.60311
2.60412
2.60532
2.60672
2.60858
2.61063
2.61285
2.61585
2.61906
2.62242
2.62663
2.63142
2.63619
2.64179
2.64867
2.65507
2.66152
2.67037
2.68077
2.68996
2.69673
2.70566
2.72121
2.73572
2.74723
2.75537
2.7641
2.77501
2.79865
2.81135
2.81976
2.82869
2.83299
2.8319
2.72055
2.36867
1.24435
1.11895
1.11181
1.11108
1.11174
1.11251
1.1063
1.09497
1.08955
1.05228
0.935091
0.837396
0.625853
0.473717
0.406894
0.393016
0.390737
0.39188
0.390308
0.387809
0.385746
0.384929
0.385244
0.388324
0.387951
0.389358
0.38777
0.390703
0.392673
0.395605
0.397064
0.396946
0.397191
0.39813
0.398974
0.398689
0.399115
0.400517
0.402268
0.40327
0.405193
0.40712
0.410267
0.412977
0.416842
0.420815
0.423256
0.428376
0.431546
0.437985
0.443854
0.452513
0.460489
0.467795
0.473408
0.477779
0.481362
0.483893
0.485632
0.486516
0.486775
0.486565
0.485961
0.484305
0.481344
0.476615
0.470486
0.462851
0.454932
0.448272
0.443157
0.439337
0.436417
0.434692
0.432872
0.430731
0.428965
0.427739
2.6012
2.60113
2.60133
2.60169
2.60226
2.60296
2.60394
2.60515
2.60648
2.60827
2.61036
2.61252
2.61534
2.61868
2.62198
2.62586
2.63088
2.63585
2.641
2.64761
2.65471
2.66159
2.66954
2.68007
2.68955
2.69796
2.70679
2.71972
2.7365
2.74904
2.76001
2.76628
2.77708
2.79244
2.81561
2.82556
2.8325
2.83263
2.81424
2.63152
1.79849
1.13732
1.11243
1.1118
1.10746
1.10389
1.10146
1.08807
1.0576
1.02661
0.953281
0.765094
0.612664
0.44443
0.382395
0.36917
0.378302
0.382626
0.387166
0.390684
0.392788
0.393744
0.395232
0.394297
0.397976
0.399023
0.402097
0.402232
0.405386
0.407505
0.410009
0.411662
0.411185
0.410093
0.409953
0.410366
0.410196
0.410089
0.410738
0.41242
0.412954
0.415308
0.416294
0.419606
0.422194
0.426309
0.430217
0.432521
0.437258
0.439833
0.445651
0.450036
0.457471
0.464631
0.47192
0.477473
0.482036
0.48533
0.487319
0.488177
0.488638
0.488793
0.488741
0.488484
0.487432
0.485304
0.481596
0.476731
0.470385
0.463361
0.457016
0.45208
0.448232
0.445421
0.443309
0.440834
0.437855
0.435543
0.434031
2.6011
2.60104
2.60123
2.60158
2.60214
2.6028
2.60375
2.60496
2.60625
2.60793
2.61004
2.6122
2.61481
2.61816
2.62149
2.6251
2.63026
2.63525
2.6402
2.64634
2.65417
2.66154
2.66893
2.67825
2.68909
2.69922
2.70747
2.71869
2.73599
2.7504
2.7627
2.77208
2.78027
2.79169
2.81477
2.83614
2.85072
2.85875
2.85561
2.70599
1.46292
1.09893
1.09853
1.09728
1.09409
1.09107
1.08845
1.05982
1.006
0.903264
0.78435
0.567169
0.431627
0.37832
0.365048
0.380955
0.388675
0.397718
0.403619
0.40763
0.410083
0.411267
0.413245
0.413067
0.415433
0.415217
0.417093
0.417004
0.419087
0.421087
0.423173
0.425496
0.425659
0.425285
0.425099
0.424988
0.425036
0.424653
0.424589
0.425533
0.42524
0.427138
0.427069
0.429825
0.431962
0.435703
0.439079
0.440913
0.445076
0.447296
0.453089
0.457311
0.464641
0.47099
0.476925
0.481666
0.485779
0.488777
0.490384
0.491174
0.491885
0.492735
0.49324
0.493218
0.492281
0.49038
0.487316
0.483097
0.477895
0.471401
0.46536
0.460934
0.457274
0.454524
0.452003
0.448585
0.444628
0.441834
0.440129
2.60101
2.60093
2.60114
2.60145
2.60199
2.60264
2.60353
2.60473
2.606
2.60757
2.60963
2.61183
2.61423
2.61753
2.6209
2.62446
2.62931
2.63442
2.63935
2.64516
2.65345
2.66098
2.66789
2.67618
2.68845
2.69929
2.70924
2.71891
2.73203
2.75123
2.76573
2.77878
2.7865
2.79758
2.81075
2.84243
2.87026
2.89665
2.8514
2.66396
1.29407
1.10313
1.09199
1.08529
1.0804
1.07516
1.05553
0.986927
0.914427
0.723361
0.560419
0.419689
0.378649
0.369234
0.38667
0.395971
0.40663
0.414764
0.420688
0.424947
0.427667
0.429354
0.430857
0.430744
0.431594
0.430388
0.431271
0.431453
0.433242
0.436133
0.438422
0.441542
0.442328
0.441175
0.441099
0.439742
0.438979
0.437899
0.437046
0.43711
0.43607
0.437357
0.436909
0.439372
0.441385
0.445326
0.448863
0.451149
0.455131
0.457375
0.462708
0.465439
0.471036
0.476339
0.482611
0.488021
0.492359
0.495054
0.495975
0.496199
0.496436
0.496441
0.496273
0.496289
0.495757
0.494634
0.492579
0.489278
0.484977
0.479301
0.473461
0.469104
0.465385
0.462536
0.459637
0.45562
0.451115
0.44856
0.446684
2.6009
2.60084
2.60102
2.60133
2.60184
2.60249
2.60331
2.60445
2.60574
2.60718
2.60918
2.61137
2.61368
2.61673
2.62024
2.62377
2.62806
2.63336
2.63852
2.64409
2.65202
2.65975
2.66693
2.67474
2.68697
2.69896
2.71033
2.71854
2.73014
2.74931
2.76798
2.78297
2.79664
2.80364
2.81636
2.82909
2.84683
2.83675
2.65406
2.09156
1.1424
1.0867
1.08012
1.07531
1.06255
1.05197
0.983106
0.863305
0.736153
0.529986
0.413746
0.377216
0.37739
0.392286
0.403533
0.414182
0.423102
0.43002
0.435082
0.438964
0.441716
0.443822
0.445262
0.445446
0.446215
0.445613
0.446429
0.446557
0.447626
0.449823
0.451771
0.454692
0.456612
0.455554
0.456526
0.456734
0.456342
0.454985
0.453257
0.452207
0.450523
0.450821
0.449731
0.451305
0.452244
0.455344
0.458097
0.460412
0.463822
0.465447
0.470441
0.473612
0.47925
0.483079
0.487809
0.492263
0.495968
0.498327
0.499391
0.499898
0.500588
0.501359
0.501834
0.502073
0.50174
0.50098
0.499412
0.496831
0.492664
0.487265
0.481398
0.477321
0.474222
0.471515
0.468226
0.463406
0.458426
0.45515
0.452548
2.60079
2.6007
2.60089
2.60118
2.60167
2.6023
2.60307
2.60415
2.60543
2.6068
2.60865
2.61086
2.61309
2.61587
2.6194
2.62293
2.62679
2.63212
2.63752
2.64297
2.64982
2.65814
2.66597
2.67384
2.68459
2.69796
2.70986
2.72006
2.73016
2.74493
2.76865
2.78764
2.80307
2.81547
2.82165
2.83096
2.84256
2.83142
2.6104
1.66724
1.04865
1.06821
1.06775
1.06006
1.0271
0.989846
0.852006
0.688152
0.520571
0.40983
0.377235
0.387372
0.396849
0.409906
0.420549
0.429955
0.437467
0.443241
0.447479
0.450854
0.453442
0.455539
0.457086
0.457599
0.458559
0.458599
0.459873
0.460417
0.461504
0.462877
0.464673
0.466911
0.469484
0.468861
0.470362
0.470533
0.470721
0.46995
0.467389
0.465007
0.462891
0.462253
0.46123
0.462436
0.462562
0.4657
0.46856
0.471397
0.47459
0.476008
0.480492
0.483093
0.487717
0.490314
0.494779
0.49953
0.503182
0.505692
0.507069
0.507325
0.50733
0.507227
0.506943
0.506731
0.505782
0.505588
0.504937
0.503389
0.499829
0.49484
0.48944
0.485475
0.482193
0.478997
0.474999
0.469637
0.464532
0.461268
0.458945
2.60066
2.60058
2.60076
2.60103
2.60146
2.6021
2.60281
2.60381
2.60508
2.60639
2.60807
2.61023
2.61244
2.61497
2.61844
2.6219
2.62553
2.63057
2.63608
2.64147
2.64747
2.65616
2.66456
2.67238
2.68182
2.69575
2.70832
2.72109
2.73048
2.74434
2.76595