/*--------------------------------*- C++ -*----------------------------------*\
| =========                 |                                                 |
| \\      /  F ield         | OpenFOAM: The Open Source CFD Toolbox           |
|  \\    /   O peration     | Version:  2.2.x                                 |
|   \\  /    A nd           | Web:      www.OpenFOAM.org                      |
|    \\/     M anipulation  |                                                 |
\*---------------------------------------------------------------------------*/
FoamFile
{
    version     2.0;
    format      ascii;
    class       volScalarField;
    location    "1.8";
    object      pB;
}
// * * * * * * * * * * * * * * * * * * * * * * * * * * * * * * * * * * * * * //

dimensions      [1 1 -3 0 0 -1 0];

internalField   nonuniform List<scalar> 
14161
(
-0.000108671
4.25024e-06
-9.96217e-06
-1.51233e-05
-2.11893e-05
-2.78336e-05
-3.73265e-05
-4.33734e-05
-5.19342e-05
-6.55811e-05
-7.46968e-05
-8.40016e-05
-0.000104876
-0.000113109
-0.000122454
-0.000158858
-0.000149144
-0.000168002
-0.0002064
-0.000172228
-0.000149929
-0.000239002
-0.000195141
-0.000118575
-0.000114848
-0.000106749
-4.44847e-05
-1.19133e-05
7.67305e-05
0.000178994
0.000307835
0.000483101
0.00069335
0.000969488
0.00130503
0.00160399
0.00196547
0.00238404
0.00282007
0.00300583
0.00342414
0.00369054
0.00228712
-0.00384192
5.10331e-05
-0.000276493
0.00143024
0.00191194
0.00160398
0.00154755
0.00201031
0.00120365
0.00121707
0.00137499
0.00129655
0.00126423
0.000876495
0.00120769
0.00126225
0.000785427
0.000458766
0.000402367
0.000633862
0.000784934
0.00058684
-3.04197e-05
-0.000466099
-0.000157022
0.000200409
4.1004e-05
5.54228e-05
-0.000263957
-0.000802054
-0.0007121
-0.000399919
-0.000651833
-0.000784594
-0.000763207
-0.000928057
-0.00115413
-0.000819123
-0.000760386
-0.00104838
-0.00109447
-0.00120475
-0.00143295
-0.00137493
-0.00123438
-0.00122176
-0.00152687
-0.0014238
-0.00189668
-0.00149046
-0.00198242
-0.00186012
-0.00182179
-0.00252306
-0.00269027
-0.00277793
-0.00295674
-0.00279081
-0.00375429
-0.00369332
-0.00397617
-0.00503091
-0.00631056
-0.00872306
-0.014309
-0.0208361
-0.0307875
-0.0268901
-0.0156861
-0.011949
-0.0083007
-0.00672736
-0.00365445
-0.0114144
0.00439177
-0.0775273
-0.000108844
4.31344e-06
-9.98014e-06
-1.51012e-05
-2.11445e-05
-2.81211e-05
-3.67937e-05
-4.39141e-05
-5.20245e-05
-6.5461e-05
-7.49684e-05
-8.45506e-05
-0.000102503
-0.000113584
-0.000127076
-0.000149595
-0.000152387
-0.000180094
-0.000189804
-0.000170264
-0.000181401
-0.000217127
-0.000184285
-0.000139179
-0.000110668
-0.000104897
-4.49518e-05
-1.15376e-05
7.63156e-05
0.000177611
0.000306028
0.000481004
0.000691556
0.000966802
0.00128722
0.00160287
0.00197203
0.00236617
0.00287223
0.00324492
0.00381349
0.00407921
0.0034601
-0.00450266
0.000878683
-0.000264781
0.00105699
0.00164168
0.00134437
0.00111282
0.00196606
0.00113219
0.000951907
0.00100614
0.00084694
-1.47189e-05
9.59593e-06
-0.000256166
0.000114318
-3.24916e-05
-0.000903587
-0.000878796
-0.000597683
-0.000573655
-0.000321166
-0.000542767
-0.00117231
-0.00117077
-0.000757825
-0.000875857
-0.000934575
-0.00103136
-0.00149543
-0.00166201
-0.00128617
-0.00141988
-0.00150911
-0.00136674
-0.00146545
-0.00165298
-0.0013851
-0.001272
-0.00155259
-0.0019908
-0.0024179
-0.00248408
-0.00233618
-0.00192025
-0.00179201
-0.00209269
-0.00214056
-0.00274652
-0.0028742
-0.00334892
-0.00329531
-0.00309845
-0.00349129
-0.00366652
-0.00374757
-0.00383115
-0.0040055
-0.00496446
-0.00489906
-0.00501306
-0.00507514
-0.00552659
-0.00479948
-0.00258729
-0.000537806
0.00542649
0.00549827
0.00170428
0.000603349
0.00137915
0.00158906
0.0041729
-0.00597182
0.0101836
-0.0545184
-0.000108658
4.19033e-06
-1.00639e-05
-1.50572e-05
-2.13203e-05
-2.80773e-05
-3.65647e-05
-4.41592e-05
-5.21531e-05
-6.4888e-05
-7.53896e-05
-8.48988e-05
-0.000101329
-0.00011492
-0.000128353
-0.000145324
-0.000154959
-0.000178837
-0.000182936
-0.000179797
-0.000196159
-0.000205207
-0.000178509
-0.000155849
-0.000102907
-0.000106089
-6.00247e-05
-2.69531e-05
5.84187e-05
0.00016111
0.000290875
0.000449921
0.000663916
0.000919497
0.0012171
0.00155468
0.00194329
0.0022937
0.00275096
0.00315809
0.00363991
0.00317402
0.00314991
-0.00690116
0.00182536
0.000537007
0.00216042
0.00202324
0.00154349
0.00107724
0.00230184
0.000712768
0.00114833
0.000685209
0.00113806
0.000690746
0.000744659
0.000720156
0.000308931
0.000454913
0.00011343
-0.000175732
-0.000118459
-0.000496785
-0.00065227
-0.000369153
-0.000579456
-0.000705827
-0.000760226
-0.00112347
-0.00121295
-0.000950073
-0.000976027
-0.00111443
-0.000975046
-0.00120387
-0.00144263
-0.00139236
-0.00150841
-0.00168579
-0.00170256
-0.00174211
-0.0015962
-0.0013736
-0.00159977
-0.00157738
-0.00175173
-0.00195597
-0.00224051
-0.00206684
-0.00187663
-0.0021398
-0.00173563
-0.00234483
-0.00248682
-0.00260894
-0.00283351
-0.00269693
-0.00316246
-0.00365056
-0.00384961
-0.00421954
-0.00400649
-0.00433589
-0.00529714
-0.00577215
-0.00924235
-0.011178
-0.0079879
-0.0086385
0.0012958
0.00461388
0.00277257
0.00233665
0.00137506
0.00182655
-0.00636202
0.00657173
-0.0445188
-0.000108487
4.26399e-06
-1.00601e-05
-1.48655e-05
-2.15359e-05
-2.82291e-05
-3.59281e-05
-4.45031e-05
-5.27528e-05
-6.35148e-05
-7.60668e-05
-8.59779e-05
-9.79631e-05
-0.000117307
-0.000131596
-0.00013747
-0.000164813
-0.000180982
-0.000170005
-0.000192887
-0.000195295
-0.00019192
-0.000175377
-0.000172685
-0.000107439
-0.000106024
-7.01796e-05
-3.68261e-05
4.59146e-05
0.000141138
0.000271983
0.00041525
0.000615861
0.000853502
0.00113897
0.00149164
0.00189559
0.00222568
0.00269256
0.0031667
0.00376388
0.00287652
0.00323648
-0.00795203
0.00197508
0.00105216
0.00263729
0.00195881
0.00181801
0.000979434
0.00219797
0.00106811
0.000847488
0.000685942
0.000310943
0.000761212
0.000265931
0.000274083
0.000129212
-0.000155244
0.000361247
-9.93385e-07
-0.000354127
-0.00035944
-0.000584456
-0.000498343
-0.000182486
-0.000432961
-0.000755683
-0.00102851
-0.00103126
-0.00101799
-0.000819926
-0.00104499
-0.00126064
-0.00126251
-0.00148744
-0.00163965
-0.00147891
-0.00146972
-0.00155599
-0.00171992
-0.00169156
-0.00139322
-0.00163606
-0.00162388
-0.0017112
-0.00197133
-0.00231261
-0.00209108
-0.00197836
-0.00225018
-0.00172875
-0.00226762
-0.00269875
-0.00317977
-0.00281649
-0.00260994
-0.00307144
-0.00348326
-0.00360158
-0.00377692
-0.00469496
-0.00424258
-0.00550886
-0.00787605
-0.00789556
-0.00615556
-0.0042914
-0.000958005
0.0015155
0.00333418
0.00123926
0.00205518
0.000873226
0.00135156
-0.00513773
0.00424573
-0.0342582
-0.00010821
4.19076e-06
-1.01168e-05
-1.4744e-05
-2.17137e-05
-2.80908e-05
-3.54889e-05
-4.48391e-05
-5.2977e-05
-6.2542e-05
-7.6518e-05
-8.73108e-05
-9.50824e-05
-0.00011881
-0.000135317
-0.000130135
-0.000170421
-0.00018408
-0.00015964
-0.000201209
-0.000211731
-0.000184176
-0.000181525
-0.000187244
-0.000135169
-0.000104053
-8.4084e-05
-5.75463e-05
1.98781e-05
0.000109068
0.000225759
0.000365137
0.000533993
0.00074036
0.00100612
0.00137921
0.00175437
0.00213675
0.00260746
0.00314015
0.00389743
0.00314735
0.00404109
-0.0095161
0.00335128
0.00162806
0.00319517
0.00219415
0.00189105
0.00078975
0.00178943
0.00101064
0.000900914
0.000565442
0.000691805
0.000476708
0.000471572
5.70996e-05
0.000155289
0.000251401
8.5636e-05
0.000127725
-0.000347387
-0.000448303
-0.000274441
-0.000441807
-0.000356742
-0.000262583
-0.000576796
-0.00100385
-0.000968548
-0.00077456
-0.000801579
-0.000853181
-0.00120281
-0.00140776
-0.00137783
-0.00137674
-0.00124729
-0.00123454
-0.00147305
-0.00183597
-0.00171829
-0.00145321
-0.00133169
-0.00145979
-0.00142978
-0.00182696
-0.00215889
-0.0019469
-0.00203517
-0.0021683
-0.00188001
-0.00229343
-0.00255927
-0.00271992
-0.00275938
-0.00266063
-0.00286139
-0.0028823
-0.00370397
-0.00349297
-0.00454729
-0.00472603
-0.00702258
-0.0064849
-0.00456202
-0.00360189
-0.00337956
-0.000971939
0.00293425
0.00282131
0.00144353
0.00171485
0.000195459
0.000371663
-0.00397285
0.00245687
-0.0263375
-0.000107928
4.15514e-06
-1.01519e-05
-1.46853e-05
-2.1762e-05
-2.82394e-05
-3.51183e-05
-4.49903e-05
-5.36444e-05
-6.1649e-05
-7.67645e-05
-8.80182e-05
-9.39061e-05
-0.000119979
-0.000135477
-0.000128593
-0.000174726
-0.000182579
-0.00015888
-0.000207994
-0.000214017
-0.00017886
-0.000179766
-0.000195516
-0.000166075
-0.000106017
-9.99986e-05
-7.5717e-05
-1.91611e-05
7.22951e-05
0.000168483
0.000296328
0.000444268
0.000623678
0.000844667
0.00117711
0.00157207
0.00202949
0.00248986
0.0030516
0.00378766
0.00327063
0.00455054
-0.0106997
0.00461634
0.00100873
0.00344882
0.00233703
0.00233382
0.00095362
0.00165262
0.00114302
0.000669143
0.000737089
0.000553791
0.000604113
0.000138073
-5.40326e-05
-9.8327e-06
0.000201063
0.000161046
-0.000144679
-0.000225655
1.72614e-05
-0.000295832
-0.00036689
-0.000531381
-0.000394347
-0.000370283
-0.000528054
-0.000728142
-0.000825685
-0.000677389
-0.000877368
-0.00109785
-0.00122514
-0.0012756
-0.00120935
-0.00120831
-0.00109237
-0.00125292
-0.00153764
-0.00149411
-0.00143575
-0.00144204
-0.00153094
-0.00161118
-0.00167156
-0.00191681
-0.00194795
-0.00201638
-0.00163504
-0.00201574
-0.00223902
-0.0027193
-0.00216768
-0.00220371
-0.0022878
-0.00286813
-0.00345073
-0.00354941
-0.00315459
-0.00613096
-0.0058222
-0.00598604
-0.00423403
-0.0037916
-0.0034224
-0.00262872
0.0011074
0.00195132
0.00171561
0.000810659
0.000956626
-0.000136982
-0.000272867
-0.00329397
0.00144495
-0.0205172
-0.000107532
4.09406e-06
-1.01564e-05
-1.4724e-05
-2.17185e-05
-2.83854e-05
-3.4844e-05
-4.48248e-05
-5.3979e-05
-6.14491e-05
-7.63194e-05
-8.82834e-05
-9.50272e-05
-0.000118948
-0.000133942
-0.000132729
-0.000169709
-0.000182423
-0.000166256
-0.00020431
-0.000215984
-0.000190603
-0.000179586
-0.000205018
-0.00019272
-0.000141142
-0.000105484
-9.93168e-05
-7.39298e-05
-2.28311e-06
9.1657e-05
0.000193661
0.000329049
0.00048704
0.000660621
0.000875897
0.00121921
0.00175874
0.00227711
0.00292081
0.00349006
0.00349875
0.00493453
-0.010599
0.00579845
0.00110978
0.00347454
0.00233703
0.00255228
0.000966478
0.0010424
0.00105957
0.000650118
0.000466751
0.000767005
0.000276837
0.000102243
-2.43456e-05
-0.000270919
-0.000285791
-0.000540982
-0.000728114
-0.000356922
-0.000346328
-0.000561095
-0.00040348
-0.000526463
-0.000924516
-0.000741641
-0.000647177
-0.000962064
-0.0011092
-0.0011192
-0.00118806
-0.000939303
-0.000854004
-0.00109365
-0.00141349
-0.00143661
-0.00146146
-0.00143458
-0.00151135
-0.00148087
-0.00161678
-0.00178621
-0.00185493
-0.00184501
-0.0017543
-0.00178638
-0.00187964
-0.00214635
-0.00208284
-0.00236737
-0.00182949
-0.00139599
-0.00188266
-0.00243912
-0.00315435
-0.00321704
-0.00316422
-0.00295148
-0.00532834
-0.00701277
-0.003886
-0.00443038
-0.00418868
-0.00356025
-0.00267506
-0.00100353
0.0011373
0.00106259
0.000941994
0.000282174
0.000307007
-0.000541052
-0.000862308
-0.00298307
0.000865472
-0.01658
-0.000107127
4.03511e-06
-1.01618e-05
-1.47887e-05
-2.14488e-05
-2.86297e-05
-3.47396e-05
-4.44517e-05
-5.45219e-05
-6.15288e-05
-7.51876e-05
-8.84139e-05
-9.81432e-05
-0.000115814
-0.000131682
-0.000141131
-0.00016327
-0.000176993
-0.000180912
-0.000195438
-0.000223419
-0.000206407
-0.00016604
-0.000212749
-0.000211338
-0.000185122
-0.000133502
-9.94353e-05
-0.000111185
-7.19604e-05
-3.16349e-05
7.94485e-05
0.000181515
0.000301772
0.000440347
0.000571492
0.000752709
0.00122924
0.00179053
0.0025921
0.00317221
0.00372282
0.00543542
-0.00704004
0.00735651
0.00223335
0.00426212
0.00284131
0.00281311
0.00137936
0.00116845
0.00114229
0.000760757
0.000941481
0.000544368
0.000299819
0.000155142
3.89538e-06
0.000203914
-6.33238e-05
-0.000422719
-0.000290355
-0.000657606
-0.000838757
-0.000500491
-0.000628924
-0.000939744
-0.000692513
-0.000675075
-0.0010099
-0.00104691
-0.00111355
-0.00128768
-0.00136202
-0.00122928
-0.0011222
-0.00127495
-0.00119905
-0.00124044
-0.00138838
-0.00148147
-0.00158918
-0.00175937
-0.00167867
-0.00153111
-0.00145008
-0.00160223
-0.00181599
-0.0020519
-0.00176324
-0.0014055
-0.00120197
-0.00165494
-0.00176997
-0.00182642
-0.00290971
-0.00333925
-0.00226741
-0.00170928
-0.00432582
-0.00341336
-0.0053925
-0.00159392
-0.00253693
-0.00396604
-0.00368063
-0.00335328
-0.00121243
-0.000355676
-7.3926e-05
0.000231134
1.99725e-06
-0.000272668
-0.000520989
-0.000748933
-0.00124305
-0.0027634
0.000613873
-0.0138998
-0.000106599
3.97756e-06
-1.01391e-05
-1.48795e-05
-2.12083e-05
-2.87408e-05
-3.4787e-05
-4.39818e-05
-5.4735e-05
-6.19818e-05
-7.3641e-05
-8.87292e-05
-9.9501e-05
-0.000112429
-0.000130584
-0.000147897
-0.000158882
-0.000175059
-0.000192484
-0.000192482
-0.000222642
-0.000217629
-0.000176297
-0.000214032
-0.000242639
-0.000219605
-0.000168881
-0.000131712
-0.000137487
-0.000181955
-0.000144799
-9.90359e-05
3.87614e-06
6.12088e-05
0.000151428
0.000241559
0.000310136
0.000461504
0.00078863
0.00146684
0.00218188
0.00332402
0.0050039
0.00185814
0.005197
0.00437931
0.00523489
0.00420123
0.00261666
0.00119657
0.00056702
0.000143009
0.000634893
0.000490773
0.00132965
0.000315712
0.000508234
0.000436682
-0.00027351
-5.72818e-05
-0.000109577
-0.00052033
-0.000338067
-0.000517792
-0.000986835
-0.000816437
-0.000823714
-0.00119718
-0.0010603
-0.000844221
-0.00116522
-0.00128624
-0.00113955
-0.00120164
-0.00137153
-0.0012351
-0.00110648
-0.00143484
-0.00148783
-0.0013562
-0.00149731
-0.00163043
-0.00130777
-0.00145974
-0.00150457
-0.00140738
-0.00171
-0.00130888
-0.00122614
-0.00106431
-0.00142316
-0.00134608
-0.00269142
-0.00302888
-0.00312067
-0.0014168
-0.00142751
-0.00151369
-0.00404327
-0.00511705
-0.00325126
-0.00324943
-0.00341529
-0.00263268
-0.00362412
-0.00353656
-0.00187492
-0.000815501
-0.00148103
-0.000435016
-0.000472185
-0.000510849
-0.000694054
-0.00115405
-0.00105613
-0.00148726
-0.00254728
0.000384771
-0.0119265
-0.000106055
3.90297e-06
-1.01093e-05
-1.49825e-05
-2.10937e-05
-2.86103e-05
-3.507e-05
-4.34121e-05
-5.47142e-05
-6.28531e-05
-7.1893e-05
-8.89758e-05
-0.000102753
-0.000109178
-0.000129547
-0.0001547
-0.000155163
-0.000170727
-0.000202036
-0.000200171
-0.000210015
-0.000212044
-0.00021245
-0.00022012
-0.000254843
-0.000238175
-0.000223556
-0.000206228
-0.00021215
-0.0002098
-0.000266383
-0.000273325
-0.000257082
-0.000202769
-0.000192302
-0.000202744
-0.000249236
-0.000399226
-0.00043702
-0.000215383
0.000187692
0.00141598
0.0019825
0.00927809
0.00263602
0.00454869
0.00597953
0.00477501
0.00253594
0.00102061
0.00125494
0.00146832
0.000545156
0.000652048
0.000318133
0.000282468
6.76826e-06
-0.000656995
-0.000484674
-0.000646305
-0.000805473
-0.000928097
-0.000730019
-0.0005072
-0.000791848
-0.000925345
-0.000881412
-0.00102459
-0.0012261
-0.00101163
-0.00086588
-0.00108174
-0.00113702
-0.00114392
-0.00115841
-0.00126624
-0.00103697
-0.00103937
-0.0013325
-0.00131911
-0.00133075
-0.00148212
-0.00153769
-0.00136804
-0.00141198
-0.00120277
-0.00102316
-0.00137872
-0.0018314
-0.00282977
-0.00248673
-0.00211655
-0.00121751
-0.00116439
-0.00143538
-0.00120003
-0.00373547
-0.00119375
-0.00411247
0.00109894
-0.00116727
-0.00365204
-0.00260196
-0.00306138
-0.00346537
-0.00267928
-0.00128473
-0.00228928
-0.00138624
-0.00115324
-0.000921488
-0.000908061
-0.000950677
-0.00160488
-0.00105464
-0.00140485
-0.00210083
0.00035636
-0.0101658
-0.000105396
3.83056e-06
-1.00671e-05
-1.50784e-05
-2.10072e-05
-2.82985e-05
-3.56086e-05
-4.27776e-05
-5.44507e-05
-6.3996e-05
-7.06747e-05
-8.87795e-05
-0.000105382
-0.000106435
-0.000128038
-0.000158921
-0.000155431
-0.000163893
-0.000211822
-0.000214068
-0.000205062
-0.000220626
-0.0002556
-0.000243778
-0.000242032
-0.000257691
-0.000269614
-0.000280454
-0.000290874
-0.000276398
-0.000317094
-0.000445558
-0.000516845
-0.000529504
-0.000607216
-0.00074323
-0.000910048
-0.00120692
-0.00166163
-0.00209627
-0.00266767
-0.00163783
-0.00340261
0.026058
0.00141932
0.00794574
0.00838201
0.00761092
0.00468019
0.00240113
0.00168439
0.00132709
0.00107606
0.000600039
-0.000517657
-0.000466625
-0.000582263
-0.000798244
-0.000859238
-0.000760526
-0.000863151
-0.00079725
-0.000917302
-0.000996175
-0.00099696
-0.000928911
-0.000788796
-0.000796079
-0.000928555
-0.00104165
-0.000778192
-0.000818618
-0.0010377
-0.00101297
-0.00104989
-0.00114557
-0.0011719
-0.00107875
-0.00129236
-0.0012164
-0.00111417
-0.00111032
-0.00115737
-0.00146612
-0.00207354
-0.00176154
-0.00174158
-0.00233713
-0.00142165
-0.0011597
-0.00117309
-0.00142765
-0.00113293
-0.00198264
-0.00176659
-0.00229372
-0.00238942
-0.00045256
-0.0023858
-0.00226483
-0.00214976
-0.00268871
-0.00287204
-0.00301753
-0.00289698
-0.00156063
-0.00239989
-0.00176879
-0.00161137
-0.00111914
-0.000919232
-0.000907777
-0.000944384
-0.00162969
-0.000950975
-0.00129032
-0.00173995
0.000252015
-0.00876271
-0.000104676
3.7522e-06
-1.00114e-05
-1.51178e-05
-2.0974e-05
-2.78786e-05
-3.61015e-05
-4.25061e-05
-5.37233e-05
-6.48686e-05
-7.05093e-05
-8.7837e-05
-0.000106413
-0.000107363
-0.000126461
-0.000160753
-0.000160489
-0.000158345
-0.000215687
-0.000225407
-0.000198092
-0.000202036
-0.000289443
-0.000276931
-0.000241902
-0.000254688
-0.000328267
-0.000375584
-0.00035959
-0.000370738
-0.00041057
-0.00051959
-0.000696354
-0.000836119
-0.000975827
-0.00124104
-0.00157282
-0.0020842
-0.0029553
-0.00442071
-0.00734292
-0.0112009
-0.0153889
0.000979931
0.00769578
0.0220213
0.0070044
0.00264081
0.00328483
0.00093322
0.000706108
-0.000544297
-0.000940471
1.08285e-05
-0.000823177
-0.000678651
-0.000849152
-0.000994167
-0.00110407
-0.00126611
-0.000980207
-0.00093792
-0.000900949
-0.000959424
-0.00100652
-0.000929796
-0.000918002
-0.000778071
-0.000816938
-0.000908785
-0.000885029
-0.000865018
-0.0009884
-0.000967435
-0.000933276
-0.000980628
-0.000923377
-0.000986703
-0.00098147
-0.00121464
-0.00136328
-0.00183075
-0.00155226
-0.0011142
-0.00140409
-0.00135737
-0.00111895
-0.00154397
-0.00115357
-0.00132693
-0.00151509
-0.00112382
-0.00167326
-0.000523965
-0.0013126
-0.00287929
0.000696982
-0.000242159
-0.00243626
-0.00156538
-0.00248611
-0.00249436
-0.00271084
-0.00277898
-0.00226169
-0.00209183
-0.00218317
-0.0017382
-0.00168063
-0.000886655
-0.000875603
-0.000861291
-0.000950782
-0.00150745
-0.000854743
-0.0011925
-0.00144543
0.000100582
-0.00746456
-0.000103888
3.66444e-06
-9.97787e-06
-1.51107e-05
-2.09477e-05
-2.76795e-05
-3.61205e-05
-4.27371e-05
-5.27105e-05
-6.48101e-05
-7.18422e-05
-8.619e-05
-0.000104692
-0.000110788
-0.000126748
-0.000157749
-0.000165224
-0.000161031
-0.000211933
-0.000230497
-0.000202947
-0.000210223
-0.000307266
-0.000299951
-0.000254933
-0.000237819
-0.000373334
-0.000444528
-0.000446075
-0.000444379
-0.000483269
-0.000590026
-0.000818414
-0.00106012
-0.00119975
-0.00150394
-0.00189161
-0.00240439
-0.00298442
-0.0038389
-0.00474353
-0.00449534
0.000750324
0.0164314
0.0228924
0.0365372
-0.00232688
-0.000887655
-0.00713569
-0.00482192
-0.00306419
-0.00182055
-0.000991971
-0.000649929
-0.00117811
-0.00156156
-0.00157077
-0.00137694
-0.00120516
-0.00106687
-0.000906917
-0.00101637
-0.000940065
-0.000729369
-0.000825813
-0.00089118
-0.000888248
-0.000760064
-0.000740361
-0.000716599
-0.000789844
-0.000700868
-0.000811904
-0.000797041
-0.000876788
-0.0013437
-0.00142201
-0.0013748
-0.00134831
-0.00156152
-0.0012203
-0.00129934
-0.00140096
-0.000956503
-0.00147322
-0.00114637
-0.00114234
-0.00110276
-0.00128892
-0.00123475
-0.000182404
0.000461501
-0.00282938
0.00106243
0.00147615
-0.000457141
-0.0016727
-0.00054767
-0.0019871
-0.0021196
-0.00211472
-0.00238471
-0.00246998
-0.00270092
-0.00171675
-0.00222167
-0.00185196
-0.00169437
-0.00129057
-0.000839508
-0.000823845
-0.000794693
-0.000907163
-0.00129388
-0.00078376
-0.00113626
-0.00124988
-0.000160834
-0.00643619
-0.000102996
3.5884e-06
-9.96933e-06
-1.50288e-05
-2.10204e-05
-2.74229e-05
-3.59101e-05
-4.32535e-05
-5.19092e-05
-6.39953e-05
-7.37883e-05
-8.53298e-05
-0.000102051
-0.000113997
-0.000127689
-0.000151716
-0.000165249
-0.00017373
-0.000209449
-0.000225834
-0.000219482
-0.000229434
-0.000295908
-0.000309747
-0.000295817
-0.000275981
-0.000360338
-0.000481315
-0.000525997
-0.000538908
-0.000563678
-0.000650568
-0.000849503
-0.00116741
-0.00136606
-0.00160929
-0.00193939
-0.00261532
-0.00320375
-0.00450137
-0.00564841
-0.0077712
-0.0102424
0.0117247
0.0288216
-0.0029156
0.00132566
-0.0019604
0.000123151
-0.000678611
-0.00157147
-0.00234048
-0.00283646
-0.00273163
-0.00162105
-0.00161744
-0.00138483
-0.00107504
-0.000946482
-0.000819705
-0.000825747
-0.00070165
-0.000850556
-0.000824843
-0.000750587
-0.000800399
-0.000788041
-0.000705331
-0.000777323
-0.000911585
-0.000929692
-0.00116953
-0.0010968
-0.00131907
-0.00111105
-0.00115514
-0.00130908
-0.00111732
-0.000987936
-0.00149789
-0.0011344
-0.00125586
-0.00135155
-0.000674205
-0.00153629
-0.000699244
-0.000474879
0.00067442
0.000506285
-0.000963819
-0.00166254
0.00240031
0.000591243
-0.00113501
0.000144313
-0.000488764
-0.00106717
-0.00148393
-0.00153579
-0.0018155
-0.00207311
-0.00217517
-0.00235772
-0.00170192
-0.00207507
-0.00181277
-0.00172488
-0.00136217
-0.00114286
-0.000820886
-0.000789338
-0.000752435
-0.000805271
-0.00107777
-0.000770178
-0.00100948
-0.00103236
-0.00037804
-0.00545276
-0.000102036
3.50004e-06
-9.97827e-06
-1.48142e-05
-2.12359e-05
-2.7085e-05
-3.55424e-05
-4.38204e-05
-5.1144e-05
-6.31106e-05
-7.55847e-05
-8.41974e-05
-9.97865e-05
-0.00011767
-0.000128405
-0.000146289
-0.000167149
-0.000183032
-0.000201237
-0.000220913
-0.000235158
-0.000259071
-0.00028061
-0.000311059
-0.00033435
-0.000351947
-0.000361619
-0.000461413
-0.000564079
-0.000610179
-0.000649032
-0.000704886
-0.000840102
-0.00111695
-0.00141692
-0.00158894
-0.00178633
-0.00208276
-0.00237689
-0.00238135
-0.00114287
0.00162618
0.00996384
0.030764
0.00302495
-0.00649175
-0.00803069
-0.00352925
-0.00565968
-0.0044914
-0.00417093
-0.00325282
-0.00313372
-0.00248008
-0.00175163
-0.00167391
-0.00183386
-0.00124257
-0.00120162
-0.000791459
-0.000975142
-0.00100862
-0.00107601
-0.00114672
-0.000960033
-0.000903632
-0.000988325
-0.000801153
-0.00102655
-0.00122706
-0.00103763
-0.00138154
-0.00121369
-0.00140748
-0.0012228
-0.000977696
-0.00109591
-0.0007388
-0.00117163
-0.000995173
-0.000952161
-0.00124133
-0.00030821
0.00102317
0.000185994
0.00040163
-0.00165881
0.0005791
0.00240623
0.00245401
-8.82222e-05
-0.000526251
0.000456293
7.34022e-05
-0.00016211
-0.000947244
-0.00100253
-0.00119685
-0.00153981
-0.00168912
-0.00182978
-0.00181989
-0.00206647
-0.0016554
-0.0017347
-0.00156976
-0.0014878
-0.0011417
-0.00111327
-0.000741239
-0.000719965
-0.00062828
-0.000674129
-0.000973612
-0.000748351
-0.000926422
-0.000895684
-0.000571936
-0.00457403
-0.000100972
3.40762e-06
-1.00014e-05
-1.45686e-05
-2.1348e-05
-2.69199e-05
-3.50323e-05
-4.4193e-05
-5.05859e-05
-6.23891e-05
-7.67459e-05
-8.32276e-05
-9.76967e-05
-0.000120177
-0.000130056
-0.000141392
-0.000168534
-0.00019356
-0.000199322
-0.000213653
-0.00025733
-0.000283487
-0.000275917
-0.000305784
-0.00035948
-0.000403768
-0.000410013
-0.000445671
-0.000564665
-0.000644577
-0.000686663
-0.000779156
-0.00084523
-0.000998287
-0.00131574
-0.00145422
-0.00158552
-0.00169684
-0.0019151
-0.00184118
-0.00233971
-0.00267425
0.0126809
0.0195577
-0.000926937
0.000185801
0.000150384
-0.00132329
0.00091507
-0.00139866
-0.000390494
-0.00219534
-0.00211997
-0.00187452
-0.00198861
-0.0018561
-0.00142097
-0.00116385
-0.000955042
-0.000652308
-0.00102594
-0.00096866
-0.00114042
-0.00125399
-0.000999334
-0.00130223
-0.00159122
-0.00118685
-0.00152064
-0.00153808
-0.00130522
-0.00161238
-0.00106365
-0.00146246
-0.000875081
-0.000962826
-0.000705261
-0.000226246
0.000435105
0.00128359
0.00034263
-0.00122424
-0.0010927
0.00179563
0.00087081
0.00245566
0.00173373
0.000168575
0.00129934
0.00114229
0.000457725
0.000468544
0.000327065
-0.000396555
-0.000298809
-0.00043681
-0.00102267
-0.00113184
-0.00138998
-0.00153009
-0.00161657
-0.00161389
-0.00157694
-0.00153046
-0.00145572
-0.00135031
-0.00124856
-0.0010266
-0.0010264
-0.000682485
-0.000699083
-0.000520207
-0.000673165
-0.000883822
-0.000720293
-0.000880564
-0.000750079
-0.000667411
-0.00376306
-9.98133e-05
3.31357e-06
-1.00196e-05
-1.4392e-05
-2.12674e-05
-2.69299e-05
-3.44836e-05
-4.41267e-05
-5.06666e-05
-6.13596e-05
-7.68339e-05
-8.38226e-05
-9.58008e-05
-0.000121274
-0.000132835
-0.000137519
-0.000169842
-0.000201901
-0.000199988
-0.000206044
-0.000270924
-0.000297991
-0.000283274
-0.000299799
-0.000379081
-0.000437943
-0.00044676
-0.000457592
-0.000553409
-0.000654177
-0.000701254
-0.000793532
-0.000895704
-0.000942251
-0.00112003
-0.00130479
-0.00126845
-0.00116975
-0.000875006
-0.000506
0.000787907
0.00215235
0.0267813
0.00727522
0.000659301
-0.0013691
-0.0014474
-0.000974607
0.000359477
0.000533076
-0.00130741
-0.00169004
-0.00248096
-0.00205154
-0.00143091
-0.00138452
-0.0012526
-0.00126534
-0.00129415
-0.00169945
-0.00185881
-0.00140253
-0.0014982
-0.00152376
-0.00138518
-0.00172982
-0.00147721
-0.0017403
-0.001808
-0.000746626
-0.001989
-0.000756214
-0.000987654
-0.000204284
0.000663382
0.000549383
5.74626e-05
-0.000573224
0.00013374
0.000931079
0.00296557
0.00284561
0.00120953
0.00101063
0.000990151
0.000957942
0.00111881
0.00156113
0.00140067
0.00126988
0.000448589
0.000335228
0.000366927
0.000193925
-0.000508002
-0.000465657
-0.000827505
-0.00102529
-0.00120741
-0.00126464
-0.00136189
-0.00126672
-0.00130659
-0.00125341
-0.00121662
-0.00115542
-0.0010854
-0.000981801
-0.000962364
-0.000664265
-0.000696779
-0.000479917
-0.000631135
-0.000698794
-0.000648873
-0.000826771
-0.000640638
-0.000782163
-0.00296308
-9.8559e-05
3.21735e-06
-1.00202e-05
-1.42707e-05
-2.09855e-05
-2.71148e-05
-3.39801e-05
-4.35204e-05
-5.13723e-05
-6.06777e-05
-7.52696e-05
-8.56817e-05
-9.55509e-05
-0.000119025
-0.000135453
-0.000138162
-0.00016987
-0.000204893
-0.000202414
-0.00020912
-0.000274172
-0.00030772
-0.000300535
-0.000299856
-0.000385917
-0.00046336
-0.000474931
-0.000473161
-0.000535355
-0.000651673
-0.000721454
-0.000780789
-0.0008681
-0.000893057
-0.000929475
-0.00102389
-0.00098138
-0.000826914
-0.000441177
4.07165e-05
0.00132695
0.00698075
0.0236399
-0.00583888
-0.000664128
-0.00252919
-0.00179182
-0.00155506
9.01961e-05
-0.00159142
0.00214012
-0.000237042
-0.00110766
-0.00142632
-0.000807122
-0.00107559
-2.35317e-05
-0.00120379
-0.00112859
-0.00180867
-0.00141544
-0.00187152
-0.00158067
-0.00134088
-0.00211427
-0.0013463
-0.00122793
-0.00264266
-0.000186578
-0.00105497
0.000643747
0.000291308
-0.00104656
-0.00117635
0.00110764
0.00167546
0.00292205
0.0027006
0.00149697
0.000840719
0.00164945
0.000882399
0.00129555
0.00147786
0.00146142
0.0016305
0.00113687
0.00116029
0.00114704
0.000994931
0.00106609
0.000398642
0.000202317
0.000163659
-0.000347969
-0.000417257
-0.000649713
-0.000835913
-0.000938979
-0.00107919
-0.00118708
-0.00116311
-0.0011169
-0.00110621
-0.00109731
-0.00103381
-0.00101646
-0.000952888
-0.000857432
-0.000621164
-0.000705879
-0.000514275
-0.000611872
-0.000623254
-0.000598727
-0.000788018
-0.000533026
-0.000847226
-0.00224076
-9.71876e-05
3.11709e-06
-9.97101e-06
-1.41963e-05
-2.05282e-05
-2.73438e-05
-3.35509e-05
-4.26115e-05
-5.20901e-05
-6.03274e-05
-7.3129e-05
-8.69912e-05
-9.70294e-05
-0.000115308
-0.000134834
-0.000144465
-0.000169028
-0.000200343
-0.000205747
-0.0002268
-0.000270524
-0.000306829
-0.000319627
-0.0003191
-0.000376822
-0.000483682
-0.000503136
-0.000499741
-0.000506259
-0.000607985
-0.000746194
-0.000781275
-0.000800353
-0.0008222
-0.000799231
-0.000823237
-0.000898773
-0.000988198
-0.000876271
-0.000986665
-0.000392393
0.00768917
0.0141079
-0.00165757
0.00172768
0.000133085
0.000818225
0.000535056
-5.81223e-05
-0.00122091
-0.000294715
-0.0012924
-0.000980739
1.38089e-05
6.59338e-05
-0.000201668
-0.000915014
-0.00140131
-0.00161474
-0.00165329
-0.00101097
-0.00241796
-0.000462948
-0.0022177
-0.00114704
-9.05782e-05
-0.000571895
-0.000450161
-0.000105343
-0.0010446
0.000538126
0.00230614
0.0026353
0.00190961
0.0013117
0.00123552
0.0013073
0.00121576
0.001798
0.00183884
0.00171139
0.00179514
0.00118672
0.00151192
0.00143947
0.00112668
0.00139979
0.00114961
0.00113071
0.000775884
0.000759407
0.000580459
0.000238195
0.000269926
-0.000135068
-0.000296858
-0.000489643
-0.000686976
-0.000752184
-0.000819546
-0.000829778
-0.000872107
-0.000730973
-0.000849288
-0.000882274
-0.000905022
-0.000910441
-0.000907843
-0.000811238
-0.000647566
-0.000711398
-0.000511628
-0.000540739
-0.000513415
-0.00045627
-0.000703891
-0.000458501
-0.000860667
-0.00159213
-9.57109e-05
2.996e-06
-9.86781e-06
-1.41442e-05
-2.0136e-05
-2.73699e-05
-3.32288e-05
-4.18105e-05
-5.2381e-05
-5.99435e-05
-7.1543e-05
-8.7425e-05
-9.86864e-05
-0.000112304
-0.00013346
-0.000151004
-0.000167845
-0.000193097
-0.000213782
-0.00023831
-0.000266932
-0.000300161
-0.000327546
-0.000356106
-0.000390756
-0.000463409
-0.000523594
-0.000524593
-0.000503958
-0.000565299
-0.000734888
-0.000786338
-0.000781634
-0.000757224
-0.000732608
-0.000718275
-0.000744813
-0.000640248
-0.000598253
-0.000401438
-0.000487916
0.0156568
0.0111214
0.000332732
0.000538887
-0.000204709
0.000136268
-0.000260143
-0.00011644
-0.000458215
-0.000795611
-0.0020784
-0.000337282
-0.00151418
-0.000213594
3.52984e-05
-0.00135308
-0.00109893
-0.00325695
-0.0011625
-0.000907357
-0.00179039
0.0024292
-0.00178374
-0.000253743
-7.87011e-05
0.000151176
0.00179215
0.00339061
0.00143937
0.000703119
0.00168523
0.00124391
0.00130548
0.00192201
0.00189612
0.00180715
0.00180998
0.00176772
0.00162961
0.00158104
0.00143079
0.00159021
0.00139683
0.00137751
0.0011357
0.0012529
0.000939173
0.00105443
0.000759932
0.000630872
0.000523305
0.00020362
0.00012674
-0.000154531
-0.000299022
-0.000402061
-0.000564503
-0.000646324
-0.000773029
-0.000803854
-0.00090789
-0.000733453
-0.000882092
-0.000846175
-0.000875352
-0.000841268
-0.000787815
-0.00072937
-0.000592817
-0.000650128
-0.000452958
-0.000464838
-0.000497956
-0.000467334
-0.000685959
-0.000421975
-0.000796775
-0.000989299
-9.40927e-05
2.87075e-06
-9.70009e-06
-1.41067e-05
-1.98195e-05
-2.71033e-05
-3.31447e-05
-4.09766e-05
-5.20569e-05
-6.0044e-05
-6.99765e-05
-8.73015e-05
-0.000100034