/*--------------------------------*- C++ -*----------------------------------*\
| =========                 |                                                 |
| \\      /  F ield         | OpenFOAM: The Open Source CFD Toolbox           |
|  \\    /   O peration     | Version:  2.2.x                                 |
|   \\  /    A nd           | Web:      www.OpenFOAM.org                      |
|    \\/     M anipulation  |                                                 |
\*---------------------------------------------------------------------------*/
FoamFile
{
    version     2.0;
    format      ascii;
    class       volScalarField;
    location    "0.55";
    object      pB;
}
// * * * * * * * * * * * * * * * * * * * * * * * * * * * * * * * * * * * * * //

dimensions      [1 1 -3 0 0 -1 0];

internalField   nonuniform List<scalar> 
14161
(
-4.28306e-07
-1.19719e-08
-1.41827e-07
-2.39282e-07
-3.75532e-07
-5.50372e-07
-7.82232e-07
-1.08909e-06
-1.4895e-06
-2.00664e-06
-2.65376e-06
-3.4395e-06
-4.38485e-06
-5.42872e-06
-6.56232e-06
-7.5478e-06
-6.48273e-06
-4.57321e-06
-2.03027e-06
-6.15264e-07
4.73197e-06
1.30588e-05
2.54619e-05
4.28399e-05
6.62461e-05
9.67214e-05
0.0001353
0.000183347
0.000240688
0.000310277
0.000388665
0.000482278
0.000582102
0.000699353
0.000819145
0.000957501
0.00109264
0.00124719
0.00139611
0.00154823
0.00171107
0.001867
0.0020196
0.00215702
0.00232718
0.00244408
0.00257856
0.00267823
0.00284937
0.00295948
0.00304398
0.00316066
0.00318911
0.00331179
0.00319679
0.00333158
0.00276777
0.00257934
0.00286214
0.00104242
0.000662282
0.000574426
0.000286653
0.000352599
-0.000705567
-0.000990149
-0.0011664
-0.00133536
-0.00146651
-0.00164503
-0.00186819
-0.00211662
-0.00232534
-0.00279575
-0.00317736
-0.00315939
-0.00306103
-0.00304356
-0.00350764
-0.00374665
-0.0035988
-0.00324478
-0.00380207
-0.00428283
-0.0052958
-0.00679072
-0.00800916
-0.0106293
-0.0121286
-0.0135533
-0.0137137
-0.0124382
-0.0103315
-0.00718878
-0.00678041
-0.00560216
-0.00458259
-0.0035924
-0.00296026
-0.00227465
-0.00191581
-0.00156588
-0.00127612
-0.00107978
-0.000891286
-0.000679972
-0.000583099
-0.000462076
-0.000260976
-0.000226326
-0.000366729
-0.000422274
-0.000569011
-0.000654873
-0.000730659
-0.000292943
-0.00623224
0.00728614
-0.0321212
-4.29157e-07
-1.17803e-08
-1.4238e-07
-2.39766e-07
-3.76722e-07
-5.5074e-07
-7.8375e-07
-1.09067e-06
-1.49229e-06
-2.0091e-06
-2.65707e-06
-3.44756e-06
-4.38667e-06
-5.43655e-06
-6.57777e-06
-7.5694e-06
-6.53267e-06
-4.62937e-06
-1.96469e-06
-6.2233e-07
4.72386e-06
1.29916e-05
2.53526e-05
4.27409e-05
6.61225e-05
9.66482e-05
0.000135215
0.000183157
0.000240822
0.000309736
0.000389326
0.000481193
0.000583474
0.000698163
0.0008216
0.000955571
0.00109723
0.0012458
0.00139699
0.00155244
0.00171678
0.00186787
0.00202581
0.0021701
0.00233059
0.0024479
0.00259995
0.00272835
0.00285808
0.00292643
0.00309949
0.0031218
0.00328096
0.00319752
0.00330487
0.00331251
0.00254666
0.00275261
0.00207279
0.000835156
0.000415333
-0.000298184
-0.00073175
-0.00102283
-0.00187195
-0.00213152
-0.00274587
-0.00296239
-0.00324026
-0.00341631
-0.00341314
-0.00346199
-0.00366311
-0.00401354
-0.00454249
-0.00456667
-0.00460485
-0.00455839
-0.00495075
-0.00495441
-0.00534954
-0.00526163
-0.00596447
-0.00588316
-0.0054589
-0.00507228
-0.00458446
-0.00414699
-0.00350935
-0.00300261
-0.00285788
-0.000290221
0.000948089
0.00124727
0.000677503
0.000546856
0.000332775
7.92768e-05
-9.28267e-05
-0.000134241
-0.000221868
-0.000209988
-0.000195884
-0.000125444
-6.27889e-05
3.08378e-05
8.46996e-05
0.000212969
0.000409609
0.000451505
0.000341964
0.000312958
0.000154857
2.91621e-05
-2.56096e-05
0.000999964
-0.00554691
0.0073
-0.0292504
-4.29646e-07
-1.20172e-08
-1.42837e-07
-2.40376e-07
-3.78205e-07
-5.52847e-07
-7.86426e-07
-1.09536e-06
-1.49984e-06
-2.01713e-06
-2.67135e-06
-3.46949e-06
-4.41251e-06
-5.4643e-06
-6.62309e-06
-7.65512e-06
-6.74191e-06
-4.89917e-06
-2.26215e-06
-8.76944e-07
4.14995e-06
1.2354e-05
2.44873e-05
4.16046e-05
6.4621e-05
9.47746e-05
0.000132979
0.000180158
0.000237894
0.000305175
0.000385791
0.000474507
0.000579594
0.000689168
0.000817331
0.000944574
0.00109318
0.00123423
0.00139255
0.0015473
0.00170893
0.00185734
0.00202491
0.00217606
0.0023233
0.00244279
0.00260931
0.00272399
0.00287099
0.00293713
0.00311928
0.00312524
0.00329488
0.00323201
0.00337701
0.00333955
0.0029711
0.00282465
0.00226629
0.000794865
0.000229741
6.18708e-05
-0.000787804
-0.000803246
-0.00108483
-0.00113975
-0.0010967
-0.00130949
-0.00158655
-0.00202015
-0.00265795
-0.00314712
-0.00321196
-0.00306035
-0.0033724
-0.0038805
-0.00407792
-0.00453169
-0.00472502
-0.0045924
-0.00478836
-0.00576142
-0.00516193
-0.00472068
-0.0053431
-0.00575212
-0.00665387
-0.00728775
-0.00845162
-0.00907939
-0.00572013
-0.0070675
-0.00361957
-0.00234723
-0.00247638
-0.00274304
-0.00251834
-0.00213173
-0.00168818
-0.00114061
-0.000870545
-0.000612734
-0.000478044
-0.000373726
-0.000164504
-1.5007e-05
-5.45551e-06
5.92596e-05
0.000188915
0.000146164
-2.9776e-05
-8.24986e-05
-3.34671e-05
2.7077e-05
-0.000213039
0.000902616
-0.00552085
0.00649059
-0.0275549
-4.30671e-07
-1.21985e-08
-1.43607e-07
-2.4171e-07
-3.79272e-07
-5.56159e-07
-7.89682e-07
-1.10082e-06
-1.50736e-06
-2.02985e-06
-2.68483e-06
-3.49244e-06
-4.44784e-06
-5.50417e-06
-6.67878e-06
-7.762e-06
-7.01634e-06
-5.17329e-06
-2.65452e-06
-9.90507e-07
3.53889e-06
1.16061e-05
2.35413e-05
4.04566e-05
6.31091e-05
9.27312e-05
0.000130531
0.000176866
0.000234327
0.000300498
0.00038094
0.000468272
0.000573251
0.000681355
0.000809993
0.000936021
0.00108369
0.00122238
0.00138756
0.00154049
0.00169858
0.00185019
0.00202735
0.0021767
0.00231753
0.00246208
0.00263301
0.00273825
0.00290344
0.00298189
0.00315791
0.00317122
0.00337282
0.00334808
0.00356135
0.00348953
0.00317679
0.00320841
0.00233177
0.00088712
-0.000113952
0.000179934
-0.00105892
-0.00104784
-0.00168909
-0.00211479
-0.00228944
-0.00222983
-0.00232478
-0.00238444
-0.00254717
-0.00276926
-0.00333489
-0.0032514
-0.00352158
-0.00383457
-0.00427246
-0.0045062
-0.00466324
-0.00518416
-0.0049056
-0.00463031
-0.0049196
-0.00440882
-0.00447768
-0.00425202
-0.0036978
-0.00365324
-0.00333276
-0.00410277
-0.00395106
-0.00278428
-0.00225518
-0.000421125
-0.000985275
-0.000673979
-0.0005613
-0.000576633
-0.000625997
-0.00072565
-0.000720268
-0.000614127
-0.00053821
-0.000359354
-0.000289755
-0.000248424
-0.000126659
6.66286e-05
0.000202398
0.000272861
0.000214845
0.000176032
1.51277e-05
0.000145508
-0.000429751
0.000871614
-0.00517945
0.00594939
-0.0255425
-4.31711e-07
-1.24555e-08
-1.44384e-07
-2.43321e-07
-3.81547e-07
-5.58969e-07
-7.95926e-07
-1.10816e-06
-1.51822e-06
-2.0508e-06
-2.71103e-06
-3.52723e-06
-4.50034e-06
-5.59469e-06
-6.73474e-06
-7.92413e-06
-7.46046e-06
-5.72429e-06
-3.30532e-06
-1.3853e-06
2.47051e-06
1.02379e-05
2.16927e-05
3.80317e-05
6.01307e-05
8.89376e-05
0.000125851
0.000171359
0.000226945
0.000293075
0.000369962
0.000459357
0.000558096
0.000671107
0.000790523
0.000926084
0.00106298
0.00121195
0.00136747
0.00152554
0.00168419
0.00184947
0.00201819
0.00216277
0.0023201
0.00248899
0.00264598
0.00275764
0.00292774
0.00304546
0.00320844
0.00327108
0.00346876
0.00345191
0.003711
0.00363645
0.00340664
0.00333873
0.00250468
0.000300411
-0.000992013
-0.00053391
-0.00133742
-0.00184366
-0.00210675
-0.00222023
-0.0023815
-0.00273171
-0.00281297
-0.00270771
-0.00253469
-0.00270299
-0.00294973
-0.00345998
-0.00401816
-0.00379692
-0.00367661
-0.00394171
-0.00419397
-0.00392393
-0.00450513
-0.00438054
-0.0039107
-0.00420512
-0.0044789
-0.00545297
-0.00502797
-0.00309903
-0.00538434
-0.00342879
-0.00316926
-0.00172194
-0.000431264
-0.000770483
-0.00061493
-0.000652431
-0.000558452
-0.000415661
-0.000375839
-0.000325062
-0.000228585
-0.000144531
-0.000132453
-3.51472e-05
-4.12052e-05
-1.05328e-05
4.1668e-05
0.000114518
0.000181939
0.000209904
0.000154752
0.000159572
1.0319e-05
0.000223723
-0.000778816
0.000617088
-0.00482264
0.00519772
-0.0235506
-4.33218e-07
-1.27525e-08
-1.45493e-07
-2.44776e-07
-3.84865e-07
-5.62597e-07
-8.0233e-07
-1.11796e-06
-1.53221e-06
-2.06894e-06
-2.74583e-06
-3.56734e-06
-4.54989e-06
-5.69799e-06
-6.84883e-06
-8.0548e-06
-7.95671e-06
-6.4034e-06
-4.07595e-06
-1.88017e-06
1.43892e-06
8.7681e-06
1.96697e-05
3.52578e-05
5.65989e-05
8.45653e-05
0.000120321
0.000165162
0.000218572
0.000284394
0.000357814
0.000447686
0.000541956
0.000656604
0.000770555
0.00090791
0.0010403
0.00119777
0.00134032
0.00150525
0.00166899
0.00184452
0.00199322
0.00215593
0.00233679
0.0025101
0.00264427
0.00279771
0.00297844
0.00311745
0.00326954
0.00334419
0.00360924
0.00356615
0.00391325
0.00381927
0.00371931
0.00366549
0.00303497
0.000688008
-0.00116509
-0.00147587
-0.00154364
-0.00235385
-0.00260143
-0.00245207
-0.00240655
-0.00267455
-0.00281381
-0.00326476
-0.00371622
-0.00378805
-0.00401817
-0.00343375
-0.00356488
-0.00386496
-0.00365895
-0.00310255
-0.00351944
-0.00414706
-0.0043549
-0.00375502
-0.00364787
-0.00352374
-0.00345513
-0.00345724
-0.00393914
-0.00381706
-0.00386506
-0.00364767
-0.0025017
-0.00102279
-0.00103498
-0.000370763
-0.000156349
-0.000185504
-0.000192198
-0.000231436
-0.000285639
-0.0002913
-0.000252631
-0.000241174
-0.000209955
-9.42056e-05
-0.000108773
-4.7956e-05
2.91047e-05
0.000122212
0.00015586
0.000193128
0.000152042
0.000177747
9.31466e-07
0.000318977
-0.000929587
0.000533436
-0.00437515
0.00469462
-0.0215913
-4.34836e-07
-1.30352e-08
-1.46652e-07
-2.46691e-07
-3.87861e-07
-5.68403e-07
-8.0888e-07
-1.13114e-06
-1.55192e-06
-2.09339e-06
-2.78733e-06
-3.6343e-06
-4.62711e-06
-5.80431e-06
-7.01055e-06
-8.26026e-06
-8.57862e-06
-7.36307e-06
-5.19217e-06
-2.50048e-06
-3.62606e-07
6.31679e-06
1.66509e-05
3.13727e-05
5.16108e-05
7.82479e-05
0.000112271
0.000155103
0.000207051
0.00026969
0.000342709
0.000427197
0.000523247
0.00062988
0.000748828
0.000875881
0.00101444
0.00116409
0.00131316
0.00147746
0.00164249
0.0018161
0.00197038
0.00216046
0.00233108
0.00251102
0.00265085
0.00285956
0.00302902
0.00320844
0.00334505
0.0035005
0.00369383
0.00370279
0.00412149
0.00412424
0.00401525
0.00341681
0.00333423
0.00076355
-0.00102153
-0.00173466
-0.00136555
-0.00299886
-0.00259091
-0.00329229
-0.00256967
-0.00221534
-0.00285257
-0.00311009
-0.00296489
-0.00258084
-0.00261722
-0.00247662
-0.00318659
-0.00282011
-0.00272704
-0.00436962
-0.00412341
-0.00333481
-0.003586
-0.00357884
-0.00342129
-0.00409578
-0.00243713
-0.00318527
-0.00299967
-0.00343176
-0.00317436
-0.00236979
-0.00125241
-0.000857195
-0.000841376
5.46814e-05
-0.000104596
-3.59968e-05
-5.12281e-05
-4.7708e-05
-3.32462e-05
3.44879e-06
5.77976e-05
6.66402e-05
9.4612e-05
9.99204e-05
3.96366e-06
6.65075e-05
7.43338e-05
0.000143519
0.000147324
0.000209315
0.000151733
0.00020109
-6.53238e-05
0.000356262
-0.00114392
0.000344542
-0.0040375
0.00408289
-0.019737
-4.36901e-07
-1.33952e-08
-1.481e-07
-2.4934e-07
-3.91295e-07
-5.74577e-07
-8.18572e-07
-1.14345e-06
-1.57367e-06
-2.12796e-06
-2.8273e-06
-3.70612e-06
-4.73422e-06
-5.92595e-06
-7.20812e-06
-8.4927e-06
-9.25977e-06
-8.4467e-06
-6.42646e-06
-3.74072e-06
-1.44416e-06
3.82502e-06
1.32362e-05
2.69772e-05
4.60522e-05
7.10956e-05
0.000103662
0.00014383
0.000194245
0.000252729
0.00032483
0.000403611
0.000499486
0.000599326
0.000719276
0.000839975
0.00098089
0.00111972
0.00128075
0.00144196
0.00160438
0.00177502
0.00195729
0.00215062
0.0022923
0.00250571
0.00268822
0.00291328
0.00305703
0.00328819
0.00344841
0.00369034
0.00382287
0.00402908
0.00445518
0.00449665
0.00442286
0.00182185
0.00326163
0.00058753
-0.00269398
-0.00379261
-0.00375031
-0.00417241
-0.00288489
-0.00459211
-0.00407925
-0.00353755
-0.00325601
-0.0023622
-0.00274911
-0.00262036
-0.00269536
-0.00266143
-0.00267283
-0.00436292
-0.0050731
-0.00288996
-0.00196352
-0.00237013
-0.00303714
-0.00359419
-0.00162386
-0.00227521
-0.0025337
-0.00300029
-0.00292351
-0.00279103
-0.00213279
-0.00159647
-0.00102677
-0.00110824
-0.000334783
-6.56028e-05
-1.5427e-05
5.27403e-05
3.42845e-05
3.08114e-05
5.20251e-05
0.00010286
0.000114784
9.63964e-05
0.000100529
5.11908e-05
4.21485e-05
0.000136193
0.000140472
0.000186981
0.00014942
0.000207973
0.000141995
0.000216359
-0.000123138
0.000375107
-0.00116848
0.000281386
-0.0036581
0.00364659
-0.0179512
-4.39131e-07
-1.36967e-08
-1.49606e-07
-2.51967e-07
-3.95947e-07
-5.80691e-07
-8.3044e-07
-1.15985e-06
-1.59838e-06
-2.17061e-06
-2.88796e-06
-3.78428e-06
-4.87002e-06
-6.10134e-06
-7.46508e-06
-8.81148e-06
-9.90862e-06
-9.74428e-06
-8.29319e-06
-5.81123e-06
-2.61131e-06
3.46706e-07
9.13394e-06
2.09588e-05
3.84517e-05
6.12823e-05
9.16424e-05
0.000129115
0.000176184
0.000232051
0.000298556
0.000375957
0.000463854
0.000564263
0.000674185
0.000797352
0.00092992
0.00107072
0.00122657
0.0013864
0.00155185
0.00172698
0.00191958
0.00210817
0.00225075
0.0025041
0.00269067
0.00293407
0.00310425
0.00341539
0.00363107
0.00400321
0.00422295
0.00451128
0.00456403
0.00466913
0.00471269
-0.000427123
0.00421235
0.00111889
-0.00172595
-0.00383311
-0.00275806
-0.00343076
-0.00316781
-0.00355722
-0.00314999
-0.00285968
-0.0028422
-0.00244017
-0.00268031
-0.00273542
-0.00365763
-0.00437045
-0.00335572
-0.00220614
-0.00265414
-0.00264054
-0.00181279
-0.00223345
-0.00169719
-0.00223328
-0.00254675
-0.00241775
-0.0023944
-0.00228992
-0.00234227
-0.00179612
-0.00137157
-0.00100952
-0.00102692
-0.0005851
-0.000189704
-1.9014e-05
6.1866e-05
0.000134103
0.00014224
0.000211606
0.000259203
0.000265882
0.00020748
0.000185869
0.000193415
0.000168747
0.000154005
0.000204353
0.000163011
0.000191735
0.000131274
0.000187498
0.000124732
0.000215606
-0.000204731
0.000300872
-0.00114823
8.96565e-05
-0.00334634
0.00322131
-0.0162984
-4.4182e-07
-1.41043e-08
-1.51435e-07
-2.54857e-07
-4.01252e-07
-5.88717e-07
-8.41844e-07
-1.18099e-06
-1.62621e-06
-2.2116e-06
-2.96128e-06
-3.88079e-06
-5.00458e-06
-6.32991e-06
-7.74987e-06
-9.25514e-06
-1.05132e-05
-1.12634e-05
-1.01904e-05
-8.28945e-06
-5.35753e-06
-1.63066e-06
3.32818e-06
1.47759e-05
3.00182e-05
5.06192e-05
7.81343e-05
0.000112701
0.000155544
0.000208262
0.000269004
0.000342995
0.000423942
0.000520756
0.000623289
0.000743331
0.000867297
0.00101058
0.00115614
0.00131764
0.00148297
0.0016654
0.00185118
0.0020388
0.00221024
0.00247591
0.00265098
0.00292559
0.00315457
0.00350742
0.00375457
0.00419579
0.00445561
0.00464705
0.0045784
0.00496789
0.00251264
0.00148184
0.000363742
0.00152151
-0.00319755
-0.00599594
-0.00429802
-0.00457667
-0.00434732
-0.0036141
-0.003535
-0.00301403
-0.00322404
-0.00373003
-0.00403697
-0.00510674
-0.0029732
-0.000903045
-0.000102114
-0.00158251
-0.00270207
-0.00285047
-0.00130574
-0.00106634
-0.00210809
-0.00210876
-0.00195669
-0.00187907
-0.00181733
-0.00190433
-0.00152001
-0.00109941
-0.000883843
-0.000986539
-0.000681854
-0.000427692
-8.47237e-05
2.61926e-06
7.97454e-05
0.000141096
0.000181442
0.000240194
0.000260047
0.000255056
0.000230321
0.000262795
0.000259231
0.000216373
0.000213108
0.000242195
0.000209752
0.000210713
0.000131306
0.00018243
0.000105168
0.000244752
-0.000236246
0.000244755
-0.00107925
8.91266e-06
-0.00313133
0.00284911
-0.0147858
-4.4473e-07
-1.44171e-08
-1.5334e-07
-2.58323e-07
-4.06451e-07
-5.98388e-07
-8.55358e-07
-1.20258e-06
-1.66377e-06
-2.26167e-06
-3.0401e-06
-4.00846e-06
-5.18027e-06
-6.57453e-06
-8.14423e-06
-9.77399e-06
-1.13495e-05
-1.25102e-05
-1.28335e-05
-1.12764e-05
-8.82598e-06
-5.41289e-06
-7.19114e-07
5.64786e-06
1.96217e-05
3.72058e-05
6.15501e-05
9.17627e-05
0.000130769
0.000177046
0.000233907
0.00029916
0.000376692
0.000462997
0.000562183
0.000671482
0.000791706
0.000926072
0.00106595
0.0012243
0.00138567
0.00156987
0.00174333
0.00194556
0.00212685
0.00240009
0.00258728
0.00288486
0.00317191
0.00355732
0.00393625
0.00446915
0.00490008
0.00540948
0.00584178
0.0074847
0.00539553
0.00738382
-0.00558185
-0.00410582
-0.00301413
-0.00922699
-0.00486099
-0.00816831
-0.00430128
-0.00482626
-0.00258176
-0.00494291
-0.00525652
-0.00389107
-0.0015492
-0.00233842
-0.00259917
-0.00191586
-0.000308549
-0.00117661
-0.00279041
-0.000476084
-0.00110526
-0.0011333
-0.00155861
-0.00125608
-0.00135451
-0.00122279
-0.00137556
-0.000994205
-0.000800434
-0.000589839
-0.000755442
-0.00052846
-0.000467833
-6.31638e-05
-5.31587e-06
0.000129603
0.000200601
0.000293051
0.00033302
0.000365602
0.000362482
0.000333156
0.00032131
0.00031312
0.000277491
0.000222565
0.000220593
0.00023269
0.000181244
0.000173701
8.77317e-05
0.000141097
3.43173e-05
0.000234752
-0.000298514
0.000133743
-0.00104888
-7.11563e-05
-0.0029004
0.0025922
-0.0134385
-4.48087e-07
-1.48383e-08
-1.55522e-07
-2.62272e-07
-4.1278e-07
-6.07994e-07
-8.72707e-07
-1.22563e-06
-1.70216e-06
-2.32438e-06
-3.12447e-06
-4.14396e-06
-5.38672e-06
-6.86444e-06
-8.56695e-06
-1.0433e-05
-1.22644e-05
-1.38434e-05
-1.49791e-05
-1.51884e-05
-1.35662e-05
-1.08906e-05
-6.27456e-06
-8.65838e-07
8.13323e-06
2.2251e-05
4.33535e-05
6.90788e-05
0.000103028
0.000142992
0.000193185
0.000251286
0.000320331
0.000398508
0.000488149
0.000587837
0.000699963
0.000822652
0.000956234
0.00110308
0.00126188
0.00143548
0.00160325
0.00180509
0.00197955
0.00226569
0.00245219
0.00277044
0.00304937
0.0034529
0.00388886
0.00436308
0.00479873
0.0049868
0.00576329
0.00616587
0.00925425
0.00103456
-0.00191538
0.000984048
0.00116093
-0.00264617
-0.00290293
-0.00405016
-0.00459564
-0.00472599
-0.00369031
-0.00326037
-0.00263571
-0.00228462
-0.00064318
-0.00137263
-0.00331365
-0.00242411
-0.000739098
6.98522e-05
-0.00109018
-0.00060737
-0.000528541
-0.000570305
-0.000660843
-0.000713402
-0.000566317
-0.000803459
-0.00056028
-0.000476654
-0.000283764
-0.000454525
-0.000383171
-0.000286047
-0.000193586
8.82435e-05
0.000117363
0.000195829
0.000225396
0.000285098
0.000307483
0.000349893
0.00036383
0.000363619
0.000370823
0.000367152
0.000320162
0.000285456
0.000291793
0.000275046
0.000211223
0.000195423
0.000100669
0.000136764
2.41035e-05
0.000212227
-0.000300864
5.57503e-05
-0.00101575
-0.000156631
-0.00274741
0.00231609
-0.0122682
-4.51709e-07
-1.51596e-08
-1.57835e-07
-2.66231e-07
-4.20154e-07
-6.187e-07
-8.90342e-07
-1.25529e-06
-1.74307e-06
-2.3945e-06
-3.23024e-06
-4.29725e-06
-5.6246e-06
-7.21803e-06
-9.07773e-06
-1.11606e-05
-1.33725e-05
-1.55091e-05
-1.73729e-05
-1.85291e-05
-1.89327e-05
-1.75594e-05
-1.48798e-05
-9.83832e-06
-2.87688e-06
6.41947e-06
2.08221e-05
4.06362e-05
6.88098e-05
0.000102283
0.000144079
0.000194422
0.000252698
0.000321129
0.000398633
0.000486921
0.000586048
0.000695424
0.000817638
0.000948205
0.00109497
0.00124905
0.00141448
0.00159479
0.0017452
0.00203613
0.00220568
0.00249495
0.00273453
0.0031021
0.00342915
0.00359742
0.00383032
0.00387083
0.00429038
0.00445255
0.00420182
0.00251848
-0.00729565
-0.0085993
-0.013587
-0.00963269
-0.00648323
-0.00436271
-0.00718293
-0.0057944
-0.00371094
-0.00200253
-0.00275054
-0.00169499
0.00137263
-0.000297558
0.000115371
0.00148136
0.00121046
-0.000486538
-1.61216e-05
0.000342788
0.000261666
0.000171781
8.84443e-05
0.000145681
-4.49497e-05
5.77109e-05
-1.25333e-06
0.000215998
-4.42645e-05
3.5506e-05
-3.02794e-05
9.86977e-05
0.000104593
0.000312751
0.000290296
0.000381486
0.000372428
0.000385956
0.000355656
0.000374198
0.000370768
0.000372651
0.000362287
0.00033743
0.000280996
0.00024388
0.000242155
0.0002046
0.000153345
0.000127298
5.36537e-05
5.82237e-05
-3.575e-05
0.000142136
-0.000335565
-3.78329e-05
-0.000980621
-0.000164675
-0.00256416
0.00215899
-0.0111845
-4.55802e-07
-1.56009e-08
-1.60463e-07
-2.70784e-07
-4.2763e-07
-6.31936e-07
-9.08872e-07
-1.2871e-06
-1.79317e-06
-2.46451e-06
-3.3509e-06
-4.46705e-06
-5.88687e-06
-7.60659e-06
-9.65475e-06
-1.20147e-05
-1.46075e-05
-1.72455e-05
-1.99218e-05
-2.22219e-05
-2.42248e-05
-2.50154e-05
-2.47014e-05
-2.20419e-05
-1.7344e-05
-1.04344e-05
-2.7482e-07
1.29518e-05
3.29572e-05
5.7011e-05
8.97655e-05
0.000129598
0.000177456
0.000232363
0.000296908
0.000370199
0.000453289
0.000546311
0.000649044
0.000763274
0.000886338
0.00101882
0.00116202
0.00131319
0.00142717
0.00170625
0.00182237
0.00206373
0.00224365
0.00251298
0.0025265
0.00280358
0.00263622
0.00270314
0.00245204
0.00329312
-0.00261965
0.00715738
-0.00783115
-0.00293115
-0.0115649
-0.00785322
-0.0120976
-0.00365593
-0.00377333
-0.00072677
0.000384856
-0.00038937
-0.00109221
-0.000793903
0.00161859
0.000905794
0.0009557
0.000920899
0.000981786
0.00121773
0.00115306
0.00108869
0.000945084
0.000754109
0.00067438
0.000584308
0.000551342
0.00035062
0.000639127
0.00028019
0.000380969
0.000278299
0.000362322
0.000385824
0.000413604
0.000576225
0.000470135
0.000495568
0.00044555
0.000455883
0.000420887
0.000436437
0.000423723
0.000423642
0.000406622
0.00038645
0.000345201
0.000317799
0.000290871
0.000240428
0.000186387
0.000148102
7.11409e-05
5.03687e-05
-4.22205e-05
0.000105687
-0.000339151
-0.0001069
-0.000964394
-0.000206409
-0.00244546
0.00195922
-0.0102565
-4.60145e-07
-1.59228e-08
-1.63129e-07
-2.75909e-07
-4.3574e-07
-6.45482e-07
-9.31484e-07
-1.31939e-06
-1.8492e-06
-2.54888e-06
-3.47521e-06
-4.67402e-06
-6.17509e-06
-8.05732e-06
-1.03081e-05
-1.2957e-05
-1.59995e-05
-1.93505e-05
-2.27905e-05
-2.64349e-05
-2.98252e-05
-3.26671e-05
-3.50809e-05
-3.61724e-05
-3.518e-05
-3.32057e-05
-2.68484e-05
-1.82479e-05
-6.61323e-06
9.69146e-06
3.08287e-05
5.7297e-05
9.09622e-05
0.00013035
0.000178102
0.000233936
0.000297812
0.000370238
0.000449543
0.000538789
0.000633515
0.000735399
0.00084651
0.000956224
0.0010187
0.00127017
0.00132851
0.00148543
0.00161739
0.00158275
0.00176406
0.00154338
0.00136743
0.00123196
0.000138504
0.00141227
-0.00846607
0.000181383
-0.0121051
-0.00732821
-0.0108078
-0.0112614
-0.00586851
-0.00575815
-0.00532819
-0.00233495
-0.00231274
0.00210942
0.00173473
0.00246449
0.00118303
0.00153569
0.00192021
0.00193186
0.00178498
0.00159093
0.00147945
0.00128906
0.00119282
0.000972109
0.00096152
0.000938243
0.000872431
0.000905816
0.000623005
0.000709693
0.000572098
0.000585201
0.000554724
0.00057025
0.000587607
0.000661942
0.000645046
0.000646804
0.00057756
0.000559485
0.000520931
0.000512543
0.000498547
0.000490265
0.000449502
0.000398846
0.000333699
0.000293696
0.000235393
0.000183802
0.000128774
8.07308e-05
2.10933e-05
-1.19526e-05
-9.85407e-05
2.94523e-05
-0.000363269
-0.0001634
-0.000928348
-0.000186113
-0.00227214
0.00186029
-0.00936949
-4.65017e-07
-1.63871e-08
-1.66201e-07
-2.8123e-07
-4.45306e-07
-6.5961e-07
-9.55637e-07
-1.35788e-06
-1.90493e-06
-2.64473e-06
-3.61293e-06
-4.88659e-06
-6.5045e-06
-8.5333e-06
-1.10289e-05
-1.40216e-05
-1.75473e-05
-2.14573e-05
-2.60315e-05
-3.07665e-05
-3.58636e-05
-4.07742e-05
-4.6199e-05
-5.04461e-05
-5.42251e-05
-5.65106e-05
-5.68438e-05
-5.7191e-05
-5.33342e-05
-4.46626e-05
-3.3667e-05
-1.95136e-05
-1.26618e-06
2.30457e-05
5.22378e-05
8.6704e-05
0.000126536
0.000173391
0.00022568
0.000284502
0.000345119
0.000416162
0.000478856
0.000553664
0.000557836
0.000755071
0.000759071
0.000818724
0.000752441
0.000928177
0.000797998
0.000789331
0.000761484
0.000893096
2.36428e-05
0.00115755
-0.00233035
-0.00490794
-0.00267409
-0.00716942
-0.00110276
-0.00309286
-0.00796495
-0.00618662
-0.00385466
0.00217635
0.00289918
0.00127319
0.00198799
0.00175919
0.0021483
0.00200735
0.00186682
0.0016099
0.00157434
0.00153119
0.0013473
0.00105064
0.000976253
0.000600512
0.000626924
0.000554246
0.00068028
0.000368256
0.000382504
0.000495937
0.000504704
0.000615689
0.000641747
0.000706628
0.000719589
0.000710316
0.000635458
0.000614017
0.000580294
0.000558429
0.000531913
0.000520325
0.000503718
0.000487598
0.000452085
0.000388734
0.000345761
0.000311332
0.000259843
0.000204858
0.000139939
8.47279e-05
3.25189e-05
-2.18422e-05
-0.000103472
-7.67218e-06
-0.000362407
-0.00019925
-0.000899065
-0.000190179
-0.00216161
0.0017172
-0.00860244
-4.70101e-07
-1.67296e-08
-1.69314e-07
-2.86844e-07
-4.5513e-07
-6.76153e-07
-9.80233e-07
-1.39993e-06
-1.96963e-06
-2.74178e-06
-3.77455e-06
-5.11544e-06
-6.86964e-06
-9.07027e-06
-1.18249e-05
-1.51907e-05
-1.91931e-05
-2.40017e-05
-2.9332e-05
-3.55916e-05
-4.22837e-05
-4.99632e-05
-5.77268e-05
-6.6097e-05
-7.44823e-05
-8.27591e-05
-9.03609e-05
-9.67991e-05
-0.000102612
-0.0001059
-0.000108582
-0.000109222
-0.000106509
-0.000100041
-8.86278e-05
-7.72527e-05
-6.01825e-05
-4.18763e-05
-1.81675e-05
8.47264e-06
3.55447e-05
6.9159e-05
8.41255e-05
0.00012794
0.000100158
0.000202403
0.000167599
0.000176816
0.000272595
0.000261921
0.000267135
0.000223421
0.000172955
0.000401041
-4.27352e-05
-0.000726237
0.00221461
-0.00488189
-0.00130676
-0.00296423
-0.00423785
-0.00300666
-0.00182052
-0.00322307
-0.0012159
-0.0019379
-0.000360698
0.000642005
0.00125056
0.0015992
0.00152144
0.00162969
0.00157084
0.0013876
0.00124842
0.00106833
0.000892011
0.000634341
0.00059963
0.000288385
0.000597563
0.000563723
0.000625727
0.000411203
0.000431883
0.000353988
0.000338366
0.000340987
0.00040927
0.000449605
0.00057073
0.000598918
0.000626624
0.000590828
0.000609992
0.000561049
0.000561273
0.000530171
0.000516129
0.000465169
0.000425495
0.000336921
0.000309728
0.000246138
0.00020413
0.000153933
8.97707e-05
3.46209e-05
-1.22852e-05
-7.89697e-05
-0.000138885
-7.2566e-05
-0.000361622
-0.000221356
-0.000842256
-0.000143183
-0.002004
0.00162462
-0.00786836
-4.75739e-07
-1.71927e-08
-1.72799e-07
-2.93222e-07
-4.6548e-07
-6.93523e-07
-1.00865e-06
-1.442e-06
-2.04162e-06
-2.84841e-06
-3.93912e-06
-5.37825e-06
-7.24248e-06
-9.65239e-06
-1.26743e-05
-1.64138e-05
-2.10498e-05
-2.64708e-05
-3.31031e-05
-4.05702e-05
-4.94227e-05
-5.91108e-05
-7.03533e-05
-8.23046e-05
-9.57423e-05
-0.000109364
-0.000123964
-0.000139811
-0.000155297
-0.000170514
-0.000184938
-0.000200556
-0.000214058
-0.000227689
-0.000238329
-0.000251065
-0.000256801
-0.000269081
-0.000270089
-0.000282302
-0.000279886
-0.000295105
-0.000293737
-0.000307066
-0.00038086
-0.00030771
-0.000421117
-0.000462513
-0.000411214
-0.000361389
-0.000315777
-0.000313159
-0.00020294
-0.000951
0.00125345
-0.00619127
-0.00135162
-0.0056041
0.00150234
-0.0037268
-0.000458008
-0.00170548
-0.00071967
-0.00150369
-0.00147383
-0.000647872
-0.000292178
4.5364e-05
0.000580784
0.000853265
0.00111144
0.00105552
0.00095137
0.00073201
0.000587718
0.000501563
0.000204691
0.000226822
0.000498729
9.19708e-05
0.000773888
0.000726231
0.000699676
0.000595613
0.000576542
0.000534139
0.000532972
0.000447172
0.000390093
0.000323529
0.000339621
0.000328177
0.000447144
0.00039489
0.000468105
0.000413779
0.000449591
0.000417721
0.000416807
0.00037042
0.000347665
0.000284779
0.000300768
0.00023731
0.000209466
0.00015595
9.67672e-05
3.78936e-05
3.94541e-08
-7.95153e-05
-0.000127268
-8.8328e-05
-0.000331178
-0.000234464
-0.000802734
-0.00014951
-0.0019045
0.00149097
-0.00717671
-4.81575e-07
-1.75828e-08
-1.76328e-07
-2.99728e-07
-4.76944e-07
-7.11591e-07
-1.03858e-06
-1.49003e-06
-2.11324e-06
-2.96914e-06
-4.11412e-06
-5.65358e-06
-7.66175e-06
-1.02694e-05
-1.35852e-05
-1.77901e-05
-2.29192e-05
-2.93275e-05
-3.68621e-05
-4.60605e-05
-5.66076e-05
-6.92085e-05
-8.32497e-05
-9.96471e-05
-0.00011768
-0.000137787
-0.000160431
-0.000184033
-0.00021002
-0.000237565
-0.000266782
-0.000297409
-0.000329255
-0.000361263
-0.000394867
-0.000428804
-0.000462162
-0.000498545
-0.000529081
-0.000568167
-0.000597739
-0.000645218
-0.000669878
-0.000731733
-0.00077939
-0.000782194
-0.00090949
-0.00096818
-0.000901302
-0.000759637
-0.000557564
-0.000570941
-0.000235461
-0.00161986
0.00239258
-0.00359338
-0.00622249
-0.0117589
-0.00253148
-0.00335514
-0.00124988
-0.00122686
-0.000284822
-0.000439206
-0.000410562
-0.000382628
-9.63094e-05
0.000141755
0.0004479
0.000608899
0.000741255
0.000763862
0.000715894
0.000537729
0.000487403
0.000563287
0.000443363
0.000783332
0.000895013
0.000718014
0.000884914
0.000821005
0.000784176
0.000757441
0.000697307
0.0006674
0.00069672
0.000694496
0.000726379
0.0006579
0.000674713
0.000575235
0.000624854
0.000453388
0.000511678
0.000416638
0.000458915
0.000397086
0.000392589
0.000325343
0.000294155
0.000222635
0.000228388
0.00017105
0.000170875
0.000105388
5.78537e-05
1.90394e-06
-2.44205e-05
-0.000100467
-0.000146478
-0.000127372
-0.000326519
-0.000258725
-0.000754662
-0.000128978
-0.00178019
0.0013743
-0.00652117
-4.87926e-07
-1.80462e-08
-1.80223e-07
-3.06724e-07
-4.8902e-07
-7.31595e-07
-1.06939e-06
-1.54109e-06
-2.19258e-06
-3.08935e-06
-4.30954e-06
-5.9372e-06
-8.10577e-06
-1.0918e-05
-1.45663e-05
-1.9159e-05
-2.49988e-05
-3.21244e-05
-4.09828e-05
-5.15447e-05
-6.43382e-05
-7.92235e-05
-9.69145e-05
-0.00011716
-0.000140377
-0.000166707
-0.000196499
-0.000229128
-0.000265783
-0.000305026
-0.00034783
-0.000394174
-0.000442362
-0.00049551
-0.000547962
-0.000606897
-0.00066462
-0.000726007
-0.000787294
-0.000846089
-0.000915473
-0.000975056
-0.00105294
-0.00110628
-0.00123703
-0.00126595
-0.0015104
-0.0016693
-0.00179474
-0.00208203
-0.0024384
-0.00289759
-0.00289402
-0.00325317
-0.00101553
0.00679499
-0.00842679
0.00319892
-0.00304203
0.000832808
-0.000555609
0.00123925
0.000853611
0.00115929
0.000964732
0.000904347
0.000819971
0.000737242
0.000719212
0.000694982
0.000727984
0.000663497
0.000727282
0.00054485
0.000589626
0.000680007
0.000413955
0.000983037
0.000774654
0.000776451
0.000916562
0.000762682
0.00069927
0.000764819
0.000658655
0.000627773
0.00064826
0.000626573
0.000645406
0.000587026
0.000632055
0.000487596
0.00053354
0.00029749
0.000397237
0.00029784
0.000368778
0.000313541
0.000299764
0.000274729
0.000219872
0.000201499
0.000196769
0.000162291
0.000177108
9.7711e-05
6.8755e-05
1.77273e-05
-6.28395e-07
-7.99753e-05
-0.000132606
-0.000142647
-0.000287895
-0.000272812
-0.000705088
-0.000141318
-0.00168959
0.00122244
-0.00585919
-4.94534e-07
-1.84862e-08
-1.84186e-07
-3.14038e-07
-5.01615e-07
-7.52186e-07
-1.10332e-06
-1.59289e-06
-2.27803e-06
-3.21909e-06
-4.50948e-06
-6.24812e-06
-8.55926e-06
-1.16172e-05
-1.55603e-05
-2.06632e-05
-2.70747e-05
-3.51596e-05
-4.50984e-05
-5.73218e-05
-7.1997e-05
-8.97302e-05
-0.000110549
-0.000134947
-0.00016348
-0.000195889
-0.000233033
-0.000274569
-0.000321437
-0.000372186
-0.000429574
-0.000489443
-0.000556649
-0.000626146
-0.000702537
-0.000778989
-0.000862925
-0.000945456
-0.00103567
-0.00111189