/*--------------------------------*- C++ -*----------------------------------*\
| =========                 |                                                 |
| \\      /  F ield         | OpenFOAM: The Open Source CFD Toolbox           |
|  \\    /   O peration     | Version:  2.2.x                                 |
|   \\  /    A nd           | Web:      www.OpenFOAM.org                      |
|    \\/     M anipulation  |                                                 |
\*---------------------------------------------------------------------------*/
FoamFile
{
    version     2.0;
    format      ascii;
    class       volScalarField;
    location    "2.05";
    object      Bx;
}
// * * * * * * * * * * * * * * * * * * * * * * * * * * * * * * * * * * * * * //

dimensions      [1 0 -2 0 0 -1 0];

internalField   nonuniform List<scalar> 
14161
(
1.00089
1.00081
1.00085
1.00093
1.00104
1.00119
1.00137
1.00161
1.00188
1.00219
1.00258
1.003
1.00342
1.004
1.00456
1.00504
1.00576
1.00644
1.00696
1.00764
1.0082
1.00868
1.00925
1.00951
1.00955
1.00967
1.00972
1.00955
1.00911
1.00832
1.00717
1.00554
1.00355
1.00112
0.998084
0.994389
0.990246
0.98562
0.980827
0.975999
0.972811
0.971442
0.968393
0.96207
0.959388
0.960825
0.966888
0.975067
0.985647
0.996639
1.0074
1.01687
1.02643
1.03674
1.04694
1.05494
1.06093
1.06807
1.07745
1.08758
1.09469
1.09885
1.10203
1.10809
1.11711
1.12654
1.13371
1.13866
1.1422
1.14608
1.15179
1.16006
1.16896
1.17638
1.18196
1.18612
1.192
1.20134
1.21214
1.22195
1.22791
1.23111
1.23319
1.23603
1.24278
1.25145
1.25938
1.26802
1.27879
1.29149
1.30488
1.31716
1.32639
1.332
1.33356
1.33478
1.33709
1.34504
1.35789
1.3734
1.38868
1.40029
1.40783
1.41192
1.41172
1.41358
1.4228
1.43733
1.4476
1.4385
1.40649
1.30905
1.13968
0.95271
0.765283
0.594224
0.421993
0.260647
0.0863138
1.0009
1.00081
1.00085
1.00093
1.00104
1.00119
1.00138
1.00161
1.00188
1.00219
1.00258
1.00299
1.00344
1.00399
1.00454
1.00507
1.00575
1.00641
1.00699
1.00762
1.00821
1.00875
1.00921
1.00945
1.00958
1.00973
1.00975
1.00958
1.00915
1.00838
1.00723
1.00567
1.00366
1.00122
0.998217
0.994499
0.990177
0.985407
0.980401
0.975467
0.971804
0.969436
0.964655
0.95803
0.956401
0.95738
0.964201
0.973102
0.984269
0.996146
1.00743
1.01786
1.02814
1.03923
1.04954
1.05758
1.06414
1.07129
1.0807
1.08951
1.09533
1.10015
1.10485
1.11173
1.12056
1.12847
1.13453
1.1394
1.14426
1.14955
1.15638
1.16422
1.1711
1.17676
1.18197
1.1873
1.19417
1.20284
1.21171
1.22024
1.22823
1.2346
1.23982
1.24451
1.25094
1.25921
1.26744
1.2747
1.28136
1.28928
1.2989
1.31005
1.32027
1.32797
1.33527
1.34337
1.35084
1.35857
1.36787
1.37648
1.38433
1.39273
1.39933
1.40455
1.40994
1.41665
1.42343
1.42255
1.40588
1.3628
1.26945
1.12163
0.941515
0.771708
0.615808
0.464202
0.315155
0.189402
0.0804454
1.00089
1.00081
1.00085
1.00093
1.00104
1.00119
1.00138
1.00161
1.00188
1.0022
1.00258
1.00299
1.00345
1.00397
1.00452
1.00509
1.00573
1.00639
1.00701
1.00762
1.00827
1.00881
1.00916
1.00949
1.00969
1.00984
1.00983
1.00966
1.00925
1.00852
1.00745
1.00598
1.00402
1.00159
0.998608
0.994887
0.990472
0.985479
0.980061
0.974876
0.969744
0.964779
0.956512
0.949409
0.949432
0.950868
0.959408
0.970115
0.98271
0.996355
1.00907
1.0213
1.03346
1.04585
1.05655
1.06579
1.07444
1.08338
1.09255
1.09976
1.1061
1.1122
1.11796
1.12455
1.13175
1.13789
1.14336
1.14906
1.15479
1.16127
1.1685
1.17511
1.18079
1.18638
1.1924
1.19873
1.20511
1.21177
1.21833
1.22433
1.23176
1.24036
1.24838
1.25599
1.26309
1.27034
1.27808
1.2854
1.29142
1.29665
1.30312
1.31014
1.31947
1.32928
1.33959
1.3507
1.36088
1.36938
1.37563
1.38148
1.38735
1.39087
1.3953
1.4005
1.40531
1.40874
1.40209
1.37333
1.31014
1.18334
1.00288
0.813445
0.674307
0.553407
0.448634
0.343771
0.239844
0.149887
0.0720794
1.00089
1.00081
1.00085
1.00093
1.00104
1.00119
1.00138
1.00161
1.00188
1.00221
1.00257
1.00298
1.00346
1.00396
1.00451
1.00513
1.00572
1.00638
1.00703
1.00759
1.00832
1.0089
1.00915
1.00954
1.00989
1.00996
1.00994
1.00979
1.00943
1.00882
1.00786
1.00652
1.00468
1.00224
0.999261
0.995588
0.991107
0.985998
0.980305
0.974292
0.967594
0.960561
0.944696
0.93529
0.938313
0.941798
0.953974
0.968418
0.983601
0.99941
1.01414
1.0283
1.04215
1.05541
1.06678
1.07782
1.08882
1.09891
1.1075
1.11434
1.12205
1.12981
1.13604
1.14158
1.14743
1.15261
1.15823
1.16476
1.1712
1.17787
1.18447
1.19013
1.19527
1.20121
1.20783
1.21473
1.22064
1.22555
1.22999
1.2348
1.24186
1.25087
1.26052
1.26965
1.27756
1.28371
1.29049
1.29798
1.30409
1.30789
1.31084
1.31591
1.32565
1.33651
1.34885
1.35943
1.36895
1.3766
1.38117
1.38351
1.38529
1.38853
1.39243
1.39371
1.3938
1.38245
1.34221
1.24888
1.0862
0.872916
0.695689
0.582621
0.491823
0.412316
0.336698
0.258815
0.187498
0.123744
0.0691149
1.00089
1.00081
1.00085
1.00093
1.00104
1.00119
1.00138
1.0016
1.00188
1.00221
1.00257
1.00298
1.00347
1.00395
1.00451
1.00516
1.00572
1.00637
1.00705
1.00761
1.00834
1.00891
1.00917
1.00957
1.01003
1.01014
1.01011
1.01001
1.00975
1.0093
1.00852
1.00735
1.00564
1.0033
1.00038
0.996836
0.992401
0.987189
0.981218
0.974384
0.96638
0.960551
0.935329
0.91928
0.92373
0.930125
0.946938
0.965675
0.984932
1.00475
1.02318
1.04059
1.05661
1.07138
1.08446
1.09814
1.11149
1.12289
1.13095
1.13766
1.14571
1.15488
1.16324
1.16857
1.17209
1.1755
1.18061
1.18741
1.1941
1.20112
1.20717
1.21201
1.21633
1.22206
1.22938
1.23682
1.24304
1.24715
1.25007
1.25324
1.2582
1.26518
1.27448
1.28531
1.29452
1.30145
1.30698
1.31198
1.31725
1.3222
1.32571
1.3303
1.33889
1.34847
1.35952
1.36846
1.37613
1.38169
1.38404
1.38277
1.38445
1.38524
1.3856
1.37901
1.36011
1.30737
1.19146
1.0022
0.780595
0.616227
0.510659
0.435008
0.373548
0.317435
0.261024
0.203881
0.156005
0.109829
0.0701138
1.00089
1.00081
1.00085
1.00093
1.00104
1.00119
1.00138
1.0016
1.00188
1.00221
1.00256
1.00298
1.00348
1.00395
1.00451
1.00516
1.00573
1.00637
1.00705
1.00768
1.00834
1.00887
1.00926
1.00969
1.01014
1.01038
1.01039
1.01035
1.01022
1.00991
1.00934
1.00838
1.00693
1.00485
1.00216
0.998897
0.994707
0.989434
0.982826
0.974747
0.963067
0.957437
0.925271
0.905591
0.912381
0.921314
0.945027
0.96903
0.99264
1.0168
1.03979
1.06144
1.08
1.09563
1.11052
1.12649
1.14091
1.15355
1.16269
1.17005
1.17751
1.18564
1.19454
1.20139
1.20507
1.20769
1.21174
1.21825
1.22462
1.22974
1.23391
1.23804
1.24276
1.24743
1.25341
1.26069
1.26795
1.2741
1.27905
1.28272
1.28583
1.28929
1.29474
1.30198
1.31059
1.31898
1.32476
1.32929
1.33472
1.34091
1.34709
1.35247
1.35853
1.36367
1.37129
1.37735
1.38188
1.38371
1.38419
1.38353
1.38199
1.3778
1.36403
1.33486
1.26753
1.12889
0.915641
0.707581
0.566515
0.467092
0.397359
0.345127
0.300967
0.258447
0.213836
0.170274
0.136812
0.10265
0.0738752
1.00089
1.0008
1.00085
1.00092
1.00103
1.00119
1.00138
1.0016
1.00188
1.00221
1.00256
1.00298
1.00348
1.00395
1.0045
1.00515
1.00576
1.00637
1.00708
1.00776
1.00836
1.00891
1.00944
1.00988
1.01026
1.01062
1.01083
1.01085
1.0108
1.01064
1.0103
1.00972
1.00869
1.00711
1.00485
1.00198
0.998264
0.993337
0.987004
0.979106
0.968
0.959931
0.923153
0.902275
0.912809
0.927845
0.955319
0.98546
1.01413
1.04213
1.06813
1.09354
1.11465
1.13172
1.14766
1.16389
1.17832
1.18994
1.19944
1.20905
1.21872
1.22522
1.2297
1.23636
1.24249
1.24638
1.2493
1.25459
1.26084
1.26564
1.26895
1.27212
1.27622
1.28142
1.28596
1.29037
1.29512
1.30081
1.30734
1.3132
1.31816
1.32252
1.32637
1.33007
1.33324
1.33861
1.34585
1.35174
1.357
1.36155
1.36673
1.37258
1.37672
1.37973
1.38342
1.38477
1.3858
1.38498
1.38333
1.37898
1.37108
1.35145
1.30952
1.22098
1.06386
0.844208
0.659577
0.533235
0.443442
0.378268
0.330663
0.293522
0.258044
0.223516
0.186679
0.152007
0.126479
0.10013
0.0784337
1.00089
1.0008
1.00085
1.00092
1.00103
1.00118
1.00137
1.0016
1.00188
1.00221
1.00256
1.00298
1.00347
1.00395
1.00449
1.00515
1.00579
1.00635
1.0071
1.00785
1.00837
1.00895
1.00962
1.01008
1.01039
1.01087
1.01134
1.01154
1.0115
1.01148
1.01141
1.01125
1.0109
1.01019
1.0086
1.00627
1.00326
0.999264
0.993878
0.986435
0.975829
0.967125
0.932659
0.911747
0.929211
0.953629
0.985206
1.02141
1.05416
1.08478
1.11185
1.13642
1.15874
1.17831
1.19526
1.2098
1.22343
1.23336
1.24092
1.24978
1.25992
1.26813
1.27258
1.27487
1.27966
1.28604
1.29025
1.29203
1.29558
1.30102
1.30575
1.30947
1.31297
1.31734
1.32149
1.32482
1.32772
1.33089
1.33549
1.34183
1.34791
1.35284
1.35646
1.35838
1.35975
1.36244
1.36801
1.37477
1.38021
1.38439
1.38645
1.38774
1.38819
1.38801
1.38802
1.38778
1.38615
1.38071
1.3776
1.36543
1.33413
1.27639
1.1702
0.99578
0.784013
0.625054
0.511862
0.432252
0.374343
0.329019
0.294432
0.264717
0.233727
0.203863
0.172334
0.144079
0.123416
0.102189
0.0850397
1.00089
1.0008
1.00084
1.00092
1.00103
1.00118
1.00137
1.0016
1.00188
1.0022
1.00256
1.00297
1.00346
1.00395
1.0045
1.00513
1.00579
1.00636
1.00712
1.0079
1.00839
1.00895
1.00972
1.01029
1.01061
1.0111
1.01178
1.01226
1.0124
1.01254
1.01277
1.013
1.0133
1.01352
1.01327
1.01208
1.01013
1.00775
1.00447
0.999362
0.991176
0.989782
0.962055
0.941276
0.968398
1.00332
1.03978
1.07924
1.11446
1.14673
1.17326
1.19376
1.21421
1.2307
1.24438
1.25791
1.26773
1.27545
1.28444
1.28987
1.29432
1.30332
1.31141
1.31374
1.31651
1.32222
1.3268
1.32787
1.32838
1.33121
1.33686
1.34394
1.34792
1.34929
1.35075
1.35389
1.35738
1.36159
1.36501
1.36759
1.37088
1.37467
1.37688
1.37846
1.37982
1.38293
1.38684
1.39066
1.39385
1.39591
1.39606
1.39458
1.39322
1.39101
1.38673
1.38302
1.37818
1.36502
1.34296
1.30358
1.22785
1.09902
0.911317
0.723636
0.589925
0.494476
0.427448
0.375
0.334724
0.303513
0.275835
0.24989
0.221978
0.195092
0.167259
0.143743
0.126645
0.108482
0.094217
1.00088
1.0008
1.00084
1.00092
1.00103
1.00118
1.00136
1.0016
1.00187
1.00219
1.00256
1.00297
1.00343
1.00395
1.0045
1.00511
1.00577
1.00639
1.00713
1.00788
1.00844
1.00905
1.0098
1.01045
1.01095
1.01154
1.01218
1.0128
1.01336
1.01381
1.0144
1.01502
1.01576
1.01666
1.01773
1.01869
1.01929
1.01947
1.01984
1.01948
1.01777
1.02635
1.01605
1.0042
1.03698
1.07714
1.12285
1.16322
1.19528
1.22213
1.23949
1.25533
1.27049
1.28213
1.2935
1.30199
1.30809
1.31566
1.32257
1.32632
1.32972
1.33361
1.34012
1.34696
1.34968
1.35194
1.35697
1.36059
1.3601
1.35829
1.36171
1.36708
1.37279
1.37638
1.37777
1.37907
1.3815
1.38283
1.38346
1.38515
1.38737
1.391
1.3938
1.39479
1.39467
1.39474
1.3958
1.39709
1.3984
1.39941
1.39741
1.39323
1.38962
1.38425
1.37493
1.36191
1.33707
1.30129
1.24671
1.15552
1.01144
0.820423
0.666276
0.554441
0.474393
0.418215
0.376383
0.341717
0.314116
0.290815
0.266966
0.243952
0.21833
0.194296
0.169396
0.14907
0.13372
0.117408
0.104984
1.00088
1.00079
1.00084
1.00091
1.00103
1.00117
1.00136
1.0016
1.00187
1.00218
1.00256
1.00296
1.00341
1.00394
1.0045
1.00509
1.00576
1.00644
1.00714
1.00785
1.00856
1.00922
1.00989
1.01066
1.0114
1.01203
1.01258
1.01334
1.01432
1.0152
1.01616
1.01714
1.01826
1.0197
1.02177
1.02489
1.02834
1.0324
1.03735
1.04479
1.05293
1.0853
1.10649
1.12259
1.15015
1.17878
1.21471
1.24276
1.26657
1.28696
1.30137
1.31485
1.32474
1.33208
1.33951
1.34505
1.34927
1.35346
1.35927
1.36379
1.36318
1.36304
1.36813
1.3733
1.37577
1.37797
1.38191
1.38643
1.38843
1.38671
1.38406
1.38542
1.39039
1.39566
1.39837
1.39823
1.39675
1.39668
1.39791
1.39936
1.40049
1.40148
1.40292
1.40328
1.40192
1.39861
1.39709
1.39754
1.39721
1.39505
1.38944
1.37955
1.36638
1.34849
1.32376
1.29114
1.24397
1.16634
1.0508
0.891184
0.73234
0.611904
0.517686
0.454902
0.407527
0.372414
0.345947
0.323502
0.304495
0.284291
0.263484
0.241116
0.21789
0.196039
0.173621
0.155049
0.14052
0.126382
0.11608
1.00087
1.00079
1.00083
1.00091
1.00102
1.00117
1.00135
1.00159
1.00186
1.00217
1.00255
1.00296
1.0034
1.00393
1.00451
1.00508
1.00574
1.00648
1.00716
1.00784
1.00867
1.00938
1.00997
1.01086
1.01181
1.01253
1.01303
1.0138
1.01511
1.01656
1.01784
1.01911
1.0206
1.02257
1.02538
1.02961
1.03519
1.04223
1.05117
1.06473
1.0861
1.12018
1.19269
1.26984
1.28579
1.29513
1.30161
1.30754
1.31409
1.32659
1.33971
1.35396
1.36301
1.37043
1.37677
1.38129
1.38394
1.38564
1.38892
1.39265
1.39208
1.39095
1.39118
1.39457
1.3968
1.3979
1.40007
1.40362
1.40603
1.40719
1.40438
1.40298
1.4033
1.40648
1.40854
1.40871
1.40791
1.40665
1.40623
1.40557
1.40511
1.40469
1.40502
1.40398
1.40099
1.39578
1.3889
1.38362
1.37691
1.36661
1.3519
1.32915
1.30221
1.2683
1.21758
1.14748
1.05477
0.922049
0.76663
0.647235
0.550063
0.480926
0.429054
0.39212
0.365182
0.345266
0.327367
0.313639
0.298267
0.280892
0.261584
0.239813
0.21871
0.199332
0.179087
0.162019
0.147964
0.136159
0.127898
1.00087
1.00079
1.00083
1.0009
1.00102
1.00116
1.00135
1.00159
1.00185
1.00216
1.00254
1.00295
1.00339
1.00392
1.00451
1.00508
1.00572
1.0065
1.00718
1.00786
1.0087
1.00948
1.01012
1.01102
1.01209
1.01292
1.01353
1.01437
1.01572
1.01756
1.01924
1.02083
1.02267
1.02495
1.02815
1.03252
1.03863
1.04625
1.05517
1.06558
1.07726
1.08834
1.16664
1.29375
1.36326
1.36813
1.3703
1.36817
1.36386
1.36456
1.36809
1.37746
1.38568
1.39386
1.39872
1.403
1.40548
1.40491
1.4066
1.40913
1.41069
1.40898
1.40844
1.40861
1.40955
1.41018
1.41043
1.41344
1.4161
1.41714
1.41578
1.41253
1.41086
1.40989
1.41099
1.41181
1.41198
1.41066
1.40795
1.40404
1.40004
1.39702
1.39415
1.38938
1.38124
1.36974
1.35456
1.34002
1.32177
1.2962
1.26647
1.22495
1.17046
1.10193
1.00901
0.890097
0.764628
0.65644
0.570069
0.49422
0.442772
0.40342
0.374212
0.354061
0.340348
0.327894
0.317997
0.307437
0.294206
0.279175
0.260497
0.240803
0.220802
0.203576
0.185323
0.169494
0.156447
0.146376
0.139622
1.00086
1.00078
1.00082
1.0009
1.00101
1.00116
1.00134
1.00157
1.00184
1.00215
1.00253
1.00295
1.00338
1.00391
1.0045
1.00508
1.00573
1.00649
1.00721
1.00792
1.00874
1.0096
1.01038
1.01127
1.01225
1.01321
1.01412
1.01517
1.01657
1.01823
1.0202
1.02221
1.02433
1.0269
1.03006
1.03438
1.04034
1.04793
1.05752
1.0698
1.08784
1.11753
1.18394
1.3034
1.35911
1.37896
1.38062
1.37945
1.37846
1.38038
1.38456
1.39042
1.39901
1.40446
1.40771
1.40907
1.41164
1.41123
1.41033
1.41271
1.4161
1.4153
1.41381
1.41375
1.41485
1.41503
1.41469
1.4141
1.41574
1.41679
1.41718
1.41464
1.41192
1.40878
1.40681
1.40524
1.40365
1.40101
1.39438
1.38623
1.37575
1.36602
1.35568
1.34127
1.32399
1.30211
1.274
1.23907
1.19782
1.14862
1.08953
1.01604
0.926087
0.824171
0.722564
0.631947
0.563724
0.49168
0.444076
0.405212
0.375331
0.355421
0.340746
0.331174
0.325279
0.318092
0.3117
0.302537
0.291693
0.278085
0.261092
0.243626
0.224746
0.20844
0.192238
0.17795
0.166205
0.157497
0.151864
1.00085
1.00077
1.00082
1.00089
1.001
1.00115
1.00133
1.00156
1.00184
1.00214
1.00251
1.00293
1.00338
1.0039
1.00449
1.00508
1.00573
1.00647
1.00724
1.00799
1.00877
1.00971
1.01066
1.01153
1.01241
1.01352
1.01472
1.01601
1.01732
1.01881
1.02077
1.02302
1.02522
1.0277
1.03067
1.03428
1.0386
1.044
1.05012
1.05489
1.06139
1.09265
1.14193
1.19321
1.23804
1.31483
1.3452
1.36504
1.37284
1.38213
1.38591
1.39118
1.39592
1.40066
1.40436
1.4057
1.40841
1.40925
1.4078
1.41031
1.41368
1.41337
1.4109
1.411
1.41354
1.41511
1.41318
1.40978
1.40796
1.40729
1.40711
1.40581
1.40118
1.39492
1.3876
1.37996
1.37246
1.36263
1.34803
1.33283
1.31225
1.29045
1.26271
1.22924
1.19326
1.153
1.09979
1.03385
0.963761
0.891308
0.812373
0.733506
0.654733
0.592452
0.532138
0.47172
0.433477
0.397655
0.369225
0.351151
0.336576
0.327003
0.320992
0.31808
0.315415
0.31157
0.306457
0.29936
0.290352
0.278187
0.263341
0.247154
0.229648
0.213829
0.198875
0.18667
0.176316
0.168904
0.164222
1.00085
1.00077
1.00081
1.00088
1.00099
1.00114
1.00132
1.00155
1.00182
1.00213
1.00249
1.00291
1.00337
1.00388
1.00446
1.00508
1.00573
1.00646
1.00726
1.00805
1.00879
1.00978
1.01086
1.01178
1.01261
1.0138
1.01523
1.01667
1.01797
1.01938
1.0211
1.02334
1.0256
1.02804
1.03063
1.03347
1.03623
1.0391
1.04207
1.04326
1.04249
1.06478
1.1045
1.11612
1.15152
1.21317
1.2843
1.32511
1.34734
1.36003
1.36297
1.37054
1.37549
1.38161
1.38652
1.39165
1.39517
1.39744
1.39847
1.40216
1.40521
1.40592
1.40284
1.40169
1.40238
1.40305
1.40066
1.39628
1.39198
1.38719
1.38098
1.37324
1.36321
1.35165
1.33672
1.31833
1.29725
1.26948
1.24048
1.20885
1.17382
1.12619
1.06967
1.01096
0.95269
0.890843
0.822337
0.754983
0.688809
0.629924
0.580552
0.534013
0.485006
0.445001
0.413286
0.383104
0.359107
0.341977
0.32816
0.320226
0.314085
0.311256
0.309874
0.309624
0.308778
0.306616
0.302953
0.297664
0.29037
0.279617
0.266599
0.251421
0.235435
0.220453
0.206356
0.196058
0.186992
0.180735
0.176815
1.00084
1.00076
1.0008
1.00088
1.00098
1.00113
1.00131
1.00153
1.00181
1.00212
1.00247
1.00289
1.00337
1.00386
1.00443
1.00507
1.00574
1.00644
1.00726
1.00809
1.00887
1.00985
1.01096
1.01198
1.01284
1.014
1.01558
1.01712
1.01849
1.01979
1.0213
1.02333
1.02567
1.02792
1.03012
1.03227
1.03392
1.0356
1.03816
1.04129
1.05144
1.07964
1.09732
1.09914
1.11336
1.13845
1.18934
1.23887
1.28516
1.30655
1.3208
1.34041
1.34747
1.35754
1.36474
1.37231
1.37765
1.383
1.38527
1.38662
1.38847
1.38944
1.38829
1.38473
1.38021
1.37526
1.36955
1.36199
1.35209
1.34036
1.32484
1.30099
1.27894
1.25268
1.22016
1.18288
1.13643
1.08485
1.03195
0.97884
0.920278
0.854532
0.795416
0.738723
0.683707
0.634117
0.591273
0.550315
0.510641
0.473432
0.439009
0.413329
0.386402
0.364676
0.346064
0.330637
0.318675
0.311158
0.305644
0.302749
0.301619
0.302707
0.303649
0.304414
0.304749
0.304065
0.30183
0.297829
0.291596
0.282504
0.270561
0.25685
0.241763
0.227647
0.214758
0.205546
0.197581
0.192482
0.189302
1.00083
1.00075
1.00079
1.00087
1.00097
1.00112
1.0013
1.00152
1.00179
1.00211
1.00245
1.00287
1.00335
1.00384
1.0044
1.00506
1.00573
1.00644
1.00726
1.00812
1.00898
1.00995
1.01103
1.01213
1.01315
1.01435
1.01585
1.01745
1.01888
1.02018
1.02157
1.02326
1.02545
1.02749
1.02922
1.03059
1.03165
1.03206
1.03309
1.03535
1.05137
1.07824
1.08648
1.08835
1.09406
1.10282
1.12631
1.15903
1.21862
1.2633
1.29961
1.31581
1.33074
1.34148
1.35278
1.36067
1.36494
1.36764
1.36805
1.36597
1.36346
1.3613
1.35906
1.35148
1.33955
1.32318
1.30756
1.28978
1.26173
1.23365
1.20118
1.15693
1.10742
1.05525
0.99851
0.938144
0.875822
0.821352
0.766668
0.712498
0.664724
0.6236
0.586419
0.551058
0.516596
0.485296
0.456382
0.431334
0.404608
0.384098
0.363967
0.348087
0.332911
0.318834
0.310534
0.30185
0.297149
0.294586
0.293613
0.293798
0.296038
0.298743
0.300738
0.302079
0.30309
0.303662
0.302334
0.298892
0.293513
0.286039
0.27503
0.263057
0.248872
0.23648
0.224617
0.216204
0.208743
0.204614
0.202195
1.00082
1.00074
1.00078
1.00086
1.00096
1.00111
1.00129
1.0015
1.00177
1.00209
1.00243
1.00284
1.00333
1.00382
1.00438
1.00504
1.00573
1.00645
1.00726
1.00815
1.00909
1.01005
1.01111
1.01228
1.01347
1.01472
1.01608
1.0176
1.01907
1.02051
1.02188
1.02344
1.02527
1.02704
1.02826
1.02914
1.02954
1.02925
1.02828
1.0248
1.03626
1.06322
1.06972
1.07287
1.07953
1.08903
1.10203
1.12511
1.1668
1.2129
1.26635
1.29741
1.3233
1.3354
1.34508
1.34644
1.34851
1.34836
1.34417
1.33526
1.32366
1.31296
1.29511
1.2758
1.25172
1.2162
1.17905
1.13935
1.087
1.02972
0.975567
0.911619
0.848099
0.791585
0.738044
0.693633
0.652597
0.614407
0.579575
0.547138
0.518375
0.491197
0.466771
0.444236
0.421773
0.402763
0.384231
0.367825
0.352386
0.335983
0.324139
0.312314
0.305017
0.295217
0.291501
0.28709
0.28683
0.286348
0.287348
0.289697
0.293999
0.297305
0.300252
0.302128
0.303717
0.304634
0.304024
0.30126
0.296694
0.290509
0.28062
0.270328
0.257341
0.246018
0.234585
0.226919
0.220042
0.216957
0.214877
1.00081
1.00073
1.00077
1.00085
1.00095
1.00109
1.00127
1.00149
1.00175
1.00207
1.00241
1.00282
1.00329
1.0038
1.00436
1.00501
1.00572
1.00645
1.00725
1.00817
1.00916
1.01014
1.01117
1.0124
1.01371
1.01501
1.01632
1.01777
1.01932
1.02077
1.02219
1.02366
1.02517
1.0266
1.02775
1.02851
1.02913
1.0291
1.02842
1.02791
1.03411
1.05271
1.05575
1.05938
1.06496
1.07309
1.08306
1.09796
1.12232
1.15532
1.21495
1.26618
1.30413
1.32077
1.33098
1.32833
1.32042
1.30902
1.29294
1.26786
1.24133
1.21205
1.17204
1.12353
1.0771
1.02066
0.958745
0.895515
0.836102
0.776981
0.728307
0.685075
0.6448
0.609369
0.576919
0.547938
0.521978
0.497916
0.475534
0.455446
0.437612
0.419747
0.404809
0.389846
0.375313
0.360315
0.347122
0.334332
0.324654
0.312905
0.304731
0.295252
0.290352
0.283997
0.282603
0.280499
0.281628
0.282283
0.28509
0.28936
0.293772
0.297498
0.301075
0.303532
0.305414
0.306784
0.307153
0.305065
0.300629
0.295242
0.286877
0.277928
0.266546
0.255981
0.245365
0.238423
0.232406
0.229548
0.227993
1.0008
1.00072
1.00076
1.00083
1.00094
1.00107
1.00126
1.00147
1.00172
1.00204
1.00239
1.00278
1.00325
1.00378
1.00434
1.00497
1.0057
1.00644
1.00724
1.00817
1.0092
1.01021
1.01124
1.0125
1.01388
1.01522
1.01651
1.01792
1.01951
1.02105
1.02252
1.02384
1.02518
1.02642
1.02776
1.02882
1.02996
1.03117
1.03424
1.03994
1.05446
1.06018
1.05965
1.06214
1.06602
1.07193
1.07894
1.08906
1.10141
1.12191
1.15605
1.19945
1.24802
1.28356
1.28559
1.27524
1.25527
1.21695
1.18131
1.13219
1.07828
1.02365
0.961117
0.892463
0.836311
0.779075
0.729069
0.687431
0.648437
0.613158
0.582959
0.556035
0.530805
0.507783
0.486694
0.468244
0.451539
0.437161
0.423034
0.409819
0.397873
0.384679
0.373791
0.362824
0.351851
0.340988
0.330683
0.31995
0.312145
0.302744
0.295988
0.288188
0.284215
0.279403
0.278931
0.278405
0.280407
0.282737
0.286308
0.290321
0.29473
0.298789
0.302895
0.306001
0.308441
0.310377
0.311517
0.310038
0.305778
0.30106
0.294184
0.286008
0.276149
0.266085
0.256452
0.249712
0.244282
0.241771
0.241241
1.00078
1.00071
1.00075
1.00082
1.00092
1.00105
1.00123
1.00145
1.0017
1.00201
1.00236
1.00275
1.00321
1.00374
1.0043
1.00493
1.00566
1.00643
1.00723
1.00817
1.0092
1.01026
1.01134
1.01257
1.01399
1.01541
1.01666
1.01801
1.01965
1.0213
1.02279
1.02405
1.02523
1.02636
1.02772
1.02908
1.03049
1.0321
1.0343
1.04435
1.05591
1.05732
1.05877
1.06164
1.06511
1.06938
1.07455
1.07989
1.08637
1.10237
1.11801
1.13474
1.17237
1.19544
1.1907
1.15549
1.10981
1.04665
0.982205
0.914827
0.852103
0.794896
0.747099
0.702716
0.663845
0.628909
0.597615
0.571175
0.547288
0.5247
0.504861
0.487445
0.47143
0.457702
0.444256
0.431915
0.41985
0.409013
0.398493
0.388619
0.37971
0.369804
0.361129
0.352219
0.343014
0.333458
0.325303
0.31537
0.308595
0.300382
0.294686
0.288301
0.285234
0.281618
0.281225
0.28128
0.283157
0.285465
0.289173
0.293241
0.297403
0.301823
0.30649
0.310213
0.313077
0.315151
0.31654
0.315854
0.312513
0.30802
0.301982
0.294346
0.285623
0.276705
0.26828
0.261561
0.256687
0.254348
0.254686
1.00077
1.0007
1.00074
1.0008
1.0009
1.00104
1.00121
1.00142
1.00167
1.00197
1.00233
1.00271
1.00317
1.0037
1.00426
1.00488
1.00561
1.0064
1.00722
1.00815
1.0092
1.01029
1.01141
1.01266
1.01406
1.0155
1.01682
1.01816
1.01974
1.02148
1.02301
1.02431
1.02542
1.02648
1.0276
1.02855
1.02899
1.02832
1.02619
1.0297
1.04438
1.04744
1.05045
1.05358
1.05628
1.05876
1.06111
1.0634
1.06359
1.06649
1.06322
1.06049
1.05195
1.05015
1.01778
0.952785
0.89352
0.834689
0.784014
0.738217
0.696125
0.659755
0.628336
0.599838
0.574666
0.551178
0.530781
0.51251
0.49793
0.484121
0.470795
0.458568
0.44666
0.436014
0.425644
0.416629
0.407206
0.398091
0.389509
0.381228
0.373998
0.36598
0.358649
0.351297
0.34382
0.335452
0.328784
0.319813
0.313766
0.306261
0.301254
0.295402
0.292265
0.288873
0.288101
0.287745
0.28892
0.291107
0.294677
0.298204
0.302194
0.307061
0.312173
0.316182
0.31905
0.320852
0.322144
0.322571
0.32039
0.316431
0.311307
0.304182
0.296264
0.287983
0.279878
0.272963
0.268776
0.266575
0.26772
1.00075
1.00068
1.00072
1.00079
1.00089
1.00101
1.00118
1.0014
1.00164
1.00193
1.00229
1.00267
1.00312
1.00364
1.00421
1.00483
1.00556
1.00636
1.0072
1.00813
1.00918
1.01029
1.01146
1.01273
1.01411
1.01555
1.01699
1.01839
1.01992
1.02163
1.02319
1.02455
1.02576
1.02679
1.02773
1.02834
1.02839
1.02712
1.02308
1.016
1.03352
1.03628
1.03994
1.04159
1.04311
1.04525
1.04635
1.04698
1.04317
1.03812
1.02882
1.00731
0.952583
0.888487
0.823962
0.77804
0.736945
0.701898
0.670215
0.641697
0.615071
0.590945
0.569997
0.550304
0.534949
0.519294
0.505025
0.490907
0.478606
0.469007
0.45973
0.450894
0.441847
0.433221
0.424536
0.416832
0.409084
0.401313
0.393874
0.386626
0.380212
0.373319
0.366607
0.359778
0.353392
0.345627
0.339731
0.331176
0.325396
0.317947
0.312969
0.306923
0.303557
0.300059
0.298519
0.297522
0.297779
0.299936
0.302631
0.305694
0.309905
0.315076
0.320201
0.323996
0.32639
0.327785
0.3292
0.330152
0.329109
0.325436
0.320916
0.314228
0.306803
0.29943
0.292012
0.285276
0.281614
0.279301
0.281018
1.00074
1.00067
1.0007
1.00077
1.00086
1.00099
1.00116
1.00136
1.00161
1.00189
1.00224
1.00263
1.00306
1.00358
1.00416
1.00478
1.00549
1.0063
1.00716
1.00808
1.00913
1.01028
1.01148
1.01276
1.01414
1.01562
1.01715
1.01861
1.02015
1.02178
1.02344
1.0249
1.02623
1.02744
1.02858
1.02966
1.03094
1.03225
1.03529
1.03665
1.04298
1.03827
1.03672
1.03556
1.03529
1.03478
1.03385
1.03294
1.02646
1.0055
0.972787
0.91193
0.821155
0.754984
0.71488
0.682579
0.656907
0.633589
0.613211
0.594459
0.57854
0.56344
0.549944
0.53631
0.524643
0.514184
0.504384
0.49503
0.48494
0.476478
0.468649
0.461114
0.453483
0.445582
0.437439
0.429734
0.422157
0.414697
0.407208
0.400201
0.393729
0.387324
0.380887
0.374026
0.368227
0.360445
0.354777
0.34622
0.340408
0.332791
0.327773
0.321402
0.317773
0.314024
0.311507
0.310209
0.309995
0.311392
0.312941
0.315778
0.319999
0.324884
0.329397
0.332831
0.335061
0.336141
0.337281
0.337809
0.337854
0.33457
0.330677
0.325421
0.318699
0.311747
0.304625
0.297636
0.294133
0.291945
0.294205
1.00072
1.00065
1.00069
1.00075
1.00084
1.00097
1.00112
1.00133
1.00157
1.00185
1.00219
1.00258
1.003
1.0035
1.00409
1.00471
1.00541
1.00622
1.0071
1.00802
1.00906
1.01023
1.01147
1.01276
1.01414
1.01567
1.01727
1.01885
1.02039
1.02194
1.02369
1.02535
1.0269
1.02833
1.02993
1.03173
1.03435
1.03728
1.04368
1.04403
1.04485
1.04238
1.04062
1.03883
1.0369
1.03265
1.02705
1.02002
1.00594
0.95856
0.892717
0.800363
0.732714
0.688673
0.658852
0.637072
0.619638
0.604924
0.591794
0.579616
0.568525
0.559137
0.550895
0.542769
0.535273
0.527961
0.52043
0.51376
0.50559
0.497508
0.48982
0.482219
0.474528
0.466566
0.458191
0.449696
0.441365
0.433513
0.425255
0.417895
0.410882
0.404485
0.398161
0.39115
0.385727
0.377789
0.372232
0.363779
0.357986
0.350262
0.345221
0.33868
0.334411
0.33012
0.326901
0.325663
0.325181
0.325425
0.326202
0.328773
0.332169
0.33611
0.339454
0.342576
0.345156
0.346313
0.346853
0.346414
0.346474
0.344011
0.340312
0.335898
0.330038
0.323569
0.31703
0.310587
0.307471
0.305174
0.307515
1.0007
1.00063
1.00067
1.00072
1.00082
1.00094
1.00109
1.00129
1.00153
1.0018
1.00213
1.00251
1.00293
1.00342
1.004
1.00462
1.00531
1.00612
1.00701
1.00793
1.00897
1.01016
1.01144
1.01273
1.0141
1.01567
1.01736
1.01907
1.02064
1.02221
1.02398
1.02586
1.0275
1.02893
1.03029
1.03133
1.03253
1.03368
1.03741
1.04326
1.04316
1.04116
1.04049
1.03984
1.03975
1.03317
1.02084
1.0014
0.957372
0.885329
0.794492
0.729946
0.687578
0.65921
0.639274
0.624444
0.612437
0.602406
0.593636
0.585917
0.578703
0.57243
0.56669
0.561319
0.556017
0.550862
0.544427
0.538968
0.532481
0.524758
0.51676
0.508102
0.499625
0.491208
0.482586
0.473618
0.464484
0.456024
0.44726
0.439274
0.431618
0.424861
0.418206
0.410964
0.405554
0.397261
0.391513
0.382956
0.376853
0.368703
0.363333
0.356532
0.351521
0.347046
0.343837
0.342322
0.341295
0.340785
0.340824
0.342514
0.344496
0.346921
0.349474
0.352706
0.355627
0.357018
0.357001
0.356067
0.355071
0.353634
0.350552
0.346994
0.342316
0.33634
0.330202
0.32372
0.320651
0.31839
0.320734
1.00068
1.00061
1.00064
1.0007
1.00079
1.00091
1.00106
1.00125
1.00148
1.00174
1.00206
1.00244
1.00286
1.00333
1.0039
1.00452
1.0052
1.00599
1.00689
1.00782
1.00886
1.01006
1.01136
1.01267
1.01407
1.01567
1.01742
1.0192
1.02091
1.02257
1.02428
1.02636
1.02815
1.02957
1.0305
1.03094
1.0302
1.02567
1.01826
1.03032
1.0335
1.03491
1.03572
1.03523
1.0337
1.02459
0.997956
0.960585
0.87349
0.790872
0.731732
0.691439
0.66488
0.646384
0.633486
0.623857
0.616092
0.609419
0.603343
0.598043
0.592899
0.588317
0.584062
0.579982
0.5755
0.571609
0.56646
0.561436
0.556313
0.54998
0.543028
0.534892
0.5266
0.518035
0.509454
0.50056
0.490939
0.481514
0.471516
0.462207
0.452893
0.444923
0.43725
0.429811
0.424408
0.416279
0.410718
0.402677
0.39644
0.388104
0.382509
0.375381
0.369825
0.364493
0.360983
0.358875
0.357191
0.35674
0.356547
0.357122
0.357579
0.358623
0.360423
0.363152
0.365865
0.367906
0.368234
0.367507
0.365473
0.363724
0.361255
0.357731
0.353769
0.348318
0.342837
0.337061
0.334265
0.332049
0.334402
1.00065
1.00059
1.00062
1.00067
1.00076
1.00087
1.00102
1.0012
1.00143
1.00168
1.00199
1.00236
1.00277
1.00323
1.00378
1.0044
1.00507
1.00584
1.00673
1.00768
1.00872
1.0099
1.01122
1.01258
1.01402
1.01565
1.01744
1.01929
1.02118
1.023
1.02486
1.0269
1.02903
1.03092
1.03231
1.033
1.03266
1.03182
1.023
1.03044
1.03149
1.03329
1.03285
1.02993
1.01777
1.00087
0.944192
0.868011
0.786304
0.731951
0.694499
0.670665
0.653408
0.641853
0.63333
0.627057
0.621841
0.617221
0.612739
0.608828
0.604992
0.601334
0.597806
0.59449
0.590551
0.587183
0.583149
0.579089
0.574883
0.570243
0.56482
0.55764
0.550371
0.542032
0.533568
0.524871
0.515192
0.505472
0.495021
0.48497
0.475204
0.466565
0.458147
0.450339
0.444357
0.436082
0.430029
0.422255
0.415679
0.40668
0.400423
0.392888
0.387291
0.381671
0.377999
0.375134
0.372802
0.371579
0.371162
0.371077
0.371065
0.371146
0.372217
0.373957
0.375857
0.37792
0.378741
0.378426
0.376483
0.374445
0.372501
0.369246
0.366083
0.361225
0.356138
0.350547
0.347486
0.345287
0.347857
1.00063
1.00056
1.0006
1.00065
1.00073
1.00084
1.00097
1.00115
1.00137
1.00162
1.00191
1.00227
1.00267
1.00312
1.00365
1.00426
1.00492
1.00567
1.00654
1.0075
1.00854
1.00969
1.011
1.01242
1.01392
1.01557
1.0174
1.01936
1.02142
1.02349
1.02554
1.02778
1.0302
1.03289
1.0355
1.03786
1.04161
1.0461
1.04231
1.0437
1.04148
1.04262
1.03689
1.02165
0.989528
0.940886
0.855565
0.782433
0.732777
0.699627
0.677074
0.661389
0.65035
0.642279
0.636442
0.63199
0.628336
0.62497
0.621651
0.618651
0.615692
0.612779
0.609616
0.606843
0.603352
0.600325
0.597001
0.593728
0.590283
0.58666
0.58263
0.577003
0.571148
0.56379
0.556015
0.54816
0.538891
0.529566
0.519341
0.508451
0.497594
0.487508
0.477642
0.46915
0.462517
0.454433
0.448311
0.441133