/*--------------------------------*- C++ -*----------------------------------*\
| =========                 |                                                 |
| \\      /  F ield         | OpenFOAM: The Open Source CFD Toolbox           |
|  \\    /   O peration     | Version:  2.2.x                                 |
|   \\  /    A nd           | Web:      www.OpenFOAM.org                      |
|    \\/     M anipulation  |                                                 |
\*---------------------------------------------------------------------------*/
FoamFile
{
    version     2.0;
    format      ascii;
    class       surfaceScalarField;
    location    "2.05";
    object      cfmax;
}
// * * * * * * * * * * * * * * * * * * * * * * * * * * * * * * * * * * * * * //

dimensions      [0 3 -1 0 0 0 0];

internalField   nonuniform List<scalar> 
28084
(
0.000746753
0.000743512
0.000740771
0.000738489
0.000736651
0.000735236
0.000734225
0.00073358
0.00073328
0.00073334
0.000733695
0.000734261
0.000735161
0.00073626
0.000737457
0.000738901
0.000740521
0.000742085
0.000743787
0.000745657
0.000747354
0.000749059
0.000750614
0.000752065
0.00075342
0.000754767
0.000755947
0.000756893
0.000757571
0.000757788
0.000757731
0.000757247
0.000756523
0.000755404
0.00075342
0.000750976
0.000748407
0.000745551
0.000741188
0.000736787
0.000735202
0.000507942
0.000393866
0.000385441
0.000384396
0.000390075
0.000396433
0.000403926
0.000411569
0.000419878
0.000427928
0.000436055
0.000444001
0.000452072
0.000460505
0.000469031
0.000477071
0.000484526
0.000491675
0.000498924
0.000506774
0.000513899
0.000520459
0.000526326
0.000531772
0.00053721
0.000543394
0.000548808
0.000553671
0.000557419
0.000560402
0.000562932
0.000565398
0.000568655
0.000571897
0.000574124
0.000575308
0.000575764
0.000575775
0.000576619
0.000577313
0.000576793
0.000575453
0.000572773
0.000570331
0.000567582
0.000564907
0.000562847
0.000562741
0.000563039
0.000561394
0.000559694
0.000559437
0.000558464
0.000563722
0.000566951
0.000571522
0.000577021
0.0005848
0.000596369
0.000608225
0.000620873
0.00063324
0.000645452
0.000655088
0.000664089
0.000673717
0.000681086
0.000678104
0.000665518
0.000626486
0.00056785
0.000525611
0.000497435
0.000482002
0.000472315
0.000463465
0.000453158
0.00144585
0.00144351
0.000750272
0.00143823
0.000749312
0.00142996
0.000748824
0.00141877
0.000748767
0.00140477
0.00074913
0.00138805
0.000749893
0.00136876
0.000751035
0.00134705
0.000752518
0.0013231
0.000754325
0.00129717
0.000756466
0.00126949
0.000758874
0.00124013
0.000761462
0.00120926
0.000764363
0.00117702
0.000767411
0.00114371
0.000770534
0.00110949
0.000773885
0.00107453
0.000777327
0.00103901
0.000780705
0.00100311
0.000784164
0.000966986
0.000787752
0.00093078
0.000791122
0.000894649
0.000794374
0.000858682
0.000797482
0.000823134
0.000800432
0.000788108
0.000803258
0.000753591
0.000805925
0.000719693
0.000808385
0.000686447
0.000810568
0.000653931
0.000812416
0.000622263
0.000813741
0.000591418
0.000814699
0.000561588
0.00081519
0.000532583
0.000815285
0.00050447
0.000814885
0.000477318
0.00081362
0.000451228
0.000811724
0.00042609
0.000809418
0.00040194
0.000807057
0.000379082
0.000803342
0.000357958
0.000798926
0.000334262
0.00079753
0.0003238
0.000549408
0.000306258
0.000427563
0.000288131
0.000418535
0.000290266
0.000417828
0.000291577
0.000423371
0.000292441
0.000429698
0.000293777
0.000437188
0.000294783
0.000444757
0.000295962
0.000453069
0.000296965
0.0004611
0.000297833
0.000469097
0.000299082
0.000477032
0.000300791
0.000485005
0.000302046
0.000493258
0.000302955
0.000501463
0.000303841
0.000509218
0.000304933
0.000516557
0.000306697
0.000523683
0.000308495
0.000530788
0.000309831
0.000538029
0.000310615
0.000544813
0.000311568
0.00055072
0.000312951
0.000556264
0.000314908
0.000561436
0.000316922
0.000566609
0.000318745
0.000572416
0.000320221
0.000577288
0.000321538
0.00058144
0.000322766
0.000584591
0.000324543
0.000587325
0.000326747
0.000589731
0.000329182
0.000592252
0.000331673
0.000594931
0.000333421
0.000597473
0.000335116
0.000598929
0.000337216
0.00059942
0.000340081
0.000599258
0.00034369
0.000598762
0.000347423
0.00059845
0.000350643
0.00059939
0.000352368
0.000598543
0.000353324
0.000597352
0.000356931
0.000594456
0.000360527
0.00059146
0.000364161
0.000588525
0.000367951
0.000585933
0.000371888
0.000583933
0.000375598
0.000582625
0.000379006
0.00058053
0.000382055
0.000578168
0.00038694
0.000576158
0.000392548
0.000577131
0.000397276
0.000577319
0.000400461
0.000582118
0.000403593
0.000585551
0.000408594
0.000591519
0.000414529
0.000596988
0.000419955
0.00060419
0.000423236
0.000612385
0.000428779
0.000623165
0.000436262
0.000634042
0.000442656
0.000644407
0.000448767
0.000656647
0.00045245
0.000666611
0.000455875
0.000673609
0.000460144
0.000678187
0.000461626
0.000670942
0.000457279
0.000646102
0.000453677
0.000618978
0.000446764
0.000585771
0.000435857
0.000544081
0.000422708
0.000508447
0.000411204
0.000485325
0.000405473
0.000470967
0.000407148
0.000459797
0.000403554
0.000450825
0.00042557
0.00044379
0.00144642
0.00144386
0.000754971
0.00143837
0.000756262
0.00142989
0.000757998
0.00141851
0.000760139
0.00140431
0.000762677
0.00138742
0.000765593
0.0013685
0.000768863
0.00134727
0.000772448
0.00132376
0.000776344
0.00129812
0.000780538
0.00127055
0.000784956
0.0012413
0.00078957
0.00121048
0.00079444
0.00117831
0.00079942
0.00114508
0.000804464
0.00111087
0.000809685
0.00107594
0.000814927
0.00104045
0.000820114
0.00100454
0.000825311
0.000968428
0.000830611
0.000932207
0.000835607
0.000895992
0.000840381
0.00086002
0.000845
0.000824452
0.000849546
0.000789365
0.000853768
0.000754757
0.000857746
0.000720801
0.000861489
0.000687507
0.000864869
0.00065492
0.000867914
0.00062318
0.000870416
0.000592275
0.000872413
0.000562293
0.000873927
0.000533231
0.000874808
0.000505056
0.000874991
0.000477791
0.000874503
0.000451661
0.000873148
0.00042617
0.000870985
0.000401735
0.000869325
0.000378906
0.000866315
0.000358011
0.000861602
0.000334911
0.000859762
0.000324589
0.00058772
0.000306945
0.000460558
0.000288115
0.000451086
0.000292586
0.000450587
0.000294885
0.000456386
0.000296261
0.000462845
0.000298074
0.000470488
0.000299259
0.000478044
0.000300622
0.000486596
0.000301601
0.000494752
0.00030232
0.0005029
0.000303601
0.000510874
0.000305356
0.000518915
0.000306965
0.000527242
0.00030783
0.000535281
0.000308096
0.000542739
0.00030922
0.00054995
0.000311201
0.000557016
0.000313261
0.00056418
0.000314458
0.00057129
0.000314961
0.000577332
0.000315219
0.000582689
0.00031643
0.000587931
0.000318337
0.000592873
0.000320576
0.000597768
0.000322544
0.000603228
0.000323945
0.000607364
0.000325066
0.000610833
0.000325799
0.000613426
0.000327322
0.000615969
0.000329492
0.000618405
0.000331944
0.000620936
0.000334209
0.000623193
0.000335646
0.000624963
0.000336586
0.000625346
0.000338396
0.000625257
0.000341497
0.00062462
0.00034364
0.000623491
0.000347592
0.00062206
0.000351462
0.00062141
0.00035446
0.000621276
0.000355537
0.00061988
0.000359099
0.00061771
0.000362963
0.000614517
0.000366685
0.000611223
0.000370901
0.00060813
0.000375286
0.000606185
0.000379363
0.000603086
0.000382812
0.000600084
0.000384721
0.000596341
0.000386642
0.000593745
0.000391459
0.000596426
0.000396083
0.000597225
0.000400033
0.000602706
0.000403896
0.000605615
0.000410996
0.000612203
0.000416573
0.000616897
0.000421651
0.000622949
0.000424625
0.000629437
0.000429457
0.000638168
0.000436529
0.000647407
0.000443428
0.000656648
0.00044965
0.000664933
0.000453376
0.00067234
0.000456622
0.000671831
0.000455351
0.000659072
0.000448967
0.000627332
0.000443489
0.000592767
0.000438605
0.000561998
0.000445427
0.000530084
0.000445617
0.000503059
0.000435059
0.000482518
0.00042633
0.000466972
0.000423253
0.000456716
0.00042919
0.000447201
0.000430341
0.000442942
0.000452893
0.000441533
0.00144587
0.00144311
0.000760848
0.00143741
0.000764359
0.00142874
0.000768288
0.00141799
0.000772596
0.00140474
0.000777278
0.00138874
0.000782317
0.00137011
0.000787683
0.00134902
0.000793347
0.00132563
0.000799309
0.00130009
0.000805528
0.00127263
0.000811933
0.00124345
0.000818552
0.00121267
0.000825351
0.00118058
0.000832207
0.00114738
0.000839204
0.00111314
0.000846248
0.00107824
0.000853249
0.00104277
0.000860236
0.00100684
0.000867169
0.000970697
0.000874139
0.000934419
0.000880754
0.000898111
0.000887053
0.000862129
0.000893146
0.000826513
0.000899317
0.000791303
0.000904914
0.000756601
0.000910177
0.000722543
0.000915165
0.0006892
0.000919794
0.000656539
0.000924064
0.00062471
0.000927816
0.000593721
0.000930874
0.000563545
0.000933379
0.000534368
0.000935086
0.000506109
0.000935781
0.000478722
0.000935989
0.000452453
0.000935237
0.000426993
0.000933725
0.000402514
0.000932508
0.000379137
0.000929777
0.000358057
0.000925025
0.000337056
0.000922951
0.000325894
0.000624355
0.000307241
0.000492651
0.000287767
0.000482487
0.00029527
0.000482715
0.000298657
0.000489298
0.00030062
0.000496206
0.000302851
0.000504225
0.000304389
0.000512028
0.000305969
0.000520871
0.00030689
0.000529219
0.000307563
0.000537639
0.000308923
0.000545849
0.000310978
0.000554046
0.000312619
0.000562345
0.000313117
0.000570114
0.000313383
0.000577504
0.000314476
0.000584948
0.000316468
0.000592163
0.0003185
0.000599241
0.000319566
0.000605776
0.000319851
0.00061163
0.000319845
0.000616818
0.00032088
0.000622017
0.000322656
0.000626666
0.000324755
0.000630999
0.000326413
0.000635361
0.00032763
0.000638831
0.000328438
0.000641891
0.000329203
0.000644515
0.000330695
0.000647068
0.000332817
0.000649362
0.00033507
0.000651414
0.000336939
0.000652573
0.000338522
0.000652966
0.000339457
0.000653083
0.000340626
0.000652893
0.000342681
0.00065205
0.000344968
0.000650698
0.000347787
0.000648403
0.000351185
0.000646019
0.000354383
0.000644198
0.000356958
0.000643167
0.00036168
0.000641684
0.000365618
0.000638727
0.000369108
0.000635326
0.000372546
0.000631253
0.000376539
0.000628204
0.000380822
0.000624626
0.000384226
0.000620862
0.000386885
0.000616664
0.000389707
0.000614074
0.000391915
0.00061727
0.000396053
0.000618654
0.000401386
0.000622917
0.000406936
0.000625113
0.000412763
0.000630842
0.000417654
0.000635015
0.000421364
0.000640033
0.000423473
0.000645725
0.000429289
0.000652
0.00043599
0.000658486
0.000443063
0.000664591
0.000448089
0.000669278
0.000450352
0.00066733
0.000447661
0.000646494
0.000436292
0.000614644
0.000433325
0.000577522
0.000430217
0.000535137
0.000442931
0.00050265
0.000456264
0.000481584
0.000460412
0.000468238
0.000454175
0.000460271
0.000446952
0.000451965
0.000443607
0.000444724
0.000448872
0.000438056
0.000452456
0.000437146
0.000471716
0.000439192
0.00144422
0.00144188
0.000767906
0.00143766
0.0007736
0.00143041
0.000779686
0.0014202
0.000786128
0.00140712
0.000792921
0.00139127
0.000800051
0.00137278
0.000807484
0.00135182
0.000815192
0.00132854
0.000823188
0.00130309
0.000831403
0.00127572
0.00083977
0.0012466
0.000848369
0.00121584
0.000857071
0.0011838
0.000865786
0.00115062
0.000874693
0.00111635
0.000883532
0.00108143
0.000892278
0.00104595
0.000901016
0.00100998
0.000909709
0.000973758
0.000918285
0.000937406
0.000926503
0.000901031
0.000934342
0.000865009
0.000941907
0.00082929
0.000949617
0.000793921
0.000956618
0.000759109
0.000963164
0.00072495
0.000969385
0.00069153
0.000975295
0.000658804
0.000980814
0.000626857
0.000985803
0.00059576
0.000990016
0.000565386
0.000993512
0.00053604
0.000996088
0.000507658
0.000997341
0.000480168
0.000998296
0.000453712
0.000998312
0.000428354
0.000997467
0.000403774
0.000996574
0.000379776
0.000994125
0.000358535
0.000989248
0.000340858
0.00098768
0.000328545
0.000662178
0.000307686
0.000524463
0.000288196
0.000513464
0.000298665
0.000514644
0.000303164
0.000521904
0.000305746
0.000529572
0.000308447
0.000538404
0.000310334
0.000546875
0.000312125
0.000556193
0.000313156
0.000565057
0.000313866
0.000574225
0.000315366
0.000583044
0.000317526
0.00059177
0.000318947
0.00060014
0.000319586
0.000607759
0.000320061
0.000615305
0.000321143
0.000623283
0.000322757
0.00063095
0.00032463
0.000637685
0.00032615
0.000643583
0.000326446
0.000648796
0.000326173
0.000653824
0.000326772
0.000659093
0.000328118
0.000663603
0.000329851
0.000667153
0.000331232
0.000670272
0.000332249
0.000672937
0.000332958
0.000675315
0.000333811
0.000677733
0.000335117
0.000680168
0.000336731
0.000682068
0.000338593
0.000682853
0.000340334
0.000682783
0.000341994
0.000682109
0.000343089
0.000681711
0.000343954
0.000681336
0.000345148
0.000680652
0.000347994
0.000678579
0.00035093
0.000676104
0.000353724
0.000672788
0.00035696
0.000669111
0.00036113
0.000666432
0.000365275
0.000665498
0.000369148
0.000662629
0.000372796
0.000659523
0.000375671
0.000655683
0.00037878
0.000651346
0.000382386
0.000647131
0.000386691
0.000643659
0.000390695
0.000640154
0.000394122
0.000638086
0.000397213
0.000641157
0.00040052
0.000641884
0.000405102
0.000644554
0.000409458
0.000645535
0.000413444
0.000649395
0.000417522
0.000652365
0.000419938
0.00065656
0.000422293
0.000659695
0.000428171
0.000663996
0.000434292
0.000666364
0.000438807
0.000668631
0.000440398
0.000660998
0.000436281
0.000636586
0.00042662
0.000604625
0.000425054
0.000568577
0.000432279
0.000522846
0.000444039
0.000487146
0.000455483
0.000465458
0.000464399
0.00045436
0.000466185
0.000447733
0.00046313
0.000443933
0.000460345
0.000440466
0.000458207
0.00043561
0.000464389
0.000432694
0.000470088
0.000434387
0.00048615
0.000438377
0.00144573
0.00144467
0.000776149
0.00144063
0.000783986
0.00143355
0.00079219
0.0014235
0.000800728
0.00141058
0.000809595
0.00139486
0.000818779
0.00137651
0.000828244
0.00135566
0.000837964
0.00133247
0.000847955
0.0013071
0.000858132
0.00127981
0.000868438
0.00125073
0.000878974
0.00121999
0.000889557
0.00118798
0.000900111
0.00115478
0.000910865
0.00112048
0.000921486
0.0010855
0.000931965
0.00104999
0.000942406
0.00101398
0.000952852
0.000977624
0.000962978
0.000941145
0.000972771
0.00090474
0.000982189
0.00086863
0.000991312
0.000832742
0.00100035
0.000797261
0.00100878
0.0007623
0.00101668
0.000728039
0.00102416
0.000694506
0.00103129
0.00066171
0.00103798
0.00062962
0.00104426
0.000598367
0.00104972
0.000567857
0.00105432
0.000538305
0.00105801
0.000509799
0.00105997
0.00048222
0.00106169
0.000455613
0.00106263
0.000430097
0.00106235
0.000405315
0.00106103
0.000380716
0.0010596
0.000359871
0.00105363
0.000347279
0.0010505
0.000332672
0.000701047
0.000308811
0.000558054
0.000289371
0.000545233
0.000303037
0.000547288
0.000308733
0.000555708
0.00031215
0.000564607
0.000315366
0.000574759
0.000317588
0.000584139
0.000319578
0.000594022
0.000320929
0.000603753
0.000321831
0.000613616
0.000323396
0.000623605
0.000325448
0.000632962
0.000326929
0.000641478
0.00032737
0.000649016
0.000328095
0.000656358
0.000329155
0.000663537
0.000330547
0.000670892
0.000331756
0.000677864
0.000332934
0.000683002
0.00033362
0.000687485
0.000333562
0.00069212
0.000333593
0.000696959
0.000334355
0.000701148
0.000335423
0.000704262
0.000336366
0.000706294
0.000336884
0.00070777
0.000337508
0.000709497
0.000338732
0.000711589
0.000339981
0.000713782
0.000340978
0.000715379
0.000342141
0.00071479
0.000343504
0.000713866
0.000345062
0.000712608
0.000346562
0.000711102
0.000347563
0.000710259
0.000348301
0.000709562
0.000350693
0.000706962
0.00035477
0.000704389
0.000358856
0.000700535
0.00036285
0.000696346
0.000366189
0.00069201
0.000369405
0.00068879
0.000372756
0.000687671
0.000375934
0.000683632
0.000378772
0.000680596
0.000381829
0.000677629
0.000385474
0.000674176
0.000390521
0.000671242
0.000395131
0.000668298
0.000398852
0.000666233
0.000402622
0.000667553
0.000405567
0.000666094
0.000408996
0.00066756
0.000412026
0.000666921
0.000414133
0.000668193
0.000416707
0.000669073
0.000420314
0.000671179
0.000423233
0.000671923
0.000425774
0.00067175
0.000427375
0.000669391
0.000427748
0.000653124
0.000426854
0.000631315
0.000422161
0.000600911
0.000420881
0.0005586
0.00043611
0.000514294
0.000449344
0.000478836
0.00045943
0.000458058
0.000466855
0.000446943
0.00047053
0.000440421
0.000470594
0.000436484
0.000470322
0.000434452
0.000470265
0.000433302
0.000469864
0.00043052
0.000476746
0.000430053
0.000484079
0.000433369
0.000497915
0.000438289
0.00144946
0.00144857
0.000785583
0.00144469
0.000795518
0.00143777
0.000805797
0.00142788
0.00081639
0.00141509
0.00082729
0.00139951
0.000838487
0.00138127
0.000849946
0.00136053
0.000861643
0.00133743
0.000873586
0.00131212
0.000885691
0.00128488
0.000897903
0.00125582
0.000910325
0.0012251
0.000922762
0.00119309
0.000935138
0.00115985
0.000947687
0.00112554
0.000960068
0.00109047
0.000972261
0.00105487
0.000984386
0.00101879
0.00099651
0.000982288
0.00100816
0.000945693
0.00101948
0.000909231
0.00103055
0.000872962
0.00104123
0.000836908
0.00105149
0.000801301
0.00106136
0.000766217
0.00107071
0.000731786
0.00107949
0.000698099
0.00108778
0.000665178
0.00109566
0.000632986
0.00110298
0.000601585
0.00110987
0.000571006
0.00111588
0.000541216
0.00112077
0.000512592
0.00112391
0.000484905
0.0011264
0.000458158
0.00112841
0.000432364
0.00112911
0.000407482
0.00112817
0.000382161
0.00112639
0.000362696
0.00112119
0.000356524
0.00111643
0.000339093
0.000750622
0.000310561
0.000593693
0.000291251
0.000578764
0.000308932
0.000582146
0.000316284
0.000592342
0.000320422
0.000602763
0.000324143
0.000614665
0.000326591
0.000625017
0.000328567
0.000635892
0.000330422
0.000646458
0.000331724
0.000656806
0.000333189
0.000666969
0.000334918
0.000676531
0.000336036
0.00068496
0.000336274
0.000692649
0.00033639
0.000699325
0.000336797
0.000706304
0.000337774
0.000711034
0.000338497
0.00071712
0.000338314
0.000722317
0.000338942
0.000727798
0.000339891
0.000731661
0.000340209
0.000735171
0.000340112
0.000738917
0.000340299
0.00074152
0.000340715
0.000743213
0.00034117
0.000744028
0.00034156
0.000744817
0.000342234
0.000746432
0.000343347
0.000748778
0.00034432
0.000749552
0.000344988
0.000748034
0.000345645
0.000745967
0.000346692
0.000744202
0.000348198
0.000742135
0.000350139
0.000740655
0.000351601
0.000739582
0.000353328
0.000736701
0.000357809
0.000733821
0.000362436
0.000730203
0.000367418
0.000725718
0.0003719
0.000722059
0.000374336
0.000719258
0.000376334
0.000716346
0.000378949
0.000715253
0.000382208
0.000711546
0.000385635
0.000709286
0.000390042
0.000704817
0.000394781
0.000701545
0.000399757
0.000697855
0.000403571
0.000693997
0.000406852
0.000693422
0.000409356
0.000690439
0.000411547
0.000690243
0.00041328
0.00068777
0.000415482
0.000685625
0.000418056
0.000683617
0.00042139
0.000683726
0.00042389
0.000680813
0.000426276
0.000668468
0.000427164
0.000653778
0.000425392
0.000627785
0.000421759
0.000594024
0.000424822
0.000550176
0.000441523
0.00050818
0.000454831
0.000476086
0.000464591
0.000456449
0.000471395
0.000444959
0.000474569
0.00043803
0.000475446
0.000433569
0.000475416
0.000431269
0.000476427
0.000430214
0.000478594
0.000430432
0.000480082
0.0004287
0.00048716
0.000429341
0.00049508
0.000433157
0.00050705
0.000438391
0.0014543
0.00145356
0.000796214
0.00144983
0.000808199
0.00144307
0.000820506
0.00143331
0.000833108
0.00142066
0.000845997
0.0014052
0.000859161
0.00138707
0.000872573
0.00136642
0.000886206
0.00134339
0.000900057
0.00131815
0.000914051
0.00129094
0.000928135
0.00126188
0.000942397
0.00123118
0.000956653
0.00119914
0.000970821
0.00116584
0.000985106
0.0011315
0.000999231
0.00109633
0.00101311
0.00106063
0.00102687
0.00102442
0.00104064
0.000987751
0.00105381
0.000951049
0.00106656
0.00091449
0.00107932
0.000878018
0.00109141
0.000841788
0.00110293
0.000806041
0.00111405
0.000770849
0.00112508
0.00073621
0.00113522
0.000702295
0.0011447
0.000669231
0.00115368
0.000636938
0.00116211
0.000605521
0.00117026
0.000574873
0.0011778
0.000544942
0.00118457
0.000516114
0.00118985
0.000488255
0.00119273
0.00046136
0.0011957
0.000435368
0.00119763
0.000410365
0.00119793
0.000384522
0.00119658
0.00036732
0.00119216
0.000369509
0.00118408
0.000346539
0.000820203
0.00031242
0.00063156
0.000295453
0.00061484
0.000317505
0.000621668
0.000326231
0.000634771
0.000331332
0.000647285
0.000335342
0.000661094
0.000337692
0.000672598
0.000339687
0.000683926
0.000341282
0.000694452
0.000342291
0.000704748
0.000343287
0.00071331
0.000344025
0.000721998
0.000344617
0.000730532
0.000344424
0.000738138
0.000343988
0.000744319
0.000343694
0.000750788
0.000343698
0.000755377
0.000344709
0.000760352
0.000344976
0.00076583
0.000343526
0.000770913
0.000343565
0.000775316
0.000344828
0.000778283
0.00034515
0.000779956
0.000344375
0.000782016
0.000343892
0.000783868
0.00034457
0.000784756
0.000345415
0.000784964
0.000346332
0.000784774
0.000347044
0.000785453
0.00034706
0.000787277
0.000347295
0.00078572
0.000347475
0.000782217
0.000347645
0.000779419
0.00034831
0.00077807
0.000349944
0.000776438
0.000352764
0.00077745
0.000356899
0.000775617
0.000361161
0.000773856
0.000365915
0.000771052
0.000370857
0.000767787
0.000374887
0.000764392
0.000378669
0.000759474
0.000380708
0.000754824
0.000383438
0.000750855
0.000386808
0.000749174
0.000391158
0.000743632
0.000396208
0.000737944
0.000400823
0.000733784
0.000404329
0.000727975
0.000407473
0.000721888
0.000409965
0.000718632
0.000412266
0.000713423
0.000414405
0.000709628
0.000416031
0.000706748
0.000417367
0.000702014
0.000419946
0.000694998
0.000423178
0.000689446
0.000424851
0.000672704
0.000425279
0.000649976
0.000424454
0.000626563
0.000422157
0.000586824
0.000430674
0.000542643
0.000447436
0.000505081
0.000460474
0.000477726
0.000469812
0.000459187
0.00047706
0.000447771
0.000480546
0.000439642
0.000480465
0.000435459
0.000480063
0.000431595
0.00048081
0.000429924
0.000482726
0.000429191
0.000486365
0.000430175
0.00048916
0.000429398
0.00049605
0.000430108
0.000503946
0.0004336
0.000514368
0.000439098
0.00146023
0.00145963
0.000808052
0.00145605
0.000822035
0.00144942
0.000836318
0.0014398
0.000850878
0.00142727
0.000865707
0.00141193
0.00088079
0.0013939
0.00089611
0.00137333
0.000911635
0.00135035
0.000927343
0.00132516
0.000943182
0.00129798
0.000959105
0.00126891
0.000975148
0.0012382
0.000991185
0.0012061
0.00100712
0.00117273
0.00102307
0.00113832
0.00103891
0.00110305
0.00105446
0.00106722
0.00106982
0.00103088
0.00108517
0.000994045
0.00109985
0.000957236
0.00111404
0.000920448
0.00112835
0.000883788
0.00114189
0.000847367
0.00115473
0.000811515
0.00116708
0.000776125
0.00117956
0.000741286
0.0011912
0.00070711
0.00120194
0.000673851
0.00121206
0.000641495
0.00122163
0.000609955
0.001231
0.000579316
0.00123991
0.000549525
0.00124827
0.000520264
0.00125595
0.000492351
0.00126106
0.000465329
0.00126495
0.000439299
0.00126869
0.000414124
0.00127119
0.000388421
0.00127171
0.000371066
0.00127025
0.000383408
0.00126235
0.000356399
0.00092601
0.000314937
0.000677041
0.000303232
0.000654471
0.000329543
0.000668318
0.000339297
0.000685382
0.000345696
0.000701008
0.000349642
0.00071591
0.000351505
0.000727899
0.000352395
0.000738516
0.000352143
0.000748903
0.00035231
0.000758463
0.000352479
0.000766356
0.000353117
0.000774797
0.000352658
0.000782001
0.000352156
0.000788656
0.00035243
0.00079517
0.000350665
0.000800002
0.000349005
0.000804077
0.000349697
0.000808692
0.000350601
0.000813076
0.000350306
0.000816242
0.00034904
0.000820317
0.000348538
0.000824087
0.000349055
0.000827796
0.000349017
0.000831475
0.000347813
0.000837095
0.00034678
0.000840117
0.000347333
0.000841099
0.000348863
0.000839848
0.00034973
0.000838747
0.000350155
0.000841105
0.000349716
0.000844606
0.00034938
0.000843117
0.000349255
0.000840951
0.000349485
0.000836581
0.000353638
0.000832777
0.000357875
0.000831336
0.000361676
0.000828533
0.000365297
0.000825076
0.000369233
0.000820624
0.000373349
0.000815927
0.000377521
0.000811071
0.000382024
0.000804122
0.000386012
0.000796396
0.000389609
0.000789178
0.000393183
0.000784942
0.000396696
0.000780592
0.000400808
0.000772883
0.000404928
0.000767578
0.000408441
0.000758777
0.000411446
0.000748673
0.000413238
0.000743514
0.000415044
0.000735461
0.000417592
0.000727329
0.000418408
0.000722616
0.000419151
0.000706285
0.00042091
0.000689976
0.000422635
0.000675828
0.000422695
0.000652501
0.000420797
0.000618574
0.000422198
0.000580424
0.000436091
0.000535879
0.000452071
0.000503366
0.000465583
0.000480545
0.000475521
0.000464319
0.000482369
0.000453145
0.00048608
0.000444548
0.000486558
0.000439413
0.000485473
0.000435737
0.000485165
0.000432458
0.000486375
0.000430996
0.000489162
0.000430647
0.000493818
0.000431972
0.000497465
0.000431502
0.000503993
0.000431769
0.000511601
0.000434812
0.000521112
0.000440554
0.00146724
0.00146677
0.000821109
0.00146332
0.000837032
0.00145682
0.000853235
0.00144733
0.000869698
0.00143491
0.000886414
0.00141968
0.000903364
0.00140174
0.00092054
0.00138123
0.000937909
0.00135831
0.000955418
0.00133315
0.000973057
0.00130597
0.00099078
0.00127689
0.00100854
0.00124615
0.0010263
0.00121397
0.00104399
0.00118053
0.00106156
0.00114601
0.00107905
0.00111064
0.00109625
0.00107466
0.00111321
0.00103808
0.00113002
0.00100115
0.0011462
0.000964183
0.00116189
0.000927122
0.00117758
0.000890252
0.00119263
0.000853683
0.00120688
0.000817601
0.00122051
0.000782027
0.00123393
0.000746914
0.001247
0.000712592
0.00125946
0.000679125
0.00127092
0.000646598
0.00128169
0.00061491
0.00129227
0.000584201
0.00130213
0.000554531
0.00131139
0.000525407
0.00132161
0.00049727
0.00133014
0.000470245
0.00133733
0.000444296
0.00134355
0.000419308
0.0013493
0.000394141
0.00135423
0.000374537
0.00135954
0.000389129
0.00135505
0.00036917
0.00111658
0.000317106
0.000736752
0.000315781
0.000702322
0.000346321
0.000722997
0.000356385
0.000745746
0.000362257
0.000765141
0.000365119
0.000781643
0.000366535
0.000794226
0.000366903
0.000804069
0.000365035
0.000810919
0.000363677
0.000818999
0.000362765
0.000826005
0.000361353
0.000832144
0.000360944
0.000838535
0.000360075
0.00084377
0.000358678
0.000849404
0.000358119
0.000852248
0.000356344
0.000855892
0.000353477
0.000863216
0.00035394
0.000871509
0.000355514
0.000877874
0.000354391
0.000882899
0.00035232
0.000890378
0.000353079
0.00089496
0.000353262
0.000897374
0.000352328
0.000899615
0.000350006
0.000902844
0.00034869
0.000904235
0.000349197
0.000903449
0.000350823
0.000899742
0.000352236
0.000897257
0.000352198
0.000897622
0.000350894
0.000897552
0.000350392
0.000894613
0.00035332
0.000890643
0.000357168
0.000885454
0.000361453
0.000879478
0.000365604
0.000875184
0.000369546
0.000869618
0.000374028
0.000863568
0.000378208
0.00085728
0.000382805
0.000850907
0.000387977
0.000842877
0.000392295
0.000833429
0.000395945
0.000823983
0.000398503
0.00081482
0.000401739
0.000807413
0.00040508
0.000800251
0.000408201
0.000793232
0.000411369
0.000782091
0.000415009
0.000767787
0.00041657
0.000759028
0.00041763
0.000741448
0.000419601
0.000728868
0.000418547
0.000719923
0.000418831
0.000691872
0.000420064
0.000672598
0.000420699
0.000646994
0.00041921
0.000614991
0.000425004
0.000572698
0.000440632
0.000532221
0.000455281
0.000502489
0.000468888
0.000482965
0.000479889
0.000469863
0.000487141
0.000459552
0.000491023
0.000451456
0.000492184
0.000445231
0.000491547
0.000441342
0.000490132
0.000437665
0.000490413
0.000434966
0.000491947
0.000434046
0.000495748
0.000434048
0.000500853
0.000434743
0.000504772
0.000433766
0.000511092
0.000434413
0.000518794
0.000437183
0.000528003
0.000442752
0.00147531
0.00147496
0.000835398
0.00147163
0.000853198
0.00146526
0.000871262
0.00145588
0.000889569
0.00144357
0.000908115
0.00142844
0.000926875
0.00141057
0.000945852
0.00139012
0.000965008
0.00136725
0.000984265
0.00134212
0.00100365
0.0013149
0.00102313
0.00128581
0.00104255
0.00125503
0.00106198
0.00122275
0.00108137
0.00118921
0.00110054
0.00115458
0.00111955
0.00111911
0.00113844
0.00108292
0.00115694
0.00104612
0.00117515
0.00100907
0.00119287
0.000971859
0.00121009
0.000934585
0.00122694
0.000897467
0.00124349
0.000860692
0.00125924
0.000824338
0.0012742
0.000788424
0.00128851
0.000753361
0.00130248
0.000718778
0.00131695
0.000685058
0.00133013
0.000652304
0.00134227
0.000620245
0.00135381
0.000589429
0.00136472
0.000559577
0.0013746
0.000531404
0.00138546
0.000503185
0.0013988
0.000476352
0.00141059
0.000450364
0.00142112
0.000426378
0.00143106
0.00040265
0.00144119
0.000374016
0.00145585
0.000418161
0.0014667
0.000383302
0.00141731
0.00032106
0.000841148
0.00033053
0.000764352
0.000365025
0.000794408
0.000376679
0.000819406
0.000381743
0.000840181
0.00038293
0.000856005
0.00038157
0.000866906
0.000379018
0.000873084
0.000376268
0.000875174
0.00037441
0.000883991
0.000371982
0.000888814
0.000370253
0.000892422
0.00036875
0.00089788
0.000366335
0.000900422
0.000364816
0.000908074
0.000364131
0.000915617
0.000362268
0.000923653
0.000359744
0.000932492
0.000357472
0.000939524
0.000357547
0.000942905
0.000357744
0.000947394
0.000356545
0.000950849
0.000355032
0.000954947
0.000355809
0.000955717
0.000356049
0.000955879
0.000355103
0.000958005
0.000351807
0.000959268
0.000350275
0.000957006
0.000350999
0.000954043
0.000352384
0.000949162
0.000353371
0.000946811
0.000352663
0.000944538
0.000353263
0.000941063
0.000357566
0.000935558
0.000361642
0.000929623
0.000365916
0.000921861
0.000371117
0.000913408
0.00037592
0.000905977
0.00038004
0.000897977
0.000384192
0.000891035
0.000388527
0.000881714
0.00039339
0.000872611
0.000397558
0.000862998
0.00040094
0.000849718
0.000404279
0.000836936
0.000407088
0.000825607
0.000410209
0.000816512
0.000412476
0.000806582
0.00041517
0.000788078
0.000417541
0.000770403
0.000417819
0.000753512
0.000417714
0.000728918
0.000418218
0.000711034
0.000418555
0.000701316
0.00041871
0.000664213
0.000417579
0.00063952
0.00041821
0.00060059
0.000429492
0.000561088
0.000444911
0.000529103
0.000457883
0.000502793
0.00047122
0.000486498
0.000482455
0.000476161
0.000489944
0.000466656
0.000494962
0.000458535
0.000496969
0.000452533
0.000497015
0.000447814
0.000495948
0.000444233
0.000494713
0.000440385
0.000495569
0.000438499
0.000497905
0.000438168
0.000502398
0.000438205
0.000507098
0.000437298