/*--------------------------------*- C++ -*----------------------------------*\
| =========                 |                                                 |
| \\      /  F ield         | OpenFOAM: The Open Source CFD Toolbox           |
|  \\    /   O peration     | Version:  2.2.x                                 |
|   \\  /    A nd           | Web:      www.OpenFOAM.org                      |
|    \\/     M anipulation  |                                                 |
\*---------------------------------------------------------------------------*/
FoamFile
{
    version     2.0;
    format      ascii;
    class       surfaceScalarField;
    location    "2.05";
    object      phi;
}
// * * * * * * * * * * * * * * * * * * * * * * * * * * * * * * * * * * * * * //

dimensions      [1 0 -1 0 0 0 0];

internalField   nonuniform List<scalar> 
28084
(
0.000746226
0.000742994
0.00074022
0.000737888
0.000735972
0.000734455
0.000733315
0.000732529
0.00073205
0.00073186
0.000731983
0.000732339
0.000732845
0.000733619
0.000734568
0.000735538
0.000736714
0.000738004
0.000739205
0.000740534
0.000741978
0.000743379
0.000744735
0.000746055
0.000747287
0.000748428
0.000749561
0.000750632
0.000751694
0.000752586
0.000753318
0.000753849
0.000754162
0.000754642
0.000754984
0.000755039
0.000754933
0.000755052
0.00075597
0.000755654
0.00075423
0.000749459
0.000743617
0.000738998
0.000738515
0.000751092
0.000767726
0.000786423
0.000806961
0.000828104
0.000848907
0.000868469
0.000886967
0.000905721
0.000926571
0.000947943
0.000966157
0.000982232
0.00099743
0.00101409
0.00103438
0.00105056
0.0010635
0.00107586
0.00108755
0.00110051
0.00111838
0.0011338
0.00114228
0.00114823
0.00115322
0.00115783
0.00116378
0.00117456
0.00118656
0.00119144
0.00119397
0.00119513
0.00119513
0.0012015
0.00120973
0.00120698
0.00120053
0.00119092
0.00118416
0.00117765
0.00117337
0.00117316
0.00118175
0.00119305
0.00119377
0.00119093
0.00118448
0.00117563
0.00115888
0.00114708
0.00114078
0.00113927
0.00114399
0.00115761
0.00117117
0.00117759
0.00118204
0.00118228
0.00117532
0.00118386
0.00120023
0.00123251
0.0012736
0.00129872
0.00130591
0.00125126
0.00111688
0.000951471
0.000789323
0.000630623
0.00044637
0.000271633
3.71221e-06
3.23511e-06
0.000749743
2.77615e-06
0.00074879
2.33466e-06
0.000748267
1.91714e-06
0.000748158
1.51948e-06
0.00074844
1.14498e-06
0.000749095
7.9682e-07
0.000750105
4.74888e-07
0.000751441
1.74146e-07
0.000753057
-9.17765e-08
0.00075494
-3.33442e-07
0.000757106
-5.59574e-07
0.000759461
-7.37658e-07
0.000761948
-8.89442e-07
0.000764666
-1.05059e-06
0.000767507
-1.14954e-06
0.000770339
-1.22543e-06
0.000773339
-1.3078e-06
0.000776389
-1.31485e-06
0.000779319
-1.36322e-06
0.000782322
-1.41447e-06
0.000785385
-1.31702e-06
0.000788374
-1.24757e-06
0.000791245
-1.27462e-06
0.000793993
-1.25658e-06
0.000796644
-1.1477e-06
0.000799168
-1.05823e-06
0.000801575
-9.52477e-07
0.00080386
-8.20429e-07
0.000806065
-7.22045e-07
0.00080807
-5.81144e-07
0.000809856
-5.24126e-07
0.000811436
-4.50034e-07
0.000812739
-3.22356e-07
0.000814096
-1.78273e-07
0.000815271
-5.44882e-08
0.000816158
2.69734e-07
0.00081667
4.30063e-07
0.000817286
1.97465e-07
0.000818879
6.13271e-07
0.000819174
2.49622e-07
0.000817953
4.89429e-06
0.000811363
5.3234e-06
0.000804224
1.16381e-06
0.000799821
-1.19248e-05
0.000800111
-1.62157e-05
0.000812742
-1.80753e-05
0.000829696
-2.01609e-05
0.000848863
-2.03471e-05
0.00087005
-2.09672e-05
0.000891936
-2.05222e-05
0.000913207
-1.9107e-05
0.000932689
-1.87775e-05
0.000951939
-2.02518e-05
0.000971131
-2.08524e-05
0.000991408
-1.92351e-05
0.00101136
-1.69622e-05
0.00102844
-1.52829e-05
0.00104469
-1.62724e-05
0.00106058
-1.79554e-05
0.00107644
-1.75826e-05
0.0010934
-1.55176e-05
0.00110878
-1.26539e-05
0.00112144
-1.09655e-05
0.00113394
-1.14037e-05
0.00114553
-1.30336e-05
0.0011574
-1.36999e-05
0.00117391
-1.27643e-05
0.00118707
-1.0641e-05
0.00119507
-7.46251e-06
0.00120107
-5.50668e-06
0.00120668
-5.10401e-06
0.00121121
-6.08953e-06
0.00121689
-6.87163e-06
0.00122492
-5.16854e-06
0.00123382
-2.02589e-06
0.00123883
6.81764e-07
0.00124145
1.5589e-06
0.00124156
-1.04969e-06
0.00123983
-5.65123e-06
0.00124279
-8.75085e-06
0.00125388
-7.23278e-06
0.00125529
-1.18529e-06
0.00124991
3.20635e-06
0.00123952
4.60263e-06
0.0012315
6.293e-06
0.00122487
9.43206e-06
0.00122113
1.24153e-05
0.00122133
1.40475e-05
0.00122567
1.18518e-05
0.00122403
6.32024e-06
0.00121811
2.16375e-07
0.00121368
-6.69908e-06
0.00121131
-1.17896e-05
0.00120535
-1.03141e-05
0.00119818
-1.68353e-06
0.00119339
6.19675e-06
0.00118714
9.30771e-06
0.0011833
1.16256e-05
0.00118364
7.05108e-06
0.00118601
-8.8503e-07
0.00119104
-7.68262e-06
0.00119406
-1.30577e-05
0.00119517
-2.05889e-05
0.00119744
-1.66566e-05
0.0012034
-1.51117e-05
0.00121303
-1.7211e-05
0.00122772
-2.11954e-05
0.0012466
-2.15557e-05
0.001262
-1.01498e-05
0.0012622
4.80497e-05
0.00119938
0.000127337
0.0010503
0.000169461
0.000892928
0.000168229
0.000758428
0.000161199
0.000626671
0.000182081
0.000484913
0.000170829
0.000326319
0.000274753
0.000167811
5.11235e-06
4.19084e-06
0.000754438
3.30165e-06
0.000755735
2.44699e-06
0.000757435
1.63654e-06
0.000759521
8.65684e-07
0.000761974
1.41805e-07
0.000764777
-5.29283e-07
0.000767914
-1.14614e-06
0.000771343
-1.71954e-06
0.000775031
-2.22453e-06
0.000778969
-2.67886e-06
0.000783143
-3.09226e-06
0.000787476
-3.4118e-06
0.000791937
-3.68565e-06
0.000796565
-3.95461e-06
0.000801264
-4.10821e-06
0.000805966
-4.22303e-06
0.000810759
-4.33347e-06
0.000815537
-4.31635e-06
0.000820193
-4.35769e-06
0.000824853
-4.36211e-06
0.000829527
-4.16263e-06
0.000834077
-3.96911e-06
0.000838426
-3.97126e-06
0.000842612
-3.8426e-06
0.000846676
-3.59239e-06
0.000850557
-3.34035e-06
0.000854252
-3.06978e-06
0.00085769
-2.75765e-06
0.000860976
-2.49998e-06
0.000864101
-2.20569e-06
0.000866971
-1.98019e-06
0.000869627
-1.79084e-06
0.000872058
-1.46445e-06
0.00087422
-1.10489e-06
0.00087616
-8.1413e-07
0.000877833
-2.06306e-07
0.000878658
1.31311e-07
0.000879705
-6.13826e-08
0.000881925
1.12997e-06
0.000882992
1.99792e-06
0.0008814
1.09074e-05
0.000870831
1.02849e-05
0.000859396
1.45131e-06
0.000854922
-2.40183e-05
0.000856352
-3.29226e-05
0.000869998
-3.68285e-05
0.000887946
-4.10086e-05
0.000908119
-4.14671e-05
0.000930232
-4.27783e-05
0.000954116
-4.11793e-05
0.000976592
-3.87545e-05
0.000997175
-3.74493e-05
0.00101725
-3.95735e-05
0.00103748
-4.10827e-05
0.00105886
-3.80616e-05
0.00107868
-3.32139e-05
0.00109564
-3.07482e-05
0.00111216
-3.26332e-05
0.00112781
-3.54044e-05
0.00114443
-3.43775e-05
0.001162
-3.00849e-05
0.00117498
-2.41407e-05
0.00118529
-2.14504e-05
0.00119656
-2.22738e-05
0.00120721
-2.50491e-05
0.0012192
-2.60745e-05
0.00123569
-2.42804e-05
0.00124694
-2.05227e-05
0.0012531
-1.45942e-05
0.00125847
-1.17023e-05
0.00126479
-1.14979e-05
0.0012695
-1.25349e-05
0.00127546
-1.27421e-05
0.00128277
-9.27295e-06
0.00128962
-2.99726e-06
0.00129178
1.32246e-06
0.00129211
2.82386e-06
0.00129107
-5.95778e-08
0.00128831
-6.14726e-06
0.00128766
-8.68256e-06
0.00129135
-8.47217e-06
0.00129767
-2.38347e-06
0.00129638
5.96039e-06
0.00129091
8.91443e-06
0.00128399
1.06508e-05
0.0012769
1.39328e-05
0.0012716
1.98196e-05
0.00127206
2.1626e-05
0.00126826
2.03819e-05
0.00125875
1.25357e-05
0.00124809
3.33845e-06
0.00124011
-5.37771e-06
0.00124024
-7.84581e-06
0.00124168
-5.71359e-06
0.00124012
-1.12739e-07
0.00123714
9.0505e-06
0.00123281
1.46402e-05
0.00122574
1.50245e-05
0.00121949
7.32203e-06
0.00121536
-3.65656e-06
0.00121521
-1.57571e-05
0.00121435
-2.4615e-05
0.00121644
-2.97001e-05
0.00122
-2.82028e-05
0.00122927
-2.93369e-05
0.00124034
-3.06095e-05
0.00124371
-2.85243e-05
0.00123767
-1.25513e-05
0.00120477
5.34403e-05
0.00110342
0.0001919
0.00091483
0.000280537
0.000752633
0.000309059
0.000640467
0.000305404
0.000549491
0.000302952
0.00045571
0.000335972
0.000348568
0.000328371
0.000231644
0.000445807
0.00010876
4.23086e-06
2.89616e-06
0.000760311
1.60479e-06
0.000763826
3.64474e-07
0.000767717
-8.15789e-07
0.000771968
-1.93497e-06
0.000776562
-2.98499e-06
0.000781483
-3.95273e-06
0.000786714
-4.83966e-06
0.000792211
-5.65833e-06
0.000797949
-6.37178e-06
0.000803918
-7.00371e-06
0.000810076
-7.57808e-06
0.000816353
-8.00122e-06
0.00082277
-8.36498e-06
0.000829283
-8.69756e-06
0.000835809
-8.85655e-06
0.000842375
-8.97522e-06
0.000848936
-9.0576e-06
0.000855406
-9.00554e-06
0.000861758
-8.94961e-06
0.000868055
-8.81256e-06
0.000874329
-8.52748e-06
0.000880432
-8.19951e-06
0.000886215
-8.037e-06
0.000891842
-7.73463e-06
0.000897309
-7.30878e-06
0.000902519
-6.82328e-06
0.000907463
-6.34551e-06
0.000912068
-5.82256e-06
0.000916402
-5.34977e-06
0.000920638
-4.86689e-06
0.000924599
-4.3753e-06
0.000928306
-3.95148e-06
0.000931928
-3.41518e-06
0.000934943
-2.76682e-06
0.000937508
-2.20129e-06
0.000939845
-1.41769e-06
0.000941148
-9.66329e-07
0.000942224
-7.25683e-07
0.000944794
2.2307e-06
0.000946916
7.86988e-06
0.000944898
2.11344e-05
0.000928306
1.4975e-05
0.000908531
2.52029e-07
0.000902538
-3.75039e-05
0.000906881
-5.08551e-05
0.000923717
-5.71144e-05
0.000944829
-6.2897e-05
0.00096757
-6.46934e-05
0.000991807
-6.56782e-05
0.00101732
-6.32141e-05
0.00104065
-5.87808e-05
0.00106166
-5.75436e-05
0.00108259
-6.04055e-05
0.00110336
-6.08427e-05
0.00112496
-5.59891e-05
0.00114444
-4.94491e-05
0.00116133
-4.69524e-05
0.00117912
-4.96202e-05
0.00119629
-5.20963e-05
0.00121396
-4.92959e-05
0.00123054
-4.30136e-05
0.00124144
-3.55285e-05
0.00125101
-3.27291e-05
0.00126266
-3.37991e-05
0.00127358
-3.66746e-05
0.00128534
-3.61007e-05
0.00129946
-3.26961e-05
0.0013082
-2.71783e-05
0.00131353
-2.14232e-05
0.00132036
-1.90557e-05
0.00132841
-1.92251e-05
0.00133498
-1.98896e-05
0.00134152
-1.80384e-05
0.00134577
-1.25978e-05
0.00134632
-5.22242e-06
0.00134538
1.82031e-07
0.0013458
2.3435e-06
0.00134587
1.63437e-06
0.0013436
-1.515e-06
0.00134044
-3.48565e-06
0.00133804
-2.49153e-06
0.00133837
2.00106e-06
0.00134288
9.44862e-06
0.00134611
1.35564e-05
0.00134053
1.50932e-05
0.00133198
1.64306e-05
0.00132246
1.89096e-05
0.00131805
2.12883e-05
0.00130998
2.25371e-05
0.00129788
1.89391e-05
0.00128523
1.21628e-05
0.0012752
4.63978e-06
0.00127356
3.25194e-06
0.00127896
5.10582e-06
0.00127925
7.1469e-06
0.00127553
1.07426e-05
0.00126984
1.4731e-05
0.00126187
1.25472e-05
0.0012504
3.7554e-06
0.00124228
-9.15596e-06
0.00123682
-1.86055e-05
0.00123556
-2.84494e-05
0.00123829
-3.36086e-05
0.00124373
-3.5628e-05
0.00125546
-3.78363e-05
0.00125785
-3.00945e-05
0.00123305
5.54393e-06
0.00115039
9.69498e-05
0.000973739
0.000242434
0.000763218
0.000351459
0.000611764
0.000396258
0.000515596
0.000408112
0.000447306
0.000403559
0.000389873
0.000406463
0.000320197
0.000446965
0.000239488
0.000452731
0.000156368
0.000558461
6.77282e-05
1.10153e-06
-6.16236e-07
0.000767365
-2.28265e-06
0.000773061
-3.88314e-06
0.000779107
-5.40946e-06
0.000785489
-6.85397e-06
0.000792191
-8.20562e-06
0.000799199
-9.44808e-06
0.000806493
-1.05824e-05
0.000814025
-1.16173e-05
0.00082178
-1.25146e-05
0.000829752
-1.32874e-05
0.000837862
-1.39931e-05
0.000846065
-1.44973e-05
0.000854405
-1.48934e-05
0.000862782
-1.52542e-05
0.000871118
-1.53908e-05
0.000879501
-1.54417e-05
0.000887816
-1.5459e-05
0.000895953
-1.53551e-05
0.000903973
-1.51296e-05
0.000911895
-1.47854e-05
0.000919734
-1.43657e-05
0.000927329
-1.39203e-05
0.000934567
-1.34489e-05
0.000941604
-1.29069e-05
0.00094844
-1.22621e-05
0.000954973
-1.15259e-05
0.000961145
-1.07782e-05
0.00096691
-1.00259e-05
0.000972336
-9.25226e-06
0.000977591
-8.50701e-06
0.000982623
-7.69861e-06
0.000987365
-6.92101e-06
0.000992101
-6.10836e-06
0.000996048
-5.16729e-06
0.000999316
-4.24998e-06
0.00100221
-3.46336e-06
0.00100413
-2.79487e-06
0.0010054
-1.64004e-06
0.00100778
4.04881e-06
0.00101072
2.03627e-05
0.0010086
3.94897e-05
0.000986584
2.06843e-05
0.000957058
-4.42534e-06
0.000946506
-5.47918e-05
0.000952023
-7.22609e-05
0.000971982
-8.00552e-05
0.000996294
-8.69113e-05
0.00102298
-8.91387e-05
0.0010509
-8.97458e-05
0.00107948
-8.58501e-05
0.00110553
-7.97271e-05
0.00112936
-7.89008e-05
0.00115247
-8.07657e-05
0.00117529
-7.9477e-05
0.00119735
-7.41699e-05
0.00121655
-6.74014e-05
0.00123556
-6.43086e-05
0.0012561
-6.57859e-05
0.00127506
-6.64107e-05
0.00129126
-6.43836e-05
0.00130438
-5.79321e-05
0.00131458
-4.91975e-05
0.00132525
-4.52787e-05
0.0013389
-4.48684e-05
0.00135073
-4.55361e-05
0.00136013
-4.32444e-05
0.00136907
-3.88635e-05
0.00137505
-3.30639e-05
0.00138034
-2.85745e-05
0.00138792
-2.67763e-05
0.00139751
-2.60904e-05
0.00140686
-2.51325e-05
0.00141159
-2.22505e-05
0.00141231
-1.71935e-05
0.00141004
-9.8746e-06
0.00140749
-3.32495e-06
0.00140861
1.18686e-06
0.00141118
4.64115e-06
0.00140749
6.33969e-06
0.00140099
6.7076e-06
0.00139351
8.04768e-06
0.00138755
1.13992e-05
0.00138679
1.39925e-05
0.00139666
1.74409e-05
0.001396
1.85943e-05
0.00138819
1.77932e-05
0.00137782
1.63371e-05
0.00136647
1.76196e-05
0.00135405
2.42752e-05
0.00134132
2.63315e-05
0.00133021
2.28437e-05
0.00132279
1.87568e-05
0.00131974
1.5307e-05
0.00132004
1.52972e-05
0.00131569
1.43705e-05
0.00130955
1.27041e-05
0.00130189
1.11984e-05
0.00129308
6.12011e-06
0.00128016
9.1805e-07
0.00126905
-8.85346e-06
0.00126335
-1.83106e-05
0.001261
-2.54123e-05
0.00126476
-2.81189e-05
0.00126757
-3.29045e-05
0.0012628
-1.98233e-05
0.00122715
3.75358e-05
0.00111243
0.000171517
0.000877536
0.000308557
0.00065459
0.000399851
0.000510938
0.000455818
0.000421022
0.000469622
0.000364072
0.0004664
0.000317651
0.000471983
0.000273177
0.000482029
0.00022236
0.000525674
0.000165886
0.000543736
0.000108191
0.000630148
4.4987e-05
-4.23811e-06
-6.31008e-06
0.000775603
-8.32498e-06
0.00078344
-1.0262e-05
0.000791601
-1.21106e-05
0.000800077
-1.3858e-05
0.00080885
-1.54885e-05
0.000817907
-1.6983e-05
0.000827229
-1.83427e-05
0.000836764
-1.95648e-05
0.000846502
-2.06235e-05
0.000856433
-2.15135e-05
0.00086647
-2.22999e-05
0.000876572
-2.28615e-05
0.000886797
-2.32644e-05
0.000897004
-2.35884e-05
0.000907128
-2.36863e-05
0.000917279
-2.36119e-05
0.000927333
-2.35039e-05
0.000937114
-2.33489e-05
0.000946781
-2.2881e-05
0.000956325
-2.22463e-05
0.000965667
-2.16641e-05
0.000974699
-2.10528e-05
0.000983412
-2.0189e-05
0.000991831
-1.936e-05
0.00100002
-1.84299e-05
0.00100781
-1.74513e-05
0.00101522
-1.63921e-05
0.00102214
-1.5309e-05
0.00102865
-1.41846e-05
0.0010349
-1.30674e-05
0.0010409
-1.18957e-05
0.00104662
-1.0739e-05
0.00105244
-9.59504e-06
0.00105739
-8.37359e-06
0.00106142
-7.15677e-06
0.00106496
-6.09829e-06
0.00106775
-5.06784e-06
0.00106908
-3.08469e-06
0.00107138
6.85476e-06
0.00107418
3.91085e-05
0.00107038
6.7044e-05
0.00103415
3.0535e-05
0.00100301
-1.06834e-05
0.000990519
-7.58266e-05
0.000998036
-9.72086e-05
0.00102213
-0.000106793
0.00105256
-0.000114524
0.00108459
-0.000116544
0.00111677
-0.0001163
0.00114851
-0.000111153
0.00117872
-0.000104369
0.00120748
-0.000101503
0.00123269
-0.000101167
0.00125625
-9.7867e-05
0.0012781
-9.1775e-05
0.00129797
-8.81659e-05
0.00132065
-8.42655e-05
0.00134549
-8.1082e-05
0.00136388
-7.80096e-05
0.00137799
-7.46371e-05
0.00138868
-7.10059e-05
0.00139917
-6.53309e-05
0.00141165
-5.9953e-05
0.00142604
-5.63349e-05
0.00143893
-5.36423e-05
0.00144632
-4.93421e-05
0.00145065
-4.35596e-05
0.00145405
-3.8381e-05
0.00145951
-3.46875e-05
0.00146688
-3.29782e-05
0.00147628
-3.04005e-05
0.00148566
-2.63486e-05
0.00148847
-2.23443e-05
0.00148663
-1.88354e-05
0.00148422
-1.46584e-05
0.00148188
-9.28615e-06
0.00148413
-3.03218e-06
0.00148916
3.32551e-06
0.00148489
1.02117e-05
0.00147645
1.66202e-05
0.00146529
2.16495e-05
0.0014553
2.47274e-05
0.00144763
2.37165e-05
0.00144554
2.11434e-05
0.00145432
2.19875e-05
0.001449
2.16125e-05
0.00143669
2.12165e-05
0.00142254
2.25059e-05
0.00140692
2.86406e-05
0.00139224
3.41463e-05
0.00138383
3.2577e-05
0.00138091
3.22562e-05
0.00137331
2.71013e-05
0.0013633
2.41196e-05
0.00135435
2.03774e-05
0.00134407
1.34088e-05
0.00133386
7.91554e-06
0.00132356
7.54955e-06
0.00131196
2.34286e-06
0.00130256
-3.37519e-06
0.00129749
-8.65495e-06
0.00129141
-1.16464e-05
0.00128292
-1.11645e-05
0.00126402
9.5687e-06
0.00120724
8.9116e-05
0.00105454
0.000253766
0.000799229
0.000382487
0.000586663
0.000459024
0.000451725
0.000500912
0.000366191
0.000517555
0.000308759
0.000513809
0.000266217
0.00050708
0.000229681
0.00052122
0.000194123
0.000537853
0.000157257
0.000582351
0.000117015
0.000608447
7.68188e-05
0.000677335
3.13233e-05
-1.17465e-05
-1.4145e-05
0.00078503
-1.64829e-05
0.000794965
-1.87346e-05
0.000805199
-2.08828e-05
0.000815726
-2.29113e-05
0.00082653
-2.4799e-05
0.000837596
-2.65237e-05
0.000848905
-2.80844e-05
0.000860407
-2.94673e-05
0.00087209
-3.06606e-05
0.000883943
-3.16471e-05
0.00089587
-3.24585e-05
0.000907838
-3.30565e-05
0.000919902
-3.34513e-05
0.000931911
-3.36666e-05
0.00094379
-3.36994e-05
0.000955676
-3.34714e-05
0.000967436
-3.31962e-05
0.000978851
-3.28956e-05
0.000990145
-3.21415e-05
0.00100126
-3.11918e-05
0.0010121
-3.04319e-05
0.00102253
-2.95317e-05
0.00103269
-2.82995e-05
0.00104249
-2.70344e-05
0.00105193
-2.58326e-05
0.00106096
-2.4531e-05
0.00106958
-2.31501e-05
0.00107771
-2.16588e-05
0.00108534
-2.00983e-05
0.00109253
-1.8525e-05
0.00109939
-1.69517e-05
0.001106
-1.53519e-05
0.00111247
-1.39291e-05
0.00111885
-1.23687e-05
0.00112384
-1.08195e-05
0.00112806
-9.23279e-06
0.00113174
-7.8487e-06
0.00113445
-4.515e-06
0.001136
1.17393e-05
0.00113865
7.26279e-05
0.00113434
9.5705e-05
0.00108703
4.19706e-05
0.00105063
-1.95768e-05
0.00104192
-0.000101424
0.00105375
-0.000128421
0.00108433
-0.000138687
0.00112066
-0.000146597
0.00116018
-0.000147832
0.00119819
-0.000145242
0.00123381
-0.000140336
0.00126783
-0.000133442
0.00130117
-0.00012704
0.00133028
-0.000122824
0.00135372
-0.000116772
0.00137488
-0.000108791
0.00139639
-0.000105675
0.00142066
-0.000103836
0.00145048
-9.84808e-05
0.00147057
-9.10639e-05
0.0014804
-8.44315e-05
0.00149093
-7.93985e-05
0.00150677
-7.6149e-05
0.00151671
-7.37602e-05
0.00152843
-6.82424e-05
0.00154294
-6.12816e-05
0.00155061
-5.56769e-05
0.00155375
-4.96124e-05
0.00155607
-4.42964e-05
0.00155828
-4.11013e-05
0.00156513
-3.81788e-05
0.00157713
-3.30459e-05
0.00158364
-2.66049e-05
0.00158375
-1.9802e-05
0.00158009
-1.45286e-05
0.00157647
-1.11519e-05
0.00157322
-8.90953e-06
0.00157401
-4.22582e-06
0.00157908
1.04376e-06
0.00157352
8.41293e-06
0.00156458
1.79361e-05
0.00155532
2.81067e-05
0.00154269
3.5343e-05
0.00153077
3.58845e-05
0.00152113
3.029e-05
0.00151577
2.78889e-05
0.00151653
2.89387e-05
0.00150498
2.9991e-05
0.00148941
3.37935e-05
0.00147094
3.90456e-05
0.00145561
4.44185e-05
0.00144627
4.36004e-05
0.00144022
4.17645e-05
0.00142684
3.69113e-05
0.00141273
3.19268e-05
0.00139895
2.43773e-05
0.00138356
1.78159e-05
0.00137099
1.31708e-05
0.00135987
1.21226e-05
0.00135253
1.02524e-05
0.0013453
1.17152e-05
0.00133433
1.23737e-05
0.00131199
1.87809e-05
0.00126777
5.50992e-05
0.00117964
0.000163223
0.000989977
0.00033554
0.000731989
0.000450574
0.000541505
0.000520548
0.000413906
0.000556105
0.000332178
0.000564156
0.000278797
0.000556598
0.000237074
0.00054365
0.000201223
0.000540579
0.000171642
0.000559924
0.000145894
0.000581178
0.000117093
0.000624082
8.50328e-05
0.000653968
5.53426e-05
0.000708421
2.20553e-05
-2.1378e-05
-2.40766e-05
0.000795656
-2.67137e-05
0.000807639
-2.92589e-05
0.000819898
-3.16851e-05
0.00083243
-3.39736e-05
0.00084522
-3.60977e-05
0.000858251
-3.80302e-05
0.000871503
-3.97697e-05
0.000884933
-4.12882e-05
0.000898521
-4.25844e-05
0.00091225
-4.36479e-05
0.00092603
-4.44491e-05
0.000939826
-4.50503e-05
0.000953687
-4.54074e-05
0.000967461
-4.54868e-05
0.000981066
-4.53925e-05
0.000994651
-4.50073e-05
0.00100807
-4.45232e-05
0.0010211
-4.39336e-05
0.00103397
-4.2903e-05
0.00104663
-4.16588e-05
0.00105895
-4.05809e-05
0.00107076
-3.93209e-05
0.00108231
-3.77759e-05
0.00109348
-3.60162e-05
0.00110412
-3.43713e-05
0.00111432
-3.27215e-05
0.00112416
-3.09267e-05
0.00113349
-2.90972e-05
0.00114227
-2.70494e-05
0.00115048
-2.49885e-05
0.00115813
-2.28479e-05
0.0011655
-2.08734e-05
0.00117262
-1.90425e-05
0.0011802
-1.70832e-05
0.00118638
-1.51139e-05
0.00119144
-1.29719e-05
0.00119586
-1.1032e-05
0.00119957
-6.60549e-06
0.00120193
1.68071e-05
0.00120467
0.000116632
0.0012013
0.000129308
0.00115521
4.93832e-05
0.00111096
-3.29059e-05
0.0011083
-0.000133352
0.00113228
-0.000165029
0.00117303
-0.000177177
0.00121612
-0.000184344
0.00126259
-0.000183242
0.0013057
-0.000176208
0.00134587
-0.000171744
0.0013849
-0.000164773
0.00142422
-0.000156422
0.0014546
-0.00014765
0.00147795
-0.000138266
0.00150196
-0.000129881
0.00152487
-0.000123417
0.00154902
-0.000118913
0.00157917
-0.000113484
0.00160355
-0.000107895
0.00161548
-9.93131e-05
0.00162725
-9.043e-05
0.00164121
-8.55081e-05
0.00165829
-8.19914e-05
0.00166687
-7.74635e-05
0.00167168
-6.93991e-05
0.00168086
-6.00652e-05
0.00168967
-5.38852e-05
0.00168961
-4.97667e-05
0.00168782
-4.58726e-05
0.0016872
-4.14421e-05
0.00169253
-3.52718e-05
0.00170448
-2.79595e-05
0.0017092
-1.96475e-05
0.00170446
-1.20073e-05
0.00169763
-5.25326e-06
0.00168874
-7.72757e-07
0.00168249
3.07198e-06
0.00168381
7.43508e-06
0.00167886
1.32462e-05
0.00166903
2.09416e-05
0.00165835
3.00621e-05
0.00164549
3.78892e-05
0.00163026
4.36889e-05
0.00161091
4.35958e-05
0.00159545
4.07186e-05
0.00158601
3.97758e-05
0.00158542
4.15209e-05
0.00157353
4.73484e-05
0.00155543
5.40177e-05
0.00153906
5.8208e-05
0.0015221
5.67774e-05
0.00150523
5.20614e-05
0.00148664
4.56671e-05
0.00146785
4.11764e-05
0.00144891
3.17107e-05
0.00143209
2.48651e-05
0.00141935
2.3318e-05
0.00141035
2.74538e-05
0.00140317
3.05655e-05
0.00138538
3.74079e-05
0.00134762
5.93544e-05
0.0012815
0.000112238
0.00115
0.000248
0.000918628
0.000411736
0.000680002
0.000514257
0.000509393
0.000577189
0.000389404
0.000613231
0.000313406
0.000619265
0.000264941
0.00060398
0.000226639
0.000582874
0.000190681
0.000568902
0.000159943
0.000569609
0.000135805
0.000592661
0.000115566
0.00061579
9.19806e-05
0.000655486
6.41181e-05
0.000686554
4.00137e-05
0.000729195
1.61532e-05
-3.30827e-05
-3.60569e-05
0.000807488
-3.89702e-05
0.000821467
-4.17877e-05
0.0008357
-4.44721e-05
0.000850186
-4.70017e-05
0.000864915
-4.93417e-05
0.000879861
-5.14624e-05
0.000895009
-5.33576e-05
0.000910324
-5.49916e-05
0.000925772
-5.63633e-05
0.000941328
-5.74748e-05
0.000956919
-5.82602e-05
0.000972504
-5.88114e-05
0.00098811
-5.908e-05
0.00100361
-5.90171e-05
0.00101892
-5.87246e-05
0.00103414
-5.81619e-05
0.00104916
-5.74284e-05
0.00106379
-5.64702e-05
0.0010782
-5.51626e-05
0.00109237
-5.36472e-05
0.00110611
-5.20516e-05
0.00111925
-5.03784e-05
0.00113219
-4.851e-05
0.00114471
-4.63834e-05
0.00115662
-4.40892e-05
0.00116789
-4.19875e-05
0.00117889
-3.97237e-05
0.00118934
-3.74443e-05
0.00119926
-3.50796e-05
0.0012085
-3.25252e-05
0.00121709
-2.9713e-05
0.00122535
-2.71503e-05
0.00123314
-2.4722e-05
0.00124066
-2.24259e-05
0.00124869
-1.98936e-05
0.00125466
-1.73858e-05
0.00125979
-1.46222e-05
0.00126445
-9.74784e-06
0.00126819
1.98086e-05
0.00127042
0.000157699
0.00127223
0.000170977
0.00124947
5.12272e-05
0.00119518
-5.71726e-05
0.00120227
-0.000174567
0.00124097
-0.000208691
0.00129646
-0.000222266
0.0013495
-0.000226437
0.00140231
-0.000222673
0.00144991
-0.000213868
0.00149676
-0.000205753
0.00154517
-0.000196424
0.00158741
-0.000185608
0.00162077
-0.000175464
0.00164654
-0.00016375
0.001669
-0.000153982
0.00168763
-0.000146981
0.00171189
-0.000138551
0.00173654
-0.000126542
0.00176011
-0.000118184
0.00177084
-0.000114241
0.00177614
-0.000106531
0.00178687
-9.57403e-05
0.00180244
-8.83935e-05
0.00181733
-8.48725e-05
0.00182143
-7.74728e-05
0.00182603
-6.64569e-05
0.00183631
-5.66671e-05
0.00183788
-4.97802e-05
0.00183025
-4.62575e-05
0.00181953
-4.15558e-05
0.00181476
-3.44e-05
0.00181962
-2.66679e-05
0.00183378
-1.8707e-05
0.00183127
-1.0607e-05
0.00182301
-1.13751e-06
0.00180963
7.42978e-06
0.00179908
1.4486e-05
0.00179426
1.93693e-05
0.00178644
2.37564e-05
0.00177124
3.01581e-05
0.00175685
3.75058e-05
0.00174235
4.27838e-05
0.00172662
5.06283e-05
0.00170668
5.54632e-05
0.00168525
5.80949e-05
0.00166886
5.84229e-05
0.00166077
6.07251e-05
0.00165713
6.47974e-05
0.00164108
6.94318e-05
0.00162275
7.0805e-05
0.00160016
7.09278e-05
0.00157143
6.46765e-05
0.0015484
5.74902e-05
0.00152768
5.35355e-05
0.00150777
4.4845e-05
0.00148966
4.20266e-05
0.0014748
4.4487e-05
0.00145698
5.62079e-05
0.0014264
6.9867e-05
0.00137541
9.7751e-05
0.00128298
0.000185355
0.00110477
0.000340058
0.000844741
0.000481529
0.000635618
0.000576043
0.000487945
0.000630848
0.000382599
0.000661877
0.000306671
0.000673667
0.000255643
0.000659905
0.000221767
0.000630364
0.000192158
0.000605823
0.000160273
0.000593713
0.000135052
0.000596723
0.000114832
0.000620589
9.76056e-05
0.000643976
7.72317e-05
0.00067996
5.0964e-05
0.000710452
3.04186e-05
0.000744635
1.33656e-05
-4.68061e-05
-5.00329e-05
0.000820537
-5.32011e-05
0.000836455
-5.62703e-05
0.000852607
-5.91958e-05
0.000868993
-6.19472e-05
0.000885606
-6.4484e-05
0.000902417
-6.6775e-05
0.000919407
-6.88032e-05
0.00093656
-7.05317e-05
0.000953818
-7.19554e-05
0.000971144
-7.30753e-05
0.000988507
-7.38369e-05
0.00100584
-7.4291e-05
0.00102312
-7.44297e-05
0.00104031
-7.4206e-05
0.0010573
-7.3663e-05
0.00107409
-7.28919e-05
0.00109066
-7.18697e-05
0.00110687
-7.04225e-05
0.00112277
-6.88413e-05
0.00113836
-6.70243e-05
0.00115351
-6.48489e-05
0.001168
-6.27017e-05
0.00118227
-6.04809e-05
0.00119606
-5.79635e-05
0.00120929
-5.51283e-05
0.00122177
-5.21954e-05
0.00123359
-4.94881e-05
0.00124502
-4.67331e-05
0.00125604
-4.39399e-05
0.00126642
-4.10713e-05
0.00127625
-3.78918e-05
0.00128562
-3.42976e-05
0.00129403
-3.10744e-05
0.00130167
-2.81222e-05
0.00130936
-2.50977e-05
0.00131687
-2.22739e-05
0.00132357
-1.8878e-05
0.00132929
-1.31867e-05
0.00133379
1.62378e-05
0.00133645
0.000174389
0.00134734
0.000222268
0.00134755
4.47177e-05
0.00130553
-9.41647e-05
0.00134209
-0.000228474
0.00140264
-0.000261681
0.00147582
-0.000275702
0.00154489
-0.000274851
0.0016052
-0.000267946
0.0016558
-0.000260229
0.00170274
-0.000243699
0.0017431
-0.000230772
0.00177142
-0.000215189
0.00180529
-0.00020174
0.00182766
-0.000189691
0.00184826
-0.000174819
0.00186461
-0.000164424
0.00187535
-0.00015815
0.00189271
-0.000143367
0.00191664
-0.000127487
0.00192507
-0.000121054
0.00192575
-0.000117739
0.00193011
-0.000106067
0.00193613
-9.45063e-05
0.00194896
-8.93559e-05
0.00195579
-8.35334e-05
0.00195613
-7.41847e-05
0.00195829
-5.95255e-05
0.00196355
-4.8032e-05
0.00195633
-4.05442e-05
0.00194423
-3.7444e-05
0.00193049
-3.18644e-05
0.00192336
-2.522e-05
0.00192766
-1.42702e-05
0.00193316
-2.98368e-06
0.00192789
7.69027e-06
0.0019166
1.58504e-05
0.0019031
2.45517e-05
0.00188629
3.09515e-05
0.0018713
3.64029e-05
0.00185634
4.20703e-05
0.00184253
4.81878e-05
0.00182939
5.56501e-05
0.00181511
6.60404e-05
0.00179703
7.31903e-05
0.00177125
7.59516e-05
0.00174975
7.9035e-05
0.00173146
8.14358e-05
0.00172007
8.38875e-05
0.00170854
8.52638e-05
0.0016894
8.54044e-05
0.0016659
8.58978e-05
0.00163302
8.04329e-05
0.00160614
7.55898e-05
0.00158061
7.48057e-05
0.00155843
6.93523e-05
0.0015318
7.50112e-05
0.00149368
8.50842e-05
0.00144636
0.000113501
0.00137533
0.000159157
0.00125073
0.000266694
0.00103373
0.000430718
0.000774056
0.000543489
0.000590526
0.000629823
0.000459098
0.000684366
0.000370004
0.00071276
0.000304877
0.000721583
0.000256351
0.000711719
0.000221875
0.000685155
0.000194368
0.00065153
0.000167177
0.000628464
0.000140908
0.000617267
0.00012142
0.000621933
0.000105345
0.000644196
8.73506e-05
0.000666127
6.66227e-05
0.000698925
4.29126e-05
0.000728903
2.55028e-05
0.000758613
1.18611e-05
-6.24898e-05
-6.59476e-05
0.000834819
-6.93511e-05
0.000852613
-7.26525e-05
0.000870624
-7.58022e-05
0.00088885
-7.87576e-05
0.000907289
-8.14738e-05
0.000925909
-8.3919e-05
0.000944689
-8.60555e-05
0.00096362
-8.78588e-05
0.000982636
-8.93124e-05
0.00100168
-9.04055e-05
0.00102076
-9.11114e-05
0.00103981
-9.14423e-05
0.00105872
-9.14288e-05
0.00107753
-9.10023e-05
0.00109616
-9.01876e-05
0.00111448
-8.91603e-05
0.00113254
-8.77759e-05
0.00115028
-8.59027e-05
0.00116764
-8.39569e-05
0.0011846
-8.17081e-05
0.00120111
-7.90393e-05
0.00121699
-7.62871e-05
0.00123241
-7.36402e-05
0.00124749
-7.06384e-05
0.00126201
-6.72968e-05
0.00127577
-6.3638e-05
0.00128863
-6.01596e-05
0.00130038
-5.69624e-05
0.00131249
-5.37347e-05
0.0013241
-5.02542e-05
0.00133531
-4.67229e-05
0.00134604
-4.28519e-05
0.00135553
-3.83398e-05
0.00136338
-3.43777e-05
0.00136942
-3.07664e-05
0.00137759
-2.74313e-05
0.00138578
-2.37599e-05
0.0013936
-1.74931e-05
0.00139902
4.07908e-06
0.00140305
0.000167083
0.00141866
0.000258322
0.00154513
8.83852e-06
0.0015359
-0.000154136
0.00160398
-0.000299108
0.00166549
-0.000327328
0.00172553
-0.000336598
0.00178272
-0.00032777
0.00182912
-0.000313426
0.00187074
-0.000297531
0.00191022
-0.00027389
0.00193887
-0.000258678
0.00195693
-0.000240595
0.00198007
-0.000224488
0.00199719
-0.000209575
0.00200943
-0.000190693
0.00201685
-0.000178235
0.00202664
-0.000168505
0.0020358
-0.000155876
0.0020468
-0.000138688
0.00205587
-0.00012421
0.00205629
-0.000119052
0.00205273
-0.000111553
0.00205721
-9.91016e-05
0.00206148
-8.92918e-05
0.00206611
-8.43077e-05
0.00206266
-7.65647e-05
0.0020593
-6.54671e-05
0.00206192
-4.71663e-05
0.00206368
-3.34137e-05
0.00204418
-2.66905e-05
0.0020272
-2.46033e-05
0.00201374
-1.80306e-05
0.00201129
-7.02309e-06
0.00201592
5.82624e-06
0.00201141
1.69455e-05
0.00199903
2.48695e-05
0.00198462
3.3974e-05
0.00196798
4.40537e-05
0.00194832
5.34572e-05
0.00193156
6.01512e-05
0.00191449
6.59201e-05
0.00190268
7.45723e-05
0.00188726
8.53643e-05
0.00186891
9.34707e-05
0.00184385
9.67594e-05
0.00181379
9.87425e-05
0.00179153
0.000102332
0.00177381
0.000103141
0.00176119
0.000103065
0.00174119
0.00010436
0.00171637
0.000106204
0.00168227
0.000104483
0.00164259
0.000102643
0.00160091
0.000105057
0.00156323
0.000112197
0.00151892
0.000131551
0.00144798
0.000161592
0.00133869
0.000241968
0.00116007
0.000371674
0.000922125
0.000509273
0.000709285
0.000604773
0.000547226