/*--------------------------------*- C++ -*----------------------------------*\
| =========                 |                                                 |
| \\      /  F ield         | OpenFOAM: The Open Source CFD Toolbox           |
|  \\    /   O peration     | Version:  2.2.x                                 |
|   \\  /    A nd           | Web:      www.OpenFOAM.org                      |
|    \\/     M anipulation  |                                                 |
\*---------------------------------------------------------------------------*/
FoamFile
{
    version     2.0;
    format      ascii;
    class       volScalarField;
    location    "2.7";
    object      Bx;
}
// * * * * * * * * * * * * * * * * * * * * * * * * * * * * * * * * * * * * * //

dimensions      [1 0 -2 0 0 -1 0];

internalField   nonuniform List<scalar> 
14161
(
1.00332
1.00229
1.00251
1.00256
1.00267
1.00279
1.00294
1.0031
1.00327
1.00347
1.00367
1.0039
1.00413
1.00436
1.00464
1.00487
1.00512
1.00539
1.00571
1.00593
1.00611
1.00638
1.00671
1.00697
1.00716
1.00722
1.00735
1.00755
1.00769
1.00775
1.00766
1.00752
1.00727
1.0069
1.00643
1.00561
1.00474
1.00332
1.00181
0.999675
0.996975
0.994033
0.991469
0.988032
0.98538
0.968526
0.94148
0.937357
0.948364
0.973483
1.00003
1.03069
1.05926
1.08575
1.11008
1.13132
1.15022
1.16709
1.18183
1.195
1.2063
1.21639
1.22519
1.23265
1.23893
1.24411
1.24859
1.2521
1.25517
1.25835
1.26164
1.26508
1.26869
1.27204
1.27523
1.27844
1.28141
1.28441
1.28752
1.29053
1.2933
1.29627
1.29956
1.30238
1.30518
1.30837
1.31088
1.31382
1.3172
1.3197
1.32259
1.32605
1.32861
1.33181
1.33531
1.33837
1.3419
1.34591
1.34962
1.35355
1.35785
1.36217
1.36626
1.37168
1.3743
1.37683
1.37841
1.37462
1.36246
1.3195
1.22052
1.07131
0.88917
0.7127
0.542956
0.406126
0.263771
0.172452
0.0393177
1.00332
1.00229
1.00251
1.00256
1.00267
1.00279
1.00294
1.0031
1.00328
1.00347
1.00367
1.0039
1.00412
1.00437
1.00463
1.00487
1.00511
1.00541
1.0057
1.00592
1.00612
1.00639
1.00672
1.00698
1.00713
1.00722
1.00736
1.00757
1.00772
1.00778
1.0077
1.00755
1.00726
1.00687
1.00636
1.00572
1.00479
1.00375
1.00214
0.999862
0.997558
0.994413
0.991505
0.985886
0.982583
0.959667
0.932472
0.935337
0.94638
0.975862
1.00239
1.03117
1.05909
1.08414
1.10682
1.12724
1.14599
1.16292
1.17796
1.19145
1.20326
1.21374
1.22281
1.23068
1.23755
1.24357
1.24883
1.25353
1.25758
1.26105
1.2642
1.26738
1.27062
1.27377
1.27691
1.28009
1.28301
1.286
1.2892
1.29195
1.2948
1.29776
1.30084
1.30349
1.30627
1.30917
1.31194
1.31482
1.31786
1.3206
1.32352
1.32669
1.32958
1.33268
1.33603
1.33909
1.34263
1.34664
1.35039
1.3544
1.35885
1.36294
1.36693
1.37097
1.37297
1.37321
1.37037
1.35747
1.32478
1.25698
1.13293
0.965039
0.782894
0.628742
0.484075
0.365568
0.24018
0.16068
0.0463924
1.00332
1.00229
1.00251
1.00256
1.00267
1.00279
1.00294
1.0031
1.00328
1.00347
1.00367
1.0039
1.00412
1.00436
1.00462
1.00488
1.00511
1.00541
1.00568
1.00593
1.00614
1.00642
1.00674
1.00698
1.00711
1.00722
1.00739
1.00759
1.00775
1.00779
1.00774
1.0076
1.00736
1.00705
1.00661
1.006
1.00511
1.00404
1.00252
1.00081
0.99894
0.995955
0.992771
0.984898
0.97838
0.947392
0.920294
0.932853
0.94371
0.977548
1.01013
1.04192
1.07156
1.09737
1.12106
1.14142
1.16027
1.17662
1.19136
1.20426
1.21535
1.22514
1.23325
1.24039
1.24661
1.25194
1.2564
1.26073
1.26462
1.2683
1.27157
1.2746
1.27752
1.28033
1.2833
1.28628
1.28902
1.29189
1.29484
1.29725
1.29992
1.30282
1.30555
1.30795
1.31063
1.31316
1.31588
1.31862
1.32137
1.32413
1.32703
1.32998
1.33295
1.33614
1.33938
1.34258
1.34611
1.35001
1.35385
1.35786
1.36215
1.36476
1.36699
1.3692
1.36923
1.36309
1.34945
1.31712
1.23473
1.1092
0.935983
0.771965
0.631385
0.519851
0.410968
0.317645
0.213548
0.147339
0.0461826
1.00332
1.00229
1.00251
1.00256
1.00267
1.00279
1.00294
1.0031
1.00328
1.00347
1.00368
1.0039
1.00412
1.00436
1.00462
1.00487
1.00513
1.0054
1.00567
1.00593
1.00615
1.00644
1.00673
1.00695
1.00711
1.00726
1.00744
1.00762
1.00775
1.00784
1.00782
1.00769
1.00753
1.00727
1.00693
1.00642
1.00569
1.00475
1.00356
1.00217
1.00014
0.997143
0.994085
0.986595
0.984055
0.952432
0.918579
0.945238
0.955656
0.992386
1.02892
1.0645
1.09631
1.12371
1.1484
1.16871
1.18729
1.20232
1.21594
1.22714
1.23663
1.24477
1.25133
1.25709
1.26188
1.26625
1.26988
1.27332
1.27648
1.27966
1.28253
1.28509
1.28741
1.28971
1.29223
1.29477
1.29713
1.29967
1.30199
1.30408
1.30641
1.30899
1.31128
1.31344
1.31583
1.31793
1.32045
1.32294
1.32538
1.32814
1.33089
1.33367
1.33671
1.33997
1.3431
1.34665
1.35027
1.3539
1.35705
1.35986
1.36274
1.36388
1.36446
1.3623
1.35661
1.33652
1.29466
1.215
1.06992
0.893656
0.739551
0.625204
0.521227
0.437394
0.351409
0.27774
0.192093
0.137086
0.0503092
1.00332
1.00228
1.00251
1.00256
1.00266
1.00279
1.00293
1.0031
1.00328
1.00347
1.00367
1.0039
1.00412
1.00436
1.00462
1.00487
1.00513
1.0054
1.00567
1.00593
1.00617
1.00644
1.0067
1.00692
1.00714
1.00733
1.00752
1.00765
1.00777
1.00789
1.00792
1.00785
1.00777
1.00763
1.00741
1.00707
1.00659
1.00591
1.00509
1.00388
1.00262
1.00047
0.999232
0.991459
1.00212
0.972912
0.934967
0.967485
0.982997
1.02223
1.06256
1.09999
1.13111
1.15907
1.18361
1.20374
1.22117
1.23443
1.24644
1.25566
1.2636
1.27016
1.27516
1.27983
1.28342
1.28658
1.28941
1.29167
1.29418
1.29675
1.29923
1.30137
1.30314
1.30489
1.30675
1.30858
1.31032
1.3122
1.31369
1.31527
1.31705
1.31899
1.32085
1.32252
1.3244
1.32602
1.32812
1.33025
1.33248
1.33512
1.33773
1.34044
1.34346
1.34664
1.3497
1.35322
1.35609
1.35834
1.35997
1.36124
1.36249
1.36216
1.35677
1.34771
1.32672
1.27983
1.18162
1.03194
0.843909
0.697241
0.594485
0.509691
0.437147
0.37379
0.30481
0.245244
0.176125
0.129996
0.0530482
1.00331
1.00228
1.00251
1.00256
1.00266
1.00279
1.00293
1.0031
1.00327
1.00346
1.00367
1.00389
1.00412
1.00436
1.00461
1.00487
1.00513
1.00539
1.00566
1.00592
1.00618
1.00644
1.00667
1.0069
1.00717
1.0074
1.0076
1.00771
1.00782
1.00794
1.00802
1.00809
1.00811
1.00808
1.008
1.00786
1.00763
1.00729
1.00692
1.00631
1.00596
1.00476
1.00526
1.00088
1.01878
0.997905
0.969628
1.00417
1.02845
1.0652
1.11134
1.1495
1.17924
1.20876
1.22931
1.24815
1.26142
1.27283
1.28169
1.28931
1.29545
1.29929
1.30292
1.30526
1.30759
1.30975
1.31181
1.31354
1.31531
1.31686
1.3184
1.31975
1.32086
1.32202
1.32309
1.32419
1.32524
1.32653
1.32719
1.32844
1.32955
1.33079
1.33212
1.33342
1.33488
1.33598
1.33767
1.33926
1.34115
1.34337
1.34566
1.348
1.35082
1.35304
1.35495
1.35726
1.35845
1.35947
1.36033
1.35947
1.3565
1.35315
1.33732
1.30593
1.25343
1.15502
0.987725
0.801884
0.657936
0.560627
0.489672
0.426699
0.374682
0.326407
0.269448
0.220272
0.163523
0.126948
0.062634
1.0033
1.00228
1.0025
1.00255
1.00266
1.00278
1.00293
1.00309
1.00327
1.00346
1.00367
1.00389
1.00411
1.00436
1.00461
1.00487
1.00513
1.00539
1.00564
1.00592
1.00621
1.00644
1.00665
1.00688
1.00717
1.00744
1.00764
1.00778
1.0079
1.00801
1.00816
1.00836
1.00852
1.00863
1.0087
1.00875
1.00883
1.00895
1.00908
1.00936
1.0095
1.00985
1.01062
1.00983
1.01344
1.01776
1.01286
1.0464
1.09282
1.1353
1.18391
1.21459
1.23823
1.2615
1.27414
1.29059
1.29822
1.30865
1.31404
1.31991
1.32411
1.32505
1.32784
1.32832
1.32979
1.33084
1.33184
1.33296
1.33402
1.33484
1.33572
1.33657
1.33736
1.33816
1.33884
1.33936
1.33993
1.3408
1.34104
1.34196
1.34265
1.34334
1.34417
1.34511
1.34619
1.3469
1.34806
1.34905
1.3502
1.35178
1.35325
1.35441
1.3559
1.3566
1.3576
1.35908
1.359
1.35732
1.35695
1.35221
1.34127
1.32562
1.28871
1.22006
1.10613
0.944415
0.75945
0.626883
0.533011
0.464324
0.412168
0.36747
0.329749
0.29025
0.243806
0.202977
0.155563
0.125122
0.0701442
1.00329
1.00228
1.0025
1.00255
1.00266
1.00278
1.00292
1.00309
1.00326
1.00345
1.00366
1.00388
1.00411
1.00435
1.0046
1.00486
1.00513
1.00538
1.00562
1.00592
1.00623
1.00647
1.00665
1.00686
1.00717
1.00747
1.00769
1.00787
1.00801
1.00811
1.0083
1.00859
1.0089
1.00914
1.00936
1.0096
1.00994
1.01048
1.01119
1.01227
1.0133
1.01579
1.01715
1.02462
1.01895
1.05375
1.091
1.11278
1.18
1.21771
1.25158
1.27073
1.29056
1.30718
1.31587
1.32784
1.33195
1.33989
1.34355
1.34496
1.34769
1.34666
1.34812
1.34831
1.34861
1.34868
1.3487
1.349
1.34925
1.34947
1.34986
1.35021
1.35065
1.35103
1.35125
1.35137
1.35161
1.35203
1.3521
1.35264
1.35293
1.35315
1.3536
1.35406
1.35472
1.35497
1.35552
1.35579
1.35603
1.35648
1.35663
1.35676
1.35745
1.35714
1.35642
1.35661
1.35523
1.34956
1.34352
1.32922
1.30038
1.25847
1.18427
1.05182
0.874424
0.712034
0.592453
0.506487
0.444963
0.396922
0.357837
0.328094
0.296799
0.264229
0.224972
0.190823
0.151202
0.125721
0.0801818
1.00328
1.00227
1.00249
1.00254
1.00265
1.00278
1.00292
1.00308
1.00326
1.00345
1.00366
1.00387
1.0041
1.00435
1.00458
1.00485
1.00513
1.00537
1.0056
1.0059
1.00623
1.0065
1.00665
1.00686
1.00717
1.0075
1.00775
1.00796
1.00809
1.00823
1.00846
1.00879
1.00923
1.00964
1.01003
1.01046
1.01103
1.01194
1.01318
1.01496
1.01713
1.02114
1.02367
1.03423
1.03294
1.09829
1.20263
1.227
1.27885
1.2881
1.30318
1.30956
1.32674
1.33838
1.34929
1.35629
1.36084
1.36306
1.36636
1.36354
1.36484
1.36442
1.36381
1.36337
1.36193
1.36142
1.36064
1.36029
1.35979
1.3596
1.35967
1.35974
1.35981
1.35983
1.35971
1.3595
1.35963
1.35957
1.3594
1.35961
1.35963
1.35945
1.35953
1.35952
1.35972
1.35949
1.35921
1.35909
1.35845
1.35813
1.358
1.35691
1.35661
1.35519
1.35172
1.34718
1.34096
1.32678
1.30602
1.27506
1.21569
1.12133
0.992598
0.814665
0.664431
0.557063
0.479261
0.424918
0.384315
0.350224
0.321532
0.2991
0.270518
0.244742
0.210898
0.182016
0.148466
0.127002
0.0893609
1.00327
1.00227
1.00249
1.00254
1.00264
1.00277
1.00291
1.00307
1.00325
1.00344
1.00365
1.00386
1.0041
1.00435
1.00457
1.00484
1.00514
1.00536
1.00559
1.00589
1.00624
1.0065
1.00666
1.00689
1.0072
1.00755
1.0078
1.00799
1.00817
1.00837
1.00867
1.00907
1.00951
1.01
1.01053
1.01112
1.01187
1.01286
1.01413
1.01575
1.01743
1.01998
1.02224
1.02661
1.03766
1.07897
1.20881
1.34196
1.34536
1.35367
1.35198
1.3512
1.35511
1.36326
1.37222
1.3771
1.38092
1.37956
1.37972
1.37973
1.37868
1.37826
1.37593
1.37514
1.37243
1.37159
1.3704
1.3695
1.36852
1.36781
1.36749
1.3672
1.36706
1.36668
1.36633
1.36577
1.36552
1.36516
1.36464
1.36422
1.36371
1.36299
1.36252
1.36193
1.36159
1.36109
1.36042
1.36005
1.35899
1.35741
1.3558
1.35291
1.34812
1.3439
1.33478
1.32017
1.30533
1.27587
1.22618
1.1608
1.05131
0.894972
0.740254
0.617199
0.519417
0.452533
0.403646
0.367916
0.340908
0.317096
0.298259
0.27853
0.253701
0.232237
0.202181
0.178086
0.149519
0.13129
0.100018
1.00326
1.00226
1.00248
1.00253
1.00264
1.00276
1.00291
1.00307
1.00324
1.00343
1.00364
1.00385
1.00409
1.00434
1.00455
1.00483
1.00513
1.00536
1.00559
1.00592
1.00624
1.00647
1.00666
1.00691
1.00724
1.00758
1.00786
1.00805
1.00825
1.00854
1.00891
1.0093
1.00975
1.01028
1.01093
1.01167
1.01259
1.01373
1.01496
1.01656
1.01834
1.02065
1.02275
1.02469
1.03428
1.08123
1.23267
1.31845
1.35194
1.36415
1.36831
1.36781
1.37399
1.3798
1.38484
1.38757
1.38978
1.38829
1.38687
1.3865
1.38489
1.38424
1.38122
1.38002
1.37748
1.37621
1.37504
1.37391
1.37274
1.37186
1.37116
1.37068
1.37037
1.36986
1.36926
1.36846
1.36786
1.36728
1.3664
1.36582
1.36507
1.36402
1.36314
1.36198
1.36086
1.35962
1.35774
1.3555
1.35289
1.34876
1.34388
1.33758
1.32669
1.31508
1.29617
1.26443
1.2264
1.16712
1.06773
0.948596
0.796729
0.66136
0.561622
0.483132
0.426726
0.383974
0.353537
0.32994
0.310261
0.294676
0.280193
0.262721
0.242268
0.223194
0.196363
0.175621
0.150871
0.135478
0.109851
1.00325
1.00225
1.00247
1.00252
1.00263
1.00275
1.0029
1.00305
1.00323
1.00343
1.00363
1.00383
1.00408
1.00432
1.00454
1.00483
1.00511
1.00534
1.0056
1.00592
1.00621
1.00645
1.00668
1.00696
1.00728
1.00758
1.00785
1.00811
1.00838
1.00873
1.00913
1.00952
1.00993
1.01044
1.0111
1.01185
1.0126
1.01344
1.01444
1.01564
1.0169
1.01855
1.0208
1.02596
1.04022
1.10617
1.17786
1.21603
1.28321
1.33919
1.36027
1.37472
1.38103
1.38288
1.38801
1.38839
1.39056
1.38947
1.38795
1.38683
1.38421
1.38385
1.38127
1.37967
1.37765
1.37634
1.37519
1.37417
1.37307
1.37234
1.37162
1.37114
1.37072
1.37014
1.36944
1.36842
1.36751
1.36647
1.36517
1.36415
1.36272
1.36096
1.35911
1.35714
1.35399
1.35148
1.34716
1.34104
1.33572
1.3268
1.3135
1.30023
1.27716
1.2463
1.20805
1.14501
1.06172
0.962646
0.818887
0.693746
0.59267
0.504187
0.441929
0.39734
0.363422
0.339108
0.319449
0.304059
0.29045
0.280175
0.266812
0.252542
0.234677
0.217328
0.193786
0.176272
0.154813
0.141942
0.12056
1.00323
1.00225
1.00246
1.00251
1.00262
1.00274
1.00289
1.00304
1.00322
1.00342
1.00361
1.00382
1.00408
1.0043
1.00453
1.00482
1.00508
1.00533
1.00561
1.0059
1.00616
1.00644
1.00672
1.007
1.00727
1.00753
1.00783
1.00816
1.00851
1.00889
1.00927
1.00965
1.01004
1.01052
1.01109
1.01178
1.01252
1.0133
1.01417
1.01506
1.01625
1.01715
1.02034
1.02215
1.06246
1.11419
1.14277
1.16281
1.21624
1.28558
1.33837
1.35985
1.37245
1.37275
1.37741
1.37919
1.37984
1.38117
1.37965
1.37924
1.37621
1.37562
1.37388
1.37257
1.37203
1.37083
1.36997
1.36927
1.36867
1.36846
1.36787
1.36746
1.36684
1.36585
1.36501
1.36358
1.36221
1.36066
1.3586
1.35643
1.35415
1.35075
1.34632
1.3424
1.33517
1.32852
1.31935
1.30537
1.29205
1.27267
1.2435
1.21263
1.16735
1.10332
1.03224
0.932274
0.804788
0.699946
0.60147
0.519492
0.456181
0.407533
0.369361
0.34314
0.323721
0.308875
0.297289
0.286603
0.278261
0.269766
0.25793
0.246315
0.229707
0.214158
0.193337
0.178123
0.159255
0.148419
0.130727
1.00322
1.00224
1.00245
1.0025
1.00261
1.00273
1.00288
1.00303
1.0032
1.00341
1.00359
1.00382
1.00406
1.00427
1.00453
1.0048
1.00505
1.00531
1.00559
1.00587
1.00612
1.00642
1.00674
1.00705
1.00729
1.00752
1.00781
1.00817
1.00858
1.00897
1.00932
1.00969
1.01008
1.01049
1.01095
1.01153
1.01218
1.01283
1.01337
1.01371
1.01373
1.01289
1.01241
1.00978
1.05317
1.10219
1.10711
1.11873
1.13949
1.18192
1.25228
1.30172
1.33092
1.34168
1.35103
1.35883
1.36252
1.36657
1.36624
1.36666
1.36442
1.36377
1.36316
1.36162
1.36157
1.36056
1.36031
1.35975
1.35936
1.3592
1.35849
1.35775
1.35689
1.35519
1.35398
1.35201
1.34881
1.34625
1.34209
1.3365
1.33209
1.3247
1.31428
1.30514
1.29059
1.27284
1.2551
1.22696
1.19396
1.15558
1.10103
1.03866
0.965337
0.864518
0.766479
0.672956
0.58679
0.519848
0.457022
0.411134
0.374631
0.34586
0.324945
0.309552
0.298472
0.290002
0.282553
0.276009
0.270483
0.262746
0.253208
0.242965
0.2278
0.214214
0.195694
0.182559
0.165954
0.15689
0.142056
1.0032
1.00223
1.00244
1.00249
1.0026
1.00271
1.00286
1.00301
1.00319
1.00339
1.00357
1.0038
1.00403
1.00425
1.00451
1.00477
1.00501
1.00529
1.00559
1.00585
1.00609
1.00639
1.00674
1.00707
1.00732
1.00753
1.00779
1.00819
1.00864
1.00901
1.00934
1.00969
1.01005
1.01038
1.0108
1.01128
1.01192
1.01255
1.01313
1.01367
1.01426
1.01482
1.01672
1.02645
1.06982
1.09982
1.10026
1.10705
1.11379
1.13361
1.17122
1.22832
1.2848
1.31809
1.33399
1.33776
1.34319
1.34873
1.34915
1.35033
1.35044
1.35033
1.35037
1.34904
1.34808
1.34672
1.34664
1.34563
1.34491
1.34368
1.34203
1.33942
1.33738
1.33384
1.33025
1.32614
1.31946
1.31296
1.30495
1.29291
1.28093
1.26646
1.24484
1.22313
1.19483
1.15604
1.11966
1.06941
1.0068
0.940852
0.860385
0.773126
0.696495
0.618771
0.55625
0.501534
0.444999
0.408111
0.373203
0.344727
0.325428
0.309328
0.297558
0.289167
0.282943
0.278715
0.273978
0.270319
0.26549
0.258998
0.251154
0.241753
0.228518
0.216398
0.199877
0.188279
0.173446
0.165673
0.153186
1.00318
1.00221
1.00243
1.00248
1.00258
1.0027
1.00284
1.003
1.00317
1.00336
1.00356
1.00378
1.00399
1.00422
1.00449
1.00473
1.00497
1.00528
1.00559
1.00582
1.00605
1.00637
1.00675
1.00707
1.00733
1.00753
1.00782
1.00822
1.00866
1.00903
1.00934
1.00966
1.00996
1.01028
1.01068
1.01112
1.01153
1.01195
1.01228
1.01262
1.0127
1.01398
1.0143
1.03853
1.08115
1.09321
1.09113
1.09577
1.09621
1.10433
1.11913
1.14834
1.2086
1.25942
1.28956
1.30542
1.31466
1.32517
1.32941
1.33283
1.33432
1.33456
1.33383
1.33241
1.33055
1.32828
1.32693
1.32509
1.32213
1.31844
1.31483
1.30863
1.3032
1.29588
1.28512
1.27615
1.26299
1.24523
1.22945
1.20583
1.17545
1.14739
1.10724
1.06213
1.01313
0.948966
0.886143
0.815726
0.745151
0.679856
0.616869
0.562777
0.515397
0.466342
0.424637
0.39639
0.365575
0.341679
0.324139
0.307652
0.296526
0.287815
0.281578
0.277387
0.274483
0.272238
0.269558
0.267182
0.262723
0.257662
0.250812
0.242604
0.231432
0.220576
0.205954
0.195613
0.182419
0.175785
0.165332
1.00316
1.0022
1.00242
1.00246
1.00257
1.00269
1.00282
1.00298
1.00316
1.00333
1.00354
1.00376
1.00395
1.00421
1.00449
1.00469
1.00493
1.00527
1.00559
1.00579
1.00603
1.00639
1.00676
1.00704
1.00729
1.00754
1.00787
1.00825
1.00864
1.009
1.00931
1.00959
1.00988
1.01021
1.01055
1.01084
1.01107
1.01126
1.01139
1.01141
1.01096
1.01149
1.00962
1.03708
1.07709
1.07542
1.07496
1.07761
1.07842
1.08548
1.09332
1.111
1.1452
1.19749
1.25178
1.28415
1.30469
1.30975
1.31513
1.31757
1.31739
1.31629
1.31466
1.31159
1.30781
1.30421
1.29817
1.29362
1.28629
1.27651
1.26772
1.25543
1.24037
1.22544
1.20399
1.18083
1.15495
1.11962
1.08527
1.04419
0.989909
0.937933
0.878043
0.813998
0.75898
0.696964
0.643658
0.595713
0.550716
0.51019
0.469934
0.431457
0.40461
0.378959
0.354166
0.335127
0.31983
0.305859
0.296191
0.287021
0.280937
0.276522
0.273552
0.271486
0.270264
0.269203
0.26786
0.266138
0.262735
0.258892
0.252885
0.245954
0.236437
0.226396
0.213374
0.203676
0.191966
0.186156
0.177415
1.00314
1.00219
1.0024
1.00245
1.00255
1.00267
1.0028
1.00296
1.00313
1.0033
1.00352
1.00374
1.00392
1.00419
1.00446
1.00466
1.00493
1.00525
1.00553
1.00576
1.00604
1.0064
1.00673
1.00701
1.00728
1.00759
1.00791
1.00823
1.00854
1.00888
1.00921
1.00951
1.00982
1.01014
1.0104
1.01052
1.01061
1.01066
1.01067
1.01065
1.01057
1.01076
1.01099
1.03257
1.05416
1.05127
1.05567
1.05743
1.06309
1.06877
1.07646
1.08789
1.10763
1.1444
1.20667
1.2532
1.28093
1.28858
1.29628
1.29598
1.29451
1.28944
1.28562
1.27992
1.27046
1.26268
1.24982
1.23703
1.22327
1.20372
1.1828
1.15899
1.12604
1.09684
1.05798
1.01281
0.967188
0.912004
0.853702
0.803019
0.746021
0.695927
0.648524
0.606374
0.567831
0.531958
0.497811
0.464921
0.434224
0.409749
0.386632
0.363941
0.345629
0.330014
0.316276
0.304086
0.294885
0.286981
0.281728
0.276908
0.273471
0.271054
0.269727
0.269241
0.26933
0.269087
0.268405
0.267166
0.264764
0.261627
0.256552
0.250531
0.242001
0.233051
0.221269
0.212807
0.202348
0.197447
0.190268
1.00312
1.00217
1.00238
1.00243
1.00253
1.00264
1.00278
1.00294
1.0031
1.00328
1.00349
1.00369
1.0039
1.00416
1.0044
1.00462
1.00491
1.00522
1.00546
1.00573
1.00604
1.00636
1.00664
1.00696
1.00727
1.00762
1.00795
1.0082
1.00845
1.00875
1.00909
1.00944
1.00973
1.00999
1.01018
1.01037
1.01054
1.01072
1.01098
1.01151
1.01233
1.01395
1.02049
1.04209
1.05219
1.05074
1.05447
1.05513
1.05996
1.06272
1.06883
1.07543
1.08586
1.10558
1.14901
1.19925
1.24464
1.25822
1.27164
1.26672
1.26138
1.25187
1.2404
1.22819
1.20863
1.19222
1.16868
1.13859
1.11189
1.07636
1.03484
0.993764
0.941929
0.890333
0.834787
0.781575
0.733814
0.686519
0.644272
0.606959
0.572845
0.54051
0.51013
0.482874
0.458495
0.433292
0.414347
0.394379
0.374926
0.357886
0.342803
0.327068
0.315985
0.30537
0.296943
0.289189
0.283546
0.278493
0.275171
0.272444
0.270869
0.270254
0.270204
0.270326
0.27053
0.270645
0.270453
0.269854
0.268325
0.265737
0.26147
0.255997
0.248586
0.240608
0.230326
0.222808
0.213394
0.209051
0.203062
1.00309
1.00216
1.00236
1.00241
1.00251
1.00262
1.00276
1.00291
1.00307
1.00325
1.00346
1.00365
1.00388
1.00412
1.00434
1.00459
1.00488
1.00514
1.0054
1.0057
1.00601
1.0063
1.00657
1.00689
1.00727
1.00763
1.00795
1.00821
1.00841
1.00865
1.009
1.00936
1.00963
1.0098
1.00994
1.01006
1.01013
1.01014
1.01021
1.01006
1.0108
1.00975
1.02529
1.05024
1.04922
1.04814
1.04946
1.04954
1.05186
1.05329
1.05707
1.06138
1.06936
1.07906
1.10388
1.14283
1.18967
1.21808
1.22155
1.21399
1.20418
1.18257
1.16087
1.13368
1.09962
1.06442
1.0263
0.976854
0.928201
0.876441
0.819568
0.771704
0.722712
0.680676
0.64184
0.605018
0.574014
0.544797
0.516839
0.494112
0.470657
0.452703
0.431672
0.415488
0.401638
0.385319
0.370927
0.357858
0.344073
0.332668
0.322962
0.310938
0.302678
0.294716
0.288897
0.283339
0.279199
0.276053
0.274419
0.273361
0.272824
0.272589
0.272744
0.273027
0.273444
0.273782
0.27388
0.273605
0.272536
0.270342
0.266797
0.262013
0.255718
0.248828
0.240113
0.233263
0.224773
0.221018
0.216059
1.00307
1.00214
1.00234
1.00239
1.00249
1.0026
1.00273
1.00288
1.00304
1.00322
1.00341
1.0036
1.00384
1.00407
1.00428
1.00456
1.00484
1.00507
1.00533
1.00568
1.00601
1.00625
1.0065
1.00684
1.00727
1.00763
1.00792
1.00815
1.00837
1.00865
1.00899
1.00929
1.00954
1.00967
1.00976
1.0098
1.00981
1.00973
1.00965
1.00926
1.00982
1.00861
1.01986
1.03884
1.04025
1.0395
1.04082
1.04197
1.04507
1.0481
1.05247
1.0556
1.06225
1.06709
1.08044
1.1017
1.1256
1.14658
1.13832
1.11926
1.09877
1.06117
1.02021
0.975444
0.925812
0.869192
0.821863
0.770282
0.724778
0.684514
0.645177
0.610805
0.579763
0.55149
0.52673
0.503821
0.482288
0.465566
0.446669
0.434209
0.419174
0.407338
0.395311
0.381041
0.371713
0.361424
0.35143
0.342104
0.332332
0.322285
0.315217
0.305418
0.298902
0.292253
0.288109
0.284555
0.281775
0.279801
0.278515
0.277738
0.277396
0.277371
0.277689
0.278004
0.278442
0.278752
0.278966
0.278824
0.278134
0.276517
0.273756
0.269608
0.264307
0.258022
0.250719
0.243828
0.236799
0.232973
0.229158
1.00304
1.00212
1.00232
1.00237
1.00246
1.00257
1.0027
1.00284
1.003
1.00319
1.00336
1.00357
1.00381
1.00401
1.00423
1.00452
1.00479
1.005
1.0053
1.00566
1.00598
1.00619
1.00646
1.00686
1.00726
1.00759
1.00784
1.00809
1.00836
1.00864
1.00892
1.00918
1.00939
1.0095
1.00955
1.00953
1.0094
1.00913
1.00863
1.00783
1.00679
1.00391
1.00801
1.02552
1.02253
1.02586
1.02734
1.0303
1.03216
1.03499
1.03691
1.03832
1.0395
1.0384
1.03561
1.036
1.03662
1.03527
1.0072
0.97384
0.924769
0.876544
0.825019
0.77954
0.73554
0.695437
0.658646
0.625007
0.594291
0.567421
0.542158
0.519934
0.498544
0.481169
0.463705
0.45113
0.436618
0.426261
0.413653
0.404052
0.394684
0.386051
0.378816
0.368507
0.360825
0.352433
0.34474
0.336989
0.330088
0.321772
0.316312
0.308584
0.303414
0.297854
0.294284
0.291426
0.289068
0.287157
0.285981
0.28529
0.285022
0.28485
0.285071
0.285152
0.285477
0.285651
0.285834
0.285599
0.284898
0.28334
0.280857
0.277069
0.27256
0.267031
0.261288
0.254815
0.249153
0.245145
0.242394
1.00301
1.0021
1.0023
1.00234
1.00243
1.00254
1.00267
1.0028
1.00297
1.00315
1.00331
1.00352
1.00376
1.00394
1.00419
1.00448
1.00471
1.00494
1.00527
1.00561
1.00588
1.00614
1.00645
1.00682
1.00718
1.00749
1.00779
1.00808
1.00839
1.00866
1.00889
1.00913
1.00934
1.00956
1.0097
1.00979
1.00982
1.0098
1.00973
1.0098
1.01003
1.01239
1.01968
1.03146
1.02544
1.02667
1.02615
1.02628
1.02606
1.02683
1.02654
1.02583
1.02335
1.01931
0.997624
0.970827
0.933503
0.889375
0.837637
0.794176
0.751524
0.71578
0.679612
0.647385
0.61765
0.590133
0.566191
0.543532
0.522606
0.504597
0.486943
0.474051
0.459723
0.44817
0.435747
0.426489
0.416603
0.409355
0.400748
0.393705
0.386271
0.379143
0.373619
0.365832
0.360142
0.353717
0.348094
0.341892
0.336759
0.329727
0.325067
0.318327
0.313713
0.308531
0.304921
0.302113
0.300223
0.298217
0.296858
0.295836
0.295404
0.295077
0.29504
0.294943
0.294765
0.294584
0.294346
0.293815
0.292797
0.2913
0.289269
0.286198
0.282572
0.277711
0.272936
0.266316
0.261878
0.257368
0.255907
1.00298
1.00208
1.00227
1.00231
1.0024
1.00251
1.00263
1.00276
1.00293
1.00309
1.00326
1.00348
1.00369
1.00388
1.00415
1.00441
1.00462
1.00489
1.00522
1.00551
1.00578
1.00607
1.00641
1.00675
1.00705
1.00738
1.00772
1.00809
1.00844
1.00873
1.00895
1.00915
1.00934
1.0096
1.00987
1.01011
1.01029
1.01052
1.01077
1.01172
1.01188
1.02019
1.02906
1.03429
1.03234
1.03173
1.03018
1.02889
1.02649
1.02463
1.02053
1.01578
0.997215
0.981966
0.925599
0.870942
0.79623
0.739528
0.700869
0.667626
0.640206
0.615402
0.593663
0.572731
0.553453
0.534864
0.518201
0.50402
0.489621
0.477678
0.464623
0.454684
0.444422
0.436181
0.426404
0.419151
0.41118
0.405469
0.399294
0.393941
0.388997
0.383136
0.37916
0.373079
0.368474
0.3631
0.358687
0.353291
0.349131
0.342838
0.338654
0.332583
0.328271
0.323224
0.319506
0.31616
0.313909
0.311904
0.310401
0.309181
0.308316
0.307536
0.306892
0.30622
0.305503
0.304705
0.303896
0.303066
0.301643
0.300086
0.298027
0.295196
0.292027
0.287607
0.283735
0.277647
0.274404
0.269864
0.269692
1.00295
1.00205
1.00224
1.00228
1.00237
1.00247
1.00259
1.00272
1.00288
1.00304
1.00322
1.00342
1.00361
1.00383
1.00409
1.00431
1.00454
1.00483
1.00513
1.00539
1.00567
1.00602
1.00638
1.00669
1.00694
1.00726
1.00768
1.00811
1.00845
1.00874
1.00899
1.0092
1.00944
1.00976
1.0101
1.01043
1.01072
1.01108
1.01125
1.01227
1.01114
1.02262
1.03649
1.03617
1.03371
1.03276
1.03108
1.02944
1.02675
1.02093
1.01094
0.99802
0.959403
0.918965
0.83638
0.751944
0.689927
0.650821
0.620229
0.598233
0.57854
0.56258
0.547316
0.53454
0.521998
0.510746
0.498786
0.488735
0.478123
0.4696
0.459811
0.451956
0.444021
0.437901
0.430576
0.424805
0.418578
0.413509
0.408472
0.403575
0.399772
0.394711
0.391228
0.386309
0.382145
0.377245
0.373356
0.368366
0.364788
0.359032
0.35499
0.349137
0.344822
0.339613
0.335803
0.332282
0.329687
0.32749
0.325592
0.323962
0.322507
0.321227
0.320024
0.318737
0.317212
0.315677
0.314192
0.312818
0.310956
0.309356
0.307327
0.305079
0.302637
0.299058
0.295968
0.290047
0.287401
0.282825
0.283679
1.00291
1.00203
1.00221
1.00225
1.00233
1.00243
1.00255
1.00268
1.00282
1.00298
1.00316
1.00335
1.00353
1.00377
1.00401
1.00421
1.00447
1.00476
1.00503
1.00527
1.00558
1.00598
1.00635
1.00659
1.00685
1.00722
1.0077
1.00811
1.00845
1.00872
1.009
1.00928
1.00958
1.0099
1.01021
1.01046
1.0106
1.01061
1.01031
1.00983
1.00749
1.01274
1.02849
1.0255
1.02545
1.02504
1.02442
1.02137
1.01833
1.00937
0.987255
0.964206
0.894881
0.816728
0.730677
0.671008
0.629132
0.599493
0.577265
0.560465
0.547079
0.53615
0.52666
0.518085
0.509791
0.50248
0.494824
0.488062
0.48085
0.4751
0.46854
0.462783
0.456405
0.45094
0.444757
0.439202
0.433447
0.42829
0.423561
0.41851
0.414886
0.410082
0.406611
0.402194
0.39831
0.393532
0.389708
0.38467
0.38117
0.375875
0.372036
0.366385
0.362283
0.357019
0.353021
0.349065
0.345546
0.342928
0.340447
0.338459
0.336426
0.334558
0.332733
0.33097
0.329057
0.327116
0.325249
0.323394
0.321512
0.319498
0.317448
0.315449
0.313169
0.309929
0.307134
0.301749
0.299985
0.295875
0.297658
1.00288
1.002
1.00218
1.00221
1.00229
1.00239
1.0025
1.00263
1.00277
1.00292
1.0031
1.00327
1.00346
1.0037
1.0039
1.00411
1.0044
1.00469
1.0049
1.00516
1.00554
1.00592
1.00621
1.00647
1.00679
1.00723
1.00766
1.00806
1.00842
1.00877
1.00911
1.00949
1.00984
1.01016
1.01049
1.01079
1.01105
1.01123
1.01118
1.01127
1.01028
1.01317
1.0235
1.02021
1.0219
1.02034
1.02075
1.01476
1.00489
0.99011
0.944751
0.890764
0.800418
0.722912
0.666067
0.626001
0.597503
0.576355
0.560479
0.548046
0.537827
0.529661
0.522675
0.517152
0.511958
0.50754
0.503
0.499026
0.494459
0.490327
0.48542
0.480683
0.475212
0.469888
0.464261
0.45848
0.452803
0.446964
0.442073
0.436539
0.432427
0.427511
0.423601
0.419228
0.415586
0.410846
0.407191
0.401789
0.397951
0.392583
0.388693
0.383043
0.378783
0.373346
0.368596
0.364627
0.360523
0.357671
0.354705
0.352288
0.349862
0.347583
0.345304
0.343145
0.340879
0.338625
0.336436
0.334132
0.332357
0.330095
0.328194
0.326219
0.324323
0.321743
0.319759
0.314776
0.313446
0.309477
0.311792
1.00284
1.00197
1.00215
1.00218
1.00225
1.00234
1.00245
1.00257
1.0027
1.00286
1.00303
1.00318
1.0034
1.00362
1.00378
1.00403
1.00432
1.00456
1.00477
1.00508
1.00544
1.00576
1.00604
1.00635
1.00674
1.00716
1.00756
1.00795
1.00837
1.0088
1.00925
1.00971
1.01013
1.01052
1.01093
1.0114
1.01202
1.0131
1.01449
1.0165
1.02172
1.02777
1.03256
1.03058
1.03118
1.02864
1.02315
1.01455
0.984933
0.955416
0.878878
0.792748
0.719521
0.667787
0.630396
0.603791
0.583856
0.569132
0.55785
0.549148
0.54215
0.536491
0.531756
0.527851
0.524282
0.521198
0.518072
0.515266
0.51214
0.508976
0.505214
0.50114
0.496466
0.49139
0.485921
0.480009
0.474301
0.46777
0.462305
0.456249
0.451363
0.445902
0.441367
0.436255
0.432485
0.427368
0.423648
0.418211
0.413693
0.408086
0.404238
0.398768
0.394578
0.389707
0.384786
0.380315
0.375505
0.372069
0.368704
0.36588
0.363201
0.360631
0.358091
0.355679
0.353225
0.350757
0.348317
0.345925
0.344004
0.341569
0.33955
0.337578
0.335851
0.333512
0.331728
0.327151
0.326363
0.322587
0.325531
1.00279
1.00193
1.00211
1.00213
1.00221
1.00229
1.00239
1.00251
1.00264
1.00279
1.00294
1.00311
1.00332
1.0035
1.00368
1.00394
1.0042
1.0044
1.00464
1.00497
1.0053
1.00557
1.00587
1.00625
1.00668
1.00709
1.00744
1.00783
1.00829
1.00884
1.00941
1.00992
1.01041
1.01084
1.0113
1.01167
1.01224
1.0125
1.01367
1.01211
1.02524
1.03829
1.0363
1.03428
1.0335
1.02903
1.01161
0.993344
0.936253
0.869767
0.782247
0.717099
0.670417
0.637776
0.613306
0.595668
0.581955
0.571752
0.563692
0.557606
0.552615
0.548675
0.545188
0.542316
0.539553
0.537131
0.534694
0.532392
0.529837
0.527066
0.523902
0.520309
0.516212
0.511632
0.50661
0.500543
0.494927
0.487859
0.481593
0.474847
0.469188
0.463307
0.458262
0.452529
0.448708
0.443708
0.440133
0.435302
0.43054
0.424392
0.420138
0.414728
0.410027
0.40535
0.399964
0.395525
0.390094
0.385774
0.382013
0.378767
0.375982
0.373172
0.370475
0.36786
0.365316
0.362726
0.360249
0.35803
0.355639
0.353465
0.351314
0.349304
0.347831
0.345809
0.344573
0.340506
0.340101
0.336437
0.33974
1.00274
1.0019
1.00207
1.00209
1.00216
1.00223
1.00233
1.00244
1.00257
1.00271
1.00285
1.00303
1.00322
1.00337
1.00358
1.00383
1.00403
1.00424
1.00453
1.00484
1.0051
1.00537
1.00572
1.00616
1.00661
1.00695
1.00729
1.00772
1.00829
1.00894
1.00955
1.01012
1.01064
1.01112
1.01158
1.01197
1.0122
1.01202
1.01152
1.00744
1.01435
1.03099
1.02309
1.02277
1.01288
1.00599
0.97377
0.928585
0.847955
0.76782
0.707987
0.668133
0.639166
0.618685
0.603547
0.592106
0.583169
0.576087
0.570413
0.56602
0.562616
0.560016
0.557753
0.555816
0.553961
0.552125
0.550319
0.548373
0.546431
0.544071
0.541447
0.538224
0.53469
0.530633
0.526266
0.520861
0.515338
0.508489
0.502104
0.49486
0.48854
0.482205
0.476661
0.469982
0.465387
0.46015
0.455966
0.451504
0.446912
0.440225
0.434923
0.4293
0.424043
0.420097
0.415007