/*--------------------------------*- C++ -*----------------------------------*\
| =========                 |                                                 |
| \\      /  F ield         | OpenFOAM: The Open Source CFD Toolbox           |
|  \\    /   O peration     | Version:  2.2.x                                 |
|   \\  /    A nd           | Web:      www.OpenFOAM.org                      |
|    \\/     M anipulation  |                                                 |
\*---------------------------------------------------------------------------*/
FoamFile
{
    version     2.0;
    format      ascii;
    class       volScalarField;
    location    "2.55";
    object      By;
}
// * * * * * * * * * * * * * * * * * * * * * * * * * * * * * * * * * * * * * //

dimensions      [1 0 -2 0 0 -1 0];

internalField   nonuniform List<scalar> 
14161
(
-4.55623e-06
-8.13157e-07
-1.32334e-06
-1.02825e-06
-8.23342e-07
-8.03128e-07
-1.03509e-06
-8.78283e-07
-1.00314e-06
6.7635e-07
-2.06621e-06
-3.44993e-06
4.40737e-06
7.62893e-08
-8.09172e-06
-3.15893e-06
2.23074e-05
-7.84468e-06
-8.56235e-06
-1.67038e-05
8.74771e-06
2.98721e-05
-2.13072e-06
-2.43522e-05
-1.06912e-05
1.16146e-05
1.7408e-05
3.47891e-05
2.30005e-05
-3.43672e-06
-7.89039e-06
2.45804e-05
4.23748e-05
6.42996e-05
9.53336e-05
0.000120984
0.000168643
0.000208757
0.000231704
0.000281277
0.000286005
0.000453333
-7.94803e-05
0.000324342
0.00135866
0.0128702
0.00707808
0.000155568
-0.00704113
-0.0118128
-0.0159593
-0.0174067
-0.015058
-0.0139932
-0.0128128
-0.0110397
-0.009901
-0.00838517
-0.00742827
-0.00658575
-0.00584865
-0.00494196
-0.00423983
-0.00370006
-0.00308749
-0.00248956
-0.00230067
-0.00177377
-0.0013684
-0.00157426
-0.00181577
-0.00210409
-0.00204178
-0.00190948
-0.00175025
-0.00173402
-0.00152839
-0.00149008
-0.00157847
-0.00137046
-0.00136057
-0.00146341
-0.00158653
-0.00103744
-0.0010366
-0.00135208
-0.00172522
-0.000931073
-0.000817906
-0.00123072
-0.00136138
-0.000936804
-0.000872908
-0.00125741
-0.00122213
-0.000984518
-0.000996559
-0.00157016
-0.00122631
-0.00113761
-0.00118053
-0.00123434
-0.00156299
-0.00150047
-0.00148854
0.0010697
0.00271248
0.00853709
0.0220562
0.047901
0.0747446
0.0925598
0.0975582
0.0858149
0.0739178
0.0702902
0.0668892
0.0643323
0.0612894
-8.42534e-06
-2.48344e-06
-3.34003e-06
-3.04387e-06
-2.58943e-06
-2.347e-06
-2.6573e-06
-2.5815e-06
-2.89208e-06
2.11819e-06
-5.98451e-06
-7.86466e-06
1.39959e-05
1.04352e-06
-2.57563e-05
-3.00412e-06
4.42198e-05
-8.8061e-06
-3.82086e-05
-2.86116e-05
3.57414e-05
6.86127e-05
4.07642e-06
-7.04015e-05
-3.7519e-05
1.16089e-05
5.50037e-05
8.87148e-05
5.94563e-05
7.362e-06
-1.23027e-06
3.19268e-05
9.32568e-05
0.000161341
0.000235568
0.000302829
0.000416216
0.000504388
0.000625853
0.0007744
0.00088248
0.000981512
0.000486784
0.00115767
0.00578713
0.0340508
0.0210889
-0.000759688
-0.0247073
-0.0365694
-0.0439803
-0.0507127
-0.0465761
-0.0436554
-0.0405295
-0.0356562
-0.0328296
-0.0287456
-0.0256174
-0.022455
-0.0200667
-0.0175951
-0.0154744
-0.0136273
-0.0118204
-0.0100625
-0.00890581
-0.00732558
-0.00577184
-0.00504694
-0.00474555
-0.00511842
-0.00510584
-0.00522785
-0.00512542
-0.005325
-0.00496683
-0.0047893
-0.00509663
-0.00458053
-0.00460896
-0.00485001
-0.00515681
-0.00389148
-0.00373375
-0.00467425
-0.00520919
-0.00354356
-0.00313877
-0.00428123
-0.00441587
-0.00335031
-0.00314885
-0.0042739
-0.00413547
-0.00357422
-0.00343569
-0.0050168
-0.00429258
-0.00397867
-0.00421902
-0.00442118
-0.00453661
-0.00373957
-0.00141312
0.00316449
0.00795041
0.0228612
0.0591469
0.129914
0.227782
0.26745
0.255426
0.229299
0.204216
0.190979
0.177194
0.161209
0.151121
-1.32975e-05
-5.2373e-06
-6.1316e-06
-5.01142e-06
-4.4359e-06
-3.75612e-06
-4.4799e-06
-4.21361e-06
-4.85988e-06
3.39645e-06
-9.52523e-06
-1.30339e-05
2.10093e-05
2.15168e-06
-4.63372e-05
3.96721e-06
5.91033e-05
-4.93107e-06
-7.6564e-05
-3.92243e-05
7.41821e-05
0.000103186
-1.01422e-06
-0.000112244
-6.31818e-05
2.73828e-05
0.000118904
0.00014613
9.76283e-05
-5.3396e-06
1.18356e-05
6.54378e-05
0.000165818
0.00026945
0.000410169
0.000576166
0.000738179
0.000861408
0.00106573
0.00118935
0.00137
0.00134832
0.000925248
0.00240587
0.0133723
0.0588331
0.0346463
-0.0062364
-0.048525
-0.0699896
-0.0782619
-0.0850981
-0.0781215
-0.0720894
-0.0663853
-0.0587414
-0.0546484
-0.0486088
-0.0434558
-0.0381347
-0.0341839
-0.030203
-0.0262993
-0.0230712
-0.0200097
-0.0167895
-0.014344
-0.0122626
-0.0104349
-0.00935171
-0.00889505
-0.0089976
-0.0084989
-0.00835312
-0.00806211
-0.00804516
-0.00747757
-0.00713549
-0.00753727
-0.00672442
-0.00671723
-0.00763952
-0.00745351
-0.00556654
-0.00518491
-0.00720109
-0.00736077
-0.00517614
-0.00431808
-0.00644207
-0.00646065
-0.0048886
-0.00453283
-0.00651691
-0.00619558
-0.00544139
-0.00523522
-0.00743912
-0.00648697
-0.00601588
-0.00611196
-0.00640349
-0.0062092
-0.0038453
0.000577761
0.0116478
0.0284272
0.0678591
0.146995
0.272587
0.369596
0.398499
0.373992
0.340226
0.310075
0.294268
0.278637
0.252346
0.242455
-1.85672e-05
-7.52094e-06
-8.54239e-06
-6.7577e-06
-6.22268e-06
-5.4199e-06
-6.32993e-06
-5.79735e-06
-6.749e-06
3.7505e-06
-1.26989e-05
-1.67399e-05
2.72869e-05
2.92766e-06
-5.64989e-05
5.90279e-06
7.22885e-05
-8.05265e-07
-0.000107163
-4.33689e-05
0.000106968
0.00012983
-7.23969e-06
-0.000150377
-9.83943e-05
4.27376e-05
0.000183199
0.000193213
0.000113177
9.08759e-07
2.01054e-05
8.7724e-05
0.000221613
0.000363422
0.000544529
0.000740497
0.000956388
0.00115356
0.00146077
0.00177952
0.00232975
0.00258866
0.00300285
0.00528207
0.0231417
0.0920995
0.0479544
-0.0179819
-0.0800875
-0.111196
-0.121733
-0.127274
-0.116744
-0.106115
-0.0953022
-0.0818979
-0.0734355
-0.0639996
-0.0563139
-0.0489373
-0.0436102
-0.0382816
-0.0327977
-0.0283433
-0.0246637
-0.0209995
-0.0177206
-0.0156364
-0.0138344
-0.0123092
-0.011249
-0.0110834
-0.0106831
-0.0106119
-0.0105237
-0.0107107
-0.0102537
-0.0101003
-0.0106149
-0.00974435
-0.00968617
-0.0109873
-0.0103734
-0.00843313
-0.0079282
-0.0102054
-0.0100513
-0.00778386
-0.00685367
-0.00929439
-0.00911807
-0.00752832
-0.00730704
-0.0095363
-0.00943809
-0.00878858
-0.00868142
-0.010404
-0.00920026
-0.00850021
-0.00835816
-0.00760073
-0.00558054
0.000440965
0.00965814
0.0328402
0.0750445
0.1513
0.298671
0.430077
0.498487
0.507992
0.467951
0.425582
0.393245
0.375182
0.363359
0.329409
0.321606
-2.05469e-05
-9.18193e-06
-1.02903e-05
-8.58411e-06
-7.69395e-06
-7.62191e-06
-7.75711e-06
-8.05074e-06
-8.47546e-06
3.58167e-06
-1.57218e-05
-1.95742e-05
3.08767e-05
2.29472e-06
-6.18564e-05
4.83051e-06
8.16882e-05
-5.34202e-06
-0.000124468
-3.84653e-05
0.000128819
0.000142206
-1.63445e-05
-0.000163794
-0.000111234
5.97708e-05
0.000226312
0.0002031
9.12328e-05
2.46524e-05
5.86033e-05
0.000134311
0.000269319
0.000467855
0.000726021
0.00100408
0.00124706
0.00151748
0.00187505
0.00234726
0.00301951
0.00331471
0.00434559
0.00696156
0.0306765
0.128366
0.0606622
-0.0411873
-0.117656
-0.161074
-0.171981
-0.171608
-0.153917
-0.140292
-0.125458
-0.108914
-0.0959091
-0.0833613
-0.0723318
-0.0628354
-0.0554482
-0.0482048
-0.0417418
-0.0354266
-0.0298678
-0.0256069
-0.0216159
-0.0186406
-0.016899
-0.0156257
-0.0148619
-0.014614
-0.0139437
-0.0134758
-0.0130107
-0.013131
-0.0125735
-0.0123836
-0.0128461
-0.0120524
-0.0116685
-0.0129614
-0.0122443
-0.0103907
-0.00976808
-0.0119149
-0.0117194
-0.00958546
-0.00855789
-0.0110512
-0.0108051
-0.00922355
-0.00937858
-0.0114706
-0.0113515
-0.0108293
-0.0108482
-0.0120175
-0.0102072
-0.00967198
-0.00829571
-0.00518427
-0.000650082
0.0148168
0.0382411
0.0874221
0.178562
0.31724
0.464731
0.549427
0.590278
0.578986
0.53513
0.491283
0.459256
0.440136
0.43386
0.396088
0.391155
-2.35396e-05
-1.14246e-05
-1.31533e-05
-1.07773e-05
-9.62665e-06
-9.40095e-06
-8.51718e-06
-1.0882e-05
-9.25401e-06
2.18807e-06
-1.87777e-05
-2.0451e-05
3.08591e-05
-4.9444e-07
-6.34082e-05
3.20989e-06
8.2853e-05
-8.86667e-06
-0.000115163
-4.23402e-05
0.000123353
0.000126382
-1.50693e-05
-0.000132697
-9.22764e-05
5.89467e-05
0.000223616
0.000176276
8.85525e-05
6.91686e-05
0.000106924
0.000186367
0.000298815
0.000502486
0.000804155
0.00110502
0.00135979
0.00172943
0.0022222
0.00283403
0.00385723
0.00474167
0.00702645
0.0106512
0.0398066
0.159588
0.0642606
-0.078958
-0.169777
-0.223792
-0.231819
-0.22143
-0.195256
-0.172942
-0.148838
-0.129049
-0.110638
-0.0947397
-0.0805649
-0.0689101
-0.0595466
-0.0512893
-0.0422314
-0.0365414
-0.0301204
-0.0259688
-0.0221725
-0.0193371
-0.0175113
-0.0159387
-0.0152003
-0.0149783
-0.014588
-0.0143354
-0.0138741
-0.0142027
-0.0137174
-0.0138083
-0.0145461
-0.0145168
-0.0140083
-0.01469
-0.0136601
-0.0126159
-0.0122537
-0.0134872
-0.0133201
-0.0118946
-0.0110121
-0.0132322
-0.0129553
-0.0118656
-0.0117865
-0.0134817
-0.0140101
-0.0135449
-0.0131749
-0.0123708
-0.0096745
-0.00861826
-0.00504045
0.00354663
0.0167455
0.0486202
0.105104
0.198948
0.351495
0.491874
0.58417
0.63309
0.651702
0.631179
0.586804
0.543389
0.512811
0.493411
0.490614
0.456019
0.453244
-2.61073e-05
-1.38814e-05
-1.57856e-05
-1.26468e-05
-1.20837e-05
-1.07226e-05
-1.02733e-05
-1.37193e-05
-1.03382e-05
8.27907e-07
-2.13591e-05
-2.00689e-05
2.83117e-05
-1.70695e-06
-5.96584e-05
4.37672e-06
6.90237e-05
-9.59104e-06
-8.9971e-05
-3.01037e-05
9.70507e-05
8.90512e-05
-8.05822e-06
-7.61631e-05
-6.38815e-05
6.07361e-05
0.000170598
0.00013984
0.00010665
0.000127392
0.000171746
0.000243384
0.000342676
0.000516465
0.000797852
0.0010507
0.00139161
0.00179177
0.002354
0.00302569
0.00403895
0.00514752
0.00764692
0.0115824
0.0442618
0.170127
0.049155
-0.139008
-0.233642
-0.284459
-0.280472
-0.256415
-0.22473
-0.200043
-0.171196
-0.148602
-0.12507
-0.107241
-0.0910199
-0.0785193
-0.0647263
-0.0554498
-0.0455519
-0.0389309
-0.0326465
-0.027574
-0.0241848
-0.0205974
-0.0188274
-0.0175897
-0.0166938
-0.0162469
-0.0158155
-0.0155735
-0.0152235
-0.0152286
-0.0150582
-0.0150195
-0.015687
-0.0157654
-0.0152777
-0.0153462
-0.0145912
-0.0138068
-0.0136632
-0.0144806
-0.014431
-0.0132554
-0.0124943
-0.0137883
-0.0137976
-0.0137903
-0.0135621
-0.0141337
-0.0145316
-0.0135062
-0.0119092
-0.0112328
-0.0062958
-0.00259936
0.0068386
0.0276864
0.0603235
0.124881
0.240085
0.381229
0.522982
0.614971
0.667753
0.689933
0.69237
0.666808
0.625895
0.585591
0.557737
0.539363
0.536972
0.506299
0.505628
-2.82122e-05
-1.5963e-05
-1.76666e-05
-1.39432e-05
-1.31742e-05
-1.25148e-05
-1.34589e-05
-1.56033e-05
-9.68325e-06
-1.92539e-06
-2.20486e-05
-1.77112e-05
2.08829e-05
-4.16433e-06
-4.8496e-05
2.85168e-06
4.32607e-05
-7.13455e-06
-5.97605e-05
-7.3665e-06
5.99306e-05
4.40719e-05
-5.61312e-06
-2.25505e-05
-1.4425e-06
6.31803e-05
9.06742e-05
9.90302e-05
0.000118735
0.000154443
0.000229469
0.000298937
0.000381783
0.000528471
0.00069469
0.000883874
0.00121256
0.00168397
0.00232121
0.00311738
0.00427304
0.00552553
0.00832013
0.0126883
0.0396399
0.140229
0.0187515
-0.226643
-0.318844
-0.343727
-0.331658
-0.297731
-0.256218
-0.220068
-0.188292
-0.161468
-0.132688
-0.112293
-0.0923282
-0.0784809
-0.0630706
-0.0531394
-0.0445873
-0.0363044
-0.0311721
-0.0254995
-0.0224696
-0.019471
-0.018233
-0.0170958
-0.0163359
-0.0160868
-0.0160088
-0.0158244
-0.0156632
-0.015594
-0.0156154
-0.0158312
-0.0164317
-0.0168707
-0.0165891
-0.0160994
-0.0153144
-0.0148121
-0.0147602
-0.0151157
-0.0147625
-0.0139555
-0.0132736
-0.0142423
-0.014009
-0.0143079
-0.0135212
-0.0126255
-0.0135126
-0.0123177
-0.00777728
-0.00553586
0.00329482
0.0167948
0.0374498
0.0842047
0.155363
0.275989
0.425323
0.556029
0.642638
0.695089
0.724083
0.733856
0.721794
0.692826
0.656579
0.619377
0.59464
0.577544
0.57614
0.550128
0.551637
-3.11313e-05
-1.80902e-05
-1.92302e-05
-1.55802e-05
-1.4921e-05
-1.58447e-05
-1.57288e-05
-1.53229e-05
-1.1383e-05
-6.03893e-06
-2.42719e-05
-1.40261e-05
1.09892e-05
-1.15692e-05
-2.84111e-05
5.17452e-06
1.33254e-05
-1.25462e-05
-1.00217e-05
8.49945e-06
1.25582e-05
-8.08021e-06
-4.92178e-06
3.44231e-05
7.22932e-05
4.63387e-05
1.18626e-05
5.08287e-05
0.000134172
0.000186103
0.000269104
0.000363806
0.000439565
0.000494996
0.000524668
0.000574813
0.000785663
0.00111715
0.00154384
0.00195056
0.00225262
0.00265971
0.00248311
0.00190596
0.00826038
0.03556
-0.0961993
-0.306296
-0.350262
-0.35788
-0.351927
-0.321989
-0.27976
-0.233755
-0.198411
-0.16733
-0.137416
-0.116468
-0.095059
-0.0785474
-0.0638349
-0.0513973
-0.0430916
-0.0342623
-0.0293675
-0.023974
-0.0211959
-0.0189562
-0.0175156
-0.0164566
-0.0161419
-0.015943
-0.0159274
-0.0158367
-0.0156944
-0.0156533
-0.0157609
-0.0159296
-0.0165807
-0.0168811
-0.0165723
-0.0155979
-0.0152043
-0.0148202
-0.0146804
-0.0151828
-0.01499
-0.0137295
-0.0123851
-0.0127271
-0.011849
-0.0122904
-0.0114596
-0.00883622
-0.00944155
-0.00684795
0.0034647
0.0114552
0.0274272
0.0617742
0.107865
0.198313
0.333054
0.467609
0.588572
0.668207
0.71902
0.749574
0.763903
0.762008
0.744464
0.714506
0.682622
0.648381
0.627082
0.61091
0.6098
0.587682
0.58974
-3.19479e-05
-1.93897e-05
-2.06557e-05
-1.76062e-05
-1.78829e-05
-1.77245e-05
-1.7051e-05
-1.56741e-05
-1.42755e-05
-9.85156e-06
-2.30319e-05
-1.10071e-05
-1.51139e-06
-1.77818e-05
-1.58782e-06
-1.01778e-06
-2.46507e-05
-1.64756e-05
4.13177e-05
2.31713e-05
-3.99083e-05
-5.4222e-05
1.34289e-05
0.00010378
0.000125146
4.12027e-05
-6.24506e-05
-1.31064e-05
0.000114946
0.000223867
0.00030575
0.000386849
0.000420579
0.000404634
0.00037211
0.000425229
0.000490024
0.000632455
0.000780104
0.000924855
0.000790275
0.000620385
-0.000833781
-0.00362989
-0.0183746
-0.0987951
-0.388986
-0.410929
-0.356979
-0.346842
-0.343251
-0.321611
-0.288912
-0.247593
-0.206093
-0.168643
-0.135285
-0.112968
-0.0911516
-0.0736922
-0.0611582
-0.0471792
-0.0386211
-0.0293432
-0.0248645
-0.0210337
-0.0182466
-0.0169192
-0.0155294
-0.0146328
-0.0147511
-0.0145708
-0.0148594
-0.0150795
-0.0149049
-0.0150586
-0.0155241
-0.0156417
-0.0165106
-0.0170109
-0.0165909
-0.0151778
-0.0148492
-0.0141475
-0.0133824
-0.0137932
-0.0131777
-0.0112708
-0.00922098
-0.00976463
-0.00776201
-0.00733237
-0.00606274
-0.000957693
0.00336856
0.00849329
0.0280309
0.0516261
0.0853848
0.159065
0.25622
0.380911
0.516155
0.618646
0.692073
0.742954
0.770561
0.78566
0.790697
0.780952
0.761211
0.73402
0.704278
0.672957
0.654805
0.639294
0.638832
0.620115
0.623078
-3.43238e-05
-2.13987e-05
-2.30986e-05
-1.98978e-05
-1.98088e-05
-1.98653e-05
-1.97004e-05
-1.61707e-05
-1.75495e-05
-1.53937e-05
-1.87925e-05
-6.19687e-06
-1.82384e-05
-2.13936e-05
2.31893e-05
-6.18635e-06
-6.05953e-05
-1.18647e-06
8.03493e-05
3.44511e-05
-9.47845e-05
-8.84206e-05
5.01136e-05
0.000170195
0.000153901
1.21293e-05
-0.000119655
-6.00019e-05
0.000100119
0.000255373
0.000374491
0.000394547
0.000305666
0.000196492
0.000175421
0.000267333
0.000283013
0.000297318
0.000283429
0.000243521
0.000114094
-0.000303465
-0.00149331
-0.00692518
-0.0403472
-0.264726
-0.658734
-0.550771
-0.403351
-0.366793
-0.345954
-0.317387
-0.288274
-0.252907
-0.209241
-0.170085
-0.136666
-0.109627
-0.0872747
-0.0685908
-0.0560982
-0.0426785
-0.0349166
-0.0258297
-0.0196941
-0.0180864
-0.0161636
-0.0153981
-0.0144056
-0.0136639
-0.0136672
-0.0134935
-0.0139247
-0.0141841
-0.0138139
-0.0140309
-0.0143724
-0.0141391
-0.0149273
-0.0151659
-0.0144194
-0.0126788
-0.0121067
-0.0115875
-0.0103337
-0.0105801
-0.0100422
-0.00727831
-0.00355425
-0.00392114
-0.000220993
0.00449467
0.00674004
0.0171995
0.0333538
0.0477229
0.0843784
0.142426
0.212216
0.332303
0.44721
0.563552
0.649554
0.712193
0.758709
0.788335
0.80387
0.811623
0.80807
0.795274
0.775656
0.751003
0.723306
0.69554
0.679698
0.664844
0.664244
0.648149
0.650696
-3.54066e-05
-2.29256e-05
-2.51943e-05
-2.14822e-05
-2.13952e-05
-2.31769e-05
-1.93671e-05
-1.82151e-05
-1.76441e-05
-2.56473e-05
-1.14893e-05
-3.76092e-06
-4.1187e-05
-1.4255e-05
4.05284e-05
-2.20825e-05
-8.61061e-05
2.01583e-05
0.00010633
1.78906e-05
-0.000132083
-0.000104199
7.90326e-05
0.000207187
0.000146103
-6.56017e-06
-0.000114915
-7.62082e-05
5.67348e-05
0.000247822
0.000381068
0.000305655
0.000173735
8.88154e-05
6.5758e-05
5.21023e-05
-8.94654e-06
-0.000122457
-0.000231825
-0.000361527
-0.000361825
-0.000868813
-0.00280031
-0.0133489
-0.0904779
-0.502682
-0.770528
-0.669255
-0.519558
-0.42147
-0.368465
-0.328784
-0.297662
-0.259307
-0.211216
-0.170592
-0.133655
-0.104637
-0.0816302
-0.0621361
-0.0491848
-0.0368328
-0.0296403
-0.021447
-0.0152623
-0.0140305
-0.0131296
-0.0126808
-0.0120315
-0.0116808
-0.0113616
-0.0112735
-0.0115896
-0.0118433
-0.0113746
-0.0116862
-0.0116424
-0.0111091
-0.0120395
-0.0123216
-0.011209
-0.00895848
-0.00805923
-0.00797602
-0.00624279
-0.00339546
-0.003436
0.00110498
0.00868767
0.0100099
0.0173515
0.0315919
0.040491
0.060485
0.100873
0.137622
0.202354
0.309689
0.399285
0.515947
0.60791
0.676945
0.734731
0.773028
0.799674
0.817213
0.826156
0.827656
0.820098
0.805712
0.788134
0.764994
0.740091
0.715584
0.701347
0.687152
0.686486
0.672536
0.675089
-3.72348e-05
-2.47948e-05
-2.68397e-05
-2.33129e-05
-2.36032e-05
-2.47277e-05
-2.19128e-05
-2.04258e-05
-2.00796e-05
-3.43e-05
-2.01837e-06
-5.1676e-06
-5.93377e-05
-2.71289e-06
4.59621e-05
-3.96128e-05
-8.89184e-05
3.50461e-05
0.000104658
7.09229e-06
-0.000126733
-9.24823e-05
8.25786e-05
0.000180439
0.000102929
-6.60184e-06
-4.92023e-05
-4.25589e-05
4.14307e-05
0.000198552
0.000278105
0.000177205
9.26948e-05
4.78525e-05
1.29716e-05
-3.13892e-05
-0.000109419
-0.000189433
-0.000306966
-0.000561636
-0.00096427
-0.00149044
-0.00503796
-0.0260404
-0.176242
-0.677498
-0.794653
-0.752321
-0.670051
-0.539188
-0.432394
-0.362955
-0.316089
-0.263886
-0.21312
-0.167437
-0.130114
-0.100851
-0.0779426
-0.0589616
-0.0443135
-0.0327694
-0.0265955
-0.0194384
-0.0128956
-0.0119808
-0.0117912
-0.0111853
-0.0104857
-0.0103094
-0.00979508
-0.00939835
-0.00944835
-0.00961891
-0.00884768
-0.00928765
-0.00878735
-0.0077895
-0.00807639
-0.00826133
-0.00616488
-0.00273822
0.000224824
0.000198979
0.00450634
0.012137
0.0138629
0.0204616
0.0363432
0.0450363
0.0588996
0.0905191
0.114862
0.155096
0.233334
0.30449
0.383995
0.490347
0.574556
0.645486
0.704744
0.75119
0.785598
0.810107
0.826211
0.835711
0.840582
0.837625
0.828921
0.815973
0.799685
0.778032
0.755997
0.733912
0.720831
0.707033
0.705848
0.693457
0.695363
-3.88335e-05
-2.62505e-05
-2.84228e-05
-2.48775e-05
-2.54097e-05
-2.54968e-05
-2.56371e-05
-2.22881e-05
-2.04229e-05
-3.99176e-05
2.24088e-06
-1.21918e-05
-6.67578e-05
6.39154e-06
3.85414e-05
-4.7853e-05
-7.7245e-05
3.53699e-05
7.69659e-05
-3.64665e-06
-9.05019e-05
-5.78223e-05
6.66417e-05
0.000121855
5.93772e-05
7.91797e-06
1.06077e-06
1.01847e-05
6.41157e-05
0.000112698
0.00011192
9.19049e-05
6.02875e-05
1.3477e-05
-2.40707e-05
-0.000114821
-0.000218896
-0.000316229
-0.000554106
-0.000847492
-0.00138968
-0.00236106
-0.00805047
-0.0485909
-0.339311
-0.782914
-0.813295
-0.785413
-0.747218
-0.671638
-0.5484
-0.427371
-0.336543
-0.281272
-0.228456
-0.168424
-0.131758
-0.101887
-0.0789929
-0.0588089
-0.0429621
-0.0304113
-0.023246
-0.016742
-0.0122609
-0.0118859
-0.0114767
-0.0102985
-0.00923157
-0.00921291
-0.00861414
-0.0076882
-0.00687251
-0.00637505
-0.0051705
-0.00459436
-0.00360131
-0.00135221
0.000740476
0.00136204
0.00471462
0.0110089
0.0188969
0.0217285
0.0289873
0.0441423
0.0554697
0.0667154
0.0955601
0.121783
0.151224
0.209877
0.265486
0.321332
0.405989
0.48331
0.558761
0.624395
0.678844
0.728657
0.765615
0.794533
0.816986
0.83238
0.842078
0.848404
0.848611
0.844241
0.83544
0.824101
0.809002
0.789878
0.770514
0.750563
0.738445
0.725197
0.723281
0.712067
0.713769
-4.01942e-05
-2.75742e-05
-3.0047e-05
-2.7214e-05
-2.79744e-05
-2.7275e-05
-3.05443e-05
-2.25609e-05
-2.55457e-05
-3.78162e-05
1.50488e-06
-1.99114e-05
-6.10326e-05
3.72214e-06
2.56597e-05
-4.76357e-05
-5.15523e-05
2.51185e-05
3.56756e-05
-1.96618e-05
-3.71233e-05
-4.83959e-06
3.70985e-05
3.50558e-05
2.86831e-05
3.5052e-05
5.28405e-05
8.21285e-05
7.07001e-05
7.57982e-06
-3.86363e-05
1.81903e-05
5.1033e-05
4.85311e-05
5.8443e-06
-6.77031e-05
-0.000147431
-0.000182144
-0.000300261
-0.000467524
-0.000647177
-0.0016238
-0.010108
-0.0850398
-0.523788
-0.819287
-0.812243
-0.798452
-0.778825
-0.738761
-0.671076
-0.548768
-0.409149
-0.32335
-0.247034
-0.186609
-0.137677
-0.110902
-0.0821876
-0.0596951
-0.0408014
-0.0292339
-0.0208724
-0.0145808
-0.010777
-0.0113109
-0.0108174
-0.00879423
-0.00782864
-0.00743015
-0.00617907
-0.00393412
-0.000728325
-0.00105166
0.00147926
0.00583056
0.00725932
0.0118303
0.0200479
0.0246285
0.0302007
0.0417939
0.0604806
0.0719435
0.0864979
0.111345
0.142981
0.171103
0.218239
0.268809
0.311613
0.375725
0.433308
0.495866
0.561783
0.613129
0.662698
0.709106
0.745104
0.776156
0.802015
0.821854
0.836195
0.846116
0.851818
0.855284
0.853996
0.84906
0.841838
0.831499
0.817892
0.801295
0.784015
0.765814
0.754331
0.741503
0.738653
0.728308
0.729494
-4.15602e-05
-2.90116e-05
-3.1499e-05
-2.97501e-05
-2.89283e-05
-2.92801e-05
-3.08401e-05
-2.38697e-05
-3.301e-05
-3.31154e-05
-4.03743e-06
-3.30944e-05
-4.19376e-05
4.2642e-07
-3.81846e-06
-3.57536e-05
-1.58733e-05
8.23105e-06
-2.34599e-05
-2.4643e-05
3.04054e-05
4.13488e-05
-1.31309e-05
-5.37145e-05
1.61474e-05
8.7811e-05
0.000116962
0.000133023
5.88694e-05
-9.19054e-05
-0.000158065
-6.35188e-05
3.25583e-05
6.53677e-05
4.5211e-06
-8.00489e-05
-0.000143623
-0.000299178
-0.000435693
-0.000683418
-0.00094205
-0.00322399
-0.0196826
-0.149877
-0.668194
-0.82892
-0.824167
-0.814279
-0.799303
-0.776036
-0.745449
-0.665489
-0.535615
-0.389778
-0.28931
-0.215286
-0.153859
-0.120022
-0.0835311
-0.0584963
-0.0404035
-0.0311167
-0.0209029
-0.0160288
-0.0102667
-0.00921993
-0.00813775
-0.00499947
-0.00388553
-0.00146771
0.000304896
0.0050548
0.0122525
0.0143377
0.0182335
0.0294381
0.036989
0.0433864
0.0609614
0.0761751
0.0893194
0.109815
0.145618
0.177294
0.207389
0.246733
0.295512
0.329883
0.380497
0.432208
0.472992
0.528298
0.575528
0.607478
0.655733
0.694576
0.72736
0.757363
0.783795
0.805894
0.823792
0.837682
0.847557
0.854125
0.857905
0.859154
0.857424
0.852867
0.846775
0.83745
0.825791
0.811468
0.796334
0.780005
0.769051
0.756628
0.752789
0.743019
0.743938
-4.29903e-05
-3.05284e-05
-3.36521e-05
-3.19404e-05
-3.02585e-05
-3.19029e-05
-3.16845e-05
-3.07415e-05
-3.61805e-05
-2.08946e-05
-1.76408e-05
-3.96435e-05
-1.26627e-05
-9.96883e-06
-4.3343e-05
-8.89691e-06
2.18927e-05
-2.89795e-05
-7.49879e-05
-5.98297e-06
8.77164e-05
7.09013e-05
-6.40424e-05
-0.000118232
1.08383e-05
0.00015044
0.000174239
0.000143666
2.54477e-05
-0.00014122
-0.00022292
-0.000122934
5.76779e-06
0.000115176
0.00010968
-1.84606e-05
-0.000148802
-0.00032023
-0.00051563
-0.000814416
-0.00156421
-0.00553613
-0.0352763
-0.271419
-0.758952
-0.835859
-0.828367
-0.819668
-0.80826
-0.793276
-0.774173
-0.727882
-0.653531
-0.505675
-0.352805
-0.247636
-0.182465
-0.129493
-0.0920063
-0.0592891
-0.0402538
-0.0296906
-0.0177766
-0.0138131
-0.00658722
-0.00148969
-9.16275e-05
0.00400027
0.00831163
0.0141221
0.0207287
0.0261237
0.0388583
0.051156
0.0579936
0.0770034
0.0987864
0.115208
0.144602
0.183349
0.212461
0.244924
0.292009
0.33245
0.36753
0.405596
0.44843
0.482619
0.523561
0.561729
0.588784
0.617049
0.655486
0.682858
0.713685
0.740277
0.765308
0.787583
0.807057
0.823575
0.837009
0.847306
0.854418
0.858712
0.860939
0.861463
0.859961
0.856659
0.851481
0.843225
0.83324
0.820538
0.807317
0.792829
0.782369
0.770346
0.765338
0.756154
0.756748
-4.43059e-05
-3.20434e-05
-3.47911e-05
-3.31465e-05
-3.23561e-05
-3.30085e-05
-3.39948e-05
-3.52356e-05
-3.71704e-05
-1.48452e-05
-4.05976e-05
-4.24592e-05
1.06097e-05
-3.1569e-05
-7.50464e-05
2.01732e-05
4.46283e-05
-6.80213e-05
-0.000109832
2.28388e-05
0.000120175
6.73167e-05
-9.68502e-05
-0.000153804
3.88516e-06
0.000171172
0.000201949
0.000108788
-3.08026e-06
-9.88568e-05
-0.000157552
-0.000147378
-5.12161e-05
7.86814e-05
8.09014e-05
-6.74808e-05
-0.000187159
-0.000282576
-0.000363105
-0.000486178
-0.00132537
-0.00705742
-0.054254
-0.409984
-0.819785
-0.834562
-0.826198
-0.817924
-0.80867
-0.80014
-0.786453
-0.765466
-0.721201
-0.626156
-0.461889
-0.317419
-0.223529
-0.150659
-0.108918
-0.0642132
-0.0403514
-0.0228809
-0.00882001
-0.00324711
0.00533268
0.0152314
0.0206364
0.0270275
0.0386516
0.0494048
0.0656173
0.0775692
0.0972605
0.128078
0.147792
0.180461
0.2232
0.252867
0.285362
0.330611
0.365845
0.399206
0.441006
0.476738
0.506985
0.536538
0.561591
0.581406
0.606603
0.637136
0.660045
0.679659
0.704865
0.724827
0.748169
0.769089
0.788329
0.806068
0.821427
0.834374
0.844567
0.852308
0.857838
0.861287
0.862971
0.863263
0.862249
0.859856
0.855278
0.848373
0.839702
0.828727
0.817543
0.805031
0.795194
0.783334
0.777306
0.768382
0.768594
-4.60823e-05
-3.40639e-05
-3.66104e-05
-3.52121e-05
-3.54924e-05
-3.52965e-05
-3.69184e-05
-3.96174e-05
-3.45152e-05
-1.57744e-05
-5.92795e-05
-3.38425e-05
1.74919e-05
-5.38605e-05
-7.94505e-05
3.31023e-05
3.66734e-05
-9.1971e-05
-0.000105954
3.83948e-05
0.000112196
4.1012e-05
-7.54969e-05
-0.000114753
-1.19283e-05
0.000133078
0.000150612
6.63856e-05
1.27042e-05
-1.81041e-05
-4.40642e-05
-4.62535e-05
-3.38591e-05
-2.48915e-05
-4.13684e-06
-1.65907e-06
-5.12134e-05
-3.9266e-05
-6.10709e-07
-3.24048e-05
-0.000996278
-0.00992655
-0.086358
-0.549685
-0.838125
-0.83426
-0.832847
-0.826745
-0.819803
-0.812879
-0.803759
-0.790243
-0.764663
-0.711934
-0.585527
-0.41882
-0.266412
-0.170195
-0.105516
-0.0588763
-0.0300899
-0.00692239
0.0115875
0.0235071
0.0343856
0.0537391
0.0663376
0.0789359
0.102452
0.123973
0.154343
0.182965
0.21405
0.257956
0.285964
0.323845
0.364527
0.399204
0.431294
0.464939
0.496816
0.523814
0.547639
0.571114
0.59101
0.6072
0.630437
0.647433
0.664751
0.684019
0.702682
0.715907
0.734995
0.75177
0.770003
0.787422
0.803193
0.817604
0.83001
0.840603
0.849204
0.855722
0.860221
0.862904
0.864228
0.864427
0.863909
0.862121
0.858351
0.852846
0.845437
0.836398
0.826833
0.816086
0.806504
0.794686
0.787611
0.779185
0.779203
-4.75842e-05
-3.52607e-05
-3.80964e-05
-3.73589e-05
-3.76606e-05
-3.6774e-05
-3.58358e-05
-4.52291e-05
-3.23116e-05
-2.06542e-05
-6.52807e-05
-2.5872e-05
6.5614e-06
-6.39856e-05
-6.99413e-05
2.1745e-05
1.86883e-05
-8.21206e-05
-7.59844e-05
2.81214e-05
6.08815e-05
7.78081e-06
-3.91699e-05
-3.51941e-05
7.55651e-06
4.34684e-05
5.39147e-05
6.0296e-05
6.1095e-05
5.2744e-05
3.87701e-05
2.80162e-06
-7.88971e-05
-0.000114627
-9.80344e-05
2.15079e-05
4.20342e-05
4.29361e-05
3.19877e-05
-0.000127248
-0.00187331
-0.0164648
-0.13508
-0.657876
-0.838238
-0.838631
-0.836777
-0.832618
-0.829897
-0.824599
-0.818831
-0.808223
-0.789913
-0.758346
-0.670806
-0.531545
-0.33288
-0.199005
-0.1077
-0.0489124
-0.00147167
0.0311192
0.0579986
0.0785456
0.0944672
0.128387
0.157645
0.183714
0.218662
0.252057
0.284831
0.320287
0.353624
0.393705
0.424483
0.454099
0.485487
0.510241
0.531348
0.553296
0.574002
0.596328
0.611678
0.630546
0.64723
0.658884
0.671418
0.686421
0.699319
0.714412
0.729918
0.740832
0.755704
0.769996
0.784811
0.799449
0.812822
0.82532
0.836053
0.844993
0.852052
0.857384
0.861139
0.863339
0.864537
0.864828
0.864747
0.863643
0.861052
0.856825
0.850843
0.843634
0.835519
0.826438
0.817279
0.805594
0.79777
0.789694
0.789125
-4.93821e-05
-3.70252e-05
-3.98059e-05
-3.95652e-05
-4.06808e-05
-3.8833e-05
-3.78892e-05
-4.96691e-05
-2.9974e-05
-3.54126e-05
-5.99723e-05
-1.69721e-05
-1.742e-05
-6.1057e-05
-3.29043e-05
4.11685e-07
-3.13407e-05
-4.52953e-05
-1.32749e-05
-2.32878e-06
-2.93743e-05
-9.96007e-06
3.40458e-05
5.59132e-05
4.9513e-06
-6.90839e-05
-2.7013e-05
8.17916e-05
0.000149553
0.000139442
7.42548e-05
2.10819e-05
-9.56945e-05
-0.000139261
-9.50131e-05
-2.18658e-05
3.64257e-05
1.97053e-05
-0.000111555
-0.000542781
-0.00364978
-0.0281807
-0.22938
-0.733882
-0.840257
-0.83996
-0.83898
-0.836908
-0.836486
-0.832495
-0.828425
-0.820116
-0.807199
-0.783563
-0.719173
-0.613277
-0.401069
-0.212324
-0.080964
-0.0134187
0.0533316
0.101844
0.147166
0.180371
0.208383
0.245091
0.281965
0.313852
0.347784
0.383342
0.414319
0.441835
0.46956
0.495029
0.517075
0.537458
0.557598
0.576726
0.590964
0.610176
0.625679
0.641969
0.655186
0.664891
0.678833
0.690307
0.70114
0.713011
0.724934
0.734649
0.74745
0.757577
0.770141
0.78286
0.795702
0.808557
0.820073
0.830628
0.839627
0.847095
0.853132
0.857942
0.861539
0.863826
0.865076
0.865618
0.865809
0.865136
0.86338
0.860391
0.855914
0.850268
0.843193
0.835324
0.826283
0.815161
0.806426
0.798918
0.797673
-5.11017e-05
-3.89088e-05
-4.19152e-05
-4.12605e-05
-4.34281e-05
-3.97244e-05
-4.31886e-05
-4.46729e-05
-3.20838e-05
-5.32402e-05
-3.98178e-05
-1.8853e-05
-5.58564e-05
-4.35588e-05
-4.14746e-06
-4.42734e-05
-7.61869e-05
6.76897e-06
3.487e-05
-5.66355e-05
-0.000104076
-2.08966e-06
9.9484e-05
0.000100782
-1.07486e-05
-0.000133214
-7.35006e-05
8.65608e-05
0.000198536
0.000201249
0.000138478
4.83507e-05
-2.8331e-05
-9.10424e-05
-8.29586e-05
-4.48489e-05
3.60126e-05
2.9401e-05
-6.72022e-05
-0.00078043
-0.00554672
-0.0431367
-0.343921
-0.790384
-0.838227
-0.838394
-0.839726
-0.839856
-0.83868
-0.836921
-0.833265
-0.825188
-0.811956
-0.789285
-0.72788
-0.628819
-0.415724
-0.18598
-0.0250704
0.0792469
0.159151
0.217578
0.263291
0.303368
0.335328
0.371752
0.403167
0.430469
0.45724
0.480274
0.501506
0.521157
0.539378
0.557918
0.572396
0.591174
0.605318
0.619259
0.63062
0.644434
0.656519
0.669278
0.681758
0.691228
0.702
0.711516
0.721043
0.731068
0.742213
0.75028
0.761169
0.770592
0.781477
0.792533
0.803427
0.814365
0.82406
0.833081
0.841122
0.84812
0.853811
0.858206
0.861382
0.863426
0.86481
0.865658
0.866199
0.86626
0.865497
0.863684
0.860425
0.856062
0.850249
0.84381
0.835395
0.82487
0.815097
0.808226
0.805877
-5.30414e-05
-4.08663e-05
-4.41157e-05
-4.31797e-05
-4.62076e-05
-4.30318e-05
-4.70459e-05
-4.18022e-05
-4.29048e-05
-6.32593e-05
-2.30891e-05
-3.38943e-05
-8.29179e-05
-1.73558e-05
2.56437e-06
-9.10908e-05
-8.44848e-05
3.97342e-05
3.92085e-05
-9.66729e-05
-0.000134483
1.06437e-05
0.000129508
9.37267e-05
-1.5585e-05
-0.000118819
-8.46067e-05
6.49819e-05
0.000177242
0.000182016
0.000136666
0.000110115
9.04291e-05
5.00842e-05
4.51189e-05
8.17005e-05
0.000149925
0.000195463
0.000147677
-0.000675375
-0.00725209
-0.060998
-0.460056
-0.833288
-0.845283
-0.845162
-0.846098
-0.845798
-0.843909