/*--------------------------------*- C++ -*----------------------------------*\
| =========                 |                                                 |
| \\      /  F ield         | OpenFOAM: The Open Source CFD Toolbox           |
|  \\    /   O peration     | Version:  2.2.x                                 |
|   \\  /    A nd           | Web:      www.OpenFOAM.org                      |
|    \\/     M anipulation  |                                                 |
\*---------------------------------------------------------------------------*/
FoamFile
{
    version     2.0;
    format      ascii;
    class       volScalarField;
    location    "2.55";
    object      divBf;
}
// * * * * * * * * * * * * * * * * * * * * * * * * * * * * * * * * * * * * * //

dimensions      [1 -3 -2 0 0 -1 0];

internalField   nonuniform List<scalar> 
14161
(
1498.09
187.071
364.204
286.572
269.307
231.747
203.166
170.874
141.495
113.682
77.8817
66.3506
29.0668
-14.0392
-22.2304
-21.4743
-89.6793
-140.133
-106.715
-109.885
-176.666
-235.624
-285.378
-214.321
-210.751
-283.6
-322.526
-388.499
-424.006
-416.536
-421.166
-400.593
-509.386
-588.276
-721.064
-894.819
-981.417
-1078.51
-1187.29
-992.187
-586.256
-753.281
-1378.89
384.642
-315.241
-18660.7
-26419.4
-23899.4
-31481.9
-28502.6
-32827.2
-33459.6
-33897.7
-33517.9
-34065.3
-33103.2
-33015
-31927.8
-31332
-29917.9
-28602.3
-26648.7
-25020.4
-23299.1
-21433.5
-19561
-17738
-15862.4
-13626.4
-11945.2
-10235
-8767.22
-6923.66
-5210.11
-3300.42
-1636.21
222.998
1900.72
3391.27
5005.39
6352.09
7730.05
8936.75
10379
11305.6
11830.1
12649.8
13431.7
14074.7
13970.9
14251.5
14141.8
13902.6
12982.4
12513.1
11337.8
10209.6
8404.63
7229.95
5200.9
3271.41
667.969
-1798
-4087.51
-7228.39
-9582.05
-12332.3
-14885
-16048
-20622.4
-24011.3
-28017.8
-20581.1
-24201.4
-5840.69
-18473.1
14295.8
-18146.8
51797.5
1246.68
-59.1552
117.641
39.3883
21.0237
-18.6967
-49.9656
-86.5309
-118.935
-153.366
-193.25
-210.585
-257.73
-304.261
-317.472
-344.023
-411.081
-457.627
-457.508
-452.629
-558.321
-622.962
-650.168
-632.592
-636.871
-716.875
-797.685
-880.894
-920.533
-899.922
-945.819
-982.591
-1078.51
-1137.46
-1179.49
-1244.04
-1450.08
-1608.58
-1929.83
-2260.66
-2540.36
-2254.3
-2797.17
-619.27
-2705.18
-8953.32
-23292.5
-20215.3
-31055.4
-28541.3
-32164.4
-33002.7
-32907.1
-31939.6
-31176.6
-29602
-28755.5
-27558.4
-26133.1
-24683.9
-23540.4
-22388.9
-20594.7
-19130.6
-17619.7
-15971.4
-14263.1
-12862.7
-11170.1
-9422.93
-7679.01
-5987.51
-4327.04
-2792.53
-990.171
533.813
2254.89
3907.55
5252.54
6773.35
8069.11
9391.98
10343.6
11824.8
12803.7
13325.5
14064.4
15021.3
15352.9
15368.8
15542.4
15468.4
15073.6
14284.8
13776.1
12650.8
11610.2
9908.16
8743.77
6674.85
4875.72
2512.03
-238.803
-1790.27
-5744.71
-8405.19
-12351.3
-16999.2
-22155.7
-28100
-29888.6
-31639.7
-20499.7
-23546.8
-6502.56
-18288.9
12259.8
-18166.2
45671.3
998.022
-298.86
-121.365
-198.361
-217.349
-257.186
-290.545
-328.231
-364.324
-401.191
-444.136
-470.721
-518.148
-567.514
-593.72
-624.796
-694.624
-739.298
-765.11
-788.615
-880.271
-948.449
-979.952
-992.572
-1013.44
-1112.33
-1207.59
-1291.63
-1294.77
-1355.58
-1416.49
-1495.42
-1553.27
-1647.37
-1765.98
-1871.49
-2052.8
-2149.52
-2382.07
-2491.52
-2588.35
-2452.07
-2741.28
-1154.98
-2656.07
-1468.47
-19388.9
-18910.7
-31880.7
-31883.9
-34044.6
-33751
-34132.7
-32794.8
-32509.3
-30192.6
-29449.3
-28257.8
-26312.2
-25043.3
-23096.8
-21761.4
-19884
-18115
-16231.4
-14528.6
-12441
-10832.9
-9248.35
-7517.23
-5923.89
-4203.06
-2559.93
-970.816
644.117
2223.28
3804.17
5406.91
6569.87
8106.5
9451.88
10560.1
11541.4
12936.3
13721.7
14470.5
14937.6
16063.4
16025.1
16322.7
16279.4
16277.9
15867.5
14968
14647.7
13428.1
12421.4
10693.1
9566.45
7792.12
5704.16
4021.84
938.849
-1427.24
-3975.01
-7501.71
-9750.78
-14611.2
-15353.3
-23550.5
-19153.5
-22720.3
-14336.1
-18006.7
-4275.2
-14921.3
10827.4
-16038.8
41192.3
753.541
-530.061
-352.358
-426.241
-443.95
-482.848
-517.043
-554.848
-591.479
-631.892
-674.217
-707.787
-756.821
-808.087
-844.426
-877.668
-951.202
-996.107
-1039.53
-1074.32
-1167.6
-1235.48
-1262.19
-1327.58
-1356.36
-1446.75
-1557.28
-1623.33
-1639.09
-1746.93
-1821.07
-1893.01
-1955.85
-2074.55
-2143.13
-2273.6
-2389.05
-2463.79
-2669.94
-2688.29
-3192.11
-3035.29
-3341.78
-1674.47
-4376.31
9616.22
-21552.2
-19981.1
-33640.6
-34556.8
-36302.4
-34770.8
-34740.2
-31825.7
-31388.6
-28906.3
-26488.5
-24946.8
-22687.3
-21657.6
-19770.4
-18371.9
-16864.7
-14849.3
-13070.7
-11510.6
-9616.68
-8061.64
-6694.41
-5109.65
-3493.53
-1901.73
-340.276
1100.56
2583.27
4056.41
5499.42
6941.92
8104.23
9568.27
11017.6
11986.2
13086
14051.2
14741.5
15761.7
16305.6
17122.4
16922.4
17422.6
17494.8
17233.2
16813.1
16117.3
15785.1
14548.3
13618.8
11876.1
10953.9
8916.54
7159.54
4592.74
2430.87
22.6577
-2382.68
-6508.74
-10815.1
-13682.1
-21120.3
-16864
-14839.8
-15546.5
-11186.2
-14375.1
-3603.13
-12833.5
8555.94
-13847.8
34885.7
514.522
-752.447
-572.843
-642.851
-659.031
-695.028
-728.987
-766.327
-803.397
-844.688
-886.247
-924.873
-975.612
-1022.41
-1071.48
-1109.29
-1182.38
-1221.31
-1292.24
-1324.8
-1422.08
-1471.8
-1515.48
-1623.18
-1668.46
-1731.16
-1854.63
-1899.09
-1962.85
-2069.68
-2147.33
-2230.12
-2312.67
-2379.52
-2457.95
-2504.19
-2555.79
-2584.13
-2710.32
-2685.6
-2903.4
-2770.8
-2455.48
-1279.98
-2405.68
11788.4
-19253.2
-25519.4
-35905.8
-39964.4
-39496.9
-38255.5
-35249.5
-32444.4
-29978.3
-29677.7
-25121
-23593.6
-20191.5
-19194.2
-17281.6
-15980.5
-13761.6
-12882.7
-10572.6
-9126.95
-7579.51
-5971.57
-4471.17
-3004.57
-1517.84
-71.0898
1426.71
2934.31
4446.97
5842.78
7283.24
8596.4
9804.12
11063.8
12278.7
13429.1
14718.9
15366.5
16049.4
17177.9
17466.1
18149.9
17956.4
18455.4
18594
18157.5
17998.5
17154.2
16524.9
15458.7
14787.3
13036
12013.6
9911.64
7705.75
6399.82
4180
1229.72
-789.687
-4904.87
-7775.58
-12003
-10800.4
-11665.1
-9790.38
-11968.9
-8332.72
-10837.5
-2787.62
-10381.3
6257.7
-10833
29756.1
282.094
-963.887
-782.814
-847.97
-861.173
-893.881
-926.846
-961.801
-999.092
-1039.58
-1079.25
-1124.6
-1173.64
-1214.68
-1275.33
-1320.38
-1385.66
-1422.75
-1510.43
-1561.18
-1634.08
-1675.24
-1756.51
-1855.25
-1948.26
-1999.79
-2084.99
-2140.14
-2238.72
-2331.16
-2436.15
-2530.36
-2608.52
-2675.36
-2757.6
-2799.94
-2855.66
-2891.17
-2982.77
-3039.44
-3273.5
-3096.54
-3629.77
-3017.55
-4768.72
-3121.76
-19202
-35353.8
-42421.3
-44770.5
-41144.3
-37135.8
-32316.4
-31159.7
-25570.5
-25874
-21747.3
-20621.8
-18177.9
-16365.1
-14043.8
-12168.3
-10341.4
-8954.78
-7637.13
-6064.95
-5296.4
-3604.37
-2255.16
-801.425
900.362
2342.92
3607.31
5051.95
6236.94
7644.24
9038.38
10264.2
11476.6
12503
13730.2
14882.2
15976.2
16465
17255.6
18358.9
18506.2
18981.7
18722.8
19615.5
19421.7
19032.6
18564.3
18378.6
17560.2
16527.3
15887.8
14218.8
12429.1
10979.8
9939.98
8008.08
6148.49
3218.56
1339.94
-782.626
-6649.62
-6496.99
-6754.49
-7329.29
-7320.36
-9001.52
-6465.56
-8729.59
-2889.56
-8948.54
4429.77
-9055.84
23421.7
58.5984
-1164.29
-980.96
-1040.38
-1049.48
-1080.02
-1109.04
-1142.29
-1179.25
-1218.31
-1256.24
-1303.81
-1353.61
-1389.26
-1456.25
-1512.43
-1561.83
-1610.29
-1700.83
-1765.87
-1833.95
-1863.98
-1962.33
-2063.24
-2162.27
-2252.57
-2300.51
-2357.87
-2469.7
-2568.53
-2664.83
-2765.63
-2856.11
-2901.81
-2964.78
-2993.39
-2972.83
-2918.2
-2808.87
-2706.11
-2459.26
-2157.24
-1385.08
-1132.02
579.492
-15872.6
-24596
-49354.1
-50405.7
-47975.3
-37274.2
-33409.2
-29074.8
-26343.8
-23688.4
-21287.4
-17664.4
-15158.3
-15023.1
-12287.3
-10661.5
-8655.24
-7760.19
-5832.73
-5554.45
-3714.93
-2661.09
-1319.6
5.66752
1330.69
2590.4
4005.63
5267.52
6807.3
7974.37
9396.05
10570.2
11784
13013.7
14215.9
15173.9
16329
17174.6
17927.2
18561.8
19584.9
19822.4
20333.6
20000.2
20671.1
20439.7
20210.8
19634.4
19622
18219.9
17548.2
16687.5
15350.9
14493.6
13396.1
11477.3
9889.34
8572.5
7624.42
5169.89
1114.31
-1605.85
-2733.31
-3801.7
-5171.41
-5307.2
-6923.34
-5084.84
-6978.61
-2801.49
-7321.7
3057.91
-7540.65
19045.5
-155.451
-1352.47
-1166.77
-1219.95
-1224.29
-1251.33
-1276.6
-1308.21
-1343.7
-1380.34
-1416.78
-1464.72
-1515.4
-1546.7
-1615.79
-1682.08
-1724.45
-1768.45
-1865.06
-1951.91
-2008.71
-2042.15
-2128.59
-2242.54
-2346.1
-2461.13
-2499.64
-2542.61
-2676.23
-2775.98
-2865.51
-2962.78
-3066.56
-3139.9
-3183.74
-3205.43
-3174.75
-3140.54
-3042.7
-3012.21
-3032.12
-3148.54
-3055.4
-5907.49
-7754.84
-58045
-37550.9
-66254.1
-46447.6
-34725.1
-30803.4
-32233.8
-27689.4
-21527.7
-20199.4
-15030.6
-14345.8
-11072.6
-11187.4
-7791.27
-7002.13
-5862.1
-4861.8
-3006.03
-2299.98
-1054.35
-86.6831
814.619
2156.62
3373.45
4524.25
5920.69
7166.55
8486.64
9691.2
11039.8
12047.6
13222.3
14454.8
15543
16525.6
17715
18381.5
18991.7
19646.2
20159.6
20634.5
21000.5
21237.7
21513.8
21540.4
20901.2
20203.6
20141
19293.2
18744.4
19294.1
17201
15676.4
14980.7
14505.2
14588.5
14148.8
13947.6
7861.89
3819.35
629.58
-1353.91
-2259.69
-3768.93
-4436.81
-4924.49
-4516.01
-5546.5
-2656.24
-5984.93
1695.42
-6335.31
14181.5
-358.656
-1527.67
-1339.36
-1385.9
-1385.73
-1407.72
-1430.25
-1459.8
-1491.63
-1526.53
-1562.17
-1609.95
-1659.38
-1686.14
-1760.74
-1832.59
-1867.82
-1902.45
-2014.69
-2112.22
-2157.41
-2189.82
-2280.91
-2406.87
-2518.87
-2621.72
-2664.98
-2722.65
-2849.56
-2954.64
-3053.8
-3140.2
-3227.95
-3296.12
-3287.74
-3304.77
-3238.21
-3085.33
-2898.68
-2432.37
-1960.26
-957.775
420.12
627.064
-1587.24
-67039.7
-98473.6
-69213.9
-18529.8
-11313.5
-11339
-16760.6
-17640.6
-16984.2
-14212.5
-10122.3
-9022.61
-7419.92
-6617.62
-4639.51
-5098.26
-2691.79
-2092.42
-507.857
178.272
1017.52
2278.7
2898.56
4195.44
5267.63
6406.27
7756.09
8939.31
9972.25
11228.6
12428
13389.7
14586.5
15652.2
16509.7
17487.3
18568.7
19279.5
20088.8
20842.2
21362.1
21904.1
22211.5
22345.4
22189.7
22320.3
22179.6
21639.2
22058.2
20787.4
20204.5
19739.4
19708.5
18926.5
20474.1
20708.2
22190.1
20270.3
14564.3
8052.13
3690.03
1334.72
-460.431
-1422.27
-3036.91
-3449.88
-3821.61
-4091.94
-4719.82
-3024.35
-5373.56
735.32
-5863.64
11033.1
-549.881
-1689.17
-1497.95
-1537.51
-1533.06
-1551.29
-1569.36
-1596.22
-1624.27
-1657.9
-1691.73
-1740.83
-1785.23
-1813.72
-1887.25
-1959.75
-1989.97
-2042.87
-2141.37
-2232.06
-2287.1
-2325.35
-2429.48
-2546.45
-2662.6
-2739.41
-2816.69
-2884.81
-2985.13
-3100.22
-3211.52
-3325.5
-3396.32
-3446.61
-3461.79
-3502.66
-3537.66
-3539.67
-3401.32
-3343.47
-3223.36
-3330.56
-3414.8
-4889.02
-18082.7
-86838.3
-200879
-56337.5
-14626.8
-9450.63
-7643.93
-6367.6
-8748.57
-11774.4
-9674.18
-5944.35
-6599.24
-5057.26
-2639.68
-1282.07
-786.383
-97.3345
275.141
1432.16
2561.41
2717.31
3702.01
4513.99
5619.34
6692.33
7859.11
9095.97
10161.4
11222.9
12507.5
13619.3
14829.2
16062.9
16890.4
18019.9
18838.1
19787.3
20386.6
20893.7
21585.9
21838
22254.6
22592.5
23697.5
23081.2
23408.3
23365.7
22687.3
22745.1
23536.7
22721.6
23025.3
25052.2
25265
28307.4
29670.8
27079.4
17607.7
11471.4
6267.96
3536.04
1208.46
-104.88
-1151.46
-2868.58
-2280.05
-3427.89
-3366.44
-3450.12
-2701.35
-4117.23
-249.298
-5310.66
7683.45
-728.546
-1836.28
-1642.5
-1675.2
-1666.35
-1680.18
-1694.52
-1717.62
-1743.66
-1773.9
-1807.44
-1856.34
-1894.24
-1929.34
-2000.62
-2066.49
-2094.32
-2165.9
-2257.37
-2330.24
-2394.88
-2448.29
-2558.45
-2672.41
-2763.85
-2837.76
-2942.28
-3034.88
-3119.88
-3231.47
-3350.11
-3461.35
-3513.21
-3545.91
-3584.94
-3658.1
-3627.01
-3544.14
-3343.5
-3183.63
-2869.2
-2550.04
-2278.03
-3552.37
-17476.5
-112638
-104419
-69641.8
-41516.3
-19004.6
-9208.85
-6179.68
-5660.92
-8653.18
-5403.44
-4751.32
-5093.51
-2348.61
-355.382
20.4544
597.939
1240.4
2372.49
2930.06
4249.71
4675.49
5193.91
6357.89
7333.89
8405.27
9571.34
10759.4
11754.3
12838.8
14023.2
14913.5
16047.7
17012
17704
18660.3
19618.1
20496.8
21265.9
21663.5
22737.4
23243.3
23592.3
23940.5
24743.8
24321.4
24677.1
25780.1
25085.3
25883.1
27549.2
28003.4
29348.9
34005.7
35635.5
37711.9
28659.1
20172.8
12903.8
8005.74
4954.19
2411.96
1083.04
-81.6084
-1097.23
-1868.72
-1908.75
-2987.72
-2912.35
-3322.78
-2870.26
-3667.79
-834.674
-4963.99
5590.95
-893.015
-1968.29
-1772.67
-1798.92
-1785.51
-1794.29
-1806.52
-1824.43
-1849.53
-1874.42
-1909.49
-1957.22
-1986.6
-2031.71
-2100.13
-2150.79
-2198.68
-2263.57
-2354.42
-2411.81
-2494.12
-2569.72
-2654.97
-2768.11
-2851.12
-2927.04
-3053.13
-3166.42
-3250.56
-3341.8
-3465.61
-3559.21
-3609.66
-3677.04
-3761.16
-3799.06
-3874.41
-3899.46
-3911.48
-3863.69
-3915.93
-4061.45
-4600.61
-8249.22
-37531.7
-129381
-25833.7
-47919.2
-76862.6
-39511.9
-20642.4
-12238.6
-11475.3
-3445.88
-2971.63
-2556.76
-2282.62
200.037
1149.46
867.528
1720.88
3068.92
3093.46
4165.82
4819.98
5433.87
6091.03
6967.09
8091.02
8977
10175.7
11279.7
12369.9
13583.2
14825.7
15745
16970.7
18316.4
19005.7
19929.7
20798.5
21801.8
22498.6
22723
23393.1
24996
24997.1
25115.2
26836.6
26537.6
27559.1
29393.6
30072.7
31238.4
35827.5
37185.3
40612.3
43128
38175.3
27523.2
20333.6
13245
9014.69
5629.4
3373.95
1735.66
697.36
-272.565
-1178.26
-1455.2
-1954.61
-2431.89
-2497.13
-2914.51
-2846.36
-3416.92
-1528.55
-4748.06
3348.7
-1043.27
-2085.33
-1888.22
-1908.11
-1890.39
-1894.86
-1904.75
-1917.17
-1941.98
-1963.51
-1997.15
-2041
-2070.81
-2118.24
-2182.42
-2221.04
-2288.01
-2356
-2427.24
-2481.72
-2580.2
-2660.89
-2755.43
-2842.36
-2911.29
-3023.97
-3130.76
-3259.52
-3359.51
-3473.68
-3571.28
-3618
-3714.83
-3813.05
-3922.86
-3979.82
-3998.92
-4032.65
-4073.59
-3963.66
-3839.04
-3573.25
-3736.25
-9625.16
-64279.3
-79280.8
-10745.2
-26021.7
-53526.8
-71530.6
-41718
-25104.2
-9985.24
-4677.57
-3393.79
5.90766
85.8912
1393.08
1865.61
1525.99
2542.46
3821.6
4631.2
5094.95
5864.29
6481.25
7387.44
8357.75
9429.32
10435
11556.1
12627.1
13796.7
14961.6
16070.1
16983.3
17973.7
19136.3
20293.7
20936.2
21876
22877.4
24360.6
24591.4
25465.8
27705.5
28150.2
28312.1
30302.8
32081.3
33007.3
36621.9
39087.9
40434.3
43965.1
47707.1
43974.3
32547.7
25885.5
18266.9
12470.4
8769.74
5479.64
3673.98
2178.02
1182.53
407.232
-603.79
-640.541
-1273.13
-1542.26
-2024.3
-2216.97
-2578.15
-2553.24
-2898.56
-1831.48
-4407.75
2117.57
-1178.55
-2187
-1989.04
-2002.97
-1981.09
-1982.31
-1987.72
-1997.8
-2020.86
-2040.35
-2073.58
-2108.33
-2146.64
-2194.2
-2245.98
-2288.68
-2355.33
-2430.89
-2487.54
-2546.35
-2642.69
-2734.95
-2831.42
-2907.79
-2984.1
-3087.64
-3198.32
-3320.27
-3463.19
-3587.4
-3620.96
-3699.53
-3820.57
-3937.96
-4046.71
-4112.52
-4168.04
-4273.29
-4293.92
-4314.72
-4336.12
-4569.03
-6348.37
-17999.9
-115526
-30218.7
-3864.32
-10886.3
-23456.7
-44373.9
-64076
-38693.4
-15791.2
-12632.2
-7600.86
-3971.17
760.551
-1500.81
505.284
1587.51
4297.25
4745.75
5894.75
5822.67
6502.36
7235.24
8253.26
9343.91
10340.5
11134.5
12209.5
13452.5
15092.8
15911.9
16867.2
18605.4
19362.9
20638.3
22631.8
23548.8
24190.7
25502.2
27869.3
28688.6
29623.8
31104.5
34544
35117.8
37899.4
40376.1
41928
45068.3
48985.7
50685.3
41230
33706.4
29340.2
20820.5
15261.1
11177.7
7604.63
5122.51
3438.37
2103.8
1147.12
624.933
-174.668
-588.847
-735.096
-1285.41
-1379.43
-1849.73
-2036.83
-2399.43
-2524.02
-2830.34
-2231.79
-4160.87
769.559
-1298.4
-2273.09
-2074.85
-2083.4
-2057.64
-2056.45
-2056.93
-2067.83
-2084.26
-2104.34
-2139
-2162.67
-2206.26
-2258.44
-2296.15
-2345.72
-2409.83
-2490.41
-2543.11
-2588.41
-2695.72
-2804.15
-2894.12
-2947.1
-3034.53
-3138.48
-3267.64
-3386.44
-3524.87
-3637.63
-3696.87
-3786.63
-3909.24
-4023.79
-4137.78
-4223.94
-4336.43
-4452.66
-4464.08
-4473.43
-4565.3
-4705.68
-6534.3
-26654.4
-99630.4
-5492.61
-4341.94
-6205.69
-11460.8
-20597.1
-41654.8
-63403.5
-44318.8
-26016
-11888.1
-7213.34
-1806.39
-2564.03
1653.27
3546.56
5416.82
5123.15
6476.67
6436.63
7712.45
8441.82
9384.42
10705
11399.2
12762.9
13787.6
15265.8
17760.8
17848.7
18921.7
21528.7
22577.4
23582.6
26402.7
28418.2
29046
30686.6
34155.7
36929
38290
39448
42900.8
44539.8
47400.6
50261.7
49670.4
44221.4
37795.6
31889.1
26709.3
21423.5
16265.2
12137.7
8885.42
6095.95
4272.59
2889.28
1797.31
1100.46
455.168
244.053
-403.479
-364.995
-685.868
-945.825
-1096.18
-1539.71
-1689.66
-2115.33
-2298.28
-2660.06
-2438.04
-3947.91
-71.1779
-1402.71
-2343.73
-2145.88
-2149.41
-2120.69
-2117.09
-2113.81
-2125.4
-2133.53
-2157.27
-2191.71
-2204.3
-2254.29
-2309.34
-2331.39
-2390.62
-2461.92
-2534.96
-2573.56
-2631.48
-2740.22
-2843.9
-2933.66
-2986.45
-3074.8
-3196.12
-3310.75
-3445.88
-3551.54
-3658.42
-3761.39
-3868.44
-3989.12
-4105.29
-4215.11
-4334.62
-4462.26
-4516.14
-4541.75
-4553.34
-4496.89
-4783.59
-8997.12
-44761.8
-63265.5
-1856.43
-5107.94
-2755.19
-6563.12
-9769.38
-20136.6
-35547.9
-61953.8
-36293.6
-20537.5
-11732.3
-6943.77
-209.443
1137.64
5027.51
5317.64
5788.15
6715.96
7202.72
8721.9
10679.2
11502.2
12746.1
13882.7
15754.5
17130.3
18275.9
21306.1
22717.1
23906
26488.9
29474.3
30413
33321.6
37683.6
39299
40866.9
43229.1
47220.3
49659.4
51010
50845.1
47235.1
42807
36938.7
32801.1
27333.6
23546.9
19773
14895.3
11767.2
8997.49
6410.79
4588.83
3214.03
2056.3
1298.85
666.422
257.998
-162.093
-190.101
-581.246
-534.407
-835.549
-937.414
-1157.7
-1456.86
-1597.59
-2011.15
-2207.02
-2582.89
-2601.64
-3631.03
-800.849
-1491.2
-2398.85
-2202.4
-2201.76
-2170.84
-2163.83
-2159.29
-2167.42
-2175.08
-2196.93
-2228.9
-2240.91
-2291.54
-2344.71
-2358.04
-2424.32
-2499.16
-2562.5
-2590.66
-2678.43
-2773.7
-2863.32
-2945.78
-3011.78
-3111.81
-3231.65
-3358.33
-3468.57
-3557.72
-3686.24
-3814.41
-3945.22
-4035.4
-4163.03
-4293.32
-4427.9
-4532.97
-4610.61
-4667.76
-4714.51
-4788.36
-5913.32
-11773.1
-72483.9
-45212.3
-688.921
-69.3935
509.278
-828.383
-3128.95
-6830.39
-18056.5
-36941.5
-56186
-34383.4
-17484.5
-11672.7
-1736.77
-503.059
4375.2
5120.25
8500.66
9301.76
10487.5
12020.4
14782
15809.5
16954.6
19146.9
21108
24035.3
25052.8
27106.7
32363.6
33564.3
36373.2
41002.4
42982
44528.7
49537.6
52342.8
54347.5
51879.6
48926.9
44735.4
40387.2
33712.1
30795.1
26283.8
23173
20201.6
16449.1
12333.6
11054.3
7974.9
6006.79
4503.26
3212.01
2012.95
1220.08
547.208
149.152
-167.629
-210.305
-485.266
-409.659
-586.431
-520.275
-652.133
-666.281
-900.609
-1086.78
-1330.1
-1761.28
-2027.3
-2440.26
-2617.67
-3396.56
-1314.69
-1563.91
-2438.63
-2244.57
-2240.64
-2207.86
-2197.51
-2192.7
-2197.19
-2205.84
-2227.18
-2249.84
-2271.11
-2317.24
-2362.08
-2386.55
-2447.15
-2516.39
-2567.9
-2625.45
-2700.92
-2795.46
-2867.84
-2952.61
-3050.29
-3138.56
-3251.39
-3363.8
-3472.94
-3573.73
-3696.34
-3843
-3970.99
-4102.18
-4238.41
-4336.25
-4446.02
-4552.51
-4626.64
-4672.5
-4759.95
-4876.4
-5773.55
-14299.8
-75170.9
-20458.8
3323.45
619.793
214.069
-1049.93
-2737.18
-4653.7
-11135.4
-20812.6
-43555.4
-55482.5
-33345.1
-14592.3
-4407.16
1583.38
4754.74
8010.2
11705.1
13779.8
15825.1
17532.3
20282.5
22930.3
24728.5
28507.5
30992.9
35256.7
38038.1
40497.5
45183.5
48774.3
52585.7
55148.2
57705.7
54376.7
49327.6
45756.6
42149.2
35666.2
31870.6
28473.1
24429
21608.1
19056.3
15518
12793.3
11057.8
9717.43
6471.32
5466.62
3987.31
2942.14
1853.11
1090.35
356.271
-53.4108
-388.594
-566.05
-715.817
-767.81
-838.135
-688.397
-705.355
-577.902
-647.095
-734.094
-899.842
-1073.15
-1376.03
-1715.33
-2026.49
-2358.19
-2628.84
-3141.57
-1734.42
-1621.06
-2463.58
-2272.68
-2265.82
-2231.63
-2219.54
-2213.97
-2216.89
-2223.89
-2246.34
-2261.19
-2289.53
-2333.38
-2363.62
-2405.74
-2466.64
-2516.26
-2576.14
-2639.81
-2719.86
-2796.07
-2862.36
-2955.31
-3061.66
-3161.62
-3266.17
-3365.1
-3460.43
-3580.06
-3700.9
-3841.85
-4000.44
-4151.06
-4262.1
-4348.5
-4467.46
-4589.92
-4715.92
-4844.14
-4951.36
-5192.79
-6779.99
-21302.6
-64334.5
-3830.14
-408.759
232.502
-1382.9
-2338.25
-3187.04
-4635.13
-6767.37
-10578
-23714.1
-41885.5
-46958.9
-16798.3
-3362.28
7139.6
9942.39
16171.4
18426.1
22065.9
24730.1
27306.2
31509.5
36110.3
39363.2
43355.7
47105.4
50937.8
56075.5
58740.5
59599.2
56959.7
52647.5
46142.6
42175.3
38345.6
33178.6
29265.8
27352.6
22273.8
19872.3
17178.9
14897.8
12024.5
11379.7
9354.51
7429.16
5998.49
5306.78
3549.89
2757.25
1661.58
923.194
225.967
-220.312
-661.917
-915.03
-1143.05
-1204.72
-1172.33
-991.039
-893.615
-796.975
-751.675
-632.663
-648.639
-652.601
-777.158
-862.883
-1159.85
-1433.7
-1778.97
-2134.24
-2490.65
-2885.43
-2036.85
-1662.89
-2473.95
-2286.89
-2277.97
-2243.18
-2230.12
-2223.81
-2225.76
-2231.26
-2252.07
-2267.49
-2297.63
-2336.17
-2362.49
-2411.83
-2473.39
-2509.05
-2570.21
-2641.27
-2728.04
-2787.38
-2845.94
-2945.08
-3047.77
-3177.76
-3270.5
-3334.41
-3458
-3575.78
-3707.17
-3847.42
-3997.05
-4130.72
-4241.95
-4366.38
-4473.2
-4570.17
-4658.43
-4727.52
-4764.11
-4969.43
-7716.65
-31231.2
-45629.8
-3519.52
-738.039
888.05
-868.733
-1398.27
-1988.43
-2352.19
-3525.5
-5731.98
-10869.1
-22858.1
-39160
-27056.8
-3511.75
11514.1
16715.5
26105.7
29638.9
36338.3
39665.3
43766.4
47127.7
54136.7
58765.3
61315.4
62752.5
58844.9
54215.4
49877.9
42925.1
40200.1
35698.8
30844.7
27548.5
23637.4
21199.1
18046.1
16025.4
14247.9
11522.3
10179.6
9510.42
7548.37
6650.11
5648.83
4268.35
2895.18
2689.35
1608.88
1013.62
381.422
-183.553
-715.876
-1126.94
-1455.97
-1539.62
-1513.22
-1458.31
-1367.03
-1263.8
-1102.93
-972.389
-824.433
-715.176
-663.947
-627.648
-730.27
-857.871
-1193.29
-1434.88
-1784.09
-2033.96
-2341.06
-2736.66
-2239.41
-1689.94
-2470.29
-2287.94
-2277.78
-2243.16
-2229.22
-2222.7
-2222.13
-2232.25
-2243.98
-2263.47
-2299
-2324.08
-2355.52
-2407.71
-2469.75
-2486.35
-2561.58
-2641.16
-2720.04
-2766.33
-2828.67
-2937.25
-3045.16
-3153.77
-3242.21
-3318.02
-3443.31
-3566.67
-3696.1
-3844.22
-3962.65
-4105.18
-4220.12
-4361.21
-4486.1
-4603.52
-4698.41
-4809.6
-4917.3
-5721.08
-9463.43
-51499
-33138.1
-4260.06
1882.19
1950.67
1180.57
1418.05
548.481
821.257
684.414
923.788
-268.142
-2759.8
-9181.03
-8268.93
10195.1
25915.9
33435.8
42095.8
47707
55031.6
59636.8
65053.8
62975.6
59915
56317.9
50891.7
45655.3
41752.3
37278.6
33356.7
28763.2
24903
22897.6
19538.8
17002.7
15264.3
13343.3
11589.5
9802.13
9133.58
7811.69
6444.84
5718.41
5067.66
4075.59
3590.04
2687.3
1609.24
1358.22
656.902
18.6708
-611.686
-1110.59
-1474.9
-1650.61
-1785.79
-1896.7
-1912.01
-1829.06
-1644.51
-1431.42
-1214.98
-1051
-834.046
-735.508
-659.298
-597.125
-645.713
-699.404
-966.207
-1114.13
-1522.78
-1726.88
-2167.83
-2502.74
-2377.79
-1702.64
-2453.16
-2276.42
-2265.55
-2231.61
-2217.25
-2210.2
-2209.26
-2223.46
-2225.92
-2251.9
-2288.76
-2301.08
-2342.48
-2398.34
-2446.56
-2468.95
-2541.84
-2623.9
-2689.64
-2732.19
-2819.5
-2916.91
-3020.62
-3097.31
-3205.15
-3308.68
-3419.03
-3546.27
-3673.11
-3793.36
-3925.13
-4057.18
-4207.69
-4328.78
-4447.58
-4576.22
-4660.5
-4718.22
-4799.28
-5653.86
-10181.5
-52796.8
-30131.2
-5363.74
855.505
527.844
41.898
1150.03
1289.28
2267.77
2687.23
4406.42
6078.59
8251.09
13541.1
18789.9
35784.3
45752.9
59659.9
63912
64488.4
59929.6
56577.4
52812.8
47666.1
43116.4
39330.7
35088.5
30850.3
26871.6
24756.3
21800.6
18922.8
16562.2
14588
12692.7
11129.9
10429.2
8727.75
7829.93
6443.15
5648.14
5314.91
4476.15
3824.65
3373.03
2688.72
1962.55
1339.93
426.109
213.98
-292.708
-702.573
-1151.09
-1467.17
-1872.07
-2084.63
-2223.85
-2155.8
-2073.88
-1929.33
-1717.69
-1530.16
-1302.52
-1124.66
-891.138
-755.222
-670.087
-566.381
-590.591
-666.068
-962.517
-1051.14
-1502.62
-1578.39
-2143.91
-2153.94
-2518.65
-1701.59
-2423.29
-2252.78
-2241.8
-2208.88
-2195.55
-2187.83
-2188.68
-2199.33
-2205.71
-2230.77
-2261.8
-2278.99
-2321.11
-2372.75
-2407.31
-2451.76
-2523.28
-2584.62
-2645.89
-2716.15
-2791.81
-2888.79
-2974.99
-3054.93
-3170.25
-3277.27
-3394.41
-3504.11
-3625.7
-3745.87
-3866.42
-4007.36
-4156.57
-4299.61
-4440.41
-4575.08
-4709.29
-4811.61
-5009.81
-5746.96
-14476.6
-56361.4
-6334.29
-5211.26
2302.5
2010.23
2271.98
2268.04
3258.3
4518.22
6243.44
11085.9
19037.9
35887.9
59455.2
71563.2
75461.1
69039.6
61193.5
52579.3
47428.6
43653.2
39640.2
36487.8
32220.4
29186.8
26792.7
23868.5
21335.1
18623.3
16422.9
14611.2
13077.8
11869.3
9874.18
8809.82
7810.32
7291.57
6370.36
5802.55
4909.98
4068.98
3567.84
3031.8
2622.25
2296.42
1848.48
1265.06
929.104
259.247
-136.495
-618.153
-1044.34
-1503.55
-1826.8
-2070.82
-2171.83
-2280.71
-2305.16
-2255.44
-2101.07
-1903.47
-1690.11
-1466.54
-1192.11
-994.28
-669.271
-647.685
-507.098
-519.641
-558.232
-783.475
-878.776
-1250.23
-1288.69
-1971.23
-1799.6
-2519.87
-1687.64
-2381.4
-2217.72
-2207.23
-2175.93
-2163.98
-2155.89
-2159.32
-2164.81
-2177.04
-2203.43
-2222.57
-2250.1
-2295.16
-2331.68
-2372.58
-2422.6
-2494.75
-2537.18
-2602.33
-2678.43
-2770.34
-2847.72
-2908.26
-3002.31
-3107.15
-3242.73
-3359.02
-3457.25
-3556.3
-3687.1
-3814.88
-3937.59
-4070.55
-4213.74
-4360.9
-4490.38
-4604.12
-4790.45
-5159.32
-7061.11
-25369
-54613.6
-6812.77
-5704.64
1373.25
2044.41
3059.44
3562.86
4370.68
7765.81
12799.1
26052
44269
73054
110549
111250
74043.6
54943.4
44123.9
37358.5
32062
28731.7
26298.6
24446.5
22467.7
20016.4
18197
16493.5
15336.4
14310.3
12351.6
11336.5
10208.4
9252.72
7960.93
7064.74
5863.9
5327.32
4552.81
4012.69
3503.2
2875.3
2469.86
1974.03
1700.88
1344.62
963.554
395.858
70.4055
-474.446
-738.488
-1087.59
-1292.38
-1597.98
-1955.68
-2248.02
-2421.11
-2482.4
-2408.34
-2272.88
-2062.5
-1818.3
-1582.91
-1328.41
-1123.1
-976.698
-583.473
-688.228
-340.996
-479.921
-478.616
-671.451
-800.231
-1220.35
-1171.33
-1932.71
-1395.51
-2549.48
-1661.6
-2328.14
-2172.04
-2162.65
-2133.71
-2122.59
-2115.87
-2119.51
-2124.43
-2139.56
-2165.48
-2178.73
-2213.92
-2261.19
-2278.03
-2330.9
-2392.49
-2451.55
-2471.71
-2554.89
-2638.7
-2732.05
-2791.32
-2842.64
-2950.2
-3059.28
-3179.31
-3291.98
-3383.81
-3490.69
-3617.83
-3742.42
-3879.1
-4002.74
-4135.48
-4268.44
-4380.87
-4460.25
-4604.94
-5070.48
-8562.47
-38267.9
-41954.9
-6658.44
-4072.79
4166.84
4859.56
5651.25
7546.89
10806.9
18869.4
30883.8
54924
89607.2
127568
119528
78666.6
55399.6
40885.3
32390.1
26598.4
22920.2
20117.8
18063.1
16488.8
15437.8
14423.5
13290.3
12627.1
11654.1
11280.1
10156.9
9020.5
7838.8
7239.63
6268.3
5815.31
4934.69
4532.42
3826.88
3210.82
2801.01
2198.15
1815.82
1323.72
1071.99
819.097
677.822
339.089
277.712
-161.699
-378.928
-937.051
-1265.32
-1585.95
-1936.09
-2157.7
-2305.93
-2347.52
-2303.07
-2217.26
-2070.54
-1923.02
-1671.9
-1451.81
-1215.93
-1005.79
-640.212
-559.39
-334.435
-380.052
-364.048
-585.402
-621.356
-988.096
-875.024
-1725.34
-1048.44
-2586.23
-1624.35
-2264.37
-2116.5
-2108.88
-2082.26
-2072.67
-2067.32
-2071.38
-2077.94
-2094.57
-2114.28
-2133.62
-2170.92
-2209.86
-2226.41
-2283.51
-2350.19
-2386.03
-2428.88
-2503.08
-2588.49
-2659.08
-2714.37
-2796.71
-2895.26
-3005.62
-3095.14
-3197.92
-3311.29
-3426.51
-3537.53
-3668
-3796.56
-3923.72
-4038.46
-4164.31
-4284.61
-4397
-4516.64
-5614.45
-10708.6
-58433.3
-34227.5
-4969.42
-4841.63
3484.75
4211.38
6858.79
12402.8
20603.9
37570.3
62898.4
96869
143103
116893
79547.6
56088.6
40540
30416.9
23725.1
19456.6
16502
14723.5
13332.8
12341.8
11448.1
10888.8
10084.4
9677.31
8793.16
8675.46
8239.24
7939.31
7149.93
6806.4
5982.59
5504.02
4701.7
4139.59
3493.76
2865.07
2457.48
1975.97
1623.35
1211.62
886.445
489.69
469.51
-3.29698
-90.927
-683.071
-1111.96
-1201.9
-1607.24
-1716.42
-2073.28
-2313.64
-2473.19
-2520.86
-2450
-2310.99
-2136.28
-1914.76
-1701.66
-1385.93
-1118.15
-963.732
-770.547
-272.143
-718.887
-264.238
-166.203
-468.055
-516.469
-865.093
-779.529
-1585.92
-706.172
-2680.29
-1576.88
-2191.11
-2051.97
-2046.46
-2022.3
-2014.99
-2010.73
-2016.31
-2023.39
-2042.97
-2055.54
-2082.28
-2122
-2144.21
-2179.44
-2234.14
-2281.83
-2325.85
-2374.43
-2453.08
-2518.57
-2576.68
-2657.46
-2735.25
-2833.52
-2923.88
-3001.47
-3103.21
-3224.72
-3352.07
-3475.74
-3583.8
-3698.69
-3814.26
-3932.54
-4063.92
-4168.47
-4356.7
-4627.74
-5534.16
-15513.1
-64426
-7182.87
-4149.43
-3510.69
4181.86
6861.57
11455.6
22437
38745.3
69185.5
115414
142958
106680
75638.6
53578.4
39111.7
29198
22758.8
18287.8
15172.8
12872.6
11163.1
9892.18
9016.2
8360.61
8084.46
7774.87
7783.01
7567.74
7440.28
7231.04
7136.11
6598.1
6473.89
5872.7
5481.34
4754.33
4012.85
3734.09
2983.74
2488.6
1959.56
1580.12
1041.36
754.72
166.448
107.882
-196.805
-296.483
-606.174
-971.689
-1078.23
-1452.67
-1738.1
-2019.38
-2287.64
-2360.3
-2432.01
-2364.08
-2292.28
-2126.89
-1983.56
-1681.66
-1503.65
-1245.72
-1011.66
-868.576
176.165
-874.681
-229.448
-90.1738
-383.449
-341.284
-705.468
-503.7
-1355.05
-417.393
-2633.76
-1520.19
-2109.3
-1979.23
-1976.11
-1954.87
-1949.47
-1947.8
-1953.77
-1961.72
-1981.57
-1996.28
-2025.15
-2055.06
-2083.69
-2122.74
-2177.66
-2204.59
-2261.68
-2319.39
-2391.62
-2433.97
-2498.88
-2579.15
-2686.02
-2765.3
-2819.71
-2910.93
-3014.15
-3120.92
-3261.26
-3387.36
-3487.13
-3573.02
-3697.36
-3820
-3947.64
-4116.42
-4344.8
-4877.38
-7300.41
-30028
-56210.9
-6228.57
-3099
-1842.18
7968.27
14350.3
23191.2
44784.3
77658.2
120469
136202
95985.2
68687.5
49306.5
36287.5
27388.3
21393.7
17287.5
14356.4
12198.6
10526.3
9181.03
8205.96
7651.3
7197.99
6946.86
6738.39
6654.37
6570.28
6567.25
6553.62
6652.86
6692.71
6532.15
6222.49
5642.19
5143.52
4268.16
3927.25
3265.65
2626.54
2086.97
1685.86
1097.65
725.306
117.54
-153.249
-361.056
-533.787
-729.848
-1213.22
-1470.85
-1708.54
-1917.79
-2141.04
-2492.23
-2570.11
-2664.34
-2621.9
-2541.81
-2395.89
-2144.9
-1912.53
-1640.07
-1250.23
-999.269
-870.003
-203.208
-622.195
-189.352
-436.219
-334.098
-217.574
-527.679
-309.412
-1196.11
-185.386
-2606.96
-1455.31
-2019.9
-1899.14
-1898.63
-1880.68
-1877.08
-1878.82
-1884.21
-1896.96
-1911.15
-1931.4
-1965.38
-1979.11
-2017.72
-2068.67
-2100.55
-2130.81
-2189.97
-2267.07
-2309.99
-2342.6
-2425.09
-2512.9
-2603.85
-2668.21
-2724.71
-2822.03
-2923
-3033.33
-3137.4
-3248.63
-3354.17
-3454.14
-3558.84
-3705.02
-3776.12
-3908.44
-3984.42
-4701.08
-9256.15
-47199.2
-39621.7
-3443.66
-2841.42
2323.11
15955.6
30547.6
50824.9
85132.3
136418
125893
86808.2
61655.6
44385.8
33043.5
25384.2
19958.4
16198.3
13509.4
11582
10224.9
9201.23
8474.77
7751.91
7223.28
6835.97
6568.06
6339.74
6267.05
6200.82
6148.11
6051.18
6059.73
6051.09
6007.15
5926.08
5571.2
5388.07
4501.93
3837.35
3293.21
2839.68
2116.66
1631.5
999.658
535.763
-27.4105
-514.061
-748.99
-932.466
-875.087
-1300.78
-1604.53
-1819.29
-2067.78
-2176.14
-2545.4
-2611.79