/*--------------------------------*- C++ -*----------------------------------*\
| =========                 |                                                 |
| \\      /  F ield         | OpenFOAM: The Open Source CFD Toolbox           |
|  \\    /   O peration     | Version:  2.2.x                                 |
|   \\  /    A nd           | Web:      www.OpenFOAM.org                      |
|    \\/     M anipulation  |                                                 |
\*---------------------------------------------------------------------------*/
FoamFile
{
    version     2.0;
    format      ascii;
    class       volScalarField;
    location    "0.3";
    object      pB;
}
// * * * * * * * * * * * * * * * * * * * * * * * * * * * * * * * * * * * * * //

dimensions      [1 1 -3 0 0 -1 0];

internalField   nonuniform List<scalar> 
14161
(
-0.0318653
0.00793041
0.011468
0.009035
0.0098611
0.00830212
0.0043661
0.00138115
-0.00200572
-0.00316437
-0.00799191
-0.0116887
-0.00859556
-0.00360893
-0.000422076
0.00442779
0.00971972
0.0147325
0.0101304
0.00721667
2.30391e-05
-0.00167082
-0.00539816
-0.011495
-0.0133896
-0.00831332
-0.00634846
0.00226398
0.00502023
0.0145787
0.0212628
0.0108384
0.0127038
0.00301453
-2.86425e-05
-0.0031275
-0.00983263
-0.0166108
-0.0175218
-0.0147126
-0.0137415
-0.00773303
-0.00316586
0.00134172
0.00321675
0.00405298
0.00505647
0.00412382
0.00406171
0.00317565
0.00149238
0.00162956
0.000344109
-0.0013375
-0.00298727
-0.0045008
-0.00674716
-0.00802489
-0.0102639
-0.0134162
-0.0157511
-0.0160068
-0.0221591
-0.0168179
0.00931231
0.0372805
0.053024
0.0214124
0.0143761
0.00557908
0.00371617
0.00175239
0.00102051
0.000682299
0.000182794
1.83345e-05
0.000101791
-0.000339881
-0.000135347
-0.000689612
-0.000700412
-0.000685003
-0.000684592
-0.000421998
-0.000396096
-0.000539267
-0.000366014
-0.000322448
-0.000394139
-0.000469828
-0.000508472
-0.000495336
-0.000555071
-0.000631817
-0.000536466
-0.000536663
-0.000482171
-0.000346807
4.91311e-05
0.000190296
0.000343803
0.000528042
0.000531883
0.000385408
0.000379163
0.000292445
0.00026396
-0.000314445
1.21436e-05
-0.000458638
-0.000538545
-0.000814524
-0.00085906
-0.000860704
0.000519104
0.00118445
-0.0018534
0.00203987
-0.00343225
0.0763163
-0.0306759
-0.0161279
-0.0130849
-0.0239313
-0.0250017
-0.00948945
0.00167356
0.0059455
0.0115752
0.0221913
0.0317657
0.02008
0.00890219
0.0004668
-0.00758972
-0.0227761
-0.0365849
-0.026672
-0.00862339
0.00154351
0.00928708
0.0186523
0.0323552
0.037718
0.0246763
0.00887025
-0.00071197
-0.0122168
-0.0321699
-0.046731
-0.0349307
-0.0214544
-0.00706973
0.00296525
0.0109792
0.024527
0.039967
0.0469092
0.0403359
0.0298608
0.0172927
0.00439216
-0.00148523
-0.004713
-0.00778091
-0.0200855
-0.0212198
-0.0216324
-0.0183567
-0.0139669
-0.0093733
-0.0057227
-0.00336548
-0.000859403
0.00258947
0.00554267
0.0093176
0.0116362
0.0161573
0.0169465
0.0175869
0.0149327
0.0112831
-0.0106073
-0.0602943
-0.0338629
-0.015698
-0.00507522
-0.000116447
0.00135597
0.000549237
0.00100055
0.000548054
0.000626394
-2.85858e-05
-0.000299014
-0.000531879
-0.000699301
-0.000493876
-0.000315157
-0.000250122
-0.000535825
-0.000341136
-0.000228561
-3.81322e-05
-5.51846e-05
-0.000282254
-0.000379287
-0.000272219
9.43266e-05
0.000145105
0.000243196
0.000202277
0.000231382
0.000100104
-7.66416e-05
-4.52071e-05
-2.55629e-05
-0.000151015
-0.000142422
-0.000169079
5.48264e-05
-2.07658e-05
0.000344281
0.000216401
0.000893314
0.000456929
0.00039469
0.000390943
0.000819416
0.00119355
0.00150064
0.00124238
-0.0001309
0.000690882
-0.00184566
0.00197911
-0.00186222
-0.0967461
0.0260246
0.0154004
0.0195586
0.034754
0.0454235
0.0183616
0.000783348
-0.00695132
-0.014691
-0.0368889
-0.0485352
-0.0277618
-0.0106809
0.00168998
0.00898751
0.0292877
0.0537101
0.047298
0.0225327
0.00101967
-0.0100345
-0.0296229
-0.0487027
-0.0537395
-0.0325147
-0.013552
0.00126855
0.0154492
0.0422978
0.065263
0.0642704
0.0427907
0.0185364
-0.00176747
-0.0201587
-0.0414991
-0.0602876
-0.0717044
-0.060846
-0.0443446
-0.026136
-0.0118388
0.00318255
0.0117791
0.0181057
0.0249298
0.0260879
0.0237077
0.019402
0.0138643
0.00792781
0.00298556
-0.000560737
-0.00294013
-0.00705733
-0.0105569
-0.0155192
-0.0189685
-0.0238896
-0.0258199
-0.0248299
-0.0187466
-0.010705
0.0190249
0.103054
0.0599742
0.0177666
0.00120734
-0.000569431
-0.000290568
-6.3089e-05
-0.00166059
-0.000321963
-0.00116616
-0.0011259
-0.000666038
-0.00069261
-0.000307796
-0.000142168
-0.000499692
-0.000460292
-0.000377003
-0.000293233
-0.000790025
-0.00111263
-0.0009005
-0.000719089
-0.000385867
-0.00059798
-0.000556463
-0.00059079
-0.000438587
-0.000470024
0.000119292
0.00023675
0.000455621
0.000591797
0.00112421
0.000908723
0.000923606
0.000775056
0.00077437
0.000164764
0.000233902
0.000307717
0.000167382
-0.000309502
0.000387029
0.000315321
0.000312503
0.000302079
0.000152077
9.41017e-05
0.000403615
0.000175835
-0.00287722
0.00209527
-0.00318647
0.115137
-0.024888
-0.0120582
-0.0185385
-0.0430941
-0.0601665
-0.0254694
7.45237e-06
0.0107066
0.0170644
0.0406841
0.0600089
0.0375999
0.0187093
0.0018482
-0.00765947
-0.0332426
-0.0732544
-0.0607521
-0.0229062
-0.000667491
0.0141837
0.0352273
0.054995
0.0712804
0.0473221
0.0251658
0.00152841
-0.0106959
-0.0475776
-0.085349
-0.0873591
-0.0564681
-0.0241843
-0.000637416
0.0191508
0.0436433
0.0662443
0.0843157
0.0801977
0.0592898
0.0368236
0.0175942
-0.000423667
-0.0118513
-0.0244697
-0.0339534
-0.0359223
-0.0325618
-0.0282158
-0.023144
-0.018214
-0.0140371
-0.00997135
-0.00640092
-0.003164
-0.00114249
0.000372374
0.0029251
0.00454112
0.00564954
0.00433301
0.00353112
0.00194238
0.00318626
-0.0325626
-0.0244105
-0.00451232
-0.000657286
0.00286866
0.00277841
0.00258288
0.00172855
0.00136697
0.000576887
0.000291089
0.000293197
-0.000687292
-0.000715333
-0.000753692
-0.000829667
-0.00114647
-0.000664002
-0.000378382
-0.000398781
-0.000453951
-0.000344526
-0.000240398
-0.000145457
-4.32728e-05
0.0001542
0.000418544
0.000538814
0.000649122
0.000596606
0.000457606
0.000344248
0.000390893
0.000650571
0.000458444
0.000460385
0.000259313
0.000511114
0.00059437
0.000784849
0.000823984
0.000688618
0.00109555
0.000808338
0.000980116
0.000485902
0.000679511
-7.92915e-05
-0.000102757
-0.000881343
-0.000180509
-0.00144137
0.00146826
-0.00229139
-0.121344
0.0156839
0.00840158
0.018954
0.049483
0.0750678
0.0385906
0.000842249
-0.008672
-0.0207758
-0.0497797
-0.0640528
-0.0388977
-0.0181233
-0.00172776
0.00634122
0.0317016
0.0711401
0.0774668
0.0397762
0.00357763
-0.00983922
-0.0414037
-0.0616219
-0.0746283
-0.0486753
-0.0246478
-0.00294953
0.00764205
0.0389573
0.0797013
0.101493
0.0747205
0.0421188
0.00628837
-0.00914613
-0.0452822
-0.0752595
-0.0945606
-0.0890263
-0.0680904
-0.0455005
-0.0231531
-0.00265969
0.00644039
0.0225584
0.0309653
0.0323036
0.0283868
0.0236985
0.0190975
0.0144295
0.0106167
0.00716895
0.00402567
0.000783163
-0.00134619
-0.00252324
-0.00492062
-0.00737789
-0.00882653
-0.00994172
-0.00351669
-0.00963985
0.0337706
0.0304073
0.0260192
0.0054817
0.00318657
-0.000171662
0.000178755
0.000680313
-0.00037916
-6.85523e-05
-0.00321371
-0.00169607
-0.00203362
-0.00121576
-0.000338768
8.52852e-05
-0.00144512
-0.00126115
-0.00176466
-0.00186785
-0.00153366
-0.0015343
-0.0014861
-0.00103264
-0.000929293
-0.000694235
4.397e-05
0.000169201
0.000344045
0.000375798
0.000445025
0.000650294
0.000426295
0.000422465
0.000331814
0.000410694
0.000610149
0.000692976
0.0011614
0.00103207
0.000957788
0.000816357
0.000758795
0.000557311
0.000267879
0.000102171
-0.000177749
-0.000198109
-0.000316991
-0.000148338
-0.000640369
0.001961
-0.00271492
0.00213445
-0.00215659
0.128742
-0.0144008
-0.00750532
-0.0152617
-0.0477967
-0.0916228
-0.039691
-0.00276708
0.00838002
0.0220147
0.0474704
0.0670587
0.0486007
0.0269679
0.00808875
-0.0049712
-0.0320673
-0.0774306
-0.0831413
-0.042014
-0.00568867
0.00882325
0.0367779
0.0578556
0.0833427
0.0632052
0.0396582
0.0150919
-0.00253044
-0.0336638
-0.083463
-0.108643
-0.0874984
-0.0545317
-0.0186122
0.00236099
0.0296893
0.0606836
0.0824044
0.0925326
0.0776754
0.0523295
0.0280465
0.0041038
-0.0113041
-0.027843
-0.0337536
-0.0323552
-0.0282467
-0.0243679
-0.0205103
-0.0170671
-0.0148676
-0.0132055
-0.0124284
-0.0121244
-0.0117271
-0.011403
-0.01106
-0.0103183
-0.0112717
-0.0118131
-0.00888597
-0.00816486
0.0163077
0.0224808
0.0213843
0.00227465
0.00251811
-0.000867143
-0.00158117
-0.00067421
-0.000169842
0.00102498
0.000707589
0.0026235
0.00243125
0.00145537
-0.00012273
-0.000323091
-0.000669036
-0.00117985
-0.000586891
1.07957e-05
-2.0664e-05
0.000369499
0.000690279
0.000763374
0.000835549
0.00045005
0.000173693
-3.72406e-05
-4.16727e-05
-5.03691e-05
9.01699e-05
6.72236e-05
0.000101198
-0.000125836
-2.97277e-05
-0.000186116
-0.000237502
-0.000281241
-0.000161581
-0.000130192
0.000118782
8.75777e-05
0.00022083
0.000333485
0.000353872
0.00082352
0.000255698
0.00108414
1.14978e-05
0.000796338
-0.000651587
0.000651058
-0.00155945
0.00162655
-0.00147593
-0.134933
0.00829537
0.00864699
0.0170912
0.0488935
0.0977807
0.0539321
0.0107879
-0.0096633
-0.028674
-0.0485651
-0.0681317
-0.0458419
-0.0251193
-0.00637104
0.00337253
0.0268685
0.0631039
0.0902364
0.0578541
0.0188673
-0.00519828
-0.0373525
-0.0587542
-0.0810915
-0.0638862
-0.0390674
-0.0145503
0.000975086
0.0236768
0.0637418
0.0929985
0.100973
0.0729836
0.0404645
0.00452067
-0.0112797
-0.0500068
-0.0770556
-0.0927348
-0.0873256
-0.0655482
-0.0382305
-0.0117616
0.00125456
0.0155348
0.0239912
0.0237227
0.0206268
0.0169215
0.0131958
0.00959218
0.00756893
0.00620569
0.00556703
0.00560457
0.00617287
0.00578584
0.00427103
0.00304597
0.00197414
0.000471903
-0.00179947
-0.00400475
-0.00800902
0.0492497
0.0231153
0.00876038
0.00143896
-0.00529119
-0.00547324
-0.0020014
-0.00197393
0.00141321
-0.0013947
0.000928228
-0.00141918
5.38766e-05
-0.00217513
-0.00163699
-0.00189634
-0.00114324
-0.00151035
-0.00171935
-0.00155232
-0.00183385
-0.000983092
-0.00170195
-0.000833757
-0.00088074
-0.000362541
-0.00044326
0.000228222
0.000133393
0.000200488
0.000189765
0.00013086
0.000111734
-4.93681e-06
3.71853e-05
0.00011954
0.000235222
0.000534489
0.000584289
0.000606254
0.000393887
0.000391583
0.000412172
3.22711e-06
1.80023e-05
-0.000244223
0.000499556
6.63045e-05
0.000498179
-0.000375713
0.000921282
-0.00148965
0.00175583
-0.00154164
0.13921
-0.00546552
-0.00431911
-0.0161814
-0.0521343
-0.104012
-0.0491961
-0.00674696
0.00485644
0.0269694
0.0445012
0.0583679
0.0578828
0.035096
0.0141702
-0.00141647
-0.024751
-0.0692661
-0.0921649
-0.0572315
-0.0185575
0.0026826
0.0309837
0.0504016
0.0696266
0.0801696
0.0558627
0.0314343
0.00463276
-0.0127451
-0.058971
-0.0903873
-0.109184
-0.083377
-0.0516752
-0.0192613
0.00194179
0.0265984
0.05364
0.0701449
0.077475
0.0710108
0.0483461
0.023064
0.00521542
-0.0147364
-0.0219439
-0.0214996
-0.0186177
-0.0154627
-0.0117861
-0.00927142
-0.00735471
-0.00704357
-0.00762157
-0.0088156
-0.0108686
-0.0144809
-0.0174851
-0.0213918
-0.0291829
-0.0256102
-0.0263656
-0.010523
-0.0234828
0.0867151
0.051764
0.00575852
0.00606638
-0.00371702
0.00314581
-0.0028767
-0.00114282
-0.00257463
-0.00259417
-0.00229732
-0.00119475
-0.000498501
-0.00211437
-0.00176881
-0.00128033
-0.00119035
0.00020989
-0.000328284
-0.000346247
4.94067e-06
0.000551134
0.000805875
0.000728823
0.000757331
0.000762331
0.000518033
0.000721721
0.000646738
0.000409672
9.77601e-05
0.00013319
8.20091e-05
-0.00011843
0.000124677
-7.35151e-05
0.000243153
0.00019184
0.000313113
0.000112629
0.000320567
0.000222696
0.000740764
0.000163956
0.000739175
-0.000296262
0.000823335
-0.000119514
0.000888283
-0.000873029
0.00101936
-0.000957228
0.00189524
-0.00136668
-0.131178
0.00607583
0.00436405
0.0126415
0.0478091
0.10073
0.0592447
0.0144591
-0.00666427
-0.0319145
-0.0445682
-0.0539061
-0.0556499
-0.0317117
-0.0105548
0.00196217
0.0220543
0.055604
0.081213
0.0748213
0.0349988
0.00035255
-0.0249676
-0.0520628
-0.0731351
-0.0809433
-0.0555441
-0.0288406
-0.00473245
0.0095251
0.0442667
0.0698284
0.0972904
0.100234
0.0716419
0.0423562
0.00974823
-0.00659161
-0.0377269
-0.0684241
-0.0839446
-0.0832767
-0.0651803
-0.0421507
-0.0180045
-0.00111333
0.00698527
0.0123346
0.0110857
0.00840568
0.00501818
0.00167175
-0.000143413
-0.0019135
-0.00315993
-0.00381321
-0.00314452
-0.00232867
-0.000693945
0.000208231
0.00178919
-0.00359079
-0.00461622
-0.0052421
0.0050129
0.0714505
0.0665793
-0.0276743
-0.0175425
-0.0169323
-0.00952984
-0.00669147
-0.00531079
-0.00541464
-0.00940117
-0.00373405
-0.00276898
-0.00275916
-0.000941215
-0.00247571
-0.000442701
-0.000712815
-0.00110229
-0.000854946
-0.000497786
-0.000903798
4.058e-05
-0.000572212
-0.000216366
-0.00060934
-0.000934641
-0.000469427
-0.000530472
-0.000157282
-0.000308075
0.000397341
-0.000326592
0.000379181
0.000100298
0.000220584
0.000121572
0.00013631
4.84984e-05
0.000246405
0.000255824
0.00053441
0.000376041
0.000707004
1.68458e-06
0.000633455
-0.000543952
0.000547733
0.000182221
0.000808088
-0.000760788
0.00129269
-0.000904436
0.00113111
-0.000666347
0.139653
-0.00729616
0.000340797
-0.0137472
-0.0660825
-0.0946468
-0.0459536
-0.00899976
0.00473959
0.0280007
0.0380795
0.0422527
0.0601778
0.04398
0.0170937
-0.000590167
-0.0228355
-0.0561888
-0.0798736
-0.0716394
-0.0309909
-0.00144852
0.0225578
0.0439586
0.0578438
0.0774662
0.0739337
0.0480257
0.0184124
-0.00247703
-0.0348026
-0.0689833
-0.0914571
-0.104666
-0.0812557
-0.0524167
-0.0233872
-0.00101666
0.0191006
0.0478718
0.063845
0.0751554
0.0680024
0.0488081
0.0299251
0.0040434
-0.00192752
-0.012049
-0.0120191
-0.0088466
-0.00548223
-0.00258991
6.37763e-05
0.00117722
0.0013226
0.00104503
-0.000969424
-0.00264018
-0.0061832
-0.00836715
-0.0105985
-0.0109887
-0.0139548
-0.00767661
-0.00415676
0.070784
0.0814797
-0.0313432
-0.0177523
0.0012528
-0.00660278
-0.00703722
-0.00319413
-0.00168213
-0.00706265
0.000290383
0.000741295
0.00120761
0.00592893
0.00502402
0.00500141
0.00369415
0.00350173
0.00357947
0.00527673
0.00373689
0.00360327
0.00325474
0.00257519
0.00215403
0.00196479
0.00231781
0.00132298
0.00115789
0.000179288
0.000366994
3.42532e-05
0.000217051
0.000248527
0.000183949
-3.62736e-05
0.000174864
0.000474545
0.000675613
0.000214752
0.000601423
8.44659e-05
0.000845006
8.07566e-05
0.00108693
-0.000462138
0.000730346
0.000142478
0.000971444
-0.000747166
0.00145144
-0.000848895
0.00188424
-0.000741048
-0.128313
0.00518762
0.00439176
0.0172579
0.0495866
0.0916606
0.0534735
0.0108138
-0.00540519
-0.029191
-0.0363437
-0.0404701
-0.0586234
-0.0401053
-0.0126061
0.00265268
0.021201
0.0459852
0.0659639
0.0831421
0.047091
0.00506626
-0.0141909
-0.0454794
-0.060141
-0.0765335
-0.0739889
-0.0469834
-0.014848
0.00293808
0.0286563
0.0550077
0.071968
0.0892396
0.0978058
0.0736703
0.0446332
0.0152518
-0.00347645
-0.0295898
-0.0610614
-0.0827155
-0.0858563
-0.0694424
-0.0487482
-0.0222845
-0.00546334
0.00122431
0.00351379
0.00230323
-0.00018468
-0.00326545
-0.00704645
-0.0100087
-0.013029
-0.0149344
-0.0149697
-0.013528
-0.0123122
-0.0112492
-0.0108973
-0.0123343
-0.0152421
-0.0173962
-0.0213576
0.0320799
-0.0089043
0.0475187
0.0115646
0.000224565
-0.00830778
-0.010464
-0.00493066
-0.00830283
-0.00745564
-0.00362197
-0.00231747
-0.000946079
0.00267353
0.00263888
0.00444988
0.00386551
0.00271018
0.00194987
0.000476589
0.000125878
0.000779049
-1.29738e-05
0.000378734
-0.000180751
-4.49343e-05
-0.000352253
0.000544516
0.00113846
0.000708651
0.0017519
0.000590944
0.00086048
0.000785771
0.000316602
5.09469e-05
4.39647e-05
1.1699e-05
2.07087e-05
4.07111e-05
0.000568233
0.000256066
0.000877497
7.11445e-05
0.000980079
-0.000220479
0.000487247
0.000354601
0.000173776
-0.000327105
0.00116278
-0.000137485
0.000599424
-0.000293918
0.136513
-0.00641855
-0.0104922
-0.0308778
-0.0542649
-0.0788142
-0.041316
-0.00649525
0.00575439
0.0247562
0.029519
0.032224
0.0464461
0.0515539
0.0159488
-0.00172133
-0.0198844
-0.0423807
-0.0619176
-0.0792718
-0.0395877
-0.00403721
0.0155861
0.0384792
0.0477162
0.0594821
0.0805037
0.0656256
0.0363047
0.00358487
-0.0200238
-0.0479418
-0.0704188
-0.0876233
-0.101374
-0.079069
-0.0521998
-0.0255611
-0.00210526
0.0149964
0.0439103
0.0657614
0.078289
0.0718651
0.054645
0.0304687
0.00870832
-2.13365e-05
-0.00592072
-0.00716925
-0.00507322
-0.00269759
0.000316971
0.00159698
0.00302026
0.00280777
0.00139246
-0.00132726
-0.00516393
-0.0112462
-0.016348
-0.0239829
-0.0203963
-0.0297296
0.0616324
0.0295411
-0.0370133
0.00629313
-0.0135278
-0.00989072
-0.00232378
-0.00162667
0.00720704
0.00450788
0.00927499
0.0111078
0.010906
0.00958734
0.00886472
0.00521283
0.00489473
0.00293635
0.00286211
0.00271286
0.00140792
0.00102686
0.00107018
0.00101043
0.00123215
0.00106316
0.00109065
0.00126299
0.000849175
0.00067521
6.72691e-05
0.000170278
5.13961e-05
-0.000206917
0.000209023
0.000125896
0.000481043
0.000416576
0.000298923
0.000562861
0.000220701
0.000625073
0.000250368
0.000917256
0.000101579
0.00113482
-1.97281e-05
0.000709773
0.000393005
0.000336358
-0.000196329
0.0020618
-0.00126648
0.00139881
-0.000995889
-0.126544
0.010286
0.00908081
0.029812
0.0453153
0.0737041
0.0374627
0.00605015
-0.00568582
-0.0234234
-0.0257853
-0.0305069
-0.0455612
-0.0491385
-0.0131877
0.00274842
0.0186514
0.035138
0.0489954
0.0744241
0.0578222
0.0110795
-0.00859279
-0.0402803
-0.0434654
-0.0569766
-0.0812846
-0.0665016
-0.0326278
-0.00299279
0.020011
0.0396911
0.0576688
0.0685064
0.0841261
0.0937368
0.0731674
0.0468977
0.018262
-0.00240765
-0.0277865
-0.0597646
-0.0817504
-0.0849558
-0.0686194
-0.0437606
-0.0219535
-0.00925538
-0.00238751
-0.0011634
-0.00167655
-0.00375577
-0.00671837
-0.00984601
-0.0123682
-0.0143209
-0.0141403
-0.0118427
-0.00834656
-0.00413956
0.000513955
0.00292394
0.0104085
0.00776527
0.0892268
0.00463339
0.00667377
0.0222982
0.000197821
-0.00405668
0.000368174
0.00123143
0.00316451
0.00343631
0.00417907
0.00172495
8.51793e-05
-0.00181105
0.00086961
-0.0001728
0.000701481
-0.000558906
0.00060223
-2.47203e-05
9.26806e-05
0.000843576
0.000995206
0.000913652
0.00120162
0.000398684
0.00036778
7.58652e-05
0.000373351
0.000591227
0.000733443
0.00106236
0.0011537
0.00102135
0.00103811
0.000822547
0.000314064
0.000599971
0.000288589
0.000603515
0.000420235
0.0006421
0.000421055
0.000756401
0.000165293
0.000819459
-9.16175e-06
0.000417586
0.000253265
0.000144001
0.000256987
0.000734792
-0.0011129
0.00063253
-0.000567579
0.124328
-0.0270857
-0.0163339
-0.024269
-0.0422559
-0.061775
-0.0298803
-0.00437721
0.0058285
0.0203529
0.0224161
0.0229929
0.0272465
0.0383705
0.0185783
-0.000599578
-0.0132238
-0.026558
-0.0445915
-0.0685713
-0.0534842
-0.0095985
0.006244
0.0331014
0.0392216
0.0431915
0.053322
0.0779012
0.0609782
0.0234238
-0.00362022
-0.0351167
-0.0505521
-0.0651734
-0.0781051
-0.0906104
-0.0767477
-0.0510226
-0.0245029
-0.000311894
0.0164883
0.0458406
0.0665989
0.0764872
0.0649415
0.0449922
0.0244961
0.010374
0.00212013
-0.00123034
-0.00275513
-0.00153856
-0.000667327
0.000525615
0.00135954
0.0015068
0.000827861
-0.000897044
-0.00476073
-0.00821424
-0.0137978
-0.0165998
-0.0165461
0.00775621
0.0665826
0.00905864
9.14389e-05
0.0125779
-0.00102076
-0.00503331
-0.00323702
-0.00253414
-0.00159283
-0.00122303
4.88198e-05
-7.34185e-05
0.00105398
0.000990577
0.00163197
0.000844839
0.000869954
0.000860381
0.000909585
0.000224133
0.00064023
-0.000850523
-0.00027648
0.000335692
-0.000122153
0.00042867
0.000749815
0.000605255
0.000750555
0.000365449
0.000582406
0.00047282
0.000552068
0.000268369
0.000307665
0.000580572
0.000269284
0.000729093
0.000253014
0.000780933
0.000302187
0.00059535
0.000328334
0.000728448
0.000239804
0.00100292
5.83156e-05
0.000798009
-0.000133748
0.000529042
0.000286421
0.000201163
-0.00104453
0.00111635
-0.000899355
-0.116331
0.0263036
0.0199837
0.0237243
0.0320629
0.045966
0.023659
0.00212851
-0.0044525
-0.0153919
-0.0181001
-0.0205296
-0.0238049
-0.0346508
-0.0158686
0.000521955
0.0105362
0.0203029
0.0292273
0.0396336
0.0525538
0.0240856
-0.000165155
-0.017946
-0.0328609
-0.0403807
-0.0511225
-0.074785
-0.0646978
-0.026142
0.000703047
0.0269057
0.0402242
0.0515578
0.0587717
0.0679682
0.079698
0.0671738
0.043898
0.0139521
-0.00337824
-0.0309127
-0.0506535
-0.0641246
-0.0643804
-0.0477632
-0.0301014
-0.0163504
-0.00798822
-0.00385208
-0.00248276
-0.00251446
-0.00415786
-0.0061281
-0.00853535
-0.0108118
-0.0122961
-0.0123486
-0.010018
-0.00733614
-0.00494238
-0.00216441
-0.00292234
0.036665
0.0404768
0.0356492
0.0111186
0.0138571
0.0040605
-0.000957733
-0.000234565
-0.00111272
-0.00152093
-0.000812841
-0.00084616
-0.00142293
8.15229e-05
-0.000992693
0.000101991
-0.00088101
-0.00039885
0.000256146
0.000334575
0.000599979
0.000991742
0.000991828
0.00114437
0.000338403
-7.44658e-05
0.000324678
-8.34364e-05
8.45696e-05
-0.000142718
0.000285445
0.000224561
0.000655166
0.000283143
0.000647441
0.000525809
0.000603423
0.000148337
0.000709274
0.000331221
0.000846379
0.000164971
0.000719117
0.000421203
0.000651819
0.000432257
0.000685675
5.54948e-05
0.000698237
-4.98731e-05
0.000863943
9.25168e-05
2.66739e-06
-0.000485062
0.000552243
-0.000950169
0.112035
-0.0434867
-0.0200981
-0.0204322
-0.0249412
-0.0344812
-0.0184245
-0.00237545
0.00465159
0.012731
0.0150617
0.0145368
0.0144181
0.0143524
0.0094117
0.000652652
-0.00450303
-0.0118389
-0.0213708
-0.0303093
-0.0456436
-0.0245959
-0.000624723
0.00891154
0.0240405
0.0295559
0.031886
0.0381038
0.0559284
0.0542455
0.0226215
-0.00252088
-0.0235327
-0.0432735
-0.05466
-0.0648197
-0.0760879
-0.0655684
-0.0442065
-0.0196446
0.00212315
0.0164778
0.0366139
0.04777
0.0531909
0.0422783
0.0279931
0.0165009
0.00870164
0.0029756
0.000382112
-0.00157453
-0.00267652
-0.00201441
-0.00139069
-0.00106025
-0.00124775
-0.00193926
-0.00365829
-0.00663029
-0.00981802
-0.00820537
-0.021996
0.0486184
0.0448501
-0.00830655
0.00945808
0.00780312
-0.0013228
-0.00165226
-0.000274858
-0.00129055
-0.000728013
-0.000241543
-0.000403732
0.000663143
-0.000899555
0.000594367
0.000487252
0.00011964
0.00023698
0.000217424
0.000252313
-0.000229064
0.000134777
-0.000577793
0.000936662
0.000956847
0.00104506
0.00102403
0.000892729
0.0010112
0.000801985
0.00066049
0.000683841
0.000519893
0.000615727
0.000497344
0.000479974
0.000405744
0.000327768
0.000644846
0.000554542
0.00110679
0.000365396
0.000818092
0.000425825
0.000664302
0.000416864
0.000560338
0.000207058
0.000607502
0.00011718
0.000603039
-0.000392495
0.000123657
-0.00053007
0.000454431
-0.000639354
-0.0942145
0.035475
0.0194365
0.0169594
0.0198253
0.0201091
0.009656
0.000633645
-0.00305434
-0.00805923
-0.00994999
-0.0101904
-0.0100136
-0.0118561
-0.00902625
-0.000323913
0.0028111
0.00797802
0.0114157
0.0146793
0.0189403
0.0199516
0.00737976
-0.00183576
-0.010564
-0.0196467
-0.0249719
-0.0331877
-0.0484115
-0.0557195
-0.0271807
-0.000164127
0.0124924
0.0286325
0.037961
0.0440623
0.0469998
0.0418462
0.0351556
0.0233818
0.00865413
-0.00153418
-0.0121626
-0.0213873
-0.0277924
-0.026115
-0.0191677
-0.0131071
-0.00885729
-0.00624216
-0.00431727
-0.00299996
-0.0014409
-0.000160166
0.000803624
-0.000369462
-0.00207696
-0.00402033
-0.00569162
-0.00824444
-0.0135132
-0.0143124
-0.0328075
0.0618108
0.0531955
-0.00891143
0.00671074
0.00650308
0.000988257
0.00039526
0.00119444
-0.000373832
-0.000611611
-0.000750594
-0.000424403
0.000224532
0.000416946
0.000546867
-0.000358466
2.92442e-05
1.88985e-05
7.67334e-05
0.00017235
-0.000102408
0.000534814
-0.000207816
0.00021765
-0.000140583
0.000140869
0.000243896
0.000129549
-0.000332807
-5.77288e-05
-8.61208e-05
0.000124033
0.00036575
0.000315914
0.000391832
0.000423179
0.000411798
0.00034689
0.000514807
0.000607296
0.000946493
0.000288735
0.000927943
0.000341753
0.000572449
0.000432572
0.000362579
0.000277753
0.000319515
0.000504417
0.000400643
0.000178141
5.76391e-05
2.75213e-05
2.94094e-06
-0.00060885
0.0711857
-0.0377773
-0.0149894
-0.0121112
-0.0127826
-0.0138095
-0.00670598
-0.000897034
0.00320331
0.00579531
0.00712182
0.00774812
0.0061087
0.00370105
0.00102107
0.000673282
-0.00194914
-0.00364755
-0.00622768
-0.00884104
-0.0131035
-0.0165666
-0.00811244
0.000949517
0.00496518
0.0112221
0.014185
0.0159882
0.0186155
0.0251505
0.0227124
0.0114226
-0.000701869
-0.0072243
-0.0183952
-0.0257353
-0.0295247
-0.0309058
-0.0286448
-0.0196193
-0.00889485
-0.000105435
0.00501147
0.0111099
0.0154824
0.0155078
0.0106372
0.00596761
0.0017117
-8.33757e-05
-0.00327357
-0.00476781
-0.00783894
-0.0117444
-0.0156474
-0.0165073
-0.0154544
-0.0137812
-0.0107894
-0.00629339
-0.0023655
0.00906866
0.0094703
0.029845
0.0478008
0.00698472
0.0136293
0.00132541
3.80831e-05
-0.00224924
0.000259991
0.000625663
0.000963854
0.000765275
0.00190694
0.0014554
0.00245427
0.00175604
0.000835355
0.00112169
0.000214032
0.000123473
6.97946e-05
-0.000123576
0.000109706
8.18677e-05
4.10883e-05
-1.68981e-05
0.000619012
0.000160797
0.00109379
0.00107239
0.00112904
0.000991733
0.000889962
0.000682311
0.0004707
0.000537164
0.000587019
0.00056678
0.000488632
0.000483757
0.000832384
0.000976396
0.00047428
0.00089197
0.000331563
0.000592882
0.000473697
0.000192262
0.000390818
0.000243701
0.000578268
-5.51891e-06
0.000313449
-0.00013061
-0.00030891
-0.000136666
0.000162733
-0.0535196
0.0287119
0.0103395
0.00826741
0.00898687
0.00786444
0.00224704
-0.000521383
-0.00258491
-0.00331704
-0.00397837
-0.00365952
-0.003059
-0.00276471
-0.002151
-0.000857431
0.000652526
0.0017281
0.003041
0.00388141
0.00440357
0.00557112
0.00418377
0.000946172
-0.00149022
-0.00439621
-0.00723888
-0.00967479
-0.0133187
-0.0177844
-0.0187827
-0.00992216
-0.00056713
0.00356871
0.010331
0.0149836
0.0183786
0.0166922
0.013077
0.00730973
0.00320802
-0.000563563
-0.00235728
-0.00403281
-0.00570918
-0.00681554
-0.00497071
-0.00256176
-0.000616426
0.00121536
0.00543871
0.00800151
0.0116559
0.0157336
0.020005
0.0239232
0.0276634
0.0300384
0.0284221
0.023174
0.0207329
0.00390014
0.0197717
0.00278397
-0.0497879
-0.0222153
-0.026028
-0.0104912
-0.0108159
-0.00325839
-0.00165737
-0.00112562
-0.00193858
-0.00154195
-0.00117546
-0.00102828
-0.00207986
-0.000620266
-0.00222819
-0.000328479
-0.000833157
-0.000785004
-0.000783617
-0.000541042
-0.000526897
-0.000492064
-0.000384884
2.87812e-06
0.000457485
0.000142601
0.000251994
0.000331229
0.000314632
0.000548828
0.000563735
0.000453642
0.000536609
0.000333478
0.000702872
0.000478288
0.000610227
0.000403976
0.000825443
0.000971999
0.000441489
0.000795517
0.000408379
0.000611285
0.000612943
7.72943e-05
0.000380787
0.000355434
0.000737276
-0.000147523
0.000544186
-0.000649632
0.000864311
6.23231e-05
0.000281706
0.0230282
-0.0121852
-0.0059071
-0.00491078
-0.00499169
-0.00400318
-0.00187159
8.03973e-05
0.00118608
0.00228297
0.00242933
0.00290203
0.00223128
0.00122319
-0.000288979
-0.000542355
-0.00084696
-0.00133611
-0.00146378
-0.00206344
-0.0026532
-0.00371581
-0.00398013
-0.00152021
0.000899443
0.00220181
0.00366018
0.00480202
0.00551815
0.00628171
0.00554293
0.00426556
0.00149327
-0.000316705
-0.00257132
-0.00502364
-0.0066401
-0.00602453
-0.00392877
-0.00147409
-0.000581775
-0.000352462
0.000566171
0.000219015
-0.000482789
-0.0012188
-0.00186221
-0.00307418
-0.00478095
-0.00658028
-0.0103272
-0.0145836
-0.0193727
-0.0246645
-0.0297467
-0.0353759
-0.0395364
-0.0420148
-0.0368802
-0.0279815
-0.0173055
-0.00177397
0.0108745
0.0326864
0.105719
0.0914176
0.0527493
0.0325358
0.0171757
0.00870275
0.00452489
0.00352574
0.000214738
0.000162704
0.000186911
-0.000242554
-0.000769286
-0.000613824
-0.00116387
0.000559319
0.000647785
0.000310252
7.55117e-05
0.000135328
-0.000187169
0.00032845
-0.000317541
0.00027756
0.000146874
0.0002344
2.68697e-05
0.000530062
3.89991e-05
0.000925828
0.000579138
0.000669471
0.000493152
0.000423409
0.000838679
0.000440863
0.000850495
0.000355256
0.000750578
0.000946504
0.000505297
0.000795468
0.000517136
0.000616979
0.000668145
-4.54444e-05
0.000628524
0.000344097
0.00074183
-0.000281443
0.000454709
-0.000247869
0.000636449
-0.000315195
0.000489742
-0.0161159
0.00887699
0.00321321
0.00267938
0.00342641
0.00254922
0.000486942
-0.000713226
-0.00137668
-0.00128939
-0.00130734
-0.000822467
-0.000602863
-0.000510711
-0.00024904
-0.000297602
-0.000180718
9.17587e-05
0.00053757
0.000592428
0.000878526
0.000984153
0.000512131
-7.54613e-06
8.54123e-05
-0.0009072
-0.00129818
-0.00173668
-0.00230588
-0.00304602
-0.00335424
-0.00233654
-0.000656659
0.000504511
0.00164572
0.00369042
0.00500738
0.00411651
0.00245674
0.00101021
-0.000732607
-0.0017903
-0.00259255
-0.00319168
-0.0034771
-0.00306192
-0.00270919
-0.00163304
-7.89045e-05
0.0011499
0.00391301
0.00667056
0.0104264
0.0131045
0.0155495
0.0144525
0.0105505
0.00353015
-0.00158715
-0.0155174
-0.0330562
-0.0473535
-0.0733591
0.0689779
0.0165521
-0.00605784
0.00121758
-0.00158073
-0.0042382
-0.00304912
-0.000895799
-0.00161096
-0.00381177
-0.00185169
-0.000906838
-0.0011169
-0.00129308
-0.00110029
-0.00108468
0.000260131
-2.47256e-05
0.000340104
-0.00011678
0.000180529
5.14687e-05
0.000269548
-0.000294367
0.00064645
9.24783e-05
0.000399001
0.000128115
0.000952651
-0.00018876
0.000711967
0.000246783
0.000509458
0.000341111
0.000455752
0.00083122
0.000666728
0.000844616
0.000451817
0.000642124
0.000901471
0.000428806
0.000756509
0.000534727
0.000488465
0.000597042
5.18304e-05
0.000643752
0.000507065
0.000587116
-0.000223838
0.000562746
-0.000503525
0.000828912
-0.000329714
0.000815067
0.00354694
-0.00166723
-0.00133958
-0.00150682
-0.00133369
-0.000947661
-0.000357347
0.000156683
0.000454268
0.000593241
0.000610602
0.000704273
0.000514022
0.000376502
0.000218917
-0.000218249
-0.000379832
-0.000490631
-0.00047585
-0.000446502
-0.000545304
-0.00063792
-0.000855352
-0.00062399
-0.000305936
0.000204048
0.000545346
0.000885183
0.00103355
0.000823747
0.000392926
-0.00016603
-0.000667725
-0.00108345
-0.00172384
-0.00273661
-0.00367103
-0.00289523
-0.00197059
-0.00147786
-0.00111388
-0.000564348
-0.000416433
-0.000725277
-0.000822039
-0.00171771
-0.0028341
-0.00532461
-0.00793991
-0.0115878
-0.0147221
-0.0188488
-0.0229566
-0.0266041
-0.0298223
-0.0310776
-0.0281355
-0.0223056
-0.014734
-0.00404256
0.00434806
0.0144793
0.0556261
0.0252818
0.0199874
0.0149112
0.0027464
0.00633293