/*--------------------------------*- C++ -*----------------------------------*\
| =========                 |                                                 |
| \\      /  F ield         | OpenFOAM: The Open Source CFD Toolbox           |
|  \\    /   O peration     | Version:  2.2.x                                 |
|   \\  /    A nd           | Web:      www.OpenFOAM.org                      |
|    \\/     M anipulation  |                                                 |
\*---------------------------------------------------------------------------*/
FoamFile
{
    version     2.0;
    format      ascii;
    class       volVectorField;
    location    "0.3";
    object      U;
}
// * * * * * * * * * * * * * * * * * * * * * * * * * * * * * * * * * * * * * //

dimensions      [0 1 -1 0 0 0 0];

internalField   nonuniform List<vector> 
14161
(
(1.6705 0.113082 4.64811e-22)
(1.59211 0.149879 5.45567e-23)
(1.55284 0.102353 2.03974e-22)
(1.49667 0.0768029 9.28555e-22)
(1.45744 0.0364516 1.1487e-21)
(1.44022 -0.0311085 -2.67467e-22)
(1.41419 -0.0753223 2.02089e-21)
(1.41263 -0.0875448 -6.5537e-22)
(1.41946 -0.087637 -1.93899e-22)
(1.4304 -0.0714965 -2.18475e-21)
(1.45148 -0.0421196 -2.67161e-21)
(1.50476 -0.00157633 -2.85155e-21)
(1.53261 0.0472143 -3.63658e-21)
(1.55466 0.0755231 -2.95884e-21)
(1.55153 0.0980055 -3.82196e-21)
(1.54231 0.101037 -3.99982e-21)
(1.51808 0.0872516 -4.79826e-21)
(1.4724 0.0583105 -4.84754e-21)
(1.44338 -0.0164708 -1.87777e-21)
(1.42279 -0.0620013 -1.14292e-20)
(1.41847 -0.0694998 -5.12986e-21)
(1.4178 -0.0555032 -5.13539e-22)
(1.42631 -0.0451455 -1.9187e-21)
(1.45846 -0.0208778 -4.99701e-21)
(1.49395 0.0110297 -7.45703e-21)
(1.52851 0.0452432 -9.4251e-21)
(1.53169 0.0812664 -5.25217e-21)
(1.5334 0.0985913 -3.6141e-21)
(1.5191 0.095019 -2.80008e-21)
(1.49192 0.0855463 -2.59794e-21)
(1.45149 0.0630679 -3.06941e-21)
(1.42563 0.0271174 -4.6481e-21)
(1.40265 -0.0218359 -6.34631e-21)
(1.39663 -0.0596127 -8.80798e-21)
(1.39683 -0.0648437 -8.19591e-21)
(1.39332 -0.0567517 -7.26893e-21)
(1.40376 -0.0407778 -5.40531e-21)
(1.43198 -0.0249252 -3.00905e-21)
(1.46335 -0.00991189 -2.08752e-21)
(1.47695 0.0121484 -2.73691e-21)
(1.49884 0.0376092 -2.65564e-21)
(1.51453 0.0555927 -3.2331e-21)
(1.51974 0.0757819 -4.91564e-21)
(1.51112 0.0881511 -5.74852e-21)
(1.50104 0.0930217 -6.73009e-21)
(1.50311 0.0933332 -5.54197e-21)
(1.50644 0.0943003 -7.25903e-21)
(1.50504 0.0888177 -6.70033e-21)
(1.50545 0.0784163 -6.0301e-21)
(1.505 0.0710174 -7.54243e-21)
(1.50321 0.0579951 -5.54184e-21)
(1.50571 0.0469498 -4.92879e-21)
(1.51172 0.0397125 -3.89262e-21)
(1.51029 0.0342238 -2.50385e-21)
(1.51667 0.0306549 -1.08144e-21)
(1.52557 0.0308506 -1.00908e-21)
(1.53539 0.0322452 -2.65025e-22)
(1.5469 0.0348644 9.42976e-22)
(1.55338 0.0421661 7.28981e-22)
(1.57162 0.0471908 6.48966e-22)
(1.59037 0.0539353 -1.30466e-21)
(1.60736 0.0649333 -2.54427e-21)
(1.63994 0.0748638 -4.54319e-21)
(1.6803 0.0706944 -6.46828e-21)
(1.53281 -0.0390072 -7.14597e-21)
(0.825716 0.0792389 -1.34734e-20)
(0.58516 0.139936 1.29925e-20)
(0.444065 0.10929 1.45163e-20)
(0.366863 0.0578668 4.40101e-21)
(0.332578 0.0297951 1.95586e-20)
(0.323339 0.0165896 2.60284e-20)
(0.315536 0.0148666 6.95607e-21)
(0.309119 0.0136082 6.49825e-21)
(0.304366 0.0121331 9.69492e-21)
(0.301917 0.00947196 1.02876e-20)
(0.301106 0.00760999 6.11605e-21)
(0.300747 0.00561538 1.04728e-20)
(0.300381 0.00369542 9.4568e-21)
(0.30159 0.00157338 3.71618e-21)
(0.303784 0.00048615 6.41843e-22)
(0.306375 0.00061058 -2.46395e-21)
(0.308648 0.00176482 -9.0015e-22)
(0.3102 0.00361681 3.90449e-21)
(0.310522 0.00558613 5.10234e-21)
(0.311072 0.00706223 6.84372e-21)
(0.311689 0.00724276 1.01558e-20)
(0.313134 0.00669298 1.69076e-20)
(0.315666 0.00600102 1.82468e-20)
(0.318543 0.00591216 1.81375e-20)
(0.320636 0.00578456 2.36184e-20)
(0.321398 0.00559249 2.08448e-20)
(0.32148 0.00479914 2.28509e-20)
(0.320895 0.00419296 2.50681e-20)
(0.320049 0.00338187 2.95849e-20)
(0.320349 0.00308909 2.24814e-20)
(0.320639 0.00304582 2.36154e-20)
(0.321199 0.0033882 2.47787e-20)
(0.321654 0.00393419 2.85622e-20)
(0.321762 0.00493819 3.42833e-20)
(0.321339 0.00617886 4.69064e-20)
(0.319453 0.00781385 7.03636e-20)
(0.315505 0.00933928 9.33797e-20)
(0.309567 0.01049 1.33695e-19)
(0.30199 0.0112875 1.80326e-19)
(0.293645 0.0112885 2.17075e-19)
(0.284822 0.0116072 2.31692e-19)
(0.274974 0.0124147 2.27962e-19)
(0.2643 0.0126614 2.61453e-19)
(0.253217 0.0124056 2.67987e-19)
(0.24151 0.0130009 3.03057e-19)
(0.22857 0.0146502 3.24495e-19)
(0.213773 0.0169871 3.57567e-19)
(0.195426 0.0219453 3.53334e-19)
(0.172247 0.0249433 3.7091e-19)
(0.143591 0.0338897 3.86666e-19)
(0.110474 0.0312041 3.86442e-19)
(0.0791058 0.0318817 2.62768e-19)
(0.056573 0.0151468 2.02681e-19)
(0.0481491 0.0519288 1.8044e-19)
(1.18656 -0.0758519 1.90169e-21)
(1.41547 -0.060986 5.53203e-21)
(1.48713 -0.0700981 5.32954e-21)
(1.53839 -0.0476791 -1.70021e-21)
(1.62893 -0.0302615 -3.31014e-21)
(1.68541 -0.0177016 -3.57704e-21)
(1.69859 0.00355011 -6.16389e-21)
(1.66764 0.0243361 -1.30215e-21)
(1.6273 0.0201514 2.09514e-22)
(1.54665 0.0340795 -5.50581e-23)
(1.48554 0.0434959 1.49933e-21)
(1.41158 0.0219501 2.65887e-21)
(1.36533 -0.00748206 -7.46561e-22)
(1.34168 -0.0386835 1.45025e-20)
(1.35826 -0.0595115 3.91517e-21)
(1.39804 -0.0689322 3.69704e-21)
(1.43807 -0.0612113 6.13532e-21)
(1.52265 -0.0351528 4.36409e-22)
(1.57468 -0.0474448 7.11516e-20)
(1.60604 -0.0129037 -1.05939e-19)
(1.56787 0.00366718 -1.11892e-20)
(1.53356 0.024499 3.13719e-20)
(1.49035 0.0304017 3.14368e-20)
(1.42003 0.0275267 1.75906e-20)
(1.36097 0.0187937 4.91468e-22)
(1.32062 -0.00132145 -3.91524e-20)
(1.29581 -0.017125 -2.72821e-20)
(1.33839 -0.0293224 3.23847e-20)
(1.36084 -0.0429476 2.02956e-20)
(1.4141 -0.0448737 1.37769e-20)
(1.47693 -0.0360674 5.53246e-21)
(1.52449 -0.0516488 -9.82135e-21)
(1.54903 -0.0342801 -5.96505e-21)
(1.55304 -0.025627 -3.13659e-20)
(1.53063 -0.00698744 -2.28592e-20)
(1.49922 0.00255672 -1.20219e-20)
(1.47001 0.0189438 -1.40746e-21)
(1.40458 0.022059 5.96169e-21)
(1.36521 0.0206737 1.37145e-20)
(1.33254 0.0170449 1.35817e-20)
(1.3102 0.0100811 1.3227e-20)
(1.30386 0.00131985 3.92272e-21)
(1.30217 -0.00162503 -2.72641e-21)
(1.31802 -0.004946 -1.19852e-20)
(1.33777 -0.00869652 -1.39547e-20)
(1.35036 -0.0165118 -1.85174e-20)
(1.36506 -0.0213497 -1.38903e-20)
(1.38953 -0.0238978 -1.27639e-20)
(1.39831 -0.0279662 -1.15824e-20)
(1.40743 -0.0301787 -1.14359e-20)
(1.41618 -0.0318361 -6.83652e-21)
(1.42413 -0.0329227 -9.58885e-21)
(1.42874 -0.0341361 -7.16457e-21)
(1.43097 -0.0337413 -6.87784e-22)
(1.43127 -0.0339455 2.90586e-21)
(1.42991 -0.0327606 4.63865e-21)
(1.42496 -0.0323918 8.21297e-21)
(1.41782 -0.0313899 5.66545e-21)
(1.41007 -0.0305148 5.42753e-21)
(1.40087 -0.0315861 -4.78053e-21)
(1.39217 -0.0344604 -1.12314e-20)
(1.38363 -0.036683 -1.88327e-20)
(1.37138 -0.0405917 -2.48283e-20)
(1.41587 -0.0439651 -1.68515e-20)
(0.43425 -0.0253806 -1.14555e-20)
(0.218067 0.0777489 3.17008e-20)
(0.167284 0.118307 1.1274e-20)
(0.149907 0.0849696 1.70095e-19)
(0.136707 0.0394497 -3.11174e-19)
(0.129912 0.0153477 -1.35624e-20)
(0.129254 0.00298624 5.99694e-19)
(0.125887 0.00194696 -1.10421e-19)
(0.121925 0.00170101 -1.76678e-19)
(0.118383 0.00131698 3.63371e-20)
(0.115419 -0.000415956 1.75904e-19)
(0.113556 -0.00210093 1.97267e-19)
(0.112288 -0.00465023 1.0553e-19)
(0.110632 -0.00704402 -5.09709e-20)
(0.108848 -0.00892688 6.99177e-20)
(0.106687 -0.0101679 1.65727e-19)
(0.104807 -0.0102237 1.63882e-19)
(0.10347 -0.00911136 7.78636e-20)
(0.102476 -0.00730131 4.43703e-20)
(0.102287 -0.00498885 1.52625e-19)
(0.10232 -0.00302564 2.27379e-19)
(0.10327 -0.00225775 1.9364e-19)
(0.103843 -0.00222811 1.19128e-19)
(0.105407 -0.00225862 1.58363e-19)
(0.104959 -0.00160312 2.22889e-19)
(0.104069 -0.0011565 3.15595e-19)
(0.102144 -0.000740547 3.52429e-19)
(0.099129 -0.000883914 3.69705e-19)
(0.0949823 -0.000747982 3.8348e-19)
(0.0898079 -0.00089121 4.68625e-19)
(0.0841261 -0.000491134 4.43934e-19)
(0.0781567 -1.75069e-07 5.46056e-19)
(0.0722915 0.000636577 5.54122e-19)
(0.0670885 0.00134108 5.68445e-19)
(0.0625678 0.00233205 6.48345e-19)
(0.0585309 0.00266891 6.60594e-19)
(0.0545405 0.0035165 6.86258e-19)
(0.0502601 0.00432604 7.03777e-19)
(0.0457611 0.00482871 7.01594e-19)
(0.0416953 0.00539344 6.57451e-19)
(0.0386902 0.00556344 7.3815e-19)
(0.0348937 0.00609854 6.71742e-19)
(0.032518 0.00696695 7.20472e-19)
(0.0288121 0.00748363 5.62414e-19)
(0.0263638 0.00820389 6.65677e-19)
(0.0240497 0.00976779 4.92364e-19)
(0.0237821 0.0115906 5.53382e-19)
(0.0231124 0.0135254 4.03297e-19)
(0.0232115 0.018531 5.05613e-19)
(0.0229481 0.0217193 4.81703e-19)
(0.0220459 0.0314145 5.61524e-19)
(0.0195782 0.0286494 5.78908e-19)
(0.014477 0.0315685 4.10297e-19)
(0.00703175 0.0159885 5.06704e-19)
(0.00532229 0.0516 1.62827e-19)
(2.1085 -0.0247075 1.99746e-20)
(1.67187 0.0203844 8.50689e-21)
(1.60843 0.028411 2.33402e-21)
(1.52746 0.03756 -1.12503e-21)
(1.42747 0.0483875 -3.99343e-21)
(1.33659 0.0271638 -1.12027e-20)
(1.294 -0.0120084 -1.43254e-20)
(1.34474 -0.0443026 -1.84644e-20)
(1.33946 -0.065918 -1.61822e-20)
(1.40184 -0.0386277 -1.65942e-20)
(1.47443 -0.01223 3.05121e-20)
(1.6047 0.0063766 -3.04485e-19)
(1.66976 0.0175595 4.90224e-19)
(1.70561 0.0200767 -1.43757e-19)
(1.68244 0.0182683 -1.81318e-19)
(1.63511 0.0206061 -5.05636e-20)
(1.54363 0.0335765 4.90519e-20)
(1.42642 0.0301093 1.17857e-19)
(1.33168 0.0139636 -3.18458e-20)
(1.28185 -0.0222379 -9.70376e-20)
(1.31351 -0.0592983 2.85258e-20)
(1.36461 -0.0425825 1.12885e-20)
(1.40396 -0.0348009 8.03953e-22)
(1.48812 -0.0132866 -1.49439e-21)
(1.59013 0.00141375 -7.32745e-20)
(1.6503 0.0111546 2.36629e-20)
(1.66217 0.0180375 -2.91284e-20)
(1.66368 0.0221257 -1.44477e-20)
(1.58159 0.0242894 -7.81845e-21)
(1.5053 0.0291767 7.09955e-21)
(1.39484 0.0277389 1.61417e-20)
(1.31077 0.0188651 2.43276e-20)
(1.25686 0.00196085 -1.62198e-20)
(1.26705 -0.0332118 -6.29567e-20)
(1.28849 -0.0507222 -2.00773e-20)
(1.33279 -0.0538029 1.86148e-21)
(1.39034 -0.0442879 7.16055e-21)
(1.44706 -0.0304034 4.5199e-21)
(1.52783 -0.0215842 5.57178e-22)
(1.59124 -0.0050867 1.63209e-20)
(1.62978 0.00242756 2.78989e-21)
(1.64273 0.00837385 -2.13565e-20)
(1.65707 0.0172766 -2.45027e-21)
(1.61518 0.0199513 -1.32489e-21)
(1.58923 0.0274087 -7.10102e-21)
(1.5732 0.0428599 -1.23717e-20)
(1.53116 0.0448203 -1.50108e-20)
(1.51371 0.0426161 -1.36701e-20)
(1.4942 0.0396449 -1.03772e-20)
(1.47885 0.0371218 -1.12915e-20)
(1.4697 0.0326021 -1.60428e-20)
(1.47052 0.027671 -1.55418e-20)
(1.48273 0.0227309 -1.27972e-20)
(1.4963 0.0168339 -1.24381e-20)
(1.50854 0.0126816 -2.34158e-21)
(1.52402 0.010391 -2.07198e-21)
(1.54036 0.00861879 3.47921e-21)
(1.56342 0.00801811 2.29681e-21)
(1.58481 0.00812138 6.37105e-21)
(1.60792 0.00746275 1.09744e-20)
(1.64425 0.00671165 3.29047e-21)
(1.66935 0.00699577 9.58687e-21)
(1.70071 0.00366808 7.63955e-21)
(1.70705 0.0109485 -3.31447e-21)
(1.56895 0.0818136 -5.87527e-21)
(0.810047 0.140138 -9.11545e-22)
(0.570584 0.141982 -1.89262e-20)
(0.490778 0.104953 5.68707e-20)
(0.460459 0.0591389 -3.95546e-20)
(0.45211 0.0316927 4.82501e-20)
(0.45114 0.0156229 4.50349e-20)
(0.44572 0.012677 -1.54339e-21)
(0.441754 0.0120001 2.29466e-20)
(0.438187 0.0110995 3.02369e-20)
(0.436628 0.00794037 3.40758e-20)
(0.437097 0.0040933 1.65894e-20)
(0.438771 -0.000953042 -4.84934e-21)
(0.43982 -0.00462511 3.57917e-21)
(0.438871 -0.00672805 1.54843e-20)
(0.437444 -0.00947562 1.46525e-20)
(0.435983 -0.010538 2.6572e-21)
(0.435707 -0.00972892 4.20258e-21)
(0.435502 -0.00804804 9.40474e-21)
(0.434679 -0.00574027 8.592e-21)
(0.434244 -0.00353766 -1.3019e-20)
(0.433965 -0.0022933 2.70621e-20)
(0.433598 -0.00185277 2.82109e-20)
(0.433163 -0.00179499 2.05063e-20)
(0.432512 -0.00126103 6.97797e-20)
(0.430473 -0.000663351 7.11513e-20)
(0.426275 5.31147e-05 5.05881e-20)
(0.422149 6.60855e-06 1.7749e-19)
(0.415995 0.000478494 5.40934e-20)
(0.409378 0.000511335 2.28364e-19)
(0.401557 0.000929473 3.68218e-20)
(0.393504 0.00173044 1.12094e-19)
(0.384946 0.0027447 1.36106e-19)
(0.375355 0.00393537 9.55219e-20)
(0.364158 0.00584074 7.33543e-20)
(0.35134 0.00843018 1.12927e-19)
(0.33642 0.0118123 1.12675e-19)
(0.319202 0.0152397 1.34263e-19)
(0.299649 0.0183903 1.06398e-19)
(0.278601 0.0206874 1.71614e-19)
(0.256843 0.0219622 1.22472e-19)
(0.234449 0.0234344 2.50553e-19)
(0.211458 0.0248093 1.62308e-19)
(0.188374 0.0256009 3.21009e-19)
(0.166395 0.0260545 3.54343e-19)
(0.145252 0.0266591 9.06284e-19)
(0.125435 0.0276507 8.34794e-19)
(0.107318 0.0288218 9.06031e-19)
(0.0907321 0.0328352 3.9195e-19)
(0.0756389 0.0339513 2.87506e-19)
(0.0629841 0.0429336 4.61351e-19)
(0.0496508 0.0377832 4.90662e-19)
(0.0351456 0.0419721 5.58878e-19)
(0.0212217 0.0253313 -5.2527e-19)
(0.0154426 0.0599552 4.60164e-19)
(1.15536 -0.137949 -1.24559e-23)
(1.56017 0.0493148 -4.44732e-21)
(1.71322 -0.00211134 -2.60853e-21)
(1.79172 -0.00787227 -5.41848e-21)
(1.86804 -0.0331753 -1.41501e-20)
(1.90244 -0.0181653 -3.08227e-21)
(1.87453 0.00107856 -8.54534e-21)
(1.84853 -0.00266762 -4.19286e-21)
(1.63293 -0.0146192 -4.27859e-22)
(1.57263 -0.0105377 1.97471e-21)
(1.43858 0.00391477 8.27748e-22)
(1.29843 0.00400858 1.47702e-21)
(1.21425 -0.00348185 -1.10942e-22)
(1.2771 -0.0107925 1.14024e-20)
(1.31724 -0.0162118 1.44569e-20)
(1.38038 -0.022621 1.30731e-20)
(1.46776 -0.0196693 1.52573e-20)
(1.58982 -0.0118435 1.44742e-20)
(1.70397 -0.00267907 5.17922e-20)
(1.73802 -0.00429011 -1.05642e-19)
(1.68835 -0.00993394 -1.81519e-20)
(1.62771 -0.00480128 2.32665e-20)
(1.5076 -0.00651964 3.65906e-20)
(1.3919 0.0035016 3.54248e-20)
(1.28278 0.0105835 1.41781e-20)
(1.22515 0.00237125 -3.15049e-20)
(1.23021 0.00484816 -4.12909e-21)
(1.28377 0.00199399 5.89013e-20)
(1.31448 0.00270713 2.68574e-20)
(1.40545 -0.00198619 1.17218e-20)
(1.49712 -0.00480776 9.74662e-21)
(1.61049 -0.00889472 -4.95648e-21)
(1.67527 -0.00450286 1.38448e-20)
(1.67931 -0.0152422 -1.51272e-20)
(1.67613 -0.0180163 -1.18603e-20)
(1.58553 -0.0135504 -2.46091e-21)
(1.52525 -0.00953822 5.15187e-21)
(1.41911 -0.00322984 1.71256e-20)
(1.32485 0.00501453 2.45601e-20)
(1.26511 0.00925715 2.62668e-20)
(1.22581 0.011349 2.18828e-20)
(1.21112 0.0130728 6.04388e-21)
(1.23599 0.0197925 9.46873e-22)
(1.25716 0.0167608 -2.7736e-21)
(1.27809 0.0401783 1.01859e-22)
(1.32455 0.0163719 1.2261e-21)
(1.37005 0.0167193 3.42825e-21)
(1.3907 0.0144105 7.58479e-22)
(1.41194 0.014061 2.61825e-21)
(1.43405 0.0128086 4.64506e-21)
(1.45269 0.0107925 9.4671e-22)
(1.46597 0.007445 5.84017e-21)
(1.47431 0.0043745 2.45237e-21)
(1.48045 0.00155565 9.32845e-21)
(1.4832 -0.000710957 7.36876e-21)
(1.4823 -0.00175221 1.58e-20)
(1.48076 -0.00129945 1.79348e-20)
(1.48078 -0.000183002 1.67959e-20)
(1.47849 0.00205312 1.56123e-20)
(1.47897 0.00388954 1.33434e-20)
(1.47923 0.00602169 1.23563e-20)
(1.48317 0.0120903 1.52667e-20)
(1.47862 0.0101657 1.03754e-20)
(1.52625 0.0323203 1.81844e-20)
(0.709295 0.118734 1.04856e-20)
(0.399287 0.252695 3.24786e-20)
(0.318695 0.221083 8.35898e-21)
(0.296955 0.144188 -3.32873e-20)
(0.281715 0.0801914 3.86668e-19)
(0.273771 0.0483322 -5.10959e-19)
(0.266905 0.0304965 -1.4277e-19)
(0.258818 0.0273476 4.02875e-19)
(0.25317 0.0255504 2.17716e-19)
(0.248259 0.0249609 -1.37926e-19)
(0.244202 0.0210303 -1.48997e-19)
(0.24088 0.0161706 -1.25992e-20)
(0.239104 0.00956922 9.04072e-20)
(0.237529 0.00486107 -2.66755e-20)
(0.23502 0.00410493 9.40212e-20)
(0.233459 0.000504055 1.41033e-19)
(0.232461 -0.000989591 1.03879e-19)
(0.232555 0.000232762 4.7806e-20)
(0.233067 0.00278657 5.53827e-20)
(0.234671 0.00550407 2.12741e-19)
(0.23522 0.00807501 1.69708e-19)
(0.236349 0.0099919 2.13327e-19)
(0.236816 0.0115666 2.05334e-19)
(0.237411 0.0126156 3.54103e-19)
(0.236598 0.0143996 4.36203e-19)
(0.235882 0.0158867 2.57752e-19)
(0.233877 0.0169309 3.22715e-19)
(0.232126 0.0167725 3.81152e-19)
(0.228835 0.0172847 4.02818e-19)
(0.224877 0.0169626 3.53318e-19)
(0.220291 0.0170369 2.54352e-19)
(0.215059 0.0178521 2.56042e-19)
(0.20987 0.0192649 1.39753e-19)
(0.205044 0.0209624 2.42458e-19)
(0.200933 0.0234462 9.03332e-20)
(0.196776 0.0260715 1.86929e-19)
(0.192757 0.0297971 6.03839e-20)
(0.188007 0.0338673 2.75111e-19)
(0.182923 0.0380659 8.82641e-20)
(0.17679 0.0409598 3.15137e-19)
(0.170181 0.0425471 1.72094e-19)
(0.162475 0.0452345 2.97994e-19)
(0.152662 0.0474068 1.73597e-19)
(0.141426 0.0471584 2.93062e-19)
(0.129343 0.0462799 1.13081e-19)
(0.117406 0.0452582 6.17881e-19)
(0.105898 0.0448446 3.99302e-19)
(0.0942941 0.0447102 8.71875e-19)
(0.0814152 0.0474581 3.59204e-19)
(0.0682401 0.0472612 6.89974e-20)
(0.0575516 0.0564792 -5.23534e-19)
(0.0457934 0.0509768 -4.84815e-19)
(0.0342188 0.0607633 -1.4507e-18)
(0.0197378 0.0393805 -7.86959e-19)
(0.0163685 0.0746055 9.27733e-19)
(2.14253 -0.0506652 -3.87526e-20)
(1.88536 0.0284758 -1.66682e-20)
(1.85791 0.025817 -1.22495e-20)
(1.79087 0.0212407 -4.22012e-21)
(1.68668 0.033944 7.23963e-21)
(1.47075 0.0336391 2.06224e-20)
(1.39884 0.0307068 2.35957e-20)
(1.39427 -0.000902543 2.43181e-20)
(1.36451 -0.0727604 2.97493e-20)
(1.35855 -0.0622565 2.5535e-20)
(1.51003 -0.0238643 4.12958e-20)
(1.65071 -0.00595846 -1.80717e-19)
(1.72801 0.00691816 3.01568e-19)
(1.73728 0.0108812 8.20432e-21)
(1.74901 0.0117965 -1.64156e-19)
(1.68949 0.0100138 -3.33998e-20)
(1.60754 0.00923608 3.6825e-20)
(1.43205 0.0125799 7.98904e-20)
(1.30901 0.0164266 8.76059e-21)
(1.2394 0.000882979 -3.77809e-20)
(1.28857 -0.0212311 1.7819e-20)
(1.32692 -0.0491088 2.19658e-20)
(1.39362 -0.0518233 1.12011e-20)
(1.5063 -0.0245489 2.14264e-20)
(1.64598 -0.0122985 -4.66699e-20)
(1.72771 -0.00371225 2.12105e-20)
(1.7078 0.00565479 8.04292e-20)
(1.70987 0.0109448 -2.01036e-20)
(1.66659 0.0115266 -1.09984e-20)
(1.56475 0.0113022 2.37549e-21)
(1.42464 0.01445 1.45458e-20)
(1.30087 0.0182175 4.97956e-20)
(1.22292 0.0191976 2.01881e-20)
(1.21165 0.00548462 -1.96089e-20)
(1.24824 -0.0151788 1.72009e-20)
(1.26849 -0.0308128 3.03025e-20)
(1.35166 -0.0398205 2.89713e-20)
(1.41307 -0.0389559 2.4289e-20)
(1.51843 -0.0373361 2.00104e-20)
(1.61284 -0.0330018 1.72401e-20)
(1.67602 -0.0187335 1.58929e-20)
(1.71588 -0.00769499 1.18182e-20)
(1.70707 -0.00596147 1.19184e-20)
(1.67436 -0.00367252 1.54492e-20)
(1.65082 0.0108154 1.54763e-20)
(1.60902 0.0313224 1.65749e-20)
(1.57948 0.0348608 1.71923e-20)
(1.53631 0.0326875 1.76311e-20)
(1.50936 0.0300704 1.29671e-20)
(1.49724 0.0276728 1.34651e-20)
(1.48743 0.02484 1.16154e-20)
(1.47876 0.0222555 1.25161e-20)
(1.47504 0.0194127 1.63136e-20)
(1.47627 0.0154382 1.49825e-20)
(1.47673 0.0114665 1.67858e-20)
(1.47826 0.0107951 1.69158e-20)
(1.48233 0.00815176 1.95818e-20)
(1.48902 0.00485933 2.17452e-20)
(1.494 0.00306674 2.26803e-20)
(1.50202 -0.000307418 1.89252e-20)
(1.50706 -0.00437121 1.6126e-20)
(1.51708 -0.00671395 1.76145e-20)
(1.51919 -0.0108844 1.31658e-20)
(1.53785 0.00174138 1.0095e-20)
(1.34715 0.180876 -1.3634e-20)
(0.6447 0.267821 3.11137e-20)
(0.515783 0.22093 -3.14712e-20)
(0.465806 0.141467 1.51095e-19)
(0.437618 0.078504 4.47881e-20)
(0.418765 0.0489958 -1.20208e-19)
(0.400122 0.0290275 7.72397e-20)
(0.377403 0.021224 1.4704e-19)
(0.355957 0.0187438 -1.16692e-19)
(0.335081 0.0204286 -5.11381e-20)
(0.31683 0.0183108 9.34433e-20)
(0.301467 0.0159095 7.73517e-20)
(0.289246 0.0102146 -4.61309e-20)
(0.280977 0.00314745 4.89432e-20)
(0.273117 0.00197258 -4.10597e-21)
(0.268963 -0.00394391 3.09306e-20)
(0.267608 -0.00576601 4.10227e-20)
(0.268364 -0.00479932 7.93164e-20)
(0.269329 -0.00233723 8.77292e-20)
(0.268568 0.000642391 8.06791e-20)
(0.265842 0.00340929 1.99307e-19)
(0.261533 0.00564038 1.69002e-19)
(0.256391 0.00756511 3.4495e-19)
(0.250246 0.00910897 3.3295e-19)
(0.243193 0.0116381 4.89415e-19)
(0.235772 0.0142188 4.79485e-19)
(0.228266 0.0160814 6.09607e-19)
(0.220748 0.0178541 6.96333e-19)
(0.212612 0.0184539 6.34695e-19)
(0.204286 0.0186571 6.29987e-19)
(0.195814 0.019748 4.84476e-19)
(0.186917 0.0209244 3.7827e-19)
(0.178239 0.0221292 2.33591e-19)
(0.169737 0.0227691 7.40031e-20)
(0.160861 0.0245229 1.10907e-19)
(0.150985 0.026646 -1.60713e-19)
(0.140438 0.0300967 2.66511e-19)
(0.129465 0.0332613 6.12128e-22)
(0.119249 0.0364977 4.19106e-19)
(0.110084 0.038069 1.12491e-19)
(0.102271 0.0395906 3.82428e-19)
(0.0957451 0.0421192 3.05621e-19)
(0.0903449 0.0438994 3.94796e-19)
(0.0858007 0.0443798 4.3717e-19)
(0.0824688 0.0442351 2.16271e-19)
(0.0805047 0.0444211 6.00467e-19)
(0.0783502 0.0458543 5.34625e-19)
(0.0759066 0.0495524 8.0139e-19)
(0.0733798 0.0562013 6.26975e-19)
(0.0652313 0.0575422 1.30543e-19)
(0.0592763 0.0672389 -5.11985e-19)
(0.0479472 0.0631152 -6.56599e-19)
(0.0374839 0.0767733 -1.71296e-18)
(0.0237032 0.0520446 -1.70721e-18)
(0.0209105 0.0874244 5.39322e-19)
(1.14167 -0.180942 1.82749e-21)
(1.63502 0.125343 -1.13269e-20)
(1.82136 0.0980832 4.69611e-21)
(2.06907 0.0784874 -1.17647e-20)
(2.22996 0.0315217 -4.09921e-20)
(2.14092 0.0127159 -4.73561e-20)
(1.99631 0.0132936 -1.59445e-20)
(1.91917 0.0108054 -8.40828e-21)
(1.63102 -0.00918459 -1.66634e-20)
(1.54444 -0.0186701 -1.19396e-20)
(1.39898 -0.0156004 1.90981e-21)
(1.2465 -0.00638638 -5.17872e-21)
(1.13937 0.00842704 -2.08076e-20)
(1.1982 0.00609186 2.17105e-20)
(1.25791 0.00354623 -8.56442e-21)
(1.32363 -0.0058813 2.72756e-20)
(1.43931 -0.0160768 -1.51831e-20)
(1.55905 -0.0126783 2.74862e-21)
(1.71843 -0.00709881 -2.01631e-20)
(1.78623 -0.00381733 -2.50375e-20)
(1.69358 0.00275075 5.35176e-21)
(1.68371 -0.0051615 1.47066e-20)
(1.5049 -0.0126423 1.94085e-20)
(1.41329 -0.00605248 1.83297e-20)
(1.28959 0.00305118 2.02033e-20)
(1.2014 0.00637123 2.36979e-20)
(1.17568 0.0048852 4.71899e-20)
(1.22201 0.00567682 4.24003e-20)
(1.2572 -0.00198242 3.26477e-20)
(1.33559 -0.00801924 2.89247e-20)
(1.41711 -0.0115479 2.77653e-20)
(1.5591 -0.013476 2.72994e-20)
(1.66396 -0.00842002 1.53609e-20)
(1.70305 -0.0149198 3.07956e-20)
(1.7282 -0.0124469 2.02354e-20)
(1.64616 -0.011055 1.86505e-20)
(1.57749 -0.0115189 1.95156e-20)
(1.48211 -0.0114289 2.24963e-20)
(1.3652 -0.00852664 2.65661e-20)
(1.28779 0.00923641 2.62647e-20)
(1.23533 0.0265568 2.73971e-20)
(1.2036 0.0291795 1.809e-20)
(1.20367 0.0246202 1.97041e-20)
(1.22743 0.0298327 2.7544e-20)
(1.25853 0.0496401 3.26808e-20)
(1.3119 0.0339279 3.0554e-20)
(1.35983 0.0290871 3.03339e-20)
(1.39229 0.0286472 3.17221e-20)
(1.42156 0.030834 3.26725e-20)
(1.43938 0.0310509 3.0421e-20)
(1.45415 0.0306392 3.07459e-20)
(1.46732 0.0294561 1.85725e-20)
(1.48038 0.0276183 2.75962e-20)
(1.49027 0.0249098 1.74001e-20)
(1.49754 0.0231842 1.69679e-20)
(1.50533 0.0218888 1.38562e-20)
(1.51322 0.0196942 1.0932e-20)
(1.52141 0.0182323 1.13575e-20)
(1.53139 0.0172712 1.51229e-20)
(1.54325 0.01801 1.45747e-20)
(1.55534 0.0175276 2.10485e-20)
(1.5719 0.0153641 8.9955e-21)
(1.5888 0.0159917 1.21717e-20)
(1.59932 0.0343018 1.29923e-20)
(1.55238 0.197922 1.68514e-20)
(0.710204 0.353018 4.47729e-20)
(0.556187 0.274068 4.08197e-20)
(0.51787 0.182614 1.71557e-19)
(0.49274 0.115749 5.63403e-20)
(0.487093 0.0918838 -3.39763e-20)
(0.47378 0.0765051 3.64166e-20)
(0.448782 0.0766562 -4.76963e-20)
(0.413739 0.0788138 1.6253e-19)
(0.377694 0.0778929 2.56149e-20)
(0.345596 0.0716253 -6.45379e-20)
(0.317794 0.0594332 1.64424e-19)
(0.295675 0.0414582 -1.51373e-19)
(0.283225 0.0210817 -8.48471e-21)
(0.272012 0.00909901 1.36191e-19)
(0.267397 -0.00309632 7.47354e-20)
(0.267202 -0.0099469 3.83613e-20)
(0.268977 -0.00929434 8.10703e-20)
(0.270787 -0.00385346 1.40569e-19)
(0.271549 0.00355541 2.51633e-19)
(0.269871 0.0099273 2.09334e-19)
(0.266035 0.014008 2.50435e-19)
(0.261149 0.0161961 2.87268e-19)
(0.256185 0.0189681 4.1144e-19)
(0.250382 0.0224269 4.99321e-19)
(0.243331 0.0250738 5.88847e-19)
(0.235126 0.0259973 5.93883e-19)
(0.226274 0.0263544 7.10563e-19)
(0.217111 0.0270154 6.21257e-19)
(0.207191 0.0271103 6.00296e-19)
(0.197129 0.0275764 3.06697e-19)
(0.186971 0.028158 2.34081e-19)
(0.177171 0.02887 -1.01456e-19)
(0.167703 0.0307832 -1.63615e-19)
(0.157981 0.0344347 -4.65965e-19)
(0.147308 0.0378854 -1.34874e-19)
(0.136843 0.0412955 -2.2778e-19)
(0.126207 0.0440624 1.45756e-19)
(0.116076 0.0470172 1.87431e-19)
(0.106861 0.0486095 3.72263e-19)
(0.0987146 0.0496924 1.32642e-19)
(0.0920068 0.0510534 4.16315e-19)
(0.0866219 0.0512718 1.72717e-19)
(0.0817035 0.0499829 1.91756e-19)
(0.0776198 0.0473504 2.98498e-19)
(0.0735322 0.0462097 -3.735e-20)
(0.0693546 0.0473992 6.2907e-19)
(0.066233 0.0518113 -5.33562e-20)
(0.0651062 0.059955 3.88017e-19)
(0.0582506 0.0645164 1.88828e-19)
(0.0540437 0.0754557 -6.79883e-20)
(0.0423932 0.0736849 -1.30435e-18)
(0.0328393 0.091025 -2.23183e-18)
(0.0211349 0.0645488 -3.02087e-18)
(0.0195711 0.0995667 1.80251e-18)
(1.95361 -0.00992844 4.78542e-21)
(2.23107 0.0467888 -4.18398e-21)
(1.9788 0.0473965 -7.34323e-21)
(1.91348 0.0411206 -1.14427e-20)
(1.75006 0.0278354 -6.48151e-21)
(1.51788 0.019142 -5.34099e-21)
(1.47188 0.0150445 -1.17906e-20)
(1.46017 0.00907698 4.68524e-21)
(1.3984 -0.0548387 -2.08333e-21)
(1.32945 -0.0719138 6.19102e-21)
(1.50769 -0.0499232 7.35993e-21)
(1.6301 -0.0286736 3.06989e-20)
(1.71329 -0.00271677 6.6099e-20)
(1.7637 0.00801391 -9.00199e-20)
(1.73836 0.0113105 3.24144e-20)
(1.73793 0.0122792 5.62288e-20)
(1.60287 0.0122473 5.21559e-20)
(1.47131 0.00602908 2.43256e-20)
(1.32304 0.0105993 1.22213e-20)
(1.21681 0.00741857 6.68512e-20)
(1.24379 -0.000319389 6.28964e-20)
(1.29697 -0.040402 5.97277e-20)
(1.33848 -0.0533592 5.88462e-20)
(1.46967 -0.0446415 5.92321e-20)
(1.60457 -0.0376495 3.9823e-20)
(1.69086 -0.0173877 7.46641e-20)
(1.71546 -0.00283015 1.8638e-20)
(1.74622 0.00498536 2.48962e-20)
(1.67576 0.00473818 4.02208e-20)
(1.62749 0.00406661 3.59064e-20)
(1.50415 0.00347995 3.58864e-20)
(1.35409 0.00678751 3.08702e-20)
(1.26263 0.0196092 2.21236e-20)
(1.19765 0.0233988 4.56824e-20)
(1.17681 0.0120939 4.83052e-20)
(1.21153 -0.00382683 3.41833e-20)
(1.24705 -0.0241118 3.74139e-20)
(1.32036 -0.0388175 3.87069e-20)
(1.38842 -0.041053 3.97046e-20)
(1.49465 -0.0466243 4.21576e-20)
(1.57795 -0.0475221 4.07987e-20)
(1.63137 -0.040907 3.63505e-20)
(1.66774 -0.0384502 3.74033e-20)
(1.63441 -0.0247064 3.39898e-20)
(1.60538 -0.0121407 3.1997e-20)
(1.5836 0.0126967 3.19891e-20)
(1.52805 0.0171057 2.46363e-20)
(1.48244 0.0170162 2.03571e-20)
(1.46416 0.0170562 1.9583e-20)
(1.44612 0.0176271 1.54117e-20)
(1.43759 0.0175254 1.58083e-20)
(1.43723 0.0172493 1.15558e-20)
(1.43468 0.0160595 1.02576e-20)
(1.43184 0.0149562 1.24397e-20)
(1.429 0.0144013 9.90786e-21)
(1.42906 0.013865 -7.19697e-22)
(1.43 0.0117315 9.24294e-21)
(1.4298 0.00866123 5.419e-21)
(1.43052 0.00451171 2.10697e-21)
(1.43243 -0.0026321 8.70113e-23)
(1.43506 -0.0090968 2.17606e-22)
(1.43903 -0.0117689 4.00784e-21)
(1.45075 -0.0235744 4.76454e-21)
(1.47067 -0.0198165 8.60582e-21)
(1.49294 0.094577 4.77502e-20)
(0.776483 0.348268 1.33561e-19)
(0.581647 0.281778 1.9078e-19)
(0.544816 0.163068 2.203e-19)
(0.530754 0.10038 1.82177e-19)
(0.536763 0.0852888 1.28846e-19)
(0.538106 0.0973516 9.4774e-20)
(0.528168 0.112067 3.81383e-20)
(0.505189 0.12073 5.08146e-20)
(0.472976 0.112778 8.62275e-20)
(0.436 0.105301 3.4816e-20)
(0.400507 0.084975 1.45872e-19)
(0.36689 0.0590416 5.85174e-20)
(0.343514 0.0280295 4.97056e-20)
(0.325321 0.0124193 1.21826e-19)
(0.316143 -0.0042757 2.16335e-19)
(0.3107 -0.0113522 2.28182e-19)
(0.308812 -0.0109891 2.29747e-19)
(0.308393 -0.00526313 2.61002e-19)
(0.307083 0.00269805 3.29451e-19)
(0.303523 0.00963691 4.19182e-19)
(0.298012 0.0135626 4.16489e-19)
(0.291882 0.0153256 4.95595e-19)
(0.28546 0.0173868 6.2492e-19)
(0.278934 0.0214648 6.43604e-19)
(0.270816 0.0259174 7.60478e-19)
(0.260481 0.0300108 6.25087e-19)
(0.248241 0.0328598 6.65987e-19)
(0.235074 0.035775 4.67711e-19)
(0.221156 0.0374901 2.943e-19)
(0.207294 0.0382253 5.65069e-20)
(0.194039 0.0381788 -2.54843e-19)
(0.181616 0.0383556 -4.96376e-19)
(0.17045 0.0406538 -6.9244e-19)
(0.160242 0.0449535 -5.55669e-19)
(0.150265 0.0487224 -1.67972e-19)
(0.140646 0.0514849 -4.83155e-20)
(0.130837 0.0536317 7.19611e-19)
(0.121007 0.0561113 3.81132e-19)
(0.111888 0.0582929 8.14785e-19)
(0.103668 0.0595587 1.59047e-19)
(0.0965618 0.0601872 3.84915e-19)
(0.0903225 0.0596786 -1.08229e-19)
(0.0839766 0.0581126 1.19531e-19)
(0.0775079 0.0554097 -1.31872e-19)
(0.0707079 0.053349 1.4898e-19)
(0.0645433 0.0531331 -1.69959e-19)
(0.0587289 0.0550769 5.11962e-19)
(0.0563476 0.0630745 -3.05794e-19)
(0.0509745 0.07039 2.63778e-19)
(0.0475817 0.0823151 1.10747e-19)
(0.0367618 0.0834013 -1.87536e-18)
(0.0296531 0.102716 -2.6967e-18)
(0.0185869 0.0752126 -4.24729e-18)
(0.0194688 0.106768 -3.5468e-18)
(1.12893 0.022329 -6.79264e-21)
(1.62735 0.0959547 -3.56845e-20)
(1.77668 0.169956 -2.10333e-20)
(1.98084 0.107199 -1.28122e-19)
(2.31686 0.0271898 -1.00662e-19)
(2.19735 0.00734116 -2.87142e-20)
(2.05796 0.0153476 -1.82728e-20)
(1.99376 0.0127581 -1.57573e-20)
(1.61991 0.00654217 5.56167e-21)
(1.52887 -0.0135132 1.35855e-20)
(1.39399 -0.0284413 3.04884e-20)
(1.25175 -0.0193046 3.90434e-20)
(1.16419 -0.00562612 8.1897e-20)
(1.18095 -0.00228498 1.03794e-19)
(1.24754 -0.0138108 1.4335e-19)
(1.30093 -0.0254239 9.99524e-20)
(1.38353 -0.0178496 1.32287e-19)
(1.47312 -0.024725 9.31309e-20)
(1.67451 -0.00854414 7.99729e-20)
(1.77239 -0.00156465 8.38481e-20)
(1.74183 0.00986087 5.11148e-20)
(1.74274 0.00351998 3.62756e-20)
(1.54334 -0.000380802 3.23775e-20)
(1.46372 -0.00632082 2.96699e-20)
(1.33924 -0.0128278 3.56375e-20)
(1.22227 0.000101977 2.92685e-20)
(1.16159 -9.82517e-05 2.28245e-20)
(1.182 -0.00875127 1.27482e-20)
(1.23391 -0.0309662 9.23642e-21)
(1.26338 -0.0413243 1.92923e-20)
(1.36657 -0.030343 1.73712e-20)
(1.46013 -0.0258952 1.53365e-20)
(1.59914 -0.0171594 1.62795e-20)
(1.68971 -0.00476659 1.80224e-20)
(1.73674 -0.00481075 2.50333e-20)
(1.69484 -0.00800896 1.56555e-20)
(1.6899 -0.00379653 7.69196e-21)
(1.58753 -0.00669555 5.22306e-22)
(1.52377 -0.00755287 -1.72525e-21)
(1.42588 -0.0111698 -2.39746e-21)
(1.33859 -0.000274717 -6.58476e-22)
(1.28672 0.0253256 -5.20473e-21)
(1.25416 0.0318962 -7.55053e-21)
(1.24608 0.0322499 -1.90475e-20)
(1.2634 0.0371364 -1.63741e-20)
(1.31302 0.0189365 -2.25625e-20)
(1.35965 0.0145519 -2.24824e-20)