/*--------------------------------*- C++ -*----------------------------------*\
| =========                 |                                                 |
| \\      /  F ield         | OpenFOAM: The Open Source CFD Toolbox           |
|  \\    /   O peration     | Version:  2.2.x                                 |
|   \\  /    A nd           | Web:      www.OpenFOAM.org                      |
|    \\/     M anipulation  |                                                 |
\*---------------------------------------------------------------------------*/
FoamFile
{
    version     2.0;
    format      ascii;
    class       volScalarField;
    location    "0.65";
    object      Bz;
}
// * * * * * * * * * * * * * * * * * * * * * * * * * * * * * * * * * * * * * //

dimensions      [1 0 -2 0 0 -1 0];

internalField   nonuniform List<scalar> 
14161
(
3.73282e-20
3.61433e-20
3.59265e-20
3.52287e-20
3.49066e-20
3.36771e-20
3.59447e-20
3.42528e-20
3.41078e-20
3.34436e-20
3.36231e-20
3.36936e-20
3.25005e-20
3.23264e-20
3.21459e-20
3.21573e-20
3.19603e-20
3.09932e-20
3.12104e-20
3.0087e-20
2.94234e-20
2.97314e-20
2.93499e-20
2.94186e-20
2.86901e-20
2.8412e-20
2.81894e-20
2.81305e-20
2.79397e-20
2.70605e-20
2.75047e-20
2.70179e-20
2.65041e-20
2.62208e-20
2.60155e-20
2.59368e-20
2.53819e-20
2.52344e-20
2.52263e-20
2.4704e-20
2.39126e-20
2.46357e-20
1.9968e-20
2.70417e-20
4.83163e-20
1.03543e-19
9.42293e-20
8.79055e-20
8.42099e-20
8.02133e-20
8.52214e-20
9.87643e-20
1.02799e-19
1.01727e-19
9.95486e-20
9.92392e-20
9.7836e-20
1.00672e-19
1.03484e-19
1.19829e-19
1.52032e-19
2.00404e-19
2.41642e-19
3.25811e-19
3.4431e-19
3.45441e-19
3.34529e-19
3.22457e-19
3.08162e-19
2.73708e-19
2.49541e-19
2.31784e-19
2.27835e-19
2.31062e-19
2.48364e-19
2.77337e-19
3.10738e-19
3.29297e-19
3.50982e-19
3.94503e-19
3.78765e-19
3.92542e-19
5.07319e-19
4.3484e-19
3.62355e-19
3.33382e-19
2.9368e-19
2.78997e-19
1.87565e-19
9.38324e-20
-3.34717e-20
-1.47912e-19
-2.17723e-19
-3.14092e-19
-5.01113e-19
-7.1216e-19
-9.11294e-19
-1.06946e-18
-1.30117e-18
-1.50066e-18
-1.68103e-18
-1.82489e-18
-1.93323e-18
-2.04719e-18
-2.12548e-18
-2.11184e-18
-1.99057e-18
-1.78414e-18
-1.54088e-18
-1.24166e-18
-9.21701e-19
-5.34983e-19
-4.1195e-19
-6.08334e-21
-1.72721e-19
-6.53487e-20
1.18156e-19
3.31118e-19
1.71272e-18
-3.68175e-20
-5.11377e-20
-5.49303e-20
-5.88021e-20
-5.83598e-20
-5.44975e-20
-5.13333e-20
-4.43315e-20
-3.98935e-20
-3.88634e-20
-4.01075e-20
-3.99126e-20
-4.07625e-20
-4.43942e-20
-4.2672e-20
-4.02217e-20
-3.81329e-20
-3.54026e-20
-3.26084e-20
-3.11709e-20
-2.66106e-20
-2.54067e-20
-2.64044e-20
-2.57947e-20
-2.80626e-20
-3.00235e-20
-3.08966e-20
-3.13913e-20
-3.19129e-20
-3.04322e-20
-3.22223e-20
-2.95988e-20
-2.67578e-20
-2.64645e-20
-2.57677e-20
-2.45375e-20
-2.3327e-20
-2.3852e-20
-2.3954e-20
-2.32244e-20
-2.52188e-20
-1.59269e-20
-3.61375e-20
-3.56822e-21
-7.75735e-20
-9.86707e-20
-9.08602e-20
-7.21818e-20
-6.32686e-20
-2.86594e-20
-7.15053e-21
2.31903e-20
2.73336e-20
5.51403e-20
7.52299e-20
1.04749e-19
8.31656e-20
1.03107e-19
1.30582e-19
1.6491e-19
2.5048e-19
2.71212e-19
3.58338e-19
4.19699e-19
4.80204e-19
5.39477e-19
5.21871e-19
5.6516e-19
5.32445e-19
5.73042e-19
5.37311e-19
5.61922e-19
5.20591e-19
5.42124e-19
5.33328e-19
5.3291e-19
5.05151e-19
4.65607e-19
4.54577e-19
2.99792e-19
2.69993e-19
1.65232e-19
2.2657e-20
-9.35995e-20
-2.63439e-19
-4.08835e-19
-5.16181e-19
-6.98646e-19
-8.02256e-19
-9.99748e-19
-1.25995e-18
-1.37802e-18
-1.61496e-18
-1.88901e-18
-2.17986e-18
-2.47351e-18
-2.71982e-18
-3.04829e-18
-3.18067e-18
-3.39574e-18
-3.48268e-18
-3.47256e-18
-3.35872e-18
-3.1855e-18
-2.97376e-18
-2.24946e-18
-1.83472e-18
-7.51717e-19
-1.41061e-19
8.45143e-19
1.29614e-18
1.70266e-18
1.06288e-18
6.40904e-19
-2.93158e-19
-2.54273e-19
-4.51073e-19
9.04859e-19
-2.88421e-18
-2.10739e-19
-1.88005e-19
-1.33908e-19
-9.88214e-20
-9.49825e-20
-9.08718e-20
-9.33939e-20
-9.51487e-20
-9.0784e-20
-8.92097e-20
-8.27431e-20
-7.99442e-20
-7.29043e-20
-6.85734e-20
-6.29806e-20
-6.24405e-20
-6.35875e-20
-6.63083e-20
-6.9034e-20
-7.07295e-20
-7.45607e-20
-7.62245e-20
-7.40331e-20
-7.24524e-20
-7.03602e-20
-6.59052e-20
-6.36372e-20
-6.26649e-20
-6.35445e-20
-5.91201e-20
-5.43559e-20
-7.8151e-20
-7.40259e-20
-6.25484e-20
-6.04993e-20
-6.33063e-20
-6.41402e-20
-7.53497e-20
-6.61399e-20
-5.578e-20
-6.67443e-20
-9.05423e-21
-8.94524e-20
-2.45853e-20
-2.58268e-19
-4.43784e-19
-2.87689e-19
-2.24253e-19
-1.83365e-19
-1.42122e-19
-1.30226e-19
-7.45995e-20
-5.32281e-20
-2.7789e-20
-1.66163e-20
-3.18367e-20
-1.45164e-20
-2.21702e-20
1.56313e-20
5.97205e-20
3.80691e-20
1.37458e-19
2.17149e-19
1.94471e-19
2.84506e-19
3.57183e-19
4.03094e-19
4.30961e-19
4.89755e-19
4.88919e-19
4.88765e-19
5.54109e-19
5.81621e-19
5.41726e-19
5.65585e-19
6.08299e-19
4.89823e-19
5.34348e-19
5.40285e-19
4.86669e-19
4.50856e-19
4.31697e-19
3.92946e-19
3.0855e-19
1.66088e-19
1.56305e-19
7.96872e-20
1.53409e-21
-4.10451e-21
-6.63861e-20
-1.35086e-19
-1.32998e-19
-2.89391e-19
-2.90851e-19
-6.72824e-19
-8.42785e-19
-1.3721e-18
-1.89456e-18
-2.4392e-18
-2.87808e-18
-3.47727e-18
-3.90054e-18
-4.18149e-18
-4.22915e-18
-4.11266e-18
-3.46666e-18
-2.87588e-18
-1.3405e-18
2.31985e-20
1.47001e-18
2.6563e-18
2.62539e-18
2.31252e-18
-1.70082e-18
-1.75303e-18
-4.01466e-18
-8.10325e-19
-3.10299e-18
3.76265e-18
-2.89153e-20
-6.69058e-20
-1.00435e-19
-1.2628e-19
-1.33759e-19
-1.3056e-19
-1.24161e-19
-1.00084e-19
-9.17285e-20
-8.78595e-20
-8.81751e-20
-8.97655e-20
-9.19915e-20
-1.06741e-19
-9.99296e-20
-9.71323e-20
-9.4128e-20
-8.75709e-20
-8.50566e-20
-6.96127e-20
-6.25516e-20
-5.92425e-20
-5.94639e-20
-5.699e-20
-5.93263e-20
-6.50601e-20
-6.26508e-20
-6.04739e-20
-6.01592e-20
-6.34142e-20
-6.02243e-20
-5.89719e-20
-5.69578e-20
-5.0803e-20
-4.8284e-20
-4.83777e-20
-4.26708e-20
-4.64951e-20
-4.89353e-20
-4.84186e-20
-4.94257e-20
-3.28191e-20
-7.61766e-20
-2.02426e-20
-2.21321e-19
-3.11941e-19
-3.15061e-19
-2.89714e-19
-1.56745e-19
-9.41977e-20
-3.67833e-20
-3.55361e-21
4.52327e-20
1.04645e-19
1.34201e-19
2.33556e-19
1.61467e-19
1.0471e-19
1.17198e-19
1.00083e-19
1.11626e-19
1.12327e-19
1.44598e-19
2.34295e-19
2.10888e-19
2.7288e-19
2.83881e-19
2.972e-19
3.76088e-19
3.06856e-19
5.32817e-19
5.26005e-19
5.70667e-19
4.65968e-19
4.41183e-19
4.62108e-19
3.76306e-19
3.98422e-19
4.26751e-19
4.11354e-19
4.61679e-19
4.85662e-19
4.58774e-19
4.44608e-19
3.15298e-19
3.09469e-19
7.46523e-20
1.62446e-19
8.17741e-20
-7.07596e-20
2.78893e-21
-1.18949e-19
-1.57216e-19
-6.47269e-21
-2.1993e-19
-1.06411e-19
-4.28466e-19
-6.9591e-19
-1.17168e-18
-1.35239e-18
-2.0211e-18
-2.35642e-18
-3.164e-18
-3.2118e-18
-3.47833e-18
-3.5202e-18
-3.15529e-18
-2.51365e-18
-1.04315e-18
9.53174e-19
1.63343e-18
3.00311e-18
-3.45497e-19
-3.07647e-18
-6.44277e-18
-5.10427e-18
-6.70453e-18
-3.64122e-18
-9.52626e-18
-1.41776e-19
-1.23289e-19
-8.58719e-20
-6.09407e-20
-5.78898e-20
-5.33924e-20
-6.24352e-20
-7.05789e-20
-6.9726e-20
-7.16623e-20
-7.36015e-20
-5.84094e-20
-5.13739e-20
-4.7577e-20
-4.33198e-20
-4.34036e-20
-4.09892e-20
-4.15619e-20
-3.92721e-20
-4.93904e-20
-4.75695e-20
-4.79129e-20
-4.96838e-20
-4.76051e-20
-4.46068e-20
-3.75496e-20
-3.40647e-20
-3.12591e-20
-2.57558e-20
-1.83535e-20
-1.22462e-20
-1.34729e-20
-1.13995e-20
-6.84421e-21
-5.33548e-21
-3.40581e-21
-2.99311e-21
-5.17096e-21
-3.76466e-21
-2.05203e-21
-1.43356e-21
-5.7539e-22
-1.6832e-21
-9.65556e-21
-4.38096e-20
-6.38097e-20
-8.97727e-20
-7.9179e-20
-8.6592e-20
-3.17383e-20
4.73787e-20
1.49604e-19
2.39446e-19
2.34551e-19
2.72096e-19
2.24721e-19
2.12435e-19
2.34753e-19
2.18092e-19
1.67592e-19
1.15967e-19
1.50302e-19
1.24759e-19
1.42769e-19
2.41557e-19
3.1111e-19
4.17684e-19
5.28612e-19
5.9345e-19
6.27771e-19
6.88248e-19
6.96326e-19
7.80813e-19
7.41574e-19
4.96945e-19
5.84032e-19
4.12246e-19
5.12823e-19
2.05784e-19
2.99307e-19
3.44627e-19
4.51834e-19
4.76678e-19
3.3498e-19
3.72871e-19
1.08635e-19
1.27477e-20
-1.81452e-19
-2.38801e-19
-2.37941e-19
-3.78145e-19
-3.35126e-19
-5.20717e-19
-4.1147e-19
-4.85849e-19
-4.51997e-19
-6.70376e-19
-7.1016e-19
-9.1143e-19
-9.55859e-19
-1.05681e-18
-1.23595e-18
-1.45376e-18
-1.50242e-18
-1.85815e-18
-1.97931e-18
-2.09556e-18
-2.04169e-18
-1.64287e-18
-5.56379e-19
-2.63187e-19
-2.84439e-19
-2.11031e-18
-4.1796e-18
-5.57944e-18
-2.45488e-18
-9.59401e-19
-8.15373e-19
-9.04316e-19
1.6378e-21
4.88022e-20
5.80287e-20
5.59512e-20
5.60169e-20
4.84676e-20
4.77269e-20
3.98851e-20
2.37431e-20
1.76697e-20
3.26148e-20
3.19448e-20
3.64064e-20
5.94577e-20
6.03819e-20
7.5291e-20
7.43176e-20
8.44964e-20
7.78456e-20
7.43009e-20
6.54706e-20
6.41132e-20
6.73052e-20
7.43844e-20
8.85745e-20
1.02675e-19
1.26087e-19
1.30317e-19
1.32003e-19
1.32141e-19
1.33214e-19
1.30445e-19
1.19085e-19
1.08681e-19
1.04091e-19
1.00844e-19
1.00657e-19
9.24192e-20
1.09936e-19
1.16356e-19
1.13536e-19
1.19768e-19
1.27825e-19
1.25612e-19
1.81601e-19
7.14581e-19
6.81055e-19
7.53488e-19
7.77089e-19
7.84183e-19
7.14573e-19
6.40185e-19
7.9642e-19
8.13077e-19
8.88864e-19
8.99677e-19
8.6188e-19
8.26839e-19
7.68175e-19
7.77143e-19
6.26913e-19
5.41656e-19
4.24112e-19
3.8221e-19
3.74299e-19
4.86103e-19
5.58454e-19
6.34356e-19
7.07083e-19
6.39589e-19
6.9792e-19
6.22145e-19
6.81199e-19
7.99889e-19
6.13102e-19
6.02062e-19
3.81546e-19
2.99585e-19
2.09553e-19
3.02675e-19
3.15207e-19
3.15806e-19
3.43364e-19
4.77045e-19
3.6814e-19
1.51446e-19
-2.9453e-19
-5.53394e-19
-7.5259e-19
-9.77421e-19
-1.27038e-18
-1.45742e-18
-1.44899e-18
-1.47308e-18
-1.57042e-18
-1.59583e-18
-1.67418e-18
-1.92692e-18
-2.21186e-18
-2.35773e-18
-2.3697e-18
-2.54115e-18
-2.18836e-18
-2.29118e-18
-2.02592e-18
-1.81061e-18
-2.21397e-18
-1.64514e-18
-2.16803e-18
-1.74066e-18
-1.59317e-18
-2.42088e-18
-2.26327e-18
-3.19294e-18
-3.18284e-18
3.58243e-18
6.68944e-18
2.8744e-18
-2.21758e-18
5.03026e-19
4.48132e-19
2.90773e-19
1.90592e-19
1.75687e-19
1.82073e-19
2.06161e-19
2.63046e-19
2.72761e-19
2.83895e-19
2.78922e-19
2.6716e-19
2.60977e-19
2.20952e-19
1.79404e-19
1.79408e-19
1.98263e-19
2.23675e-19
2.4317e-19
3.17756e-19
3.40312e-19
3.38409e-19
3.26544e-19
3.21483e-19
2.99718e-19
2.84135e-19
2.53642e-19
2.39551e-19
2.32645e-19
2.38836e-19
2.45098e-19
2.86476e-19
3.52879e-19
3.30221e-19
3.60054e-19
3.79494e-19
3.95884e-19
3.9428e-19
3.94143e-19
3.50015e-19
3.27056e-19
3.14984e-19
3.10285e-19
3.15788e-19
3.05893e-19
1.61689e-18
1.44895e-18
1.45835e-18
1.46375e-18
1.50761e-18
1.55806e-18
1.55314e-18
1.54118e-18
1.64623e-18
1.67513e-18
1.64367e-18
1.76917e-18
1.75926e-18
1.74141e-18
1.71458e-18
1.70639e-18
1.66066e-18
1.67034e-18
1.54646e-18
1.47515e-18
1.38754e-18
1.32566e-18
1.25143e-18
1.15985e-18
1.0461e-18
1.00557e-18
9.46479e-19
9.07969e-19
9.81459e-19
9.29841e-19
8.09434e-19
6.89492e-19
5.84574e-19
3.60499e-19
3.79478e-19
1.32322e-19
2.11985e-19
3.47955e-19
3.70967e-19
4.07049e-19
2.54003e-19
-4.82101e-20
-2.81664e-19
-7.17059e-19
-8.30489e-19
-1.54055e-18
-1.86194e-18
-2.28706e-18
-2.38784e-18
-2.72777e-18
-2.78476e-18
-2.83725e-18
-3.54022e-18
-3.61081e-18
-4.12849e-18
-4.19401e-18
-3.69818e-18
-3.44158e-18
-2.75401e-18
-2.18029e-18
-1.57662e-18
-1.08538e-18
-1.02807e-18
-1.11115e-18
-1.11565e-18
-1.29349e-18
-1.86393e-18
-1.96611e-18
-1.31543e-18
1.36433e-18
7.75459e-18
1.03826e-17
4.93782e-18
2.83671e-18
2.82154e-20
2.0897e-19
3.71774e-19
5.2229e-19
5.5391e-19
5.26611e-19
4.82867e-19
3.75374e-19
3.10158e-19
2.76134e-19
2.9265e-19
3.21491e-19
3.35707e-19
5.01908e-19
5.7068e-19
5.50679e-19
5.55676e-19
5.17468e-19
4.92492e-19
4.49424e-19
3.66785e-19
3.48752e-19
3.44955e-19
3.78827e-19
3.90662e-19
4.32656e-19
4.96386e-19
5.32809e-19
5.42545e-19
5.44864e-19
5.47044e-19
5.30338e-19
5.28528e-19
4.69196e-19
4.0428e-19
3.86117e-19
3.84253e-19
3.49733e-19
4.24458e-19
4.61078e-19
3.97047e-19
3.14446e-19
4.9074e-19
5.46434e-19
8.85835e-19
2.91083e-18
2.84774e-18
3.02304e-18
2.64484e-18
2.48063e-18
2.28748e-18
2.21456e-18
2.04505e-18
2.0199e-18
1.91162e-18
2.10037e-18
2.11756e-18
2.15141e-18
2.11674e-18
2.16839e-18
2.09481e-18
2.09123e-18
2.11774e-18
2.14256e-18
2.12649e-18
2.08416e-18
1.92842e-18
1.80695e-18
1.72501e-18
1.55943e-18
1.45424e-18
1.32475e-18
1.24212e-18
1.27942e-18
1.19954e-18
1.15024e-18
1.04808e-18
1.01098e-18
8.09522e-19
6.80864e-19
2.77391e-19
4.26542e-19
3.00633e-19
2.09553e-19
1.30627e-19
1.14571e-19
1.48718e-20
-6.75728e-20
-4.20595e-19
-1.04726e-18
-1.31181e-18
-1.41307e-18
-2.36579e-18
-2.51433e-18
-2.93472e-18
-3.1279e-18
-3.40768e-18
-3.48149e-18
-3.57263e-18
-3.95193e-18
-4.16395e-18
-4.0868e-18
-3.21831e-18
-1.88515e-18
-1.28991e-18
-7.09659e-21
1.10619e-18
1.48466e-18
1.78658e-18
3.39447e-19
6.60721e-19
7.7936e-20
8.12065e-19
5.90337e-19
4.62233e-18
7.0771e-18
6.85249e-18
-1.79393e-18
1.04523e-17
1.18946e-18
1.07463e-18
7.16429e-19
4.81647e-19
4.21434e-19
4.22498e-19
4.98422e-19
6.11432e-19
6.92832e-19
7.59317e-19
7.48928e-19
7.10602e-19
6.67659e-19
5.74369e-19
4.71877e-19
4.43447e-19
4.40264e-19
4.89079e-19
5.17327e-19
6.17572e-19
6.84127e-19
6.87455e-19
6.93558e-19
6.85278e-19
6.40503e-19
5.78868e-19
5.56883e-19
4.70723e-19
4.46806e-19
4.50688e-19
4.21023e-19
4.78102e-19
5.6046e-19
5.82518e-19
6.47668e-19
6.74296e-19
7.03741e-19
6.79939e-19
7.56178e-19
6.98088e-19
4.35527e-19
5.73266e-19
6.98321e-19
6.26842e-19
6.77436e-19
2.63489e-18
2.93898e-18
3.60415e-18
3.23155e-18
2.97296e-18
2.84533e-18
2.82471e-18
2.61707e-18
2.49529e-18
2.30942e-18
2.29431e-18
2.44242e-18
2.53319e-18
2.63132e-18
2.51728e-18
2.4619e-18
2.27697e-18
2.22412e-18
2.24194e-18
2.2362e-18
2.2039e-18
2.17977e-18
1.99592e-18
1.82991e-18
1.5801e-18
1.46083e-18
1.36329e-18
1.26871e-18
1.2601e-18
1.21593e-18
1.28257e-18
1.27035e-18
1.30265e-18
1.41868e-18
1.40947e-18
1.30948e-18
1.09097e-18
7.81755e-19
4.60557e-19
7.51941e-20
9.69207e-20
7.29586e-20
-1.57359e-20
1.69698e-19
-9.96583e-20
-8.66055e-19
-4.26675e-19
-1.02295e-18
-1.05401e-18
-2.67535e-18
-2.47352e-18
-2.55877e-18
-2.31253e-18
-2.76919e-18
-3.19092e-18
-3.62016e-18
-3.34166e-18
-2.59217e-18
-7.39493e-19
7.43188e-19
2.80863e-18
4.8867e-18
5.30951e-18
4.84736e-18
3.06108e-18
2.63879e-18
1.7241e-18
1.57367e-18
2.04056e-18
2.08887e-18
4.23349e-19
-8.81143e-18
-1.82997e-17
-1.49363e-17
5.74058e-20
2.88205e-19
6.05356e-19
9.06858e-19
9.81885e-19
8.978e-19
7.65666e-19
6.38249e-19
5.36298e-19
4.92662e-19
4.81607e-19
4.96468e-19
4.9867e-19
6.10156e-19
7.54178e-19
7.53451e-19
7.34113e-19
6.84477e-19
6.21601e-19
5.64948e-19
4.79411e-19
4.18456e-19
4.09015e-19
4.41198e-19
4.73991e-19
5.02467e-19
5.50136e-19
6.70733e-19
6.91892e-19
6.88981e-19
6.6663e-19
6.507e-19
6.31389e-19
5.69068e-19
5.08985e-19
4.27839e-19
4.08145e-19
4.52298e-19
3.68761e-19
3.1881e-19
5.93995e-19
5.38736e-19
5.31179e-19
6.9689e-19
1.00465e-18
3.97677e-18
4.09417e-18
4.50969e-18
3.86021e-18
3.73012e-18
3.67064e-18
3.56453e-18
3.41576e-18
3.09898e-18
2.80904e-18
2.82557e-18
2.81807e-18
2.89251e-18
2.8589e-18
2.78127e-18
2.59484e-18
2.25876e-18
2.09008e-18
1.98224e-18
1.96125e-18
1.94842e-18
1.95276e-18
1.7412e-18
1.70146e-18
1.51359e-18
1.36234e-18
1.20713e-18
1.17812e-18
1.23517e-18
1.14477e-18
1.06921e-18
1.17287e-18
1.24085e-18
1.23073e-18
1.30856e-18
1.45575e-18
1.60153e-18
1.61154e-18
1.38635e-18
8.84749e-19
6.04013e-19
5.53007e-19
4.29249e-19
3.19689e-19
4.10856e-19
-4.3251e-19
-1.45745e-19
-7.6104e-19
-7.55563e-19
-2.21275e-19
5.25783e-19
-4.15884e-19
-2.6444e-18
-3.01271e-18
-3.09978e-18
-2.9549e-18
-3.3058e-18
-1.72704e-18
-2.06453e-18
9.46801e-19
3.45733e-18
4.67574e-18
5.41341e-18
5.12166e-18
2.64411e-18
7.57143e-19
1.90767e-18
2.06111e-18
2.66741e-18
2.50072e-18
-3.83973e-18
-1.79539e-17
-3.40708e-17
-5.14209e-17
1.35182e-18
1.20121e-18
8.05278e-19
5.18306e-19
4.38444e-19
4.22622e-19
4.88801e-19
6.21171e-19
6.66421e-19
6.94012e-19
6.92951e-19
6.62542e-19
6.11365e-19
5.23014e-19
4.08434e-19
3.59048e-19
3.58618e-19
3.83207e-19
4.02862e-19
5.33549e-19
5.85944e-19
6.23702e-19
6.43511e-19
6.36512e-19
5.83789e-19
5.41416e-19
4.61463e-19
4.12884e-19
3.77348e-19
3.49368e-19
3.61259e-19
3.50171e-19
4.10191e-19
5.78368e-19
5.45222e-19
6.09605e-19
6.54811e-19
6.49493e-19
6.60639e-19
6.21353e-19
5.72155e-19
5.23407e-19
5.08126e-19
4.94306e-19
5.91239e-19
2.744e-18
6.22011e-18
5.59971e-18
4.59361e-18
4.11368e-18
3.9118e-18
3.88906e-18
3.64523e-18
3.35052e-18
2.97929e-18
3.15996e-18
3.04464e-18
2.75584e-18
2.38342e-18
2.15934e-18
2.05188e-18
1.9318e-18
1.8729e-18
1.831e-18
1.81112e-18
1.73338e-18
1.81234e-18
1.80671e-18
1.63947e-18
1.51248e-18
1.44444e-18
1.31244e-18
1.33717e-18
1.30981e-18
1.31036e-18
1.27455e-18
1.38602e-18
1.39625e-18
1.39958e-18
1.56391e-18
1.72513e-18
1.83164e-18
1.88103e-18
1.77024e-18
1.10578e-18
7.18776e-19
9.42098e-19
7.86609e-19
6.2372e-19
3.0849e-19
9.67368e-20
2.653e-19
1.08992e-18
3.65117e-19
-1.23928e-18
-3.0473e-19
-1.17227e-18
-1.04635e-18
-1.11768e-18
-8.10818e-19
-1.44031e-18
-2.41886e-18
-2.30352e-18
-1.80272e-18
-2.32067e-18
1.06956e-18
2.67332e-18
3.69229e-18
4.11314e-18
7.05424e-19
5.71081e-19
-7.52069e-19
1.92183e-18
1.31626e-18
1.05894e-18
-4.56421e-18
-1.64894e-17
-3.21356e-17
-4.93799e-17
4.72169e-20
1.95039e-19
4.78815e-19
6.89586e-19
7.16229e-19
6.56882e-19
5.80047e-19
5.11294e-19
3.97884e-19
3.5151e-19
3.56618e-19
3.37494e-19
3.49792e-19
4.5313e-19
5.99972e-19
6.11063e-19
5.81712e-19
5.52849e-19
4.94139e-19
4.3032e-19
3.35445e-19
3.04337e-19
2.93304e-19
3.19869e-19
3.85709e-19
3.70802e-19
4.82993e-19
6.0708e-19
6.25864e-19
5.94139e-19
5.65997e-19
5.25527e-19
4.87633e-19
4.88008e-19
3.9726e-19
3.17302e-19
2.98328e-19
2.86429e-19
2.72363e-19
3.40691e-19
2.64286e-19
4.36708e-19
3.39288e-19
5.45978e-19
1.24016e-18
4.49486e-18
7.62872e-18
7.80688e-18
6.39214e-18
5.15967e-18
4.73867e-18
4.48569e-18
3.4922e-18
2.64178e-18
2.11642e-18
2.22451e-18
1.91754e-18
1.81432e-18
1.36542e-18
1.00928e-18
8.7494e-19
8.69844e-19
1.06773e-18
1.26699e-18
1.21143e-18
1.14059e-18
1.10155e-18
1.101e-18
8.53318e-19
5.5579e-19
5.87516e-19
9.22068e-19
1.30994e-18
1.31492e-18
1.33708e-18
1.09699e-18
1.03452e-18
1.06907e-18
1.20785e-18
1.36806e-18
1.76079e-18
1.97578e-18
1.77694e-18
1.4333e-18
8.71168e-19
5.65502e-19
7.63067e-19
7.79328e-19
1.0361e-18
7.14646e-19
-5.14223e-19
-1.73511e-18
-2.33502e-19
-4.25328e-19
-3.24947e-19
9.54071e-19
1.038e-18
4.80949e-19
1.30374e-19
-2.54871e-19
-1.49587e-18
-1.90305e-18
-1.83962e-18
-2.03401e-18
-2.2387e-18
-1.52516e-18
3.76127e-19
1.02088e-18
3.53407e-18
1.77109e-18
6.75106e-19
1.21139e-18
2.21044e-18
3.31175e-18
-7.61638e-19
-6.90705e-18
-1.99224e-17
-3.79898e-17
-4.41174e-17
8.39324e-19
7.44958e-19
5.1936e-19
3.10526e-19
2.65127e-19
2.64836e-19
3.13995e-19
3.96259e-19
4.93848e-19
5.08419e-19
4.95854e-19
4.83366e-19
4.37824e-19
3.73523e-19
2.78866e-19
2.41463e-19
2.47971e-19
2.95458e-19
3.63444e-19
4.59591e-19
5.29141e-19
5.27894e-19
5.1482e-19
5.19161e-19
4.79782e-19
4.33589e-19
3.82121e-19
3.06406e-19
2.58292e-19
2.48654e-19
2.5891e-19
2.85396e-19
2.89338e-19
4.08075e-19
4.80509e-19
5.09717e-19
5.32994e-19
5.23808e-19
5.1542e-19
5.3912e-19
4.52035e-19
4.5891e-19
3.98843e-19
4.00254e-19
1.255e-18
3.53693e-18
5.68961e-18
8.64484e-18
6.57579e-18
5.78397e-18
5.58165e-18
4.4769e-18
3.0949e-18
2.04864e-18
1.4542e-18
1.04221e-18
1.13782e-18
1.15363e-18
1.21613e-18
9.58832e-19
5.5961e-19
5.09234e-19
5.0376e-19
9.60287e-19
7.65896e-19
5.91793e-19
6.24061e-19
2.49321e-19
2.0252e-18
2.64722e-18
-2.90683e-19
-4.60564e-18
-3.28192e-18
6.48456e-19
3.7482e-18
4.49317e-18
3.05746e-18
2.08631e-18
1.60588e-18
1.42984e-18
1.43747e-18
1.79209e-18
1.91579e-18
1.61249e-18
8.95777e-19
4.06273e-19
2.37041e-19
-5.31696e-19
1.63403e-19
7.73519e-19
1.05586e-18
1.22327e-18
1.43845e-18
1.39666e-18
1.6511e-18
1.02827e-18
3.92196e-19
-6.63688e-19
-9.38771e-19
-4.1711e-19
-8.25015e-19
-8.3958e-19
-1.42215e-18
-1.37411e-18
-1.3207e-18
-2.0848e-18
-9.14213e-19
-6.61068e-19
1.28814e-18
2.21643e-18
2.06171e-18
1.67959e-18
3.30035e-18
8.59635e-19
-3.40606e-20
-8.32729e-18
-2.1386e-17
-4.23957e-17
-4.44506e-17
3.04737e-20
1.01583e-19
3.59387e-19
4.90692e-19
4.71141e-19
4.32104e-19
3.73644e-19
3.80256e-19
3.28973e-19
2.75737e-19
2.71944e-19
2.86457e-19
3.09428e-19
4.86567e-19
5.84191e-19
5.98721e-19
5.48299e-19
5.13657e-19
4.62912e-19
3.9464e-19
3.13729e-19
2.30115e-19
2.2757e-19
2.70857e-19
3.08851e-19
3.05069e-19
4.85445e-19
5.10125e-19
5.07264e-19
5.15903e-19
5.02661e-19
4.98008e-19
4.55662e-19
4.05219e-19
3.51629e-19
3.4969e-19
2.76395e-19
2.46242e-19
2.31209e-19
2.15029e-19
2.40598e-19
2.38058e-19
2.69177e-19
8.78454e-19
2.83299e-18
4.89106e-18
6.05246e-18
1.00911e-17
5.42597e-18
7.64676e-18
6.62603e-18
5.49269e-18
3.86374e-18
2.14631e-18
1.55633e-18
1.49276e-18
1.3713e-18
1.22164e-18
1.24841e-18
4.85037e-19
5.43411e-19
2.89143e-19
8.87107e-19
-2.55592e-18
2.70789e-18
4.66845e-18
7.70144e-19
-1.13867e-17
-9.86486e-18
2.90951e-18
2.2943e-17
2.00516e-17
-7.86903e-19
-1.03465e-17
-7.43867e-18
-2.81481e-18
-4.68971e-19
-3.15041e-19
-3.42484e-19
2.09599e-19
4.88785e-19
-3.14491e-19
-2.33e-19
1.80751e-20
1.4237e-19
7.60502e-19
9.31676e-19
6.77776e-19
1.50226e-18
2.44943e-18
1.9161e-18
1.05562e-18
1.27708e-19
-4.19372e-19
-1.14977e-18
-5.4125e-19
3.39336e-19
4.05287e-19
1.21874e-20
2.79805e-19
-1.82202e-19
-3.53425e-19
-5.6609e-19
-5.91154e-19
-7.05345e-19
-1.23977e-18
-1.36498e-18
-2.22068e-18
3.11192e-19
1.67288e-18
1.88041e-18
1.25563e-18
2.76929e-18
-1.07823e-18
-8.88726e-19
-9.75291e-18
-2.44226e-17
-4.95768e-17
-5.1913e-17
5.98673e-19
5.27917e-19
3.44406e-19
2.22266e-19
1.98206e-19
2.15969e-19
2.96058e-19
3.79453e-19
3.6561e-19
4.45818e-19
4.61294e-19
4.46239e-19
4.1298e-19
3.94858e-19
3.13759e-19
2.91405e-19
2.95657e-19
2.91616e-19
3.15392e-19
3.55404e-19
4.90722e-19
5.42443e-19
4.9779e-19
5.1729e-19
4.6618e-19
4.29539e-19
3.77076e-19
3.1183e-19
2.43488e-19
2.2197e-19
2.14861e-19
2.30988e-19
2.35742e-19
2.43791e-19
3.2376e-19
3.38577e-19
3.71314e-19
3.79472e-19
3.79587e-19
3.66995e-19
3.7966e-19
3.08627e-19
3.49101e-19
7.23972e-19
2.30915e-18
3.87702e-18
4.3329e-18
9.46505e-18
-3.31975e-18
1.87778e-17
4.153e-18
5.71747e-18
7.6345e-18
1.92876e-18
5.96725e-18
2.4219e-18
3.70711e-18
-1.3008e-18
1.71897e-18
7.51665e-18
-1.10308e-17
-2.36578e-18
1.90568e-17
7.83715e-18
-4.20467e-17
-8.87592e-18
4.20537e-17
2.88177e-17
-9.61109e-18
-2.95231e-17
-1.31388e-17
5.78345e-18
6.19773e-18
8.38818e-19
-3.78209e-19
-2.11789e-20
2.0218e-18
2.56213e-18
5.86213e-19
-1.23936e-18
-1.42859e-18
-6.11333e-19
-5.0564e-20
-2.19002e-19
1.08386e-19
-1.56988e-19
-3.63295e-19
-5.00936e-19
-4.86918e-19
-1.00303e-18
-1.55231e-18
-1.59841e-18
-8.89549e-19
-7.19327e-19
4.52208e-20
1.22607e-18
1.58247e-18
1.48791e-18
8.9682e-19
1.02841e-18
6.75596e-20
-1.16377e-19
-2.29801e-19
-8.2721e-19
-6.18618e-19
-1.49489e-18
-1.7763e-18
-2.707e-18
-4.65143e-19
8.49996e-19
2.47634e-18
8.06573e-19
1.65643e-18
-3.92185e-18
-1.02204e-17
-1.23685e-17
-2.66958e-17
-5.46894e-17
-5.89404e-17
4.83616e-20
1.3314e-19
2.70897e-19
3.83287e-19
4.26919e-19
4.37583e-19
4.38954e-19
4.03516e-19
3.78633e-19
3.36912e-19
2.75025e-19
3.26512e-19
3.74043e-19
3.93823e-19
4.62735e-19
4.69857e-19
4.74911e-19
4.1303e-19
4.06335e-19
3.96061e-19
3.57947e-19
3.05872e-19
2.78993e-19
2.73226e-19
2.55671e-19
3.00837e-19
2.59553e-19
3.8507e-19
4.35712e-19
4.15558e-19
3.9916e-19
3.74834e-19
3.67907e-19
3.46257e-19
3.37486e-19
2.84061e-19
2.73365e-19
2.3689e-19
2.27937e-19
1.93736e-19
2.25945e-19
1.40157e-19
3.04455e-19
1.04652e-18
2.84841e-18
3.22755e-18
3.4964e-18
4.5858e-18
9.05597e-19
2.39923e-17
-2.62313e-17
1.85454e-17
2.35269e-17
-1.27627e-17
3.0358e-17
-1.70178e-17
-7.31229e-18
1.42433e-17
-3.88694e-17
2.91688e-17
4.31852e-17
-7.41684e-17
-1.91822e-17
7.35003e-17
1.32558e-17
-2.34465e-17
-8.79513e-18
-3.60075e-18
-1.05274e-17
-8.30336e-19
1.58304e-17
1.42388e-17
3.22158e-19
-5.41535e-18
-3.31006e-18
1.68486e-18
4.33377e-18
1.26533e-18
-2.30044e-18
-2.50281e-18
-8.16901e-19
4.29278e-19
1.04396e-18
6.98651e-19
3.7443e-19
-4.43531e-21
-1.30848e-18
-1.44797e-18
-1.16248e-18
-9.13892e-19
-8.90142e-19
-1.07217e-18
-7.03782e-19
9.02398e-19
7.7434e-19
1.01798e-18
4.62076e-19
5.77381e-19
8.41208e-19
4.97904e-19
1.96599e-19
-4.85651e-19
-6.11371e-19
-1.16633e-18
-1.33867e-18
-1.46956e-18
-1.8721e-18
-2.29292e-18
-1.00062e-18
1.02413e-18
2.54439e-18
1.85928e-18
-2.35813e-18
-9.8076e-18
-1.57281e-17
-2.39317e-17
-3.51016e-17
-5.45308e-17
-5.76649e-17
6.03956e-19
5.57811e-19
4.0569e-19
2.93816e-19
2.55648e-19
2.69878e-19
3.05394e-19
3.29773e-19
3.99008e-19
4.25869e-19
4.38476e-19
4.35606e-19
4.10892e-19
3.78913e-19
3.43187e-19
3.25993e-19
3.09027e-19
3.29782e-19
3.42667e-19
3.05836e-19
2.95531e-19
3.83308e-19
3.70162e-19
3.55836e-19
3.25591e-19
3.19186e-19
3.16414e-19
2.91249e-19
2.66037e-19
2.0408e-19
1.9256e-19
1.76747e-19
1.61877e-19
1.83256e-19
1.70913e-19
2.20954e-19
2.31835e-19
2.31714e-19
2.43212e-19
2.32046e-19
2.63777e-19
1.93787e-19
3.32206e-19
9.83026e-19
2.48803e-18
2.63204e-18
2.59853e-18
2.90575e-18
3.06381e-18
1.06839e-17
-2.44421e-17
9.58406e-17
-7.66632e-17
6.4045e-18
3.29797e-17
-7.86897e-17
6.16658e-17
3.3975e-17
-8.64187e-17
3.02003e-17
4.34452e-17
-3.49485e-17
1.76694e-17
1.59103e-17
-3.95219e-17
-2.05877e-17
7.9661e-18
2.00996e-17
5.97411e-18
1.28249e-18
3.4813e-18
-1.77802e-18
-8.11811e-18
-6.86537e-18
-9.87004e-19
2.85224e-18
1.86601e-18
-1.358e-18
-2.12555e-18
-1.63006e-18
-1.3138e-18
-7.11507e-19
3.14744e-19
2.26181e-19
8.45369e-19
8.73497e-20
-1.48493e-19
3.5154e-19
2.96515e-19
1.42929e-19
-2.42411e-19
-6.15803e-19
2.91295e-19
3.71889e-19
6.61528e-19
2.34559e-19
-7.21779e-19
-2.2979e-20
1.19711e-19
-5.80835e-19
-6.81784e-19
-1.0789e-18
-9.14356e-19
-7.4924e-19
-4.42309e-19
-1.05429e-18
-1.45516e-18
-1.36451e-18
-1.79907e-18
-5.3039e-19
1.05097e-18
1.57798e-18
-4.49713e-18
-1.49641e-17
-2.92178e-17
-2.95225e-17
-3.6819e-17
-5.24516e-17
-5.70314e-17
2.02536e-19
2.45739e-19
4.09015e-19
4.27695e-19
5.07252e-19
4.81323e-19
4.74149e-19
4.2212e-19
3.7509e-19
3.58867e-19
3.85399e-19
3.62968e-19
3.49419e-19
3.6273e-19
3.67637e-19
3.77629e-19
3.63819e-19
3.81443e-19
3.61268e-19
3.45481e-19
2.96636e-19
3.06209e-19
2.56354e-19
2.3967e-19
2.34879e-19
2.37202e-19
2.26932e-19
2.50846e-19
2.55606e-19
2.91239e-19
2.96865e-19
2.7446e-19
2.67908e-19
2.75641e-19
2.28233e-19
2.02756e-19
1.97756e-19
1.75983e-19
1.64458e-19
1.58065e-19
1.56339e-19
1.47287e-19
2.63839e-19
1.00998e-18
2.48224e-18
2.50289e-18
2.3055e-18
2.72285e-18
2.34831e-18
6.56631e-18
-4.61626e-18
3.16019e-17
-3.16425e-17
-5.35078e-18
1.31873e-17
4.41037e-18
8.04076e-18
-4.59448e-17
2.71396e-18
6.73019e-17
-1.02527e-17
-5.8191e-17
1.16385e-17
8.66885e-18
-2.61072e-18
6.94879e-18
1.62227e-17
1.04784e-17
-7.62355e-18
-8.61293e-18
-8.40561e-19
9.08208e-19
-1.25056e-18
-1.41596e-18
4.74567e-19
9.77169e-19
-1.17063e-19
-8.14905e-19
-1.08706e-18
-1.41654e-18
-1.67414e-18
-1.41122e-18
-8.6828e-19
-9.79303e-19
9.59552e-20
-1.50056e-19
-2.99692e-19
1.20105e-18
1.97945e-18
6.01801e-19
-1.30676e-18
-1.6024e-18
4.05626e-19
-1.07863e-18
-1.02436e-18
-1.06344e-18
-8.23635e-19
2.64739e-19
2.04292e-19
-5.07082e-19
-3.64937e-19
-5.82709e-19
-5.98363e-19
-3.76175e-19
-1.23131e-18
-1.48658e-18
-1.01279e-18
-2.15343e-18
-8.56174e-19
1.75216e-19
3.1679e-19
-5.77287e-19
-4.14768e-18
-1.61536e-17
-3.02742e-17
-3.71144e-17
-3.972e-17
-4.97837e-17
-4.14718e-17
5.4794e-19
4.98868e-19
4.04855e-19
3.62084e-19
3.93833e-19
4.09102e-19
3.91804e-19
3.78614e-19
3.6757e-19
3.88461e-19
3.86723e-19
3.90047e-19
3.95021e-19
3.49991e-19
3.15546e-19
3.02252e-19
2.91438e-19
2.66642e-19
2.55558e-19
2.32403e-19
2.47702e-19
2.3961e-19
2.17612e-19
2.32447e-19
2.26828e-19
2.09581e-19
1.83881e-19
1.82963e-19
1.75898e-19
1.83681e-19
1.53202e-19
1.49903e-19
1.46757e-19
1.33683e-19
1.36558e-19
1.50643e-19
1.36882e-19
1.60142e-19
1.60583e-19
1.62863e-19
1.67536e-19
1.8012e-19
3.22195e-19
1.14408e-18
2.35424e-18
2.37861e-18
2.27796e-18
2.21837e-18
2.51383e-18
1.42114e-19
6.56814e-19
-1.49663e-18
2.14309e-17
-1.70136e-17
-2.84118e-17
2.59185e-17
2.32036e-17
-1.05891e-17
1.47144e-17
-4.46412e-18
-4.4104e-17
-2.48183e-18
3.81045e-17
1.20951e-17
-3.03436e-18
-5.09777e-18
-2.33001e-18
-3.64605e-18
-5.98717e-18
-2.90838e-19
3.43578e-18
1.97082e-18
-1.649e-20
-9.22674e-19
-2.72163e-19
-8.97972e-19
-4.78609e-19
-1.09112e-18
-1.61404e-18
-1.77678e-18
-1.82142e-18
-1.7677e-18
-1.44478e-18
-9.97769e-19
-1.61159e-18
-4.90753e-19
-1.89163e-19
4.61935e-19
-3.61614e-20
-5.72805e-19
-1.18091e-18
-9.63857e-19
-5.69009e-19
-1.71775e-18
-1.02239e-18
-1.38326e-19
-1.0202e-18
-6.48917e-19
-6.8391e-19
-6.10689e-20
-7.24757e-19
-7.31399e-19
-7.09292e-19
-1.16585e-18
-8.75555e-19
-1.27383e-18
-1.0501e-18
-2.40744e-18
-1.0655e-18
4.85337e-19
2.67776e-18
-1.86707e-18
-7.28295e-18
-2.22926e-17
-3.48126e-17
-4.5052e-17
-4.26431e-17
-4.66981e-17
-3.67841e-17
4.13063e-19
4.31653e-19
5.07357e-19
5.02019e-19
4.37244e-19
4.52676e-19
3.90957e-19
3.28103e-19
3.32851e-19
3.76449e-19
3.82785e-19
3.57816e-19
3.20318e-19
3.25472e-19
3.10475e-19
2.61843e-19
2.50059e-19
1.9005e-19
2.00403e-19
1.93833e-19
1.63115e-19
1.31737e-19
1.80813e-19
1.43581e-19
1.4597e-19
1.43085e-19
1.55778e-19
1.47184e-19
1.70717e-19
1.32673e-19
1.70839e-19
1.88773e-19
1.71598e-19
1.60273e-19
1.35679e-19
1.47945e-19
1.20811e-19
1.20443e-19
1.17485e-19
1.08573e-19
1.08805e-19
1.30893e-19
3.49114e-19
1.22218e-18
2.28285e-18
2.2928e-18
2.1121e-18
1.83765e-18
1.10174e-18
-1.19394e-17
2.09553e-17
-6.1385e-18
-2.37529e-17
-5.75699e-18
2.81034e-17
3.4219e-17
-1.10164e-17
-2.29101e-17
-1.25613e-18
-2.3163e-18
-5.79224e-18
1.64201e-17
1.93592e-17
-3.31539e-19
-9.36823e-18
-6.12809e-18
-2.90292e-18
-1.97821e-18
-9.74041e-19
2.88796e-18
3.80503e-18
4.53294e-19
-1.42858e-18
-1.54666e-18
-1.29665e-18
-1.34449e-18
-1.21547e-18
-1.85798e-18
-2.15752e-18
-2.62424e-18
-2.23423e-18
-1.90289e-18
-2.13694e-18
-1.87505e-18
-2.22327e-18
-1.96514e-18
-1.75053e-18
-1.73417e-18
-2.93625e-19
-5.5563e-19
-1.16714e-18
-1.53757e-18
-9.53448e-19
-1.0075e-18
-6.73371e-19
-4.01158e-19
-1.31124e-18
-6.61774e-19
-1.34339e-18
2.30597e-19
-4.15834e-19
-1.05999e-18
-1.19653e-18
-1.00622e-18
-9.45154e-19
-1.91015e-18
-1.98012e-18
-9.62171e-19
-2.8373e-18
-5.69646e-19
2.1925e-18
-1.071e-18
-1.04878e-17
-2.80113e-17
-4.33154e-17
-5.02437e-17
-4.58157e-17
-4.37641e-17
-3.79047e-17
3.23976e-19