/*--------------------------------*- C++ -*----------------------------------*\
| =========                 |                                                 |
| \\      /  F ield         | OpenFOAM: The Open Source CFD Toolbox           |
|  \\    /   O peration     | Version:  2.2.x                                 |
|   \\  /    A nd           | Web:      www.OpenFOAM.org                      |
|    \\/     M anipulation  |                                                 |
\*---------------------------------------------------------------------------*/
FoamFile
{
    version     2.0;
    format      ascii;
    class       volVectorField;
    location    "1.7";
    object      U;
}
// * * * * * * * * * * * * * * * * * * * * * * * * * * * * * * * * * * * * * //

dimensions      [0 1 -1 0 0 0 0];

internalField   nonuniform List<vector> 
14161
(
(1.50054 2.26513e-08 7.27274e-16)
(1.50054 -9.71065e-08 -7.31603e-16)
(1.50057 2.50556e-08 5.6986e-16)
(1.50064 1.37595e-08 -5.38614e-16)
(1.50074 1.31254e-07 3.35539e-16)
(1.50087 1.25701e-07 6.37944e-17)
(1.50105 1.34634e-07 1.57534e-16)
(1.50127 9.2005e-07 2.82181e-16)
(1.50151 3.80979e-07 -4.13894e-16)
(1.50183 -8.91606e-08 9.63761e-16)
(1.50224 2.48504e-06 -8.21309e-16)
(1.50263 -6.78476e-07 1.51634e-15)
(1.50305 -1.49554e-06 -1.49484e-16)
(1.50368 3.63018e-06 4.92992e-16)
(1.50427 4.6892e-07 5.22975e-16)
(1.50488 -6.93496e-06 -4.18922e-16)
(1.50571 1.02204e-05 2.21364e-15)
(1.50642 -3.72054e-06 -6.49258e-16)
(1.50722 -1.67544e-05 4.88531e-16)
(1.50817 2.15022e-05 1.38626e-15)
(1.50888 -1.49451e-06 8.45309e-16)
(1.50973 -3.3515e-05 -4.54101e-15)
(1.51069 3.11915e-05 4.52662e-15)
(1.51116 4.55442e-05 1.72906e-14)
(1.51154 -3.17535e-05 5.50334e-15)
(1.51238 -2.07957e-05 -1.4569e-13)
(1.5127 2.64248e-05 3.91471e-13)
(1.51271 2.95015e-05 -3.36463e-12)
(1.51257 3.63975e-06 5.53608e-11)
(1.51235 -2.03377e-07 -1.71732e-10)
(1.51188 7.94294e-06 4.5887e-10)
(1.51133 -2.24276e-06 -8.95719e-10)
(1.51034 -7.19232e-06 2.03213e-09)
(1.50881 -1.39204e-05 -4.48927e-09)
(1.50656 4.12326e-06 7.90552e-09)
(1.50371 1.06685e-05 -1.26425e-08)
(1.50033 2.18509e-05 2.06104e-08)
(1.49498 -6.23855e-06 -5.54366e-08)
(1.48976 -8.6468e-05 1.29539e-07)
(1.48506 -0.000243988 -1.93978e-07)
(1.4817 -5.79366e-05 2.63625e-07)
(1.47454 -0.000345455 -1.83291e-06)
(1.46753 0.00092478 1.43685e-06)
(1.28116 0.00303898 1.05195e-05)
(0.642045 0.00690263 1.28809e-05)
(0.530449 0.00732416 2.18468e-05)
(0.51393 0.00402786 3.51041e-05)
(0.51264 -0.00137678 1.67714e-05)
(0.520786 -0.00298787 -3.92314e-05)
(0.530019 -0.00490523 1.70978e-05)
(0.546067 -0.00588027 0.000636107)
(0.560671 -0.00718123 -0.000121751)
(0.578539 -0.00701954 -0.00153244)
(0.594572 -0.00637797 0.000561005)
(0.609862 -0.00593742 0.00284198)
(0.624483 -0.00588893 0.000564759)
(0.638422 -0.00582654 -0.00349778)
(0.652503 -0.00538579 -0.00332063)
(0.664655 -0.0047832 0.00132548)
(0.67663 -0.00458351 0.00461906)
(0.687698 -0.00464455 0.00307437)
(0.696952 -0.00433267 -0.00178737)
(0.706372 -0.00375057 -0.00472453)
(0.715145 -0.00354663 -0.00339267)
(0.723112 -0.00386222 0.00155543)
(0.731325 -0.00424308 0.0043298)
(0.738246 -0.00411448 0.00354723)
(0.743773 -0.00329752 0.000565177)
(0.748336 -0.00251021 -0.00325227)
(0.753045 -0.00264043 -0.00399824)
(0.758051 -0.00327944 -0.00190671)
(0.763512 -0.00381154 0.00276927)
(0.769349 -0.00318319 0.00437047)
(0.774408 -0.0022464 0.00305352)
(0.778632 -0.00196086 -0.00120192)
(0.784394 -0.00314587 -0.0046609)
(0.79273 -0.00417078 -0.00386809)
(0.79864 -0.00400955 -0.000210587)
(0.803383 -0.00322283 0.00236104)
(0.807916 -0.00269848 0.00302387)
(0.812618 -0.00249653 0.00165925)
(0.817967 -0.0029171 -0.00217488)
(0.82573 -0.00364628 -0.00374121)
(0.835392 -0.00396597 -0.00251693)
(0.845543 -0.00343836 0.000771639)
(0.853021 -0.00263126 0.00274025)
(0.860235 -0.00249625 0.00229431)
(0.869039 -0.00333986 0.00022418)
(0.879201 -0.0040698 -0.00177466)
(0.888224 -0.00430054 -0.00213966)
(0.896084 -0.00401655 -0.00137979)
(0.911949 -0.00348864 0.000208452)
(0.923167 -0.00224557 0.00234059)
(0.935138 -0.00169134 0.00317071)
(0.948212 -0.0023766 0.00156394)
(0.962414 -0.00375161 -0.00119966)
(0.976897 -0.00460783 -0.00318364)
(0.992071 -0.00422871 -0.00342665)
(1.00753 -0.00311353 -0.00233574)
(1.02316 -0.00159839 0.000172166)
(1.0391 -0.000427426 0.00271719)
(1.05248 -0.00102909 0.00386081)
(1.06544 -0.00307331 0.00300526)
(1.07343 -0.00394449 0.000314487)
(1.07435 -0.00205507 -0.00294506)
(1.07213 0.00130392 -0.00373134)
(1.04622 0.0108312 -0.00227204)
(1.00623 0.0286704 0.000455569)
(0.89788 0.0508048 0.0023429)
(0.735483 0.0720409 0.00176802)
(0.588477 0.0733968 -0.000411392)
(0.477763 0.0619623 -0.000316378)
(0.392943 0.0471718 9.63726e-05)
(0.325753 0.0376774 3.49269e-05)
(0.268446 0.0340497 -4.61151e-05)
(0.214557 0.0327396 -1.39627e-06)
(0.16026 0.0352831 8.30915e-05)
(0.102608 0.0304067 5.4986e-05)
(0.0555118 0.0545344 0.000159905)
(1.50054 6.29766e-08 7.67058e-16)
(1.50054 -3.51371e-08 -7.80494e-16)
(1.50057 1.41061e-07 6.49951e-16)
(1.50064 1.003e-07 -5.79415e-16)
(1.50074 8.75656e-09 4.14307e-16)
(1.50087 5.20101e-07 4.6667e-17)
(1.50105 5.32388e-07 1.15606e-16)
(1.50127 1.02225e-06 3.54233e-16)
(1.50152 1.35582e-06 -5.10487e-16)
(1.50184 4.07737e-07 1.10602e-15)
(1.50223 1.5881e-06 -1.05129e-15)
(1.50263 -4.13266e-07 1.65416e-15)
(1.50306 -1.65922e-07 -1.9514e-16)
(1.50367 1.23452e-06 5.71848e-16)
(1.50427 1.90398e-07 5.12021e-16)
(1.5049 -2.63159e-06 -4.86574e-16)
(1.50568 8.50567e-06 2.54505e-15)
(1.50641 2.36563e-07 -9.90812e-16)
(1.50725 -1.24613e-05 6.24925e-16)
(1.50812 2.72789e-05 1.31961e-15)
(1.5089 1.23166e-05 1.44993e-15)
(1.50979 -3.77079e-05 -5.76361e-15)
(1.51061 2.25846e-05 6.68498e-15)
(1.51114 4.18923e-05 1.29122e-14)
(1.51166 -2.9474e-05 1.81172e-14)
(1.51238 -3.74276e-05 -1.69036e-13)
(1.5127 3.6753e-05 2.32828e-13)
(1.51271 3.32711e-05 -3.12636e-12)
(1.51263 1.13575e-05 4.94996e-11)
(1.51243 7.1374e-06 -1.50818e-10)
(1.51199 2.76284e-05 4.08979e-10)
(1.51139 -3.73554e-06 -7.04464e-10)
(1.51039 2.35522e-06 1.21157e-09)
(1.5088 -3.70773e-06 -2.35043e-09)
(1.50671 4.79105e-05 6.59632e-09)
(1.50398 7.73029e-05 -1.0772e-08)
(1.50061 0.000119827 1.31154e-08)
(1.49534 8.8852e-05 -3.86422e-08)
(1.49024 -5.73081e-05 6.83087e-08)
(1.48546 -0.000145424 -6.41185e-08)
(1.48201 -0.000370934 4.855e-08)
(1.47366 -0.000310633 -3.7801e-07)
(1.4644 0.00180056 6.09558e-07)
(1.2628 0.00894457 7.67312e-06)
(0.634227 0.0201921 6.72452e-06)
(0.522643 0.0186709 -1.32992e-05)
(0.508965 0.00489634 5.80549e-05)
(0.509272 -0.006071 6.572e-05)
(0.520896 -0.0100302 -0.000248596)
(0.530806 -0.0152868 1.58105e-05)
(0.547126 -0.0159781 0.000879251)
(0.561191 -0.0182842 -0.000146324)
(0.578049 -0.0185303 -0.00184405)
(0.59378 -0.0169649 -0.000102996)
(0.608901 -0.015741 0.00280149)
(0.623873 -0.0152509 0.00185998)
(0.637724 -0.0146583 -0.00221131)
(0.651688 -0.0134061 -0.00393638)
(0.664626 -0.0124957 -0.00109478)
(0.676746 -0.0116576 0.00337567)
(0.688371 -0.0106907 0.00409838)
(0.698068 -0.00931846 0.00111077)
(0.707154 -0.00758514 -0.003378)
(0.716435 -0.00735675 -0.00443763)
(0.724575 -0.00817477 -0.00171811)
(0.732454 -0.0081896 0.00268827)
(0.739731 -0.00767416 0.00399279)
(0.745785 -0.00691988 0.00253637)
(0.751394 -0.00551196 -0.00161472)
(0.757698 -0.00569708 -0.00393965)
(0.762899 -0.00695699 -0.00300184)
(0.767395 -0.00729299 0.000394097)
(0.772213 -0.00521271 0.00348987)
(0.777233 -0.00282145 0.00315372)
(0.781805 -0.00179024 -0.000301506)
(0.786681 -0.00343318 -0.00383077)
(0.79324 -0.00730278 -0.00371945)
(0.800812 -0.00939104 -0.000329941)
(0.806519 -0.00770938 0.00263226)
(0.811884 -0.0050373 0.0033314)
(0.81712 -0.00378316 0.00185223)
(0.822519 -0.00436795 -0.00182738)
(0.829734 -0.0058174 -0.00379428)
(0.838562 -0.0063667 -0.00258791)
(0.849 -0.00473784 0.00106502)
(0.85614 -0.00267337 0.00294033)
(0.863037 -0.00157247 0.00237219)
(0.870712 -0.0022696 0.000127909)
(0.880133 -0.00583322 -0.00231195)
(0.890134 -0.0102428 -0.00235071)
(0.899438 -0.0110084 -0.00104184)
(0.916092 -0.00984566 0.000905951)
(0.926818 -0.00573143 0.00259814)
(0.93896 -0.00162883 0.00294066)
(0.951714 -0.000799753 0.00156877)
(0.964481 -0.00253911 -0.00071169)
(0.978632 -0.00534162 -0.00330304)
(0.99416 -0.00683974 -0.00393426)
(1.01008 -0.00588894 -0.00245365)
(1.02583 -0.00408401 0.000670264)
(1.04101 -0.00285897 0.00255929)
(1.05258 -0.00238195 0.00336232)
(1.0631 -0.00252239 0.00306596)
(1.06586 -0.00305864 0.000374658)
(1.06146 -0.0043429 -0.00286461)
(1.04087 -4.65264e-05 -0.00323838)
(0.986126 0.0125152 -0.0019385)
(0.899819 0.0301953 0.00063122)
(0.755794 0.0651271 0.00256136)
(0.609068 0.100287 0.000586984)
(0.491249 0.105351 -0.000666367)
(0.406274 0.0924973 2.98127e-05)
(0.338524 0.0813906 0.000106569)
(0.280956 0.0738711 -2.09936e-05)
(0.228417 0.072404 -6.80967e-05)
(0.178738 0.0745654 1.96304e-05)
(0.130714 0.0826073 5.20362e-05)
(0.0781821 0.0803713 1.81079e-05)
(0.0371005 0.110196 7.22469e-05)
(1.50054 1.13294e-07 8.0498e-16)
(1.50054 -6.67602e-08 -8.75414e-16)
(1.50057 1.86177e-07 8.51727e-16)
(1.50064 1.77744e-07 -7.20731e-16)
(1.50074 2.57012e-07 5.34602e-16)
(1.50087 9.11577e-07 2.70106e-17)
(1.50105 9.49596e-07 -9.39609e-19)
(1.50127 1.23736e-06 5.53179e-16)
(1.50152 2.65237e-06 -7.45007e-16)
(1.50184 2.03396e-07 1.33833e-15)
(1.50222 1.62652e-06 -1.46123e-15)
(1.50263 2.579e-06 1.8141e-15)
(1.50307 3.05669e-06 -4.133e-16)
(1.50364 1.70358e-06 1.04751e-15)
(1.50427 -1.2643e-06 8.1108e-16)
(1.50492 8.53076e-07 -8.09995e-16)
(1.50564 1.16255e-05 2.78772e-15)
(1.50643 5.75668e-06 -1.44378e-15)
(1.50727 -1.32731e-05 1.55438e-15)
(1.50807 3.14687e-05 1.51661e-15)
(1.50897 1.44989e-05 1.26565e-15)
(1.5098 -4.19254e-05 -3.50443e-15)
(1.51053 3.6251e-05 7.38018e-15)
(1.51124 8.18097e-05 1.07153e-14)
(1.51182 -4.11332e-05 -2.04095e-14)
(1.51233 -2.31581e-05 -6.49071e-14)
(1.51273 5.92233e-05 2.68737e-14)
(1.51285 5.88249e-05 -7.31765e-13)
(1.51282 1.42667e-05 1.94814e-11)
(1.51266 4.13665e-06 -5.61663e-11)
(1.51227 1.04411e-05 1.58648e-10)
(1.51161 -1.97363e-05 -4.48187e-10)
(1.51055 -1.04666e-05 9.62152e-10)
(1.50891 -2.73745e-06 -1.75473e-09)
(1.50717 6.87514e-05 2.97295e-09)
(1.50475 8.72142e-05 -4.92487e-09)
(1.50155 0.000141081 7.69726e-09)
(1.49663 9.13566e-05 -1.36622e-08)
(1.49157 -0.000160974 2.08254e-08)
(1.48663 -0.000365536 -1.11615e-08)
(1.4826 -0.000353395 5.03654e-10)
(1.47224 9.3104e-05 -6.42574e-08)
(1.46119 0.0047047 2.08533e-07)
(1.24362 0.0308383 3.79044e-06)
(0.625096 0.0426132 6.31011e-06)
(0.512043 0.0276147 -1.76366e-05)
(0.50419 0.00647818 2.25629e-06)
(0.503601 -0.0105395 0.000169264)
(0.51904 -0.0191286 -0.000232499)
(0.529901 -0.0272999 -0.000482899)
(0.548616 -0.0287509 0.00074067)
(0.564565 -0.0313478 0.00134657)
(0.582189 -0.0313115 -0.00133498)
(0.598687 -0.0286767 -0.00252554)
(0.614512 -0.0268197 0.000644478)
(0.629828 -0.0257286 0.00341271)
(0.64454 -0.0247889 0.00154654)
(0.658189 -0.0230409 -0.00262175)
(0.671533 -0.0209931 -0.00364899)
(0.684045 -0.020361 -0.000576501)
(0.695562 -0.0189762 0.00310653)
(0.705985 -0.0164061 0.00323381)
(0.715048 -0.0139637 8.64197e-05)
(0.724087 -0.0129877 -0.00320123)
(0.732505 -0.0135108 -0.00319773)
(0.73976 -0.0139536 -0.000221955)
(0.746525 -0.0128194 0.00286844)
(0.752682 -0.011544 0.00291567)
(0.758193 -0.0108995 0.000202875)
(0.764402 -0.0115087 -0.00283245)
(0.770697 -0.0130259 -0.0028573)
(0.775622 -0.0134629 -0.00039284)
(0.779844 -0.0114029 0.00263482)
(0.784577 -0.00816949 0.00295863)
(0.789541 -0.00602829 0.000541353)
(0.79441 -0.00704387 -0.00251552)
(0.799659 -0.0105348 -0.00328213)
(0.805934 -0.0143524 -0.000852291)
(0.812905 -0.0141012 0.00246018)
(0.818181 -0.0114896 0.00313562)
(0.823783 -0.0100209 0.00169924)
(0.829499 -0.0105851 -0.00149395)
(0.83632 -0.0122861 -0.00364674)
(0.844921 -0.0128914 -0.00251201)
(0.854812 -0.0112621 0.00130666)
(0.861664 -0.00829247 0.00296559)
(0.869022 -0.00615293 0.00216023)
(0.87647 -0.00612123 -4.73692e-06)
(0.884739 -0.00797731 -0.00231113)
(0.89318 -0.0129869 -0.0024164)
(0.903292 -0.0172941 -0.000702847)
(0.920651 -0.0182089 0.00122133)
(0.932309 -0.0142178 0.00238605)
(0.944351 -0.00770422 0.00225602)
(0.956397 -0.0042645 0.00132256)
(0.967989 -0.00463428 -0.000117962)
(0.98108 -0.00635832 -0.00273613)
(0.995863 -0.00745203 -0.0038485)
(1.0121 -0.00660409 -0.0022112)
(1.02652 -0.00626005 0.000780731)
(1.0401 -0.00603195 0.00245781)
(1.04874 -0.00563696 0.00302776)
(1.05152 -0.00475011 0.00225794)
(1.04448 -0.00316615 0.000151179)
(1.01401 0.00102884 -0.00201636)
(0.958887 0.0173882 -0.00253621)
(0.851911 0.0515624 -0.00134252)
(0.70958 0.0990886 0.00147671)
(0.568233 0.149816 0.00152479)
(0.458469 0.174407 -0.000814413)
(0.382991 0.170395 -0.000125098)
(0.328282 0.149678 0.000174853)
(0.27917 0.131656 5.35028e-05)
(0.232786 0.11913 -6.27482e-05)
(0.189169 0.117925 -6.53677e-05)
(0.147095 0.119899 4.02166e-05)
(0.107147 0.130959 3.54433e-05)
(0.0626917 0.132116 9.80491e-06)
(0.0331862 0.163385 3.72614e-05)
(1.50054 1.18471e-07 1.07762e-15)
(1.50054 -8.97469e-10 -8.67365e-16)
(1.50057 2.73491e-07 9.71009e-16)
(1.50064 1.99868e-07 -7.93249e-16)
(1.50074 6.58715e-07 5.28645e-16)
(1.50087 1.47285e-06 1.45016e-16)
(1.50105 8.90711e-07 -2.5388e-16)
(1.50127 1.90958e-07 1.24077e-15)
(1.50153 2.71322e-06 -1.00085e-15)
(1.50184 2.3611e-07 1.42302e-15)
(1.50221 1.61058e-06 -1.77001e-15)
(1.50264 3.33423e-06 2.32063e-15)
(1.50309 4.85602e-06 -1.40479e-15)
(1.50362 3.92556e-06 1.32407e-15)
(1.50428 2.50235e-06 9.12294e-16)
(1.50495 -3.97286e-06 -8.99422e-16)
(1.50559 1.16785e-05 3.3502e-15)
(1.50648 1.00006e-05 -2.81752e-15)
(1.50729 -1.57753e-05 2.48174e-15)
(1.50801 2.12247e-05 1.4086e-15)
(1.50906 1.06247e-05 5.13174e-16)
(1.50982 -3.78744e-05 4.32781e-16)
(1.51045 2.49333e-05 -8.81062e-16)
(1.51137 3.86071e-05 1.57636e-14)
(1.51196 -1.3599e-05 -3.89639e-15)
(1.51234 -6.21927e-06 -7.61922e-14)
(1.51277 3.65987e-05 1.71028e-13)
(1.51313 6.34681e-05 -7.87195e-13)
(1.51315 2.99556e-05 5.9831e-12)
(1.51303 1.44363e-05 -3.13747e-11)
(1.51268 -3.43138e-08 5.85926e-11)
(1.51192 -2.1906e-05 -2.04178e-10)
(1.51085 -7.7328e-07 5.50326e-10)
(1.50942 5.663e-05 -9.43794e-10)
(1.50803 0.000120601 1.26808e-09)
(1.50612 0.000148826 -2.32847e-09)
(1.50318 0.000178997 4.18756e-09)
(1.49935 0.00012746 -3.53188e-09)
(1.49401 -0.000134685 4.49078e-09)
(1.48909 -0.000378945 -5.37928e-09)
(1.48444 -0.000400956 5.72131e-09)
(1.47338 0.000437721 -2.62039e-08)
(1.46361 0.00868532 -4.71211e-07)
(1.24333 0.0587413 -3.50435e-06)
(0.623109 0.0710878 -7.5181e-07)
(0.508128 0.0398235 -2.37044e-06)
(0.502932 0.00688984 -7.97953e-05)
(0.501338 -0.0189376 0.000137483)
(0.521113 -0.0313429 0.000267358)
(0.53322 -0.0416193 -0.000536723)
(0.554078 -0.0440947 -0.000902803)
(0.571767 -0.0468966 0.00143418)
(0.59084 -0.0461439 0.00186835)
(0.608102 -0.0427573 -0.00164634)
(0.625211 -0.0392349 -0.00326947)
(0.641749 -0.0370823 -6.6267e-05)
(0.65693 -0.034799 0.00354719)
(0.67107 -0.0322315 0.00274318)
(0.684318 -0.0299692 -0.00130332)
(0.697013 -0.0279019 -0.00383217)
(0.708929 -0.0262316 -0.00243433)
(0.719952 -0.0232803 0.00142368)
(0.729614 -0.019925 0.00330202)
(0.738309 -0.0182649 0.00196293)
(0.746022 -0.0178167 -0.00135887)
(0.753363 -0.0172333 -0.00274068)
(0.759838 -0.0157885 -0.00105435)
(0.766178 -0.0137302 0.00177566)
(0.772523 -0.0131588 0.00208346)
(0.778371 -0.0137922 0.000307826)
(0.784401 -0.014705 -0.00177384)
(0.789723 -0.0149832 -0.00137884)
(0.794263 -0.0138252 0.000644612)
(0.798982 -0.0115069 0.00180619)
(0.803848 -0.0103016 0.000918942)
(0.808242 -0.0111317 -0.000998282)
(0.812497 -0.0137074 -0.00234793)
(0.817691 -0.0160127 -0.00143076)
(0.824427 -0.0164619 0.00106063)
(0.831601 -0.0144082 0.00236451)
(0.83768 -0.0123156 0.00137843)
(0.843875 -0.0121404 -0.000633549)
(0.850047 -0.0140851 -0.00236754)
(0.857335 -0.0160621 -0.00193168)
(0.86527 -0.0160574 0.000656522)
(0.87232 -0.0139047 0.00235347)
(0.879559 -0.0116042 0.00168061)
(0.886905 -0.0108101 -0.000247304)
(0.895517 -0.0106471 -0.00170149)
(0.903406 -0.0129806 -0.00175734)
(0.912837 -0.0173661 -0.000528187)
(0.928301 -0.0204861 0.000591549)
(0.940147 -0.0190479 0.00144285)
(0.951539 -0.0162113 0.00150116)
(0.962548 -0.0102048 0.00111941)
(0.97307 -0.00729804 -2.30334e-05)
(0.985871 -0.00643145 -0.00172289)
(0.998769 -0.00536996 -0.00274517)
(1.01254 -0.00594125 -0.00201786)
(1.02328 -0.00757375 0.000146011)
(1.03441 -0.00756616 0.00189987)
(1.03339 -0.00699891 0.00237891)
(1.02339 -0.0021572 0.00170234)
(0.987343 0.00724402 -0.000110882)
(0.908533 0.0267953 -0.00165332)
(0.784706 0.0575223 -0.00185585)
(0.633641 0.122013 0.000153825)
(0.49144 0.166993 0.00132042)
(0.391488 0.198539 -0.000380272)
(0.331583 0.210903 -0.000247844)
(0.291341 0.200886 0.000267554)
(0.257764 0.179653 3.56972e-05)
(0.223625 0.162248 -7.28667e-06)
(0.188928 0.152598 -0.000108114)
(0.155013 0.152761 -2.96326e-05)
(0.120301 0.156153 5.20953e-05)
(0.0880588 0.169454 1.57922e-05)
(0.0518073 0.172312 -3.89506e-06)
(0.032392 0.20041 8.84814e-06)
(1.50054 1.91967e-07 1.2569e-15)
(1.50053 2.70672e-08 -1.2057e-15)
(1.50057 2.50261e-07 9.967e-16)
(1.50064 3.68436e-07 -8.34379e-16)
(1.50074 9.82192e-07 5.36666e-16)
(1.50087 1.9683e-06 2.77759e-16)
(1.50105 9.47216e-07 -1.51825e-16)
(1.50126 1.79772e-06 1.04224e-15)
(1.50153 2.92447e-06 -1.92748e-15)
(1.50184 2.18882e-06 2.62808e-15)
(1.50219 1.60174e-06 -2.55158e-15)
(1.50264 2.25723e-06 3.89821e-15)
(1.5031 4.01879e-06 -3.18127e-15)
(1.5036 3.23015e-06 2.04191e-15)
(1.5043 3.10311e-06 1.06674e-15)
(1.50496 4.922e-07 -4.09756e-16)
(1.50557 7.71642e-06 4.45206e-15)
(1.50651 5.44343e-06 -6.69149e-15)
(1.5073 2.97432e-06 3.13559e-15)
(1.50799 8.261e-06 3.22209e-16)
(1.50909 6.62259e-06 1.05736e-15)
(1.50983 6.94231e-06 2.71446e-15)
(1.51043 9.79781e-06 -5.6213e-15)
(1.51141 1.32288e-05 1.95622e-14)
(1.51206 2.60239e-05 -2.31504e-15)
(1.51241 7.91094e-06 -2.27241e-14)
(1.51281 -1.07156e-06 1.82816e-13)
(1.51344 3.49384e-05 -1.88026e-12)
(1.51356 3.92173e-05 2.99073e-12)
(1.51351 3.58524e-05 -1.70669e-11)
(1.51319 1.5533e-05 3.13604e-11)
(1.51237 7.91863e-06 -9.20102e-11)
(1.51143 1.43259e-05 2.0906e-10)
(1.5104 4.85351e-05 -4.67574e-10)
(1.50926 9.44212e-05 5.10366e-10)
(1.50807 0.000162099 -8.4052e-10)
(1.50582 0.000157106 1.348e-09)
(1.50284 0.000112809 -1.4981e-09)
(1.4977 -0.000241849 2.08386e-09)
(1.4927 -0.000347456 -5.72746e-09)
(1.4875 -0.000422334 1.18548e-08)
(1.47736 0.000967792 -4.44945e-08)
(1.46955 0.012454 -9.48887e-07)
(1.26892 0.0929547 -7.57171e-06)
(0.631056 0.100724 -8.52776e-06)
(0.511747 0.0536708 1.25672e-05)
(0.505132 0.00502568 -4.3473e-05)
(0.505476 -0.0283972 -0.00010731)
(0.527939 -0.0466667 0.000260502)
(0.542214 -0.0580894 0.000415096)
(0.564997 -0.0618757 -0.000620161)
(0.584768 -0.0640701 -0.00119103)
(0.604635 -0.0626525 0.000876577)
(0.623226 -0.0579792 0.0021649)
(0.64118 -0.0539022 2.04657e-05)
(0.658494 -0.0506118 -0.00264698)
(0.675123 -0.0470798 -0.0021)
(0.690267 -0.0430756 0.00103198)
(0.704166 -0.039392 0.00295368)
(0.717005 -0.0369998 0.00167851)
(0.729051 -0.0351186 -0.00141292)
(0.740248 -0.0320061 -0.0028877)
(0.750859 -0.0282354 -0.00141397)
(0.759293 -0.0250937 0.000916111)
(0.766898 -0.0232777 0.00166736)
(0.77329 -0.0224785 0.000915615)
(0.779519 -0.0220903 4.24785e-05)
(0.78624 -0.020753 -0.000227039)
(0.79272 -0.0185697 -0.00041666)
(0.798322 -0.0173953 -0.000968595)
(0.80325 -0.0179573 -0.00121569)
(0.80762 -0.0195977 -0.000207081)
(0.812411 -0.0204739 0.00138416)
(0.8182 -0.0196026 0.00188337)
(0.823357 -0.0180701 0.000692854)
(0.827984 -0.0174805 -0.00111043)
(0.831919 -0.0180959 -0.00200045)
(0.836166 -0.0187916 -0.00148991)
(0.841602 -0.0193644 0.000360636)
(0.848557 -0.0199493 0.00198869)
(0.856003 -0.0196421 0.00170605)
(0.862113 -0.0198236 6.01417e-05)
(0.868601 -0.021219 -0.00133327)
(0.874905 -0.0223872 -0.00142446)
(0.881603 -0.0228229 -0.000283298)
(0.888133 -0.0219904 0.00110032)
(0.895014 -0.0196047 0.00132007)
(0.902355 -0.017262 0.000338824)
(0.911049 -0.0153504 -0.000485971)
(0.919193 -0.014074 -0.000894216)
(0.926999 -0.0168369 -0.000827335)
(0.939346 -0.0214022 -0.000239165)
(0.949265 -0.0213528 0.000262382)
(0.958946 -0.0203599 0.000702728)
(0.969987 -0.0169379 0.00112751)
(0.979856 -0.0114209 0.000510496)
(0.991726 -0.00780225 -0.000670115)
(1.00219 -0.00504988 -0.0013661)
(1.01064 -0.00594404 -0.00158246)
(1.01633 -0.00708432 -0.000125122)
(1.01623 -0.00608826 0.00100298)
(0.997058 -0.00213586 0.00159026)
(0.954863 0.0115842 0.00102354)
(0.862548 0.0395731 -0.000314269)
(0.721162 0.0839216 -0.0014733)
(0.569168 0.151915 -0.000494911)
(0.434778 0.198151 0.000881512)
(0.344059 0.225931 -5.7315e-05)
(0.289464 0.238214 -0.000200732)
(0.253521 0.233174 0.000241154)
(0.229234 0.216001 7.84712e-05)
(0.206201 0.19833 -4.89781e-05)
(0.181613 0.186535 -6.72819e-05)
(0.154866 0.178258 -0.000100557)
(0.128224 0.181074 1.93587e-05)
(0.0998627 0.186546 4.60097e-05)
(0.0752552 0.20116 -3.11179e-06)
(0.045939 0.205211 -1.47532e-05)
(0.0328901 0.229244 -6.2139e-06)
(1.50054 2.3509e-07 1.51478e-15)
(1.50053 8.46183e-08 -1.26675e-15)
(1.50057 2.96489e-07 1.09456e-15)
(1.50064 5.53296e-07 -8.39434e-16)
(1.50073 1.17325e-06 5.85014e-16)
(1.50087 1.8539e-06 4.62462e-16)
(1.50105 1.25945e-06 -2.27494e-16)
(1.50126 2.14249e-06 1.42235e-15)
(1.50153 2.33911e-06 -2.88403e-15)
(1.50184 3.76424e-06 4.11294e-15)
(1.50218 2.32458e-06 -3.55034e-15)
(1.50264 3.62838e-06 5.55316e-15)
(1.50311 5.68413e-06 -4.84816e-15)
(1.50359 3.20898e-06 2.46788e-15)
(1.5043 3.6233e-06 -5.52076e-16)
(1.50496 9.52571e-06 4.69157e-16)
(1.50557 9.78162e-07 6.99012e-15)
(1.5065 8.8033e-06 -8.2898e-15)
(1.5073 2.40164e-05 4.92036e-15)
(1.50802 -2.84891e-06 -3.93465e-15)
(1.50906 9.17654e-06 2.32648e-15)
(1.50985 4.56911e-05 2.65166e-15)
(1.5105 -6.83894e-06 -6.21364e-15)
(1.51143 -9.18416e-06 2.15858e-14)
(1.51214 7.2168e-05 -1.42477e-14)
(1.51261 4.4614e-05 3.29776e-14)
(1.51302 -4.84186e-05 6.77161e-14)
(1.51363 -2.24228e-05 -7.8579e-13)
(1.51396 5.20471e-05 1.55737e-12)
(1.51404 0.000102345 -5.99545e-12)
(1.51385 9.30583e-05 9.98056e-12)
(1.51317 6.18226e-05 -3.26671e-11)
(1.51254 1.97597e-05 8.67179e-11)
(1.51177 -5.00164e-05 -1.24169e-10)
(1.51085 -6.67926e-05 1.72103e-10)
(1.51011 4.38818e-05 -1.84331e-10)
(1.50899 0.000114039 -1.38439e-10)
(1.50693 0.000121666 1.36371e-09)
(1.50262 3.50975e-05 -1.22273e-09)
(1.49732 -2.57404e-05 -1.75332e-09)
(1.49243 2.42514e-05 1.07156e-08)
(1.48504 0.00150667 -8.84538e-08)
(1.48029 0.0148606 -1.17558e-06)
(1.32537 0.120026 -1.15568e-05)
(0.655047 0.130447 -1.3505e-05)
(0.522454 0.0675152 -3.99129e-06)
(0.511595 0.00326941 7.88253e-05)
(0.517262 -0.0387616 -0.000119192)
(0.538905 -0.0645568 -0.000376864)
(0.555301 -0.0777819 0.000174544)
(0.57976 -0.0838182 0.00124415)
(0.603561 -0.0841392 0.000194945)
(0.625342 -0.0798052 -0.00246419)
(0.646303 -0.0736759 -0.00165806)
(0.665637 -0.0686856 0.00243925)
(0.684294 -0.0641587 0.00366581)
(0.701702 -0.059999 -0.000278657)
(0.716868 -0.0551488 -0.00429105)
(0.731078 -0.0495293 -0.00373858)
(0.74447 -0.0448171 0.00103708)
(0.756991 -0.0415337 0.00483039)
(0.76828 -0.0391109 0.00394211)
(0.777955 -0.0366523 -0.00126834)
(0.786356 -0.0329086 -0.00503356)
(0.793833 -0.0285785 -0.00434753)
(0.800093 -0.0250326 0.000324681)
(0.806844 -0.0239511 0.00448179)
(0.812815 -0.0253813 0.00416498)
(0.818568 -0.0259835 0.000304459)
(0.82358 -0.0225732 -0.00273328)
(0.828004 -0.018934 -0.00303835)
(0.832129 -0.0178143 -0.00175157)
(0.836212 -0.0202123 0.00106772)
(0.842155 -0.0239722 0.0027452)
(0.848442 -0.0252336 0.00178951)
(0.853195 -0.0244822 -0.000495498)
(0.857287 -0.0235138 -0.00184964)
(0.861205 -0.022862 -0.00164277)
(0.865997 -0.0212044 3.47838e-05)
(0.872405 -0.0197536 0.00156349)
(0.880451 -0.0211394 0.00121557)
(0.886476 -0.0230803 -5.30446e-05)
(0.891623 -0.0251098 -0.000733255)
(0.896947 -0.0266913 -0.000656191)
(0.902783 -0.0270009 -0.000367687)
(0.908696 -0.0265629 2.70285e-05)
(0.915286 -0.0259508 0.000410306)
(0.921224 -0.024964 0.00077737)
(0.929217 -0.0225358 0.000585481)
(0.936172 -0.0189624 -8.61673e-05)
(0.943214 -0.0187686 -0.000726638)
(0.951529 -0.0208294 -0.000725458)
(0.959527 -0.0209909 -0.000418894)
(0.968654 -0.0198174 0.00021041)
(0.97838 -0.0161937 0.000910726)
(0.986862 -0.0130345 0.000723254)
(0.9954 -0.00970254 -3.24905e-05)
(1.00342 -0.00439166 -0.00059626)
(1.00107 -0.00459858 -0.000926209)
(0.99268 -0.00291543 -0.000332561)
(0.973683 0.00490781 0.000421562)
(0.915051 0.021578 0.000866181)
(0.810438 0.0527999 0.000445907)
(0.666195 0.116865 -0.000703734)
(0.514893 0.183536 -0.000620759)
(0.391288 0.226862 0.000497343)
(0.314259 0.254701 7.34204e-05)
(0.26372 0.265555 -0.00011974)
(0.230227 0.262031 0.00016018)
(0.207379 0.247852 9.77602e-05)
(0.190158 0.229587 -7.01162e-05)
(0.17177 0.214378 -9.00633e-05)
(0.151641 0.203403 -8.91281e-05)
(0.129242 0.199696 -4.88809e-05)
(0.107871 0.204577 5.06851e-05)
(0.0844636 0.210756 2.58085e-05)
(0.0667011 0.225675 -1.90031e-05)
(0.0427521 0.231606 -2.04758e-05)
(0.0343344 0.251908 -1.19709e-05)
(1.50053 2.85343e-07 1.68207e-15)
(1.50053 1.21007e-07 -1.48724e-15)
(1.50057 3.82714e-07 1.2918e-15)
(1.50064 6.58006e-07 -8.47228e-16)
(1.50073 1.32718e-06 5.83345e-16)
(1.50087 1.71718e-06 7.33383e-16)
(1.50104 1.72636e-06 -4.90097e-16)
(1.50126 2.57778e-06 1.88559e-15)
(1.50153 3.14797e-06 -4.20684e-15)
(1.50184 4.7767e-06 6.02942e-15)
(1.50218 2.89622e-06 -4.41247e-15)
(1.50263 5.1553e-06 8.95968e-15)
(1.50312 7.8305e-06 -7.24522e-15)
(1.5036 4.67504e-07 3.34804e-15)
(1.50429 1.99805e-06 -3.62959e-15)
(1.50495 1.68271e-05 -1.09855e-15)
(1.50559 3.53602e-06 9.05447e-15)
(1.50645 2.31541e-06 -8.29202e-15)
(1.5073 2.72053e-05 1.05231e-14)
(1.50807 -8.98002e-06 -6.63178e-15)
(1.509 6.57331e-06 5.15519e-15)
(1.5099 7.11143e-05 -2.41937e-15)
(1.51068 -2.01863e-05 -5.60611e-15)
(1.51146 -1.90744e-05 1.60204e-14)
(1.51218 9.33971e-05 -3.63959e-14)
(1.513 9.27218e-05 8.64271e-14)
(1.51343 -4.90202e-05 -6.3668e-14)
(1.51386 -6.54457e-05 -3.6778e-14)
(1.51425 4.9287e-05 2.56195e-13)
(1.5147 0.000113072 1.14982e-14)
(1.51479 0.000138748 1.5703e-12)
(1.51448 8.67715e-05 1.01122e-12)
(1.51411 2.46686e-06 -1.48438e-11)
(1.51362 -3.1613e-05 5.11991e-11)
(1.513 -8.51835e-05 -1.5274e-10)
(1.51239 -0.000207612 4.67351e-10)
(1.51188 1.11093e-05 -9.90897e-10)
(1.51097 0.000246507 3.23717e-09)
(1.5086 0.000644419 -3.26862e-09)
(1.50398 0.00053802 4.78517e-09)
(1.50062 0.000417303 -1.75307e-09)
(1.49613 0.00155632 -1.28789e-07)
(1.49264 0.0151395 -1.41435e-06)
(1.40353 0.11659 -1.23408e-05)
(0.685559 0.161005 -1.87704e-05)
(0.535806 0.0806255 -1.87156e-05)
(0.520314 2.03889e-05 6.34419e-05)
(0.538623 -0.0505885 5.14296e-05)
(0.556049 -0.0830528 -0.000137424)
(0.580056 -0.0967419 -0.000451144)
(0.603356 -0.10774 -0.000294604)
(0.628925 -0.10811 0.00123651)
(0.652359 -0.101838 0.00198279)
(0.675593 -0.094735 -0.00133918)
(0.697058 -0.0873555 -0.00404915)
(0.716374 -0.0812183 -0.000248874)
(0.733726 -0.0742402 0.00460832)
(0.74964 -0.0678202 0.00334709)
(0.764109 -0.0623376 -0.00273426)
(0.777042 -0.0557052 -0.00549295)
(0.788982 -0.0497231 -0.00240157)
(0.800095 -0.0446912 0.00394923)
(0.810614 -0.0403201 0.00563267)
(0.819467 -0.037236 0.00150929)
(0.827076 -0.0353392 -0.00423318)
(0.833281 -0.0333477 -0.00473011)
(0.839959 -0.0299504 -0.00169295)
(0.84657 -0.0269005 0.0030546)
(0.851629 -0.0283171 0.00393845)
(0.856838 -0.030355 0.00163307)
(0.862023 -0.0277193 -0.0013326)
(0.865463 -0.024846 -0.00250086)
(0.869133 -0.0243841 -0.0023527)
(0.873767 -0.0263959 -0.000502715)
(0.879272 -0.0293187 0.00210495)
(0.886183 -0.030007 0.00214518)
(0.89065 -0.0291102 5.92874e-05)
(0.894192 -0.0284135 -0.00165118)
(0.897789 -0.0281821 -0.00157934)
(0.902656 -0.0282178 0.000371444)
(0.90908 -0.027914 0.00171906)
(0.915746 -0.0283853 0.000831037)
(0.920716 -0.029524 -0.000364282)
(0.924268 -0.0300099 -0.000637628)
(0.928183 -0.0298875 -0.000651577)
(0.932799 -0.0292878 -0.000315639)
(0.938961 -0.0283558 0.00018703)
(0.943359 -0.0263651 0.000573732)
(0.949624 -0.0240867 0.000594017)
(0.95405 -0.020971 -4.96823e-05)
(0.959311 -0.0209932 -0.000624483)
(0.965145 -0.0220456 -0.000867524)
(0.972161 -0.0213389 -0.000621412)
(0.979091 -0.0201085 -3.89223e-06)
(0.987224 -0.0161202 0.000880227)
(0.991221 -0.01381 0.000760357)
(0.989788 -0.0122096 0.000233868)
(0.9943 -0.0029634 -0.000389688)
(0.970443 0.00222831 -0.000715445)
(0.933894 0.0131256 -0.000333129)
(0.87157 0.0369458 0.000243464)
(0.752811 0.0757594 0.000492178)
(0.611294 0.150624 -0.000158734)
(0.47077 0.216157 -0.000456591)
(0.36356 0.260008 0.000228993)
(0.296395 0.286148 9.85039e-05)
(0.251264 0.29708 -0.000112948)
(0.21962 0.293976 0.000149238)
(0.196775 0.278195 5.09989e-05)
(0.180244 0.258051 -4.08428e-05)
(0.165276 0.240257 -0.000120287)
(0.148768 0.22784 -8.94758e-05)
(0.130862 0.220271 -6.15843e-05)
(0.111376 0.21843 6.20589e-06)
(0.0938515 0.224504 5.5278e-05)
(0.0745302 0.231014 -3.89023e-06)
(0.0611669 0.245413 -3.0205e-05)
(0.041515 0.252896 -2.15704e-05)
(0.0363172 0.269905 -1.23128e-05)
(1.50053 4.24847e-07 1.69216e-15)
(1.50053 7.44436e-08 -1.52902e-15)
(1.50057 4.60172e-07 1.34964e-15)
(1.50063 7.15787e-07 -7.9086e-16)
(1.50073 1.57972e-06 4.18787e-16)
(1.50087 1.65441e-06 1.1663e-15)
(1.50104 2.34965e-06 -9.7053e-16)
(1.50126 2.99806e-06 2.41834e-15)
(1.50153 3.10055e-06 -5.39319e-15)
(1.50184 4.67104e-06 6.62769e-15)
(1.50218 3.54777e-06 -7.1523e-15)
(1.50262 5.90623e-06 1.30103e-14)
(1.50312 8.35134e-06 -9.30133e-15)
(1.50361 5.98958e-06 9.21956e-15)
(1.50424 1.93045e-06 -7.05983e-15)
(1.50494 1.62522e-05 3.55897e-15)
(1.50562 5.60743e-06 2.6072e-15)
(1.5064 6.47318e-06 -9.607e-15)
(1.50729 2.30434e-05 1.85703e-14)
(1.50814 2.81027e-06 -7.30866e-15)
(1.50897 2.00237e-05 1.88054e-14)
(1.50997 3.87276e-05 -1.63575e-14)
(1.51087 2.87666e-06 2.11991e-14)
(1.51154 2.16811e-06 -2.79398e-14)
(1.51218 6.00811e-05 1.88751e-14)
(1.51343 7.74728e-05 -1.27783e-13)
(1.51398 -6.38928e-06 6.39402e-14)
(1.51429 -7.9567e-05 5.40541e-15)