/*--------------------------------*- C++ -*----------------------------------*\
| =========                 |                                                 |
| \\      /  F ield         | OpenFOAM: The Open Source CFD Toolbox           |
|  \\    /   O peration     | Version:  2.2.x                                 |
|   \\  /    A nd           | Web:      www.OpenFOAM.org                      |
|    \\/     M anipulation  |                                                 |
\*---------------------------------------------------------------------------*/
FoamFile
{
    version     2.0;
    format      ascii;
    class       volScalarField;
    location    "1.8";
    object      divBf;
}
// * * * * * * * * * * * * * * * * * * * * * * * * * * * * * * * * * * * * * //

dimensions      [1 -3 -2 0 0 -1 0];

internalField   nonuniform List<scalar> 
14161
(
1245.8
241.689
358.592
295.894
273.224
239.688
209.67
181.057
153.975
126.819
97.8164
76.5316
48.6679
17.0207
-3.66935
-34.0728
-67.3755
-85.2811
-121.98
-157.855
-181.109
-218.784
-256.355
-287.217
-327.806
-370.645
-410.981
-449.999
-483.984
-546.355
-587.542
-658.434
-711.069
-763.435
-862.359
-831.648
-932.748
-874.914
-888.569
-735.467
-477.173
-254.01
165.647
911.673
826.054
-24646.6
-30795.5
-30086.6
-32355.9
-32090.7
-33618.9
-32990.4
-33403.4
-33208.9
-33997
-33260.7
-32408.4
-31460.1
-30353.4
-28851.3
-27292.3
-25351.2
-23315.8
-21403.3
-19644.9
-17714.7
-16049.6
-14355.8
-12575.5
-10986
-9146.59
-7714.21
-5901.54
-4429.55
-2712.28
-1372.05
615.942
2326.42
3708.13
4727.49
6259.7
7909.87
8792.18
9929.42
11215.3
11887.5
12867.2
13532.6
14095.8
13962.4
14274.1
14535.7
14196.6
13103.3
13409.8
10919
11114.4
9901.25
8579.79
7244.99
5261.41
3057.02
-366.226
-3256.82
-3671.89
-10172.8
-8260.12
-25664.2
-22290.4
-20924.6
-16789.8
-17329.4
-11300.5
-12926.5
-3914.06
-8372.88
8031.12
-9967.65
31090.3
996.454
-4.58671
112.021
48.7637
24.0661
-11.3004
-42.9558
-75.3562
-108.085
-140.047
-173.021
-202.721
-236.977
-274.467
-305.82
-343.711
-386.492
-416.299
-464.325
-511.622
-544.47
-598.157
-647.798
-694.298
-749.219
-808.002
-866.343
-923.077
-974.203
-1053.42
-1114.53
-1208.89
-1271.17
-1379.53
-1405.19
-1538.81
-1552.9
-1606.15
-1549.56
-1535.3
-1306.78
-1029.49
-653.905
138.925
397.105
-21141.7
-28653.2
-26936.2
-27908.4
-28781.4
-30070.3
-29314.7
-29558.9
-28741.8
-28339.6
-26897.1
-26041.7
-24709.1
-23909.2
-23345.7
-21703
-20813.3
-19792.8
-17946.4
-16225.3
-14666.6
-12690
-11551.4
-10181.2
-8554.32
-7136.88
-5258.78
-3786.25
-2100.41
-512.82
908.339
2553.56
4041.36
5588.8
6852.38
8288.46
9260.95
10940
11566.8
12821.8
13552.2
14132.2
14873.5
15339.6
15630.6
15898.3
15700.6
15629.7
14747.9
14349.8
13268
12940.8
12595
10223
9471.17
5789.4
5910.46
970.092
-500.583
-7057.4
-21562
-35190
-31157.8
-25076.8
-23056.8
-18400.3
-18514.9
-13130.3
-15271.3
-6820.71
-11379.1
4072.11
-10013.1
21871.7
748.309
-243.804
-127.477
-189.344
-213.888
-250.11
-283.158
-317.735
-352.41
-388.09
-425.512
-460.343
-499.258
-541.255
-579.809
-622.987
-672.65
-714.022
-767.685
-820.705
-869.283
-930.052
-990.407
-1050.17
-1116.55
-1188.71
-1259.54
-1329.85
-1394.66
-1485.81
-1569.59
-1673.06
-1743.34
-1867.02
-1913.16
-2073.36
-2047.36
-2201.58
-2147.1
-2205.97
-2010.26
-1702.08
-1346.36
-707.428
-557.037
-19355.3
-34112.2
-24719.3
-23668.5
-25080.5
-27410.6
-27972.6
-29244.1
-29078.9
-29206.9
-30020.6
-28882.6
-28690.3
-26617.3
-25252
-23108.1
-20593.5
-18037.9
-16782.8
-15208.5
-13322.1
-11985.3
-9994.8
-8076.92
-6485.76
-4921.12
-3293.44
-1951.57
-557.16
895.916
2359.85
3758.2
5106.21
6815.92
7879.91
9033.32
10202.6
11751.1
12327
13627.2
14486.5
14988.2
15713.3
15990
16460.9
16408
16171.5
16297.1
15754.5
14318.9
14200.6
12786.5
12071.3
9513.48
9412.99
6288.84
4753.93
520.758
-4780.16
-11117.9
-13156.9
-14440.2
-16836.5
-15256.8
-14501.2
-11872
-13045.6
-8123.92
-10136.6
-1692.86
-7193.45
5108.73
-7189.64
19880
506.32
-475.645
-357.685
-417.292
-440.407
-476.14
-509.377
-544.624
-580.554
-618.066
-657.331
-696.687
-738.698
-783.992
-829.319
-874.749
-930.347
-981.006
-1037.8
-1096.1
-1159.66
-1222.5
-1289.88
-1361.96
-1436.23
-1518.7
-1601.8
-1684.25
-1757.01
-1859.99
-1945.54
-2051.05
-2158.3
-2256.83
-2373.65
-2456.3
-2552.24
-2664.29
-2672.02
-2706.91
-2470.73
-2331.96
-2128.66
-1680.1
-1122.27
-17167.9
-22580.9
-22699.1
-25898.6
-25638
-28330.7
-28215.5
-29291
-28841.8
-28217.8
-27713.7
-25810.4
-25199
-23155.3
-22264
-19394.5
-17431.5
-15499.2
-14173.8
-12687.4
-11140.2
-9666.69
-7786.2
-6139.68
-4416.68
-2828.57
-1300.82
175.229
1622.45
2907.4
4291.31
5342.79
6917.14
8226.34
9452.43
10480.7
11679.8
12870.7
13462.7
14742.6
15480.4
15953.7
16593.8
16854.7
17500.2
17523
17142.9
17011
16884
14914.8
15346.4
13989.9
13329.3
10663.1
11094.9
7902.31
5873.58
4681.16
-1377.76
-14132.9
-10718.6
-9731.86
-12691.8
-10977.3
-11292.1
-9181.98
-10105.3
-6236.59
-8236.95
-1283.26
-5748.72
4268.1
-5248.82
18064.3
269.659
-698.306
-578.253
-634.021
-654.92
-689.006
-720.919
-756.183
-792.495
-830.69
-870.724
-912.444
-956.339
-1003.71
-1054.59
-1103.41
-1159.54
-1217.61
-1278.78
-1341.78
-1411.8
-1480.6
-1554.3
-1633.25
-1715.61
-1803.7
-1897.15
-1989.92
-2069.43
-2175.02
-2271.09
-2385.22
-2496.8
-2598.7
-2733.29
-2782.43
-2942.17
-3002.7
-3097.35
-3112.82
-3158.93
-3141.57
-2921.24
-3146.15
-1888.83
-18177
-13335.9
-25406.1
-22586.2
-28699.6
-29372.5
-29686.5
-29471.2
-28713.3
-27664.2
-26938.5
-24474.9
-24235.5
-21316.8
-20975.2
-17812.6
-16486
-14757.2
-12232
-9642.9
-8686.61
-6801.69
-5290.24
-3715.96
-2087.52
-292.991
675.116
2206.1
3143.05
4366.99
5000.92
7095.26
8299.82
9419.76
10702.3
11262.9
12629.2
13912.1
14557.3
15778.6
16727.2
17110.6
17548.4
18051.7
18516.7
18650.3
17948.2
18400.2
17769.8
15748
15793.3
15240.9
14412.7
12772
12185.4
9483
11287.2
11372.6
1617
-1958.69
-3451.3
-6321.4
-8616.21
-6981.35
-7799.64
-6435.08
-7727.64
-4690.22
-6792.26
-288.83
-4988.05
3668.02
-4152.41
17206.8
40.5688
-910.56
-787.624
-838.982
-856.967
-888.066
-917.87
-952.319
-988.602
-1025.79
-1065.7
-1109.8
-1153.85
-1202.63
-1256.52
-1307.73
-1364.86
-1428.43
-1494.61
-1556.01
-1634.09
-1710.49
-1785.94
-1871.37
-1958.94
-2050.77
-2149.26
-2251.29
-2342.37
-2448.36
-2553.11
-2665.61
-2778.79
-2896.72
-3001.07
-3110.24
-3229.63
-3289.1
-3459.52
-3408.5
-3526.47
-3503.42
-3214.84
-3286.45
-1968.58
-13886.9
626.264
-17186.8
-29781.3
-33632.8
-37608.4
-34877.8
-32940.5
-31198.7
-29586.5
-28186.7
-26094.2
-24166.1
-22262.4
-19868.8
-16655.4
-13902.8
-11911
-9672.43
-8157.26
-7354.45
-5332.24
-3634.3
-1753.84
-440.062
964.144
2573.86
4021.16
5118.96
6470.91
6886.64
8466.68
9884.01
10721.7
12665.3
12767
13691.9
15153.7
15654.8
16705.1
17204.9
18493.1
18437.2
18786.4
19552.6
19224.3
18622.7
18349.7
18934.4
16527.6
16023.8
15847.5
14781.1
15768.2
10728.9
17540.1
21253.8
8643.5
3935.12
-973.774
-2472.12
-4735.09
-5265.7
-5021.22
-6086.72
-5024.38
-6067.18
-3895.58
-5978.4
-876.122
-4858.3
2772.94
-3947.8
17172.1
-179.42
-1111.76
-985.677
-1031.38
-1045.07
-1073.39
-1100.93
-1133.53
-1167.54
-1204.38
-1244.4
-1288.33
-1332.18
-1382.24
-1437.35
-1492.55
-1548.55
-1615.32
-1685.81
-1748.11
-1830.03
-1910.34
-1989.75
-2080.26
-2171.14
-2266.71
-2368.33
-2476.46
-2576.99
-2677.17
-2791.96
-2903.42
-3015.06
-3138.11
-3223.5
-3357.36
-3440.4
-3554.72
-3620.49
-3736.68
-3957.56
-4255.27
-4342.35
-4550.75
-4000.86
-13685.1
2025.23
-15227.9
-31256.3
-39365.2
-39325.1
-35871.4
-31646.4
-30151.3
-27993.3
-27725.4
-23725.6
-22264.8
-18292.3
-16755.2
-14284.3
-12402.2
-7685.6
-7498.8
-7297.7
-4284.54
-2767.1
-1305.45
-376.893
968.019
1771.12
3532.89
5327.34
6242.67
7677.18
9440.92
10061.2
11335
12269.2
13777.1
14713.1
14945.6
16174.4
17022
17605.3
18279.5
19434.8
19522.7
19815.6
19998.1
20791.1
19166.2
20068.4
18937.7
17892.9
18115.2
17502.1
16464.7
16517.9
17726.4
31642.4
25570.3
13922.3
8300.52
3169.84
504.674
-784.006
-1963.33
-2522.89
-3803.77
-3183.31
-4377.74
-3097.27
-5136.17
-1092.51
-4563.01
2525.72
-4006.9
17462.4
-389.647
-1300.98
-1170.79
-1210.66
-1219.95
-1244.15
-1269.71
-1298.53
-1331.96
-1366.51
-1405.47
-1449.85
-1493.41
-1542.54
-1597.78
-1656.92
-1710.23
-1780.23
-1854.82
-1916.91
-2001.91
-2084.98
-2167.82
-2260.85
-2355.33
-2456.06
-2557.63
-2665.96
-2775.54
-2881.41
-2990.03
-3100.8
-3216.4
-3326.91
-3426
-3533.67
-3606.63
-3713.34
-3771.15
-3873.94
-3884.48
-3708.14
-3675.98
-3131.74
-1568.73
-13481.2
17054.6
-18989.3
-44263.4
-50274.1
-47142.8
-41886.5
-35076.8
-31573.7
-27728.3
-27991.7
-22609.8
-19842.4
-16119.6
-12505.2
-9762.7
-12864.9
-6885.42
-2433.38
-3925.02
-2539.63
-1488.17
272.808
945.429
2359.85
3280.89
4915.18
6400.93
8392.25
9428.54
10551.3
11475.2
12908.6
13721.3
15320
16139.9
16595.3
17686.6
18241.9
19220
19814
20309.8
20969.3
20960.7
21378.2
20587.5
20528.8
20644.5
20390.8
20423.9
19111.5
18360.7
17837.6
21366.1
35615.5
40054.5
19856.5
11195.6
5275.4
796.144
-912.455
-2239.34
-3173.9
-3477.57
-4347.01
-3968.61
-4747.99
-3865.18
-5080.07
-1735.28
-4567.94
2518.56
-3815.38
17133.8
-588.355
-1477.29
-1342.58
-1376.43
-1381.87
-1401.98
-1422.58
-1448.97
-1480.54
-1512.72
-1551.06
-1594.58
-1637.82
-1686.12
-1740.92
-1801.32
-1855.99
-1926.58
-2001.49
-2067.25
-2151.32
-2237.21
-2322
-2417.27
-2515.84
-2616.08
-2723.36
-2830.75
-2942.97
-3053.04
-3163.12
-3270.61
-3382.34
-3486.12
-3570.72
-3656.12
-3726.8
-3779.19
-3806.49
-3760.65
-3747.16
-3632.67
-3568.01
-3360.97
-2905.67
-10740.3
-1999.59
-39492.3
-60480.3
-56946.4
-47965.1
-39472.9
-31204
-32273.2
-22964
-21932.6
-16133
-15819.3
-9561.15
-8551.9
-5724.64
-5401.93
-4642.97
-2442.02
-826.564
-267.648
238.126
1447.62
2785
3475.29
4370.53
5661.48
7457.82
9241.66
10802.7
11838
12734.9
14420.5
15250.7
16618.4
17620.3
18545.5
18826.9
20393.8
20274.2
21421.9
21378.7
21635.6
22014.4
21647.4
22557.3
22380.9
22433.4
20902.8
20645.3
20060.2
21133.8
24108.2
41084.6
45629
28245
19478.9
14466.8
7945.89
5186.96
5040.88
2099.97
646.19
-674.147
-1927.89
-2083
-3156.07
-2506.46
-3683.27
-1671.34
-3961.8
2577.39
-4147.04
16377.7
-774.84
-1639.73
-1501.27
-1528.44
-1528.6
-1544.63
-1562.35
-1585.56
-1613.82
-1644
-1681.12
-1723.32
-1766.54
-1812.78
-1867.85
-1927.56
-1984.31
-2054.12
-2128.61
-2198.37
-2281.92
-2367.07
-2456.25
-2552.63
-2653.51
-2753.62
-2865.68
-2973.41
-3084.48
-3195.58
-3303.43
-3416.55
-3517.74
-3619.93
-3703.23
-3774.01
-3835.08
-3894.21
-3912.46
-3897.21
-3838.56
-3694.17
-3567.7
-3260.03
-2880.26
-4343.62
-26520.7
-88541.8
-57876.8
-40302.3
-35476.4
-31376
-26957.7
-23656.6
-16517.6
-13592.1
-10844.2
-7509.54
-6695.4
-1555.18
-2187.96
287.569
-2052.59
-1825.07
844.824
2190.9
2150.05
3067.64
4194.32
5021.22
5724.93
7090.65
8443.34
9887.39
11490.4
13397.6
14501.2
15632.5
16521.6
17313.1
18352.8
19366
20012.4
21000
21627.7
22440.3
23157.4
23844.5
23372.3
23622.4
22706.6
22536.9
22617.2
22266.7
23000.8
24510.8
29654
43572
53392.3
34921.8
19636.4
10957.8
7755.18
2152.81
1083.59
826.832
-890.316
-1011.38
-1536.37
-2253.24
-2492.39
-3325.86
-2964.69
-3662.86
-2434.91
-3595.65
2370.25
-4763.41
14805.4
-948.163
-1787.87
-1645.84
-1666.5
-1661.36
-1673.2
-1687.19
-1707.46
-1733
-1762.31
-1795.44
-1836.39
-1879.04
-1924.65
-1978.65
-2036.87
-2097.2
-2164.25
-2236.44
-2315.28
-2393.74
-2478.23
-2571.37
-2667.81
-2768.19
-2875.75
-2979.55
-3096.75
-3206.85
-3315.75
-3424.53
-3530.84
-3641.3
-3733.12
-3809.3
-3856.93
-3890.53
-3896.06
-3844.94
-3693.22
-3386.43
-3226.01
-2513.5
-2836.79
-2199.6
-6508.94
-147332
-147845
-38493.9
-15017.2
-5122.04
-7228.82
-10491.7
-7549.46
-5920.29
-3746.15
-6271.91
1807.44
-5228.43
826.875
1156.13
1935.61
317.07
2422.91
3252.43
4384.49
4640.82
5575.34
5957.51
7277.83
7781.53
9430.9
9842.77
11477.5
12607.5
14225.2
15584.8
16339.9
17778.6
18441.8
19730.6
20755.3
21200.9
22635.5
23026
23624.8
23498.5
23408.2
23616.3
23187.3
25902.6
25357.9
26436.6
28443.8
30626.7
38409.6
50589.5
59772.9
36469.8
20668.8
14374.7
8235.65
7840.91
1951.49
5523.26
1978.59
2104.96
695.464
-371.607
-1401.96
-1801.9
-2610.66
-2248.96
-2816.38
-2269.54
-2507.07
2035
-4922.98
13145.1
-1107.45
-1921.43
-1775.28
-1789.91
-1780.91
-1787.58
-1798.09
-1815.62
-1837.71
-1866.4
-1896.18
-1934.88
-1978.32
-2021.76
-2074.47
-2131.58
-2195.14
-2257.46
-2330.91
-2413.41
-2489.19
-2573.56
-2669.58
-2764.76
-2867.67
-2973.44
-3078.92
-3194.25
-3310.73
-3418.45
-3528.58
-3633.49
-3736.8
-3829.22
-3916.58
-3972.47
-4016.93
-4051.25
-4051.97
-3969.92
-3889.53
-3633.03
-3214.49
-3893.86
-2802.05
-17135.1
-186398
-82999.2
-41206.6
-14283.3
-8331.18
-4177.58
-6737.44
-4495.36
-3530.73
-2958.9
-1860.25
-823.575
-2339.95
-26.4986
1818.44
3761.21
1398.87
2815.18
3225.66
4328.35
4743.24
5598.08
6009.34
7524.71
8668.2
10047.3
10809.1
12569.3
13903.2
15505.6
16474.1
17033.7
18287.4
19387.7
20168.5
20944.7
21567.6
22380.1
23103.3
24923.9
25605.4
26835.8
27779.3
28718.6
30869.4
32996.3
37079.6
43116.8
49009.8
59439.1
49375.4
30202.1
22457
13729.4
9528.76
5419.48
4229.19
2360.18
3834.11
2727.81
2039.22
1063.92
403.909
-543.946
-1080.62
-1824.48
-1736.72
-2356.96
-2180.22
-2005.68
1058.82
-4916.77
11078.6
-1252.05
-2039.73
-1890.55
-1899.1
-1885.39
-1888.24
-1895.58
-1909.56
-1928.76
-1955.4
-1983.91
-2019.91
-2063.17
-2106.24
-2156.47
-2212.51
-2277.23
-2335.76
-2411.58
-2493.64
-2571
-2652.56
-2748.35
-2849.34
-2947.07
-3054.65
-3164.27
-3270.72
-3396.64
-3505.09
-3610.84
-3722.77
-3819.82
-3919.8
-3995.09
-4057.93
-4091.34
-4066.14
-3983.12
-3770.47
-3507.55
-3153.94
-2435.76
-2559.53
492.915
-63352.3
-71105.8
-31887.9
-57183.8
-68772.5
-36493
-13026
-12860.8
-4268.94
-4057.08
-2767.96
2578.93
-3404.77
470.957
948.798
2480.53
6381.96
428.996
3756.34
3634.97
5533.98
6702.56
7944.12
8553.98
9740.27
10737.1
11908.6
12698.8
14018.6
15113.1
16360
17312.3
18120.3
19118.9
20147.3
22484.2
23049
24463.8
25799.9
27459.3
29609.9
31431.5
34042.5
38540.3
41846
47037.1
50821.4
56521.6
57972.8
48337
34741.5
27941.2
16627.7
8679.54
4706.49
3675.87
2375.2
1126.85
969.042
1984.79
1743.36
1189.58
852.834
318.269
-733.991
-1247.83
-1835.52
-1647.24
-2213.52
-2023.11
-1844.91
297.351
-4318.45
9543.7
-1381.44
-2142.75
-1991.04
-1993.88
-1975.88
-1975.24
-1979.3
-1990.47
-2007
-2031.91
-2058.55
-2092.16
-2134.05
-2176.92
-2225.01
-2279.68
-2344.94
-2404.8
-2476.58
-2556.74
-2638.44
-2719.21
-2811.91
-2917.4
-3013.9
-3117.68
-3230.05
-3343.92
-3458.27
-3576.15
-3687.87
-3792.71
-3897.25
-3991.57
-4084.67
-4167.77
-4225.74
-4269.58
-4333.33
-4340.65
-4324.19
-4485.26
-4159.91
-5555.39
-1079.23
-130390
-24644.2
-13576.4
-26138.2
-46698.3
-60941.6
-35512.3
-15867.3
-9488.21
-12659.7
-10025.5
-7318.29
-6916.01
2801.09
-3933.16
5268.41
6186.56
3683.81
4669.99
4847.51
5245.63
6313.39
7013.76
7625.46
8664.2
9754.52
11280.9
12791.3
14091.1
15956.7
18087.6
19030.6
20160.5
21345.9
23391.6
26373.7
28234
31365.2
35665.1
39169.9
44221.3
49494.3
53658.8
57250.7
61387.3
57963.4
49999.7
38318
29371.7
27207.8
21378.6
12621.6
7730.15
3365.81
1170.38
-363.1
620.694
-792.649
672.655
-260.911
417.527
144.764
897.388
326.086
-323.821
-881.047
-1234.37
-1038.18
-1738.76
-1556.29
-1633.91
-381.236
-4009.31
7871.11
-1495.32
-2230.27
-2076.32
-2074.27
-2053.17
-2048.42
-2049.68
-2058.06
-2072.66
-2095.53
-2120.75
-2152.08
-2191.73
-2235.65
-2280.68
-2334.63
-2399.3
-2460.08
-2528.88
-2607.85
-2691.28
-2771.07
-2864.72
-2965.79
-3069.13
-3169.64
-3279.15
-3400.65
-3507.33
-3633.34
-3747.72
-3858.17
-3965.08
-4065.56
-4154.76
-4256.17
-4338.96
-4400.31
-4435.84
-4424.17
-4480.54
-4298.19
-4295.05
-4110.58
-4852.54
-112898
-16303.4
-12339.6
-12961.2
-21915.4
-37388.8
-66889.4
-43175.2
-21107.1
-19829.9
-11746.6
-13677
-4404.53
278.056
-5911.09
5461.6
4339.57
6624.11
6342.68
5860.29
6118.57
7880.35
8172.66
9581.74
10801.1
11859.1
13367.9
14995.7
16933.8
19226.9
22531.7
24670.5
27661.1
31221.2
35598.2
41685.8
46057.2
52352.5
57094.6
61305.3
63673.3
64634.1
57540.9
47029.1
37390.4
30478.2
27336.3
23483.2
18194.2
12499.1
10551.7
6142.18
2134.78
-1631.14
-2695.15
-2841.66
-1442.43
-1273.39
-574.556
-796.782
-248.337
310.984
559.895
426.515
-290.482
-687.249
-996.634
-929.724
-1680.24
-1528.03
-1826.18
-982.227
-3852.83
6533.11
-1593.22
-2302.19
-2147.23
-2140.58
-2116
-2108.41
-2107.58
-2113.72
-2125.44
-2145.87
-2171.34
-2199.84
-2237.28
-2281.89
-2324.92
-2378.28
-2441.61
-2502.72
-2570.14
-2646.07
-2729.38
-2813.06
-2903.07
-3001.53
-3106.56
-3210.99
-3318.22
-3433.73
-3550.85
-3667.91
-3792.47
-3913.26
-4025.19
-4132.94
-4223.05
-4315.96
-4410.11
-4481.69
-4491.71
-4471.13
-4406.48
-4105.17
-4210.56
-2899.11
-39511.6
-62795.2
-568.083
-3492.3
-4773.84
-11389.3
-20970.7
-41099.6
-56791.8
-41533.8
-27978.7
-16955.3
-14437.3
-3793.8
-2443.81
4116.9
3515.48
5572.43
10175.3
7285.09
8122.37
8036.42
10553.3
10431.7
12637.4
15287.9
17251.8
20592.2
24290.8
28809.1
32332.3
37531.7
42538.8
49076
54636.6
61084.7
64246.7
70122.5
67813.3
59884
50862.6
40170.8
33873.5
30541.9
27826.5
22498.1
15818.5
14026.1
11869.8
9675.03
6304.75
4764.7
2336.21
312.266
-2244.36
-2993.67
-4063.13
-3172.43
-2809.5
-2158.3
-2259.01
-1402.46
-557.094
243.299
404.584
-190.507
-466.616
-580.106
-658.437
-1394.68
-1228.45
-1767.35
-1172.85
-3570.29
5331.93
-1675.24
-2358.66
-2203.47
-2192.94
-2165.6
-2155.76
-2152.53
-2156.81
-2166.26
-2184.66
-2209.97
-2236.06
-2271.92
-2316.1
-2359.05
-2410.98
-2469.97
-2533.64
-2600.17
-2673.72
-2753.09
-2844.99
-2928.63
-3023.96
-3132.97
-3238.16
-3343.04
-3457.32
-3580.46
-3693.7
-3815.03
-3947.55
-4073.2
-4181.16
-4293.02
-4401.52
-4502.21
-4610.81
-4712
-4758.19
-4877.6
-4589.91
-5787.92
-1142.23
-111836
-40571.2
-1379.52
-2918.17
-6200.7
-8928.9
-13127
-23116
-40572.9
-69518.7
-43387.5
-28257.7
-18786.3
-5706.14
1781.58
10010.2
1991.6
8657.79
12700
9517.01
13336.5
13270.2
18075.9
19552.3
23416.8
28340.8
34666.5
41874.6
50271.1
57171.3
62342.1
65063.6
70238.9
72651.1
67096.1
59245
49267.1
40245.4
34717.7
31450.9
28222.8
23680.6
17701.7
15383.2
13808.8
10885.4
9048.7
7208.22
5889.67
5047.95
3109.46
1967.46
373.079
-956.319
-2877.36
-4087.84
-4857.9
-4475.25
-3876.71
-3091.73
-2449.65
-1905.89
-752.725
-28.0335
343.263
-195.06
-265.893
-328.59
-436.24
-1279.55
-1119.98
-1927.01
-1357.87
-3446.19
4309.84
-1741.38
-2399.96
-2244.96
-2231.42
-2202.53
-2190.62
-2184.63
-2188.34
-2195.88
-2212.28
-2236.53
-2262.16
-2295.95
-2338.6
-2382.31
-2431.41
-2487.96
-2553.42
-2619.17
-2689.96
-2766.9
-2860.83
-2944.7
-3035.99
-3143.55
-3253.26
-3357.71
-3469.69
-3588.89
-3709.27
-3833.16
-3958.91
-4089.82
-4212.97
-4328.48
-4442.04
-4537.6
-4636.89
-4630.58
-4746.72
-4639.32
-4612.87
-4295.71
-4940.72
-109385
-19921.3
-2316.04
-3559.33
-3965.11
-5063.71
-8474.16
-13829.5
-23467.2
-41254
-59358.1
-48545.3
-23700
-4514.72
4409.97
18550.5
5476.18
13333
22221.2
18948.3
27076.5
30355.1
38796.6
48984.2
57069.5
64425.8
71024.4
75697.9
78445.9
72151.4
65262.7
54962.6
46149.9
38100.9
35505.7
31806
28393.8
23702.4
18203.9
15277.3
13273.3
11078.4
9016.08
7803.52
6687.48
5568.5
5000.67
4023.43
2588.17
2600.33
1421.3
536.596
-628.932
-1516.27
-2988.48
-4086.22
-4970.88
-4829.2
-4657.43
-3708.89
-2956.49
-2244.77
-1027.3
-93.2991
347.214
-96.175
44.7392
-85.1342
-216.888
-1111.02
-981.058
-1829.94
-1353.92
-3211.06
3430.25
-1791.78
-2426.28
-2272.58
-2256.64
-2226.31
-2213.07
-2205.31
-2207.97
-2214.66
-2229.17
-2251.84
-2278.09
-2309.63
-2349.76
-2394.58
-2441.81
-2496.99
-2561.07
-2627.92
-2694.57
-2773.29
-2861.87
-2951.79
-3039.72
-3139.07
-3254.74
-3362.56
-3469.22
-3588.49
-3713.83
-3833.54
-3959.83
-4095.81
-4226.32
-4348.96
-4448.07
-4548.13
-4691.36
-4756.82
-4877.6
-4931.82
-5124.84
-4972.36
-16185.4
-101830
-8865.72
-6181.1
-4846.48
-3051.3
-2239.72
-4133.68
-6624.37
-11730.2
-20236.3
-35341.4
-64438.1
-38448.6
-11911
16747.5
23034.3
26466.8
30937.6
44233.7
49826.7
60494
70637.2
79277.4
86849.1
82784.9
74441.8
64570.7
54164.3
44557.2
40190.9
36704.4
32588.3
29289.4
22744.3
17804.7
15253.9
12515.3
10889.7
9265.24
7571.29
5986.38
5127.39
4472.88
3714.85
2983.73
2899.95
2589.7
2253.84
1245.14
983.266
311.497
-384.103
-1228.43
-2221.26
-2726.84
-4326.3
-5108.3
-5459.56
-4983.22
-4210.76
-3247.39
-2425.82
-1072.72
-243.886
286.686
-52.3714
228.504
59.4553
-126.384
-956.628
-876.658
-1811.23
-1392.14
-3052
2687.83
-1826.78
-2438.04
-2286.59
-2268.97
-2237.8
-2223.63
-2214.69
-2216.07
-2222.89
-2235.76
-2256.95
-2283.74
-2312.9
-2351.13
-2397.34
-2442.46
-2496.23
-2558.88
-2624.96
-2691.47
-2768.53
-2853.11
-2944.39
-3033.51
-3129.34
-3239.86
-3353.7
-3458.85
-3575.46
-3702.36
-3826.7
-3947.2
-4080.29
-4212.06
-4343.13
-4422.96
-4518
-4573.78
-4611.32
-4650.57
-4357.67
-4920.15
-2309.09
-63566
-52498.1
1979.78
1632.11
1728.67
812.775
-337.061
-1467.11
-3866.18
-6606.73
-9139.83
-16950.6
-27692.4
-22128.4
1859.2
37949.5
44862.8
71492.7
76595.3
81509.1
87524.1
81274.2
73652.4
63827.1
50930
47064.5
42933.8
40331.8
35324.5
28284.9
23518.8
19140.4
17310.8
15511.8
12978.2
11030.7
8937.97
6938.82
5922.89
5058.06
4196.82
3125.91
2744.66
2298.3
2079.08
1536.5
1921.6
1504.09
1168.48
447.021
153.042
-305.024
-865.865
-1478.14
-2146.96
-3170
-4133.33
-4871.08
-5349.42
-5223.59
-4244.07
-3367.46
-2402.97
-1098.99
-226.745
288.044
95.2291
443.151
169.872
-31.8333
-705.679
-758.018
-1709.82
-1300.2
-2829.39
2055.93
-1846.8
-2435.69
-2287.55
-2268.94
-2237.37
-2222.91
-2212.88
-2213.62
-2220.95
-2231.82
-2252.31
-2279.3
-2307.15
-2343.46
-2389.19
-2434.47
-2486.23
-2546.76
-2611.17
-2679.99
-2753.75
-2834.44
-2926.24
-3017.01
-3111.35
-3214.14
-3331.33
-3442.68
-3551.86
-3673.18
-3808.12
-3929.07
-4048.29
-4183.2
-4329.93
-4431.26
-4555.15
-4684.19
-4794.85
-4906.29
-4933.69
-5489.43
-3561.96
-101180
-36502.8
2679.07
1603.17
1522.58
695.05
131.575
435.937
93.4553
-1236.01
1047.93
3533.48
7254.96
21429
57513.9
80068.3
90962
82880.1
71622.6
58527.3
53475.7
49684.9
45171.4
42170.3
36803.1
32806.3
29270.9
26710.7
22403.2
19541.9
16898.4
14047.8
13051.5
11131.9
9325.42
8064.18
5937.79
4690.03
3654.99
2883.9
2201.73
1539.93
1173.05
724.477
688.878
408.876
857.95
701.237
583.907
127.523
-316.871
-725.912
-1240.99
-1777.89
-2453.5
-3003.94
-3956.95
-4721.02
-5180.85
-4831.28
-4384.58
-3310.34
-2336.57
-1108.65
-230.369
202.962
210.789
545.024
190.009
40.8293
-577.958
-707.799
-1625.11
-1224.32
-2659.19
1477.66
-1852.43
-2419.8
-2275.97
-2257.05
-2225.43
-2210.87
-2200.97
-2201.09
-2208.41
-2218.97
-2237.85
-2265.11
-2292.9
-2327.26
-2371.1
-2417.32
-2466.61
-2525.39
-2588.91
-2658.65
-2729.28
-2807.39
-2897.1
-2990.94
-3081.71
-3179.35
-3293.14
-3415.85
-3519.19
-3637.12
-3763.91
-3897.7
-4018.21
-4146.88
-4301.09
-4411.25
-4566.63
-4645.89
-4823.71
-4848.58
-5095.62
-5044.56
-7218.14
-98268.9
-17032.2
1229.12
1880.36
1692.49
1443.14
2187.52
3407.21
4615.28
5052.13
8928.77
23907.2
58367.2
107977
118080
74717
58170.5
50627.3
45048.4
39774.2
35752.5
31981.7
29944.3
26828.9
25088.5
23906.2
22748.9
21733.8
17751.8
16554
14298.8
12557.7
10978.4
9146.52
8214.83
7585.58
6226.95
5428.27
4188.01
3320.47
2643.67
2207.98
1656.88
988.513
729.347
357.58
712.525
437.938
380.341
-11.958
-411.74
-865.811
-1234.64
-1706.93
-2293.95
-3003.46
-3836.62
-4413.39
-4923.42
-4964.88
-4124.56
-3290.3
-2056.16
-1107.73
-127.28
251.879
360.533
615.496
186.659
73.0603
-353.285
-573.69
-1466.82
-1054.61
-2437.05
1001.86
-1844.34
-2391.14
-2252.19
-2233.6
-2202.78
-2188.53
-2179.55
-2178.71
-2186.35
-2197.4
-2214.74
-2241.21
-2269.78
-2302.87
-2344.56
-2391.3
-2439.31
-2495.34
-2558.55
-2627.82
-2695.51
-2773.36
-2857.57
-2953.26
-3044
-3139.52
-3245.11
-3370.93
-3478.12
-3592.83
-3714.66
-3848.34
-3971.07
-4106.22
-4222.34
-4370.3
-4451.38
-4560.24
-4595.53
-4506.05
-4698.5
-3696.5
-29522.4
-63347.6
-3157.49
5517.83
4866.21
4217.88
3663.29
3855.07
5027.46
7691.26
12168
24647.4
67139
140715
146465
81894.5
53610.1
40323.2
33462.1
29527.9
25966.5
24262.3
21572.7
20291.6
18277.9
17597.2
16334.5
16567.9
16832.9
17104.2
16708.8
15208.2
13325.8
11912.7
9613.42
8811.87
7865.06
6353.55
5483.94
4087.1
3096.6
2361.39
1924.96
1220.82
722.963
362.482
88.5945
302.51
113.351
140.752
-135.339
-437.118
-839.514
-1249.85
-1685.2
-2231.17
-2774.53
-3574.05
-4190.41
-4561.29
-4507.13
-4006.61
-3145.44
-1923.2
-1147.26
-162.984
35.3274
311.413
801.533
19.9943
126.28
-161.555
-636.874
-1228.12
-923.899
-2280.86
521.705
-1823.3
-2350.45
-2216.94
-2199.29
-2169.89
-2156.57
-2148.25
-2147.48
-2155.02
-2166.98
-2183.51
-2208.8
-2238.12
-2270.21
-2309.91
-2356.95
-2404.49
-2457.49
-2519.12
-2585.9
-2655.67
-2729.8
-2810.6
-2903.99
-2996.91
-3091.83
-3191.03
-3307.29
-3431.34
-3536.8
-3656.68
-3785.54
-3916.16
-4049.44
-4189.52
-4340.52
-4509.52
-4631.33
-4849.51
-4682.02
-5684.28
-2355.39
-81618.1
-40508.9
-2296.14
3442.53
3402.7
3692.91
4049.96
4450.83
6080.72
12460.9
31227.3
64911.4
130443
150089
91717.1
56847.7
39648
29483
23554.8
20381.6
18207.9
16989.1
15590.3
14558.3
13477.7
12685.8
12127
11882.2
12391.9
13786.9
14682.3
15358.1
15653.3
14320.7
11690.7
11014.8
9463.97
8214.8
6999.34
5848.81
4402.75
3853.35
2718.57
2108.42
1645.86
1135.36
541.737
504.75
169.945
188.117
-127.669
-336.46
-731.691
-1115.47
-1486
-2008.34
-2622.04
-3413.49
-3992.2
-4335.65
-4355.83
-3644.39
-3007.57
-1785.58
-1178.84
-32.67
290.352
303.498
975.424
-8.24684
323.337
18.1221
-529.237
-906.617
-880.642
-2088.93
157.106
-1790.14
-2298.47
-2171.07
-2154.92
-2127.28
-2115.06
-2108.37
-2107.7
-2114.99
-2128.53
-2144.28
-2168.35
-2198.56
-2229.94
-2267.76
-2314.09
-2361.76
-2412.39
-2471.87
-2537.91
-2607.35
-2677.95
-2757.39
-2844.12
-2938.49
-3033.9
-3133.11
-3234.3
-3369.12
-3474.34
-3588.1
-3710.33
-3842.25
-3977.56
-4119.05
-4223.82
-4369.3
-4466.65
-4488.31
-4588.11
-4426.94
-5149.89
-83299.4
-23277
-4575.07
2750.66
3094.98
3713.75
4674.29
6545.18
12778.8
25946.5
70761.4
139488
151227
93710.8
58636.3
39343.7
28047.8
21575.1
17944.6
15753.4
14215.4
13476.2
12607.6
11916
11065.6
10328.8
10046.1
9797.79
9889.39
11144.4
11876
12530.4
14262
14259.7
13829.4
13180.2
10450.8
9655.31
8103.97
7188.89
5584.64
4777.23
3310.01
2903.4
2185.31
1426.29
750.541
472.881
-19.7079
-40.612
-199.123
-352.034
-597.13
-848.873
-1344.13
-2009.79
-2579.43
-3239.02
-3800.71
-3985.17
-3838.56
-3477.61
-2747.98
-1812.22
-1214.35
-244.107
19.563
121.413
905.411
-115.757
364.96
36.1225
-369.581
-753.508
-979.025
-1643.96
-270.116
-1745.79
-2236.11
-2115.27
-2101.06
-2075.88
-2064.89
-2059.74
-2060.17
-2067.2
-2081.85
-2098.19
-2120.7
-2150.81
-2182.71
-2218.96
-2263.62
-2310.93
-2360.58
-2417.32
-2481.73
-2551.21
-2618.72
-2696.47
-2776.54
-2872.35
-2964.53
-3063.03
-3163.85
-3278.28
-3410.84
-3513.65
-3630.75
-3754.59
-3891.3
-4024.87
-4152.99
-4289.51
-4508.3
-4646.42
-4950.06
-4891.61
-14721.3
-84574.8
-11796.4
-5384.01
3687.5
4594.1
5659.28
8841.84
13915.3
33354.5
67573.9
130080
148606
92534.8
58037
38717
26917.9
20087.9
16126.9
13877.7
12658.2
11867.3
11437
11127.1
10723.9
10318.4
9896.16
9487.55
9304.21
9011.11
9185
9427.32
9953.48
11071.7
11370.4
12802.2
12213.7
11259.1
10723.5
9505.33
8195.53
7043.5
5611.69
4535.38
3717.32
2730.12
1893.25
1181.71
740.814
148.81
-128.73
-134.374
-285.661
-566.564
-860.106
-1394.05
-2156.77
-2559.91
-3217.3
-3574.19
-3760.75
-3481.5
-3305.37
-2618.81
-1890.26
-1362.04
-311.873
94.9357
293.393
979.817
6.47807
473.765
112.801
-168.901
-551.326
-886.903
-1241.42
-599.15
-1691.25
-2164.25
-2050.41
-2038.55
-2016.26
-2006.58
-2003.33
-2005.42
-2012.18
-2027.41
-2045.15
-2066.61
-2095.81
-2128.39
-2163.83
-2206.32
-2253.24
-2302.11
-2356.68
-2419.26
-2484.94
-2553.65
-2627.09
-2706.27
-2794.73
-2888.78
-2981.63
-3083.77
-3185.29
-3320.67
-3432.73
-3534.19
-3645.79
-3769.53
-3880.25
-3953.24
-4006.69
-4056.79
-3907.21
-4322.08
-2247.02
-52257.9
-51496.6
-2962.93
-3374.14
4847.9
6298.03
8567.22
15611.6
30159.4
72166
144567
149599
92435.4
58033.7
38217
26298.6
19360.9
15503
13273.3
12112
11514.4
10933.1
10571.3
10217.3
9987.83
9694.64
9452.61
9012.53
8819.87
8376.56
8110.84
7885.37
7890.01
8563.74
9245.36
10436.9
10606.8
11426.7
10762.8
9811.12
8495.94
7469.25
5786.72
4889.78
3927.57
3065.77
2186.88
1447.96
883.538
206.777
-204.115
-438.485
-511.873
-736.144
-1066.26
-1333.87
-2088.65
-2509.3
-2992.4
-3367.19
-3591.84
-3332.83
-3412.07
-2289.66
-1829.72
-1029.73
-656.598
139.888
-45.3979
922.293
-139.042
452.889
174.677
-122.772
-367.586
-857.487
-798.403
-986.17
-1627.52
-2083.82
-1977.36
-1968.17
-1948.94
-1941.06
-1939.65
-1943.64
-1950.7
-1966.07
-1985.28
-2006.25
-2034.59
-2067.48
-2102.42
-2142.76
-2189.05
-2237.88
-2289.8
-2347.27
-2412.53
-2483.41
-2549.73
-2628.78
-2710.46
-2803.17
-2894.69
-2989.21
-3095.11
-3204.48
-3344.23
-3439.48
-3542.48
-3651.72
-3783
-3911.73
-4116.6
-4250.24
-4506
-4766.23
-5361.11
-99920.9
-24100.3
-2614.18
-2674.85
5835.66
8544.23
13551.6
33032.1
72640.3
135481
144977
90633.1
57280.8
38192.9
26501.1
19419.9
15180.8
12827.6
11621.9
10878.5
10436.2
10269.8
10068.2
9881.8
9692.02
9424.89
9178.46
8699.8
8397.73
7820.31
7430.47
7039.05
6694.27
6852.08
7472.08
8129.75
8365.55
9542.34
9303.77
9535.61
8968.04
7752.95
6100.75
5472.23
4135.72
3446.07
2426.25
1703.16
935.247
306.145
-294.267
-598.745
-715.267
-801.515
-1297.82
-1547.22
-2101.15
-2346.71
-2685.81
-3015.34
-3182.04
-3165.84
-3177.7
-2362.59
-1902.27
-1265.49
-699.856
108.302
-105.87
957.039
-56.3633
595.519
296.521
-5.90421
-150.334
-725.017
-418.1
-1207.02
-1555.66
-1995.73
-1896.95
-1890.73
-1874.49
-1869.18
-1869.34
-1875.07
-1883.76
-1898.26
-1919.37
-1940.45
-1967.42
-2000.7
-2035.13
-2073.87
-2118.75
-2167.12
-2216.66
-2272.61
-2336.23
-2402.54
-2470.14
-2541.19
-2622.16
-2706.85
-2800.45
-2892.54
-2988.3
-3098.24
-3212.54
-3349.93
-3441.12
-3536.65
-3651.95
-3783.68
-3923.74
-3911.93
-4324.68
-3458.37
-16662.7
-82713.7
-11455.8
-4290.33
-3177.05
6402.62
13860.7
29874.9
72391.9
147903
142807
88068.1
55767.4
37337.2
26044.5
19057.3
14583.8
11738.8
10110.5
9413.33
9346.32
9578.23
9982.63
9992.66
10187.7
10011.9
9779.81
9211.77
8631.06
8060.24
7397.52
6918.42
6396.42
6018.31
5674.79
5755.86
6097.94
6524.09
7256.38
7466.76
8577.3
8300.45
7671.69
6181.11
5506.38
3995.29
3334.78
2398.19
1737.19
831.435
273.559
-345.73
-748.654
-1070.99
-1223.49
-1524.69
-1715.44
-1926.04
-2188.49
-2620.32
-2935.09
-2981.19
-2912.89
-2822.64
-2317.88
-1910.3
-1211.34