/*--------------------------------*- C++ -*----------------------------------*\
| =========                 |                                                 |
| \\      /  F ield         | OpenFOAM: The Open Source CFD Toolbox           |
|  \\    /   O peration     | Version:  2.2.x                                 |
|   \\  /    A nd           | Web:      www.OpenFOAM.org                      |
|    \\/     M anipulation  |                                                 |
\*---------------------------------------------------------------------------*/
FoamFile
{
    version     2.0;
    format      ascii;
    class       volScalarField;
    location    "1.5";
    object      Bx;
}
// * * * * * * * * * * * * * * * * * * * * * * * * * * * * * * * * * * * * * //

dimensions      [1 0 -2 0 0 -1 0];

internalField   nonuniform List<scalar> 
14161
(
1.00542
1.00435
1.00467
1.00501
1.00544
1.00595
1.00655
1.00724
1.00801
1.00886
1.0098
1.01077
1.01179
1.01291
1.01403
1.01512
1.01629
1.01738
1.01843
1.01944
1.02038
1.02117
1.02191
1.02253
1.02304
1.02344
1.02373
1.02389
1.02399
1.024
1.02395
1.02384
1.02365
1.02341
1.02312
1.02279
1.02276
1.02351
1.02579
1.03218
1.04635
1.1358
1.3272
1.38462
1.35897
1.34362
1.33111
1.32026
1.30876
1.29801
1.28717
1.2759
1.2635
1.25254
1.24419
1.23862
1.23456
1.23201
1.23132
1.23087
1.23144
1.23254
1.23434
1.23681
1.23975
1.2427
1.24551
1.24832
1.25137
1.25466
1.25818
1.2618
1.26541
1.26888
1.27237
1.27612
1.27969
1.28321
1.28686
1.29002
1.29217
1.29348
1.29401
1.29319
1.29145
1.28862
1.28506
1.28164
1.2824
1.28581
1.29148
1.26264
1.17069
1.01615
0.861665
0.740655
0.653246
0.586536
0.536949
0.501105
0.471778
0.450012
0.432238
0.417529
0.404541
0.392824
0.381213
0.368521
0.354028
0.336505
0.315456
0.29127
0.259525
0.230478
0.181898
0.156856
0.0946009
0.0802479
0.00134203
1.00543
1.00436
1.00468
1.00502
1.00545
1.00596
1.00656
1.00726
1.00802
1.00886
1.00981
1.01079
1.01181
1.01292
1.01404
1.01513
1.01629
1.0174
1.01845
1.01946
1.0204
1.0212
1.02195
1.02256
1.02307
1.02347
1.02377
1.02396
1.02407
1.02412
1.02411
1.02406
1.02396
1.02383
1.02372
1.02366
1.02399
1.0251
1.02708
1.03608
1.03964
1.10771
1.06954
1.10301
1.09805
1.10013
1.09091
1.09138
1.09139
1.09544
1.10035
1.11042
1.12332
1.13524
1.14623
1.15716
1.16762
1.17618
1.18393
1.18997
1.1956
1.20056
1.2046
1.20787
1.21059
1.21291
1.21511
1.21707
1.21897
1.2211
1.22316
1.22527
1.22755
1.22966
1.23175
1.23351
1.23464
1.23563
1.23587
1.23618
1.2359
1.23688
1.23685
1.2384
1.24032
1.24198
1.24107
1.23234
1.21015
1.15715
1.07575
0.974997
0.866214
0.77482
0.707861
0.656596
0.608726
0.569928
0.536856
0.508989
0.491775
0.475276
0.460213
0.445129
0.430243
0.415268
0.400153
0.384064
0.366377
0.345847
0.321403
0.294761
0.262281
0.232377
0.185324
0.156146
0.100595
0.0836955
0.0118122
1.00543
1.00436
1.00468
1.00502
1.00545
1.00596
1.00657
1.00726
1.00803
1.00888
1.00982
1.01079
1.01182
1.01293
1.01404
1.01514
1.01629
1.0174
1.01846
1.01948
1.02041
1.02123
1.02196
1.02257
1.02309
1.02348
1.02376
1.02394
1.02402
1.02402
1.02392
1.02375
1.02346
1.02305
1.0225
1.02173
1.02049
1.01856
1.01482
1.01217
0.992952
1.00329
0.847857
0.864837
0.881105
0.911855
0.928806
0.954384
0.979439
1.00485
1.02665
1.05006
1.07368
1.09323
1.10804
1.12369
1.13804
1.14986
1.16012
1.16826
1.17464
1.18051
1.1845
1.18793
1.18929
1.19067
1.19194
1.19279
1.19394
1.19525
1.19682
1.19944
1.20276
1.20627
1.21018
1.21338
1.21617
1.21788
1.21746
1.21749
1.2164
1.21485
1.21272
1.21026
1.20665
1.20013
1.18769
1.13952
1.05519
0.916727
0.791831
0.68916
0.635169
0.592345
0.578437
0.563337
0.547017
0.533294
0.521608
0.511742
0.498378
0.484135
0.469948
0.455252
0.439461
0.422944
0.405189
0.386219
0.365263
0.340563
0.311805
0.281165
0.245265
0.214567
0.169261
0.140543
0.0875407
0.0677503
0.00877281
1.00544
1.00437
1.00469
1.00503
1.00546
1.00598
1.00657
1.00726
1.00803
1.00888
1.00983
1.01081
1.01184
1.01294
1.01406
1.01518
1.01631
1.01744
1.0185
1.01951
1.02045
1.0213
1.02204
1.02265
1.02316
1.02357
1.02386
1.0241
1.02425
1.02434
1.02438
1.0244
1.0244
1.02437
1.02425
1.02402
1.02332
1.02186
1.01856
1.01305
0.992617
0.926829
0.729603
0.740583
0.761155
0.81578
0.84733
0.88999
0.930782
0.965946
0.993841
1.02875
1.05339
1.0728
1.09157
1.10998
1.12404
1.13688
1.14791
1.15604
1.16227
1.16659
1.17036
1.17231
1.17357
1.17383
1.17418
1.17459
1.17515
1.1758
1.17641
1.17751
1.1791
1.18051
1.18221
1.18296
1.18381
1.18215
1.18189
1.17951
1.17927
1.17664
1.17572
1.17047
1.16426
1.13839
1.09014
0.98027
0.878696
0.770293
0.683515
0.617169
0.579472
0.562169
0.554974
0.544589
0.539737
0.53219
0.526582
0.519449
0.508165
0.493889
0.478537
0.462
0.444511
0.425676
0.404695
0.380338
0.353156
0.322911
0.28758
0.252482
0.211127
0.179808
0.137453
0.115177
0.0731095
0.0577864
0.010411
1.00544
1.00437
1.00469
1.00503
1.00546
1.00598
1.00659
1.00727
1.00805
1.0089
1.00981
1.01081
1.01186
1.01294
1.01408
1.01522
1.01632
1.01746
1.01853
1.01954
1.02046
1.02134
1.0221
1.02275
1.02325
1.02365
1.02391
1.02409
1.02416
1.02415
1.02403
1.02383
1.0235
1.02302
1.02233
1.02128
1.01947
1.0164
1.01083
1.00319
0.984603
0.914003
0.712859
0.734304
0.740449
0.798935
0.845462
0.896759
0.93595
0.980258
1.01521
1.03776
1.05925
1.08238
1.10178
1.11574
1.12608
1.13586
1.14195
1.14916
1.15539
1.15948
1.161
1.16309
1.1645
1.16612
1.16689
1.16709
1.16775
1.16861
1.16948
1.17124
1.17342
1.17591
1.17888
1.18139
1.18369
1.18535
1.18681
1.1862
1.18619
1.18231
1.17595
1.15721
1.14059
1.08487
1.03275
0.932755
0.860127
0.777885
0.708816
0.644405
0.598239
0.566689
0.550168
0.538578
0.5302
0.52426
0.520401
0.511521
0.498135
0.482019
0.463817
0.442461
0.418569
0.392323
0.363574
0.333702
0.301845
0.270559
0.234853
0.204932
0.165892
0.1433
0.107051
0.0921447
0.0590553
0.0519138
0.0103965
1.00544
1.00438
1.0047
1.00504
1.00547
1.00599
1.0066
1.00728
1.00807
1.00893
1.00984
1.01085
1.0119
1.01297
1.01411
1.01526
1.01637
1.0175
1.01859
1.01963
1.02057
1.02145
1.0222
1.02285
1.02336
1.0238
1.02411
1.02435
1.02454
1.02466
1.02476
1.02486
1.02498
1.02512
1.02527
1.02531
1.02498
1.02392
1.02077
1.01376
0.986701
0.978114
0.792115
0.795961
0.825621
0.88381
0.935865
0.977348
1.01091
1.03753
1.0633
1.07851
1.09547
1.10859
1.11992
1.12723
1.13412
1.14183
1.1454
1.15204
1.15471
1.1591
1.16213
1.16433
1.1654
1.16615
1.16709
1.16819
1.1689
1.16942
1.17004
1.17051
1.17072
1.17106
1.17135
1.17172
1.17216
1.1727
1.17083
1.16677
1.16358
1.15145
1.13819
1.10176
1.0794
1.00257
0.968567
0.900727
0.871732
0.818713
0.770218
0.715084
0.65953
0.606306
0.571231
0.543242
0.517902
0.503563
0.490695
0.47543
0.457842
0.439498
0.419729
0.396734
0.370641
0.342175
0.312003
0.282369
0.251539
0.223695
0.192019
0.166784
0.132851
0.115732
0.0854711
0.0715178
0.0445483
0.0440575
0.0113615
1.00544
1.00438
1.00471
1.00504
1.00548
1.006
1.00661
1.00729
1.00808
1.00894
1.00985
1.01086
1.01193
1.01299
1.01412
1.0153
1.0164
1.01754
1.01865
1.01968
1.02064
1.02154
1.02229
1.02296
1.02349
1.02391
1.02421
1.02439
1.02447
1.02447
1.02437
1.02418
1.02389
1.02349
1.02306
1.02257
1.02232
1.02263
1.02366
1.03087
1.03545
1.07748
1.03559
1.09365
1.08283
1.09918
1.10693
1.11258
1.12411
1.12612
1.14053
1.14242
1.15436
1.1568
1.1674
1.16762
1.17716
1.17981
1.18678
1.19116
1.19397
1.199
1.20045
1.20319
1.20448
1.20589
1.20692
1.20763
1.20798
1.20821
1.20926
1.20963
1.21107
1.21231
1.21401
1.21448
1.2158
1.21348
1.21467
1.20919
1.20953
1.19683
1.19155
1.1475
1.12032
1.03594
1.0118
0.943957
0.914985
0.876308
0.833718
0.786558
0.729163
0.653272
0.595057
0.538988
0.497639
0.471307
0.44904
0.426101
0.407573
0.388901
0.36875
0.347129
0.323903
0.298901
0.270954
0.24505
0.217763
0.194551
0.166139
0.146669
0.113518
0.0998867
0.0738387
0.0613935
0.0387798
0.0414576
0.0196502
1.00545
1.00439
1.00471
1.00505
1.00549
1.00601
1.00662
1.00731
1.0081
1.00897
1.00987
1.01089
1.01196
1.01303
1.01417
1.01535
1.01647
1.01762
1.01874
1.01978
1.02077
1.02167
1.02246
1.02314
1.0237
1.02415
1.0245
1.02475
1.02497
1.02513
1.02528
1.02547
1.02573
1.02616
1.02679
1.02781
1.0294
1.03211
1.03566
1.04451
1.05311
1.11905
1.26056
1.27353
1.26726
1.25129
1.2343
1.21902
1.21033
1.20169
1.2028
1.19861
1.20586
1.20321
1.21132
1.20986
1.21825
1.21831
1.22573
1.22555
1.23175
1.23204
1.23539
1.23661
1.23793
1.23858
1.23943
1.23988
1.23986
1.24008
1.23983
1.24115
1.24101
1.24183
1.24229
1.24233
1.24324
1.23989
1.24049
1.2323
1.23075
1.21428
1.20404
1.14639
1.10472
1.00481
0.980784
0.936403
0.913672
0.884704
0.849557
0.812118
0.764118
0.70328
0.631886
0.559311
0.497075
0.458913
0.420419
0.395006
0.37268
0.354767
0.337653
0.319914
0.299108
0.277045
0.25331
0.228662
0.200261
0.180024
0.153648
0.138012
0.104826
0.0926977
0.0678739
0.0606025
0.0378685
0.0418412
0.0237653
1.00545
1.00439
1.00472
1.00506
1.0055
1.00602
1.00664
1.00732
1.00811
1.00898
1.00989
1.01092
1.012
1.01306
1.01422
1.0154
1.01654
1.01768
1.01883
1.01988
1.0209
1.02181
1.02261
1.02331
1.0239
1.02436
1.02469
1.02489
1.025
1.02503
1.02496
1.0248
1.02456
1.02428
1.02406
1.02398
1.02432
1.02533
1.02755
1.03103
1.04069
1.08539
1.19445
1.25716
1.25587
1.24056
1.23089
1.22215
1.21827
1.22055
1.21912
1.22565
1.22537
1.23166
1.23438
1.23689
1.24333
1.24346
1.25023
1.24956
1.25512
1.25427
1.25839
1.25897
1.26158
1.26237
1.26334
1.26412
1.26525
1.26596
1.2666
1.26721
1.26811
1.26891
1.26982
1.26911
1.26965
1.26469
1.26532
1.25553
1.25479
1.23763
1.23041
1.15842
1.13422
1.04742
1.00531
0.973548
0.945844
0.927247
0.892185
0.858722
0.817226
0.767978
0.700705
0.611678
0.527879
0.465476
0.416702
0.377653
0.351435
0.330893
0.312335
0.29545
0.278417
0.259822
0.237572
0.216905
0.191044
0.172048
0.147251
0.133739
0.104037
0.0926534
0.0669657
0.0623709
0.0393978
0.0447049
0.02835
1.00545
1.0044
1.00473
1.00507
1.00551
1.00603
1.00665
1.00734
1.00813
1.00901
1.00994
1.01095
1.01204
1.01313
1.01426
1.01546
1.01664
1.01778
1.01895
1.02002
1.02105
1.02201
1.02283
1.02358
1.02419
1.0247
1.02509
1.02539
1.02563
1.02581
1.02596
1.02612
1.02636
1.02676
1.02747
1.02858
1.03035
1.03308
1.03639
1.04406
1.03843
1.1043
1.05036
1.0983
1.12095
1.14015
1.14138
1.14603
1.15059
1.15924
1.16611
1.17692
1.18523
1.19561
1.20459
1.21189
1.222
1.22636
1.23619
1.23823
1.24588
1.24668
1.25159
1.25258
1.25506
1.25578
1.25667
1.25732
1.25833
1.25886
1.25982
1.26003
1.26159
1.2629
1.26491
1.26514
1.26751
1.26283
1.26416
1.25437
1.24624
1.2158
1.19197
1.11596
1.08532
1.04388
1.00311
0.982302
0.946612
0.930215
0.897833
0.861511
0.821038
0.769121
0.705733
0.62494
0.540513
0.463051
0.407368
0.373566
0.348161
0.327131
0.308386
0.291796
0.273783
0.256197
0.237032
0.217219
0.192053
0.174133
0.148933
0.136006
0.109056
0.0985529
0.0716164
0.067815
0.0452336
0.0498661
0.03403
1.00545
1.0044
1.00473
1.00507
1.00552
1.00604
1.00666
1.00736
1.00815
1.00903
1.00998
1.01098
1.01207
1.01319
1.01432
1.01552
1.01672
1.01787
1.01906
1.02016
1.0212
1.0222
1.02304
1.02384
1.02448
1.02501
1.02541
1.02568
1.02584
1.02588
1.02583
1.02567
1.0254
1.02504
1.02452
1.02398
1.02325
1.02252
1.02055
1.02317
1.00415
1.05465
0.92092
0.966876
0.984386
1.03669
1.05309
1.07388
1.09222
1.10999
1.12868
1.14506
1.16217
1.17493
1.19084
1.20134
1.21574
1.22238
1.23453
1.23776
1.2474
1.24832
1.25549
1.25622
1.25951
1.26017
1.26201
1.26284
1.26358
1.26371
1.2647
1.26391
1.26503
1.2661
1.26747
1.26848
1.2685
1.27089
1.26322
1.26411
1.23649
1.20911
1.14149
1.1005
1.04516
1.02963
0.985034
0.966419
0.926139
0.903758
0.874228
0.837348
0.801782
0.757019
0.705013
0.639359
0.558027
0.480863
0.422219
0.38736
0.361276
0.339516
0.319277
0.30173
0.284283
0.267213
0.24741
0.228102
0.204069
0.185342
0.159633
0.145952
0.119725
0.108416
0.0791966
0.075918
0.053602
0.0536256
0.0385909
1.00546
1.00441
1.00474
1.00508
1.00553
1.00605
1.00668
1.00739
1.00817
1.00906
1.01002
1.01102
1.01212
1.01326
1.0144
1.01561
1.01684
1.01801
1.0192
1.02035
1.02141
1.02242
1.02335
1.02417
1.02488
1.02547
1.02596
1.02633
1.02661
1.02679
1.02689
1.02694
1.02694
1.02693
1.02683
1.02672
1.0264
1.02594
1.02381
1.02334
1.00074
1.01699
0.854036
0.905063
0.920952
0.979736
1.00931
1.04522
1.07347
1.09879
1.12361
1.14376
1.1648
1.17847
1.19822
1.20689
1.22208
1.2259
1.23797
1.23757
1.24706
1.24504
1.25152
1.25047
1.25399
1.25399
1.25552
1.25643
1.2571
1.25726
1.25826
1.25781
1.25951
1.26168
1.26395
1.26511
1.26598
1.26857
1.25455
1.25106
1.20935
1.17098
1.10121
1.09028
1.04871
1.03297
0.997346
0.980948
0.94199
0.912724
0.887887
0.853317
0.818618
0.778677
0.732516
0.676262
0.597151
0.523586
0.450388
0.409659
0.37825
0.355725
0.335356
0.318214
0.300662
0.282175
0.262969
0.243736
0.220178
0.202682
0.176087
0.161805
0.134448
0.121253
0.0895369
0.0858349
0.0628583
0.0579821
0.0435136
1.00546
1.00441
1.00475
1.00509
1.00554
1.00607
1.00669
1.00741
1.0082
1.00908
1.01006
1.01107
1.01217
1.01333
1.01449
1.0157
1.01694
1.01816
1.01935
1.02054
1.02166
1.02267
1.02367
1.0245
1.02529
1.02591
1.02645
1.02682
1.02706
1.02717
1.02716
1.027
1.02668
1.02615
1.02534
1.02413
1.02215
1.01955
1.01476
1.01025
0.990808
1.01033
0.84567
0.906537
0.935162
0.9859
1.02096
1.0633
1.09555
1.12091
1.14807
1.16403
1.1856
1.19424
1.21349
1.21705
1.23156
1.23192
1.24503
1.24269
1.25326
1.25156
1.26031
1.25972
1.26522
1.26626
1.26864
1.27029
1.27182
1.27227
1.27364
1.27356
1.27465
1.27556
1.27607
1.27565
1.27472
1.26968
1.2581
1.23066
1.18339
1.11929
1.07079
1.06604
1.03056
1.01893
0.981335
0.965952
0.931152
0.89499
0.8703
0.838125
0.80455
0.769594
0.732308
0.685089
0.623852
0.550462
0.472634
0.417209
0.379803
0.356838
0.337202
0.320971
0.306123
0.290439
0.274722
0.258716
0.238442
0.22122
0.194837
0.179329
0.150257
0.135766
0.101713
0.0960611
0.0709533
0.0630784
0.0484453
1.00546
1.00442
1.00475
1.0051
1.00556
1.00608
1.00671
1.00744
1.00823
1.00912
1.0101
1.01112
1.01222
1.0134
1.01459
1.01581
1.01708
1.01833
1.01953
1.02078
1.02194
1.02298
1.02404
1.02494
1.02579
1.0265
1.02715
1.02764
1.02803
1.02829
1.02846
1.02848
1.02838
1.02815
1.02771
1.02698
1.02575
1.02417
1.02115
1.01899
1.00776
1.04112
0.893317
0.972012
1.00299
1.03952
1.06986
1.10211
1.13257
1.15228
1.18052
1.19238
1.21733
1.22384
1.2454
1.24735
1.26489
1.26488
1.28137
1.27787
1.28928
1.28545
1.29349
1.29164
1.29715
1.29718
1.29985
1.30121
1.30304
1.3037
1.30512
1.30519
1.30679
1.30843
1.30956
1.31029
1.31166
1.3101
1.29082
1.25589
1.19803
1.17607
1.10888
1.09234
1.049
1.03083
0.98684
0.965433
0.936393
0.902263
0.872723
0.840019
0.807486
0.773872
0.73855
0.692626
0.639209
0.564329
0.49166
0.428201
0.391647
0.370528
0.351355
0.33572
0.322175
0.306822
0.292072
0.277039
0.259188
0.243407
0.218038
0.200449
0.168356
0.15229
0.115757
0.106526
0.0797086
0.0692881
0.0536757
1.00547
1.00443
1.00476
1.00511
1.00557
1.0061
1.00673
1.00746
1.00826
1.00915
1.01015
1.01119
1.01229
1.01349
1.0147
1.01593
1.01723
1.01851
1.01974
1.02102
1.02224
1.02334
1.02444
1.02543
1.02632
1.02711
1.02781
1.02837
1.02882
1.02916
1.02938
1.02943
1.02935
1.02917
1.02888
1.02842
1.02758
1.02659
1.02485
1.02382
1.01462
1.05765
0.979879
1.07641
1.11764
1.13352
1.16138
1.17496
1.2049
1.21251
1.24021
1.24317
1.2679
1.26741
1.28963
1.2879
1.30592
1.30214
1.31504
1.30793
1.31816
1.3129
1.31748
1.31506
1.3184
1.31787
1.31901
1.31934
1.32026
1.32048
1.32099
1.32067
1.32083
1.32291
1.32428
1.32563
1.3245
1.31992
1.28529
1.24992
1.16022
1.16323
1.11625
1.09479
1.04972
1.03264
0.993514
0.975681
0.94742
0.919818
0.894288
0.861209
0.825568
0.789392
0.75079
0.707743
0.657525
0.589579
0.518447
0.45084
0.410492
0.387746
0.36692
0.349892
0.335482
0.319913
0.304893
0.290257
0.273238
0.257933
0.234461
0.21731
0.185472
0.168126
0.129548
0.118298
0.0883873
0.0771879
0.0596856
1.00547
1.00444
1.00477
1.00512
1.00559
1.00612
1.00675
1.00749
1.00831
1.00919
1.0102
1.01126
1.01236
1.01358
1.01482
1.01606
1.01739
1.01871
1.01999
1.02129
1.02257
1.02375
1.02487
1.026
1.02696
1.02784
1.02865
1.02941
1.02998
1.03048
1.03091
1.03128
1.03152
1.0316
1.03165
1.03162
1.03161
1.03186
1.03227
1.03541
1.03422
1.07321
1.08566
1.1741
1.20011
1.20173
1.23644
1.23829
1.26573
1.2646
1.28881
1.28558
1.30757
1.30354
1.32325
1.31866
1.33602
1.32742
1.33922
1.33042
1.34022
1.33621
1.33894
1.33757
1.33908
1.33863
1.33948
1.33956
1.33982
1.3397
1.34056
1.33932
1.33987
1.33991
1.34043
1.34135
1.33823
1.33719
1.26967
1.26546
1.18867
1.14334
1.11368
1.0949
1.04676
1.02536
0.98632
0.968714
0.94097
0.916329
0.893344
0.87156
0.844185
0.812947
0.777763
0.737015
0.691115
0.629909
0.556351
0.483451
0.430548
0.403267
0.379676
0.36163
0.346997
0.331922
0.317003
0.302586
0.286241
0.271261
0.248778
0.232641
0.204024
0.186531
0.146465
0.133004
0.0989597
0.087117
0.0668483
1.00548
1.00444
1.00478
1.00514
1.0056
1.00614
1.00677
1.00752
1.00835
1.00924
1.01025
1.01134
1.01245
1.01368
1.01495
1.01622
1.01756
1.01892
1.02027
1.02157
1.0229
1.02419
1.02538
1.02657
1.02766
1.02863
1.02954
1.0304
1.03111
1.03172
1.03226
1.0328
1.0333
1.03381
1.03437
1.03519
1.03647
1.0386
1.04168
1.04999
1.05232
1.13942
1.1064
1.16687
1.20002
1.23069
1.25861
1.25277
1.27818
1.27311
1.29727
1.29218
1.31446
1.30895
1.32871
1.32169
1.34059
1.33043
1.3448
1.33746
1.34504
1.34295
1.34615
1.34466
1.346
1.34602
1.34656
1.34689
1.34757
1.34815
1.34737
1.34727
1.34483
1.3435
1.34123
1.33819
1.31241
1.28009
1.22017
1.1867
1.16497
1.12458
1.08154
1.05909
1.02682
0.999509
0.959857
0.938997
0.908708
0.886904
0.866049
0.847386
0.827325
0.802379
0.773842
0.740696
0.699426
0.646371
0.573282
0.51119
0.451062
0.420153
0.394865
0.375488
0.360106
0.344662
0.328857
0.314019
0.296804
0.282252
0.26081
0.246253
0.220669
0.204247
0.163921
0.150264
0.111299
0.0987692
0.075451
1.00549
1.00445
1.00479
1.00515
1.00562
1.00617
1.0068
1.00755
1.00839
1.00929
1.01031
1.01142
1.01255
1.01379
1.01509
1.01641
1.01775
1.01917
1.02057
1.02191
1.02332
1.0247
1.02597
1.02718
1.02842
1.02955
1.03057
1.03155
1.03254
1.0334
1.03413
1.03487
1.03563
1.03641
1.03692
1.03722
1.03721
1.03695
1.0355
1.03653
1.0279
1.08022
1.06133
1.07548
1.11376
1.13473
1.18803
1.19791
1.23743
1.241
1.27384
1.27498
1.30304
1.30091
1.32528
1.31828
1.33966
1.33058
1.34769
1.34138
1.34848
1.34738
1.35083
1.34987
1.35154
1.35177
1.35222
1.35149
1.35159
1.35171
1.35115
1.34998
1.34516
1.33802
1.32691
1.30007
1.2479
1.18806
1.11557
1.08788
1.05715
1.05012
1.0201
1.01164
0.988775
0.976495
0.948303
0.924598
0.896807
0.871822
0.850965
0.832501
0.814215
0.793492
0.771094
0.743119
0.707771
0.662444
0.597205
0.536966
0.472164
0.43731
0.407658
0.3849
0.366823
0.350151
0.333482
0.319906
0.304164
0.292594
0.274949
0.262689
0.240528
0.226047
0.186644
0.172011
0.125863
0.112385
0.0856023
1.0055
1.00446
1.0048
1.00517
1.00563
1.00619
1.00683
1.00758
1.00843
1.00935
1.01037
1.0115
1.01267
1.0139
1.01524
1.0166
1.01796
1.01943
1.02089
1.0223
1.02375
1.02521
1.02659
1.02788
1.02923
1.03053
1.0317
1.03284
1.03396
1.035
1.03595
1.03681
1.03781
1.03886
1.04006
1.04119
1.04218
1.04316
1.04419
1.04658
1.0518
1.09484
1.08535
1.08771
1.10376
1.11282
1.17124
1.18726
1.24576
1.25015
1.29174
1.28933
1.32237
1.31486
1.34177
1.33165
1.35286
1.34231
1.35796
1.34983
1.35527
1.35134
1.35393
1.35137
1.3515
1.35186
1.35277
1.35018
1.34666
1.34081
1.33242
1.31433
1.27455
1.22901
1.15067
1.08363
0.979844
0.945191
0.911829
0.917008
0.911457
0.918234
0.917465
0.909983
0.90638
0.899294
0.897724
0.889922
0.88001
0.863043
0.847719
0.834068
0.816738
0.798561
0.776665
0.749053
0.715298
0.673636
0.612654
0.555619
0.490399
0.452794
0.421394
0.39704
0.378047
0.362006
0.344962
0.331809
0.316598
0.305578
0.289624
0.278467
0.258049
0.24368
0.208692
0.191159
0.139489
0.125168
0.0968489
1.00551
1.00447
1.00482
1.00518
1.00565
1.00622
1.00687
1.00761
1.00848
1.00942
1.01043
1.01158
1.01279
1.01403
1.0154
1.01681
1.01821
1.01971
1.02124
1.02273
1.02421
1.02578
1.02729
1.02871
1.03011
1.03157
1.03295
1.03424
1.03548
1.0368
1.03805
1.03926
1.04029
1.04148
1.04285
1.0442
1.04588
1.04754
1.05269
1.05105
1.11163
1.09438
1.08805
1.09038
1.09822
1.11473
1.13696
1.17312
1.21488
1.23424
1.27571
1.28365
1.32276
1.31896
1.34912
1.3373
1.35965
1.34699
1.36217
1.35595
1.35869
1.35587
1.35553
1.35326
1.34867
1.34517
1.33668
1.32071
1.28369
1.23712
1.16623
1.09072
0.993881
0.862658
0.766378
0.699658
0.654015
0.655728
0.668283
0.692465
0.725035
0.761473
0.787639
0.806448
0.818535
0.83043
0.836954
0.837121
0.835218
0.825696
0.817435
0.807906
0.795922
0.783003
0.768186
0.748865
0.723907
0.689738
0.635551
0.578365
0.513314
0.473037
0.438099
0.410554
0.38913
0.371641
0.35349
0.339489
0.324414
0.314336
0.300283
0.290677
0.272069
0.259161
0.226463
0.206884
0.14999
0.13738
0.108479
1.00552
1.00448
1.00483
1.0052
1.00567
1.00624
1.00691
1.00765
1.00852
1.00949
1.01051
1.01167
1.01292
1.01418
1.01558
1.01703
1.01849
1.02001
1.0216
1.02319
1.02474
1.02639
1.02801
1.02956
1.03106
1.03267
1.03425
1.03572
1.03717
1.03864
1.0402
1.04168
1.04311
1.04451
1.04622
1.04824
1.05048
1.0516
1.05596
1.04425
1.12717
1.02871
1.05028
1.06382
1.07417
1.08615
1.09561
1.13192
1.14152
1.21412
1.23125
1.29372
1.2956
1.34479
1.33485
1.36812
1.3525
1.37051
1.3551
1.36683
1.35564
1.35486
1.33812
1.3187
1.27431
1.23209
1.15458
1.08826
0.987726
0.8609
0.757307
0.668275
0.607242
0.551688
0.505647
0.48558
0.473777
0.478401
0.495521
0.517804
0.550039
0.590231
0.635247
0.686143
0.726812
0.754646
0.771572
0.782319
0.788602
0.79191
0.790685
0.782865
0.774654
0.765366
0.752357
0.736963
0.716127
0.689221
0.64157
0.589726
0.528886
0.486651
0.449465
0.420448
0.397543
0.380088
0.363089
0.349402
0.334745
0.324866
0.311884
0.302639
0.283299
0.27067
0.23794
0.218872
0.162152
0.150543
0.120083
1.00553
1.00449
1.00484
1.00522
1.0057
1.00627
1.00695
1.00769
1.00858
1.00956
1.0106
1.01177
1.01304
1.01436
1.01575
1.01725
1.01879
1.02032
1.02199
1.02367
1.02533
1.02701
1.02876
1.03047
1.03213
1.03386
1.03562
1.03734
1.03895
1.04056
1.04241
1.04416
1.04575
1.04704
1.04825
1.04938
1.05019
1.04992
1.05195
1.04437
1.08658
1.05788
1.07201
1.07954
1.08562
1.09394
1.10161
1.11829
1.13172
1.17744
1.1874
1.26724
1.26661
1.33651
1.32625
1.37161
1.34673
1.36367
1.33618
1.32761
1.28005
1.24006
1.15867
1.09338
0.98566
0.864094
0.763368
0.674593
0.620637
0.565931
0.517751
0.479913
0.454757
0.440103
0.414761
0.403737
0.395915
0.39815
0.405541
0.421301
0.441197
0.470861
0.509376
0.557214
0.606935
0.647193
0.682244
0.716718
0.736575
0.747025
0.752274
0.753591
0.753719
0.750975
0.744443
0.734899
0.717131
0.690842
0.647187
0.594958
0.537385
0.494234
0.457736
0.428399
0.404897
0.386551
0.370235
0.357094
0.342962
0.332402
0.319158
0.309353
0.288586
0.275839
0.244893
0.22984
0.177312
0.165487
0.131876
1.00555
1.00451
1.00486
1.00524
1.00572
1.00629
1.00698
1.00775
1.00863
1.00963
1.01071
1.01186
1.01317
1.01454
1.01594
1.0175
1.0191
1.02069
1.02242
1.02419
1.02595
1.02768
1.02957
1.03143
1.03326
1.03507
1.03702
1.03893
1.04076
1.04261
1.04449
1.04665
1.04882
1.05093
1.05305
1.05611
1.05977
1.06691
1.07339
1.0908
1.12439
1.1028
1.09888
1.09469
1.09505
1.09644
1.10074
1.10764
1.11894
1.13943
1.15924
1.21439
1.22634
1.31154
1.29333
1.33764
1.29412
1.26271
1.19208
1.10344
1.00877
0.886646
0.794205
0.712443
0.66216
0.60714
0.560165
0.516843
0.484165
0.46607
0.441916
0.424431
0.408053
0.399466
0.387114
0.379793
0.374786
0.373788
0.375737
0.381695
0.39044
0.407152
0.428118
0.457839
0.497916
0.543931
0.601455
0.64473
0.67646
0.695954
0.710277
0.720215
0.724973
0.725623
0.723826
0.718629
0.707638
0.689086
0.650461
0.603493
0.548816
0.505654
0.468933
0.439647
0.41423
0.394142
0.377086
0.363123
0.348515
0.337048
0.323593
0.314099
0.295389
0.285277
0.257836
0.246048
0.194744
0.182539
0.144683
1.00556
1.00452
1.00488
1.00526
1.00575
1.00632
1.00702
1.00781
1.00868
1.0097
1.01081
1.01198
1.01331
1.01472
1.01616
1.01776
1.01942
1.0211
1.02284
1.02472
1.02659
1.02843
1.03039
1.03242
1.03441
1.03638
1.03847
1.04059
1.04273
1.04471
1.04673
1.04902
1.05112
1.05322
1.05469
1.05613
1.0565
1.0595
1.0509
1.12739
1.05475
1.07591
1.08296
1.09079
1.0971
1.1034
1.10852
1.1154
1.12371
1.13555
1.15563
1.17044
1.21906
1.20697
1.25567
1.16895
1.13806
0.984878
0.904566
0.794472
0.732627
0.674263
0.624949
0.582806
0.544664
0.520697
0.500227
0.479619
0.460996
0.448063
0.437279
0.426318
0.413261
0.405331
0.394327
0.386865
0.378474
0.374263
0.374474
0.375408
0.378657
0.383328
0.393861
0.412438
0.43534
0.469469
0.510932
0.554355
0.602396
0.646673
0.671763
0.689654
0.69762
0.703348
0.704977
0.703271
0.696706
0.681122
0.649565
0.603014
0.553453
0.51023
0.476194
0.446025
0.419271
0.397914
0.380267
0.36617
0.352347
0.340974
0.329817
0.321314
0.305454
0.295989
0.27223
0.260471
0.210547
0.19868
0.158892
1.00558
1.00454
1.00489
1.00528
1.00578
1.00635
1.00706
1.00786
1.00874
1.00978
1.01092
1.01211
1.01346
1.01491
1.01641
1.01802
1.01975
1.02152
1.0233
1.02527
1.02726
1.02923
1.03124
1.03342
1.03559
1.03773
1.03986
1.04225
1.04459
1.04691
1.04904
1.05123
1.05373
1.05601
1.05795
1.05966
1.06009
1.06243
1.05734
1.10559
1.06181
1.06936
1.07593
1.08048
1.08492
1.089
1.09304
1.09639
1.10115
1.10565
1.11015
1.10785
1.11234
1.0868
1.04119
0.928258
0.826321
0.760213
0.718247
0.671859
0.639268
0.609474
0.580573
0.561148
0.54082
0.525832
0.511876
0.499858
0.487997
0.474838
0.462416
0.452904
0.439993
0.430881
0.419879
0.409981
0.398108
0.388924
0.382231
0.380132
0.380652
0.382805
0.386472
0.394348
0.406872
0.431002
0.454468
0.491246
0.53441
0.583098
0.617529
0.644832
0.664954
0.677561
0.682088
0.683906
0.682497
0.673736
0.647094
0.607534
0.557847
0.516144
0.483289
0.453819
0.427253
0.405087
0.387092
0.372878
0.359949
0.348252
0.33769
0.329231
0.314561
0.305353
0.284316
0.273343
0.225921
0.214431
0.173208
1.0056
1.00456
1.00491
1.0053
1.00581
1.00639
1.0071
1.00792
1.00882
1.00986
1.01103
1.01226
1.01361
1.0151
1.01667
1.01829
1.02009
1.02195
1.02382
1.02583
1.02793
1.03005
1.03215
1.03446
1.03679
1.03908
1.04138
1.04391
1.04649
1.04902
1.05136
1.05379
1.05623
1.05889
1.06184
1.06505
1.06908
1.07578
1.08267
1.11857
1.08928
1.08372
1.08228
1.08291
1.08395
1.08533
1.08614
1.08712
1.0871
1.0858
1.07842
1.06292
1.00774
0.915533
0.789141
0.725731
0.692616
0.661169
0.642856
0.620109
0.60535
0.589676
0.578835
0.564393
0.557978
0.546885
0.535423
0.528774
0.518733
0.50903
0.498571
0.489321
0.47668
0.466183
0.454105
0.44316
0.428702
0.416584
0.404507
0.396284
0.392014
0.391042
0.392194
0.395367
0.400226
0.41273
0.428311
0.45333
0.481239
0.52186
0.565326
0.61023
0.636339
0.65235
0.662346
0.665872
0.666931
0.664501
0.643049
0.606636
0.561245
0.519451
0.487842
0.458616
0.432855
0.410244
0.39156
0.376843
0.364407
0.352722
0.343444
0.335345
0.322693
0.313834
0.295856
0.285286
0.242024
0.230436
0.185812
1.00562
1.00458
1.00494
1.00533
1.00584
1.00643
1.00714
1.00798
1.00891
1.00994
1.01113
1.01242
1.01377
1.01531
1.01693
1.01859
1.02045
1.02239
1.02436
1.02639
1.02862
1.03088
1.03313
1.0355
1.03797
1.04046
1.04293
1.04544
1.04827
1.05104
1.05375
1.05618
1.05872
1.06163
1.06507
1.06833
1.07337
1.06738
1.12784
1.07627
1.08025
1.07647
1.07842
1.07845
1.08006
1.08052
1.08169
1.0816
1.07844
1.06824
1.04592
0.981293
0.877082
0.75733
0.693025
0.663481
0.645564
0.626837
0.614644
0.60807
0.599643
0.593512
0.585955
0.58224
0.574338
0.56508
0.560408
0.551861
0.543915
0.537561
0.529617
0.521172
0.510246
0.500803
0.489512
0.479639
0.467947
0.455992
0.440274
0.42781
0.416448
0.410157
0.406679
0.405257
0.406929
0.411345
0.418929
0.434808
0.454654
0.482638
0.518845
0.559741
0.597062
0.624354
0.645642
0.655157
0.6566
0.656987
0.636358
0.606762
0.562181
0.523812
0.49289
0.46433
0.439005
0.416268
0.397549
0.382802
0.370873
0.359675
0.351386
0.343686
0.33213
0.32378
0.308591
0.299227
0.259661
0.245163
0.197771
1.00565
1.0046
1.00496
1.00535
1.00587
1.00648
1.00719
1.00803
1.00899
1.01003
1.01124
1.01256
1.01395
1.01552
1.0172
1.01893
1.0208
1.02283
1.02491
1.027
1.02932
1.0317
1.03412
1.03653
1.03917
1.04185
1.04447
1.04711
1.04998
1.05289
1.05574
1.05844
1.06089
1.06317
1.06551
1.06661
1.06919
1.05991
1.11397
1.03496
1.04863
1.05708
1.06248
1.06601
1.06801
1.06954
1.0686
1.06629
1.05637
1.03404
0.967124
0.86663
0.749802
0.693368
0.665422
0.644494
0.6297
0.621048
0.616326
0.608338
0.603508
0.601012
0.598573
0.593696
0.587482
0.585595
0.57904
0.572311
0.568188
0.55986
0.553698
0.546836
0.538153
0.530309
0.520014
0.511356
0.501185
0.490756
0.477296
0.463868
0.447674
0.435987
0.427644
0.423329
0.421625
0.421488
0.425599
0.431911
0.444263
0.464574
0.48923
0.52166
0.560668
0.596301
0.621333
0.637409
0.640539
0.643186
0.628443
0.602906
0.561842
0.525026
0.495534
0.46795
0.44414
0.422118
0.403144
0.387924
0.376426
0.365959
0.358553
0.351524
0.340968
0.332879
0.319333
0.31026
0.272615
0.259468
0.210357
1.00568
1.00462
1.00498
1.00538
1.0059
1.00652
1.00724
1.00809
1.00907
1.01013
1.01135
1.01271
1.01415
1.01572
1.01746
1.01928
1.02116
1.02327
1.02545
1.02766
1.03
1.03251
1.03506
1.03761
1.04038
1.0432
1.04605
1.04877
1.05151
1.05471
1.05777
1.06063
1.06321
1.0654
1.06727
1.06956
1.07137
1.07068
1.10364
1.06966
1.06814
1.06521
1.06511
1.06423
1.06332
1.06255
1.05863
1.04869
1.02586
0.954434
0.859318
0.74352
0.692956
0.667804
0.649433
0.638648
0.631264
0.627206
0.621214
0.616156
0.612965
0.609948
0.606517
0.603492
0.602436
0.599445
0.594645
0.593169
0.586915
0.580684
0.575852
0.569607
0.562841
0.556331
0.547206
0.539436
0.529104
0.519957
0.509028
0.49791
0.483463
0.470029
0.457019
0.448111
0.442608
0.440021
0.439209
0.440682
0.446838
0.457767
0.474722
0.498072
0.528269
0.562126
0.59396
0.619577
0.632175
0.635964
0.625967
0.598389
0.564359
0.528336
0.499947
0.472323
0.449541
0.427454
0.408434
0.393025
0.38149
0.371771
0.365299
0.359183
0.349557
0.342526
0.328756
0.319964
0.286549
0.278212
0.225611
1.0057
1.00464
1.00501
1.00541
1.00593
1.00657
1.00729
1.00815
1.00915
1.01025
1.01147
1.01286
1.01436
1.01594
1.01773
1.01962
1.02156
1.02372
1.02599
1.02833
1.03071
1.03332
1.036
1.03871
1.04149
1.0445
1.04751
1.05043
1.05331
1.05639
1.05968
1.06306
1.06643
1.06971
1.07366
1.08208
1.08441
1.12733
1.10561
1.08247
1.07747
1.07058
1.07019
1.06817
1.06642
1.06029
1.04897
1.0226
0.950854
0.844276
0.755185
0.690588
0.669429
0.656664
0.648123
0.63937
0.636566
0.633626
0.630689
0.627339
0.624569
0.62054
0.617287
0.615787
0.614016
0.611464