/*--------------------------------*- C++ -*----------------------------------*\
| =========                 |                                                 |
| \\      /  F ield         | OpenFOAM: The Open Source CFD Toolbox           |
|  \\    /   O peration     | Version:  2.2.x                                 |
|   \\  /    A nd           | Web:      www.OpenFOAM.org                      |
|    \\/     M anipulation  |                                                 |
\*---------------------------------------------------------------------------*/
FoamFile
{
    version     2.0;
    format      ascii;
    class       volScalarField;
    location    "1.5";
    object      By;
}
// * * * * * * * * * * * * * * * * * * * * * * * * * * * * * * * * * * * * * //

dimensions      [1 0 -2 0 0 -1 0];

internalField   nonuniform List<scalar> 
14161
(
-2.74656e-06
2.55884e-07
-8.8001e-08
-8.17339e-08
3.48907e-07
2.06303e-06
-2.3238e-06
1.1447e-06
9.3885e-07
7.06072e-08
5.88263e-06
2.86182e-06
-8.49621e-06
1.85817e-06
2.56838e-06
-6.70251e-06
5.53759e-06
4.35489e-06
1.53574e-06
8.90729e-07
4.28298e-06
3.54695e-06
7.75179e-06
3.47563e-07
9.07081e-06
2.37668e-06
1.92536e-05
2.12596e-05
3.85845e-05
5.23719e-05
7.54627e-05
0.00011456
0.000161982
0.000245813
0.000386629
0.000479891
0.000734903
0.000748927
0.00119153
0.000344809
-0.00733515
-0.111426
-0.142424
-0.00850019
0.0211514
0.0188018
0.0122094
0.0130999
0.0124675
0.0129545
0.0132231
0.0157868
0.0158229
0.0121853
0.0092766
0.0076643
0.00621915
0.00350194
0.001976
0.000664984
-0.000561396
-0.00181149
-0.00295594
-0.0033368
-0.00345934
-0.00364946
-0.00387856
-0.00407246
-0.00429981
-0.00441669
-0.00440711
-0.00431248
-0.00441779
-0.00432038
-0.00477641
-0.00468308
-0.00456518
-0.00503568
-0.00489671
-0.00412173
-0.00277318
-0.00200496
-0.00103547
2.8955e-05
0.00143456
0.00184501
0.0029233
-0.000314833
-0.00414699
-0.00646617
0.00411939
0.0400199
0.111469
0.151046
0.122504
0.0852705
0.0469443
0.0215568
0.0123833
0.0107386
0.0113119
0.00955653
0.00730259
0.00615973
0.00502882
0.00490447
0.00502377
0.00583434
0.00681575
0.00795199
0.00982046
0.0119984
0.0144769
0.0184978
0.018766
0.0232918
0.0242741
0.0231435
0.0244365
-4.70006e-06
-7.75716e-08
-6.7095e-07
-9.24286e-08
-9.71778e-07
3.5302e-06
1.58619e-06
1.34115e-07
1.15033e-05
-1.07485e-05
3.62363e-06
1.91982e-05
-1.16773e-05
-5.79842e-07
3.00533e-05
-1.80523e-05
8.82505e-06
2.10247e-05
1.1641e-05
-1.13952e-05
4.03343e-05
4.36867e-06
1.96269e-05
7.06948e-06
1.92727e-05
6.21759e-06
1.56535e-05
1.69621e-06
-4.83268e-06
-2.22896e-05
-4.97147e-05
-8.57488e-05
-0.000142687
-0.000229187
-0.000374752
-0.00069536
-0.00126027
-0.00236863
-0.00462571
-0.0108356
-0.0418222
-0.216602
-0.141853
0.0220055
0.0302379
0.0180543
0.00845438
0.00873963
0.00647693
0.00662183
0.00871345
0.00857831
0.00778295
0.00537071
0.00307678
0.00111652
0.00143009
-0.000407789
-0.00100472
-0.00142336
-0.00182641
-0.00179281
-0.00212029
-0.00210872
-0.00233847
-0.00250607
-0.00223874
-0.00235662
-0.0026164
-0.0032586
-0.00366618
-0.00395084
-0.00371198
-0.00362179
-0.00364259
-0.00352696
-0.00296461
-0.00340387
-0.00291278
-0.0019179
-0.00049895
0.00057491
0.00234451
0.0031563
0.004165
0.00463496
0.00507105
0.00121249
0.00108079
0.00263609
0.0211946
0.110713
0.178896
0.200283
0.164879
0.119271
0.0972402
0.0779239
0.0581212
0.0451774
0.0328878
0.0272385
0.0237706
0.0211483
0.0194095
0.0185284
0.0190661
0.0201958
0.0241052
0.0289353
0.0349733
0.0406669
0.0480579
0.0576629
0.0578632
0.0657818
0.0595696
0.0712521
0.0654791
-6.99742e-06
-2.90023e-07
-9.01371e-07
-3.12422e-07
-6.58766e-07
6.69044e-06
-3.80797e-06
4.02707e-06
1.22809e-05
-9.23868e-06
8.28175e-06
1.83406e-05
-2.21298e-05
4.77035e-06
3.76092e-05
-2.54834e-05
1.19192e-05
2.63321e-05
1.75634e-05
3.0085e-06
4.82789e-05
1.36046e-05
3.46992e-05
1.29622e-05
3.15013e-05
1.99436e-05
4.21417e-05
4.56022e-05
6.43257e-05
8.03396e-05
9.27213e-05
0.000126242
0.000170367
0.000215355
0.000286603
0.000238108
-6.6043e-05
-0.000863036
-0.0030551
-0.0096982
-0.051107
-0.235156
-0.158651
-0.0228505
0.0121251
0.0171999
0.00673352
0.00638933
0.000922008
0.00285546
-0.00380948
-0.010806
-0.0113461
-0.0119331
-0.0135662
-0.0150853
-0.0143613
-0.0151143
-0.0141798
-0.0128621
-0.0122036
-0.0115667
-0.0108908
-0.0106981
-0.0103604
-0.00969171
-0.00901793
-0.00883545
-0.00916418
-0.00947871
-0.00983044
-0.00986789
-0.00999003
-0.0103573
-0.0102827
-0.00891936
-0.00813004
-0.00685305
-0.00599883
-0.00480531
-0.0035754
-0.0035358
-0.0026233
-0.00498334
-0.00330227
-0.000996478
0.0120992
0.035439
0.099474
0.149781
0.178938
0.230456
0.269903
0.259467
0.215413
0.162162
0.124673
0.0947856
0.0724616
0.0560888
0.0442141
0.0377239
0.0342594
0.0322308
0.0312067
0.0312706
0.0327035
0.0359022
0.0422975
0.0502285
0.0605861
0.0686002
0.0802992
0.0954471
0.0992022
0.109499
0.102267
0.114351
0.104618
-7.49541e-06
-7.24472e-07
-1.51833e-06
4.33772e-07
-9.97746e-07
6.13542e-06
2.74238e-08
4.47542e-06
1.65402e-05
-1.56187e-05
6.6309e-06
3.7939e-05
-2.42511e-05
3.3733e-06
6.28716e-05
-1.88652e-05
6.23089e-06
5.12175e-05
1.83593e-05
-1.51998e-06
6.3115e-05
2.63444e-05
6.31208e-05
1.83268e-05
4.74197e-05
4.41535e-05
3.06586e-05
2.57459e-05
3.08324e-05
1.96943e-05
2.05259e-06
-2.78281e-05
-7.06422e-05
-0.000138416
-0.000221894
-0.000384465
-0.00067875
-0.00107609
-0.00219314
-0.00458317
-0.0170014
-0.101643
-0.0603496
-0.0255511
-0.0151171
-0.0258954
-0.0397175
-0.0435499
-0.0452961
-0.0506421
-0.0492878
-0.0436389
-0.0422496
-0.040745
-0.0383796
-0.0366814
-0.0320136
-0.0301795
-0.0259564
-0.0223076
-0.0191528
-0.0164373
-0.013294
-0.0107177
-0.00869029
-0.00762991
-0.00716013
-0.00726763
-0.00755902
-0.00881013
-0.0103647
-0.0116068
-0.0122433
-0.0125696
-0.0119053
-0.010162
-0.00729981
-0.0042112
-0.00199214
-0.000465364
0.0027254
0.00455331
0.00750704
0.00870865
0.0182732
0.0315861
0.0830973
0.150421
0.221152
0.271529
0.281666
0.301341
0.302509
0.271448
0.21971
0.165927
0.135108
0.10611
0.082465
0.0662204
0.0574854
0.0533987
0.051036
0.0501687
0.0510802
0.0531944
0.0577931
0.0641168
0.0743544
0.0852139
0.0987406
0.106426
0.115492
0.129114
0.129835
0.143381
0.133982
0.150934
0.134442
-8.46407e-06
-8.60471e-07
-1.86858e-06
3.59249e-07
-1.06012e-06
6.18057e-06
1.65588e-06
6.53595e-06
1.92222e-05
-1.11945e-05
4.93623e-06
3.51597e-05
-1.35571e-05
-6.04921e-06
5.71428e-05
-9.89771e-06
6.86603e-07
4.69185e-05
3.05653e-05
2.51554e-05
5.67987e-05
3.19823e-05
6.33175e-05
4.23223e-05
5.33019e-05
5.74296e-05
4.57307e-05
6.06689e-05
8.36377e-05
9.43776e-05
0.000102946
0.000129939
0.000171502
0.000238438
0.000343079
0.000477629
0.000726697
0.000719725
0.000896769
-0.000367939
0.00370096
0.0424949
-0.00719892
-0.0522392
-0.0838863
-0.11311
-0.118738
-0.120126
-0.114365
-0.106728
-0.0975172
-0.0840781
-0.0803673
-0.0744488
-0.0656264
-0.0583425
-0.0503773
-0.0461354
-0.0378007
-0.0314925
-0.0257196
-0.0207736
-0.016904
-0.0128806
-0.0112864
-0.0093528
-0.00866653
-0.00900955
-0.00969692
-0.0104678
-0.0119794
-0.0137749
-0.0149397
-0.0153679
-0.0143565
-0.011612
-0.00728789
-0.00394191
-0.00243491
-0.000696071
0.00169424
0.00291085
0.00774243
0.0118841
0.0365635
0.0796311
0.186654
0.286727
0.358817
0.387402
0.386887
0.373441
0.341974
0.296165
0.234891
0.172442
0.138106
0.109892
0.087316
0.0786544
0.0757105
0.0745519
0.0729328
0.0730799
0.0739958
0.0756632
0.0798203
0.0854764
0.0949433
0.107895
0.121766
0.133233
0.140902
0.159418
0.15605
0.169943
0.161464
0.176774
0.161031
-8.02768e-06
-1.01305e-06
-2.18219e-06
1.11222e-06
-2.1281e-07
7.26137e-06
3.34403e-06
6.5096e-06
1.63509e-05
-5.02018e-06
9.2241e-06
3.64558e-05
-1.19391e-05
-7.44856e-06
6.63833e-05
-2.56525e-07
4.6596e-06
6.5231e-05
2.89953e-05
4.55713e-05
5.83192e-05
3.78715e-05
6.87748e-05
7.08378e-05
6.37135e-05
9.32055e-05
6.18876e-05
5.92386e-05
6.79214e-05
6.52178e-05
5.60838e-05
3.80662e-05
2.35689e-05
2.05093e-05
7.50375e-05
0.000294629
0.000865682
0.00205391
0.00429041
0.00952995
0.043306
0.212571
0.104667
-0.0768519
-0.146741
-0.190619
-0.18553
-0.179935
-0.165006
-0.14126
-0.127187
-0.112304
-0.101298
-0.0896369
-0.082562
-0.0725861
-0.0638833
-0.0565735
-0.0480972
-0.042444
-0.0340225
-0.0278425
-0.0217087
-0.0169681
-0.013749
-0.0110991
-0.0101382
-0.0105056
-0.0114252
-0.012606
-0.0147081
-0.0168099
-0.0178747
-0.0185026
-0.0178655
-0.0157687
-0.0121308
-0.00707087
-0.00161701
0.00230211
0.00993656
0.0201813
0.0402642
0.0571431
0.10486
0.171237
0.284253
0.374196
0.43269
0.457496
0.443936
0.416577
0.375621
0.32042
0.253132
0.187877
0.151647
0.117053
0.0964074
0.0872993
0.0859646
0.0852866
0.0869466
0.0906396
0.0947696
0.0983017
0.103778
0.110762
0.122472
0.136848
0.149617
0.164233
0.167763
0.182597
0.178149
0.18758
0.177336
0.194177
0.185053
-8.06234e-06
-8.70376e-07
-2.46006e-06
1.306e-06
-7.58048e-07
4.84611e-06
8.5438e-06
6.15395e-06
1.69581e-05
2.85209e-06
3.92037e-06
2.8777e-05
4.85955e-06
-5.29406e-07
5.29523e-05
1.59149e-05
7.74018e-06
6.25037e-05
3.86495e-05
5.74413e-05
5.68433e-05
6.35379e-05
7.88741e-05
8.54884e-05
7.26268e-05
0.000102903
7.43498e-05
7.09018e-05
0.000101959
0.000103909
9.98161e-05
0.000111012
0.000150476
0.000205741
0.0003715
0.000691901
0.00145529
0.00282644
0.00623803
0.0140096
0.0513035
0.225157
0.179296
-0.113281
-0.217098
-0.228047
-0.219079
-0.201301
-0.183479
-0.161505
-0.14245
-0.123948
-0.112907
-0.101375
-0.0926851
-0.0808248
-0.0726292
-0.0613919
-0.0534138
-0.0454563
-0.0369127
-0.0295147
-0.0219351
-0.0161965
-0.0127821
-0.0104763
-0.00900234
-0.00871169
-0.00925946
-0.0109834
-0.0129425
-0.0153987
-0.0169516
-0.0172491
-0.0161161
-0.0126955
-0.00788903
-0.00137803
0.00624335
0.010512
0.0208294
0.0370323
0.0683617
0.102775
0.175615
0.258475
0.366238
0.425938
0.470207
0.496702
0.489614
0.478636
0.448885
0.393681
0.306867
0.228812
0.181051
0.135708
0.112819
0.109873
0.109922
0.109404
0.110309
0.115123
0.119133
0.125319
0.131215
0.138063
0.148584
0.164695
0.174325
0.192565
0.189558
0.202137
0.200383
0.206842
0.190351
0.206054
0.204377
-7.16657e-06
-5.95745e-07
-2.42203e-06
1.97554e-06
5.33547e-07
5.06929e-06
1.1118e-05
7.03591e-06
1.06189e-05
1.48249e-05
8.16192e-06
2.01951e-05
1.89081e-05
5.80677e-06
3.95683e-05
3.78768e-05
1.3357e-05
6.2338e-05
5.27285e-05
7.2765e-05
6.01531e-05
7.56122e-05
9.33593e-05
0.000109249
9.38636e-05
0.000134486
0.000102589
0.000102221
0.000108849
0.000107514
0.000100704
8.34174e-05
7.88883e-05
6.25873e-05
0.000105205
0.000232248
0.00041819
0.000739321
0.000373536
0.000306952
0.0121009
0.0889031
0.0415169
-0.114305
-0.178464
-0.190942
-0.194344
-0.187278
-0.172258
-0.155886
-0.138667
-0.122711
-0.11014
-0.097436
-0.0898219
-0.0782794
-0.071349
-0.0609075
-0.0546992
-0.0453731
-0.0383935
-0.0300343
-0.0220563
-0.0155932
-0.0126171
-0.0107619
-0.00905687
-0.00908849
-0.0100068
-0.0121293
-0.0156585
-0.0191361
-0.0211775
-0.022304
-0.0217759
-0.0189704
-0.0133119
-0.00659132
0.0014635
0.00809768
0.0215327
0.0475364
0.0940451
0.160773
0.268344
0.341795
0.42947
0.487249
0.523883
0.548497
0.548349
0.53599
0.514279
0.46084
0.377498
0.282315
0.223883
0.170898
0.141445
0.130333
0.126427
0.125963
0.130045
0.138008
0.145188
0.152968
0.158795
0.166291
0.174009
0.19031
0.198885
0.217711
0.212731
0.220993
0.219378
0.222116
0.201281
0.213413
0.219063
-6.60188e-06
-1.25009e-07
-2.37568e-06
2.26899e-06
6.0916e-07
2.57871e-06
1.51242e-05
6.33664e-06
9.4092e-06
2.1676e-05
2.48597e-06
1.43163e-05
3.43762e-05
8.3881e-06
2.66011e-05
5.15807e-05
2.89263e-05
4.99565e-05
7.35487e-05
5.95247e-05
7.09443e-05
8.91239e-05
0.000105563
0.000116543
0.000105454
0.000138646
0.0001248
9.2538e-05
0.000125473
0.000103714
8.27142e-05
5.18554e-05
3.06389e-05
-1.02844e-05
-4.98885e-05
-2.24461e-05
5.67142e-05
3.94592e-05
0.000384185
-0.001989
-0.00793706
-0.0872561
-0.221939
-0.167851
-0.143689
-0.14304
-0.151659
-0.155462
-0.151007
-0.143201
-0.132503
-0.122456
-0.111417
-0.101659
-0.0933064
-0.0834897
-0.0765469
-0.0661622
-0.0583612
-0.0482349
-0.0402518
-0.0309276
-0.0234591
-0.0163215
-0.0124619
-0.00980637
-0.00778307
-0.0074977
-0.00853055
-0.0106541
-0.0141455
-0.0175399
-0.0190469
-0.0199375
-0.0188994
-0.0153366
-0.00824285
0.000294937
0.0103161
0.0192368
0.0383506
0.0781401
0.156117
0.263206
0.380675
0.430584
0.484688
0.522498
0.549309
0.573078
0.581557
0.571238
0.559954
0.521123
0.458167
0.371137
0.288741
0.220964
0.183498
0.162572
0.149912
0.144884
0.146932
0.154851
0.162997
0.173474
0.181445
0.191899
0.198746
0.214788
0.220589
0.240409
0.236257
0.241199
0.23543
0.235546
0.212429
0.220298
0.232154
-5.37453e-06
5.61244e-07
-1.96688e-06
2.99554e-06
2.39272e-06
2.7585e-06
1.78585e-05
8.74849e-06
2.13249e-06
3.5004e-05
1.29658e-05
-1.44223e-06
4.91812e-05
2.66378e-05
6.06516e-06
6.95681e-05
4.92015e-05
3.7326e-05
9.37577e-05
7.88893e-05
7.69082e-05
0.000109886
0.000123989
0.000142875
0.000130421
0.000183398
0.000173909
0.000145183
0.000153737
0.000144905
0.000139581
0.000118778
8.23335e-05
1.6126e-05
-9.18035e-05
-0.000276957
-0.000546602
-0.00133379
-0.00193316
-0.0072896
-0.0303562
-0.201656
-0.336379
-0.191318
-0.155447
-0.155489
-0.160811
-0.161719
-0.160746
-0.15283
-0.142738
-0.132549
-0.123351
-0.11292
-0.102819
-0.0927301
-0.0861911
-0.0743696
-0.0658234
-0.0536432
-0.0452756
-0.0352132
-0.0275694
-0.0201148
-0.0154073
-0.0118657
-0.0101093
-0.0100479
-0.0111372
-0.0133993
-0.0172112
-0.0210528
-0.0229815
-0.0237697
-0.0220685
-0.0164906
-0.00591504
0.00478819
0.0153718
0.0315006
0.0559219
0.113599
0.224878
0.345677
0.458688
0.512635
0.533651
0.57244
0.589196
0.618396
0.635075
0.626354
0.621169
0.594982
0.547234
0.469308
0.372321
0.283651
0.230592
0.196259
0.177206
0.169255
0.170038
0.177909
0.186061
0.197153
0.206331
0.218426
0.224471
0.23984
0.242847
0.262092
0.258146
0.261281
0.251661
0.248435
0.2226
0.22652
0.244774
-4.52351e-06
1.30661e-06
-1.36506e-06
3.28891e-06
2.83344e-06
1.40858e-06
2.05435e-05
9.47651e-06
-1.16593e-07
3.30495e-05
1.7092e-05
-5.89684e-06
5.47841e-05
3.603e-05
3.47925e-06
7.2612e-05
6.18935e-05
3.19795e-05
0.000103986
8.48896e-05
6.48985e-05
0.000138961
0.000114239
0.00015352
0.00013325
0.000194509
0.000188777
0.000131641
0.000140085
0.00012665
9.99064e-05
4.95372e-05
-4.43686e-05
-0.000241194
-0.000440928
-0.00085039
-0.00153396
-0.00269467
-0.00489916
-0.0107359
-0.0467801
-0.248522
-0.348387
-0.275067
-0.194463
-0.177777
-0.176411
-0.180278
-0.179704
-0.172166
-0.166676
-0.155495
-0.146892
-0.132701
-0.123262
-0.110042
-0.103185
-0.0890836
-0.0784751
-0.0640636
-0.053435
-0.0408101
-0.0319088
-0.0227209
-0.0168322
-0.0123213
-0.0100429
-0.0100238
-0.0109714
-0.0131142
-0.0167555
-0.0205507
-0.0232631
-0.0237747
-0.0219554
-0.0162972
-0.00395467
0.00906884
0.0226824
0.0515944
0.0953068
0.193912
0.332083
0.449076
0.512396
0.566124
0.579331
0.616535
0.62559
0.651812
0.674008
0.671803
0.669614
0.65537
0.618997
0.556467
0.463976
0.353621
0.274342
0.225116
0.200471
0.190208
0.190057
0.197485
0.206241
0.21875
0.228792
0.243554
0.249994
0.265582
0.266049
0.284323
0.279788
0.282844
0.268926
0.261367
0.233837
0.235318
0.257861
-3.03254e-06
2.3357e-06
-5.62427e-07
4.07209e-06
4.836e-06
2.69614e-06
1.91983e-05
1.64501e-05
-5.94901e-06
3.73372e-05
3.04746e-05
-1.17863e-05
5.70243e-05
4.76706e-05
4.81238e-06
7.57509e-05
7.87289e-05
3.00836e-05
0.000104308
0.000124371
5.77357e-05
0.000170472
0.00011816
0.0001803
0.000166435
0.000247566
0.00023453
0.000200915
0.000211902
0.000224112
0.000234606
0.000205453
0.000159498
7.23211e-05
-4.15498e-05
-0.000267762
-0.00064237
-0.00120073
-0.00242442
-0.00672261
-0.0322574
-0.187576
-0.318327
-0.325672
-0.278834
-0.260774
-0.241523
-0.240574
-0.234753
-0.221485
-0.214096
-0.197931
-0.184662
-0.164205
-0.153117
-0.134853
-0.121959
-0.103955
-0.0891645
-0.0721015
-0.0585897
-0.0454932
-0.0352976
-0.0264401
-0.0190555
-0.015273
-0.0126274
-0.0118379
-0.0124936
-0.0146012
-0.0182868
-0.0233817
-0.0273221
-0.0278734
-0.0255698
-0.0183902
-0.00497078
0.0140678
0.0366172
0.0769337
0.159963
0.292552
0.423741
0.521592
0.570064
0.615259
0.629929
0.665911
0.677986
0.698745
0.719423
0.724383
0.718596
0.708828
0.677541
0.625318
0.545795
0.421158
0.319074
0.253766
0.223394
0.209611
0.207782
0.21521
0.225324
0.239192
0.251667
0.269205
0.275162
0.291543
0.289966
0.307024
0.303214
0.306193
0.287457
0.274176
0.247409
0.246941
0.27015
-2.03144e-06
3.29836e-06
5.33239e-07
4.39765e-06
5.85777e-06
2.55667e-06
1.81996e-05
1.87e-05
-3.65108e-06
3.03261e-05
3.20891e-05
-2.76975e-06
4.78772e-05
5.75723e-05
1.79697e-05
6.16602e-05
9.83544e-05
4.42938e-05
9.33226e-05
0.00013193
8.99263e-05
0.000156361
0.000136907
0.000177205
0.000174379
0.000247576
0.000234484
0.000199059
0.000177605
0.000214692
0.000204878
0.000191539
0.000120463
1.7899e-05
-0.000118397
-0.00042351
-0.000631615
-0.0013114
-0.00103466
-0.00364718
-0.0175129
-0.117805
-0.317379
-0.388644
-0.373693
-0.352714
-0.322094
-0.304374
-0.28588
-0.262882
-0.25
-0.225977
-0.208095
-0.184987
-0.170565
-0.149855
-0.134588
-0.115579
-0.0990455
-0.0805996
-0.0661971
-0.0515077
-0.040802
-0.0303509
-0.0233675
-0.0187749
-0.015125
-0.0136736
-0.0143068
-0.0165236
-0.0204687
-0.0262487
-0.0312991
-0.0311477
-0.0285852
-0.0197314
-0.00169156
0.0254608
0.0646933
0.135132
0.264022
0.401822
0.491206
0.569311
0.611218
0.656452
0.670319
0.708382
0.729601
0.736782
0.758525
0.768801
0.763959
0.757746
0.735503
0.694818
0.623539
0.50538
0.378455
0.293427
0.254082
0.234973
0.231073
0.237841
0.248807
0.263126
0.27554
0.293559
0.299945
0.318195
0.315555
0.333699
0.328895
0.331266
0.308132
0.288636
0.26344
0.260965
0.282485
-4.01303e-07
4.55536e-06
1.76299e-06
4.91387e-06
8.02531e-06
4.64322e-06
1.51153e-05
2.17779e-05
4.9622e-07
2.62205e-05
4.16919e-05
6.8738e-06
3.69915e-05
6.5438e-05
3.33121e-05
4.9313e-05
0.000105971
6.8911e-05
7.71048e-05
0.000140539
0.000142647
0.000133751
0.000179224
0.000187552
0.000223219
0.000248391
0.000300839
0.000282938
0.000309528
0.000364315
0.000379592
0.000458044
0.000487393
0.000545973
0.000617412
0.000775052
0.000991307
0.00135822
0.00234446
0.000868295
-0.00873618
-0.0534218
-0.297698
-0.444076
-0.451438
-0.428394
-0.39632
-0.365975
-0.343118
-0.313243
-0.293242
-0.264555
-0.243917
-0.215744
-0.195539
-0.170242
-0.152414
-0.129588
-0.108505
-0.0856299
-0.0688468
-0.0546513
-0.0436206
-0.0324325
-0.0255645
-0.0198006
-0.0176
-0.0159295
-0.0163624
-0.018557
-0.0229023
-0.0285286
-0.0317588
-0.0313482
-0.0278204
-0.0180542
0.00161991
0.0382383
0.10876
0.22002
0.382144
0.499709
0.55259
0.624204
0.66082
0.705541
0.720912
0.758087
0.787529
0.787522
0.807594
0.815777
0.811107
0.800937
0.782245
0.748537
0.687616
0.582863
0.44309
0.335794
0.280212
0.254102
0.247884
0.254205
0.265956
0.280858
0.294153
0.31368
0.32296
0.343032
0.341457
0.361421
0.356514
0.356905
0.331601
0.305843
0.281855
0.276547
0.294991
7.30845e-07
5.68652e-06
3.39772e-06
4.97402e-06
9.25218e-06
6.61595e-06
1.08676e-05
2.55625e-05
7.97039e-06
1.32578e-05
4.75654e-05
2.17442e-05
2.20788e-05
7.40891e-05
5.26877e-05
3.32509e-05
0.000123368
0.000102324
4.87022e-05
0.000150927
0.000195337
0.00010978
0.000188404
0.000196668
0.000241588
0.000224825
0.000316808
0.000258582
0.000279862
0.000286521
0.000362617
0.000430811
0.000466422
0.000438697
0.000427899
0.000467557
0.000512006
0.000892677
0.00128905
0.000318914
-0.0141389
-0.0890497
-0.375341
-0.522507
-0.507682
-0.474692
-0.446126
-0.408741
-0.379985
-0.343956
-0.317671
-0.284137
-0.258203
-0.226272
-0.200536
-0.171869
-0.152167
-0.129958
-0.108593
-0.0861838
-0.0651245
-0.0515858
-0.0423948
-0.0337871
-0.0267538
-0.0209522
-0.0192923
-0.0183034
-0.018604
-0.020858
-0.0256535
-0.0318155
-0.0365969
-0.0374631
-0.0332919
-0.0214508
0.00584119
0.0644948
0.180116
0.333814
0.464464
0.573393
0.632967
0.684261
0.714247
0.756275
0.771351
0.80641
0.827439
0.828578
0.851223
0.857188
0.853272
0.843819
0.830006
0.801072
0.748753
0.654946
0.509845
0.376642
0.303315
0.27252
0.265241
0.272709
0.285803
0.301952
0.315824
0.335977
0.346559
0.368107
0.369681
0.392864
0.386419
0.38479
0.358017
0.326095
0.302812
0.293002
0.308458
2.38571e-06
7.08107e-06
4.88574e-06
5.44549e-06
1.05332e-05
9.50003e-06
8.07409e-06
2.55798e-05
1.70101e-05
5.53905e-06
5.07567e-05
3.98627e-05
1.3104e-05
7.6582e-05
7.18301e-05
2.92194e-05
0.000111948
0.000119514
6.83381e-05
0.000107315
0.00024217
0.000122718
0.000175401
0.000240394
0.00029407
0.000259405
0.000323389
0.000354165
0.000382245
0.000405658
0.000516768
0.000681267
0.000817019
0.00101373
0.00124387
0.00162753
0.00231049
0.00344223
0.00522978
0.0040792
-0.0172839
-0.190568
-0.573344
-0.589343
-0.541179
-0.490442
-0.462974
-0.42531
-0.396544
-0.361145
-0.333766
-0.300567
-0.273794
-0.24249
-0.217807
-0.188692
-0.162619
-0.134146
-0.107909
-0.0862726
-0.067336
-0.0512904
-0.0413901
-0.0332168
-0.0271389
-0.0218358
-0.0198986
-0.0186824
-0.0192954
-0.0220023
-0.0263039
-0.0319026
-0.038389
-0.0390778
-0.0337856
-0.0178811
0.0226843
0.120121
0.294173
0.482638
0.555408
0.641423
0.70148
0.757244
0.776465
0.811915
0.824552
0.858012
0.873326
0.874593
0.897662
0.902631
0.898228
0.8851
0.872518
0.845156
0.798486
0.711823
0.571786
0.420582
0.33162
0.295526
0.286265
0.293531
0.306332
0.322056
0.336157
0.356405
0.368566
0.391345
0.396306
0.420141
0.415328
0.412378
0.385913
0.349327
0.326003
0.310659
0.32361
3.58424e-06
8.22248e-06
6.8962e-06
5.63429e-06
1.11144e-05
1.49712e-05
4.06406e-06
2.3363e-05
2.79336e-05
-3.51552e-06
5.01317e-05
5.34386e-05
7.77076e-06
7.33892e-05
8.68835e-05
3.40878e-05
0.000105901
0.000149108
8.44302e-05
9.59318e-05
0.000263019
0.000186062
9.70138e-05
0.000253116
0.000334647
0.000280097
0.000262134
0.000369179
0.000407615
0.00039859
0.000396446
0.000447831
0.000729219
0.000821322
0.000762035
0.000651736
0.00049513
0.000429697
-0.000484207
-0.0070865
-0.0532586
-0.361378
-0.75052
-0.712824
-0.620518
-0.543761
-0.498295
-0.451114
-0.41792
-0.379255
-0.349076
-0.313316
-0.284801
-0.251159
-0.225168
-0.192942
-0.161877
-0.129927
-0.102844
-0.082806
-0.0658768
-0.050197
-0.038581
-0.0306794
-0.0251237
-0.0207541
-0.0190632
-0.0183588
-0.0197656
-0.0231518
-0.0269077
-0.0329377
-0.0375098
-0.0381977
-0.0304618
-0.00358401
0.06238
0.210086
0.421024
0.575133
0.683559
0.738603
0.772692
0.818351
0.845735
0.873993
0.87968
0.907209
0.911097
0.913896
0.933115
0.935469
0.941142
0.930425
0.919771
0.893137
0.851627
0.773679
0.6423
0.474601
0.364757
0.320244
0.30681
0.313009
0.325688
0.342104
0.356537
0.377563
0.390961
0.415787
0.422795
0.446008
0.443218
0.441648
0.416613
0.376262
0.351824
0.330205
0.340833
5.20621e-06
9.73178e-06
8.36859e-06
6.78435e-06
1.06412e-05
1.83947e-05
2.95522e-06
1.90389e-05
3.44054e-05
-1.55555e-06
3.90964e-05
6.74042e-05
1.87962e-05
5.82798e-05
0.000105056
5.85185e-05
7.15817e-05
0.000156041
0.000132967
7.15258e-05
0.000230852
0.00022038
0.000142727
0.000183271
0.000401037
0.000371016
0.000267902
0.000316118
0.000542107
0.000574692
0.000583496
0.000555213
0.000529866
0.00091392
0.00116429
0.00098648
0.000711756
1.13356e-06
-0.00227041
-0.0138135
-0.0997892
-0.538632
-0.791821
-0.784854
-0.712657
-0.623247
-0.549254
-0.4891
-0.454567
-0.410096
-0.380326
-0.339775
-0.310286
-0.273823
-0.244342
-0.208283
-0.174417
-0.138725
-0.109905
-0.0871029
-0.0692108
-0.0530331
-0.0407872
-0.0327943
-0.0270649
-0.0220491
-0.0207065
-0.0199921
-0.0224327
-0.0248397
-0.027211
-0.0307016
-0.0349723
-0.0311476
-0.00880771
0.0528635
0.20355
0.413747
0.58199
0.67255
0.75357
0.829968
0.857871
0.8912
0.912965
0.937741
0.944768
0.961207
0.96077
0.956375
0.969582
0.964581
0.969913
0.962383
0.952977
0.931472
0.895192
0.823439
0.694063
0.51946
0.398364
0.34748
0.331502
0.336718
0.349071
0.365711
0.379564
0.4004
0.414046
0.43919
0.446727
0.469205
0.467846
0.468171
0.446307
0.40551
0.380935
0.351904
0.360098
6.47371e-06
1.08025e-05
9.95087e-06
8.19673e-06
9.73965e-06
2.31912e-05
4.53284e-06
1.20061e-05
4.20644e-05
8.44937e-06
2.34934e-05
7.64446e-05
3.66555e-05
3.78794e-05
0.000114633
8.83159e-05
5.24258e-05
0.000165997
0.000168837
9.32205e-05
0.00019093
0.000280844
0.000202621
0.00014409
0.000340454
0.000435245
0.000353263
0.000214909
0.000376041
0.000648092
0.00061866
0.000416455
0.000281548
0.000520229
0.00103694
0.00124725
0.00108129
0.00126391
-0.00102989
-0.0179883
-0.163692
-0.670282
-0.812387
-0.816251
-0.785422
-0.722405
-0.655249
-0.573389
-0.52186
-0.461242
-0.420479
-0.370827
-0.332491
-0.289993
-0.253786
-0.213623
-0.177178
-0.140268
-0.108304
-0.0825339
-0.0666849
-0.0517944
-0.0387829
-0.0304322
-0.0267446
-0.0219878
-0.0184259
-0.0173849
-0.0233794
-0.0254187
-0.0202488
-0.00626641
0.0025567
0.0343369
0.109029
0.2682
0.43756
0.602033
0.694867
0.774133
0.819897
0.859203
0.891194
0.918056
0.949148
0.970939
0.99713
1.00407
1.00497
0.997135
1.00423
0.996601
1.00158
0.993665
0.984027
0.96549
0.932271
0.866029
0.742091
0.567312
0.436091
0.378893
0.359064
0.361421
0.371736
0.387192
0.400161
0.420017
0.433714
0.458376
0.467635
0.490728
0.490859
0.494607
0.477314
0.439186
0.4128
0.37472
0.380557
8.0369e-06
1.23121e-05
1.12558e-05
1.01227e-05
9.28997e-06
2.17322e-05
1.11032e-05
5.59615e-06
4.24594e-05
2.268e-05
5.63991e-06
7.8291e-05
6.11262e-05
2.08688e-05
0.00011754
0.000120567
4.14539e-05
0.000132689
0.000205815
0.000136597
0.000108557
0.000261361
0.000282459
0.000168603
0.000260924
0.00045065
0.000418867
0.000278767
0.000315574
0.000761731
0.000777656
0.000613675
0.000393882
0.000247958
0.00049728
0.001281
0.00109075
0.000598355
-0.00511111
-0.0387684
-0.304131
-0.783198
-0.820143
-0.820656
-0.815083
-0.793455
-0.749056
-0.682063
-0.600636
-0.522788
-0.46995
-0.412415
-0.363736
-0.3117
-0.266683
-0.221374
-0.182576
-0.141249
-0.107594
-0.0774988
-0.062879
-0.0464463
-0.0361949
-0.0282472
-0.0294747
-0.0243006
-0.0137204
0.004455
0.0127651
0.0303262
0.0679597
0.154297
0.263849
0.315237
0.407425
0.514074
0.593405
0.680381
0.7395
0.789776
0.840713
0.889892
0.938838
0.967733
0.98513
0.999659
0.99765
1.00904
1.02259
1.02388
1.02509
1.02079
1.02783
1.02186
1.0138
0.996401
0.964415
0.901709
0.780065
0.607105
0.469662
0.408657
0.387095
0.386778
0.395489
0.41024
0.422435
0.441678
0.455053
0.479082
0.488769
0.511806
0.512935
0.517705
0.506391
0.474389
0.444078
0.397288
0.400706
9.31354e-06
1.3344e-05
1.22947e-05
1.20982e-05
9.17146e-06
2.18472e-05
1.93935e-05
-3.53318e-07
4.02912e-05
4.12658e-05
-1.74281e-06
6.93893e-05
8.10632e-05
2.05744e-05
9.69954e-05
0.000140061
6.89814e-05
0.000104878
0.000225009
0.000185354
8.07842e-05
0.000255791
0.000343299
0.00025273
0.000164704
0.000431601
0.000477051
0.000419955
0.000187875
0.000334986
0.000753215
0.000690991
0.000470591
8.48258e-05
-8.93282e-05
6.6433e-05
0.000391728
-0.00127549
-0.010873
-0.0749851
-0.462083
-0.802826
-0.845057
-0.842686
-0.840139
-0.828758
-0.804358
-0.768518
-0.693412
-0.639027
-0.551434
-0.487549
-0.408517
-0.349442
-0.283647
-0.229178
-0.183333
-0.138416
-0.105407
-0.0734291
-0.056634
-0.0350037
-0.021103
0.00290554
0.0059088
0.0366468
0.0744269
0.159796
0.263264
0.304013
0.368088
0.433203
0.503384
0.533332
0.568319
0.620523
0.661773
0.706178
0.743773
0.776831
0.809552
0.852879
0.895614
0.925732
0.942557
0.975492
1.0236
1.04363
1.0492
1.04955
1.04734
1.04445
1.04894
1.04181
1.03323
1.01817
0.990047
0.932901
0.817046
0.64784
0.506097
0.444327
0.421428
0.416218
0.420934
0.433713
0.444649
0.461889
0.474148
0.496736
0.506671
0.530769
0.532407
0.540893
0.535443
0.510635
0.474148
0.419083
0.421307
1.07859e-05
1.46973e-05
1.32481e-05
1.44525e-05
8.95011e-06
1.72331e-05
2.54748e-05
-8.79497e-07
3.06243e-05
5.03517e-05
2.78956e-06
4.68861e-05
9.48238e-05
4.10268e-05
7.01328e-05
0.00015739
0.000104057
6.50642e-05
0.000224074
0.000218536
9.9121e-05
0.000165871
0.000359937
0.000327796
0.000156048
0.000289607
0.00050644
0.000507676
0.000343265
0.00011517
0.000648426
0.000933688
0.000788406
0.000451263
-3.37896e-05
0.000107623
0.00114467
-0.000320635
-0.0139563
-0.120903
-0.589816
-0.834412
-0.86817
-0.865703
-0.861899
-0.858016
-0.847811
-0.829619
-0.79438
-0.74889
-0.664171
-0.58927
-0.486075
-0.402683
-0.311645
-0.23503
-0.17433
-0.117611
-0.0836083
-0.0445012
-0.0221451
0.0227393
0.0687658
0.160056
0.249887
0.280873
0.342778
0.404489
0.48573
0.521721
0.543411
0.576674
0.611965
0.643111
0.648837
0.667401
0.687695
0.712269
0.73889
0.762742
0.789486
0.819731
0.857121
0.899434
0.950748
0.991467
1.01245
1.01976
1.03091
1.0401
1.05143
1.06233
1.06346
1.06222
1.05483
1.03967
1.01206
0.956849
0.844015
0.680323
0.540242
0.479629
0.454709
0.444806
0.445929
0.45613
0.465959
0.482195
0.493684
0.515548
0.525873
0.552082
0.553675
0.566371
0.562189
0.541482
0.502156
0.44241
0.442586
1.20129e-05
1.56728e-05
1.36818e-05
1.69309e-05
1.05984e-05
1.32688e-05
3.32304e-05
6.92474e-06
1.70476e-05
6.29026e-05
2.54012e-05
2.24764e-05
0.000103081
7.04039e-05
3.97953e-05
0.000153178
0.000147133
6.24414e-05
0.000179906
0.000249423
0.000161529
0.000118806
0.000351745
0.000374124
0.000212996
0.000157994
0.000504764
0.000578737
0.000443631
1.12267e-05
6.66088e-05
0.000710757
0.000948123
0.000564689
0.000317271
-0.000138379
0.000419823
-0.0033471
-0.0285969
-0.226611
-0.741045
-0.840479
-0.857113
-0.8583
-0.859918
-0.862623
-0.861554
-0.854386
-0.840122
-0.814692
-0.768406
-0.699302
-0.589776
-0.494546
-0.357498
-0.236193
-0.143625
-0.0700263
0.0153689
0.0994669
0.205633
0.250477
0.325643
0.390577
0.462109
0.497374
0.529414
0.556354
0.592925
0.622874
0.637476
0.649674
0.661472
0.676855
0.68167
0.693785
0.704336
0.71795
0.73432
0.751141
0.771801
0.79244
0.820234
0.84947
0.889771
0.933332
0.958025
1.00433
1.04288
1.05761
1.06687
1.06263
1.06269
1.06333
1.06064
1.05146
1.02903
0.976759
0.867424
0.708844
0.572269
0.513953
0.487452
0.473125
0.471166
0.478109
0.486472
0.501972
0.513139
0.534842
0.545283
0.572897
0.573802
0.590567
0.585005
0.566869
0.529173
0.469038
0.464654
1.33755e-05
1.6912e-05
1.40336e-05
1.83883e-05
1.26574e-05
8.58219e-06
3.05183e-05
1.91923e-05
2.57485e-06
5.94901e-05
4.47019e-05
5.3003e-06
9.32976e-05
9.65144e-05
3.09406e-05
0.000131302
0.000179178
8.97396e-05
0.000109515
0.000261847
0.000236127
9.70308e-05
0.000252266
0.000389111
0.000307569
8.00694e-05
0.000354375
0.000618983
0.000570503