/*--------------------------------*- C++ -*----------------------------------*\
| =========                 |                                                 |
| \\      /  F ield         | OpenFOAM: The Open Source CFD Toolbox           |
|  \\    /   O peration     | Version:  2.2.x                                 |
|   \\  /    A nd           | Web:      www.OpenFOAM.org                      |
|    \\/     M anipulation  |                                                 |
\*---------------------------------------------------------------------------*/
FoamFile
{
    version     2.0;
    format      ascii;
    class       volScalarField;
    location    "1.55";
    object      Bx;
}
// * * * * * * * * * * * * * * * * * * * * * * * * * * * * * * * * * * * * * //

dimensions      [1 0 -2 0 0 -1 0];

internalField   nonuniform List<scalar> 
14161
(
1.00596
1.00477
1.00512
1.00547
1.00593
1.00645
1.00706
1.00777
1.00854
1.00942
1.01037
1.01133
1.01239
1.01349
1.01456
1.01566
1.0168
1.01786
1.01889
1.01988
1.0208
1.0216
1.02232
1.0229
1.02337
1.02373
1.02394
1.02406
1.02407
1.02397
1.02376
1.02341
1.02295
1.02237
1.02177
1.02115
1.02104
1.02232
1.02714
1.04721
1.06192
1.25478
1.30614
1.32929
1.32274
1.32287
1.32227
1.3251
1.32578
1.32756
1.32702
1.3258
1.32365
1.32046
1.31591
1.3111
1.3065
1.30161
1.29545
1.288
1.27999
1.27258
1.266
1.26007
1.2545
1.24933
1.24527
1.24217
1.23986
1.23834
1.23803
1.2388
1.23987
1.24091
1.24213
1.24332
1.24432
1.24536
1.24674
1.24876
1.25096
1.2532
1.25546
1.25678
1.25833
1.25983
1.26159
1.26248
1.26289
1.2666
1.27674
1.28069
1.26443
1.19864
1.07902
0.942922
0.82108
0.726117
0.653535
0.597331
0.554246
0.518485
0.489594
0.465733
0.444592
0.425623
0.407606
0.390034
0.371648
0.351415
0.327789
0.300413
0.267758
0.235893
0.187783
0.158759
0.096719
0.0796925
0.00182765
1.00597
1.00477
1.00513
1.00547
1.00592
1.00645
1.00708
1.00778
1.00855
1.00942
1.01037
1.01134
1.01239
1.0135
1.01457
1.01566
1.0168
1.01791
1.01899
1.01994
1.02083
1.02161
1.02232
1.02292
1.0234
1.02377
1.02399
1.02411
1.02412
1.02402
1.02384
1.02354
1.02312
1.02263
1.02208
1.02159
1.02097
1.02117
1.02081
1.027
1.02423
1.05203
1.05277
1.06221
1.06139
1.06831
1.07082
1.0771
1.0845
1.09246
1.10116
1.10981
1.11794
1.1274
1.1365
1.14423
1.15179
1.15982
1.16633
1.17222
1.1779
1.18453
1.18999
1.19384
1.19635
1.19852
1.20091
1.20307
1.20509
1.20736
1.20961
1.21164
1.21419
1.21706
1.21978
1.22236
1.22453
1.22622
1.22745
1.22818
1.22823
1.22664
1.22487
1.22339
1.22259
1.22285
1.22359
1.22074
1.20872
1.17395
1.12717
1.04344
0.968303
0.866024
0.796532
0.734666
0.688173
0.644465
0.610012
0.578772
0.548928
0.522309
0.498204
0.476589
0.456237
0.437507
0.419075
0.400513
0.381927
0.360899
0.336568
0.308187
0.274755
0.241077
0.192954
0.160987
0.104288
0.0840491
0.0115974
1.00597
1.00478
1.00513
1.00548
1.00593
1.00646
1.00708
1.00778
1.00856
1.00943
1.01038
1.01135
1.01241
1.01351
1.01459
1.01569
1.01683
1.0179
1.01892
1.01988
1.02081
1.02164
1.02237
1.02297
1.02346
1.02382
1.02402
1.02414
1.02414
1.02403
1.0238
1.02342
1.0229
1.02218
1.0213
1.02023
1.01893
1.01715
1.01508
1.0039
1.00628
0.903073
0.819756
0.85512
0.881792
0.910708
0.933454
0.958303
0.982035
1.00378
1.02555
1.04625
1.06322
1.08072
1.09761
1.111
1.12393
1.13656
1.14632
1.15502
1.1629
1.17067
1.17597
1.18036
1.18345
1.18592
1.18814
1.18926
1.18979
1.19027
1.19065
1.19167
1.1934
1.19594
1.1987
1.20142
1.20398
1.2056
1.20668
1.20675
1.20655
1.20431
1.19962
1.19339
1.18453
1.17426
1.16028
1.12798
1.06511
0.952483
0.842943
0.73427
0.65336
0.607591
0.576882
0.566082
0.56818
0.557275
0.547626
0.53237
0.51925
0.504459
0.488904
0.473084
0.456278
0.439046
0.420938
0.400902
0.378124
0.351827
0.322533
0.290145
0.254176
0.220655
0.175568
0.144839
0.0923114
0.0707805
0.0105754
1.00598
1.00478
1.00514
1.00549
1.00594
1.00647
1.00709
1.00779
1.00858
1.00944
1.01039
1.01137
1.0124
1.01353
1.01465
1.01575
1.01688
1.01795
1.01897
1.0199
1.02082
1.02166
1.02242
1.02302
1.02352
1.02388
1.02411
1.02426
1.02428
1.0242
1.02404
1.02378
1.02345
1.02303
1.02249
1.02169
1.02045
1.01805
1.01339
1.00159
0.975737
0.83494
0.716032
0.746682
0.772039
0.812687
0.849387
0.884452
0.918066
0.948816
0.978003
1.00652
1.02918
1.05085
1.07219
1.09063
1.105
1.11888
1.1331
1.14504
1.15352
1.15822
1.16384
1.1673
1.16978
1.17246
1.17455
1.17506
1.17517
1.17505
1.17506
1.17559
1.17594
1.17675
1.17781
1.17845
1.17865
1.17885
1.17794
1.17793
1.17638
1.17599
1.17077
1.16445
1.14966
1.12716
1.08727
1.00791
0.918901
0.810001
0.726002
0.639938
0.586911
0.546418
0.529612
0.531625
0.530352
0.532574
0.527797
0.520791
0.510584
0.498028
0.482901
0.464674
0.445368
0.422944
0.396545
0.369871
0.341207
0.309189
0.275657
0.242452
0.204321
0.174828
0.137875
0.1154
0.074712
0.059045
0.0103004
1.00598
1.00479
1.00514
1.00549
1.00595
1.00648
1.00709
1.0078
1.00858
1.00944
1.01039
1.0114
1.01244
1.01354
1.01466
1.01576
1.0169
1.01799
1.01902
1.01998
1.0209
1.0217
1.02244
1.02303
1.02354
1.02391
1.02417
1.02433
1.02436
1.02426
1.02403
1.02361
1.02303
1.02217
1.02101
1.01935
1.01678
1.0126
1.00584
0.98964
0.980928
0.875983
0.74715
0.788173
0.81031
0.8478
0.885464
0.9212
0.954513
0.985974
1.01459
1.03784
1.06031
1.07885
1.0974
1.11215
1.12515
1.13551
1.14533
1.15319
1.15879
1.16358
1.16661
1.16904
1.16996
1.16997
1.17009
1.17041
1.17068
1.17086
1.17089
1.17137
1.17161
1.17229
1.17292
1.17389
1.17462
1.17519
1.17524
1.17396
1.17315
1.17026
1.16465
1.14635
1.12885
1.09396
1.04782
0.958606
0.901958
0.808256
0.734353
0.658467
0.600504
0.552808
0.529119
0.518133
0.512705
0.504506
0.49734
0.485139
0.472297
0.456891
0.439325
0.418547
0.391774
0.364697
0.337971
0.306311
0.271573
0.241192
0.206278
0.180938
0.149262
0.130052
0.0989074
0.086228
0.0567283
0.0491261
0.0113457
1.00599
1.00479
1.00515
1.00551
1.00596
1.00648
1.0071
1.00781
1.0086
1.00946
1.01042
1.01142
1.01245
1.01355
1.0147
1.01584
1.01694
1.01805
1.01907
1.02005
1.02099
1.02181
1.02255
1.02317
1.02369
1.02408
1.02436
1.02453
1.02458
1.02453
1.02441
1.02425
1.02405
1.02387
1.02372
1.02361
1.02353
1.02316
1.02264
1.01534
1.02102
0.969186
0.853903
0.892406
0.929897
0.953745
0.991163
1.0189
1.04661
1.06849
1.0889
1.10355
1.12025
1.13104
1.14126
1.1486
1.15706
1.16197
1.16756
1.17091
1.17431
1.17679
1.17861
1.18024
1.18116
1.18141
1.18132
1.18108
1.18052
1.17959
1.17911
1.17811
1.178
1.1772
1.17729
1.17686
1.17658
1.17537
1.17236
1.16882
1.16482
1.15941
1.15502
1.14038
1.11823
1.05777
1.02434
0.951942
0.916398
0.856806
0.800625
0.73529
0.66622
0.601842
0.561351
0.521661
0.490412
0.47135
0.450705
0.435983
0.424299
0.408628
0.38682
0.364228
0.343429
0.317423
0.287145
0.262714
0.231526
0.204747
0.170243
0.146716
0.115337
0.100478
0.0723882
0.0633631
0.0422498
0.0400783
0.0148691
1.00599
1.0048
1.00515
1.00551
1.00596
1.00649
1.00711
1.00783
1.00863
1.00948
1.01042
1.01144
1.0125
1.01357
1.01472
1.01587
1.01699
1.0181
1.01914
1.02015
1.02108
1.02193
1.02265
1.0233
1.02383
1.02422
1.02451
1.02467
1.02472
1.02464
1.02441
1.02402
1.02347
1.02269
1.02164
1.02037
1.01884
1.01727
1.01586
1.02126
1.02286
1.08304
1.02995
1.11363
1.12717
1.14324
1.15551
1.16257
1.17101
1.17225
1.18202
1.17925
1.18941
1.18623
1.19367
1.19146
1.19903
1.19755
1.20445
1.20225
1.20746
1.20691
1.21092
1.21052
1.21276
1.21336
1.21389
1.21396
1.21406
1.21393
1.21405
1.21378
1.21455
1.21452
1.21534
1.21543
1.21562
1.21537
1.21399
1.21027
1.20891
1.20575
1.20537
1.18869
1.16849
1.10155
1.06296
0.974398
0.945251
0.895271
0.855954
0.804942
0.744653
0.662582
0.588898
0.520012
0.479437
0.447247
0.421473
0.401838
0.380551
0.364232
0.34975
0.332703
0.305713
0.28106
0.254291
0.227367
0.199141
0.1801
0.150321
0.130458
0.0985877
0.0877225
0.0604399
0.053362
0.0346328
0.0357019
0.0185908
1.00599
1.00481
1.00516
1.00552
1.00597
1.00651
1.00712
1.00784
1.00865
1.00951
1.01044
1.01147
1.01253
1.01361
1.01477
1.01593
1.01703
1.01817
1.01922
1.02026
1.0212
1.02206
1.0228
1.02348
1.02404
1.02446
1.02479
1.02497
1.02508
1.02506
1.02501
1.02493
1.02491
1.02511
1.02563
1.02686
1.02928
1.03358
1.0407
1.05713
1.07272
1.20826
1.30595
1.28793
1.27653
1.26468
1.25556
1.24606
1.24173
1.23434
1.23367
1.22679
1.22938
1.22492
1.22988
1.22648
1.23208
1.22975
1.23512
1.23304
1.2383
1.23747
1.24206
1.24209
1.24455
1.24557
1.24682
1.24791
1.24918
1.25
1.25032
1.25154
1.25115
1.25179
1.25088
1.2505
1.24819
1.24672
1.24421
1.23943
1.23589
1.2294
1.22272
1.19868
1.18066
1.09552
1.07397
1.0024
0.965099
0.921881
0.88061
0.830471
0.778828
0.721374
0.65184
0.5699
0.511689
0.456515
0.413034
0.381635
0.361383
0.341724
0.321249
0.303296
0.287821
0.267086
0.239742
0.218494
0.190219
0.170348
0.142402
0.125797
0.0921712
0.0826728
0.05633
0.0509356
0.0321812
0.0356865
0.0195622
1.00599
1.00481
1.00517
1.00552
1.00598
1.00652
1.00714
1.00785
1.00866
1.00953
1.01046
1.0115
1.01257
1.01365
1.01481
1.01598
1.01709
1.01824
1.01932
1.02038
1.02133
1.02223
1.02297
1.02368
1.02424
1.0247
1.02505
1.02524
1.02533
1.0253
1.02513
1.0248
1.02429
1.02366
1.02285
1.02199
1.02113
1.02092
1.02112
1.02778
1.02342
1.1172
1.19081
1.24662
1.2444
1.24313
1.23781
1.2329
1.22677
1.22644
1.22135
1.22544
1.22453
1.23037
1.23207
1.23649
1.24204
1.242
1.248
1.2473
1.25229
1.25248
1.25616
1.25688
1.25864
1.25957
1.2606
1.26123
1.26162
1.26194
1.26229
1.26156
1.26272
1.26318
1.26417
1.26413
1.26529
1.26374
1.26521
1.26155
1.26055
1.25467
1.2435
1.20144
1.16328
1.0708
1.02753
0.994308
0.95032
0.918998
0.885708
0.84765
0.807887
0.763887
0.706251
0.628089
0.549281
0.469925
0.419717
0.383792
0.351236
0.326916
0.30922
0.293353
0.273195
0.255613
0.236037
0.214425
0.188047
0.170101
0.144261
0.128551
0.0946004
0.0848427
0.0578466
0.0539194
0.0340909
0.0388621
0.021887
1.00599
1.00482
1.00518
1.00553
1.00599
1.00653
1.00716
1.00787
1.00868
1.00956
1.01049
1.01153
1.01261
1.01369
1.01486
1.01603
1.01717
1.01833
1.01943
1.02049
1.02148
1.0224
1.02318
1.02394
1.02455
1.02505
1.02544
1.02568
1.02584
1.02587
1.02583
1.02576
1.02569
1.02569
1.02589
1.02637
1.02727
1.02882
1.02986
1.0317
1.02414
1.03549
0.995395
1.05166
1.08114
1.10025
1.11053
1.11915
1.13065
1.13759
1.1512
1.15934
1.17127
1.17958
1.19108
1.19926
1.21026
1.21384
1.22384
1.22662
1.23399
1.23645
1.2411
1.24336
1.24612
1.24859
1.25077
1.25316
1.25524
1.25717
1.25929
1.26072
1.26197
1.26368
1.2647
1.26508
1.26582
1.2633
1.26446
1.26153
1.25535
1.24853
1.2064
1.16013
1.08667
1.06354
1.00434
0.99066
0.95259
0.921502
0.893281
0.855175
0.819934
0.778244
0.72463
0.646396
0.558626
0.473086
0.419392
0.382884
0.356302
0.333995
0.310947
0.292606
0.277194
0.260955
0.23965
0.222389
0.197328
0.178261
0.152006
0.137957
0.104458
0.0937595
0.0645957
0.06111
0.0398494
0.0435226
0.0262214
1.006
1.00482
1.00518
1.00554
1.006
1.00655
1.00718
1.00788
1.0087
1.00959
1.01053
1.01157
1.01267
1.01376
1.01491
1.01611
1.01727
1.01842
1.01958
1.02064
1.02163
1.02258
1.02342
1.02421
1.02486
1.02541
1.02581
1.02608
1.02626
1.02629
1.02615
1.02589
1.02541
1.02477
1.02386
1.02257
1.02038
1.01739
1.01239
1.00496
0.993159
0.966398
0.915675
0.954421
0.966524
1.00496
1.01979
1.04348
1.06473
1.08503
1.10627
1.12234
1.14209
1.15631
1.17309
1.18305
1.1979
1.2038
1.21618
1.21874
1.22787
1.22865
1.23516
1.23588
1.23936
1.24072
1.2431
1.24511
1.24744
1.24911
1.25046
1.25185
1.25248
1.25362
1.25434
1.25581
1.25646
1.25907
1.25589
1.25894
1.24112
1.22519
1.15805
1.12051
1.05267
1.04044
0.99531
0.967217
0.946723
0.911229
0.889202
0.85316
0.817354
0.773245
0.724907
0.665647
0.594839
0.517253
0.451218
0.408313
0.374639
0.351421
0.329846
0.310776
0.293655
0.277152
0.259341
0.240542
0.214487
0.195502
0.167263
0.151444
0.119291
0.106844
0.0745722
0.0715896
0.0474421
0.0497322
0.0314929
1.006
1.00483
1.00519
1.00555
1.00601
1.00656
1.0072
1.00791
1.00872
1.00963
1.01057
1.01161
1.01272
1.01383
1.01499
1.0162
1.01739
1.01853
1.01972
1.02082
1.02184
1.02283
1.02373
1.02454
1.02526
1.02588
1.02632
1.02667
1.02692
1.02706
1.02705
1.02694
1.02671
1.02631
1.02573
1.02492
1.02367
1.02211
1.01958
1.01735
1.00314
0.982682
0.877501
0.905893
0.918995
0.956214
0.978034
1.01053
1.0389
1.06544
1.09183
1.11119
1.13659
1.15297
1.17148
1.18071
1.19891
1.20389
1.21799
1.21906
1.22888
1.22857
1.23565
1.23545
1.23998
1.24099
1.24368
1.24506
1.24709
1.24906
1.25013
1.25199
1.25318
1.25582
1.25806
1.26042
1.26193
1.26223
1.25398
1.24407
1.2162
1.17814
1.11378
1.0986
1.04901
1.02655
0.998214
0.969785
0.941641
0.906886
0.881659
0.849121
0.81977
0.779695
0.738053
0.687419
0.627865
0.553446
0.482145
0.424149
0.385152
0.361373
0.341174
0.322938
0.306094
0.290442
0.272964
0.255094
0.230775
0.21027
0.182175
0.166954
0.136585
0.123595
0.0881076
0.0849463
0.0565166
0.0551378
0.0382477
1.006
1.00484
1.0052
1.00556
1.00603
1.00657
1.00722
1.00793
1.00875
1.00966
1.01063
1.01165
1.01277
1.01392
1.01506
1.01631
1.01752
1.01867
1.0199
1.02106
1.02209
1.02309
1.02408
1.02488
1.02565
1.02633
1.02684
1.02726
1.02753
1.02773
1.02777
1.0277
1.02744
1.02699
1.02616
1.02479
1.0228
1.02089
1.01731
1.01339
0.996801
0.994079
0.886235
0.925405
0.946565
0.977055
1.00212
1.03719
1.06686
1.09305
1.12316
1.14201
1.16902
1.17999
1.19941
1.20552
1.22357
1.22415
1.23885
1.237
1.24816
1.24589
1.25337
1.2503
1.25446
1.25316
1.25433
1.2542
1.25497
1.25539
1.25584
1.2562
1.25681
1.25648
1.25569
1.25416
1.25188
1.24443
1.22768
1.2039
1.1577
1.10678
1.06547
1.06463
1.02923
1.01058
0.990153
0.968243
0.947799
0.911961
0.887385
0.851832
0.820424
0.777537
0.736534
0.686927
0.635293
0.565749
0.496406
0.422352
0.379468
0.356126
0.338541
0.323481
0.3098
0.296602
0.282134
0.268195
0.250104
0.23223
0.206756
0.188795
0.157874
0.142275
0.102522
0.095929
0.0644398
0.0604838
0.044137
1.00601
1.00484
1.00521
1.00557
1.00604
1.00659
1.00724
1.00797
1.00877
1.00969
1.01068
1.01169
1.01284
1.01401
1.01517
1.01642
1.01766
1.01885
1.02009
1.02128
1.02238
1.02342
1.02448
1.02536
1.02618
1.02691
1.02758
1.02806
1.02843
1.02874
1.02897
1.02905
1.02894
1.02864
1.02814
1.02751
1.0264
1.02539
1.0237
1.02494
1.01972
1.07397
0.968191
1.0326
1.04371
1.06821
1.09002
1.11957
1.1465
1.16846
1.19964
1.21301
1.24036
1.24432
1.26485
1.26526
1.28283
1.27878
1.29328
1.28893
1.29913
1.29545
1.30242
1.29925
1.30158
1.30084
1.30063
1.29975
1.29929
1.2983
1.29777
1.29675
1.29716
1.29786
1.29794
1.29913
1.29901
1.30087
1.28376
1.25784
1.21181
1.18046
1.09271
1.08255
1.05315
1.0296
1.00357
0.979466
0.959867
0.929881
0.907261
0.873412
0.841232
0.796644
0.75191
0.701944
0.648842
0.582457
0.511524
0.440177
0.392948
0.368604
0.350811
0.33551
0.322434
0.309886
0.296499
0.282394
0.267433
0.250231
0.226367
0.208041
0.176381
0.158379
0.113627
0.105984
0.0727377
0.0672041
0.0510675
1.00601
1.00485
1.00522
1.00558
1.00606
1.0066
1.00726
1.008
1.00881
1.00973
1.01073
1.01176
1.01291
1.0141
1.01529
1.01655
1.01782
1.01905
1.02028
1.02153
1.0227
1.02379
1.02489
1.02588
1.02673
1.02753
1.02829
1.02889
1.02934
1.02973
1.03011
1.03038
1.03065
1.03091
1.03141
1.03219
1.03332
1.03517
1.03677
1.04414
1.0348
1.12891
1.07621
1.12355
1.14119
1.16458
1.18594
1.21018
1.232
1.24272
1.26769
1.26987
1.29363
1.28896
1.30765
1.30105
1.31528
1.30836
1.3213
1.31595
1.32361
1.31932
1.32461
1.32268
1.32319
1.32248
1.32271
1.32226
1.32211
1.32186
1.32176
1.32183
1.32169
1.32124
1.32143
1.3212
1.32043
1.31245
1.29837
1.24977
1.18017
1.17637
1.10349
1.05584
1.03851
1.00628
0.981034
0.950497
0.929566
0.904848
0.882245
0.851205
0.824954
0.788626
0.754691
0.713358
0.66764
0.611131
0.540286
0.474455
0.417737
0.390629
0.368478
0.351351
0.337182
0.323723
0.309157
0.294632
0.280885
0.264177
0.241454
0.222573
0.191937
0.173035
0.12777
0.118822
0.0833894
0.0756474
0.0579161
1.00602
1.00486
1.00523
1.0056
1.00607
1.00662
1.00728
1.00803
1.00885
1.00978
1.01079
1.01184
1.01298
1.01419
1.01543
1.01667
1.018
1.01929
1.02051
1.0218
1.02304
1.0242
1.02531
1.02641
1.02738
1.02826
1.02911
1.02991
1.03054
1.03104
1.03151
1.03198
1.0323
1.03237
1.03212
1.0317
1.03088
1.03004
1.02792
1.03076
1.01611
1.06901
1.08177
1.14856
1.17585
1.20799
1.22781
1.25234
1.26926
1.27691
1.29868
1.29426
1.31672
1.30786
1.32603
1.31782
1.33153
1.32483
1.33564
1.3312
1.3377
1.3339
1.33823
1.33753
1.33888
1.33937
1.3403
1.34096
1.34148
1.34196
1.34233
1.34304
1.34317
1.34313
1.34298
1.34312
1.34199
1.34417
1.3015
1.27729
1.18466
1.13742
1.11166
1.06281
1.01431
0.975954
0.939959
0.9177
0.89456
0.87955
0.857526
0.830519
0.809383
0.783487
0.755972
0.723024
0.683072
0.634383
0.568867
0.504865
0.442362
0.407934
0.382208
0.362985
0.34796
0.334976
0.320168
0.304441
0.290206
0.275044
0.253649
0.2373
0.209173
0.191924
0.146947
0.136743
0.0964319
0.0862925
0.0657913
1.00602
1.00487
1.00524
1.00561
1.00609
1.00664
1.0073
1.00806
1.00889
1.00982
1.01085
1.01193
1.01305
1.01429
1.01557
1.01683
1.01818
1.01953
1.02081
1.02211
1.02344
1.02467
1.02581
1.02701
1.02812
1.02909
1.03003
1.03094
1.03177
1.03246
1.03306
1.03373
1.03443
1.03523
1.03592
1.03643
1.03669
1.03667
1.03538
1.03589
1.02796
1.06532
1.08187
1.13605
1.15456
1.1945
1.22004
1.2443
1.26424
1.27064
1.29607
1.29031
1.31588
1.30833
1.33012
1.32064
1.33603
1.3279
1.33771
1.33168
1.33885
1.33481
1.33854
1.33704
1.3387
1.33848
1.3389
1.33959
1.34007
1.34024
1.34074
1.342
1.34306
1.34348
1.34379
1.34325
1.33398
1.31544
1.25592
1.21055
1.1848
1.11099
1.07255
1.05021
1.02125
0.991626
0.965295
0.935264
0.899908
0.867802
0.84898
0.824518
0.801649
0.776777
0.752919
0.723997
0.687921
0.646989
0.584659
0.523181
0.456591
0.415541
0.386511
0.365026
0.348733
0.336449
0.322762
0.308631
0.296022
0.284079
0.266279
0.252206
0.227151
0.211106
0.16934
0.156358
0.110484
0.0979511
0.0742366
1.00603
1.00488
1.00525
1.00563
1.00611
1.00667
1.00733
1.0081
1.00895
1.00986
1.01091
1.01201
1.01315
1.01441
1.01572
1.017
1.01839
1.01978
1.02114
1.02245
1.02386
1.02519
1.02641
1.02764
1.02888
1.03003
1.03106
1.03205
1.03312
1.0341
1.03494
1.03567
1.03648
1.03723
1.03777
1.03819
1.03868
1.03913
1.04118
1.04608
1.06027
1.09787
1.09879
1.1457
1.16196
1.20087
1.23514
1.25032
1.27661
1.2741
1.3021
1.29305
1.3211
1.31168
1.3354
1.32359
1.34116
1.33176
1.34156
1.3361
1.34278
1.34009
1.34371
1.34315
1.34342
1.34327
1.34409
1.34411
1.34397
1.3431
1.34351
1.34342
1.3429
1.33924
1.33557
1.32431
1.29373
1.23303
1.18721
1.10937
1.09742
1.07387
1.02985
1.00208
0.975417
0.951802
0.936062
0.920199
0.898112
0.867192
0.846189
0.829826
0.811255
0.789799
0.765064
0.734942
0.700047
0.659677
0.60362
0.539546
0.474481
0.430413
0.400795
0.377353
0.359512
0.346681
0.33307
0.319928
0.307052
0.29635
0.280445
0.26906
0.246018
0.230976
0.19278
0.179022
0.125837
0.111488
0.0838784
1.00604
1.00489
1.00526
1.00564
1.00613
1.0067
1.00736
1.00813
1.009
1.00992
1.01098
1.01211
1.01326
1.01454
1.01588
1.01721
1.0186
1.02006
1.02148
1.02284
1.02431
1.02575
1.02708
1.02834
1.02973
1.03104
1.03223
1.03338
1.03457
1.03578
1.03692
1.03792
1.03886
1.03982
1.04107
1.04248
1.04389
1.04512
1.04849
1.04049
1.10802
1.07151
1.08778
1.11208
1.14718
1.17219
1.22168
1.22958
1.26921
1.2628
1.29676
1.28649
1.31656
1.30693
1.33439
1.32455
1.34605
1.33986
1.34914
1.34456
1.35006
1.34926
1.35196
1.3519
1.35131
1.35165
1.35086
1.35103
1.34894
1.34538
1.33978
1.33084
1.322
1.2902
1.24916
1.1748
1.10411
1.02361
0.989027
0.972515
0.957159
0.958316
0.953286
0.942566
0.934391
0.913194
0.89399
0.877261
0.867893
0.849985
0.83156
0.81463
0.801387
0.786914
0.768905
0.745631
0.715617
0.679403
0.628562
0.56477
0.502983
0.452592
0.419656
0.392611
0.372024
0.357023
0.34375
0.33172
0.318713
0.309236
0.2944
0.284242
0.262602
0.247626
0.211792
0.19622
0.138522
0.12372
0.0938082
1.00605
1.0049
1.00528
1.00566
1.00615
1.00673
1.00739
1.00817
1.00905
1.00998
1.01106
1.01221
1.01339
1.01468
1.01605
1.01744
1.01883
1.02035
1.02185
1.0233
1.0248
1.02634
1.02779
1.02919
1.03063
1.0321
1.0335
1.0348
1.03609
1.0376
1.03902
1.04026
1.04145
1.04234
1.04337
1.04422
1.04488
1.04439
1.04701
1.03758
1.10237
1.04176
1.05853
1.0708
1.08571
1.10669
1.15135
1.16507
1.22028
1.22366
1.27416
1.27089
1.31348
1.3083
1.34209
1.33238
1.35762
1.34639
1.3601
1.35071
1.35858
1.3543
1.3601
1.35895
1.35776
1.35444
1.34945
1.3426
1.33115
1.30092
1.25408
1.19505
1.1169
1.03715
0.918214
0.82473
0.752025
0.736107
0.734985
0.759002
0.782737
0.812026
0.829377
0.844483
0.849924
0.855989
0.853467
0.843038
0.828531
0.819365
0.80744
0.791218
0.779159
0.769099
0.755364
0.738003
0.713437
0.679886
0.634887
0.575806
0.520126
0.465975
0.432215
0.404466
0.382353
0.366171
0.352146
0.340734
0.327852
0.318364
0.303874
0.295468
0.275552
0.261278
0.229149
0.211912
0.148182
0.135817
0.104213
1.00607
1.00491
1.00529
1.00568
1.00617
1.00676
1.00743
1.00821
1.0091
1.01006
1.01113
1.0123
1.01354
1.01482
1.01623
1.01767
1.0191
1.02067
1.02224
1.02379
1.02531
1.02695
1.02855
1.03009
1.03159
1.03323
1.03483
1.03634
1.03785
1.0394
1.04106
1.04267
1.04401
1.04518
1.04638
1.04738
1.04872
1.04947
1.05158
1.05271
1.09692
1.07559
1.07975
1.08421
1.08701
1.10439
1.11361
1.15723
1.16897
1.2366
1.24246
1.30371
1.29795
1.34344
1.33025
1.36422
1.34888
1.36745
1.35677
1.36098
1.35388
1.35605
1.34813
1.3462
1.32532
1.29502
1.24391
1.187
1.10709
1.02988
0.905694
0.797176
0.698544
0.634558
0.578745
0.551383
0.529009
0.529878
0.543487
0.570767
0.608271
0.653796
0.693299
0.731582
0.755515
0.777119
0.786544
0.79303
0.793852
0.792369
0.789143
0.780571
0.770975
0.761789
0.749184
0.733447
0.710816
0.683114
0.641805
0.585714
0.529565
0.476457
0.442948
0.415291
0.391688
0.373747
0.358876
0.347166
0.334655
0.325221
0.311051
0.303078
0.285172
0.270947
0.240153
0.219629
0.154834
0.146403
0.113763
1.00608
1.00492
1.00531
1.0057
1.0062
1.00679
1.00747
1.00825
1.00916
1.01015
1.0112
1.01241
1.01368
1.01498
1.01643
1.01792
1.01942
1.02099
1.02265
1.02431
1.0259
1.02762
1.02937
1.03105
1.03269
1.03443
1.03621
1.03797
1.03963
1.04133
1.04326
1.04521
1.04712
1.04906
1.05095
1.05344
1.05635
1.06281
1.06427
1.10566
1.1108
1.09912
1.09601
1.0979
1.1011
1.1069
1.11836
1.12636
1.16211
1.1733
1.23931
1.24466
1.3052
1.31934
1.34986
1.35263
1.3595
1.35676
1.34784
1.34048
1.31401
1.28901
1.23745
1.17773
1.0972
1.01363
0.88817
0.787688
0.694802
0.634126
0.577175
0.527852
0.484084
0.459073
0.440343
0.429325
0.423959
0.426666
0.435108
0.456083
0.480647
0.512639
0.557094
0.608492
0.658018
0.695994
0.716763
0.736083
0.751711
0.755292
0.755911
0.754581
0.749588
0.742958
0.73212
0.720809
0.705691
0.68392
0.649668
0.59977
0.545241
0.493166
0.457967
0.428927
0.402882
0.382669
0.36615
0.353699
0.340744
0.330831
0.315583
0.307468
0.289051
0.277026
0.247177
0.230437
0.169777
0.162862
0.127064
1.0061
1.00494
1.00532
1.00572
1.00622
1.00682
1.00752
1.0083
1.00922
1.01023
1.01129
1.01252
1.01383
1.01517
1.01664
1.01819
1.01976
1.02134
1.02309
1.02484
1.02656
1.0283
1.03019
1.03205
1.03386
1.03564
1.03764
1.0396
1.0415
1.04336
1.04519
1.04732
1.0491
1.05072
1.05178
1.0528
1.05247
1.05584
1.04498
1.13285
1.02536
1.05633
1.0655
1.07519
1.082
1.08965
1.09582
1.10862
1.12235
1.15406
1.17245
1.24418
1.25578
1.33047
1.30744
1.35166
1.31831
1.30299
1.25136
1.18745
1.10349
1.00573
0.886604
0.78987
0.707372
0.650173
0.601489
0.551839
0.50834
0.480866
0.461857
0.440456
0.419695
0.405462
0.395483
0.38973
0.385862
0.385631
0.388476
0.399228
0.412321
0.4365
0.465092
0.505637
0.550037
0.600798
0.653386
0.687189
0.705781
0.717339
0.723556
0.727532
0.730066
0.728511
0.724656
0.716354
0.7018
0.682276
0.651461
0.605138
0.553063
0.503229
0.46627
0.435713
0.408645
0.386923
0.368767
0.355705
0.343327
0.333933
0.320042
0.313012
0.296715
0.28736
0.259799
0.245958
0.189005
0.179169
0.139031
1.00612
1.00496
1.00534
1.00574
1.00625
1.00685
1.00756
1.00835
1.00928
1.01031
1.01141
1.01264
1.01398
1.01539
1.01685
1.01846
1.02011
1.02175
1.02356
1.02541
1.02725
1.02906
1.03107
1.0331
1.03506
1.03699
1.03911
1.04127
1.04341
1.04539
1.04739
1.04949
1.05177
1.05385
1.05531
1.05629
1.05565
1.0563
1.04941
1.08958
1.05179
1.06097
1.06711
1.07254
1.07847
1.08547
1.09402
1.10672
1.11902
1.13542
1.16181
1.17333
1.23705
1.22952
1.28398
1.20742
1.19441
1.05487
0.982174
0.851742
0.784168
0.704648
0.658696
0.604678
0.56103
0.528423
0.502433
0.482978
0.456937
0.440898
0.430303
0.421113
0.408244
0.399345
0.390357
0.384542
0.380944
0.378994
0.380361
0.38148
0.386393
0.396087
0.414645
0.437534
0.471915
0.514569
0.565957
0.608937
0.643085
0.673514
0.691853
0.69926
0.704206
0.706459
0.706603
0.703745
0.697487
0.682734
0.656949
0.613116
0.562714
0.513705
0.47551
0.444046
0.416265
0.393946
0.37514
0.361402
0.349282
0.340189
0.327291
0.321046
0.305287
0.298143
0.273946
0.263428
0.208229
0.197408
0.153852
1.00614
1.00497
1.00536
1.00577
1.00628
1.00689
1.00761
1.00842
1.00934
1.0104
1.01154
1.01276
1.01414
1.0156
1.01709
1.01876
1.02048
1.02221
1.02402
1.02598
1.02794
1.0299
1.03196
1.03413
1.0363
1.03842
1.04055
1.04293
1.04527
1.04755
1.04953
1.05162
1.05411
1.05644
1.05891
1.0616
1.0652
1.07178
1.07964
1.11536
1.08862
1.08057
1.07952
1.08052
1.08171
1.08468
1.0867
1.09093
1.09607
1.10367
1.112
1.12257
1.12799
1.12301
1.09283
0.991772
0.86955
0.806298
0.731248
0.699423
0.639885
0.61563
0.57693
0.555446
0.532384
0.514121
0.500865
0.486371
0.473607
0.461185
0.449155
0.439706
0.428208
0.418466
0.407128
0.398102
0.390176
0.385062
0.382355
0.38261
0.38464
0.386699
0.393317
0.404786
0.425578
0.450948
0.490306
0.534836
0.590026
0.630946
0.655727
0.670707
0.679489
0.686271
0.69099
0.691575
0.685444
0.675233
0.652226
0.613917
0.564731
0.518513
0.482044
0.45081
0.424827
0.402503
0.382749
0.368105
0.355834
0.346763
0.335211
0.328959
0.314724
0.308212
0.28753
0.278786
0.228451
0.21539
0.166708
1.00616
1.00499
1.00538
1.00579
1.00631
1.00692
1.00766
1.00848
1.00941
1.01049
1.01166
1.01289
1.01431
1.01581
1.01736
1.01906
1.02085
1.02268
1.02453
1.02659
1.02869
1.03078
1.03286
1.0352
1.03756
1.03985
1.04212
1.04459
1.04713
1.04958
1.05196
1.05422
1.05665
1.05945
1.0627
1.06588
1.0708
1.06428
1.12507
1.07749
1.07779
1.07252
1.07484
1.07365
1.07464
1.07385
1.0747
1.07373
1.07158
1.07007
1.06379
1.0578
1.01484
0.93999
0.818911
0.75473
0.71153
0.667819
0.650286
0.616007
0.604738
0.583621
0.573694
0.557722
0.543039
0.535967
0.523828
0.513171
0.506257
0.493112
0.483186
0.472969
0.461562
0.450824
0.438484
0.426116
0.414043
0.404182
0.396238
0.391479
0.390013
0.38964
0.392565
0.395629
0.405852
0.422446
0.447629
0.479453
0.523781
0.566997
0.609565
0.640239
0.658714
0.668649
0.674607
0.678008
0.677688
0.669324
0.652735
0.61778
0.569456
0.525546
0.489176
0.457257
0.431719
0.409168
0.388659
0.373064
0.360733
0.351665
0.341714
0.335975
0.323621
0.317888
0.301387
0.293917
0.248818
0.23276
0.179754
1.00619
1.00501
1.00541
1.00582
1.00635
1.00696
1.00771
1.00855
1.00949
1.01058
1.01178
1.01305
1.01448
1.01604
1.01765
1.01935
1.02123
1.02315
1.02509
1.0272
1.02942
1.03165
1.03388
1.03625
1.03877
1.04127
1.04375
1.04623
1.04892
1.05158
1.05422
1.0566
1.05915
1.06152
1.06394
1.06502
1.06922
1.05818
1.12528
1.02334
1.04269
1.05103
1.05883
1.06338
1.06669
1.06809
1.06887
1.06854
1.06541
1.05623
1.03595
0.977395
0.882527
0.758049
0.704282
0.666831
0.640542
0.627593
0.610292
0.599245
0.589297
0.583338
0.575355
0.568905
0.563433
0.554696
0.545346
0.541566
0.530917
0.523
0.514705
0.504337
0.49489
0.485108
0.473602
0.462361
0.448991
0.436413
0.423162
0.412995
0.405094
0.399844
0.398288
0.400056
0.404023
0.411562
0.427332
0.447991
0.477538
0.513988
0.562963
0.604065
0.631297
0.646222
0.656245
0.662536
0.66627
0.663725
0.650171
0.618682
0.572904
0.530374
0.495433
0.463931
0.438925
0.416597
0.395781
0.379511
0.36737
0.358744
0.350573
0.345214
0.334679
0.328853
0.313929
0.305672
0.264322
0.246765
0.192201
1.00621
1.00504
1.00543
1.00585
1.00638
1.00701
1.00775
1.00862
1.00957
1.01068
1.01191
1.01322
1.01466
1.01626
1.01794
1.01968
1.02162
1.02364
1.02569
1.02782
1.03016
1.03255
1.03493
1.03735
1.03998
1.04266
1.04533
1.04796
1.05071
1.05351
1.05626
1.05895
1.06153
1.06356
1.06573
1.06722
1.06827
1.0643
1.09584
1.06081
1.063
1.06475
1.06585
1.06646
1.06684
1.06677
1.06598
1.06243
1.05167
1.03112
0.970909
0.873124
0.74829
0.693761
0.660737
0.639707
0.629086
0.617708
0.608061
0.605108
0.597636
0.590738
0.587923
0.584066
0.577947
0.572105
0.570661
0.562453
0.555385
0.551678
0.54127
0.533307
0.524412
0.515596
0.506044
0.496479
0.484171
0.47249
0.457745
0.444301
0.431048
0.421611
0.415077
0.412959
0.412785
0.416282
0.421825
0.435137
0.454465
0.480718
0.514192
0.556525
0.596409
0.625401
0.642769
0.653115
0.657313
0.656414
0.645301
0.617028
0.576243
0.535433
0.500693
0.468856
0.444293
0.422319
0.401947
0.385505
0.373487
0.365165
0.357962
0.35262
0.342379
0.336257
0.322427
0.314341
0.275772
0.259678
0.206024
1.00624
1.00506
1.00546
1.00588
1.00642
1.00705
1.00781
1.00869
1.00967
1.01078
1.01204
1.0134
1.01485
1.01649
1.01823
1.02004
1.02201
1.02412
1.02629
1.02849
1.0309
1.03342
1.03597
1.03853
1.04123
1.044
1.04681
1.04965
1.05254
1.05554
1.05846
1.06152
1.06457
1.06829
1.07253
1.07987
1.08502
1.10828
1.12009
1.0924
1.08645
1.0797
1.0788
1.07741
1.07558
1.07402
1.06815
1.05723
1.03192
0.967883
0.871784
0.749223
0.697042
0.667559
0.644522
0.634113
0.625847
0.619159
0.615947
0.612058
0.606612
0.604404
0.600613
0.59534
0.592049
0.590766
0.585673
0.580635
0.579489
0.572196
0.565003
0.559945
0.550286
0.542499
0.533875
0.525246
0.51499
0.504862
0.493084
0.481001
0.465793
0.453228
0.441244
0.433788
0.429517
0.427581
0.428961
0.434776
0.445245
0.463398
0.487543
0.520227
0.561484
0.599467
0.621201
0.63727
0.644714
0.645206
0.639779
0.614497
0.577816
0.53878
0.507557
0.476448
0.452031
0.430499
0.410302
0.393203
0.380736
0.372076
0.36544
0.359787
0.35066
0.344309
0.331959
0.324804
0.289063
0.276904
0.22127
1.00627
1.00509
1.00549
1.00591
1.00646
1.0071
1.00786
1.00876
1.00976
1.01089
1.01217
1.01357
1.01506
1.01673
1.01853
1.02041
1.02241
1.0246
1.02687
1.02921
1.03166
1.03427
1.03695
1.03972
1.04249
1.04537
1.04828
1.05126
1.05435
1.05747
1.06051
1.06337
1.06579
1.06834
1.06957
1.07384
1.06508
1.14516
1.04508
1.06645
1.071
1.07429
1.07563
1.0756
1.07254
1.06821
1.05506
1.02866
0.95965
0.86102
0.750429
0.695173
0.668622
0.648404
0.639601
0.632831
0.628121
0.623868
0.621166
0.618146
0.61613
0.614252
0.610724
0.60756
0.606807
0.603145
0.599378
0.598984
0.594972
0.58977
0.588201