/*--------------------------------*- C++ -*----------------------------------*\
| =========                 |                                                 |
| \\      /  F ield         | OpenFOAM: The Open Source CFD Toolbox           |
|  \\    /   O peration     | Version:  2.2.x                                 |
|   \\  /    A nd           | Web:      www.OpenFOAM.org                      |
|    \\/     M anipulation  |                                                 |
\*---------------------------------------------------------------------------*/
FoamFile
{
    version     2.0;
    format      ascii;
    class       volScalarField;
    location    "1.55";
    object      T;
}
// * * * * * * * * * * * * * * * * * * * * * * * * * * * * * * * * * * * * * //

dimensions      [0 0 0 1 0 0 0];

internalField   nonuniform List<scalar> 
14161
(
0.97925
0.981081
0.979924
0.978563
0.976794
0.974805
0.972391
0.969611
0.966733
0.963231
0.959494
0.955918
0.951669
0.947376
0.943336
0.939003
0.934295
0.930144
0.926454
0.92243
0.918702
0.915554
0.912682
0.910424
0.908706
0.90777
0.906842
0.906357
0.9066
0.907141
0.908119
0.909587
0.911564
0.914284
0.916603
0.919566
0.920997
0.916433
0.890614
0.842599
0.759372
1.36986
2.5952
2.46506
2.42716
2.42193
2.41818
2.413
2.41068
2.40729
2.40462
2.40366
2.40623
2.40685
2.40187
2.3964
2.39344
2.38903
2.38442
2.38331
2.39239
2.40443
2.41406
2.42103
2.42358
2.42678
2.42762
2.42701
2.42581
2.42407
2.42241
2.41911
2.41516
2.41149
2.40776
2.40248
2.39762
2.39397
2.39181
2.39057
2.39175
2.39516
2.40302
2.41485
2.42868
2.43544
2.44314
2.44349
2.44699
2.45254
2.43086
2.4228
2.44754
2.5433
2.69818
2.81934
2.90896
2.96734
3.00732
3.03834
3.05698
3.07137
3.0845
3.0945
3.10272
3.1091
3.11488
3.12064
3.12767
3.13529
3.14317
3.1518
3.15538
3.15534
3.1543
3.14832
3.14752
3.12847
3.15951
0.979216
0.981053
0.979897
0.978542
0.976822
0.97478
0.972298
0.969588
0.966699
0.963222
0.95947
0.955831
0.951671
0.947327
0.943298
0.939023
0.934281
0.929994
0.926085
0.922167
0.918558
0.915523
0.912707
0.910314
0.908541
0.907576
0.906574
0.906101
0.906341
0.906836
0.907742
0.90897
0.910817
0.9131
0.915074
0.917093
0.920573
0.920671
0.921076
0.905335
0.968156
2.45671
2.92805
2.94377
2.93789
2.93051
2.92566
2.91972
2.91077
2.90204
2.88922
2.87327
2.86193
2.84812
2.82767
2.80748
2.79021
2.77002
2.74669
2.7236
2.7083
2.69564
2.68472
2.67599
2.66835
2.66216
2.65523
2.65025
2.64593
2.64106
2.63632
2.63189
2.62678
2.6202
2.61461
2.60914
2.60487
2.60295
2.6023
2.60352
2.6065
2.61351
2.62351
2.63377
2.64354
2.649
2.64735
2.64618
2.65543
2.70804
2.75952
2.83672
2.89376
2.98159
3.02253
3.0475
3.04946
3.06989
3.07569
3.08523
3.09445
3.10163
3.10965
3.11599
3.12202
3.12667
3.13132
3.13662
3.14291
3.14999
3.15646
3.16307
3.16478
3.16271
3.15974
3.15187
3.14969
3.12819
3.15438
0.979211
0.981042
0.979886
0.978528
0.976804
0.974704
0.972354
0.969576
0.966654
0.963224
0.95946
0.95579
0.951643
0.947305
0.943171
0.938861
0.934159
0.930025
0.926349
0.922453
0.918631
0.915411
0.912465
0.910112
0.908361
0.907419
0.9065
0.90605
0.906338
0.906905
0.907986
0.909649
0.911895
0.915074
0.918467
0.922608
0.929175
0.936713
0.9502
0.979593
1.17894
2.91192
3.04937
3.03753
3.02478
3.00697
2.99025
2.97299
2.95121
2.93195
2.91387
2.88894
2.86838
2.84812
2.82526
2.80148
2.77932
2.75937
2.74065
2.72414
2.71023
2.69779
2.68526
2.67657
2.67245
2.66975
2.66656
2.665
2.66373
2.66271
2.66232
2.6607
2.65788
2.65324
2.64927
2.64548
2.64223
2.64181
2.64223
2.64534
2.64848
2.65582
2.66936
2.68733
2.71062
2.72995
2.75132
2.79238
2.86512
2.97431
3.05228
3.12063
3.15703
3.17041
3.17673
3.18095
3.17293
3.17022
3.16524
3.16304
3.16142
3.16085
3.16092
3.16271
3.16585
3.16857
3.1708
3.17393
3.1786
3.18405
3.18806
3.19024
3.18708
3.17869
3.16982
3.15657
3.14963
3.12527
3.15122
0.979182
0.981009
0.97985
0.978494
0.976773
0.974726
0.972274
0.96959
0.966559
0.963157
0.959387
0.955622
0.951699
0.947222
0.942944
0.938619
0.933977
0.92984
0.926092
0.922344
0.918588
0.915271
0.912285
0.909909
0.908079
0.907168
0.906108
0.905505
0.905699
0.906156
0.906942
0.908096
0.909556
0.911348
0.913233
0.915836
0.921494
0.931233
0.950274
0.979593
1.3596
2.96703
3.12386
3.1215
3.10573
3.08009
3.05061
3.02543
2.99304
2.9673
2.9485
2.92182
2.89415
2.86788
2.84675
2.82145
2.79711
2.77424
2.75238
2.73526
2.71868
2.70661
2.69662
2.69167
2.68653
2.68333
2.681
2.68093
2.68095
2.6806
2.68003
2.67874
2.67686
2.67474
2.67266
2.67174
2.67085
2.66896
2.6719
2.67527
2.68183
2.68639
2.7043
2.72987
2.76676
2.80038
2.854
2.93882
3.0222
3.10023
3.14373
3.18894
3.20374
3.22122
3.22775
3.21993
3.21622
3.21084
3.21026
3.20888
3.20604
3.20477
3.20653
3.21047
3.21488
3.22076
3.22726
3.23276
3.23652
3.2383
3.23557
3.22814
3.21721
3.20028
3.18346
3.16328
3.14911
3.11948
3.14786
0.979183
0.981
0.97984
0.978477
0.976746
0.974675
0.972302
0.969563
0.966502
0.963167
0.959452
0.955502
0.951537
0.947231
0.942889
0.938543
0.933888
0.929708
0.92586
0.921981
0.918268
0.915112
0.912205
0.909865
0.907912
0.906988
0.905918
0.905239
0.905433
0.906026
0.906987
0.908936
0.911557
0.915279
0.919985
0.92648
0.937232
0.95469
0.984331
1.02669
1.28568
2.94208
3.12231
3.09682
3.07182
3.04058
3.00883
2.9785
2.95278
2.93015
2.90298
2.87895
2.85421
2.83184
2.8068
2.78418
2.7601
2.73969
2.71856
2.69948
2.68709
2.67154
2.6571
2.64544
2.63905
2.63721
2.63748
2.637
2.63496
2.63214
2.63004
2.62738
2.62374
2.61969
2.61674
2.6137
2.61153
2.60821
2.61059
2.61602
2.62066
2.62912
2.64843
2.69169
2.7243
2.78193
2.84615
2.92815
2.97168
3.05356
3.0975
3.1573
3.18376
3.2134
3.22951
3.23456
3.23743
3.2395
3.23601
3.23267
3.23039
3.23176
3.23464
3.23887
3.24602
3.25307
3.25894
3.26588
3.27035
3.27043
3.26772
3.25706
3.24266
3.21858
3.19543
3.16954
3.14914
3.11402
3.14642
0.979161
0.98097
0.979795
0.978393
0.976704
0.974655
0.972263
0.969525
0.966426
0.963078
0.959375
0.955379
0.951445
0.947271
0.942686
0.938215
0.933761
0.929532
0.925601
0.921671
0.917907
0.914769
0.911754
0.909359
0.907291
0.906237
0.905192
0.904368
0.904463
0.904879
0.905412
0.906086
0.907145
0.907814
0.90814
0.908004
0.908484
0.909453
0.91344
0.932067
0.968056
2.80728
2.97782
3.00109
2.96379
2.94974
2.91966
2.8942
2.86575
2.84407
2.81265
2.78959
2.76299
2.74055
2.7131
2.69285
2.67121
2.65947
2.63995
2.6256
2.6113
2.5987
2.58744
2.57792
2.57193
2.56899
2.56861
2.56872
2.56799
2.56926
2.56925
2.56869
2.56626
2.56543
2.56224
2.55989
2.5587
2.55632
2.56466
2.57454
2.58413
2.59562
2.61079
2.64464
2.68117
2.76681
2.80421
2.86424
2.88899
2.94506
3.00395
3.08208
3.13086
3.17902
3.20639
3.22648
3.24353
3.25339
3.25707
3.25442
3.25517
3.25799
3.26477
3.27013
3.27573
3.28443
3.29126
3.2927
3.29414
3.29089
3.28604
3.27406
3.25644
3.22603
3.19836
3.17245
3.14521
3.10915
3.14694
0.979161
0.980961
0.979792
0.978426
0.976687
0.97461
0.972212
0.969461
0.966254
0.963008
0.959424
0.955323
0.951261
0.947231
0.942575
0.938061
0.933627
0.929329
0.925308
0.921269
0.917583
0.914364
0.911361
0.908829
0.906731
0.905603
0.904596
0.903795
0.903928
0.904475
0.905518
0.90729
0.909832
0.913269
0.91776
0.922889
0.929272
0.938671
0.943066
0.932994
0.930823
2.16015
2.85593
2.80922
2.76906
2.72155
2.6938
2.67559
2.66854
2.66882
2.65327
2.65945
2.6378
2.63908
2.61497
2.61261
2.58864
2.58411
2.56124
2.55729
2.53931
2.53297
2.51982
2.51335
2.50559
2.50346
2.4994
2.49667
2.49567
2.49571
2.49455
2.49369
2.48977
2.48765
2.48256
2.47844
2.47424
2.47171
2.4785
2.4908
2.49734
2.50729
2.51946
2.56843
2.60719
2.70586
2.72504
2.79709
2.81144
2.85814
2.9044
2.96771
3.02662
3.11074
3.16467
3.2124
3.23577
3.24881
3.25523
3.26063
3.26634
3.27017
3.27462
3.28069
3.29018
3.29684
3.30358
3.30853
3.31086
3.30611
3.29863
3.28109
3.25952
3.22592
3.19722
3.17023
3.13847
3.10575
3.15012
0.979141
0.980933
0.979757
0.978388
0.976648
0.974536
0.972159
0.96943
0.966217
0.962854
0.959378
0.955191
0.951106
0.947105
0.94232
0.937837
0.933509
0.929017
0.924932
0.920867
0.917101
0.913904
0.91079
0.908068
0.905911
0.904618
0.903537
0.902548
0.902436
0.902685
0.903057
0.903436
0.903599
0.902719
0.900378
0.895236
0.885162
0.868472
0.838583
0.784447
0.731763
0.994612
2.5044
2.53003
2.52162
2.52236
2.53446
2.54887
2.56261
2.58543
2.59566
2.6086
2.60232
2.60511
2.58822
2.58861
2.56785
2.56567
2.54649
2.54336
2.5298
2.52572
2.51428
2.50903
2.50208
2.50091
2.49609
2.49199
2.48982
2.48786
2.4881
2.48537
2.48473
2.48086
2.47783
2.47318
2.47113
2.46757
2.47371
2.48776
2.49812
2.51357
2.54051
2.58035
2.60103
2.71391
2.68007
2.74137
2.75569
2.79452
2.83652
2.89981
2.95283
3.0218
3.08961
3.16314
3.20615
3.23195
3.24247
3.25303
3.25662
3.26603
3.27687
3.28483
3.29095
3.29926
3.30739
3.3126
3.31792
3.31489
3.30612
3.283
3.25626
3.22327
3.19692
3.16471
3.12868
3.10443
3.1548
0.979139
0.980921
0.979743
0.978368
0.976617
0.974504
0.972052
0.969395
0.966161
0.962753
0.959315
0.955043
0.950928
0.946948
0.94217
0.937598
0.93321
0.928799
0.924534
0.920349
0.916594
0.913215
0.91008
0.907258
0.905132
0.90359
0.902533
0.90153
0.901477
0.901804
0.902655
0.904074
0.906559
0.909381
0.912802
0.916856
0.920388
0.925234
0.922689
0.912412
0.938751
1.70575
2.75699
2.68243
2.66888
2.6593
2.66146
2.66802
2.67762
2.67994
2.68891
2.67651
2.67271
2.65511
2.64622
2.62829
2.60837
2.60107
2.57976
2.57266
2.55844
2.55197
2.53967
2.53222
2.52835
2.5275
2.52464
2.52118
2.52055
2.52167
2.52384
2.5262
2.52241
2.51965
2.51289
2.5083
2.50281
2.50411
2.50132
2.51856
2.52775
2.54887
2.58799
2.65794
2.65568
2.75041
2.75872
2.7499
2.74529
2.74184
2.77275
2.82648
2.87729
2.94062
3.00726
3.08689
3.15738
3.2043
3.22558
3.24291
3.25327
3.26065
3.26931
3.27857
3.28955
3.30088
3.31066
3.31656
3.32092
3.31603
3.30414
3.27746
3.25184
3.22052
3.19463
3.15826
3.11784
3.10534
3.1638
0.979121
0.980895
0.97971
0.978327
0.97657
0.974435
0.971989
0.969329
0.966105
0.962631
0.959175
0.954908
0.950756
0.946726
0.942007
0.937355
0.932904
0.928457
0.924051
0.919917
0.91603
0.912512
0.909232
0.906241
0.90397
0.902102
0.900924
0.899787
0.899276
0.899446
0.899708
0.900055
0.900426
0.900514
0.899486
0.897295
0.893192
0.888607
0.882976
0.881463
0.938726
2.46144
2.87981
2.90011
2.86671
2.84215
2.8239
2.81257
2.79124
2.78362
2.7628
2.74842
2.72725
2.71698
2.69788
2.68467
2.65712
2.64368
2.61744
2.60866
2.59332
2.58606
2.57
2.56207
2.55921
2.55762
2.55063
2.54469
2.54007
2.53896
2.53879
2.53785
2.53581
2.53025
2.52334
2.51851
2.51345
2.51823
2.51716
2.53678
2.56697
2.59009
2.68649
2.69984
2.78151
2.73972
2.78532
2.74534
2.74495
2.73335
2.74394
2.79224
2.83009
2.88208
2.938
3.01989
3.10713
3.17749
3.21158
3.23264
3.24353
3.25133
3.26465
3.2757
3.28567
3.29848
3.31352
3.31858
3.32218
3.3161
3.30181
3.27252
3.24934
3.21926
3.19097
3.14802
3.10798
3.10857
3.17221
0.979116
0.980881
0.97969
0.9783
0.976533
0.974408
0.971883
0.969258
0.966045
0.962522
0.959029
0.954768
0.950527
0.946444
0.941871
0.936962
0.932526
0.928131
0.923364
0.919306
0.915492
0.911778
0.908304
0.905182
0.902717
0.900701
0.899372
0.898287
0.897533
0.897843
0.898491
0.899621
0.901784
0.904757
0.90835
0.913368
0.922915
0.937171
0.960226
0.988288
1.08886
2.76707
2.95209
2.94897
2.94846
2.90456
2.88509
2.85959
2.83316
2.82004
2.79603
2.77121
2.74037
2.73243
2.7054
2.68739
2.65243
2.63581
2.60894
2.60134
2.57743
2.57109
2.55277
2.54744
2.54632
2.54574
2.53832
2.53574
2.53445
2.53527
2.53567
2.53437
2.53403
2.5302
2.52662
2.51874
2.51973
2.51466
2.53493
2.54911
2.6148
2.66083
2.76347
2.74078
2.80841
2.78623
2.80054
2.78587
2.75794
2.76549
2.75135
2.77342
2.80127
2.846
2.89174
2.95786
3.03811
3.12141
3.17926
3.21158
3.2285
3.2383
3.25278
3.26531
3.27701
3.29117
3.30701
3.31509
3.31967
3.31263
3.2987
3.26863
3.24828
3.21826
3.18715
3.13517
3.10564
3.11391
3.18098
0.979096
0.980855
0.979657
0.978256
0.976483
0.974362
0.971797
0.969148
0.965983
0.962383
0.95882
0.954697
0.950333
0.94611
0.941621
0.936605
0.932077
0.927723
0.922696
0.918571
0.914697
0.910722
0.907066
0.903892
0.901103
0.898824
0.897163
0.895916
0.894816
0.894587
0.894791
0.895294
0.896186
0.898051
0.900058
0.903067
0.907583
0.917195
0.9257
0.933139
1.06101
2.76767
2.96851
2.95927
2.95398
2.91791
2.89827
2.86375
2.83332
2.82146
2.79378
2.7654
2.72233
2.72254
2.69571
2.67313
2.62939
2.61732
2.58655
2.58234
2.55704
2.55089
2.52955
2.52715
2.51924
2.51844
2.51205
2.50871
2.50539
2.50382
2.50362
2.49955
2.4974
2.48836
2.48031
2.47016
2.46431
2.46481
2.50547
2.55754
2.65492
2.6952
2.77719
2.72358
2.75973
2.7585
2.77345
2.77664
2.76974
2.78072
2.76952
2.77542
2.77693
2.8085
2.84992
2.90661
2.97979
3.06486
3.1401
3.19061
3.21659
3.22781
3.24324
3.25571
3.26847
3.2822
3.29847
3.30811
3.31226
3.30659
3.29528
3.26586
3.24912
3.21816
3.18372
3.12817
3.10543
3.12176
3.19015
0.979085
0.980837
0.979632
0.978222
0.976431
0.974316
0.971734
0.969016
0.965913
0.962272
0.958537
0.954601
0.950073
0.945762
0.941362
0.936111
0.931595
0.92719
0.921941
0.917593
0.913763
0.909695
0.905653
0.902525
0.899606
0.897078
0.895023
0.893528
0.892523
0.89188
0.891946
0.892391
0.89342
0.895549
0.898995
0.903973
0.911718
0.922713
0.937942
0.957204
1.03662
2.7586
2.9393
2.91902
2.9011
2.86781
2.84465
2.80171
2.77244
2.75761
2.7177
2.70309
2.66796
2.66566
2.62818
2.61678
2.57506
2.57315
2.53724
2.53848
2.50871
2.50829
2.48759
2.49246
2.47893
2.48065
2.47486
2.47437
2.4736
2.47391
2.47369
2.47193
2.46769
2.46483
2.46161
2.45788
2.45627
2.47198
2.53141
2.60321
2.712
2.73677
2.77408
2.73882
2.75222
2.73213
2.74123
2.73928
2.73413
2.76716
2.77035
2.7877
2.77294
2.78705
2.82124
2.87472
2.93918
3.02
3.10357
3.17157
3.20831
3.22268
3.23575
3.24735
3.26017
3.27387
3.29073
3.30168
3.3038
3.29892
3.29062
3.26416
3.25029
3.21769
3.18018
3.12266
3.10741
3.13188
3.19848
0.979062
0.98081
0.979598
0.978176
0.976368
0.974256
0.971706
0.96883
0.965828
0.962146
0.958325
0.954465
0.949818
0.945356
0.940935
0.935691
0.930939
0.926425
0.92136
0.916629
0.912599
0.908429
0.903935
0.900548
0.897494
0.894742
0.892026
0.890237
0.888899
0.887695
0.886945
0.88679
0.887404
0.888726
0.890842
0.893542
0.897251
0.906523
0.908742
0.914085
0.930041
2.38932
2.86052
2.83111
2.79902
2.76636
2.74347
2.7061
2.68299
2.67136
2.63216
2.63324
2.58736
2.58679
2.54545
2.54903
2.50044
2.50412
2.4614
2.46921
2.4306
2.43553
2.41027
2.41599
2.40534
2.40617
2.40365
2.4019
2.40046
2.40235
2.40172
2.40158
2.39517
2.38856
2.38285
2.37069
2.36525
2.36204
2.447
2.52569
2.61608
2.60783
2.69763
2.67794
2.68743
2.66939
2.68237
2.69157
2.69335
2.725
2.73122
2.75255
2.74684
2.75815
2.7839
2.83157
2.89226
2.97113
3.05636
3.13638
3.18685
3.20914
3.2257
3.23803
3.25132
3.26303
3.27818
3.2912
3.29323
3.28901
3.28443
3.26183
3.25084
3.21732
3.17657
3.11917
3.1123
3.14511
3.20596
0.979046
0.980788
0.979568
0.978136
0.976306
0.974189
0.971643
0.968692
0.965702
0.962007
0.958079
0.954188
0.949624
0.944977
0.940414
0.935295
0.930288
0.92559
0.920771
0.915572
0.911241
0.907018
0.902386
0.898487
0.895254
0.892266
0.889229
0.886849
0.885214
0.883811
0.882424
0.88162
0.880571
0.879366
0.877344
0.874124
0.86852
0.863684
0.852434
0.842361
0.905195
2.04723
2.74683
2.72587
2.69737
2.66425
2.642
2.61219
2.58516
2.58342
2.54102
2.55009
2.4994
2.51113
2.46793
2.48968
2.44203
2.45093
2.40788
2.41975
2.37792
2.38753
2.36814
2.36845
2.36421
2.36817
2.36798
2.36769
2.36582
2.36756
2.36684
2.36646
2.36294
2.36032
2.35384
2.34647
2.33799
2.35716
2.45147
2.53012
2.63756
2.59778
2.61791
2.63592
2.63925
2.64454
2.64614
2.66743
2.67521
2.69777
2.69789
2.72202
2.72055
2.73485
2.76083
2.79735
2.84434
2.91693
3.00808
3.0941
3.16139
3.19075
3.21147
3.22497
3.23957
3.2514
3.26608
3.28092
3.28412
3.27976
3.27889
3.26134
3.25201
3.21635
3.17315
3.11911
3.11975
3.15898
3.21045
0.979017
0.980756
0.979529
0.978086
0.976236
0.974109
0.971563
0.968546
0.965512
0.961892
0.957842
0.953812
0.949477
0.944544
0.93978
0.934927
0.929446
0.924631
0.919927
0.914489
0.909709
0.905364
0.90093
0.896227
0.892595
0.889305
0.886057
0.882777
0.880205
0.878313
0.876713
0.875209
0.873914
0.873898
0.874883
0.876746
0.879424
0.887336
0.894071
0.892723
1.02439
2.22273
2.70182
2.69808
2.65734
2.60576
2.56839
2.5356
2.50874
2.51004
2.47142
2.49587
2.43924
2.45857
2.41285
2.44241
2.39578
2.40362
2.36446
2.36806
2.33304
2.34629
2.32627
2.32605
2.32214
2.32285
2.32291
2.32304
2.32336
2.3254
2.32817
2.32569
2.3244
2.32306
2.31866
2.31159
2.3076
2.31394
2.49326
2.45977
2.56438
2.5764
2.57251
2.56014
2.58982
2.60118
2.63397
2.64657
2.66986
2.68332
2.68792
2.71479
2.72037
2.72354
2.74038
2.76601
2.806
2.87173
2.96486
3.05669
3.13621
3.17311
3.19733
3.21352
3.22911
3.24049
3.25444
3.26961
3.27547
3.27142
3.27152
3.25748
3.25153
3.21402
3.17027
3.12198
3.12789
3.1716
3.21352
0.978994
0.980727
0.979494
0.978039
0.976171
0.974013
0.97148
0.96843
0.965285
0.961797
0.957589
0.953431
0.949234
0.944085
0.939192
0.934374
0.928673
0.923574
0.918788
0.913489
0.907907
0.90343
0.899106
0.893852
0.889455
0.885805
0.882556
0.879003
0.875071
0.872307
0.870096
0.868397
0.865844
0.862117
0.859034
0.856895
0.855374
0.85671
0.862373
0.870952
0.982259
2.30009
2.59292
2.60153
2.59781
2.56021
2.50219
2.48614
2.45835
2.47121
2.43452
2.47222
2.41057
2.42981
2.38135
2.42015
2.36876
2.3876
2.34929
2.35276
2.31772
2.33171
2.31186
2.31324
2.3091
2.31106
2.31361
2.31666
2.31864
2.3228
2.32752
2.32503
2.32171
2.32135
2.31846
2.31515
2.33709
2.43885
2.52635
2.56156
2.49908
2.502
2.53839
2.52989
2.50738
2.49622
2.52629
2.56246
2.60354
2.63248
2.64021
2.6803
2.6952
2.70789
2.7242
2.74851
2.77964
2.83342
2.92454
3.01807
3.112
3.15789
3.18516
3.20431
3.22109
3.23134
3.244
3.25828
3.26728
3.26346
3.26506
3.25372
3.25072
3.21256
3.16813
3.12608
3.13514
3.17945
3.21386
0.978958
0.980689
0.979449
0.977982
0.976095
0.973883
0.971395
0.968336
0.96504
0.961639
0.957307
0.95308
0.948888
0.943611
0.93857
0.93368
0.927987
0.922466
0.917485
0.912329
0.906105
0.901154
0.896737
0.891819
0.886229
0.881803
0.878546
0.874954
0.869556
0.865362
0.861923
0.859984
0.858009
0.85513
0.852011
0.850512
0.849161
0.845176
0.839004
0.842041
0.911
2.14812
2.38981
2.47475
2.49426
2.50004
2.45295
2.45595
2.42001
2.45548
2.41669
2.46627
2.40338
2.43158
2.38025
2.42727
2.36221
2.3811
2.35581
2.35024
2.31113
2.31749
2.30039
2.2971
2.29717
2.30004
2.30197
2.30412
2.30065
2.30678
2.3122
2.31514
2.3119
2.32844
2.33536
2.36794
2.44062
2.61174
2.54009
2.57314
2.53365
2.47345
2.48767
2.51012
2.5223
2.5118
2.50157
2.4896
2.50938
2.56256
2.59537
2.62518
2.64301
2.66965
2.69621
2.72504
2.7587
2.80927
2.89222
2.98694
3.0852
3.1369
3.16547
3.1878
3.20624
3.217
3.22951
3.24352
3.25494
3.2527
3.25688
3.24614
3.24524
3.21081
3.16799
3.13013
3.13976
3.18558
3.2128
0.978924
0.980651
0.979403
0.977925
0.976026
0.973738
0.971299
0.968222
0.964832
0.961421
0.957035
0.952673
0.948402
0.943209
0.937856
0.932787
0.927333
0.921265
0.916072
0.91088
0.904357
0.898698
0.894084
0.889205
0.882743
0.877551
0.873422
0.869794
0.864826
0.858081
0.853635
0.849291
0.848347
0.844912
0.840593
0.832568
0.827307
0.819615
0.815419
0.874502
1.1183
2.21441
2.30245
2.33859
2.35547
2.41606
2.38876
2.44403
2.41485
2.46509
2.42787
2.48241
2.41822
2.45054
2.38857
2.43002
2.3584
2.37107
2.35333
2.35424
2.30826
2.30825
2.29376
2.29055
2.28931
2.28884
2.29384
2.29268
2.2895
2.30509
2.33143
2.34698
2.35184
2.44333
2.52938
2.66846
2.68459
2.74202
2.66998
2.61449
2.60926
2.5374
2.48247
2.46757
2.46675
2.48439
2.49554
2.50688
2.49979
2.50852
2.54753
2.58915
2.6068
2.62844
2.65377
2.68369
2.72219
2.77506
2.85996
2.96064
3.05892
3.11706
3.1477
3.17267
3.1922
3.20368
3.2152
3.22826
3.24167
3.24154
3.24839
3.23851
3.23887
3.20897
3.16876
3.13421
3.14132
3.18577
3.21129
0.978881
0.980605
0.97935
0.977859
0.975951
0.973605
0.971172
0.968098
0.964601
0.961125
0.956818
0.952247
0.947805
0.942822
0.937112
0.931826
0.926528
0.920052
0.914371
0.908952
0.902791
0.896261
0.890895
0.885801
0.87969
0.873192
0.867642
0.864205
0.859371
0.851053
0.844578
0.839754
0.835749
0.834272
0.831144
0.827748
0.824353
0.825524
0.825005
0.900848
1.80925
2.23832
2.24346
2.25786
2.2886
2.3389
2.34652
2.44963
2.43032
2.50406
2.46055
2.50623
2.43478
2.46056
2.38335
2.41146
2.34169
2.37562
2.31875
2.34043
2.2798
2.30071
2.28112
2.269
2.2711
2.28548
2.30539
2.31355
2.31711
2.41517
2.5148
2.60586
2.70582
2.78539
2.86056
2.92113
2.93613
2.8977
2.85236
2.77985
2.72502
2.67332
2.60233
2.55442
2.5212
2.4838
2.46228
2.47329
2.50101
2.50824
2.53669
2.57272
2.59519
2.6212
2.64772
2.67445
2.71006
2.76137
2.8407
2.94412
3.03591
3.0979
3.12695
3.15548
3.1766
3.18898
3.20124
3.21382
3.22792
3.23042
3.24003
3.23098
3.23163
3.20537
3.17016
3.1348
3.14317
3.18688
3.20904
0.978834
0.980558
0.979295
0.97779
0.975873
0.973477
0.970997
0.967983
0.964384
0.960742
0.956657
0.951832
0.947188
0.942363
0.936317
0.930818
0.92544
0.91901
0.912646
0.906952
0.90108
0.893745
0.887449
0.882118
0.876334
0.868558
0.862045
0.856896
0.852389
0.845831
0.835917
0.829511
0.824042
0.820647
0.818561
0.814779
0.808897
0.80597
0.809395
0.896263
2.08216
2.21862
2.21187
2.21137
2.22856
2.23417
2.27813
2.27787
2.38268
2.35125
2.44266
2.37094
2.43953
2.35141
2.40685
2.31473
2.36779
2.29287
2.32097
2.28206
2.28975
2.2861
2.31421
2.29682
2.34601
2.43348
2.53265
2.61367
2.71187
2.79074
2.89435
2.96801
3.01645
3.03534
3.0552
3.04496
3.02566
2.99439
2.95944
2.90618
2.85683
2.7919
2.70063
2.6276
2.5858
2.56722
2.53529
2.49405
2.49327
2.50045
2.5062
2.52738
2.55389
2.58444
2.61271
2.64365
2.68317
2.73672
2.82135
2.9372
3.02732
3.0872
3.113
3.14042
3.16141
3.17404
3.1872
3.19971
3.21492
3.22019
3.23272
3.22467
3.22411
3.20239
3.17295
3.13381
3.14004
3.18465
3.20627
0.978779
0.980503
0.979231
0.977709
0.975788
0.973379
0.970776
0.967863
0.964185
0.960361
0.956412
0.951389
0.946557
0.941714
0.935574
0.929688
0.924114
0.91805
0.910838
0.904691
0.898689
0.891466
0.884032
0.877838
0.87188
0.864573
0.856362
0.849172
0.845008
0.838881
0.828607
0.818548
0.811027
0.802955
0.796715
0.790008
0.776238
0.751595
0.777265
0.861856
2.12674
2.20885
2.2123
2.20659
2.20108
2.20034
2.19917
2.22626
2.22061
2.31808
2.32096
2.35018
2.38268
2.37405
2.35574
2.34783
2.34479
2.31277
2.34379
2.3202
2.38595
2.45229
2.54147
2.63523
2.73802
2.82098
2.92155
2.98248
3.02534
3.03542
3.0415
3.06763
3.08736
3.08106
3.07394
3.06176
3.04792
3.02756
3.0006
2.97356
2.94343
2.91317
2.85611
2.78265
2.71314
2.62828
2.57373
2.54407
2.54382
2.53455
2.53127
2.53339
2.5494
2.57506
2.60524
2.64008
2.67662
2.72331
2.80243
2.922
3.01699
3.07836
3.10079
3.12556
3.14488
3.15894
3.17345
3.18559
3.20117
3.20789
3.22261
3.21668
3.21682
3.19593
3.17096
3.12975
3.13663
3.18248
3.20316
0.978719
0.980445
0.979164
0.977622
0.975695
0.973303
0.970557
0.967692
0.963958
0.959993
0.956024
0.951021
0.945892
0.940868
0.934965
0.928566
0.922724
0.916799
0.909062
0.902209
0.896046
0.889227
0.880551
0.873247
0.86723
0.860437
0.850351
0.842236
0.835295
0.830856
0.823619
0.810514
0.801959
0.796473
0.791806
0.79131
0.791377
0.793741
0.862556
1.31151
2.30986
2.26665
2.25643
2.24325
2.23003
2.21829
2.21142
2.19245
2.20137
2.18852
2.25169
2.215
2.33546
2.2724
2.40949
2.30287
2.42323
2.42875
2.52766
2.63625
2.74887
2.84104
2.94223
3.00641
3.03362
3.04472
3.04738
3.07238
3.08451
3.07636
3.04934
3.04564
3.06307
3.0679
3.07125
3.0665
3.05345
3.03848
3.02106
3.00396
2.98157
2.96145
2.92706
2.88013
2.81926
2.74216
2.68141
2.63262
2.56351
2.53281
2.53125
2.53545
2.5411
2.55995
2.58295
2.61572
2.65999
2.71779
2.80251
2.92231
3.01562
3.07381
3.09254
3.11336
3.12866
3.1441
3.15982
3.17144
3.187
3.19463
3.21116
3.20701
3.20845
3.18815
3.1678
3.12382
3.13122
3.17629
3.19701
0.978649
0.980379
0.97909
0.977523
0.975589
0.973209
0.970354
0.967449
0.963769
0.959613
0.955488
0.950726
0.945247
0.939952
0.934296
0.927374
0.921181
0.915098
0.907542
0.899821
0.893152
0.886395
0.877226
0.868877
0.861888
0.854917
0.845449
0.835181
0.826222
0.821306
0.814375
0.806259
0.790668
0.78261
0.77664
0.772066
0.775363
0.78749
0.897941
2.00491
2.28929
2.25998
2.24227
2.22817
2.21228
2.19603
2.18141
2.16563
2.15049
2.14954
2.14641
2.21344
2.20555
2.4163
2.42266
2.63028
2.65054
2.82716
2.87629
2.98201
2.98926
3.04264
3.04763
3.07844
3.07545
3.0798
3.06222
3.0604
3.06253
3.05984
3.04666
3.03611
3.04503
3.04556
3.05152
3.05135
3.04632
3.03473
3.02201
3.00881
2.99341
2.97624
2.95812
2.93551
2.90633
2.85069
2.76565
2.68185
2.63349
2.59747
2.58661
2.57692
2.56943
2.57464
2.59102
2.60856
2.64001
2.69861
2.78597
2.90988
3.00875
3.069
3.08587
3.10271
3.11411
3.13044
3.14688
3.15787
3.17295
3.18096
3.19864
3.1967
3.20049
3.1798
3.16227
3.11611
3.12376
3.16799
3.19145
0.978574
0.980309
0.97901
0.977419
0.97547
0.973097
0.970157
0.967145
0.963609
0.959276
0.954916
0.950353
0.944571
0.939046
0.933421
0.926266
0.919492
0.913198
0.906088
0.897412
0.889832
0.882843
0.874505
0.864575
0.855931
0.849243
0.840742
0.828226
0.81835
0.809669
0.805502
0.798353
0.785374
0.77159
0.761503
0.746686
0.729709
0.728259
0.84182
2.10718
2.2426
2.24028
2.23
2.21883
2.21116
2.20031
2.1901
2.17795
2.17223
2.17171
2.19246
2.23386
2.35615
2.54843
2.78304
2.87803
2.97564
2.99133
3.02299
3.01884
3.03788
3.04273
3.05447
3.05215
3.04732
3.04604
3.04563
3.0401
3.03508
3.03068
3.02817
3.01888
3.02104
3.0198
3.02865
3.0344
3.0349
3.02861
3.0183
3.0056
2.99308
2.97946
2.96625
2.95306
2.93782
2.9102
2.8593
2.78464
2.72962
2.66882
2.60859
2.58284
2.57416
2.57563
2.59025
2.61183
2.64456
2.6944
2.78123
2.90509
3.00505
3.06448
3.07912
3.09241
3.09927
3.1168
3.13338
3.14368
3.1587
3.167
3.18565
3.1856
3.19248
3.17091
3.15613
3.10823
3.11495
3.15711
3.18483
0.97849
0.980231
0.978923
0.977319
0.975324
0.97297
0.970025
0.96682
0.963388
0.958917
0.954381
0.949818
0.943961
0.938078
0.932269
0.925359
0.917946
0.911184
0.904255
0.895073
0.886618
0.879196
0.871257
0.860377
0.850733
0.842614
0.834182
0.823016
0.810643
0.800226
0.792988
0.78712
0.779337
0.758804
0.74575
0.727681
0.715164
0.775422
1.0044
2.21249
2.26465
2.26057
2.24758
2.24072
2.23264
2.22677
2.21953
2.21776
2.22215
2.23606
2.28605
2.40173
2.64182
2.91027
3.01928
3.03221
3.02748
3.03925
3.02285
3.03489
3.02148
3.02047
3.01875
3.02089
3.02032
3.01986
3.01974
3.02075
3.01561
3.01026
3.01098
3.00643
3.00643
3.00197
3.00625
3.01268
3.0184
3.01799
3.01275
3.00251
2.99308
2.9815
2.97059
2.95969
2.94665
2.92809
2.902
2.85945
2.80951
2.7376
2.67238
2.63517
2.61767
2.60864
2.61277
2.61932
2.63859
2.68991
2.77272
2.89428
3.00147
3.06095
3.073
3.08429
3.08649
3.10405
3.12045
3.13054
3.14526
3.15395
3.17305
3.1752
3.18483
3.16195
3.14858
3.10045
3.10479
3.1442
3.17659
0.978399
0.980147
0.97883
0.977222
0.975158
0.972824
0.969879
0.966521
0.963079
0.958577
0.953811
0.949115
0.943467
0.937132
0.930998
0.924439
0.916361
0.90898
0.901803
0.893214
0.883609
0.875058
0.866897
0.857178
0.845776
0.835625
0.827625
0.817669
0.803278
0.791912
0.780993
0.775707
0.767163
0.754364
0.739914
0.734033
0.727844
0.816633
1.65853
2.25011
2.25102
2.24775
2.24326
2.23788
2.23196
2.22991
2.23143
2.23792
2.2586
2.31434
2.43836
2.68657
2.95071
3.05669
3.06318
3.04947
3.03511
3.02978
3.01788
3.01141
3.00954
3.00479
2.99981
3.00061
2.99973
2.9965
2.99927
2.9976
2.99393
2.99261
2.98891
2.98546
2.98416
2.97762
2.97707
2.98195
2.99434
2.9998
3.00158
2.99474
2.98607
2.9794
2.97257
2.96343
2.95145
2.93416
2.91381
2.88892
2.85955
2.8108
2.74368
2.67923
2.63469
2.61221
2.61356
2.62888
2.65089
2.6971
2.7749
2.88853
2.99802
3.05591
3.06532
3.07588
3.07494
3.09054
3.10747
3.11763
3.13206
3.14138
3.16057
3.1648
3.17676
3.15372
3.14085
3.09312
3.0933
3.12974
3.16911
0.978299
0.980055
0.978729
0.977115
0.974996
0.972659
0.969709
0.96621
0.962689
0.9583
0.953301
0.948331
0.942933
0.936183
0.929752
0.923225
0.914894
0.906812
0.899332
0.891146
0.880586
0.871002
0.862491
0.853196
0.840755
0.829836
0.820331
0.810251
0.797372
0.783753
0.772236
0.761624
0.756898
0.74901
0.731917
0.727082
0.733481
0.854223
2.05797
2.24727
2.22829
2.22211
2.22126
2.22085
2.22356
2.22776
2.2369
2.26293
2.32585
2.45424
2.69739
2.95981
3.05055
3.06399
3.0418
3.0223
3.01296
3.00564
2.9962
2.99621
2.99196
2.98878
2.98775
2.98386
2.979
2.98101
2.9798
2.97723
2.97853
2.9762
2.97546
2.97484
2.97277
2.96622
2.96288
2.96247
2.97354
2.97753
2.98411
2.98025
2.97683
2.97493
2.96969
2.96351
2.95461
2.9404
2.92048
2.89659
2.8728
2.84514
2.80231
2.73809
2.68243
2.65064
2.64234
2.6514
2.6652
2.70202
2.77395
2.88357
2.9895
3.04677
3.05732
3.06866
3.06569
3.07712
3.09435
3.10486
3.11857
3.12902
3.14846
3.15532
3.16962
3.14535
3.13188
3.08543
3.08245
3.11583
3.16107
0.978191
0.979956
0.978621
0.976998
0.974841
0.972473
0.969518
0.96592
0.962263
0.958017
0.952788
0.947584
0.942235
0.935262
0.92841
0.921669
0.913689
0.90487
0.896681
0.888408
0.8779
0.867501
0.857788
0.848091
0.836188
0.824185
0.813551
0.803612
0.791039
0.774995
0.762384
0.749257
0.741611
0.729461
0.707423
0.675669
0.696322
0.831755
2.1018
2.22571
2.2285
2.2342
2.22841
2.22405
2.2268
2.23404
2.26248
2.32959
2.47213
2.72201
2.97211
3.05299
3.0588
3.03783
3.01863
3.00682
2.99161
2.98137
2.98155
2.97578
2.9706
2.97303
2.97099
2.96766
2.96974
2.9677
2.96392
2.96469
2.96239
2.95872
2.96121
2.96013
2.9603
2.95719
2.95456
2.94699
2.95295
2.95467
2.96335
2.96423
2.96797
2.96726
2.96565
2.95928
2.95125
2.93921
2.92586
2.90528
2.88035
2.85633
2.83074
2.79068
2.73282
2.68333
2.65373
2.65874
2.67528
2.71185
2.77898
2.88147
2.98024
3.03654
3.04724
3.06073
3.05664
3.06371
3.08121
3.09266
3.10573
3.1169
3.13616
3.14457
3.16035
3.13739
3.12394
3.07725
3.07112
3.10247
3.15246
0.978075
0.979849
0.978506
0.976871
0.974695
0.972259
0.96931
0.965693
0.961816
0.957652
0.952269
0.94682
0.941367
0.93445
0.927137
0.920055
0.912352
0.902914
0.893956
0.88528
0.875302
0.864053
0.853355
0.84314
0.831143
0.818361
0.806876
0.797673
0.785528
0.766172
0.752638
0.741801
0.732335
0.727494
0.721671
0.720298
0.794416
1.22792
2.27027
2.25677
2.24926
2.24403
2.23795
2.23856
2.24795
2.27455
2.3468
2.49186
2.75273
2.98761
3.05344
3.05781
3.0339
3.01278
3.00207
2.9868
2.97567
2.97431
2.96753
2.95901
2.95879
2.95612
2.95193
2.95551
2.95612
2.95431
2.95479
2.95356
2.94997
2.94913
2.94773
2.94539
2.94898
2.9476
2.94697
2.94017
2.94216
2.94078
2.94896
2.94939
2.95338
2.95065
2.95266
2.94785
2.94255
2.93405
2.92317
2.91079
2.89128
2.8668
2.84225
2.81323
2.77041