/*--------------------------------*- C++ -*----------------------------------*\
| =========                 |                                                 |
| \\      /  F ield         | OpenFOAM: The Open Source CFD Toolbox           |
|  \\    /   O peration     | Version:  2.2.x                                 |
|   \\  /    A nd           | Web:      www.OpenFOAM.org                      |
|    \\/     M anipulation  |                                                 |
\*---------------------------------------------------------------------------*/
FoamFile
{
    version     2.0;
    format      ascii;
    class       volScalarField;
    location    "1.9";
    object      Bx;
}
// * * * * * * * * * * * * * * * * * * * * * * * * * * * * * * * * * * * * * //

dimensions      [1 0 -2 0 0 -1 0];

internalField   nonuniform List<scalar> 
14161
(
1.02737
1.00608
1.00336
1.00366
1.00514
1.00698
1.00802
1.00912
1.01086
1.01257
1.01421
1.01581
1.01809
1.01862
1.01851
1.01773
1.01746
1.01729
1.01724
1.01719
1.01702
1.01742
1.0183
1.01847
1.01844
1.01868
1.01877
1.01871
1.01846
1.01814
1.01776
1.01739
1.01692
1.01646
1.01592
1.01552
1.0157
1.01692
1.02082
1.03411
1.05093
1.17174
1.35875
1.40309
1.36884
1.36055
1.35026
1.33899
1.32562
1.3116
1.29599
1.28071
1.26923
1.25806
1.24929
1.24374
1.24039
1.23841
1.23732
1.2365
1.23572
1.23482
1.23331
1.23117
1.22882
1.22651
1.22509
1.22415
1.22382
1.22394
1.22583
1.2285
1.23055
1.23457
1.23962
1.24402
1.24669
1.25181
1.26071
1.26998
1.27277
1.27376
1.28135
1.29259
1.29373
1.28896
1.29113
1.3006
1.30814
1.3134
1.31214
1.30318
1.29032
1.26611
1.23334
1.18783
1.12508
1.05244
0.978821
0.917131
0.867465
0.826866
0.790979
0.75672
0.723544
0.691002
0.656886
0.622388
0.58622
0.546925
0.504228
0.45815
0.408475
0.352658
0.292126
0.231026
0.160179
0.111427
0.0260856
0.924035
0.979488
0.99339
1.00152
1.00576
1.00821
1.00882
1.00934
1.00795
1.00514
1.00098
0.995082
0.987633
0.983344
0.983062
0.984479
0.986612
0.990024
0.994227
0.998244
1.00164
1.0033
1.0035
1.0036
1.00365
1.00333
1.00288
1.00247
1.0024
1.00242
1.00239
1.0024
1.00238
1.00239
1.00255
1.00254
1.0021
1.00186
1.00028
1.00307
0.986784
1.00872
0.858713
0.840479
0.849738
0.86494
0.884054
0.902347
0.922686
0.944349
0.966995
0.989689
1.00711
1.02556
1.04429
1.06155
1.07599
1.08853
1.09983
1.10969
1.11827
1.12597
1.1333
1.14025
1.14686
1.15343
1.15941
1.16524
1.17017
1.17432
1.17759
1.18026
1.18352
1.18516
1.18315
1.18031
1.18292
1.1813
1.17211
1.1559
1.15019
1.16238
1.15571
1.10241
1.07189
1.0872
1.05617
0.988502
0.948744
0.897713
0.842727
0.802542
0.75352
0.70204
0.656367
0.616013
0.589238
0.56374
0.542229
0.526402
0.511309
0.493113
0.47168
0.45586
0.435282
0.410551
0.386767
0.362128
0.333185
0.304945
0.273433
0.240318
0.204611
0.164261
0.128683
0.0883299
0.0610788
0.0385376
0.0164606
1.14607
1.05748
1.03114
1.01746
1.01117
1.008
1.00863
1.01051
1.01491
1.02161
1.03062
1.04262
1.05707
1.06824
1.07196
1.07227
1.07004
1.06581
1.06007
1.05419
1.04885
1.04615
1.04465
1.04427
1.04415
1.045
1.04637
1.0471
1.0471
1.04659
1.04595
1.04519
1.04427
1.04329
1.04217
1.04093
1.03948
1.03723
1.03341
1.02343
1.00691
0.94898
0.730288
0.762005
0.773035
0.812389
0.843594
0.884647
0.922711
0.957756
0.993342
1.01893
1.04018
1.05721
1.07507
1.0889
1.10031
1.11108
1.12115
1.13018
1.13794
1.14552
1.15245
1.15918
1.16479
1.17071
1.17633
1.18169
1.18611
1.18914
1.1921
1.19433
1.19565
1.19698
1.19736
1.19938
1.19547
1.18535
1.18564
1.18499
1.16698
1.12322
1.09705
1.10329
1.07001
0.975015
0.918038
0.887988
0.809046
0.736958
0.673853
0.600486
0.538089
0.49884
0.457458
0.41573
0.388612
0.368488
0.357631
0.346733
0.330604
0.321506
0.312898
0.2937
0.278746
0.265706
0.240353
0.219953
0.193047
0.169539
0.138445
0.116449
0.0895706
0.0712624
0.048568
0.0322756
0.022805
0.0111204
0.00353515
0.809959
0.934389
0.96827
0.988248
0.997656
1.0031
1.00458
1.00413
1.00004
0.992727
0.982468
0.96847
0.951008
0.938034
0.933671
0.93479
0.938814
0.945605
0.954164
0.962836
0.970108
0.974801
0.976016
0.976392
0.976235
0.975062
0.973285
0.972015
0.971247
0.97101
0.971203
0.9714
0.971649
0.971817
0.971882
0.971643
0.97087
0.969117
0.965545
0.95825
0.942391
0.875689
0.735744
0.751848
0.766966
0.806662
0.842949
0.882032
0.9203
0.951146
0.976971
1.00237
1.02404
1.04125
1.05626
1.06916
1.08077
1.09096
1.10104
1.10993
1.11869
1.12629
1.13414
1.14054
1.14726
1.15219
1.15694
1.16093
1.16432
1.16613
1.16756
1.16728
1.16641
1.16481
1.16247
1.15858
1.15182
1.14587
1.13769
1.11577
1.09952
1.09226
1.07023
1.01225
0.973277
0.966008
0.909089
0.819337
0.758354
0.697163
0.622001
0.573641
0.514089
0.451164
0.408571
0.389376
0.364981
0.337489
0.320143
0.313988
0.305028
0.28416
0.27033
0.264271
0.24004
0.219586
0.194994
0.172651
0.14004
0.118858
0.0884681
0.0718572
0.0516005
0.0426536
0.0266364
0.0219837
0.0138494
0.006198
0.00392134
1.23597
1.09568
1.05383
1.03044
1.02019
1.01509
1.01477
1.01679
1.0228
1.03276
1.04647
1.06448
1.08654
1.10325
1.11107
1.11253
1.10897
1.10238
1.09387
1.08503
1.07778
1.07299
1.07115
1.07032
1.07094
1.07269
1.07493
1.07589
1.07609
1.07574
1.07502
1.07416
1.07316
1.07206
1.07079
1.06933
1.06743
1.065
1.06137
1.05712
1.03935
1.04187
0.870364
0.870268
0.886081
0.923122
0.944832
0.967593
0.986808
1.0073
1.02817
1.04673
1.06288
1.08005
1.09428
1.10618
1.1159
1.12669
1.13448
1.14264
1.14915
1.15473
1.16018
1.16477
1.16878
1.17279
1.17592
1.17983
1.18394
1.18779
1.19172
1.19511
1.19805
1.20073
1.20234
1.20224
1.1999
1.19256
1.18333
1.17707
1.16736
1.1367
1.08304
1.08337
1.06363
0.973579
0.918294
0.889286
0.807546
0.742348
0.671784
0.597249
0.530631
0.489464
0.436351
0.385623
0.354694
0.340673
0.32986
0.308805
0.291885
0.286717
0.269445
0.248354
0.233456
0.214687
0.181131
0.15969
0.124768
0.106331
0.0725489
0.0627724
0.0383974
0.0349639
0.017456
0.0190163
0.00610617
0.00444283
0.00321445
0.721066
0.899507
0.946933
0.97446
0.986348
0.993315
0.995398
0.994278
0.989127
0.980279
0.9676
0.950464
0.9289
0.91105
0.903367
0.902851
0.908445
0.916859
0.927063
0.937336
0.945652
0.950865
0.954117
0.955505
0.955087
0.95327
0.950837
0.949009
0.948328
0.947971
0.947864
0.947991
0.948221
0.948451
0.948743
0.949205
0.949994
0.951518
0.954044
0.963796
0.96201
1.01703
0.969723
0.996744
0.997662
1.0346
1.05174
1.06928
1.08246
1.09557
1.10552
1.11795
1.12709
1.13783
1.14643
1.15271
1.16041
1.16546
1.17098
1.17528
1.17931
1.18305
1.18667
1.1883
1.19197
1.19389
1.19566
1.19712
1.19917
1.19988
1.20155
1.20216
1.20405
1.20551
1.20569
1.2048
1.20467
1.20834
1.2043
1.19809
1.17507
1.16591
1.15084
1.11565
1.05263
1.03471
0.997176
0.934499
0.884351
0.839083
0.772127
0.716922
0.644409
0.569957
0.503503
0.453153
0.41207
0.376031
0.346362
0.32775
0.311143
0.28989
0.271626
0.261293
0.239576
0.215388
0.189642
0.166328
0.126206
0.109761
0.0742487
0.064515
0.0354053
0.0361818
0.0140238
0.0205086
0.00373138
0.00529479
0.00291156
1.29619
1.12357
1.07272
1.04441
1.03244
1.02576
1.02465
1.02627
1.03228
1.04234
1.05634
1.07517
1.09812
1.11812
1.12718
1.1293
1.12578
1.11893
1.10997
1.10074
1.09318
1.08797
1.08551
1.08495
1.08529
1.08644
1.08795
1.08865
1.0883
1.08766
1.08667
1.08555
1.08441
1.08343
1.0827
1.08227
1.08217
1.08342
1.08591
1.09188
1.10629
1.12518
1.23399
1.21571
1.21154
1.18899
1.1838
1.17556
1.17171
1.17191
1.16929
1.17473
1.17371
1.18149
1.18256
1.18944
1.19139
1.19836
1.19969
1.20554
1.20777
1.21214
1.21418
1.21763
1.21934
1.22259
1.22419
1.22681
1.22934
1.2326
1.23543
1.23796
1.23887
1.24062
1.24202
1.24624
1.24152
1.24436
1.23417
1.2388
1.2218
1.22376
1.18992
1.1785
1.14702
1.12461
1.07164
1.04295
0.995046
0.953196
0.888524
0.824019
0.752251
0.68332
0.601222
0.525138
0.462926
0.41997
0.387839
0.358032
0.332701
0.315711
0.298015
0.275923
0.256146
0.239673
0.210329
0.185846
0.149954
0.130039
0.0921822
0.0820225
0.0467745
0.0462402
0.0204575
0.0268403
0.00452936
0.00970357
0.00244271
0.668358
0.876519
0.930206
0.960988
0.974367
0.982951
0.986165
0.986577
0.982921
0.975495
0.964388
0.948931
0.929454
0.911307
0.903797
0.903383
0.908513
0.91685
0.926614
0.93645
0.94496
0.951123
0.954386
0.955663
0.955973
0.955408
0.954264
0.952983
0.952806
0.953154
0.953897
0.954747
0.955607
0.956295
0.956648
0.956797
0.956668
0.956451
0.955145
0.952759
0.951331
0.959281
1.04142
1.10637
1.13942
1.1605
1.17066
1.17924
1.18766
1.19161
1.19903
1.20096
1.20792
1.20986
1.21575
1.21681
1.22219
1.22344
1.22702
1.22923
1.23142
1.23331
1.23506
1.2376
1.2391
1.24114
1.24198
1.24353
1.24402
1.24625
1.24699
1.24885
1.24941
1.25066
1.24934
1.25131
1.24588
1.25023
1.23924
1.246
1.22365
1.22677
1.19273
1.19243
1.14673
1.13394
1.09116
1.06949
1.0178
0.984633
0.92547
0.878391
0.823328
0.768776
0.702171
0.636697
0.562423
0.499204
0.445199
0.40473
0.37307
0.344824
0.316079
0.295935
0.277115
0.260374
0.239082
0.218287
0.185312
0.162947
0.125685
0.109851
0.0663171
0.0613106
0.0310164
0.0352941
0.00976633
0.0161411
0.00330146
1.3237
1.138
1.08554
1.05619
1.04391
1.03636
1.0337
1.03395
1.03732
1.04439
1.05502
1.06996
1.08866
1.10732
1.11558
1.11764
1.1143
1.10807
1.10014
1.09181
1.08443
1.07899
1.07562
1.07413
1.07372
1.07361
1.07348
1.07309
1.07221
1.07094
1.06926
1.06733
1.06513
1.06273
1.0604
1.0582
1.05627
1.05532
1.05499
1.05568
1.05921
1.07323
1.10249
1.09597
1.11195
1.12389
1.13515
1.14263
1.14682
1.15225
1.15892
1.16333
1.17127
1.17478
1.18313
1.18446
1.19286
1.1944
1.19984
1.20148
1.207
1.20991
1.21502
1.21849
1.22241
1.22553
1.22815
1.23159
1.23445
1.2387
1.24223
1.24579
1.24778
1.24891
1.24699
1.24907
1.24346
1.24801
1.23499
1.2419
1.21733
1.22485
1.1914
1.19336
1.15201
1.14936
1.11019
1.09646
1.05177
1.03111
0.987704
0.946442
0.894311
0.841857
0.78253
0.719769
0.639462
0.561529
0.486063
0.435469
0.39348
0.364972
0.340949
0.319949
0.300764
0.286543
0.271988
0.252905
0.226904
0.203149
0.165863
0.14204
0.0920306
0.0821747
0.0445526
0.0472568
0.0152686
0.0237507
0.00308915
0.660127
0.871642
0.924769
0.95564
0.969566
0.978693
0.983253
0.984859
0.984474
0.981135
0.97455
0.964695
0.951658
0.937813
0.93226
0.932576
0.936741
0.943134
0.95091
0.959022
0.96633
0.972012
0.975846
0.978026
0.979254
0.979872
0.980171
0.980731
0.981889
0.983411
0.985221
0.98712
0.98928
0.991563
0.993721
0.996268
1.00012
1.00427
1.00391
1.00454
0.993676
1.0263
0.91728
0.941614
0.978105
1.006
1.02529
1.04228
1.05955
1.07606
1.09236
1.10709
1.11708
1.12667
1.14252
1.15325
1.16018
1.16486
1.174
1.17877
1.18462
1.1878
1.19263
1.19601
1.20045
1.20374
1.20666
1.20981
1.2121
1.21587
1.21844
1.22315
1.22642
1.23155
1.23221
1.2365
1.22997
1.23531
1.22071
1.22861
1.2026
1.21229
1.17579
1.18309
1.14286
1.14183
1.10457
1.09673
1.05551
1.04068
1.00767
0.970884
0.930206
0.884492
0.830653
0.767551
0.690706
0.611671
0.534209
0.480775
0.435102
0.40391
0.373235
0.349584
0.327513
0.310653
0.295521
0.280217
0.257954
0.234048
0.203337
0.176578
0.124575
0.110332
0.0651866
0.0620481
0.0260836
0.0318992
0.00610522
1.31617
1.13357
1.08436
1.0564
1.04404
1.03582
1.03171
1.03011
1.03104
1.03454
1.04109
1.05013
1.06188
1.07501
1.08217
1.0833
1.08077
1.07636
1.07069
1.06458
1.05881
1.05419
1.051
1.04901
1.04775
1.04698
1.04633
1.04543
1.04404
1.04195
1.03911
1.03583
1.03204
1.02801
1.02368
1.01835
1.00829
0.996505
0.986051
0.976132
0.958886
0.960753
0.843629
0.901528
0.928777
0.961118
0.986552
1.01037
1.03157
1.05042
1.06819
1.08055
1.1039
1.1213
1.13157
1.1371
1.15256
1.16367
1.17242
1.17594
1.18356
1.18766
1.19304
1.19515
1.19875
1.201
1.20424
1.20651
1.20681
1.20753
1.20643
1.20818
1.20667
1.20966
1.20577
1.21037
1.20035
1.20713
1.19003
1.19929
1.17293
1.18539
1.15069
1.16476
1.13157
1.13883
1.10772
1.10848
1.0754
1.06586
1.04315
1.01074
0.976722
0.932035
0.882298
0.823317
0.758847
0.686796
0.609918
0.540112
0.480245
0.437631
0.401193
0.372663
0.348757
0.330905
0.31735
0.305551
0.287687
0.265952
0.23872
0.212827
0.165536
0.145534
0.0888396
0.0811085
0.0375329
0.0412796
0.00859921
0.712167
0.892346
0.93864
0.966365
0.979168
0.988346
0.994222
0.996991
0.998698
0.99753
0.994363
0.98913
0.981678
0.973822
0.970719
0.971345
0.973874
0.977913
0.982894
0.988244
0.993386
0.997754
1.0011
1.00337
1.00486
1.00603
1.00712
1.0084
1.01014
1.01254
1.01533
1.01809
1.02258
1.02745
1.03126
1.03442
1.03906
1.04467
1.04873
1.05248
1.05394
1.0682
1.06049
1.04895
1.06438
1.0681
1.07487
1.07994
1.08948
1.09389
1.10725
1.11491
1.12897
1.13205
1.14745
1.15354
1.16569
1.1687
1.17875
1.18223
1.19165
1.19463
1.20084
1.20274
1.20758
1.20921
1.2139
1.21627
1.22009
1.22339
1.2251
1.22786
1.22665
1.22984
1.2244
1.23005
1.21885
1.22695
1.20935
1.21859
1.19051
1.20194
1.16431
1.1766
1.14096
1.14853
1.11649
1.11876
1.08895
1.07518
1.05743
1.02825
1.00261
0.960739
0.914953
0.861763
0.802737
0.734489
0.654239
0.577784
0.508102
0.459037
0.419087
0.388739
0.364968
0.346593
0.332276
0.321782
0.307344
0.287786
0.261744
0.23651
0.196873
0.172526
0.108117
0.0971876
0.0478594
0.0473311
0.0124236
1.26074
1.10657
1.06431
1.0408
1.03049
1.02292
1.0183
1.01586
1.01564
1.01799
1.02239
1.02741
1.03435
1.04192
1.04628
1.04774
1.04702
1.04486
1.04207
1.03898
1.03593
1.03337
1.03141
1.02998
1.02892
1.02807
1.02727
1.02618
1.02474
1.02285
1.01967
1.01617
1.01247
1.0072
1.0028
0.999065
0.994857
0.990669
0.986743
0.983808
0.984541
0.993597
1.03189
1.10592
1.12313
1.12641
1.13691
1.13472
1.14353
1.14317
1.15349
1.15346
1.16517
1.16606
1.18057
1.18259
1.1958
1.19889
1.21123
1.21263
1.22115
1.22143
1.22795
1.22836
1.23306
1.23351
1.23685
1.23743
1.24052
1.24133
1.24349
1.24445
1.2434
1.24471
1.23772
1.24099
1.22764
1.22881
1.21366
1.21594
1.18357
1.19239
1.1496
1.15879
1.1208
1.12598
1.09314
1.09054
1.06623
1.05056
1.0352
1.00742
0.988231
0.949859
0.909602
0.861311
0.812473
0.75463
0.683275
0.611119
0.537005
0.481325
0.438996
0.407571
0.382362
0.362876
0.347187
0.335764
0.324859
0.308086
0.285334
0.261897
0.227548
0.196668
0.126401
0.113684
0.055608
0.0549071
0.0180407
0.799549
0.92975
0.965273
0.986513
0.995785
1.00265
1.00721
1.00977
1.01166
1.01276
1.01099
1.00834
1.00418
1.0008
0.999107
0.999233
1.00064
1.0026
1.0053
1.00829
1.01126
1.01386
1.01589
1.01746
1.01873
1.01991
1.02106
1.02214
1.02395
1.02608
1.02912
1.03274
1.03571
1.03948
1.04325
1.04707
1.05121
1.05579
1.06039
1.0676
1.06832
1.10493
1.10218
1.12839
1.11734
1.1424
1.13817
1.15014
1.14914
1.15603
1.16027
1.16206
1.17229
1.17565
1.19034
1.19393
1.2083
1.21003
1.22227
1.2223
1.23124
1.23063
1.23729
1.23712
1.24195
1.24268
1.24666
1.24803
1.25167
1.25294
1.25695
1.25647
1.26155
1.25864
1.26524
1.25494
1.26172
1.24535
1.23185
1.2209
1.1745
1.16929
1.12119
1.12361
1.08368
1.08391
1.05275
1.0462
1.02983
1.01262
1.00169
0.973221
0.956597
0.923662
0.887124
0.844449
0.798016
0.742643
0.682732
0.615603
0.549515
0.49121
0.447616
0.413159
0.386399
0.365051
0.349596
0.338329
0.331158
0.318045
0.296201
0.274653
0.244395
0.217418
0.150311
0.136474
0.0681157
0.06535
0.0242338
1.18028
1.07062
1.0377
1.0203
1.01438
1.00991
1.00699
1.00587
1.00692
1.00765
1.01005
1.01395
1.01842
1.02271
1.0259
1.02751
1.02812
1.02787
1.02718
1.02628
1.02538
1.02461
1.02403
1.02355
1.02314
1.02285
1.02214
1.02162
1.02062
1.01907
1.01733
1.01518
1.01275
1.01028
1.00802
1.00647
1.00521
1.00524
1.00507
1.00987
0.998618
1.0678
0.935184
1.01134
1.00352
1.05277
1.06335
1.09026
1.10148
1.11931
1.13026
1.14054
1.15526
1.16445
1.17979
1.18577
1.20154
1.20411
1.21775
1.2181
1.22872
1.22887
1.23707
1.23767
1.24365
1.24456
1.24857
1.24944
1.25294
1.25386
1.25682
1.25865
1.25963
1.26454
1.25938
1.26749
1.25228
1.26451
1.23275
1.24301
1.1997
1.19498
1.15878
1.13929
1.11833
1.09589
1.08217
1.05072
1.03926
1.0146
1.00508
0.973588
0.958236
0.928897
0.891111
0.847687
0.803125
0.754429
0.699134
0.630756
0.566631
0.50487
0.460203
0.423144
0.395242
0.37261
0.356094
0.344625
0.338674
0.330338
0.312993
0.292486
0.263928
0.237523
0.180602
0.162726
0.0799971
0.0752982
0.0302277
0.886904
0.966643
0.990061
1.00328
1.00814
1.01182
1.01444
1.01639
1.01639
1.01612
1.01551
1.01457
1.0136
1.01199
1.01101
1.01105
1.01173
1.01308
1.01463
1.01639
1.01812
1.01971
1.02107
1.02235
1.02336
1.02412
1.02526
1.02656
1.02796
1.02972
1.03185
1.03415
1.0365
1.03847
1.04011
1.04101
1.04129
1.04084
1.03857
1.03822
1.01962
1.07151
0.896019
0.963307
0.957785
1.01046
1.02326
1.0627
1.07867
1.1081
1.12766
1.14838
1.17076
1.18247
1.20004
1.20599
1.22242
1.22478
1.24053
1.2415
1.25465
1.25499
1.26498
1.26462
1.27109
1.27081
1.27448
1.27466
1.27786
1.27831
1.2827
1.28129
1.28679
1.28105
1.28657
1.27061
1.28088
1.25222
1.25866
1.21062
1.21579
1.1629
1.16233
1.11099
1.10209
1.05918
1.05384
1.02055
1.00318
0.972336
0.965508
0.933556
0.918992
0.904976
0.883853
0.855444
0.821521
0.770921
0.715001
0.650518
0.591152
0.525598
0.47766
0.433858
0.401577
0.375391
0.356054
0.343069
0.336382
0.329681
0.31697
0.300503
0.276043
0.252481
0.201796
0.179693
0.0886238
0.0850634
0.03708
1.1057
1.03969
1.0186
1.00781
1.0053
1.0041
1.00362
1.00422
1.00486
1.00638
1.00835
1.01068
1.01337
1.01593
1.01813
1.01962
1.02073
1.0215
1.02205
1.02237
1.02271
1.0231
1.02335
1.02355
1.02373
1.02397
1.02407
1.02386
1.02346
1.02291
1.02199
1.02099
1.01982
1.0188
1.01773
1.01685
1.01615
1.01569
1.01459
1.01678
1.00601
1.05224
0.935212
1.00199
0.994364
1.0362
1.04363
1.08359
1.09695
1.13114
1.14808
1.17336
1.19702
1.2093
1.23177
1.23802
1.25773
1.25933
1.27588
1.27286
1.28429
1.27968
1.28672
1.28271
1.28662
1.28428
1.28529
1.28426
1.28556
1.28532
1.28865
1.28607
1.29201
1.28304
1.29163
1.27037
1.27957
1.24142
1.25712
1.20079
1.21268
1.15772
1.15508
1.10811
1.07637
1.03308
1.01616
0.981944
0.963719
0.930192
0.921428
0.889314
0.871764
0.861296
0.852723
0.832084
0.810941
0.774615
0.736075
0.679236
0.623656
0.555838
0.501912
0.453238
0.416314
0.387835
0.365495
0.350149
0.341912
0.335687
0.329291
0.315138
0.293129
0.269864
0.225176
0.195957
0.103397
0.0995212
0.0447203
0.950388
0.991555
1.00505
1.01115
1.01215
1.01283
1.01417
1.01507
1.01513
1.01489
1.01479
1.01464
1.01455
1.01448
1.01452
1.01497
1.01563
1.01657
1.01772
1.01911
1.02053
1.02191
1.02311
1.02424
1.02525
1.02618
1.02714
1.02825
1.02955
1.031
1.03251
1.03419
1.03578
1.0372
1.03831
1.03915
1.03944
1.03961
1.03823
1.04067
1.02759
1.11549
1.03449
1.07709
1.06799
1.10369
1.11105
1.14637
1.1578
1.18835
1.2028
1.22898
1.24806
1.26054
1.2843
1.28576
1.30467
1.29909
1.31458
1.3076
1.31835
1.31227
1.31882
1.31558
1.31914
1.31819
1.31867
1.3174
1.31683
1.31544
1.31674
1.31304
1.31887
1.31094
1.32223
1.29942
1.30232
1.26603
1.26724
1.2245
1.2073
1.17199
1.14397
1.11751
1.09029
1.05104
1.0343
0.988549
0.96729
0.925528
0.905112
0.884702
0.864681
0.836387
0.815462
0.798067
0.778808
0.754903
0.725428
0.681207
0.632819
0.571889
0.513706
0.46595
0.425211
0.395468
0.370087
0.352049
0.34065
0.334547
0.33218
0.323707
0.303131
0.281979
0.23941
0.213421
0.124085
0.118737
0.0550123
1.05477
1.02055
1.00927
1.00455
1.00464
1.00487
1.00535
1.00645
1.0076
1.00876
1.01013
1.01168
1.01327
1.01488
1.01638
1.01764
1.01872
1.01986
1.0209
1.02178
1.02273
1.0236
1.02439
1.02507
1.02581
1.02647
1.02703
1.02744
1.02771
1.02789
1.02785
1.02788
1.02792
1.02768
1.02785
1.0283
1.02849
1.02894
1.02903
1.03272
1.02669
1.09084
1.07394
1.11558
1.13119
1.16671
1.17796
1.21181
1.22627
1.25555
1.2698
1.29037
1.30206
1.30729
1.32445
1.31871
1.33382
1.32376
1.33368
1.32756
1.33198
1.32649
1.32944
1.32541
1.32655
1.32523
1.32543
1.32337
1.32244
1.3225
1.32112
1.32383
1.31868
1.32669
1.31021
1.32591
1.27844
1.28287
1.21391
1.21487
1.14999
1.13242
1.10295
1.05632
1.03349
0.992508
0.976624
0.944311
0.926418
0.892314
0.858671
0.841067
0.833583
0.822589
0.80759
0.788019
0.763611
0.738723
0.710637
0.674072
0.628728
0.573904
0.517006
0.471351
0.428396
0.396809
0.368453
0.346879
0.333354
0.326728
0.323932
0.318195
0.303616
0.286801
0.251853
0.232257
0.146287
0.139393
0.0678879
0.986414
1.00359
1.01033
1.01229
1.01198
1.01176
1.01191
1.01226
1.01266
1.01288
1.01328
1.01374
1.01425
1.01492
1.01559
1.01634
1.01726
1.0183
1.01958
1.02091
1.02225
1.02354
1.02485
1.02588
1.02692
1.0281
1.02938
1.03057
1.03193
1.03342
1.03481
1.03619
1.03756
1.03875
1.03955
1.04003
1.03972
1.03807
1.03588
1.03491
1.03447
1.06755
1.08444
1.11001
1.14649
1.16426
1.21287
1.23414
1.27241
1.28827
1.3146
1.3184
1.33871
1.33399
1.35445
1.34398
1.36102
1.35348
1.3587
1.3527
1.35761
1.35106
1.35246
1.34956
1.34778
1.34748
1.34465
1.34288
1.34233
1.34204
1.34156
1.34134
1.33635
1.33065
1.32416
1.28476
1.26801
1.19309
1.18658
1.10857
1.1018
1.044
1.03755
0.988479
0.964885
0.919524
0.894289
0.873121
0.854069
0.855669
0.836778
0.812507
0.791623
0.783281
0.774191
0.764781
0.754354
0.73703
0.714506
0.682368
0.641629
0.593801
0.537034
0.48861
0.440834
0.405019
0.374535
0.350464
0.334295
0.32497
0.321434
0.318376
0.311933
0.300664
0.271392
0.254583
0.167038
0.160115
0.0819518
1.02768
1.01261
1.00779
1.00631
1.00644
1.00702
1.00777
1.00868
1.00956
1.01053
1.0116
1.01271
1.01394
1.0152
1.01636
1.01745
1.01854
1.01983
1.02107
1.02222
1.0234
1.0246
1.02581
1.027
1.02807
1.02929
1.03064
1.0319
1.03295
1.0339
1.03468
1.03529
1.03569
1.03643
1.03742
1.03893
1.04176
1.04565
1.05523
1.0609
1.11029
1.11882
1.11819
1.13994
1.16142
1.18175
1.2256
1.23289
1.27477
1.27542
1.31371
1.30939
1.34314
1.33193
1.35756
1.34209
1.36104
1.35486
1.36006
1.35791
1.36114
1.36022
1.35824
1.35655
1.35257
1.35278
1.35094
1.34966
1.34613
1.34213
1.33246
1.3232
1.28488
1.25371
1.18658
1.13016
1.07803
1.01281
0.971965
0.953173
0.918409
0.913577
0.900861
0.90505
0.896303
0.884971
0.864013
0.837742
0.815415
0.798495
0.794297
0.788273
0.77765
0.764509
0.750962
0.739937
0.732542
0.717755
0.6999
0.671175
0.639701
0.59475
0.547048
0.496294
0.449384
0.411363
0.382615
0.356545
0.33863
0.32711
0.322994
0.319338
0.317881
0.309864
0.285622
0.269202
0.185967
0.178083
0.0948636
1.00221
1.00764
1.01115
1.01103
1.01051
1.0103
1.01043
1.01081
1.01133
1.01198
1.0127
1.0134
1.01414
1.01511
1.01616
1.01723
1.01829
1.01963
1.02106
1.02244
1.02379
1.02509
1.0265
1.02807
1.0294
1.03074
1.03229
1.03395
1.03532
1.0371
1.0393
1.04174
1.0439
1.04612
1.04829
1.05012
1.05231
1.053
1.05632
1.04225
1.13461
1.03935
1.06686
1.08344
1.09981
1.11401
1.15099
1.16086
1.20579
1.21234
1.25918
1.26163
1.30372
1.29961
1.33161
1.33388
1.35457
1.35307
1.36233
1.35797
1.36247
1.36248
1.3597
1.36082
1.35445
1.34938
1.33216
1.30698
1.26115
1.22104
1.14913
1.08953
0.998974
0.902588
0.824058
0.75998
0.741072
0.714976
0.709258
0.705152
0.713005
0.727903
0.742195
0.759005
0.775458
0.784015
0.788453
0.789135
0.784161
0.773556
0.756918
0.749429
0.740949
0.739172
0.735814
0.729736
0.721731
0.710759
0.697139
0.673544
0.646115
0.605228
0.560212
0.508711
0.460908
0.420462
0.390602
0.36225
0.342035
0.328425
0.324453
0.319939
0.322012
0.316631
0.298481
0.283078
0.208366
0.198361
0.10935
1.01688
1.00999
1.00872
1.00783
1.00797
1.00838
1.00901
1.00971
1.01046
1.01137
1.01233
1.01337
1.01438
1.01551
1.01682
1.01806
1.01925
1.02063
1.02212
1.02356
1.02489
1.02637
1.02779
1.02942
1.03098
1.03245
1.03393
1.0357
1.03738
1.0389
1.04021
1.04153
1.04272
1.04349
1.04394
1.04396
1.04355
1.0431
1.04449
1.04294
1.0806
1.06439
1.08109
1.09287
1.10243
1.116
1.14102
1.15672
1.20036
1.20988
1.26341
1.26161
1.31376
1.30984
1.34671
1.34259
1.36028
1.35852
1.35527
1.3559
1.34467
1.33947
1.31235
1.2897
1.23739
1.18227
1.10649
1.02787
0.917404
0.806641
0.716987
0.64071
0.593643
0.549457
0.523402
0.505571
0.505143
0.50864
0.519518
0.532153
0.550338
0.57348
0.598263
0.631405
0.656446
0.686767
0.702852
0.717603
0.723896
0.728903
0.728499
0.727551
0.722477
0.715334
0.713188
0.709998
0.705301
0.697856
0.686404
0.665818
0.642486
0.605165
0.567892
0.517513
0.475611
0.431081
0.40115
0.371401
0.349393
0.334246
0.328803
0.323667
0.326925
0.324353
0.310505
0.296532
0.230766
0.219255
0.125167
1.00886
1.00877
1.00998
1.0101
1.0096
1.00956
1.00979
1.01032
1.01096
1.01177
1.01268
1.0137
1.01468
1.01576
1.01702
1.01837
1.01969
1.02114
1.02268
1.02423
1.02567
1.02723
1.02862
1.03031
1.03213
1.03388
1.03555
1.03734
1.03961
1.0418
1.0442
1.04669
1.04959
1.05277
1.05609
1.05973
1.06394
1.07027
1.07211
1.09929
1.11092
1.09895
1.09234
1.09421
1.09634
1.10689
1.11381
1.13848
1.14471
1.18796
1.1938
1.251
1.25417
1.31426
1.30412
1.34147
1.31081
1.32305
1.27968
1.2662
1.20063
1.15014
1.05984
0.966776
0.859184
0.769616
0.690839
0.627045
0.589582
0.536575
0.491991
0.451816
0.429817
0.415239
0.404526
0.399256
0.400909
0.408215
0.423622
0.435981
0.450617
0.469455
0.493565
0.518673
0.555553
0.591844
0.629663
0.65081
0.668035
0.681948
0.689446
0.694656
0.698484
0.699734
0.69717
0.696729
0.693634
0.689242
0.680817
0.66616
0.643206
0.611426
0.575129
0.525224
0.48497
0.439248
0.407685
0.378343
0.356069
0.34012
0.333778
0.327632
0.331737
0.328996
0.320872
0.309878
0.250002
0.238871
0.14455
1.0122
1.00901
1.00905
1.00892
1.00889
1.00931
1.00953
1.0102
1.01091
1.01176
1.01277
1.01388
1.01503
1.01621
1.01757
1.01906
1.02053
1.02201
1.02355
1.02519
1.0268
1.02842
1.03002
1.03201
1.03413
1.0363
1.03845
1.04036
1.04244
1.04463
1.04648
1.04835
1.05015
1.05193
1.05358
1.05551
1.05644
1.06139
1.05293
1.14512
1.0404
1.07062
1.07786
1.09034
1.10051
1.10977
1.12026
1.13241
1.14737
1.17282
1.18634
1.23784
1.2355
1.29844
1.2618
1.30199
1.2225
1.2067
1.09239
1.02179
0.895843
0.818707
0.74171
0.690914
0.639782
0.586659
0.548544
0.507078
0.473658
0.45674
0.425255
0.406869
0.389237
0.375131
0.372338
0.369176
0.37216
0.375927
0.383998
0.392981
0.406143
0.41944
0.43725
0.457924
0.483674
0.513511
0.549722
0.581352
0.617473
0.640343
0.657235
0.665315
0.673503
0.680829
0.682842
0.683502
0.682185
0.679222
0.671924
0.659062
0.638722
0.611599
0.578178
0.534058
0.495695
0.449882
0.417976
0.389628
0.366003
0.349091
0.341117
0.333757
0.336186
0.334534
0.331034
0.322723
0.269027
0.2539
0.159507
1.00989
1.00853
1.00927
1.00971
1.00959
1.00976
1.0099
1.01043
1.01117
1.01202
1.01295
1.01405
1.01529
1.01651
1.01793
1.01956
1.02118
1.02272
1.02427
1.02599
1.02784
1.02966
1.03145
1.03342
1.03576
1.03799
1.04039
1.04274
1.04479
1.04718
1.04962
1.0517
1.05349
1.05573
1.05796
1.05965
1.06022
1.06118
1.05542
1.08895
1.05867
1.06899
1.07553
1.08139
1.08607
1.09265
1.0994
1.10919
1.11721
1.13236
1.14081
1.17249
1.16464
1.20256
1.13513
1.13635
1.00141
0.916507
0.824414
0.765336
0.715791
0.655387
0.627255
0.588306
0.560164
0.534181
0.508483
0.488554
0.462068
0.441858
0.424948
0.406116
0.398037
0.381459
0.377775
0.373051
0.374345
0.37544
0.380689
0.384467
0.392132
0.397823
0.408437
0.423489
0.44167
0.466158
0.493416
0.526305
0.56032
0.58941
0.61589
0.638038
0.650992
0.661624
0.668074
0.67051
0.670337
0.669498
0.665006
0.655055
0.637098
0.613405
0.581132
0.541568
0.501058
0.457458
0.424271
0.397419
0.37256
0.354288
0.345693
0.336964
0.339674
0.338127
0.337854
0.33176
0.282308
0.265406
0.176017
1.01063
1.00842
1.00886
1.00931
1.00962
1.00969
1.01022
1.01059
1.01137
1.01224
1.01307
1.01416
1.01553
1.01694
1.01835
1.02004
1.02177
1.0234
1.02508
1.02694
1.02892
1.03084
1.03286
1.03463
1.03698
1.03935
1.04191
1.04457
1.04691
1.04914
1.05152
1.05383
1.05616
1.05877
1.06137
1.06477
1.06889
1.07556
1.0828
1.10465
1.08544
1.07865
1.07917
1.07874
1.07974
1.08154
1.08333
1.08559
1.09069
1.09211
1.09714
1.0885
1.0924
1.03058
0.984024
0.852062
0.805142
0.75169
0.701941
0.677084
0.645057
0.614348
0.590376
0.57031
0.546424
0.531578
0.5132
0.501142
0.486937
0.46892
0.455308
0.438972
0.428817
0.412718
0.401813
0.395099
0.389954
0.388163
0.389041
0.392134
0.396913
0.399887
0.406171
0.413097
0.424917
0.442025
0.465111
0.488954
0.514743
0.548096
0.576442
0.60339
0.621132
0.635271
0.648206
0.657229
0.661445
0.660897
0.65672
0.647726
0.633653
0.613804
0.586412
0.550492
0.510648
0.467988
0.433539
0.407153
0.381221
0.362373
0.352497
0.343768
0.345656
0.344442
0.345779
0.341513
0.29632
0.280878
0.196773
1.0099
1.00825
1.00892
1.0094
1.00985
1.01012
1.01058
1.01089
1.01157
1.01239
1.01336
1.01439
1.0158
1.01731
1.01878
1.02033
1.02218
1.024
1.02575
1.02768
1.02991
1.03206
1.03446
1.03685
1.03941
1.04233
1.0451
1.0477
1.05022
1.05254
1.05505
1.05763
1.06014
1.06291
1.06601
1.06898
1.0745
1.06887
1.12646
1.06932
1.07028
1.06682
1.0677
1.06715
1.06724
1.06735
1.06746
1.06607
1.06525
1.06161
1.04959
1.02113
0.951822
0.865287
0.768243
0.738124
0.694148
0.670733
0.648799
0.627986
0.610786
0.601544
0.583064
0.570457
0.558331
0.545456
0.535694
0.523813
0.513773
0.503208
0.49184
0.478541
0.467469
0.456623
0.440892
0.431203
0.422051
0.41666
0.413069
0.412212
0.413737
0.413959
0.4165
0.420572
0.427877
0.436751
0.453349
0.469075
0.490489
0.5186
0.543101
0.572217
0.594767
0.615164
0.630761
0.642103
0.64897
0.650732
0.647977
0.640936
0.628118
0.6097
0.58519
0.553076
0.513411
0.474811
0.43954
0.414735
0.389532
0.370127
0.359913
0.35096
0.352035
0.350379
0.353305
0.351111
0.311289
0.297955
0.217502
1.01001
1.00809
1.00862
1.0092
1.00984
1.0103
1.01063
1.01138
1.01172
1.01266
1.01368
1.01477
1.01613
1.01772
1.01936
1.02098
1.02284
1.02479
1.0268
1.0289
1.03117
1.03355
1.03597
1.03841
1.04087
1.04404
1.04698
1.0498
1.05252
1.05514
1.05765
1.06013
1.06195
1.0635
1.0643
1.06375
1.06513
1.0533
1.10623
1.02251
1.03859
1.0464
1.05239
1.05516
1.05669
1.05715
1.05657
1.05463
1.04819
1.02845
0.9912
0.921361
0.813963
0.746701
0.698259
0.673274
0.654141
0.647289
0.632982
0.619762
0.61009
0.595943
0.588969
0.58447
0.573728
0.566393
0.558203
0.548276
0.543618
0.53269
0.524812
0.515253
0.505152
0.496886
0.483903
0.473362
0.461481
0.452954
0.445744
0.438979
0.437299
0.436247
0.436738
0.438084
0.442662
0.447385
0.456641
0.467947
0.484483
0.504219
0.526528
0.550951
0.576304
0.595224
0.611628
0.623973
0.633358
0.63798
0.635382
0.631322
0.623386
0.609547
0.58929
0.559727
0.521355
0.483796
0.448043
0.422881
0.398149
0.378072
0.36682
0.358487
0.358825
0.357443
0.361874
0.360994
0.327066
0.315041
0.23656
1.00978
1.00796
1.00863
1.00922
1.0099
1.01053
1.01095
1.01147
1.01214
1.01297
1.014
1.01517
1.0165
1.01809
1.01986
1.02161
1.02342
1.02538
1.02752
1.02991
1.03235
1.0349
1.03741
1.04028
1.04294
1.04546
1.04829
1.05104
1.05383
1.05648
1.05879
1.06071
1.0622
1.06323
1.06404
1.06338
1.06412
1.06104
1.08408
1.05654
1.05701
1.05873
1.05926
1.05962
1.06029
1.05825
1.05391
1.04574
1.02985
0.990168
0.912329
0.82206