/*--------------------------------*- C++ -*----------------------------------*\
| =========                 |                                                 |
| \\      /  F ield         | OpenFOAM: The Open Source CFD Toolbox           |
|  \\    /   O peration     | Version:  2.2.x                                 |
|   \\  /    A nd           | Web:      www.OpenFOAM.org                      |
|    \\/     M anipulation  |                                                 |
\*---------------------------------------------------------------------------*/
FoamFile
{
    version     2.0;
    format      ascii;
    class       volScalarField;
    location    "1.9";
    object      divBf;
}
// * * * * * * * * * * * * * * * * * * * * * * * * * * * * * * * * * * * * * //

dimensions      [1 -3 -2 0 0 -1 0];

internalField   nonuniform List<scalar> 
14161
(
8090.26
-5204.95
-154.171
396.723
830.333
666.702
531.687
661.832
882.071
797.384
756.728
1045.14
688.44
64.7574
-188.928
-493.517
-369.221
-395.521
-390.506
-483.902
-353.725
-8.28842
-155.858
-335.989
-334.501
-287.161
-441.535
-560.828
-712.705
-780.971
-852.009
-873.118
-933.04
-945.487
-923.149
-559.684
-105.635
1077.95
4905.48
9612.91
35642.1
-2224.44
-3934.2
18448.4
11643.7
-28250.4
-35635.2
-35879.1
-37536.6
-37363.9
-36154.7
-38030.2
-36643
-33328.6
-31598
-31923.3
-30699.8
-28531.1
-27145.2
-26371.4
-24676.5
-23316.8
-22127.3
-20249
-18726.5
-16903.9
-15966.4
-14253.2
-13282.4
-11519.4
-8009.74
-8069.4
-7411.85
-3642.05
-478.826
-4260.52
-3287.89
3392.09
10078.7
8524.93
-1024.03
1470.59
16127.6
17203.8
12022.5
7814.4
15515.6
22503.6
13110.2
18306.1
17308.1
13378.7
14586.3
8799.59
7834.71
3821.76
-5795.73
-3051.73
-5754.86
-6113.65
-6007.4
-6384.95
-7319.54
-9648.36
-9340.8
-11011.8
-12404.6
-13381.7
-12700
-15251.2
-12754.2
-15057.4
-11400.5
-12700.7
-7751.35
-7779.69
-1100.74
-1804.99
5426.88
-20443
16357.3
4315.57
2289.78
1348.99
389.436
52.5198
-284.562
-1105.03
-1699.85
-2350.9
-3457.97
-3207.44
-1029.63
-226.979
623.246
972.592
1575.64
1822.65
1515.78
670.395
-306.484
-738.909
-822.497
-1025.79
-1275.72
-1360.79
-1169.52
-1035.83
-1019.16
-1017.47
-1026.5
-1040.05
-1012.03
-1001.05
-1160.31
-1268.16
-1419.05
-817.089
-3364.95
8606.64
-47310.6
-39714.7
-5875.77
-3646.33
-17953.3
-20944.9
-25586.1
-24320.9
-23797.8
-24604.6
-26926.4
-26967
-25769.3
-25819.7
-25851.5
-24745.4
-23932.8
-23699.6
-23427.1
-22314.6
-20287.8
-19378.9
-18422
-16994.4
-16697.4
-13862.3
-12974.2
-10969
-9501.93
-9563.41
-5808.41
-4077.7
-3511.65
-4943.85
3514
9247.78
5945.29
-3947.97
-7558.51
27661.1
33711
13892.6
-54324.6
27534.3
63851.8
9245.64
-14103.3
15491
6901.47
12036.8
18990.9
10158
2670.66
-264.923
10922
7109.82
2842.15
947.58
1658.62
1871.15
-3036.69
-4776.79
612.367
-3115.81
-9758.66
-4324.83
-6447.49
-6958.35
-8101.87
-6391.24
-7879.35
-4794.82
-6405.87
-1984.48
-3735.91
762.612
-1924.54
1694.21
41691.9
-26720.9
-7318.71
-3619.8
-2098.86
-482.409
97.9604
736.426
1827
2686.09
3635.67
5072.86
5324.22
1933.44
-362.027
-1319.03
-2498.35
-3466.71
-4127.31
-4036.86
-2866.09
-2022.04
-1311.5
-1109.19
-983.722
-450.714
-622.423
-1256.4
-1571.91
-1979.01
-2110.73
-2282.39
-2416.1
-2496.05
-2620.3
-2688.14
-2910.19
-3483.56
-4669.83
-8029.07
-11924.5
2156.61
-61474.1
-1044.87
-12883.7
-21992
-33620
-26249.2
-32084.2
-31669.2
-28147.6
-25565.8
-28850.1
-24766.5
-25916.1
-26410.6
-25087.5
-22879.6
-22799
-20916
-20183.1
-18856.9
-16332.6
-17158
-14991.8
-13835.7
-11204.5
-9441.84
-9664.25
-6486.55
-5687.11
-3272.56
-1035.6
-134.445
3602.53
4922.42
-1317.73
3909.55
21241.5
22246.5
-3631.16
-16448.9
50057.3
67286.5
14088.2
-47717.5
42620.7
78164.8
7827.24
29637.2
23101.4
-8147.59
13470.5
21836.5
12586
1595.42
-2430.16
2450.97
6706.17
707.599
-5637.76
3946.32
4954.74
-15519.8
815.126
3045.9
-7961.44
-4775.27
-3327.19
-5082.18
-2690.09
-4680.57
-937.246
-3713.01
542.562
-2554.91
1512.28
-1880.07
1741.08
-52682.7
35684.5
9603.7
4540.78
2340.66
461.169
-573.927
-1239.13
-2956.33
-4162.38
-5402.6
-7265.94
-7666.52
-3877.32
-856.92
184.215
1753.54
2867.22
3422.87
2965.37
1700.7
-236.36
-1139.33
-1562.95
-1941.48
-2584.79
-2644
-2287.5
-1940.01
-1694.4
-1594.62
-1610.78
-1660.51
-1745.74
-1901.82
-2163.92
-2576.04
-3430.57
-4514.44
-7948.4
-7994.91
-6277.19
-20268.4
-2168.97
-13844.7
-25413.9
-26921.8
-25352.9
-30259.6
-22786.1
-23256
-26963.2
-25492
-22799.4
-21401.6
-21568.9
-20729.6
-20888.7
-19147.3
-18365.3
-18029.6
-16464.9
-16196.9
-13295.5
-14172.8
-11078.1
-10917.4
-8079.29
-7009.59
-5264.14
-3354.47
-1235.74
108.221
1276.42
3679.6
4788.11
5964.36
11724.2
11580.5
2420.94
29861
24776.6
17333.3
-32170.5
55306.2
60972.3
6357.29
-15285.6
17602.2
25853.3
20732.7
34668.7
13575.9
-18328.3
12312.6
25731.6
11818.6
-8231.09
-2130.22
8934.97
8817.51
-14301.8
5999.71
11040.8
-11789.5
-4082.72
626
-2921.6
-3136.64
-3903.6
-454.137
-3597.77
276.093
-2537.39
807.807
-2263.98
1574.84
-2032.58
1237.14
66373.5
-41902.3
-12380.4
-6149.13
-3537.16
-1279.38
-546.705
538.638
2178.98
3571.02
4950
6855.94
7122.48
3151.21
-175.7
-2029.34
-3779.79
-5208.11
-5913.42
-5618.62
-4411.99
-2977.71
-2028.23
-1736.24
-1182.82
-743.833
-1154.93
-1815.28
-2341.52
-2690.91
-3010.85
-3220.27
-3374.83
-3548.46
-3711.88
-3858.09
-4194.18
-4528.49
-4868.05
-6046
-1614.18
-14468.8
-21692.6
-21497
-24330.1
-27113.8
-28423.3
-29813.3
-28670.4
-25855.9
-30040.1
-28526.8
-22780.4
-21058.4
-24732.9
-23245.9
-18804.4
-20538.8
-16781.9
-17871.7
-15884.2
-12726.4
-13970.8
-10242.1
-9165.57
-9785.98
-7821.25
-6178.97
-4776.6
-2307.52
-1755.89
-1031.68
1232.98
3116.54
5072.19
7165.52
8292.07
7052.33
12675.1
23346.8
23291.5
-5886.3
12636.9
75343.3
48713
-30792
44341.9
69955.2
14520.3
32675.8
24832.4
-469.893
24606.4
30904.5
11222.1
-8413.76
-1904.29
13207
11187.8
-10252.8
1004.19
10468.7
-6981.17
-5857.81
4365.98
416.486
-5057.59
-3335.52
-230.185
-3418.94
-961.499
-2181.64
418.11
-2364.51
1049.06
-2274
1622.39
-2349.89
1435.68
-76585
49172.2
12760.9
5460.51
2628.97
392.484
-966.947
-1956.98
-3696.97
-5080.67
-6587.76
-8404.8
-9613.54
-5549.55
-1903.46
-366.527
1861.98
3009.91
3496.42
3012.03
1400.1
112.496
-1088.54
-1903.54
-2576.64
-3192.33
-3250.9
-2766.07
-2412.06
-2274.02
-2157.72
-2107.7
-2139.63
-2208.14
-2264.77
-2187.4
-1994.17
-1732
-509.438
-1933.64
10115.4
-52719.3
-22098.3
9716.38
-5161.71
-16516.9
-17593.2
-20889.5
-23173.9
-20872.3
-20547.1
-20640.2
-18356.7
-19129.5
-18240.2
-15607.4
-16364.2
-15745.1
-13679.9
-14794.4
-11538.9
-10917.6
-11208.5
-9408.4
-7690.89
-7619.96
-5104.61
-3664.65
-3297.66
-2084.59
-757.865
705.825
3770.12
4180.68
4139.58
5572.39
11193.9
15134.9
14011.3
11414.7
8288.07
29064.8
40632.8
4974.39
3012.91
53059.8
30763.5
5615.83
26172.4
27638.7
20016.9
37259.4
25114.3
6276.03
9902.46
17808.9
15524.7
4007.95
-405.154
7986.36
7188.41
-7486.21
3051.2
9029.12
-3991.76
-5737.38
3287.61
-2019.16
-1698.1
-1681.97
-691.145
-2475.24
412.346
-2405.96
1188.69
-2225.37
1506.27
-2211.93
1311.19
81819.6
-50489.6
-15018.3
-7366.42
-4518.93
-2105.91
-1057.3
-10.2849
1677.96
3025.8
4434.92
6136.71
7340.75
3225.53
-169.924
-2354.66
-4020.82
-5684.7
-6312.58
-6052.38
-5026.67
-3695.9
-2693.91
-2246.22
-1984.62
-1777.15
-1966.73
-2570.13
-3088.92
-3401.22
-3717.87
-4000.11
-4161.31
-4187.44
-4181.31
-4167.47
-3973.89
-3405.28
-2823.37
-1211.69
-2706.25
-30344.6
-91216.7
-28405.9
-756.76
-11199.8
-10813.2
-10158.2
-12770.5
-14081.9
-15194.7
-14955.4
-17517.2
-15622
-17039
-15353.3
-15237.7
-13257.6
-13810.7
-10960.6
-10895
-9406.96
-8051.14
-6829.77
-5736.69
-4304.7
-3003.98
-2277.15
-668.257
726.533
2181.89
2894.04
4472.76
6220.12
9184.13
9198.27
9189.39
12054.8
13643.8
18456.4
23191.7
24961.4
11799.8
30465.2
35501.8
29404.8
16052.4
37007.8
27750.6
31893.4
28048
23334.5
24115.4
33390.8
24609.7
12810.2
7044.21
8052.42
8972.24
1937.11
807.493
5578
5183.23
-6555.9
357.03
3666.01
-4127.31
-2508.03
51.7416
-2406.84
-734.852
-2240.3
350.938
-2438.15
1000.84
-2417.39
1578.72
-2530.6
1683.44
-89470.8
54912.1
13635.8
5565.11
2765.08
569.826
-1035.6
-1713.44
-3405.8
-4727.39
-6087.89
-7690.78
-9142.79
-5722.15
-2389.1
-854.081
1107.92
2256.92
2554.96
2248.18
1307.01
-111.334
-1363.62
-2037.76
-2409.54
-2810.5
-3075.65
-2879.86
-2533.93
-2358.79
-2302.01
-2259.64
-2302.74
-2469.67
-2632.61
-2771.15
-2772.94
-2912.68
-3512.33
-3470.8
-5219.28
-36628.4
-95776.1
-27227.4
2517.86
-7121.54
-10299.1
-9568.49
-11060.1
-10843.7
-12056.3
-10963.4
-11849.1
-10327.8
-11752.3
-9813.35
-9386.53
-9060.53
-8573.57
-7686.49
-7501.57
-6431.23
-5501.09
-4435.13
-3601.96
-2562.56
-1442.61
-791.603
577.403
1881.88
2917.65
4337.93
5775.24
6881.64
8921.14
9856.99
10940.1
13686.7
14415.8
17974.8
17044.8
23013
25795.5
29701.3
22116.2
32538.1
28235.1
30564.7
25450.2
32516.4
22366.2
26050.2
24985.8
21919.6
20488.3
21478.9
17428.1
13186.3
8376.48
7905.27
7604.31
2171.41
802.571
3589.78
2811.29
-1659.32
405.487
481.252
-2330.55
-2052.16
-392.339
-2317.9
474.183
-2374.29
821.839
-2450.54
1392
-2489.93
1714.38
86996.6
-52416.6
-15533.5
-7659.9
-4992.21
-3016.78
-1636.26
-1038.38
180.821
1451.93
2685.62
4100.69
5492.17
2413.15
-421.044
-2470.02
-3961.44
-5289.72
-5804.29
-5799.84
-5248.81
-4314.4
-3455.03
-2967.13
-2818.44
-2791.67
-2955.93
-3265.09
-3628.07
-4106.42
-4480.86
-4839.31
-5165.72
-5362.89
-5483.42
-5686.66
-5709
-5430.43
-4959.53
-4453.49
-5539.42
-29235.8
-51089.7
-38427.6
-12064.5
-21663.1
-19930.1
-14384.5
-12733.4
-12181.7
-11839.7
-13212.2
-13843.5
-9482.44
-10760.3
-10590
-11150.9
-8649.72
-8047.94
-6712.14
-6399.62
-6068.01
-5968.29
-4445.96
-2908.99
-1593.24
57.5844
340.192
1361.29
2635.36
3558.74
5271.31
7692.56
8961.13
10682.1
11372.6
12996.5
15362.4
16558.1
19542.3
19737.1
24605.4
23938.7
25668.7
26818.7
30414.1
24780.1
28007.4
23764.5
27965.1
26138.1
26144
24014.5
23695.8
24120.7
21160.8
20167.4
19152.7
14488.8
8589.6
3502.62
4622.66
4243.47
1482.49
368.05
350.184
-276.575
-906.867
-730.952
-1200.4
-1724.53
-2109.16
154.502
-2605.9
740.923
-2664.26
1360.32
-2715.58
1992.03
-89299.7
53065.3
12696.1
5105.67
2417.25
639.534
-780.539
-1623.52
-2252.16
-3432.28
-4605.93
-5731.23
-7068.69
-5019.48
-2475.51
-1383.04
26.0768
829.476
1159.25
1045.5
484.015
-403.361
-1283.44
-1909.27
-2373.66
-2605.81
-2731.64
-2660.94
-2427.6
-2302.52
-2202.14
-2238.59
-2225.25
-2189.54
-2357.31
-2283.35
-1062.35
-1313.85
-2367.87
-4049.27
831.599
-23834.2
-17662.4
-30153.3
-25169.9
-23966.2
-20137.5
-20570.9
-20732.9
-18152.1
-17143
-21389.4
-19970.1
-9448.33
-10459.9
-13153.5
-14089.6
-8726.6
-6222.7
-5579.21
-4562.37
-3639.41
-2857.09
-3108.14
-2298.76
-1569.23
158.147
1313.6
2775.55
3960.23
4405.18
5765.54
7190.95
7807.19
10639.4
12337.2
13573.2
16725.8
17348.8
20845.2
20957.9
24043.4
25136.8
26728.6
23613.1
24546.9
26840.5
28559.1
22522.2
22967.8
27819.2
24592.6
26258.6
21291.5
23871.5
20656.3
24190.9
17531.6
13823.2
10509.6
9275.86
6138.53
4289.73
2893.37
2452.84
1186.8
771.548
-184.512
-478.228
-1182.28
-1070.69
-1452.3
-772.671
-2562.9
534.868
-2780.09
1211.01
-2728.44
1948.54
81583.8
-49280.8
-14631.1
-7553.28
-5214.64
-3683.56
-2551.43
-1783.63
-1119.18
-208.303
765.257
1533.24
2596.47
1303.04
-975.515
-2449.01
-3486.98
-4372.56
-4811.55
-4955.05
-4774.25
-4287.33
-3840.46
-3512.91
-3331.52
-3321.32
-3472.71
-3801.05
-4212.44
-4652.6
-5153.74
-5551.29
-5903.72
-6148.97
-6531.91
-7690.53
-10152.4
-11833.5
-10009.7
-12013
-5643.22
-10397
-25380.7
-8477.64
-24997.4
-24557.9
-24623.4
-22009.4
-20756.3
-19801.8
-19947.6
-9985.59
-9690.29
-22508.2
-18488.9
-7472.09
-3566.74
-10785.1
-13918.4
-9126.53
-5897.8
-4791.58
-3494.01
-1265.53
188.18
1476.53
2557.83
3133.34
4228.64
5350.19
6617.31
8263.57
8885.26
10156.2
11804.4
13058.7
13908.5
17453.2
16590.9
20277.7
19509.3
22020.1
23630.4
25468.5
25787.2
26610.2
26414.2
28937.5
25176.8
25752
28546.5
23893.8
26350.6
20672.6
25119.6
19546.9
24453.4
18962.1
19321.8
13890.9
9906.12
6827.27
5886.61
3980.04
2596.06
971.339
528.531
-125.631
-727.31
-925.394
-1500.17
-1601.78
-944.623
-2154.34
387.195
-3078.8
1297.03
-3058.1
1986.25
-73772.2
43230
10296.3
3906.97
1761.15
596.664
-638.566
-1283.53
-1895.31
-2682.03
-3436.02
-4095.92
-4994.83
-3956.8
-2561.3
-1834.21
-1112.74
-601.512
-382.968
-362.612
-613.861
-1081.17
-1603.37
-2051.84
-2376.06
-2593.46
-2675.05
-2658.62
-2541.38
-2319.23
-2263.68
-2547.07
-1373.68
-1944.87
-2484.66
-2230.75
-926.287
-1879.65
-1412.06
-4509.08
-2479.21
-22471
-54573.2
-38843.7
-16244.3
-12282.7
-12755.2
-12001
-14499.9
-13731
-14904.3
-17168.1
-15546.5
-9378.77
-11677.6
-14543.4
-11584.2
-6358.6
-6106.42
-6055.81
-5373.99
-3446.15
-1914.47
-398.386
463.156
1238.81
2458.16
3572.06
5170.3
6419.36
8312.95
9476.02
11087.1
12222.8
13462.7
14677.3
16352
19247.5
21215
24133.7
24614.8
25938.1
25212.8
26739.3
24022.4
23508.7
23674.5
24429.6
24374.4
22850.5
24339.1
18779
25701
20036.6
25159.1
19931.3
24731
18631.3
21464.4
15936.5
12545.7
9295.77
6934.73
4878.79
3678.16
2243.03
1437.11
440.285
-43.541
-201.881
-1127.77
-1244.03
-1424.78
-2108.12
319.65
-3068.95
1238.82
-3268.28
1979.02
64201.9
-40613.2
-12481
-6612.87
-4849.19
-3832.91
-3043.3
-2186.38
-1823
-952.673
-401.685
-297.383
412.399
-255.576
-1339.94
-2266.81
-2808.34
-3420.92
-3705.14
-3891.25
-3908.03
-3771.84
-3645.35
-3548.3
-3530.82
-3595.39
-3746.46
-4037.94
-4381.57
-4735.43
-5661.47
-5562.77
-6145.79
-6883.1
-6517.74
-6702.35
-7098.51
-7495.77
-6962.21
-7169.94
-6972.76
-34066.9
-114573
-31334.5
-4990.58
-7438.19
-3310.73
-8325.6
-5312.97
-8579.03
-6148.33
-7712.93
-7802.87
-8332.34
-7125.75
-6898.69
-8261.89
-6561.15
-4620.68
-2384.51
-1678.6
-549.624
349.547
1661.06
2867.47
3857.51
4596.33
5233.13
6329.26
7296.86
9003.96
10218.3
12646
13445
15727.2
16783.5
19552.6
19374.7
24272.2
26171.8
29171
31967.3
32052.9
31203.3
30088.3
29655.5
28900.9
25996.4
27594.7
23896.7
23049.1
20168
23615.9
20783.7
23841.9
18473.2
21609
18328.8
19388.4
16147.1
13014.1
9327.52
6888.88
4602.24
3342.82
2029.74
1260.09
470.978
-159.333
-179.331
-1324.17
-1164.15
-1626.04
-1421.98
-271.3
-2930.71
979.62
-3465.23
1874.13
-50336.1
29769.7
6954.21
2033.69
509.571
-220.097
-997.784
-1415.61
-1733.88
-2265.09
-2934.37
-3252.53
-3610.13
-3179.14
-2584.1
-2298.85
-1878.53
-1711.64
-1528.73
-1511.88
-1641.08
-1904.97
-2169.27
-2397.05
-2572.63
-2713.1
-2861.87
-2988.46
-2704.19
-2740.23
-2316.8
-2374.3
-2678.42
-2433.63
-2685.21
-2985.96
-3100.3
-3020.25
-3550.45
-5357.01
-4621.21
-51054.6
-57458.8
-23302.1
-25972
-10374.7
-8680.75
-6004.14
-5742.21
-4695.01
-6081.1
-4893.01
-9380.03
-9618.6
-10701.1
-8827.05
-7465.73
-5591.52
-3886.05
-2035.18
-845.589
829.71
1660.38
2906.58
3668.57
4574.4
5625.39
6361.85
7459.83
8511.96
9587.88
11056.7
12004.8
13274.6
15507.2
17899.3
21227.3
25294.2
29973.7
32103.8
30300.6
31015.2
23961.3
24201.1
19277.9
19525.6
19721.4
16760.5
16489.8
17332.2
20020.1
16989.7
19429.5
20350.9
24856.2
20412.8
18762
16837.4
17894
15645.2
14234.2
10567.1
7876.13
5821.03
4581.15
3250.72
2080.47
1227.63
431.71
246.581
-680.468
-944
-1357.5
-1265.73
-489.354
-2794.7
683.221
-3648.16
1772.78
42029.1
-29151.9
-9780.18
-5064.9
-3790.56
-3299.96
-2702.02
-2165.1
-1926.48
-1786.81
-1310.06
-956.877
-922.585
-1106.12
-1648.19
-2108.27
-2485.59
-2737.88
-3008.69
-3152.93
-3241.88
-3272.84
-3315.66
-3371.93
-3430.72
-3546.43
-3857.39
-3914.29
-4294.8
-4690.71
-4901.63
-5268.65
-5500.32
-5677.56
-5590.19
-5571.85
-5438.03
-5465.23
-5163.84
-6144.82
-431.974
-41402.6
-28978
-23246
-32393.2
-21017
-17287.9
-15879.7
-13034.5
-12983.4
-11193.4
-9564.39
-10899
-8773.2
-8827.48
-6746.13
-6266.05
-3629.54
-3370.3
-543.694
-607.505
1293.8
1744.84
2894.79
4069.56
4994.53
6222.48
6955.37
8096.22
8692.8
10521.6
10646.5
13533.4
13130.4
16095.5
18233.4
19635.1
25456
32460.1
27915.4
43040.5
28142.6
41293.3
30462
37171.2
28118.6
32800.8
26775.1
23039.6
23155.3
25525.1
22940.2
21631
21259.7
22831.1
19097
19798.2
16956
18179.4
16861.3
12989.1
9805.37
7760.89
5719.3
4295.97
3008.16
1922.87
1239.06
343.841
48.2326
-641.298
-522.553
-1243.32
-1167.56
-1143.33
-2519.42
302.146
-3703.83
1629.7
-28246.3
16911.4
3436.74
80.1619
-826.712
-1181.67
-1342.49
-1908.94
-2149.43
-2322.35
-2529.22
-2604.09
-2712.46
-2878.12
-2565.73
-2472.93
-2297.47
-2153.45
-2162.14
-2179.46
-2274.33
-2414.92
-2532.64
-2680.56
-2902.82
-3066.38
-2980.86
-3037.38
-3163.13
-3144.08
-3088.08
-3181.18
-3339.4
-3604.02
-3912.98
-4325.24
-4616.33
-5129.62
-5169.17
-7127.3
-1300.17
-23145.2
-36307.6
-7251.21
-40799.2
-31023.5
-29457.5
-25608.6
-23819.6
-22344.5
-22249.6
-19013.1
-17987.8
-11865.4
-12672.8
-8589.06
-8622.62
-6113.1
-5564.36
-3016.82
-1564.7
719.703
3040.51
4357.2
6110.18
7023.09
8360.99
8557.52
9467.83
10223.2
11421.2
12794
14875.5
15998.8
19897.7
18093.5
26850.4
28593.3
37003.2
32191.9
39688.8
30011.6
40441.6
28666.9
32189.3
27815.8
34136.5
22473.2
20680.3
19887
20568.6
15996.5
16321.7
12214.3
16813.9
14961.2
18199.3
15427.7
15289.8
14854.7
14104.4
11607.8
9518.6
7289.67
5733.17
3958.16
2760.48
1727.14
1096.01
472.272
16.6787
-357.015
-1015.34
-1146.82
-1208.06
-2234.28
175.707
-3717.04
1544.2
22747
-18118.8
-6887.04
-3784.77
-2825.81
-2581.51
-2321.53
-2096.36
-2039.54
-1814.51
-1728.18
-1658.2
-1616.08
-1707.79
-1927.09
-2141.12
-2320.82
-2487.3
-2649.73
-2783.79
-2866.93
-2971.79
-3095.85
-3219.95
-3313.06
-3415.87
-3597.73
-3849.25
-4056
-4279.48
-4537.78
-4805.17
-4963.84
-5098.03
-5173.4
-5251.12
-5242.81
-5379.92
-5208.12
-6668.38
-2488.5
-32693.6
-53841.6
-11523.5
-30060.3
-22373.1
-27595.9
-24052
-26352.1
-23049.2
-23072.9
-20450.6
-18582.2
-12446.9
-12787.6
-7663.22
-6602.46
-3679.17
-1737.94
1078.59
2971.71
4626.01
5244.17
6048.62
7718.17
8749.33
9391.81
9649.13
10833.7
11100.7
12578.8
13839
15967.7
16980.1
20731.2
20465.8
31744.7
29198.6
38830.5
37372.7
40863.7
42009
40039.9
40088
32685.3
33677.2
28089.9
21538.5
25288.2
20551.2
20740.2
16801.5
16301.5
11226.3
13933.5
9433.48
14324.1
12495.8
14709.6
14453.2
14137.6
12279.2
11161.8
8602.74
6356.51
4475.52
3220.96
2092.29
1145.47
331.213
-199.746
-30.8624
-969.94
-1181.73
-1251.38
-1781.66
-665.728
-3726.13
1087.94
-13026.8
7513.56
595.02
-1420.15
-1894.18
-1871.52
-1835.55
-2095.76
-2233.31
-2305.56
-2337.83
-2400.81
-2424.98
-2470.56
-2480.13
-2409.18
-2407.53
-2404.54
-2398.94
-2435.19
-2521.56
-2620.98
-2732.15
-2872.48
-2987.44
-3115.84
-3231.48
-3281.76
-3347.96
-3426.21
-3566.69
-3619.53
-3856.4
-4081.93
-4392.25
-4754.89
-5087.51
-5549.38
-5827.35
-8434.96
-10820.8
-92187.5
-44884.2
-15479.1
-28517.2
-23510.8
-24916
-21642.2
-24128.2
-18750
-21853.8
-16921.1
-16740.1
-11124
-8141.4
-2743.62
-331.032
1987.81
3505.55
4350.28
5883.88
7938.65
8189.57
7801.34
9413.58
10566.2
11531
12130
13124.6
13469.5
14166.7
15315.8
15441.7
17760.7
19139.6
30089.2
29928.3
42271.9
33208.2
44133.3
32471.3
42606.7
39316.6
31156.4
34735.1
34663.6
35657.6
30009.3
30256.6
24077.7
16615.9
16526.7
17069.1
14588.9
10044.8
10688.1
10839.9
9795.35
10617.6
11035
12689.4
12808.2
11602.4
8471.35
6459.43
5270.27
3723.1
2483.25
1798.03
1038.34
461.448
367.766
-966.2
-768.38
-1357.92
-1673.82
-837.263
-3553.67
704.197
10242.7
-10328.5
-4504.96
-2753.04
-2319.77
-2278.96
-2166.63
-2021.23
-2021.94
-2014.11
-1964.01
-1965.14
-1982.66
-2014.69
-2123.3
-2233.99
-2316.73
-2395.76
-2533.22
-2632.83
-2729.41
-2836.87
-2946.87
-3073.8
-3173.3
-3315.86
-3482.75
-3648.51
-3825.99
-4024.1
-4244.02
-4428.3
-4526.89
-4764.01
-4843.79
-4907.57
-4876.76
-4885.48
-4696.04
-6695.48
-20812
-102368
-43014.6
-29076.9
-32362.7
-13788.4
-25255.2
-14631.5
-24211.9
-14483.8
-18219.7
-8089.51
-9131.92
-1906.03
-1286.06
2759.37
3141.92
4997.75
7908.02
6678.81
7708.38
9611.89
9608
9366.45
10460.6
11849.2
12479.2
12851.6
13150.2
13962.6
15140.4
16451.4
16472.8
17874.8
22707.3
29601
43260.9
44490.6
51156.5
45556.1
40146.2
42337
39760.4
31525.6
33717.1
28371.1
19915
19339.6
18163.9
21755.9
15722.4
13002.1
9618.18
9642.61
11192
12448.6
9523.7
9309.37
9291.72
10591.1
10838.2
11794.7
9752.25
8622.29
6460.25
5258.31
3714.11
2980.82
1796
1065.42
244.085
501.227
-1286.78
-180.985
-1532.16
-1421.77
-1382.64
-3768.7
670.343
-4875.91
1819.2
-1114.45
-2063.09
-2275.38
-2202.91
-2146.17
-2155.42
-2191.78
-2219.45
-2216.84
-2258.63
-2283.03
-2288.07
-2335.77
-2363.62
-2380.11
-2409.15
-2439.55
-2501.16
-2595.59
-2693.15
-2795.5
-2918.7
-3051.69
-3123.22
-3224.53
-3391.99
-3470.81
-3548
-3668.27
-3822.65
-4007.61
-4210.94
-4589.55
-4868.89
-5252.17
-5954.23
-7461.76
-12219.2
-34743.8
-91687.2
-52832.4
-51135.2
-62568.6
-41575
-46003.1
-26881.2
-29074.1
-12218.9
-13845.2
-2228.05
-5113.8
3486.34
2243.52
5716.93
8344.65
9234.2
8961.44
11266.5
11074.6
12373.2
11735.7
11867.6
12438.3
13276.5
13168.4
13318
13349.2
14499.5
16096.6
18429.6
19891
27960
31699.3
46243.3
52972.6
53355.5
49877.8
42423.7
43706.7
38462.8
33806.3
30022.5
29319.5
28079.5
17479.8
18789
11036.6
13710.8
14583.2
12613.1
8205.87
8878.68
4121.33
5484.62
4367.1
6009.58
7076.42
7393.54
8725.87
10686.1
10235.6
9403
7379.97
6395.68
4929.45
3669.11
2253.79
1620.35
389.284
519.552
-1278.68
71.4276
-1923.17
-1022.68
-1810.28
-2862.29
489.155
3960.32
-5738.82
-3136.16
-2417.61
-2247.66
-2136.37
-2095.59
-2081.62
-2088.16
-2068.9
-2062.56
-2082.11
-2098.78
-2138.75
-2196.16
-2267.38
-2323.15
-2358.99
-2463.5
-2554.7
-2638.11
-2767.76
-2847.32
-2905.33
-3068.22
-3182.12
-3283.81
-3446.26
-3678.67
-3883.14
-4003.99
-4202.02
-4470.3
-4484.06
-4561.69
-4557.83
-4331.06
-4465.09
-5544.47
-6692.28
-76304.4
-33653.5
-26406
-17487.4
-30941
-26626.2
-25683.6
-27492.5
-22731
-20606.6
-16399.8
-9433.83
-7159.82
-5015.03
-3532.8
431.66
5426.85
4869.75
7617.98
10144.3
10913.4
11567.2
12226.6
13277.4
12422.1
14808.5
14287.1
15918.8
17276.8
20269.6
24514.2
34307.9
42280
58233.2
67464.9
71919.7
64143.2
49982
36373.9
31248.3
14983.7
17090.1
5837.68
13754.6
7551.5
16271.6
17444.9
17740.9
14568.1
5420.42
6144.16
5634.29
6764.45
6705.13
5609.59
4178.33
5045.02
5561.69
6278.93
6841.71
7928.42
9457.16
9917.06
9516.88
7377.65
6113.2
4616.46
3464.2
1931.92
1802.55
589.786
675.332
-672.767
45.2117
-1722.54
-544.649
-2214.14
-2529.39
147.201
-1438.61
-904.374
-1939.06
-2264.98
-2304.37
-2221.69
-2171.49
-2133.68
-2131.5
-2126.1
-2143.11
-2175.11
-2211.6
-2191.35
-2226.54
-2267.62
-2337.9
-2340.67
-2396.35
-2484.46
-2566.3
-2684.98
-2755.35
-2846.74
-2969.99
-3131.49
-3193.81
-3282.41
-3442.78
-3513.21
-3587.85
-3601.87
-3847.03
-3901.65
-4066.22
-4218.86
-4632.46
-4500.78
-7458.21
-16740.1
-87231.2
-16959.1
-18242.7
-20659.9
-31926.7
-27191.6
-32210.7
-28836.5
-30534.3
-21069.7
-22909.7
-13876.6
-16459.5
-8046.19
-7669.79
-512.297
4311.88
7800.21
9316.58
11718.8
11320.6
13218.1
13057.3
15334.5
17098.3
22937.1
27754.5
40079.4
45828.3
57559.5
66658.6
82638.8
95124.8
91462.7
71142.1
47428.6
26074.5
17753.9
11253.2
-2008.94
351.597
-7116.08
-6508.31
-5068.6
-1941.27
-254.723
-1494.81
998.679
4620.27
7690.33
3160.49
4555.34
3038.17
1396
1486.31
2262.64
1317.44
1646.53
2772.76
4477.31
6121.8
8331.12
8819.99
8864.89
7118.95
5606.76
4745.35
3803.52
2347.05
2076.61
892.948
767.116
-372.168
271.479
-1634.79
-161.551
-2509.02
-1690
-1149.06
1446.95
-3581.49
-2609.05
-2306.42
-2193.73
-2111.03
-2075.3
-2075.77
-2077.25
-2056.87
-2068.62
-2074.36
-2121.68
-2137.08
-2152.62
-2211.11
-2288.8
-2317.64
-2371.89
-2460.75
-2555.95
-2604.63
-2766.8
-2832.89
-2919.91
-3042.51
-3212.96
-3279.97
-3430.25
-3633.02
-3938.67
-4116.14
-4326.58
-4544.33
-4737.58
-4962.42
-5052.67
-5613.45
-8315.44
-24904.3
-79174.2
-15590.8
-7811.89
-8467.55
-15162.6
-15489.5
-20724
-31513
-28778.4
-38411.6
-25563.9
-32574.5
-15376.2
-21038.9
1539.72
-1195.25
8683.89
9443.38
14246.5
15389.7
16646.5
26778.1
27999.7
43814.3
53866.6
69651.3
85965.8
102118
115363
100516
85061.2
66265.8
48602.9
37350.7
25002.8
15625.5
2884.86
776.846
-5252.99
-6463.28
-10135
-11347.7
-13846.6
-15705.3
-12377.8
-9627.49
-7954.22
-6336.77
-2616.3
-1052.44
200.893
2019.56
751.755
849.128
235.386
639.149
931.904
1196.9
2109.25
3729.43
6183.52
7181.18
8036.65
8252.53
7116.21
5760.25
5190.4
4278.21
2947.29
2433.11
1186.92
927.509
-1.29151
239.565
-1724.44
50.3172
-2400.08
-496.166
-2381.08
-168.286
-2188.67
-2067.19
-2189.98
-2232.19
-2138.48
-2118.95
-2055.31
-2055.75
-2044.29
-2058.38
-2065.22
-2103.77
-2132.85
-2130.99
-2173.41
-2234.25
-2278.39
-2328.98
-2402.23
-2491.62
-2568.58
-2717.11
-2744.35
-2834.51
-2949.39
-3111.73
-3271.93
-3270.26
-3444.12
-3493.21
-3719.28
-3840.33
-3676.57
-3765.67
-3759.86
-3968.08
-5065.51
-6172.11
-60971.6
-48690.9
-13144.3
-8111.79
-9278.7
-14779.8
-8802.11
-12569.1
-17748.6
-22213.3
-31942.8
-28829.3
-36336.4
-20882.7
-19715
-3085.56
8165.43
17731.1
33650
31060.3
50151.1
58387.4
81204
101187
119749
106159
97059.6
78782.7
61000.2
49034.7
53676.5
46899
39549.7
26727.6
19065.8
12952.5
7512.35
1215.97
-4539.47
-7259.64
-7973.47
-10338.1
-13183.5
-14962
-18260.1
-20519.4
-20691.4
-13005.8
-8401.96
-6285.24
-6309.98
-4808.65
-3948.4
-2213.84
-363.167
-2113.42
-1086.88
-748.327
-90.2853
528.27
2204.84
4356.27
6089.28
6751.96
7298.89
6418.41
5454.43
5156.25
3959.12
2873.09
2242.4
1401.47
937.838
219.008
287.205
-1340.9
366.069
-2062.14
-671.764
-3329.57
454.953
-2701.65
-2243.67
-2191.85
-2119.66
-2048.88
-2075.37
-1991.22
-2008.47
-1999.42
-2003.36
-2005.84
-2028.63
-2071.75
-2083.76
-2115.56
-2164.77
-2236.86
-2294.73
-2349.2
-2422.96
-2502.23
-2631.07
-2696.03
-2805.91
-2877.77
-2981.45
-3176.45
-3270
-3379.56
-3577.7
-3640.09
-3787.19
-4051.73
-4155.72
-4396.89
-4436.92
-6376.12
-11812.2
-75774
-17254.8
-7736.52
-10573.5
-10216.2
-8842.61
-1271.17
-2852.13
-7136.1
-12586.5
-16033.6
-25369.4
-23149.6
-30372.4
-8663.61
3701.85
36248.7
49306.5
80553.2
99501.4
119518
104262
106702
69270.2
69513.4
50337.5
58048.7
53733.5
45200.7
35587.4
31232.3
28699.1
25123.9
18544
12224
8004.61
3635.86
704.256
-2096.06
-4624.65
-6837.2
-8104.23
-9868.03
-10705.5
-13028.6
-13931.9
-16982.2
-17574.2
-19378
-16430.2
-10153.4
-4794.8
-4613.97
-4860.26
-4919.12
-2657.55
-2668.02
-2637.9
-1963.42
-519.184
1811.14
3776.38
5370.44
5855.84
6498.86
6078.51
5608.91
4929.85
4069.69
3094.97
2516.25
1838.53
1115.86
572.484
409.641
-867.269
310.447
-1806.42
-1132.71
-2645.47
-1.12219
-2317.17
-2001.05
-2078.86
-2070.44
-2050.1
-2017.53
-1967.83
-1952.62
-1952.27
-1968.87
-1969.04
-1977.04
-2025.46
-2039.55
-2049.07
-2108.1
-2174.25
-2244.69
-2283.84
-2344.67
-2439.51
-2502.7
-2653.09
-2671.59
-2849.22
-2923.92
-3063.5
-3261.09
-3262.61
-3399.61
-3603.77
-3779.08
-3914.13
-4077.86
-4379.07
-4798.22
-7270.61
-20875.1
-72616.4
-16101.6
-4206.87
-4993.72
-6439.73
-9023.7
-1331.7
-1869.89
-2293.04
-3715.07
-6099.96
-8962.08
-10350.8
-1379.92
18025.8
50572.6
106820
130163
107945
92503
78468.6
55754.7
63273.4
44092.9
42937.2
41715.6
36661.7
31340.3
30401.4
26936.5
22339.4
21341.2
16267.3
15385.4
9731.76
6079.9
3854.67
1565.45
-369.761
-1763.39
-3829.68
-4311.96
-5812.23
-7921.64
-10306.9
-12418.9
-13826.8
-15502.5
-15659.8
-14636.5
-13521.2
-12205.3
-9256.37
-7082.8
-5256.38
-3043.6
-2174.89
-2376.44
-1739.73
-554.508
1010.74
2470.53
4336.47
4689.1
5590.47
5331.56
5190.86
4558.39
3975.71
3154.93
2676.81
2005.46
1439.14
744.479
676.322
-578.202
488.016
-1550.59
-482.288
-2471.87
130.317
-2384.4
-2006.22
-1987.65
-1980.39
-1978.53
-1901.28
-1949.85
-1888.69
-1897.81
-1926.37
-1919.94
-1901.37
-1933.82
-1997.32
-1985.98
-2042.09
-2103.29
-2171.1
-2217.39
-2273.38
-2394.25
-2429.14
-2580.82
-2586.74
-2722.07
-2821.24
-2923.53
-3077.54
-3241.02
-3289.76
-3531.87
-3682.49
-3825.04
-4042.84
-4317.84
-5367.71
-6767.74
-35902.7
-53560.8
-9680.79
-3022.68
-2553.46
-3367.75
-3674.63
4023.72
3851.89
3625.4
3200.23
4663.62
5486.63
13559.8
33465.4
93400.8
140299
103536
82141.9
56000.4
56323.1
42467.3
40609.5
36848.7
38811.9
28333.9
28871.2
23641.7
22652.4
18653.4
20460.9
19547.8
18400
16934.2
13429.1
12858.1
8540.65
6800.09
3967.26
1510.12
-738.119
-2424.51
-2997.19
-3935.64
-5190.97
-6573.13
-9025.28
-11046.4
-12418.7
-13720.5
-14535.2
-14719.7
-13686.1
-9787.25
-7644.65
-7123.22
-7425.15
-6525.73
-5065.95
-3137
-2177.32
245.946
1627.91
2710.85
3600.14
4607.47
5226.28
5157.59
4116.43
4077.79
3171.11
2764.01
1968.38
1369.29
871.747
777.571
-413.051
486.308
-1442.61
-261.233
-2171.68
11.23
-2210.45
-1881.09
-1916.47
-1887.45
-1871.93
-1894.44
-1872.46
-1842.19
-1842.58
-1836.01
-1872.55
-1841.09
-1867.9
-1917.13
-1964.8
-1952.39
-2022.32
-2099.4
-2142.69
-2160.36
-2290.9
-2356.39
-2394.34
-2550.36
-2579.06
-2703.83
-2851.25
-2943.94
-3118.18
-3209.03
-3342.94
-3434.38
-3403.26
-3410.05
-3692.65
-4662.64
-8389.38
-61047.8
-27286.4
-9706.83
-5706.19
-4157.95
-3974.19
-3851.51
3960.87
4919.48
6821.82
9364.49
14160.2
29742.1
62081.7
125214
145077
88415.7
65653.7
41317
44224.6
30609.6
26849.6
28154.8
22646.5
21818.3
24212.5
18360.7
16685.9
18288.2
14683.4
16674.8
13574.2
14311.1
14291.4
11566.2
14140.4
11447.8
9430.83
6937.65
4361.36
1993.63
394.315
-236.503
-1479.04
-2962.01
-4489.94
-5965.78
-7522
-8965.09
-10312.4
-11915.8
-12209.1
-12758.6
-11733.3
-10827.7
-8980.42
-7718.36
-6324.7
-4312.7
-2846.2
-1666.71
-575.105
645.54
1940.45
2832.06
3712.27
4393.82
4436.47
3574.27
3733.9
3207.74
2805.13
2042.88
1759.86
1077.8
1083.97
-172.98
820.853
-1220.8
107.446
-2246.73
45.816
-2164.78
-1816.95
-1810.72
-1791.05
-1804.28
-1794.89
-1776.92
-1831.74
-1745.09
-1772.51
-1788.77
-1787.07
-1793.86
-1820.12
-1872.82
-1895.47
-1945.54
-1988.57
-2043.69
-2116.23
-2202.03
-2284.32
-2364.62
-2456.72
-2453.83
-2631.69
-2743.9
-2868.13
-2987.51
-3123.08
-3262.56
-3388.04
-3593.34
-3932.29
-4132.9
-6460.89
-11711.3
-63405.4
-9752.97
-4840.66
-5691.39
-5099.12
-4176.11
-4104.93
4237.6
5219.23
10097.9
19190.5
35341.8
69082.1
134523
142215
85041.7
60256.5
35085.7
27792.7
23739.8
21659.7
21894.6
18689
19121.3
17575.2
11520.8
13279.7
16289.5
12158.9
14886.6
11139.9
12432.1
11623.6
11956.3
10405.5
10194.8
10109.8
9588.43
7086.02
6156.23
5047.23
2621.54
242.488
-1038.23
-2040.7
-3258.71
-4529.91
-6035.98
-7413.53
-8884.96
-10102.6
-10415.9
-12041.7
-11680.8
-10582.9
-9148.87
-7899.5
-7120.36
-5742.8
-4622.15
-3361.59
-1950.69
-688.325
542.522
1741.05
2840.46
3605.3
3723.19
3177.55
3472.73
2981.92
2526.14
1905.12
1571.48
981.492
1021.8
-156.617
936.015
-1086.27
313.491
-2410.78
33.2704
-2045.31
-1707.39