/*--------------------------------*- C++ -*----------------------------------*\
| =========                 |                                                 |
| \\      /  F ield         | OpenFOAM: The Open Source CFD Toolbox           |
|  \\    /   O peration     | Version:  2.2.x                                 |
|   \\  /    A nd           | Web:      www.OpenFOAM.org                      |
|    \\/     M anipulation  |                                                 |
\*---------------------------------------------------------------------------*/
FoamFile
{
    version     2.0;
    format      ascii;
    class       volScalarField;
    location    "1.9";
    object      rho;
}
// * * * * * * * * * * * * * * * * * * * * * * * * * * * * * * * * * * * * * //

dimensions      [1 -3 0 0 0 0 0];

internalField   nonuniform List<scalar> 
14161
(
0.996231
0.991895
0.990607
0.989797
0.990691
0.993672
0.99417
0.993343
0.991382
0.989663
0.988881
0.988675
0.988827
0.988103
0.98855
0.989364
0.988738
0.987323
0.986301
0.98617
0.985664
0.98395
0.98367
0.983293
0.98322
0.983272
0.983411
0.983733
0.984325
0.985153
0.986289
0.987315
0.988088
0.988848
0.989636
0.990523
0.991829
0.992512
0.991224
0.989256
0.991737
1.25974
2.16086
2.38082
2.35643
2.3164
2.3213
2.32851
2.34007
2.35543
2.37599
2.40065
2.4193
2.43019
2.43546
2.43246
2.425
2.4148
2.40378
2.39461
2.38722
2.38064
2.37572
2.37226
2.37008
2.36838
2.36598
2.36065
2.35168
2.34205
2.33106
2.31942
2.30938
2.29963
2.29165
2.28738
2.2831
2.27825
2.27274
2.26586
2.26721
2.27263
2.2818
2.29469
2.29399
2.28644
2.27751
2.28094
2.29614
2.30958
2.31838
2.32434
2.32804
2.35374
2.39293
2.44881
2.52518
2.61522
2.7017
2.76262
2.80946
2.84469
2.87511
2.90312
2.92803
2.95447
2.97585
2.997
3.01241
3.02909
3.04303
3.063
3.07573
3.09207
3.10727
3.13377
3.14456
3.16449
3.21081
0.991857
0.975788
0.97874
0.981285
0.985528
0.992991
0.993659
0.992742
0.990058
0.985752
0.981332
0.976895
0.972387
0.968034
0.966243
0.965411
0.965904
0.967483
0.969978
0.972892
0.975555
0.978324
0.98064
0.980458
0.979773
0.978836
0.977801
0.976633
0.975436
0.974216
0.973099
0.972346
0.971746
0.97108
0.971023
0.971551
0.972579
0.974005
0.973993
0.975907
0.961624
1.46025
2.3128
2.52869
2.59583
2.58845
2.56612
2.5451
2.52316
2.49785
2.46898
2.44501
2.41524
2.39794
2.38013
2.36081
2.34205
2.32589
2.31179
2.29946
2.28865
2.27852
2.26845
2.25769
2.24705
2.23703
2.22696
2.21665
2.20603
2.19697
2.18894
2.18162
2.17532
2.16982
2.16786
2.16863
2.17114
2.17782
2.19011
2.20389
2.21037
2.22891
2.26524
2.30507
2.3059
2.31286
2.35271
2.41938
2.47601
2.53379
2.57561
2.61173
2.64839
2.68537
2.71344
2.74024
2.77261
2.80759
2.84251
2.87041
2.89428
2.91827
2.93788
2.95567
2.97259
2.98872
3.00281
3.018
3.03242
3.04794
3.06598
3.08544
3.10155
3.11933
3.13954
3.17199
3.19147
3.19386
3.25198
1.02844
1.03579
1.02535
1.0107
1.00309
0.996963
0.995427
0.996249
0.997879
1.00151
1.00725
1.01431
1.0229
1.03337
1.03719
1.03579
1.03191
1.02691
1.02155
1.01564
1.00902
1.00433
1.00198
0.998723
0.998244
0.998843
1.00074
1.0038
1.00769
1.01254
1.01679
1.01933
1.02141
1.02335
1.02531
1.02851
1.03192
1.03356
1.0355
1.03858
1.02986
1.69151
2.46218
2.75726
2.80416
2.77099
2.7246
2.68794
2.64879
2.61216
2.58597
2.55486
2.52828
2.50256
2.48389
2.46497
2.44559
2.42735
2.4106
2.3945
2.37887
2.36362
2.34979
2.3359
2.32117
2.30822
2.29579
2.28424
2.27453
2.26426
2.2531
2.24314
2.23657
2.2361
2.23724
2.24326
2.25668
2.27575
2.29026
2.30983
2.3459
2.39173
2.4111
2.43875
2.48508
2.5363
2.57831
2.63827
2.71256
2.77856
2.84178
2.87981
2.90113
2.93251
2.95747
2.97733
2.98946
3.00599
3.01607
3.01844
3.01742
3.01564
3.01724
3.01705
3.01679
3.02132
3.02699
3.0321
3.03773
3.04514
3.05685
3.077
3.09641
3.11561
3.13322
3.16165
3.17053
3.18579
3.22027
0.957459
0.935741
0.945597
0.958336
0.973759
0.980095
0.980815
0.979896
0.977042
0.971584
0.964325
0.955881
0.946768
0.936978
0.930844
0.928869
0.929682
0.932383
0.936501
0.940951
0.945052
0.948936
0.952153
0.951741
0.950614
0.949038
0.94697
0.944795
0.943378
0.941433
0.938741
0.937189
0.936983
0.937235
0.937767
0.938694
0.940077
0.941885
0.944128
0.948866
0.941185
1.84315
2.43446
2.61751
2.6402
2.62844
2.6129
2.6019
2.58513
2.56388
2.55017
2.53084
2.51112
2.4923
2.47615
2.45965
2.44276
2.42551
2.40934
2.39455
2.38039
2.36648
2.35395
2.34049
2.3276
2.31439
2.30304
2.29185
2.28374
2.27397
2.26086
2.24828
2.24014
2.236
2.23758
2.2465
2.26265
2.2829
2.30672
2.34118
2.37258
2.41382
2.47897
2.53273
2.55525
2.60606
2.64838
2.69558
2.74795
2.79539
2.83901
2.8811
2.91696
2.94686
2.96374
2.98125
3.00066
3.02284
3.03378
3.03105
3.03217
3.03213
3.02904
3.02616
3.02373
3.02272
3.02221
3.02548
3.02956
3.03775
3.05459
3.07795
3.09733
3.11991
3.13976
3.16341
3.17252
3.18532
3.20319
1.0461
1.0736
1.05942
1.03722
1.02274
1.01503
1.01285
1.01434
1.01733
1.02217
1.0293
1.03838
1.04966
1.05931
1.06563
1.06732
1.06467
1.05991
1.05352
1.04618
1.03893
1.0332
1.02863
1.02479
1.02442
1.02541
1.02846
1.03355
1.04023
1.04508
1.04911
1.05282
1.05591
1.05815
1.06058
1.06548
1.06894
1.07058
1.07214
1.07607
1.06171
1.70297
2.51491
2.75495
2.76503
2.73184
2.69009
2.65347
2.62528
2.60613
2.58673
2.56091
2.53719
2.5196
2.49878
2.47981
2.46253
2.44723
2.43095
2.41684
2.40347
2.39105
2.3798
2.36957
2.3609
2.35157
2.34054
2.33031
2.32099
2.31158
2.30313
2.29384
2.28483
2.27917
2.27677
2.27939
2.28833
2.30085
2.31975
2.34205
2.36994
2.41342
2.46091
2.48403
2.52503
2.58874
2.62151
2.6605
2.7113
2.74081
2.79336
2.84924
2.87812
2.91045
2.9415
2.97196
2.99692
3.01335
3.02579
3.03416
3.03438
3.0329
3.03032
3.02638
3.02174
3.01934
3.01838
3.02118
3.02772
3.03942
3.05804
3.07965
3.09706
3.12109
3.14102
3.15971
3.16937
3.17982
3.19172
0.926184
0.901525
0.916653
0.938064
0.955792
0.962799
0.963529
0.962826
0.960078
0.954921
0.948346
0.94074
0.931789
0.919879
0.912986
0.909727
0.906503
0.907163
0.908985
0.911792
0.915356
0.918748
0.920011
0.919403
0.918255
0.916168
0.914777
0.913124
0.912609
0.912857
0.913306
0.91386
0.914589
0.915372
0.916245
0.917219
0.918395
0.919729
0.918925
0.920696
0.913877
1.23785
2.33918
2.50169
2.52124
2.51096
2.49736
2.49986
2.50207
2.50486
2.50477
2.49802
2.48957
2.4799
2.47024
2.45682
2.44529
2.43071
2.41835
2.40515
2.39226
2.38017
2.36989
2.36021
2.35149
2.34283
2.3336
2.32417
2.31435
2.3059
2.29798
2.28983
2.28091
2.27506
2.27083
2.27166
2.27532
2.27949
2.28798
2.29852
2.33452
2.3473
2.38888
2.45304
2.49392
2.51954
2.55387
2.59747
2.63543
2.66885
2.71367
2.76613
2.81597
2.8675
2.90411
2.93541
2.96605
2.9926
3.00711
3.01535
3.02124
3.02432
3.02346
3.0185
3.01428
3.01288
3.00975
3.0144
3.02354
3.03836
3.05748
3.07711
3.09521
3.11639
3.13615
3.15326
3.16558
3.17215
3.18604
1.05812
1.10344
1.08758
1.06436
1.04537
1.03557
1.0317
1.03097
1.03209
1.03624
1.04284
1.05109
1.06153
1.07191
1.07978
1.08147
1.07826
1.07368
1.06782
1.06154
1.05572
1.05049
1.04601
1.04151
1.04044
1.04125
1.044
1.04967
1.05465
1.05867
1.06211
1.06526
1.06796
1.06965
1.07108
1.07323
1.07619
1.07703
1.07706
1.0756
1.08041
1.13796
1.87731
2.71474
2.69871
2.66069
2.61233
2.58085
2.55701
2.54007
2.51913
2.5
2.48114
2.46149
2.44356
2.42538
2.40796
2.39129
2.37746
2.36265
2.34811
2.33507
2.32403
2.31478
2.3064
2.29696
2.28727
2.27739
2.26802
2.2597
2.25301
2.24638
2.24013
2.23719
2.23391
2.23581
2.24661
2.25535
2.27318
2.289
2.3215
2.34159
2.39423
2.42873
2.47606
2.51502
2.55941
2.58092
2.615
2.63495
2.66779
2.70237
2.73172
2.77457
2.822
2.87348
2.91651
2.95325
2.97718
2.99408
3.00333
3.00998
3.01435
3.01228
3.00654
3.0033
3.0015
3.00811
3.0196
3.0373
3.05504
3.0708
3.0884
3.10604
3.12805
3.14787
3.16189
3.16365
3.18141
0.905897
0.878455
0.896799
0.921144
0.938106
0.946239
0.949695
0.950737
0.949799
0.94803
0.94531
0.940904
0.933822
0.923269
0.914391
0.906328
0.899806
0.897227
0.898171
0.900002
0.902401
0.90482
0.907246
0.908531
0.908871
0.909436
0.910514
0.911998
0.913576
0.915232
0.916984
0.918655
0.920456
0.922457
0.924489
0.926527
0.928397
0.930124
0.931657
0.933172
0.938011
0.974577
1.95852
2.47969
2.48054
2.46221
2.45154
2.44728
2.44448
2.43546
2.42781
2.41791
2.40526
2.39146
2.37979
2.3678
2.35533
2.34397
2.33262
2.32026
2.30743
2.2955
2.28489
2.27674
2.26835
2.25904
2.24884
2.23841
2.22864
2.21872
2.20956
2.20115
2.19384
2.19111
2.18917
2.1912
2.20325
2.21111
2.22685
2.24012
2.26708
2.28677
2.32867
2.36103
2.39149
2.41788
2.46332
2.48755
2.50662
2.52325
2.55832
2.59314
2.62595
2.67446
2.73054
2.79474
2.85973
2.9095
2.94178
2.96466
2.9812
2.99235
2.99881
2.99815
2.99691
2.99322
2.98996
2.99639
3.0075
3.02597
3.04444
3.05615
3.07258
3.09205
3.11747
3.1404
3.1561
3.15345
3.17372
1.0613
1.11503
1.0994
1.07814
1.05769
1.04664
1.04161
1.03976
1.03969
1.04089
1.04296
1.04628
1.05142
1.05899
1.06471
1.06554
1.06265
1.05909
1.05492
1.05048
1.0459
1.0414
1.03763
1.03352
1.0319
1.03232
1.03503
1.03794
1.04017
1.04415
1.04539
1.04576
1.04813
1.0496
1.05004
1.0509
1.05106
1.05173
1.05098
1.05055
1.05303
1.11644
2.26807
2.69212
2.69898
2.64007
2.59271
2.55411
2.5252
2.50223
2.4854
2.46451
2.44289
2.42051
2.40442
2.38897
2.3749
2.35962
2.34397
2.3283
2.3136
2.29955
2.28577
2.27521
2.26463
2.25592
2.24518
2.23427
2.22379
2.21338
2.20305
2.19418
2.18659
2.18438
2.18314
2.18533
2.19702
2.20646
2.22323
2.23749
2.26524
2.28778
2.31414
2.33857
2.35392
2.37385
2.40488
2.43169
2.44822
2.48697
2.53378
2.57256
2.60056
2.63987
2.68679
2.74073
2.80577
2.8587
2.89895
2.92865
2.94925
2.96227
2.97756
2.98111
2.98403
2.98115
2.98011
2.98494
2.99345
3.01184
3.02488
3.03799
3.05368
3.07885
3.11058
3.13286
3.15139
3.14701
3.17049
0.903802
0.871549
0.889178
0.91108
0.926239
0.935678
0.942311
0.946313
0.948501
0.949878
0.949618
0.947701
0.943649
0.936023
0.929089
0.923847
0.919009
0.917248
0.917454
0.918595
0.920504
0.922692
0.925031
0.92699
0.928556
0.930067
0.931773
0.933608
0.935618
0.937743
0.93988
0.941981
0.944227
0.946622
0.949297
0.952468
0.955787
0.959695
0.963315
0.970223
0.968521
1.21319
2.50214
2.63078
2.61126
2.5736
2.54755
2.52316
2.50342
2.48404
2.47255
2.45371
2.42874
2.41227
2.40699
2.38984
2.36922
2.35291
2.34338
2.32871
2.31214
2.29756
2.2852
2.27524
2.26532
2.25761
2.24812
2.23872
2.22871
2.2185
2.20923
2.2008
2.1916
2.19111
2.19336
2.19881
2.21576
2.22632
2.24252
2.25692
2.28423
2.30936
2.33547
2.35597
2.35939
2.36317
2.37428
2.39192
2.40868
2.4319
2.46819
2.50805
2.53388
2.57137
2.6162
2.66643
2.73082
2.80308
2.87355
2.91487
2.94312
2.95701
2.97297
2.97472
2.97643
2.97394
2.96988
2.9716
2.97717
2.99229
3.002
3.00978
3.03037
3.06176
3.10005
3.12356
3.14396
3.14047
3.16796
1.04819
1.09814
1.0856
1.06837
1.05017
1.03777
1.03002
1.02559
1.02337
1.02202
1.02222
1.02386
1.02549
1.02802
1.03249
1.03478
1.03378
1.03222
1.02994
1.02717
1.02403
1.02073
1.01767
1.01497
1.013
1.01176
1.01109
1.01113
1.01209
1.01275
1.01263
1.01281
1.01246
1.01212
1.0121
1.0123
1.01329
1.01458
1.01412
1.02051
1.01505
1.40987
2.49286
2.63542
2.59642
2.56267
2.54324
2.5269
2.51709
2.50238
2.4884
2.47757
2.48636
2.47065
2.43927
2.42063
2.42153
2.41062
2.38881
2.36858
2.35186
2.33664
2.3254
2.31657
2.30807
2.3027
2.29561
2.2883
2.2809
2.27436
2.26957
2.26454
2.26157
2.25888
2.25804
2.25917
2.27413
2.28441
2.30068
2.31098
2.33007
2.34688
2.35708
2.36268
2.3558
2.3494
2.3472
2.3497
2.36326
2.37041
2.38968
2.42209
2.45541
2.50294
2.55822
2.61541
2.67944
2.74815
2.83222
2.88804
2.9267
2.9447
2.95996
2.96265
2.96686
2.9653
2.96165
2.96018
2.9628
2.97625
2.98507
2.99173
3.007
3.03886
3.08332
3.10972
3.13378
3.1342
3.16569
0.914752
0.878797
0.895564
0.915034
0.931015
0.941664
0.949994
0.955478
0.960115
0.962714
0.964563
0.965333
0.964007
0.960462
0.955586
0.952603
0.951528
0.950562
0.95077
0.951497
0.952586
0.953894
0.955344
0.956705
0.95796
0.959152
0.960325
0.961516
0.962823
0.964299
0.966105
0.968037
0.969756
0.972504
0.97545
0.978101
0.978644
0.981415
0.984614
0.990362
0.995748
1.06117
2.29933
2.63684
2.63304
2.59965
2.5678
2.54663
2.53154
2.52105
2.51364
2.50153
2.48792
2.47317
2.45754
2.43675
2.41764
2.39847
2.38126
2.36174
2.34343
2.32839
2.31516
2.30555
2.2969
2.29044
2.28268
2.276
2.26656
2.25847
2.25208
2.24841
2.24532
2.24645
2.25528
2.26684
2.29399
2.31797
2.34743
2.37273
2.39755
2.41214
2.41324
2.41337
2.40304
2.39431
2.3851
2.37804
2.3888
2.37552
2.38079
2.40003
2.41934
2.4564
2.50271
2.55435
2.61321
2.68363
2.76543
2.84422
2.89668
2.92361
2.94145
2.94407
2.95115
2.95092
2.94943
2.94421
2.94457
2.95512
2.96334
2.96927
2.98043
3.01063
3.05822
3.09123
3.12103
3.12562
3.15981
1.03893
1.07763
1.06635
1.05059
1.03511
1.02396
1.01661
1.0104
1.00437
1.00012
0.998411
0.998883
1.00002
1.00203
1.00396
1.00515
1.00585
1.00604
1.00533
1.00408
1.00235
1.00037
0.998367
0.99651
0.995027
0.993888
0.993067
0.992484
0.992114
0.991839
0.991713
0.990804
0.99073
0.989939
0.98891
0.987934
0.986724
0.985397
0.98315
0.980362
0.98178
1.03191
2.22257
2.50816
2.5127
2.50843
2.5052
2.5005
2.49268
2.48824
2.47988
2.47028
2.4573
2.44266
2.42655
2.40867
2.38573
2.36138
2.34003
2.3215
2.30466
2.29041
2.27637
2.26627
2.25598
2.24946
2.24094
2.23326
2.22305
2.21531
2.20755
2.20466
2.20131
2.20495
2.215
2.22975
2.2625
2.29197
2.30699
2.33173
2.36331
2.38621
2.39404
2.40033
2.39103
2.38259
2.37903
2.37636
2.37816
2.37106
2.37011
2.36585
2.38016
2.41931
2.46585
2.51794
2.57115
2.63611
2.71633
2.81145
2.88541
2.92408
2.94521
2.94644
2.95136
2.95058
2.94753
2.93826
2.93543
2.94099
2.94734
2.95038
2.95979
2.9849
3.03459
3.07491
3.11565
3.12122
3.1603
0.939744
0.908142
0.921536
0.938418
0.952962
0.963007
0.971007
0.975777
0.977925
0.980481
0.982158
0.982306
0.981203
0.979086
0.976924
0.975503
0.974942
0.97443
0.973937
0.974043
0.973952
0.974311
0.974746
0.975189
0.975621
0.976075
0.97659
0.977149
0.977822
0.978638
0.979207
0.980435
0.981598
0.982867
0.984462
0.986273
0.988042
0.990321
0.990326
0.992348
0.994648
1.12019
2.22384
2.48934
2.52105
2.53761
2.52746
2.5103
2.48983
2.468
2.45823
2.44234
2.42494
2.40483
2.38535
2.36195
2.3359
2.31211
2.2921
2.2753
2.25924
2.2467
2.23256
2.22313
2.21241
2.20713
2.19971
2.19358
2.1862
2.1803
2.17559
2.1709
2.16665
2.16995
2.17606
2.19798
2.22269
2.26072
2.27691
2.3072
2.33993
2.36657
2.3816
2.39174
2.38918
2.38519
2.3866
2.37976
2.3767
2.37505
2.36739
2.3536
2.36501
2.39643
2.4331
2.47759
2.52326
2.58174
2.66154
2.7647
2.86048
2.91066
2.94051
2.94373
2.94687
2.94638
2.94372
2.93427
2.92505
2.9261
2.92934
2.93372
2.94304
2.96174
3.00508
3.05494
3.10754
3.11572
3.15988
1.0269
1.05157
1.04101
1.02629
1.01455
1.00718
1.001
0.996242
0.993911
0.988679
0.986634
0.986737
0.987389
0.988383
0.989717
0.991092
0.991668
0.992113
0.991873
0.991223
0.990167
0.988948
0.987716
0.986536
0.985526
0.984693
0.983981
0.983717
0.983492
0.9834
0.983197
0.982997
0.982583
0.982031
0.981141
0.98007
0.978939
0.977726
0.975277
0.977067
0.96897
1.3134
2.38718
2.5011
2.50843
2.51399
2.50642
2.48721
2.46187
2.43754
2.4144
2.3894
2.37754
2.35669
2.33736
2.31585
2.29715
2.2785
2.26336
2.24974
2.23625
2.22625
2.21315
2.20559
2.19597
2.19227
2.18689
2.18294
2.17505
2.1702
2.16302
2.16158
2.15635
2.15839
2.1685
2.18366
2.21275
2.23515
2.25831
2.28972
2.30462
2.33155
2.34541
2.3618
2.37488
2.38807
2.38978
2.36671
2.37129
2.377
2.36295
2.34456
2.35625
2.37625
2.39046
2.42069
2.46829
2.53122
2.61231
2.71764
2.82671
2.89087
2.932
2.94313
2.94802
2.94855
2.94647
2.93837
2.92635
2.92174
2.91811
2.91976
2.92594
2.93819
2.97319
3.02806
3.09309
3.1073
3.15835
0.963969
0.943062
0.952094
0.964772
0.975388
0.98257
0.986238
0.989514
0.98994
0.990091
0.99003
0.989928
0.989508
0.988786
0.987742
0.986724
0.985491
0.984407
0.983417
0.982344
0.981785
0.981498
0.981166
0.980674
0.980421
0.98042
0.980493
0.980579
0.980883
0.981333
0.98203
0.983001
0.984136
0.985456
0.98681
0.988049
0.989686
0.992034
0.993083
0.999437
0.994107
1.43915
2.50247
2.58167
2.56661
2.57891
2.57
2.54824
2.52061
2.48789
2.46004
2.42648
2.41195
2.38694
2.36523
2.34239
2.32383
2.30469
2.28172
2.26319
2.24342
2.23281
2.21916
2.21429
2.20425
2.20111
2.19447
2.19409
2.18996
2.18723
2.18166
2.17616
2.16665
2.16995
2.17524
2.20951
2.2285
2.26026
2.28265
2.30308
2.30704
2.31971
2.31524
2.32388
2.34831
2.35636
2.3369
2.35066
2.37829
2.37061
2.35977
2.35915
2.35716
2.36285
2.36849
2.39884
2.44451
2.49926
2.57713
2.67729
2.79642
2.87802
2.93081
2.94929
2.95596
2.95483
2.95258
2.94469
2.93061
2.91839
2.90736
2.90753
2.90814
2.91292
2.94081
2.99915
3.07631
3.09936
3.15448
1.01337
1.02666
1.01864
1.0076
1.00044
0.995477
0.991676
0.98898
0.98655
0.985265
0.984908
0.985001
0.985456
0.986081
0.986936
0.987724
0.988043
0.987813
0.987131
0.986074
0.985029
0.98424
0.983565
0.982816
0.981941
0.981514
0.981294
0.981248
0.981242
0.981144
0.981505
0.981642
0.981687
0.981635
0.981326
0.98063
0.97921
0.979416
0.978909
0.982388
0.982102
1.27577
2.53841
2.54179
2.52143
2.54426
2.54688
2.52996
2.50876
2.47293
2.44115
2.40822
2.39434
2.36693
2.34195
2.32046
2.29819
2.2765
2.24538
2.22539
2.20122
2.19597
2.18282
2.1841
2.17745
2.17738
2.17348
2.17409
2.17129
2.16954
2.1654
2.16379
2.1555
2.16401
2.16918
2.2157
2.23705
2.27162
2.29399
2.31241
2.30722
2.31082
2.29981
2.30176
2.32802
2.31567
2.3084
2.33871
2.3625
2.34619
2.34618
2.35258
2.35897
2.35308
2.34794
2.3718
2.41534
2.47083
2.544
2.64215
2.76291
2.85489
2.92109
2.94809
2.9568
2.95664
2.95586
2.94893
2.93626
2.91898
2.90568
2.89885
2.89349
2.89324
2.91721
2.97027
3.05491
3.09213
3.15512
0.97999
0.969712
0.975079
0.982215
0.989197
0.991483
0.992273
0.992559
0.992219
0.991732
0.991188
0.990679
0.989995
0.989286
0.988616
0.988084
0.98727
0.98606
0.984471
0.982968
0.982207
0.981642
0.981138
0.980564
0.980135
0.980033
0.980038
0.980171
0.980516
0.98094
0.981408
0.982166
0.983538
0.984322
0.984189
0.984231
0.984521
0.985436
0.985606
0.988944
0.997283
1.32287
2.42663
2.45945
2.45999
2.46688
2.47246
2.45523
2.43821
2.40296
2.37226
2.34563
2.34166
2.3192
2.29263
2.27626
2.25345
2.24239
2.20959
2.19383
2.17055
2.17104
2.15637
2.16337
2.15975
2.1589
2.15864
2.16304
2.16442
2.16407
2.16357
2.16249
2.15652
2.1629
2.17518
2.2271
2.28451
2.29676
2.33228
2.34716
2.35205
2.34362
2.30727
2.32134
2.34141
2.30961
2.3016
2.30959
2.31821
2.30854
2.33177
2.34569
2.34609
2.34011
2.34505
2.36342
2.38865
2.4317
2.50573
2.60866
2.72527
2.81891
2.88455
2.93174
2.94873
2.95414
2.95664
2.95236
2.94388
2.92347
2.90907
2.89371
2.88011
2.87598
2.89564
2.93957
3.02564
3.08189
3.14706
1.00297
1.00933
1.00392
0.996298
0.993984
0.991457
0.989158
0.988138
0.987423
0.986869
0.986618
0.986509
0.98649
0.986556
0.986862
0.987381
0.987008
0.985641
0.984502
0.983607
0.982807
0.982076
0.981481
0.980865
0.980237
0.979983
0.979997
0.980043
0.98008
0.980035
0.980194
0.980935
0.981268
0.980937
0.979072
0.978313
0.978583
0.978789
0.978211
0.980691
1.00322
1.55375
2.23359
2.31894
2.33045
2.34272
2.35889
2.34781
2.3442
2.31956
2.29711
2.27423
2.27715
2.2674
2.24774
2.23929
2.20042
2.20467
2.18342
2.15969
2.14909
2.14167
2.12918
2.14208
2.13931
2.13515
2.13529
2.14757
2.15129
2.15282
2.15104
2.14309
2.14687
2.15315
2.17562
2.2209
2.29286
2.34853
2.34688
2.35562
2.38161
2.35788
2.32367
2.33145
2.34081
2.29184
2.29006
2.29304
2.30398
2.31125
2.32703
2.31538
2.32462
2.3304
2.33929
2.34801
2.36813
2.41213
2.48487
2.57501
2.68195
2.78436
2.85795
2.91542
2.94208
2.95403
2.95599
2.95063
2.94074
2.91981
2.90118
2.8845
2.8656
2.86072
2.87591
2.91013
2.99655
3.06493
3.13711
0.987941
0.985468
0.987759
0.990843
0.993153
0.993251
0.992859
0.992285
0.991457
0.990515
0.989902
0.989397
0.988733
0.988146
0.987892
0.987569
0.98659
0.984471
0.982952
0.98217
0.981633
0.980945
0.980296
0.979752
0.97913
0.978675
0.978648
0.978633
0.978798
0.978989
0.979489
0.98083
0.98196
0.981709
0.980342
0.979966
0.980233
0.980263
0.981076
0.988014
1.03004
1.72248
2.10972
2.18067
2.22435
2.24893
2.26444
2.26917
2.26543
2.25287
2.23298
2.21759
2.21138
2.21476
2.20123
2.20924
2.16157
2.163
2.15265
2.13029
2.11737
2.11313
2.10194
2.11683
2.12108
2.11796
2.12116
2.12971
2.13898
2.14406
2.14378
2.14294
2.16591
2.17358
2.22536
2.31028
2.39851
2.40516
2.41266
2.40347
2.41475
2.38169
2.34284
2.33658
2.33424
2.29777
2.29859
2.27557
2.26859
2.2875
2.30351
2.30976
2.31443
2.3198
2.32827
2.34286
2.37202
2.41778
2.48018
2.56055
2.6573
2.75459
2.83028
2.89235
2.92679
2.94642
2.95165
2.94762
2.93764
2.91853
2.89597
2.87947
2.8566
2.84972
2.8604
2.88607
2.96812
3.04326
3.12924
0.997366
0.999979
0.997336
0.993537
0.991571
0.990767
0.990116
0.989494
0.988858
0.988208
0.987878
0.987672
0.987346
0.987107
0.987047
0.98713
0.986194
0.983989
0.982846
0.982178
0.98181
0.98116
0.980021
0.979377
0.978894
0.978119
0.977569
0.977597
0.977822
0.97796
0.978356
0.979226
0.979486
0.97937
0.977581
0.974599
0.973277
0.971133
0.972834
0.978398
1.11992
1.88466
2.04866
2.07351
2.08765
2.09911
2.12012
2.14353
2.15652
2.15867
2.15568
2.15516
2.15058
2.16498
2.1506
2.17341
2.13074
2.11943
2.1155
2.09435
2.06101
2.07315
2.07656
2.07535
2.07625
2.07875
2.08531
2.10261
2.12812
2.14089
2.15949
2.18424
2.27227
2.35924
2.45778
2.53049
2.56853
2.5658
2.52762
2.50472
2.47834
2.43536
2.40764
2.39073
2.35844
2.31787
2.29321
2.2772
2.26289
2.26013
2.2769
2.30141
2.31607
2.31944
2.3299
2.34273
2.36579
2.40724
2.46552
2.54073
2.63091
2.71968
2.7957
2.86157
2.90407
2.92659
2.93987
2.93777
2.93091
2.91439
2.89289
2.87543
2.85112
2.8395
2.84542
2.86319
2.93799
3.01605
3.11991
0.99126
0.991806
0.992844
0.99316
0.99318
0.992854
0.992135
0.991326
0.990318
0.989526
0.988973
0.988702
0.988205
0.987349
0.986924
0.986635
0.98561
0.983238
0.982043
0.981419
0.981152
0.980752
0.979191
0.97807
0.977568
0.977001
0.976526
0.976217
0.976037
0.975843
0.975842
0.975726
0.975779
0.976734
0.976938
0.97523
0.974889
0.974567
0.977733
0.987248
1.42664
1.98038
2.01573
2.01066
2.01536
2.02085
2.03623
2.0544
2.07427
2.07933
2.08584
2.09509
2.08755
2.10807
2.0947
2.11382
2.09501
2.07478
2.08721
2.08586
2.03936
2.04152
2.05633
2.05355
2.06531
2.07541
2.12799
2.20332
2.30051
2.38607
2.47613
2.55436
2.64592
2.69645
2.73833
2.70582
2.69154
2.68729
2.64437
2.6145
2.57798
2.52813
2.48667
2.45285
2.40118
2.35447
2.3302
2.3034
2.28018
2.27072
2.2809
2.29971
2.31449
2.32465
2.33565
2.34697
2.36774
2.40637
2.46191
2.53347
2.61832
2.69779
2.76729
2.83779
2.88667
2.91174
2.9296
2.93115
2.92498
2.9098
2.88952
2.87112
2.84589
2.82888
2.83121
2.84252
2.91096
2.99014
3.11134
0.994449
0.996103
0.995171
0.993253
0.992289
0.991525
0.990788
0.990233
0.989556
0.988848
0.988336
0.98816
0.98788
0.986968
0.986409
0.986144
0.985238
0.983053
0.981829
0.981223
0.980993
0.980905
0.979381
0.977122
0.976243
0.97588
0.975661
0.975537
0.975567
0.975968
0.975991
0.974408
0.973433
0.972925
0.97284
0.972867
0.972527
0.971204
0.974059
1.0018
1.71279
1.99304
2.0028
1.99334
1.98916
1.99331
2.00188
2.01959
2.04238
2.07243
2.08835
2.12304
2.09979
2.11972
2.10636
2.09743
2.09775
2.08163
2.08865
2.07536
2.10084
2.0762
2.13195
2.18706
2.29421
2.39169
2.48162
2.58172
2.6861
2.76779
2.81469
2.81982
2.8338
2.83424
2.82373
2.793
2.76364
2.73969
2.71045
2.68901
2.65434
2.60837
2.56223
2.50559
2.45606
2.43469
2.39828
2.35789
2.31714
2.29323
2.29493
2.3047
2.31972
2.33115
2.341
2.3537
2.3749
2.41157
2.46319
2.52818
2.6016
2.67005
2.73232
2.80277
2.86061
2.88997
2.91442
2.92124
2.91491
2.90284
2.88475
2.8659
2.84141
2.81974
2.81655
2.82355
2.88434
2.96516
3.097
0.992664
0.993446
0.994093
0.993734
0.993201
0.992731
0.991675
0.990651
0.989935
0.989246
0.98858
0.988151
0.987728
0.986719
0.985775
0.985277
0.984415
0.982493
0.981209
0.980592
0.980406
0.980453
0.979204
0.976085
0.974854
0.974415
0.974236
0.974116
0.974153
0.974539
0.97548
0.97507
0.972387
0.97008
0.969011
0.968339
0.966996
0.968326
0.97315
1.07226
1.89668
2.03826
2.02677
2.00642
1.99191
1.98605
1.98057
1.98455
1.98994
2.00893
2.02311
2.04533
2.05458
2.06853
2.08111
2.07795
2.11607
2.08327
2.16214
2.19887
2.30572
2.37856
2.48382
2.57056
2.66746
2.75055
2.80302
2.81501
2.83635
2.8562
2.8532
2.84429
2.82927
2.8215
2.81243
2.7941
2.77226
2.75345
2.74187
2.7269
2.70191
2.67534
2.6441
2.59955
2.55698
2.51788
2.4605
2.41283
2.36421
2.34303
2.33099
2.32893
2.33204
2.33495
2.3472
2.36687
2.39148
2.42653
2.47329
2.53061
2.59155
2.64744
2.70364
2.77165
2.8352
2.87197
2.89908
2.91229
2.90637
2.89614
2.87884
2.85856
2.83432
2.80892
2.80215
2.8044
2.85531
2.94351
3.07331
0.993201
0.994399
0.994397
0.993778
0.992883
0.992419
0.991529
0.990472
0.989834
0.989221
0.988539
0.987814
0.987274
0.986333
0.985118
0.984355
0.983656
0.982147
0.980754
0.98005
0.979821
0.979901
0.979125
0.976071
0.974415
0.973829
0.973614
0.973541
0.973483
0.973502
0.974105
0.974508
0.973031
0.969844
0.967829
0.967246
0.966345
0.968732
0.976032
1.31069
2.01415
2.01433
2.00499
1.9919
1.98195
1.97419
1.97014
1.96847
1.96741
1.9712
1.98071
1.99485
2.02332
2.0468
2.11689
2.17344
2.30126
2.33478
2.46144
2.55563
2.65344
2.69591
2.73976
2.7697
2.79494
2.81858
2.81522
2.82228
2.80668
2.81694
2.81206
2.8109
2.80261
2.78618
2.7827
2.77735
2.76765
2.75711
2.75034
2.75099
2.74368
2.72564
2.70155
2.66602
2.62261
2.57978
2.53735
2.50705
2.45374
2.40785
2.36844
2.3519
2.35089
2.35584
2.3668
2.38918
2.41456
2.44518
2.48511
2.53111
2.57916
2.62608
2.67916
2.74107
2.80852
2.85256
2.88216
2.90212
2.89847
2.89038
2.87285
2.852
2.82837
2.79942
2.78908
2.78628
2.83276
2.92048
3.05087
0.993009
0.993611
0.994214
0.994035
0.993318
0.992642
0.991855
0.990552
0.989771
0.98926
0.988717
0.987749
0.986896
0.986008
0.984723
0.983523
0.982687
0.981581
0.980237
0.979418
0.979108
0.97917
0.9787
0.975674
0.97352
0.972646
0.972079
0.971728
0.971505
0.971463
0.971491
0.97213
0.972811
0.971741
0.968766
0.967226
0.967423
0.971455
0.997536
1.62205
2.00103
2.02345
2.01692
2.01088
2.00522
1.99833
1.98848
1.98089
1.97533
1.97568
1.97849
1.99021
2.02562
2.09216
2.2584
2.42409
2.5656
2.63723
2.67953
2.70889
2.72296
2.74067
2.75564
2.76551
2.77609
2.77428
2.76938
2.7686
2.7669
2.77716
2.78102
2.78309
2.77976
2.77129
2.76782
2.76751
2.76392
2.75735
2.75119
2.75459
2.75867
2.74956
2.73389
2.70796
2.67462
2.63904
2.60946
2.56329
2.52078
2.46708
2.42405
2.39578
2.38477
2.37958
2.38973
2.40331
2.42716
2.45697
2.49262
2.53103
2.57219
2.61495
2.66045
2.71563
2.78397
2.83476
2.8643
2.89026
2.88854
2.88165
2.86426
2.84248
2.82008
2.79019
2.77475
2.76773
2.81268
2.89501
3.03396
0.993185
0.993848
0.994455
0.994079
0.993389
0.992499
0.99179
0.99061
0.989645
0.989144
0.9887
0.987646
0.986475
0.985667
0.984576
0.983084
0.981955
0.980959
0.979818
0.978926
0.978438
0.978273
0.977954
0.975965
0.972902
0.971577
0.970599
0.969901
0.969546
0.969286
0.968858
0.968684
0.968911
0.969289
0.967284
0.962468
0.962406
0.966519
1.0254
1.82808
2.03667
2.04708
2.04245
2.03879
2.03439
2.02781
2.02007
2.01096
2.00262
1.99976
2.01232
2.05262
2.15168
2.34679
2.5719
2.67609
2.70821
2.72571
2.70615
2.72277
2.72588
2.73623
2.73149
2.73472
2.73049
2.72459
2.71435
2.72018
2.72043
2.73363
2.74405
2.74296
2.74772
2.74776
2.74942
2.75117
2.75296
2.75341
2.75031
2.75437
2.76052
2.75885
2.7506
2.73451
2.71068
2.68227
2.6547
2.62098
2.59181
2.54301
2.49168
2.44534
2.41808
2.40961
2.41815
2.42833
2.44651
2.47117
2.50201
2.53191
2.5624
2.59831
2.64021
2.69347
2.76345
2.81831
2.84854
2.87813
2.87995
2.87447
2.8575
2.83593
2.81373
2.78299
2.76324
2.75191
2.79319
2.86815
3.01568
0.993123
0.993766
0.994384
0.99415
0.993554
0.992595
0.991949
0.991129
0.989712
0.988841
0.988407
0.98749
0.986095
0.985198
0.984343
0.982883
0.981403
0.980305
0.979333
0.9786
0.977773
0.976916
0.976645
0.976459
0.974369
0.972582
0.971269
0.970055
0.969149
0.968519
0.967793
0.967279
0.96704
0.967356
0.96645
0.961567
0.962332
0.967569
1.17241
1.97481
2.05468
2.04957
2.04366
2.04506
2.04778
2.04741
2.04508
2.04233
2.04277
2.05486
2.09101
2.19152
2.38905
2.61498
2.73731
2.74212
2.72836
2.72311
2.72224
2.70768
2.70134
2.70439
2.70021
2.69383
2.68871
2.68409
2.6786
2.67689
2.68104
2.68419
2.69643
2.70102
2.71056
2.71553
2.7163
2.72272
2.72975
2.7371
2.74058
2.74543
2.75066
2.75377
2.75032
2.74265
2.72814
2.70464
2.67957
2.65607
2.63866
2.59898
2.55678
2.50765
2.47383
2.4559
2.45722
2.45817
2.46809
2.48524
2.50628
2.53009
2.55506
2.58575
2.62351
2.6739
2.74175
2.79833
2.82891
2.86254
2.86912
2.86584
2.84938
2.82785
2.80563
2.77438
2.75089
2.73592
2.77129
2.84371
2.99343
0.993207
0.993815
0.994235
0.994078
0.993612
0.992746
0.991696
0.991146
0.990105
0.988763
0.988016
0.987257
0.985782
0.984628
0.983876
0.982904
0.981291
0.97987
0.978919
0.978629
0.978189
0.97665
0.975684
0.975536
0.974597
0.973261
0.971383
0.969249
0.967812
0.966553
0.965588
0.965223
0.965386
0.966304
0.966505
0.964527
0.96623
0.977899
1.48163
1.98848
2.02696
2.02576
2.02709
2.03574
2.04605
2.04981
2.05499
2.06282
2.08008
2.12267
2.22604
2.42221
2.6371
2.77799
2.76352
2.7498
2.7248
2.69738
2.68488
2.68768
2.67675
2.66868
2.66653
2.66504
2.65828
2.65241
2.65042
2.65052
2.65078
2.64626
2.65335
2.65797
2.6693
2.68085
2.68148
2.69
2.69831
2.70744
2.71514
2.72358
2.73226
2.7435
2.74872
2.74745
2.74117
2.72847
2.70866
2.69148
2.67739
2.64567
2.6064
2.55714
2.51697
2.49286
2.49079
2.48358
2.49112
2.50047
2.51339
2.53061
2.55039
2.57629
2.611
2.65838
2.72103
2.7801
2.81346
2.84732
2.85843
2.85667
2.84224
2.82077
2.79808
2.76516
2.73814
2.72038
2.74979
2.81982
2.97128
0.99324
0.993752
0.994176
0.994096
0.993669
0.99294
0.991881
0.990974
0.990269
0.988843
0.987805
0.987028
0.985641
0.984177
0.983221
0.982409
0.981104
0.979648
0.978615
0.978106
0.977714
0.976116
0.9746
0.974052
0.973785
0.973677
0.97274
0.969261
0.966744
0.96528
0.964186
0.963418
0.963127
0.963217
0.963572
0.961025
0.962813
0.992982
1.71981
2.03728
2.05214
2.04841
2.04635
2.04861
2.05493
2.06125
2.07258
2.09513
2.14122
2.24813
2.45427
2.64828
2.78348
2.78554
2.74413
2.73135
2.71981
2.68712
2.65806
2.65112
2.64673
2.6416
2.63313
2.62774
2.62714
2.62882
2.62845
2.62525
2.62025
2.61876
2.61944
2.62551
2.63656
2.6512
2.65681
2.65913
2.66213
2.67046
2.68524
2.69959
2.71254
2.72608
2.73673
2.74046
2.73853
2.7314
2.71826
2.70281
2.6885
2.66118
2.62904
2.58567
2.54639
2.51911
2.51511
2.50599
2.51186
2.51177
2.51943
2.5314
2.54851
2.56924
2.59802
2.64096
2.69806
2.76041
2.79702
2.83102
2.84639
2.84617
2.83319
2.81209
2.78944
2.75566
2.72527
2.70537
2.72863
2.79706
2.94841
0.99326
0.993728