/*--------------------------------*- C++ -*----------------------------------*\
| =========                 |                                                 |
| \\      /  F ield         | OpenFOAM: The Open Source CFD Toolbox           |
|  \\    /   O peration     | Version:  2.2.x                                 |
|   \\  /    A nd           | Web:      www.OpenFOAM.org                      |
|    \\/     M anipulation  |                                                 |
\*---------------------------------------------------------------------------*/
FoamFile
{
    version     2.0;
    format      ascii;
    class       surfaceScalarField;
    location    "0.07";
    object      phi;
}
// * * * * * * * * * * * * * * * * * * * * * * * * * * * * * * * * * * * * * //

dimensions      [1 0 -1 0 0 0 0];

internalField   nonuniform List<scalar> 
1023
(
0
0
0
0
0
0
0
0
0
0
0
0
0
0
0
0
0
0
0
0
0
0
0
0
0
0
0
0
0
0
0
0
0
0
0
0
0
0
0
0
0
0
0
0
0
0
0
0
0
0
0
0
0
0
0
0
0
0
0
0
0
0
0
0
0
0
0
0
0
0
0
0
0
0
0
0
0
0
0
0
0
0
0
0
0
0
0
0
0
0
0
0
0
0
0
0
0
0
0
0
0
0
0
0
0
0
0
0
0
0
0
0
0
0
0
0
0
0
0
0
0
0
0
0
0
0
0
0
0
0
0
0
0
0
0
0
0
0
0
0
0
0
0
0
0
0
0
0
0
0
0
0
0
0
0
0
0
0
0
0
0
0
0
0
0
0
0
0
0
0
0
0
0
0
0
0
0
0
0
0
0
0
0
0
0
0
0
0
1.7053e-18
3.16462e-17
2.39932e-16
1.15009e-15
2.08363e-15
2.9549e-15
4.41615e-15
7.26442e-15
1.24452e-14
2.28103e-14
4.31684e-14
8.3559e-14
1.62368e-13
3.14896e-13
6.09051e-13
1.17135e-12
2.23966e-12
4.25637e-12
8.03838e-12
1.50854e-11
2.81274e-11
5.20993e-11
9.58579e-11
1.75178e-10
3.17943e-10
5.73051e-10
1.02558e-09
1.82238e-09
3.21477e-09
5.62936e-09
9.78399e-09
1.6876e-08
2.88844e-08
4.90504e-08
8.26316e-08
1.38074e-07
2.28809e-07
3.75975e-07
6.12485e-07
9.89018e-07
1.58271e-06
2.50955e-06
3.94182e-06
6.13196e-06
9.4449e-06
1.44004e-05
2.17276e-05
3.24321e-05
4.78771e-05
6.98755e-05
0.000100789
0.000143628
0.000202134
0.000280837
0.000385061
0.000520853
0.000694833
0.000913931
0.00118503
0.00151455
0.00190797
0.00236938
0.00290114
0.00350368
0.00417545
0.00491314
0.00571205
0.00656661
0.00747103
0.00842011
0.00941129
0.0104084
0.0113853
0.0123452
0.0132921
0.0142275
0.0151541
0.0160727
0.016984
0.0178886
0.0187862
0.0196752
0.0205561
0.0214254
0.022282
0.0231244
0.0239455
0.0247497
0.0255228
0.0262714
0.0269844
0.0276585
0.0282963
0.0288808
0.0294252
0.0299121
0.030349
0.0307326
0.0310604
0.0313393
0.0315655
0.0317495
0.0318874
0.031993
0.0320649
0.0321103
0.0321396
0.0321501
0.0321536
0.0321532
0.0321451
0.0321219
0.0320764
0.032001
0.031889
0.0317773
0.0316858
0.0316119
0.0315518
0.0315041
0.0314639
0.0314305
0.031401
0.0313731
0.0313471
0.0313212
0.0312944
0.0312662
0.0312349
0.0312041
0.0311767
0.031154
0.0311375
0.0311258
0.0311185
0.0311156
0.0311146
0.0311149
0.0311176
0.0311251
0.0311401
0.031166
0.0312045
0.0312388
0.0312641
0.0312812
0.0312916
0.0312965
0.0312979
0.0312977
0.0312955
0.0312885
0.0312737
0.0312566
0.0312447
0.0312378
0.0312346
0.0312341
0.0312348
0.0312381
0.0312467
0.0312632
0.0312885
0.03131
0.0313259
0.0313368
0.031344
0.0313485
0.0313511
0.031353
0.0313543
0.0313556
0.0313572
0.0313595
0.0313634
0.0313704
0.0313819
0.0313983
0.0314112
0.0314196
0.0314242
0.0314261
0.0314261
0.0314252
0.0314216
0.0314132
0.0314036
0.0313974
0.0313945
0.0313938
0.0313943
0.0313967
0.0314036
0.0314174
0.0314383
0.0314545
0.0314652
0.0314711
0.0314735
0.0314738
0.031473
0.0314697
0.0314617
0.0314497
0.0314415
0.0314369
0.0314351
0.031435
0.0314359
0.0314395
0.0314476
0.0314604
0.0314697
0.0314749
0.0314766
0.0314761
0.0314735
0.0314655
0.0314462
0.031394
0.0312373
0.0307422
0.0292026
0.0246211
0.0118076
-0.021257
-0.0913626
-0.145266
-0.167298
-0.175564
-0.178738
-0.179944
-0.180406
-0.18059
-0.180666
-0.180692
-0.180695
-0.180689
-0.180663
-0.180604
-0.180544
-0.180503
-0.180476
-0.180461
-0.180452
-0.180445
-0.180435
-0.180417
-0.180383
-0.180329
-0.180256
-0.180161
-0.180045
-0.17991
-0.179752
-0.179563
-0.179339
-0.179157
-0.179062
-0.179039
-0.179064
-0.179114
-0.179206
-0.179403
-0.179797
-0.180493
-0.181626
-0.183361
-0.185903
-0.189497
-0.194436
-0.201052
-0.209716
-0.22084
-0.234852
-0.252168
-0.273112
-0.297482
-0.320695
-0.340437
-0.356935
-0.370449
-0.381311
-0.389871
-0.396489
-0.40154
-0.405384
-0.408337
-0.410645
-0.412488
-0.413968
-0.415131
-0.416014
-0.416683
-0.417211
-0.417648
-0.418051
-0.418503
-0.419027
-0.419516
-0.419871
-0.420106
-0.420279
-0.420444
-0.42064
-0.420895
-0.421278
-0.421721
-0.422
-0.422082
-0.422025
-0.421925
-0.421865
-0.421947
-0.422251
-0.422828
-0.42323
-0.423342
-0.423257
-0.422853
-0.422683
-0.422705
-0.423155
-0.423815
-0.424123
-0.423986
-0.422852
-0.421451
-0.420678
-0.420358
-0.420207
-0.419968
-0.419187
-0.417282
-0.414399
-0.411481
-0.409373
-0.408071
-0.406714
-0.403798
-0.399321
-0.394749
-0.390244
-0.389421
-0.393546
-0.401819
-0.416562
-0.428813
-0.435542
-0.439055
-0.440749
-0.441535
-0.441952
-0.442269
-0.442544
-0.442818
-0.443099
-0.443428
-0.443964
-0.444647
-0.445534
-0.446573
-0.44741
-0.44798
-0.44831
-0.448464
-0.448519
-0.448519
-0.448385
-0.447994
-0.44734
-0.446407
-0.445053
-0.443329
-0.441333
-0.438949
-0.43623
-0.433359
-0.430254
-0.426924
-0.423528
-0.420018
-0.416368
-0.412667
-0.408895
-0.405028
-0.401082
-0.397068
-0.392973
-0.388788
-0.384519
-0.380176
-0.375748
-0.371224
-0.366623
-0.361946
-0.357172
-0.352311
-0.347377
-0.34235
-0.337226
-0.332025
-0.326739
-0.321351
-0.315878
-0.310325
-0.304671
-0.298925
-0.293099
-0.287174
-0.281152
-0.275049
-0.268849
-0.262548
-0.256164
-0.249684
-0.243103
-0.236435
-0.229669
-0.222804
-0.21585
-0.208795
-0.201643
-0.194398
-0.18705
-0.179609
-0.172069
-0.16443
-0.156697
-0.148863
-0.140935
-0.132911
-0.124791
-0.116581
-0.108277
-0.0999002
-0.0914901
-0.0831769
-0.0749847
-0.0669455
-0.0591085
-0.0515377
-0.0443091
-0.0375054
-0.0312091
-0.0254952
-0.0204217
-0.016023
-0.0123051
-0.00924497
-0.00679369
-0.00488314
-0.00343392
-0.00236351
-0.00159306
-0.00105217
-0.000681398
-0.000432985
-0.000270143
-0.000165593
-9.97894e-05
-5.91526e-05
-3.45099e-05
-1.98249e-05
-1.12197e-05
-6.25802e-06
-3.44156e-06
-1.86681e-06
-9.99122e-07
-5.27781e-07
-2.75257e-07
-1.41774e-07
-7.21346e-08
-3.62652e-08
-1.80195e-08
-8.85107e-09
-4.29879e-09
-2.06482e-09
-9.81043e-10
-4.61152e-10
-2.14501e-10
-9.87459e-11
-4.49981e-11
-2.03025e-11
-9.07206e-12
-4.01697e-12
-1.76322e-12
-7.68581e-13
-3.33591e-13
-1.45822e-13
-6.55819e-14
-3.10144e-14
-1.54825e-14
-8.26041e-15
-1.27993e-15
-1.4306e-16
-6.0633e-18
0
0
0
0
0
0
0
0
0
0
0
0
0
0
0
0
0
0
0
0
0
0
0
0
0
0
0
0
0
0
0
0
0
0
0
0
0
0
0
0
0
0
0
0
0
0
0
0
0
0
0
0
0
0
0
0
0
0
0
0
0
0
0
0
0
0
0
0
0
0
0
0
0
0
0
0
0
0
0
0
0
0
0
0
0
0
0
0
0
0
0
0
0
0
0
0
0
0
0
0
0
0
0
0
0
0
0
0
0
0
0
0
0
0
0
0
0
0
0
0
0
0
0
0
0
0
0
0
0
0
0
0
0
0
0
0
0
0
0
0
0
0
0
0
0
0
0
0
0
0
0
0
0
0
0
0
0
0
0
0
0
0
0
0
0
0
0
0
0
0
0
0
0
0
0
0
0
0
0
0
0
0
0
0
0
0
0
0
0
0
0
0
0
0
0
0
0
0
0
0
0
0
0
0
0
0
0
0
0
0
0
0
0
0
0
0
0
0
0
0
0
0
0
0
0
0
0
0
0
0
0
0
0
0
0
0
0
0
0
0
0
0
0
0
0
0
0
0
0
0
0
0
0
0
0
0
0
0
0
0
0
0
0
0
0
0
0
0
0
0
0
0
0
0
0
0
0
0
0
0
0
0
0
0
0
0
0
0
0
0
0
0
0
0
0
0
0
0
0
0
0
0
0
0
0
0
0
0
0
0
0
0
0
0
0
0
0
0
0
0
0
0
0
0
0
0
0
0
0
0
0
0
0
0
0
0
0
0
)
;

boundaryField
{
    front-back
    {
        type            empty;
        value           nonuniform 0();
    }
    inlet-outlet
    {
        type            calculated;
        value           uniform 0;
    }
    top-down
    {
        type            empty;
        value           nonuniform 0();
    }
}


// ************************************************************************* //
