/*--------------------------------*- C++ -*----------------------------------*\
| =========                 |                                                 |
| \\      /  F ield         | OpenFOAM: The Open Source CFD Toolbox           |
|  \\    /   O peration     | Version:  2.2.x                                 |
|   \\  /    A nd           | Web:      www.OpenFOAM.org                      |
|    \\/     M anipulation  |                                                 |
\*---------------------------------------------------------------------------*/
FoamFile
{
    version     2.0;
    format      ascii;
    class       volVectorField;
    location    "0.6";
    object      U;
}
// * * * * * * * * * * * * * * * * * * * * * * * * * * * * * * * * * * * * * //

dimensions      [0 1 -1 0 0 0 0];

internalField   nonuniform List<vector> 
14161
(
(1.50173 2.15176e-06 1.64554e-21)
(1.50173 -2.99205e-06 -3.16802e-21)
(1.5018 -1.03157e-07 2.17357e-21)
(1.50185 -9.17671e-08 -2.93037e-21)
(1.50197 3.86376e-09 2.99103e-21)
(1.50213 -1.31295e-07 -3.62745e-21)
(1.50233 -1.89601e-07 2.58853e-21)
(1.50257 -1.55891e-07 -5.62056e-22)
(1.50283 4.40652e-08 1.56079e-21)
(1.50312 -2.76005e-07 4.97901e-22)
(1.50345 -3.00814e-08 1.67066e-22)
(1.50379 -1.03385e-07 6.11095e-22)
(1.50418 1.34078e-07 -2.02213e-22)
(1.50455 -3.66177e-07 9.61898e-22)
(1.50494 8.84938e-07 5.87229e-22)
(1.5054 3.68134e-07 7.13063e-22)
(1.50583 1.45894e-06 3.16419e-22)
(1.50624 2.83015e-06 2.73272e-22)
(1.50669 5.38594e-07 3.85805e-22)
(1.50715 1.51824e-06 4.6464e-23)
(1.50758 -5.73041e-07 -2.32804e-23)
(1.50798 5.27772e-07 5.15756e-22)
(1.50839 1.56774e-06 2.82315e-22)
(1.50881 4.36324e-07 5.2148e-22)
(1.5092 2.315e-06 -2.16025e-22)
(1.50956 5.03031e-07 1.68587e-22)
(1.50989 -7.79236e-08 9.12254e-23)
(1.51021 -1.1714e-06 1.54059e-22)
(1.51049 -1.22413e-06 1.33656e-22)
(1.51074 -7.90811e-07 1.40702e-22)
(1.51094 -1.87642e-06 4.14583e-22)
(1.51112 -7.20436e-07 3.5906e-22)
(1.51129 7.5052e-06 3.72688e-22)
(1.51144 1.26129e-05 3.76274e-22)
(1.51157 2.29965e-05 4.83309e-22)
(1.51162 2.63401e-05 3.83182e-22)
(1.51162 3.03367e-05 4.41284e-22)
(1.51158 3.46783e-05 4.21682e-22)
(1.51155 4.38212e-05 4.24047e-22)
(1.51146 5.53335e-05 4.62823e-22)
(1.51139 5.87263e-05 5.45232e-22)
(1.51124 6.06552e-05 4.42591e-22)
(1.51107 6.55998e-05 3.88145e-22)
(1.5108 7.16044e-05 7.63838e-22)
(1.5104 5.38943e-05 2.37852e-22)
(1.51004 7.98622e-05 9.38126e-22)
(1.5098 6.33225e-05 8.85681e-22)
(1.50931 5.04599e-05 1.42519e-21)
(1.50884 6.51684e-05 2.06692e-21)
(1.50807 9.19527e-05 1.61264e-21)
(1.507 1.87937e-05 1.93278e-21)
(1.50582 -0.000176178 2.4714e-21)
(1.50376 -0.000801642 3.49353e-21)
(1.50377 0.000320581 4.2506e-21)
(1.50538 0.00748141 1.31623e-20)
(0.800364 0.0464717 4.82417e-20)
(0.508702 0.0501196 3.4452e-20)
(0.42781 0.0142321 1.12088e-20)
(0.419086 -0.0104994 2.3533e-21)
(0.446061 -0.0247305 -5.61776e-22)
(0.477659 -0.0331151 -5.25328e-21)
(0.512856 -0.0282781 -4.22131e-21)
(0.549479 -0.0212083 -7.70054e-22)
(0.584454 -0.0228298 4.19364e-21)
(0.616479 -0.0259437 2.30094e-21)
(0.647995 -0.0235015 5.45905e-21)
(0.672925 -0.0169407 1.18537e-20)
(0.690815 -0.0107629 1.95449e-20)
(0.700966 -0.00590999 2.37873e-20)
(0.704098 -0.00021057 3.20753e-20)
(0.704792 0.0042588 3.77437e-20)
(0.702817 0.0068274 4.44997e-20)
(0.684259 0.00802299 4.85014e-20)
(0.655741 0.0089418 5.36552e-20)
(0.627053 0.01582 5.6741e-20)
(0.577961 0.0234055 6.0096e-20)
(0.500763 0.0324513 3.92237e-20)
(0.431759 0.0381279 5.283e-20)
(0.35693 0.038872 1.56097e-20)
(0.294955 0.0448389 3.67221e-20)
(0.242906 0.0449948 -6.8657e-21)
(0.19809 0.0371841 1.37239e-20)
(0.169857 0.029348 -2.20319e-20)
(0.144142 0.0218496 -4.3597e-21)
(0.123676 0.0156401 -3.93718e-20)
(0.113263 0.0094341 -1.92493e-20)
(0.106321 0.00692154 -4.84412e-20)
(0.102862 0.0031995 -2.52772e-20)
(0.100658 0.00197193 -4.75234e-20)
(0.0982614 0.00181133 -2.07161e-20)
(0.0955127 0.00198158 -4.7283e-20)
(0.0923764 0.00237085 -2.25677e-20)
(0.0890763 0.00263352 -4.36402e-20)
(0.0862282 0.00292428 -2.09821e-20)
(0.0837324 0.00291443 -4.16309e-20)
(0.08159 0.00274357 -2.56346e-20)
(0.0795701 0.00231765 -3.32383e-20)
(0.0775954 0.00189715 -2.55128e-20)
(0.0759276 0.00171393 -1.98483e-20)
(0.0742157 0.00141259 -1.35795e-20)
(0.0725853 0.00155611 8.13882e-21)
(0.0709645 0.00122395 1.53918e-20)
(0.069933 0.00146948 4.30164e-20)
(0.0688703 0.00107949 7.23354e-20)
(0.0677466 0.00152907 9.74304e-20)
(0.0664913 0.00107223 1.44874e-19)
(0.0652415 0.00117806 1.68245e-19)
(0.0637909 0.00100685 2.49533e-19)
(0.0622926 0.00165747 2.63414e-19)
(0.0601566 0.00144408 3.59578e-19)
(0.058153 0.00212425 3.57172e-19)
(0.0552546 0.00237967 5.23421e-19)
(0.0518597 0.00326396 4.32845e-19)
(0.0471333 0.00369878 7.01827e-19)
(0.0412802 0.0044138 4.98503e-19)
(0.033925 0.00452036 9.04099e-19)
(0.0251192 0.00560754 5.20896e-19)
(0.0156897 0.0052861 1.04235e-18)
(0.00545431 0.00644565 1.95373e-18)
(1.50173 1.65624e-06 1.64585e-22)
(1.50173 -2.36125e-06 1.14437e-21)
(1.5018 8.94553e-08 4.71248e-21)
(1.50185 -2.80637e-08 8.28476e-22)
(1.50198 -4.61228e-08 1.28926e-21)
(1.50213 -1.78391e-07 4.41259e-22)
(1.50234 -2.77779e-07 1.48959e-21)
(1.50257 -1.27563e-08 -1.10512e-21)
(1.50283 1.99248e-07 9.823e-22)
(1.50313 -5.43318e-07 -7.76553e-22)
(1.50344 -1.35913e-07 -1.43441e-22)
(1.50379 -2.65914e-07 -1.69605e-21)
(1.50417 4.07113e-07 5.12539e-22)
(1.50457 -1.30675e-07 -3.20688e-21)
(1.50495 5.33318e-07 -4.28939e-21)
(1.5054 -1.61104e-07 -4.03269e-21)
(1.50584 1.62589e-06 -3.3768e-21)
(1.50624 1.51933e-06 -5.96477e-21)
(1.5067 4.62202e-07 -5.76408e-21)
(1.50715 2.15259e-06 -7.28905e-21)
(1.50759 2.73382e-06 -6.8099e-21)
(1.50799 2.16719e-06 -7.25037e-21)
(1.50841 3.2457e-06 -8.61302e-21)
(1.50882 -2.44815e-07 -9.31001e-21)
(1.5092 2.86576e-06 -7.68088e-21)
(1.50956 3.70065e-06 -7.89278e-21)
(1.5099 3.06703e-06 -8.57426e-21)
(1.51021 2.64081e-06 -8.94816e-21)
(1.51049 5.62927e-06 -9.40864e-21)
(1.51075 8.00243e-06 -8.82633e-21)
(1.51095 8.01934e-06 -9.88991e-21)
(1.51114 6.79734e-06 -9.66791e-21)
(1.51131 7.68123e-06 -9.78937e-21)
(1.51147 9.93642e-06 -1.03062e-20)
(1.51161 7.12603e-06 -1.03759e-20)
(1.51167 1.50389e-05 -1.00376e-20)
(1.51171 1.12179e-05 -1.0626e-20)
(1.5117 8.36906e-06 -1.05138e-20)
(1.51168 1.24096e-05 -1.06605e-20)
(1.51163 1.49315e-05 -1.03488e-20)
(1.51153 1.93158e-05 -1.0696e-20)
(1.51141 1.61694e-05 -1.05557e-20)
(1.51123 2.88538e-05 -1.0561e-20)
(1.51097 3.85441e-05 -1.06846e-20)
(1.5106 4.30913e-05 -1.04576e-20)
(1.51028 9.14566e-05 -1.12749e-20)
(1.50997 0.000161868 -1.006e-20)
(1.50931 0.000217603 -9.97821e-21)
(1.50828 0.000326212 -1.22024e-20)
(1.50687 0.000436585 -1.19402e-20)
(1.50541 0.000674643 -1.21917e-20)
(1.50357 0.00101509 -1.3707e-20)
(1.49839 0.00118982 -1.50083e-20)
(1.4956 0.0059377 -1.19725e-20)
(1.47753 0.0434127 1.47625e-20)
(0.733853 0.117322 5.87436e-20)
(0.48186 0.0811459 4.79028e-20)
(0.429821 0.0139104 1.68119e-20)
(0.435664 -0.0311405 3.12845e-21)
(0.475853 -0.0422441 -4.59041e-21)
(0.510395 -0.0426177 1.27031e-20)
(0.536648 -0.0531173 2.77751e-21)
(0.573848 -0.0442545 8.17155e-21)
(0.609418 -0.0381096 4.98562e-21)
(0.63619 -0.0305791 5.25417e-21)
(0.659913 -0.0244726 2.10835e-20)
(0.678955 -0.0168811 4.27143e-21)
(0.694911 -0.0111608 7.09867e-21)
(0.703848 -0.00432174 6.53859e-21)
(0.711119 0.00142494 2.81884e-20)
(0.711169 0.00568391 4.5531e-20)
(0.699397 0.00943054 6.6337e-20)
(0.683711 0.0153863 7.76575e-20)
(0.67143 0.0303776 8.8103e-20)
(0.64007 0.0499415 9.4334e-20)
(0.592499 0.0707003 8.59242e-20)
(0.549864 0.0964379 8.98445e-20)
(0.489218 0.10516 7.95299e-20)
(0.434885 0.101527 8.70668e-20)
(0.38246 0.0887464 6.50086e-20)
(0.329831 0.0668071 8.67557e-20)
(0.282135 0.0562433 4.07325e-20)
(0.243838 0.042046 9.19069e-20)
(0.210375 0.028936 2.15293e-20)
(0.179936 0.0206121 1.02701e-19)
(0.159046 0.0124133 2.84492e-20)
(0.144096 0.00893246 1.23385e-19)
(0.133382 0.00394471 7.20751e-20)
(0.125907 0.00183617 1.74553e-19)
(0.120994 0.00118975 1.1087e-19)
(0.117423 0.00115088 1.94614e-19)
(0.114586 0.00172787 1.83322e-19)
(0.112223 0.00210684 2.64582e-19)
(0.109432 0.00246147 2.38679e-19)
(0.106468 0.00284349 3.5394e-19)
(0.103761 0.00278487 2.95316e-19)
(0.100887 0.00240951 4.28807e-19)
(0.0980443 0.00190631 4.16768e-19)
(0.0952598 0.00180094 5.67537e-19)
(0.0926767 0.0014517 5.81747e-19)
(0.0901657 0.00152775 7.37457e-19)
(0.0879206 0.00126817 7.78252e-19)
(0.0855915 0.00145427 9.62623e-19)
(0.0830722 0.00115598 1.05537e-18)
(0.0808406 0.00186839 1.23095e-18)
(0.0784454 0.00138656 1.37577e-18)
(0.0762553 0.0015075 1.53465e-18)
(0.0738931 0.00138628 1.67799e-18)
(0.0717348 0.00232206 1.80957e-18)
(0.0690624 0.00222013 1.93933e-18)
(0.0664071 0.00327368 2.04921e-18)
(0.0627779 0.0039 2.11098e-18)
(0.0588345 0.00557465 2.20777e-18)
(0.0533617 0.00705711 2.23579e-18)
(0.0470665 0.0101325 2.64455e-18)
(0.0386238 0.0120699 2.49483e-18)
(0.0290765 0.016153 3.73968e-18)
(0.0182248 0.016107 2.88026e-18)
(0.00680721 0.0200454 6.13945e-18)
(1.50172 2.68151e-06 2.69269e-21)
(1.50173 -3.2466e-06 -3.77752e-21)
(1.5018 -3.44046e-07 -1.11795e-22)
(1.50185 -1.93456e-07 -5.37389e-21)
(1.50198 -2.53649e-07 -4.76577e-23)
(1.50214 -4.02707e-07 -5.69204e-21)
(1.50234 -3.62367e-07 -2.7606e-22)
(1.50257 -5.19833e-07 -7.52913e-21)
(1.50283 -4.74522e-09 2.3227e-23)
(1.50313 -6.43235e-07 -7.69431e-21)
(1.50344 6.53018e-08 1.13791e-21)
(1.50379 4.8366e-07 -6.35864e-21)
(1.50418 1.46249e-07 -6.63689e-21)
(1.50456 8.39605e-07 -5.22248e-21)
(1.50495 5.48009e-07 -4.4387e-21)
(1.50541 1.05664e-06 -5.37052e-21)
(1.50584 1.45798e-06 -6.33093e-21)
(1.50623 2.41329e-06 -7.48043e-21)
(1.50671 2.62313e-06 -5.76325e-21)
(1.50716 2.77526e-06 -5.66213e-21)
(1.50759 3.77086e-06 -9.20584e-21)
(1.50799 3.4957e-06 -1.30925e-20)
(1.50842 6.33203e-06 -1.10876e-20)
(1.50882 6.55875e-07 -1.19699e-20)
(1.5092 5.35152e-06 -1.75534e-20)
(1.50956 6.89773e-06 -1.73225e-20)
(1.50989 7.89282e-06 -1.7468e-20)
(1.51021 7.19449e-06 -1.94457e-20)
(1.5105 1.20156e-05 -1.93417e-20)
(1.51075 1.47121e-05 -1.70617e-20)
(1.51095 1.68818e-05 -1.77911e-20)
(1.51113 1.94669e-05 -1.75613e-20)
(1.51128 2.12014e-05 -1.80638e-20)
(1.51142 2.74112e-05 -1.69508e-20)
(1.51153 2.94595e-05 -1.82485e-20)
(1.51158 3.91919e-05 -1.75978e-20)
(1.51156 4.25459e-05 -1.75018e-20)
(1.51153 4.77587e-05 -1.75806e-20)
(1.51148 5.53251e-05 -1.75891e-20)
(1.5114 6.56129e-05 -1.76815e-20)
(1.51131 7.10454e-05 -1.77874e-20)
(1.51116 8.39044e-05 -1.7581e-20)
(1.51095 9.7788e-05 -1.79e-20)
(1.51071 0.000107007 -1.76906e-20)
(1.51043 0.000123231 -1.87962e-20)
(1.51028 0.00014155 -1.59419e-20)
(1.51013 0.000176581 -1.45298e-20)
(1.50994 0.00023767 -1.26564e-20)
(1.50987 0.000370382 -1.17781e-20)
(1.50986 0.000589149 -1.19152e-20)
(1.5094 0.000871476 -1.33523e-20)
(1.50898 0.00160306 -1.15449e-20)
(1.50679 0.00329 -1.14167e-20)
(1.5073 0.00947345 -5.59016e-21)
(1.49545 0.0804351 5.02717e-20)
(0.768834 0.229218 1.2478e-19)
(0.501574 0.130595 9.31659e-20)
(0.45182 0.00687111 4.01361e-20)
(0.461746 -0.0724203 3.45101e-20)
(0.518024 -0.0891368 2.60938e-20)
(0.565671 -0.0872211 1.86898e-20)
(0.601391 -0.0915772 2.18314e-20)
(0.633577 -0.0749998 2.64028e-21)
(0.66712 -0.0675436 -1.47847e-21)
(0.691741 -0.0534153 2.89637e-20)
(0.716993 -0.0469606 2.28428e-20)
(0.736281 -0.0344206 2.15101e-20)
(0.754592 -0.0216969 2.4759e-20)
(0.766361 -0.00909755 2.75344e-20)
(0.772774 0.00200925 3.43546e-20)
(0.771319 0.0119473 6.95408e-20)
(0.762478 0.0252623 8.81521e-20)
(0.738089 0.0342855 1.03324e-19)
(0.715449 0.0526645 8.85645e-20)
(0.677833 0.0754954 9.20541e-20)
(0.658835 0.112088 8.5217e-20)
(0.629274 0.143381 7.09081e-20)
(0.593345 0.16032 7.3661e-20)
(0.558753 0.162797 9.10997e-20)
(0.513916 0.156885 9.84826e-20)
(0.457505 0.147688 8.24258e-20)
(0.397196 0.137996 8.38492e-20)
(0.332257 0.118622 8.40684e-20)
(0.27619 0.0955148 5.57842e-20)
(0.229754 0.0700263 3.40594e-20)
(0.19384 0.0517248 5.05589e-20)
(0.166209 0.0382996 8.7215e-20)
(0.149681 0.0246799 8.50262e-20)
(0.139488 0.0155174 1.30417e-19)
(0.134937 0.00845436 1.30407e-19)
(0.132313 0.00576611 1.61046e-19)
(0.12932 0.00528096 1.71921e-19)
(0.126804 0.00687855 2.19761e-19)
(0.123955 0.0079948 2.51623e-19)
(0.12055 0.00851608 3.09491e-19)
(0.116987 0.00888069 3.99284e-19)
(0.113591 0.00860627 5.60123e-19)
(0.110749 0.00756662 6.02339e-19)
(0.108054 0.00739445 8.95472e-19)
(0.105421 0.00615569 9.87569e-19)
(0.102867 0.00644541 1.3721e-18)
(0.100567 0.00603884 1.51083e-18)
(0.0984677 0.00672176 1.93752e-18)
(0.0963474 0.0059975 2.18681e-18)
(0.0942128 0.00687363 2.57818e-18)
(0.0920974 0.00509504 2.84036e-18)
(0.0896645 0.00508767 3.03116e-18)
(0.0873062 0.00439241 3.14172e-18)
(0.0849794 0.00550775 3.03226e-18)
(0.0819772 0.00537534 2.72093e-18)
(0.079029 0.00702945 2.55182e-18)
(0.0746711 0.00806838 1.92775e-18)
(0.0696193 0.0109818 2.16574e-18)
(0.0620781 0.0136178 1.75948e-18)
(0.0538768 0.0196377 2.22662e-18)
(0.0426625 0.0227398 2.0016e-18)
(0.0319722 0.0286226 2.4034e-18)
(0.0198178 0.0288452 1.97227e-18)
(0.00805051 0.0350284 6.7971e-19)
(1.50172 3.59281e-06 -3.68488e-23)
(1.50173 -3.79894e-06 -1.44233e-21)
(1.5018 -8.73762e-07 3.1077e-21)
(1.50185 -2.79039e-07 1.51444e-21)
(1.50198 -4.02183e-07 2.87531e-21)
(1.50214 -4.75639e-07 -3.33666e-21)
(1.50234 -4.92482e-07 -1.61571e-21)
(1.50257 -7.29437e-07 -1.90412e-21)
(1.50283 -6.55554e-08 -4.89301e-22)
(1.50313 -9.80549e-07 -5.26058e-22)
(1.50345 -7.93161e-07 1.13509e-22)
(1.50379 4.56508e-07 -3.71873e-21)
(1.50418 -9.73565e-07 -1.24881e-21)
(1.50457 4.40234e-07 -2.66404e-21)
(1.50495 6.38171e-07 4.69842e-21)
(1.5054 2.16908e-06 6.14385e-21)
(1.50583 1.97009e-06 7.60794e-21)
(1.50626 3.24102e-06 4.45901e-21)
(1.50669 2.05647e-06 -2.26127e-21)
(1.50716 3.87139e-06 5.47014e-21)
(1.5076 4.84385e-06 8.39399e-21)
(1.50801 5.86673e-06 1.21844e-20)
(1.50844 5.9928e-06 1.16102e-20)
(1.50883 2.92268e-06 1.51199e-20)
(1.50922 7.80474e-06 1.64271e-20)
(1.50957 8.21733e-06 1.23125e-20)
(1.50992 9.85551e-06 1.41303e-20)
(1.51023 1.11219e-05 2.07807e-20)
(1.51052 1.57075e-05 1.95083e-20)
(1.51079 2.02426e-05 1.53922e-20)
(1.511 2.44155e-05 1.60959e-20)
(1.51119 2.76169e-05 1.67105e-20)
(1.51138 2.76243e-05 1.67391e-20)
(1.51154 2.88552e-05 1.63136e-20)
(1.51169 2.7816e-05 1.66094e-20)
(1.51178 3.6186e-05 1.62967e-20)
(1.51184 3.87901e-05 1.50432e-20)
(1.51187 3.6641e-05 1.56933e-20)
(1.5119 4.02929e-05 1.56399e-20)
(1.51189 4.52549e-05 1.54372e-20)
(1.51181 5.41327e-05 1.54752e-20)
(1.51168 6.57108e-05 1.54704e-20)
(1.51155 7.81366e-05 1.58898e-20)
(1.51137 0.000102835 1.54764e-20)
(1.51112 0.000143715 1.5738e-20)
(1.51074 0.000189012 1.3262e-20)
(1.51026 0.000270765 1.59245e-20)
(1.50964 0.000400639 9.14504e-21)
(1.50896 0.000526879 8.92631e-21)
(1.50817 0.000847931 9.85432e-21)
(1.50739 0.00106495 9.11828e-21)
(1.50662 0.00172183 1.06409e-20)
(1.50769 0.00364325 9.83125e-21)
(1.50487 0.0124466 1.76328e-20)
(1.50002 0.105 9.80918e-20)
(0.968165 0.358851 3.01932e-19)
(0.580155 0.174631 4.84994e-19)
(0.526602 -0.0185944 2.95138e-19)
(0.551 -0.120477 2.34959e-19)
(0.615946 -0.139892 2.54794e-19)
(0.666094 -0.127493 3.0076e-19)
(0.704577 -0.114195 2.92623e-19)
(0.73252 -0.0919861 2.34895e-19)
(0.769306 -0.0776367 2.6393e-19)
(0.789988 -0.0642787 2.09072e-19)
(0.815685 -0.0570081 2.04067e-19)
(0.826448 -0.0429495 1.52559e-19)
(0.846742 -0.0281139 1.3406e-19)
(0.849621 -0.0122499 1.08498e-19)
(0.865352 0.000435983 7.62062e-20)
(0.858439 0.013879 8.79184e-20)
(0.863062 0.0316444 9.82011e-20)
(0.834294 0.0471668 1.23134e-19)
(0.81889 0.0729671 1.22914e-19)
(0.776481 0.092852 1.33348e-19)
(0.755964 0.132233 1.27852e-19)
(0.730008 0.165055 1.24746e-19)
(0.713354 0.192293 1.44169e-19)
(0.683401 0.206148 1.41818e-19)
(0.648477 0.205012 1.3696e-19)
(0.605066 0.206545 1.82497e-19)
(0.552212 0.204613 1.83189e-19)
(0.492924 0.178913 1.9393e-19)
(0.425306 0.150315 1.32194e-19)
(0.35193 0.11545 1.6649e-19)
(0.291681 0.0828276 1.09809e-19)
(0.239669 0.0585692 6.31084e-20)
(0.207077 0.032464 8.9342e-20)
(0.185692 0.0182093 1.43487e-19)
(0.173333 0.00721865 5.35066e-20)
(0.165556 0.0048603 1.58783e-19)
(0.161282 0.00431385 1.52761e-19)
(0.157606 0.0057368 2.71328e-19)
(0.153904 0.00804316 3.73642e-19)
(0.149509 0.0084342 4.82601e-19)
(0.144628 0.00863283 6.39309e-19)
(0.139784 0.00845406 8.8927e-19)
(0.135565 0.00775625 1.11237e-18)
(0.131422 0.00713241 1.42008e-18)
(0.127188 0.00600797 1.81418e-18)
(0.123525 0.00664801 2.20464e-18)
(0.119714 0.00567425 2.79756e-18)
(0.116261 0.00634835 3.08446e-18)
(0.112851 0.00575698 3.69823e-18)
(0.109566 0.00668774 3.61488e-18)
(0.1063 0.00549952 3.96648e-18)
(0.102985 0.00626516 3.2863e-18)
(0.0995181 0.00568465 2.97343e-18)
(0.0961588 0.00712788 1.74971e-18)
(0.0920186 0.00750757 4.60814e-19)
(0.0882424 0.0102038 -3.19803e-19)
(0.0825072 0.0126532 -1.40969e-18)
(0.0765964 0.0180917 -8.47621e-19)
(0.0672623 0.0225632 -1.06868e-18)
(0.0579864 0.0309702 5.97423e-20)
(0.0452614 0.0344703 -9.57662e-19)
(0.0341462 0.0416129 -3.67519e-19)
(0.0212433 0.042056 -2.6366e-19)
(0.00947803 0.0499874 -2.47224e-18)
(1.50172 4.39288e-06 -8.27165e-21)
(1.50173 -4.27297e-06 1.08043e-20)
(1.5018 -1.10971e-06 -1.54767e-20)
(1.50185 -4.36159e-07 1.17769e-20)
(1.50198 -5.8801e-07 -3.55724e-21)
(1.50214 -5.30067e-07 2.08065e-20)
(1.50234 -9.77014e-07 1.32817e-20)
(1.50257 -7.40603e-07 1.96338e-20)
(1.50283 -2.53508e-07 2.28523e-21)
(1.50313 -9.1053e-07 3.68445e-20)
(1.50345 -9.08622e-07 -1.01656e-20)
(1.50379 5.00897e-07 1.95834e-20)
(1.50418 -1.39152e-06 1.5014e-20)
(1.50455 -5.15463e-07 2.01669e-20)
(1.50496 2.05877e-06 7.50016e-21)
(1.5054 2.72024e-06 4.16736e-21)
(1.50584 3.0087e-06 1.42081e-20)
(1.50625 5.50464e-06 1.23505e-20)
(1.50672 2.03341e-06 1.65554e-20)
(1.50717 3.03385e-06 3.64795e-21)
(1.50759 5.10445e-06 -6.09206e-22)
(1.50801 7.20053e-06 -2.44136e-21)
(1.50845 9.29294e-06 -6.63216e-21)
(1.50884 7.03959e-06 -8.86749e-21)
(1.50923 1.24347e-05 -6.02687e-21)
(1.50958 1.23733e-05 -3.5549e-21)
(1.50993 1.37897e-05 -3.63861e-21)
(1.51024 1.73685e-05 -1.03725e-20)
(1.51054 2.20556e-05 -1.07153e-20)
(1.51081 2.90883e-05 -4.64638e-21)
(1.51101 3.60435e-05 -6.38047e-21)
(1.51119 4.05671e-05 -8.27743e-21)
(1.51133 4.15292e-05 -7.30264e-21)
(1.51147 4.84131e-05 -9.9567e-21)
(1.51156 5.07747e-05 -1.16366e-20)
(1.51163 5.87723e-05 -9.33394e-21)
(1.51161 6.89795e-05 -9.59311e-21)
(1.51159 7.49101e-05 -1.02501e-20)
(1.51153 8.21311e-05 -9.46291e-21)
(1.51146 9.51352e-05 -9.94634e-21)
(1.51135 0.000112677 -1.03365e-20)
(1.51117 0.000126895 -1.02039e-20)
(1.511 0.000146096 -8.33633e-21)
(1.51081 0.000180748 -1.08988e-20)
(1.51071 0.000184677 -9.45099e-21)
(1.51081 0.000191208 -9.51723e-21)
(1.51109 0.000228807 -1.05474e-20)
(1.51185 0.000307107 -1.05666e-20)
(1.51185 0.00038876 -1.37016e-20)
(1.51214 0.000629238 -1.47281e-20)
(1.51314 0.000693524 -1.46544e-20)
(1.51394 0.00108809 -1.19405e-20)
(1.51804 0.00188587 -1.20923e-20)
(1.52 0.0104177 -1.00003e-20)
(1.51454 0.0893577 -2.77705e-19)
(1.38876 0.339279 1.16171e-18)
(0.772488 0.225125 2.00057e-18)
(0.670891 -0.0724855 1.37144e-18)
(0.718838 -0.167571 1.26112e-18)
(0.763385 -0.184033 9.01982e-19)
(0.795243 -0.170248 7.69049e-19)
(0.82214 -0.147466 6.78365e-19)
(0.834584 -0.116143 5.28545e-19)
(0.870486 -0.0996506 4.69081e-19)
(0.881721 -0.0816586 3.74176e-19)
(0.898619 -0.0660558 3.05955e-19)
(0.897795 -0.0490167 2.33994e-19)
(0.919885 -0.0338439 1.94544e-19)
(0.919517 -0.015539 1.79187e-19)
(0.937382 -0.00116072 1.57945e-19)
(0.926461 0.0163782 1.56796e-19)
(0.936931 0.0355379 1.30419e-19)
(0.914593 0.0600689 1.37232e-19)
(0.908532 0.0850964 1.52438e-19)
(0.869373 0.114388 1.56936e-19)
(0.847986 0.148963 1.05376e-19)
(0.826812 0.184139 1.13342e-19)
(0.812597 0.214513 1.43273e-19)
(0.790827 0.238609 8.08644e-20)
(0.765404 0.252279 1.00325e-19)
(0.728522 0.261869 1.51404e-19)
(0.688872 0.265997 2.11604e-19)
(0.639212 0.251354 2.60789e-19)
(0.57947 0.245061 2.47117e-19)
(0.509625 0.216216 3.21772e-19)
(0.432938 0.181279 3.12823e-19)
(0.355093 0.126371 2.54669e-19)
(0.290276 0.081331 3.38624e-19)
(0.247 0.0496682 2.5585e-19)
(0.2208 0.0259565 3.45619e-19)
(0.207608 0.0143092 3.42277e-19)
(0.200995 0.0104833 4.52456e-19)
(0.195257 0.011327 4.44452e-19)
(0.189782 0.0138013 6.4753e-19)
(0.183541 0.0155413 7.1772e-19)
(0.175831 0.0163012 1.01802e-18)
(0.168034 0.0167866 1.14115e-18)
(0.160099 0.0156632 1.64324e-18)
(0.15307 0.0156888 1.89684e-18)
(0.146852 0.0146681 2.49217e-18)
(0.14034 0.0150918 2.82187e-18)
(0.134713 0.0135003 3.55321e-18)
(0.129465 0.0140169 3.59699e-18)
(0.124558 0.0123788 4.02284e-18)
(0.119851 0.0136514 3.3084e-18)
(0.11522 0.0118839 2.82715e-18)
(0.110631 0.0124627 1.61327e-18)
(0.106322 0.0111934 -1.47392e-19)
(0.102343 0.0128033 -1.58298e-18)
(0.0975904 0.0131482 -3.3634e-18)
(0.0932592 0.0167356 -2.81352e-18)
(0.0864159 0.0200175 -2.96945e-18)
(0.079948 0.0272814 -7.40307e-19)
(0.0694422 0.0330967 4.46677e-20)
(0.0610448 0.0439466 1.04701e-19)
(0.0478325 0.0483334 2.13177e-19)
(0.0364974 0.0562587 -7.39882e-19)
(0.0230572 0.0562644 -5.09785e-19)
(0.0112064 0.0650931 1.2097e-18)
(1.50172 5.3672e-06 4.4613e-21)
(1.50173 -4.75572e-06 -4.70503e-21)
(1.5018 -1.42332e-06 8.75285e-21)
(1.50185 -6.20201e-07 -8.51787e-21)
(1.50198 -7.57368e-07 -7.43599e-21)
(1.50214 -7.14583e-07 -3.16085e-20)
(1.50234 -1.13799e-06 -4.11136e-20)
(1.50257 -8.09759e-07 -2.92116e-20)
(1.50284 -2.45591e-07 -3.56038e-20)
(1.50313 -1.40554e-06 -6.12031e-20)
(1.50345 -8.06865e-07 -2.74254e-20)
(1.5038 8.4503e-07 -5.40676e-20)
(1.50417 -2.02789e-06 -6.77051e-20)
(1.50457 -1.5059e-07 -5.36582e-20)
(1.50495 2.05933e-06 -5.46095e-20)
(1.50539 2.66352e-06 -5.02937e-20)
(1.50584 2.86577e-06 -7.59765e-20)
(1.50626 6.19306e-06 -5.37178e-20)
(1.50671 3.22534e-06 -6.57625e-20)
(1.50717 3.53554e-06 -6.9434e-20)
(1.50761 6.01057e-06 -6.54591e-20)
(1.50804 7.92731e-06 -6.30248e-20)
(1.50846 1.08781e-05 -5.83771e-20)
(1.50886 7.62722e-06 -5.84967e-20)
(1.50924 1.5301e-05 -5.19269e-20)
(1.5096 1.46115e-05 -4.5912e-20)
(1.50994 1.53443e-05 -4.51504e-20)
(1.51026 2.05645e-05 -4.66895e-20)
(1.51055 2.32162e-05 -4.67215e-20)
(1.51084 3.32027e-05 -5.04397e-20)
(1.51108 4.24295e-05 -4.95246e-20)
(1.5113 4.74406e-05 -5.18381e-20)
(1.5115 4.82822e-05 -5.09358e-20)
(1.5117 5.29147e-05 -5.24561e-20)
(1.51185 5.69229e-05 -5.20128e-20)
(1.51196 6.11894e-05 -5.16585e-20)
(1.51207 6.73776e-05 -5.04909e-20)
(1.51214 7.27195e-05 -4.99164e-20)
(1.5122 7.51256e-05 -4.99037e-20)
(1.51222 8.38207e-05 -5.01153e-20)
(1.51218 9.33757e-05 -4.994e-20)
(1.51208 9.37045e-05 -4.97069e-20)
(1.512 0.000119937 -4.81379e-20)
(1.51189 0.000165758 -4.97946e-20)
(1.51164 0.000170644 -4.78727e-20)
(1.51133 0.000234397 -5.05725e-20)
(1.51084 0.000282973 -4.08184e-20)
(1.51055 0.000288364 -3.59294e-20)
(1.51005 0.000300995 -2.90448e-20)
(1.50971 0.000301032 -2.6485e-20)
(1.50949 0.000215284 -2.42874e-20)
(1.50962 0.000230726 -2.80897e-20)
(1.51045 -2.5865e-05 -2.09354e-20)
(1.51168 0.00335192 -8.23748e-21)
(1.51304 0.0333687 1.92413e-19)
(1.53126 0.160859 9.88418e-19)
(1.1664 0.09244 3.62399e-18)
(0.793486 -0.0576994 2.90399e-18)
(0.830833 -0.14584 1.71087e-18)
(0.848397 -0.168612 1.32254e-18)
(0.877989 -0.168241 1.1343e-18)
(0.89526 -0.15245 9.72347e-19)
(0.906502 -0.130306 8.55965e-19)
(0.924669 -0.108004 6.10868e-19)
(0.934069 -0.0835204 5.33034e-19)
(0.928015 -0.0646726 4.33274e-19)
(0.943399 -0.0493447 3.22281e-19)
(0.941954 -0.0331997 2.67811e-19)
(0.967217 -0.0170527 2.35294e-19)
(0.957307 -0.00078584 1.83408e-19)
(0.96897 0.0159101 1.69271e-19)
(0.954493 0.0366243 1.32495e-19)
(0.959352 0.0626351 1.17762e-19)
(0.935135 0.0968207 2.01406e-19)
(0.907229 0.135233 1.87015e-19)
(0.884098 0.174147 1.58787e-19)
(0.87623 0.213099 1.24584e-19)
(0.863307 0.2442 7.15564e-20)
(0.845639 0.268687 4.72916e-20)
(0.836935 0.28426 8.07678e-20)
(0.813074 0.296916 7.69973e-20)
(0.79262 0.30453 1.06179e-19)
(0.757513 0.299935 1.18199e-19)
(0.718837 0.299788 2.36655e-19)
(0.679508 0.27688 2.39796e-19)
(0.618981 0.251878 2.71012e-19)
(0.540943 0.213839 2.11813e-19)
(0.455232 0.151531 2.14006e-19)
(0.372495 0.0878225 2.37034e-19)
(0.318911 0.0454431 1.12506e-19)
(0.289666 0.0207257 1.97448e-19)
(0.27156 0.0128175 2.97657e-19)
(0.257774 0.0142647 4.32818e-19)
(0.245823 0.0182972 4.46736e-19)
(0.233792 0.0195744 6.56439e-19)
(0.222061 0.0207259 8.45678e-19)
(0.209982 0.0220301 1.14369e-18)
(0.197768 0.0213218 1.47342e-18)
(0.186835 0.0216393 1.8914e-18)
(0.176467 0.0202217 2.31871e-18)
(0.166624 0.0204041 2.62776e-18)
(0.157137 0.0177136 3.03692e-18)
(0.1482 0.0172937 3.1604e-18)
(0.140611 0.0152832 3.03276e-18)
(0.133453 0.0169147 2.17306e-18)
(0.126411 0.0153636 1.33043e-18)
(0.119969 0.0162762 9.28119e-20)
(0.114177 0.0144803 -1.67165e-18)
(0.108945 0.0167382 -2.15015e-18)
(0.102881 0.0174537 -2.64172e-18)
(0.097775 0.0220882 -4.66449e-19)
(0.0904036 0.0265369 1.9837e-18)
(0.0845194 0.0352284 4.39035e-18)
(0.0749045 0.0421153 4.63069e-18)
(0.068483 0.0546099 3.2874e-18)
(0.055568 0.0607534 -1.63604e-20)
(0.0437614 0.0703906 -5.41e-19)
(0.0284526 0.0712599 -2.39604e-18)
(0.0145538 0.0810264 -1.94618e-18)
(1.50172 6.15852e-06 3.16942e-21)
(1.50173 -5.02048e-06 1.33347e-20)
(1.5018 -1.67567e-06 3.34191e-21)
(1.50185 -6.84577e-07 9.95151e-21)
(1.50198 -8.86472e-07 -3.77128e-21)
(1.50214 -8.38177e-07 4.639e-20)
(1.50234 -1.34929e-06 -1.71069e-21)
(1.50257 -1.10036e-06 3.00882e-20)
(1.50284 -7.45945e-08 1.71027e-20)
(1.50313 -1.67791e-06 6.03284e-21)
(1.50345 -1.12443e-06 1.12279e-20)
(1.5038 1.00227e-06 -8.11778e-22)
(1.50418 -2.57062e-06 3.07171e-20)
(1.50456 6.91466e-08 -6.07789e-21)
(1.50496 4.23692e-06 -2.04218e-20)
(1.50539 2.99505e-06 -2.17207e-20)
(1.50584 2.38658e-06 2.99538e-21)
(1.50627 5.89013e-06 -5.33314e-21)
(1.50674 4.49793e-06 -6.87029e-21)
(1.50719 5.03336e-06 7.69781e-21)
(1.5076 8.29602e-06 1.01756e-20)
(1.50803 9.11915e-06 9.71758e-21)
(1.50847 1.0667e-05 7.39688e-21)
(1.50888 1.05826e-05 1.5977e-20)
(1.50927 2.34959e-05 2.71951e-21)
(1.50964 2.01282e-05 -3.1104e-21)
(1.50997 2.32431e-05 -5.07371e-21)
(1.51027 2.94676e-05 -1.10057e-21)
(1.51057 2.9253e-05 -1.43823e-21)
(1.51086 4.03894e-05 -8.20912e-21)
(1.5111 4.94599e-05 -5.49466e-21)
(1.51131 5.91247e-05 9.79117e-23)
(1.51148 6.12394e-05 2.69481e-21)
(1.51164 7.08056e-05 4.5106e-21)
(1.51171 7.00904e-05 3.73705e-21)
(1.51177 8.12486e-05 6.8806e-21)
(1.51177 8.4965e-05 8.56829e-21)
(1.51176 9.85515e-05 1.06896e-20)
(1.51171 0.000110727 1.33547e-20)
(1.5116 0.000120273 1.44551e-20)
(1.51147 0.000139966 1.65945e-20)
(1.51135 0.000153308 1.4036e-20)
(1.51126 0.000166507 1.57001e-20)
(1.51124 0.00019339 1.5784e-20)
(1.51132 0.00021081 1.68773e-20)
(1.51148 0.000225987 1.80778e-20)
(1.51168 0.000227955 1.79688e-20)
(1.51207 0.000258744 1.26087e-20)
(1.51263 0.000310551 1.40382e-20)
(1.51349 0.000266647 8.94901e-21)
(1.51428 0.000227908 1.32978e-20)
(1.51591 -1.03787e-05 1.9817e-21)
(1.51655 -0.000793042 1.37241e-20)
(1.51838 -0.00109916 5.29649e-20)
(1.51632 -0.00485199 3.15152e-19)
(1.52964 -0.0539702 2.2556e-18)
(0.991412 -0.17973 5.48519e-18)
(0.731984 -0.131862 2.91167e-18)
(0.789781 -0.144633 1.87746e-18)
(0.831131 -0.159091 1.59193e-18)
(0.864756 -0.159614 1.21711e-18)
(0.883639 -0.150504 9.36797e-19)
(0.90228 -0.132158 7.5473e-19)
(0.915492 -0.10743 5.64403e-19)
(0.913533 -0.0826187 4.58674e-19)
(0.93703 -0.0625287 3.64604e-19)
(0.926803 -0.046701 2.70799e-19)
(0.944895 -0.0313879 1.8617e-19)
(0.953344 -0.0162183 1.31161e-19)
(0.959889 0.000502055 1.05975e-19)
(0.94737 0.0182713 7.27147e-20)
(0.959747 0.0407363 6.87499e-20)
(0.938029 0.0678686 1.10598e-19)
(0.934283 0.105045 1.71633e-19)
(0.892972 0.147018 1.84231e-19)
(0.894154 0.190507 1.49391e-19)
(0.862888 0.226598 1.49603e-19)
(0.869457 0.261557 1.09032e-19)
(0.851725 0.289395 8.35388e-20)
(0.85315 0.310282 1.07934e-19)
(0.838349 0.328029 8.90048e-20)
(0.83008 0.335727 1.34217e-19)
(0.812752 0.337092 1.95658e-19)
(0.794321 0.338789 2.55086e-19)
(0.77731 0.327234 3.69804e-19)
(0.744518 0.314116 3.92096e-19)
(0.708107 0.283203 4.33914e-19)
(0.653357 0.234653 4.11338e-19)
(0.566388 0.170356 5.9922e-19)
(0.489493 0.0965591 4.28679e-19)
(0.424799 0.0540506 6.05878e-19)
(0.383267 0.0382794 4.19092e-19)
(0.351437 0.0345168 6.30642e-19)
(0.323618 0.0331021 6.62306e-19)
(0.300878 0.0353119 7.14836e-19)
(0.281748 0.0365722 9.98443e-19)
(0.261853 0.0364594 1.05247e-18)
(0.242782 0.0346335 1.28174e-18)
(0.226246 0.0362751 1.65455e-18)
(0.21011 0.0349615 2.17731e-18)
(0.194014 0.0359204 2.28346e-18)
(0.179367 0.0324607 2.85215e-18)
(0.165783 0.0308001 2.61598e-18)
(0.153677 0.0266808 2.60729e-18)
(0.142479 0.0275258 1.48405e-18)
(0.132495 0.0251054 5.7511e-19)
(0.123834 0.0255695 -4.73525e-19)
(0.116485 0.0222834 -1.56102e-18)
(0.109495 0.0241275 -1.25946e-18)
(0.102189 0.0241263 -2.0739e-19)
(0.0959207 0.0290126 1.56373e-18)
(0.0874749 0.0336545 3.70735e-18)
(0.0817224 0.0433386 2.24728e-18)
(0.0716685 0.0509592 2.05529e-19)
(0.0671617 0.0657281 -4.53904e-18)
(0.0555687 0.0743275 -6.36809e-18)
(0.0453257 0.0859227 -7.81972e-18)
(0.0301668 0.0887617 -1.04487e-17)
(0.0164657 0.0983655 -1.32109e-17)
(1.50172 7.06753e-06 4.75988e-21)
(1.50173 -5.10895e-06 -3.16377e-20)
(1.5018 -1.88349e-06 1.31326e-20)
(1.50185 -9.26053e-07 -4.03167e-20)
(1.50198 -1.12641e-06 -1.58336e-21)
(1.50214 -1.02965e-06 -5.40785e-20)
(1.50234 -1.50887e-06 1.23237e-20)
(1.50257 -1.42835e-06 -3.20428e-20)
(1.50284 -2.29895e-07 -6.52243e-21)
(1.50313 -1.85556e-06 -2.24015e-20)
(1.50345 -1.06981e-06 -3.94631e-21)
(1.5038 1.12003e-06 9.72476e-22)
(1.50417 -3.24294e-06 -1.14099e-20)
(1.50456 1.05372e-06 3.46661e-20)
(1.50497 5.74707e-06 7.68562e-20)
(1.50541 1.91001e-06 7.1036e-20)
(1.50585 3.44201e-06 7.56873e-20)
(1.50626 6.37023e-06 4.81546e-20)
(1.50671 4.18913e-06 3.98061e-20)
(1.50718 6.90044e-06 6.6758e-20)
(1.50763 1.0294e-05 4.3452e-20)
(1.50807 1.35921e-05 1.6849e-20)
(1.5085 1.37433e-05 1.03585e-20)
(1.5089 1.4091e-05 7.97907e-21)
(1.50931 2.16412e-05 1.93477e-20)
(1.50969 2.46596e-05 1.65183e-20)
(1.51003 2.88859e-05 1.51193e-20)
(1.51034 3.66267e-05 1.30606e-20)