/*--------------------------------*- C++ -*----------------------------------*\
| =========                 |                                                 |
| \\      /  F ield         | OpenFOAM: The Open Source CFD Toolbox           |
|  \\    /   O peration     | Version:  2.2.x                                 |
|   \\  /    A nd           | Web:      www.OpenFOAM.org                      |
|    \\/     M anipulation  |                                                 |
\*---------------------------------------------------------------------------*/
FoamFile
{
    version     2.0;
    format      ascii;
    class       volScalarField;
    location    "0.05";
    object      By;
}
// * * * * * * * * * * * * * * * * * * * * * * * * * * * * * * * * * * * * * //

dimensions      [1 0 -2 0 0 -1 0];

internalField   nonuniform List<scalar> 
14161
(
-7.89897e-19
-4.7818e-17
-6.91596e-17
-8.43403e-17
5.64951e-17
-5.1226e-17
-4.56682e-17
6.70768e-17
3.28851e-16
1.97665e-17
1.42813e-16
-7.61676e-17
-7.49317e-17
2.68177e-16
1.91191e-16
4.57953e-17
9.65523e-17
-1.47251e-16
-1.80567e-16
-6.43032e-17
-2.19747e-16
-4.35036e-16
-3.81631e-16
-1.15912e-16
2.64673e-16
6.4372e-17
-1.57988e-16
-7.07072e-17
7.51133e-17
2.53825e-16
1.35678e-16
-1.02636e-16
-2.52658e-16
1.89469e-16
3.49868e-16
5.50276e-16
1.07309e-16
-3.76754e-16
-2.17992e-16
-1.27817e-16
-3.41322e-16
-4.52585e-16
-4.36699e-16
-2.75506e-16
-2.35743e-16
1.37394e-17
-2.92267e-16
-1.87269e-15
-8.53178e-15
-2.72441e-14
-8.22231e-14
-2.28741e-13
-6.10967e-13
-1.5591e-12
-3.82209e-12
-9.00279e-12
-2.0431e-11
-4.45519e-11
-9.32739e-11
-1.86799e-10
-3.57294e-10
-6.47988e-10
-1.10524e-09
-1.74509e-09
-2.48396e-09
-2.99593e-09
-2.4375e-09
7.80481e-10
9.50454e-09
2.82353e-08
6.31629e-08
1.22273e-07
2.14685e-07
3.49102e-07
5.30943e-07
7.58571e-07
1.01851e-06
1.28589e-06
1.50104e-06
1.59754e-06
1.30136e-06
4.24949e-07
-1.77854e-06
-6.1508e-06
-1.39061e-05
-2.8197e-05
-4.83577e-05
-8.70315e-05
-0.000135541
-0.000225519
-0.00033052
-0.000512185
-0.000698355
-0.00107851
-0.00137043
-0.00189045
-0.00284786
-0.00260168
-0.00571729
-0.00411875
-0.00698791
-0.0133254
-0.0766283
0.0141
0.0650428
0.0775572
0.0408382
0.021421
0.00675967
0.00819254
0.0117376
0.0144314
0.0173698
0.0188648
0.0215724
0.0236449
0.025517
0.0225274
0.0219273
-1.95494e-17
-9.30651e-17
-1.10165e-16
-4.29846e-17
-9.39728e-17
2.87209e-16
1.31544e-16
1.11785e-16
9.51479e-17
3.78068e-17
2.28167e-16
-8.15831e-18
-4.94091e-16
-1.79699e-16
-2.95463e-16
-2.86413e-16
4.54228e-17
4.13579e-16
2.48059e-16
1.7055e-16
2.81065e-16
3.47097e-16
3.98483e-16
3.19489e-16
-5.21792e-17
-2.85937e-16
-6.61693e-16
-2.47138e-16
-7.8322e-17
4.27598e-18
-8.02083e-17
-3.34268e-16
-4.65489e-16
-2.37617e-16
4.13335e-16
5.58004e-16
9.20835e-17
9.39532e-17
-6.32085e-17
-1.38928e-16
-1.22174e-16
-1.33195e-16
-3.96868e-16
-3.93637e-16
-2.74369e-16
-1.03601e-16
6.18062e-16
1.76197e-15
5.42922e-15
1.69619e-14
5.3366e-14
1.50552e-13
4.11194e-13
1.06172e-12
2.6299e-12
6.26398e-12
1.42261e-11
3.16374e-11
6.69447e-11
1.34906e-10
2.60127e-10
4.75964e-10
8.16114e-10
1.29278e-09
1.83565e-09
2.15951e-09
1.52543e-09
-1.5326e-09
-9.64589e-09
-2.72161e-08
-6.06721e-08
-1.18727e-07
-2.11636e-07
-3.50629e-07
-5.45938e-07
-8.05137e-07
-1.12803e-06
-1.50504e-06
-1.90891e-06
-2.26223e-06
-2.454e-06
-2.09211e-06
-1.13778e-06
2.05866e-06
7.26688e-06
1.83725e-05
3.56875e-05
6.46164e-05
0.00011315
0.000182106
0.000286279
0.000455227
0.000609339
0.000998761
0.00119889
0.00183576
0.00227042
0.00251608
0.00223245
0.0040652
0.00158328
-0.00225225
-0.0491823
0.0238837
0.0772504
0.0838165
0.0586338
0.0433212
0.0393885
0.0414785
0.0477236
0.0517668
0.0566756
0.0598029
0.0666134
0.0679935
0.0793101
0.0717049
0.0660552
-6.14007e-17
-2.48447e-16
-1.04943e-18
2.61541e-18
5.09349e-17
-1.952e-17
3.15852e-17
2.00276e-16
4.72266e-16
2.6355e-16
1.84528e-16
-2.03996e-16
-4.43873e-16
1.3242e-16
8.73494e-17
2.98403e-16
2.49398e-16
4.85091e-17
-2.91063e-16
-1.00512e-16
-9.51196e-17
-6.63766e-17
8.48267e-18
5.45944e-17
-1.49424e-16
-4.35105e-16
-2.09796e-16
-2.93627e-16
-2.96853e-16
-1.37827e-16
6.43885e-17
-1.97107e-16
-4.13612e-16
2.70143e-16
9.05177e-16
6.33281e-16
1.60783e-16
1.11541e-16
-3.6794e-16
-3.33927e-16
-1.46395e-16
-2.78614e-16
-2.9097e-16
-2.35431e-16
-1.36084e-16
-2.45963e-16
-1.5947e-16
-1.00244e-15
-3.00838e-15
-9.30996e-15
-2.65153e-14
-7.54807e-14
-2.02216e-13
-5.23473e-13
-1.32426e-12
-3.18618e-12
-7.74305e-12
-1.57583e-11
-3.61702e-11
-7.48517e-11
-1.51002e-10
-2.91126e-10
-5.27534e-10
-9.01092e-10
-1.4249e-09
-2.02087e-09
-2.4091e-09
-1.86444e-09
1.00004e-09
8.52133e-09
2.42542e-08
5.27367e-08
9.86818e-08
1.65734e-07
2.55274e-07
3.63371e-07
4.86754e-07
6.04593e-07
6.75507e-07
6.51017e-07
3.76992e-07
-2.28807e-07
-1.83221e-06
-4.46086e-06
-9.55427e-06
-1.87824e-05
-3.19574e-05
-5.70748e-05
-8.68696e-05
-0.000155253
-0.000212774
-0.000374331
-0.000471226
-0.000801188
-0.000952861
-0.00145863
-0.00172043
-0.00164363
-0.00373048
-0.000535757
-0.00671995
0.000495893
-0.0248981
0.0487754
0.11652
0.115422
0.0938546
0.0772899
0.0742137
0.0762152
0.0801394
0.0872022
0.0926617
0.100188
0.107837
0.111683
0.127591
0.116639
0.117885
-9.71769e-18
-1.1103e-16
-1.55853e-16
9.45806e-18
1.54179e-16
4.23447e-17
6.77996e-17
2.41874e-16
4.19716e-16
2.41201e-16
4.37394e-17
-3.3167e-16
-3.10092e-16
-7.45017e-17
2.63615e-16
1.93742e-16
1.7732e-16
5.59361e-17
1.9033e-16
2.73548e-16
-2.75642e-17
-4.76587e-16
-3.19212e-16
2.76946e-17
7.20439e-17
8.04843e-17
1.78445e-16
2.56724e-17
4.60158e-17
-3.64112e-16
-7.24769e-16
-3.0667e-16
-9.43666e-18
3.53781e-16
2.2132e-16
7.09841e-17
-1.18362e-16
-5.4257e-16
-6.46081e-16
-3.30279e-16
1.87153e-16
2.3119e-16
2.76439e-16
1.69436e-16
-1.60719e-17
-1.92829e-16
-2.9577e-16
-2.08433e-16
-2.46444e-16
-8.09603e-16
-3.64295e-15
-9.7308e-15
-2.9185e-14
-7.34356e-14
-1.69856e-13
-4.19218e-13
-6.26686e-13
-1.85673e-12
-3.48336e-12
-6.05208e-12
-4.53478e-12
-1.42918e-11
-2.34058e-11
-5.5814e-11
-1.61416e-10
-4.55272e-10
-1.22899e-09
-3.13797e-09
-7.50323e-09
-1.65959e-08
-3.40507e-08
-6.49506e-08
-1.15803e-07
-1.94761e-07
-3.10474e-07
-4.77287e-07
-7.14886e-07
-1.03416e-06
-1.47229e-06
-1.96831e-06
-2.75113e-06
-3.1964e-06
-4.40082e-06
-4.02636e-06
-4.92922e-06
-2.74089e-06
2.89116e-06
7.07424e-06
2.60836e-05
4.25299e-05
0.000103972
0.000142924
0.000261815
0.000384383
0.00055343
0.00088281
0.000721866
0.00123773
0.000778822
0.00259985
-0.000973771
-0.000273672
-0.015854
0.0707957
0.141935
0.144418
0.124872
0.105016
0.103143
0.108003
0.113817
0.123684
0.130542
0.143639
0.148516
0.155196
0.169456
0.161555
0.173514
6.0309e-17
-6.92893e-17
-1.43195e-16
-1.15777e-16
2.35463e-16
1.60057e-17
5.50564e-17
3.56451e-16
5.3651e-16
2.48957e-16
1.18096e-16
-2.5893e-16
-3.72136e-16
1.92133e-16
2.00504e-16
-1.7498e-16
1.88553e-17
2.15695e-16
3.30169e-16
-1.03794e-16
-3.67007e-16
1.16604e-18
6.05532e-16
6.87773e-16
-1.1093e-17
-1.7934e-16
-3.07715e-16
-4.89783e-16
-3.77499e-16
-6.50015e-16
-5.69501e-16
-1.6079e-16
-8.20664e-17
3.84758e-16
6.41248e-16
2.39287e-16
-3.66475e-16
-4.88894e-16
-5.96507e-16
-6.13029e-16
-5.92109e-16
-6.68386e-16
-6.39797e-16
-5.9141e-16
-9.28701e-16
-8.11622e-16
-6.82918e-16
-6.33586e-16
-4.19391e-16
9.0873e-16
6.85786e-15
2.64478e-14
8.02748e-14
2.20289e-13
5.74389e-13
1.35186e-12
3.30113e-12
5.48986e-12
1.24288e-11
2.305e-11
3.8937e-11
5.77036e-11
6.98324e-11
4.14085e-11
-1.06127e-10
-5.23443e-10
-1.48795e-09
-3.4296e-09
-6.91186e-09
-1.2705e-08
-2.1859e-08
-3.60935e-08
-5.83111e-08
-9.29598e-08
-1.44977e-07
-2.13624e-07
-3.12384e-07
-4.44955e-07
-6.40145e-07
-8.84673e-07
-1.25606e-06
-1.7362e-06
-2.63229e-06
-3.64159e-06
-5.38988e-06
-9.33901e-06
-1.23038e-05
-2.20039e-05
-3.15119e-05
-5.57455e-05
-7.03475e-05
-0.000150521
-0.000161188
-0.000355742
-0.000342257
-0.000535166
-0.00105607
-0.000285802
-0.00242441
0.00170218
-0.00447791
-0.00591832
0.00974199
0.109471
0.166124
0.180331
0.168265
0.137919
0.13285
0.1351
0.145264
0.158587
0.167848
0.185565
0.189858
0.195713
0.211935
0.205478
0.229024
-7.74233e-17
5.09109e-17
-1.09433e-16
-7.77979e-17
6.02778e-17
1.02852e-16
1.94975e-16
5.5842e-16
6.06328e-16
2.51409e-16
8.48582e-17
-2.0846e-16
-1.16642e-16
2.68035e-16
3.34601e-16
4.47522e-16
3.3419e-16
-3.11025e-16
-3.48619e-16
-4.4689e-16
-3.41786e-16
-3.76277e-16
-3.08058e-16
-1.13171e-16
-4.55198e-17
5.15199e-17
7.83614e-16
7.66596e-16
7.21356e-17
-4.65249e-16
-5.03783e-16
-4.21172e-16
-4.45977e-16
6.2494e-18
5.37597e-16
4.20882e-16
-2.08358e-16
-7.66206e-16
-6.70157e-16
-5.7729e-16
-7.27793e-16
-5.99061e-16
-4.70832e-16
-6.82625e-16
-6.79501e-16
-7.64146e-16
-7.36915e-16
-1.15658e-15
-2.63912e-15
-7.60542e-15
-2.44209e-14
-7.1492e-14
-1.92619e-13
-5.06871e-13
-1.33011e-12
-3.36331e-12
-7.73087e-12
-1.71354e-11
-3.7546e-11
-7.2852e-11
-1.48314e-10
-2.83347e-10
-5.22159e-10
-9.18029e-10
-1.54079e-09
-2.47069e-09
-3.79251e-09
-5.6129e-09
-8.28164e-09
-1.23125e-08
-1.83819e-08
-2.7881e-08
-4.41078e-08
-7.31015e-08
-1.29691e-07
-2.33849e-07
-4.06212e-07
-6.87546e-07
-1.13712e-06
-1.76707e-06
-2.87606e-06
-4.06145e-06
-6.54255e-06
-8.56919e-06
-1.31525e-05
-1.80699e-05
-2.09039e-05
-3.25154e-05
-3.96818e-05
-5.30941e-05
-3.04971e-05
-8.61802e-05
-2.56254e-05
-4.50148e-05
-3.008e-05
0.000121927
-0.000338799
0.000438456
-0.000522037
0.00169463
-0.00248518
-0.0050871
0.039798
0.139179
0.197299
0.204736
0.197122
0.167776
0.161285
0.166198
0.179232
0.1952
0.20532
0.226907
0.23203
0.235433
0.252587
0.248984
0.280091
3.27933e-18
-5.90543e-17
-1.39149e-16
-1.8459e-16
1.46477e-16
2.65776e-16
3.46513e-16
5.55824e-16
5.46651e-16
2.8406e-16
8.98313e-17
-2.45656e-16
-1.43089e-16
2.85455e-16
1.82953e-16
-2.50852e-16
-1.23007e-16
1.78141e-17
6.16438e-17
-4.12257e-17
-2.6058e-16
-1.85343e-16
-1.03937e-16
-1.12501e-16
1.65193e-17
1.19271e-17
9.14663e-17
4.96765e-17
-4.02697e-16
-6.71459e-16
-2.88612e-16
2.38499e-16
1.22899e-16
2.42675e-17
3.01117e-16
8.03343e-17
-2.28055e-16
-4.84648e-16
-5.24014e-16
-7.21861e-17
1.8528e-17
3.06551e-16
2.09245e-16
-2.59081e-16
-6.08347e-16
-7.15232e-16
-8.18045e-16
-6.95077e-16
-3.57946e-16
3.44103e-15
1.13732e-14
3.86845e-14
1.09765e-13
2.96345e-13
7.55879e-13
1.84017e-12
4.2924e-12
9.44627e-12
1.98317e-11
3.9281e-11
7.28763e-11
1.245e-10
1.89165e-10
2.32249e-10
1.49232e-10
-2.80497e-10
-1.63773e-09
-5.00488e-09
-1.19972e-08
-2.54845e-08
-5.01817e-08
-9.29401e-08
-1.62209e-07
-2.6634e-07
-4.11373e-07
-6.15678e-07
-8.92132e-07
-1.25821e-06
-1.7451e-06
-2.34172e-06
-3.18368e-06
-3.90924e-06
-5.12996e-06
-6.21123e-06
-7.06556e-06
-9.44182e-06
-8.93709e-06
-1.31553e-05
-1.3534e-05
-1.27583e-05
-7.04642e-06
-3.21527e-05
-1.84721e-06
-3.3027e-05
-7.97666e-05
0.000106915
-0.000490355
0.000959926
-0.0019254
0.00113407
0.00030427
-0.00296747
0.0861066
0.188459
0.220461
0.228203
0.226635
0.201173
0.192254
0.194523
0.210214
0.227475
0.241076
0.266701
0.274992
0.274704
0.292288
0.290368
0.32675
1.63834e-16
-9.76379e-17
-1.66656e-16
-1.22651e-16
2.51777e-17
1.77336e-16
5.20916e-16
6.41503e-16
6.7259e-16
4.87515e-16
-1.20582e-16
-1.82239e-16
-9.47667e-17
2.77328e-16
3.82267e-16
1.68532e-16
1.15071e-16
3.20753e-17
-3.28886e-16
-4.30751e-16
-4.64542e-16
-3.11653e-16
-1.09125e-16
-3.276e-17
8.85274e-18
1.77773e-17
-1.83629e-16
-2.42642e-16
-3.24194e-16
-3.56803e-16
3.12445e-16
5.82698e-16
3.02172e-16
-3.69953e-17
-1.94023e-16
-1.47742e-16
-1.78059e-16
-5.70281e-16
-5.31968e-16
-5.98686e-16
-6.4023e-16
-6.76651e-16
-9.07711e-16
-8.54492e-16
-6.72892e-16
-5.80535e-16
-6.0259e-16
-1.1325e-15
-3.40329e-15
-9.08128e-15
-2.70283e-14
-7.23123e-14
-1.95539e-13
-5.05504e-13
-1.26772e-12
-3.0642e-12
-7.18249e-12
-1.62764e-11
-3.56595e-11
-7.54709e-11
-1.54297e-10
-3.04955e-10
-5.78881e-10
-1.05659e-09
-1.84848e-09
-3.12182e-09
-4.99527e-09
-7.70155e-09
-1.1514e-08
-1.63894e-08
-2.26032e-08
-3.17195e-08
-4.7489e-08
-8.03854e-08
-1.42845e-07
-2.57628e-07
-4.58892e-07
-7.89578e-07
-1.32689e-06
-2.12329e-06
-3.40281e-06
-5.2106e-06
-8.05169e-06
-1.16014e-05
-1.7057e-05
-2.58922e-05
-3.15275e-05
-5.19045e-05
-5.72558e-05
-8.69634e-05
-0.00011758
-0.00014287
-0.00016455
-0.000182654
-0.000383773
-0.000183125
-0.000596371
0.000652604
-0.00142901
-0.00182262
0.00201667
-0.00604931
0.107505
0.242535
0.258371
0.254814
0.256476
0.229943
0.223034
0.22495
0.24249
0.261705
0.278595
0.305396
0.316871
0.312276
0.329585
0.328843
0.370376
-2.82425e-16
6.57468e-17
-1.11297e-16
-8.95244e-17
8.54131e-17
4.14577e-16
6.53937e-16
5.97331e-16
6.35642e-16
5.42036e-16
-1.10865e-16
-3.38009e-16
3.80142e-17
-1.38773e-17
-3.22577e-17
-7.21477e-17
-7.77464e-17
-3.93621e-17
-1.95655e-16
-2.87791e-16
-4.36799e-16
-1.46503e-16
-6.52758e-17
-5.27096e-16
-4.26148e-16
-5.3797e-17
9.79088e-17
1.42172e-16
4.83929e-17
2.80351e-16
2.702e-16
4.66098e-16
6.12792e-16
3.55876e-16
-3.57263e-16
-3.99864e-16
-4.28233e-16
-5.53063e-16
-6.07777e-16
-8.15782e-16
-7.09734e-16
-5.75311e-16
-6.5016e-16
-3.95369e-16
-3.84525e-16
-3.22354e-16
-4.19163e-16
-4.2814e-17
7.5378e-16
1.77426e-15
6.98984e-15
1.84952e-14
5.28966e-14
1.3696e-13
3.40655e-13
8.04137e-13
1.80124e-12
3.80064e-12
7.4762e-12
1.33931e-11
2.06613e-11
2.32753e-11
4.82373e-13
-1.04962e-10
-4.21429e-10
-1.16089e-09
-3.26899e-09
-7.48941e-09
-1.59585e-08
-3.25622e-08
-6.31641e-08
-1.15493e-07
-1.98737e-07
-3.25822e-07
-5.16578e-07
-7.90904e-07
-1.17726e-06
-1.70942e-06
-2.44428e-06
-3.40491e-06
-4.70921e-06
-6.28255e-06
-8.31138e-06
-1.07522e-05
-1.29564e-05
-1.67639e-05
-1.81867e-05
-2.45941e-05
-2.53131e-05
-2.42176e-05
-3.14229e-05
-1.10097e-05
-2.32614e-05
8.48521e-05
-0.000104555
0.000392032
-0.000437147
0.00122711
-0.000451275
-0.0027222
0.00828532
0.00231161
0.151956
0.305365
0.294996
0.282704
0.280403
0.255747
0.253071
0.254439
0.275247
0.294919
0.31331
0.341481
0.357162
0.350156
0.366666
0.365539
0.40949
3.90035e-17
7.50175e-17
-1.81727e-16
-2.09983e-16
-2.48344e-17
4.73107e-16
7.5292e-16
8.59443e-16
7.24973e-16
4.02521e-16
1.32467e-16
-5.37692e-18
-5.89778e-17
-2.00662e-16
-2.14734e-17
1.04302e-16
1.16193e-16
-2.68398e-16
-4.40732e-16
-4.02733e-16
-4.93687e-16
-4.44498e-16
-2.86314e-16
-4.2327e-16
-3.83982e-16
-9.03917e-17
-4.63835e-17
-4.9538e-17
-1.36736e-16
9.92754e-17
4.13225e-16
7.72986e-16
7.60313e-16
5.34843e-16
2.62196e-16
-2.82396e-16
-2.71536e-16
-2.91163e-16
-2.73508e-16
-4.91185e-16
-5.69149e-16
-6.06155e-16
-4.66913e-16
-5.5769e-16
-6.29682e-16
-5.13599e-16
-6.10209e-16
-1.15835e-15
-3.32948e-15
-8.53723e-15
-2.3833e-14
-6.04678e-14
-1.57354e-13
-3.9124e-13
-9.61902e-13
-2.29394e-12
-5.34681e-12
-1.21234e-11
-2.67673e-11
-5.74683e-11
-1.19956e-10
-2.43195e-10
-4.78066e-10
-9.11114e-10
-1.69035e-09
-3.15079e-09
-5.35649e-09
-9.13089e-09
-1.48472e-08
-2.37354e-08
-3.80071e-08
-6.15624e-08
-1.01778e-07
-1.69238e-07
-2.82402e-07
-4.68158e-07
-7.66448e-07
-1.23131e-06
-1.95163e-06
-3.00635e-06
-4.59117e-06
-6.82188e-06
-1.00386e-05
-1.47053e-05
-2.01278e-05
-3.04248e-05
-3.85996e-05
-5.71813e-05
-7.27388e-05
-8.73214e-05
-0.000147317
-0.000118059
-0.000254343
-0.000183306
-0.000439652
-3.60022e-05
-0.000717027
-0.00054908
1.39452e-05
-0.00376408
0.00969019
-0.00209556
0.178384
0.355633
0.331681
0.31919
0.304393
0.283828
0.283658
0.287811
0.31174
0.328282
0.349505
0.377302
0.393886
0.384595
0.401063
0.401381
0.445808
-6.4577e-17
4.63409e-17
-4.48291e-17
3.08106e-17
4.10987e-16
3.07488e-16
6.7928e-16
7.28441e-16
7.49629e-16
4.53109e-16
-5.02663e-17
2.0122e-17
-2.03028e-16
-5.27208e-16
-2.446e-16
-4.34898e-18
-3.39545e-16
-3.88424e-16
2.97382e-18
-2.1887e-17
-4.79549e-16
-4.69535e-16
-4.39969e-16
-4.43527e-16
-5.91402e-16
-2.09617e-16
4.29188e-17
9.53049e-17
1.65822e-16
3.73196e-16
4.71472e-16
3.9009e-16
1.00311e-16
-4.47138e-16
-2.49729e-16
5.12758e-17
-2.84458e-17
-1.3685e-16
1.7835e-16
3.4113e-17
-3.2997e-16
-4.55826e-16
-3.27567e-16
-5.65356e-16
-3.27265e-16
-1.77389e-16
-2.32405e-16
-3.95161e-16
-4.94322e-16
-9.0111e-16
-1.92021e-15
-4.06267e-15
-1.09534e-14
-2.91499e-14
-8.35998e-14
-2.38766e-13
-6.7781e-13
-1.88619e-12
-5.11526e-12
-1.34888e-11
-3.44807e-11
-8.39935e-11
-1.93512e-10
-4.35353e-10
-9.43401e-10
-2.2023e-09
-4.65106e-09
-9.53551e-09
-1.93133e-08
-3.73202e-08
-6.86455e-08
-1.21035e-07
-2.06813e-07
-3.42691e-07
-5.50964e-07
-8.63257e-07
-1.32347e-06
-1.98283e-06
-2.91819e-06
-4.20552e-06
-5.98342e-06
-8.36741e-06
-1.14378e-05
-1.5748e-05
-2.03491e-05
-2.71162e-05
-3.24556e-05
-4.17135e-05
-5.246e-05
-5.22321e-05
-7.94707e-05
-4.47315e-05
-0.000104736
1.59954e-05
-0.000156631
0.000334268
-0.000315136
-0.00081128
0.00224927
-0.00246237
0.0121763
0.0205163
0.247767
0.403931
0.372739
0.352643
0.320488
0.308193
0.311008
0.319276
0.347196
0.362704
0.384254
0.4123
0.426416
0.417183
0.435188
0.435631
0.480345
-4.88005e-17
1.08748e-17
-3.89246e-17
1.19957e-16
6.19065e-16
2.3954e-16
4.68824e-16
8.19534e-16
6.02629e-16
4.70141e-16
2.92066e-16
-1.85469e-16
-2.1594e-16
-2.43619e-16
-1.46391e-16
-1.98753e-16
-8.81896e-17
-3.23127e-16
-3.07572e-16
-4.18377e-16
-5.31382e-16
-3.71266e-16
-4.6133e-16
-4.43322e-16
-4.4369e-16
-2.34258e-16
5.44337e-18
3.91693e-17
1.60315e-16
2.5512e-16
1.73326e-16
1.76293e-16
5.2108e-17
-1.00293e-16
-3.10598e-16
3.87814e-18
3.51023e-16
5.87694e-16
2.65015e-16
2.97365e-16
2.7614e-16
3.67689e-16
3.44633e-16
3.68913e-16
1.48037e-16
8.5898e-17
-1.69994e-16
-9.93244e-16
-2.8816e-15
-7.27293e-15
-1.90141e-14
-4.81192e-14
-1.20696e-13
-2.98863e-13
-7.25954e-13
-1.73306e-12
-4.04281e-12
-9.23774e-12
-2.06367e-11
-4.5039e-11
-9.60448e-11
-2.01247e-10
-4.18771e-10
-8.55441e-10
-1.74191e-09
-3.19538e-09
-5.77613e-09
-1.04123e-08
-1.85134e-08
-3.23972e-08
-5.59432e-08
-9.58788e-08
-1.62032e-07
-2.69774e-07
-4.41746e-07
-7.11086e-07
-1.12679e-06
-1.75218e-06
-2.68668e-06
-4.04812e-06
-6.02293e-06
-8.85822e-06
-1.27e-05
-1.83417e-05
-2.49545e-05
-3.53934e-05
-4.7329e-05
-6.27619e-05
-8.85983e-05
-9.37418e-05
-0.000163367
-0.000129233
-0.000261657
-0.0001671
-0.000387655
-0.000332652
-0.000286108
-0.00142397
0.00238551
-0.00311638
0.0100559
0.0440032
0.292268
0.433405
0.408675
0.383192
0.34457
0.338499
0.3418
0.352921
0.383625
0.398055
0.418442
0.447311
0.455167
0.448332
0.466341
0.469328
0.513237
1.34205e-16
-9.59933e-17
-5.00824e-17
7.32736e-17
6.1559e-16
6.45645e-16
5.33769e-16
6.22661e-16
4.34289e-16
5.51843e-16
3.36447e-16
-2.18307e-16
-5.59931e-16
-5.33927e-16
-2.56549e-16
7.42361e-17
1.59662e-16
-5.76974e-17
-4.77829e-16
-3.63773e-16
-5.31367e-16
-2.86212e-16
-3.56384e-16
-3.56062e-16
-2.93319e-16
-3.33637e-16
-6.06693e-17
1.89248e-16
1.64314e-16
2.32623e-17
-4.30201e-17
1.0262e-16
2.19194e-16
2.7061e-16
6.96986e-18
-5.07366e-17
1.08761e-16
3.04119e-16
2.35617e-16
4.76067e-16
2.24516e-16
5.81505e-17
1.57137e-17
3.06784e-17
8.62964e-18
-2.84791e-16
-4.16388e-16
-4.10481e-16
-1.55666e-15
-3.82739e-15
-7.60652e-15
-2.09765e-14
-5.12477e-14
-1.34753e-13
-3.349e-13
-8.38956e-13
-2.03693e-12
-4.88643e-12
-1.1451e-11
-2.62987e-11
-5.8957e-11
-1.29023e-10
-2.80227e-10
-6.07038e-10
-1.29051e-09
-2.67457e-09
-5.55844e-09
-1.10207e-08
-2.10886e-08
-3.91634e-08
-7.07441e-08
-1.2437e-07
-2.12855e-07
-3.55782e-07
-5.81565e-07
-9.29691e-07
-1.45552e-06
-2.23274e-06
-3.36246e-06
-4.97215e-06
-7.20131e-06
-1.03275e-05
-1.43975e-05
-2.02119e-05
-2.70835e-05
-3.67314e-05
-4.7549e-05
-5.91766e-05
-8.20189e-05
-8.49241e-05
-0.000130195
-0.000105615
-0.000163357
-0.000116292
-0.000142006
-0.000521003
0.000517077
-0.000831274
0.00344279
-0.00229548
0.00330682
0.120647
0.35334
0.464395
0.445202
0.415599
0.366884
0.360543
0.364755
0.384363
0.417236
0.430945
0.451945
0.483086
0.481834
0.478245
0.495535
0.501487
0.545258
-1.62135e-16
7.61986e-17
2.58034e-17
3.43118e-16
6.75935e-16
5.18785e-16
3.71372e-16
5.07812e-16
4.60285e-16
3.57066e-16
3.90255e-16
-2.51913e-16
-4.34863e-16
-3.10565e-16
-1.31314e-16
-4.11708e-17
1.76676e-16
9.16335e-17
-2.32874e-16
-6.89062e-16
-9.37855e-16
-6.85722e-16
-3.82352e-16
-1.27536e-16
2.43878e-17
-2.86436e-17
1.33926e-16
2.05048e-16
1.83611e-16
8.82945e-17
-1.43449e-16
-4.30337e-16
1.70177e-16
2.10604e-16
1.76146e-16
7.09666e-18
1.21376e-16
1.64534e-16
8.03593e-17
3.09215e-17
2.7244e-16
1.58853e-16
3.38269e-16
3.13499e-16
3.80676e-16
3.04894e-16
2.33014e-17
-4.68237e-16
-2.36506e-15
-6.99945e-15
-1.56416e-14
-3.90819e-14
-9.62953e-14
-2.41588e-13
-5.92391e-13
-1.43519e-12
-3.41886e-12
-7.9758e-12
-1.82965e-11
-4.12384e-11
-9.10966e-11
-1.9766e-10
-4.17152e-10
-8.47006e-10
-1.63357e-09
-3.1318e-09
-5.91262e-09
-1.09989e-08
-2.01769e-08
-3.65312e-08
-6.51197e-08
-1.13811e-07
-1.95225e-07
-3.28544e-07
-5.42368e-07
-8.77866e-07
-1.39454e-06
-2.17392e-06
-3.32829e-06
-5.01332e-06
-7.40968e-06
-1.0851e-05
-1.54713e-05
-2.21567e-05
-3.0774e-05
-4.24668e-05
-5.84265e-05
-7.3561e-05
-0.00010717
-0.000115085
-0.000178848
-0.000180988
-0.000228525
-0.000353589
-0.000183415
-0.000657527
0.000631837
-0.00142148
-0.000127435
-0.00131345
0.00239786
0.181133
0.423529
0.496158
0.469418
0.449279
0.39488
0.387761
0.389744
0.414137
0.447332
0.462269
0.48438
0.516307
0.507818
0.508141
0.523178
0.533295
0.577631
-9.07216e-17
1.28872e-16
1.20559e-16
3.36381e-16
5.3009e-16
4.99763e-16
5.03655e-16
5.7952e-16
3.11369e-16
4.09436e-16
3.30694e-16
-3.28456e-16
-4.40844e-16
-4.96202e-16
-2.42231e-16
4.48561e-16
3.59478e-16
3.14185e-16
7.64121e-17
-4.55997e-16
-6.06423e-16
-6.43883e-16
-3.90329e-16
-8.90357e-18
2.08535e-16
2.44361e-16
1.6805e-16
8.93276e-17
1.01051e-16
1.35226e-16
-1.56452e-16
-2.91118e-16
-6.17158e-17
5.4049e-17
1.90203e-16
2.01108e-16
2.93896e-16
3.0432e-16
2.69466e-16
1.78419e-16
8.6423e-17
-1.11966e-16
-3.57533e-16
-3.96262e-16
-3.47094e-16
-2.50112e-16
-3.37761e-16
-8.12133e-16
-1.89078e-15
-4.49116e-15
-1.07086e-14
-2.48114e-14
-6.2774e-14
-1.58081e-13
-3.94364e-13
-9.62454e-13
-2.32836e-12
-5.51163e-12
-1.28297e-11
-2.91996e-11
-6.57007e-11
-1.47593e-10
-3.23463e-10
-6.88502e-10
-1.46263e-09
-3.04008e-09
-6.12677e-09
-1.19878e-08
-2.27581e-08
-4.20999e-08
-7.59655e-08
-1.33884e-07
-2.30579e-07
-3.88142e-07
-6.39549e-07
-1.03202e-06
-1.63324e-06
-2.53444e-06
-3.8596e-06
-5.77908e-06
-8.4782e-06
-1.22981e-05
-1.74387e-05
-2.4492e-05
-3.37978e-05
-4.53556e-05
-6.17531e-05
-7.65483e-05
-0.000107608
-0.000119876
-0.000164402
-0.000194581
-0.000189675
-0.000385486
-4.54143e-05
-0.000626864
0.00099461
-0.00124106
-0.00284589
0.00472781
0.0133706
0.260199
0.499938
0.522252
0.494537
0.471838
0.419054
0.413664
0.4164
0.445859
0.477551
0.494143
0.514004
0.54605
0.534067
0.535789
0.549659
0.563607
0.609171
-8.94116e-17
8.64323e-17
2.66621e-16
4.60421e-16
3.80685e-16
2.37869e-16
4.67333e-16
4.66402e-16
2.91466e-16
2.46987e-16
-2.26784e-16
-5.8826e-16
-4.98329e-16
-2.80544e-16
1.77422e-17
6.16919e-16
4.64537e-16
6.57215e-16
-1.45549e-16
-5.86265e-16
-6.2655e-16
-5.4727e-16
-1.36821e-16
4.19556e-18
3.12478e-16
4.25949e-16
3.77074e-16
2.77564e-16
2.90863e-16
1.49934e-16
-1.53686e-16
-2.35319e-16
-3.59633e-16
-3.49692e-17
2.52534e-16
2.52066e-16
1.50455e-16
3.84096e-17
7.34735e-17
1.99503e-16
1.18457e-16
1.53848e-16
-4.28503e-17
-2.75046e-16
-5.47747e-16
-8.33426e-16
-9.55374e-16
-1.26264e-15
-2.29667e-15
-5.25237e-15
-1.3636e-14
-3.31338e-14
-8.53623e-14
-2.13984e-13
-5.35652e-13
-1.30567e-12
-3.12075e-12
-7.30829e-12
-1.67708e-11
-3.79115e-11
-8.40603e-11
-1.78324e-10
-3.69692e-10
-7.5806e-10
-1.52453e-09
-3.00324e-09
-5.80323e-09
-1.10376e-08
-2.06844e-08
-3.8084e-08
-6.87987e-08
-1.2184e-07
-2.1138e-07
-3.59329e-07
-5.98833e-07
-9.78384e-07
-1.56741e-06
-2.46449e-06
-3.80057e-06
-5.76614e-06
-8.57423e-06
-1.26265e-05
-1.82449e-05
-2.60449e-05
-3.67171e-05
-5.02024e-05
-7.12546e-05
-8.8908e-05
-0.000126071
-0.000154312
-0.000192093
-0.000275392
-0.000222414
-0.000476854
-2.99736e-05
-0.00085355
-0.000475445
-0.000296409
-0.00273719
0.0139005
0.0293705
0.322018
0.557317
0.545645
0.528816
0.495195
0.444682
0.439495
0.442744
0.478143
0.505359
0.524426
0.543341
0.573115
0.559534
0.564336
0.573589
0.594883
0.639805
-1.0113e-16
1.53601e-16
3.44833e-16
4.30604e-16
4.46926e-16
2.00418e-16
1.83522e-16
3.50155e-16
5.35694e-17
2.77198e-16
-1.19014e-16
-4.07886e-16
-4.74043e-16
-2.77617e-16
8.93038e-17
3.82204e-16
8.34221e-17
2.61067e-16
2.33303e-16
-1.72808e-16
-3.58341e-17
-3.71081e-16
-1.20742e-16
3.27286e-16
4.42935e-16
5.11965e-16
2.87844e-16
1.9638e-16
2.64479e-16
2.64877e-16
7.36097e-17
-1.54593e-16
-5.45775e-16
-5.78139e-16
-4.20754e-16
-4.02504e-17
-9.42725e-17
-7.42208e-17
-2.14619e-16
-1.93636e-16
1.00407e-16
3.87722e-16
4.41849e-16
2.98275e-16
-2.87593e-16
-5.25646e-16
-6.83899e-16
-8.65175e-16
-1.45848e-15
-3.03145e-15
-9.58607e-15
-2.26919e-14
-6.01188e-14
-1.49057e-13
-3.78629e-13
-9.30789e-13
-2.26866e-12
-5.46745e-12
-1.30038e-11
-3.00049e-11
-6.74834e-11
-1.50743e-10
-3.30684e-10
-7.09471e-10
-1.48642e-09
-3.04449e-09
-6.09203e-09
-1.18788e-08
-2.25979e-08
-4.19634e-08
-7.61683e-08
-1.3521e-07
-2.34938e-07
-3.99628e-07
-6.65499e-07
-1.08533e-06
-1.73463e-06
-2.72016e-06
-4.18815e-06
-6.35211e-06
-9.48414e-06
-1.39936e-05
-2.01459e-05
-2.84656e-05
-3.99529e-05
-5.39153e-05
-7.49075e-05
-9.51466e-05
-0.000128724
-0.000165474
-0.000192619
-0.000299091
-0.000201625
-0.00050315
-0.000104412
-0.000637471
-0.00141184
0.00253221
-0.00256666
0.009434
0.0842706
0.407594
0.605824
0.568922
0.556854
0.507134
0.468566
0.465356
0.467576
0.508113
0.533249
0.55591
0.573244
0.595671
0.581884
0.590058
0.597749
0.627162
0.668051
-5.46554e-17
1.59108e-16
5.37897e-16
2.66453e-16
2.97182e-16
2.55342e-16
2.98017e-16
3.17727e-16
1.93028e-16
-4.72806e-17
-4.11887e-16
-4.20739e-16
-2.07436e-16
-5.76162e-17
2.97815e-16
2.23043e-16
-1.91735e-16
-3.0103e-16
-1.06679e-16
2.69843e-16
3.58667e-16
4.25781e-16
3.44925e-16
7.80708e-16
1.0127e-15
7.6705e-16
3.00956e-16
1.27367e-16
-5.04527e-17
-8.06729e-17
-1.45984e-16
3.01232e-17
-1.59491e-16
-3.01379e-16
-2.78144e-16
-3.06988e-16
-3.77553e-16
-3.14496e-16
-1.47314e-16
7.73624e-17
8.35325e-17
6.77337e-17
1.04281e-16
3.06972e-16
2.63411e-16
2.79213e-16
1.71278e-16
-3.97048e-16
-1.4149e-15
-4.494e-15
-1.02299e-14
-2.78589e-14
-6.86995e-14
-1.76738e-13
-4.40814e-13
-1.08836e-12
-2.6277e-12
-6.14474e-12
-1.40237e-11
-3.15546e-11
-6.98738e-11
-1.51782e-10
-3.23055e-10
-6.73759e-10
-1.37868e-09
-2.77029e-09
-5.46875e-09
-1.06067e-08
-2.0171e-08
-3.7617e-08
-6.87268e-08
-1.22992e-07
-2.15593e-07
-3.70172e-07
-6.23032e-07
-1.02847e-06
-1.66722e-06
-2.65641e-06
-4.15337e-06
-6.38186e-06
-9.58655e-06
-1.41287e-05
-2.05574e-05
-2.93964e-05
-4.23224e-05
-5.7849e-05
-8.21346e-05
-0.000108835
-0.000141627
-0.000201504
-0.000211323
-0.000350061
-0.000264753
-0.00053051
-0.000614577
-0.000294349
-0.00110165
0.00239864
-0.00400576
0.00415254
0.162879
0.48598
0.63393
0.599531
0.587875
0.518978
0.490627
0.488419
0.494236
0.53716
0.559267
0.585039
0.603492
0.615778
0.598552
0.617124
0.621336
0.663587
0.690713
-4.09977e-17
3.15213e-16
5.73694e-16
2.48232e-16
2.09791e-16
1.01776e-16
-7.79081e-17
2.238e-16
8.21682e-17
-1.4449e-16
-5.29719e-16
-8.70583e-17
3.19058e-16
4.23526e-16
3.40321e-17
-4.38125e-16
-3.21153e-16
-1.85013e-16
-1.31226e-16
9.38643e-17
4.33127e-16
9.91132e-16
8.22567e-16
8.68794e-16
1.21599e-15
1.00604e-15
7.29509e-16
4.53684e-17
-2.68977e-16
-3.25979e-16
-1.76964e-16
-2.75341e-16
-3.30249e-16
-5.44771e-16
-6.06663e-16
-4.58778e-16
-1.58885e-16
1.74694e-16
1.50315e-16
6.29172e-17
-1.42373e-16
-2.8174e-16
-1.46367e-16
1.25805e-16
4.79005e-16
5.4145e-16
3.20626e-16
-1.92703e-16
-8.45329e-16
-2.48564e-15
-6.48631e-15
-2.04684e-14
-5.1849e-14
-1.37221e-13
-3.40342e-13
-8.4816e-13
-2.0561e-12
-4.95932e-12
-1.17358e-11
-2.72535e-11
-6.19776e-11
-1.38098e-10
-3.0154e-10
-6.45322e-10
-1.35179e-09
-2.76843e-09
-5.54341e-09
-1.0859e-08
-2.0817e-08
-3.90543e-08
-7.17353e-08
-1.29022e-07
-2.27293e-07
-3.92388e-07
-6.63672e-07
-1.09988e-06
-1.78567e-06
-2.83844e-06
-4.41912e-06
-6.77156e-06
-1.0196e-05
-1.51298e-05
-2.22194e-05
-3.18971e-05
-4.5455e-05
-6.20649e-05
-8.61687e-05
-0.000116231
-0.000148802
-0.000209825
-0.000226739
-0.00035549
-0.000363051
-0.000435005
-0.000795747
0.000615482
-0.00162719
0.0010506
-0.00185844
0.010209
0.268833
0.564225
0.653923
0.629022
0.614637
0.53548
0.51329
0.51086
0.523042
0.562766
0.581683
0.611473
0.63979
0.628457
0.616121
0.643771
0.644794
0.700532
0.701949
-6.19424e-17
2.82705e-16
7.87042e-16
1.39846e-16
-3.72708e-16
-1.1734e-16
-1.13774e-16
-9.35516e-17
-1.00026e-16
-2.25281e-16
-3.92675e-16
1.42333e-16
4.10362e-16
2.42789e-16
-3.07476e-16
-6.02535e-16
-4.45688e-16
1.56893e-16
-7.20265e-17
2.79985e-16
9.25793e-16
8.61491e-16
5.70005e-16
6.81388e-16
7.72258e-16
7.41209e-16
6.56089e-16
6.20424e-16
5.65713e-16
4.12106e-16
3.96417e-16
-1.67085e-17
-3.96792e-16
-7.075e-16
-6.89335e-16
-5.323e-16
-3.51171e-16
-1.20733e-16
-7.50677e-17
-7.9864e-17
-3.83834e-17
9.09568e-17
2.97237e-16
4.27507e-16
6.05174e-16
6.74298e-16
2.95336e-16
-7.2855e-17
-7.40901e-16
-2.42443e-15
-7.17316e-15
-2.08029e-14
-5.19065e-14
-1.35924e-13
-3.35734e-13
-8.3419e-13
-2.00964e-12
-4.78236e-12
-1.11332e-11
-2.54544e-11
-5.7059e-11
-1.25582e-10
-2.71286e-10
-5.75137e-10
-1.19689e-09
-2.4458e-09
-4.90404e-09
-9.63749e-09
-1.85575e-08
-3.50032e-08
-6.46712e-08
-1.17012e-07
-2.07855e-07
-3.61525e-07
-6.15782e-07
-1.02726e-06
-1.67827e-06
-2.69885e-06
-4.27329e-06
-6.66494e-06
-1.02186e-05
-1.53538e-05
-2.26924e-05
-3.26006e-05
-4.68949e-05
-6.62548e-05
-9.16311e-05
-0.000129444
-0.000161551
-0.000236866
-0.000265642
-0.000377121
-0.000523786
-0.000360817
-0.00093093
0.000353479
-0.0018481
-0.00276095
0.00423007
0.0313618
0.356078
0.631487
0.678576
0.656662
0.639016
0.555009
0.538045
0.535256
0.549631
0.585057
0.603534
0.635061
0.670697
0.645511
0.639159
0.664396
0.669374
0.731568
0.712216
8.66492e-17
3.41062e-16
5.00107e-16
3.43444e-16
-1.75041e-16
-1.42123e-16
7.2435e-17
-2.31885e-16
-4.01397e-16
-4.71602e-16
-2.96716e-16
6.41886e-17
2.09294e-16
6.0719e-16
-3.08936e-17
-4.24657e-16
-1.00833e-16
-2.7221e-16
2.03222e-16
5.15313e-16
6.94231e-16
7.24725e-16
8.19858e-16
8.40512e-16
6.01048e-16
2.12555e-16
8.30226e-17
2.56981e-16
4.51291e-16
3.77063e-16
1.61709e-16
-1.06101e-16
-2.01583e-16
-1.53528e-16
-1.76241e-16
-1.69827e-16
-7.80559e-17
-1.56022e-16
-9.73721e-17
2.64858e-17
2.26814e-16
4.64681e-16
5.80579e-16
6.70514e-16
7.1445e-16