/*--------------------------------*- C++ -*----------------------------------*\
| =========                 |                                                 |
| \\      /  F ield         | OpenFOAM: The Open Source CFD Toolbox           |
|  \\    /   O peration     | Version:  2.2.x                                 |
|   \\  /    A nd           | Web:      www.OpenFOAM.org                      |
|    \\/     M anipulation  |                                                 |
\*---------------------------------------------------------------------------*/
FoamFile
{
    version     2.0;
    format      ascii;
    class       volScalarField;
    location    "1.1";
    object      By;
}
// * * * * * * * * * * * * * * * * * * * * * * * * * * * * * * * * * * * * * //

dimensions      [1 0 -2 0 0 -1 0];

internalField   nonuniform List<scalar> 
14161
(
-0.00292136
-0.0142603
-0.0142626
-0.0115848
-0.00411373
0.00625145
0.0135332
0.0169857
0.015506
0.0123353
0.00746512
0.000561515
-0.00540471
-0.0124393
-0.0170875
-0.0151891
-0.0127149
-0.00952198
-0.00571017
-0.00201978
0.00190286
0.00477421
0.00670133
0.00665426
0.00575491
0.00478863
0.00354552
0.00172147
-0.00036249
-0.00168949
-0.00319486
-0.00392403
-0.0043816
-0.00460229
-0.00423099
-0.00355234
-0.00287315
-0.00276047
-0.00216943
-0.00178382
-0.00120674
-0.00120882
-0.000891078
-0.00443068
-0.00612948
-0.0690673
-0.173542
-0.0215086
0.0297156
0.0213003
0.0242232
0.020517
0.0193388
0.0168074
0.00899849
0.00302683
0.00124405
-5.08665e-05
-0.00291914
-0.00290013
-0.00191991
-0.000187677
-0.000225663
-0.00336818
-0.00666029
-0.00541597
-0.0039651
-0.00266502
-0.00207713
-0.00278575
-0.00376411
-0.00441851
-0.00466852
-0.006469
-0.00793634
-0.00902049
-0.00626631
-0.00405682
-0.00863163
-0.010164
-0.00307388
0.0047131
-0.01127
-0.0101842
0.00598587
0.0277536
0.039067
0.0890645
0.150577
0.148833
0.0952161
0.0418948
0.0270446
0.0228059
0.0159604
0.00854882
0.0035699
0.00421383
0.000630195
-0.0022129
-0.00310023
-0.00374286
-0.00336907
-0.00325042
-0.00249023
-0.000216864
0.00230406
0.00379686
0.00347566
0.00565963
0.00773017
0.00948628
0.0135753
0.0157039
0.0188466
0.0193468
0.0209234
0.0232836
0.0224107
0.000933671
0.0173451
0.015804
0.0115444
0.00313892
-0.00792832
-0.0158422
-0.0177363
-0.0156211
-0.0123193
-0.00641095
0.000180803
0.00592801
0.014331
0.0195311
0.0155107
0.0127795
0.00926551
0.0055208
0.00155039
-0.00290205
-0.00600265
-0.00765131
-0.00767788
-0.00590956
-0.00439852
-0.00335646
-0.00176373
0.00013601
0.00184522
0.00399392
0.00478431
0.00522137
0.00500054
0.00461899
0.00436568
0.00375195
0.00285688
0.0020101
0.000884412
-0.000616125
-0.00276646
-0.00629315
-0.0153844
-0.0215883
-0.0853774
-0.214998
0.00429642
0.00377164
-0.00625213
-0.00135681
0.00044216
-0.000590387
0.00248996
0.000298216
0.00632936
0.00607867
0.00259977
0.000239121
0.000168267
-0.0023398
-0.00405489
-0.00123251
0.00219952
0.00154828
-0.00126646
-0.00463666
-0.00542242
-0.00341828
-0.00245609
-0.00302526
-0.00464701
-0.00488037
-0.00645494
-0.00712169
-0.00699209
-0.00397694
-0.000118461
0.00683753
0.0143133
0.00655511
0.00815135
0.0217437
0.029918
0.0180863
0.0347612
0.0832523
0.162619
0.205483
0.203249
0.176494
0.150808
0.114599
0.0782603
0.0467246
0.0302841
0.0207112
0.0139367
0.00762324
0.00510156
0.00304063
0.00169224
0.00123689
0.000792488
0.000177138
-0.000154364
0.000703211
0.0029333
0.0068227
0.00871684
0.0139584
0.0176927
0.0279997
0.0349663
0.0472844
0.0508237
0.0567678
0.0637818
0.0532455
-0.00073174
-0.0150758
-0.0128763
-0.0105428
-0.00362006
0.00432393
0.0127946
0.014771
0.0135521
0.0113856
0.00743819
0.00234861
-0.00388568
-0.0111598
-0.0139776
-0.0123613
-0.0113272
-0.00860779
-0.00555712
-0.00272977
0.000578499
0.00396084
0.0053481
0.00532082
0.00487504
0.00449669
0.00351905
0.00190265
0.000175116
-0.00140224
-0.00279309
-0.00335824
-0.00359155
-0.00419452
-0.00382231
-0.00338658
-0.00306242
-0.00276151
-0.00210701
-0.00158145
-0.00122514
-0.00119739
-0.00187468
-0.00270671
0.000382765
-0.0161353
-0.0656666
0.00809563
0.0131777
-0.0142171
-0.0245553
-0.0276035
-0.0401132
-0.0370461
-0.0421558
-0.0414486
-0.0385949
-0.035092
-0.0340535
-0.0301695
-0.0273148
-0.0277358
-0.0295428
-0.0258035
-0.0210617
-0.0202714
-0.0208864
-0.022716
-0.0248788
-0.0230546
-0.0200969
-0.0201847
-0.0192043
-0.0173058
-0.0182166
-0.0112516
-0.00818864
0.000249629
0.0193245
0.0319678
0.0455168
0.0632093
0.0829446
0.101245
0.128095
0.159348
0.220948
0.274835
0.285246
0.29632
0.251853
0.218554
0.165729
0.108063
0.0641046
0.044654
0.029486
0.0203207
0.0115792
0.0053715
0.00241023
0.00290941
0.003616
0.0044514
0.0056825
0.00742087
0.0102596
0.014533
0.0201693
0.0264674
0.0335685
0.0365489
0.0488849
0.0597653
0.0763155
0.0826441
0.0938645
0.0990627
0.0853749
-0.00170818
0.0140428
0.0130632
0.0115388
0.00446606
-0.0025662
-0.0118562
-0.0153732
-0.0130456
-0.0112565
-0.00681914
-0.00184829
0.00188062
0.0086974
0.0132577
0.0128021
0.0104802
0.00846278
0.0065257
0.00358399
-0.000197664
-0.0024645
-0.00441079
-0.00501913
-0.00426702
-0.00387076
-0.00300263
-0.00205433
-0.00108239
0.000380244
0.0020444
0.0026982
0.00362831
0.00402628
0.00394102
0.0038912
0.00379796
0.00352226
0.00280704
0.00165608
0.000678558
0.000156678
-0.000973375
-0.00174611
0.00248872
0.0312791
0.132437
0.0445879
-0.0475265
-0.101
-0.120998
-0.107817
-0.110859
-0.0930464
-0.089612
-0.0825393
-0.0778827
-0.0694923
-0.0665447
-0.0636542
-0.0582184
-0.0512911
-0.0480434
-0.0469668
-0.0444468
-0.0406972
-0.0368065
-0.0324136
-0.0291138
-0.0288508
-0.030552
-0.0307591
-0.0296631
-0.029112
-0.0260455
-0.0191814
-0.00549944
0.0118915
0.0262413
0.0511212
0.0914389
0.121184
0.136048
0.169529
0.232564
0.285201
0.30955
0.357597
0.375361
0.378591
0.341741
0.300273
0.223303
0.150668
0.0956294
0.0645571
0.0432536
0.0278023
0.0154939
0.00768011
0.00387641
0.00245528
0.00278747
0.00336207
0.0046
0.00668625
0.0126274
0.0194992
0.032089
0.0420978
0.0570413
0.066976
0.0803706
0.091334
0.104724
0.112416
0.12735
0.128876
0.114545
0.00171263
-0.0106495
-0.00914946
-0.00851652
-0.00368647
0.000237109
0.0079658
0.0101279
0.00922391
0.00785253
0.00655081
0.00447215
-8.36872e-05
-0.00317152
-0.00543735
-0.00699856
-0.00697423
-0.00654536
-0.00565925
-0.00342756
-0.00207933
-0.000236602
0.000924811
0.00209222
0.00274196
0.00267516
0.00254185
0.00196957
0.00118511
0.000780317
-0.000408447
-0.00101714
-0.00144881
-0.00167537
-0.00207456
-0.00213303
-0.00218622
-0.00193962
-0.00163709
-0.00115422
-0.00126705
0.000667218
0.000192278
0.00249142
0.00650072
0.0581999
0.253091
0.104667
-0.0355868
-0.114642
-0.147428
-0.141236
-0.144535
-0.12455
-0.118583
-0.101193
-0.0922277
-0.079379
-0.0694657
-0.0608561
-0.0576283
-0.0539163
-0.0479585
-0.0428734
-0.0423915
-0.042945
-0.0415625
-0.0394483
-0.0360518
-0.0335535
-0.032735
-0.0326203
-0.0320106
-0.0294393
-0.0257612
-0.0189941
-0.00673671
0.0116211
0.036
0.0751945
0.114217
0.142794
0.193815
0.244931
0.304509
0.365548
0.399477
0.436013
0.429064
0.430402
0.417419
0.354818
0.283175
0.191926
0.121523
0.0771616
0.0473598
0.0300038
0.0165729
0.00841624
0.00553232
0.0063167
0.00795721
0.00971462
0.013683
0.0186549
0.0287218
0.0425788
0.0523103
0.0646622
0.0773046
0.0894424
0.106009
0.121891
0.131155
0.139098
0.158313
0.156363
0.143844
-0.00332929
0.00756841
0.00846515
0.00903018
0.00521535
0.00339586
-0.00507683
-0.00828397
-0.00785928
-0.00793945
-0.00632049
-0.00432204
-0.00274756
0.00134486
0.00453996
0.00561893
0.00518122
0.00563688
0.00535506
0.00435386
0.00337099
0.00176026
0.000515535
-0.000383913
-0.00155307
-0.00182976
-0.00154092
-0.00167373
-0.00143073
-0.00123327
-0.000615139
0.00019581
0.000722671
0.00188428
0.0019831
0.00209879
0.00248526
0.00288753
0.00313493
0.00412647
0.00346872
0.00459824
0.00578119
0.00922396
0.0142755
0.0686692
0.320398
0.124142
-0.116243
-0.204856
-0.220556
-0.196934
-0.169393
-0.147529
-0.141287
-0.126194
-0.115259
-0.102771
-0.0937992
-0.0857576
-0.0799806
-0.073041
-0.0662232
-0.0615278
-0.0581343
-0.054499
-0.0509839
-0.0485809
-0.0460706
-0.0430649
-0.0405031
-0.0390857
-0.0370924
-0.0362038
-0.0308062
-0.0210457
-0.00811275
0.0095147
0.0393972
0.0742992
0.116176
0.171574
0.224842
0.285372
0.359028
0.43943
0.468176
0.504094
0.525556
0.531316
0.515227
0.449728
0.381524
0.273232
0.178142
0.107561
0.0639221
0.0403393
0.0231597
0.0145505
0.0120711
0.0128913
0.0153959
0.0182725
0.0239601
0.0300973
0.0410151
0.055006
0.075631
0.09253
0.10122
0.116209
0.129662
0.14861
0.156836
0.165929
0.185514
0.181821
0.173113
0.00360469
-0.00320663
-0.00403801
-0.00477088
-0.00379346
-0.00326611
0.0016355
0.0025563
0.00342504
0.00354065
0.00432614
0.00405315
0.00478205
0.0055901
0.00315165
0.000403824
-0.00160014
-0.00318552
-0.00381474
-0.00370213
-0.00445186
-0.00378724
-0.00253082
-0.00121302
-6.61094e-05
0.000158905
0.000791021
0.0013614
0.00224702
0.00244375
0.00173551
0.00144317
0.00105348
0.000871096
-0.000158528
-0.000484675
-0.000370659
-0.000235314
-0.000164689
-0.000103223
0.000209567
0.000827087
0.00112831
0.00330329
0.00684554
0.0472918
0.255801
0.155997
-0.165103
-0.244317
-0.245844
-0.228104
-0.19859
-0.169105
-0.144584
-0.123156
-0.107945
-0.0942708
-0.0827998
-0.072516
-0.0663104
-0.0602113
-0.0563428
-0.0533247
-0.0523327
-0.0513099
-0.0504875
-0.0490025
-0.0476107
-0.045745
-0.044416
-0.0425427
-0.042337
-0.0396806
-0.0328251
-0.0231802
-0.00731757
0.0118208
0.04262
0.0819198
0.126518
0.189092
0.262657
0.359974
0.424792
0.50338
0.541592
0.579416
0.597569
0.600006
0.57469
0.550707
0.482788
0.384156
0.24335
0.139464
0.0750993
0.0455839
0.0271747
0.0190975
0.0180486
0.0208578
0.0263529
0.0299025
0.0373685
0.0434541
0.0572822
0.0698251
0.0916086
0.121825
0.125984
0.141314
0.152945
0.171775
0.181158
0.193791
0.21147
0.20346
0.200528
-0.00372122
0.00099512
0.00255924
0.00405368
0.0047812
0.00692057
0.00413853
0.000542531
-0.0016745
-0.00286589
-0.00432119
-0.00512756
-0.0055666
-0.00595974
-0.00413131
-0.00255219
-0.000352174
0.00110044
0.00243075
0.00399623
0.0044018
0.00409995
0.00409719
0.00335867
0.00246955
0.000864311
0.000196083
-0.000396927
-0.000796847
-0.00139485
-0.00169751
-0.00166754
-0.00153173
-0.00109924
-0.000341195
0.000233869
0.000688385
0.00143354
0.00209469
0.00259204
0.00313298
0.00276931
0.00319208
0.00203454
0.00213483
0.00867375
0.0731915
-0.0409388
-0.235574
-0.253002
-0.243038
-0.223896
-0.196533
-0.167825
-0.144737
-0.124665
-0.109954
-0.0983035
-0.0875105
-0.0797727
-0.0726553
-0.0673962
-0.0629588
-0.0598941
-0.0577374
-0.0558053
-0.0544792
-0.0519761
-0.0507093
-0.0487343
-0.0473568
-0.0449944
-0.0438227
-0.040608
-0.0343467
-0.0248074
-0.0101005
0.0129856
0.0471974
0.0861655
0.140642
0.214522
0.314821
0.412495
0.489294
0.580783
0.601642
0.637781
0.663596
0.684483
0.662902
0.659823
0.597426
0.503534
0.337899
0.194448
0.101062
0.0594605
0.0366502
0.0286799
0.0298228
0.0345769
0.0432956
0.0479028
0.0583368
0.0640456
0.0789965
0.0930297
0.114182
0.142707
0.150955
0.169698
0.176255
0.195463
0.204283
0.219355
0.234645
0.222586
0.227419
0.00457751
0.00410714
0.00164881
-0.000514649
-0.00303877
-0.00516395
-0.00541934
-0.00459677
-0.00185804
-0.000400512
0.00119412
0.0022307
0.00633323
0.00895783
0.00834312
0.0061524
0.00320746
0.00126896
-0.000367593
-0.00285182
-0.0040676
-0.00473783
-0.0044318
-0.00360769
-0.00265098
-0.0014924
-0.000944463
0.000383959
0.001202
0.00218141
0.00296867
0.00245271
0.002815
0.00246314
0.00221494
0.00146953
0.0012299
0.00118125
0.00126198
0.00119375
0.00105393
0.000916448
0.00118656
0.00151217
-0.00154688
-0.0207013
-0.152977
-0.380774
-0.303162
-0.229207
-0.202832
-0.188519
-0.171244
-0.149729
-0.129337
-0.111275
-0.0955278
-0.0831268
-0.0721289
-0.064712
-0.0576447
-0.054515
-0.0526365
-0.0518955
-0.0518162
-0.0513083
-0.0509387
-0.0502471
-0.0499743
-0.0498964
-0.049678
-0.0486947
-0.047206
-0.0436455
-0.0370161
-0.0250574
-0.00722006
0.0204122
0.0513326
0.0971883
0.160218
0.256068
0.381995
0.476508
0.5406
0.612973
0.669671
0.700593
0.715419
0.740084
0.737311
0.729654
0.687148
0.59896
0.458789
0.26871
0.135319
0.0766973
0.0470133
0.0383349
0.0427786
0.0487587
0.0607542
0.0665178
0.0789594
0.0852715
0.102023
0.115776
0.136294
0.163073
0.175044
0.197927
0.200734
0.220101
0.227784
0.243239
0.257098
0.242331
0.255032
-0.00315807
-0.00441115
-0.00310856
-0.000769643
0.00305778
0.00746182
0.0105093
0.00797595
0.00397731
0.00215553
-0.00119321
-0.00372941
-0.00586481
-0.00910663
-0.00968857
-0.00808186
-0.0042052
-0.00264483
-0.000518446
0.00124975
0.0028939
0.00464997
0.00540692
0.0049504
0.0046434
0.00297273
0.00157487
0.00129423
0.00040687
-0.00033317
-0.0012349
-0.00180144
-0.00246508
-0.00200852
-0.00178705
-0.00141018
-0.000560709
5.91411e-05
0.000723681
0.00166739
0.00236889
0.00315729
0.00319753
0.00359021
-0.00357154
-0.0557781
-0.381399
-0.601125
-0.399235
-0.259021
-0.222473
-0.189701
-0.171922
-0.148249
-0.12784
-0.108639
-0.0944733
-0.0824734
-0.0724662
-0.0642189
-0.057472
-0.0547139
-0.0532372
-0.0513963
-0.050043
-0.0491666
-0.0478475
-0.0466884
-0.0455927
-0.0450226
-0.045041
-0.0449463
-0.0441585
-0.0409026
-0.0350147
-0.0208246
-0.00445467
0.0224101
0.0616612
0.118082
0.20343
0.310327
0.439817
0.564408
0.60421
0.651729
0.704481
0.75245
0.776917
0.788209
0.800926
0.789939
0.765536
0.69326
0.569741
0.352109
0.180464
0.0973029
0.0602399
0.0515869
0.0626658
0.0719069
0.0871593
0.093151
0.106978
0.112861
0.128658
0.142082
0.159875
0.185113
0.200256
0.226411
0.225588
0.246277
0.250531
0.266902
0.280264
0.2659
0.283038
0.0037305
0.00820594
0.00637387
0.00338799
-0.0011159
-0.00512875
-0.0093865
-0.00881611
-0.00541688
-0.00342561
-0.00165095
0.000963593
0.0043582
0.00694947
0.00848775
0.00807348
0.00616854
0.00438181
0.00220183
-0.000224458
-0.00195926
-0.0030595
-0.00361528
-0.0040603
-0.00331369
-0.00291425
-0.00178705
-0.000797082
0.000352234
0.000993271
0.00215112
0.00229509
0.00275939
0.00279329
0.00280183
0.00246644
0.00207507
0.00182848
0.00147611
0.00133526
0.000927609
0.000596274
-0.000403235
-0.0028281
-0.0150279
-0.111467
-0.54986
-0.673986
-0.533562
-0.359189
-0.286876
-0.229374
-0.204948
-0.17049
-0.143103
-0.114613
-0.0957693
-0.0783359
-0.0684533
-0.0601273
-0.0554269
-0.052299
-0.050514
-0.0497098
-0.0495809
-0.0487742
-0.0473342
-0.046129
-0.0454828
-0.045357
-0.0458993
-0.0462064
-0.0452922
-0.0409775
-0.0309703
-0.0197259
0.00015138
0.0311022
0.0759221
0.149549
0.269534
0.414583
0.504557
0.593504
0.678739
0.713122
0.744156
0.782762
0.8193
0.831025
0.848256
0.83254
0.820831
0.765587
0.655721
0.442668
0.225101
0.119466
0.080879
0.0755127
0.0936679
0.100758
0.113311
0.117263
0.131796
0.136344
0.152531
0.165052
0.182317
0.206015
0.223146
0.250076
0.251345
0.274635
0.276865
0.29351
0.306333
0.291751
0.310101
-0.00171543
-0.0068425
-0.00704251
-0.00405964
0.000767103
0.00562725
0.0111023
0.0115322
0.00804631
0.00548767
0.00175107
-0.00147888
-0.00435394
-0.00821348
-0.00993563
-0.00970425
-0.00638135
-0.00459825
-0.00260238
-0.00102453
0.0012942
0.00309199
0.00397367
0.00440158
0.00422289
0.00378368
0.00282769
0.00185831
0.00141483
0.000660845
-0.000360499
-0.000640619
-0.001077
-0.00154223
-0.00160078
-0.00159321
-0.0014701
-0.000803588
-0.000114169
0.00052504
0.0012378
0.00179664
0.00245068
0.000256048
-0.0140247
-0.14509
-0.643308
-0.72532
-0.63832
-0.480449
-0.365845
-0.2709
-0.228203
-0.182684
-0.156512
-0.130857
-0.113426
-0.0954407
-0.0845519
-0.0729269
-0.0655632
-0.0591295
-0.0570694
-0.0558075
-0.0543512
-0.0527867
-0.0506987
-0.0488729
-0.0465295
-0.0449511
-0.0450631
-0.0446203
-0.0431024
-0.0367034
-0.0267189
-0.0146413
0.00547213
0.0401732
0.104824
0.206672
0.361199
0.5223
0.593712
0.642701
0.700584
0.769746
0.794789
0.816042
0.848657
0.864021
0.881948
0.868222
0.856783
0.812656
0.712802
0.519357
0.286177
0.16086
0.118928
0.112976
0.130352
0.134061
0.14537
0.148816
0.164837
0.169376
0.182712
0.193491
0.208606
0.22939
0.246179
0.273134
0.277765
0.305332
0.304199
0.321966
0.333598
0.319223
0.335667
0.00207275
0.00846678
0.00875473
0.0056377
0.000961503
-0.00343594
-0.00910242
-0.00938604
-0.00711911
-0.00480913
-0.00251674
-0.000747958
0.00185267
0.0038805
0.00601302
0.00622482
0.0060219
0.00424635
0.00304593
0.00156785
9.42013e-05
-0.00087758
-0.0020076
-0.00256136
-0.00274777
-0.00233981
-0.00167879
-0.00105642
-0.000349833
0.00028582
0.000874636
0.00139573
0.00176543
0.00171865
0.00203652
0.00179302
0.00174429
0.00141722
0.00154816
0.00132131
0.00129254
0.00131309
0.00149397
-0.00260915
-0.0243889
-0.231622
-0.751564
-0.753829
-0.710078
-0.598032
-0.473139
-0.34739
-0.27986
-0.219895
-0.179129
-0.143321
-0.121629
-0.101916
-0.0892926
-0.0746682
-0.0659263
-0.0576625
-0.0570764
-0.0568715
-0.0559696
-0.054358
-0.0533664
-0.051068
-0.0499299
-0.0496807
-0.0491984
-0.0483812
-0.0448454
-0.0375961
-0.0260997
-0.00982332
0.0125952
0.0614938
0.155877
0.322921
0.476399
0.578172
0.678188
0.726325
0.752662
0.793001
0.828458
0.852223
0.87224
0.893698
0.910988
0.908347
0.89591
0.865401
0.781165
0.596469
0.357075
0.221617
0.1734
0.163823
0.175711
0.175417
0.184677
0.186079
0.200198
0.200737
0.209525
0.217699
0.231363
0.24977
0.267457
0.293934
0.303367
0.332309
0.333116
0.354376
0.362898
0.34784
0.359202
0.000314345
-0.00677617
-0.00812252
-0.00502056
-0.000568465
0.00352306
0.0087283
0.0105297
0.00851405
0.00570139
0.00338603
0.000132887
-0.0020106
-0.00502688
-0.00750869
-0.0076239
-0.0063809
-0.00472772
-0.00343601
-0.00184199
-0.00032367
0.00104915
0.00227999
0.00285356
0.0030158
0.00296717
0.00277639
0.00226432
0.00171324
0.00134477
0.000895138
0.000490907
-0.000163877
-0.000630383
-0.000832104
-0.000871533
-0.00106219
-0.000917838
-0.000706003
-0.000485005
-8.38684e-05
6.40709e-05
0.000544551
-0.00493959
-0.0375253
-0.337633
-0.773476
-0.771733
-0.736385
-0.677169
-0.555394
-0.408809
-0.311116
-0.235251
-0.194472
-0.161456
-0.144211
-0.126261
-0.11486
-0.100815
-0.0953745
-0.0854258
-0.0800646
-0.0770203
-0.0761291
-0.072269
-0.0679414
-0.0610713
-0.0554175
-0.0493853
-0.0495889
-0.048108
-0.0437171
-0.0315658
-0.0205408
0.00848466
0.0499237
0.148067
0.293944
0.461029
0.5972
0.676004
0.717106
0.769679
0.804623
0.829581
0.854777
0.877346
0.900286
0.924476
0.933513
0.946035
0.930813
0.908633
0.833195
0.65793
0.426383
0.285308
0.231597
0.215857
0.219713
0.214047
0.220356
0.221232
0.234828
0.232107
0.236227
0.240537
0.251372
0.268301
0.287206
0.313351
0.328781
0.359772
0.363331
0.387324
0.389412
0.374858
0.380467
0.000591402
0.00683598
0.0077405
0.00543007
0.00197031
-0.00156885
-0.00608177
-0.00713134
-0.00631078
-0.0044753
-0.00254771
-0.0016814
0.000467032
0.00185025
0.00307592
0.00353164
0.00342416
0.00295505
0.00207827
0.00143749
0.000734566
0.000138476
-0.00042111
-0.000848222
-0.00125622
-0.00129497
-0.000987297
-0.000654493
-0.000321353
9.08736e-05
0.000419492
0.000570342
0.000544535
0.000726851
0.00076854
0.000595761
0.000542496
0.000160173
0.000211313
-0.000134595
-0.000537679
-0.000806214
-0.002282
-0.00989737
-0.055221
-0.390653
-0.718684
-0.788778
-0.770302
-0.740478
-0.648545
-0.519787
-0.379274
-0.291511
-0.239887
-0.196751
-0.170409
-0.146321
-0.131381
-0.114233
-0.101939
-0.0901264
-0.0824475
-0.0800646
-0.0780052
-0.0774837
-0.076009
-0.0708655
-0.0670323
-0.0574332
-0.0564874
-0.0452451
-0.0288707
0.00601502
0.0467525
0.123163
0.23087
0.344492
0.452981
0.566266
0.639738
0.698043
0.746237
0.78193
0.806839
0.830886
0.85573
0.884222
0.917409
0.948738
0.973544
0.987286
0.983491
0.955253
0.884297
0.709127
0.485181
0.345518
0.291568
0.271352
0.268229
0.255321
0.257374
0.257542
0.267452
0.262534
0.262674
0.262601
0.270085
0.284686
0.303872
0.329865
0.351085
0.383055
0.390032
0.416737
0.414816
0.399896
0.399611
0.00143741
-0.00481183
-0.00646232
-0.00402386
-0.000888168
0.00212602
0.00557028
0.00721709
0.00626916
0.00427822
0.00330411
0.000749879
-0.000482714
-0.00231706
-0.00399048
-0.00486581
-0.00469809
-0.00381625
-0.00303311
-0.00204699
-0.00114084
-0.000205003
0.000818414
0.00150118
0.00177483
0.00189921
0.00203454
0.00191053
0.00172767
0.00152825
0.00128551
0.000971591
0.000516151
0.000188101
-0.000133299
-0.000648492
-0.000851796
-0.00100224
-0.00116195
-0.00159975
-0.00216268
-0.00273652
-0.00417001
-0.0101128
-0.0524493
-0.35884
-0.65745
-0.759663
-0.775474
-0.769139
-0.731048
-0.630114
-0.488647
-0.387539
-0.311409
-0.25771
-0.216933
-0.181609
-0.154659
-0.134683
-0.122827
-0.111007
-0.107323
-0.0978527
-0.0927417
-0.0799598
-0.0739468
-0.0477561
-0.0282038
0.011703
0.0643853
0.116678
0.14601
0.184274
0.233284
0.291872
0.363251
0.450221
0.508169
0.571049
0.630781
0.68087
0.722048
0.76333
0.802064
0.835536
0.876626
0.918052
0.954505
0.970628
0.985634
0.985628
0.991054
0.96895
0.903357
0.738123
0.538459
0.413667
0.36242
0.336412
0.321058
0.29923
0.29363
0.291963
0.298679
0.293102
0.290151
0.2863
0.290816
0.302714
0.321055
0.346991
0.37172
0.405771
0.416394
0.446268
0.442653
0.425966
0.420398
-0.000317604
0.00461927
0.0051398
0.00383317
0.00202169
-0.000221175
-0.00283904
-0.00396537
-0.00425638
-0.0032085
-0.00208902
-0.00163262
3.32406e-05
0.000718965
0.00145263
0.00147314
0.00134141
0.00134183
0.000852659
0.000464877
0.000316298
0.00015873
6.98966e-05
-0.000125635
-0.000322134
-0.000367764
-0.000304719
-0.000193803
-6.19894e-05
3.49183e-05
0.000154075
0.000194674
0.000141641
5.73554e-05
-6.04363e-07
-0.000217147
-0.000441167
-0.000669648
-0.000821545
-0.00133184
-0.00177691
-0.00254546
-0.00366459
-0.00896924
-0.0416885
-0.293585
-0.56874
-0.708375
-0.751182
-0.776302
-0.767308
-0.735178
-0.639314
-0.534246
-0.414584
-0.347933
-0.264363
-0.212524
-0.167046
-0.134624
-0.113953
-0.0887817
-0.0813612
-0.0506427
-0.0356899
-0.0016613
0.0147346
0.0445215
0.0900422
0.126091
0.177973
0.21737
0.259918
0.298393
0.347402
0.402593
0.452249
0.505708
0.551725
0.592176
0.631525
0.664007
0.69535
0.731474
0.769141
0.804481
0.848722
0.886765
0.932455
0.98246
1.02989
1.03855
1.0282
0.998669
0.919507
0.755922
0.57788
0.469197
0.417668
0.384742
0.362142
0.337661
0.328036
0.324257
0.328307
0.3221
0.317838
0.310803
0.312223
0.320976
0.337538
0.362239
0.38929
0.425986
0.44028
0.472174
0.468381
0.45062
0.44028
0.00172172
-0.00262985
-0.00387518
-0.0024756
-0.000457677
0.00122918
0.00300571
0.00408379
0.00354985
0.00250473
0.00192041
0.00068039
0.000139219
-0.000749568
-0.00161289
-0.00245134
-0.00269065
-0.00239163
-0.00208448
-0.00169451
-0.00123699
-0.000696363
2.00675e-05
0.000503605
0.000818289
0.00103679
0.00118832
0.00129442
0.00127429
0.00125759
0.00116665
0.00107838
0.000716403
0.000490057
0.000244111
1.53503e-05
-0.000343421
-0.000558131
-0.000851106
-0.000953707
-0.00136566
-0.00158664
-0.00258828
-0.00584556
-0.0281202
-0.19529
-0.460108
-0.649813
-0.714323
-0.767051
-0.777748
-0.776881
-0.741254
-0.661604
-0.553499
-0.425127
-0.305689
-0.224198
-0.160431
-0.115645
-0.0819087
-0.0404566
-0.0102175
0.0319793
0.077925
0.121008
0.160156
0.188183
0.222868
0.254715
0.285164
0.317017
0.339001
0.370629
0.401735
0.441903
0.483483
0.524155
0.563023
0.595404
0.629037
0.656593
0.685652
0.716405
0.750407
0.788932
0.833109
0.879572
0.940497
0.987373
1.00992
1.01953
1.01362
0.980887
0.905183
0.761728
0.615743
0.523678
0.468609
0.431101
0.402955
0.376733
0.362725
0.357162
0.3571
0.348918
0.344234
0.336079
0.334516
0.340354
0.354746
0.377731
0.405373
0.444316
0.461891
0.495579
0.492831
0.474912
0.461049
-0.000522938
0.00248259
0.00284975
0.00235128
0.00165366
0.000482352
-0.000736763
-0.00164243
-0.00212549
-0.00189041
-0.00141741
-0.00103007
-0.000160782
0.000324612
0.000633865
0.000494995
0.000289558
0.000593887
0.000209728
-0.000217963
-0.000243178
-0.000254725
-6.52523e-05
3.05284e-06
7.54743e-06
-8.18591e-06
-1.06467e-05
-1.66965e-05
-6.21579e-06
1.56922e-05
7.08093e-05
0.000129469
0.000131886
7.32569e-05
-8.84051e-05
-0.000285773
-0.000528271
-0.000851822
-0.00130728
-0.00185333
-0.00271238
-0.00401472
-0.0049573
-0.00820889
-0.0154075
-0.0656879
-0.350495
-0.578611
-0.668478
-0.741403
-0.777837
-0.793911
-0.782148
-0.739172
-0.661054
-0.518258
-0.358373
-0.236754
-0.150283
-0.0871415
-0.0336637
0.0214154
0.0778318
0.122452
0.164408
0.203184
0.236689
0.267292
0.295356
0.326816
0.355609
0.384262
0.407939
0.433172
0.459782
0.489467
0.522001
0.550761
0.581014
0.606089
0.633986
0.658842
0.68395
0.711298
0.742222
0.775306
0.811753
0.853705
0.908055
0.957078
0.996021
1.01207
1.00157
0.964593
0.89145
0.769717
0.650819
0.564426
0.509673
0.470348
0.438286
0.412546
0.395989
0.389053
0.384998
0.374773
0.369159
0.360723
0.357133
0.359769
0.371773
0.392661
0.420204
0.46119
0.482922
0.517608
0.51596
0.499152
0.481454
0.00135856
-0.00111618
-0.00178388
-0.000970844
7.19746e-05
0.00077431
0.00153498
0.00183817
0.0016676
0.00119429
0.000628164
0.000288517
0.00017202
-0.00012934
-0.000576996
-0.000902071
-0.00112604
-0.00103182
-0.00112375
-0.00116417
-0.000926021
-0.000788996
-0.000235818
0.000129785
0.000413018
0.000488951
0.000566458
0.000719912
0.000734275
0.000717516
0.00086219
0.00104855
0.000908092
0.000734783
0.000485447
0.000284252
-4.80591e-05
-0.000203409
-0.000451387
-0.00045718
-0.000414831
-1.46355e-05
0.000356469
-0.00015056
0.00144313
0.0262738
-0.226673
-0.529228
-0.63044
-0.71302
-0.755547
-0.785873
-0.798012
-0.779002
-0.706104
-0.562633
-0.366839
-0.188236
-0.080737
-0.00129754
0.0622404
0.112335
0.160987
0.197109
0.237088
0.26834
0.304019
0.335148
0.36577
0.394948
0.417905
0.439059
0.458835
0.471221
0.491137
0.517788
0.544824
0.568805
0.595586
0.61657
0.641762
0.664663
0.687717
0.71111
0.736051
0.765865
0.799512
0.837584
0.881407
0.922591
0.95786
0.973006
0.962358
0.929668
0.865835
0.769889
0.670595
0.592969
0.54644
0.505806
0.470796
0.446832
0.429268
0.421453
0.412315
0.400253
0.393228
0.384829
0.379428
0.378975
0.388788
0.407595
0.434389
0.476287
0.501366
0.538592
0.537801
0.522405
0.501834
-0.000433768
0.00111732
0.00153135
0.00140586
0.00119386
0.000755403
0.000192289
-0.000477638
-0.000796496
-0.000944918
-0.000809981
-0.00065152
-0.000209236
0.000129669
7.44135e-05
0.000202604
0.000222676
0.000372807
-7.48623e-05
-0.000339868
-0.000349049
-0.000507583
-0.000182198
0.000105025
0.000147496
4.23345e-05
-2.95185e-06
-3.3496e-05
-0.000103947
-6.59632e-05
0.000100112
0.000392532
0.000603135
0.000652164
0.000740721
0.000915991
0.00131095
0.0016469
0.0020129
0.00265178
0.00323268
0.00454486
0.00533161
0.00464997
-0.00824109
-0.0718364
-0.302662
-0.514105
-0.586414
-0.632365
-0.698549
-0.735597
-0.762766
-0.751407
-0.695233
-0.541894
-0.307859
-0.0967416
0.0227174
0.0839162
0.148237
0.19407
0.234065
0.266682
0.295043
0.32608
0.351864
0.378084
0.401972
0.426391
0.448739
0.469178
0.490739
0.503719
0.519461
0.541984
0.569107
0.594541
0.621943
0.63877
0.659528
0.676276
0.692298
0.710995
0.733853
0.759931
0.787063
0.81711
0.850812
0.883281
0.914887
0.931071
0.923811
0.896576
0.844014
0.766496
0.680507
0.617388
0.578113
0.535861
0.500116
0.478791
0.460934
0.452377
0.438882
0.425287
0.416522
0.407919
0.401763
0.398253
0.405656
0.422403
0.447592
0.490869
0.518464
0.559256
0.558902
0.545741
0.522889
0.000847908
-0.000303587
-0.000471197
4.52706e-06
0.000373344
0.000605382
0.00079568
0.000748691
0.000587135
0.000295371
0.000128403
-4.92432e-05
-2.48464e-05
-6.36768e-05
-0.000262607
-0.000330244
-0.000255497
-0.000148091
-0.000375043
-0.000597791
-0.000596976
-0.000600682
-0.000266464
0.000229031
0.000427512
0.000368708
0.00033
0.00041055
0.00052178
0.000535105
0.00060412
0.000980787
0.00132948
0.00150431
0.00135465
0.00106339
0.000767157
0.000618962
0.00055629
0.000433179
0.000334162
0.000548139
-0.000713247
-0.00908337
-0.0678544
-0.367133
-0.625283
-0.579507
-0.547377
-0.549213
-0.572757
-0.606508
-0.642945
-0.644641
-0.58327
-0.411214
-0.149692
0.0451581
0.15182
0.199019
0.244971
0.283037
0.308495
0.330069
0.354251
0.377713
0.400796
0.420014
0.439493
0.458324
0.478812
0.500311
0.519369
0.535552
0.550617
0.569251
0.592209
0.61672
0.641983
0.658547
0.673506
0.687554
0.701787
0.717983
0.735033
0.753526
0.776744
0.800172
0.827618
0.854375
0.881101
0.8944
0.888188
0.865744
0.823075
0.761655
0.694082
0.642983
0.602951
0.562299
0.528556
0.509301
0.4913
0.481855
0.464565
0.449524
0.43903
0.430024
0.423993
0.416902
0.422139
0.436779
0.460569
0.503675
0.534236
0.57806
0.577656
0.568448
0.543941
-0.000417708
0.000649372
0.00095865
0.000947139
0.000937516
0.000782427
0.000459637
1.66083e-06
-0.00033981
-0.000547169
-0.00047572
-0.000413761
-0.00025099
-0.000123035
-0.000109419
3.1156e-05
0.000218672
0.000364897
9.63527e-05
-0.000186446
-0.000333389
-0.00047657
-0.000226153
0.000267331
0.000379077
0.000279243
0.000177915
0.000132491
2.11611e-05
-4.40472e-05
-6.55866e-05
0.000170683
0.000617431
0.00110351
0.00118277
0.00123893
0.00133189
0.00149615
0.00177249
0.00240514
0.00229136
0.00288834
-0.00181095
-0.0337223
-0.236151
-0.697129
-0.740928
-0.688461
-0.608561
-0.569909
-0.559274
-0.555561
-0.56009
-0.526616
-0.413213
-0.17509
0.0698552
0.213304
0.289916
0.323176
0.350192
0.36791
0.384267
0.395259
0.409743
0.427421
0.445511
0.459265
0.471052
0.484967
0.501656
0.520077
0.537193
0.553222
0.569619
0.586935
0.607789
0.629788
0.651564
0.672499
0.689686
0.704307
0.710081
0.72239
0.734614
0.75001
0.766213
0.784224
0.807939
0.831041
0.852824
0.862511
0.858412
0.842782
0.808968
0.763043
0.709119
0.661357
0.622714
0.585871
0.554763
0.53607
0.518907
0.508719
0.490238
0.473918
0.461487
0.452405
0.446425
0.435587
0.438526
0.451189
0.473065
0.516072
0.548126
0.593927
0.595585
0.592702
0.565112
0.000386833
8.12553e-05
0.000245854
0.000480856
0.000596845
0.000592027
0.000502677
0.000311426
0.000113845
-0.000158686
-0.000142942
-0.000194088
-0.000200647
-0.00022015
-0.000310552
-0.000127951
1.05257e-05
7.13565e-05
5.72322e-05
-9.15303e-05
-8.62963e-05
-0.000188841
-0.000174521
0.000183543
0.000531779
0.000484416
0.000419808
0.000483697
0.000467023
0.000424765
0.00047102
0.000617402
0.000678304
0.00111577
0.00184943
0.00209957
0.00226512
0.00194232
0.00204069
0.00160405
0.00119898
-0.00144914
-0.0166346
-0.116464
-0.540673
-0.81387
-0.821401
-0.782472
-0.708753
-0.675191
-0.615858
-0.564124
-0.496542
-0.376429
-0.129811
0.158969
0.303976
0.382202