/*--------------------------------*- C++ -*----------------------------------*\
| =========                 |                                                 |
| \\      /  F ield         | OpenFOAM: The Open Source CFD Toolbox           |
|  \\    /   O peration     | Version:  2.2.x                                 |
|   \\  /    A nd           | Web:      www.OpenFOAM.org                      |
|    \\/     M anipulation  |                                                 |
\*---------------------------------------------------------------------------*/
FoamFile
{
    version     2.0;
    format      ascii;
    class       volScalarField;
    location    "1.1";
    object      pB;
}
// * * * * * * * * * * * * * * * * * * * * * * * * * * * * * * * * * * * * * //

dimensions      [1 1 -3 0 0 -1 0];

internalField   nonuniform List<scalar> 
14161
(
-0.00145329
-0.00364339
0.00109621
0.00166231
0.0029395
0.00322904
0.00179952
0.000514288
-0.00135375
-0.00178387
-0.0022838
-0.00229535
-0.00367654
-0.00282081
-0.00196318
0.000526377
0.000395223
0.000803289
0.00132401
0.00131278
0.00148693
0.000786045
0.00035534
-2.94761e-05
-0.00085724
-0.000953517
-0.00124457
-0.00147083
-0.00174631
-0.00138739
-0.00118154
-0.000760934
-0.000330832
0.000106177
0.000412638
0.000888446
0.00115866
0.00144049
0.00141329
0.00116668
0.00124212
0.000290784
-0.000600692
-0.00517605
-0.00251495
-0.0502123
0.16241
-0.0398328
-0.0277281
0.00130388
-0.00139298
0.00472284
0.00320283
0.00372574
0.0049072
0.00292648
0.00202714
0.00235
0.00165089
0.00215266
0.00219396
0.000984623
-0.00119815
-0.00160538
0.00026169
0.00218707
0.00271083
0.00136151
-0.000421078
-0.0013346
-0.000307985
4.22028e-05
-0.00167943
-0.00365205
-0.00223353
0.00239388
-0.00131261
-0.00634474
-0.00837127
-0.00282451
0.00715309
-0.00381358
-0.0152164
-0.00745622
0.0134485
0.000624468
-0.0203186
0.00899205
0.022873
-0.000234109
0.00679719
0.00520306
0.00224165
0.00191885
0.00146884
0.000806922
8.77445e-05
0.000305708
-0.000199685
-1.16406e-05
-0.000329607
-0.000206202
-0.000258694
-0.000216203
-0.000295888
-0.000180432
-0.000377098
-0.000230928
-0.000298031
-2.43761e-05
-0.00053552
0.000345295
-0.00128268
0.0014933
-0.0036339
0.00413033
-0.00658907
0.00673202
-0.00853832
0.0102699
0.00494409
-0.0020914
-0.00551813
-0.00986799
-0.0111222
-0.00525181
0.000594191
0.00216401
0.00372279
0.00615693
0.00663311
0.0092072
0.00702985
0.00210493
-0.00101337
-0.0030825
-0.00499905
-0.00601158
-0.00689669
-0.00691004
-0.00478716
-0.00275087
-0.000882258
0.000519072
0.0012779
0.00204901
0.00305616
0.00354931
0.00351011
0.00278994
0.00199693
0.00104046
0.000371292
-0.000258433
-0.000493744
-0.000910201
-0.00137538
-0.00153248
-0.00196766
-0.00204797
-0.0021887
-0.00180023
8.47488e-05
0.000174143
0.0155841
0.0179489
0.0318434
0.00114292
0.0127675
-0.00317364
0.00397237
-0.00303971
-0.00259662
-0.00398662
-0.00352329
-0.000602146
-0.000282637
-0.00229708
-0.00282263
0.00293955
0.00228815
-0.00543348
-0.00886296
-0.00545728
0.000686206
0.00315607
0.00253086
-0.000491505
-0.00311
-0.00452473
-0.00344256
-0.00242981
0.00429306
0.00556546
-0.00288734
-0.00638266
0.00732411
0.0219835
-0.00877304
-0.0325753
0.0104153
0.0627994
-0.00683196
-0.0673475
0.014281
0.0709638
-0.0175157
-0.0222989
0.0184323
0.000549351
-0.0032535
-0.00141762
-0.000604901
-0.00184716
-0.000790274
-0.000643344
-0.000309366
-0.000417801
-0.000153033
-0.000154326
2.40664e-05
-0.000218532
-0.000165332
-0.000272393
-0.000258843
-0.000311454
-0.000304581
-0.000183663
2.06169e-05
-0.000774848
0.000539874
-0.00195083
0.00168055
-0.00391023
0.00399439
-0.00643585
0.00658263
-0.00785604
-0.0157559
-0.00770898
0.00229601
0.00862472
0.0149595
0.0171593
0.00871287
-0.000231732
-0.00414208
-0.00687203
-0.0102149
-0.0119228
-0.0151855
-0.012172
-0.00501624
0.000382268
0.00386529
0.00645239
0.00825754
0.00958757
0.00938099
0.00662659
0.00339799
9.98968e-05
-0.001377
-0.00318936
-0.00433832
-0.00581307
-0.00658207
-0.00632219
-0.00510146
-0.00349469
-0.00177136
-4.39882e-05
0.000699468
0.00189653
0.00283878
0.00396001
0.00476951
0.00590108
0.00683192
0.00753508
0.00863758
0.00829696
0.0109554
0.0233444
0.0231065
0.0302035
-0.00383435
0.000417505
-0.00746906
0.00042985
-0.000372522
-0.00309306
0.00517364
0.00553584
-0.00352089
-0.00591605
1.82978e-05
-0.00094903
-0.00755438
-0.00957843
0.00590048
0.00915533
0.00257524
-0.00381828
-0.0075625
-0.00655603
-9.55403e-06
0.00507424
0.00463075
0.00148934
-0.00111358
-0.00384219
-0.00709926
0.000801717
0.00277365
-0.00903788
-0.018149
0.00320482
0.0503351
-0.0152695
-0.0603396
0.0154518
0.0833377
-0.00214331
-0.0743905
0.0195343
0.0335197
-0.0274366
0.00511505
0.00706657
-0.000658878
0.00215055
0.00149247
0.00107147
0.000483937
0.000310626
2.54634e-05
0.000107184
-0.000211088
-1.72221e-05
-0.000173187
-0.000125636
-0.000136549
-0.000140826
-0.000139611
0.000198107
-6.26814e-05
0.00010663
-0.000409931
0.000615084
-0.00183432
0.00197108
-0.00414192
0.00410721
-0.00639364
0.00640418
-0.00743578
0.022935
0.0104764
-0.00364466
-0.0124405
-0.0200708
-0.0237906
-0.0123728
0.000442897
0.00453433
0.00832734
0.012575
0.0152905
0.0194917
0.0171032
0.00729487
-0.0019312
-0.00538083
-0.00984721
-0.0126571
-0.0141056
-0.0140151
-0.0104925
-0.00642001
-0.00193362
0.00104732
0.00285725
0.00453035
0.00659562
0.00786082
0.00824588
0.00687085
0.00502469
0.00294735
0.00117715
-0.000550533
-0.00133987
-0.00242894
-0.00331431
-0.00408413
-0.00502669
-0.00478558
-0.00351538
-0.00194642
0.000917859
-0.000806367
0.02243
-0.0030001
0.0361104
0.00101825
0.00505839
-0.00399224
0.00242143
0.000971848
-0.00159376
-0.00678521
-0.00496896
0.00177818
-0.00103068
-0.00192172
-0.00151884
-0.000755985
-0.000819235
-0.00330166
-0.00195745
-0.00101908
-0.00226816
-0.00116459
-0.00179875
-0.00132366
-0.00086989
-0.00140366
-0.000743335
-3.01838e-05
-1.72124e-06
0.00140273
0.00362551
0.000970144
-0.00308693
0.00620691
0.0173362
-0.0197607
-0.0169795
0.0545727
0.0106673
-0.0519468
0.0032938
0.0349181
-0.00633805
-0.0177577
0.00512004
0.00808348
-0.0143165
0.00202906
0.000361062
-0.00125317
-0.000380221
-0.000636011
-0.000412695
-0.000507499
-0.000400612
-0.000421804
-0.000411893
-0.000424465
-0.000360206
-0.000443374
-0.000184292
-0.000379839
-0.000217394
-3.9051e-05
-0.00016151
-0.00111709
0.000528963
-0.00243843
0.00216886
-0.00424577
0.00409194
-0.00621858
0.00603024
-0.00699884
-0.0252752
-0.0141257
0.00384476
0.0137957
0.0229303
0.0286711
0.0166314
-0.000272774
-0.00500213
-0.0103786
-0.0154342
-0.0191647
-0.0239962
-0.0214431
-0.0102172
0.0010497
0.00478035
0.00992214
0.0130443
0.0148288
0.0156786
0.0124871
0.00694603
0.00187174
-0.00160927
-0.00388902
-0.00614743
-0.0083504
-0.00970563
-0.0104459
-0.00885067
-0.0065982
-0.00394389
-0.001578
0.00067083
0.0017701
0.00336587
0.00510564
0.00674968
0.00881602
0.0103705
0.0114494
0.0117621
0.0141025
0.00822595
0.0233737
-0.00339621
0.0543165
-0.00104017
0.00437801
-0.000982318
-0.00253914
0.0012839
-0.00107787
0.00113707
-0.00231733
-0.00197036
-0.0014243
-0.00143807
-0.00133293
0.000125058
-0.00069569
-0.0012774
-0.00136691
-0.00184701
-0.000131824
-2.81454e-05
0.0002107
0.00116779
-0.00027975
-0.000506639
-2.34045e-05
0.000275259
0.00174658
6.30784e-05
-0.00346903
-0.000927036
0.00453817
0.00129434
-0.0132257
-2.1915e-05
0.0269656
-0.00573886
-0.0246181
0.0235154
0.00193225
-0.0114119
-0.00628593
0.0107269
0.000853923
-0.0160504
0.0176569
-0.000405347
0.000441756
0.00189441
0.00110255
0.000259651
0.000428602
6.42103e-05
0.000309632
-0.000130429
0.00026694
-4.79995e-05
0.000239966
5.27961e-06
7.0848e-05
-0.000359213
0.000307443
-0.00062204
0.000641648
-0.00108386
0.0011711
-0.0023299
0.00231705
-0.00418937
0.00411298
-0.00591931
0.00593588
-0.0066429
0.0296111
0.0167265
-0.00376978
-0.0155528
-0.0261787
-0.0330991
-0.0197532
-0.0010468
0.00497126
0.0102534
0.0158794
0.0200697
0.0257947
0.0253754
0.0123233
-0.000854585
-0.00541107
-0.0117275
-0.0153376
-0.01767
-0.0189923
-0.015262
-0.00964885
-0.0045141
0.000313699
0.00239368
0.00522858
0.00787098
0.00951829
0.0107981
0.00971963
0.00777983
0.0052898
0.00276039
0.00030426
-0.00094146
-0.00228374
-0.00392115
-0.00529303
-0.00648883
-0.00655461
-0.00630092
-0.00446832
-0.00421235
-0.000415793
-0.001037
0.0286147
0.039374
-0.00292022
-0.00173915
-0.000709195
-0.00386155
-0.00112262
-0.00281
-0.00105957
-0.00346623
-0.000923233
-0.00190378
-0.000928687
-0.00210192
-0.000482764
0.000160304
-0.00071236
-3.50851e-05
0.000170589
-0.000564848
0.000127794
-0.000300522
-0.000840466
-0.0004353
-0.000640754
-0.000537046
-0.000837833
-0.00165903
-0.00117035
-0.00159825
-0.00181995
-0.00227893
-0.00157692
0.00261867
0.00344285
-0.00725005
-0.00297776
0.0236089
0.000783599
-0.0169095
0.00834768
-0.00115776
-0.00578443
-0.00393092
0.00201478
0.00210452
-0.0121312
0.00478526
-0.00109304
-0.000673001
-0.000902957
-0.000747447
-0.000697616
-0.000363298
-0.000302203
-0.000455728
-0.0005026
-0.000438487
-0.000755766
-0.000190309
-0.00068628
-0.00019891
-0.000441736
-0.000426071
-0.00105787
0.000824144
-0.00257187
0.00227144
-0.00409848
0.00387672
-0.00571091
0.00539357
-0.00639795
-0.0284275
-0.0204625
0.00414262
0.01424
0.0263599
0.0350142
0.0236746
0.00232192
-0.00504373
-0.0107311
-0.0168457
-0.0218307
-0.0276878
-0.0280832
-0.0149395
-0.00155393
0.00417634
0.00999179
0.0134928
0.0166234
0.0182453
0.0154742
0.0101744
0.00507661
-0.000492727
-0.002418
-0.00571843
-0.00819338
-0.00965433
-0.0117085
-0.0107965
-0.00897889
-0.0065024
-0.00373034
-0.00128088
0.000745568
0.00212473
0.00430394
0.00582777
0.00718605
0.00762817
0.00724681
0.00637827
0.00415451
0.00578435
-0.0109767
0.0680441
0.0422409
-0.00494877
-0.00771995
0.00534885
0.00121027
0.00436091
-0.00257338
0.00357504
-0.00193224
-0.000355495
-0.00103408
-0.00162522
-0.00190499
-0.00201676
-0.00158468
-0.00259409
-0.00185064
-0.0011536
-0.000864618
-0.000755698
-0.000330247
-0.000756597
-0.000189943
-0.000198015
-0.000448826
-0.000559492
-7.23306e-05
-0.000832391
-0.00140676
-0.00188455
-0.00228349
-0.00141156
-0.00221249
-0.00338641
-0.000283954
0.00869159
-0.00588128
0.00155213
-0.00379993
0.0096521
-0.00171573
0.00063191
-0.010417
0.00832373
-0.00948669
0.00902277
-0.00122482
0.00242159
0.00131251
0.000278179
0.00030671
-2.93044e-05
3.55868e-05
-1.10329e-05
0.000264173
-3.1341e-05
0.00024837
0.000236759
-0.000109674
-0.000402232
0.000588919
-0.000397512
0.000380458
-0.00115168
0.0010417
-0.00248925
0.00235493
-0.00396366
0.00380735
-0.00542465
0.00526294
-0.00619866
0.0287998
0.0222418
-0.00292894
-0.0138464
-0.0271066
-0.0362214
-0.0253809
-0.00472799
0.00386502
0.00944546
0.0153795
0.0200599
0.0259109
0.0282918
0.01586
0.00287652
-0.00373433
-0.00976436
-0.013196
-0.0175848
-0.0188593
-0.0170532
-0.0126088
-0.00727483
-0.00200463
0.000942694
0.00355052
0.00613693
0.00803198
0.0100548
0.0101436
0.00876078
0.00683308
0.00462607
0.00238983
8.01019e-05
-0.00119936
-0.00288429
-0.00461767
-0.00602989
-0.00720616
-0.00756389
-0.00714605
-0.0087541
-0.00254678
-0.0127002
0.0756102
0.072902
-0.013302
-0.0277158
-0.0160222
-0.0115493
-0.00411432
-0.00222777
0.00154217
-0.0025272
0.000943453
-0.000873209
0.000314084
-7.09008e-05
0.000558328
0.000704461
0.000797565
0.000725344
0.000388396
9.30286e-05
-0.000729183
-0.000216082
-0.000779743
-0.000228577
-0.000576241
-0.000354682
-0.00078114
-0.00127188
-0.000619316
-0.00105107
-0.00343372
0.0030851
-0.00391534
-0.00202943
0.00212086
0.00109487
-0.000379384
0.00168503
-0.00198494
-0.0037942
0.00334867
0.000963522
0.00339001
-0.0151081
0.00906565
-0.0141103
0.00965816
-0.00612229
0.0042008
-0.00112001
-0.000269396
-0.000953694
-0.000425131
-0.000963004
-0.000666127
-0.00105528
-0.000222967
-0.000333126
-0.0011366
-1.14274e-05
-0.000452148
-0.000269414
-0.000543409
-0.000249039
-0.000840293
0.00054248
-0.00254787
0.00196733
-0.00379324
0.00334119
-0.00524535
0.00452496
-0.00599549
-0.024966
-0.0249147
0.00233439
0.0112182
0.0248134
0.0337964
0.0275405
0.00655629
-0.00345999
-0.00865812
-0.0149566
-0.0196067
-0.0251158
-0.0285706
-0.0176074
-0.00565761
0.00220739
0.00693432
0.0105454
0.0145829
0.0157425
0.0153652
0.0117206
0.00707724
0.00216723
-0.000929119
-0.00314989
-0.00561672
-0.00776648
-0.00934154
-0.0101372
-0.00898699
-0.00749742
-0.00558972
-0.00336078
-0.00138612
0.000302719
0.00159155
0.00372873
0.00500369
0.00625239
0.00646547
0.00703463
0.00564666
0.00557791
0.00876401
0.0324141
0.11828
-0.0317432
-0.00839796
-0.00539698
-7.28396e-05
0.000184009
-0.00242971
0.0023871
-0.00286199
9.07785e-05
-0.00206784
-0.00127465
-0.0016652
-0.00190335
-0.00128328
-0.00130599
-0.00155035
-0.00146993
-0.000658589
-0.000319716
-0.000980285
-0.000911363
-0.000622105
-0.00055315
-0.000393991
-0.000948769
-0.000122448
-0.00190744
-0.000971536
-0.00192768
-0.00238868
-0.00453317
0.00367332
-0.00175611
-0.000855141
0.00123723
0.0062956
-0.00272274
-7.72687e-05
5.06564e-06
-0.00709808
0.0048911
-0.0088795
0.00448581
-0.00562102
0.00390967
0.00233759
0.00423999
0.00200323
0.00124605
-0.000112668
0.000402106
-0.0004563
0.000285199
0.00030861
-7.9434e-05
-0.000161355
0.000102036
9.91522e-06
-0.000729877
0.000602169
-0.000526092
0.000624604
-0.000726919
0.000452066
-0.00208801
0.00209749
-0.0033006
0.00325044
-0.00462312
0.00447176
-0.00538344
0.0210989
0.0257768
-0.000952055
-0.00929196
-0.023119
-0.0318221
-0.027717
-0.00877896
0.00182763
0.00661909
0.0124092
0.0167884
0.0209744
0.024147
0.0164617
0.00642602
-0.001388
-0.00543312
-0.00927124
-0.013071
-0.0145758
-0.0151051
-0.0123832
-0.00864285
-0.00424807
-0.000867253
0.000523301
0.00308095
0.00483774
0.00680678
0.00779374
0.00730781
0.00630816
0.00495347
0.00335715
0.00175972
6.66706e-05
-0.00122428
-0.00291683
-0.00429973
-0.00593951
-0.00690398
-0.00747894
-0.00798752
-0.00431828
-0.0144025
0.0798364
0.0351765
0.0102721
-0.0190697
-0.00664129
-0.0132064
-0.00601069
-0.00874357
-0.00185802
-0.00507019
-0.00082005
-0.00236882
-0.00152852
-0.00237739
-0.0014865
-0.000789565
-0.00123979
-0.000529304
-0.000690544
-0.00098075
-0.000714795
-0.000798909
-0.00082077
-0.000626086
-0.000707763
-0.000722722
-0.000955236
-0.00121419
-0.000992499
-0.00097295
-0.00421377
0.000664341
0.000380181
0.00128415
3.14014e-07
0.0215772
-0.00986331
0.00362497
0.0017039
0.00365173
-0.00575905
0.00107043
-0.00450939
0.00112622
-0.00401313
0.00108478
-0.00565062
0.00535419
-0.00154168
0.00312383
0.00159758
-0.000687053
1.15935e-06
-0.00138535
-0.000665813
-0.00070743
-0.000745307
0.000201474
-0.00106773
5.71937e-06
-0.00079277
0.000167565
-0.000958507
5.83109e-05
-0.000685122
-0.000100778
-0.00180091
0.00127469
-0.00309176
0.00262532
-0.00438121
0.00371014
-0.00490726
-0.0168976
-0.0264248
-0.00027558
0.00670128
0.0194563
0.026921
0.0260861
0.0100968
-0.00107532
-0.00510749
-0.0110081
-0.0149706
-0.0186385
-0.0223383
-0.0166131
-0.0081632
-0.000369053
0.00271477
0.00637624
0.00941453
0.0109181
0.0116855
0.0100456
0.00715931
0.00402675
0.000841312
-0.000765138
-0.00237163
-0.00422041
-0.0055151
-0.00671503
-0.00680421
-0.00641426
-0.00556976
-0.00451163
-0.00324048
-0.00189136
-0.000731545
0.000272767
0.00130574
0.00224072
0.0026846
0.00276621
0.00214326
0.00484235
-0.00693953
0.0847832
0.0379791
0.0149857
0.00500823
0.00585775
-0.00470739
0.000738451
-0.00423924
0.00116374
-0.00500928
-0.00150444
-0.00403547
-0.00138358
-0.00105127
-0.00163782
-0.000798585
-0.000869447
-0.000766729
-0.000942104
-0.000675149
-0.000692963
-0.000927865
-0.000533376
-0.000496019
-0.000754198
-0.000520325
-0.00112974
6.96006e-05
-0.00111226
-0.000568001
-2.6389e-05
-0.000868017
-0.0038748
0.00284435
0.00575391
-0.00306139
0.000679125
-0.00662587
0.00218238
-0.00334837
-0.00510615
-0.00389666
-0.00429748
0.00357093
-0.0080694
0.00340403
-0.00364046
0.00493202
-0.00148309
0.00749198
0.00133725
0.000487516
0.000398075
-0.000811787
-0.000998935
-6.6415e-05
-0.000255523
0.000269796
-0.000890277
0.000736596
-0.000977076
0.000804028
-0.000628277
0.000797354
-0.00042917
-0.000135912
-0.00129387
0.000848119
-0.00230276
0.0022397
-0.00364511
0.00338336
-0.00405175
0.0112877
0.0250225
0.00158286
-0.00466092
-0.0164395
-0.0229588
-0.024511
-0.0109393
-0.000733143
0.00327408
0.00828443
0.0116988
0.0140553
0.0168126
0.0134081
0.00711107
0.00113473
-0.00195008
-0.00490159
-0.00760745
-0.0091776
-0.0102749
-0.00963697
-0.00769589
-0.00528806
-0.00274166
-0.000886048
0.000112451
0.00153768
0.00262913
0.00378099
0.00446283
0.00414057
0.00364681
0.00301755
0.0021734
0.00111091
0.000235495
-0.000918215
-0.00177232
-0.00262022
-0.00339887
-0.00230012
-0.00371121
0.000208111
-0.00346031
0.0594789
0.0125109
0.0130438
0.00564668
0.0155457
-0.0115769
0.000366348
-0.00686778
-0.000337777
-0.00225219
-0.000100155
-0.000723235
-0.000642429
-0.00130445
-0.00214678
-0.000698809
-0.00123214
-0.00137091
-0.000450029
-0.000770442
-0.00114428
-0.000939017
-0.000600406
-0.000303652
-9.30645e-05
-2.26897e-05
0.000384066
-0.000436327
-0.000657149
-0.00144001
-0.00241707
-0.00238747
-0.00157659
0.00625746
0.00260817
-0.00194481
0.0037056
-0.0044664
-0.00180876
-0.00429188
0.00156463
-0.00461333
-0.00434826
0.00421761
-0.011616
0.00487937
-0.00370577
-0.00167027
0.00063395
0.00625081
0.000246779
0.000492094
-4.86555e-05
-0.000675966
-0.000514051
-1.73135e-05
-0.00106619
-0.000687676
-0.00111224
0.000625553
-0.000641707
0.00099854
-0.00122126
2.2312e-05
-0.00103247
-0.000176179
-0.000927356
0.000424447
-0.00205976
0.00164006
-0.00319377
0.0030065
-0.00359924
-0.0087134
-0.0234752
-0.00254279
0.00319987
0.0127751
0.0180307
0.0201316
0.0104095
0.00148929
-0.00218489
-0.00656867
-0.00947263
-0.0118504
-0.0141224
-0.0124911
-0.00753228
-0.00259095
0.000220947
0.00243099
0.00456155
0.00590919
0.00668165
0.00659982
0.00543724
0.0038185
0.00221652
0.000483824
-0.000528899
-0.0013417
-0.00224876
-0.00306336
-0.0034052
-0.00448318
-0.00444921
-0.00391125
-0.00367051
-0.00320036
-0.00265186
-0.00221268
-0.00162563
-0.00147109
-0.000931268
-0.00152584
0.00100168
-0.00928432
0.038801
0.036791
0.00786127
0.00330842
0.00708251
0.0190182
-0.00358393
0.00708883
-0.00283699
0.000508332
-0.00234843
-0.00133285
-0.00244333
-0.00230743
-0.00100876
-0.00243504
-0.00177554
-0.000919648
-0.000879157
-0.00162074
-0.00160309
0.000237244
-8.25766e-05
-0.000515078
-0.000570148
0.000219843
-0.000601716
-0.000183564
-0.00132671
-0.00102957
0.00154875
-0.00191206
0.00467878
-0.000668453
-0.00301205
0.0141103
0.0022762
-0.00809907
0.000931304
-0.00420732
0.000220837
-0.00665578
-0.00381691
-0.00124558
-0.00338615
-0.00896781
0.00108838
0.000357629
-0.00122532
0.0044006
0.00578002
0.00339189
0.00191942
-5.57687e-05
0.000404681
-0.000507192
0.000734935
-3.96559e-05
0.00062009
-0.00125104
0.000713542
-0.000931825
0.00082677
-0.000766795
0.00103241
-7.7254e-05
0.00029911
-0.000468418
-0.000121282
-0.00133637
0.00107726
-0.00229921
0.00233987
-0.00286871
0.00378017
0.0196995
0.00327737
-0.00178162
-0.0096971
-0.0140677
-0.0174231
-0.00980165
-0.00250631
0.000796397
0.00435178
0.00672758
0.00812132
0.00982318
0.00861283
0.0053666
0.00193835
-0.000282884
-0.00183999
-0.00361724
-0.00482222
-0.00560935
-0.00591814
-0.00536624
-0.0044323
-0.00322509
-0.00200267
-0.00116648
-0.000441582
0.000114422
0.000746344
0.00118609
0.00139762
0.0022647
0.00232403
0.00177255
0.00116556
0.00057168
1.49999e-05
-0.00109767
-0.00188141
-0.00320514
-0.00415693
-0.00126339
-0.0189806
0.0661043
0.0372536
-0.0136036
0.000675742
-0.00583668
0.0076331
-0.0045331
0.00322064
-0.00430412
-0.00356336
-0.00103686
-0.00379075
-0.00273877
-9.17018e-05
-0.000162194
-0.00209627
0.0010415
-0.000699484
-0.00165782
-0.000263202
-0.000637584
-0.00144819
-0.00211716
-0.000675662
-0.000994814
-0.00105698
-0.00013672
0.000256202
-0.000389823
0.00348759
0.00262672
0.00686263
0.00234961
0.00998318
0.00448108
-0.00496731
-0.0035151
0.0111375
0.00143768
-0.000372401
0.000375626
0.000450547
-2.59789e-05
-0.00130548
-0.00485909
0.00104478
-0.00485724
0.00218567
-0.00404742
0.00334936
0.00281685
0.0032576
0.00213551
-9.87404e-05
-0.000346924
-0.0016304
-0.000637179
-0.00137317
1.70454e-05
-0.000900525
0.000907564
-0.000859489
0.000796439
-0.000873343
0.000434065
-0.000819335
4.4516e-05
-0.00079778
-0.000245595
-0.00132153
0.000571666
-0.00193538
0.00171183
-0.00236014
-0.00347156
-0.016675
-0.00337275
0.00112588
0.00692693
0.0103122
0.0128488
0.00784291
0.00245542
-0.000499925
-0.00295271
-0.00519748
-0.00638744
-0.00776762
-0.00756229
-0.0053329
-0.00288352
-0.000933153
0.000150215
0.00147082
0.00227229
0.00294339
0.00313517
0.00300543
0.00252192
0.00188088
0.00111687
0.000416901
-8.00428e-05
-0.000674063
-0.00107997
-0.00144067
-0.00195843
-0.00206809
-0.00298659
-0.00364624
-0.00342029
-0.00306286
-0.00327423
-0.00331705
-0.00320935
-0.00288942
-0.00450131
0.000703497
-0.0241049
0.0827067
0.0390025
-0.0118729
0.00357079
-0.00357857
0.00510451
-0.00207842
0.00905056
-0.0065577
0.0026686
-0.00149212
-0.00194872
0.000176193
-0.00390371
-0.00151153
-0.000842028
-0.00152129
-0.00177084
-0.000533867
-0.000361012
-0.00170327
-0.000926572
-0.00189434
0.00125336
-0.00195489
0.00494795
0.00208466
0.00753647
0.00368685
0.0101556
0.0022858
0.00428604
0.0108934
-0.00313845
0.00335648
0.00843468
0.00305884
-0.0011591
0.00349559
0.00337901
0.00257014
0.00234733
0.00307411
0.00250957
0.00239148
0.00590095
0.00205552
0.00632344
0.00704622
0.00728246
0.00862042
0.00466134
0.00285919
0.000223846
0.00120098
-0.000252592
0.00167883
-0.000260514
0.000879525
-0.00103363
0.000947231
-0.000616371
0.000965476
-0.000647922
0.000503457
-0.000711898
0.000241735
-0.000480091
-0.000110098
-0.000677276
0.000340672
-0.00122953
0.00155155
-0.00199361
-0.000311359
0.0129296
0.00307365
-0.000365658
-0.00466727
-0.00739498
-0.0100109
-0.00680825
-0.00272613
-0.000374958
0.00160279
0.00303894
0.00402881
0.00483226
0.00442011
0.00295791
0.0013668
0.000350066
-0.000833629
-0.00152626
-0.00220456
-0.00281371
-0.002974
-0.00307997
-0.00287221
-0.00253958
-0.0021212
-0.00168007
-0.00131717
-0.000936
-0.000512755
-0.000165704
0.000157938
0.000623883
0.000863273
0.00103705
0.00135877
0.00108715
0.00115535
0.000906917
0.000321297
0.000351248
-0.00110417
0.00303531
-0.016044
0.0628965
0.0344755
-0.00798211
-0.00187734
0.000415671
0.00199543
0.00298052
0.0045466
-0.0044429
-0.00265855
-0.00440344
-0.00467794
-0.00102859
-0.00170294
-0.000223523
-0.000114746
-0.000747155
0.00121011
0.000767781
0.00246081
-0.000371923
0.00332962
0.00522532
0.0116262
0.00243015
0.0116521
0.00309502
0.00420944
0.000586389
7.06603e-05
0.00252019
-0.00210074
0.00100923
0.000111972
0.00250604
0.00371204
0.00242904
0.00527075
0.00482911
0.00474906
0.0035638
0.00321882
0.00362327
0.0031503
0.00783484
0.00280184
0.0116366
-0.00209854
0.00526874
0.00192669
0.00419241
0.00397672
0.00151051
-0.000156404
0.000479157
-0.000327713
0.000628632
-0.000965899
0.000693671
-0.000838577
0.000730022
-0.000486037
0.000601993
-0.000727621
0.000289696
-0.000680981
0.000278179
-0.000468796
0.000158045
-0.000698776
0.000134162
-0.0012388
0.00105611
-0.00180558
-0.000919485
-0.0097524
-0.00278245
-7.01072e-05
0.00303296
0.0049689
0.00669258
0.00469161
0.00196747
0.00031071
-0.00114144
-0.0023731
-0.00297303
-0.00380186
-0.00386783
-0.00311376
-0.00208171
-0.00121344
-0.000567024
-5.20046e-05
0.000411321
0.000810342
0.000925748
0.00104727
0.00105882
0.000950354
0.000786311
0.000563538
0.000331515
0.000119475
-0.000201622
-0.000533311
-0.000820235
-0.00118372
-0.00158249
-0.00200695
-0.00215838
-0.00225983
-0.00207855
-0.00178021
-0.00175932
-0.000771381
-0.00167291
0.00352317
-0.0139752
0.0568394
0.0394927
-0.00822977
-0.00043044
-0.00332685
0.00335523
0.000323269
-0.000309035
0.00943453
-0.00882653
-0.000205977
-0.00391544
-0.000781049
-0.00198598
-0.000468702
0.00148172
-0.00483362
0.00674695
-0.00159671
0.0124695
0.00228483
0.0119286
0.00146856
0.00292069
0.000561308
0.00157059
0.00159484
0.00160834
0.000915719
0.00128821
0.00131063
-0.000496582
0.00227472
0.000387768
0.00231975
0.00252956
0.00293222
0.00351947
0.00372994
0.00297576
0.0069419
0.00668696
0.00827605
0.0085925
0.00523229
0.00448724
0.00129678
0.00520073
0.00481297
0.0058746
0.00685822
0.00440668
0.00127492
0.000156893
0.000680484
0.0001015
0.000771246
-0.000466177
0.000815119
-0.00048336
0.00069879
-0.00052028
0.000464603
-0.000475847
0.000355618
-0.000430527
0.000194474
-0.000428411
4.88377e-05
-0.000360758
-0.000109754
-0.000973846
0.000867555
-0.00150459
-0.00198754
0.0072174
0.00206335
0.000298591
-0.00183571
-0.00324638
-0.0047205
-0.00382005
-0.00200028
-0.000613516
0.000188826
0.00096779
0.00160963
0.00187819
0.00176007
0.00116644
0.000521186
3.96513e-05
-0.00037649
-0.000856537
-0.00114143
-0.00146112
-0.00155756
-0.00165343
-0.00167674
-0.00167287
-0.00165667
-0.00160466
-0.00145932
-0.00122855
-0.000905246
-0.00052086
-0.000112234
0.000243848
0.000859644
0.00141418
0.00200825
0.00259168
0.00289011
0.00296918
0.00310878
0.00393107
0.00180883
0.00631256
-0.00971682
0.0366916
0.0423685
-0.013567
0.00176488
-0.000589209
0.00319315
0.00262202
-0.0003195
0.00477137
0.0014882
0.00412774
-0.00340979
0.000814568
-0.00132052
-6.37039e-05
0.00558426
-0.000827497
0.00784111
-0.000351678
0.0054443
-0.00247312
0.00238718
0.000401468
-0.00228665
0.00193052
-0.00181263
-0.00193949
-0.00171472
-0.00261608
-0.00216073
-0.00165598
-0.00254004
-0.00116971
-0.00148902
-0.000412092
-0.000223656
0.000602113
0.000400822
0.00135641
0.000664919
0.00146217
0.00010489
0.000757149
-0.000775022
0.00163326
0.00405
0.00585508
0.00460145
0.00680699
0.00295359
0.0029528
-0.00121715
0.0014152
0.000178901
0.000998857
-0.000118218
0.000822731
-0.000701171
0.000640632
-0.000613888
0.000667439
-0.000516949
0.00037365
-0.00039
0.000328246
-0.00041688
8.30514e-05
-0.00047829
1.39275e-05
-0.000179407
-0.000253691
-0.000797776
0.000486512
-0.00129671
-0.00010218
-0.00487472
-0.00178488
-0.000466319
0.000999958
0.00191839
0.00283778
0.00223122
0.00108055
0.000377266
-0.000482065
-0.000917188
-0.00129894
-0.0017156
-0.00181311
-0.00163033
-0.00127691
-0.000916875
-0.000762687
-0.000624969
-0.000331442
-0.000162071
-0.000155475
-1.06614e-05
7.93125e-05
0.000150839
0.000196533
0.000240128
0.000264391
0.000217877
8.1128e-05
-7.3114e-05
-0.000295357
-0.000591946
-0.000873754
-0.00131533
-0.00153751
-0.00175526
-0.00184825
-0.00165389
-0.00149852
-0.000716965
0.000331728
0.00484588
0.00324518
0.0307328
0.0429041
-0.0130284
0.000463569
-0.00350417
-0.00450612
-0.0037281
-0.00399142
0.00195907
0.00200203
0.00703529
0.00496041
0.0078976
0.00901645
0.00766328
0.00560435
0.00627895
0.00275081
-0.00241518
0.00372283
-0.00178798
0.00217183
-0.00209349
0.00170073
-0.000779072
-0.00163308
0.00129844
-0.000973505
0.00120098
0.000115487
0.000760457
6.92796e-05
0.0017836
0.00036664
0.00152664
0.000463648
0.00124546
0.000178686
0.000897835
0.000443541
0.00134425
0.00143838
0.0025282
0.00149355
0.00104612
-0.000616922
-0.00119681
-0.00103545
0.00250446
0.00135245
0.00207833
0.00166409
0.00244509
-0.000164959
0.00121399
-0.00026955
0.000982934
-0.000611221
0.000615593
-0.000157738
0.000472675
-0.000413315
0.000323051
-0.000180085
0.000172607
-0.000271979
-6.45583e-05
-0.000271691
-3.96842e-05
-1.69805e-05
-0.000517245
-0.000521054
0.000221242
-0.000926773
-0.00216695
0.00345535
0.00113752
0.000331204
-0.000556972
-0.00122658
-0.0018338
-0.00179662
-0.00116021
-0.000593744
-0.000204053
8.7723e-05
0.000352285
0.000455268
0.000392821
0.00016323
-2.09257e-05
-0.000171413
-0.000476262
-0.00070327
-0.000827605
-0.00094021
-0.00102313
-0.00109778
-0.00114235
-0.00111332
-0.00121731
-0.00130629
-0.00131578
-0.00118055
-0.000917501
-0.000549755
-0.000174674
0.000248608
0.00115213
0.00212621
0.00335854
0.00467108
0.00547875
0.00761951
0.00990422
0.0129543
0.0101016
0.0137143
-0.0067518
0.0418552
0.059016
-0.0288749
0.00338136
-0.00142867
0.00507154
0.000517239
0.00571428
0.00183895
0.00498499
0.00458628
0.00726707
0.00256015
0.00498775
0.00180711
0.00251561
0.00235591
0.00143749
0.00132407
-0.000246294
0.00143343
-0.00224266
0.00195277
-0.00242358
0.00113654
-0.0029151
-5.38252e-05
-0.00163389
-0.000918092
-0.000907775
-0.00136977
-0.00146846
-0.00183317
-0.00180034
-0.00111917
-0.00156905
-0.000957648
-0.0010174
-0.000362929
-0.000474011
-0.000201179
-0.000860238
-0.000865299
-0.000940201
0.000755307
0.000398281
0.00315469
0.00190428
0.00322521
0.00171183
0.00205361
0.00207422
0.000387881
-4.36752e-05
0.00106412
-0.00021074
0.00133492
-0.000534341
0.000580315
-0.000319935
0.000333348
-0.00036926
0.000260993
-0.000140786
9.97948e-05
-0.000210248
-4.18119e-05
-0.00020921
-3.85969e-05
2.29835e-05
-0.000580049
-0.000302816
-3.58923e-05
-0.000654427
-0.000275311
-0.00202901
-0.000978329
-0.000349427
0.000139673
0.000563413
0.000915009
0.000807767
0.000462726
0.000166331
-0.000316222
-0.000433296
-0.000616527
-0.000823098
-0.000868128
-0.000860959
-0.000856975
-0.00073419
-0.000712939
-0.000669977
-0.000641857
-0.000568501
-0.000557079
-0.000509054
-0.000407408
-0.000408808
-0.000277637
-0.000143834
-4.31282e-05
5.4393e-05
0.000101459
2.89095e-05
-9.08376e-05
-0.000214035
-0.00038721
-0.000765226
-0.00116329
-0.00149645
-0.00178393
-0.00271364
-0.00330208
-0.00364171
-0.00348476
-0.00164703
-0.000217948
0.0270568
0.0627677
0.028229
-0.00435851
0.0080478
0.000772477
0.00936365
0.00643654
0.00735191
0.00491593
0.00658608
0.00436128
0.0067881
-0.00251122
0.0108843
-0.00276606
0.00754026
0.000774642
0.00122896
0.00159954
-0.00189697
0.00259568
-0.00197389
0.000281896
-0.00158711
0.000768407
-0.00245398
0.000411966
-0.000495437
-0.00105846
-0.00110175
-0.000976287
-0.00112766
-0.00170912
-0.00146747
-0.00161128
-0.00107393
-0.000848428
-0.000599967
-0.000406068
-0.000443093
0.000267731
0.000443071
5.16501e-05
0.000102907
-7.32311e-05
0.000854325
0.000695884
0.00159124
0.00197967
0.000549593
0.00306586
-0.000801377
0.00048372
0.00122675
-0.000202555
0.00108585
-0.00100902
0.000469054
-9.67332e-06
0.000452647
-0.000150563
0.000296098
-0.000103624
2.5405e-05
-4.33568e-05
-0.000176011
-8.32601e-05
-0.000264003
0.000176779
-0.000833279
-1.50469e-05
-0.000321962
-0.000347784
-0.00175928
0.00136099