/*--------------------------------*- C++ -*----------------------------------*\
| =========                 |                                                 |
| \\      /  F ield         | OpenFOAM: The Open Source CFD Toolbox           |
|  \\    /   O peration     | Version:  2.2.x                                 |
|   \\  /    A nd           | Web:      www.OpenFOAM.org                      |
|    \\/     M anipulation  |                                                 |
\*---------------------------------------------------------------------------*/
FoamFile
{
    version     2.0;
    format      ascii;
    class       volVectorField;
    location    "0.05";
    object      U;
}
// * * * * * * * * * * * * * * * * * * * * * * * * * * * * * * * * * * * * * //

dimensions      [0 1 -1 0 0 0 0];

internalField   nonuniform List<vector> 
14161
(
(1.5 2.05623e-17 6.03907e-23)
(1.5 -1.1376e-16 1.32777e-22)
(1.5 9.97637e-17 3.93297e-22)
(1.5 -1.0256e-16 1.54829e-22)
(1.5 -6.31414e-17 2.26673e-22)
(1.5 1.26245e-16 -7.37239e-23)
(1.5 3.57163e-17 6.74902e-22)
(1.5 3.48165e-16 1.6068e-22)
(1.5 1.09199e-16 6.73071e-22)
(1.5 -2.06248e-16 -1.37695e-22)
(1.5 -4.89369e-17 -1.37622e-22)
(1.5 -8.64972e-17 -4.02024e-22)
(1.5 -1.2559e-16 -1.14043e-22)
(1.5 1.99697e-17 1.19086e-22)
(1.5 7.82018e-18 2.1292e-22)
(1.5 4.56737e-17 4.16898e-22)
(1.5 -2.89469e-17 4.5662e-22)
(1.5 -1.13456e-16 9.95403e-23)
(1.5 -4.04712e-17 -2.53488e-24)
(1.5 1.71309e-18 -4.25827e-22)
(1.5 7.75917e-17 -5.82671e-22)
(1.5 -3.12337e-17 -5.87837e-22)
(1.5 -6.72341e-17 -8.45129e-22)
(1.5 1.1773e-16 -8.80551e-22)
(1.5 -8.69993e-17 -8.54359e-22)
(1.5 -9.72091e-17 -6.81476e-22)
(1.5 1.55307e-16 -7.32082e-22)
(1.5 -3.87637e-17 -5.14501e-22)
(1.5 -5.21843e-17 -2.69768e-22)
(1.5 -2.98062e-17 3.25166e-23)
(1.5 -5.35411e-17 7.85728e-23)
(1.5 -1.70005e-16 6.23561e-23)
(1.5 -1.09542e-16 7.52648e-23)
(1.5 -8.25646e-17 6.44349e-23)
(1.5 6.19683e-17 7.19915e-24)
(1.5 2.1302e-17 1.21816e-23)
(1.5 -1.21172e-16 -3.41152e-23)
(1.5 9.94365e-17 4.80354e-24)
(1.5 2.00448e-17 -8.90004e-24)
(1.5 -3.66509e-17 2.92112e-23)
(1.5 3.42411e-17 3.19278e-24)
(1.5 9.85906e-17 1.19464e-23)
(1.5 -1.97019e-16 5.45133e-23)
(1.5 -5.81729e-17 9.01382e-23)
(1.5 -1.23539e-16 1.04614e-22)
(1.5 -1.96075e-16 6.10933e-22)
(1.5 2.78772e-16 8.58867e-22)
(1.5 -1.51189e-16 1.29877e-21)
(1.5 6.40742e-17 1.64137e-21)
(1.5 4.93735e-17 1.01678e-21)
(1.5 -7.33382e-17 1.42899e-21)
(1.5 -2.18896e-16 1.16957e-21)
(1.5 -1.67333e-16 1.13794e-21)
(1.5 9.14606e-17 9.93185e-22)
(1.5 1.85452e-16 9.61047e-22)
(1.5 1.38728e-16 9.4977e-22)
(1.5 1.06796e-16 1.02688e-21)
(1.5 9.9049e-17 1.01671e-21)
(1.5 -3.78594e-16 5.67574e-22)
(1.5 9.54089e-17 4.43501e-22)
(1.5 -1.80111e-16 3.79981e-22)
(1.5 -7.9905e-17 3.54855e-22)
(1.5 -7.64264e-16 -3.31845e-23)
(1.5 -1.54328e-15 3.51832e-22)
(1.5 -4.12364e-15 1.79063e-22)
(1.5 -1.20886e-14 -3.74066e-23)
(1.5 -3.2541e-14 2.75713e-22)
(1.5 -8.72849e-14 5.60929e-22)
(1.5 -2.2113e-13 7.76365e-22)
(1.5 -5.57856e-13 5.6244e-22)
(1.5 -1.37488e-12 6.36933e-22)
(1.5 -3.35494e-12 8.83376e-22)
(1.5 -7.93787e-12 1.18828e-21)
(1.5 -1.91651e-11 6.2207e-22)
(1.5 -4.22041e-11 1.04003e-21)
(1.5 -1.05759e-10 8.57804e-22)
(1.5 -1.99631e-10 8.30395e-22)
(1.5 -5.93947e-10 7.85004e-22)
(1.5 -6.91397e-10 6.11808e-22)
(1.5 -4.01787e-09 1.00606e-21)
(1.5 1.78682e-09 9.40207e-22)
(1.50001 -3.07753e-08 1.8698e-22)
(1.50001 -7.72369e-10 9.4436e-22)
(1.50001 -1.13017e-08 6.53502e-22)
(1.50002 -1.25747e-07 1.77805e-22)
(1.50002 -8.6623e-08 9.90784e-23)
(1.50002 -8.75223e-08 -2.02899e-22)
(1.50001 -1.10634e-07 7.83772e-23)
(1.5 -1.75719e-07 -3.68659e-22)
(1.49998 -2.25694e-07 3.08469e-22)
(1.49995 -5.5745e-07 4.65003e-23)
(1.49991 -4.74621e-07 5.81005e-22)
(1.49989 -5.28402e-07 7.11131e-23)
(1.49988 -1.56588e-06 4.49688e-22)
(1.49987 -7.65301e-07 7.71243e-22)
(1.49989 -7.07152e-07 8.46611e-22)
(1.49997 -1.43436e-06 9.36625e-22)
(1.50013 5.71538e-08 6.7884e-22)
(1.50043 -1.12768e-05 1.20088e-21)
(1.5009 1.09841e-05 5.45869e-22)
(1.5016 -5.55991e-05 2.12118e-21)
(1.50251 5.57079e-05 9.06448e-22)
(1.49322 0.000940818 -1.08392e-23)
(0.607386 0.00812778 -1.18262e-21)
(0.33181 0.00994153 -2.06692e-21)
(0.261219 0.0115501 -2.46293e-21)
(0.224971 0.0129917 -5.21567e-21)
(0.195269 0.0119047 -3.84289e-21)
(0.177877 0.00985542 -3.44716e-21)
(0.166679 0.00841952 -8.44481e-21)
(0.150529 0.00797793 -4.94155e-21)
(0.129471 0.00838694 -9.17556e-21)
(0.110141 0.00921113 -3.92999e-21)
(0.0933963 0.00949536 -8.24155e-21)
(0.0793713 0.00975592 -1.4892e-21)
(0.0630983 0.0095495 -9.73513e-21)
(0.0442336 0.0102705 -1.16393e-20)
(0.023372 0.0102245 -3.38012e-21)
(0.0122821 0.0109216 -5.97495e-21)
(1.5 2.78946e-17 7.51609e-23)
(1.5 -2.77422e-17 5.05426e-22)
(1.5 -1.05304e-16 5.35701e-22)
(1.5 2.87107e-17 3.45653e-23)
(1.5 -2.15047e-16 2.66047e-22)
(1.5 -2.39005e-16 1.1873e-22)
(1.5 8.87121e-17 3.09678e-22)
(1.5 5.18273e-17 2.18156e-22)
(1.5 1.76406e-16 5.95301e-22)
(1.5 -1.26977e-18 -1.03574e-22)
(1.5 1.53399e-16 -1.03373e-22)
(1.5 8.43498e-17 -6.65285e-22)
(1.5 -7.38537e-17 8.44877e-23)
(1.5 5.32848e-17 -2.31978e-24)
(1.5 3.17351e-17 2.05451e-22)
(1.5 1.56922e-16 5.30297e-22)
(1.5 1.72228e-16 6.72487e-22)
(1.5 -2.13839e-16 -5.89575e-23)
(1.5 7.83629e-17 1.43972e-22)
(1.5 6.02024e-17 -4.87639e-22)
(1.5 -1.33953e-16 -5.00359e-22)
(1.5 -3.33701e-16 -7.6871e-22)
(1.5 2.35757e-16 -9.18573e-22)
(1.5 -7.91321e-17 -8.2587e-22)
(1.5 -2.40923e-16 -7.47936e-22)
(1.5 -1.38105e-16 -5.91167e-22)
(1.5 -1.64113e-17 -7.34861e-22)
(1.5 4.65854e-17 -2.61148e-22)
(1.5 -5.89121e-17 -5.35591e-23)
(1.5 -5.37017e-17 2.97286e-22)
(1.5 -3.23225e-16 7.55473e-23)
(1.5 -2.44278e-16 3.18156e-22)
(1.5 -2.62801e-16 1.97717e-22)
(1.5 1.14383e-16 7.42813e-23)
(1.5 3.39784e-16 2.11764e-23)
(1.5 1.98227e-16 1.86842e-22)
(1.5 -1.21362e-17 1.77499e-23)
(1.5 -1.07737e-16 9.68989e-23)
(1.5 3.91251e-17 9.74047e-23)
(1.5 -2.27154e-16 1.15845e-22)
(1.5 1.24537e-16 8.9751e-23)
(1.5 -1.41579e-17 1.7549e-22)
(1.5 1.18599e-16 1.46839e-22)
(1.5 2.08351e-16 1.02651e-22)
(1.5 3.25411e-16 2.44392e-22)
(1.5 -1.51527e-16 -5.46682e-23)
(1.5 3.42255e-17 1.46107e-21)
(1.5 1.47386e-16 1.2769e-21)
(1.5 -1.6071e-16 3.38745e-22)
(1.5 2.42139e-16 7.97953e-22)
(1.5 4.14857e-17 4.31076e-22)
(1.5 5.9365e-17 4.52602e-22)
(1.5 -3.75001e-16 1.03286e-22)
(1.5 -2.26426e-16 3.40359e-22)
(1.5 2.79772e-16 4.83358e-22)
(1.5 1.94854e-17 1.47876e-21)
(1.5 3.09744e-16 1.00573e-21)
(1.5 -1.22454e-16 4.13457e-22)
(1.5 -1.26467e-16 6.23481e-22)
(1.5 -3.2032e-16 -1.2983e-22)
(1.5 -5.87502e-16 1.68375e-22)
(1.5 3.1069e-16 2.77649e-22)
(1.5 -1.88267e-15 6.24347e-22)
(1.5 -2.78987e-15 1.42441e-21)
(1.5 -7.85318e-15 -4.08568e-22)
(1.5 -2.57985e-14 1.3307e-21)
(1.5 -6.43129e-14 1.05202e-21)
(1.5 -1.76049e-13 1.50534e-21)
(1.5 -4.46331e-13 8.8827e-22)
(1.5 -1.12329e-12 8.363e-22)
(1.5 -2.74775e-12 6.00536e-22)
(1.5 -6.61482e-12 9.72492e-22)
(1.5 -1.54874e-11 1.1339e-21)
(1.5 -3.61697e-11 1.00203e-21)
(1.5 -7.9608e-11 1.06781e-21)
(1.5 -1.84358e-10 1.31668e-21)
(1.5 -3.74945e-10 9.73002e-22)
(1.5 -9.60828e-10 8.92031e-22)
(1.5 -1.4257e-09 5.98027e-22)
(1.5 -6.23629e-09 1.39167e-21)
(1.5 1.39146e-09 7.21395e-22)
(1.50001 -4.57918e-08 1.21358e-22)
(1.50001 -4.29305e-08 1.64982e-21)
(1.50001 -2.29914e-08 7.56729e-22)
(1.50002 -2.22221e-07 7.15866e-25)
(1.50002 -2.79127e-07 9.64922e-22)
(1.50001 -2.70171e-07 -5.52238e-22)
(1.50001 -4.49364e-07 -1.80289e-22)
(1.5 -4.96469e-07 1.87499e-21)
(1.49998 -1.27517e-06 2.18215e-22)
(1.49995 -4.42555e-07 -2.6745e-22)
(1.49991 -2.79502e-06 8.88699e-22)
(1.49989 -1.61162e-06 -3.80414e-22)
(1.49988 -3.04453e-06 -4.60212e-23)
(1.49987 -2.28241e-06 2.71749e-21)
(1.49989 -3.05214e-06 9.85666e-22)
(1.49996 -4.39632e-06 1.0233e-21)
(1.50012 -2.52823e-06 -1.96261e-22)
(1.50041 -1.68483e-05 2.01604e-21)
(1.50087 -4.78018e-06 9.83339e-22)
(1.50161 -5.78302e-05 1.96657e-21)
(1.50231 8.34501e-05 -5.22676e-22)
(1.47758 0.00217492 3.54256e-22)
(0.596999 0.0239272 3.86088e-21)
(0.327076 0.0302827 3.44642e-21)
(0.259743 0.0331625 8.94232e-21)
(0.22383 0.0361591 1.25493e-20)
(0.194347 0.0352213 1.07518e-20)
(0.175374 0.0304679 9.15068e-21)
(0.164465 0.025788 6.55075e-21)
(0.149357 0.0235343 1.39617e-20)
(0.129406 0.0241694 5.15384e-21)
(0.109654 0.0271397 7.08479e-21)
(0.0927833 0.0286963 6.51498e-21)
(0.0782254 0.0296467 2.97871e-21)
(0.0628639 0.0285796 1.00897e-21)
(0.0448656 0.030482 3.0129e-21)
(0.0245799 0.0304624 -6.85136e-21)
(0.0132603 0.0332138 -1.34042e-20)
(1.5 -1.18756e-16 1.65089e-22)
(1.5 1.35254e-16 -1.25942e-23)
(1.5 -1.24229e-18 1.99046e-22)
(1.5 -1.71792e-16 3.4561e-22)
(1.5 -6.8454e-17 3.60814e-22)
(1.5 -6.55054e-17 9.5874e-23)
(1.5 1.46082e-16 2.43829e-22)
(1.5 2.15182e-16 1.772e-22)
(1.5 -1.39201e-16 4.69005e-22)
(1.5 1.6636e-16 4.855e-23)
(1.5 -2.49697e-17 2.59128e-23)
(1.5 8.64386e-17 -9.28758e-22)
(1.5 3.65699e-16 1.09736e-22)
(1.5 2.10749e-16 5.42522e-22)
(1.5 9.74813e-17 1.38182e-21)
(1.5 -7.4535e-17 8.33866e-22)
(1.5 2.23652e-16 9.29809e-22)
(1.5 8.54961e-17 4.66261e-22)
(1.5 -2.21018e-16 5.00221e-22)
(1.5 -5.91889e-17 1.82412e-22)
(1.5 1.27749e-16 -6.44808e-22)
(1.5 1.7618e-16 -1.0693e-21)
(1.5 6.66468e-17 -1.01965e-23)
(1.5 1.13667e-16 -6.20442e-22)
(1.5 -8.58512e-17 -1.33756e-21)
(1.5 3.52909e-17 -5.99917e-22)
(1.5 3.86139e-17 -1.47519e-22)
(1.5 -1.57782e-17 9.74882e-23)
(1.5 1.47809e-17 3.94118e-22)
(1.5 -1.45664e-16 7.38093e-22)
(1.5 -3.7898e-16 3.70403e-22)
(1.5 -1.83363e-16 6.27332e-22)
(1.5 -1.966e-16 3.58263e-22)
(1.5 6.67113e-17 5.37382e-22)
(1.5 -1.26267e-16 1.41713e-22)
(1.5 1.59406e-16 3.77901e-22)
(1.5 -2.29196e-17 2.95087e-22)
(1.5 3.44797e-17 3.09259e-22)
(1.5 8.83151e-18 3.20118e-22)
(1.5 8.88277e-17 3.35958e-22)
(1.5 -1.33943e-16 2.72434e-22)
(1.5 2.05221e-16 4.08904e-22)
(1.5 1.59363e-16 4.27862e-22)
(1.5 -1.70041e-16 3.87925e-22)
(1.5 2.36007e-16 6.89647e-22)
(1.5 -2.41923e-17 1.326e-21)
(1.5 -9.12921e-17 1.6239e-21)
(1.5 9.85639e-17 1.22364e-21)
(1.5 5.25329e-16 1.84442e-21)
(1.5 4.01415e-17 1.28912e-21)
(1.5 1.49973e-16 5.32647e-22)
(1.5 -1.78614e-16 1.26351e-21)
(1.5 -9.21372e-17 8.95735e-22)
(1.5 6.41224e-17 9.98739e-22)
(1.5 6.01676e-17 1.06398e-21)
(1.5 1.39779e-16 -5.31111e-22)
(1.5 -2.35908e-18 8.39502e-22)
(1.5 1.15204e-16 -1.61701e-22)
(1.5 1.21882e-16 1.17002e-21)
(1.5 -1.19826e-16 1.19996e-21)
(1.5 2.00637e-16 -1.11457e-21)
(1.5 -1.75699e-15 2.14034e-21)
(1.5 -1.26527e-15 2.04539e-21)
(1.5 -6.21629e-15 -7.65049e-22)
(1.5 -1.73534e-14 3.04687e-22)
(1.5 -4.01209e-14 5.81978e-22)
(1.5 -1.18013e-13 1.05468e-21)
(1.5 -2.84599e-13 1.745e-21)
(1.5 -7.24714e-13 2.3676e-21)
(1.5 -1.78974e-12 1.80731e-21)
(1.5 -4.33663e-12 9.89926e-22)
(1.5 -1.05061e-11 1.50016e-21)
(1.5 -2.47182e-11 2.55524e-21)
(1.5 -5.88957e-11 1.40349e-21)
(1.5 -1.33152e-10 1.15682e-21)
(1.5 -3.21995e-10 2.79045e-21)
(1.5 -6.50187e-10 6.54309e-22)
(1.5 -1.77089e-09 9.0662e-22)
(1.5 -2.33908e-09 2.61947e-22)
(1.5 -1.16405e-08 2.33211e-21)
(1.5 3.556e-10 2.00362e-22)
(1.50001 -7.02931e-08 5.91496e-22)
(1.50001 -7.195e-08 -8.49015e-23)
(1.50001 -1.32425e-07 1.65751e-21)
(1.50002 -2.87295e-07 3.31023e-22)
(1.50001 -3.58279e-07 -1.23497e-21)
(1.50001 -3.92121e-07 1.19379e-21)
(1.50001 -6.28105e-07 -2.54055e-21)
(1.49999 -4.70689e-07 -6.83281e-22)
(1.49997 -2.33677e-06 6.39423e-22)
(1.49994 -2.93058e-07 -2.50267e-21)
(1.4999 -1.82073e-06 3.38801e-21)
(1.49988 -3.75017e-06 1.15251e-21)
(1.49987 -4.83361e-06 3.87679e-21)
(1.49986 -3.16918e-06 1.50014e-21)
(1.49988 -5.02346e-06 2.58752e-22)
(1.49995 -6.42971e-06 1.96473e-21)
(1.5001 -4.34842e-06 7.10552e-22)
(1.50038 -1.58953e-05 -2.63136e-22)
(1.50079 -2.2322e-05 -5.15459e-23)
(1.50147 -2.03281e-05 1.95884e-21)
(1.5021 0.000303243 1.26602e-21)
(1.46076 0.0052508 8.46068e-22)
(0.57888 0.0456114 4.47436e-22)
(0.320116 0.0516193 2.06968e-21)
(0.259827 0.0562208 -4.6607e-21)
(0.225428 0.0593539 1.54767e-20)
(0.196178 0.0572687 1.36665e-20)
(0.176064 0.0513001 3.33719e-20)
(0.163569 0.044312 2.25672e-20)
(0.149478 0.0404033 2.46763e-20)
(0.131065 0.0403651 2.81357e-20)
(0.111204 0.0446051 3.70553e-20)
(0.0937239 0.0472491 4.0265e-20)
(0.0782034 0.0493644 2.83136e-20)
(0.0626773 0.0481722 6.52318e-20)
(0.0460176 0.0508736 5.54917e-20)
(0.0264547 0.0502108 4.50012e-20)
(0.0148912 0.0552091 5.43763e-20)
(1.5 -1.08723e-16 -1.57859e-22)
(1.5 1.77802e-16 3.25888e-22)
(1.5 2.46662e-16 4.00032e-22)
(1.5 -1.31032e-16 7.24897e-22)
(1.5 1.69372e-17 1.67998e-22)
(1.5 -2.96277e-16 -2.97969e-23)
(1.5 6.07596e-17 1.89018e-22)
(1.5 2.6744e-16 1.01663e-22)
(1.5 -1.70058e-17 2.04014e-22)
(1.5 1.80475e-16 -8.21248e-23)
(1.5 1.96345e-16 -7.98868e-22)
(1.5 3.90215e-16 -4.80083e-22)
(1.5 5.74561e-17 4.38264e-22)
(1.5 2.17665e-16 9.69202e-22)
(1.5 -4.42825e-17 1.80019e-21)
(1.5 -4.34276e-17 1.29817e-21)
(1.5 -4.55579e-17 1.10277e-21)
(1.5 -1.5768e-16 1.02203e-21)
(1.5 -1.8742e-16 -6.26037e-22)
(1.5 -1.83765e-16 1.0705e-21)
(1.5 1.24433e-16 8.15733e-22)
(1.5 2.4947e-16 1.27227e-21)
(1.5 3.67747e-17 3.85568e-22)
(1.5 -1.07137e-17 1.18377e-21)
(1.5 8.03395e-17 9.83305e-22)
(1.5 7.77714e-17 3.99962e-22)
(1.5 -1.22879e-17 1.61732e-21)
(1.5 1.30973e-16 2.38942e-21)
(1.5 1.82905e-16 1.7157e-21)
(1.5 5.33331e-18 3.5988e-22)
(1.5 -2.74718e-16 9.11354e-22)
(1.5 -1.88561e-16 8.62079e-22)
(1.5 -1.24317e-16 8.41269e-22)
(1.5 -1.37194e-16 6.16072e-22)
(1.5 -1.42847e-16 6.26942e-22)
(1.5 7.99231e-17 7.52141e-22)
(1.5 2.59426e-16 6.46241e-22)
(1.5 -4.21158e-17 7.27473e-22)
(1.5 7.99926e-17 7.9608e-22)
(1.5 -1.34094e-16 5.48748e-22)
(1.5 -1.04273e-16 5.96091e-22)
(1.5 -1.87065e-16 5.55115e-22)
(1.5 1.87025e-16 6.70849e-22)
(1.5 1.07474e-17 5.57163e-22)
(1.5 -1.64087e-16 4.60042e-22)
(1.5 2.65789e-16 1.05783e-22)
(1.5 1.03751e-16 3.69576e-22)
(1.5 2.16705e-16 -3.28036e-22)
(1.5 3.67054e-17 -5.60267e-22)
(1.5 4.3391e-16 2.58337e-22)
(1.5 -1.80705e-16 -1.59473e-22)
(1.5 1.29247e-16 1.08211e-21)
(1.5 2.77316e-16 8.07061e-23)
(1.5 -3.18571e-17 1.3786e-21)
(1.5 1.2083e-16 4.4149e-22)
(1.5 1.11211e-16 2.57882e-21)
(1.5 -1.11626e-16 2.81669e-21)
(1.5 -1.36461e-16 2.24353e-21)
(1.5 -3.84471e-17 2.53882e-21)
(1.5 1.40725e-16 2.24555e-21)
(1.5 -7.95404e-16 3.34808e-21)
(1.5 -8.76843e-16 3.35115e-21)
(1.5 -3.70246e-15 2.06506e-21)
(1.5 -9.02866e-15 4.42892e-21)
(1.5 -2.17359e-14 3.42281e-21)
(1.5 -6.26936e-14 4.18993e-21)
(1.5 -1.51363e-13 3.1991e-21)
(1.5 -3.99917e-13 1.9543e-21)
(1.5 -1.00305e-12 3.14787e-21)
(1.5 -2.47297e-12 -9.2829e-22)
(1.5 -6.10105e-12 3.40639e-22)
(1.5 -1.45605e-11 3.92165e-22)
(1.5 -3.45183e-11 2.43557e-21)
(1.5 -8.07665e-11 1.12199e-21)
(1.5 -1.82541e-10 9.4504e-22)
(1.5 -4.29852e-10 1.34164e-21)
(1.5 -8.86452e-10 5.7333e-22)
(1.5 -2.31517e-09 1.12647e-21)
(1.5 -3.64133e-09 1.52505e-21)
(1.5 -1.28391e-08 3.00571e-22)
(1.5 -1.44986e-08 2.42329e-22)
(1.50001 -4.68037e-08 -1.89791e-21)
(1.50001 -1.5282e-07 2.70017e-21)
(1.50001 -2.60143e-07 -4.53847e-26)
(1.50001 -2.62116e-07 -1.32296e-21)
(1.50001 -4.4665e-07 3.19384e-21)
(1.50001 -5.88889e-07 5.0172e-22)
(1.5 -9.77912e-07 -5.37052e-22)
(1.49999 -5.46035e-07 6.88174e-21)
(1.49996 -3.13316e-06 4.10185e-21)
(1.49992 -1.59017e-06 4.47879e-21)
(1.4999 -2.73155e-07 8.58059e-21)
(1.49987 -5.44418e-06 2.34235e-21)
(1.49986 -5.92811e-06 4.05192e-21)
(1.49985 -4.21542e-06 1.37853e-21)
(1.49987 -6.95755e-06 -7.49439e-22)
(1.49993 -9.3034e-06 -8.08705e-23)
(1.50007 -9.2825e-06 1.08987e-21)
(1.50033 -1.1213e-05 1.07031e-21)
(1.50068 -3.54773e-05 3.02865e-22)
(1.50126 -4.12256e-05 8.68218e-22)
(1.50212 0.000565314 1.43926e-21)
(1.43488 0.00830968 -3.1774e-21)
(0.557588 0.0686613 -1.99536e-20)
(0.316268 0.0752411 -3.07133e-20)
(0.263497 0.0791013 -1.72327e-20)
(0.230261 0.0813967 -4.83829e-20)
(0.200172 0.0779599 -3.18952e-20)
(0.177748 0.0713405 -8.33535e-20)
(0.162656 0.0636483 -2.71128e-20)
(0.148362 0.0583089 -1.01702e-19)
(0.131435 0.0574965 -5.13306e-20)
(0.112595 0.061619 -1.13606e-19)
(0.0940805 0.0653342 -9.0871e-20)
(0.0775738 0.0688007 -1.08938e-19)
(0.061709 0.0682596 -1.55917e-19)
(0.0462228 0.0715251 -1.39113e-19)
(0.0280625 0.069911 -1.64217e-19)
(0.016746 0.0766832 -1.64467e-19)
(1.5 -1.67954e-16 -1.49725e-22)
(1.5 7.11811e-17 7.92054e-22)
(1.5 2.62214e-16 -1.64084e-22)
(1.5 1.48295e-17 1.1125e-21)
(1.5 -1.09736e-16 7.62131e-22)
(1.5 1.13342e-18 1.2155e-21)
(1.5 4.59577e-17 1.80733e-22)
(1.5 1.87164e-16 -9.72512e-23)
(1.5 1.1104e-16 -3.99405e-22)
(1.5 1.0544e-16 -4.561e-22)
(1.5 1.61758e-16 -1.48228e-21)
(1.5 3.56543e-16 2.06467e-21)
(1.5 1.30442e-16 1.18346e-21)
(1.5 1.01733e-16 2.02083e-21)
(1.5 4.65236e-17 1.31506e-22)
(1.5 5.64464e-17 1.24609e-21)
(1.5 -3.58315e-17 2.18835e-21)
(1.5 3.75368e-17 2.85711e-21)
(1.5 -2.09898e-16 1.52226e-21)
(1.5 -1.04821e-17 -1.14883e-21)
(1.5 4.2373e-16 3.08283e-22)
(1.5 -1.16079e-16 8.71807e-22)
(1.5 8.17887e-17 3.3412e-22)
(1.5 1.47973e-17 8.26269e-22)
(1.5 1.14309e-16 2.04612e-21)
(1.5 6.01077e-18 2.35229e-21)
(1.5 2.17957e-16 1.83664e-21)
(1.5 4.15358e-17 1.22163e-21)
(1.5 -5.7074e-17 1.94052e-21)
(1.5 -2.82467e-16 2.99224e-21)
(1.5 4.62511e-17 1.78222e-21)
(1.5 -9.29805e-17 9.93236e-22)
(1.5 -2.74003e-16 1.76168e-21)
(1.5 -1.5721e-16 4.83336e-22)
(1.5 3.8536e-17 2.5547e-22)
(1.5 6.97043e-18 1.61595e-21)
(1.5 2.21874e-16 8.8439e-22)
(1.5 -5.32313e-17 7.30323e-22)
(1.5 -1.88964e-16 9.60383e-22)
(1.5 -2.92891e-17 8.60191e-22)
(1.5 -9.75343e-18 8.44841e-22)
(1.5 -3.73042e-17 9.31476e-22)
(1.5 -2.24763e-16 1.76663e-21)
(1.5 -1.48045e-17 2.99007e-22)
(1.5 -5.8538e-18 5.87344e-22)
(1.5 -1.59114e-16 1.27924e-21)
(1.5 1.59511e-16 1.17521e-21)
(1.5 1.75791e-16 2.23452e-21)
(1.5 -1.27434e-16 4.85748e-22)
(1.5 -1.15061e-16 5.43686e-22)
(1.5 1.3162e-16 9.68949e-22)
(1.5 1.89724e-16 1.55809e-21)
(1.5 -2.41336e-17 2.41805e-21)
(1.5 2.07852e-17 1.87041e-22)
(1.5 -2.54063e-17 2.38964e-22)
(1.5 -9.37361e-17 -3.55239e-22)
(1.5 2.69363e-17 6.98573e-22)
(1.5 1.8327e-16 1.33878e-21)
(1.5 9.12223e-18 1.70568e-21)
(1.5 -2.66815e-16 1.05841e-21)
(1.5 -6.70257e-16 1.81247e-22)
(1.5 -1.59523e-15 1.37341e-21)
(1.5 -3.36363e-15 -3.61815e-22)
(1.5 -1.0235e-14 -5.32324e-22)
(1.5 -2.89283e-14 -2.70966e-22)
(1.5 -7.47245e-14 -8.66447e-22)
(1.5 -1.98926e-13 -2.16502e-22)
(1.5 -5.0749e-13 9.13843e-23)
(1.5 -1.27637e-12 1.63666e-21)
(1.5 -3.20117e-12 -1.17808e-22)
(1.5 -7.74868e-12 2.59297e-21)
(1.5 -1.88008e-11 3.34938e-22)
(1.5 -4.41442e-11 1.25514e-21)
(1.5 -1.03765e-10 4.48986e-21)
(1.5 -2.35595e-10 4.13756e-22)
(1.5 -5.43447e-10 1.28845e-21)
(1.5 -1.17495e-09 -3.13911e-21)
(1.5 -2.74357e-09 5.48734e-21)
(1.5 -5.54544e-09 1.42956e-21)
(1.5 -1.29166e-08 9.95153e-22)
(1.5 -2.62899e-08 -2.64151e-21)
(1.50001 -6.39666e-08 -2.59637e-21)
(1.50001 -9.55762e-08 6.7657e-21)
(1.50001 -4.15315e-07 -2.00428e-21)
(1.50001 -3.13792e-07 -4.44759e-22)
(1.50001 -4.55205e-07 -1.68037e-21)
(1.50001 -6.61895e-07 2.41491e-21)
(1.5 -1.23665e-06 2.90605e-21)
(1.49998 -7.0635e-07 2.486e-21)
(1.49995 -3.29741e-06 6.26715e-21)
(1.49991 -1.84706e-06 6.84259e-22)
(1.49988 -1.94378e-06 1.18227e-20)
(1.49986 -5.57702e-06 6.83737e-21)
(1.49983 -6.70481e-06 8.4901e-21)
(1.49983 -5.73471e-06 6.44776e-21)
(1.49985 -8.53638e-06 7.90273e-21)
(1.49991 -1.06091e-05 5.80489e-21)
(1.50004 -1.4623e-05 4.24011e-21)
(1.50026 -9.15078e-06 6.40682e-21)
(1.50056 -3.64283e-05 -2.70643e-22)
(1.50103 -3.56216e-05 2.62687e-21)
(1.50193 0.00101123 4.7988e-21)
(1.38751 0.0112742 -1.37626e-21)
(0.528453 0.0885461 -1.60268e-20)
(0.304829 0.0999861 -2.34173e-20)
(0.261842 0.10336 -2.13725e-20)
(0.232125 0.103869 -2.67539e-20)
(0.202393 0.0976478 -5.11723e-20)
(0.178665 0.0908203 -4.04042e-20)
(0.161163 0.0833543 -5.73581e-20)
(0.146062 0.077662 -9.93946e-21)
(0.130467 0.0757765 -8.80381e-20)
(0.113531 0.0794892 -2.39155e-20)
(0.0952252 0.0825614 -1.03591e-19)
(0.0782257 0.0877077 -5.59433e-20)
(0.0618205 0.0881089 -1.28699e-19)
(0.0467558 0.0918618 -9.82013e-20)
(0.0296902 0.0899597 -1.09265e-19)
(0.0190495 0.097444 -1.26924e-19)
(1.5 -1.22343e-16 4.08436e-22)
(1.5 4.2569e-17 6.32287e-23)
(1.5 1.08767e-16 5.79063e-22)
(1.5 2.45244e-16 -3.80099e-22)
(1.5 1.51359e-16 -9.45741e-22)
(1.5 1.24629e-16 -1.3119e-21)
(1.5 -2.35917e-17 -1.53076e-22)
(1.5 1.20836e-16 1.92442e-21)
(1.5 9.05988e-17 -2.3329e-21)
(1.5 1.0798e-16 -1.03535e-21)
(1.5 7.72967e-17 2.0792e-21)
(1.5 1.57149e-16 -3.23134e-21)
(1.5 2.26313e-16 1.49906e-21)
(1.5 -6.20176e-17 3.60601e-21)
(1.5 9.71647e-17 6.52802e-22)
(1.5 -3.12623e-17 1.36571e-21)
(1.5 6.57133e-17 -1.69584e-21)
(1.5 -1.6214e-16 5.52469e-21)
(1.5 -2.12018e-16 7.87823e-23)
(1.5 -6.66422e-17 2.06207e-22)
(1.5 3.3225e-17 1.16441e-21)
(1.5 1.79807e-16 1.57573e-21)
(1.5 6.31055e-17 2.82109e-21)
(1.5 6.43372e-17 2.43176e-21)
(1.5 2.62613e-16 2.9924e-21)
(1.5 1.02212e-16 3.11698e-21)
(1.5 3.16996e-16 2.97446e-21)
(1.5 1.65405e-16 2.35943e-21)
(1.5 -5.0802e-17 1.8313e-21)
(1.5 1.46289e-16 1.1575e-21)
(1.5 -6.44664e-17 1.7105e-21)
(1.5 5.30339e-17 9.40045e-22)
(1.5 -2.03637e-16 1.35749e-21)
(1.5 -2.00329e-16 1.01028e-21)
(1.5 3.35426e-16 9.79908e-22)
(1.5 1.3503e-16 1.20787e-21)
(1.5 2.35359e-16 1.40888e-21)
(1.5 4.90128e-17 1.20425e-21)
(1.5 -1.37459e-16 1.2835e-21)
(1.5 -8.24537e-17 1.19716e-21)
(1.5 -9.85841e-17 1.14009e-21)
(1.5 5.41038e-17 1.11363e-21)
(1.5 -1.08141e-16 1.88747e-21)
(1.5 -2.43708e-16 1.1831e-21)
(1.5 9.49807e-17 1.62064e-21)
(1.5 1.39109e-16 -4.43237e-23)
(1.5 -2.28989e-17 2.0364e-21)
(1.5 -9.85996e-17 9.51127e-22)
(1.5 2.02802e-16 2.75934e-21)
(1.5 -3.65801e-16 3.04616e-21)
(1.5 1.22387e-17 2.27047e-22)
(1.5 -3.45345e-17 -1.38363e-21)
(1.5 2.40279e-16 2.00058e-21)
(1.5 6.01296e-17 -2.20724e-21)
(1.5 7.90942e-17 -1.36955e-21)
(1.5 -7.80045e-17 -1.5176e-21)
(1.5 1.03982e-16 -7.58422e-22)
(1.5 -1.73709e-17 5.24496e-22)
(1.5 1.18236e-16 1.42435e-21)
(1.5 6.80175e-17 2.09229e-21)
(1.5 -2.97654e-17 2.94003e-22)
(1.5 -1.68999e-15 -2.87374e-21)
(1.5 -4.94905e-15 1.59505e-22)
(1.5 -1.27729e-14 4.99172e-22)
(1.5 -3.44206e-14 -1.50576e-22)
(1.5 -9.10725e-14 3.87845e-22)
(1.5 -2.38926e-13 7.73973e-22)
(1.5 -6.14136e-13 7.29773e-22)
(1.5 -1.55617e-12 3.48705e-21)
(1.5 -3.84765e-12 -1.24752e-21)
(1.5 -9.4388e-12 3.30923e-21)
(1.5 -2.25733e-11 -2.86479e-22)
(1.5 -5.33933e-11 -3.56784e-21)
(1.5 -1.23964e-10 7.85352e-22)
(1.5 -2.82542e-10 5.64761e-22)
(1.5 -6.40132e-10 1.52012e-21)
(1.5 -1.41776e-09 1.75402e-22)
(1.5 -3.04992e-09 1.02691e-22)
(1.5 -7.27062e-09 -5.0327e-21)
(1.5 -1.24765e-08 1.71626e-21)
(1.5 -3.59669e-08 9.525e-25)
(1.50001 -9.688e-08 4.49358e-21)
(1.50001 -8.19793e-08 -4.06506e-21)
(1.50001 -3.93492e-07 3.39432e-21)
(1.50001 -4.0179e-07 4.89195e-21)
(1.50001 -5.31199e-07 7.61352e-21)
(1.5 -7.14308e-07 7.68491e-21)
(1.49999 -1.49145e-06 8.05675e-21)
(1.49997 -8.33616e-07 4.092e-21)
(1.49994 -3.7756e-06 1.81465e-21)
(1.49989 -2.26808e-06 -2.02591e-21)
(1.49986 -4.1301e-06 -7.19574e-21)
(1.49984 -5.13492e-06 -4.31359e-21)
(1.49981 -7.37737e-06 -2.69335e-21)
(1.49981 -7.06856e-06 -2.07076e-21)
(1.49982 -9.67203e-06 -5.6289e-21)
(1.49988 -1.01073e-05 -3.08239e-21)
(1.5 -1.77456e-05 -3.02174e-21)
(1.50019 -9.89095e-06 4.64068e-21)
(1.50052 -5.24051e-05 -3.57275e-21)
(1.50076 -7.1368e-06 7.72638e-21)
(1.50153 0.00184856 5.80251e-22)
(1.32005 0.0209008 -1.10361e-21)
(0.497813 0.108741 -6.67647e-21)
(0.291381 0.128674 -9.5251e-21)
(0.258335 0.12937 2.03812e-21)
(0.232583 0.126345 1.32775e-21)
(0.205573 0.116835 -2.73972e-20)
(0.180896 0.10897 6.5277e-21)
(0.160845 0.102399 -9.59085e-20)
(0.144454 0.0972756 -5.49982e-20)
(0.128986 0.0949875 -1.24618e-19)
(0.113841 0.0977196 -1.21002e-19)
(0.0968447 0.100038 -1.08438e-19)
(0.0797635 0.105753 -1.57408e-19)
(0.0625955 0.107144 -4.34794e-20)
(0.0471334 0.111629 -1.66083e-19)
(0.0306549 0.110303 -9.62811e-20)
(0.0216181 0.117892 -1.59176e-19)
(1.5 -1.26146e-16 6.67556e-22)
(1.5 7.39379e-18 2.18895e-22)
(1.5 3.84223e-18 2.64012e-22)
(1.5 2.76627e-16 -2.60238e-22)
(1.5 2.48551e-16 4.34722e-21)
(1.5 -5.50429e-17 2.4972e-21)
(1.5 -9.50804e-17 -6.59298e-22)
(1.5 -1.46302e-16 2.85942e-21)
(1.5 4.7922e-17 -1.65312e-21)
(1.5 9.57028e-17 -2.55606e-22)
(1.5 1.92657e-16 2.11943e-21)
(1.5 1.57066e-16 4.3549e-21)
(1.5 1.06599e-16 5.87227e-21)
(1.5 -1.03742e-16 1.67058e-21)
(1.5 -2.27996e-16 -6.67148e-22)
(1.5 5.87738e-17 1.94213e-21)
(1.5 -1.61764e-16 5.98275e-21)
(1.5 -2.34145e-16 2.50112e-21)
(1.5 -1.40343e-16 2.03458e-21)
(1.5 -5.42521e-17 8.6078e-21)
(1.5 -1.71271e-16 3.43508e-21)
(1.5 -3.64056e-17 2.78574e-21)
(1.5 -1.4012e-16 3.05493e-21)
(1.5 7.20814e-17 2.94092e-21)
(1.5 1.74579e-16 2.08018e-21)
(1.5 6.72895e-17 1.7305e-21)
(1.5 2.21497e-16 2.80079e-21)
(1.5 4.35135e-16 3.49723e-21)
(1.5 5.4374e-17 2.35913e-21)
(1.5 5.06554e-17 5.78678e-22)
(1.5 9.42466e-18 2.15234e-21)
(1.5 -7.80287e-17 2.55185e-21)
(1.5 2.99784e-17 2.75749e-21)
(1.5 1.46169e-16 2.01948e-21)
(1.5 3.73938e-17 1.59084e-21)
(1.5 3.18975e-16 1.79275e-21)
(1.5 4.8128e-17 1.98288e-21)
(1.5 1.56794e-16 1.99761e-21)
(1.5 6.62054e-17 2.55697e-21)
(1.5 8.6057e-17 2.8944e-21)
(1.5 -1.16224e-16 2.49263e-21)
(1.5 4.18182e-17 1.46432e-21)
(1.5 -1.87836e-16 1.62383e-21)
(1.5 -1.06503e-17 1.74082e-21)
(1.5 -1.26885e-16 1.71413e-21)
(1.5 1.18934e-16 9.56549e-22)
(1.5 9.69466e-17 -8.20238e-22)
(1.5 -8.71995e-17 -1.4005e-21)
(1.5 1.69248e-17 -2.01462e-21)
(1.5 9.60175e-18 -2.67615e-21)
(1.5 -8.11185e-17 -5.28465e-22)
(1.5 -3.48181e-17 -1.10394e-21)
(1.5 6.64839e-17 7.31307e-22)
(1.5 1.30686e-16 3.41688e-21)
(1.5 1.53599e-16 6.59331e-22)
(1.5 2.46687e-16 2.22981e-21)
(1.5 -6.0129e-17 2.78774e-21)
(1.5 1.55001e-16 1.84509e-21)
(1.5 1.26178e-16 7.62661e-22)
(1.5 -2.6467e-16 1.25494e-21)
(1.5 -1.02368e-15 7.63928e-22)
(1.5 -1.87086e-15 3.65878e-21)
(1.5 -5.2324e-15 6.0332e-21)
(1.5 -1.50003e-14 5.00145e-21)
(1.5 -4.00144e-14 7.57922e-21)
(1.5 -1.05925e-13 4.98084e-21)
(1.5 -2.78292e-13 4.02775e-21)
(1.5 -7.13655e-13 2.99894e-21)
(1.5 -1.80994e-12 1.93749e-21)
(1.5 -4.49921e-12 1.65949e-21)
(1.5 -1.09872e-11 8.7042e-22)
(1.5 -2.6429e-11 1.89521e-21)
(1.5 -6.2275e-11 -2.53104e-21)
(1.5 -1.44759e-10 1.40866e-21)
(1.5 -3.3028e-10 8.9791e-22)
(1.5 -7.33783e-10 9.02496e-22)
(1.5 -1.68664e-09 1.51653e-21)
(1.5 -3.32739e-09 2.31922e-21)
(1.5 -8.28183e-09 2.58997e-22)
(1.5 -1.62882e-08 6.87763e-22)
(1.5 -2.87515e-08 -5.39286e-22)
(1.5 -1.07025e-07 4.54802e-21)
(1.50001 -2.11832e-07 -2.0911e-21)
(1.50001 -2.56671e-07 -2.24742e-21)
(1.50001 -4.23949e-07 1.1263e-20)
(1.5 -5.93123e-07 1.81949e-20)
(1.5 -7.68358e-07 7.61232e-21)
(1.49998 -1.56198e-06 1.97995e-20)
(1.49995 -9.81621e-07 1.07047e-21)
(1.49992 -3.71686e-06 2.77396e-20)
(1.49987 -3.10434e-06 1.72534e-20)
(1.49984 -4.24074e-06 1.57392e-20)
(1.49981 -5.88873e-06 1.50502e-20)
(1.49978 -8.528e-06 1.25727e-20)
(1.49978 -8.53664e-06 1.16088e-20)
(1.49979 -1.02644e-05 8.83546e-21)
(1.49984 -1.12126e-05 2.50634e-20)
(1.49995 -1.9974e-05 2.05027e-20)
(1.50012 -1.49162e-05 7.51242e-21)
(1.50043 -2.14809e-05 8.83868e-21)
(1.50057 6.08708e-05 3.06726e-21)
(1.50139 0.00328425 8.38497e-21)
(1.23721 0.0352767 1.20451e-20)
(0.467146 0.127253 2.36937e-20)
(0.28245 0.1568 2.17866e-20)
(0.254994 0.158373 3.75583e-20)
(0.232111 0.149134 3.5367e-20)
(0.209252 0.136256 1.03893e-19)
(0.184408 0.126257 4.26713e-20)
(0.161952 0.120405 1.49693e-19)
(0.143602 0.11654 1.16132e-19)
(0.127791 0.114641 2.58403e-19)
(0.112863 0.117473 2.11191e-19)
(0.0980192 0.117931 3.72634e-19)
(0.0819238 0.123382 4.27905e-19)
(0.0643187 0.125289 4.97147e-19)
(0.0485937 0.130709 6.62599e-19)
(0.0322918 0.130136 7.24145e-19)
(0.0247553 0.138119 1.06582e-18)
(1.5 1.30496e-16 -2.88393e-21)
(1.5 1.52613e-17 -9.8569e-22)
(1.5 2.19271e-16 1.118e-22)
(1.5 2.49612e-16 -7.8911e-22)
(1.5 -7.71756e-17 -1.41417e-21)
(1.5 3.12887e-17 1.24118e-21)
(1.5 -2.2722e-16 1.7762e-21)
(1.5 -1.54657e-16 -2.24665e-21)
(1.5 1.7486e-17 9.41187e-22)
(1.5 9.84535e-17 4.11646e-22)
(1.5 1.53386e-16 3.31208e-21)
(1.5 -5.76613e-17 3.83601e-21)
(1.5 1.64951e-16 8.72965e-21)
(1.5 2.1563e-18 1.33264e-20)
(1.5 1.95599e-17 1.09564e-20)
(1.5 -2.32848e-17 6.5243e-21)
(1.5 -1.2981e-16 8.54751e-21)
(1.5 8.96182e-17 2.32436e-21)
(1.5 2.70096e-16 7.27545e-21)
(1.5 -1.13864e-16 1.14746e-20)
(1.5 -9.21311e-17 1.45662e-21)
(1.5 -1.96199e-16 2.41607e-21)
(1.5 -8.07486e-17 3.63651e-21)
(1.5 9.90865e-17 4.21519e-21)
(1.5 6.33787e-17 7.28726e-21)
(1.5 3.84365e-16 5.21745e-21)
(1.5 1.91037e-16 4.42064e-21)
(1.5 1.26121e-16 5.28059e-21)
(1.5 1.40038e-16 5.82306e-21)
(1.5 -5.72103e-17 5.70711e-21)
(1.5 6.92251e-17 3.81517e-21)
(1.5 -1.35127e-16 3.78558e-21)
(1.5 -1.96881e-17 2.9147e-21)
(1.5 2.13507e-16 3.28444e-21)
(1.5 7.53746e-17 1.69069e-21)
(1.5 2.0659e-16 8.55218e-22)
(1.5 -2.28717e-17 1.78127e-21)
(1.5 7.07067e-17 9.78066e-22)
(1.5 2.47602e-16 1.70871e-21)
(1.5 5.60707e-17 2.4433e-21)
(1.5 9.62799e-17 2.38409e-21)
(1.5 -2.46727e-16 2.08384e-21)
(1.5 4.39188e-17 1.46032e-21)
(1.5 4.57122e-17 2.32155e-21)
(1.5 1.91291e-17 2.85053e-21)
(1.5 -1.46159e-16 8.21088e-22)
(1.5 2.08294e-17 8.85798e-22)
(1.5 4.67807e-17 1.7576e-21)
(1.5 -1.85768e-16 -2.76397e-21)
(1.5 -5.75197e-17 4.13797e-21)
(1.5 7.91543e-17 2.60883e-21)
(1.5 -1.58636e-16 4.54175e-21)
(1.5 -1.69016e-16 3.73685e-21)
(1.5 1.85664e-17 2.06474e-21)
(1.5 -1.81407e-16 2.3517e-21)
(1.5 2.81576e-17 3.37353e-21)
(1.5 1.48477e-16 2.13584e-21)
(1.5 -5.33872e-17 7.70694e-22)
(1.5 -1.27941e-16 -4.98446e-22)
(1.5 -4.35234e-16 3.14301e-21)
(1.5 -8.61255e-16 8.44609e-22)
(1.5 -2.01288e-15 -1.40505e-21)
(1.5 -6.51902e-15 -9.59856e-22)
(1.5 -1.6157e-14 7.15124e-21)
(1.5 -4.46625e-14 6.43894e-21)
(1.5 -1.19174e-13 4.0757e-21)
(1.5 -3.10848e-13 6.74089e-22)
(1.5 -8.07473e-13 -3.99893e-21)
(1.5 -2.03712e-12 5.03508e-22)
(1.5 -5.08499e-12 8.09725e-22)
(1.5 -1.24235e-11 4.01281e-21)
(1.5 -2.98381e-11 4.28244e-21)
(1.5 -7.04348e-11 -3.06746e-21)
(1.5 -1.62234e-10 1.11456e-21)
(1.5 -3.72985e-10 1.02682e-22)
(1.5 -8.10764e-10 8.43669e-22)
(1.5 -1.83112e-09 9.04699e-22)
(1.5 -3.89451e-09 -4.14128e-23)
(1.5 -8.1192e-09 5.22553e-21)
(1.5 -1.46266e-08 1.33844e-20)
(1.5 -6.32666e-08 -8.30881e-21)
(1.5 -6.23145e-08 3.77769e-21)
(1.5 -2.13895e-07 -1.05829e-21)
(1.5 -2.80905e-07 -7.65545e-22)
(1.5 -3.91854e-07 3.9112e-22)
(1.5 -5.97419e-07 -2.02261e-21)
(1.49999 -8.84958e-07 4.98678e-22)
(1.49997 -1.52739e-06 -1.31021e-20)
(1.49994 -1.88226e-06 7.08831e-21)