/*--------------------------------*- C++ -*----------------------------------*\
| =========                 |                                                 |
| \\      /  F ield         | OpenFOAM: The Open Source CFD Toolbox           |
|  \\    /   O peration     | Version:  2.2.x                                 |
|   \\  /    A nd           | Web:      www.OpenFOAM.org                      |
|    \\/     M anipulation  |                                                 |
\*---------------------------------------------------------------------------*/
FoamFile
{
    version     2.0;
    format      ascii;
    class       volScalarField;
    location    "0.17";
    object      By;
}
// * * * * * * * * * * * * * * * * * * * * * * * * * * * * * * * * * * * * * //

dimensions      [1 0 -2 0 0 -1 0];

internalField   nonuniform List<scalar> 
1024
(
1.12838
1.12838
1.12838
1.12838
1.12838
1.12838
1.12838
1.12838
1.12838
1.12838
1.12838
1.12838
1.12838
1.12838
1.12838
1.12838
1.12838
1.12838
1.12838
1.12838
1.12838
1.12838
1.12838
1.12838
1.12838
1.12838
1.12838
1.12838
1.12838
1.12838
1.12838
1.12838
1.12838
1.12838
1.12838
1.12838
1.12838
1.12838
1.12838
1.12838
1.12838
1.12838
1.12838
1.12838
1.12838
1.12838
1.12838
1.12838
1.12838
1.12838
1.12838
1.12838
1.12838
1.12838
1.12838
1.12838
1.12838
1.12838
1.12838
1.12838
1.12838
1.12838
1.12838
1.12838
1.12838
1.12838
1.12838
1.12838
1.12838
1.12838
1.12838
1.12838
1.12838
1.12838
1.12838
1.12838
1.12838
1.12838
1.12838
1.12838
1.12838
1.12838
1.12838
1.12838
1.12838
1.12838
1.12838
1.12838
1.12838
1.12838
1.12838
1.12838
1.12838
1.12838
1.12838
1.12838
1.12838
1.12838
1.12838
1.12838
1.12838
1.12838
1.12838
1.12838
1.12838
1.12838
1.12838
1.12838
1.12839
1.12841
1.12848
1.12868
1.1293
1.13121
1.13702
1.15425
1.20134
1.30632
1.40676
1.46105
1.48711
1.49883
1.50397
1.50622
1.50715
1.50757
1.50773
1.50781
1.50786
1.50787
1.50787
1.50787
1.50788
1.5079
1.50793
1.50793
1.50793
1.50791
1.50789
1.50788
1.50788
1.50788
1.50788
1.50787
1.50787
1.50788
1.50789
1.5079
1.5079
1.50791
1.5079
1.50789
1.50788
1.50788
1.50788
1.50789
1.50789
1.50789
1.50789
1.50789
1.50789
1.50789
1.50789
1.50788
1.50787
1.50786
1.50786
1.50786
1.50786
1.50787
1.50787
1.50788
1.50789
1.50789
1.50789
1.50789
1.50789
1.50788
1.50787
1.50787
1.50786
1.50786
1.50786
1.50786
1.50787
1.50787
1.50787
1.50787
1.50786
1.50786
1.50786
1.50786
1.50786
1.50787
1.50788
1.50789
1.5079
1.50791
1.50791
1.50791
1.50791
1.50791
1.50791
1.5079
1.5079
1.5079
1.50789
1.50789
1.5079
1.5079
1.5079
1.50791
1.50791
1.50791
1.5079
1.5079
1.5079
1.5079
1.50791
1.50791
1.50791
1.50791
1.50792
1.50792
1.50792
1.50791
1.50791
1.5079
1.50789
1.50788
1.50787
1.50787
1.50787
1.50787
1.50788
1.50788
1.50789
1.50789
1.5079
1.5079
1.50789
1.50789
1.50789
1.50789
1.50789
1.50788
1.50788
1.50787
1.50786
1.50786
1.50784
1.50784
1.50783
1.50782
1.50781
1.50781
1.50781
1.50781
1.50782
1.50783
1.50784
1.50785
1.50786
1.50787
1.50788
1.50788
1.50788
1.50788
1.50787
1.50787
1.50787
1.50787
1.50788
1.50788
1.50788
1.50788
1.50788
1.50789
1.50789
1.5079
1.5079
1.5079
1.50791
1.50791
1.50791
1.50791
1.50791
1.5079
1.50788
1.50786
1.50783
1.50782
1.5078
1.50779
1.50779
1.50779
1.50779
1.5078
1.50781
1.50783
1.50784
1.50786
1.50786
1.50787
1.50787
1.50787
1.50787
1.50787
1.50787
1.50787
1.50787
1.50787
1.50788
1.50789
1.5079
1.5079
1.50791
1.50793
1.50795
1.50799
1.50806
1.50817
1.50835
1.50866
1.50916
1.50999
1.51132
1.51343
1.51671
1.52167
1.52902
1.53955
1.55391
1.56823
1.57932
1.5884
1.59541
1.60121
1.60498
1.60847
1.60984
1.61173
1.61181
1.61244
1.61249
1.6123
1.61201
1.61079
1.60876
1.60375
1.59665
1.58389
1.56664
1.53396
1.50077
1.47157
1.45518
1.44133
1.43023
1.42383
1.42042
1.41681
1.41509
1.4147
1.41405
1.41313
1.4127
1.41263
1.41277
1.41257
1.41236
1.41226
1.41236
1.41245
1.41243
1.41237
1.4123
1.4123
1.4123
1.41233
1.41231
1.4123
1.41229
1.4123
1.4123
1.41231
1.41229
1.41229
1.41228
1.41228
1.41229
1.41237
1.41241
1.41246
1.41245
1.41242
1.41234
1.41229
1.41227
1.41226
1.41227
1.4123
1.41236
1.4124
1.4124
1.41238
1.41228
1.41226
1.41225
1.41225
1.41225
1.41222
1.41224
1.4123
1.41234
1.41237
1.41241
1.41243
1.41246
1.41248
1.4125
1.41252
1.41253
1.4125
1.41248
1.41245
1.41242
1.41242
1.41244
1.41247
1.41249
1.41251
1.41252
1.4125
1.41249
1.4125
1.41251
1.4125
1.41246
1.41243
1.41243
1.41254
1.41263
1.41266
1.41262
1.41249
1.41242
1.41245
1.41269
1.41289
1.41291
1.41251
1.41182
1.41158
1.41173
1.41272
1.4135
1.41356
1.41224
1.41033
1.41018
1.41254
1.41906
1.42596
1.42945
1.43608
1.46788
1.50488
1.52981
1.54708
1.55968
1.56311
1.56425
1.56611
1.56713
1.56685
1.5661
1.56584
1.56704
1.56848
1.5701
1.56849
1.56486
1.55312
1.54579
1.52976
1.53266
1.49379
1.49929
1.4657
1.46989
1.44847
1.45204
1.44156
1.44339
1.43909
1.43977
1.43825
1.43856
1.43809
1.43836
1.43818
1.43836
1.43829
1.4384
1.43841
1.43848
1.43846
1.43848
1.43843
1.43843
1.43837
1.43832
1.43825
1.43823
1.43821
1.43822
1.43821
1.43825
1.43824
1.43829
1.43833
1.43838
1.4384
1.43841
1.4384
1.4384
1.43838
1.43836
1.43833
1.43833
1.43832
1.43833
1.43834
1.43836
1.43839
1.4384
1.4384
1.4384
1.43838
1.43837
1.43835
1.43833
1.43832
1.43831
1.43831
1.43831
1.43831
1.43831
1.43831
1.43831
1.43831
1.43831
1.43832
1.43832
1.43834
1.43834
1.43837
1.43839
1.43841
1.43842
1.43842
1.43842
1.43842
1.43839
1.43839
1.43836
1.43834
1.4383
1.43828
1.43828
1.43828
1.43828
1.43828
1.43828
1.4383
1.43831
1.43833
1.43834
1.43835
1.43835
1.43835
1.43835
1.43835
1.43834
1.43833
1.43832
1.43831
1.4383
1.4383
1.43829
1.4383
1.4383
1.4383
1.43831
1.43832
1.43832
1.43833
1.43833
1.43833
1.43833
1.43832
1.43832
1.43831
1.43831
1.4383
1.43829
1.43829
1.43829
1.43829
1.43829
1.43829
1.4383
1.4383
1.43831
1.43831
1.43833
1.43834
1.43836
1.43837
1.4384
1.43842
1.43844
1.43845
1.43845
1.43846
1.43846
1.43846
1.43846
1.43846
1.43846
1.43845
1.43845
1.43845
1.43846
1.43846
1.43847
1.43847
1.43848
1.43848
1.43848
1.43848
1.43848
1.43848
1.43848
1.43848
1.43847
1.43846
1.43846
1.43845
1.43845
1.43845
1.43845
1.43845
1.43845
1.43847
1.43847
1.43848
1.43847
1.43849
1.43846
1.43849
1.43844
1.43849
1.4384
1.43856
1.43839
1.43868
1.43811
1.43906
1.4375
1.43995
1.4336
1.44606
1.42723
1.45329
1.38825
1.44929
1.27542
1.13945
1.03351
1.01788
1.01581
1.01557
1.01554
1.01554
1.01554
1.01554
1.01554
1.01554
1.01554
1.01554
1.01554
1.01554
1.01554
1.01554
1.01554
1.01554
1.01554
1.01554
1.01554
1.01554
1.01554
1.01554
1.01554
1.01554
1.01554
1.01554
1.01554
1.01554
1.01554
1.01554
1.01554
1.01554
1.01554
1.01554
1.01554
1.01554
1.01554
1.01554
1.01554
1.01554
1.01554
1.01554
1.01554
1.01554
1.01554
1.01554
1.01554
1.01554
1.01554
1.01554
1.01554
1.01554
1.01554
1.01554
1.01554
1.01554
1.01554
1.01554
1.01554
1.01554
1.01554
1.01554
1.01554
1.01554
1.01554
1.01554
1.01554
1.01554
1.01554
1.01554
1.01554
1.01554
1.01554
1.01554
1.01554
1.01554
1.01554
1.01554
1.01554
1.01554
1.01554
1.01554
1.01554
1.01554
1.01554
1.01554
1.01554
1.01554
1.01554
1.01554
1.01554
1.01554
1.01554
1.01554
1.01554
1.01554
1.01554
1.01554
1.01554
1.01554
1.01554
1.01554
1.01554
1.01554
1.01554
1.01554
1.01554
1.01554
1.01554
1.01554
1.01554
1.01554
1.01554
1.01554
1.01554
1.01554
1.01554
1.01554
1.01554
1.01554
1.01554
1.01554
1.01554
1.01554
1.01554
1.01554
1.01554
1.01554
1.01554
1.01554
1.01554
1.01554
1.01554
1.01554
1.01554
1.01554
1.01554
1.01554
1.01554
1.01554
1.01554
1.01554
1.01554
1.01554
1.01554
1.01554
1.01554
1.01554
1.01554
1.01554
1.01554
1.01554
1.01554
1.01554
1.01554
1.01554
1.01554
1.01554
1.01554
1.01554
1.01554
1.01554
1.01554
1.01554
1.01554
1.01554
1.01554
1.01554
1.01554
1.01554
1.01554
1.01554
1.01554
1.01554
1.01554
1.01554
1.01554
1.01554
1.01554
1.01554
1.01554
1.01554
1.01554
1.01554
1.01554
1.01554
1.01554
1.01554
1.01554
1.01554
1.01554
1.01554
1.01554
1.01554
1.01554
1.01554
1.01554
1.01554
1.01554
1.01554
1.01554
1.01554
1.01554
1.01554
1.01554
1.01554
1.01554
1.01554
1.01554
1.01554
1.01554
1.01554
1.01554
1.01554
1.01554
1.01554
1.01554
1.01554
1.01554
1.01554
1.01554
1.01554
1.01554
1.01554
1.01554
1.01554
1.01554
1.01554
1.01554
1.01554
1.01554
1.01554
1.01554
1.01554
1.01554
1.01554
1.01554
1.01554
1.01554
1.01554
1.01554
1.01554
1.01554
1.01554
1.01554
1.01554
1.01554
1.01554
1.01554
1.01554
1.01554
1.01554
1.01554
1.01554
1.01554
1.01554
1.01554
1.01554
1.01554
1.01554
1.01554
1.01554
1.01554
1.01554
1.01554
1.01554
1.01554
1.01554
1.01554
1.01554
1.01554
1.01554
1.01554
1.01554
1.01554
1.01554
1.01554
1.01554
1.01554
1.01554
1.01554
1.01554
1.01554
1.01554
1.01554
1.01554
1.01554
1.01554
1.01554
1.01554
1.01554
1.01554
1.01554
1.01554
1.01554
1.01554
1.01554
1.01554
1.01554
1.01554
1.01554
1.01554
1.01554
1.01554
1.01554
1.01554
1.01554
1.01554
1.01554
1.01554
1.01554
1.01554
1.01554
1.01554
1.01554
1.01554
1.01554
1.01554
1.01554
1.01554
1.01554
1.01554
1.01554
1.01554
1.01554
1.01554
1.01554
1.01554
1.01554
1.01554
1.01554
1.01554
1.01554
1.01554
1.01554
1.01554
1.01554
1.01554
1.01554
1.01554
1.01554
1.01554
)
;

boundaryField
{
    front-back
    {
        type            empty;
    }
    inlet-outlet
    {
        type            calculated;
        value           nonuniform List<scalar> 2(1.01554 1.12838);
    }
    top-down
    {
        type            empty;
    }
}


// ************************************************************************* //
