/*--------------------------------*- C++ -*----------------------------------*\
| =========                 |                                                 |
| \\      /  F ield         | OpenFOAM: The Open Source CFD Toolbox           |
|  \\    /   O peration     | Version:  2.2.x                                 |
|   \\  /    A nd           | Web:      www.OpenFOAM.org                      |
|    \\/     M anipulation  |                                                 |
\*---------------------------------------------------------------------------*/
FoamFile
{
    version     2.0;
    format      ascii;
    class       volScalarField;
    location    "0.2";
    object      Ma;
}
// * * * * * * * * * * * * * * * * * * * * * * * * * * * * * * * * * * * * * //

dimensions      [0 0 0 0 0 0 0];

internalField   nonuniform List<scalar> 
14161
(
2.59808
2.59808
2.59808
2.59808
2.59808
2.59808
2.59808
2.59808
2.59808
2.59808
2.59808
2.59808
2.59808
2.59808
2.59808
2.59808
2.59808
2.59808
2.59808
2.59808
2.59808
2.59808
2.59809
2.59809
2.5981
2.59813
2.59814
2.59817
2.59821
2.59827
2.59834
2.59843
2.59855
2.59868
2.59886
2.59906
2.59931
2.59958
2.59991
2.60027
2.60067
2.60111
2.6016
2.60211
2.60269
2.6033
2.60401
2.60478
2.60564
2.60663
2.6077
2.60894
2.61028
2.61182
2.61345
2.61538
2.61743
2.61976
2.62233
2.62513
2.62824
2.6316
2.63534
2.63955
2.64422
2.64936
2.65482
2.66089
2.66693
2.67372
2.68092
2.68856
2.69617
2.70646
2.71585
2.72304
2.72931
2.7349
2.73573
2.7348
2.72733
2.71488
1.23725
0.492484
0.465484
0.537746
0.576135
0.60135
0.606432
0.593899
0.55269
0.513918
0.469703
0.431432
0.400742
0.374793
0.352647
0.33428
0.319467
0.307717
0.297523
0.28802
0.278818
0.269149
0.259441
0.251198
0.245876
0.243155
0.243464
0.245058
0.245329
0.243809
0.239155
0.22797
0.21224
0.190053
0.159474
0.120093
0.105237
2.59808
2.59808
2.59808
2.59808
2.59808
2.59808
2.59808
2.59808
2.59808
2.59808
2.59808
2.59808
2.59808
2.59808
2.59808
2.59808
2.59808
2.59808
2.59808
2.59808
2.59808
2.59808
2.59809
2.59809
2.5981
2.59813
2.59814
2.59817
2.59821
2.59827
2.59834
2.59843
2.59854
2.59868
2.59886
2.59906
2.59931
2.59958
2.59991
2.60027
2.60067
2.60111
2.60159
2.60211
2.60268
2.6033
2.604
2.60477
2.60563
2.6066
2.60769
2.6089
2.61025
2.61178
2.61344
2.61535
2.6174
2.61973
2.62229
2.62509
2.62821
2.63162
2.63542
2.63961
2.6442
2.64929
2.65489
2.66078
2.66729
2.67376
2.68089
2.6889
2.69715
2.70576
2.71524
2.72383
2.73211
2.73797
2.74163
2.74338
2.73293
2.71592
1.19555
0.484861
0.460247
0.532967
0.573334
0.594835
0.598495
0.58349
0.541603
0.501868
0.457142
0.41722
0.384918
0.357592
0.334143
0.31407
0.2974
0.283199
0.270203
0.257714
0.245115
0.231452
0.216329
0.201282
0.187279
0.174176
0.162033
0.148948
0.133805
0.116451
0.0970464
0.0802394
0.0683015
0.0623093
0.0602553
0.0584922
0.110176
2.59808
2.59808
2.59808
2.59808
2.59808
2.59808
2.59808
2.59808
2.59808
2.59808
2.59808
2.59808
2.59808
2.59808
2.59808
2.59808
2.59808
2.59808
2.59808
2.59808
2.59808
2.59808
2.59809
2.59809
2.5981
2.59813
2.59814
2.59816
2.59821
2.59827
2.59834
2.59842
2.59854
2.59868
2.59886
2.59906
2.5993
2.59958
2.5999
2.60026
2.60066
2.6011
2.60158
2.6021
2.60267
2.60327
2.60397
2.60473
2.60561
2.60657
2.60766
2.60885
2.61023
2.61171
2.6134
2.61526
2.61734
2.61966
2.62217
2.62502
2.6281
2.63151
2.63524
2.63941
2.644
2.64911
2.65472
2.66062
2.66696
2.67393
2.68128
2.68883
2.69794
2.70747
2.71724
2.72658
2.7377
2.74536
2.75042
2.75361
2.74833
2.73377
1.16715
0.489231
0.472977
0.545144
0.582986
0.599242
0.598305
0.582352
0.543431
0.507507
0.465948
0.425854
0.388613
0.356595
0.329664
0.307334
0.28823
0.271758
0.257069
0.243079
0.228858
0.213453
0.196645
0.180038
0.164796
0.15105
0.138544
0.125457
0.110292
0.0921188
0.0741037
0.0569915
0.0463148
0.0424184
0.0537808
0.0628742
0.125172
2.59808
2.59808
2.59808
2.59808
2.59808
2.59808
2.59808
2.59808
2.59808
2.59808
2.59808
2.59808
2.59808
2.59808
2.59808
2.59808
2.59808
2.59808
2.59808
2.59808
2.59808
2.59808
2.59809
2.59809
2.5981
2.59813
2.59814
2.59816
2.59821
2.59827
2.59834
2.59842
2.59854
2.59868
2.59885
2.59905
2.5993
2.59957
2.59988
2.60024
2.60063
2.60108
2.60156
2.60208
2.60262
2.60325
2.60391
2.60468
2.60555
2.60652
2.6076
2.60878
2.61013
2.61161
2.61331
2.61512
2.61722
2.61948
2.62203
2.62484
2.62792
2.63134
2.6351
2.63929
2.64387
2.6489
2.65441
2.66043
2.66693
2.67396
2.68159
2.69003
2.69914
2.70893
2.71951
2.73134
2.74324
2.75465
2.76818
2.78369
2.79682
2.82271
1.29077
0.545693
0.542864
0.603955
0.629399
0.651992
0.634885
0.62065
0.583674
0.550598
0.50661
0.462795
0.420012
0.381154
0.348755
0.321941
0.29889
0.278792
0.260479
0.243384
0.22678
0.209956
0.192594
0.175991
0.161091
0.147819
0.136077
0.124225
0.112155
0.0973504
0.0845781
0.0682241
0.0581307
0.0528698
0.0639432
0.0686499
0.131873
2.59808
2.59808
2.59808
2.59808
2.59808
2.59808
2.59808
2.59808
2.59808
2.59808
2.59808
2.59808
2.59808
2.59808
2.59808
2.59808
2.59808
2.59808
2.59808
2.59808
2.59808
2.59808
2.59809
2.59809
2.5981
2.59813
2.59814
2.59816
2.59821
2.59827
2.59834
2.59842
2.59854
2.59867
2.59885
2.59905
2.59927
2.59956
2.59985
2.60022
2.60061
2.60105
2.60151
2.60203
2.60258
2.60319
2.60384
2.60462
2.60545
2.60644
2.60748
2.60868
2.61
2.61147
2.61313
2.61496
2.61702
2.61925
2.62182
2.62457
2.62768
2.63107
2.63481
2.63897
2.64351
2.64856
2.65409
2.66013
2.66671
2.67394
2.68184
2.69063
2.70039
2.71048
2.72215
2.73391
2.74795
2.76415
2.78144
2.80149
2.81562
2.88107
1.46597
0.680514
0.666514
0.678256
0.686156
0.708859
0.688506
0.673973
0.640989
0.609511
0.564162
0.51785
0.46878
0.421887
0.383044
0.351538
0.324988
0.302159
0.281552
0.262004
0.242749
0.223202
0.2035
0.185049
0.168806
0.154313
0.141885
0.129789
0.11888
0.105488
0.095605
0.0809182
0.0725782
0.0637495
0.0741484
0.0743083
0.138576
2.59808
2.59808
2.59808
2.59808
2.59808
2.59808
2.59808
2.59808
2.59808
2.59808
2.59808
2.59808
2.59808
2.59808
2.59808
2.59808
2.59808
2.59808
2.59808
2.59808
2.59808
2.59808
2.59809
2.59809
2.5981
2.59813
2.59814
2.59816
2.59821
2.59827
2.59833
2.59841
2.59853
2.59867
2.59882
2.59904
2.59925
2.59952
2.59983
2.60018
2.60056
2.601
2.60146
2.60197
2.60252
2.60311
2.60377
2.60453
2.60536
2.60632
2.60735
2.60853
2.60984
2.61131
2.61293
2.61474
2.61676
2.61898
2.6215
2.62422
2.62731
2.63065
2.63442
2.63851
2.64305
2.64806
2.65352
2.65963
2.66638
2.67403
2.6824
2.69125
2.7009
2.71184
2.72431
2.73742
2.75357
2.77518
2.80679
2.84517
2.90316
2.9402
1.71685
0.903017
0.795453
0.736046
0.693222
0.720835
0.693594
0.694394
0.664634
0.640291
0.599124
0.557859
0.512266
0.467958
0.426338
0.390977
0.360373
0.333841
0.310018
0.287403
0.265225
0.242793
0.220288
0.199016
0.180241
0.163736
0.14974
0.136299
0.125663
0.113171
0.105126
0.0916755
0.0847005
0.0722597
0.0822749
0.0793074
0.148385
2.59808
2.59808
2.59808
2.59808
2.59808
2.59808
2.59808
2.59808
2.59808
2.59808
2.59808
2.59808
2.59808
2.59808
2.59808
2.59808
2.59808
2.59808
2.59808
2.59808
2.59808
2.59808
2.59809
2.59809
2.5981
2.59812
2.59814
2.59816
2.59821
2.59826
2.59833
2.59841
2.59852
2.59866
2.59881
2.599
2.59924
2.5995
2.59979
2.60015
2.60053
2.60094
2.6014
2.6019
2.60243
2.60301
2.60368
2.60441
2.60523
2.60615
2.60718
2.60833
2.60961
2.61107
2.61264
2.61445
2.6164
2.61864
2.62104
2.62378
2.6268
2.63012
2.63386
2.63791
2.64245
2.64738
2.65285
2.65889
2.66561
2.67309
2.68176
2.69157
2.70191
2.7121
2.72319
2.7352
2.74921
2.76562
2.79332
2.81267
2.88256
2.80119
1.50793
0.933446
0.795525
0.722319
0.64023
0.685156
0.652085
0.667995
0.64281
0.625797
0.591914
0.557955
0.519967
0.482739
0.4463
0.412263
0.381624
0.354971
0.330432
0.306506
0.282938
0.259374
0.236469
0.215003
0.19598
0.178041
0.161894
0.146166
0.134312
0.121861
0.114692
0.102463
0.0958158
0.0800677
0.0888163
0.082007
0.156909
2.59808
2.59808
2.59808
2.59808
2.59808
2.59808
2.59808
2.59808
2.59808
2.59808
2.59808
2.59808
2.59808
2.59808
2.59808
2.59808
2.59808
2.59808
2.59808
2.59808
2.59808
2.59808
2.59808
2.59809
2.5981
2.59812
2.59814
2.59816
2.5982
2.59826
2.59832
2.5984
2.59852
2.59864
2.5988
2.59898
2.5992
2.59946
2.59976
2.60009
2.60047
2.60087
2.60132
2.60179
2.60233
2.60288
2.60353
2.60423
2.60505
2.60595
2.60696
2.60807
2.60934
2.61074
2.6123
2.61404
2.61596
2.61814
2.62051
2.62321
2.62615
2.62947
2.63311
2.63718
2.64163
2.64652
2.65196
2.65787
2.66454
2.67197
2.68043
2.68981
2.69992
2.70999
2.72108
2.73273
2.74785
2.76574
2.79792
2.82683
2.87874
2.44392
1.22845
0.933432
0.78047
0.656377
0.570671
0.608303
0.580181
0.596736
0.581175
0.570448
0.548389
0.523864
0.495746
0.467136
0.43705
0.407488
0.379591
0.35506
0.331877
0.308782
0.285962
0.263159
0.241377
0.220852
0.202986
0.186285
0.172078
0.157606
0.146617
0.134668
0.127283
0.115518
0.107398
0.0877955
0.0938932
0.0839494
0.162331
2.59808
2.59808
2.59808
2.59808
2.59808
2.59808
2.59808
2.59808
2.59808
2.59808
2.59808
2.59808
2.59808
2.59808
2.59808
2.59808
2.59808
2.59808
2.59808
2.59808
2.59808
2.59808
2.59808
2.59809
2.5981
2.59812
2.59814
2.59816
2.5982
2.59825
2.59832
2.5984
2.59849
2.59861
2.59878
2.59895
2.59917
2.59942
2.5997
2.60002
2.60038
2.60078
2.60121
2.60169
2.6022
2.60274
2.60337
2.60404
2.60484
2.6057
2.60667
2.60777
2.60898
2.61036
2.61187
2.61357
2.61544
2.61756
2.61987
2.6225
2.62539
2.62858
2.63217
2.63612
2.64049
2.64534
2.65063
2.65656
2.66304
2.67041
2.67858
2.68771
2.69762
2.70846
2.71953
2.73129
2.74453
2.75591
2.7677
2.77771
2.72774
1.76708
1.09415
0.915064
0.758314
0.566493
0.509444
0.535627
0.532255
0.536317
0.532241
0.521572
0.504357
0.483728
0.459153
0.434429
0.409618
0.38574
0.362938
0.342305
0.322629
0.302177
0.281052
0.259244
0.238381
0.219242
0.203228
0.188368
0.176066
0.163254
0.154588
0.144765
0.138768
0.129037
0.119554
0.0952461
0.0983063
0.0863265
0.165043
2.59808
2.59808
2.59808
2.59808
2.59808
2.59808
2.59808
2.59808
2.59808
2.59808
2.59808
2.59808
2.59808
2.59808
2.59808
2.59808
2.59808
2.59808
2.59808
2.59808
2.59808
2.59808
2.59808
2.59809
2.59809
2.59812
2.59814
2.59815
2.5982
2.59823
2.59829
2.59839
2.59848
2.5986
2.59874
2.59892
2.59912
2.59937
2.59964
2.59995
2.60029
2.60067
2.60108
2.60154
2.60203
2.60256
2.60317
2.60383
2.60459
2.60542
2.60635
2.60742
2.60858
2.60989
2.61135
2.613
2.61481
2.61686
2.61909
2.62167
2.62444
2.62756
2.63105
2.63489
2.6392
2.64393
2.64915
2.65496
2.66133
2.66853
2.67642
2.68532
2.69491
2.70512
2.71575
2.72625
2.73645
2.74769
2.75317
2.78739
2.66327
1.38257
1.01408
0.89097
0.678219
0.499205
0.448521
0.481849
0.481305
0.491638
0.495271
0.48889
0.472927
0.453552
0.429617
0.406399
0.383617
0.362386
0.34289
0.325925
0.310679
0.294742
0.278313
0.260931
0.244149
0.227366
0.212396
0.197275
0.184821
0.17189
0.164079
0.155663
0.150714
0.142889
0.132659
0.104495
0.101216
0.0877417
0.16471
2.59808
2.59808
2.59808
2.59808
2.59808
2.59808
2.59808
2.59808
2.59808
2.59808
2.59808
2.59808
2.59808
2.59808
2.59808
2.59808
2.59808
2.59808
2.59808
2.59808
2.59808
2.59808
2.59808
2.59809
2.59809
2.59812
2.59813
2.59815
2.59819
2.59823
2.59829
2.59836
2.59846
2.59858
2.59871
2.59887
2.59907
2.59931
2.59956
2.59985
2.60017
2.60055
2.60094
2.60138
2.60184
2.60235
2.60292
2.60356
2.60428
2.60506
2.60597
2.60697
2.60808
2.60935
2.61073
2.61231
2.61405
2.61599
2.61816
2.62059
2.62326
2.62628
2.62962
2.63338
2.63752
2.64214
2.64724
2.65292
2.65914
2.66614
2.67375
2.68228
2.69145
2.70146
2.71182
2.72431
2.73634
2.75324
2.76311
2.80026
2.4936
1.16877
0.969197
0.85428
0.579039
0.452348
0.410091
0.448692
0.456254
0.462401
0.469796
0.465438
0.451619
0.434316
0.412039
0.390335
0.368413
0.348045
0.327435
0.310431
0.295666
0.280915
0.267419
0.253801
0.241431
0.22797
0.216128
0.203104
0.19238
0.180308
0.173469
0.166024
0.161668
0.155145
0.144186
0.114317
0.105296
0.0884522
0.160805
2.59808
2.59808
2.59808
2.59808
2.59808
2.59808
2.59808
2.59808
2.59808
2.59808
2.59808
2.59808
2.59808
2.59808
2.59808
2.59808
2.59808
2.59808
2.59808
2.59808
2.59808
2.59808
2.59808
2.59809
2.59809
2.59812
2.59813
2.59815
2.59819
2.59822
2.59828
2.59834
2.59843
2.59854
2.59867
2.59882
2.59901
2.59923
2.59946
2.59976
2.60005
2.60041
2.60078
2.60119
2.60163
2.60211
2.60263
2.60325
2.60391
2.60467
2.60552
2.60647
2.60751
2.60871
2.61002
2.61151
2.61316
2.61503
2.61707
2.61937
2.62194
2.62483
2.62802
2.63163
2.63562
2.64011
2.64506
2.65058
2.65666
2.66344
2.6709
2.67934
2.68861
2.69899
2.71056
2.72278
2.73452
2.74634
2.75707
2.73737
1.82929
1.04041
0.891249
0.760195
0.49275
0.40047
0.391391
0.424551
0.441721
0.448842
0.453216
0.449337
0.436907
0.421155
0.399672
0.378149
0.357375
0.338697
0.322382
0.308551
0.295046
0.280391
0.266741
0.252888
0.240879
0.228614
0.218859
0.207756
0.199161
0.18827
0.182633
0.176044
0.171901
0.165818
0.154015
0.123951
0.110049
0.0900599
0.155054
2.59808
2.59808
2.59808
2.59808
2.59808
2.59808
2.59808
2.59808
2.59808
2.59808
2.59808
2.59808
2.59808
2.59808
2.59808
2.59808
2.59808
2.59808
2.59808
2.59808
2.59808
2.59808
2.59808
2.59809
2.59809
2.5981
2.59813
2.59814
2.59816
2.59821
2.59826
2.59833
2.59841
2.59851
2.59862
2.59878
2.59894
2.59914
2.59937
2.59963
2.59991
2.60023
2.60059
2.60096
2.60138
2.60183
2.60231
2.60288
2.60351
2.60422
2.605
2.60589
2.60686
2.60797
2.6092
2.61059
2.61213
2.61388
2.6158
2.61799
2.6204
2.62313
2.62616
2.62961
2.63341
2.63772
2.64248
2.64788
2.65382
2.66054
2.66802
2.67655
2.68616
2.69592
2.70632
2.7166
2.72558
2.72902
2.7498
2.63675
1.39267
0.946402
0.824545
0.643568
0.427931
0.36645
0.392576
0.410646
0.428572
0.441684
0.444024
0.440573
0.429587
0.415405
0.39591
0.374137
0.352236
0.330992
0.314795
0.301395
0.288705
0.275577
0.264073
0.251832
0.241611
0.2308
0.222771
0.213133
0.206266
0.196623
0.191906
0.185753
0.181309
0.174919
0.162079
0.132887
0.115004
0.0920563
0.148198
2.59808
2.59808
2.59808
2.59808
2.59808
2.59808
2.59808
2.59808
2.59808
2.59808
2.59808
2.59808
2.59808
2.59808
2.59808
2.59808
2.59808
2.59808
2.59808
2.59808
2.59808
2.59808
2.59808
2.59809
2.59809
2.5981
2.59812
2.59814
2.59816
2.5982
2.59825
2.5983
2.59838
2.59847
2.59859
2.59872
2.59887
2.59905
2.59926
2.5995
2.59976
2.60004
2.60037
2.60073
2.60109
2.60151
2.60196
2.60248
2.60306
2.60371
2.60442
2.60524
2.60614
2.60715
2.60829
2.60958
2.61099
2.61261
2.61438
2.61642
2.61867
2.62122
2.62406
2.62729
2.63088
2.63498
2.63955
2.64479
2.65064
2.65729
2.66467
2.67278
2.68183
2.69137
2.70311
2.71406
2.73126
2.74294
2.78317
2.54408
1.13635
0.885359
0.753584
0.503808
0.380769
0.352184
0.392558
0.41068
0.424613
0.437347
0.437829
0.434747
0.424225
0.411192
0.394036
0.374784
0.354943
0.335146
0.319846
0.305904
0.292516
0.278978
0.267333
0.254842
0.244721
0.234257
0.227197
0.218646
0.213347
0.205114
0.20107
0.19527
0.1902
0.183025
0.168785
0.141011
0.120157
0.0945002
0.141013
2.59808
2.59808
2.59808
2.59808
2.59808
2.59808
2.59808
2.59808
2.59808
2.59808
2.59808
2.59808
2.59808
2.59808
2.59808
2.59808
2.59808
2.59808
2.59808
2.59808
2.59808
2.59808
2.59808
2.59808
2.59809
2.59809
2.59812
2.59813
2.59815
2.59819
2.59822
2.59828
2.59834
2.59842
2.59853
2.59865
2.59879
2.59894
2.59913
2.59934
2.59958
2.59985
2.60015
2.60044
2.6008
2.60115
2.60157
2.60204
2.60255
2.60313
2.60378
2.60451
2.60533
2.60625
2.60727
2.60843
2.60972
2.61117
2.61279
2.61465
2.61671
2.61907
2.62169
2.6247
2.62804
2.63191
2.63624
2.64123
2.64682
2.65316
2.66028
2.66842
2.67768
2.68851
2.70292
2.71976
2.7405
2.76145
2.76415
1.8946
0.993603
0.78326
0.626833
0.41282
0.344757
0.365201
0.393684
0.414055
0.427791
0.437691
0.438268
0.436562
0.426538
0.412773
0.393453
0.372475
0.352333
0.334796
0.321245
0.30753
0.294774
0.282114
0.271404
0.25954
0.250245
0.240107
0.233653
0.22565
0.221076
0.213913
0.209915
0.204311
0.198304
0.190083
0.174624
0.148501
0.125482
0.0976536
0.134005
2.59808
2.59808
2.59808
2.59808
2.59808
2.59808
2.59808
2.59808
2.59808
2.59808
2.59808
2.59808
2.59808
2.59808
2.59808
2.59808
2.59808
2.59808
2.59808
2.59808
2.59808
2.59808
2.59808
2.59808
2.59809
2.59809
2.5981
2.59813
2.59814
2.59816
2.59821
2.59826
2.59832
2.59839
2.59847
2.59858
2.59869
2.59885
2.599
2.59919
2.59939
2.59963
2.59989
2.60016
2.60045
2.60077
2.60114
2.60154
2.602
2.60251
2.60308
2.60373
2.60444
2.60524
2.60615
2.60717
2.60832
2.60962
2.61106
2.61272
2.61455
2.61667
2.61904
2.62179
2.62485
2.62841
2.6324
2.63703
2.64223
2.64845
2.6555
2.66452
2.67407
2.68496
2.69511
2.70452
2.70629
2.7242
2.59654
1.35909
0.836638
0.69024
0.489806
0.368073
0.33509
0.379838
0.402607
0.421191
0.432124
0.441031
0.438996
0.436958
0.430356
0.418074
0.40161
0.381084
0.359812
0.342556
0.328747
0.314387
0.30122
0.288011
0.276845
0.264985
0.256144
0.24634
0.24036
0.232904
0.228794
0.222415
0.218112
0.21242
0.205418
0.196341
0.179918
0.155481
0.130865
0.101345
0.127594
2.59808
2.59808
2.59808
2.59808
2.59808
2.59808
2.59808
2.59808
2.59808
2.59808
2.59808
2.59808
2.59808
2.59808
2.59808
2.59808
2.59808
2.59808
2.59808
2.59808
2.59808
2.59808
2.59808
2.59808
2.59809
2.59809
2.5981
2.59812
2.59814
2.59815
2.59819
2.59822
2.59827
2.59834
2.59841
2.59849
2.5986
2.59872
2.59886
2.59901
2.59919
2.59939
2.5996
2.59984
2.6001
2.60037
2.60068
2.60103
2.60141
2.60186
2.60233
2.60289
2.60349
2.60419
2.60496
2.60583
2.60681
2.60792
2.60918
2.6106
2.61221
2.61405
2.61614
2.61855
2.62129
2.62446
2.62808
2.63238
2.6373
2.64311
2.64969
2.6572
2.66516
2.67545
2.68574
2.70671
2.73175
2.79106
2.54838
1.07382
0.741478
0.570944
0.393946
0.330653
0.360772
0.3886
0.415288
0.430679
0.442092
0.44961
0.448532
0.444797
0.434787
0.420743
0.403805
0.383947
0.363907
0.348065
0.334674
0.320736
0.308619
0.295888
0.284924
0.273273
0.264616
0.254739
0.248513
0.240991
0.236582
0.230401
0.225554
0.219438
0.211491
0.201889
0.185092
0.161896
0.136427
0.105473
0.122003
2.59808
2.59808
2.59808
2.59808
2.59808
2.59808
2.59808
2.59808
2.59808
2.59808
2.59808
2.59808
2.59808
2.59808
2.59808
2.59808
2.59808
2.59808
2.59808
2.59808
2.59808
2.59808
2.59808
2.59808
2.59808
2.59809
2.59809
2.5981
2.59813
2.59814
2.59816
2.5982
2.59823
2.59828
2.59834
2.59841
2.59849
2.5986
2.59872
2.59883
2.59899
2.59914
2.59933
2.59952
2.59973
2.59994
2.6002
2.60049
2.60081
2.60116
2.60155
2.602
2.60251
2.60306
2.6037
2.60442
2.60521
2.60613
2.60716
2.60835
2.60967
2.61123
2.61299
2.61504
2.61738
2.62013
2.62328
2.62699
2.63124
2.63627
2.64207
2.64953
2.65883
2.672
2.68638
2.6987
2.70883
2.64778
1.68418
0.822921
0.62614
0.449444
0.354751
0.331851
0.376768
0.402767
0.426013
0.439124
0.449062
0.454964
0.455132
0.453828
0.445337
0.432083
0.414406
0.39378
0.373759
0.357413
0.342874
0.328349
0.316175
0.303494
0.292899
0.281668
0.273165
0.26337
0.256763
0.248966
0.24395
0.237506
0.231893
0.225306
0.216711
0.206939
0.190227
0.16819
0.14219
0.109953
0.117581
2.59808
2.59808
2.59808
2.59808
2.59808
2.59808
2.59808
2.59808
2.59808
2.59808
2.59808
2.59808
2.59808
2.59808
2.59808
2.59808
2.59808
2.59808
2.59808
2.59808
2.59808
2.59808
2.59808
2.59808
2.59808
2.59808
2.59809
2.59809
2.5981
2.59813
2.59814
2.59816
2.5982
2.59822
2.59827
2.59833
2.5984
2.59847
2.59855
2.59866
2.59876
2.59889
2.59902
2.59918
2.59934
2.59952
2.59972
2.59993
2.60018
2.60045
2.60074
2.6011
2.60148
2.60191
2.6024
2.60295
2.60356
2.60427
2.60507
2.60599
2.60704
2.60826
2.60966
2.61128
2.61316
2.61537
2.61795
2.62104
2.62472
2.62934
2.63494
2.64001
2.64618
2.65235
2.66154
2.66734
2.70278
2.63622
1.14696
0.661014
0.506596
0.365267
0.324488
0.364912
0.393089
0.419599
0.439634
0.452221
0.460451
0.463875
0.463015
0.459478
0.451699
0.438956
0.421996
0.40188
0.38299
0.367087
0.352888
0.338676
0.326676
0.313877
0.303246
0.292043
0.283158
0.273097
0.265674
0.25718
0.25112
0.244015
0.237469
0.230264
0.221217
0.211555
0.195318
0.174449
0.148153
0.114813
0.114298
2.59808
2.59808
2.59808
2.59808
2.59808
2.59808
2.59808
2.59808
2.59808
2.59808
2.59808
2.59808
2.59808
2.59808
2.59808
2.59808
2.59808
2.59808
2.59808
2.59808
2.59808
2.59808
2.59808
2.59808
2.59808
2.59808
2.59808
2.59809
2.59809
2.5981
2.59812
2.59813
2.59815
2.59817
2.59821
2.59824
2.59829
2.59834
2.59841
2.59847
2.59855
2.59863
2.59874
2.59883
2.59896
2.59908
2.59922
2.59937
2.59954
2.59974
2.59995
2.60019
2.60046
2.60075
2.60109
2.60147
2.60189
2.6024
2.60295
2.6036
2.60433
2.6052
2.60619
2.60736
2.60874
2.61041
2.61237
2.61463
2.61724
2.62051
2.62476
2.62941
2.63706
2.64915
2.66598
2.68176
2.67933
2.03619
0.790728
0.547911
0.403165
0.341071
0.340484
0.383848
0.411583
0.435936
0.452726
0.464658
0.47166
0.474626
0.474335
0.471196
0.462975
0.449983
0.432682
0.411946
0.392846
0.376395
0.362243
0.348331
0.336634
0.32404
0.313521
0.302392
0.293067
0.282758
0.274384
0.265089
0.257782
0.249878
0.242353
0.234593
0.225229
0.215744
0.200008
0.180252
0.154255
0.120367
0.112131
2.59808
2.59808
2.59808
2.59808
2.59808
2.59808
2.59808
2.59808
2.59808
2.59808
2.59808
2.59808
2.59808
2.59808
2.59808
2.59808
2.59808
2.59808
2.59808
2.59808
2.59808
2.59808
2.59808
2.59808
2.59808
2.59808
2.59808
2.59808
2.59808
2.59808
2.59809
2.59809
2.5981
2.59813
2.59814
2.59816
2.59818
2.59822
2.59824
2.59829
2.59834
2.59838
2.59844
2.59851
2.59858
2.59865
2.59875
2.59883
2.59892
2.59904
2.59917
2.59931
2.59945
2.59963
2.59981
2.60002
2.60027
2.60054
2.60087
2.60123
2.60165
2.60214
2.60274
2.60342
2.60424
2.60525
2.60646
2.60796
2.60998
2.61295
2.61576
2.61801
2.61952
2.62152
2.61962
2.63614
2.5614
1.18739
0.583782
0.438159
0.348316
0.326491
0.376336
0.40343
0.430118
0.450718
0.465823
0.47658
0.481743
0.484298
0.484332
0.481668
0.474005
0.461476
0.444733
0.424382
0.4054
0.388307
0.374148
0.360133
0.348244
0.335394
0.324547
0.313146
0.303062
0.292274
0.282783
0.272701
0.264066
0.255348
0.246834
0.238431
0.228728
0.219194
0.204197
0.185693
0.159882
0.126625
0.111366
2.59808
2.59808
2.59808
2.59808
2.59808
2.59808
2.59808
2.59808
2.59808
2.59808
2.59808
2.59808
2.59808
2.59808
2.59808
2.59808
2.59808
2.59808
2.59808
2.59808
2.59808
2.59808
2.59808
2.59808
2.59808
2.59808
2.59808
2.59808
2.59808
2.59806
2.59806
2.59806
2.59808
2.59808
2.59808
2.59808
2.59808
2.59809
2.5981
2.59811
2.59814
2.59815
2.59817
2.59819
2.59823
2.59825
2.59828
2.59832
2.59834
2.59839
2.59842
2.59847
2.59851
2.59856
2.59862
2.59867
2.59873
2.59881
2.59889
2.59898
2.5991
2.59923
2.59942
2.59963
2.59992
2.6003
2.60077
2.60124
2.60195
2.60312
2.60446
2.60723
2.61253
2.62422
2.6354
2.63724
2.2238
0.727096
0.46795
0.366784
0.334209
0.360762
0.396699
0.424083
0.448361
0.466854
0.480154
0.489075
0.493357
0.495489
0.495045
0.492435
0.484884
0.472588
0.456234
0.436108
0.417274
0.399762
0.385743
0.37161
0.359715
0.346698
0.335464
0.323679
0.312752
0.301434
0.290774
0.279918
0.270051
0.260572
0.251092
0.242175
0.232161
0.222555
0.207802
0.190269
0.165215
0.133417
0.112499
2.59808
2.59808
2.59808
2.59808
2.59808
2.59808
2.59808
2.59808
2.59808
2.59808
2.59808
2.59808
2.59808
2.59808
2.59808
2.59808
2.59808
2.59808
2.59808
2.59808
2.59808
2.59808
2.59808
2.59808
2.59808
2.59806
2.59806
2.59806
2.59806
2.59805
2.59803
2.59803
2.59802
2.59802
2.59801
2.59801
2.59798
2.59798
2.59796
2.59795
2.59795
2.59792
2.59792
2.59791
2.59791
2.59788
2.59786
2.59785
2.59782
2.59778
2.59775
2.59771
2.59766
2.5976
2.59753
2.59743
2.59736
2.59725
2.5971
2.59696
2.59681
2.59658
2.59636
2.59615
2.59584
2.59556
2.59537
2.59534
2.59529
2.59497
2.59413
2.59189
2.59033
2.586
2.59215
2.5318
1.16083
0.512206
0.379578
0.341136
0.346444
0.391954
0.418434
0.445776
0.465903
0.482335
0.49386
0.501401
0.505426
0.508221
0.508005
0.505628
0.498128
0.486083
0.469848
0.449887
0.430682
0.412495
0.398126
0.383532
0.371424
0.358041
0.346226
0.333846
0.32196
0.310095
0.298426
0.286917
0.275865
0.265617
0.255283
0.24574
0.235325
0.225305
0.210849
0.194478
0.169738
0.140373
0.115336
2.59808
2.59808
2.59808
2.59808
2.59808
2.59808
2.59808
2.59808
2.59808
2.59808
2.59808
2.59808
2.59808
2.59808
2.59808
2.59808
2.59808
2.59808
2.59808
2.59808
2.59808
2.59808
2.59808
2.59808
2.59806
2.59806
2.59806
2.59806
2.59803
2.59803
2.59802
2.59801
2.59799
2.59796
2.59795
2.59792
2.59789
2.59788
2.59784
2.59779
2.59777
2.59773
2.59767
2.59764
2.5976
2.59754
2.59749
2.59742
2.59735
2.59725
2.59717
2.59705
2.5969
2.59676
2.59658
2.59638
2.59615
2.5959
2.59556
2.59524
2.59482
2.59439
2.59382
2.59326
2.59247
2.59159
2.59054
2.58938
2.58833
2.58738
2.5871
2.58682
2.58742
2.58674
2.57515
2.14949
0.633168
0.396608
0.350418
0.347727
0.384297
0.413167
0.440303
0.464165
0.482829
0.497039
0.506932
0.51391
0.517446
0.520057
0.519659
0.517474
0.51039
0.498904
0.483044
0.463562
0.444095
0.425379
0.410607
0.395543
0.383191
0.369389
0.356958
0.343928
0.330996
0.318526
0.305861
0.293734
0.281623
0.270571
0.259455
0.249327
0.238262
0.227909
0.213701
0.198263
0.174196
0.147213
0.119923
2.59808
2.59808
2.59808
2.59808
2.59808
2.59808
2.59808
2.59808
2.59808
2.59808
2.59808
2.59808
2.59808
2.59808
2.59808
2.59808
2.59808
2.59808
2.59808
2.59808
2.59808
2.59808
2.59808
2.59808
2.59806
2.59806
2.59806
2.59803
2.59802
2.59802
2.59801
2.59796
2.59795
2.59794
2.59789
2.59785
2.59781
2.59777
2.59771
2.59766
2.5976
2.59754
2.59747
2.59741
2.59734
2.59727
2.59717
2.59705
2.59693
2.5968
2.59665
2.59648
2.59629
2.59605
2.59581
2.59551
2.59519
2.5948
2.59437
2.59382
2.59325
2.59256
2.59181
2.5909
2.58997
2.58875
2.5873
2.58536
2.58276
2.58007
2.57726
2.57591
2.57297
2.57821
2.53895
1.10383
0.446302
0.356608
0.346467
0.379062
0.410501
0.437087
0.462189
0.482094
0.497932
0.510477
0.520357
0.527654
0.531094
0.533599
0.532774
0.530619
0.52391
0.512876
0.497428
0.478176
0.458056
0.438555
0.423136
0.40753
0.394765
0.380478
0.367391
0.353718
0.339909
0.326824
0.313293
0.300583
0.287424
0.275717
0.263709
0.25266
0.240823
0.230128
0.216158
0.201829
0.178416
0.153815
0.125141
2.59808
2.59808
2.59808
2.59808
2.59808
2.59808
2.59808
2.59808
2.59808
2.59808
2.59808
2.59808
2.59808
2.59808
2.59808
2.59808
2.59808
2.59808
2.59808
2.59808
2.59808
2.59808
2.59808
2.59806
2.59806
2.59806
2.59805
2.59803
2.59802
2.59801
2.59798
2.59795
2.59792
2.59788
2.59784
2.59778
2.59774
2.59769
2.59762
2.59753
2.59746
2.59739
2.59729
2.59721
2.59711
2.59702
2.59689
2.59676
2.5966
2.59643
2.59625
2.59603
2.59579
2.59549
2.5952
2.59484
2.59444
2.59399
2.59349
2.59288
2.59217
2.59133
2.59033
2.5892
2.58793
2.58656
2.585
2.5832
2.58095
2.5781
2.57333
2.56711
2.55944
2.55012
2.12823
0.591376
0.377449
0.351937
0.386104
0.411516
0.43835
0.462536
0.482383
0.4997
0.513846
0.525246
0.533842
0.541031
0.544015
0.546425
0.54573
0.543982
0.537714
0.527231
0.512073
0.493054
0.472361
0.452147
0.436044
0.419862
0.4065
0.391666
0.377816
0.363442
0.34861
0.334832
0.320598
0.307125
0.293235
0.280554
0.267573
0.255779
0.243141
0.232331
0.218675
0.205133
0.182883
0.160564
0.131268
2.59808
2.59808
2.59808
2.59808
2.59808
2.59808
2.59808
2.59808
2.59808
2.59808
2.59808
2.59808
2.59808
2.59808
2.59808
2.59808
2.59808
2.59808
2.59808
2.59808
2.59808
2.59808
2.59808
2.59806
2.59806
2.59806
2.59803
2.59802
2.59801
2.59799
2.59795
2.59794
2.59789
2.59784
2.5978
2.59774
2.59769
2.5976
2.59752
2.59745
2.59735
2.59725
2.59714
2.59704
2.59693
2.59681
2.59667
2.59651
2.59633
2.59615
2.59593
2.59569
2.59541
2.5951
2.59477
2.59437
2.59392
2.59343
2.59289
2.59228
2.59156
2.59071
2.58965
2.58831
2.58668
2.58482
2.58323
2.58134
2.57973
2.57733
2.57432
2.56908
2.56295
2.53426
1.11874
0.421225
0.358803
0.39154
0.415938
0.442442
0.464192
0.485111
0.501913
0.516767
0.529453
0.540103
0.547839
0.554439
0.556809
0.559432
0.558943
0.558014
0.552083
0.542114
0.527102
0.508268
0.48716
0.466306
0.449393
0.432414
0.418396
0.402775
0.38826
0.373035
0.3573
0.342919
0.32796
0.313815
0.298997
0.285583
0.27163
0.25909
0.245699
0.234571
0.220838
0.208118
0.187023
0.167046
0.137246
2.59808
2.59808
2.59808
2.59808
2.59808
2.59808
2.59808
2.59808
2.59808
2.59808
2.59808
2.59808
2.59808
2.59808
2.59808
2.59808
2.59808
2.59808
2.59808
2.59808
2.59808
2.59808
2.59806
2.59806
2.59806
2.59805
2.59803
2.59802
2.59801
2.59796
2.59795
2.59789
2.59787
2.59781
2.59776
2.59769
2.59762
2.59753
2.59745
2.59735
2.59725
2.59714
2.59702
2.5969
2.59678
2.59664
2.59648
2.59632
2.59614
2.59591
2.59569
2.59542
2.59515
2.59484
2.59448
2.59409
2.59365
2.59311
2.59252
2.59185
2.59114
2.59035
2.58949
2.58848
2.58714
2.58528
2.5828
2.58038
2.57818
2.57652
2.57453
2.57274
2.5671
2.31524
0.608176
0.398507
0.388708
0.423738
0.447114
0.469194
0.489232
0.506692
0.5217
0.534434
0.545892
0.555676
0.562679
0.568408
0.570281
0.573009
0.572523
0.572203
0.566752
0.557158
0.542271
0.52374
0.502384
0.480949
0.463045
0.445236
0.430311
0.414041
0.398742
0.382624
0.365862
0.350631
0.334994
0.319915
0.304464
0.290101
0.275269
0.262141
0.248103
0.236884
0.223351
0.211268
0.191144
0.173297
0.143617
2.59808
2.59808
2.59808
2.59808
2.59808
2.59808
2.59808
2.59808
2.59808
2.59808
2.59808
2.59808
2.59808
2.59808
2.59808
2.59808
2.59808
2.59808
2.59808
2.59808
2.59808
2.59808
2.59806
2.59806
2.59806
2.59803
2.59802
2.59801
2.59799
2.59796
2.59794
2.59788
2.59784
2.59778
2.59771
2.59764
2.59756
2.59746
2.59738
2.59727
2.59715
2.59703
2.59692
2.59678
2.59665
2.59651
2.59635
2.59616
2.59597
2.59576
2.59552
2.59526
2.59497
2.59466
2.59431
2.59393
2.5935
2.59305
2.5925
2.59192
2.59124
2.59052
2.58969
2.58877
2.5877
2.58642
2.58468
2.58257
2.57915
2.57523
2.57223
2.57067
2.57068
1.26159
0.44667
0.393964
0.432734
0.456287
0.478061
0.496111
0.511334
0.525617
0.539399
0.551317
0.562458
0.571612
0.577848
0.582686
0.584263
0.586704
0.586025
0.586399
0.581272
0.572124
0.557586
0.539584
0.518322
0.496159
0.477091
0.458034
0.442347
0.424995
0.408987
0.391762
0.373926
0.358087
0.34155
0.326139
0.310004
0.295153
0.279534
0.265806
0.251295
0.239735
0.225932
0.214187
0.194714
0.179238
0.149545
2.59808
2.59808
2.59808
2.59808
2.59808
2.59808
2.59808
2.59808
2.59808
2.59808
2.59808
2.59808
2.59808
2.59808
2.59808
2.59808
2.59808
2.59808
2.59808
2.59808
2.59808
2.59808
2.59806
2.59806
2.59806
2.59803
2.59802
2.59801
2.59799
2.59795
2.59791
2.59787
2.59783
2.59776
2.59769
2.59762
2.59752
2.59744
2.59732
2.59721
2.59708
2.59696
2.59683
2.5967
2.59656
2.5964
2.59622
2.59604
2.59584
2.59562
2.59539
2.59512
2.59484
2.59453
2.5942
2.59385
2.59345
2.59303
2.59254
2.59201
2.5914
2.59075
2.59
2.58916
2.5883
2.58738
2.58632
2.58526
2.5839
2.5817
2.57964
2.57338
2.45905
0.67857
0.436518
0.436979
0.470381
0.490234
0.508694