/*--------------------------------*- C++ -*----------------------------------*\
| =========                 |                                                 |
| \\      /  F ield         | OpenFOAM: The Open Source CFD Toolbox           |
|  \\    /   O peration     | Version:  2.2.x                                 |
|   \\  /    A nd           | Web:      www.OpenFOAM.org                      |
|    \\/     M anipulation  |                                                 |
\*---------------------------------------------------------------------------*/
FoamFile
{
    version     2.0;
    format      ascii;
    class       volScalarField;
    location    "0.2";
    object      pB;
}
// * * * * * * * * * * * * * * * * * * * * * * * * * * * * * * * * * * * * * //

dimensions      [1 1 -3 0 0 -1 0];

internalField   nonuniform List<scalar> 
14161
(
-3.02914e-13
-2.95436e-13
-9.35078e-13
-2.1663e-12
-5.21238e-12
-1.20219e-11
-2.72172e-11
-6.01502e-11
-1.30047e-10
-2.75169e-10
-5.7023e-10
-1.15796e-09
-2.30499e-09
-4.49842e-09
-8.60599e-09
-1.61365e-08
-2.96263e-08
-5.32833e-08
-9.36476e-08
-1.61284e-07
-2.70937e-07
-4.4561e-07
-7.16077e-07
-1.12319e-06
-1.7292e-06
-2.58741e-06
-3.82495e-06
-5.47118e-06
-7.78003e-06
-1.06745e-05
-1.46229e-05
-1.93187e-05
-2.56678e-05
-3.25116e-05
-4.2265e-05
-5.13588e-05
-6.54572e-05
-7.69253e-05
-9.57766e-05
-0.000109858
-0.000133267
-0.00015072
-0.000177445
-0.000199057
-0.000227344
-0.000254656
-0.000285275
-0.000321968
-0.000355691
-0.000404772
-0.000442132
-0.000504722
-0.000547918
-0.00062433
-0.0006783
-0.000763804
-0.000843161
-0.00092624
-0.00103453
-0.00111875
-0.00124124
-0.00134622
-0.00146611
-0.00161764
-0.00176677
-0.00196235
-0.00211916
-0.00227507
-0.00239225
-0.0024986
-0.00261065
-0.00273388
-0.00288738
-0.00319281
-0.00333483
-0.00316717
-0.00276796
-0.00223094
-0.00141906
-0.000489118
0.00201283
0.00043263
0.0138039
0.0163838
0.0105926
0.0046914
0.0043159
-0.000783198
-0.00267425
-0.00101297
-0.00469745
-0.00138581
-0.00275058
-0.00242906
-0.00225338
-0.00160392
-0.00108529
-0.000913745
-0.000781103
-0.000103263
0.000205359
0.000173407
0.000310884
0.000529152
0.000706788
0.000856161
0.000921431
0.000893412
0.000267526
-0.000273854
-0.000802594
-0.00265144
-0.00366711
-0.0058728
-0.00608714
-0.00150452
-0.0215339
0.0206836
-0.0712696
-3.05073e-13
-2.97228e-13
-9.41655e-13
-2.17901e-12
-5.23842e-12
-1.20709e-11
-2.72678e-11
-6.01866e-11
-1.30099e-10
-2.75222e-10
-5.70238e-10
-1.15763e-09
-2.30392e-09
-4.49568e-09
-8.59924e-09
-1.61209e-08
-2.95994e-08
-5.32147e-08
-9.36207e-08
-1.60947e-07
-2.70948e-07
-4.44672e-07
-7.15593e-07
-1.12199e-06
-1.72579e-06
-2.58985e-06
-3.81143e-06
-5.48487e-06
-7.7466e-06
-1.07026e-05
-1.45835e-05
-1.93691e-05
-2.54942e-05
-3.27648e-05
-4.18588e-05
-5.18942e-05
-6.49184e-05
-7.74911e-05
-9.51882e-05
-0.000110746
-0.000132531
-0.000151466
-0.000176697
-0.000199381
-0.000227205
-0.000253905
-0.000285555
-0.000320245
-0.000357374
-0.000401465
-0.000445476
-0.000500027
-0.000551102
-0.000620772
-0.000679631
-0.000763849
-0.000837488
-0.000930534
-0.00103135
-0.0011258
-0.00123568
-0.00135114
-0.00148183
-0.00163489
-0.0017722
-0.00195637
-0.00210954
-0.0022934
-0.00241081
-0.0025246
-0.00262584
-0.00279809
-0.00297683
-0.00318074
-0.00324167
-0.00320114
-0.00303616
-0.0026931
-0.00198375
-0.00126873
0.00135191
0.00240069
0.00835377
0.0209284
0.0110863
0.00287796
-0.000910079
0.000877647
-0.00107538
-0.000911229
-0.0048261
-0.00180926
-0.00292576
-0.00132449
-0.00133609
-0.00140215
-0.000293879
0.000622261
0.000949887
0.0011508
0.00117245
0.00119055
0.00143453
0.00188725
0.00255785
0.0029971
0.0039133
0.00393852
0.00415804
0.00413927
0.00490109
0.00504755
0.00710795
0.00733007
0.00707006
0.0106579
-0.011714
0.0199555
-0.0626386
-3.02884e-13
-2.9446e-13
-9.32887e-13
-2.15874e-12
-5.19387e-12
-1.19712e-11
-2.70979e-11
-5.98685e-11
-1.29365e-10
-2.73586e-10
-5.66692e-10
-1.15038e-09
-2.28943e-09
-4.46697e-09
-8.54551e-09
-1.60186e-08
-2.94315e-08
-5.28753e-08
-9.31413e-08
-1.59924e-07
-2.69453e-07
-4.42569e-07
-7.11075e-07
-1.11822e-06
-1.7133e-06
-2.58303e-06
-3.78134e-06
-5.47426e-06
-7.68383e-06
-1.06912e-05
-1.44599e-05
-1.93343e-05
-2.5291e-05
-3.27076e-05
-4.13604e-05
-5.19621e-05
-6.37749e-05
-7.80322e-05
-9.35611e-05
-0.000111172
-0.000131089
-0.000151636
-0.00017565
-0.000199049
-0.000226365
-0.000252839
-0.000285819
-0.000317521
-0.000358544
-0.000397031
-0.00044713
-0.000493232
-0.000554919
-0.000611789
-0.000683191
-0.000757728
-0.000837071
-0.000933249
-0.00101953
-0.00112856
-0.00123204
-0.00135405
-0.00147092
-0.0016173
-0.00175992
-0.00195224
-0.00210717
-0.00228495
-0.00242113
-0.00256089
-0.00269271
-0.00286259
-0.00307962
-0.00325748
-0.003428
-0.00360291
-0.00361331
-0.00332464
-0.00254734
-0.00183012
0.000425172
0.00134773
0.00550162
0.0252024
0.00900159
0.00272692
0.000308713
-0.000787917
-0.00211165
0.000972677
-0.00108204
0.00252344
0.00295184
0.00107775
0.000189798
-0.000561458
-0.000767943
-0.00079699
-0.000314026
0.00056733
0.0013513
0.00153016
0.00127308
0.000589767
6.92316e-06
-0.000733828
-0.000947966
-0.00110076
-0.00104752
-0.00117061
-0.0011958
-0.00191614
-0.00143201
-0.00206221
-0.00147901
0.00230888
-0.0151298
0.0171882
-0.0620854
-3.02504e-13
-2.94408e-13
-9.31767e-13
-2.15418e-12
-5.17806e-12
-1.19302e-11
-2.69685e-11
-5.95223e-11
-1.28583e-10
-2.71855e-10
-5.6297e-10
-1.14238e-09
-2.27272e-09
-4.43314e-09
-8.48028e-09
-1.58938e-08
-2.91968e-08
-5.2472e-08
-9.22918e-08
-1.58962e-07
-2.66743e-07
-4.39982e-07
-7.04255e-07
-1.11093e-06
-1.6989e-06
-2.5642e-06
-3.75424e-06
-5.42871e-06
-7.63059e-06
-1.06043e-05
-1.43304e-05
-1.9221e-05
-2.50912e-05
-3.25156e-05
-4.10411e-05
-5.18333e-05
-6.31481e-05
-7.8046e-05
-9.21617e-05
-0.000111427
-0.000128664
-0.000152056
-0.000172594
-0.000199134
-0.000223206
-0.000252486
-0.000282735
-0.000316164
-0.000356444
-0.000394581
-0.000445651
-0.000490239
-0.00055392
-0.000605083
-0.000685016
-0.000746724
-0.000837611
-0.000921871
-0.00101583
-0.00112673
-0.0012264
-0.0013583
-0.00147301
-0.00162891
-0.00176622
-0.00193998
-0.00209518
-0.00228728
-0.00243657
-0.00262872
-0.00277966
-0.00304155
-0.00319944
-0.00347836
-0.00363666
-0.00392321
-0.00397799
-0.0042555
-0.00404172
-0.00450552
-0.00477784
-0.00486219
-0.00854882
0.0479544
-0.0168339
-0.00403826
-0.000716588
-1.72746e-05
-0.00114069
-0.000139004
-0.000456164
-0.000958008
-0.00135131
-0.000433056
0.000740462
0.00231988
0.00255296
0.00254966
0.00228846
0.00151043
0.00086021
0.000491072
0.000766146
0.00117333
0.00167835
0.00188529
0.0021649
0.00176384
0.00158985
0.000882539
0.000554127
-2.68275e-05
-0.000277918
-0.00105782
-0.00172863
-7.05869e-05
-0.0108236
0.0140885
-0.0601279
-3.01641e-13
-2.9079e-13
-9.22802e-13
-2.1318e-12
-5.1217e-12
-1.17921e-11
-2.66547e-11
-5.88196e-11
-1.26982e-10
-2.68274e-10
-5.55233e-10
-1.12631e-09
-2.24029e-09
-4.37004e-09
-8.35742e-09
-1.56704e-08
-2.8765e-08
-5.17777e-08
-9.09821e-08
-1.56857e-07
-2.63618e-07
-4.33677e-07
-6.97287e-07
-1.09466e-06
-1.68398e-06
-2.52602e-06
-3.72426e-06
-5.35073e-06
-7.57135e-06
-1.04635e-05
-1.421e-05
-1.90291e-05
-2.47698e-05
-3.22959e-05
-4.04042e-05
-5.15338e-05
-6.20301e-05
-7.75868e-05
-9.06968e-05
-0.000110792
-0.000126707
-0.000151212
-0.000169744
-0.000198269
-0.000219204
-0.000251865
-0.00027709
-0.000315985
-0.000349111
-0.000393403
-0.000438443
-0.000487449
-0.000546256
-0.000601843
-0.000676691
-0.000739402
-0.000833445
-0.000906598
-0.00101672
-0.00110982
-0.00122586
-0.00134942
-0.00146879
-0.0016241
-0.00175755
-0.00193793
-0.00209294
-0.0022906
-0.00245979
-0.00267614
-0.00286041
-0.00314712
-0.00337092
-0.00364728
-0.00385566
-0.0041168
-0.00439511
-0.00489716
-0.00512991
-0.00600434
-0.00682904
-0.00328855
-0.0183309
0.102093
-0.0195755
0.0179961
-0.00887776
0.00254827
-0.0049375
-0.00303658
-0.00381718
-0.000968318
-0.000688175
0.000252846
0.000199231
-0.00220306
-0.00224587
-0.000938508
-0.000541049
-0.000182313
0.00014826
0.000195549
7.9579e-05
-0.000320538
-0.000748712
-0.00115878
-0.00144131
-0.00175175
-0.00189268
-0.00180331
-0.00181911
-0.00157757
-0.00180383
-0.00128877
-0.002121
-0.000180216
-0.00869689
0.0108289
-0.055346
-2.97137e-13
-2.89234e-13
-9.15555e-13
-2.11379e-12
-5.07542e-12
-1.16772e-11
-2.63603e-11
-5.80938e-11
-1.25323e-10
-2.64604e-10
-5.47314e-10
-1.10955e-09
-2.20567e-09
-4.30038e-09
-8.22066e-09
-1.54119e-08
-2.82977e-08
-5.08968e-08
-8.9622e-08
-1.53995e-07
-2.59771e-07
-4.25874e-07
-6.87173e-07
-1.07584e-06
-1.65955e-06
-2.48574e-06
-3.66701e-06
-5.275e-06
-7.44234e-06
-1.03342e-05
-1.39628e-05
-1.87968e-05
-2.43281e-05
-3.19432e-05
-3.97098e-05
-5.0928e-05
-6.11927e-05
-7.64884e-05
-8.9719e-05
-0.000109058
-0.000125442
-0.00014882
-0.000168122
-0.000195281
-0.000216922
-0.000248303
-0.000273731
-0.000312359
-0.000343372
-0.00039075
-0.000430054
-0.000484335
-0.000537065
-0.000598264
-0.000664643
-0.000736212
-0.000819768
-0.000901242
-0.00100713
-0.00109819
-0.00122278
-0.00133434
-0.00146843
-0.00161337
-0.0017522
-0.0019248
-0.00208043
-0.00228197
-0.00249024
-0.00275921
-0.00302406
-0.00324369
-0.00346561
-0.00373465
-0.00404698
-0.00451217
-0.00498049
-0.00608617
-0.00768255
-0.0107632
-0.0105418
-0.0164609
0.0307799
0.0587137
-0.0351362
0.00234315
-0.0171683
-0.00401541
-0.00587899
0.00326967
0.00140042
0.00328772
-0.000271953
0.00159689
0.00135885
0.00178605
0.000928169
0.000705396
0.000774918
0.000404525
0.000252187
0.000377486
0.000574162
0.000311314
0.00044024
0.00039764
0.000320904
0.000293462
-3.24935e-05
-5.50308e-05
-0.000805379
-0.000141109
-0.00146312
-0.00135305
-0.00231573
-0.00165486
-0.007979
0.00676771
-0.0478869
-2.94166e-13
-2.84633e-13
-9.02031e-13
-2.0804e-12
-4.98983e-12
-1.14674e-11
-2.58658e-11
-5.69729e-11
-1.22725e-10
-2.5885e-10
-5.34835e-10
-1.08346e-09
-2.15265e-09
-4.19544e-09
-8.02115e-09
-1.50325e-08
-2.76239e-08
-4.9654e-08
-8.74854e-08
-1.50557e-07
-2.53502e-07
-4.17542e-07
-6.70668e-07
-1.05607e-06
-1.62023e-06
-2.44225e-06
-3.5817e-06
-5.18387e-06
-7.28308e-06
-1.01395e-05
-1.37074e-05
-1.83635e-05
-2.40295e-05
-3.10509e-05
-3.93592e-05
-4.93523e-05
-6.07658e-05
-7.41849e-05
-8.89689e-05
-0.000106061
-0.000124214
-0.000145024
-0.000166303
-0.00019067
-0.000214382
-0.000243082
-0.00027039
-0.000306064
-0.000339056
-0.000384233
-0.000422747
-0.000479627
-0.000525169
-0.000594209
-0.000649264
-0.000732954
-0.000799564
-0.000896455
-0.000984584
-0.00108761
-0.0012078
-0.00131784
-0.00146407
-0.0015922
-0.0017507
-0.00190902
-0.00208066
-0.00227235
-0.00248306
-0.00271696
-0.0030446
-0.00338358
-0.00371475
-0.00385296
-0.00394951
-0.00393764
-0.00447882
-0.00484254
-0.00609219
-0.00865991
-0.00429639
-0.0251819
0.0656327
0.00793132
0.00209305
-0.00300508
-0.00684325
-0.00270753
-0.00476419
-0.00323773
-0.00221085
-0.000320546
-0.00460491
-0.000701681
-0.00185113
1.9131e-05
0.00026672
0.000570869
0.000313541
0.000303698
0.000544166
0.000800426
0.000525083
0.000545997
0.000757087
0.000747023
0.000497535
0.000248141
-0.000456524
-0.000305979
-0.00103894
-0.000338067
-0.00194208
-0.00144365
-0.00296665
-0.00157319
-0.00753759
0.00480281
-0.0396346
-2.89224e-13
-2.81395e-13
-8.8945e-13
-2.04947e-12
-4.90947e-12
-1.12679e-11
-2.53755e-11
-5.57831e-11
-1.20059e-10
-2.52897e-10
-5.21965e-10
-1.05619e-09
-2.09632e-09
-4.08234e-09
-7.80045e-09
-1.46142e-08
-2.68413e-08
-4.82914e-08
-8.49748e-08
-1.46545e-07
-2.46402e-07
-4.06226e-07
-6.52517e-07
-1.02816e-06
-1.57812e-06
-2.37718e-06
-3.49724e-06
-5.03433e-06
-7.13562e-06
-9.81845e-06
-1.34673e-05
-1.77406e-05
-2.36835e-05
-2.99087e-05
-3.89849e-05
-4.74127e-05
-6.03149e-05
-7.11631e-05
-8.82758e-05
-0.000101798
-0.000123125
-0.000139383
-0.000164648
-0.000183587
-0.000211981
-0.000234697
-0.000266397
-0.000296405
-0.000333313
-0.000372522
-0.000415347
-0.000466203
-0.000515555
-0.000579783
-0.000637105
-0.000717125
-0.000783109
-0.000882068
-0.000959353
-0.00107793
-0.00117492
-0.00131085
-0.00143553
-0.0015832
-0.00173808
-0.00189048
-0.00207299
-0.00224167
-0.00246308
-0.00269077
-0.00302047
-0.0032824
-0.00362383
-0.0037063
-0.0039435
-0.00392487
-0.00456226
-0.0049858
-0.00732962
-0.00711687
-0.0160559
0.0211336
0.0125407
-0.0020364
-0.0107762
-0.011095
-0.000728532
-0.00407687
-0.000880701
-0.00297095
-0.000805388
0.00100097
-0.00240532
0.000598248
-0.000534115
0.000842325
0.00016711
0.000292105
0.000306242
-6.63734e-06
-9.14437e-05
0.000283925
0.000346213
0.000435581
0.000158262
0.000111344
-0.000138571
-0.000197416
-0.000633239
0.000180807
-0.000811157
0.000488441
-0.00180215
-0.000532642
-0.00303947
-0.000949682
-0.00664659
0.00196425
-0.0306576
-2.84638e-13
-2.75822e-13
-8.70794e-13
-2.00311e-12
-4.79062e-12
-1.0976e-11
-2.46771e-11
-5.41788e-11
-1.16346e-10
-2.44607e-10
-5.03993e-10
-1.01841e-09
-2.01939e-09
-3.92987e-09
-7.50482e-09
-1.4062e-08
-2.5824e-08
-4.64828e-08
-8.18781e-08
-1.41078e-07
-2.3793e-07
-3.91486e-07
-6.31374e-07
-9.91464e-07
-1.52939e-06
-2.29347e-06
-3.39306e-06
-4.86349e-06
-6.91812e-06
-9.50843e-06
-1.30369e-05
-1.72495e-05
-2.28477e-05
-2.91357e-05
-3.75965e-05
-4.61392e-05
-5.81909e-05
-6.93089e-05
-8.52775e-05
-9.91729e-05
-0.000119093
-0.000135791
-0.000159511
-0.000178848
-0.000205784
-0.000228325
-0.000259291
-0.000288154
-0.00032401
-0.000362913
-0.000403644
-0.000453567
-0.000502247
-0.000563871
-0.000621824
-0.000697877
-0.000765612
-0.000859565
-0.000939948
-0.00104765
-0.00115758
-0.00127464
-0.00140938
-0.00155474
-0.00169692
-0.00187131
-0.00202884
-0.00222779
-0.00242047
-0.0026755
-0.0029386
-0.00322581
-0.00352785
-0.00377434
-0.0040282
-0.00407719
-0.00424125
-0.00386859
-0.0046664
0.00237028
-0.0183321
0.0803267
-0.00737259
0.0104754
-0.00825998
-0.00532916
-0.000810985
-0.000580972
0.000360687
-0.000227469
0.000704739
0.00330933
-0.000832857
0.00127524
-0.000134373
0.000770617
-0.000561533
-0.000851255
-0.00103905
-0.00078627
-0.000145307
0.000263747
0.000265423
0.000222423
-3.05748e-05
-0.000112693
-0.000448588
-0.000239409
-0.000656948
0.000109402
-0.00087806
0.000196015
-0.00213365
-0.000647345
-0.00349848
-0.00143676
-0.0060368
-1.22323e-05
-0.0233389
-2.78362e-13
-2.70815e-13
-8.52619e-13
-1.95802e-12
-4.67357e-12
-1.06855e-11
-2.39702e-11
-5.24824e-11
-1.12476e-10
-2.36005e-10
-4.85328e-10
-9.78912e-10
-1.9377e-09
-3.76585e-09
-7.18428e-09
-1.34531e-08
-2.4704e-08
-4.44522e-08
-7.83487e-08
-1.35026e-07
-2.27723e-07
-3.75239e-07
-6.04604e-07
-9.5161e-07
-1.46568e-06
-2.20661e-06
-3.24701e-06
-4.6967e-06
-6.60789e-06
-9.20758e-06
-1.24381e-05
-1.67179e-05
-2.17609e-05
-2.83588e-05
-3.56048e-05
-4.51488e-05
-5.50408e-05
-6.77435e-05
-8.09509e-05
-9.65227e-05
-0.000113605
-0.000131698
-0.0001528
-0.000173145
-0.000197559
-0.000220857
-0.000250239
-0.000278399
-0.00031237
-0.000351261
-0.000388739
-0.000439791
-0.000484115
-0.000546666
-0.000600673
-0.00067667
-0.000741467
-0.00083577
-0.000911138
-0.00102309
-0.00112477
-0.0012396
-0.00138372
-0.0015119
-0.00167203
-0.00183709
-0.00200021
-0.00220346
-0.00238338
-0.00263833
-0.00285453
-0.00317662
-0.00339328
-0.00367184
-0.00376088
-0.00377931
-0.00382798
-0.00280285
-0.00456142
0.000453654
-0.0145539
0.0807383
-0.0206691
0.0184592
-0.015918
0.00747001
-0.00322913
-0.000965732
-3.60179e-05
-0.00115513
-0.000531947
0.00103544
-0.00147951
-0.000498943
-0.000331731
0.000441151
0.000711623
0.000963053
0.00031997
4.59414e-05
-0.000510245
-0.000762287
-0.000978528
-0.000557939
-0.000464023
-0.000184119
-0.000409901
-0.00020148
-0.000665788
4.95887e-05
-0.000984869
8.44972e-06
-0.00249331
-5.96278e-05
-0.00366631
-0.000474243
-0.00473852
-0.000894021
-0.017076
-2.7216e-13
-2.63452e-13
-8.28285e-13
-1.89662e-12
-4.51763e-12
-1.03009e-11
-2.30428e-11
-5.03217e-11
-1.07516e-10
-2.24928e-10
-4.61185e-10
-9.2804e-10
-1.83355e-09
-3.55882e-09
-6.78382e-09
-1.26969e-08
-2.33154e-08
-4.1974e-08
-7.39954e-08
-1.27743e-07
-2.15469e-07
-3.55866e-07
-5.72995e-07
-9.05009e-07
-1.39001e-06
-2.10264e-06
-3.08448e-06
-4.47554e-06
-6.28968e-06
-8.77785e-06
-1.18361e-05
-1.59664e-05
-2.07071e-05
-2.71065e-05
-3.38756e-05
-4.32959e-05
-5.21856e-05
-6.52325e-05
-7.65364e-05
-9.32107e-05
-0.000107397
-0.000127223
-0.000144749
-0.000166771
-0.000187623
-0.000212731
-0.000238139
-0.000266414
-0.000300997
-0.000333574
-0.00037543
-0.000419411
-0.000465074
-0.000524103
-0.000577784
-0.00064884
-0.00071501
-0.000799914
-0.000879951
-0.00098387
-0.0010791
-0.00120632
-0.00132151
-0.00147811
-0.00161015
-0.00179939
-0.00194275
-0.00216892
-0.00232312
-0.00258972
-0.00276383
-0.0030841
-0.00323171
-0.00360423
-0.00363403
-0.00406497
-0.00409641
-0.00447949
-0.00454722
-0.00731314
0.0056749
0.0251939
-0.0287173
-0.000823091
-0.0179034
-0.00458555
-0.00274265
-0.0017239
-0.000896083
9.14633e-05
0.000674298
0.00112786
-0.000640304
-0.000660889
-2.40728e-05
0.000154211
0.000144139
-5.95366e-05
-0.000339958
3.51482e-05
2.47737e-05
0.000511849
0.000456328
0.000523838
0.000153514
2.36008e-05
-0.000344712
-0.00019032
-0.000640232
1.22163e-05
-0.00116756
-0.00016695
-0.00232263
-0.000137651
-0.00262907
-0.00121701
-0.0039208
-0.00207173
-0.0120301
-2.64054e-13
-2.56303e-13
-8.03916e-13
-1.83647e-12
-4.3608e-12
-9.91099e-12
-2.20974e-11
-4.80706e-11
-1.02382e-10
-2.13398e-10
-4.36156e-10
-8.74857e-10
-1.72361e-09
-3.33727e-09
-6.35132e-09
-1.18749e-08
-2.17972e-08
-3.92423e-08
-6.92227e-08
-1.19529e-07
-2.019e-07
-3.33304e-07
-5.38108e-07
-8.48647e-07
-1.30951e-06
-1.97169e-06
-2.91642e-06
-4.19548e-06
-5.96038e-06
-8.23198e-06
-1.12382e-05
-1.49967e-05
-1.96711e-05
-2.54941e-05
-3.21921e-05
-4.07251e-05
-4.95715e-05
-6.14623e-05
-7.25228e-05
-8.81779e-05
-0.00010141
-0.000120858
-0.000136112
-0.000159046
-0.000176012
-0.000203428
-0.000222901
-0.000256108
-0.00028214
-0.000318378
-0.000355133
-0.000398499
-0.00044111
-0.000498663
-0.000548225
-0.000620241
-0.000680002
-0.000765821
-0.000842536
-0.000938881
-0.0010398
-0.00115559
-0.00127307
-0.00142268
-0.00155838
-0.00174214
-0.00189515
-0.00211336
-0.00227611
-0.00253235
-0.00270883
-0.00304002
-0.00322888
-0.0036564
-0.00381758
-0.00434231
-0.00396437
-0.00443792
-0.000111536
-0.0159197
0.0597416
0.0167994
-0.0135897
0.00228887
-0.00146283
-0.00474015
-0.00160564
-0.00221436
-0.000925881
-0.000955285
0.000307024
-0.000378197
-0.000728355
-0.0017878
-3.45204e-05
0.0003489
-7.25256e-05
0.000422178
-0.000566818
-0.000499308
-0.000517089
-0.000145859
-0.000114551
0.000109025
-0.000212312
-7.20887e-05
-0.000387884
-0.000165401
-0.000644667
-7.26153e-05
-0.00117511
-0.000378532
-0.00198106
-0.000387048
-0.00180843
-0.00190438
-0.00270849
-0.00291128
-0.00763664
-2.56285e-13
-2.46889e-13
-7.73545e-13
-1.75941e-12
-4.16408e-12
-9.42543e-12
-2.09224e-11
-4.53166e-11
-9.59823e-11
-1.99181e-10
-4.05268e-10
-8.09676e-10
-1.59025e-09
-3.07137e-09
-5.83456e-09
-1.08994e-08
-2.00016e-08
-3.60252e-08
-6.3611e-08
-1.09958e-07
-1.86101e-07
-3.07624e-07
-4.97971e-07
-7.85107e-07
-1.21553e-06
-1.82979e-06
-2.70932e-06
-3.90629e-06
-5.5434e-06
-7.66647e-06
-1.04818e-05
-1.39151e-05
-1.84257e-05
-2.35696e-05
-3.03055e-05
-3.75149e-05
-4.68524e-05
-5.65973e-05
-6.84738e-05
-8.14132e-05
-9.54909e-05
-0.000111916
-0.000128011
-0.000147844
-0.000165374
-0.000189609
-0.000209471
-0.000239316
-0.000264048
-0.000299563
-0.00033143
-0.000374159
-0.000413806
-0.000466815
-0.000514934
-0.000581531
-0.000638569
-0.000722247
-0.000790593
-0.000893773
-0.00097744
-0.00110528
-0.00120557
-0.00136473
-0.00148677
-0.00167693
-0.00182654
-0.00204607
-0.00222804
-0.00248622
-0.00271372
-0.00303994
-0.00331399
-0.00361684
-0.00370059
-0.00391148
-0.00265652
-0.00388979
0.00320075
-0.015802
0.0893807
-0.0169256
0.0216788
-0.0175889
0.00153683
-0.00340833
-0.00137892
-0.00292161
-0.000975026
-0.00122426
0.000251234
-0.000388791
-0.00050382
-0.00157749
-0.000148865
0.00031846
-0.000311605
0.000316675
-0.000633461
-0.000265854
-0.000118388
8.03806e-05
2.16777e-05
0.000111087
-0.000267699
-0.000145437
-0.00051089
-0.000343052
-0.000746254
-0.000356274
-0.00123554
-0.00061834
-0.00159803
-0.000934814
-0.00129808
-0.00208365
-0.00219516
-0.00353048
-0.00410668
-2.46725e-13
-2.37683e-13
-7.42847e-13
-1.68307e-12
-3.96576e-12
-8.93119e-12
-1.97199e-11
-4.24727e-11
-8.94813e-11
-1.84551e-10
-3.73278e-10
-7.41619e-10
-1.44934e-09
-2.78841e-09
-5.28153e-09
-9.84945e-09
-1.80599e-08
-3.2536e-08
-5.74872e-08
-9.95396e-08
-1.68603e-07
-2.79415e-07
-4.52168e-07
-7.16575e-07
-1.10605e-06
-1.67708e-06
-2.47082e-06
-3.59004e-06
-5.06388e-06
-7.06444e-06
-9.57869e-06
-1.28592e-05
-1.686e-05
-2.17841e-05
-2.77981e-05
-3.45743e-05
-4.3196e-05
-5.18577e-05
-6.35901e-05
-7.42589e-05
-8.89479e-05
-0.000102077
-0.000119027
-0.000135463
-0.000152921
-0.000174698
-0.000193698
-0.000220422
-0.0002441
-0.000277046
-0.000306138
-0.000346987
-0.000383011
-0.000432943
-0.000478324
-0.00053881
-0.000596314
-0.000669485
-0.000741735
-0.000831287
-0.000920057
-0.00103231
-0.00113985
-0.00128196
-0.0014128
-0.00159031
-0.00175443
-0.00197354
-0.00218743
-0.00244223
-0.00270923
-0.00293311
-0.00325078
-0.00340382
-0.00379439
-0.00391741
-0.00433742
-0.00551856
-0.00598761
-0.00415998
0.0318502
-0.0374927
0.000155149
-0.0171431
0.00317128
-0.00437581
0.000211564
-0.00234498
-0.000789954
-0.00159083
-0.000493212
-0.00156393
-0.000323955
-0.00163072
-0.00011943
0.000306615
-0.000615855
-9.79319e-05
-0.000946511
-0.000172304
-0.000105872
1.92289e-06
-0.00011279
-2.95764e-06
-0.000361522
-0.000211162
-0.000595996
-0.000400077
-0.000841944
-0.000531875
-0.00117581
-0.000999505
-0.00116413
-0.00135232
-0.00107702
-0.0023808
-0.00196835
-0.0029661
-0.00148974
-2.37249e-13
-2.26189e-13
-7.0612e-13
-1.58836e-12
-3.72573e-12
-8.33898e-12
-1.82895e-11
-3.9089e-11
-8.17e-11
-1.67195e-10
-3.35539e-10
-6.6177e-10
-1.28545e-09
-2.46047e-09
-4.64449e-09
-8.64436e-09
-1.58425e-08
-2.85616e-08
-5.05421e-08
-8.7721e-08
-1.48967e-07
-2.47724e-07
-4.02065e-07
-6.38595e-07
-9.89643e-07
-1.49936e-06
-2.22346e-06
-3.21721e-06
-4.57363e-06
-6.34629e-06
-8.66424e-06
-1.15846e-05
-1.5223e-05
-1.97048e-05
-2.50136e-05
-3.14239e-05
-3.87554e-05
-4.72602e-05
-5.71459e-05
-6.74919e-05
-8.03581e-05
-9.24452e-05
-0.000108212
-0.000122315
-0.000139068
-0.000158414
-0.000175529
-0.000200156
-0.000221214
-0.000251664
-0.000277651
-0.000315719
-0.000347429
-0.000395173
-0.000433958
-0.000493572
-0.000541748
-0.000615821
-0.000676414
-0.000767903
-0.000844765
-0.000956964
-0.00105603
-0.00119429
-0.00132397
-0.00149823
-0.00166677
-0.00188348
-0.00209517
-0.00234075
-0.00260428
-0.00285781
-0.00327549
-0.00354401
-0.00456893
-0.00488917
-0.00669931
-0.00370785
-0.0187066
0.0558767
-0.00183076
-0.00184749
0.00214477
-0.000647241
-0.00231413
-0.000457238
-0.001719
-0.00234675
-0.00086562
-0.00145561
-0.000622635
-0.00158039
-0.000564102
-0.00123891
-0.00057606
-0.000274834
-0.000156991
-4.05885e-05
-0.00107475
4.7515e-05
-1.76375e-05
-1.32538e-05
-0.000138085
-7.80003e-05
-0.00036233
-0.000248738
-0.000618449
-0.000483763
-0.000927114
-0.000934516
-0.00118713
-0.00148785
-0.00097227
-0.0018988
-0.000894888
-0.00228488
-0.00174259
-0.00229312
0.000465526
-2.25809e-13
-2.14958e-13
-6.68832e-13
-1.49694e-12
-3.48441e-12
-7.73799e-12
-1.68167e-11
-3.56412e-11
-7.36523e-11
-1.49097e-10
-2.96444e-10
-5.7837e-10
-1.11323e-09
-2.11468e-09
-3.96862e-09
-7.36128e-09
-1.34741e-08
-2.43022e-08
-4.30976e-08
-7.49778e-08
-1.2788e-07
-2.13098e-07
-3.47852e-07
-5.53169e-07
-8.62208e-07
-1.30792e-06
-1.9467e-06
-2.822e-06
-4.0222e-06
-5.58308e-06
-7.65107e-06
-1.02052e-05
-1.34887e-05
-1.73813e-05
-2.21839e-05
-2.77992e-05
-3.4287e-05
-4.20422e-05
-5.0258e-05
-6.03616e-05
-7.05203e-05
-8.2731e-05
-9.52824e-05
-0.000108832
-0.00012363
-0.00014056
-0.00015614
-0.000177792
-0.000196963
-0.000223622
-0.000247653
-0.000280421
-0.000310479
-0.000351268
-0.000388529
-0.000439711
-0.000485895
-0.000550701
-0.000607959
-0.000690672
-0.000761817
-0.000868153
-0.000958136
-0.00109553
-0.00121121
-0.00138748
-0.00153449
-0.00175817
-0.00194462
-0.0022456
-0.00251319
-0.00301391
-0.0034489
-0.00372457
-0.00418031
-0.00292928
-0.0038498
0.00489849
-0.0165057
0.10298
-0.0196335
0.0263553
-0.0172857
0.00368637
-0.00262133
-0.00100257
-0.00036354
-0.00104852
-0.000636886
-0.0010863
-0.000810983
-0.00206539
-0.00073678
-0.00091312
-0.000726925
-0.000439366
-0.000343788
-0.000868472
-0.000670762
-4.23352e-06
5.20207e-05
-6.90017e-05
-0.000163594
-0.000190205
-0.000378134
-0.000381394
-0.000698493
-0.000595903
-0.00102896
-0.00103475
-0.00114947
-0.00160871
-0.000915501
-0.00210737
-0.000737859
-0.00239641
-0.00120332
-0.00158426
0.00199311
-2.14485e-13
-2.01677e-13
-6.25172e-13
-1.38525e-12
-3.20159e-12
-7.03771e-12
-1.51273e-11
-3.16091e-11
-6.45428e-11
-1.28635e-10
-2.51274e-10
-4.83446e-10
-9.18329e-10
-1.72603e-09
-3.21332e-09
-5.93249e-09
-1.08452e-08
-1.95889e-08
-3.48693e-08
-6.09898e-08
-1.04622e-07
-1.75725e-07
-2.88328e-07
-4.62272e-07
-7.22381e-07
-1.10497e-06
-1.64543e-06
-2.40442e-06
-3.42129e-06
-4.78663e-06
-6.53607e-06
-8.78182e-06
-1.15631e-05
-1.4964e-05
-1.91029e-05
-2.38784e-05
-2.96736e-05
-3.60043e-05
-4.36057e-05
-5.17539e-05
-6.10304e-05
-7.13597e-05
-8.1869e-05
-9.45075e-05
-0.000105746
-0.000122277
-0.000134498
-0.000154187
-0.000169817
-0.00019402
-0.000213727
-0.000243485
-0.000268317
-0.000305001
-0.000336537
-0.000382186
-0.000422518
-0.000479852
-0.000531527
-0.000604374
-0.000670557
-0.000764477
-0.000849325
-0.000972118
-0.00108088
-0.00124412
-0.00138604
-0.00161629
-0.00180769
-0.00213275
-0.0023558
-0.00273398
-0.00286575
-0.00333106
-0.00344521
-0.00478179
-0.00743755
-0.0100501
-0.00984062
0.0193301
-0.0558477
0.00287695
-0.00309181
0.00248768
-0.00185666
-0.00091707
-0.00186222
-0.001754
-0.00138626
-0.000609205
-0.00116971
-0.00152429
-0.00198834
-0.00135696
-0.00104336
-0.000553773
-0.000434665
-0.000746223
-0.000657928
-4.32285e-05
-4.27666e-05
-6.3922e-05
-0.000148754
-0.000239181
-0.000334711
-0.000388255
-0.000666156
-0.000670779
-0.00105605
-0.00118372
-0.00120352
-0.0017428
-0.00108135
-0.00217672
-0.000755698
-0.00217299
-0.000495973
-0.00160447
0.00374244
-2.01565e-13
-1.88185e-13
-5.81295e-13
-1.27582e-12
-2.91753e-12
-6.32946e-12
-1.33953e-11
-2.75579e-11
-5.49783e-11
-1.07559e-10
-2.05697e-10
-3.85934e-10
-7.16265e-10
-1.31963e-09
-2.42133e-09
-4.42965e-09
-8.07505e-09
-1.46147e-08
-2.61677e-08
-4.62136e-08
-8.01107e-08
-1.35977e-07
-2.25377e-07
-3.64521e-07
-5.74901e-07
-8.84424e-07
-1.33052e-06
-1.9479e-06
-2.79903e-06
-3.91506e-06
-5.38762e-06
-7.23068e-06
-9.58405e-06
-1.23759e-05
-1.58894e-05
-1.97965e-05
-2.47751e-05
-2.98207e-05
-3.65839e-05
-4.2715e-05
-5.1418e-05
-5.87759e-05
-6.91571e-05
-7.82212e-05
-8.87765e-05
-0.000101948
-0.000112477
-0.000128703
-0.000141982
-0.000161914
-0.000178595
-0.000203327
-0.000224164
-0.000255078
-0.000281271
-0.000320316
-0.000353468
-0.000403449
-0.000445692
-0.000510236
-0.000564618
-0.000648939
-0.000720586
-0.000832852
-0.000928778
-0.00108061
-0.00120866
-0.00141027
-0.00157511
-0.00183107
-0.00205213
-0.00250381
-0.00292285
-0.00413116
-0.0044146
-0.00584359
0.000405443
-0.0179535
0.101351
-0.00819075
0.0151017
-0.00870323
-0.00542177
-0.00173961
-0.000946062
-0.000313179
-0.000867932
-0.000947827
-0.00102502
-0.000895536
-0.00115288
-0.00180406
-0.00132326
-0.00103251
-0.000794768
-0.000587302
-0.000745301
-0.000794863
-0.000420317
-0.000182144
-0.000196381
-0.000326019
-0.000335674
-0.000496046
-0.000500177
-0.000580861
-0.000679072
-0.00075963
-0.00100364
-0.0011967
-0.00120015
-0.00169528
-0.00110633
-0.00190857
-0.000763652
-0.00166919
-0.000134819
-0.00120088
0.00484405
-1.88515e-13
-1.72854e-13
-5.31392e-13
-1.15272e-12
-2.59349e-12
-5.52531e-12
-1.14425e-11
-2.28927e-11
-4.4534e-11
-8.34829e-11
-1.52864e-10
-2.75552e-10
-4.91106e-10
-8.7212e-10
-1.55758e-09
-2.80231e-09
-5.0867e-09
-9.26578e-09
-1.68332e-08
-3.03317e-08
-5.37583e-08
-9.33696e-08
-1.58259e-07
-2.60882e-07
-4.19549e-07
-6.55565e-07
-9.99325e-07
-1.4807e-06
-2.14316e-06
-3.02516e-06
-4.17824e-06
-5.64936e-06
-7.49513e-06
-9.74534e-06
-1.24877e-05
-1.56763e-05
-1.95075e-05
-2.37028e-05
-2.88399e-05
-3.39778e-05
-4.05978e-05
-4.66919e-05
-5.47678e-05
-6.19089e-05
-7.11608e-05
-8.05014e-05
-8.96089e-05
-0.000102016
-0.000112897
-0.000128401
-0.000141871
-0.000161065
-0.000178038
-0.000202016
-0.000223509
-0.000253824
-0.000281221
-0.000319955
-0.000355246
-0.000405661
-0.000452002
-0.000519728
-0.000581507
-0.000672889
-0.000754887
-0.000876388
-0.000991688
-0.00116485
-0.0013407
-0.00162916
-0.00188121
-0.00213411
-0.00214709
-0.00227737
-0.00187947
-0.00371733
0.000116151
-0.0159421
0.0460786
-0.0493711
0.0114159
-0.00631002
0.00383682
-0.0023771
-0.000647993
-0.00159764
-0.00148939
-0.00163659
-0.00131469
-0.000768289
-0.00119747
-0.00148421
-0.001558
-0.00113103
-0.00105152
-0.000815321
-0.000967468
-0.000871113
-0.000300523
-0.000218485
-0.000126398
-0.000315117
-0.000268167
-0.000480827
-0.00044427
-0.000548132
-0.000592438
-0.000762795
-0.000901852
-0.00117693
-0.00123218
-0.00168542
-0.00119452
-0.00171442
-0.00108134
-0.00130432
0.000195641
-0.00106705
0.00563029
-1.73926e-13
-1.57606e-13
-4.8161e-13
-1.02155e-12
-2.26837e-12
-4.70838e-12
-9.49401e-12
-1.82216e-11
-3.34133e-11
-5.9942e-11
-1.01247e-10
-1.64803e-10
-2.63069e-10
-4.14843e-10
-6.64126e-10
-1.10897e-09
-1.96801e-09
-3.69084e-09
-7.14246e-09
-1.39382e-08
-2.67159e-08
-4.93789e-08
-8.87325e-08
-1.53479e-07
-2.57014e-07
-4.16062e-07
-6.5335e-07
-9.91656e-07
-1.46628e-06
-2.10322e-06
-2.9542e-06
-4.02116e-06
-5.41044e-06
-7.0467e-06
-9.11501e-06
-1.14512e-05
-1.43504e-05
-1.74346e-05
-2.12768e-05
-2.51238e-05
-3.00231e-05
-3.46098e-05
-4.05261e-05
-4.59801e-05
-5.25462e-05
-5.99886e-05
-6.64103e-05
-7.57377e-05
-8.3642e-05
-9.49729e-05
-0.000104813
-0.000118628
-0.000131074
-0.000148121
-0.000163948
-0.000185385
-0.000205723
-0.000233238
-0.000259594
-0.000295909
-0.000331295
-0.000380304
-0.000428207
-0.000495376
-0.000561581
-0.000661506
-0.000756343
-0.000880568
-0.000985026
-0.00113874
-0.00139664
-0.00159781
-0.00220498
-0.00304606
-0.00551516
-0.00381478
-0.0142288
0.0534488
0.00509872
-0.0182455
0.00156215
-0.00968819