/*--------------------------------*- C++ -*----------------------------------*\
| =========                 |                                                 |
| \\      /  F ield         | OpenFOAM: The Open Source CFD Toolbox           |
|  \\    /   O peration     | Version:  2.2.x                                 |
|   \\  /    A nd           | Web:      www.OpenFOAM.org                      |
|    \\/     M anipulation  |                                                 |
\*---------------------------------------------------------------------------*/
FoamFile
{
    version     2.0;
    format      ascii;
    class       volVectorField;
    location    "0.2";
    object      U;
}
// * * * * * * * * * * * * * * * * * * * * * * * * * * * * * * * * * * * * * //

dimensions      [0 1 -1 0 0 0 0];

internalField   nonuniform List<vector> 
14161
(
(1.5 -5.78475e-16 3.95097e-22)
(1.5 4.40009e-16 2.0019e-22)
(1.5 8.39498e-16 4.34051e-22)
(1.5 2.59747e-15 5.26112e-23)
(1.5 5.38746e-15 1.93341e-22)
(1.5 1.16237e-14 -1.3223e-21)
(1.5 1.84039e-14 3.97627e-22)
(1.5 2.72026e-14 -1.45986e-21)
(1.5 4.31489e-14 -1.11473e-21)
(1.5 1.02868e-13 -2.7711e-21)
(1.5 2.27691e-13 -3.34288e-21)
(1.5 4.89066e-13 -3.53101e-21)
(1.5 9.74446e-13 -4.55182e-21)
(1.5 1.76759e-12 -3.70202e-21)
(1.5 3.18849e-12 -4.36084e-21)
(1.5 5.4263e-12 -4.21994e-21)
(1.5 6.97684e-12 -4.51831e-21)
(1.5 1.70242e-11 -4.62723e-21)
(1.5 -5.69028e-12 -4.40829e-21)
(1.5 6.30644e-11 -4.88553e-21)
(1.5 -5.18553e-11 -5.16277e-21)
(1.5 8.83115e-11 -4.59986e-21)
(1.5 -9.18648e-11 -5.09228e-21)
(1.5 -1.20048e-10 -4.89715e-21)
(1.5 9.94436e-11 -5.51814e-21)
(1.50001 -1.19379e-09 -5.17196e-21)
(1.50001 3.51374e-10 -5.25965e-21)
(1.50001 -3.9402e-09 -5.24719e-21)
(1.50002 -3.78707e-10 -5.26369e-21)
(1.50003 -7.13811e-09 -5.34809e-21)
(1.50004 -3.5788e-09 -4.94591e-21)
(1.50005 -1.00407e-08 -4.97737e-21)
(1.50007 -2.33387e-08 -4.94383e-21)
(1.50009 -3.15977e-08 -4.7844e-21)
(1.50012 -4.58668e-08 -4.70067e-21)
(1.50015 -9.64047e-08 -4.52935e-21)
(1.50019 -1.25833e-08 -4.58811e-21)
(1.50023 -1.57742e-07 -4.23632e-21)
(1.50028 -2.09624e-08 -4.52832e-21)
(1.50034 -2.56251e-07 -3.94512e-21)
(1.5004 -9.91804e-08 -4.44496e-21)
(1.50047 -3.01892e-07 -3.65084e-21)
(1.50054 -7.0903e-08 -4.53184e-21)
(1.50062 -2.82659e-07 -3.35133e-21)
(1.50071 -5.0496e-08 -4.63354e-21)
(1.50081 -2.18904e-07 -3.30356e-21)
(1.50092 -2.05006e-08 -3.53914e-21)
(1.50104 -2.10191e-07 -3.24031e-21)
(1.50117 -1.23293e-07 -1.7077e-21)
(1.50133 -2.27296e-07 -2.47081e-21)
(1.50149 -4.27297e-07 -1.93559e-21)
(1.50169 -1.00123e-07 -1.46286e-21)
(1.5019 -5.30023e-07 -9.64139e-22)
(1.50214 -9.8747e-09 -6.76864e-22)
(1.50239 -5.88635e-07 -1.41135e-21)
(1.50269 -4.2767e-08 -1.00079e-21)
(1.50301 -1.01751e-06 -1.65403e-21)
(1.50338 -4.75743e-07 -1.02712e-21)
(1.50378 -9.35838e-07 -1.91623e-21)
(1.50422 -3.30137e-07 -9.47408e-22)
(1.5047 -2.54339e-07 -2.38699e-21)
(1.50523 -8.4893e-07 -1.24319e-21)
(1.50581 -2.91319e-06 -2.71066e-21)
(1.50647 -1.9646e-07 -2.90071e-21)
(1.50719 -2.76551e-06 -2.57571e-21)
(1.50798 1.70642e-06 -2.97945e-21)
(1.50882 1.43993e-06 -2.91535e-21)
(1.50977 1.7064e-06 -3.31255e-21)
(1.51072 -9.19963e-06 -3.01834e-21)
(1.51181 -9.65487e-06 -3.2277e-21)
(1.51296 1.04445e-05 -3.1019e-21)
(1.51416 5.55186e-06 -2.38839e-21)
(1.51528 1.67688e-05 -2.28114e-21)
(1.51689 2.52251e-05 -2.81194e-21)
(1.51829 6.61331e-05 -2.33052e-21)
(1.51943 5.77649e-05 -2.71258e-21)
(1.52049 4.21482e-05 -2.76177e-21)
(1.52146 0.000109723 -2.5196e-21)
(1.52189 7.18787e-05 -2.76542e-21)
(1.52245 3.33123e-05 -2.34532e-21)
(1.52142 7.61366e-05 -2.22591e-21)
(1.52102 -0.000294851 -2.55095e-21)
(1.0363 -0.0216186 1.62937e-20)
(0.509213 -0.0250611 2.25286e-20)
(0.492333 -0.0178725 1.01329e-20)
(0.55506 -0.0119533 4.98067e-21)
(0.587977 -0.00622501 -5.04768e-22)
(0.611182 -0.00286302 7.19287e-22)
(0.617575 0.00517485 -5.38119e-21)
(0.604882 0.0100601 -5.92456e-21)
(0.566739 0.0131508 -7.95081e-21)
(0.530329 0.015816 -7.58869e-21)
(0.488521 0.0159129 -5.53799e-21)
(0.451074 0.0146631 -4.07118e-21)
(0.420484 0.0135908 -8.7606e-21)
(0.394588 0.0123377 -9.01385e-21)
(0.372061 0.0115063 -7.44168e-21)
(0.353324 0.0118345 -1.19327e-20)
(0.338404 0.012189 -9.28347e-21)
(0.326777 0.0120704 -1.30836e-20)
(0.316839 0.0116806 -1.5081e-21)
(0.307535 0.0108173 -1.13139e-20)
(0.298394 0.00968259 2.97863e-21)
(0.288494 0.00819086 3.6103e-21)
(0.278219 0.0067392 1.91805e-20)
(0.269492 0.00523516 3.58802e-20)
(0.263911 0.00385615 4.49595e-20)
(0.261256 0.00278671 7.19555e-20)
(0.261771 0.00212013 8.1357e-20)
(0.263752 0.00186333 1.01375e-19)
(0.264295 0.00235228 1.19461e-19)
(0.262783 0.00335746 1.21277e-19)
(0.257614 0.00735536 1.21604e-19)
(0.245388 0.0134641 1.05343e-19)
(0.228015 0.0203554 1.09922e-19)
(0.202893 0.0286319 6.54727e-20)
(0.167691 0.0407342 8.58338e-20)
(0.119239 0.0525796 -1.66352e-19)
(0.0764827 0.0866585 3.24369e-19)
(1.5 -1.79693e-15 -1.01613e-21)
(1.5 -6.57385e-17 2.12549e-21)
(1.5 -8.47075e-16 2.94179e-21)
(1.5 -8.86691e-16 1.54949e-21)
(1.5 -1.75615e-15 1.47852e-21)
(1.5 -4.03186e-15 1.33361e-21)
(1.5 -8.27439e-15 8.71675e-22)
(1.5 -7.11815e-15 7.85004e-23)
(1.5 -5.36665e-15 5.51646e-22)
(1.5 -2.4736e-14 -7.79872e-22)
(1.5 -1.10359e-13 -6.32017e-22)
(1.5 -3.84645e-13 -2.2418e-21)
(1.5 -1.05443e-12 -1.29598e-21)
(1.5 -2.57078e-12 -3.89863e-21)
(1.5 -5.98973e-12 -4.67289e-21)
(1.5 -1.25087e-11 -4.34776e-21)
(1.5 -2.92318e-11 -3.60513e-21)
(1.5 -4.87853e-11 -5.56078e-21)
(1.5 -1.15166e-10 -4.66481e-21)
(1.5 -1.7955e-10 -6.38404e-21)
(1.5 -3.13593e-10 -5.95764e-21)
(1.5 -6.65686e-10 -6.34332e-21)
(1.5 -7.98702e-10 -7.12507e-21)
(1.5 -1.97899e-09 -7.47331e-21)
(1.5 -2.19226e-09 -6.34766e-21)
(1.50001 -5.05844e-09 -5.8811e-21)
(1.50001 -5.75191e-09 -7.25852e-21)
(1.50001 -1.07717e-08 -6.28933e-21)
(1.50002 -1.39565e-08 -7.81722e-21)
(1.50003 -2.164e-08 -5.67504e-21)
(1.50004 -3.08217e-08 -7.18222e-21)
(1.50005 -3.89985e-08 -6.19769e-21)
(1.50007 -5.68057e-08 -6.14206e-21)
(1.50009 -7.21915e-08 -6.15054e-21)
(1.50012 -8.55254e-08 -6.55431e-21)
(1.50015 -1.49725e-07 -5.8027e-21)
(1.50019 -1.23962e-07 -6.40604e-21)
(1.50023 -2.97381e-07 -6.05556e-21)
(1.50028 -1.48437e-07 -6.18765e-21)
(1.50034 -4.38874e-07 -5.76143e-21)
(1.5004 -2.1562e-07 -5.94109e-21)
(1.50047 -5.86051e-07 -5.98545e-21)
(1.50054 -2.46298e-07 -5.59034e-21)
(1.50062 -7.41667e-07 -6.07079e-21)
(1.50071 -3.29519e-07 -5.40965e-21)
(1.50081 -8.08267e-07 -6.26942e-21)
(1.50092 -4.28027e-07 -6.34272e-21)
(1.50104 -1.09575e-06 -3.70081e-21)
(1.50117 -8.35909e-07 -8.06042e-21)
(1.50132 -1.23873e-06 -6.24607e-21)
(1.50149 -1.13348e-06 -7.46635e-21)
(1.50168 -1.23789e-06 -6.92741e-21)
(1.50189 -1.72246e-06 -1.03892e-20)
(1.50213 -1.26085e-06 -7.56418e-21)
(1.50239 -2.5663e-06 -1.0029e-20)
(1.50269 -1.33616e-06 -6.61584e-21)
(1.50301 -3.70539e-06 -7.17368e-21)
(1.50337 -1.62126e-06 -6.62333e-21)
(1.50377 -3.2076e-06 -7.76441e-21)
(1.50421 -2.64562e-06 -8.6473e-21)
(1.5047 -1.61161e-06 -9.30605e-21)
(1.50523 -1.55685e-06 -7.54655e-21)
(1.50582 -4.06614e-06 -1.18305e-20)
(1.50647 -1.1145e-06 -5.02101e-21)
(1.50718 -3.47064e-06 -1.06411e-20)
(1.50797 2.38573e-07 -6.8882e-21)
(1.50883 2.25425e-06 -8.00962e-21)
(1.50975 -3.36095e-06 -6.37414e-21)
(1.51078 -1.26544e-05 -7.47447e-21)
(1.51178 -1.1243e-05 -7.55782e-21)
(1.51291 9.84728e-06 -8.11206e-21)
(1.51415 2.33416e-05 -7.68241e-21)
(1.5154 3.84102e-05 -7.72706e-21)
(1.51672 3.74068e-05 -7.77173e-21)
(1.51821 6.93927e-05 -7.5835e-21)
(1.51955 0.000103268 -7.38464e-21)
(1.52082 0.000115884 -7.77257e-21)
(1.52184 0.000181578 -7.50469e-21)
(1.52255 0.000186519 -8.28794e-21)
(1.52337 0.000144354 -6.83682e-21)
(1.52227 0.00030409 -7.29196e-21)
(1.5204 -8.29097e-05 -7.20268e-21)
(1.01347 -0.0507238 2.88947e-20)
(0.499247 -0.0635223 3.43575e-20)
(0.484473 -0.0547102 1.74374e-20)
(0.549975 -0.0372466 1.16981e-20)
(0.585937 -0.0173498 -5.20657e-21)
(0.606592 0.00023374 -3.473e-21)
(0.610599 0.0127592 -8.01118e-21)
(0.595484 0.0265713 -3.28695e-20)
(0.555688 0.0364258 -2.43276e-20)
(0.51785 0.0435784 -2.73744e-20)
(0.475336 0.0430263 -2.74456e-20)
(0.436581 0.0365406 -1.13604e-20)
(0.404482 0.0302062 -1.94031e-20)
(0.377292 0.0245369 -1.99128e-20)
(0.35344 0.0209705 -1.87733e-20)
(0.332957 0.0189163 -1.96214e-20)
(0.316061 0.0176834 -1.16129e-20)
(0.301821 0.0163965 -2.3076e-20)
(0.288819 0.0152549 -2.07046e-20)
(0.276225 0.0142981 -2.0711e-20)
(0.263368 0.0129672 -4.93661e-21)
(0.249143 0.0110429 1.81891e-20)
(0.233095 0.00924479 1.81754e-20)
(0.217124 0.00746298 6.56392e-20)
(0.202368 0.00564572 8.11858e-20)
(0.188731 0.00416017 1.39585e-19)
(0.176168 0.0031321 1.67524e-19)
(0.162596 0.00259203 1.61066e-19)
(0.1467 0.00274763 2.35493e-19)
(0.128315 0.00291774 2.32021e-19)
(0.107095 0.00644411 2.944e-19)
(0.0877726 0.0120181 2.36161e-19)
(0.0728618 0.0184612 2.66955e-19)
(0.0618143 0.0284836 9.07082e-20)
(0.0501746 0.0424792 -4.93816e-20)
(0.0303852 0.0561128 -1.64824e-19)
(0.0324897 0.117235 -2.11275e-19)
(1.5 -3.04757e-15 1.88076e-21)
(1.5 -1.16732e-16 -5.41249e-22)
(1.5 -4.54129e-16 -9.8979e-22)
(1.5 3.75425e-16 -1.49861e-21)
(1.5 -2.09702e-15 -1.10494e-21)
(1.5 -7.30574e-15 -2.04133e-21)
(1.5 -2.31878e-14 -2.24036e-21)
(1.5 -4.93552e-14 -3.20893e-21)
(1.5 -1.28505e-13 -2.12351e-21)
(1.5 -3.11594e-13 -3.68152e-21)
(1.5 -7.50113e-13 -4.94867e-22)
(1.5 -1.70803e-12 -5.63139e-21)
(1.5 -3.76544e-12 -4.83963e-21)
(1.5 -8.13392e-12 -4.33125e-21)
(1.5 -1.69631e-11 -2.51818e-21)
(1.5 -3.4043e-11 -3.55862e-21)
(1.5 -6.93655e-11 -2.86024e-21)
(1.5 -1.26831e-10 -4.75597e-21)
(1.5 -2.42441e-10 -2.24045e-21)
(1.5 -4.5607e-10 -3.43932e-21)
(1.5 -7.33486e-10 -4.89239e-21)
(1.5 -1.44053e-09 -8.74924e-21)
(1.5 -2.09715e-09 -6.33664e-21)
(1.5 -4.03395e-09 -7.50034e-21)
(1.5 -5.2114e-09 -1.18124e-20)
(1.50001 -9.92562e-09 -1.11763e-20)
(1.50001 -1.18543e-08 -1.18232e-20)
(1.50001 -2.1055e-08 -1.19514e-20)
(1.50002 -2.66166e-08 -1.22982e-20)
(1.50003 -4.08608e-08 -9.91032e-21)
(1.50004 -5.28313e-08 -1.14388e-20)
(1.50005 -8.18558e-08 -9.90545e-21)
(1.50007 -1.01586e-07 -1.18084e-20)
(1.50009 -1.42679e-07 -1.00402e-20)
(1.50012 -1.67147e-07 -1.14845e-20)
(1.50015 -2.59734e-07 -1.06753e-20)
(1.50019 -2.08451e-07 -1.10759e-20)
(1.50023 -4.66273e-07 -1.055e-20)
(1.50028 -2.32197e-07 -1.11983e-20)
(1.50034 -6.79907e-07 -1.02582e-20)
(1.5004 -3.06717e-07 -1.14417e-20)
(1.50047 -9.49819e-07 -9.67594e-21)
(1.50054 -4.10051e-07 -1.15228e-20)
(1.50062 -1.18111e-06 -9.31656e-21)
(1.50071 -6.51315e-07 -1.2104e-20)
(1.5008 -1.39791e-06 -7.91208e-21)
(1.50091 -9.78719e-07 -8.3341e-21)
(1.50103 -1.52369e-06 -4.47799e-21)
(1.50117 -1.4355e-06 -5.31352e-21)
(1.50132 -1.7972e-06 -2.79011e-21)
(1.50149 -2.10845e-06 -5.91619e-21)
(1.50167 -2.34334e-06 -4.79568e-21)
(1.50189 -2.71322e-06 -2.1246e-21)
(1.50212 -2.40128e-06 -6.38367e-21)
(1.50238 -3.22145e-06 -6.97746e-22)
(1.50267 -2.73316e-06 -7.52284e-21)
(1.503 -4.79269e-06 -5.12561e-21)
(1.50336 -4.25637e-06 -6.76076e-21)
(1.50375 -5.37635e-06 -8.91976e-21)
(1.5042 -3.96648e-06 -2.86555e-21)
(1.50468 -4.71839e-06 -8.96177e-21)
(1.50521 -3.28284e-06 -6.61873e-21)
(1.50579 -6.87832e-06 -1.04851e-21)
(1.50644 -2.17077e-06 -7.92499e-21)
(1.50715 -3.1569e-06 -7.53081e-21)
(1.50794 -2.61643e-06 -6.67394e-21)
(1.50881 -3.64749e-06 -6.03543e-21)
(1.50972 -5.48673e-06 -5.59839e-21)
(1.51071 -1.8987e-05 -3.03953e-21)
(1.5118 -8.92668e-06 -2.20184e-21)
(1.51293 1.0835e-06 -4.21577e-21)
(1.51408 7.68492e-06 -3.74393e-21)
(1.51553 5.09409e-05 -2.23361e-21)
(1.51699 6.17173e-05 -3.54331e-21)
(1.51846 8.45885e-05 -3.50897e-21)
(1.5198 0.000129372 -1.77985e-21)
(1.52151 0.000206906 -3.55831e-21)
(1.52279 0.000485035 -3.39499e-21)
(1.52377 0.000533995 -4.64991e-21)
(1.52464 0.000646193 -1.58494e-21)
(1.52438 0.00100588 -3.32285e-21)
(1.52262 0.000891826 -3.29949e-21)
(0.997246 -0.0694003 4.72914e-20)
(0.49573 -0.112556 5.55185e-20)
(0.489209 -0.105697 3.34394e-20)
(0.558609 -0.0737236 1.16181e-20)
(0.594948 -0.0342227 6.86635e-21)
(0.610837 0.0040372 -9.26666e-21)
(0.609111 0.0275797 -1.00883e-20)
(0.592397 0.0523383 -2.98596e-20)
(0.554169 0.0696391 -2.64862e-20)
(0.519681 0.0803526 -2.28571e-20)
(0.480511 0.0788301 -3.03927e-20)
(0.442372 0.0690061 -1.30505e-20)
(0.405707 0.058069 -2.81992e-20)
(0.374048 0.0487168 -3.02961e-20)
(0.34709 0.0424504 -1.71499e-21)
(0.324473 0.0391169 -4.78614e-20)
(0.305129 0.0367244 1.36676e-21)
(0.288649 0.0341094 -4.50264e-20)
(0.273967 0.0314557 2.87099e-20)
(0.259857 0.0283326 -4.20224e-20)
(0.245272 0.025346 6.22043e-20)
(0.229137 0.0227426 -2.06326e-20)
(0.211274 0.0206771 1.2028e-19)
(0.193592 0.0190237 3.79011e-20)
(0.177399 0.0186073 2.15924e-19)
(0.162907 0.0186788 1.28722e-19)
(0.149623 0.0197417 3.61336e-19)
(0.1356 0.0209452 2.66549e-19)
(0.1189 0.0231693 4.32719e-19)
(0.0988543 0.0236484 3.78476e-19)
(0.0769991 0.0284126 4.3795e-19)
(0.0561311 0.0289452 5.80768e-19)
(0.0400593 0.0319945 4.59012e-19)
(0.0267974 0.0381497 7.63004e-19)
(0.0204109 0.055401 3.05809e-19)
(0.00866955 0.0683136 2.00073e-20)
(0.013953 0.138061 4.32408e-19)
(1.5 -3.73042e-15 -8.17072e-22)
(1.5 3.94378e-16 1.04046e-21)
(1.5 8.65973e-16 2.06394e-21)
(1.5 2.7861e-15 2.6395e-21)
(1.5 5.9936e-15 1.31402e-22)
(1.5 1.01799e-14 -2.01516e-21)
(1.5 6.80826e-15 -1.82343e-21)
(1.5 -1.75398e-14 -2.24573e-21)
(1.5 -7.08483e-14 -1.6988e-21)
(1.5 -1.96719e-13 -1.70903e-21)
(1.5 -5.44577e-13 -4.25292e-21)
(1.5 -1.44123e-12 -5.84386e-21)
(1.5 -3.53091e-12 -4.75809e-21)
(1.5 -8.19323e-12 -5.53294e-21)
(1.5 -1.83709e-11 -4.01097e-22)
(1.5 -4.00166e-11 2.75313e-22)
(1.5 -7.94098e-11 -1.19777e-21)
(1.5 -1.70861e-10 9.21172e-22)
(1.5 -2.99492e-10 -9.14447e-21)
(1.5 -5.91513e-10 -4.13373e-22)
(1.5 -1.07342e-09 -6.8742e-22)
(1.5 -1.66332e-09 3.14026e-21)
(1.5 -3.12512e-09 7.47718e-22)
(1.5 -4.51123e-09 2.84483e-21)
(1.5 -8.11823e-09 5.23211e-21)
(1.50001 -1.11846e-08 3.35718e-22)
(1.50001 -1.96371e-08 3.24838e-21)
(1.50001 -2.53895e-08 7.65516e-21)
(1.50002 -4.26406e-08 8.53518e-21)
(1.50003 -5.42752e-08 3.84592e-21)
(1.50004 -8.27243e-08 4.46746e-21)
(1.50005 -1.09939e-07 4.62925e-21)
(1.50007 -1.40472e-07 4.86676e-21)
(1.50009 -1.84693e-07 4.75715e-21)
(1.50012 -2.13495e-07 5.01179e-21)
(1.50015 -3.23484e-07 5.38796e-21)
(1.50019 -2.53863e-07 4.81938e-21)
(1.50023 -5.34243e-07 5.05194e-21)
(1.50028 -3.76017e-07 5.80469e-21)
(1.50033 -6.98724e-07 4.71697e-21)
(1.50039 -5.93885e-07 5.71593e-21)
(1.50046 -9.18822e-07 4.16091e-21)
(1.50054 -9.65491e-07 5.85318e-21)
(1.50062 -1.24967e-06 4.14606e-21)
(1.5007 -1.42239e-06 5.48077e-21)
(1.5008 -1.59253e-06 2.65322e-21)
(1.5009 -1.85483e-06 3.1149e-21)
(1.50102 -2.21762e-06 2.84882e-21)
(1.50116 -2.40743e-06 -4.4743e-21)
(1.50131 -2.99216e-06 5.19973e-21)
(1.50148 -2.83971e-06 -5.61437e-21)
(1.50166 -3.33885e-06 5.34901e-21)
(1.50187 -3.63202e-06 -4.85608e-21)
(1.5021 -4.3149e-06 4.40009e-21)
(1.50237 -4.62738e-06 -3.07456e-21)
(1.50265 -4.74966e-06 4.44174e-21)
(1.50298 -4.35711e-06 5.83657e-21)
(1.50333 -4.38928e-06 7.73734e-21)
(1.50373 -6.08113e-06 6.48799e-21)
(1.50417 -6.18463e-06 9.29023e-21)
(1.50465 -8.52702e-06 6.9905e-21)
(1.50518 -5.29819e-06 1.34899e-20)
(1.50577 -7.97702e-06 7.35006e-21)
(1.50642 -3.2924e-06 1.18679e-20)
(1.50713 -5.609e-06 1.44305e-20)
(1.50791 -1.10687e-06 8.635e-21)
(1.50876 -5.75389e-06 1.62837e-20)
(1.50969 -2.40155e-06 4.79671e-21)
(1.5107 -1.15481e-05 1.50572e-20)
(1.51178 -6.82419e-06 3.95636e-21)
(1.51295 9.75896e-06 6.94677e-21)
(1.51424 -1.87473e-06 4.56005e-21)
(1.51562 3.19218e-05 8.99536e-21)
(1.5171 4.4776e-05 6.99013e-21)
(1.51869 0.000124768 6.25337e-21)
(1.52051 0.000143146 7.60543e-21)
(1.52225 0.000204343 6.73086e-21)
(1.52401 0.000341663 7.017e-21)
(1.52608 0.000390396 7.67324e-21)
(1.52815 0.000678151 6.2139e-21)
(1.53019 0.000780845 5.7542e-21)
(1.53339 0.00121276 5.99854e-21)
(1.06422 -0.088502 8.82828e-20)
(0.533358 -0.174824 9.96199e-20)
(0.541568 -0.157828 8.17871e-20)
(0.607643 -0.107146 5.89296e-20)
(0.636925 -0.0426897 1.96058e-20)
(0.657993 0.0165232 9.82706e-21)
(0.639941 0.0493462 3.53137e-20)
(0.622881 0.0830569 -1.72269e-20)
(0.585234 0.105854 1.44205e-20)
(0.552706 0.117974 -1.42888e-20)
(0.51261 0.114217 -2.27467e-20)
(0.472763 0.101664 -2.40119e-21)
(0.433025 0.0864892 -2.27853e-20)
(0.395503 0.0738835 -2.49801e-20)
(0.363607 0.0657331 -1.50028e-20)
(0.336839 0.0608974 -2.90761e-20)
(0.313493 0.0578188 -2.12652e-20)
(0.293183 0.0544276 -2.20877e-20)
(0.274714 0.0507407 -1.55944e-20)
(0.257627 0.0460513 1.13931e-20)
(0.240725 0.0422382 1.68551e-20)
(0.2233 0.038866 1.03598e-19)
(0.204879 0.0366472 1.07916e-19)
(0.187208 0.0348774 2.81107e-19)
(0.171214 0.0343993 2.38794e-19)
(0.157004 0.0341451 4.80329e-19)
(0.144051 0.0355539 3.33819e-19)
(0.13061 0.0375656 7.04473e-19)
(0.115602 0.0424281 3.24341e-19)
(0.0974783 0.0448722 7.59901e-19)
(0.0785474 0.0508174 2.29997e-19)
(0.0583426 0.0481305 5.07555e-19)
(0.0407294 0.0501507 3.84503e-19)
(0.0273364 0.0517599 4.7164e-19)
(0.0208581 0.0677489 1.00337e-18)
(0.00954183 0.0751179 4.41206e-19)
(0.0163034 0.146773 1.6787e-19)
(1.5 -4.49075e-15 -2.41059e-21)
(1.5 9.71808e-16 3.48542e-21)
(1.5 9.00002e-16 -1.61167e-21)
(1.5 1.49605e-15 3.28875e-21)
(1.5 -1.01693e-15 2.76288e-21)
(1.5 -4.62031e-15 8.55404e-21)
(1.5 -1.69181e-14 7.49861e-21)
(1.5 -6.4761e-14 2.44665e-21)
(1.5 -1.7803e-13 6.98198e-21)
(1.5 -4.65174e-13 9.50254e-21)
(1.5 -1.17821e-12 -6.01591e-21)
(1.5 -2.78434e-12 9.97322e-21)
(1.5 -6.23412e-12 7.87183e-21)
(1.5 -1.35458e-11 9.00052e-21)
(1.5 -2.81616e-11 4.37391e-21)
(1.5 -5.87682e-11 1.83117e-21)
(1.5 -1.13719e-10 1.17205e-20)
(1.5 -2.2878e-10 9.37392e-21)
(1.5 -4.26339e-10 1.62855e-20)
(1.5 -7.30334e-10 4.06609e-21)
(1.5 -1.39855e-09 3.65354e-21)
(1.5 -2.11116e-09 5.5922e-21)
(1.5 -4.03121e-09 1.27128e-21)
(1.5 -5.72092e-09 3.50318e-22)
(1.5 -1.08064e-08 2.33859e-21)
(1.50001 -1.38899e-08 5.49646e-21)
(1.50001 -2.50582e-08 4.5905e-21)
(1.50001 -3.18725e-08 1.21492e-21)
(1.50002 -4.90708e-08 4.99727e-22)
(1.50003 -6.98034e-08 6.29292e-21)
(1.50004 -9.21514e-08 6.69731e-21)
(1.50005 -1.32279e-07 3.79011e-21)
(1.50007 -1.62442e-07 5.31038e-21)
(1.50009 -2.62131e-07 3.92516e-21)
(1.50012 -2.72376e-07 9.42999e-22)
(1.50015 -4.74542e-07 3.63768e-21)
(1.50018 -4.51266e-07 4.055e-21)
(1.50023 -7.17169e-07 1.55734e-21)
(1.50027 -7.23107e-07 2.84422e-21)
(1.50033 -9.83634e-07 2.43686e-21)
(1.50039 -1.11251e-06 1.66445e-21)
(1.50046 -1.25188e-06 2.01853e-21)
(1.50053 -1.5327e-06 2.42168e-21)
(1.50061 -1.47751e-06 3.32959e-21)
(1.5007 -1.90805e-06 -4.8306e-22)
(1.50079 -1.82615e-06 4.90556e-21)
(1.50089 -2.30583e-06 3.73746e-22)
(1.50101 -2.23188e-06 5.81668e-21)
(1.50114 -2.63744e-06 9.73474e-22)
(1.5013 -2.68215e-06 -2.63237e-21)
(1.50146 -3.24257e-06 7.58199e-22)
(1.50165 -3.6847e-06 -1.45546e-21)
(1.50185 -4.42205e-06 5.29729e-21)
(1.50208 -4.77863e-06 -3.23334e-22)
(1.50234 -5.49662e-06 2.42752e-22)
(1.50263 -6.65195e-06 -2.18942e-21)
(1.50295 -7.06038e-06 -5.05634e-21)
(1.5033 -8.17646e-06 -3.35282e-21)
(1.5037 -7.36262e-06 -3.30258e-21)
(1.50413 -7.82904e-06 -4.63793e-21)
(1.50461 -8.10795e-06 -8.31902e-21)
(1.50514 -7.95583e-06 -8.21695e-21)
(1.50572 -1.21008e-05 -6.20184e-21)
(1.50637 -7.49739e-06 -1.41439e-20)
(1.50707 -1.23278e-05 -8.25874e-21)
(1.50785 -9.38675e-06 -1.47444e-20)
(1.50871 -8.78952e-06 -9.83708e-21)
(1.50964 -1.05535e-05 -1.44508e-20)
(1.51065 -1.04031e-05 -9.2717e-21)
(1.51176 -6.66398e-06 -1.32405e-20)
(1.51297 3.02811e-06 -1.06675e-20)
(1.5143 1.46303e-05 -8.08765e-21)
(1.51577 4.66095e-05 -1.45649e-20)
(1.51729 5.96283e-05 -3.96733e-21)
(1.51905 8.16647e-05 -1.17666e-20)
(1.52079 0.00010952 -5.69761e-21)
(1.52285 0.000217944 -1.63256e-20)
(1.52522 0.000345219 -4.43855e-21)
(1.5276 0.000419971 -7.12124e-21)
(1.53026 0.000957091 -7.2559e-21)
(1.53307 0.000501571 -1.06302e-20)
(1.54012 0.00338541 -8.99617e-21)
(1.15351 -0.156858 1.10338e-19)
(0.621889 -0.293568 1.57718e-19)
(0.631868 -0.20369 1.3316e-19)
(0.667015 -0.117261 6.1266e-20)
(0.680534 -0.0497512 3.06648e-20)
(0.702764 0.0122129 7.83865e-21)
(0.682139 0.0588558 7.24088e-22)
(0.665712 0.0993066 1.34867e-20)
(0.632057 0.125219 1.37883e-20)
(0.60074 0.140914 5.68796e-20)
(0.559559 0.141156 2.84515e-20)
(0.517869 0.132268 6.14367e-20)
(0.473122 0.119098 3.4106e-20)
(0.429272 0.104147 8.66005e-20)
(0.392115 0.0937343 2.89124e-20)
(0.361681 0.0859739 8.33876e-20)
(0.335617 0.0804687 2.9062e-20)
(0.313269 0.0750772 9.76934e-20)
(0.293005 0.0697429 6.54532e-20)
(0.273642 0.0643629 1.62636e-19)
(0.254081 0.0598987 1.03632e-19)
(0.233931 0.0555051 2.7128e-19)
(0.213097 0.0525047 2.40934e-19)
(0.193502 0.0500437 4.76287e-19)
(0.175829 0.0496667 4.44015e-19)
(0.16007 0.0493376 6.97518e-19)
(0.145875 0.0509897 5.87222e-19)
(0.13153 0.0530832 7.90497e-19)
(0.116412 0.0586892 6.07928e-19)
(0.0984535 0.0615653 3.19234e-19)
(0.0807212 0.0680554 3.59767e-19)
(0.0623273 0.064444 -2.25912e-19)
(0.0462035 0.0661355 2.23233e-19)
(0.0337728 0.0622079 -4.29984e-20)
(0.0268485 0.0782729 3.60588e-20)
(0.0142148 0.0814365 9.77279e-19)
(0.0220567 0.155487 9.83253e-19)
(1.5 -4.30057e-15 2.09282e-21)
(1.5 2.36266e-15 -6.56959e-22)
(1.5 2.2152e-15 3.33275e-21)
(1.5 5.875e-15 -3.76779e-22)
(1.5 7.8968e-15 -4.81355e-21)
(1.5 1.40337e-14 -1.56853e-20)
(1.5 1.79442e-14 -1.44343e-20)
(1.5 3.54091e-14 -1.05691e-21)
(1.5 6.36169e-14 -1.67935e-20)
(1.5 4.62458e-14 -1.86928e-20)
(1.5 -1.1331e-13 -1.9388e-21)
(1.5 -7.93881e-13 -2.01945e-20)
(1.5 -2.69549e-12 -2.81117e-20)
(1.5 -7.67784e-12 -1.37238e-20)
(1.5 -1.93834e-11 -2.01842e-20)
(1.5 -4.54148e-11 -9.82837e-21)
(1.5 -9.94126e-11 -3.6983e-20)
(1.5 -2.00098e-10 -1.28672e-20)
(1.5 -4.03621e-10 -2.36525e-20)
(1.5 -7.73694e-10 -2.81162e-20)
(1.5 -1.38494e-09 -2.58696e-20)
(1.5 -2.64804e-09 -2.75469e-20)
(1.5 -4.19824e-09 -2.11779e-20)
(1.5 -7.24665e-09 -2.2888e-20)
(1.5 -1.11103e-08 -1.93357e-20)
(1.50001 -1.82417e-08 -1.69614e-20)
(1.50001 -2.61376e-08 -1.54653e-20)
(1.50001 -4.32623e-08 -1.81836e-20)
(1.50002 -5.64378e-08 -1.77002e-20)
(1.50003 -9.37385e-08 -2.2434e-20)
(1.50004 -1.06837e-07 -2.03496e-20)
(1.50005 -1.87509e-07 -2.43183e-20)
(1.50007 -2.0333e-07 -2.2806e-20)
(1.50009 -3.04171e-07 -2.45747e-20)
(1.50011 -3.62246e-07 -2.38405e-20)
(1.50015 -4.48434e-07 -2.45977e-20)
(1.50018 -6.09156e-07 -2.29934e-20)
(1.50022 -6.44572e-07 -2.50209e-20)
(1.50027 -9.38833e-07 -2.20133e-20)
(1.50032 -9.01442e-07 -2.71618e-20)
(1.50038 -1.39272e-06 -2.11091e-20)
(1.50045 -1.18794e-06 -2.94753e-20)
(1.50052 -1.9292e-06 -1.84256e-20)
(1.5006 -1.65158e-06 -3.0227e-20)
(1.50069 -2.57356e-06 -1.74173e-20)
(1.50078 -2.25884e-06 -3.16587e-20)
(1.50088 -3.19915e-06 -2.15579e-20)
(1.501 -3.02432e-06 -2.66945e-20)
(1.50113 -4.13927e-06 -1.15153e-20)
(1.50128 -3.9506e-06 -2.32547e-20)
(1.50144 -4.73384e-06 -7.70675e-21)
(1.50162 -4.66772e-06 -3.09274e-20)
(1.50183 -5.50838e-06 -1.46287e-20)
(1.50206 -5.9939e-06 -2.70973e-20)
(1.50231 -6.33767e-06 -2.31034e-20)
(1.50259 -7.00703e-06 -2.70141e-20)
(1.50291 -7.19747e-06 -2.61938e-20)
(1.50325 -9.91312e-06 -2.96689e-20)
(1.50365 -9.68396e-06 -2.31017e-20)
(1.50407 -1.26732e-05 -2.57086e-20)
(1.50455 -1.16087e-05 -1.71786e-20)
(1.50507 -1.12138e-05 -3.08754e-20)
(1.50566 -1.32423e-05 -2.37705e-20)
(1.50629 -9.88003e-06 -2.5493e-20)
(1.507 -1.51618e-05 -2.19705e-20)
(1.50778 -1.05521e-05 -2.75225e-20)
(1.50862 -1.19639e-05 -1.87003e-20)
(1.50956 -1.46617e-05 -2.77867e-20)
(1.51059 -1.0537e-05 -1.49222e-20)
(1.51175 -1.88212e-05 -2.58432e-20)
(1.51302 3.51512e-06 -2.0671e-20)
(1.51436 -1.97909e-05 -1.83646e-20)
(1.51583 3.59674e-05 -2.89492e-20)
(1.51748 2.84572e-05 -2.11244e-20)
(1.51931 4.13837e-05 -2.34275e-20)
(1.5212 8.80609e-05 -2.03439e-20)
(1.52354 8.03841e-05 -2.34449e-20)
(1.52648 2.1698e-05 -2.19707e-20)
(1.5304 7.00636e-05 -2.80456e-20)
(1.53542 -5.05531e-05 -2.0637e-20)
(1.54219 -0.00108663 -2.18578e-20)
(1.54856 0.000570663 -1.96081e-20)
(1.24095 -0.342777 9.29177e-20)
(0.736978 -0.461217 2.41153e-19)
(0.708843 -0.288613 1.91565e-19)
(0.709631 -0.133405 1.12919e-19)
(0.684518 -0.0450963 3.48837e-20)
(0.711083 0.0302427 2.08653e-20)
(0.682397 0.0906018 -2.26898e-20)
(0.675393 0.137236 1.00664e-21)
(0.641565 0.164922 -3.06154e-20)
(0.6151 0.181035 5.57581e-21)
(0.578135 0.181855 -2.496e-21)
(0.544398 0.168638 5.64269e-20)
(0.50583 0.152811 1.09319e-20)
(0.467748 0.132275 7.0278e-20)
(0.429627 0.117759 4.31855e-20)
(0.396746 0.106577 6.76917e-20)
(0.367539 0.0987856 7.72223e-20)
(0.342071 0.0919265 9.47181e-20)
(0.318822 0.086074 1.41307e-19)
(0.296475 0.0803774 1.28669e-19)
(0.273884 0.076097 1.77618e-19)
(0.250628 0.0721767 2.54062e-19)
(0.226498 0.0699969 3.07177e-19)
(0.203489 0.0680634 4.36298e-19)
(0.182764 0.0673761 4.81184e-19)
(0.16449 0.0666371 4.67854e-19)
(0.147898 0.0681852 5.23882e-19)
(0.131435 0.0696156 1.08421e-19)
(0.115145 0.0753083 2.40888e-19)
(0.0965385 0.0783673 -5.09155e-19)
(0.0788581 0.0848758 -2.79276e-19)
(0.0609949 0.0810228 -4.18113e-19)
(0.0450392 0.0825856 -8.08276e-19)
(0.0327224 0.0733872 -4.68505e-19)
(0.0251234 0.08885 -2.90911e-20)
(0.0186187 0.0870168 -5.56198e-19)
(0.0265339 0.168144 -1.47077e-19)
(1.5 -5.92484e-15 5.70366e-21)
(1.5 2.25659e-15 8.13777e-21)
(1.5 1.40011e-15 9.35402e-21)
(1.5 3.09611e-15 5.57702e-21)
(1.5 7.28596e-16 2.31995e-20)
(1.5 -4.05127e-15 3.36889e-20)
(1.5 -1.75115e-14 1.81252e-20)
(1.5 -4.79138e-14 3.89208e-20)
(1.5 -1.8432e-13 2.55289e-20)
(1.5 -5.47082e-13 2.48824e-20)
(1.5 -1.45274e-12 2.33167e-20)
(1.5 -3.55584e-12 2.6184e-20)
(1.5 -8.07611e-12 3.99912e-20)
(1.5 -1.77972e-11 1.50454e-20)
(1.5 -3.83377e-11 -4.13398e-22)
(1.5 -7.86419e-11 -1.06387e-21)
(1.5 -1.61093e-10 1.42631e-20)
(1.5 -3.09714e-10 7.49243e-21)
(1.5 -5.79533e-10 2.01229e-21)
(1.5 -1.10633e-09 1.49629e-20)
(1.5 -1.83399e-09 1.4135e-20)
(1.5 -3.2211e-09 1.40257e-20)
(1.5 -5.1963e-09 1.10849e-20)
(1.5 -8.99059e-09 1.69767e-20)
(1.5 -1.35645e-08 2.69488e-21)
(1.50001 -2.27408e-08 1.32104e-21)
(1.50001 -3.15753e-08 2.08151e-22)
(1.50001 -5.06688e-08 3.02001e-21)
(1.50002 -6.80997e-08 2.64356e-21)
(1.50003 -1.01577e-07 -5.47382e-21)
(1.50004 -1.41959e-07 -3.63393e-21)
(1.50005 -1.78353e-07 -1.81874e-21)
(1.50007 -2.71009e-07 -7.06893e-22)
(1.50009 -3.13812e-07 1.65093e-22)
(1.50011 -4.94918e-07 -3.36287e-22)
(1.50014 -4.77634e-07 7.26197e-22)
(1.50018 -7.91443e-07 1.67562e-21)
(1.50022 -6.62833e-07 2.61441e-21)
(1.50026 -1.1364e-06 3.44872e-21)
(1.50032 -9.49855e-07 5.12023e-21)
(1.50038 -1.6169e-06 5.71415e-21)
(1.50044 -1.36858e-06 4.35087e-21)
(1.50051 -2.23631e-06 3.52109e-21)
(1.50059 -1.88252e-06 3.94458e-21)
(1.50067 -2.91348e-06 2.71625e-21)
(1.50076 -2.59547e-06 4.05075e-21)
(1.50087 -3.69463e-06 4.73891e-21)
(1.50098 -3.4811e-06 -3.55135e-21)
(1.50111 -4.50575e-06 -1.94058e-21)
(1.50125 -4.47421e-06 -7.50302e-21)
(1.50141 -5.95971e-06 -4.69136e-21)
(1.50159 -6.16035e-06 -5.95095e-21)
(1.50179 -7.48055e-06 -4.78208e-21)
(1.50202 -7.44764e-06 -3.67809e-22)
(1.50226 -8.71804e-06 4.84894e-21)
(1.50255 -9.61417e-06 -4.32328e-21)
(1.50285 -1.06081e-05 6.83339e-21)
(1.5032 -1.11923e-05 9.45779e-21)
(1.50357 -1.10286e-05 4.48849e-21)
(1.504 -1.215e-05 7.08769e-21)
(1.50447 -1.30477e-05 5.56727e-21)
(1.50499 -1.57574e-05 8.06079e-21)
(1.50557 -1.91297e-05 1.62952e-20)
(1.5062 -1.79081e-05 1.24163e-20)
(1.5069 -2.06519e-05 1.72781e-20)
(1.50766 -1.66519e-05 1.7457e-20)
(1.50851 -1.86578e-05 1.16289e-20)
(1.50944 -1.67915e-05 1.80249e-20)
(1.51047 -1.49549e-05 9.27478e-21)
(1.51161 -2.16966e-05 1.77243e-20)
(1.51291 -1.06372e-05 8.95421e-21)
(1.51436 -5.05013e-05 1.79271e-20)
(1.5159 5.435e-06 6.25054e-21)
(1.51747 -3.33585e-05 1.37552e-20)
(1.51921 -3.32451e-05 1.24224e-20)
(1.521 -1.72767e-05 1.25389e-20)
(1.52303 -8.34153e-05 1.14645e-20)
(1.52542 -0.000117059 1.25877e-20)
(1.52883 -0.000133759 1.08469e-20)
(1.53226 -0.000598395 1.14069e-20)
(1.53852 -0.00029428 9.52408e-21)
(1.53576 -0.0245563 9.21394e-21)
(1.04344 -0.568799 1.65442e-19)
(0.698374 -0.564396 2.50901e-19)
(0.690665 -0.348118 2.17053e-19)
(0.686832 -0.147303 1.39645e-19)
(0.637352 -0.0326437 8.44319e-21)
(0.675657 0.058525 4.72422e-20)
(0.639344 0.123329 -5.87916e-21)
(0.642249 0.173659 4.92225e-20)
(0.610544 0.201383 2.20907e-20)
(0.588659 0.216703 4.15305e-20)
(0.556437 0.218367 3.38185e-20)
(0.529497 0.205408 2.68309e-20)
(0.498324 0.190642 8.43207e-20)
(0.468541 0.169651 5.61231e-20)
(0.437254 0.153647 1.81195e-19)
(0.407632 0.139353 1.87406e-20)
(0.380123 0.127904 1.18132e-19)
(0.355999 0.118192 1.47454e-19)
(0.332781 0.110947 1.5436e-19)
(0.309574 0.104211 2.16325e-19)
(0.285788 0.0992253 3.11115e-19)
(0.261703 0.0940517 3.0147e-19)
(0.237241 0.0908878 4.46061e-19)
(0.214119 0.0879232 3.71323e-19)
(0.192607 0.0873338 5.32319e-19)
(0.172176 0.0864228 4.28529e-19)
(0.152152 0.0879322 2.885e-19)
(0.132398 0.0883576 2.44037e-20)
(0.113289 0.0932663 -3.36811e-19)
(0.0934234 0.0954567 -4.1797e-19)
(0.0753702 0.101078 -9.78748e-19)
(0.0581176 0.0970482 -5.17731e-19)
(0.0422884 0.0975045 -2.43298e-19)
(0.0307332 0.0835943 -6.71287e-19)
(0.0236998 0.0970685 -7.73573e-19)
(0.0185751 0.0905657 1.42518e-19)
(0.028182 0.180111 2.33085e-19)
(1.5 -6.44092e-15 -4.26067e-21)
(1.5 2.55236e-15 1.63949e-21)
(1.5 3.55186e-15 1.02219e-20)
(1.5 9.58838e-15 1.26878e-22)
(1.5 1.55521e-14 -6.03343e-21)
(1.5 3.23035e-14 -5.6156e-21)
(1.5 5.84516e-14 1.32905e-20)
(1.5 9.15588e-14 -1.01387e-20)
(1.5 1.81716e-13 -4.46049e-21)
(1.5 2.844e-13 -9.85683e-21)
(1.5 3.3396e-13 -6.67344e-21)
(1.5 -4.93741e-14 -9.14914e-21)
(1.5 -1.80959e-12 1.68048e-21)
(1.5 -6.87709e-12 3.25169e-20)
(1.5 -1.99142e-11 4.9198e-20)
(1.5 -4.94978e-11 3.51091e-20)
(1.5 -1.14519e-10 5.61147e-20)
(1.5 -2.46676e-10 3.14726e-20)
(1.5 -4.97539e-10 3.1899e-20)
(1.5 -9.58427e-10 5.51025e-20)
(1.5 -1.835e-09 3.65882e-20)
(1.5 -3.29434e-09 2.42008e-20)
(1.5 -5.82159e-09 2.61225e-20)
(1.5 -9.49426e-09 1.9765e-20)
(1.5 -1.53479e-08 3.93097e-20)
(1.50001 -2.41969e-08 3.64914e-20)
(1.50001 -3.76082e-08 3.21564e-20)
(1.50001 -5.42882e-08 3.28201e-20)
(1.50002 -8.50478e-08 3.1216e-20)
(1.50003 -1.08814e-07 3.87971e-20)
(1.50004 -1.72067e-07 3.23749e-20)
(1.50005 -2.12541e-07 3.61031e-20)
(1.50007 -3.09992e-07 2.95557e-20)