/*--------------------------------*- C++ -*----------------------------------*\
| =========                 |                                                 |
| \\      /  F ield         | OpenFOAM: The Open Source CFD Toolbox           |
|  \\    /   O peration     | Version:  2.2.x                                 |
|   \\  /    A nd           | Web:      www.OpenFOAM.org                      |
|    \\/     M anipulation  |                                                 |
\*---------------------------------------------------------------------------*/
FoamFile
{
    version     2.0;
    format      ascii;
    class       volScalarField;
    location    "2.95";
    object      By;
}
// * * * * * * * * * * * * * * * * * * * * * * * * * * * * * * * * * * * * * //

dimensions      [1 0 -2 0 0 -1 0];

internalField   nonuniform List<scalar> 
14161
(
-5.26243e-06
-1.25807e-06
-1.31269e-06
-8.12601e-07
-6.79055e-07
-1.41694e-06
4.93649e-07
-1.88792e-06
-7.95743e-07
3.57307e-07
-2.29948e-06
9.24202e-07
-1.90481e-07
-4.24033e-06
1.83983e-06
8.17184e-06
-3.33751e-06
-1.77818e-05
-1.97646e-06
3.08003e-05
2.89206e-06
-1.60103e-05
-1.37733e-05
6.48475e-06
2.2306e-05
1.99099e-05
-6.44877e-07
-1.13597e-05
3.89659e-06
2.73057e-05
3.44928e-05
4.5654e-05
4.20018e-05
3.68343e-05
6.09113e-05
9.12042e-05
0.000109005
0.000180727
0.000145194
0.000140641
0.000173745
0.000186397
4.0504e-05
0.000585502
0.00406559
0.00743591
0.00186322
-0.00356653
-0.00861642
-0.0119219
-0.0127887
-0.0129478
-0.0123771
-0.011546
-0.0110122
-0.00982428
-0.00873875
-0.00768737
-0.00683045
-0.0059594
-0.00523961
-0.00443463
-0.00401466
-0.00364196
-0.00321992
-0.00281862
-0.00253102
-0.00226043
-0.00215853
-0.00193125
-0.00182362
-0.00175775
-0.0015482
-0.00176122
-0.00222062
-0.00235662
-0.00239262
-0.00220009
-0.00196763
-0.00231006
-0.00174272
-0.00163521
-0.00186973
-0.00181602
-0.0016176
-0.00114112
-0.0011462
-0.00140378
-0.0016849
-0.0011779
-0.000999445
-0.0014484
-0.00106657
-0.000995687
-0.00145895
-0.00120891
-0.00104125
-0.00145628
-0.00113925
-0.00114191
-0.00096859
-0.00108901
-0.0013079
-0.000899373
-0.00103517
-0.000163902
0.00152113
0.00432429
0.0123508
0.0330471
0.0600469
0.0872543
0.104912
0.0993722
0.0847084
0.0797446
0.0753659
0.0728259
0.0695438
-9.29089e-06
-2.99891e-06
-3.99128e-06
-2.6405e-06
-2.2308e-06
-4.34427e-06
2.16214e-07
-4.21736e-06
-2.86553e-06
7.87297e-07
-5.06406e-06
2.77599e-06
1.63873e-07
-1.4341e-05
3.46141e-06
2.5195e-05
-9.57024e-06
-3.75831e-05
-7.30419e-07
6.24457e-05
1.60039e-05
-4.74728e-05
-4.5017e-05
1.01984e-05
7.05856e-05
6.05899e-05
-1.95629e-06
-2.49855e-05
3.96976e-06
6.89109e-05
8.84239e-05
0.000107482
0.000136861
0.000153976
0.00020471
0.000261466
0.000355674
0.000435762
0.00051069
0.000554993
0.000545528
0.000521466
0.000594684
0.00232427
0.0146301
0.0185742
0.00347146
-0.0115531
-0.0276375
-0.0380081
-0.0392995
-0.0397794
-0.0379125
-0.0357365
-0.0335053
-0.0306035
-0.0277405
-0.0247382
-0.0226695
-0.0202523
-0.0178784
-0.0157984
-0.0141568
-0.0126433
-0.0113779
-0.0103594
-0.00947683
-0.00863951
-0.00815755
-0.00746487
-0.00709547
-0.0066771
-0.00625306
-0.00603963
-0.0054908
-0.00554992
-0.00629099
-0.00604323
-0.00579567
-0.00696502
-0.00586164
-0.00548555
-0.00636065
-0.00605874
-0.00528332
-0.00426406
-0.00425234
-0.00510626
-0.00549676
-0.00415995
-0.00351726
-0.00480391
-0.00395775
-0.00361149
-0.00506003
-0.00415895
-0.0036963
-0.00495079
-0.00390983
-0.00380947
-0.00352796
-0.00373582
-0.00361485
-0.00275477
-0.00263611
0.0006635
0.00455896
0.0119283
0.0334455
0.0850614
0.177292
0.259872
0.280192
0.259804
0.231317
0.215133
0.196816
0.178793
0.166544
-1.32054e-05
-5.27723e-06
-6.7577e-06
-4.36852e-06
-3.841e-06
-6.93109e-06
-7.38921e-07
-6.01471e-06
-4.62601e-06
1.99484e-08
-7.77755e-06
4.00812e-06
7.60476e-07
-2.49166e-05
6.50611e-06
3.91277e-05
-1.98238e-05
-6.30478e-05
1.78069e-05
8.85501e-05
2.92402e-05
-7.92818e-05
-7.0355e-05
3.00941e-05
0.000121598
9.44953e-05
-7.77149e-06
-4.94527e-05
7.14276e-06
9.34877e-05
0.000146062
0.000204467
0.000254163
0.000298105
0.000369741
0.000449933
0.000597629
0.000733703
0.000888149
0.00101163
0.00103675
0.000896371
0.00135736
0.00585137
0.0322469
0.0328479
0.00463108
-0.0254552
-0.0523336
-0.0685711
-0.0698105
-0.069116
-0.0648342
-0.0605013
-0.0562428
-0.0518387
-0.0472294
-0.0424743
-0.0388674
-0.0348787
-0.0307594
-0.0274458
-0.0240953
-0.0213167
-0.0191972
-0.0174667
-0.015832
-0.0143278
-0.0132902
-0.0121576
-0.011344
-0.010782
-0.01027
-0.0115305
-0.0106459
-0.0100895
-0.0108284
-0.0097665
-0.00895163
-0.0100001
-0.00857871
-0.00811065
-0.00958075
-0.00920545
-0.00756487
-0.00617044
-0.0062487
-0.00805024
-0.00825442
-0.006128
-0.00488571
-0.00693282
-0.00596344
-0.00544385
-0.00772088
-0.0063575
-0.00544102
-0.00755359
-0.00586435
-0.00558009
-0.00506096
-0.0055917
-0.00488915
-0.00265656
-0.00187452
0.0050528
0.0173043
0.0410702
0.0942098
0.204276
0.334287
0.403599
0.409382
0.380761
0.346682
0.329141
0.307912
0.278241
0.266274
-1.7694e-05
-7.4069e-06
-8.8948e-06
-6.338e-06
-4.99972e-06
-9.39328e-06
-2.22872e-06
-7.30055e-06
-6.44607e-06
-1.53143e-06
-9.7414e-06
4.44694e-06
7.07268e-07
-3.19941e-05
8.88051e-06
4.99624e-05
-2.74397e-05
-7.87969e-05
3.13893e-05
0.000113815
3.39719e-05
-0.000109662
-9.42328e-05
4.73475e-05
0.00016166
0.000126801
-1.98878e-06
-5.95673e-05
1.81816e-05
0.000120112
0.000214933
0.000291881
0.000349326
0.000405069
0.000488856
0.000634532
0.000828175
0.0010311
0.00123464
0.00151171
0.00172628
0.0016497
0.00267882
0.0100583
0.0534534
0.0509342
0.00440882
-0.0466176
-0.0846057
-0.10413
-0.106964
-0.103929
-0.0956329
-0.0874251
-0.0800442
-0.0720881
-0.0647412
-0.0574117
-0.0509494
-0.045102
-0.039403
-0.0348617
-0.0307098
-0.0272808
-0.0243962
-0.0219106
-0.0198661
-0.0184321
-0.0176426
-0.0166257
-0.0157723
-0.0152013
-0.014582
-0.0154847
-0.0138916
-0.012934
-0.014324
-0.0132083
-0.0122493
-0.0132472
-0.0120242
-0.0114911
-0.0133633
-0.0129925
-0.011181
-0.00931881
-0.00948846
-0.0119387
-0.0118409
-0.00931325
-0.00777469
-0.00973956
-0.00896224
-0.0084416
-0.0109119
-0.00965525
-0.00875077
-0.0108578
-0.00862112
-0.0083545
-0.00717659
-0.00653571
-0.0048647
0.00062624
0.00338635
0.0173674
0.0495287
0.104877
0.212341
0.369839
0.477055
0.52763
0.511538
0.471987
0.434459
0.413406
0.398008
0.359759
0.350172
-2.17533e-05
-1.02028e-05
-1.10116e-05
-8.5666e-06
-7.72447e-06
-1.12745e-05
-5.40182e-06
-8.56712e-06
-7.9168e-06
-2.92845e-06
-1.1613e-05
6.18951e-06
-1.70372e-08
-3.87497e-05
1.47703e-05
5.63545e-05
-3.94029e-05
-8.34691e-05
3.68766e-05
0.000125652
3.18711e-05
-0.000118879
-9.71747e-05
5.77577e-05
0.00019367
0.000133321
-1.5081e-06
-4.32709e-05
2.69773e-05
0.000139703
0.000276908
0.000362156
0.000447754
0.000533913
0.000635037
0.000818695
0.00103694
0.00135415
0.00169699
0.00213611
0.00265345
0.00309971
0.0049729
0.0169941
0.077361
0.071465
0.000105848
-0.0773264
-0.125755
-0.147956
-0.151774
-0.143972
-0.130184
-0.117879
-0.106856
-0.0952823
-0.0854008
-0.0755883
-0.0666861
-0.0588654
-0.0508379
-0.0447412
-0.0392835
-0.0349627
-0.0310332
-0.0276728
-0.0248707
-0.0230543
-0.0219602
-0.0209068
-0.0199587
-0.0188661
-0.0181656
-0.0196577
-0.0184856
-0.0175233
-0.0186518
-0.0172363
-0.0158323
-0.0162833
-0.0149026
-0.0141626
-0.0160807
-0.0155865
-0.0138497
-0.0119432
-0.011919
-0.0146377
-0.0141629
-0.0114172
-0.00968495
-0.0118921
-0.0112891
-0.0107811
-0.0130162
-0.0117588
-0.0105025
-0.0118068
-0.00977899
-0.00937582
-0.00698737
-0.00487199
-0.00153732
0.00935745
0.0241368
0.0547377
0.126634
0.243168
0.390689
0.51967
0.586595
0.607372
0.581786
0.538293
0.502081
0.480544
0.472413
0.431607
0.425013
-2.46043e-05
-1.1714e-05
-1.29567e-05
-1.06312e-05
-1.03209e-05
-1.20478e-05
-7.05979e-06
-1.02447e-05
-8.92804e-06
-5.70173e-06
-1.31796e-05
8.00279e-06
-3.37684e-06
-4.3209e-05
2.13245e-05
5.32679e-05
-4.08579e-05
-8.27032e-05
3.81428e-05
0.000125355
2.97672e-05
-9.99655e-05
-8.29169e-05
5.31128e-05
0.00018144
0.000133105
2.58032e-05
1.87445e-06
4.78535e-05
0.000154122
0.000312564
0.000438064
0.000524242
0.000601108
0.000733344
0.000920435
0.00118707
0.00158031
0.00200107
0.00261694
0.00328752
0.00441146
0.00702607
0.0244302
0.101862
0.0923936
-0.011241
-0.118888
-0.176255
-0.199028
-0.202059
-0.188771
-0.166673
-0.148096
-0.132347
-0.116134
-0.101896
-0.0883259
-0.0765371
-0.0657471
-0.0571491
-0.0494057
-0.0429032
-0.0380716
-0.0338789
-0.0303481
-0.0275434
-0.0257601
-0.0246465
-0.0237813
-0.0227777
-0.0215632
-0.0208171
-0.0220829
-0.0207879
-0.0193954
-0.020359
-0.0189388
-0.0174764
-0.018218
-0.0170474
-0.0166836
-0.0181718
-0.0178524
-0.0164981
-0.0149175
-0.0149122
-0.0174867
-0.0168359
-0.0143248
-0.0127136
-0.0144168
-0.0140633
-0.0135115
-0.0148486
-0.0138294
-0.0135988
-0.0131189
-0.00928887
-0.00873327
-0.00464221
0.00143517
0.0100743
0.0312578
0.0736872
0.140507
0.275962
0.428527
0.548746
0.624693
0.65864
0.662737
0.633695
0.589029
0.555698
0.534265
0.529018
0.491421
0.487573
-2.6517e-05
-1.41759e-05
-1.57948e-05
-1.29735e-05
-1.21479e-05
-1.26397e-05
-1.01927e-05
-1.12376e-05
-8.60771e-06
-8.96426e-06
-1.38012e-05
1.00074e-05
-7.50877e-06
-4.27168e-05
2.25553e-05
4.58438e-05
-3.80318e-05
-7.22119e-05
3.13847e-05
9.80218e-05
2.6926e-05
-6.07002e-05
-5.85491e-05
4.44833e-05
0.000139147
0.000106773
6.56146e-05
5.60303e-05
7.66111e-05
0.000153642
0.000305662
0.000466636
0.000561957
0.000667926
0.000807565
0.00101071
0.00130305
0.00174849
0.00231751
0.0030038
0.00392883
0.00567185
0.00883114
0.0311409
0.116266
0.101969
-0.0390439
-0.172342
-0.238238
-0.255534
-0.24846
-0.229338
-0.200976
-0.177748
-0.157048
-0.136495
-0.118001
-0.102064
-0.087326
-0.07504
-0.0636398
-0.0551823
-0.0463845
-0.0407542
-0.0360927
-0.0328685
-0.0302663
-0.0282418
-0.0267496
-0.0259202
-0.0250001
-0.0237139
-0.0229777
-0.0239237
-0.0233704
-0.0222046
-0.0227344
-0.0215982
-0.0199938
-0.02019
-0.0191626
-0.0186809
-0.0195711
-0.0194825
-0.0185244
-0.0172743
-0.0170881
-0.0186191
-0.0180367
-0.0159892
-0.014745
-0.0156865
-0.0151006
-0.015588
-0.0157065
-0.0136137
-0.0133531
-0.0120391
-0.0061922
-0.00478044
0.00322868
0.020342
0.0410244
0.0856843
0.178164
0.30957
0.462976
0.585144
0.6564
0.694384
0.712687
0.701325
0.67024
0.628799
0.599338
0.578943
0.575342
0.543617
0.542492
-2.91888e-05
-1.6721e-05
-1.80727e-05
-1.44762e-05
-1.37668e-05
-1.50423e-05
-1.3311e-05
-1.18935e-05
-1.01205e-05
-1.28485e-05
-1.43863e-05
9.61363e-06
-1.3001e-05
-3.76264e-05
2.07762e-05
3.36795e-05
-3.48101e-05
-5.2519e-05
3.11938e-05
6.12769e-05
2.35226e-05
-2.38584e-05
-2.41586e-05
4.63629e-05
9.24338e-05
9.3713e-05
0.000108287
0.00010959
0.000116057
0.000174939
0.000281979
0.000418533
0.000575274
0.000686918
0.000833485
0.00104293
0.0013165
0.00165714
0.00222295
0.00299245
0.00398668
0.00581213
0.00909757
0.0278953
0.103979
0.0958965
-0.0945447
-0.237706
-0.298061
-0.305506
-0.287433
-0.259231
-0.226565
-0.19977
-0.176327
-0.150577
-0.129247
-0.11055
-0.092675
-0.0792007
-0.0668733
-0.0577404
-0.048224
-0.0421212
-0.0374204
-0.0334326
-0.0309197
-0.029342
-0.0279078
-0.0271679
-0.0260413
-0.0247819
-0.0244571
-0.0248972
-0.0243498
-0.0235353
-0.0236874
-0.0226119
-0.0214888
-0.0213764
-0.0206237
-0.0203327
-0.0207764
-0.0205183
-0.0198191
-0.0188827
-0.0183007
-0.0190819
-0.0190473
-0.0173294
-0.0165034
-0.0162887
-0.0148099
-0.0150659
-0.0147439
-0.0117479
-0.0110988
-0.0082367
0.00186022
0.0106573
0.0248785
0.0608771
0.114267
0.198932
0.358499
0.50054
0.612881
0.684728
0.72623
0.7467
0.749853
0.731395
0.699102
0.661852
0.635722
0.616324
0.613916
0.586504
0.586946
-3.17212e-05
-1.87636e-05
-1.9858e-05
-1.68058e-05
-1.67056e-05
-1.64846e-05
-1.45494e-05
-1.44198e-05
-1.10009e-05
-1.71122e-05
-1.26646e-05
7.47219e-06
-1.87288e-05
-2.56535e-05
1.41227e-05
1.3804e-05
-2.5026e-05
-1.86364e-05
1.93218e-05
1.98741e-05
6.60657e-06
1.33989e-05
3.15467e-05
3.62095e-05
3.45408e-05
7.3809e-05
0.000107746
0.000153088
0.000193131
0.000203148
0.000243244
0.000301927
0.000442486
0.000650781
0.000848272
0.00104949
0.00128383
0.00158822
0.00189615
0.0022143
0.00276474
0.00319671
0.00436863
0.0130577
0.0505728
0.0391428
-0.180828
-0.303798
-0.348738
-0.349842
-0.328652
-0.292295
-0.252053
-0.219939
-0.190991
-0.161466
-0.138612
-0.116894
-0.0966502
-0.0806631
-0.0664988
-0.0565115
-0.0473664
-0.0412478
-0.0370884
-0.0328922
-0.0310151
-0.0295287
-0.0284426
-0.0277814
-0.0267423
-0.025683
-0.0255042
-0.0255344
-0.0252042
-0.0246184
-0.0242507
-0.0232336
-0.022385
-0.0217533
-0.020872
-0.0206537
-0.0207302
-0.0205444
-0.0201865
-0.0194271
-0.0180916
-0.0188565
-0.0185532
-0.0167386
-0.0155279
-0.0150137
-0.013053
-0.012872
-0.0119614
-0.00653656
-0.00132195
0.00332257
0.0210049
0.0456022
0.0774607
0.148156
0.260679
0.387898
0.540244
0.641705
0.709576
0.753262
0.77544
0.781512
0.774636
0.753228
0.722906
0.689213
0.666136
0.648111
0.646316
0.623846
0.625607
-3.29507e-05
-2.02597e-05
-2.19884e-05
-1.86089e-05
-1.85365e-05
-1.74024e-05
-1.70725e-05
-1.70813e-05
-1.13564e-05
-2.05897e-05
-1.06515e-05
6.48421e-07
-2.18784e-05
-1.07404e-05
6.68417e-06
-1.41539e-05
-8.31593e-06
2.07094e-05
2.00326e-06
-2.48701e-05
-6.45211e-06
5.39743e-05
9.06838e-05
2.85262e-05
-2.28674e-05
3.17811e-05
0.00013923
0.000217218
0.000269892
0.000251438
0.000194704
0.000198882
0.00031737
0.000512901
0.000778816
0.000925404
0.00100548
0.00106504
0.00119961
0.00130186
0.00138506
0.00104761
0.0010164
-0.00104862
-0.0195767
-0.133892
-0.331154
-0.331726
-0.354497
-0.353938
-0.340176
-0.310421
-0.26984
-0.231794
-0.197082
-0.164727
-0.140873
-0.118622
-0.0966966
-0.0809853
-0.0656856
-0.0544339
-0.0456621
-0.0390165
-0.0350763
-0.031085
-0.0291752
-0.028109
-0.0274775
-0.027004
-0.0261276
-0.0251136
-0.0247632
-0.024857
-0.0247124
-0.0243866
-0.0237995
-0.0227358
-0.0222033
-0.0215745
-0.0205635
-0.0204838
-0.0202992
-0.0195617
-0.0190842
-0.0181693
-0.0161744
-0.0169761
-0.0166583
-0.0143766
-0.0123936
-0.0118632
-0.00864708
-0.00494997
-0.00364764
0.00599406
0.0200961
0.0335804
0.0649336
0.124905
0.191194
0.315787
0.453162
0.573518
0.666674
0.730569
0.771538
0.795608
0.808833
0.80772
0.794368
0.770886
0.743576
0.712763
0.692756
0.675683
0.674084
0.654837
0.656592
-3.54888e-05
-2.23677e-05
-2.38401e-05
-2.05607e-05
-2.10237e-05
-1.89934e-05
-2.0952e-05
-1.81045e-05
-1.44667e-05
-2.18041e-05
-7.49636e-06
-8.50794e-06
-2.13915e-05
8.33192e-06
-6.72698e-06
-4.16385e-05
1.17205e-05
5.22618e-05
-1.08823e-05
-6.82973e-05
-7.15974e-06
0.000102133
0.000120914
2.76217e-05
-7.72948e-05
1.3007e-06
0.000167912
0.000265546
0.000289282
0.000255359
0.000194255
0.000147117
0.000209037
0.000366647
0.000559824
0.000768583
0.000817254
0.000828876
0.000785888
0.000654291
0.000650333
0.000209944
-0.00137086
-0.0137265
-0.097874
-0.429632
-0.497223
-0.400891
-0.358285
-0.354955
-0.339679
-0.313779
-0.281915
-0.241531
-0.201248
-0.166988
-0.139804
-0.116
-0.0933857
-0.0770878
-0.0629626
-0.050198
-0.042085
-0.0359548
-0.032902
-0.0300213
-0.0283121
-0.0274605
-0.0269712
-0.0265487
-0.0258063
-0.0249142
-0.0243183
-0.0241497
-0.0244195
-0.0239162
-0.0228788
-0.0212746
-0.0206794
-0.0196877
-0.0183879
-0.0183375
-0.018184
-0.0167629
-0.0168662
-0.0155916
-0.0124855
-0.0132532
-0.0133118
-0.00951637
-0.0047696
-0.00396196
0.00242003
0.0125614
0.0185585
0.0353881
0.0700314
0.103814
0.163478
0.278163
0.377045
0.503753
0.614679
0.688705
0.750545
0.788646
0.811701
0.824746
0.830205
0.823431
0.808895
0.787525
0.762136
0.733672
0.716031
0.699654
0.697849
0.681612
0.683577
-3.61998e-05
-2.34359e-05
-2.53494e-05
-2.35834e-05
-2.3719e-05
-1.88793e-05
-2.45507e-05
-1.9156e-05
-1.68183e-05
-2.34332e-05
-5.58525e-06
-2.36126e-05
-1.82326e-05
2.22041e-05
-2.57467e-05
-6.08721e-05
3.87931e-05
7.24827e-05
-3.17301e-05
-0.000105024
1.05197e-05
0.000141975
0.000137076
1.34127e-05
-0.000104361
-2.7189e-05
0.000165211
0.000312801
0.000273123
0.000197072
0.000151368
0.000128743
0.000135112
0.000224311
0.000327351
0.000425495
0.000457858
0.000366733
0.000158616
-0.000222131
-0.00076147
-0.0019989
-0.00727176
-0.0356648
-0.219244
-0.668921
-0.648287
-0.480933
-0.401994
-0.382982
-0.351359
-0.319554
-0.289219
-0.247626
-0.206219
-0.168977
-0.138564
-0.112215
-0.0905763
-0.0726187
-0.0585016
-0.0455227
-0.0373595
-0.0320136
-0.0291584
-0.0268936
-0.0254999
-0.0253784
-0.0252261
-0.0248844
-0.024228
-0.0233374
-0.0225347
-0.0219141
-0.022286
-0.0218105
-0.0203224
-0.0180634
-0.0175144
-0.0165379
-0.0148609
-0.0150033
-0.0148276
-0.0123884
-0.0126785
-0.0105191
-0.00630535
-0.00441454
-0.00493842
0.00211127
0.0126233
0.0174393
0.029428
0.0541592
0.0727746
0.105619
0.171823
0.247611
0.340077
0.460812
0.561939
0.644323
0.712926
0.763341
0.800808
0.825142
0.837963
0.844961
0.843866
0.835213
0.82064
0.80132
0.778134
0.752827
0.736863
0.720815
0.718451
0.704028
0.705335
-3.83953e-05
-2.53767e-05
-2.79007e-05
-2.55029e-05
-2.51848e-05
-2.00182e-05
-2.8536e-05
-1.8978e-05
-2.2966e-05
-2.01279e-05
-6.16871e-06
-3.89124e-05
-6.5801e-06
2.77999e-05
-4.73536e-05
-6.65969e-05
5.45898e-05
7.33658e-05
-4.8144e-05
-0.000107692
2.11399e-05
0.000146333
0.000124425
1.62323e-05
-6.69988e-05
-1.01212e-05
0.000145399
0.000256018
0.000233106
0.0001846
0.000142761
0.000133066
0.000133041
0.000138997
0.00014755
0.000144728
0.00015322
9.23058e-05
-0.000100722
-0.000239291
-0.000704501
-0.00205815
-0.00999665
-0.0640339
-0.411853
-0.786574
-0.749083
-0.619888
-0.508236
-0.430471
-0.372465
-0.332285
-0.299421
-0.250988
-0.209438
-0.169355
-0.135519
-0.108031
-0.0877563
-0.0675089
-0.0535753
-0.0395562
-0.0326596
-0.0283402
-0.0258504
-0.0238547
-0.0229544
-0.0233618
-0.0236136
-0.0234973
-0.0227533
-0.0215029
-0.0207011
-0.0194455
-0.0195079
-0.0193004
-0.0173899
-0.014515
-0.01445
-0.013093
-0.0101135
-0.00875996
-0.00816642
-0.0034924
-0.00119954
0.000571082
0.00930635
0.016862
0.0183766
0.0306231
0.0532073
0.067719
0.0916614
0.137393
0.186095
0.250142
0.342528
0.428455
0.523985
0.614603
0.675579
0.733668
0.777307
0.808725
0.832524
0.847381
0.85541
0.857608
0.853159
0.843538
0.831068
0.813085
0.792396
0.769931
0.755172
0.739688
0.736468
0.723505
0.724657
-3.98111e-05
-2.7108e-05
-2.96004e-05
-2.65699e-05
-2.55596e-05
-2.43919e-05
-3.21598e-05
-1.82201e-05
-2.8259e-05
-1.78649e-05
-1.12368e-05
-4.7233e-05
3.77552e-06
2.0816e-05
-5.98629e-05
-5.7749e-05
5.24278e-05
6.0348e-05
-4.02708e-05
-7.69237e-05
2.31213e-05
0.00010684
8.51833e-05
1.87495e-05
-3.06717e-06
3.79202e-05
0.000100839
0.000121136
0.000150449
0.000177219
0.000158075
0.000155526
0.000165161
0.000118432
-8.50552e-07
-0.000104074
-0.000149241
-0.000177918
-0.000194808
-0.00034034
-0.000621135
-0.00262837
-0.0165265
-0.127753
-0.60877
-0.804007
-0.782813
-0.730861
-0.647108
-0.525677
-0.421254
-0.361383
-0.310012
-0.260464
-0.218891
-0.172961
-0.137038
-0.108295
-0.0866355
-0.064343
-0.0511897
-0.0374597
-0.0297025
-0.0275437
-0.0256778
-0.0232602
-0.0224979
-0.0224447
-0.0223961
-0.0222962
-0.0211059
-0.0189071
-0.018071
-0.0163951
-0.0139309
-0.0141908
-0.0113057
-0.00714341
-0.00560873
-0.00454055
0.000951242
0.00637063
0.00761749
0.0154929
0.0260417
0.0285121
0.0416244
0.0630932
0.0734971
0.094324
0.136147
0.174893
0.223595
0.294912
0.357096
0.425612
0.516426
0.590476
0.642741
0.706276
0.751005
0.786034
0.815955
0.837244
0.852205
0.861355
0.866235
0.865051
0.859783
0.851287
0.839884
0.823425
0.805699
0.785554
0.771628
0.756598
0.752239
0.740291
0.740825
-4.15865e-05
-2.88704e-05
-3.10876e-05
-2.82782e-05
-2.83729e-05
-2.96354e-05
-2.88235e-05
-2.20394e-05
-3.20665e-05
-1.40189e-05
-2.11881e-05
-4.35477e-05
8.39239e-06
8.54586e-06
-6.07689e-05
-3.6389e-05
4.00327e-05
2.43888e-05
-2.80646e-05
-1.73635e-05
2.08269e-05
3.13497e-05
3.30344e-05
6.03874e-05
8.88851e-05
8.84822e-05
3.91435e-05
2.77215e-06
0.000105601
0.000202168
0.000207241
0.000192359
0.000146371
2.92381e-05
-0.000142442
-0.000267662
-0.000349955
-0.000383847
-0.000494449
-0.000832162
-0.00168577
-0.00570794
-0.0335104
-0.245456
-0.737823
-0.823925
-0.80672
-0.779837
-0.737963
-0.654303
-0.53691
-0.420268
-0.34125
-0.282601
-0.233191
-0.177292
-0.139499
-0.108502
-0.0822779
-0.0638334
-0.0462785
-0.0345402
-0.0270965
-0.025194
-0.023062
-0.0203452
-0.0206427
-0.020991
-0.0196558
-0.0197787
-0.0178452
-0.0139875
-0.0133955
-0.0103189
-0.00473427
-0.00416506
-0.000183433
0.00706907
0.0142404
0.0158827
0.0251682
0.0399761
0.0449488
0.0588097
0.0829947
0.0930539
0.115651
0.15864
0.190235
0.228705
0.288799
0.337497
0.39345
0.460845
0.524222
0.577303
0.626403
0.683048
0.724278
0.762808
0.794559
0.819268
0.839568
0.854215
0.864127
0.869816
0.872097
0.870064
0.864894
0.857786
0.847326
0.832962
0.817645
0.799605
0.78635
0.771912
0.766369
0.755165
0.755605
-4.30998e-05
-3.0389e-05
-3.27381e-05
-2.98729e-05
-3.11785e-05
-3.26386e-05
-2.73295e-05
-2.89538e-05
-3.35173e-05
-1.38519e-05
-3.58596e-05
-3.15387e-05
6.62735e-06
-2.2241e-05
-4.5069e-05
-2.01821e-06
1.03194e-05
-2.48132e-05
9.79736e-06
5.03985e-05
4.21263e-06
-5.3674e-05
7.05185e-06
0.000120383
0.000155523
0.000106731
-3.19692e-05
-8.90547e-05
3.39478e-05
0.000197955
0.000251267
0.000205937
0.000114587
-3.98089e-05
-0.000191896
-0.000294983
-0.000398893
-0.000393355
-0.000357207
-0.000448219
-0.00120571
-0.00707125
-0.0545745
-0.402011
-0.813237
-0.827139
-0.812219
-0.796682
-0.770642
-0.730494
-0.659008
-0.533231
-0.408766
-0.315814
-0.245308
-0.189439
-0.149067
-0.11522
-0.0849731
-0.066496
-0.0464848
-0.0357418
-0.0274889
-0.0259589
-0.0235096
-0.0197603
-0.019764
-0.0180688
-0.0140296
-0.0143273
-0.0105316
-0.00340961
0.000113989
0.00435084
0.0147404
0.0223816
0.026063
0.0386852
0.0568598
0.0649323
0.0798641
0.108007
0.125678
0.151884
0.197542
0.22341
0.257459
0.310443
0.351972
0.391836
0.449027
0.498631
0.543113
0.586303
0.620306
0.666475
0.704256
0.74041
0.769642
0.797468
0.821304
0.83921
0.853836
0.864265
0.871168
0.874729
0.875385
0.873433
0.869314
0.863177
0.853889
0.841723
0.828271
0.812315
0.799597
0.785634
0.778762
0.768213
0.76835
-4.4523e-05
-3.19034e-05
-3.45905e-05
-3.22198e-05
-3.37118e-05
-3.4868e-05
-2.72915e-05
-3.72185e-05
-2.94593e-05
-1.76361e-05
-4.42705e-05
-1.1708e-05
-3.95174e-06
-4.98732e-05
-9.64096e-06
1.7342e-05
-4.35503e-05
-5.4416e-05
6.0003e-05
8.649e-05
-1.7125e-05
-0.00011094
-1.54437e-06
0.000159353
0.000194635
9.29708e-05
-3.84971e-05
-0.000100337
-1.2201e-05
0.000147973
0.00022751
0.00016399
4.67728e-05
-6.60463e-05
-0.000126364
-0.000171178
-0.000195896
-0.000171088
-0.000113352
-0.000158207
-0.00114277
-0.0104406
-0.092252
-0.560508
-0.830934
-0.824038
-0.816989
-0.806463
-0.792317
-0.774073
-0.7338
-0.655926
-0.530625
-0.385909
-0.287589
-0.216456
-0.163623
-0.12617
-0.093213
-0.0709508
-0.0467354
-0.0322188
-0.0243964
-0.0186865
-0.0159343
-0.010803
-0.010482
-0.00693912
0.000303734
0.00356376
0.00779301
0.019788
0.0322724
0.0380348
0.054855
0.0754889
0.0855879
0.105401
0.141654
0.166985
0.195222
0.237267
0.269127
0.301205
0.348836
0.384432
0.417156
0.461192
0.500419
0.533836
0.569502
0.600347
0.626416
0.661753
0.689875
0.720463
0.74718
0.77451
0.79812
0.818643
0.837271
0.851486
0.86242
0.870087
0.87474
0.877009
0.877442
0.876127
0.873195
0.867874
0.859863
0.8494
0.837461
0.82369
0.811772
0.798056
0.790386
0.780313
0.780286
-4.59816e-05
-3.35302e-05
-3.61973e-05
-3.37792e-05
-3.5941e-05
-3.46655e-05
-3.13168e-05
-4.11968e-05
-2.57325e-05
-3.06753e-05
-4.46694e-05
8.88507e-08
-3.11616e-05
-6.28524e-05
2.58641e-05
1.25047e-05
-8.85514e-05
-4.66013e-05
9.04521e-05
8.54699e-05
-2.99861e-05
-0.000105999
-6.85513e-06
0.000142412
0.000157758
7.32065e-05
-7.26685e-06
-3.21519e-05
8.28131e-06
6.89985e-05
0.00011357
9.59075e-05
3.10254e-05
-3.03427e-05
-7.46428e-05
-0.000108328
-0.000206073
-0.000235018
-0.00035466
-0.000588397
-0.00273163
-0.0191948
-0.150514
-0.675913
-0.835374
-0.831881
-0.826382
-0.819103
-0.809778
-0.797771
-0.772017
-0.731977
-0.651445
-0.503551
-0.357126
-0.252423
-0.184282
-0.127679
-0.0926633
-0.0650743
-0.0426544
-0.0275652
-0.0179896
-0.00748848
-0.00280772
0.00477694
0.0120191
0.0159548
0.0289119
0.0442554
0.0514652
0.0704087
0.0978719
0.113917
0.140844
0.182471
0.206581
0.235812
0.278901
0.313934
0.345514
0.383987
0.418054
0.449253
0.486079
0.518219
0.540841
0.565713
0.59102
0.614048
0.642446
0.666422
0.682762
0.706833
0.72854
0.753122
0.775072
0.795797
0.815309
0.832011
0.846765
0.858114
0.866794
0.873082
0.876985
0.878805
0.879233
0.878528
0.876205
0.871763
0.865001
0.856104
0.845778
0.834076
0.822725
0.809242
0.800579
0.791009
0.790563
-4.7664e-05
-3.5318e-05
-3.84098e-05
-3.59877e-05
-3.77106e-05
-3.66451e-05
-3.50454e-05
-4.27391e-05
-2.33484e-05
-4.46215e-05
-3.67161e-05
4.15908e-09
-5.94097e-05
-4.616e-05
3.27486e-05
-1.10023e-05
-0.000101641
-2.75362e-05
8.33095e-05
5.36959e-05
-2.6251e-05
-4.90201e-05
1.313e-05
6.7259e-05
7.21321e-05
7.85964e-05
6.80399e-05
7.13809e-05
2.51421e-05
-3.35004e-05
-3.93886e-05
3.55995e-05
6.4589e-05
3.97521e-05
-1.20903e-05
-8.16817e-05
-0.000182961
-0.000308825
-0.000533605
-0.00114694
-0.00455362
-0.0318209
-0.255606
-0.749329
-0.837905
-0.834852
-0.830601
-0.823987
-0.815598
-0.80531
-0.791385
-0.767983
-0.721651
-0.625677
-0.46613
-0.312041
-0.20929
-0.134173
-0.0948054
-0.059041
-0.0340992
-0.0116884
0.00308955
0.0196098
0.0300119
0.0425295
0.0619353
0.0701129
0.0897354
0.123282
0.144555
0.174064
0.21765
0.244737
0.273772
0.316564
0.348985
0.381108
0.417748
0.448463
0.477633
0.505831
0.529571
0.550074
0.572574
0.597345
0.611091
0.63247
0.652194
0.667984
0.686232
0.705192
0.717182
0.735819
0.753992
0.773744
0.79265
0.809743
0.825921
0.839931
0.852273
0.862246
0.869595
0.874776
0.878047
0.879904
0.88027
0.879925
0.8781
0.874661
0.869203
0.862012
0.853173
0.843293
0.832697
0.819623
0.809984
0.801108
0.80017
-4.92935e-05
-3.68615e-05
-3.98057e-05
-3.76113e-05
-4.01576e-05
-3.93901e-05
-3.81228e-05
-4.44721e-05
-2.80487e-05
-5.12712e-05
-2.19772e-05
-1.62261e-05
-7.00284e-05
-1.79003e-05
2.25152e-05
-4.10646e-05
-7.66119e-05
5.28876e-06
3.66321e-05
7.16261e-06
1.14824e-05
3.58855e-05
1.05382e-05
-3.7176e-05
1.55109e-05
0.000116858
0.000143336
0.000123452
3.05719e-05
-0.000107643
-0.000118347
-1.19547e-05
9.03884e-05
0.00014075
7.58072e-05
-2.85928e-05
-0.000153928
-0.00028371
-0.000481492
-0.00135884
-0.00655708
-0.0478356
-0.37132
-0.800155
-0.834095
-0.831301
-0.829337
-0.825996
-0.821484
-0.815211
-0.806411
-0.790175
-0.761195
-0.700887
-0.582346
-0.404346
-0.242908
-0.148836
-0.0789411
-0.0310845
-0.00343409
0.0263235
0.0509609
0.0772712
0.0943752
0.115907
0.154145
0.177813
0.205934
0.24674
0.275532
0.308363
0.346879
0.380754
0.408198
0.439444
0.468348
0.492637
0.515817
0.537247
0.556985
0.577576
0.593459
0.614029
0.630204
0.648212
0.66068
0.672173
0.68746
0.701217
0.715559
0.730956
0.740753
0.755486
0.770885
0.78745
0.803959
0.81897
0.83321
0.845571
0.856003
0.864338
0.87063
0.875226
0.87821
0.880054
0.880745
0.880618
0.879708
0.87755
0.873538
0.867761
0.860184
0.851596
0.841387
0.828816
0.818354
0.810234
0.8083
-5.11591e-05
-3.8878e-05
-4.18885e-05
-4.02575e-05
-4.26904e-05
-3.84825e-05
-4.45498e-05
-3.80757e-05
-4.1659e-05
-4.59233e-05
-1.69093e-05
-5.06453e-05
-5.22503e-05
7.39671e-07
-2.22183e-05
-5.82209e-05
-1.06792e-05
3.75779e-06
-4.29206e-05
-1.73376e-05
6.50425e-05
8.56543e-05
-4.70489e-06
-9.77966e-05
-3.03621e-05
0.000139392
0.000205933
0.000136397
2.96226e-05
-7.20509e-05
-0.000114113
-4.96636e-05
9.03755e-05
0.000174995
0.000157979
8.30739e-05
3.05083e-05
-2.59259e-05
-7.11139e-05
-0.000963479
-0.00791727
-0.0656178
-0.479715
-0.831094
-0.839794
-0.838275
-0.837216
-0.83555
-0.831303
-0.82536
-0.818322
-0.807041
-0.785181
-0.74357
-0.658403
-0.484845
-0.283414
-0.144646
-0.0454639
0.014272
0.0670684
0.105476
0.14062
0.179897
0.210623
0.23219
0.27149
0.304731
0.336924
0.372592
0.400544
0.427412
0.455408
0.479022
0.499726
0.520137
0.539605
0.558981
0.574583
0.594228
0.608773
0.624283
0.63745
0.652178
0.664469
0.678744
0.691415
0.700747
0.712925
0.724798
0.735554
0.748531
0.757223
0.769772
0.783224
0.797755
0.812542
0.825797
0.838081
0.848654
0.857514
0.864846
0.870748
0.875256
0.87838
0.88036
0.881395
0.881533
0.880971
0.879462
0.87638
0.871954
0.865731
0.858607
0.849179
0.837476
0.826312
0.818859
0.816178
-5.28707e-05
-4.03903e-05
-4.41298e-05
-4.23273e-05
-4.51387e-05
-4.0701e-05
-4.94368e-05
-3.6881e-05
-5.52192e-05
-3.72369e-05
-2.43308e-05
-7.2829e-05
-2.22134e-05
-1.97723e-06
-7.39472e-05
-3.79179e-05
3.19312e-05
-2.85875e-05
-0.00010038
-3.74067e-06
0.000100008
8.49596e-05
-1.24326e-05
-0.000109194
-3.43809e-05
0.000115751
0.000170723
0.000124831
7.45705e-05
1.21365e-05
-2.83098e-05
-1.9098e-07
6.35773e-05
0.000119398
0.000217463
0.000245945
0.000306484
0.000405139
0.000500226
-0.000413324
-0.0104672
-0.0990461
-0.587727
-0.829545
-0.839375
-0.840753
-0.841338
-0.84068
-0.837494
-0.834206
-0.8285
-0.817076
-0.796534
-0.753505
-0.679644
-0.504934
-0.282043
-0.0923607
0.0280484
0.108124
0.170926
0.219048
0.256951
0.29557
0.330755
0.357838
0.387698
0.415743
0.440262
0.46394
0.484936
0.504164
0.522282
0.539795
0.554167
0.572266
0.587106
0.601999
0.614353
0.628111
0.639656
0.652916
0.665223
0.678404
0.689336
0.700041
0.711195
0.719633
0.730512
0.741823
0.751149
0.762399
0.770173
0.780644
0.791962
0.804537
0.817565
0.829298
0.840112
0.849798
0.858159
0.865043
0.870521
0.874745
0.877867
0.879952
0.881332
0.882045
0.882073
0.881717
0.880143
0.877116
0.87199
0.86559
0.856331
0.844971
0.833294
0.826502
0.822936
-5.4895e-05
-4.24686e-05
-4.59121e-05
-4.51332e-05
-4.47648e-05
-4.84511e-05
-4.76391e-05
-4.0791e-05
-5.69537e-05
-2.57048e-05
-4.89921e-05
-7.0531e-05
-2.91223e-06
-3.1102e-05
-0.000100603
-1.05215e-05
3.83139e-05
-6.29021e-05
-0.000113805
1.69863e-05
9.4221e-05
4.9175e-05
-1.16382e-05
-3.55224e-05
-7.01007e-06
3.0283e-05
6.82477e-05
0.000116057
0.00013833
0.000119967
8.92783e-05
3.5582e-05
1.50982e-05
5.62779e-05
0.000147798
0.000253718
0.000392777
0.000424353
0.000259959
-0.00171475
-0.0180719
-0.150309
-0.674521
-0.836142
-0.839822
-0.839974
-0.839858
-0.839513
-0.838034
-0.835691
-0.830173
-0.814388
-0.787102
-0.722331
-0.62288
-0.417389
-0.169088
0.0172881
0.138654
0.223728
0.286611
0.333047