/*--------------------------------*- C++ -*----------------------------------*\
| =========                 |                                                 |
| \\      /  F ield         | OpenFOAM: The Open Source CFD Toolbox           |
|  \\    /   O peration     | Version:  2.2.x                                 |
|   \\  /    A nd           | Web:      www.OpenFOAM.org                      |
|    \\/     M anipulation  |                                                 |
\*---------------------------------------------------------------------------*/
FoamFile
{
    version     2.0;
    format      ascii;
    class       volScalarField;
    location    "2.95";
    object      rho;
}
// * * * * * * * * * * * * * * * * * * * * * * * * * * * * * * * * * * * * * //

dimensions      [1 -3 0 0 0 0 0];

internalField   nonuniform List<scalar> 
14161
(
0.99779
0.997848
0.997801
0.99775
0.997672
0.997567
0.997449
0.997323
0.997161
0.997003
0.996829
0.99663
0.996447
0.996206
0.99599
0.995841
0.995607
0.99522
0.995019
0.994987
0.994901
0.994414
0.994039
0.993984
0.99406
0.994136
0.993919
0.993286
0.993121
0.993119
0.993171
0.993365
0.993904
0.994195
0.994468
0.994773
0.995199
0.995754
0.996618
0.997244
0.997525
0.997412
0.998806
0.998125
1.6177
2.63987
2.75809
2.7569
2.72741
2.70485
2.66447
2.62995
2.59291
2.55802
2.52074
2.48718
2.45348
2.42012
2.39156
2.36272
2.3361
2.31207
2.28998
2.2712
2.25573
2.24281
2.23164
2.22121
2.21276
2.20656
2.20098
2.19816
2.19427
2.18032
2.17791
2.17446
2.15787
2.15616
2.15432
2.14078
2.13922
2.13666
2.12225
2.11829
2.11509
2.11416
2.11531
2.0977
2.09549
2.0957
2.10044
2.08549
2.08533
2.08503
2.07113
2.0687
2.06737
2.05212
2.04511
2.03293
2.02088
2.00978
2.00119
1.97826
1.9711
1.96392
1.96584
1.97837
1.99252
2.10671
2.30342
2.58134
2.81789
2.97999
3.06236
3.08661
3.0926
3.08432
3.0933
0.99779
0.997847
0.997801
0.99775
0.997671
0.997567
0.997449
0.997322
0.997162
0.997003
0.996829
0.996631
0.996446
0.996206
0.995996
0.995837
0.995604
0.995214
0.99504
0.994991
0.994876
0.994411
0.994054
0.994001
0.994074
0.994118
0.993898
0.993275
0.993133
0.993125
0.993167
0.993372
0.993887
0.994169
0.994426
0.994745
0.995125
0.995736
0.9965
0.99731
0.997596
0.997541
0.998907
0.997514
1.62244
2.63407
2.75507
2.75286
2.72122
2.69864
2.65927
2.62432
2.58612
2.55056
2.51272
2.47689
2.44183
2.40715
2.37763
2.34949
2.32275
2.29908
2.27761
2.25941
2.24437
2.23201
2.22187
2.21249
2.20498
2.1993
2.19453
2.19225
2.18894
2.17493
2.17405
2.17137
2.15506
2.15355
2.15168
2.13877
2.13745
2.13508
2.1211
2.11784
2.11503
2.11393
2.11482
2.09687
2.09541
2.09572
2.10009
2.08549
2.0852
2.08477
2.07121
2.06872
2.06731
2.0523
2.04522
2.03253
2.02079
2.00959
2.00203
1.98077
1.97565
1.97146
1.97947
2.0063
2.05035
2.21414
2.43946
2.67626
2.84921
2.97207
3.05126
3.07653
3.08459
3.07422
3.09215
0.99779
0.997846
0.9978
0.99775
0.99767
0.997568
0.997449
0.997321
0.997165
0.997003
0.996828
0.996632
0.996446
0.996208
0.996001
0.995832
0.995601
0.995228
0.995064
0.994968
0.994823
0.99442
0.994102
0.994038
0.994072
0.99406
0.993823
0.993294
0.993159
0.993141
0.993171
0.993374
0.99382
0.994069
0.9943
0.994585
0.994903
0.995497
0.996276
0.99697
0.997542
0.997529
0.99877
0.99687
1.62525
2.62326
2.75326
2.74412
2.70983
2.68561
2.64474
2.60835
2.56907
2.53245
2.49382
2.45698
2.42249
2.38758
2.35843
2.33119
2.30414
2.28217
2.26242
2.24467
2.22981
2.21802
2.20934
2.20146
2.19487
2.18996
2.18575
2.18364
2.18105
2.16789
2.1679
2.16639
2.15176
2.15098
2.14931
2.13834
2.1364
2.13409
2.12202
2.11873
2.11596
2.11494
2.1157
2.09798
2.0972
2.09723
2.10037
2.08822
2.08667
2.08546
2.07417
2.07035
2.06835
2.05497
2.04694
2.03377
2.02324
2.01283
2.00701
1.98836
1.98986
1.99195
2.01906
2.08008
2.18585
2.39946
2.59407
2.72372
2.83337
2.93241
3.01458
3.04973
3.06504
3.05242
3.08117
0.997791
0.997846
0.997801
0.99775
0.997669
0.997569
0.99745
0.997319
0.997168
0.997004
0.996826
0.996634
0.996446
0.996212
0.996007
0.995829
0.99559
0.995259
0.995083
0.994929
0.99476
0.994433
0.994187
0.9941
0.994026
0.99393
0.993708
0.993356
0.993229
0.993178
0.993174
0.993322
0.993663
0.993852
0.994057
0.994268
0.99456
0.995126
0.995851
0.996679
0.996852
0.997556
0.998582
0.997189
1.6265
2.60757
2.74844
2.73
2.69386
2.66422
2.61813
2.58067
2.53939
2.50004
2.463
2.42657
2.39629
2.36391
2.335
2.31114
2.28509
2.26463
2.24762
2.2305
2.2162
2.20447
2.1966
2.19047
2.18504
2.1812
2.17804
2.17651
2.17421
2.16246
2.16185
2.16079
2.14824
2.14773
2.14619
2.13644
2.13412
2.1319
2.12153
2.11828
2.11543
2.11435
2.11495
2.09823
2.09815
2.09782
2.09937
2.09028
2.08731
2.08532
2.07731
2.07169
2.06863
2.05763
2.04851
2.03589
2.02702
2.01951
2.01829
2.0027
2.02117
2.04143
2.11346
2.24701
2.43117
2.62399
2.72678
2.78015
2.837
2.90867
2.98108
3.01982
3.04059
3.02574
3.06222
0.997793
0.997847
0.997802
0.99775
0.997668
0.99757
0.997451
0.997317
0.997171
0.997006
0.996823
0.996638
0.996446
0.996217
0.996017
0.995822
0.995578
0.995297
0.995098
0.994881
0.994689
0.994469
0.994299
0.994164
0.993928
0.993743
0.993586
0.993437
0.993356
0.993263
0.993168
0.9932
0.993373
0.993514
0.99367
0.993831
0.994101
0.994596
0.995254
0.99581
0.996428
0.9969
0.998215
0.99836
1.60938
2.58343
2.73281
2.70771
2.67042
2.63188
2.58048
2.54264
2.50286
2.46339
2.43276
2.39873
2.37194
2.34492
2.31523
2.29621
2.27219
2.2528
2.23821
2.22191
2.20886
2.19766
2.18989
2.18478
2.18001
2.1767
2.17456
2.17333
2.1715
2.16194
2.16119
2.16019
2.14968
2.14891
2.14724
2.13826
2.1351
2.1328
2.12452
2.12048
2.11812
2.11649
2.11665
2.10213
2.10176
2.10089
2.10081
2.09481
2.09044
2.08782
2.08246
2.0757
2.0725
2.06365
2.05321
2.04432
2.03762
2.03513
2.0416
2.03625
2.08813
2.15043
2.29813
2.49207
2.64964
2.73611
2.77242
2.79887
2.83646
2.88865
2.95024
2.98756
3.01146
2.99738
3.03715
0.997796
0.997848
0.997803
0.997751
0.997669
0.997571
0.997452
0.997315
0.997173
0.997007
0.996822
0.996642
0.996445
0.996223
0.996026
0.995807
0.995569
0.995334
0.995114
0.994818
0.994614
0.994503
0.994413
0.994239
0.993813
0.99356
0.993488
0.993468
0.99347
0.993386
0.993141
0.992952
0.992986
0.993073
0.993208
0.993342
0.993538
0.993888
0.994389
0.994919
0.995233
0.99609
0.996725
0.998567
1.5551
2.55642
2.71021
2.67451
2.63674
2.58959
2.54261
2.50804
2.47462
2.43607
2.41416
2.38532
2.35813
2.33483
2.30386
2.28715
2.26435
2.24632
2.23215
2.21558
2.20316
2.19296
2.18535
2.18082
2.17669
2.17367
2.17206
2.17135
2.16966
2.16278
2.16083
2.1594
2.15155
2.14917
2.14697
2.13997
2.13516
2.13258
2.12726
2.12266
2.12084
2.11893
2.11811
2.10715
2.1057
2.10426
2.10225
2.09947
2.09451
2.09213
2.08884
2.0822
2.08014
2.0733
2.06232
2.06237
2.05892
2.0637
2.09053
2.11121
2.21881
2.35955
2.5474
2.69684
2.75591
2.7724
2.78409
2.80213
2.83389
2.8747
2.92532
2.95581
2.98247
2.97232
3.01063
0.997801
0.99785
0.997804
0.997752
0.99767
0.997573
0.997453
0.997315
0.997175
0.997009
0.996821
0.996644
0.996443
0.996231
0.996035
0.995786
0.995563
0.995366
0.995139
0.99476
0.994551
0.994504
0.994501
0.994336
0.993739
0.993432
0.993386
0.99343
0.99352
0.993485
0.993146
0.992641
0.992549
0.992577
0.992679
0.992796
0.992894
0.993043
0.993334
0.993609
0.993696
0.99384
0.993861
0.996821
1.45182
2.51367
2.69417
2.63372
2.59533
2.55059
2.51144
2.4901
2.46201
2.41977
2.40419
2.37908
2.34944
2.32764
2.2968
2.28101
2.25624
2.241
2.22742
2.21053
2.1981
2.189
2.18169
2.17768
2.17441
2.17169
2.17029
2.16972
2.16745
2.16366
2.16083
2.15967
2.15392
2.15058
2.1482
2.14284
2.13727
2.13476
2.1314
2.12684
2.12565
2.12393
2.12272
2.11536
2.11325
2.11132
2.10867
2.1082
2.10367
2.10199
2.10062
2.09381
2.09643
2.09299
2.0788
2.09582
2.10463
2.12033
2.18533
2.26528
2.44749
2.60887
2.72943
2.7789
2.78548
2.77829
2.78282
2.79908
2.8275
2.86433
2.90642
2.92903
2.95582
2.9485
2.98337
0.997806
0.997854
0.997807
0.997755
0.997672
0.997575
0.997456
0.997316
0.997176
0.997012
0.996823
0.996645
0.996439
0.99624
0.996045
0.995763
0.995559
0.995398
0.995166
0.994723
0.994505
0.994483
0.994543
0.994405
0.993712
0.993359
0.993311
0.99336
0.993509
0.993502
0.99317
0.992429
0.992159
0.992085
0.992115
0.992194
0.99219
0.992145
0.992148
0.992216
0.991871
0.990691
0.989874
0.993846
1.2476
2.40718
2.69502
2.59599
2.56709
2.52415
2.49036
2.4723
2.44888
2.39859
2.39131
2.36705
2.33694
2.31788
2.28703
2.27308
2.24172
2.23243
2.21634
2.20179
2.18899
2.18067
2.17385
2.17043
2.16752
2.16539
2.16401
2.16356
2.16134
2.15975
2.15735
2.15621
2.152
2.14847
2.14634
2.14204
2.13693
2.13472
2.13245
2.1285
2.12805
2.12742
2.12679
2.12227
2.1207
2.11874
2.11747
2.11954
2.1151
2.11637
2.11762
2.10933
2.12159
2.12657
2.11382
2.15364
2.1814
2.23139
2.3636
2.51014
2.68437
2.76489
2.79516
2.78953
2.77978
2.77583
2.78238
2.79561
2.82018
2.85445
2.8901
2.90751
2.9335
2.92912
2.95928
0.997812
0.997859
0.997811
0.997758
0.997676
0.997578
0.99746
0.997317
0.997179
0.997015
0.996829
0.996645
0.996435
0.996255
0.996054
0.995747
0.995554
0.995426
0.995184
0.994705
0.994489
0.994471
0.994552
0.994415
0.993698
0.993327
0.993258
0.993293
0.99346
0.993452
0.993158
0.992334
0.991939
0.991697
0.991562
0.991536
0.991448
0.991206
0.990959
0.990887
0.990055
0.987911
0.9871
0.991129
1.04299
2.13874
2.79294
2.62842
2.55763
2.50275
2.46098
2.4358
2.41805
2.36599
2.36493
2.33628
2.31126
2.29378
2.26418
2.25728
2.21984
2.21782
2.19704
2.18626
2.17578
2.16772
2.16213
2.15807
2.15485
2.15342
2.15227
2.15225
2.15098
2.15028
2.14848
2.14771
2.1453
2.14159
2.1408
2.13826
2.13435
2.13362
2.13261
2.12933
2.12985
2.13015
2.12956
2.1276
2.12834
2.12561
2.12832
2.13325
2.12788
2.13598
2.14365
2.13711
2.16155
2.17593
2.17476
2.25817
2.32842
2.44084
2.60992
2.7282
2.80223
2.8156
2.80251
2.78413
2.77366
2.77367
2.77953
2.79074
2.81308
2.84439
2.87484
2.89015
2.91445
2.9118
2.93728
0.997819
0.997864
0.997817
0.997763
0.99768
0.997583
0.997464
0.997321
0.997183
0.997018
0.996838
0.996647
0.996433
0.996271
0.996062
0.995739
0.995555
0.99544
0.995187
0.994707
0.994496
0.994477
0.994532
0.994381
0.993712
0.993334
0.993229
0.993235
0.993314
0.993269
0.992978
0.992346
0.991942
0.991569
0.991132
0.990854
0.990602
0.990268
0.989907
0.98978
0.988845
0.986795
0.986343
0.990181
1.0221
1.77254
2.87487
2.68561
2.58263
2.50704
2.44565
2.39984
2.37877
2.3341
2.33541
2.30492
2.28311
2.26731
2.23631
2.23802
2.19552
2.1948
2.17563
2.16548
2.15907
2.15015
2.14624
2.14072
2.1382
2.13799
2.1375
2.13817
2.13806
2.13781
2.13656
2.1365
2.13582
2.13241
2.13332
2.13312
2.13006
2.13154
2.13182
2.12915
2.13128
2.13362
2.13167
2.13413
2.13845
2.13563
2.14401
2.15352
2.15003
2.16526
2.18137
2.18182
2.23052
2.26599
2.30526
2.4491
2.55669
2.68399
2.79189
2.83084
2.82744
2.81097
2.79092
2.77715
2.7724
2.77141
2.7759
2.78475
2.8053
2.83287
2.85958
2.87528
2.89867
2.89787
2.91915
0.997826
0.997871
0.997823
0.997769
0.997686
0.997589
0.997469
0.997328
0.997189
0.997022
0.99685
0.996649
0.996438
0.996287
0.996068
0.995744
0.995573
0.995438
0.995171
0.994727
0.99454
0.994497
0.994464
0.994272
0.993738
0.993405
0.993241
0.99313
0.993057
0.992907
0.992652
0.99231
0.992048
0.991693
0.990983
0.990341
0.98987
0.989409
0.989021
0.98882
0.987984
0.986306
0.986272
0.990219
1.03683
1.60093
2.65072
2.61351
2.56123
2.49096
2.43182
2.37346
2.34808
2.30762
2.30732
2.27941
2.26009
2.24934
2.21388
2.22258
2.17785
2.17323
2.16006
2.14846
2.1451
2.13572
2.13257
2.12614
2.125
2.12613
2.12637
2.12753
2.1287
2.12885
2.12819
2.12928
2.13033
2.12709
2.12921
2.13181
2.12844
2.13193
2.13438
2.13074
2.13607
2.14177
2.13663
2.14639
2.1547
2.15247
2.16776
2.18427
2.18856
2.21931
2.25205
2.27796
2.35655
2.43858
2.53587
2.68946
2.7681
2.82651
2.85899
2.84411
2.82098
2.79738
2.7809
2.77084
2.76929
2.76902
2.7715
2.78047
2.79823
2.8209
2.84479
2.86149
2.88467
2.88621
2.90421
0.997835
0.997878
0.99783
0.997776
0.997694
0.997597
0.997475
0.99734
0.997195
0.997028
0.996862
0.996651
0.996451
0.996298
0.996069
0.995767
0.995597
0.995422
0.995149
0.994795
0.994615
0.994471
0.994328
0.994131
0.99382
0.99358
0.993295
0.992917
0.992698
0.992504
0.992365
0.992273
0.992193
0.991901
0.991109
0.990048
0.989435
0.988957
0.988605
0.988283
0.987653
0.986798
0.987457
0.995868
1.0797
1.63395
2.30443
2.35421
2.43219
2.47454
2.42803
2.36706
2.34303
2.29902
2.29356
2.26996
2.24647
2.23977
2.2007
2.20664
2.16812
2.15877
2.14763
2.1349
2.13338
2.1257
2.12333
2.11704
2.11691
2.11846
2.11906
2.12096
2.12344
2.12326
2.12409
2.12586
2.12801
2.1242
2.12818
2.13307
2.12919
2.13601
2.14181
2.13711
2.14738
2.15747
2.15233
2.17309
2.18719
2.19052
2.221
2.24983
2.27272
2.32275
2.39014
2.45967
2.57057
2.67592
2.77059
2.84523
2.87118
2.86237
2.8517
2.83147
2.81028
2.7884
2.77312
2.76728
2.76563
2.76532
2.76811
2.7765
2.79111
2.80919
2.83044
2.84893
2.87237
2.87639
2.89207
0.997845
0.997887
0.997838
0.997785
0.997703
0.997604
0.997483
0.997353
0.997201
0.997037
0.996873
0.996658
0.996474
0.996303
0.996068
0.995811
0.99562
0.995386
0.995129
0.994895
0.994703
0.994406
0.994159
0.994009
0.993904
0.993779
0.993399
0.992702
0.992391
0.992242
0.992187
0.992195
0.992226
0.992014
0.991333
0.990016
0.989314
0.988848
0.988513
0.988148
0.987817
0.987879
0.990733
1.0095
1.30504
1.8018
1.9907
2.10106
2.26994
2.45064
2.44128
2.37784
2.36657
2.2958
2.29348
2.26962
2.2417
2.23589
2.20069
2.19312
2.16608
2.15256
2.14104
2.12932
2.12795
2.12174
2.11993
2.11427
2.11457
2.11611
2.11635
2.11858
2.12253
2.12195
2.12415
2.12707
2.13063
2.12596
2.13412
2.14211
2.13807
2.15151
2.16115
2.15641
2.17947
2.19437
2.19323
2.23217
2.25489
2.27265
2.32224
2.37684
2.43165
2.51095
2.6136
2.69797
2.79062
2.84628
2.88073
2.89456
2.87537
2.8532
2.83633
2.8173
2.79723
2.77992
2.7689
2.76404
2.76203
2.7615
2.76521
2.77235
2.78412
2.79861
2.81753
2.83699
2.86078
2.86707
2.88132
0.997855
0.997897
0.997848
0.997795
0.997714
0.997611
0.997493
0.997368
0.997208
0.997052
0.996883
0.996671
0.996502
0.996305
0.996072
0.995867
0.995643
0.995336
0.995127
0.994983
0.994797
0.994353
0.994035
0.993927
0.993933
0.993884
0.993469
0.992592
0.992241
0.992096
0.992064
0.992129
0.992175
0.991946
0.991297
0.990209
0.989591
0.98911
0.988646
0.988292
0.988053
0.988431
0.992732
1.03473
1.60438
1.92666
1.94708
1.98642
2.11174
2.31557
2.40187
2.39612
2.39505
2.30529
2.30846
2.28218
2.24058
2.23427
2.21747
2.18399
2.17086
2.1523
2.13948
2.1306
2.12896
2.12235
2.12159
2.11747
2.11763
2.12009
2.11985
2.12148
2.12823
2.12793
2.13081
2.13748
2.14375
2.13857
2.15677
2.16829
2.16627
2.19171
2.20515
2.20802
2.24987
2.27128
2.28679
2.34873
2.39247
2.43807
2.51015
2.59407
2.6619
2.74053
2.81618
2.85681
2.89348
2.9027
2.88415
2.87814
2.86166
2.84353
2.82487
2.805
2.78819
2.77515
2.76671
2.76149
2.7588
2.75941
2.76252
2.76785
2.77734
2.7891
2.80556
2.82523
2.84973
2.85858
2.87209
0.997866
0.997907
0.997859
0.997806
0.997725
0.99762
0.997508
0.997381
0.997217
0.997071
0.996894
0.996691
0.996525
0.9963
0.996086
0.995929
0.995664
0.995296
0.995129
0.99505
0.994862
0.99432
0.993986
0.99389
0.993935
0.993883
0.993472
0.992622
0.992236
0.992034
0.991971
0.992005
0.991965
0.991662
0.991099
0.990586
0.99022
0.989809
0.989249
0.988942
0.988905
0.989692
0.997802
1.13061
1.80863
1.97056
1.96382
1.96653
2.01351
2.11644
2.30895
2.41194
2.41021
2.33952
2.35266
2.30124
2.25357
2.24414
2.23312
2.18303
2.17714
2.16341
2.14002
2.13592
2.13537
2.12605
2.12954
2.12756
2.1274
2.13423
2.1345
2.13446
2.1492
2.15111
2.15288
2.17136
2.1804
2.17982
2.21352
2.22834
2.23791
2.27688
2.30097
2.3249
2.38857
2.42855
2.47245
2.55265
2.61329
2.66624
2.72991
2.79282
2.83776
2.87806
2.9012
2.90446
2.8918
2.88417
2.86896
2.85837
2.84661
2.83094
2.81325
2.7963
2.78321
2.77296
2.76511
2.75962
2.75729
2.75808
2.75986
2.76352
2.7709
2.78021
2.79466
2.81385
2.83871
2.85012
2.86338
0.997878
0.997919
0.997871
0.997817
0.997737
0.997633
0.997524
0.997395
0.997232
0.997089
0.996903
0.996718
0.996543
0.996295
0.996114
0.995982
0.99567
0.995282
0.995138
0.99507
0.994866
0.994341
0.994029
0.9939
0.993859
0.993755
0.993406
0.992778
0.992385
0.992029
0.991814
0.991698
0.991574
0.991302
0.99103
0.990888
0.990826
0.990645
0.990262
0.989637
0.989538
0.990834
1.00597
1.33551
1.9482
1.98994
1.97884
1.97605
1.98687
2.02611
2.15254
2.31693
2.39898
2.37712
2.38628
2.31368
2.27956
2.26031
2.23751
2.20172
2.18446
2.1829
2.14583
2.15123
2.15268
2.13984
2.15222
2.15314
2.15088
2.16759
2.16993
2.17009
2.19935
2.2042
2.20875
2.24674
2.25926
2.27185
2.32253
2.35284
2.38318
2.4337
2.48495
2.53659
2.60666
2.65365
2.69844
2.75582
2.80167
2.833
2.86399
2.88155
2.89217
2.9011
2.89099
2.88726
2.87627
2.8652
2.85425
2.84459
2.83285
2.8187
2.80438
2.79122
2.7806
2.77151
2.76361
2.75807
2.75632
2.75644
2.75699
2.75946
2.76468
2.77205
2.78484
2.8032
2.82812
2.84183
2.85492
0.997891
0.997932
0.997884
0.997831
0.997751
0.997649
0.99754
0.997409
0.997254
0.997105
0.996916
0.996752
0.996557
0.996302
0.996159
0.996011
0.995675
0.995317
0.995163
0.995035
0.99482
0.994431
0.994148
0.993881
0.993688
0.993524
0.993315
0.993049
0.992737
0.992126
0.991618
0.991371
0.991204
0.991113
0.991066
0.991082
0.991189
0.991161
0.990908
0.990049
0.989753
0.991402
1.0154
1.54561
2.0465
2.0241
2.00313
1.99302
1.98563
2.00193
2.05087
2.16602
2.33285
2.39212
2.41615
2.35545
2.31908
2.29096
2.24268
2.23358
2.1972
2.21052
2.16446
2.18188
2.18707
2.17323
2.19973
2.2031
2.20137
2.23553
2.24055
2.24774
2.29682
2.30827
2.32665
2.3869
2.41512
2.44839
2.51344
2.56217
2.60513
2.65363
2.70218
2.74454
2.79217
2.82563
2.84184
2.8591
2.87251
2.87982
2.88503
2.88188
2.87562
2.88032
2.8735
2.8683
2.86093
2.8524
2.84217
2.83213
2.82149
2.80991
2.79875
2.78814
2.77873
2.77018
2.76245
2.75725
2.75523
2.75442
2.75453
2.75594
2.75906
2.76461
2.77594
2.7936
2.81849
2.83355
2.84626
0.997905
0.997945
0.997898
0.997846
0.997767
0.997667
0.997556
0.997425
0.997282
0.997121
0.996938
0.99678
0.996569
0.996337
0.996202
0.996016
0.995686
0.995396
0.995174
0.994962
0.994777
0.994576
0.994346
0.993867
0.993486
0.993302
0.993247
0.993214
0.99304
0.992302
0.991506
0.991232
0.991096
0.991063
0.991078
0.991131
0.99126
0.99128
0.991074
0.990045
0.989716
0.992675
1.03474
1.76947
2.06349
2.06548
2.04887
2.02932
2.00789
2.01323
2.02073
2.06776
2.19004
2.31993
2.42452
2.39273
2.3421
2.32227
2.2683
2.27216
2.22574
2.24396
2.2076
2.23617
2.24313
2.23954
2.28325
2.29051
2.30055
2.35622
2.37362
2.39851
2.46084
2.49253
2.53162
2.59414
2.63107
2.66696
2.71398
2.75489
2.78888
2.81871
2.83848
2.84569
2.85724
2.86597
2.86903
2.87084
2.86823
2.8655
2.86765
2.86659
2.85931
2.86179
2.8583
2.85482
2.84796
2.84044
2.83213
2.82316
2.81376
2.80418
2.7951
2.78632
2.77785
2.76981
2.76236
2.75697
2.75391
2.75242
2.75208
2.7525
2.75375
2.7577
2.76777
2.78476
2.80924
2.82509
2.83707
0.99792
0.99796
0.997914
0.997862
0.997785
0.997687
0.997572
0.997444
0.997308
0.997138
0.996972
0.996803
0.996577
0.996394
0.996233
0.996004
0.99573
0.995503
0.995175
0.994878
0.994747
0.994697
0.994526
0.993874
0.99337
0.993201
0.993187
0.993242
0.993096
0.992477
0.991607
0.991297
0.991143
0.991101
0.991118
0.991179
0.991287
0.991313
0.991302
0.990838
0.991072
0.997758
1.16574
1.91719
2.09037
2.08848
2.07878
2.06305
2.04006
2.02785
2.02226
2.03991
2.09131
2.20691
2.34144
2.39228
2.39253
2.34594
2.33016
2.31692
2.27631
2.29861
2.28857
2.32585
2.33946
2.35813
2.41698
2.44125
2.47293
2.54049
2.57637
2.61304
2.66163
2.69601
2.73067
2.7712
2.80113
2.81934
2.83452
2.84481
2.8518
2.85724
2.86207
2.86027
2.85741
2.85782
2.85389
2.85612
2.85524
2.85174
2.85001
2.85147
2.84818
2.84897
2.84533
2.8413
2.83642
2.83066
2.82409
2.81651
2.80879
2.80133
2.79393
2.78629
2.77783
2.76959
2.76228
2.75644
2.75255
2.75041
2.74933
2.74879
2.74854
2.75142
2.76041
2.77678
2.8004
2.8164
2.82721
0.997936
0.997976
0.997931
0.99788
0.997804
0.997708
0.997591
0.997467
0.997333
0.997159
0.997013
0.996823
0.996603
0.996459
0.996251
0.995991
0.995802
0.995602
0.995166
0.994837
0.994746
0.994745
0.994575
0.993922
0.993392
0.993197
0.99313
0.993118
0.992974
0.992591
0.991963
0.991558
0.991295
0.99114
0.991117
0.991133
0.991189
0.991239
0.991389
0.991556
0.992193
1.00277
1.34743
2.03822
2.10312
2.09824
2.09274
2.08644
2.07393
2.05957
2.04603
2.0475
2.07036
2.13135
2.25725
2.38398
2.43378
2.39644
2.40868
2.38648
2.386
2.39944
2.42491
2.46986
2.50382
2.54386
2.60447
2.64286
2.68061
2.72632
2.75613
2.78357
2.81023
2.82846
2.83723
2.8467
2.8541
2.85519
2.85756
2.85915
2.85699
2.85424
2.84962
2.84854
2.84726
2.84572
2.84253
2.84032
2.84092
2.83767
2.83433
2.83594
2.83459
2.83517
2.83276
2.82963
2.8266
2.82262
2.81823
2.81314
2.80719
2.8007
2.79359
2.78604
2.77745
2.76909
2.76177
2.75561
2.75111
2.74838
2.74636
2.74463
2.74337
2.74568
2.7537
2.76936
2.79171
2.80736
2.81705
0.997954
0.997993
0.997949
0.997899
0.997825
0.997731
0.997614
0.997495
0.997359
0.997187
0.997048
0.996843
0.996649
0.996507
0.996256
0.996013
0.995883
0.995657
0.995175
0.994879
0.994766
0.994706
0.994522
0.994043
0.99355
0.993209
0.992985
0.992851
0.992766
0.992612
0.992391
0.992096
0.991605
0.9911
0.990977
0.990967
0.991016
0.99114
0.991427
0.991982
0.993461
1.00882
1.52166
2.10348
2.1129
2.1057
2.10363
2.10194
2.09704
2.08734
2.07638
2.07096
2.0777
2.11996
2.22636
2.35553
2.48447
2.51112
2.52066
2.50728
2.55536
2.57145
2.61117
2.64857
2.69127
2.72566
2.76454
2.79756
2.81964
2.83631
2.84388
2.84836
2.85391
2.85758
2.85924
2.86019
2.85962
2.85677
2.85147
2.85123
2.84939
2.84671
2.84198
2.83749
2.83479
2.83202
2.82861
2.82509
2.82528
2.82234
2.81944
2.82116
2.82076
2.8219
2.82163
2.821
2.82062
2.81851
2.81509
2.81063
2.80545
2.79976
2.79318
2.78571
2.77692
2.7684
2.7611
2.75486
2.74969
2.74599
2.74276
2.73996
2.73816
2.74014
2.74734
2.76218
2.78302
2.79798
2.80643
0.997972
0.998012
0.997969
0.997921
0.997848
0.997756
0.997638
0.997528
0.997386
0.997227
0.997077
0.99687
0.996712
0.996538
0.996271
0.996076
0.995927
0.995673
0.995236
0.994975
0.994778
0.994611
0.994448
0.99421
0.993878
0.993273
0.992811
0.992593
0.992536
0.99256
0.992576
0.992452
0.992017
0.99111
0.990807
0.990747
0.990737
0.990813
0.990959
0.991377
0.993088
1.01524
1.70753
2.1431
2.14562
2.13915
2.13412
2.12747
2.11921
2.11216
2.1071
2.1039
2.1134
2.14747
2.26919
2.40275
2.59844
2.64331
2.6579
2.6782
2.71765
2.7345
2.76003
2.78486
2.81113
2.82612
2.83885
2.84864
2.85426
2.85802
2.86025
2.85986
2.85884
2.85861
2.85563
2.85441
2.85313
2.85134
2.84758
2.84297
2.83839
2.83538
2.831
2.8254
2.82115
2.81669
2.81307
2.80994
2.80984
2.8088
2.80776
2.81013
2.81086
2.81268
2.81319
2.81323
2.81411
2.81319
2.81108
2.80768
2.80332
2.79817
2.79199
2.78436
2.77547
2.76686
2.75955
2.75313
2.7473
2.74268
2.73865
2.7355
2.73369
2.7355
2.7417
2.75557
2.77452
2.78861
2.79592
0.997992
0.998032
0.997991
0.997944
0.997875
0.997783
0.997668
0.997561
0.997417
0.997271
0.997104
0.996916
0.996766
0.996559
0.996322
0.996166
0.99595
0.995673
0.995363
0.995107
0.994778
0.994515
0.994397
0.994328
0.994125
0.993396
0.99274
0.992487
0.992401
0.992421
0.99253
0.992472
0.992161
0.991455
0.990881
0.990643
0.990468
0.990452
0.990365
0.990725
0.993779
1.03928
1.84
2.16651
2.17212
2.16742
2.16178
2.15374
2.14643
2.14489
2.14944
2.15689
2.19055
2.23985
2.40473
2.56547
2.7463
2.77259
2.78419
2.79817
2.81189
2.81994
2.82633
2.83307
2.84089
2.84696
2.85231
2.85461
2.85492
2.85535
2.85415
2.85315
2.85229
2.85249
2.85098
2.84882
2.8458
2.84262
2.83898
2.83323
2.82709
2.82266
2.81794
2.81264
2.80809
2.80357
2.80063
2.79828
2.7979
2.79753
2.79713
2.79962
2.80137
2.80381
2.80492
2.80544
2.80702
2.80672
2.80599
2.80397
2.80073
2.79641
2.79062
2.78312
2.77397
2.7651
2.7574
2.75049
2.74417
2.73887
2.73426
2.73065
2.72875
2.73033
2.73585
2.74883
2.76596
2.77921
2.78556
0.998013
0.998054
0.998014
0.997969
0.997902
0.99781
0.997705
0.997592
0.997455
0.997312
0.997135
0.996983
0.996812
0.996578
0.996409
0.996245
0.995949
0.995693
0.995507
0.995226
0.994768
0.99449
0.994398
0.994373
0.994174
0.993561
0.992848
0.992502
0.992307
0.992246
0.992275
0.992281
0.992079
0.991746
0.991325
0.990842
0.990328
0.990201
0.990081
0.990533
0.996951
1.15916
1.95926
2.17004
2.17679
2.17506
2.17108
2.16667
2.1658
2.17419
2.19467
2.22322
2.31239
2.41817
2.63516
2.76822
2.84136
2.85056
2.84673
2.8429
2.84044
2.83927
2.83889
2.83918
2.84117
2.84397
2.84489
2.8458
2.8459
2.84648
2.84587
2.84488
2.84353
2.84364
2.84214
2.83975
2.83605
2.83203
2.82812
2.82355
2.81831
2.81299
2.80749
2.80158
2.79641
2.79187
2.78944
2.78751
2.78706
2.78724
2.78702
2.7891
2.79119
2.79392
2.79551
2.79656
2.79857
2.79924
2.79963
2.79891
2.79671
2.79279
2.78716
2.77976
2.77117
2.76227
2.75424
2.74692
2.74033
2.73453
2.7293
2.72559
2.724
2.72571
2.73078
2.74272
2.75809
2.77029
2.77574
0.998036
0.998077
0.998039
0.997997
0.997932
0.997842
0.997743
0.997627
0.997503
0.997353
0.99718
0.99705
0.996848
0.996625
0.996505
0.9963
0.995959
0.99576
0.995604
0.995295
0.994829
0.994567
0.99441
0.99429
0.994091
0.993722
0.9932
0.992591
0.992194
0.991962
0.991876
0.991898
0.991931
0.991808
0.991566
0.991242
0.990752
0.99011
0.99001
0.99051
0.999833
1.3292
2.06643
2.1581
2.16212
2.16764
2.1736
2.18039
2.18889
2.21362
2.26433
2.3308
2.49667
2.65104
2.83189
2.87477
2.88295
2.87352
2.86176
2.85579
2.8494
2.8442
2.84002
2.83742
2.83591
2.83529
2.83439
2.83468
2.83396
2.83433
2.83339
2.83294
2.83229
2.83235
2.83148
2.82993
2.82708
2.82294
2.8185
2.81374
2.8088
2.80328
2.79764
2.79169
2.78666
2.78237
2.77997
2.77784
2.77699
2.77714
2.77682
2.77855
2.78068
2.7838
2.78622
2.78829
2.79123
2.79262
2.79382
2.79373
2.79264
2.78991
2.78497
2.77768
2.76826
2.75851
2.74988
2.74226
2.73542
2.72911
2.72356
2.72007
2.71861
2.72015
2.72481
2.73595
2.74994
2.76124
2.76589
0.998061
0.998103
0.998066
0.998026
0.997963
0.997879
0.99778
0.997667
0.997553
0.997394
0.997244
0.997108
0.996887
0.996708
0.996576
0.996342
0.996034
0.995842
0.995632
0.995354
0.99501
0.994728
0.994417
0.994163
0.993988
0.993831
0.993552
0.9929
0.992118
0.991731
0.991521
0.991482
0.991551
0.991648
0.99154
0.99132
0.990997
0.990354
0.990144
0.990986
1.00518
1.49991
2.11741
2.14769
2.1502
2.15969
2.17232
2.19352
2.22665
2.27557
2.388
2.51705
2.72778
2.84058
2.8914
2.89695
2.88715
2.8731
2.86202
2.8509
2.8434
2.83691
2.83207
2.82827
2.82479
2.82182
2.81996
2.81963
2.81927
2.81956
2.81923
2.81976
2.81928
2.81918
2.81852
2.81758
2.81553
2.81228
2.80811
2.8034
2.79866
2.79325
2.78758
2.78155
2.7765
2.77238
2.76998
2.76784
2.76657
2.76648
2.76601
2.76749
2.76945
2.7727
2.77575
2.77829
2.78163
2.78432
2.78676
2.78738
2.78703
2.78517
2.78094
2.77411
2.76484
2.75487
2.74604
2.7382
2.73073
2.72366
2.71797
2.71447
2.7131
2.71471
2.71954
2.72926
2.74185
2.75244
2.75598
0.998087
0.99813
0.998095
0.998058
0.997998
0.997918
0.997819
0.997714
0.997602
0.997443
0.997315
0.99716
0.996952
0.996805
0.996627
0.996391
0.996171
0.995927
0.995629
0.995423
0.995238
0.994929
0.994417
0.994086
0.993936
0.993882
0.993694
0.993195
0.992199
0.991669
0.991315
0.99112
0.991038
0.991038
0.991136
0.990995
0.990715
0.99027
0.990049
0.991689
1.01619
1.69257
2.15309
2.16295
2.16258
2.16881
2.18993
2.22165
2.30148
2.39545
2.59719
2.74273
2.87334
2.89962
2.89861
2.89034
2.87873
2.86758
2.85535
2.84403
2.8348
2.82715
2.82085
2.81557
2.81084
2.80671
2.80389
2.80279
2.80257
2.80288
2.80303
2.80369
2.80357
2.80374
2.8031
2.80235
2.80095
2.79885
2.79581
2.79189
2.7878
2.78282
2.77751
2.77155
2.76619
2.76176
2.75947
2.75743
2.75658
2.75711
2.75721
2.7588
2.76083
2.76434
2.76765
2.77058
2.7743
2.77721
2.77963
2.78037
2.78034
2.77905
2.77545
2.76908
2.76001
2.74985
2.74065
2.73239
2.7244
2.71718
2.71166
2.70812
2.70693
2.70846
2.71309
2.72201
2.73353
2.74353
2.74609
0.998116
0.998159
0.998127
0.998093
0.998035
0.997959
0.997864
0.99777
0.997651
0.997506
0.997382
0.997214
0.997046
0.996887
0.996667
0.996481
0.996315
0.995991
0.995646
0.995527
0.995408
0.99507
0.994453
0.994121
0.993939
0.993833
0.993654
0.993269
0.992602
0.991847
0.991203
0.990758
0.990433
0.990208
0.990133
0.990064
0.990042
0.989611
0.989343
0.992771
1.04855
1.84525
2.15739
2.16968
2.17539
2.18764
2.22643
2.28426
2.43609
2.59523
2.8053
2.87516
2.90199
2.89525
2.88525
2.87551
2.86429
2.85479
2.84432
2.83398
2.82485
2.81682
2.80961
2.80282
2.79733
2.79283
2.78946
2.78704
2.78565
2.78502
2.7848
2.78505
2.78558
2.78639
2.78617
2.78595
2.78506
2.78419
2.78245
2.77991
2.77681
2.77257
2.76824
2.7632
2.75867
2.75464
2.75128
2.74859
2.74679
2.74718
2.74711
2.74896
2.75129
2.75484
2.75833
2.76123
2.76534
2.76903
2.77194
2.77318
2.7735
2.77268
2.76966
2.76394
2.75578
2.74593
2.73616
2.72708
2.71866
2.71159
2.70591
2.70223
2.70109
2.70231
2.7066
2.71457
2.7253
2.73442
2.73518
0.998148
0.998191
0.998161
0.99813
0.998075
0.998003
0.997916
0.997826
0.997704
0.99758
0.997447
0.997282
0.997148
0.996956
0.996732
0.996606
0.996433
0.996053
0.995755
0.995614
0.995472
0.995181
0.994681
0.99428
0.993963
0.993707
0.99349
0.993304
0.992959
0.992382
0.991303
0.990434
0.9899
0.989476
0.989224
0.989077
0.989199
0.989196
0.99001
0.999634
1.21606
1.97119
2.13335
2.15318
2.18347
2.21905
2.30685
2.4274
2.65049
2.79528
2.87387
2.88963
2.88318
2.87259
2.8637
2.85313
2.84463
2.83611
2.82802
2.82001
2.81246
2.80531
2.7987
2.79212
2.78565
2.78013
2.7755
2.77155
2.76897
2.76757
2.76699
2.76703
2.76764
2.76881
2.76964
2.77047
2.77022
2.77021
2.76919
2.7678
2.76546
2.76217
2.75862
2.75432
2.75061
2.7464
2.74256
2.73889
2.73614
2.73653
2.73637
2.73808
2.74044
2.74425
2.74774
2.75087
2.75535
2.75951
2.76277
2.76447
2.76509
2.76458
2.7621
2.75714
2.74982
2.7405
2.73021
2.72023
2.71164
2.70479
2.69873
2.69507
2.69407
2.69537
2.69934
2.70684
2.717
2.7254
2.72522
0.998181
0.998225
0.998199
0.998171
0.998118
0.998051
0.997975
0.997883
0.997764
0.99766
0.997517
0.99737
0.997238
0.997032
0.996843
0.996711
0.996515
0.996186
0.995926
0.995705
0.995486
0.995296
0.99503
0.994561
0.993982
0.993601
0.993377
0.993309
0.993157
0.992697
0.991578
0.990278
0.989558
0.988988
0.988543
0.988119
0.987962
0.988257
0.990437
1.00909
1.44433
2.05088
2.11603
2.14859
2.21054
2.29936
2.46384
2.65765
2.82027
2.87235
2.87791
2.86907
2.85601
2.84795
2.83808
2.82962
2.8219
2.81518
2.80938
2.80397
2.79856
2.79325
2.78746
2.78158
2.77526
2.7696
2.76462
2.76016
2.75656
2.75424
2.75241
2.75158
2.75133
2.75168
2.75251
2.75369
2.7547
2.75533
2.75486
2.75484
2.75352
2.75133
2.74836
2.74427