/*--------------------------------*- C++ -*----------------------------------*\
| =========                 |                                                 |
| \\      /  F ield         | OpenFOAM: The Open Source CFD Toolbox           |
|  \\    /   O peration     | Version:  2.2.x                                 |
|   \\  /    A nd           | Web:      www.OpenFOAM.org                      |
|    \\/     M anipulation  |                                                 |
\*---------------------------------------------------------------------------*/
FoamFile
{
    version     2.0;
    format      ascii;
    class       surfaceScalarField;
    location    "0.75";
    object      phi;
}
// * * * * * * * * * * * * * * * * * * * * * * * * * * * * * * * * * * * * * //

dimensions      [1 0 -1 0 0 0 0];

internalField   nonuniform List<scalar> 
28084
(
0.000746227
0.000742996
0.000740224
0.000737893
0.000735982
0.00073447
0.000733332
0.000732546
0.000732084
0.000731921
0.00073203
0.000732384
0.000732955
0.000733717
0.000734643
0.000735707
0.000736884
0.00073815
0.00073948
0.000740854
0.00074225
0.000743649
0.000745038
0.000746381
0.000747683
0.000748959
0.000750121
0.000751172
0.000752182
0.000753124
0.0007539
0.000754556
0.0007551
0.00075552
0.000755797
0.00075593
0.000755903
0.000755757
0.000755497
0.000755096
0.000754543
0.000753835
0.000752998
0.000751965
0.0007507
0.000759827
0.000769216
0.000779208
0.000788304
0.000789328
0.000774017
0.000686301
0.000641133
0.000642849
0.000670223
0.000715228
0.000761476
0.000809203
0.000859659
0.00090357
0.000943606
0.000977315
0.00100517
0.0010288
0.00104961
0.00106506
0.00108032
0.00109313
0.00110178
0.00110747
0.00111197
0.00111474
0.00111343
0.00110862
0.0010978
0.00108219
0.00105703
0.00102085
0.000970621
0.000893944
0.000789515
0.000680978
0.00057533
0.000487092
0.000416797
0.000360313
0.000319759
0.00029152
0.000274602
0.000261782
0.000252978
0.000245814
0.000239279
0.000232573
0.000225287
0.000218373
0.000211918
0.000206385
0.000201275
0.000196791
0.000191894
0.000186857
0.000181421
0.000177702
0.000175076
0.000174115
0.000173046
0.000171889
0.000168671
0.000164225
0.000156627
0.000148577
0.000137436
0.000125334
0.000109522
9.06052e-05
6.54155e-05
3.76518e-05
3.71206e-06
3.23502e-06
0.000749744
2.77569e-06
0.000748792
2.33537e-06
0.00074827
1.91579e-06
0.000748163
1.51842e-06
0.00074845
1.14462e-06
0.000749111
7.95595e-07
0.000750122
4.72293e-07
0.000751458
1.75458e-07
0.000753094
-9.43931e-08
0.000755001
-3.3701e-07
0.00075715
-5.52466e-07
0.000759514
-7.40847e-07
0.000762061
-9.02687e-07
0.000764764
-1.03876e-06
0.000767592
-1.14946e-06
0.000770518
-1.23675e-06
0.000773514
-1.30021e-06
0.000776553
-1.34328e-06
0.000779609
-1.36524e-06
0.00078266
-1.36737e-06
0.00078568
-1.35734e-06
0.000788651
-1.31709e-06
0.00079155
-1.27883e-06
0.000794365
-1.22296e-06
0.000797083
-1.14536e-06
0.000799721
-1.07458e-06
0.000802168
-9.71836e-07
0.000804435
-8.66895e-07
0.000806596
-7.54713e-07
0.000808617
-6.60054e-07
0.000810464
-5.28244e-07
0.000812153
-4.13161e-07
0.000813686
-2.85632e-07
0.000815029
-1.56144e-07
0.000816148
-1.59614e-08
0.000817054
1.26317e-07
0.000817787
2.53626e-07
0.000818333
4.1291e-07
0.000818703
5.7139e-07
0.000818877
7.17447e-07
0.000818873
8.68577e-07
0.000818673
1.03002e-06
0.000818321
1.19062e-06
0.000817691
-9.26168e-06
0.000816808
-9.60874e-06
0.000825356
-1.03009e-05
0.000834221
-9.46683e-06
0.000842733
-1.58041e-06
0.000850056
1.14165e-05
0.000845373
8.47853e-05
0.000735111
4.38154e-05
0.000695857
-3.87065e-07
0.000698853
-2.57485e-05
0.000730351
-4.47953e-05
0.00077211
-4.71402e-05
0.000818117
-4.79393e-05
0.000863396
-4.92188e-05
0.000904924
-4.26486e-05
0.000943608
-3.9008e-05
0.00097776
-3.34176e-05
0.00100651
-2.96016e-05
0.00103063
-2.53987e-05
0.00105354
-2.20354e-05
0.00107282
-1.88017e-05
0.00108848
-1.6534e-05
0.00110135
-1.37324e-05
0.00111234
-1.07621e-05
0.00112017
-8.25056e-06
0.00112529
-6.08182e-06
0.00112792
-3.2931e-06
0.00112847
1.47664e-06
0.00112716
5.42063e-06
0.00112369
1.21722e-05
0.0011189
1.67569e-05
0.00111097
2.58646e-05
0.00110154
3.64923e-05
0.00108799
4.99695e-05
0.00105947
7.6132e-05
0.00101308
0.000103882
0.000949999
0.000108463
0.000869128
0.000104524
0.000780599
8.73482e-05
0.000691425
7.03267e-05
0.000607053
5.58004e-05
0.000532996
4.0417e-05
0.00046651
2.90918e-05
0.000412016
1.65138e-05
0.000368626
1.06902e-05
0.000336579
6.28945e-06
0.000312269
4.62889e-06
0.000295112
4.64094e-06
0.000283158
5.6673e-06
0.000274265
7.14491e-06
0.000266734
6.90792e-06
0.000258783
6.95432e-06
0.000250673
6.30134e-06
0.000242904
6.11247e-06
0.000236136
5.34889e-06
0.000229624
5.11516e-06
0.000223411
4.21409e-06
0.000216875
4.01474e-06
0.000210075
3.16265e-06
0.000203416
3.13286e-06
0.000198157
2.52872e-06
0.000194003
2.73341e-06
0.000191404
2.53476e-06
0.00018892
3.7798e-06
0.000186613
4.20379e-06
0.000183283
7.13533e-06
0.000178975
7.82011e-06
0.000172295
1.12977e-05
0.000164492
1.24118e-05
0.000153209
1.58601e-05
0.00014016
1.85729e-05
0.000122695
2.45952e-05
0.000101358
2.7044e-05
7.29299e-05
3.62146e-05
4.12105e-05
5.11238e-06
4.19053e-06
0.000754439
3.30105e-06
0.000755737
2.44745e-06
0.000757438
1.63385e-06
0.000759526
8.63902e-07
0.000761985
1.40996e-07
0.000764793
-5.3192e-07
0.000767927
-1.15242e-06
0.000771363
-1.7186e-06
0.000775072
-2.22906e-06
0.000779025
-2.68303e-06
0.000783193
-3.08042e-06
0.000787544
-3.42131e-06
0.000792046
-3.70677e-06
0.000796668
-3.93804e-06
0.000801378
-4.11652e-06
0.000806146
-4.24554e-06
0.000810941
-4.32474e-06
0.000815734
-4.36138e-06
0.000820498
-4.3532e-06
0.000825207
-4.30527e-06
0.000829835
-4.2244e-06
0.00083436
-4.10095e-06
0.000838763
-3.96279e-06
0.000843029
-3.78814e-06
0.000847129
-3.57156e-06
0.000851059
-3.3634e-06
0.000854786
-3.12062e-06
0.000858322
-2.8732e-06
0.000861676
-2.57875e-06
0.000864851
-2.31636e-06
0.000867742
-2.00842e-06
0.000870385
-1.71277e-06
0.000872823
-1.418e-06
0.000875023
-1.10457e-06
0.00087697
-7.78989e-07
0.000878662
-4.31613e-07
0.000880082
-1.13062e-07
0.00088129
2.41908e-07
0.000882276
5.78934e-07
0.000883038
9.25215e-07
0.000883553
1.26069e-06
0.000883817
1.65792e-06
0.000883834
1.99239e-06
0.000883613
-1.79644e-05
0.000883093
-1.86467e-05
0.000891274
-1.90158e-05
0.000899672
-1.69957e-05
0.00090752
2.6634e-06
0.000915305
0.000116408
0.000904642
0.000121546
0.000798608
4.22989e-05
0.000748805
-3.0595e-05
0.000759263
-6.56294e-05
0.00081069
-9.02806e-05
0.000869464
-9.41259e-05
0.000925348
-9.11952e-05
0.000975558
-8.79002e-05
0.00101661
-7.5768e-05
0.00105434
-6.87594e-05
0.00109071
-5.90009e-05
0.0011227
-5.23642e-05
0.00114963
-4.54715e-05
0.00117716
-3.92542e-05
0.00119974
-3.2869e-05
0.00121731
-2.77886e-05
0.00123192
-2.23681e-05
0.00124715
-1.73228e-05
0.00126078
-1.2293e-05
0.0012701
-7.99277e-06
0.00127571
-3.23199e-06
0.00127868
4.31603e-06
0.00127863
1.05237e-05
0.00127489
2.08397e-05
0.00126528
2.68936e-05
0.00124949
3.99406e-05
0.00122765
6.52981e-05
0.00119884
9.75955e-05
0.00116992
0.000139037
0.00112803
0.000185054
0.00108062
0.000196678
0.00102615
0.000192442
0.000963165
0.000170555
0.00089129
0.000143799
0.000798037
0.000121816
0.000691191
9.47451e-05
0.000587287
7.30183e-05
0.00050053
4.84973e-05
0.000429684
3.3226e-05
0.000378474
2.13237e-05
0.000343224
1.52339e-05
0.000322772
1.24747e-05
0.000310912
1.23173e-05
0.000301754
1.42002e-05
0.000294038
1.44777e-05
0.000284892
1.46243e-05
0.000274837
1.40265e-05
0.000265106
1.3594e-05
0.000256564
1.23538e-05
0.000248983
1.18713e-05
0.000241646
1.02687e-05
0.000233821
9.62529e-06
0.000226139
8.00082e-06
0.000219164
7.65189e-06
0.000213806
6.35861e-06
0.000209751
6.46654e-06
0.000207227
5.81288e-06
0.000204658
7.42512e-06
0.000202539
8.32956e-06
0.00019953
1.34809e-05
0.000195364
1.55018e-05
0.000188884
2.27922e-05
0.000180072
2.57146e-05
0.000166288
3.3304e-05
0.00014971
3.95161e-05
0.000128602
5.24188e-05
0.000104084
5.8159e-05
7.32557e-05
7.63919e-05
4.02456e-05
4.23105e-06
2.89564e-06
0.000760312
1.60429e-06
0.000763828
3.6356e-07
0.000767719
-8.19305e-07
0.000771973
-1.93776e-06
0.000776573
-2.98579e-06
0.000781499
-3.95811e-06
0.000786729
-4.85031e-06
0.000792235
-5.65893e-06
0.000797991
-6.38131e-06
0.000803965
-7.01593e-06
0.000810125
-7.56222e-06
0.000816438
-8.02041e-06
0.00082287
-8.39141e-06
0.000829388
-8.67813e-06
0.000835956
-8.88093e-06
0.000842542
-9.00773e-06
0.000849114
-9.05463e-06
0.00085564
-9.0363e-06
0.00086209
-8.94669e-06
0.000868437
-8.79664e-06
0.000874653
-8.59139e-06
0.00088072
-8.33317e-06
0.000886603
-8.03057e-06
0.000892278
-7.68964e-06
0.000897757
-7.28109e-06
0.000902997
-6.88933e-06
0.000908013
-6.42844e-06
0.000912821
-5.97658e-06
0.000917296
-5.45443e-06
0.000921465
-4.96469e-06
0.00092539
-4.42657e-06
0.000929026
-3.90153e-06
0.000932399
-3.37291e-06
0.000935503
-2.81831e-06
0.000938313
-2.25372e-06
0.000940795
-1.66331e-06
0.000942949
-1.09826e-06
0.000944834
-5.15179e-07
0.000946442
6.96316e-08
0.000947783
6.69617e-07
0.000948864
1.26898e-06
0.00094968
1.89208e-06
0.000950213
2.46695e-06
0.000950607
-2.62684e-05
0.000950527
-2.72287e-05
0.000958141
-2.72104e-05
0.000965851
-2.51213e-05
0.000974035
1.21845e-05
0.000981265
0.000218787
0.000989786
0.000167906
0.000947134
3.2478e-05
0.000920769
-8.14913e-05
0.000963686
-0.000122944
0.0010312
-0.000145197
0.001089
-0.000145075
0.00113897
-0.000134932
0.00118406
-0.00012714
0.00122419
-0.000111162
0.00125881
-0.000100423
0.00129057
-8.59454e-05
0.00131787
-7.71192e-05
0.00134302
-6.62792e-05
0.0013638
-5.84069e-05
0.00138235
-4.85164e-05
0.0013977
-4.07928e-05
0.00141153
-3.26873e-05
0.00142182
-2.63216e-05
0.00143056
-1.896e-05
0.00143719
-1.16004e-05
0.00144198
-3.36477e-06
0.00144428
8.32437e-06
0.00144491
2.05893e-05
0.00144381
3.72138e-05
0.00143832
4.93095e-05
0.00142847
6.95082e-05
0.00141072
9.47942e-05
0.00138431
0.000139685
0.00134972
0.000185656
0.00131104
0.00023882
0.00126829
0.000259244
0.00122248
0.000263444
0.00116798
0.000262208
0.00110177
0.000248451
0.00102056
0.000224951
0.000922597
0.000180947
0.000817177
0.000143363
0.000702699
9.85025e-05
0.000593489
6.68038e-05
0.000505332
4.08376e-05
0.000442509
2.75436e-05
0.000404054
2.12769e-05
0.000382055
1.9167e-05
0.000367811
2.17887e-05
0.00035571
2.33066e-05
0.00034222
2.37611e-05
0.000327447
2.32525e-05
0.000312953
2.26025e-05
0.000299904
2.04988e-05
0.000288949
1.98541e-05
0.00027917
1.71865e-05
0.000269042
1.5968e-05
0.00025898
1.32621e-05
0.000249655
1.24753e-05
0.000242099
1.02007e-05
0.000236123
1.01142e-05
0.000231975
8.49856e-06
0.000227505
1.06141e-05
0.000223169
1.23099e-05
0.000218187
1.98129e-05
0.000212355
2.44327e-05
0.000204707
3.68486e-05
0.000194464
4.24762e-05
0.000179422
5.42787e-05
0.000160411
6.35301e-05
0.000135888
8.27161e-05
0.000107923
9.08992e-05
7.50639e-05
0.000116273
4.03228e-05
1.10185e-06
-6.16975e-07
0.000767366
-2.28295e-06
0.000773063
-3.88556e-06
0.00077911
-5.41377e-06
0.000785494
-6.85748e-06
0.000792202
-8.20736e-06
0.000799214
-9.45528e-06
0.000806507
-1.05943e-05
0.000814054
-1.16191e-05
0.000821825
-1.25253e-05
0.00082979
-1.33104e-05
0.000837913
-1.39732e-05
0.00084616
-1.45139e-05
0.000854494
-1.49333e-05
0.00086288
-1.52353e-05
0.00087128
-1.54213e-05
0.000879659
-1.55001e-05
0.000887982
-1.547e-05
0.000896215
-1.53467e-05
0.000904328
-1.51261e-05
0.000912288
-1.48234e-05
0.00092007
-1.4443e-05
0.000927644
-1.39856e-05
0.000934992
-1.34694e-05
0.0009421
-1.29068e-05
0.000948958
-1.22669e-05
0.000955469
-1.16036e-05
0.000961663
-1.08828e-05
0.000967602
-1.01496e-05
0.000973236
-9.38091e-06
0.000978536
-8.59902e-06
0.000983518
-7.7862e-06
0.000988154
-6.96752e-06
0.000992454
-6.15441e-06
0.000996399
-5.31364e-06
0.000999979
-4.45948e-06
0.0010032
-3.59808e-06
0.00100604
-2.71166e-06
0.00100853
-1.85274e-06
0.00101074
-9.94206e-07
0.00101264
-1.23763e-07
0.00101419
7.49952e-07
0.00101541
1.62028e-06
0.00101631
2.5684e-06
0.00101704
-3.39756e-05
0.00101744
-3.51651e-05
0.00102489
-3.56713e-05
0.00103245
-3.24487e-05
0.00104047
3.27092e-06
0.00104917
0.000256882
0.00107124
0.000186941
0.00117284
-1.21491e-05
0.00118955
-0.000150495
0.00126326
-0.000182265
0.00130645
-0.000195168
0.00134546
-0.000190988
0.00137661
-0.000176224
0.00140339
-0.000162519
0.00142848
-0.000142841
0.00144915
-0.000126101
0.00146804
-0.000108964
0.00148341
-9.55171e-05
0.00149741
-8.24056e-05
0.00150964
-7.10016e-05
0.00152071
-6.03425e-05
0.00153027
-5.02098e-05
0.0015379
-4.02152e-05
0.00154384
-3.19057e-05
0.00154933
-2.34699e-05
0.00155289
-1.41988e-05
0.00155503
-3.9643e-06
0.00155574
1.00446e-05
0.00155516
2.66287e-05
0.00155456
4.74875e-05
0.00155099
6.76207e-05
0.00154761
9.67324e-05
0.00153465
0.000130061
0.00152333
0.000178064
0.0014952
0.000227689
0.00146559
0.000283387
0.00142778
0.00031186
0.00139572
0.000329024
0.00135932
0.000341855
0.00130849
0.00034372
0.00124781
0.000328361
0.00117785
0.000294026
0.0010929
0.000251208
0.000985337
0.000184712
0.000863838
0.00012739
0.000725455
7.86007e-05
0.000614667
5.09461e-05
0.000541104
3.73687e-05
0.00049709
3.13225e-05
0.000470025
3.39733e-05
0.000450074
3.60016e-05
0.00042959
3.66396e-05
0.00040673
3.59345e-05
0.000382306
3.46796e-05
0.000359845
3.15845e-05
0.000340704
3.02952e-05
0.000324776
2.66545e-05
0.000309563
2.45921e-05
0.000294892
2.0736e-05
0.000280878
1.95069e-05
0.000269447
1.57706e-05
0.000260155
1.56046e-05
0.000252916
1.32068e-05
0.000245663
1.55816e-05
0.00023902
1.79258e-05
0.000230998
2.74756e-05
0.000222273
3.49473e-05
0.00021259
5.21886e-05
0.000200079
6.15802e-05
0.000183573
7.859e-05
0.000162246
9.0949e-05
0.00013493
0.000115202
0.00010515
0.000125649
7.18667e-05
0.000156791
3.75251e-05
-4.2377e-06
-6.31095e-06
0.000775604
-8.32534e-06
0.000783442
-1.02656e-05
0.000791605
-1.21161e-05
0.000800083
-1.38627e-05
0.000808861
-1.54919e-05
0.000817923
-1.69924e-05
0.000827243
-1.83541e-05
0.000836796
-1.95694e-05
0.000846549
-2.0632e-05
0.000856471
-2.15381e-05
0.000866525
-2.22855e-05
0.000876674
-2.28744e-05
0.000886879
-2.33057e-05
0.000897102
-2.35837e-05
0.000907304
-2.37121e-05
0.000917447
-2.36983e-05
0.000927493
-2.35462e-05
0.000937406
-2.32694e-05
0.000947154
-2.28689e-05
0.000956702
-2.23607e-05
0.000966023
-2.17488e-05
0.00097509
-2.10544e-05
0.000983873
-2.0264e-05
0.000992347
-1.94008e-05
0.0010005
-1.84787e-05
0.00100833
-1.75146e-05
0.00101586
-1.64845e-05
0.00102296
-1.54226e-05
0.00102963
-1.43069e-05
0.00103594
-1.31889e-05
0.0010419
-1.20481e-05
0.00104746
-1.08746e-05
0.00105265
-9.73015e-06
0.00105749
-8.55622e-06
0.00106191
-7.35582e-06
0.00106591
-6.14449e-06
0.00106947
-4.94191e-06
0.00107262
-3.74592e-06
0.00107543
-2.53998e-06
0.00107789
-1.33462e-06
0.00108002
-1.19809e-07
0.0010818
1.06114e-06
0.00108322
2.30266e-06
0.00108428
-4.14391e-05
0.00108524
-4.30029e-05
0.0010921
-4.44028e-05
0.00109901
-4.16269e-05
0.00110588
-1.91981e-05
0.0011158
0.000150805
0.00114067
0.000162554
0.00132069
-8.86884e-05
0.00152993
-0.000196417
0.00155905
-0.000225107
0.00156304
-0.00022931
0.00156844
-0.000221079
0.00157091
-0.000204559
0.00157499
-0.000185068
0.00158016
-0.000162468
0.00158221
-0.000141572
0.00158583
-0.000122876
0.00159046
-0.000106849
0.00159569
-9.20353e-05
0.00160117
-7.90871e-05
0.00160601
-6.74346e-05
0.00161062
-5.64329e-05
0.00161371
-4.57757e-05
0.00161642
-3.54284e-05
0.00161783
-2.54807e-05
0.0016178
-1.51362e-05
0.00161717
-3.68019e-06
0.00161718
1.09941e-05
0.001616
3.06822e-05
0.00161476
5.13231e-05
0.00161351
8.11705e-05
0.00160743
0.000109091
0.00160031
0.000159978
0.00158168
0.000209006
0.00156093
0.000264959
0.00153152
0.000315493
0.001503
0.000348883
0.00147693
0.000379991
0.00144844
0.000400631
0.00141753
0.000411609
0.00137893
0.000410628
0.00133114
0.000399139
0.00127563
0.00037242
0.00121189
0.000323119
0.00113672
0.000236063
0.00104246
0.000150033
0.000925856
9.54078e-05
0.00080333
6.65064e-05
0.000719598
5.35747e-05
0.000662704
5.48566e-05
0.000618757
5.72691e-05
0.000578212
5.84258e-05
0.000538952
5.64753e-05
0.000499825
5.37328e-05
0.000463319
4.82119e-05
0.000431072
4.58788e-05
0.000402735
4.15145e-05
0.000375061
3.79335e-05
0.000349993
3.19254e-05
0.000328853
2.95501e-05
0.000311133
2.40722e-05
0.000295257
2.38079e-05
0.00028148
2.05075e-05
0.000268311
2.38758e-05
0.000256356
2.64573e-05
0.000243622
3.72164e-05
0.000231601
4.77034e-05
0.000219875
6.88629e-05
0.000205814
8.28663e-05
0.000189191
0.000105699
0.000168581
0.000120395
0.000140888
0.000148397
0.000109068
0.000160447
7.41528e-05
0.000194902
3.79075e-05
-1.17461e-05
-1.4146e-05
0.000785032
-1.64838e-05
0.000794967
-1.87385e-05
0.000805203
-2.08893e-05
0.000815732
-2.29171e-05
0.00082654
-2.4804e-05
0.000837611
-2.65347e-05
0.00084892
-2.80957e-05
0.00086044
-2.94765e-05
0.000872138
-3.06687e-05
0.000883981
-3.16669e-05
0.000895929
-3.24678e-05
0.000907944
-3.30715e-05
0.000919986
-3.34787e-05
0.000932012
-3.36943e-05
0.000943983
-3.37242e-05
0.000955856
-3.35746e-05
0.000967593
-3.32556e-05
0.000979155
-3.27782e-05
0.000990508
-3.21491e-05
0.00100161
-3.13857e-05
0.00101245
-3.04929e-05
0.00102297
-2.94929e-05
0.00103316
-2.83843e-05
0.00104301
-2.71904e-05
0.0010525
-2.59231e-05
0.0010616
-2.45717e-05
0.00107021
-2.31763e-05
0.00107843
-2.17402e-05
0.00108626
-2.02693e-05
0.00109367
-1.87498e-05
0.00110061
-1.7216e-05
0.00110711
-1.56495e-05
0.00111319
-1.41008e-05
0.00111886
-1.25553e-05
0.00112404
-1.09832e-05
0.00112873
-9.38549e-06
0.00113292
-7.77034e-06
0.00113661
-6.2019e-06
0.00114001
-4.64249e-06
0.00114301
-3.07771e-06
0.00114558
-1.51979e-06
0.00114774
5.83504e-08
0.00114948
1.62695e-06
0.00115091
-4.80967e-05
0.00115203
-4.99635e-05
0.00115841
-5.14756e-05
0.00116463
-5.17555e-05
0.00117114
-4.38764e-05
0.00117947
-3.26466e-05
0.00119887
-5.62902e-05
0.00132646
-0.000117661
0.00146129
-0.000201044
0.00152199
-0.00023219
0.00152679
-0.00023368
0.00152956
-0.000227518
0.00153678
-0.00021241
0.00154535
-0.000190039
0.00155671
-0.000168733
0.00157087
-0.000148112
0.00158186
-0.000129536
0.00158994
-0.000112711
0.00160236
-9.71184e-05
0.00161274
-8.4015e-05
0.00162299
-7.09318e-05
0.00162993
-5.96083e-05
0.00163413
-4.82278e-05
0.00163563
-3.67641e-05
0.00163674
-2.53188e-05
0.00163742
-1.50951e-05
0.0016375
-2.09948e-06
0.00163489
1.29455e-05
0.00163199
3.28547e-05
0.00162903
5.8103e-05
0.00162623
8.8731e-05
0.00162082
0.000128732
0.00161041
0.000182165
0.00159063
0.000239375
0.0015635
0.000294966
0.00153671
0.000342673
0.00151182
0.000377872
0.00149222
0.00041224
0.00147256
0.000438839
0.00144929
0.000459038
0.00142883
0.000466699
0.00140699
0.000462625
0.00138111
0.000445589
0.00135052
0.000414469
0.00131011
0.000350308
0.00126115
0.000270843
0.0011952
0.00017724
0.00110543
0.000123659
0.00100903
0.000100225
0.000922458
9.7824e-05
0.000844568
9.74939e-05
0.000775059
9.62562e-05
0.000711167
9.11787e-05
0.000651797
8.56248e-05
0.000595964
7.69635e-05
0.000543063
7.31129e-05
0.000493301
6.58833e-05
0.000446914
5.87539e-05
0.000406649
4.99316e-05
0.000373419
4.60246e-05
0.000345
3.86094e-05
0.000319513
3.78566e-05
0.000297277
3.33305e-05
0.000277157
3.7034e-05
0.000259588
3.82404e-05
0.000242514
4.87248e-05
0.000228066
6.16424e-05
0.000214381
8.53793e-05
0.000198608
0.000103276
0.000180388
0.000133237
0.000158835
0.000152117
0.000132067
0.00018349
0.00010151
0.000197257
6.8818e-05
0.000233498
3.50497e-05
-2.13777e-05
-2.4078e-05
0.000795657
-2.67152e-05
0.000807641
-2.92623e-05
0.000819903
-3.16924e-05
0.000832436
-3.39808e-05
0.00084523
-3.61046e-05
0.000858266
-3.8044e-05
0.000871521
-3.97816e-05
0.000884966
-4.13037e-05
0.000898568
-4.25995e-05
0.00091229
-4.36615e-05
0.000926093
-4.44854e-05
0.000939936
-4.5071e-05
0.000953776
-4.54189e-05
0.000967568
-4.55343e-05
0.00098127
-4.54256e-05
0.000994838
-4.50982e-05
0.00100823
-4.4568e-05
0.00102141
-4.3843e-05
0.00103433
-4.29394e-05
0.00104696
-4.18674e-05
0.00105928
-4.06465e-05
0.00107123
-3.92885e-05
0.00108282
-3.78171e-05
0.00109401
-3.62218e-05
0.00110471
-3.45417e-05
0.00111499
-3.27988e-05
0.00112488
-3.09581e-05
0.0011342
-2.91222e-05
0.00114311
-2.71958e-05
0.00115159
-2.52207e-05
0.00115948
-2.32461e-05
0.00116686
-2.12379e-05
0.00117376
-1.92435e-05
0.00118023
-1.72641e-05
0.00118623
-1.52504e-05
0.00119166
-1.32092e-05
0.00119656
-1.12092e-05
0.0012009
-9.19788e-06
0.00120484
-7.19399e-06
0.00120836
-5.20595e-06
0.00121146
-3.22822e-06
0.00121408
-1.24404e-06
0.0012163
6.76132e-07
0.00121827
-5.44865e-05
0.00121971
-5.64719e-05
0.00122509
-5.83192e-05
0.00123021
-6.03818e-05
0.00123568
-6.36336e-05
0.00124232
-0.000167903
0.00125382
-0.000205844
0.00122593
-0.000176129
0.00126887
-0.000203459
0.00136719
-0.000233633
0.00144316
-0.000240565
0.00148982
-0.000237136
0.00153026
-0.000225207
0.0015644
-0.000206216
0.00159309
-0.000181987
0.00161949
-0.000158033
0.0016376
-0.000141732
0.00165148
-0.000121576
0.00166798
-0.000105308
0.00168184
-8.99023e-05
0.00169437
-7.5664e-05
0.00170186
-6.27054e-05
0.00170733
-5.02474e-05
0.00171005
-3.78078e-05
0.00171114
-2.55855e-05
0.00170973
-1.31084e-05
0.00170685
7.25737e-07
0.00170271
1.68272e-05
0.00169969
3.69689e-05
0.00169605
6.46206e-05
0.00169126
9.97139e-05
0.00168294
0.000149291
0.00166671
0.000209864
0.00164019
0.000267148
0.00160604
0.000320438
0.00157539
0.000362776
0.0015484
0.000399759
0.00152176
0.000435593
0.00149889
0.000460094
0.00147663
0.000482624
0.00145754
0.000492942
0.00144154
0.000491232
0.00142367
0.000482011
0.00140347
0.000459705
0.00137818
0.000414094
0.00134976
0.000360148
0.00130645
0.000273217
0.00124551
0.00021025
0.00116363
0.000179694
0.00107046
0.000170931
0.000982689
0.000163863
0.000902405
0.000156462
0.000829518
0.000147685
0.000762477
0.000138714
0.000700747
0.000126685
0.000644771
0.000118952
0.000592365
0.000105211
0.000541659
9.13929e-05
0.000493167
7.86884e-05
0.000448585
7.20902e-05
0.000408044
6.15293e-05
0.000371162
5.88646e-05
0.000338776
5.18957e-05
0.000309727
5.46916e-05
0.000283957
5.26845e-05
0.000259645
6.23973e-05
0.000238518
7.73829e-05
0.000218782
0.000103647
0.000198663
0.00012497
0.000177979
0.000160346
0.000154449
0.000183287
0.000128149
0.000217076
9.85617e-05
0.00023213
6.73533e-05
0.000269646
3.37013e-05
-3.30826e-05
-3.60583e-05
0.000807489
-3.89725e-05
0.000821469
-4.1791e-05
0.000835705
-4.44805e-05
0.000850193
-4.70098e-05
0.000864923
-4.93507e-05
0.000879877
-5.14781e-05
0.000895031
-5.33705e-05
0.000910354
-5.50104e-05
0.000925814
-5.63844e-05
0.000941372
-5.74828e-05
0.000956987
-5.83002e-05
0.000972614
-5.88353e-05
0.000988209
-5.90896e-05
0.00100373
-5.9068e-05
0.00101912
-5.87811e-05
0.00103434
-5.82352e-05
0.00104935
-5.74491e-05
0.00106411
-5.64328e-05
0.00107857
-5.52046e-05
0.00109269
-5.37795e-05
0.00110644
-5.21819e-05
0.0011198
-5.04205e-05
0.00113271
-4.85093e-05
0.00114521
-4.64866e-05
0.00115719
-4.43462e-05
0.00116864
-4.21398e-05
0.00117968
-3.98302e-05
0.00119017
-3.74771e-05
0.00120005
-3.50583e-05
0.00120946
-3.26227e-05
0.00121835
-3.01428e-05
0.00122659
-2.76771e-05
0.00123433
-2.51637e-05
0.00124158
-2.26785e-05
0.00124832
-2.01883e-05
0.00125445
-1.77034e-05
0.00126
-1.5197e-05
0.00126494
-1.27172e-05
0.00126949
-1.02925e-05
0.00127358
-7.84185e-06
0.00127712
-5.42311e-06
0.00128014
-3.01024e-06
0.00128267
-5.5829e-07
0.00128471
-5.99002e-05
0.00128624
-6.20498e-05
0.00129136
-6.42045e-05
0.00129643
-6.63217e-05
0.00130073
-7.44112e-05
0.0013054
-0.000150491
0.0013146
-0.000262554
0.00128195
-0.000275339
0.00133563
-0.000277514
0.00143973
-0.000280886
0.00152202
-0.000281125
0.00158364
-0.000271795
0.00163287
-0.000255515
0.00167515
-0.000234279
0.00171306
-0.000205234
0.00174084
-0.000175924
0.00175934
-0.000156864
0.00177862
-0.000132478
0.0017906
-0.000115535
0.00180349
-9.60401e-05
0.00181132
-8.06817e-05
0.00181727
-6.53472e-05
0.00182187
-5.14889e-05
0.00182474
-3.78778e-05
0.00182333
-2.44828e-05
0.00181895
-9.76942e-06
0.00181355
4.73522e-06
0.00180712
2.2783e-05
0.00180299
4.42409e-05
0.0017968
7.46952e-05
0.00179033
0.000116596
0.00177754
0.000176498
0.00175625
0.00024443
0.00172627
0.000294786
0.00169232
0.000347638
0.00165191
0.000388509
0.00161721
0.000421989
0.00157603
0.000454083
0.00154445
0.000477847
0.00151359
0.000499444
0.00148588
0.000509481
0.00146661
0.00050925
0.00144811
0.000504538
0.00142724
0.00048749
0.00140144
0.000459793
0.00136658
0.000425037
0.0013146
0.000355915
0.0012557
0.000301606
0.0011776
0.000267857
0.00108642
0.000253064
0.000995491
0.000238272
0.000913259
0.000223897
0.000839562
0.000209331
0.000774429
0.000195941
0.000716827
0.000180028
0.000664442
0.000169359
0.000615084
0.000152546
0.000566116
0.000135641
0.000518313
0.000119342
0.000473399
0.000109879
0.000431211
9.52011e-05
0.000393232
8.91936e-05
0.000360052
7.88359e-05
0.000327479
7.9712e-05
0.000295894
7.38711e-05
0.000264822
8.19936e-05
0.000237167
9.73822e-05
0.000212755
0.00012442
0.000190603
0.000148853
0.000169209
0.000187402
0.000145972
0.000213865
0.000120863
0.000249411
9.34579e-05
0.00026681
6.43591e-05
0.00030421
3.17529e-05
-4.68066e-05
-5.00342e-05
0.000820539
-5.32042e-05
0.000836457
-5.62745e-05
0.000852612
-5.92045e-05
0.000869001
-6.19562e-05
0.000885614
-6.44952e-05
0.000902433
-6.67909e-05
0.000919434
-6.8817e-05
0.000936587
-7.05521e-05
0.000953855
-7.19798e-05
0.0009712
-7.30879e-05
0.000988578
-7.38698e-05
0.00100594
-7.43232e-05
0.00102325
-7.44502e-05
0.00104045
-7.42556e-05
0.00105749
-7.37521e-05
0.00107432
-7.29476e-05
0.00109091
-7.18622e-05
0.0011072
-7.05115e-05
0.00112315
-6.89123e-05
0.00113873
-6.70856e-05
0.00115388
-6.50588e-05
0.0011686
-6.28466e-05
0.00118283
-6.04594e-05
0.00119656
-5.79402e-05
0.00120979
-5.5298e-05
0.00122243
-5.25714e-05
0.00123454
-4.97313e-05
0.00124614
-4.68302e-05
0.00125701
-4.38831e-05
0.00126733
-4.09145e-05
0.00127711
-3.7887e-05
0.00128629
-3.48828e-05
0.0012949
-3.18309e-05
0.00130294
-2.87829e-05
0.00131038
-2.57539e-05
0.00131718
-2.27486e-05
0.00132333
-1.9772e-05
0.0013289
-1.6779e-05
0.00133401
-1.37964e-05
0.00133858
-1.08405e-05
0.00134264
-7.93517e-06
0.00134618
-5.04994e-06
0.0013493
-2.11046e-06
0.0013517
-6.50416e-05
0.00135345
-6.72552e-05
0.00135772
-6.88399e-05
0.00136218
-7.09691e-05
0.00136703
-8.33422e-05
0.00137354
-0.000129328
0.00138413
-0.000332546
0.00143826
-0.000380055
0.00158707
-0.00035932
0.00167912
-0.000341316
0.0017345
-0.000329907
0.0017702
-0.000314109
0.00180197
-0.000292029
0.0018283
-0.000261672
0.00185222
-0.000227177
0.00187334
-0.000199642
0.00189068
-0.0001689
0.0018979
-0.000143872
0.00190645
-0.000122869
0.00191393
-0.000101346
0.00191558
-8.37994e-05
0.00191742
-6.67406e-05
0.00191565
-5.17124e-05
0.00191542
-3.68921e-05
0.00191272
-2.25964e-05
0.00190931
-5.36701e-06
0.00190272
8.97903e-06
0.00189783
3.05339e-05
0.00189054
5.31902e-05
0.00188192
8.98293e-05
0.00187193
0.000136978
0.00185806
0.000208697
0.00182849
0.000277662
0.00180997
0.000330758
0.00174942
0.000384272
0.00170417
0.000424167
0.00167984
0.000449167
0.00163844
0.000480424
0.0015915
0.000501491
0.00155697
0.000518019
0.00151727
0.000527236
0.00147823
0.000529509
0.00144091
0.000531025
0.00140113
0.000523761
0.00135747
0.000514105
0.00130346
0.000487946
0.00123765
0.000437056
0.00116685
0.000394213
0.00108358
0.00035898
0.000995319
0.000334392
0.000914351
0.000311496
0.000843517
0.000289643
0.000780322
0.000268567
0.000723094
0.000250202
0.000672261
0.000229389
0.000628309
0.000215919
0.000588646
0.000197548
0.000549497
0.000179195
0.000511217
0.000160989
0.000472012
0.000147984
0.000432889
0.000129945
0.000397089
0.000122962
0.000364551
0.000111428
0.000332302
0.000110969
0.000300941
0.000100854
0.000270232
0.000105738
0.000240628
0.000118924
0.000213023
0.000145646
0.000187769
0.000172637
0.000163765
0.000213615
0.000138526
0.000242921
0.000113231
0.000279889
8.67891e-05
0.000300322
5.90541e-05
0.000336495
2.92808e-05
-6.24907e-05
-6.59486e-05
0.00083482
-6.93546e-05
0.000852615
-7.26584e-05
0.000870628
-7.58112e-05
0.000888859
-7.87678e-05
0.000907297
-8.14869e-05
0.000925925
-8.39321e-05
0.000944718
-8.60719e-05
0.000963645
-8.78804e-05
0.000982669
-8.93381e-05
0.00100175
-9.04302e-05
0.00102084
-9.11485e-05
0.00103989
-9.14898e-05
0.00105886
-9.14564e-05
0.00107768
-9.10543e-05
0.00109632
-9.02959e-05
0.00111473
-8.91946e-05
0.00113284
-8.77672e-05
0.00115062
-8.60398e-05
0.00116802
-8.40233e-05
0.00118501
-8.17519e-05
0.00120153
-7.92417e-05
0.00121757
-7.65245e-05
0.00123308
-7.36337e-05
0.00124805
-7.05648e-05
0.0012625
-6.73552e-05
0.00127622
-6.40401e-05
0.00128935
-6.06443e-05
0.00130201
-5.71674e-05
0.00131396
-5.36347e-05
0.00132518
-5.00766e-05
0.00133588
-4.64728e-05
0.00134596
-4.28361e-05
0.00135526
-3.9216e-05
0.001364
-3.55905e-05
0.00137211
-3.19977e-05
0.00137958
-2.84424e-05
0.00138632
-2.48671e-05
0.00139244
-2.13092e-05
0.0013981
-1.78057e-05
0.00140323
-1.43381e-05
0.00140777
-1.09511e-05
0.00141169
-7.47916e-06
0.00141499
-4.02884e-06
0.00141769
-6.94162e-05
0.00141982
-7.18831e-05
0.00142395
-7.35899e-05
0.00142836
-7.71428e-05
0.00143331
-9.36676e-05
0.00144013
-0.000193312
0.00145748
-0.000497874
0.00161831
-0.000472783
0.00173791
-0.000411818
0.00181829
-0.000373822
0.00186889
-0.000359778
0.00189609
-0.000338629
0.00191814
-0.000313044
0.00193538
-0.000279748
0.00195495
-0.000245694
0.00197107
-0.000208028
0.00198017
-0.000176365
0.00198846
-0.000150524
0.00199436
-0.000124429
0.00199482
-0.00010505
0.00199763
-8.34692e-05
0.00199573
-6.59901e-05
0.00199489
-4.92973e-05
0.00199037
-3.52996e-05
0.0019875
-1.82052e-05
0.00198135
-2.22493e-06
0.00197597
1.54945e-05
0.00196787
3.76704e-05
0.00195956
6.54615e-05
0.00194692
0.000104843
0.00193
0.00016521
0.00190416
0.000238529
0.00186596
0.000323662
0.0018241
0.00037264
0.00177134
0.000423858
0.0017151
0.000462821
0.00166998
0.000491152
0.00162072
0.000517582
0.00156709
0.000540384
0.00151984
0.000555186
0.00146932
0.000563102
0.0014119
0.000568044
0.00134797
0.000576729
0.00127787
0.00058186
0.00120076
0.00058426
0.00112061
0.000563238
0.00105404
0.000523409
0.000993767
0.000483628
0.000934702
0.000439927
0.000880772
0.000405419
0.000827794
0.000375642
0.000776119
0.000346946
0.000726634