/*--------------------------------*- C++ -*----------------------------------*\
| =========                 |                                                 |
| \\      /  F ield         | OpenFOAM: The Open Source CFD Toolbox           |
|  \\    /   O peration     | Version:  2.2.x                                 |
|   \\  /    A nd           | Web:      www.OpenFOAM.org                      |
|    \\/     M anipulation  |                                                 |
\*---------------------------------------------------------------------------*/
FoamFile
{
    version     2.0;
    format      ascii;
    class       volScalarField;
    location    "2";
    object      Bz;
}
// * * * * * * * * * * * * * * * * * * * * * * * * * * * * * * * * * * * * * //

dimensions      [1 0 -2 0 0 -1 0];

internalField   nonuniform List<scalar> 
14161
(
-1.30658e-11
-1.27666e-11
-1.26251e-11
-1.25096e-11
-1.24708e-11
-1.24517e-11
-1.24253e-11
-1.24023e-11
-1.23887e-11
-1.23551e-11
-1.23525e-11
-1.2342e-11
-1.23256e-11
-1.23237e-11
-1.23677e-11
-1.23482e-11
-1.22492e-11
-1.24685e-11
-1.24909e-11
-1.24318e-11
-1.22592e-11
-1.24006e-11
-1.26934e-11
-1.30824e-11
-1.23495e-11
-1.29725e-11
-1.18266e-11
-1.62132e-11
-2.013e-12
-3.85692e-11
3.1593e-11
-7.36546e-11
4.58394e-11
-7.72334e-11
9.18477e-11
-1.43596e-10
1.26562e-10
-3.57162e-10
1.35059e-09
2.80223e-08
4.94891e-07
1.85992e-06
4.84001e-06
4.06944e-06
4.46517e-06
3.39112e-06
2.31375e-06
4.68195e-06
2.52941e-06
-5.27323e-06
-7.51322e-07
1.40118e-05
1.52126e-05
-1.92898e-05
-3.03535e-05
2.02893e-05
4.36554e-05
-7.09392e-06
-2.83207e-05
-1.357e-05
3.74163e-06
9.52351e-06
1.13147e-05
7.57385e-06
-2.23051e-06
-2.66395e-05
-3.07937e-05
3.6069e-05
-1.12388e-05
-7.05051e-06
0.000101733
-2.35627e-05
-0.000146687
-5.42631e-05
4.67806e-05
8.94551e-05
5.35367e-05
-2.22148e-05
-6.67902e-05
-6.36204e-05
-1.13593e-05
1.94429e-05
1.68615e-05
3.81392e-06
-1.83214e-05
-2.59596e-05
-7.75446e-06
6.00704e-06
9.6878e-06
1.25086e-05
-1.25658e-05
-2.63875e-05
-2.85929e-05
-1.83221e-05
4.86833e-06
5.71427e-06
2.59337e-05
6.23124e-06
-1.72123e-05
5.99393e-05
-3.24759e-05
-3.57139e-05
6.19695e-05
1.39652e-05
-2.02997e-05
2.60467e-05
3.41721e-05
-4.54453e-06
3.40954e-06
2.21934e-05
2.24482e-05
1.01147e-05
1.63056e-05
5.82464e-06
1.91888e-05
4.00194e-06
6.38266e-06
3.83618e-06
1.98691e-06
-1.41778e-11
-1.49658e-11
-1.45648e-11
-1.60012e-11
-1.44848e-11
-1.61729e-11
-1.51927e-11
-1.55798e-11
-1.52916e-11
-1.43344e-11
-1.66829e-11
-1.1861e-11
-1.23486e-11
-1.50772e-11
-1.68135e-11
-2.2741e-11
-9.89448e-12
-1.97435e-11
-2.90012e-11
-1.50745e-11
-8.7198e-12
-1.69597e-11
-2.31817e-11
-2.82488e-11
-3.76196e-11
-3.04266e-11
-2.28747e-11
-2.74459e-11
-3.73089e-11
-4.63129e-11
-5.00263e-11
-5.42439e-11
-4.68512e-11
-4.81233e-11
-4.25916e-11
-3.91845e-11
-1.56063e-10
4.56296e-10
-3.55036e-09
1.41027e-08
2.15218e-07
1.29462e-06
1.66045e-06
8.10602e-07
1.04511e-06
-2.08162e-05
5.37226e-05
8.16254e-05
-0.000210745
-0.000188056
0.000251726
0.000513686
-9.07223e-05
-0.000950551
-0.000252457
0.00111808
0.000721081
-0.000815792
-0.00089822
0.000171242
0.000434345
0.000211327
0.000295746
0.000166548
-0.000444328
-0.000792243
-0.000370105
0.000614492
0.00119857
0.000490969
-0.00101601
-0.00136273
-0.000473065
0.000626508
0.000988233
0.000514491
-0.00022688
-0.00052974
-0.000505695
2.78359e-05
0.000446576
0.000149165
-0.000120364
-0.000228409
-5.76725e-05
7.4664e-05
6.79319e-05
9.16595e-06
-0.000135936
0.000115361
0.000119657
-3.61429e-05
-0.000155438
7.39452e-05
0.000136197
1.07288e-05
5.63605e-06
-0.00011955
-4.77691e-05
0.000103772
3.79258e-05
-1.06728e-05
6.85716e-05
6.4443e-05
2.08914e-05
-6.31493e-05
-5.97659e-05
5.06362e-05
-1.64491e-05
1.4529e-05
3.21141e-05
2.53789e-05
-1.52984e-05
-1.52477e-05
-3.3691e-05
5.28814e-05
2.26984e-05
1.32418e-05
4.33985e-05
-2.8937e-10
-2.67466e-10
-2.45589e-10
-2.07797e-10
-1.88176e-10
-2.03222e-10
-1.96761e-10
-1.95085e-10
-1.93607e-10
-1.98641e-10
-2.2086e-10
-1.48951e-10
-1.78361e-10
-2.22681e-10
-2.29791e-10
-2.29454e-10
-1.86809e-10
-1.68274e-10
-2.40732e-10
-1.72515e-10
-1.18349e-10
-2.02208e-10
-2.25995e-10
-3.45152e-10
-3.65462e-10
-3.16931e-10
-3.00963e-10
-3.35831e-10
-3.7464e-10
-4.67341e-10
-3.84324e-10
-6.30133e-10
-3.91313e-10
-3.36621e-10
-6.15051e-10
-4.44067e-10
-5.1612e-10
-4.25101e-10
-9.4406e-10
-2.32758e-09
1.70921e-07
1.3145e-06
9.79192e-07
1.28148e-06
-2.18116e-06
-3.1394e-05
2.14972e-05
0.000198149
-0.000119666
-0.00050935
5.25127e-05
0.00122973
0.000466504
-0.00207429
-0.00152554
0.00200486
0.00291356
-0.000618531
-0.00308553
-0.00160025
0.000880318
0.00269001
0.0019938
-0.000888322
-0.00298137
-0.00222768
0.000798849
0.00292626
0.00212942
-0.00052824
-0.00254006
-0.00220009
-7.84903e-05
0.00202113
0.0019678
0.000697437
-0.00116005
-0.00169367
-0.00112336
0.000459853
0.0010651
0.000733432
-9.30714e-05
-0.000757543
-0.000263294
0.000150892
0.000311562
-2.39429e-05
9.01135e-05
-6.51765e-05
-1.89656e-05
4.12339e-05
-1.07816e-05
6.53403e-05
-7.59682e-05
-3.06466e-05
0.000188144
5.7869e-05
-9.50714e-05
-9.20948e-05
-1.99465e-06
2.79202e-05
2.259e-05
2.36457e-05
6.99624e-06
-1.4121e-06
-8.24171e-06
1.01559e-05
1.50039e-05
7.41511e-06
2.66996e-05
1.22576e-06
6.80109e-06
1.62625e-05
4.44803e-06
-5.52081e-07
-2.84338e-05
2.00136e-05
2.2361e-05
-2.24292e-10
-3.00516e-10
-4.05863e-10
-4.60631e-10
-5.05281e-10
-6.56457e-10
-6.54672e-10
-7.20161e-10
-7.50908e-10
-7.69882e-10
-8.18618e-10
-6.27637e-10
-8.92441e-10
-1.0286e-09
-1.0904e-09
-1.14083e-09
-1.04968e-09
-7.84983e-10
-1.50846e-09
-8.45552e-10
-6.34527e-10
-1.0478e-09
-8.844e-10
-2.14894e-09
-1.51455e-09
-8.69044e-10
-1.09631e-09
-1.47282e-09
-1.74653e-09
-1.84497e-09
-1.76492e-09
-1.91682e-09
-1.58005e-09
-1.74557e-09
-1.98712e-09
-2.23947e-09
-1.24881e-09
-1.01928e-09
-5.73984e-09
2.70565e-09
2.63797e-07
5.31753e-06
1.26111e-06
7.58736e-06
2.71566e-05
-8.31211e-06
-9.27481e-05
-2.5841e-05
0.000252984
9.71301e-05
-0.000473378
-0.000254353
0.000792915
0.000748932
-0.00110173
-0.00145221
0.000781351
0.00239631
0.000451707
-0.00263968
-0.00230391
0.00129052
0.00313249
0.0011594
-0.0021332
-0.0025155
-0.00023096
0.00197969
0.00134205
-0.000680331
-0.000775495
-0.000202571
-0.000141055
0.000123972
0.000289118
0.000405046
-3.44449e-05
-0.00044838
-0.000298445
-7.35776e-05
0.000294763
0.000128062
-0.000194138
-0.000209062
8.52471e-05
0.000219052
1.26084e-05
-4.74752e-05
4.98349e-05
-8.27525e-05
3.32713e-05
3.25105e-05
2.31889e-05
4.68975e-05
-8.02392e-05
1.79962e-05
0.000144537
-2.14423e-05
-0.000110994
-4.47321e-05
2.13465e-05
2.00629e-05
2.62258e-05
9.65664e-06
-1.39083e-05
-1.6168e-05
-9.78272e-06
1.15371e-05
1.127e-05
1.46135e-05
1.33491e-06
-1.45642e-05
3.55584e-05
6.47266e-07
2.09419e-05
-3.24891e-05
1.20203e-05
-4.30055e-05
-8.13751e-06
-7.04389e-09
-6.70765e-09
-6.059e-09
-5.67213e-09
-5.39697e-09
-5.29202e-09
-5.20286e-09
-5.08913e-09
-5.0029e-09
-4.96528e-09
-4.96468e-09
-4.88369e-09
-4.78403e-09
-4.83543e-09
-4.83383e-09
-4.80182e-09
-4.70447e-09
-4.52952e-09
-4.48132e-09
-4.33244e-09
-4.33583e-09
-4.61489e-09
-4.62107e-09
-4.87021e-09
-4.42451e-09
-4.4342e-09
-4.54735e-09
-4.62639e-09
-4.59166e-09
-4.48514e-09
-5.03205e-09
-3.14168e-09
-7.60611e-09
-1.81977e-09
-8.24541e-09
-1.60235e-09
-5.9447e-09
-4.30526e-09
-1.38355e-08
5.82647e-08
6.58383e-07
4.52791e-06
6.1444e-06
-3.78848e-06
2.80639e-05
-6.2265e-05
1.46719e-05
6.31035e-05
-0.00029976
0.000100094
0.000835651
-0.000149952
-0.00166434
-0.000267823
0.00242398
0.00170062
-0.00229979
-0.00371815
0.000486181
0.00434425
0.0031147
-0.00208294
-0.00471424
-0.00227844
0.00253956
0.00360683
0.00176716
-0.002032
-0.00304487
-0.00164385
0.00154796
0.00232219
0.00108746
-0.00121594
-0.00141027
-0.000223536
0.000790621
0.000578807
-0.000193079
-0.000498789
-0.000273056
0.000116982
8.62316e-05
-3.62531e-05
1.82326e-06
0.000180948
9.17847e-05
-3.66418e-06
1.74082e-05
-5.40212e-05
-6.28385e-06
-5.6347e-06
3.72285e-05
2.21667e-05
-9.88456e-05
2.27382e-05
0.000112236
-5.18874e-05
-8.72047e-05
-1.4754e-05
1.87862e-05
2.22331e-05
2.08514e-05
-1.086e-06
-5.78086e-06
-1.58704e-05
6.8172e-06
1.04448e-05
-1.99879e-06
6.40057e-06
-8.61641e-06
-3.81338e-06
1.56613e-05
-5.46532e-06
2.04787e-05
-1.43439e-05
1.97074e-05
-2.88197e-05
-9.61895e-06
-5.1802e-10
-1.24906e-09
-2.20613e-09
-3.15177e-09
-3.46159e-09
-3.77601e-09
-4.06597e-09
-4.14201e-09
-4.28601e-09
-4.44216e-09
-4.57281e-09
-4.61174e-09
-4.63728e-09
-4.85384e-09
-5.04971e-09
-5.24799e-09
-5.42319e-09
-5.50546e-09
-5.71433e-09
-5.51372e-09
-5.66499e-09
-5.74685e-09
-5.78096e-09
-5.43272e-09
-5.22233e-09
-4.91551e-09
-4.77865e-09
-4.80039e-09
-4.93425e-09
-5.05187e-09
-5.17668e-09
-5.07407e-09
-5.33826e-09
-4.86955e-09
-5.61298e-09
-4.68474e-09
-5.72477e-09
-4.43757e-09
-8.49787e-09
3.82512e-08
4.38084e-07
2.27876e-06
1.07984e-05
-7.94955e-05
0.000153435
-5.24525e-05
-0.000120103
0.000228468
0.000197053
-0.00040364
-0.0010094
0.00111805
0.0018989
-0.000917323
-0.00303711
-0.000923353
0.00400549
0.00311547
-0.00237537
-0.00495122
-0.00128576
0.0041501
0.00431282
-0.000964153
-0.00400562
-0.00243206
0.00153215
0.00244401
0.00119869
-0.000992977
-0.00126399
-0.000191005
0.000670697
0.000656638
0.000143419
-0.000899691
-0.000875608
-0.000337396
0.000549808
0.0010045
0.000372729
-8.31103e-05
-0.000553749
-0.000356659
5.87728e-05
0.000336108
3.15423e-06
-0.000155768
-5.08897e-05
-3.93789e-05
4.1299e-06
-1.43348e-05
-1.3802e-05
4.9328e-05
-4.4763e-05
-1.13625e-05
0.000103738
-2.87976e-05
-7.16467e-05
-6.21812e-06
3.16263e-05
2.94164e-05
1.45307e-05
-5.21003e-06
-1.04957e-05
-9.93658e-06
1.95867e-05
9.29947e-06
6.32071e-07
4.06666e-06
-1.29908e-05
4.1426e-06
3.29488e-06
3.16743e-07
1.59209e-05
1.17239e-05
1.28896e-05
1.3016e-06
-1.20837e-06
-2.56566e-08
-2.44639e-08
-2.18471e-08
-2.03381e-08
-1.84388e-08
-1.69157e-08
-1.59271e-08
-1.50197e-08
-1.43957e-08
-1.39012e-08
-1.33772e-08
-1.30792e-08
-1.21453e-08
-1.19211e-08
-1.17721e-08
-1.16143e-08
-1.1591e-08
-1.079e-08
-1.14487e-08
-1.05991e-08
-9.51509e-09
-9.76788e-09
-9.4642e-09
-8.96399e-09
-8.15028e-09
-7.17138e-09
-6.87726e-09
-6.82306e-09
-6.82404e-09
-6.91347e-09
-6.41207e-09
-7.65403e-09
-5.73142e-09
-6.45322e-09
-7.31959e-09
-6.54809e-09
-6.11963e-09
-6.60664e-09
-2.40239e-09
4.10706e-08
2.9611e-07
9.28931e-07
-1.29155e-06
7.06921e-05
-0.000130238
1.52728e-05
0.000131667
-0.000129288
-0.000228786
0.000732637
0.00031529
-0.00117045
-0.000833939
0.00106251
0.00137321
-0.000380212
-0.00154535
-0.000675423
0.00116225
0.00107022
-0.000314659
-0.000518386
-0.000560972
-0.000519039
0.000868339
0.00164459
-4.07813e-05
-0.00165578
-0.00139685
0.000455681
0.00153971
0.000816923
-0.000569185
-0.00114657
-0.000739604
0.000420778
0.000726017
0.000380309
-9.2873e-05
-0.000225384
-0.000141136
-2.25889e-05
-4.11658e-06
-2.2824e-05
-2.70578e-07
9.11481e-05
-3.10729e-05
-7.66643e-05
-2.24236e-05
-1.25188e-05
1.66553e-05
-1.2587e-05
-6.07067e-05
4.95892e-05
-2.55361e-05
-3.14252e-06
0.000136152
-4.64562e-05
-5.45811e-05
-7.23097e-06
2.84695e-05
9.84697e-06
1.5874e-05
2.81395e-06
-1.33297e-05
-5.50979e-06
1.3456e-05
8.71056e-06
6.53242e-07
-5.88366e-06
-1.17061e-05
6.54188e-06
-6.6698e-06
-9.81969e-08
1.15081e-06
1.91955e-05
8.61361e-07
1.94918e-05
7.51871e-06
-7.10229e-10
-1.26269e-09
-2.66993e-09
-3.92894e-09
-3.82591e-09
-4.07828e-09
-4.24872e-09
-4.06953e-09
-4.16033e-09
-4.17304e-09
-4.27285e-09
-3.92247e-09
-3.49186e-09
-3.71112e-09
-3.83999e-09
-3.91936e-09
-4.38307e-09
-3.74741e-09
-4.8543e-09
-5.10739e-09
-3.63894e-09
-3.63617e-09
-3.98243e-09
-4.20554e-09
-2.76601e-09
-2.38088e-09
-2.39076e-09
-2.5143e-09
-2.65096e-09
-3.03231e-09
-7.72375e-10
-7.44681e-09
1.97534e-09
3.94857e-09
-2.21242e-08
9.78024e-09
5.67133e-09
-1.39175e-08
1.69116e-08
-2.73236e-08
1.00139e-07
-1.06764e-06
-7.44426e-06
8.07327e-06
-5.02548e-05
-5.14691e-06
2.44037e-05
4.11872e-05
4.92881e-05
-0.000123459
-8.38993e-05
0.000200284
0.00014748
-0.000240187
-0.000277993
0.000111307
0.000314545
6.43092e-05
-0.000210244
-0.000374316
5.15921e-05
0.000697547
0.000131934
-0.000627263
0.000206188
0.00064671
-0.000815429
-0.000932025
0.000553874
0.00101672
9.63199e-05
-0.000787937
-0.000744248
0.000346452
0.000790284
0.000234743
-0.000333724
-0.000363896
-8.831e-05
0.000131456
0.000163499
4.0896e-05
-3.5954e-05
-0.000120703
2.7136e-05
0.00019851
-7.86068e-05
-0.000126654
3.82787e-05
5.42205e-05
1.75278e-05
-2.04507e-05
-6.79645e-05
2.87785e-05
2.27618e-05
3.87161e-05
-1.73493e-05
-2.09664e-05
2.90391e-05
-1.57872e-05
-2.95015e-05
3.21191e-05
4.1869e-05
-2.06975e-05
-3.34468e-05
-2.51687e-05
6.06104e-06
6.76958e-06
4.88457e-06
-1.07379e-05
-8.22047e-06
3.65472e-06
-2.01347e-05
-1.39408e-06
-8.65629e-06
1.83093e-05
8.01111e-07
2.00128e-05
1.4998e-05
-1.62619e-08
-1.51545e-08
-1.30848e-08
-1.16759e-08
-1.03306e-08
-9.77312e-09
-8.34368e-09
-7.70173e-09
-7.31179e-09
-6.86155e-09
-6.38313e-09
-6.11486e-09
-6.17761e-09
-5.55233e-09
-5.15219e-09
-4.75678e-09
-4.78367e-09
-3.37494e-09
-4.71521e-09
-4.87996e-09
-2.29014e-09
-2.65671e-09
-4.03459e-09
-3.79299e-09
-2.89589e-09
-2.66228e-09
-2.50929e-09
-2.50727e-09
-2.98008e-09
-1.92122e-09
-3.97827e-09
-1.41894e-09
8.76384e-10
-1.06961e-08
6.76509e-09
-1.5572e-09
-6.44133e-09
-4.16352e-09
-2.35511e-09
-1.43015e-08
-8.33051e-08
-1.6551e-06
-6.26431e-06
-1.44957e-05
6.61204e-06
4.11978e-06
-1.07912e-05
-7.13299e-06
-6.09471e-06
1.89634e-05
8.48061e-06
-2.7313e-05
-1.46785e-05
1.92097e-05
1.51153e-06
-7.05307e-06
-2.07342e-05
-8.3586e-05
7.54268e-05
0.000222522
-0.000183487
-0.000205183
0.000416502
0.000109722
-0.000691573
0.000369256
0.000676346
-0.000724011
-0.000784621
0.00031436
0.000584354
0.000105706
-0.000267981
-0.000223794
9.07534e-05
0.000189359
5.34826e-05
-6.6279e-05
-4.74218e-05
2.52211e-05
6.10684e-05
4.78708e-05
2.33567e-05
-6.89476e-05
0.000126792
0.000117463
-0.000183292
-0.000135126
0.000118132
0.000123755
-3.12742e-05
-8.52949e-05
-7.88319e-05
-1.17855e-05
2.78864e-05
2.0373e-05
2.73854e-05
0.000157565
-8.03649e-05
-9.2083e-05
6.06394e-05
2.71205e-05
-3.50079e-05
-2.63225e-05
3.74498e-06
1.71203e-06
3.4397e-06
1.62549e-05
1.22044e-05
-1.55378e-05
-4.95736e-06
-9.43294e-07
-1.50154e-05
5.23955e-06
-1.51243e-05
-9.96969e-07
-2.73703e-06
3.55365e-06
6.86178e-06
-8.58153e-10
-1.11442e-09
-1.33215e-09
-1.67592e-09
-1.04173e-09
-1.76307e-09
-8.79657e-10
-8.43902e-10
-1.05175e-09
-9.61212e-10
-6.60594e-10
-6.16437e-10
-6.64296e-10
-6.35169e-10
-4.98286e-10
-3.31723e-10
-2.37694e-10
-2.20144e-10
-3.61933e-10
-3.80717e-10
-2.08627e-10
-4.09775e-10
-3.69291e-10
-3.42258e-10
-2.0183e-10
-2.91942e-10
-4.17355e-10
6.77608e-11
-3.56623e-09
9.32432e-09
-1.99084e-08
2.10302e-08
2.98369e-09
-2.06464e-08
-5.09541e-11
6.87807e-08
-1.12188e-07
3.16349e-08
-2.53617e-08
6.1848e-09
-4.13636e-07
-2.9705e-06
-1.3876e-05
-1.21931e-05
-7.54572e-06
-5.21025e-06
3.55779e-07
-4.81013e-07
-1.88292e-06
9.8248e-06
1.91199e-05
-1.93699e-05
-2.98126e-05
9.13506e-06
6.20239e-06
-1.06174e-05
5.83802e-05
-3.82653e-05
-0.000155556
0.0001946
0.000130746
-0.000331625
5.13741e-05
0.000470603
-0.00034692
-0.000481715
0.000668339
0.000215191
-0.000733591
-0.000377603
0.000318413
0.000363235
7.44958e-05
-0.000159179
-0.000116748
8.21109e-05
0.000104573
2.61397e-05
-3.85669e-05
-2.1471e-05
2.4576e-05
5.55193e-05
1.34198e-05
-2.85749e-05
0.000139333
-4.66867e-06
-0.000226139
-3.72242e-05
0.000260556
9.78996e-05
-0.000134038
-0.000178344
-6.72834e-05
4.99091e-05
0.000121564
3.91009e-05
-2.20474e-05
-0.000100141
-0.000118979
0.000116997
8.02953e-05
-0.000100182
-6.38292e-05
3.56348e-05
3.70277e-05
-1.49164e-06
-3.49883e-06
8.5714e-06
5.65121e-06
-9.81073e-06
2.22921e-06
-1.3592e-06
-1.23019e-05
2.3895e-06
-1.73589e-05
-1.14e-05
1.46927e-06
-1.471e-05
-3.22553e-06
-1.85548e-09
-1.66987e-09
-1.31137e-09
-1.28495e-09
-1.02088e-09
-1.20439e-09
-9.00056e-10
-7.65778e-10
-8.24019e-10
-8.29275e-10
-7.48096e-10
-7.10682e-10
-6.90489e-10
-6.48374e-10
-5.91314e-10
-5.38884e-10
-4.38163e-10
-5.47185e-10
-5.37699e-10
-1.88901e-10
-7.73949e-10
-5.97087e-10
-3.58637e-10
-3.53571e-10
-4.71177e-10
-5.39497e-10
-5.59367e-10
-2.92997e-10
-1.49595e-09
1.4311e-09
-1.13814e-09
-3.60554e-09
-3.4985e-09
9.11835e-09
-2.71798e-08
5.27707e-08
-7.51869e-08
8.83694e-08
-7.43675e-08
3.27484e-08
-6.1652e-07
-4.29843e-06
-1.98985e-05
-1.61523e-05
-1.27865e-05
2.32226e-07
1.10311e-05
-7.56523e-06
-2.34137e-05
5.04115e-06
4.77494e-05
-1.13835e-07
-4.57123e-05
-1.93472e-05
4.06694e-05
-1.17674e-05
4.07647e-05
5.08942e-05
-0.0002401
-3.07051e-05
0.000473362
-0.00021779
-0.000757107
0.000557122
0.00089172
-0.00118787
-0.000805564
0.00120692
0.00100342
-0.000363823
-0.000754889
-0.000324087
0.00033691
0.000432798
6.76182e-05
-0.000242408
-0.000186784
2.53835e-05
0.000140999
0.000113496
6.44998e-05
-1.28536e-05
-1.37227e-06
0.000108048
7.16287e-05
-0.000105981
-7.86313e-05
0.000126775
0.000118948
-8.30118e-05
-0.000167646
-7.52122e-05
6.48902e-05
1.64842e-05
-3.7302e-05
-6.97732e-05
-1.38926e-05
7.36104e-05
0.000178488
9.7763e-05
-0.000168943
-0.000114378
5.99922e-05
7.02126e-05
3.69297e-06
-3.06903e-05
-1.59286e-05
2.16583e-05
1.48026e-05
-1.59686e-05
-5.79544e-06
1.72155e-07
-4.28129e-06
8.64057e-06
-1.11315e-05
-1.84437e-05
-4.99495e-07
-2.31904e-05
-9.61834e-06
-1.41812e-10
-1.65406e-10
-1.48433e-10
-1.16692e-10
-3.27596e-11
-2.87429e-10
9.56816e-12
-1.17894e-10
-1.73285e-10
-7.44828e-11
-1.70916e-11
-7.32692e-11
-1.13911e-10
-1.14433e-10
-9.61317e-11
-6.83755e-11
-8.32732e-11
-1.95073e-11
-9.07074e-11
-1.09502e-10
-2.91863e-11
-1.61098e-11
-5.49557e-11
-9.48069e-11
-9.58233e-11
-7.38432e-11
-8.37031e-11
-5.45374e-11
2.88842e-11
-1.62488e-09
4.60172e-09
-4.39654e-09
-5.17299e-10
1.50919e-09
4.52259e-11
9.49722e-10
-2.47191e-09
-2.26297e-09
-1.14602e-08
-1.04382e-07
-1.00336e-06
-7.24289e-06
-2.63908e-05
-2.14895e-05
-1.65617e-05
-1.38915e-05
1.46679e-05
7.5832e-06
-2.65252e-05
-4.18987e-05
4.00315e-05
9.25494e-05
-3.01581e-05
-0.000115586
-1.76022e-06
0.000104043
2.43756e-05
-4.12511e-05
3.63316e-05
-8.70783e-05
-0.000163736
0.000161684
0.000290783
-0.0001288
-0.00055095
0.000276148
0.000741765
-0.000344729
-0.000576407
0.00012208
0.000370394
0.000186
-7.93932e-05
-0.000195265
-0.00011905
7.43366e-05
0.000137004
8.71327e-05
2.93775e-05
5.22034e-06
4.94402e-06
3.34553e-05
0.000101663
4.47309e-05
-8.78715e-05
-8.30528e-05
6.97808e-05
9.44505e-05
-1.22218e-05
-9.01144e-05
-0.000103771
-9.66392e-06
6.01898e-05
3.02765e-05
5.7774e-05
6.52409e-05
3.69286e-05
-5.46873e-05
-0.000127168
-0.000156385
-8.02739e-05
0.000105881
8.64453e-05
-2.76344e-05
-4.90292e-05
-1.51806e-05
3.16734e-05
4.58717e-05
-9.56714e-06
-8.45586e-06
-4.69938e-06
-2.00043e-05
-6.77284e-06
1.07921e-05
-1.00002e-05
-1.61773e-05
5.52218e-07
-2.16763e-05
-1.50399e-05
1.76075e-11
1.67232e-11
-1.43123e-11
7.03995e-12
7.24543e-11
-9.53155e-11
1.476e-11
-3.05629e-11
-1.1228e-10
-4.6348e-11
-6.88619e-12
2.46711e-12
-4.99585e-11
-7.41515e-11
-8.02224e-11
-6.98308e-11
-7.46101e-11
-2.32795e-11
-8.27338e-11
-7.62269e-11
-2.58131e-11
-2.43754e-11
-4.91919e-11
-7.25531e-11
-7.71773e-11
-8.16969e-11
-6.86822e-11
-1.18753e-10
5.06579e-11
-7.54134e-10
9.94788e-10
-1.55946e-09
3.27028e-09
-5.5699e-09
9.23505e-09
-1.00231e-08
7.82441e-09
-7.50272e-09
5.72792e-09
-8.73981e-08
-1.29977e-06
-9.90723e-06
-2.91957e-05
-1.94148e-05
-1.72455e-05
-3.79848e-05
1.2762e-05
3.42262e-05
1.44682e-06
-4.94121e-05
-6.02061e-05
5.05198e-05
0.000115253
-3.28944e-05
-0.000150798
1.20794e-06
0.000149212
3.34818e-05
-5.91212e-05
-3.38696e-05
-0.00018659
-0.000130328
0.000641923
0.000112623
-0.000889812
0.00017275
0.00102745
-0.000222803
-0.000982296
-6.14188e-05
0.000515918
0.000364362
-0.000206031
-0.000411719
-5.55613e-05
0.000268331
0.000242881
4.79887e-05
-5.0805e-05
-2.86684e-05
7.31253e-05
7.70945e-05
2.3607e-05
5.50118e-06
-2.44982e-05
3.75437e-05
7.06608e-05
-7.76639e-06
-0.000112758
-4.37878e-05
5.41407e-05
8.56096e-05
-3.40367e-05
-9.80541e-05
-8.00364e-05
-0.000103258
-9.46122e-05
-6.33611e-06
0.000117733
0.00013364
0.000146571
3.19447e-05
-9.98132e-05
-7.56896e-05
2.06303e-05
5.97467e-05
5.23248e-05
-5.10269e-06
-5.11537e-06
3.5349e-05
3.1887e-06
-1.86392e-05
-8.50061e-06
-8.97459e-06
-1.15239e-05
-7.1466e-06
5.3781e-06
-1.0707e-05
-1.3584e-05
2.59779e-12
2.84717e-12
2.06568e-11
-2.70869e-11
1.58823e-11
-2.24057e-11
8.86208e-12
2.79475e-11
-1.22247e-11
-4.36579e-11
-2.94114e-11
-1.60261e-11
-1.09489e-11
-1.03674e-11
-1.0789e-11
1.06406e-12
-3.09817e-11
1.67413e-11
-3.29549e-11
-5.50984e-11
1.30377e-11
3.9898e-11
-3.82731e-11
-4.21366e-11
-1.72773e-11
-2.26828e-11
1.22455e-11
-5.44359e-11
-2.12567e-11
-9.98126e-11
5.95608e-11
-6.14765e-11
8.18497e-11
-2.88899e-10
6.98882e-10
-2.99567e-09
1.10788e-08
-2.77066e-08
7.88992e-08
-8.55341e-08
-1.26225e-06
-9.73232e-06
-4.49451e-05
-3.3115e-05
3.81431e-05
-3.12145e-05
-0.000152875
3.4219e-05
0.000188558
-2.15737e-06
-0.000163515
-9.26961e-05
5.706e-05
0.000176565
3.68421e-05
-0.000269109
-0.000104999
0.000359722
0.000102065
-0.000323651
-5.0902e-05
0.000174599
-0.000248368
0.000124676
0.000605174
-0.000348087
-0.000699473
0.000525518
0.00056007
-0.000271121
-0.000466184
-8.04061e-05
0.000274415
0.000243606
-6.76799e-05
-0.000185316
-2.12137e-05
0.000126971
0.000132299
8.15598e-05
6.79624e-05
4.50906e-05
1.92132e-05
5.37247e-05
5.88804e-05
2.21417e-05
1.76953e-05
-1.90448e-05
-1.67036e-05
-6.42707e-05
-7.96343e-05
-8.3764e-05
-3.45188e-05
4.36586e-05
8.27629e-05
7.97327e-05
0.000137789
0.000148567
9.91728e-05
-1.28605e-05
-5.00754e-05
-0.000145903
-0.000129601
3.57364e-05
0.000102936
6.50327e-05
-4.7539e-06
-4.64546e-05
1.96931e-05
4.46858e-05
-2.08114e-05
-4.67142e-05
-1.65584e-05
6.86203e-06
1.63456e-05
4.48734e-06
9.58633e-06
-2.17007e-06
-8.13587e-06
2.12703e-12
-1.10114e-12
1.3426e-12
1.50406e-11
-3.4835e-12
1.48404e-11
-8.37521e-12
-9.60326e-12
6.50863e-12
1.01779e-11
4.13605e-12
-2.46042e-12
-5.35389e-12
-5.23872e-12
-2.28876e-12
-6.42332e-13
-9.02738e-12
6.77291e-12
-1.54963e-11
-2.39902e-12
1.46685e-11
2.74826e-12
-7.01538e-12
-7.11381e-12
8.16919e-13
4.90903e-12
1.59694e-11
-1.8855e-11
2.96459e-11
-1.47641e-10
3.12873e-10
-6.90429e-10
7.36404e-10
-1.44463e-09
2.87487e-09
-1.2592e-09
-1.26798e-09
3.36078e-10
-9.49923e-09
-7.05842e-08
-5.52059e-07
-9.16586e-06
-3.32744e-05
-8.37697e-05
-9.01088e-05
0.000223576
-6.78351e-05
-0.000442775
-4.75065e-06
0.000410381
0.000140654
-0.000253295
-0.000266143
-6.34239e-07
0.000215399
0.00019388
-0.000210476
-0.000336726
0.000408561
5.67589e-06
-0.000473204
0.000397562
0.000260513
-0.000484076
8.3751e-05
0.000500763
-0.00032894
-0.000573364
0.000258741
0.000485265
6.82842e-05
-0.000196486
-0.000146754
-9.78535e-06
6.2415e-05
6.47698e-05
6.31115e-05
9.54502e-05
9.67536e-05
7.74802e-05
6.37408e-05
3.74665e-05
5.43329e-05
5.10504e-05
4.38014e-05
5.77481e-05
-2.49747e-05
-0.000114816
-2.97987e-05
0.000158318
0.000199662
9.65886e-05
6.16972e-05
-4.26167e-06
-0.000101266
-0.000178378
-0.000163962
-0.00014535
-0.000157819
-0.000139844
-6.18733e-05
-0.000100321
2.87215e-05
0.00015242
9.59621e-05
2.60973e-05
-3.12976e-05
-3.59683e-05
2.60511e-05
9.65078e-06
-5.62021e-05
-1.66489e-05
2.59755e-05
1.63503e-05
1.23959e-05
-3.13227e-06
3.27071e-06
4.2471e-06
-1.42732e-06
3.21155e-12
5.60086e-12
2.27532e-12
3.30781e-12
6.88009e-12
1.08612e-12
1.24764e-11
6.31169e-12
6.09065e-13
2.41798e-12
3.62087e-12
6.00322e-12
4.87648e-12
4.64181e-12
4.84203e-12
4.67827e-12
1.96116e-12
5.71233e-12
1.83245e-12
2.54186e-12
9.74487e-13
8.21306e-12
8.44765e-12
-1.61478e-11
-1.40415e-12
4.41701e-12
1.96016e-11
7.68204e-12
-1.72588e-11
-3.16206e-12
-1.5122e-11
5.417e-11
-4.49574e-11
-1.32878e-10
1.04797e-09
-2.09847e-09
-8.90697e-10
9.49054e-09
2.50988e-09
-1.04519e-07
-1.48148e-07
-1.20073e-05
-1.42733e-05
-3.26205e-05
-0.000219776
4.30726e-05
0.000375634
-0.000234988
-0.000516849
-3.80758e-05
0.000415359
0.000251262
-0.000228525
-0.000354697
-2.47084e-05
0.000235839
9.00092e-05
-5.41692e-05
-4.17919e-05
-0.000236822
2.98641e-05
0.000515239
2.66208e-05
-0.000670659
-0.000347253
0.000971654
0.000454345
-0.00130476
-0.00059334
0.000899584
0.000710151
3.78668e-05
-0.000357195
-0.000287797
-1.38835e-05
0.000164762
0.000192809
0.000139706
9.09847e-05
4.77482e-05
4.96397e-05
5.94955e-05
6.48058e-05
6.74003e-05
-0.000119829
-2.2154e-05
0.000282369
0.000248652
-0.000170851
-0.000353392
-0.000373927
-0.000252532
-0.000235922
-0.000128656
-6.87717e-06
3.0137e-05
2.60875e-05
4.67839e-05
5.4448e-05
5.17828e-05
0.000119644
6.69401e-05
0.000118577
6.402e-05
-2.16296e-07
-2.28195e-05
-4.27393e-05
-2.04952e-05
2.2916e-05
-2.09345e-05
-1.19352e-05
5.61713e-05
4.92046e-05
-4.38156e-06
-2.03765e-05
-1.94614e-05
-4.48673e-06
1.04108e-05
4.00371e-06
8.16974e-12
7.1188e-12
7.85917e-12
7.00548e-12
6.73127e-12
6.84858e-12
6.13052e-12
6.03082e-12
6.92697e-12
6.75443e-12
5.4626e-12
7.67004e-12
3.7656e-12
6.18114e-12
6.52244e-12
6.13269e-12
4.31813e-12
5.97466e-12
5.33245e-12
7.66353e-12
1.09636e-12
3.34022e-12
1.17572e-11
8.24946e-12
-1.14115e-11
-2.6269e-12
1.63173e-11
4.14255e-11
-6.114e-13
-2.58492e-11
-3.85489e-11
5.38165e-12
9.08283e-11
6.22964e-11
-1.89064e-10
6.48887e-10
2.00142e-11
-5.99249e-09
1.44443e-08
-6.30472e-08
-7.25503e-07
-3.81146e-06
-3.31832e-05
2.46576e-06
-0.000151955
-0.000278712
0.00047807
0.000100894
-0.00049082
-0.000409839
0.00012334
0.000378741
0.000214878
-0.000208376
-0.000329741
5.30486e-05
0.000135631
-0.00041701
0.000353208
0.000845675
-0.00131577
-0.000849933
0.00176885
0.00118575
-0.00134333
-0.00144705
0.00052933
0.00150428
-7.58639e-05
-0.000937542
-0.000178463
0.000298502
0.000230544
3.01313e-05
-4.07661e-05
5.69561e-05
0.000156625
0.00013144
4.66744e-05
3.37577e-05
0.000150344
3.10571e-05
-6.82833e-06
0.000200987
0.000283624
-0.000313354
-0.000626092
-0.000295696
0.00016218
0.000323874
0.000511297
0.000437871
0.000241687
0.000249737
0.000167735
9.71967e-05
9.19617e-05
0.000104189
0.000126501
9.77403e-05
0.000175373
8.6451e-06
1.74035e-05
-5.58344e-05
1.69627e-05
-4.50514e-06
-2.61866e-05
3.5427e-06
7.91628e-06
-1.33959e-05
3.21283e-05
3.40598e-05
-2.15659e-05
-4.8175e-05
-3.30894e-05
-1.39112e-05
-2.51225e-06
1.38973e-05
7.7489e-06
6.30219e-12
6.66593e-12
6.68135e-12
7.09406e-12
7.00918e-12
7.08608e-12
7.28256e-12
7.06295e-12
7.16598e-12
7.01796e-12
6.40406e-12
8.37221e-12
5.32801e-12
8.53288e-12
4.19834e-12
1.01521e-11
2.90948e-12
1.05147e-11
5.00629e-13
1.75924e-11
-1.29206e-11
1.29236e-11
2.03611e-11
1.76776e-11
-4.93089e-11
2.16707e-11
1.99113e-11
3.29295e-11
1.02444e-11
5.31664e-12
-9.30446e-11
-7.8828e-11
1.64356e-10
2.52215e-10
-2.36406e-11
-3.05118e-10
2.86514e-10
-5.27922e-10
-4.80047e-09
-5.36327e-08
-7.98283e-07
-2.77258e-06
-2.08567e-05
-5.03935e-05
0.000148161
-0.000514494
-0.000146631
0.000713362
0.000130456
-0.00057633
-0.000569025
2.63932e-05
0.000490878
0.000361003
-0.000243514
-0.000231932
0.000323618
-0.000853799
-0.000400657
0.00218647
0.000287745
-0.00326978
0.000402392
0.00310964
0.000501248
-0.00210836
-0.00163226
0.001058
0.00161535
0.000165624
-0.000972665
-0.000520672
0.000125858
0.000400721
0.000265997
5.8032e-05
4.4037e-05
8.2768e-05
0.000198858
0.000121886
0.000116036
0.000224362
-1.70768e-05
-0.000549233
-4.97003e-05
0.000935985
0.00112325
0.000435133
-5.28566e-05
-0.00022879
-0.000340912
-0.000553211
-0.000341591
-0.000244159
-0.000257945
-0.000213407
-9.95506e-05
-1.29311e-05
-5.78777e-05
-1.79884e-05
-7.28751e-05
-6.90692e-05
-0.000107502
7.83542e-06
3.45076e-05
-2.43303e-05
2.84997e-05
2.61916e-05
-1.14862e-05
-2.99179e-06
1.31763e-05
-3.73201e-05
-4.57707e-05
-9.64855e-07
1.55322e-05
5.58504e-06
1.59794e-06
1.61373e-05
1.06507e-05
8.46072e-12
8.13175e-12
8.03231e-12
7.69572e-12
7.65119e-12
7.53813e-12
7.49042e-12
7.49924e-12
7.27486e-12
8.34356e-12
5.29942e-12
1.09276e-11
1.38962e-12
1.51805e-11
-1.20249e-12
1.67347e-11
-2.46577e-12
1.56808e-11
-1.81907e-12
1.77639e-11
-6.54162e-12
1.14691e-11
6.66237e-12
1.65266e-11
-3.98996e-11
7.05171e-11
-1.57434e-11
-5.89308e-11
5.80453e-11
1.01474e-10
-1.05454e-10
-1.64547e-10
8.91878e-11
4.60552e-10
4.90726e-12
-4.89592e-10
3.6822e-10
-2.34408e-09
-1.20411e-08
-1.18611e-07
-1.08324e-06
-5.63208e-06
-1.26251e-05
-2.42957e-05
-6.5861e-05
0.000163321
-0.000412862
-0.00039676
0.000745877
0.000454776
-0.000703508
-0.00073748
8.10944e-05
0.000545483
0.000247125
-2.75607e-05
0.000236151
-0.000490904
-0.00119015
0.000545441
0.00224806
-0.00085947
-0.00273038
0.00194311
0.00207194
-0.000474232
-0.00181159
-0.000678511
0.0011107
0.000753223
-0.000351358
-0.000356562
3.08265e-05
0.000286454
0.00024149
9.86802e-05
1.6268e-05
0.000311339
0.000368273
1.66789e-05
-0.000309018
-4.93139e-05
0.00106184
0.00105899
-0.000545006
-0.00150656
-0.00146856
-0.000924717
-0.000501094
-0.000325312
-0.000333569
-0.000123186
-6.36928e-06
-3.86363e-05
-0.000150381
-9.42603e-05
-3.66027e-05
-3.88701e-05
-0.000115948
-1.05089e-05
-3.07544e-05
-2.93769e-05
-9.85523e-06
7.4993e-05
-3.68263e-05
5.60628e-05
5.11623e-05
-1.48515e-05
-1.13129e-05
1.92582e-05
-4.69691e-07
-1.38512e-05
5.33931e-05
5.53793e-05
1.67524e-05
-7.10226e-06
-7.12473e-07
1.50494e-05
1.09723e-05
7.24897e-12
7.34519e-12
7.49764e-12
7.53232e-12
7.55479e-12
7.50269e-12
7.40113e-12
7.61126e-12
7.47857e-12
7.74226e-12
6.48456e-12
9.08689e-12
4.7753e-12
1.24132e-11
3.07282e-13
1.71754e-11
-6.78527e-12
2.31042e-11
-1.06808e-11
3.33037e-11
-2.61264e-11
2.37748e-11
-6.12869e-13
4.12262e-11
-8.65413e-11
9.93147e-11
-1.56906e-11
-5.72099e-11
3.74508e-11
1.89737e-10
-1.65353e-10
-2.95535e-10
1.11604e-11
7.46094e-10
-1.64687e-10
4.58827e-11
-6.29078e-12
-2.83956e-09
-7.29927e-09
-2.41949e-07
-5.39938e-07
-6.21785e-06
-1.41973e-05
-1.9059e-05
-2.0484e-05
-7.72775e-05
9.78376e-05
-3.10156e-05
-0.000774506
0.000262424
0.000951384
-9.96144e-05
-0.000799263
-0.000516231
0.000150906
0.000450513
0.0010671
-0.000107076
-0.00210049
0.0002432
0.0028763
0.000215961
-0.00316489
-0.000249191
0.00266832
0.00135359
-0.00147802
-0.00198432
7.52721e-05
0.00138993
0.000886979
-3.76866e-05
-0.000409198
-0.000106723
0.000304104
0.000503835
0.000370092
-6.81541e-07
3.97908e-05
0.000970541
0.000344037
-0.000984509
-0.0022282
-0.000800452
0.000998169
0.0013158
0.00082228