/*--------------------------------*- C++ -*----------------------------------*\
| =========                 |                                                 |
| \\      /  F ield         | OpenFOAM: The Open Source CFD Toolbox           |
|  \\    /   O peration     | Version:  2.2.x                                 |
|   \\  /    A nd           | Web:      www.OpenFOAM.org                      |
|    \\/     M anipulation  |                                                 |
\*---------------------------------------------------------------------------*/
FoamFile
{
    version     2.0;
    format      ascii;
    class       volScalarField;
    location    "2";
    object      divBf;
}
// * * * * * * * * * * * * * * * * * * * * * * * * * * * * * * * * * * * * * //

dimensions      [1 -3 -2 0 0 -1 0];

internalField   nonuniform List<scalar> 
14161
(
10258.8
-7599.03
-333.886
456.318
1094
1027.4
618.34
623.864
833.092
1100.39
808.763
182.629
-150.226
-33.3614
-120.826
-460.082
-587.191
-141.346
73.8207
79.1331
21.6523
98.2218
-21.602
-288.675
-451.682
-600.187
-777.663
-795.914
-913.285
-1052.27
-1261.23
-1244.79
-1037.63
-754.303
-526.048
298.791
1708.45
4821.85
11718.7
14998.2
67793.9
-56452.2
10693
19105.1
-1533.66
-28051.5
-40046.4
-35740.3
-38307.9
-34128.5
-37308.9
-34411.7
-33581.9
-31206.8
-32045
-31870.4
-30701.6
-28597.2
-27302.7
-26358.5
-25524.6
-23844.5
-21995.8
-20347.6
-18810.5
-17368.2
-15696.3
-14037
-12112.5
-10953.7
-9297.96
-7290.74
-5671.64
-3892.29
-2200.79
-1604.29
21.8348
2139.9
4664.22
7185.92
5347.25
5011.19
7993.24
11839.1
14674.5
11351.3
14306.7
10845.7
15082.8
20061.3
17558.6
17934
11551.3
12349.9
9440.48
4047.66
2644.78
-2826.2
-6464.67
-8888.89
-7720
-8032.83
-7808.19
-10148
-11341.6
-12378
-12076.6
-15165.2
-13684.6
-16525.6
-13353.7
-15738.6
-11674.1
-12756.7
-7329.26
-7695.29
-359.569
-1910.14
4938.24
-28989.6
22104.9
5364.69
2670.93
1342.19
253.531
-72.7712
-276.531
-1098.98
-2106.53
-2236.23
-684.23
-165.141
793.051
1342.07
1968.76
1926.14
677.326
-319.402
-758.159
-1188.37
-1506.46
-2161.7
-1545.79
-1031.74
-851.175
-561.225
-357.427
-202.195
-125.765
-427.377
-664.652
-1023.06
-1318.01
-1620.43
-1986.47
-2249.7
-2505.23
-2648.76
-6072.61
-1711.13
-30973.7
-36002.9
5293.23
-10012.5
-18811.7
-27273.3
-23761.6
-25995.4
-25930.2
-25874.2
-25033.7
-25297
-26386.8
-26577.2
-25569.4
-24891.4
-24247.1
-23946.6
-23053.4
-21792.6
-20364.6
-19145.1
-17872.5
-16233.5
-15133.7
-13604.2
-11709.6
-10920.4
-8576.32
-6917.57
-5812.09
-4183.82
-3129.06
-2022.91
1758.43
4049.24
4785.11
3380.96
261.604
10517
13730.7
12776
6645.03
560.858
14509
40665.5
26430.8
8161.91
11692.4
3554.67
15796.2
10551.8
6490.95
7884.53
906.802
2599.19
8096.3
4495
-1810.1
-103.018
1915.09
-939.281
-8981.42
-1844.59
-5381.98
-6106.1
-7384.29
-6424.29
-8218.3
-5044.67
-7789.04
-3665.44
-6148.15
-1721.08
-3698.95
778.145
-2387.17
2053.32
56249.5
-36721.7
-10131.8
-3397.84
-1140.77
-268.525
308.958
956.858
2352.69
3526.7
3600.88
1727.15
-479.047
-1342.22
-2548.2
-3875.34
-4091.14
-2701.25
-1083.62
-581.375
94.1918
465.14
996.65
306.068
-801.057
-1440.22
-2063.9
-2713.43
-3206.43
-3642.99
-3653.67
-3415.37
-3062.73
-2739.38
-2163.06
-1938.13
-1865.96
-2512.21
-4002.54
-8536.59
-13241.2
-2683.15
-51331.1
7354.28
-25442.5
-18565.2
-30570.7
-39517.5
-26101.6
-23599
-28066.4
-29411.4
-26543.4
-25327.9
-25584.7
-25405.2
-24163.3
-22189.7
-22195.2
-19950.7
-18723.2
-18423.2
-16638.7
-14611.7
-15003.2
-12785.9
-10856.6
-10714.6
-8646.53
-6155.32
-6565.86
-4648.95
-1712
-950.214
1254.35
2205.68
2314.31
4354.7
8015.7
11542.4
12941.9
9838.58
3744.77
19283.9
32299.4
21891
-15065.3
27684.5
26612.3
42336
24909.8
16457.5
4779.47
7193.24
19673.1
13305.4
-4749.98
-1963.42
5197
5780.29
1236.59
-10660.8
4236.22
4200.72
-8668.26
-3477.56
-2597.67
-5205.85
-2529.72
-4680.14
-1995.12
-4625.12
-687.185
-3128.12
590.893
-2372.79
1506.72
-2037.26
1770.49
-73821.1
49873.5
12995.6
4713.03
1427.87
-147.492
-707.838
-1406.37
-3211.47
-5143.32
-5495.88
-2866.77
-696.994
894.685
1857.81
3204.12
3572.04
1631.89
-186.693
-1297.95
-2120.23
-2852.3
-3507.2
-2995.72
-2016.69
-1446.71
-891.284
-523.094
-86.2113
164.925
-31.4595
-642.272
-1248.34
-1848.63
-2439.2
-3058.74
-3685.71
-4684.07
-5608.78
-7480.91
-7457.74
8927.69
-19548.1
-2762.46
-16478.7
-26524.5
-22175
-27933
-29678.4
-22976.8
-27042.4
-28299.2
-25894.1
-23477.4
-24432.4
-23828.5
-22733.3
-21793.3
-20109.7
-20308.5
-18291.2
-17464.2
-16967.4
-13908.6
-13677.2
-11988.2
-9082.33
-9146.39
-6970.66
-5993.72
-4114.2
-2130.56
-571.452
903.22
1829.69
3529.54
7806.79
9438.01
7235.3
4322.14
15911.2
21883.9
16043.8
16120.3
12137.2
4388.23
37233.3
61572.1
-10192.9
31131.3
-4387.42
30836
25983.2
3092.63
4085.69
5764.02
14039.6
12539.6
-8611.83
-6331.86
8386.28
9797.42
-11192.2
457.965
4014.32
-3736.09
-3555.39
-2540
-375.642
-4665.68
-217.491
-2726.94
308.72
-2719.76
1280.93
-2510.4
1487.4
-2246.83
1434.95
88911.9
-56665.3
-16706.3
-5745.57
-2005.49
-745.477
-4.76431
899.257
2673.97
4456.3
5301.58
2025.41
-829.45
-1958.5
-3514.51
-5149.94
-5772.57
-3984.44
-2298.32
-1336.84
-274.002
212.268
769.793
102.857
-1072.19
-2134.58
-2980.79
-3672.72
-4434
-5038.46
-5164.95
-5027.81
-4527.9
-4037.7
-3719.81
-3378.18
-3313.77
-3755.06
-4456.75
-5921.65
-1922.89
-2487.04
-26719.3
-6452.37
-15301.6
-21823.8
-30094.6
-27991.5
-32597.7
-32949.5
-33576.5
-29739.7
-27934.5
-26182
-27187.2
-23523.5
-22192.7
-19647.7
-17903.7
-19008.8
-14108.9
-13782.4
-12581.1
-9084.64
-9002.64
-7900.02
-5175.26
-5055.14
-3996.68
-1565.67
-871.181
299.139
1873.14
3175.35
4374.03
6925.75
9070.17
8839.72
9294.48
11677
18445
17906.1
7666.95
26700.9
44688.6
42423.3
14207.8
11868.3
44770.7
20436
34323.7
23744.1
12993.5
16126.6
20454.5
10939.6
-583.929
141.198
12046.3
13140.1
-10234.7
-2102.65
6770.05
-2566.02
-6406.91
-399.623
1342.63
-4303.95
-1502.46
-2297.05
-392.145
-2790.22
648.097
-2316.87
1226.35
-2040.4
1593.27
-2221.7
1388.87
-105109
67888
17761.3
5815.5
1376.8
-508.224
-1227.14
-2530.08
-4365.87
-6272.87
-7322.32
-4073.49
-1188.94
166.698
1782.46
3204.51
3869.46
2205.73
190.494
-1502.46
-2155.06
-3014.2
-3899.84
-3592.77
-2700.41
-1922.03
-1356.99
-848.591
-269.262
-60.9677
-115.746
-486.63
-1114.98
-1806.76
-2527.81
-2932.81
-3669.71
-4123.95
-4005.86
-4333.65
-55.3281
-9509.12
-14732
-4376.4
-13487.6
-24838.5
-29280.7
-26823.3
-29746.3
-30437.6
-26961.5
-25506.8
-24595
-24157.8
-22286.9
-20297.6
-21144.4
-18305.9
-17357.6
-15067.9
-14064.4
-11328.5
-10489.5
-8809.67
-8888.99
-6395.27
-5542.64
-4272.99
-2295.13
-1560.04
-104.053
1277.15
2615.09
4593.68
6304.29
6772.98
7572.55
8981.03
13601.8
16100.3
9599.82
5665.51
26690.6
35644.6
14984.9
29485.2
23494.3
35862.2
17410.2
26595.2
21624.6
24500.4
24626.3
19822.6
14614.9
10959
15053.1
14649.1
6216.5
-2375.31
6278.41
10143.8
-5897.46
-1619.78
6661.6
-2570.24
-2516.68
-493.038
-847.985
-2936.3
128.976
-2656.91
952.046
-2531.89
1297.53
-2380.61
1614.73
-2423.92
1462.6
108207
-67533.8
-20295.2
-7257.41
-2841.2
-1294.47
-481.032
546.782
2440.46
3986.73
5260.42
1912.32
-699.942
-2205.71
-4193.17
-5783.19
-6301.76
-5080.52
-3248.65
-2000.13
-1442.32
-654.535
-41.562
-321.055
-1588.15
-2622.43
-3373.68
-4298.79
-5153.81
-5779.41
-6104.38
-6133.77
-5862.49
-5375.47
-4679.29
-4021.32
-3297.97
-2816.87
-1906.03
-3233.74
6988.67
-41960.8
-18464.4
-18865.5
-23570.3
-25749.7
-22341.4
-20212.6
-22561.3
-19913.2
-20881.1
-17343.1
-18623.8
-16172.1
-16259
-14622.3
-14987.2
-13275.2
-13099
-11787.6
-11026.8
-10023.1
-9793
-8522.53
-6654.31
-5438.42
-3277.69
-2352.1
-619.542
508.952
1754.4
3133.31
4858.78
5230.03
7007.9
7986.37
10332.9
12339.6
11674.7
11625.1
15499.1
21722.8
14860.1
21759.3
23721.3
36027.8
24083.7
25602.5
18926.8
29814.9
19503.3
30019.9
22194.9
25129.9
28634.1
22158.4
14106.9
5361.69
6319.69
9172.9
4096.6
-2416.13
3353.11
4845.52
-3369.32
-2193.91
917.344
-2296.38
-1130.85
-1985.69
-548.723
-2797.28
632.962
-2440.39
1034.52
-2406.76
1781.31
-2427.05
1669.33
-121462
75973.1
19647.7
6206.89
1404.82
-339.444
-1275.31
-2298.71
-3917.72
-5595.74
-7209.29
-4246
-1790.96
-755.602
1107.41
2677.27
3429.7
2361.08
448.92
-1132.68
-2107.55
-2628.48
-3367.99
-3585.09
-2854.84
-2397.07
-1886.74
-1378.48
-871.909
-609.53
-620.183
-865.522
-1163.68
-1653.65
-1998.17
-2420.89
-3110.51
-3446.31
-3686.74
-2889.86
-7748.19
-45610.2
-37271.5
-31265.3
4019.53
-9302.63
-8078.88
-11611.5
-13765.2
-14552.5
-14786.4
-15052.8
-15079.9
-14926.7
-14362.9
-13280.6
-12830.6
-12156.7
-10964.4
-10324.9
-8876.15
-8395.24
-6978.7
-5263.98
-4065.39
-2756.95
-2039.66
-880.59
112.348
1328.75
2622.55
3753.69
4998.91
6120.06
7942.52
9019.42
10494.5
11797.1
12410.9
15476
18908.8
21236.4
21526.9
29494.7
32925.3
30067.4
27190.6
31930.1
22782.2
24073.2
19967.3
25050.6
24589.4
22049.8
21952.1
21855.7
17457.3
18363.1
12134.3
6624.34
5635.36
5297.3
3800.31
-128.401
1734.13
1117.26
-159.623
-1544.03
190.571
-1787.53
-162.654
-2350.03
519.305
-2691.18
1005.88
-2525.91
1658.63
-2611.8
1780.81
114519
-68861.3
-20839.5
-8801.18
-3961.34
-2006.76
-1256.82
-263.062
775.536
2049.53
3396.97
1014.4
-1224.79
-2427.94
-4089.05
-5561.81
-6284.03
-5502.9
-4048.89
-2882.86
-2280.26
-1829.92
-1370.72
-1358.68
-2315.44
-2901.01
-3620.11
-4482.91
-5288.23
-5865.25
-6218.14
-6347.03
-6472.08
-6463.66
-5890.33
-5353.15
-4332.92
-4027.84
-3785.44
-4907.47
-7845.04
-49578.9
-133560
-3855.74
7644.59
674.243
-3332.9
-4337.37
-6482.45
-5725.67
-8077.12
-6584.42
-8489.56
-9121.42
-9258.75
-8881.73
-7998.07
-7920.86
-6746.89
-6055.14
-5153.15
-4652.57
-3038.62
-2482.48
-1347.27
-481.063
886.371
1363.36
2928.49
3579.07
4698.99
5483.31
6897
7680.46
9137.18
10315.5
11324.5
13305.1
14198.8
16383.7
15713.2
22725.8
27551.1
28619.1
28820.8
26257.3
24875.7
24578.4
20146
26444.2
21023.5
24787.8
23644.4
20538.2
22147.1
24177.8
18203.2
21021.8
14998.2
11584
8227.06
3673.27
3615.27
2614.98
1880.74
-614.055
235.083
-875.959
-968.155
-2241.99
-788.996
-2430.58
95.22
-2689.1
749.382
-2664.33
1509.2
-2597.12
1913.42
-122418
73360.3
18857.9
6745.04
2121.01
113.795
-1012.43
-1671.01
-2863.55
-3867.83
-5224.38
-3447.3
-1867.8
-994.864
385.24
1537.14
2220.06
1694.44
197.528
-1001.43
-1906.9
-2373.71
-2767.05
-3349.52
-2998.09
-2710.72
-2451.57
-2007.36
-1665.77
-1449.15
-1642.94
-2103.33
-2668.88
-1960.73
-1170.5
-2165.27
-3153.4
-4160.54
-3954.43
-4162.92
-8055.3
-32545.2
-111969
-28066
2319.12
-2265.62
-3376.38
-7769.48
-8006.25
-8061.86
-9397.16
-9468.08
-12416.9
-10449.3
-11010.2
-8779.84
-8763.25
-7046.17
-6595.07
-5376.51
-4695.71
-3218.59
-2293.32
-1069.66
-38.3921
1112.71
2282.57
2964.43
4397.18
5258.53
6381.14
7235.82
8562.24
9145.24
10669.6
12054.2
13191.2
14948.5
15921.2
18503.2
19754.1
26037.2
30335.5
30409.6
27828
24812.9
25988
27410.9
23880.4
27383.7
22916.9
27017.3
22739.7
26627.9
21720.9
23296.2
18054.9
20957.8
16477
12250.7
7851.01
5719.99
4906.23
2713
1995.29
623.517
798.504
-669.857
-319.28
-1273.08
-773.602
-2023.04
274.68
-2702.17
919.325
-2830.07
1334.61
-2724.02
1946.85
110438
-65266
-19783.2
-9254.73
-5114.63
-3460.42
-2431.98
-1758.23
-900.403
-196.802
965.481
54.7259
-1747.44
-2773.81
-3738.2
-4665.02
-5298.53
-4996.19
-4130.61
-3435.96
-3006.08
-2543.98
-2444.55
-2093.7
-2609.17
-2995.35
-3525.3
-4370.24
-5170.12
-5493.05
-5607.96
-5314
-5047.87
-5662.83
-7154.83
-6997.32
-5980.06
-5700.78
-4758.8
-5228.75
-4146.03
-23373.9
-49559.8
-34501
-24757.7
-19355.8
-18168.4
-16706.9
-15168.6
-13284.7
-14061.6
-10955.7
-11801.3
-7823.94
-9170.11
-6781.66
-7283.81
-5632.98
-4846.3
-3168.59
-2188.17
-1181.75
-143.039
660.568
1803.01
2752.84
4161.13
5323.49
6374.1
7447.56
8601.15
9350.31
10486.8
11238.2
13165.3
13823.2
14842.1
17289.3
18234.5
22663.2
25435.5
32388.3
32034.7
26480.7
24981.7
20187
22985.5
23649.9
20234.6
24341.5
20788.7
21787
21180.4
23361.8
20113.6
19408.3
19029.8
18485.2
16777.4
14267.5
10745
7393.14
5617.06
3454.54
2519.66
894.63
890.312
-607.809
-248.832
-1455.39
-799.119
-1903.02
-398.996
-2659.06
550.566
-3081.89
1144.55
-2858.38
1993.39
-109239
65009.8
16326.7
6035.32
2214.19
707.887
-534.868
-1401.64
-1889.36
-2417
-3231.65
-2825.21
-1991.46
-1331.93
-489.425
176.429
540.125
272.428
-830.259
-1703.99
-2071.44
-2044.2
-2613.01
-2980.48
-3191.19
-3159.84
-3136.67
-2816.73
-2346.05
-2371.49
-2599.93
-2881.87
-3318.27
-3779.44
-3908.61
-4376.88
-4971.03
-5616.3
-5886.19
-7031.83
-4633.82
-23794.3
-40234.7
-27095.2
-32622.3
-24935.1
-18629.1
-20537.7
-17595.1
-19575.3
-18030.1
-18455.7
-12109
-12743.1
-8377.33
-7792.29
-6366.09
-4325.09
-3666.46
-1489.77
-1890.08
26.6572
474.821
1699.07
2197.68
3067.04
4189.73
5061.32
6392.86
7571.06
8707.34
9987.23
11357.8
12087.4
13991
14327.6
15845.5
17965.2
18691.8
25888.2
29470.3
32349.7
31122.6
27912.1
27468.8
26541.2
23689.8
23673
20978.3
23213.8
20041
21243.3
17857.2
23708.8
19249.5
18368.9
20514
17259.2
18869.3
18511.4
14186.3
10188.2
7242.97
4745.64
3430.57
1764.92
1523.26
334.337
180.71
-968.921
-359.099
-1882.03
-571.024
-2219.54
426.226
-3154.3
1319.94
-2985.51
1976.48
96420.6
-59038.1
-17966.5
-8639.85
-5400.23
-4125.02
-3224.49
-2527.08
-2006.7
-1650.04
-781.113
-975.669
-1938.36
-2437.64
-3096.48
-3562.07
-3984.54
-4115.97
-3799.12
-2984.53
-2688.17
-2982.9
-3079.15
-2962.81
-3020.06
-3157.75
-3361.91
-3723.8
-4212.54
-4559.45
-4815.66
-4874.72
-5014.04
-5149.62
-5353.17
-5453.35
-5466.92
-5648.74
-4979.34
-6037.21
-2441.89
-15077.3
-22602.3
-27952.8
-41968
-35023.9
-23625.6
-22621.6
-13194.9
-17017.3
-10427.1
-12767.4
-7507.63
-10450.1
-8448.97
-7234.68
-7340.88
-3704.05
-4291.78
-2848.12
-667.768
1236.3
1863.56
3459.44
3915.31
4967.45
6017.15
7023.18
7996.07
9153.38
10235.1
10845.8
12303.1
13490.9
15459.7
17150.3
19422.4
22186.4
23647.2
30304
34266.1
31392.3
31255
24209.3
25272.5
22062.5
22159.7
21985.7
20904.3
20962.8
21615.6
19835.5
17718.1
21729.9
17002.2
21676.3
18119.2
18664.5
16771.1
17785.6
13653.7
9871.64
7046.38
4594.48
3450.04
1950.14
1374.17
84.2093
162.874
-849.228
-768.633
-1692.3
-1040.47
-1889.37
-26.7922
-3140.57
1173.05
-3347.48
1869.99
-80124.3
48335.6
12243.6
4039.23
1025.5
167.191
-334.48
-1225.68
-1869.05
-2202.29
-2646.58
-2436.2
-1849.79
-1733.93
-1488.5
-1079.8
-1254.78
-1350.3
-1358.4
-1783.52
-2316.66
-2572.66
-2912.57
-3145.5
-3315.96
-3373.51
-3418.26
-3475.76
-3461.43
-3593.83
-3825.98
-4050.76
-4387.98
-4764.28
-5327.63
-5870.09
-6639.84
-7160.32
-8061.41
-8933.96
-5119.35
-17253.6
-22982.7
-32919
-51311.4
-45181.4
-34858.1
-29432.5
-20807.2
-18756.9
-14051.4
-13071
-10912.5
-9821.45
-8312.7
-6891.97
-4781.4
-3434.52
-2387.13
55.2459
-116.174
929.056
1827.91
2825.17
3623.99
4742.06
5691.4
6408.58
7601.71
8882.21
10135.5
10865.1
12061.6
12920.3
15059.6
15956.5
18721.6
22909.6
21613.6
28785.3
25153.3
30213.1
26489
25938.1
25295.1
24586
24821.2
24005.6
25733.2
22301.4
27972.3
19259.6
20583.1
21031.1
15160.8
24290
14006.6
20860.5
13968.6
17155.4
13854.5
11188.7
8073.11
5591.68
4341.5
3074.29
2305.36
1258.56
521.259
-50.2418
-389.084
-1100.85
-928.2
-1541.36
-510.134
-2765.48
914.837
-3434.5
1796.39
68978.1
-45482
-14556.6
-6842.68
-4573.31
-3723.58
-3064.61
-3059.33
-2370.62
-1493.27
-961.154
-1660.07
-1891.06
-2082.32
-2428.76
-2727.07
-2922.35
-3021.57
-2982.5
-2933.96
-2899.23
-2913.32
-2948.53
-2931.95
-3049.39
-3195.39
-3392.65
-3582.93
-3781.56
-4001.67
-4172.45
-4314.32
-4535.9
-4761.58
-4814.18
-4872.05
-4674.08
-4739.65
-4317.55
-6041.87
-6623.38
-19257
-65855.6
-49789.5
-32024
-30172.4
-21602.2
-20857.5
-14880.4
-14966.7
-11115.3
-9636.59
-7755.27
-5829.52
-5318.83
-2889.95
-2552.58
-818.144
1103.38
2149.37
3288.55
5422.37
5621.69
6409.14
7119.11
8470
8852.95
9318.16
10482.8
10991.7
11764.5
12740.6
14387.2
15234.9
17547.7
18846.7
24141.2
24335.3
34809.1
30198.3
41576
25660.7
36557.6
24089.9
30525.9
20824.6
26946.8
20632.6
26525.2
22263.7
20327.8
19395
19095.4
21706.7
16507.7
23586.2
13578
18706
11996.1
16168.5
13210.3
10767.6
7581.29
5287.27
4387.02
2930.22
2352.15
943.363
408.38
-151.765
-982.328
-787.68
-1448
-1652.48
-986.268
-2682.55
610.4
-3722.5
1751.81
-47706.2
29796.5
7121.21
1512.24
-678.062
-989.306
-1150.54
-1317.49
-1983.44
-2317.92
-2563.28
-2329.76
-2365.39
-2277.24
-2047.66
-2068.11
-1944.39
-1993.87
-2081.99
-2279.7
-2493.34
-2722.98
-2926.09
-3092.12
-3242.97
-3387.93
-3514.5
-3646.78
-3790.81
-3936.14
-4161.65
-4441.78
-4708.74
-5069.4
-5523.9
-6103.12
-6720.55
-7386.4
-7472.65
-8352.47
-13092.4
-55048.3
-150640
-65363.8
-34134.9
-23718.6
-9512.23
-7101.76
47.624
-39.1679
633.951
-1497.24
-1656.01
-2332.07
-1682.16
-803.172
29.9191
2208.23
1994.89
4735.75
4893.47
6696.7
6709.41
7823.74
8473.78
9109.19
9270.88
10419.1
10638.2
12097.9
12847.6
13943.1
14750.6
16286.3
18242.6
19504.1
27186.4
25658.5
40397.1
36629.7
44553.4
32638.9
40876.4
31446.8
36776.1
31958.8
33051.1
28179.8
29007
25941.3
21022.4
21573.9
16896.2
15457.9
14005.8
15508.3
15940.5
15065.6
14429.8
15001.8
13440.4
12611.8
9674.03
7247.53
5974.44
4923.41
3544.86
2149.86
1281.49
834.726
-824.11
-161.937
-1293.18
-1007.8
-1217.77
-2080.77
124.53
-3870.31
1578.98
40428.9
-29652.4
-10243
-5260.91
-3453.94
-2561.46
-2504.8
-2387.68
-1900.57
-1826.52
-1711.5
-1690.2
-1777.4
-1985.82
-2214.51
-2376.54
-2493.85
-2616.57
-2751.14
-2787.05
-2824.76
-2855.58
-2944.81
-2999.94
-3108.27
-3250.75
-3399.36
-3545.99
-3706.41
-3900.34
-4061.04
-4150.04
-4294.61
-4329.22
-4425.34
-3994.85
-3682.24
-3502.23
-3665.79
-5156.38
-9095.67
-96592.1
-54563.8
-47957.8
-31970.6
-16622.1
-7986.6
-7281.16
-3015.39
-5468.24
-1406.43
-6615.16
-5160.01
-4682.78
-2823.06
-1606.3
-810.541
2106.97
2226.94
6522.43
4899.36
6686.64
7721.84
9315.02
10332.1
10442.5
11302.9
12510.4
13384.3
14424.3
15543.9
16577.9
17976.9
19221.8
21866.4
26482.8
32560.4
38836.9
40674.4
43747.7
37381.1
35883.3
32689.1
30572
27445.9
26782.4
24673
24667.1
21799.2
23783.6
21150.4
21974.8
16985.8
13817.8
16104.7
4508.77
16464.6
10065.3
12980.5
12058.2
13471.2
12022.9
10307.1
7911.12
6038.47
4561.01
3108.29
2070.43
1313.63
572.458
25.9112
-562.65
-1139.28
-1137.71
-1192.31
-1822.91
-583.068
-3768.87
1478.4
-22669.9
14372.4
2768.1
-477.1
-1540.6
-2035.16
-2158.83
-2117.07
-2060.02
-2260.62
-2381.21
-2400.16
-2383.27
-2313.5
-2275.93
-2280.52
-2253.02
-2310.75
-2403.47
-2502.71
-2612.33
-2752.98
-2903.85
-3038.68
-3171.41
-3306.09
-3440.6
-3577
-3727.02
-3934.07
-4049.17
-4224.82
-4403.64
-4546.11
-4715.54
-5242.62
-5607.65
-5898.19
-6333.45
-7986.59
-21646.1
-90344.9
-24408.8
-36251.8
-49935.6
-48033.9
-34308.2
-20999.4
-15267.5
-17351
-13471.3
-7199.16
-4271.31
-3276.96
-510.018
-522.72
675.356
3150.99
1761.09
5189.98
6324.54
5104.04
7434.89
8506.13
9171.88
10601.1
11164.8
11823.7
13116.5
13784.8
15205.4
16585.9
17348
21759.9
21974.6
31447.8
35462.7
50294.8
48492
48114.6
42338.3
41845.6
37586.4
42887.9
35486.6
31085.6
28304.7
22487.8
17700.9
14673.4
18203.9
16459.8
20281
12416.3
13326.1
11566.5
12665.7
8436.78
12536.3
10381.5
11769.6
11168.2
9537.77
7587.59
6366.32
5147.84
3784.15
2753.92
1657.48
1052.62
178.994
219.872
-1211.49
-482.214
-1268.58
-1598.65
-1182.97
-3509.17
1096.26
19631.6
-16695.4
-7019.88
-3291.7
-2245.67
-2234.45
-2297.23
-2093.95
-1885.17
-1873.46
-1922.91
-1953.65
-1985.54
-2082.06
-2185.1
-2284.35
-2397.42
-2497
-2588.03
-2674.7
-2738.11
-2807.6
-2886.2
-3005.1
-3106.9
-3234.98
-3384.83
-3514.55
-3730.06
-3877.06
-4017.26
-4210.97
-4365.98
-4495.21
-4561.73
-4576.37
-4682.77
-4512
-5367.3
-9198.14
-30380.4
-85226.8
-19725.6
-15362.5
-34852.7
-38849
-58151.4
-48154.8
-28706.4
-9269.18
-7841.02
-2003.19
-2255.02
592.497
-1581.64
2680.74
72.0007
4801.27
3540.82
6155.75
7471.25
8152.44
7494.61
9316.78
9808.66
10639.5
11600.4
12452.5
13173
13797.5
14342.2
15220.3
18217.9
18181.3
28087.6
25958.4
46046.9
48368.2
55588
45742.1
46800.5
40818.1
39065.6
36978.4
41228.9
40588
30161.3
24804.5
18320.8
12091
11801.5
8421.62
11437.3
8029.09
7317.15
12875.3
6148.79
14272.5
7299.76
9590.7
10383.4
9312.56
9489.61
7673.4
6720.98
5366.1
4209.34
3020.13
2093.61
1321.37
529.846
286.311
-1329
-273.08
-1459.42
-1398.87
-1573.38
-2979.59
558.309
-8402.3
5043.37
-372.099
-1891.08
-2252.92
-2358.78
-2219.05
-2195.76
-2195.78
-2218.5
-2237.82
-2258.4
-2265.14
-2261.78
-2276.84
-2307.71
-2354.89
-2377.35
-2466.62
-2555.92
-2636.72
-2753.54
-2847.92
-2963.33
-3097.96
-3224.67
-3362.41
-3530.68
-3666.58
-3758.15
-3914.87
-4023.17
-4127.96
-4251.49
-4302.56
-4395.14
-4423.64
-4684.74
-6087.26
-7317.38
-70650.1
-38150.2
-14006
-8921.46
-17085.3
-22373.3
-31252
-50800.1
-40477.1
-26973.2
-22119.1
-9224.02
-10940.5
-2953.87
-5246.73
1324.71
242.019
6352.38
5710.29
8585.16
7770.05
8596.56
9268.18
9200.8
10203.1
10629.3
11382.8
12908.8
13631
14202.9
13694.6
16344.2
17610.7
24591.8
26321.2
48265.9
50972.8
62424.8
46826
55230.7
44429.2
48051.6
39438.4
33474.8
22888.7
22405.4
21970.3
30011.1
25063.1
21314.4
15016.1
9133.29
10570.8
8526
8270.79
6464.59
5225.33
6501.14
5608.37
7360.96
8280.22
9662
9448.39
7598.35
7390.85
5738.04
4380.92
3205.67
2227.52
1466.78
538.704
579.19
-997.456
75.6033
-1779.21
-1198.84
-1672.01
-2820.66
103.982
8030.49
-8465.82
-4098.57
-2683.65
-2327.28
-2192.53
-2083.34
-2046.02
-1997.96
-2019.72
-2027.23
-2040.79
-2073.47
-2138.55
-2220.45
-2284.78
-2361.73
-2386.77
-2461.74
-2574.14
-2658.12
-2754.94
-2846.92
-2938.74
-3082.04
-3187.17
-3297.78
-3458.51
-3647.6
-3777.47
-3942.02
-4135.72
-4257.69
-4432.78
-4614.9
-4678.37
-4884.1
-5046.23
-6958.15
-11058.8
-83231.2
-15802
-5527.87
-9624.52
-11973.3
-12764.3
-18146.4
-37607.3
-44707.2
-49255.1
-28369
-22740
-11352.6
-10512.1
-1080.16
-1367.79
4536.4
4271.46
6846.87
9515.43
8802.7
9067.59
10108.6
10905.4
10931.9
11569.7
11653.8
13053.9
14602.2
16325.2
17494.7
20276.4
27391.8
38359.2
52899.9
64837.5
59525.9
53615.9
40801.5
39103.8
32267.4
34989
30931.3
32924.8
20767.7
17705.5
13827.6
13146.4
11952.4
11056.7
8036.15
8333.19
7805.68
10047.9
8717.43
5456.4
6740.1
4636.5
5689.84
5975.11
6972.3
7520.2
8320.4
7882.48
7379.34
5670.66
4603.04
3521.31
2649.42
1850.49
899.936
607.08
-687.012
200.248
-2047.62
-508.242
-1848.87
-2125.72
-669.542
-2195.04
218.081
-1690.2
-2304.86
-2433.26
-2278.84
-2220.41
-2160.64
-2159.7
-2142.38
-2139.14
-2130.71
-2182.62
-2208.6
-2238.31
-2283.25
-2334.56
-2370.87
-2407.62
-2503.81
-2569.18
-2668.75
-2792.98
-2865.69
-2969.14
-3149.9
-3222.71
-3363.47
-3509.52
-3647.3
-3734.86
-3934.46
-3997.76
-4160.81
-4324.71
-4494.75
-4694.36
-4956.72
-7153.68
-20953.8
-71157.9
-16248.4
-7118.45
-7638.96
-8352.35
-5700.87
-12807.1
-20980.1
-37273
-49204.8
-46855
-39633.7
-17972.7
-17162.9
-1498.5
-3265.81
6212.03
6899.47
8184.42
8499.56
8342.96
10527.4
10893.6
13678.3
11613.6
13700.6
14179.2
18318.5
23829
34766.5
43589.3
57511.4
69835.1
84909.9
82934.7
59255
37251.9
18540.6
18030.5
10388.1
11318.9
4903.61
8528.1
6414.54
14167.8
15793.7
13390.5
8730.87
10670.8
10908.9
8942.47
6676.58
4924.02
2655.49
2834.05
1485.21
2107.34
3588.04
4264.9
4856.65
5011.78
6895.42
7399.86
7461.05
7231.16
5801.04
4745.41
3955.67
2820.81
1977.71
977.104
827.007
-260.943
408.235
-2013.15
-226.878
-1774.62
-1937.64
-1251.24
3105.4
-4443.81
-2976.99
-2515.46
-2256.65
-2129.08
-2116.53
-2021.48
-2044.27
-2035.97
-2036.15
-2052
-2093.73
-2109.33
-2163.98
-2235.78
-2301.74
-2377.41
-2381.1
-2458.14
-2551.06
-2626.44
-2751.25
-2893.87
-2950.15
-3085.19
-3201.47
-3361.05
-3513.77
-3693.78
-3835.6
-3973.35
-4212.39
-4411.32
-4593.56
-4962.06
-5091.9
-6001.66
-8803.42
-30676.3
-66581
-10189.2
-4348.54
-3924.72
-7208.02
-3053.58
-8816.72
-12851.4
-26507.7
-36055.8
-55048.3
-48949.6
-34015
-25341.9
-7033.29
3420.42
8477.06
10879
10835.5
11136.6
11165.9
17748.5
16665.2
25303.8
28279.8
42587.1
51601.3
66307.3
79388.7
97377.3
109358
91969.5
76178.4
52232.8
32013.9
12225
6858.7
-2474.02
-7963.58
-8045.4
-11189.4
-7556.66
-9242.49
-4642.28
-34.3598
-116.108
1977.76
3810.64
1281.07
4038.6
3954.28
5789.41
4114.97
3316.51
2080.86
2408.63
1807.4
1657.97
1046.97
2583.44
3535.69
5608.83
6716.55
7336.56
6641.36
5444.21
4293.78
3595.27
2719.25
1981.19
1131.34
967.7
-35.9161
420.04
-2149.65
607.474
-1930.71
-1408.96
-1788.27
106.856
-1974.44
-1994.45
-2331.66
-2305.98
-2184.94
-2151.19
-2063.83
-2080.11
-2058.01
-2033.34
-2054.79
-2097.43
-2112.13
-2134.58
-2194.48
-2255.28
-2329.25
-2341.87
-2397.26
-2507.13
-2570.04
-2665.85
-2832.34
-2835.68
-2987.9
-3176.2
-3259.17
-3369.92
-3470.26
-3680.66
-3741.35
-3894.73
-3945.09
-3981.64
-4052.03
-4091.84
-5349.49
-6332.15
-65648
-24730
-12856.7
-7832.97
-7153.7
-8997.75
-3005.25
-4033.42
-7259.04
-10258.8
-18491.9
-31573.6
-46037.3
-51024.5
-35040.5
-10917.9
850.655
13426.2
20037.8
17094.2
30744
32211.6
51264.7
57772.6
81290.4
96320.7
114606
103542
92286.5
77236.9
57571.8
45816.7
43265.7
35254.3
22536.2
13899.2
2508.78
-1733.08
-6898.56
-10341.5
-14183.9
-14720.1
-17327.2
-16224.2
-12778.2
-10631.1
-9522.72
-5470.55
-2152.8
-164.874
-674.579
1109.2
-465.504
-1463.28
-640.428
-185.702
-640.71
-322.45
-563.549
-300.134
992.397
2088.08
4359.36
5949.3
6889.12
6366.71
5408.57
4811.05
4240.66
3242.95
2403.6
1449.33
1217.47
487.631
333.031
-1173.73
714.388
-1898.45
-1095.51
-2195.21
1477.62
-3211.31
-2399.12
-2302.8
-2139.05
-2089.36
-2070.9
-1989.93
-2000.7
-1975.39
-1988.07
-1998.36
-2025.17
-2076.58
-2067.77
-2123.8
-2188.36
-2232.1
-2340.58
-2336.81
-2434.35
-2513.13
-2597.42
-2724.25
-2819.02
-2959.7
-3083.91
-3125.44
-3373.15
-3509.75
-3620.03
-3837.39
-4012.65
-4147.59
-4298.69
-4628.07
-4606.09
-6779.94
-9376.04
-68060
-12623.6
-5452.63
-8224.42
-9376.48
-10906.1
-2021.92
-1917.97
-1623.94
-3222
-7951.28
-15731.3
-22822
-38974.8
-35337
-10809.3
14836.6
31599.1
47438.1
62264.9
91215.8
107518
103812
96170.1
80285.2
70840.8
54012.5
52548.2
50567.7
44721.1
33930.7
25716.9
24180.4
18029.9
12172.6
7219.04
1844.64
-1955.96
-5935.64
-8918.75
-10775.7
-13177.1
-15788.8
-19252.2
-22108.7
-21120
-12921
-6784.03
-4894.06
-4760.63
-3774.66
-2486.24
-2274.37
-1963.71
-1594.11
-2025.07
-2224.25
-2318.35
-1641.16
-1193.27
-690.086
840.609
3352.08
5190.08
6636.68
5908.05
5227.67
4610.39
4025.66
3116.27
2316.75
1609.42
1358.86
709.118
570.218
-849.993
665.553
-1839.22
-814.7
-2311.85
443.349
-2334.93
-2048.48
-2098.04
-2125.28
-2092.42
-2048.12
-1977.79
-1958.38
-1951.43
-1939.31
-1959.16
-1982.91
-2035.71
-2064.17
-2039.33
-2122.46
-2199.05
-2260.07
-2271.1
-2348.23
-2475.32
-2539.33
-2617.83
-2727.2
-2886.64
-2984.48
-3114.7
-3168.62
-3416.75
-3479.95
-3713.45
-3952.25
-4081.32
-4240.33
-4577.48
-4855.29
-7024.4
-18118.9
-61471.5
-16415.4
-6009.96
-7035.56
-6663.4
-6293.04
2885.48
3868.15
4739.31
4830.74
2506.55
-1182.42
-5773.6
-2492.25
3030.84
13553.3
64999.8
90882
111844
105447
78561
78541.9
55411.9
65127.5
48730
51236.6
39561.4
35154.7
31950.9
27435.4
24652.5
17031
14905.6
10034.2
7793.58
4429.44
1678.71
-43.2438
-2115.63
-4161.82
-7339.38
-9464.44
-11615
-12275
-14607.1
-16703.6
-19271.3
-17795.8
-14387.8
-9273.09
-7390.71
-6191.16
-3727.02
-3016.15
-2739.22
-2689.78
-2975.75
-2974.89
-2810.78
-2305.26
-1135.56
108.504
2360.7
4272.62
6040.12
5633.06
5184.73
4657.24
4182.64
3422.67
2696.79
1900.14
1593.52
903.345
729.991
-519.022
660.368
-1541.62
-470.416
-2499.08
711.882
-2527.44
-2112.81
-2051.49
-2009.24
-2000.31
-1953.25
-1924.4
-1889.19
-1881.57
-1890.9
-1897.82
-1922.6
-1957
-2010.95
-1992.68
-2025.25
-2105.05
-2148.79
-2255.58
-2271.36
-2393.27
-2463.36
-2539.48
-2735.3
-2738.41
-2844.84
-3020.46
-3201.91
-3293.66
-3354.9
-3501.75
-3666.03
-3837.61
-4030.39
-4330.22
-5352.88
-7381.9
-33843.5
-62455
-10693.8
-2546.64
-1450.08
-1333.96
-1524.05
5665.18
5608.2
4636.18
5030.18
6461.4
6287.21
7967.6
23053.9
57628
102050
116886
89853.7
64339
66296.4
50324.7
48617.3
43192.7
37245.6
36386.9
31540.7
28567.7
22958.9
22334.9
19232
19429.4
15182.8
13131.1
12636.2
9527.01
6779.97
3577.75
1200.56
-372.338
-1439.82
-2735.16
-5221.85
-7707.59
-10110.9
-12062.9
-13307.8
-16595.1
-17492.1
-12779.5
-7715.56
-5496.6
-5386.42
-6220.59
-6727.96
-5964.83
-5134.37
-4513.41
-3935.6
-3282.69
-2729.27
-1640.17
-664.715
1430.29
3359.71
5268.35
5263.05
4798.27
4495.33
4080.99
3479.46
2693.52
1989.2
1659.98
970.135
940.562
-369.662
832.839
-1382.64
-359.505
-2607.78
411.433
-2257.56
-1861.26
-1953.89
-1929.05
-1914.66
-1898.05
-1882.51
-1850.57
-1820.46
-1837.99
-1840.48
-1855.26
-1886.84
-1927.47
-1934.92
-1973.57
-2030.32
-2104.65
-2161.99
-2202.85
-2301.39
-2405.01
-2440.74
-2578.87
-2667.33
-2732.06
-2897.83
-3073.62
-3157.22
-3262.75
-3384.34
-3454.53
-3564.44
-3746.01
-3759.44
-5144.75
-9966.63
-62134.3
-30875.3
-15185.8
-8054.66
-6052.08
-5092.1
-4345.7
4569.6
5759.99
7011.92
9835.76
15421.7
24633.3
44993.5
86615.8
144778
125213
71109.1
54810.3
44708.7
36715.6
39286.7
26853.4
26693.8
26075.4
21090.9
21636.6
16895.5
19818.7
15442.8
16428.9
14606.8
14999.7
12896.8
14076.3
11234.5
9936.99
6898.31
4610.64
1766.18
75.2536
-1450.1
-2820.85
-3841.64
-5134.53
-7620.07
-10322.8
-12162
-14655.3
-17438.2
-18078.2
-14980.3
-11197.8
-8722.09
-7156.48
-6502.79
-5104.45
-4280.52
-3957.33
-3113.21
-3422.82
-2327.92
-1122.93
829.081
2687.57
4350.06
4642.62
4419.48
4169.93
3999.9
3597.47
2809.99
2270.84
1769.27
1058.92
1198.48
-104.286
936.19
-1314.58
-197.582
-2502.25
418.183
-2216.83
-1800.35
-1846.62
-1846.19
-1866.37
-1781.15
-1808.62
-1744.68
-1771.95
-1775.28
-1773.89
-1784.56
-1808.14
-1850.38
-1888.1
-1915.09
-1953.29
-1994.55
-2020.11
-2131.21
-2188.59
-2291.6
-2340.4
-2427.19
-2594.86
-2621.48
-2800.55
-2872.7
-3003.28
-3182.1
-3297.29
-3373.75
-3460.03
-3850.88
-4185.01
-6435.83
-14854
-71072.9
-9997.69
-6060.66
-6690.83
-6384.08
-5539.27
-4829.17
4271.14
5730.22
9853.22
16764.7
29340
52308.9
97607.5
165437
120695
73396.2
46509.3
33271
32497.8
26252.1
22041.5
21720.2
19197
14691.1
17634.1
13132.8
14326.5
14098.2
12186.6
14232.7
12308.2
12278.2
11816.6
12295.9
11580.1
12861.9
9910.04
7920.77
5030.84
2581.9
696.818
-566.295
-1964.48
-3469.61
-4722.2
-6270.51
-8613.71
-11067.8
-13421.7
-14521.7
-13850.9
-10426.1
-8439.25
-7028.67
-7059.93
-6217.68
-5848.35
-5323.74
-4842.93
-3901.62
-2927.91
-1527.34
229.892
2120.49
3365.54
4030.55
4074.58
3918.64
3658.92
3232.83
2643.81
2209.31
1811.88
1330.66
1493.59
-6.46918
905.914
-1166.58
31.8333
-2297.39
329.402
-2082.55
-1668.6
-1717.02
-1732.4
-1716.49
-1745.63
-1759.47
-1663.59
-1731.37