/*--------------------------------*- C++ -*----------------------------------*\
| =========                 |                                                 |
| \\      /  F ield         | OpenFOAM: The Open Source CFD Toolbox           |
|  \\    /   O peration     | Version:  2.2.x                                 |
|   \\  /    A nd           | Web:      www.OpenFOAM.org                      |
|    \\/     M anipulation  |                                                 |
\*---------------------------------------------------------------------------*/
FoamFile
{
    version     2.0;
    format      ascii;
    class       volScalarField;
    location    "2";
    object      rho;
}
// * * * * * * * * * * * * * * * * * * * * * * * * * * * * * * * * * * * * * //

dimensions      [1 -3 0 0 0 0 0];

internalField   nonuniform List<scalar> 
14161
(
0.999417
0.99355
0.992214
0.986747
0.985197
0.986504
0.990243
0.99204
0.991505
0.990198
0.989102
0.988116
0.987271
0.986942
0.987586
0.988757
0.988662
0.987855
0.987312
0.986808
0.987004
0.98713
0.987064
0.986013
0.985006
0.984628
0.984718
0.984671
0.984883
0.985563
0.986474
0.987501
0.988613
0.989876
0.991262
0.993096
0.993143
0.992481
0.988096
0.985472
0.974282
1.32651
2.38168
2.37065
2.37087
2.38618
2.39375
2.3996
2.41035
2.42214
2.4245
2.42004
2.41736
2.4133
2.40727
2.39717
2.38552
2.37412
2.36395
2.35374
2.343
2.33273
2.32482
2.31915
2.31528
2.31252
2.31115
2.31102
2.31138
2.31204
2.31373
2.31453
2.31629
2.31976
2.32318
2.32798
2.33134
2.33311
2.33354
2.33354
2.33516
2.3384
2.34166
2.34417
2.33696
2.32742
2.32004
2.3467
2.36391
2.3532
2.34369
2.33438
2.34356
2.35386
2.37506
2.40994
2.45902
2.52129
2.60543
2.69199
2.75595
2.80374
2.83659
2.86575
2.8896
2.91528
2.93902
2.9645
2.98886
3.01583
3.04211
3.07345
3.0996
3.12613
3.14393
3.17297
3.16885
3.16858
3.18361
0.991491
0.971262
0.971131
0.974497
0.976899
0.981135
0.987936
0.988697
0.987607
0.98441
0.979084
0.973964
0.969541
0.966395
0.966746
0.967182
0.968226
0.969794
0.971357
0.972376
0.973552
0.976032
0.977638
0.977228
0.976868
0.977049
0.977396
0.977883
0.978549
0.979547
0.980649
0.981596
0.982601
0.983684
0.985279
0.986854
0.987191
0.98722
0.98643
0.986786
0.971091
1.56762
2.3334
2.525
2.5874
2.5831
2.54887
2.51493
2.48138
2.45024
2.4323
2.41857
2.40539
2.38934
2.37278
2.35451
2.33767
2.32193
2.30746
2.2945
2.28288
2.27255
2.26351
2.25528
2.24803
2.24179
2.23637
2.23202
2.22846
2.22529
2.2234
2.22227
2.22258
2.22406
2.22733
2.23038
2.23321
2.23608
2.23921
2.24346
2.24704
2.25239
2.2596
2.27053
2.28199
2.29377
2.30581
2.34571
2.43663
2.50424
2.569
2.59767
2.63947
2.67258
2.70308
2.72436
2.74517
2.77053
2.80071
2.83354
2.85563
2.87326
2.89376
2.91276
2.93345
2.95694
2.98056
3.00587
3.03042
3.05648
3.07867
3.10052
3.12174
3.14082
3.15956
3.1851
3.18778
3.18182
3.2215
1.04613
1.05869
1.0431
1.02084
1.0088
1.00635
1.0062
1.00519
1.0061
1.00928
1.01522
1.02393
1.03058
1.036
1.04088
1.04021
1.03757
1.03263
1.02628
1.01986
1.01281
1.00916
1.00579
1.00336
1.00295
1.00259
1.00228
1.00176
1.00184
1.00226
1.00229
1.00282
1.00376
1.00458
1.00541
1.00663
1.00822
1.01071
1.01405
1.02024
1.01525
1.78438
2.52351
2.7731
2.82188
2.78644
2.74115
2.70429
2.66898
2.63479
2.59898
2.56535
2.53876
2.51409
2.49037
2.46422
2.44217
2.42308
2.40375
2.38405
2.36779
2.3538
2.342
2.33078
2.32044
2.31082
2.30275
2.29533
2.28862
2.28356
2.27998
2.2781
2.27726
2.27873
2.28141
2.28551
2.29004
2.29451
2.29946
2.30652
2.31796
2.33613
2.36295
2.39099
2.41092
2.43915
2.47891
2.54699
2.64062
2.71227
2.79119
2.8408
2.88787
2.9213
2.95339
2.97721
2.98506
2.99016
2.99798
2.99816
2.99548
2.99158
2.99162
2.99625
3.00178
3.008
3.01339
3.02104
3.03093
3.04699
3.06635
3.08442
3.10581
3.11974
3.1266
3.14511
3.14626
3.15912
3.18553
0.938332
0.906945
0.921199
0.934161
0.94656
0.961954
0.965362
0.964545
0.961235
0.954451
0.944521
0.934803
0.92545
0.920403
0.921524
0.923903
0.928517
0.934883
0.941603
0.946452
0.951622
0.9551
0.956318
0.95556
0.954034
0.952613
0.95174
0.95189
0.952373
0.952829
0.953605
0.954734
0.956068
0.957477
0.958783
0.960118
0.961658
0.963474
0.965415
0.968052
0.971459
1.93445
2.46601
2.65144
2.66971
2.65997
2.64192
2.62169
2.60012
2.57834
2.55025
2.51657
2.49098
2.46771
2.44591
2.42062
2.3987
2.38041
2.36187
2.34339
2.32752
2.31405
2.30245
2.29129
2.28203
2.27367
2.26665
2.26159
2.25683
2.25334
2.25062
2.24919
2.24983
2.25228
2.25623
2.26155
2.26652
2.27356
2.28379
2.30072
2.32072
2.34617
2.38465
2.43505
2.48712
2.53599
2.57211
2.63106
2.70089
2.7376
2.79783
2.83431
2.88393
2.92296
2.96114
2.98292
2.98851
3.00043
3.01537
3.0272
3.02846
3.03071
3.03045
3.0265
3.01987
3.01686
3.01655
3.01988
3.02745
3.03987
3.05343
3.0671
3.08482
3.09621
3.10881
3.13056
3.14064
3.15782
3.17268
1.07023
1.11476
1.09253
1.06325
1.04061
1.03224
1.03094
1.03177
1.03456
1.0404
1.05052
1.06594
1.07769
1.08523
1.08774
1.08556
1.08084
1.07308
1.06326
1.05304
1.04125
1.03341
1.02948
1.02705
1.02712
1.02793
1.02871
1.0286
1.02837
1.02809
1.02862
1.02895
1.02879
1.02904
1.02993
1.03184
1.03336
1.03526
1.03757
1.04446
1.03336
1.85586
2.54107
2.75114
2.76927
2.74494
2.72254
2.69116
2.66281
2.6331
2.59409
2.56204
2.53588
2.50948
2.48271
2.45337
2.42808
2.40752
2.39233
2.37133
2.35117
2.3359
2.32463
2.3134
2.30386
2.29582
2.2897
2.28637
2.28415
2.2824
2.28251
2.28241
2.28443
2.28801
2.29075
2.29628
2.30149
2.30707
2.31459
2.32792
2.3419
2.36241
2.39764
2.43467
2.47235
2.51455
2.56833
2.61091
2.64833
2.67109
2.71129
2.76152
2.81887
2.869
2.91256
2.95249
2.97382
2.99004
3.00445
3.02157
3.03321
3.03677
3.03467
3.02982
3.02708
3.02808
3.02739
3.02835
3.03057
3.03656
3.04415
3.05258
3.06739
3.08749
3.10741
3.1316
3.14244
3.16197
3.17732
0.887897
0.853716
0.875593
0.900248
0.922588
0.934877
0.937841
0.936602
0.932543
0.925714
0.916069
0.905259
0.895573
0.892157
0.894734
0.898946
0.905375
0.913884
0.922506
0.93036
0.935184
0.936028
0.93559
0.933378
0.930535
0.928987
0.928198
0.925703
0.924606
0.925026
0.926054
0.927531
0.929407
0.931521
0.933775
0.93609
0.938365
0.940512
0.94188
0.943796
0.941472
1.65755
2.37455
2.56122
2.5745
2.56532
2.56738
2.55147
2.53571
2.51877
2.50112
2.48044
2.4709
2.45372
2.43516
2.41525
2.40086
2.38618
2.37593
2.35884
2.33869
2.3248
2.31605
2.30736
2.29688
2.28741
2.28093
2.27575
2.27185
2.2695
2.26796
2.26787
2.26985
2.27183
2.27386
2.27887
2.28386
2.28971
2.29385
2.2986
2.31121
2.33157
2.35617
2.38694
2.4379
2.48309
2.5247
2.55772
2.58709
2.59019
2.61406
2.6487
2.70229
2.76673
2.83079
2.89133
2.92833
2.95795
2.9835
3.00753
3.02187
3.02835
3.02996
3.02623
3.02403
3.02659
3.0294
3.03209
3.03076
3.03284
3.03646
3.04243
3.06083
3.0846
3.10885
3.13597
3.14913
3.17314
3.18855
1.08475
1.15513
1.13085
1.09874
1.07335
1.05912
1.05305
1.05136
1.05263
1.05822
1.06777
1.08295
1.09184
1.09923
1.10444
1.1028
1.09911
1.09285
1.08411
1.07392
1.06416
1.05547
1.04593
1.04174
1.04122
1.04075
1.04096
1.04054
1.04107
1.04073
1.03998
1.03904
1.03848
1.03817
1.03791
1.03869
1.03882
1.0395
1.03855
1.04226
1.0316
1.46264
2.36615
2.6079
2.61158
2.58696
2.56211
2.5448
2.53486
2.51884
2.50927
2.49337
2.48102
2.46572
2.45058
2.43589
2.42265
2.40595
2.38873
2.37418
2.3604
2.34733
2.3307
2.31579
2.3053
2.29704
2.29018
2.28461
2.28027
2.27739
2.27493
2.27504
2.2748
2.27649
2.27926
2.28327
2.29048
2.29568
2.30307
2.31219
2.32785
2.34362
2.37921
2.41233
2.46583
2.50336
2.53508
2.55416
2.58021
2.57983
2.5937
2.61237
2.64815
2.70079
2.75131
2.80963
2.86309
2.9103
2.94573
2.97977
3.00501
3.0154
3.01968
3.01889
3.02014
3.0239
3.02784
3.03141
3.03008
3.02919
3.03016
3.03683
3.05947
3.08579
3.11371
3.14461
3.16014
3.18428
3.20204
0.856366
0.819766
0.84671
0.879698
0.904624
0.916566
0.919266
0.918701
0.915464
0.912281
0.907915
0.901039
0.896868
0.896389
0.8996
0.904083
0.909997
0.916961
0.923548
0.928637
0.931518
0.930965
0.929409
0.927106
0.92475
0.922577
0.921659
0.921981
0.92289
0.924176
0.926083
0.92844
0.931097
0.934115
0.937264
0.940727
0.944466
0.94819
0.950976
0.953305
0.962928
1.10959
2.1007
2.48798
2.5062
2.4985
2.49408
2.49252
2.49556
2.49196
2.4896
2.48216
2.46927
2.45825
2.44442
2.4309
2.41509
2.39898
2.37989
2.36592
2.35214
2.3399
2.32741
2.3191
2.30891
2.30123
2.29131
2.28678
2.28243
2.27753
2.27363
2.27132
2.26899
2.26935
2.26914
2.27084
2.27736
2.28199
2.28946
2.29487
2.30524
2.31668
2.3444
2.37289
2.41668
2.46053
2.48654
2.5069
2.53129
2.531
2.54295
2.55295
2.57938
2.63038
2.67424
2.73334
2.78742
2.84648
2.90201
2.94595
2.97766
2.99472
3.00394
3.0057
3.00906
3.01446
3.01867
3.02121
3.01983
3.02014
3.01825
3.02676
3.05232
3.08231
3.11536
3.14644
3.16461
3.18582
3.20603
1.08907
1.17116
1.15003
1.1203
1.09295
1.07548
1.06287
1.05765
1.05689
1.05943
1.06515
1.07499
1.0821
1.08836
1.0908
1.08882
1.08501
1.0788
1.07042
1.06033
1.05044
1.04054
1.03016
1.02528
1.02378
1.02331
1.02274
1.02218
1.02163
1.02076
1.0202
1.01955
1.01907
1.01863
1.01788
1.01721
1.01648
1.01722
1.01856
1.01974
1.02642
1.0796
1.99755
2.63946
2.61717
2.58041
2.55803
2.53482
2.52006
2.50729
2.50564
2.49131
2.47206
2.45554
2.43898
2.42174
2.40319
2.38801
2.37166
2.35546
2.34147
2.32946
2.31748
2.30843
2.29878
2.29153
2.28372
2.27902
2.27502
2.27193
2.26944
2.26936
2.26896
2.26984
2.2719
2.27442
2.28061
2.28396
2.29207
2.29985
2.31446
2.33153
2.36169
2.40005
2.42805
2.4619
2.48958
2.50923
2.52941
2.53192
2.54985
2.56238
2.58927
2.63556
2.66578
2.703
2.74633
2.80046
2.85208
2.89846
2.93903
2.96295
2.98224
2.99003
2.9965
3.00312
3.00817
3.01196
3.00921
3.00706
3.00658
3.01628
3.04358
3.07756
3.11438
3.14457
3.1648
3.18369
3.20923
0.84971
0.809257
0.83589
0.86866
0.892881
0.906175
0.913877
0.919103
0.921457
0.922308
0.92256
0.919613
0.918975
0.921479
0.924163
0.92735
0.930826
0.934628
0.938342
0.940777
0.941793
0.9423
0.943322
0.943744
0.943496
0.943944
0.944629
0.945533
0.946784
0.948563
0.951208
0.954496
0.957716
0.960525
0.962988
0.966279
0.970467
0.975185
0.977411
0.97979
0.989417
1.05492
2.31402
2.67097
2.61182
2.5488
2.51554
2.49156
2.47383
2.45543
2.45378
2.44128
2.4263
2.4084
2.39616
2.37958
2.36268
2.34598
2.33118
2.31563
2.30299
2.29414
2.28605
2.27859
2.27201
2.26635
2.26048
2.25662
2.25263
2.25005
2.2483
2.24856
2.24842
2.24995
2.25364
2.25825
2.26769
2.27505
2.28971
2.30131
2.31861
2.34475
2.38043
2.42318
2.4319
2.4461
2.45408
2.46097
2.47796
2.4909
2.51073
2.52565
2.54789
2.57682
2.60334
2.63227
2.66895
2.71972
2.7889
2.84661
2.90001
2.93151
2.95879
2.9701
2.98373
2.9911
2.99856
2.99983
2.99694
2.99565
2.98816
2.99721
3.02419
3.06446
3.10991
3.13874
3.16262
3.17845
3.20708
1.08175
1.15469
1.13623
1.10844
1.08518
1.06401
1.05165
1.0458
1.0438
1.04393
1.04443
1.0457
1.05006
1.05358
1.05277
1.05067
1.04708
1.04071
1.03183
1.02174
1.01065
1.00317
0.999022
0.99613
0.995011
0.994428
0.99409
0.994081
0.993852
0.993302
0.992319
0.990513
0.990569
0.991511
0.992928
0.994534
0.993442
0.992799
0.992174
0.992476
0.9931
1.10511
2.41439
2.61696
2.5842
2.53106
2.49373
2.46985
2.45921
2.43898
2.42841
2.41138
2.4002
2.38206
2.37176
2.357
2.34067
2.32497
2.31244
2.30206
2.29612
2.28917
2.28238
2.27575
2.26762
2.26269
2.25713
2.2543
2.25286
2.25244
2.25327
2.25626
2.25859
2.2628
2.26647
2.27306
2.28759
2.29599
2.30862
2.32323
2.34921
2.38328
2.41404
2.44822
2.44382
2.44648
2.44284
2.44286
2.44635
2.45002
2.45768
2.46717
2.48122
2.5018
2.53577
2.58393
2.6404
2.69532
2.76042
2.82965
2.88989
2.92193
2.94636
2.95938
2.97306
2.97795
2.98569
2.98881
2.98518
2.98576
2.97779
2.98133
3.00115
3.04371
3.09845
3.13016
3.1583
3.17028
3.20179
0.866754
0.821832
0.845386
0.874181
0.896397
0.909895
0.920039
0.928619
0.936022
0.941418
0.944695
0.946119
0.947789
0.950037
0.95223
0.954944
0.957825
0.960643
0.963607
0.96585
0.967147
0.967988
0.969364
0.971397
0.973146
0.974151
0.974826
0.97535
0.975993
0.97774
0.979667
0.981667
0.984013
0.986231
0.988488
0.992228
0.99478
0.997073
0.998823
1.00311
1.00203
1.15528
2.47825
2.644
2.62555
2.58154
2.5329
2.51374
2.4954
2.47992
2.46085
2.44557
2.42905
2.41219
2.39652
2.38007
2.36749
2.35143
2.33582
2.32224
2.30937
2.29923
2.29128
2.28398
2.27574
2.26949
2.26089
2.25692
2.25462
2.25239
2.25141
2.25211
2.25273
2.25773
2.26126
2.26951
2.28598
2.30019
2.32012
2.3425
2.37595
2.4182
2.4324
2.44803
2.44357
2.44221
2.43294
2.4313
2.42643
2.42698
2.43507
2.43727
2.44674
2.46678
2.50124
2.54668
2.60325
2.65697
2.72163
2.80338
2.86609
2.90012
2.92103
2.93398
2.95076
2.95964
2.96952
2.97322
2.97134
2.9714
2.96334
2.96357
2.97251
3.00843
3.07086
3.11585
3.15142
3.15588
3.18971
1.05591
1.11304
1.09926
1.0748
1.05637
1.03856
1.02561
1.01952
1.01617
1.01415
1.01236
1.00985
1.00978
1.00902
1.00744
1.00546
1.00312
0.999912
0.995334
0.989269
0.986384
0.984644
0.981637
0.980115
0.97946
0.979284
0.979487
0.979856
0.98043
0.980726
0.981062
0.98165
0.982529
0.983256
0.983966
0.984664
0.985602
0.986829
0.987349
0.990874
0.987503
1.22287
2.57065
2.63329
2.5747
2.53294
2.48334
2.47703
2.45184
2.4484
2.43197
2.43426
2.42074
2.41479
2.39777
2.37386
2.37131
2.36397
2.35172
2.33757
2.32457
2.31804
2.31177
2.3078
2.30106
2.29509
2.28664
2.28382
2.28482
2.28534
2.28321
2.28326
2.28219
2.28413
2.28585
2.29424
2.31305
2.33157
2.36053
2.38787
2.41731
2.45535
2.46364
2.46886
2.46207
2.45461
2.44215
2.43626
2.42679
2.42231
2.41943
2.4241
2.43113
2.44315
2.46999
2.50615
2.55865
2.61366
2.67839
2.76337
2.84605
2.89539
2.91951
2.9318
2.94814
2.95733
2.96576
2.9668
2.96667
2.96528
2.95698
2.95186
2.95571
2.98502
3.04308
3.09913
3.1474
3.14661
3.18055
0.897534
0.853481
0.874793
0.901858
0.92266
0.936318
0.947201
0.957392
0.96587
0.970629
0.973049
0.973403
0.973934
0.974905
0.975928
0.97717
0.979407
0.98009
0.980642
0.981517
0.982652
0.982916
0.983324
0.983959
0.984864
0.986002
0.986831
0.987318
0.987828
0.988514
0.989726
0.991337
0.993444
0.996285
0.999115
1.00086
1.00275
1.00489
1.00695
1.0142
1.01068
1.20787
2.58787
2.65459
2.58746
2.55964
2.52192
2.51508
2.50072
2.49952
2.49346
2.48775
2.4789
2.46367
2.44839
2.42381
2.41145
2.39439
2.38295
2.36816
2.35237
2.34259
2.33146
2.32539
2.31684
2.3123
2.30705
2.30478
2.3016
2.29955
2.2966
2.29581
2.29439
2.29583
2.29393
2.30255
2.32844
2.3509
2.39385
2.43069
2.45187
2.46925
2.47273
2.47635
2.47189
2.4645
2.45301
2.44414
2.44002
2.43044
2.42187
2.42504
2.4191
2.41953
2.43749
2.46397
2.51118
2.56051
2.62094
2.70319
2.80761
2.88018
2.91355
2.92712
2.94541
2.95602
2.9633
2.95984
2.95933
2.95758
2.94845
2.93743
2.93798
2.95674
3.01312
3.076
3.13736
3.13973
3.17906
1.04316
1.08015
1.06536
1.04454
1.02669
1.01475
1.00668
1.00169
0.995641
0.993392
0.992046
0.991144
0.990164
0.988767
0.987908
0.986889
0.984752
0.983369
0.982354
0.980967
0.97921
0.977064
0.976013
0.975553
0.975541
0.975715
0.976019
0.976504
0.977086
0.977711
0.978458
0.979515
0.980798
0.982387
0.984397
0.985678
0.986751
0.988312
0.990647
0.995979
1.00116
1.06402
2.27687
2.60624
2.56494
2.54061
2.50976
2.50939
2.50263
2.50219
2.49902
2.48942
2.47705
2.45634
2.43789
2.41428
2.39692
2.37822
2.36266
2.33525
2.33227
2.3226
2.31027
2.30419
2.2973
2.2956
2.29319
2.29276
2.28976
2.29062
2.28838
2.28383
2.27951
2.28038
2.28446
2.29958
2.34446
2.3918
2.45507
2.51237
2.50854
2.5297
2.52689
2.53096
2.52228
2.51826
2.50731
2.49254
2.48415
2.46005
2.44367
2.43458
2.41478
2.41529
2.42154
2.4234
2.45868
2.51087
2.57479
2.6547
2.76314
2.86151
2.91276
2.93412
2.95802
2.97038
2.9729
2.96493
2.96674
2.95843
2.94647
2.93131
2.92846
2.93766
2.97848
3.04204
3.11357
3.12897
3.17266
0.938367
0.903019
0.918622
0.939768
0.958461
0.968695
0.975746
0.981628
0.9854
0.988158
0.988473
0.987969
0.987874
0.987733
0.987548
0.987191
0.986732
0.986796
0.987231
0.987281
0.986577
0.98553
0.985205
0.985151
0.985143
0.985121
0.985279
0.985824
0.986238
0.986604
0.987228
0.988728
0.989662
0.99055
0.992425
0.993626
0.995204
0.995736
0.99592
0.996214
1.0024
1.05613
2.02743
2.42429
2.44324
2.46792
2.4668
2.47179
2.4708
2.46382
2.45493
2.43612
2.41536
2.38803
2.36655
2.33854
2.31968
2.29621
2.28477
2.26217
2.24748
2.23969
2.23571
2.23122
2.23144
2.22928
2.23204
2.23273
2.23331
2.2354
2.23772
2.23726
2.23695
2.23729
2.24285
2.27544
2.31349
2.37157
2.4073
2.44582
2.46175
2.47617
2.47075
2.4761
2.47333
2.47707
2.47219
2.46554
2.45748
2.44626
2.44192
2.425
2.40812
2.4054
2.3996
2.39684
2.42652
2.47284
2.52848
2.60732
2.71437
2.83466
2.90189
2.93245
2.95622
2.96415
2.96405
2.95838
2.9506
2.94374
2.93503
2.92182
2.91395
2.91745
2.94514
3.00679
3.08723
3.11296
3.16075
1.02661
1.04693
1.03356
1.01616
1.00223
0.996301
0.995738
0.991886
0.986347
0.984614
0.9839
0.983153
0.983079
0.983241
0.983308
0.983189
0.982947
0.982861
0.982871
0.982446
0.981349
0.979596
0.978517
0.978111
0.977943
0.978011
0.978182
0.978511
0.978948
0.979336
0.979851
0.980945
0.981842
0.982204
0.98253
0.982386
0.982486
0.982726
0.98132
0.982463
0.988294
1.14438
1.94361
2.19276
2.2487
2.32076
2.36637
2.40384
2.40309
2.39536
2.38261
2.35806
2.33744
2.31191
2.29292
2.26167
2.24412
2.20496
2.21079
2.20609
2.17089
2.15803
2.15585
2.15535
2.14732
2.14661
2.14804
2.15192
2.15182
2.15703
2.165
2.17033
2.17621
2.18249
2.19268
2.23772
2.27344
2.33169
2.38658
2.41283
2.43872
2.44789
2.44506
2.44937
2.4576
2.46617
2.46614
2.45082
2.44106
2.44597
2.43195
2.41615
2.41083
2.40719
2.38322
2.37506
2.3934
2.44052
2.50169
2.57947
2.6772
2.80414
2.88536
2.93365
2.96244
2.96936
2.9684
2.96148
2.94665
2.93676
2.92605
2.91162
2.89944
2.89834
2.92038
2.97535
3.06165
3.10384
3.15779
0.967714
0.948298
0.956589
0.969577
0.979613
0.988637
0.992026
0.993627
0.993153
0.992444
0.991612
0.990517
0.989372
0.988214
0.98742
0.986867
0.986204
0.985702
0.985513
0.985122
0.984181
0.983065
0.982308
0.981786
0.981479
0.981377
0.981437
0.981738
0.982087
0.982406
0.983022
0.984368
0.984729
0.984689
0.984737
0.985712
0.986465
0.987076
0.987084
0.98928
1.00506
1.46207
1.96787
2.07829
2.1212
2.20678
2.29515
2.35083
2.33601
2.33229
2.32286
2.30582
2.29153
2.27366
2.25995
2.2307
2.21147
2.16476
2.17072
2.16393
2.12812
2.11122
2.1069
2.10038
2.08889
2.08803
2.08831
2.08787
2.08637
2.08744
2.08978
2.09554
2.10294
2.10668
2.11959
2.15899
2.20913
2.28401
2.35797
2.36079
2.38789
2.39451
2.41391
2.44329
2.46131
2.45217
2.45901
2.46677
2.4525
2.43697
2.4227
2.41453
2.40447
2.39492
2.37364
2.36488
2.3778
2.41654
2.46815
2.54083
2.63258
2.76213
2.85816
2.92488
2.96606
2.9783
2.97851
2.9695
2.95095
2.93715
2.92479
2.90969
2.89193
2.88783
2.90491
2.94801
3.03311
3.08931
3.15387
1.01007
1.02153
1.01195
0.997475
0.990601
0.989307
0.988914
0.988739
0.987345
0.986128
0.98516
0.984292
0.983932
0.983887
0.983931
0.984158
0.984061
0.98354
0.983225
0.982733
0.981715
0.980441
0.979687
0.979114
0.978713
0.978564
0.978641
0.978867
0.979018
0.979361
0.980411
0.981028
0.980888
0.980235
0.980105
0.98037
0.981309
0.981393
0.980751
0.984831
1.01887
1.72103
1.97854
2.02655
2.07174
2.11682
2.21609
2.31889
2.35537
2.36675
2.35667
2.33792
2.32424
2.29719
2.27802
2.23887
2.21203
2.17537
2.15897
2.13937
2.12364
2.08817
2.07877
2.06766
2.06115
2.0617
2.0667
2.06709
2.06373
2.06026
2.06341
2.07123
2.0721
2.08019
2.09104
2.12871
2.21099
2.2923
2.32795
2.3669
2.37648
2.40237
2.41083
2.4081
2.41835
2.42136
2.4309
2.4386
2.44389
2.42437
2.41265
2.40482
2.40445
2.40339
2.38451
2.37294
2.37483
2.39046
2.4353
2.50379
2.59324
2.71985
2.82896
2.9088
2.95931
2.96979
2.96657
2.95663
2.94053
2.92697
2.91476
2.90327
2.88257
2.87563
2.88698
2.92023
2.99895
3.06599
3.14451
0.983041
0.976928
0.98048
0.986128
0.989554
0.99223
0.99299
0.992983
0.992524
0.991571
0.990202
0.98836
0.987068
0.986315
0.985902
0.985748
0.985289
0.984325
0.983551
0.982664
0.981487
0.980741
0.980263
0.979925
0.979795
0.979485
0.979198
0.979173
0.979128
0.979338
0.980254
0.980688
0.980153
0.979541
0.979206
0.979007
0.979407
0.9781
0.978455
0.980805
1.09686
1.89457
2.01143
2.02716
2.03248
2.04969
2.09742
2.19387
2.30823
2.3335
2.3523
2.34477
2.32558
2.30326
2.26511
2.23299
2.18841
2.16032
2.12812
2.11802
2.08483
2.07651
2.0552
2.05014
2.04228
2.04216
2.04741
2.04942
2.04975
2.04726
2.04898
2.05557
2.0638
2.0613
2.08998
2.16614
2.2666
2.28955
2.32412
2.33669
2.35923
2.36606
2.38404
2.36545
2.38285
2.40724
2.41362
2.41289
2.40557
2.39179
2.38663
2.38796
2.39171
2.3915
2.38074
2.36514
2.36062
2.37594
2.4193
2.4833
2.56795
2.68749
2.79898
2.88888
2.94837
2.96576
2.9637
2.95639
2.94247
2.92859
2.91453
2.89942
2.87431
2.86287
2.86841
2.89207
2.96366
3.04202
3.13438
1.00025
1.00494
1.00017
0.993585
0.989317
0.988687
0.988615
0.988467
0.988091
0.987483
0.986561
0.985552
0.984892
0.984572
0.984551
0.984778
0.984762
0.983734
0.982671
0.981664
0.980368
0.979598
0.979276
0.979199
0.979297
0.979292
0.978528
0.977781
0.977493
0.977335
0.977446
0.978024
0.977994
0.976825
0.976206
0.97591
0.976155
0.975486
0.977374
0.981866
1.36434
1.99691
2.00741
2.00477
2.00195
2.01523
2.03308
2.0803
2.17634
2.26857
2.33462
2.32435
2.30885
2.28805
2.25407
2.22941
2.18435
2.15586
2.11942
2.10081
2.05404
2.06083
2.05316
2.0407
2.03682
2.03674
2.03951
2.04225
2.04184
2.04814
2.06527
2.08133
2.10448
2.15415
2.24965
2.3583
2.37122
2.37085
2.36713
2.36845
2.35835
2.35221
2.35266
2.34922
2.36195
2.3635
2.36734
2.38408
2.4004
2.40154
2.3929
2.37971
2.37602
2.368
2.36189
2.35259
2.35206
2.36672
2.40208
2.45769
2.54082
2.65564
2.76756
2.86206
2.92761
2.95568
2.95859
2.95569
2.94448
2.93094
2.91269
2.89522
2.86724
2.8508
2.85344
2.87004
2.93432
3.01857
3.12192
0.98905
0.989775
0.99114
0.991791
0.99136
0.991642
0.991824
0.991612
0.990813
0.98957
0.988066
0.986841
0.985847
0.985126
0.984849
0.984934
0.984731
0.983351
0.982009
0.980912
0.979489
0.978788
0.97853
0.978543
0.978697
0.979235
0.979449
0.978345
0.977708
0.977439
0.97716
0.977126
0.977721
0.977007
0.975631
0.97532
0.975542
0.976553
0.979777
1.00147
1.65985
2.02504
2.04096
2.03235
2.02155
2.01699
2.01886
2.03069
2.06315
2.13852
2.22153
2.30318
2.2937
2.2831
2.25793
2.21728
2.19331
2.13735
2.12384
2.06895
2.06737
2.06711
2.05816
2.04704
2.05099
2.06244
2.07278
2.08231
2.10369
2.15662
2.24525
2.33874
2.44087
2.53807
2.54905
2.58131
2.53945
2.49718
2.47023
2.44006
2.41878
2.39689
2.37809
2.368
2.36028
2.35185
2.35063
2.3424
2.36303
2.37658
2.37449
2.36327
2.3587
2.36382
2.3668
2.36158
2.35819
2.36597
2.39375
2.44701
2.52485
2.62707
2.7344
2.82948
2.90078
2.93912
2.94725
2.94823
2.93943
2.92781
2.90774
2.88933
2.85878
2.83784
2.83852
2.84901
2.90556
2.9921
3.10454
0.994978
0.997832
0.995918
0.992804
0.990173
0.98977
0.989738
0.989735
0.989076
0.987873
0.987049
0.986219
0.98539
0.984582
0.984336
0.984494
0.984579
0.983281
0.981476
0.980279
0.978811
0.97787
0.977562
0.977479
0.977561
0.978158
0.978995
0.978367
0.977016
0.976668
0.976225
0.975996
0.976041
0.975844
0.974973
0.973616
0.971998
0.971835
0.975958
1.01907
1.84839
2.05211
2.06733
2.06117
2.04645
2.03027
2.01823
2.01217
2.01358
2.03259
2.08743
2.17289
2.22757
2.24291
2.23663
2.19308
2.19865
2.14227
2.1186
2.05883
2.08697
2.07739
2.0937
2.08458
2.14257
2.2145
2.31331
2.40679
2.49329
2.58744
2.68129
2.74973
2.76769
2.77084
2.72579
2.71353
2.68545
2.63725
2.58781
2.53135
2.48763
2.45121
2.42038
2.40712
2.37775
2.3656
2.34875
2.33526
2.34586
2.35415
2.35643
2.34873
2.34782
2.35571
2.36162
2.35634
2.35247
2.35752
2.38241
2.43515
2.50928
2.60281
2.7067
2.79637
2.87281
2.92287
2.93774
2.94106
2.93374
2.92439
2.90431
2.88326
2.85203
2.82807
2.82354
2.8302
2.88011
2.96599
3.08694
0.991404
0.992988
0.993686
0.993243
0.992117
0.99148
0.991098
0.99076
0.990049
0.988247
0.987221
0.986458
0.985869
0.984823
0.983872
0.983699
0.983797
0.983021
0.980884
0.979485
0.97821
0.977221
0.9767
0.976453
0.976399
0.976785
0.977631
0.977855
0.976398
0.974839
0.974311
0.974132
0.974022
0.97401
0.974639
0.974315
0.970616
0.971296
0.974761
1.12935
1.98892
2.08627
2.08678
2.07663
2.05865
2.03769
2.01691
2.0008
1.99001
1.99357
2.00943
2.04948
2.11598
2.18528
2.21494
2.19334
2.20358
2.14814
2.16381
2.13923
2.22068
2.28258
2.38398
2.45636
2.54705
2.64222
2.7391
2.80771
2.85194
2.84504
2.86291
2.87041
2.84475
2.81961
2.77416
2.74636
2.72208
2.69357
2.65981
2.61525
2.5654
2.51558
2.4705
2.43589
2.42133
2.4008
2.37874
2.35695
2.35124
2.35493
2.35314
2.35032
2.35172
2.35309
2.35415
2.35281
2.35266
2.36169
2.3862
2.42943
2.49492
2.58087
2.68125
2.76517
2.84278
2.902
2.92503
2.93138
2.9253
2.91836
2.89871
2.87529
2.84405
2.8178
2.8084
2.81146
2.85541
2.93985
3.06754
0.992554
0.994915
0.994687
0.99341
0.991747
0.991114
0.990474
0.990063
0.989517
0.987954
0.986846
0.986162
0.985776
0.984982
0.983567
0.982932
0.982865
0.982686
0.980992
0.979056
0.978033
0.977229
0.976755
0.976662
0.97691
0.976233
0.975895
0.976227
0.976283
0.974409
0.97304
0.972442
0.97216
0.972304
0.973067
0.973291
0.971873
0.974301
0.980487
1.39509
2.04268
2.05626
2.05191
2.04911
2.04149
2.02631
2.01098
1.99937
1.99103
1.98994
1.99271
2.00961
2.05281
2.12207
2.18742
2.24161
2.30136
2.29482
2.37608
2.44762
2.5484
2.63787
2.6871
2.74051
2.76368
2.80161
2.8292
2.84031
2.84406
2.83576
2.84274
2.84105
2.82466
2.80987
2.78107
2.75471
2.73369
2.71724
2.69667
2.6683
2.63363
2.58935
2.55295
2.52553
2.49774
2.43964
2.40491
2.37676
2.36395
2.36374
2.3615
2.35786
2.35939
2.3585
2.35848
2.3588
2.36097
2.36972
2.39054
2.42849
2.48857
2.56803
2.66149
2.74096
2.81306
2.87853
2.90932
2.91971
2.91625
2.91124
2.89227
2.86716
2.83567
2.80643
2.79432
2.79419
2.83408
2.91369
3.04812
0.991675
0.993276
0.994381
0.993898
0.992748
0.991958
0.990966
0.990184
0.989517
0.987981
0.986654
0.985955
0.985588
0.985112
0.983575
0.982329
0.981792
0.981591
0.980694
0.978576
0.977305
0.97666
0.976368
0.97635
0.976952
0.97661
0.975189
0.974739
0.975037
0.974262
0.97229
0.971553
0.97087
0.970555
0.970552
0.970107
0.968262
0.970808
0.992925
1.65439
2.0506
2.06678
2.06207
2.06251
2.06032
2.05158
2.04172
2.03013
2.01778
2.00847
2.00313
2.0136
2.04597
2.11843
2.28054
2.41958
2.54934
2.61506
2.6781
2.72116
2.72698
2.76388
2.7597
2.78279
2.78171
2.78773
2.79558
2.79551
2.79692
2.78951
2.79057
2.7987
2.79972
2.79692
2.77978
2.75639
2.73812
2.72842
2.71946
2.70409
2.67959
2.64705
2.61237
2.57851
2.54798
2.50648
2.46895
2.43558
2.40797
2.39078
2.37838
2.36712
2.35882
2.36089
2.36626
2.37125
2.37666
2.38427
2.40172
2.4349
2.48825
2.56074
2.64269
2.71598
2.78385
2.85279
2.88992
2.90472
2.90516
2.90197
2.88468
2.85901
2.8274
2.79634
2.78044
2.77733
2.81355
2.89031
3.02707
0.992036
0.993579
0.994585
0.993968
0.992671
0.991763
0.990906
0.989778
0.989027
0.987807
0.986557
0.985768
0.985307
0.98497
0.983681
0.981938
0.981017
0.980464
0.980185
0.978881
0.977008
0.976156
0.975759
0.975719
0.975956
0.97622
0.974515
0.972965
0.972854
0.972624
0.971016
0.970125
0.970058
0.970316
0.969522
0.964528
0.963301
0.967085
1.01919
1.83073
2.06614
2.08506
2.08179
2.0765
2.07188
2.06698
2.0611
2.05574
2.04878
2.04356
2.04577
2.06745
2.12807
2.26581
2.49892
2.68058
2.72631
2.75947
2.76373
2.76273
2.75364
2.76362
2.76364
2.76388
2.75676
2.74641
2.74354
2.74391
2.74709
2.74691
2.74691
2.75687
2.76392
2.77482
2.7712
2.75798
2.74383
2.73219
2.72262
2.71321
2.69874
2.6745
2.64704
2.61819
2.59508
2.56634
2.53103
2.4819
2.43661
2.40236
2.3864
2.38031
2.37778
2.38174
2.38726
2.39164
2.39475
2.39973
2.41403
2.44447
2.49183
2.55488
2.62388
2.68943
2.7562
2.82685
2.86798
2.88746
2.89323
2.89128
2.8768
2.852
2.82003
2.78752
2.7664
2.76049
2.79183
2.86684
3.00491
0.992144
0.993226
0.994498
0.994212
0.992958
0.992187
0.991305
0.989688
0.9888
0.987647
0.986475
0.985625
0.98494
0.984483
0.983601
0.981892
0.980575
0.97968
0.979265
0.978551
0.976849
0.975755
0.975062
0.974588
0.974402
0.974708
0.974391
0.971782
0.970088
0.969335
0.968677
0.96829
0.968175
0.968444
0.968999
0.965917
0.965969
0.970286
1.15655
1.94508
2.05572
2.0668
2.06237
2.05789
2.05821
2.05872
2.05828
2.05811
2.05965
2.06649
2.08942
2.14833
2.27736
2.50636
2.6982
2.76546
2.76631
2.76513
2.7651
2.74807
2.74546
2.74216
2.73595
2.73138
2.72408
2.71088
2.70294
2.69795
2.69546
2.69838
2.69621
2.71037
2.72791
2.74274
2.74874
2.74659
2.73821
2.73015
2.72123
2.71366
2.70578
2.69251
2.67106
2.64481
2.62672
2.60646
2.58279
2.54925
2.50753
2.45992
2.43012
2.41178
2.40589
2.4074
2.40786
2.4078
2.40845
2.41207
2.42613
2.45494
2.49706
2.55024
2.60825
2.66626
2.73056
2.80054
2.84327
2.86765
2.87914
2.87799
2.86605
2.84311
2.81183
2.77931
2.75152
2.74464
2.7709
2.84419
2.98358
0.992252
0.993242
0.994489
0.994196
0.993408
0.992302
0.991371
0.989596
0.988642
0.987395
0.986331
0.985557
0.98474
0.983999
0.983227
0.981725
0.980119
0.979051
0.978553
0.978084
0.97651
0.975581
0.975152
0.974751
0.974526
0.974455
0.974898
0.973509
0.969995
0.96806
0.967149
0.966647
0.96663
0.966746
0.967563
0.967246
0.970126
0.98567
1.46679
1.95308
2.01051
2.01868
2.02317
2.02677
2.032
2.04051
2.04615
2.05274
2.06692
2.0985
2.17102
2.31146
2.53271
2.73551
2.77076
2.78452
2.76601
2.73786
2.72798
2.72452
2.71366
2.71158
2.70918
2.70032
2.69125
2.68522
2.68099
2.66871
2.66565
2.66306
2.66019
2.66757
2.68047
2.69165
2.70616
2.71418
2.71772
2.71636
2.71193
2.70835
2.70376
2.69573
2.68543
2.67115
2.65509
2.638
2.62321
2.60094
2.57154
2.52438
2.48016
2.44808
2.43155
2.42586
2.42369
2.42347
2.42393
2.42821
2.44059
2.4654
2.50204
2.54688
2.59624
2.64694
2.706
2.77394
2.81708
2.84601
2.86297
2.86312
2.85455
2.83403
2.80405
2.76917
2.73496
2.72825
2.75126
2.82271
2.96335
0.992293
0.993053
0.993769
0.994169
0.993736
0.992615
0.991605
0.989763
0.988639
0.987358
0.98614
0.98543
0.984548
0.983456
0.982587
0.981456
0.979978
0.979083
0.978728
0.978263
0.976251
0.975041
0.974577
0.974325
0.973965
0.973692
0.973863
0.973448
0.97052
0.966756
0.965353
0.964384
0.963315
0.961877
0.961688
0.962293
0.967856
1.01625
1.70921
1.98419
2.01472
2.02186
2.02491
2.02658
2.02883
2.03465
2.04507
2.06339
2.10086
2.18658
2.35074
2.56932
2.74034
2.78757
2.7836
2.75387
2.73785
2.72349
2.70002
2.6914
2.69536
2.69089
2.67908
2.67274
2.66997
2.66627
2.65955
2.65081
2.643
2.63857
2.63713
2.63748
2.64415
2.65247
2.66423
2.67008
2.68356
2.68981
2.69138
2.6899
2.68921
2.68709
2.68341
2.6781
2.67035
2.66043
2.6475
2.62992
2.60773
2.57441
2.53824
2.50333
2.47314
2.45935
2.45227
2.44759
2.44331
2.44761
2.45622
2.47636
2.5075
2.54409
2.58532
2.62949
2.68225
2.74651
2.78988
2.82246
2.84546
2.84865
2.84266
2.82447
2.79437
2.75701
2.71786
2.71205
2.7319
2.80221
2.94348
0.992388