/*--------------------------------*- C++ -*----------------------------------*\
| =========                 |                                                 |
| \\      /  F ield         | OpenFOAM: The Open Source CFD Toolbox           |
|  \\    /   O peration     | Version:  2.2.x                                 |
|   \\  /    A nd           | Web:      www.OpenFOAM.org                      |
|    \\/     M anipulation  |                                                 |
\*---------------------------------------------------------------------------*/
FoamFile
{
    version     2.0;
    format      ascii;
    class       volScalarField;
    location    "2.1";
    object      Bx;
}
// * * * * * * * * * * * * * * * * * * * * * * * * * * * * * * * * * * * * * //

dimensions      [1 0 -2 0 0 -1 0];

internalField   nonuniform List<scalar> 
14161
(
1.00096
1.00087
1.00092
1.00099
1.00111
1.00126
1.00146
1.00169
1.00197
1.00232
1.0027
1.0031
1.0036
1.00414
1.0047
1.0053
1.00586
1.00664
1.0073
1.00768
1.00838
1.00902
1.00919
1.00944
1.00974
1.00979
1.00968
1.00937
1.00882
1.00801
1.0069
1.00531
1.00322
1.00074
0.997659
0.993864
0.989677
0.9853
0.981336
0.97717
0.97438
0.972144
0.965272
0.960976
0.961053
0.96464
0.971657
0.980111
0.990715
1.00147
1.0112
1.02001
1.03026
1.04057
1.04851
1.05465
1.06186
1.07259
1.08362
1.0911
1.09544
1.09838
1.10419
1.1135
1.12272
1.12962
1.13379
1.13671
1.14034
1.14658
1.15432
1.16159
1.16719
1.17146
1.17578
1.18238
1.19206
1.20293
1.21306
1.22088
1.22587
1.23033
1.23677
1.2462
1.25584
1.26282
1.26723
1.27182
1.27974
1.29232
1.30708
1.32199
1.33312
1.33874
1.33965
1.34002
1.34683
1.35922
1.37264
1.38449
1.39241
1.39604
1.39678
1.39881
1.40714
1.4198
1.4315
1.44124
1.44604
1.43926
1.41546
1.34642
1.1967
1.00348
0.806708
0.626441
0.445137
0.275702
0.0937507
1.00096
1.00087
1.00092
1.00099
1.00111
1.00126
1.00146
1.00169
1.00197
1.00232
1.0027
1.0031
1.00359
1.00414
1.0047
1.00528
1.0059
1.00662
1.00723
1.00774
1.00842
1.00893
1.00923
1.00952
1.00978
1.00983
1.00971
1.00941
1.00888
1.00808
1.00696
1.00539
1.00332
1.00075
0.997614
0.993926
0.989808
0.985516
0.981105
0.976803
0.973092
0.970163
0.961496
0.957868
0.958923
0.96217
0.969813
0.978909
0.989644
1.00084
1.01138
1.02129
1.0321
1.04297
1.05138
1.0582
1.06507
1.07481
1.08517
1.09307
1.0985
1.10261
1.10805
1.1159
1.12378
1.12976
1.13436
1.13921
1.14417
1.15073
1.1586
1.16626
1.17239
1.17708
1.18079
1.18551
1.19317
1.20225
1.21146
1.21991
1.22685
1.23273
1.24023
1.25001
1.2602
1.26965
1.27704
1.2823
1.28747
1.29441
1.30372
1.31412
1.32554
1.335
1.34284
1.35089
1.35715
1.36318
1.37089
1.37959
1.38734
1.39334
1.3983
1.40374
1.40886
1.41531
1.42204
1.42741
1.4179
1.38086
1.30156
1.16341
0.98344
0.80398
0.64033
0.48217
0.326972
0.195798
0.0857998
1.00096
1.00087
1.00092
1.00099
1.00111
1.00126
1.00146
1.0017
1.00198
1.00232
1.0027
1.0031
1.00359
1.00413
1.0047
1.00528
1.00593
1.00659
1.00722
1.00782
1.00842
1.00888
1.0093
1.00964
1.00981
1.00985
1.00976
1.00951
1.00905
1.00829
1.00718
1.00565
1.00362
1.00106
0.997981
0.99437
0.990301
0.985944
0.980987
0.97631
0.971415
0.966657
0.954764
0.951218
0.952862
0.956791
0.965074
0.975863
0.98724
0.999781
1.01222
1.02461
1.03728
1.04928
1.05924
1.06826
1.07656
1.08592
1.09505
1.10238
1.10883
1.11474
1.11992
1.12621
1.1333
1.13987
1.14582
1.15069
1.15471
1.15981
1.16673
1.17397
1.18124
1.18836
1.19409
1.199
1.20435
1.21076
1.21745
1.22429
1.23175
1.23835
1.2458
1.25525
1.26561
1.27646
1.28648
1.29487
1.30082
1.30455
1.30913
1.31535
1.32379
1.33458
1.34637
1.35808
1.36635
1.3708
1.37426
1.37937
1.38602
1.39347
1.39984
1.40444
1.40652
1.40588
1.4023
1.38307
1.33535
1.23082
1.05238
0.852641
0.695026
0.568372
0.458836
0.35139
0.244961
0.153057
0.0758101
1.00096
1.00087
1.00092
1.00099
1.00111
1.00126
1.00146
1.0017
1.00198
1.00231
1.00269
1.00311
1.00358
1.00413
1.0047
1.00529
1.00598
1.00655
1.0072
1.00792
1.00839
1.00884
1.0094
1.00976
1.00986
1.00993
1.00989
1.00971
1.00933
1.00861
1.00753
1.00607
1.00416
1.00168
0.998725
0.995316
0.991258
0.986615
0.981119
0.975469
0.969488
0.962653
0.946873
0.941082
0.942729
0.948858
0.959421
0.973318
0.986869
1.0015
1.01599
1.03024
1.04442
1.05675
1.06812
1.07949
1.08959
1.09944
1.10786
1.1158
1.12378
1.13096
1.13657
1.14227
1.1484
1.15492
1.16188
1.16781
1.17215
1.17574
1.18096
1.18689
1.19403
1.20226
1.20964
1.2153
1.21985
1.22551
1.23093
1.23658
1.24413
1.25169
1.25803
1.26493
1.27242
1.28207
1.29454
1.30591
1.31391
1.31883
1.3197
1.32089
1.3276
1.33945
1.35415
1.36604
1.37393
1.37858
1.37953
1.38089
1.38633
1.39379
1.39999
1.40169
1.39719
1.38183
1.34917
1.27745
1.13743
0.935871
0.732125
0.598042
0.500465
0.416427
0.339687
0.260416
0.188541
0.124846
0.0717617
1.00096
1.00087
1.00092
1.00099
1.00111
1.00126
1.00146
1.0017
1.00198
1.00231
1.00269
1.00312
1.00358
1.00414
1.0047
1.00529
1.006
1.00654
1.00718
1.00797
1.00838
1.00881
1.00947
1.00992
1.00995
1.01005
1.0101
1.01003
1.00974
1.00908
1.00807
1.00673
1.00498
1.00274
1.00008
0.996915
0.992913
0.987933
0.982321
0.976475
0.971555
0.961983
0.940168
0.930676
0.930152
0.939682
0.95369
0.971995
0.989559
1.00765
1.0254
1.0429
1.05892
1.07258
1.08621
1.10011
1.11248
1.1222
1.13026
1.1383
1.14706
1.15481
1.16156
1.16768
1.17232
1.17698
1.18392
1.19132
1.19726
1.20088
1.20453
1.20886
1.21415
1.22083
1.22769
1.23371
1.23905
1.24487
1.25048
1.25655
1.26388
1.27127
1.27694
1.28124
1.28647
1.29346
1.30381
1.31569
1.32521
1.33165
1.33597
1.33726
1.34072
1.34927
1.36165
1.37185
1.37883
1.38353
1.38689
1.38625
1.38784
1.39191
1.39339
1.38783
1.36875
1.32299
1.22636
1.05566
0.829852
0.643437
0.5253
0.440065
0.374352
0.316715
0.260991
0.203363
0.155438
0.109944
0.0720198
1.00096
1.00087
1.00091
1.00099
1.00111
1.00126
1.00145
1.0017
1.00198
1.0023
1.00269
1.00312
1.00358
1.00413
1.00469
1.0053
1.00599
1.00655
1.00722
1.00796
1.00842
1.00886
1.00952
1.00997
1.01011
1.01025
1.0104
1.01043
1.01026
1.00977
1.00887
1.00768
1.00615
1.00426
1.00201
0.9992
0.995381
0.990288
0.98443
0.97691
0.971069
0.959141
0.931429
0.924322
0.922674
0.936274
0.95413
0.977369
0.999127
1.02115
1.04276
1.06384
1.08187
1.09785
1.114
1.12989
1.144
1.1543
1.16234
1.17075
1.17984
1.18785
1.19439
1.2003
1.20407
1.20667
1.21117
1.21862
1.2263
1.23222
1.235
1.23826
1.24191
1.2467
1.25221
1.2578
1.26317
1.26857
1.27381
1.28102
1.2899
1.29734
1.30332
1.30706
1.30969
1.31266
1.31806
1.32673
1.33737
1.34641
1.35378
1.36
1.36371
1.36674
1.3719
1.37828
1.38496
1.38946
1.39217
1.39166
1.38908
1.38376
1.37192
1.34636
1.29063
1.17465
0.984806
0.759254
0.591922
0.478787
0.401656
0.345059
0.299091
0.256502
0.212594
0.168949
0.135866
0.102607
0.0752798
1.00096
1.00087
1.00091
1.00099
1.00111
1.00126
1.00145
1.0017
1.00198
1.0023
1.00269
1.00312
1.00358
1.00412
1.00468
1.00531
1.00595
1.00658
1.00726
1.00791
1.0085
1.00901
1.00959
1.01005
1.01038
1.01054
1.01076
1.01089
1.0109
1.01067
1.01003
1.00903
1.00783
1.00639
1.0045
1.00213
0.998885
0.9942
0.988499
0.979133
0.972577
0.956801
0.925639
0.924564
0.924163
0.945981
0.966598
0.99503
1.02174
1.04813
1.07358
1.09706
1.11676
1.13504
1.15311
1.16984
1.1839
1.19437
1.20248
1.21054
1.21951
1.22793
1.23361
1.23884
1.24344
1.24737
1.24907
1.25204
1.25787
1.26434
1.26927
1.27285
1.27674
1.28137
1.28635
1.29073
1.2945
1.29778
1.30142
1.30734
1.31507
1.32322
1.33028
1.33548
1.33897
1.34051
1.34224
1.34566
1.35253
1.36214
1.37077
1.37753
1.38242
1.38338
1.38417
1.38551
1.38889
1.3911
1.39284
1.38972
1.38215
1.36252
1.32237
1.24978
1.11631
0.90685
0.700936
0.556396
0.45399
0.382336
0.33051
0.291389
0.255843
0.221181
0.184399
0.150568
0.12622
0.100708
0.0799303
1.00096
1.00087
1.00091
1.00099
1.0011
1.00126
1.00145
1.00169
1.00198
1.0023
1.00268
1.00312
1.00359
1.0041
1.00468
1.00532
1.00592
1.00661
1.0073
1.00789
1.00857
1.0092
1.0097
1.01015
1.01064
1.01097
1.01123
1.01145
1.01161
1.01169
1.01144
1.01078
1.00997
1.00904
1.00768
1.00584
1.00347
0.999753
0.994503
0.984631
0.976067
0.960489
0.928107
0.931553
0.936062
0.968492
0.995907
1.02781
1.05986
1.09035
1.11772
1.14203
1.16239
1.18162
1.20008
1.21567
1.22741
1.23728
1.24639
1.25411
1.26154
1.26833
1.27257
1.27576
1.28102
1.28708
1.29063
1.29251
1.29567
1.29936
1.30339
1.30655
1.3106
1.31643
1.32223
1.32706
1.3308
1.33341
1.33561
1.33825
1.34247
1.34842
1.35492
1.36021
1.36466
1.36846
1.37047
1.37262
1.37589
1.38023
1.38613
1.39102
1.39385
1.39378
1.39159
1.38993
1.39092
1.38867
1.38506
1.37493
1.34902
1.2984
1.20441
1.04997
0.840276
0.658875
0.530559
0.441493
0.37708
0.328474
0.291807
0.261634
0.231524
0.20129
0.170219
0.142803
0.123512
0.103094
0.0867631
1.00095
1.00086
1.00091
1.00099
1.0011
1.00126
1.00145
1.00169
1.00198
1.0023
1.00267
1.00311
1.00359
1.00408
1.00468
1.00534
1.0059
1.00663
1.00736
1.00787
1.00862
1.00938
1.00983
1.01023
1.01087
1.01146
1.01184
1.01213
1.01241
1.01273
1.01306
1.01297
1.01257
1.01222
1.01169
1.01083
1.00964
1.00748
1.00428
0.996717
0.9876
0.975965
0.952043
0.954679
0.971519
1.00691
1.04623
1.08115
1.11561
1.14713
1.17382
1.19644
1.21504
1.23228
1.24721
1.25906
1.2689
1.27632
1.28393
1.29266
1.29936
1.30359
1.30841
1.3109
1.31422
1.32033
1.32618
1.32871
1.33006
1.33356
1.33718
1.33985
1.34236
1.34584
1.35111
1.35737
1.36178
1.36413
1.36591
1.36783
1.37063
1.37406
1.3777
1.38215
1.38552
1.38797
1.38917
1.38953
1.39075
1.39256
1.39621
1.39851
1.39889
1.39819
1.39319
1.38709
1.38335
1.37367
1.35695
1.32079
1.25373
1.14191
0.975966
0.776876
0.623212
0.511209
0.433716
0.378577
0.334776
0.300863
0.272557
0.246024
0.219181
0.193158
0.16651
0.143567
0.126663
0.109668
0.096551
1.00095
1.00086
1.00091
1.00098
1.0011
1.00126
1.00145
1.00168
1.00197
1.0023
1.00266
1.00311
1.0036
1.00407
1.00468
1.00533
1.00591
1.00664
1.00737
1.00789
1.00865
1.00947
1.00998
1.01036
1.01108
1.0119
1.0125
1.01291
1.01331
1.01378
1.01453
1.01537
1.01575
1.01604
1.01648
1.0171
1.01759
1.01799
1.01782
1.01692
1.01334
1.0151
1.00175
1.00604
1.03742
1.07207
1.12207
1.16043
1.19245
1.21726
1.23439
1.25152
1.26635
1.27908
1.29017
1.29939
1.30589
1.31318
1.31912
1.32374
1.33074
1.33747
1.3403
1.34223
1.34603
1.34991
1.35455
1.35901
1.36099
1.36227
1.36616
1.36974
1.37051
1.37114
1.37469
1.37997
1.38571
1.38852
1.38864
1.38872
1.38945
1.392
1.39506
1.39739
1.39867
1.39906
1.39889
1.39843
1.39743
1.3973
1.39804
1.39862
1.39598
1.3924
1.38249
1.37112
1.3483
1.31597
1.26956
1.19037
1.05725
0.872144
0.707095
0.581953
0.48987
0.425645
0.378064
0.341887
0.312395
0.288554
0.264727
0.240181
0.215364
0.193267
0.169848
0.149325
0.132954
0.118255
0.107331
1.00094
1.00086
1.0009
1.00098
1.00109
1.00125
1.00144
1.00168
1.00197
1.00229
1.00265
1.0031
1.00359
1.00407
1.00467
1.00532
1.00593
1.00662
1.00733
1.00798
1.00872
1.00948
1.01016
1.01064
1.01132
1.01224
1.01311
1.01376
1.01431
1.01488
1.01579
1.0173
1.019
1.02038
1.02191
1.02384
1.02641
1.02997
1.03516
1.04209
1.05143
1.07567
1.09712
1.10355
1.14363
1.16769
1.20654
1.23499
1.26073
1.27893
1.29522
1.30715
1.31621
1.32469
1.33214
1.33789
1.3456
1.34947
1.35123
1.35489
1.35938
1.36508
1.3699
1.37219
1.37371
1.37554
1.37908
1.38129
1.38431
1.38707
1.38952
1.3928
1.39465
1.39422
1.39412
1.39629
1.40049
1.40516
1.40648
1.40502
1.40279
1.40245
1.40329
1.40436
1.40451
1.40358
1.40244
1.40111
1.39872
1.39567
1.39202
1.38456
1.37368
1.35961
1.33634
1.30528
1.26338
1.1951
1.0897
0.948968
0.776079
0.643594
0.538774
0.465782
0.413456
0.374361
0.345526
0.320487
0.301762
0.282236
0.260794
0.238827
0.21586
0.195754
0.174942
0.156026
0.140822
0.127851
0.11847
1.00094
1.00085
1.0009
1.00098
1.00109
1.00124
1.00144
1.00167
1.00196
1.00229
1.00265
1.00309
1.00358
1.00408
1.00466
1.0053
1.00595
1.00661
1.00735
1.0081
1.00881
1.00953
1.01031
1.01099
1.01172
1.0126
1.01363
1.0146
1.01536
1.01606
1.01713
1.01885
1.02139
1.02405
1.02672
1.02994
1.03442
1.04099
1.05094
1.06802
1.09404
1.13827
1.22445
1.24481
1.28277
1.28395
1.29283
1.2992
1.30938
1.32332
1.33856
1.35028
1.3585
1.36562
1.37059
1.37432
1.37917
1.38256
1.38175
1.38206
1.38402
1.38632
1.38942
1.39281
1.39584
1.39873
1.3992
1.40011
1.40001
1.40223
1.40511
1.40846
1.41058
1.41121
1.4087
1.4078
1.40868
1.41194
1.41389
1.4132
1.41057
1.40682
1.40531
1.40521
1.4043
1.40255
1.39839
1.39229
1.38205
1.37008
1.35699
1.33798
1.31218
1.28167
1.24005
1.17433
1.0868
0.962734
0.803782
0.676324
0.579421
0.49568
0.438217
0.396013
0.36614
0.344924
0.325368
0.310196
0.295489
0.277971
0.259249
0.239704
0.218336
0.198519
0.179569
0.163138
0.149857
0.138068
0.129941
1.00093
1.00085
1.00089
1.00097
1.00108
1.00124
1.00144
1.00167
1.00195
1.00228
1.00265
1.00308
1.00356
1.00408
1.00464
1.00528
1.00597
1.00662
1.00735
1.00819
1.00891
1.0096
1.01047
1.01135
1.01217
1.01303
1.01409
1.01524
1.01624
1.01731
1.01861
1.02041
1.02292
1.02631
1.02985
1.03386
1.0389
1.0454
1.05387
1.06401
1.07603
1.09556
1.21644
1.31381
1.36625
1.36965
1.36725
1.36228
1.36088
1.36281
1.36893
1.37723
1.38439
1.3911
1.39496
1.39633
1.39925
1.4021
1.4024
1.40081
1.40122
1.40175
1.40212
1.40391
1.40625
1.40991
1.41223
1.41233
1.41029
1.40974
1.411
1.41405
1.41668
1.41751
1.41564
1.4119
1.40995
1.41012
1.41238
1.41213
1.40963
1.40377
1.39753
1.39084
1.38434
1.37772
1.36662
1.3517
1.33162
1.30563
1.27454
1.23585
1.18496
1.12214
1.04165
0.930759
0.800291
0.685155
0.595334
0.508678
0.454587
0.409902
0.375707
0.353382
0.338131
0.326563
0.314979
0.304218
0.291059
0.276163
0.260167
0.241701
0.221919
0.202938
0.184928
0.17103
0.159256
0.148975
0.141944
1.00093
1.00084
1.00089
1.00097
1.00108
1.00123
1.00143
1.00166
1.00193
1.00227
1.00265
1.00306
1.00354
1.00408
1.00463
1.00526
1.00596
1.00663
1.00734
1.00821
1.00902
1.0097
1.01061
1.01166
1.01262
1.01352
1.01452
1.01576
1.01711
1.01851
1.02014
1.022
1.02431
1.02739
1.03125
1.03555
1.04075
1.047
1.0551
1.06502
1.08487
1.12121
1.20875
1.3309
1.36726
1.38451
1.37959
1.38086
1.38117
1.38236
1.38573
1.39236
1.39705
1.40055
1.40334
1.40439
1.40385
1.40619
1.40852
1.4078
1.40762
1.40775
1.40676
1.40606
1.40717
1.41006
1.41486
1.41591
1.41531
1.41136
1.41082
1.41108
1.41402
1.41479
1.41398
1.40885
1.40335
1.39886
1.39642
1.39266
1.38751
1.37776
1.3641
1.34679
1.32921
1.31048
1.28419
1.25147
1.21316
1.16636
1.10634
1.03406
0.949685
0.852141
0.751222
0.655665
0.585662
0.505773
0.456592
0.411702
0.378324
0.356212
0.339332
0.32862
0.321696
0.314898
0.308409
0.299922
0.289293
0.27654
0.261578
0.244338
0.225854
0.208262
0.191727
0.178935
0.168282
0.159941
0.154189
1.00092
1.00084
1.00088
1.00096
1.00107
1.00122
1.00142
1.00165
1.00192
1.00225
1.00264
1.00304
1.00352
1.00407
1.00462
1.00524
1.00596
1.00667
1.00737
1.00824
1.00912
1.00984
1.01068
1.01186
1.013
1.01399
1.01493
1.01616
1.0178
1.01955
1.0214
1.02325
1.02536
1.02799
1.03157
1.03549
1.03967
1.04439
1.04886
1.05131
1.05264
1.09124
1.15319
1.19962
1.26684
1.3294
1.3557
1.36964
1.3785
1.38275
1.38714
1.39155
1.395
1.398
1.40045
1.40204
1.40084
1.40193
1.40492
1.40555
1.40592
1.40673
1.40724
1.40506
1.40433
1.40432
1.4081
1.41103
1.41143
1.40853
1.40385
1.40005
1.3981
1.39652
1.3938
1.38899
1.37798
1.36559
1.35109
1.33753
1.32314
1.30109
1.27412
1.24092
1.20507
1.16198
1.11079
1.05167
0.986774
0.915735
0.832202
0.754182
0.672177
0.603968
0.548647
0.483306
0.445215
0.404273
0.374023
0.352461
0.335374
0.325222
0.318663
0.314716
0.31158
0.307595
0.303708
0.29771
0.288861
0.277478
0.262964
0.247102
0.230364
0.214958
0.199781
0.188037
0.177881
0.171441
0.166923
1.00091
1.00083
1.00087
1.00095
1.00106
1.00121
1.00141
1.00164
1.00191
1.00224
1.00263
1.00302
1.0035
1.00406
1.00461
1.00522
1.00595
1.00669
1.00741
1.00825
1.00916
1.01
1.01084
1.012
1.01327
1.01439
1.01529
1.01646
1.01826
1.02026
1.02219
1.0241
1.02599
1.02824
1.03107
1.03456
1.03796
1.04136
1.04456
1.04884
1.05702
1.09283
1.12043
1.13222
1.17402
1.23973
1.30134
1.3342
1.35127
1.36223
1.36995
1.37657
1.38224
1.38636
1.38986
1.39285
1.39289
1.3934
1.39618
1.39778
1.39778
1.39913
1.40069
1.40069
1.39753
1.39457
1.3927
1.39329
1.39237
1.39081
1.38378
1.37346
1.36235
1.35097
1.34043
1.3273
1.3061
1.28093
1.24877
1.21822
1.18153
1.13739
1.08621
1.03114
0.969144
0.904603
0.837721
0.774596
0.707347
0.645159
0.592189
0.543657
0.497357
0.449488
0.421476
0.386396
0.363666
0.342984
0.328112
0.31892
0.311033
0.30839
0.307187
0.305884
0.304803
0.302786
0.300644
0.29667
0.289418
0.279151
0.265613
0.251196
0.235678
0.222459
0.208497
0.197665
0.188112
0.1831
0.179603
1.0009
1.00082
1.00087
1.00094
1.00105
1.0012
1.00139
1.00163
1.0019
1.00222
1.00261
1.00301
1.00349
1.00404
1.00461
1.00522
1.00594
1.00669
1.00745
1.00828
1.0092
1.01014
1.01106
1.01216
1.01341
1.0146
1.01573
1.01698
1.01863
1.02067
1.02262
1.0245
1.02633
1.02819
1.03032
1.03283
1.03541
1.03775
1.04024
1.04447
1.06481
1.09396
1.10903
1.11549
1.13269
1.16548
1.22029
1.27489
1.31321
1.33103
1.34721
1.35313
1.36116
1.36814
1.37287
1.37686
1.37859
1.37981
1.38233
1.38366
1.38377
1.38347
1.38329
1.38326
1.37879
1.37236
1.36503
1.35894
1.35086
1.34085
1.32672
1.30741
1.28405
1.25682
1.22795
1.18993
1.1485
1.09949
1.04807
0.99063
0.931018
0.868212
0.810255
0.751551
0.694009
0.645255
0.602816
0.560545
0.520453
0.482546
0.448504
0.415395
0.392452
0.364631
0.349446
0.330298
0.317957
0.309556
0.30275
0.299773
0.298073
0.299619
0.300532
0.301151
0.301266
0.300342
0.299071
0.296057
0.290593
0.281617
0.269103
0.256886
0.242108
0.22999
0.21777
0.208092
0.199542
0.195172
0.19259
1.00089
1.00081
1.00086
1.00093
1.00104
1.00119
1.00138
1.00162
1.00188
1.00221
1.00259
1.003
1.00347
1.00401
1.00459
1.00522
1.00593
1.00669
1.00749
1.00832
1.00925
1.01026
1.0113
1.01238
1.01356
1.01485
1.01616
1.01751
1.01903
1.02091
1.02284
1.02464
1.02639
1.02807
1.02958
1.03123
1.0325
1.03327
1.03233
1.02934
1.04282
1.0781
1.08579
1.09087
1.10173
1.11994
1.15107
1.20267
1.25157
1.29047
1.31049
1.32375
1.33798
1.34767
1.35511
1.36014
1.36185
1.36349
1.3637
1.36225
1.36007
1.35709
1.35196
1.34556
1.33635
1.3223
1.30673
1.28831
1.26755
1.23723
1.20344
1.16709
1.11828
1.06769
1.01093
0.950866
0.888694
0.832263
0.776241
0.720633
0.67383
0.632095
0.593492
0.55808
0.523519
0.491365
0.462232
0.436175
0.40986
0.387188
0.368621
0.347789
0.335011
0.317155
0.308709
0.299356
0.29336
0.290909
0.288825
0.289519
0.291614
0.294198
0.296357
0.298461
0.299698
0.299804
0.298749
0.296605
0.292343
0.284809
0.274234
0.26371
0.25007
0.238121
0.226756
0.218809
0.211344
0.207473
0.205261
1.00088
1.0008
1.00085
1.00092
1.00103
1.00118
1.00136
1.0016
1.00187
1.00218
1.00256
1.00299
1.00345
1.00398
1.00458
1.00521
1.0059
1.00668
1.00752
1.00836
1.00929
1.01036
1.01149
1.01257
1.01371
1.01507
1.01651
1.01794
1.01942
1.02108
1.02295
1.02467
1.02628
1.0278
1.02902
1.03022
1.0312
1.03195
1.03176
1.03225
1.04323
1.06307
1.0659
1.06981
1.07698
1.08753
1.10521
1.13202
1.18053
1.23219
1.27812
1.30678
1.32682
1.33451
1.34054
1.34335
1.34391
1.34227
1.33855
1.33105
1.32155
1.30945
1.29383
1.27418
1.25004
1.22401
1.18416
1.14159
1.09923
1.04352
0.983994
0.925679
0.861891
0.802826
0.747314
0.700381
0.659173
0.620113
0.58523
0.552195
0.52296
0.495269
0.470202
0.446804
0.424603
0.403471
0.38617
0.368835
0.354355
0.336473
0.32475
0.310242
0.303219
0.292624
0.286806
0.281801
0.280233
0.280179
0.280676
0.283838
0.287807
0.291256
0.294692
0.297828
0.299771
0.300796
0.300293
0.298363
0.294359
0.288691
0.280136
0.270297
0.258239
0.247203
0.236576
0.229882
0.223642
0.220404
0.217995
1.00087
1.00079
1.00083
1.00091
1.00102
1.00116
1.00134
1.00158
1.00185
1.00216
1.00253
1.00296
1.00342
1.00394
1.00455
1.00519
1.00587
1.00667
1.00754
1.00839
1.00932
1.01044
1.01163
1.01272
1.01388
1.01526
1.01678
1.01826
1.01972
1.02124
1.02298
1.02464
1.02605
1.02734
1.02859
1.02973
1.03127
1.0335
1.03713
1.04497
1.06178
1.0666
1.0649
1.06633
1.07088
1.07624
1.08668
1.1024
1.12811
1.16738
1.2286
1.27093
1.30713
1.31802
1.32346
1.32207
1.3154
1.30332
1.28609
1.26821
1.23953
1.21087
1.17803
1.13291
1.0842
1.03261
0.97159
0.903957
0.846985
0.790029
0.736794
0.692649
0.651359
0.614357
0.581037
0.551538
0.525048
0.500248
0.47813
0.456843
0.439147
0.420426
0.405051
0.389276
0.374883
0.359284
0.345811
0.332994
0.323289
0.310661
0.303002
0.291876
0.286778
0.279557
0.275931
0.273448
0.273409
0.274709
0.277975
0.283014
0.287379
0.291374
0.295176
0.298535
0.301187
0.303101
0.303526
0.301881
0.298321
0.294043
0.286981
0.278156
0.267218
0.25685
0.247316
0.240538
0.235332
0.232307
0.231014
1.00086
1.00078
1.00082
1.00089
1.001
1.00115
1.00133
1.00155
1.00183
1.00213
1.0025
1.00294
1.00339
1.00391
1.00453
1.00517
1.00585
1.00665
1.00754
1.00842
1.00937
1.0105
1.0117
1.01286
1.01405
1.01545
1.01701
1.01855
1.01998
1.02143
1.02295
1.02452
1.0259
1.02701
1.02802
1.02888
1.02954
1.03051
1.03235
1.04195
1.05673
1.05757
1.05915
1.06154
1.06583
1.07148
1.07915
1.08882
1.10444
1.13084
1.16276
1.21657
1.26492
1.28002
1.28224
1.26861
1.25127
1.21847
1.18045
1.14044
1.08513
1.02834
0.974384
0.906367
0.845009
0.788386
0.73811
0.693019
0.65346
0.618248
0.586277
0.558364
0.533198
0.510108
0.488279
0.469166
0.453172
0.436365
0.423347
0.409475
0.396634
0.384242
0.371376
0.359911
0.349331
0.337867
0.328144
0.317207
0.309587
0.299051
0.292901
0.284317
0.279467
0.274328
0.271467
0.270893
0.272477
0.275651
0.279413
0.284046
0.288484
0.292823
0.297194
0.300976
0.3039
0.306467
0.307649
0.307025
0.30414
0.300397
0.294178
0.286257
0.276434
0.266992
0.25834
0.251884
0.246858
0.244498
0.244384
1.00084
1.00077
1.00081
1.00088
1.00099
1.00113
1.00131
1.00153
1.0018
1.00211
1.00247
1.0029
1.00336
1.00388
1.00449
1.00514
1.00584
1.00664
1.00752
1.00843
1.00943
1.01054
1.01176
1.01299
1.01421
1.0156
1.01719
1.01877
1.0202
1.02156
1.02295
1.02451
1.02584
1.02684
1.02757
1.02812
1.02798
1.02693
1.02425
1.02642
1.0401
1.04615
1.05063
1.05657
1.06287
1.06819
1.07281
1.0811
1.09242
1.10502
1.11718
1.16046
1.18267
1.20519
1.19412
1.15688
1.11254
1.05061
0.988333
0.92362
0.861776
0.802897
0.754816
0.710453
0.668835
0.633456
0.60187
0.573745
0.548644
0.526004
0.5056
0.487993
0.470998
0.457632
0.443841
0.430775
0.419444
0.407612
0.396363
0.386702
0.376992
0.367434
0.358473
0.348243
0.339806
0.329594
0.321221
0.311693
0.304859
0.295954
0.290492
0.283602
0.27949
0.27584
0.274065
0.274286
0.275925
0.27902
0.282953
0.28737
0.291684
0.296611
0.301639
0.305737
0.308603
0.31094
0.312896
0.313612
0.312022
0.308617
0.302924
0.295525
0.287033
0.278365
0.269861
0.26318
0.258468
0.256378
0.257217
1.00083
1.00075
1.00079
1.00086
1.00097
1.00111
1.00128
1.0015
1.00177
1.00208
1.00243
1.00285
1.00332
1.00384
1.00444
1.0051
1.00581
1.00661
1.00749
1.00844
1.00946
1.01058
1.0118
1.01308
1.01437
1.01575
1.01732
1.01893
1.02041
1.02171
1.02301
1.0245
1.02597
1.02706
1.02778
1.02808
1.02768
1.02612
1.02237
1.01551
1.03301
1.03632
1.04086
1.04397
1.04819
1.05095
1.05351
1.05892
1.06316
1.0667
1.06787
1.06622
1.06634
1.06506
1.02347
0.962922
0.900704
0.841118
0.788878
0.744282
0.702022
0.664061
0.631636
0.6028
0.576485
0.552491
0.531564
0.512612
0.496778
0.483451
0.47008
0.457889
0.44546
0.434326
0.424668
0.414239
0.405246
0.396291
0.386994
0.37859
0.370843
0.362712
0.355711
0.347387
0.340127
0.331699
0.323919
0.315108
0.309012
0.301234
0.296289
0.290169
0.286403
0.283093
0.281241
0.280952
0.282126
0.285241
0.289224
0.292984
0.297498
0.302934
0.30833
0.312567
0.315344
0.317162
0.319091
0.320784
0.320245
0.316947
0.311863
0.305076
0.297425
0.289737
0.281903
0.27491
0.270946
0.268895
0.270377
1.00081
1.00074
1.00078
1.00085
1.00095
1.00109
1.00126
1.00147
1.00174
1.00205
1.00239
1.0028
1.00328
1.00379
1.00437
1.00505
1.00578
1.00656
1.00745
1.00843
1.00946
1.01058
1.01182
1.01315
1.01449
1.01591
1.01744
1.01905
1.02056
1.02189
1.02316
1.02457
1.02618
1.02755
1.02875
1.02979
1.03046
1.03125
1.03442
1.03558
1.04194
1.03764
1.03661
1.03621
1.03641
1.03674
1.03701
1.03786
1.03415
1.03198
1.02621
0.988575
0.949529
0.888104
0.827984
0.783174
0.74211
0.705976
0.673208
0.644839
0.61786
0.592583
0.569991
0.550228
0.533877
0.518084
0.504279
0.490242
0.477302
0.46679
0.457596
0.448635
0.439375
0.430379
0.422348
0.414083
0.40605
0.398738
0.39109
0.383647
0.376957
0.369627
0.36318
0.355875
0.349007
0.341854
0.33469
0.326054
0.320167
0.312769
0.307819
0.30171
0.297687
0.294
0.291788
0.290826
0.291636
0.294363
0.297734
0.301319
0.306165
0.31179
0.317113
0.321254
0.324139
0.3257
0.326985
0.32799
0.328371
0.325703
0.321842
0.316333
0.309254
0.302166
0.294505
0.287123
0.283539
0.281359
0.283341
1.0008
1.00072
1.00076
1.00083
1.00092
1.00106
1.00123
1.00144
1.0017
1.00201
1.00234
1.00275
1.00323
1.00373
1.00431
1.00499
1.00572
1.00649
1.00739
1.0084
1.00945
1.01057
1.01182
1.01318
1.01458
1.01602
1.01754
1.01915
1.0207
1.02214
1.02346
1.02486
1.02644
1.02812
1.02977
1.03173
1.03409
1.03731
1.04218
1.04274
1.04269
1.03929
1.03736
1.03551
1.03416
1.03343
1.03105
1.02691
1.01782
1.003
0.968876
0.895203
0.815349
0.753363
0.71647
0.685154
0.659528
0.635898
0.614846
0.595424
0.578715
0.562643
0.548296
0.534005
0.52197
0.510493
0.501663
0.491988
0.482314
0.47313
0.46512
0.457507
0.450032
0.442031
0.434387
0.426839
0.4188
0.411672
0.404467
0.397106
0.390636
0.383637
0.377198
0.37036
0.363429
0.357018
0.350264
0.341264
0.335376
0.327714
0.322458
0.316081
0.311799
0.307586
0.305127
0.303751
0.304236
0.305969
0.308499
0.31208
0.316832
0.321848
0.326375
0.330559
0.333869
0.335466
0.336144
0.335731
0.335538
0.334094
0.330927
0.326552
0.32023
0.313584
0.30633
0.299807
0.296675
0.29457
0.296554
1.00078
1.0007
1.00074
1.00081
1.0009
1.00103
1.0012
1.00141
1.00166
1.00196
1.00229
1.00269
1.00316
1.00366
1.00424
1.00492
1.00565
1.00642
1.00732
1.00835
1.00941
1.01052
1.01178
1.01319
1.01465
1.01611
1.01762
1.01928
1.02096
1.02251
1.02392
1.02531
1.02672
1.02836
1.02982
1.03095
1.03169
1.03259
1.03681
1.04223
1.03874
1.03666
1.03662
1.03659
1.03588
1.03472
1.02945
1.01639
0.998461
0.945778
0.880208
0.78935
0.729046
0.687929
0.659583
0.637953
0.620372
0.605251
0.591855
0.579193
0.567778
0.5573
0.548479
0.539445
0.531836
0.523235
0.516256
0.5093
0.501615
0.493105
0.485176
0.477399
0.470274
0.462295
0.454403
0.446654
0.438048
0.430375
0.422675
0.414901
0.407913
0.400743
0.393922
0.387423
0.380391
0.374399
0.368491
0.359278
0.353275
0.345214
0.339603
0.333001
0.328576
0.323841
0.320992
0.319191
0.319245
0.319977
0.321763
0.325189
0.329224
0.332998
0.336577
0.340551
0.344078
0.345949
0.346373
0.345616
0.344407
0.343474
0.340838
0.337418
0.332181
0.325949
0.319321
0.313132
0.309758
0.307488
0.309548
1.00076
1.00068
1.00072
1.00078
1.00088
1.001
1.00117
1.00137
1.00161
1.00191
1.00224
1.00263
1.00309
1.00359
1.00416
1.00482
1.00555
1.00634
1.00724
1.00826
1.00934
1.01047
1.01174
1.01316
1.01468
1.01618
1.01772
1.01942
1.02123
1.02295
1.02453
1.02593
1.02731
1.02867
1.02967
1.03008
1.02939
1.0253
1.01954
1.02873
1.03114
1.03248
1.03405
1.03515
1.03366
1.0307
1.02151
0.99207
0.957906
0.868502
0.782566
0.723692
0.683847
0.65703
0.637633
0.623108
0.611233
0.601029
0.592275
0.584379
0.577189
0.570267
0.564267
0.558058
0.552553
0.546266
0.539835
0.534109
0.527604
0.519494
0.511437
0.502807
0.49501
0.486849
0.478347
0.470145
0.461042
0.452583
0.444242
0.435926
0.428184
0.420848
0.413316
0.407071
0.399899
0.393694
0.388458
0.379319
0.372801
0.363974
0.357955
0.35094
0.346305
0.341351
0.338245
0.335896
0.334975
0.334827
0.335626
0.338453
0.341245
0.343932
0.346683
0.350154
0.353595
0.356017
0.356778
0.356189
0.354473
0.353182
0.350834
0.347313
0.343024
0.337357
0.33168
0.326201
0.322957
0.32069
0.322931
1.00073
1.00066
1.0007
1.00076
1.00085
1.00097
1.00113
1.00133
1.00156
1.00185
1.00218
1.00255
1.003
1.00351
1.00407
1.00471
1.00544
1.00624
1.00713
1.00814
1.00923
1.01039
1.01167
1.01311
1.01466
1.01624
1.01783
1.01953
1.02149
1.02345
1.02519
1.02678
1.0283
1.02974
1.03098
1.0317
1.0312
1.02936
1.01902
1.02977
1.03188
1.03466
1.03457
1.03451
1.03086
1.01871
1.00153
0.937075
0.860154
0.77684
0.721546
0.684387
0.660194
0.64264
0.630224
0.620743
0.613297
0.606848
0.601114
0.595803
0.590913
0.585968
0.581446
0.576914
0.57256
0.568086
0.562376
0.556735
0.551292
0.544135
0.537091
0.529183
0.521275
0.513567
0.504715
0.496315
0.486973
0.477522
0.46834
0.458818
0.449622
0.44126
0.432559
0.42576
0.418594
0.41208
0.407088
0.398768
0.392075
0.383096
0.377179
0.369928
0.364903
0.359332
0.355513
0.352479
0.350452
0.350155
0.350486
0.352433
0.353906
0.355941
0.35801
0.3605
0.363163
0.365609
0.36683
0.366735
0.365505
0.363869
0.361997
0.35833
0.354927
0.349932
0.344951
0.339588
0.335985
0.333751
0.336196
1.00071
1.00064
1.00067
1.00073
1.00082
1.00093
1.00109
1.00128
1.00151
1.00179
1.00211
1.00247
1.00291
1.00341
1.00395
1.00458
1.00531
1.00611
1.00698
1.00797
1.00909
1.01027
1.01156
1.013
1.0146
1.01626
1.01793
1.01973
1.02175
1.02394
1.026
1.02796
1.02984
1.03176
1.03396
1.03687
1.04102
1.04536
1.04533
1.04715
1.04603
1.04562
1.04493
1.03614
1.02313
0.985534
0.938958
0.845686
0.772322
0.721221
0.688069
0.665498
0.649858
0.638447
0.629995
0.623445
0.618291
0.613894
0.609826
0.605918
0.602115
0.598165
0.594371
0.590827
0.587397
0.584215
0.580067
0.575297
0.570849
0.564774
0.558789
0.551978
0.544294
0.53712
0.528172
0.519531
0.510206
0.500098
0.490445
0.480466
0.471027
0.462446
0.453402
0.446082
0.438661
0.431739
0.426329
0.418663
0.411843
0.402166
0.395787
0.387966
0.382323
0.376474
0.372293
0.368852
0.366211
0.365195
0.365001
0.365812
0.366687
0.368259
0.370137
0.372025
0.373305
0.374995
0.376505
0.377355
0.376544
0.374679
0.372994
0.369849
0.366575
0.362334
0.357675
0.352404
0.349021
0.346991
0.349617
1.00068
1.00062
1.00065
1.0007
1.00078
1.0009
1.00105
1.00123
1.00145
1.00171
1.00203
1.00238
1.0028
1.00329
1.00382
1.00444
1.00516
1.00595
1.0068
1.00778
1.00891
1.01011
1.01139
1.01284
1.01446
1.01621
1.01798
1.01991
1.02202
1.0244
1.0269
1.02937
1.03167
1.03435
1.03728
1.04079
1.04344
1.04987
1.04966
1.05122
1.05086
1.05104
1.04571
1.02504
0.995472
0.925937
0.841876
0.771471
0.72518
0.693772
0.672629
0.657936
0.647452
0.639505
0.633376
0.628539
0.624644
0.621272
0.61805
0.614903
0.61163
0.608418
0.605161
0.602222
0.599491
0.596816
0.593931
0.590201
0.586557
0.581721
0.576797
0.571202
0.564595
0.558312
0.550186
0.542171
0.533695
0.523913
0.514316
0.504165
0.493894
0.484545
0.474157
0.465398
0.456977
0.449271
0.443557