/*--------------------------------*- C++ -*----------------------------------*\
| =========                 |                                                 |
| \\      /  F ield         | OpenFOAM: The Open Source CFD Toolbox           |
|  \\    /   O peration     | Version:  2.2.x                                 |
|   \\  /    A nd           | Web:      www.OpenFOAM.org                      |
|    \\/     M anipulation  |                                                 |
\*---------------------------------------------------------------------------*/
FoamFile
{
    version     2.0;
    format      ascii;
    class       volScalarField;
    location    "2.1";
    object      Bz;
}
// * * * * * * * * * * * * * * * * * * * * * * * * * * * * * * * * * * * * * //

dimensions      [1 0 -2 0 0 -1 0];

internalField   nonuniform List<scalar> 
14161
(
-2.27657e-17
-2.88027e-17
-7.56843e-17
-1.11107e-17
-1.78056e-16
1.93199e-16
-1.44519e-15
4.04095e-15
-1.06278e-14
3.01526e-14
-5.5036e-14
1.09472e-13
-2.2339e-13
3.74117e-13
-5.79339e-13
7.98337e-13
-9.86164e-13
1.1388e-12
-1.12548e-12
-1.54723e-14
7.79533e-12
-1.65995e-11
9.63374e-12
9.00615e-12
8.62451e-12
-1.33519e-10
-4.68349e-10
3.70454e-09
-1.87059e-08
7.4194e-08
-1.86812e-07
3.61174e-07
-7.60279e-07
1.40313e-06
-2.3816e-06
4.30422e-06
-7.5563e-06
9.4736e-06
-8.85008e-06
2.04685e-05
-1.81968e-05
0.000136327
0.00015619
0.000138237
0.000101908
1.71207e-05
0.000454639
-0.00017106
-0.00138532
0.00114584
0.00237566
-0.00102169
-0.00352086
-0.000994057
0.00330237
0.00343257
-0.000355735
-0.0041391
-0.00334617
0.00106559
0.00444142
0.00370204
-0.000262553
-0.0037767
-0.00407876
-0.00118816
0.0024543
0.00339606
0.00177169
-0.00132752
-0.00345009
-0.00335409
-0.000756278
0.00240201
0.0031697
0.00184343
-0.0013541
-0.00378931
-0.00384811
-0.000889152
0.00284394
0.00372373
0.00194554
-0.00158045
-0.00335326
-0.00291755
-0.00091702
0.00155188
0.00282512
0.00234697
0.000468897
-0.00161052
-0.00272442
-0.00207983
-0.00102694
0.00193389
0.00389892
0.00300422
-0.000363368
-0.00355482
-0.00394935
-0.00241031
-0.000119765
0.00330817
0.00426446
0.00251449
-0.00233089
-0.00376329
-0.00271374
-0.000242682
0.00226852
0.00247433
-0.000582205
0.00109469
-0.000954524
0.00606654
0.00681139
0.0286346
0.0431288
-2.37477e-17
-3.64656e-17
-7.76797e-17
-3.44588e-17
-1.31579e-16
3.92488e-17
-9.49149e-16
3.39913e-15
-9.38557e-15
2.77804e-14
-5.31779e-14
1.05341e-13
-2.20486e-13
3.83675e-13
-5.82292e-13
7.95933e-13
-1.09711e-12
1.13978e-12
-8.04019e-13
-5.52115e-13
7.39776e-12
-1.51018e-11
1.58365e-11
-2.40046e-12
-1.80196e-11
5.21488e-11
-7.30776e-10
7.73978e-10
-1.28768e-08
5.64707e-08
-1.28609e-07
2.58049e-07
-5.34882e-07
9.29271e-07
-1.56604e-06
2.70791e-06
-4.44043e-06
5.03689e-06
-3.48228e-06
5.57108e-07
1.55661e-06
0.000112235
0.000133017
0.000144926
6.56978e-05
8.6069e-06
0.000380699
0.000187001
-0.000967199
0.000154265
0.00226454
0.000312064
-0.00285276
-0.0020189
0.00187375
0.00332336
0.00113105
-0.00280912
-0.00399719
-0.00125661
0.00293039
0.00416402
0.00178108
-0.00271449
-0.00441486
-0.0028796
0.00150436
0.00421731
0.0032805
-0.000385042
-0.00337145
-0.00373436
-0.000927123
0.00256411
0.00360004
0.00198624
-0.00149595
-0.00309249
-0.00257279
-0.000112631
0.00220134
0.00269805
0.00138321
-0.00100131
-0.00244981
-0.00222554
-0.000779247
0.000795785
0.00192742
0.00175586
0.000553223
-0.000889322
-0.00258992
-0.00229682
-0.000702571
0.00162656
0.00328809
0.00249647
0.000289947
-0.00281317
-0.00444119
-0.00237016
0.000615208
0.00335744
0.00341182
0.00204843
-0.00181408
-0.00314784
-0.00229154
1.03138e-05
0.00232972
0.00211588
-0.00193809
0.00149127
-0.000343333
0.00322016
0.00377532
0.0111934
0.013424
-2.93481e-17
-4.28303e-17
-7.2032e-17
-7.981e-17
-7.6084e-17
-1.23649e-16
-5.52544e-16
2.38523e-15
-7.58542e-15
2.28271e-14
-4.36069e-14
9.81342e-14
-2.04436e-13
3.78625e-13
-5.57708e-13
7.64619e-13
-1.06834e-12
9.04354e-13
-2.52106e-13
-1.83968e-12
7.86939e-12
-1.28751e-11
2.32574e-11
-4.67598e-11
1.99421e-11
-1.12261e-10
-2.18742e-11
1.18057e-09
-1.13794e-08
3.71231e-08
-9.35669e-08
1.87213e-07
-3.27862e-07
5.37903e-07
-7.57171e-07
1.08689e-06
-1.37022e-06
1.65834e-06
-1.02484e-07
-3.53876e-06
1.50377e-05
0.000111938
0.000127274
0.000141791
4.21565e-05
-2.47009e-06
0.000255084
0.000247489
-0.000650733
-0.000532223
0.00175242
0.00121503
-0.00219975
-0.00302699
0.000711625
0.00377211
0.00252337
-0.00195084
-0.00444847
-0.00289007
0.00191314
0.00450045
0.00318794
-0.00182977
-0.00466265
-0.00400357
0.000722502
0.00403467
0.00405103
0.000769953
-0.00306359
-0.00393734
-0.0014036
0.00240999
0.00370142
0.0018847
-0.0011272
-0.00211641
-0.0018048
-0.000170221
0.00130915
0.001449
0.000824879
-0.00013467
-0.000769835
-0.00119544
-0.000911181
-1.54785e-05
0.00077039
0.00119471
0.00099122
0.000380098
-0.00137471
-0.00234234
-0.00132682
0.000848137
0.00223919
0.00240512
0.00114564
-0.00122453
-0.0041705
-0.00319169
0.000529563
0.00301963
0.0032485
0.00109889
-0.00108035
-0.00214427
-0.00166531
0.000719074
0.00165764
0.000361577
-0.00132689
0.00132834
-0.000504178
0.00206724
0.00270896
0.00681797
0.00773877
-5.297e-17
-5.82538e-17
-4.70559e-17
-1.47332e-16
4.74498e-17
-4.58949e-16
2.77612e-16
6.34755e-16
-4.31824e-15
1.62768e-14
-3.72832e-14
7.28108e-14
-1.54035e-13
3.10733e-13
-4.51374e-13
6.0095e-13
-8.77738e-13
5.10168e-13
5.81708e-13
-2.87161e-12
8.47826e-12
-1.43796e-11
3.03369e-11
-5.57316e-11
4.95674e-11
-5.97492e-11
2.29792e-10
-2.13076e-10
-4.76346e-09
1.60873e-08
-4.17416e-08
7.41433e-08
-1.13424e-07
1.36013e-07
-1.25499e-07
9.69368e-08
1.54184e-07
-4.70925e-07
9.74762e-07
-2.6909e-06
1.60708e-05
0.000102376
0.000120743
9.29897e-05
-1.71695e-05
0.000143566
0.000316534
-0.000204622
-0.00065703
0.000387503
0.00178347
0.000349238
-0.00230667
-0.00216742
0.00127037
0.00352062
0.00199109
-0.00185374
-0.00386606
-0.00269295
0.00105987
0.00358715
0.00355191
-9.28665e-05
-0.00347825
-0.00402065
-0.000603295
0.0023548
0.00358153
0.0022903
-0.0011912
-0.00287065
-0.00226414
0.000501771
0.00189938
0.00141907
-2.94574e-05
-0.000678739
-0.000312088
0.000184835
-0.000685867
-0.00123025
-0.00039584
0.00134518
0.00166717
0.000773634
-0.000854055
-0.00141466
-0.000732917
0.000262096
0.000989743
0.00100942
0.000149322
-0.00104784
-0.00169413
-0.000497647
0.00101866
0.00191827
0.00216508
0.000505188
-0.00249573
-0.00304232
-8.54217e-05
0.00220849
0.00234284
0.00118407
-0.00072546
-0.00155946
-0.000703352
0.00137912
-0.000196699
0.000271248
-0.000630889
0.000759739
-0.000445392
0.0013623
0.00147659
0.00353416
0.00383221
-8.12414e-17
-1.06737e-16
-4.59864e-17
-2.39934e-16
2.56993e-16
-9.63418e-16
1.1075e-15
-1.71169e-15
-6.28538e-17
4.47415e-15
-1.51366e-14
4.23352e-14
-7.28352e-14
1.81298e-13
-2.31938e-13
3.37614e-13
-3.97583e-13
-4.44554e-14
1.53079e-12
-3.57393e-12
6.13394e-12
-1.2042e-11
3.12963e-11
-6.15776e-11
5.24263e-11
-9.93226e-11
1.4e-10
-3.40456e-10
-7.38533e-10
3.83941e-09
-1.0536e-08
1.70187e-08
-1.84597e-08
-9.22821e-10
2.73663e-08
-1.10677e-07
2.87934e-07
-5.05073e-07
8.05865e-07
-1.22173e-06
1.46812e-05
8.52501e-05
9.92154e-05
0.000101023
-0.000132778
0.000116775
0.000609911
-0.00014917
-0.00160672
4.87259e-05
0.00330033
0.00140088
-0.00397726
-0.00457403
0.00119727
0.00579995
0.00363857
-0.00257898
-0.00525022
-0.00296541
0.00116101
0.00302257
0.0025671
0.000191449
-0.00178525
-0.00217199
-0.000888987
0.000595711
0.00144715
0.00130373
0.000127889
-0.000255214
-6.15176e-06
0.000111846
-0.000281328
-0.000628249
-0.000365641
0.000712724
0.00130181
0.000373951
-0.00119711
-0.00167816
-0.000792099
0.0012684
0.00185191
0.00121432
-0.000343341
-0.0015746
-0.00113969
-6.68426e-05
0.000727768
0.00113553
0.000514658
-0.000297277
-0.00171274
-0.00155789
-9.72113e-05
0.00132008
0.00205565
0.00123195
-0.000942914
-0.0019787
-0.000845453
0.000980513
0.00145298
0.00088466
-0.000535996
-0.000930476
0.000309239
0.000529734
-0.000551294
0.000636332
-0.000613009
0.000351685
-0.000229668
0.00087208
0.000658007
0.0016612
0.0017882
-1.32072e-16
-1.53939e-16
-1.00258e-16
-3.08564e-16
4.32248e-16
-1.5213e-15
1.8907e-15
-4.07604e-15
4.2706e-15
-6.11383e-15
3.81101e-15
3.15032e-15
-7.62174e-15
3.10454e-14
-3.50836e-14
-1.50455e-14
2.20122e-13
-6.00705e-13
1.74117e-12
-3.17163e-12
5.41857e-12
-8.94633e-12
1.6843e-11
-3.66895e-11
2.6848e-11
-3.68139e-11
1.19465e-10
-2.16034e-10
1.82157e-10
5.68685e-10
-1.99944e-09
3.05274e-09
-2.90269e-09
4.27987e-11
1.56504e-09
-4.62759e-09
2.08761e-08
-3.87262e-08
1.79447e-08
-9.47421e-08
1.28143e-05
6.75311e-05
7.53597e-05
0.000126066
-0.000123753
-0.000143198
0.000560674
0.000674992
-0.0011928
-0.00162646
0.00200469
0.00389909
-0.000601447
-0.00545732
-0.00356811
0.00322803
0.00671003
0.00247742
-0.00440469
-0.00558356
-0.00206038
0.00177218
0.00338219
0.00185077
-0.00088262
-0.00194484
-0.00132763
-0.000208077
0.000480749
0.000405291
-0.000183893
0.000194301
0.0014024
0.00150542
-0.000641755
-0.00245808
-0.00218088
0.000403777
0.00239207
0.00212682
0.00011441
-0.0011688
-0.000995953
0.000580154
0.00141747
0.00107802
0.000316055
-0.000718333
-0.000735378
9.46226e-05
0.000780506
0.00102816
0.000494485
-0.000340425
-0.00103515
-0.00155553
-0.000205354
0.00109325
0.00172232
0.00142176
-0.000295434
-0.00116335
-0.000536056
0.000368673
0.000976116
0.000490725
-0.000627846
9.55275e-05
0.000204295
-4.68956e-05
-0.000365557
0.00077463
-0.000691192
0.000211301
-5.66236e-05
0.000504604
0.000186054
0.000723093
0.000794528
-2.16972e-16
-2.30599e-16
-1.97533e-16
-4.42315e-16
5.29122e-16
-1.86814e-15
2.80809e-15
-6.12319e-15
8.30216e-15
-1.28057e-14
1.73243e-14
-2.19929e-14
2.86069e-14
-5.74354e-14
7.26008e-14
-1.63276e-13
4.24307e-13
-9.51407e-13
1.76369e-12
-2.95722e-12
5.03162e-12
-6.64741e-12
1.0182e-11
-1.87684e-11
2.39547e-11
-2.34449e-11
5.80516e-11
-1.22381e-10
1.49748e-10
3.08432e-11
-5.40965e-10
1.23033e-09
-1.55943e-09
2.45021e-09
-5.33361e-09
1.08446e-08
-2.65407e-08
6.34061e-08
-1.19496e-07
2.27371e-07
8.65197e-06
4.62113e-05
5.04701e-05
8.17709e-05
0.000114825
-0.000242031
-0.000229591
0.000841288
0.000797898
-0.00127605
-0.00159522
0.00150287
0.00347239
0.000503511
-0.00422265
-0.0049278
0.000625039
0.00624679
0.00530914
-0.000724567
-0.00536181
-0.00501383
2.97373e-05
0.00430866
0.00372245
0.000120323
-0.00188292
-0.0021735
-0.0012545
0.000987883
0.00115603
-5.679e-05
-0.000512229
-0.000127698
0.000391568
0.000312027
-0.000436011
-0.00071762
-0.000399147
0.000408747
0.000760434
0.00022642
-0.000125153
1.15493e-05
0.000332183
0.000472663
0.000319708
0.00011861
-2.34537e-05
0.000148322
0.000401156
0.00051765
0.000276803
-0.000190356
-0.000639562
-0.000925309
-0.000192852
0.000920372
0.00125452
0.000972742
-4.84792e-05
-0.000662012
-0.000306
0.000495169
0.000770667
-4.18427e-05
-9.43585e-05
0.000266679
-0.000275209
1.59935e-05
-6.34923e-05
0.000627632
-0.000695891
0.000229786
2.99421e-05
0.000225162
-4.37326e-05
0.00030172
0.000343155
-3.52176e-16
-3.60558e-16
-3.17346e-16
-6.83418e-16
6.1516e-16
-2.45922e-15
3.62813e-15
-8.04861e-15
1.12354e-14
-1.8107e-14
2.54526e-14
-4.12286e-14
5.0668e-14
-8.47339e-14
1.50812e-13
-2.33986e-13
3.97175e-13
-8.05809e-13
1.36565e-12
-1.7425e-12
3.26511e-12
-4.53181e-12
5.43784e-12
-7.63323e-12
1.44634e-11
-1.73705e-11
2.5835e-11
-5.01256e-11
8.01461e-11
-3.28659e-11
-8.68833e-11
3.65416e-10
-5.22551e-10
8.83532e-10
-1.69676e-09
3.823e-09
-1.04391e-08
3.32861e-08
-8.04719e-08
2.39635e-07
4.70174e-06
2.69684e-05
3.03713e-05
-4.61912e-05
0.0001751
0.000425038
-0.000316581
-0.000896292
0.000187573
0.00129047
0.000664215
-0.00167467
-0.00215706
0.000530627
0.002476
0.000465113
-0.00226595
-0.0015975
0.000556655
0.00169128
0.00152291
0.000584599
-0.00101907
-0.00137533
-0.000557021
0.000750582
0.000608395
-0.000129354
-0.000386427
-0.000259516
0.00015398
0.000273299
-0.000239764
-0.000773463
-0.000699393
-0.000115373
0.000146021
-0.000220387
-0.00115715
-0.00150436
-0.000793893
0.000718595
0.000772695
-0.000203512
-0.00061557
-0.000498777
1.19134e-05
0.000381251
0.000338629
8.05996e-05
-0.000112433
2.21755e-07
1.09612e-05
-5.13503e-05
-0.000277035
-0.000470779
-6.64428e-05
0.000650546
0.000903517
0.000587757
-6.67369e-05
-0.000353523
8.05693e-05
0.000668623
0.000302259
-4.15055e-05
5.25694e-05
-6.2723e-05
-9.18626e-05
0.000432492
-0.000256612
0.000239719
-0.000482533
0.000300708
4.54551e-05
3.99573e-05
-0.000125695
0.000124392
0.000153985
-5.81062e-16
-5.9029e-16
-4.94243e-16
-1.07806e-15
5.94532e-16
-3.15258e-15
4.25382e-15
-9.59851e-15
1.3925e-14
-2.29047e-14
3.13687e-14
-5.13731e-14
6.69008e-14
-9.04175e-14
1.46819e-13
-2.12675e-13
2.52117e-13
-4.48983e-13
7.27281e-13
-8.13985e-13
1.06565e-12
-1.54668e-12
1.41972e-12
-3.21076e-12
7.4476e-12
-8.51475e-12
1.03044e-11
-1.34725e-11
1.70036e-11
-1.12014e-11
3.52847e-12
3.63883e-11
-6.34636e-11
9.92046e-11
-2.17682e-10
7.70594e-10
-1.82352e-09
3.84937e-09
-1.37078e-08
1.31533e-07
1.72027e-06
1.01143e-05
1.18545e-05
0.000144155
-0.000486718
-0.000108634
0.00146531
0.00140171
-0.000776013
-0.00442951
-0.00223776
0.0049338
0.00671375
0.000688318
-0.00723672
-0.00891423
-0.00234141
0.00747154
0.0108863
0.00400019
-0.00589283
-0.00927523
-0.00634614
0.00136754
0.0078554
0.00880709
0.00248225
-0.00502344
-0.00680009
-0.00530689
0.00308513
0.00676787
0.00553842
-0.00109136
-0.00560555
-0.00507233
-4.89969e-05
0.00319564
0.0034085
-0.000690403
-0.00448701
-0.00425595
-0.00093917
0.0019795
0.00155265
-8.88125e-05
-0.00102086
-0.000517691
0.00011869
7.30992e-05
-0.000351542
-0.000264314
-7.59623e-05
3.32251e-05
-0.000117223
-0.000303658
7.66443e-06
0.000428175
0.000601133
0.000274057
-0.000163532
-8.23616e-05
0.000524429
0.000305924
-5.98412e-05
0.000124406
0.00010263
0.000171301
0.000134652
5.88115e-05
-0.000606535
0.00025328
-0.000101317
0.000278884
-1.0184e-05
-4.25382e-05
-0.000100058
9.65405e-05
0.000123927
-9.37918e-16
-9.50533e-16
-7.8735e-16
-1.62464e-15
3.32802e-16
-4.0917e-15
4.67799e-15
-1.1316e-14
1.69273e-14
-2.8811e-14
3.70346e-14
-5.91968e-14
7.29132e-14
-8.61124e-14
1.18653e-13
-1.34291e-13
1.23008e-13
-1.61455e-13
1.50599e-13
-1.54485e-13
1.92728e-13
-3.3352e-13
3.60405e-13
-6.46136e-13
2.27671e-12
-3.47071e-12
3.8661e-12
-4.04742e-12
5.18285e-12
-1.04808e-11
1.49875e-11
-4.93617e-12
-8.39354e-12
-8.29357e-11
1.58563e-10
-5.67152e-11
5.60135e-10
-1.15503e-09
2.45374e-09
-1.8849e-09
-1.56399e-07
-1.12004e-06
-2.50598e-05
0.000173717
0.000354093
-0.000766315
-0.00135603
-0.000424203
0.005074
0.00548669
-0.00498527
-0.01364
-0.00528407
0.0131898
0.0166989
0.00424764
-0.0151887
-0.0180274
-0.00589236
0.0132238
0.0166032
0.0101866
-0.00959185
-0.0148478
-0.011082
0.0047073
0.0116453
0.0108224
0.00310215
-0.00860889
-0.00994631
-0.00594883
0.0060664
0.00867842
0.00564445
-0.00465501
-0.00755272
-0.00253923
0.00422201
0.00643778
0.00133761
-0.00529717
-0.00619565
-0.00234935
0.00212781
0.00249836
0.00175613
0.000799819
-0.000495118
-0.000845277
-0.000968163
-0.00036369
0.000188615
0.000375248
7.84063e-06
-0.0002812
-3.67499e-05
0.000300633
0.000241925
-0.00013634
-8.42193e-05
0.000268604
5.54807e-05
0.000193622
0.000499153
0.000522736
0.00031516
0.000124827
-0.000274946
-0.00013063
-0.00015301
0.000509879
4.08658e-05
0.000119155
-6.86067e-05
-4.08596e-05
-3.09487e-05
0.00011111
0.000131377
-1.43732e-15
-1.47102e-15
-1.30711e-15
-2.18126e-15
-8.07801e-17
-5.3292e-15
4.91222e-15
-1.31931e-14
1.98411e-14
-3.36373e-14
4.38459e-14
-7.29253e-14
8.20251e-14
-8.8094e-14
9.88721e-14
-9.47479e-14
5.06169e-14
5.83683e-15
-1.49361e-13
2.45029e-13
-5.15244e-13
5.5814e-13
-6.51178e-13
7.31218e-13
-5.46076e-13
-1.71951e-13
-5.05926e-13
1.80223e-12
-2.43866e-12
-1.93929e-12
6.65447e-12
6.28358e-11
-1.28017e-10
1.59533e-11
-4.11288e-10
1.09305e-09
5.29572e-10
-1.53762e-09
1.86174e-09
6.75686e-09
-1.20978e-06
-6.06329e-06
-2.12302e-05
-0.000170795
2.13394e-05
0.000253328
0.00114919
-0.00213659
-0.0040228
0.00517165
0.010025
-0.00220283
-0.0160848
-0.0117664
0.0113914
0.0209379
0.0123227
-0.0164245
-0.02298
-0.0137905
0.0134131
0.0200516
0.0158294
-0.00657452
-0.0173026
-0.0159054
-0.0020111
0.0131771
0.0145123
0.008113
-0.0105695
-0.0133242
-0.0092643
0.00466047
0.00910127
0.00579477
-0.0037353
-0.00612173
-0.000780103
0.00447214
0.00454925
-0.00124801
-0.0041151
-0.00566334
-0.001778
0.00286501
0.0042441
0.00352274
-7.86314e-05
-0.0019354
-0.00179185
-0.000293789
0.000705793
0.000771811
6.25296e-05
-0.000339655
-0.000126923
-4.50249e-05
-0.000277083
-0.000141038
-0.00015374
6.01527e-05
0.000598799
0.000789778
0.000432818
5.65426e-05
-0.000198054
-0.000250405
-0.000126544
0.000430007
0.000201935
0.000312703
-9.70915e-05
-5.33027e-06
-5.76632e-05
3.28658e-07
2.68305e-05
0.00011505
0.000128178
-1.93782e-15
-1.99572e-15
-1.89848e-15
-2.56066e-15
-4.75556e-16
-6.16413e-15
4.82944e-15
-1.56661e-14
2.23125e-14
-3.91964e-14
5.0387e-14
-8.05528e-14
8.68595e-14
-9.53704e-14
8.91043e-14
-4.31705e-14
-4.43168e-14
1.66644e-13
-3.98998e-13
7.38842e-13
-1.0752e-12
1.56191e-12
-2.30358e-12
3.0592e-12
-3.60254e-12
4.78734e-12
-7.08179e-12
1.0775e-11
-1.24039e-11
1.29943e-11
-5.99945e-11
1.80996e-10
-2.20674e-10
6.7184e-10
-2.88395e-09
3.74019e-09
3.55996e-10
2.07314e-10
-3.29755e-08
3.10225e-07
-1.61788e-06
-4.28163e-07
-4.75223e-05
3.40097e-05
0.000824381
-0.000671826
-0.00123322
-0.00107665
2.32146e-05
0.000191625
0.0085744
0.00756286
-0.0128761
-0.0199468
-0.004658
0.0205165
0.024788
0.0083032
-0.0228971
-0.026576
-0.0149189
0.0169584
0.0232029
0.0194236
-0.00773699
-0.0194948
-0.0187736
-0.00295019
0.0158778
0.0171556
0.0073238
-0.0126674
-0.0143762
-0.00826915
0.00639639
0.00814549
0.00377491
-0.00381467
-0.00349337
-0.000614796
0.00341501
0.00368116
0.00149239
-0.00334665
-0.00523685
-0.00112615
0.00480274
0.00469807
0.000581733
-0.00264994
-0.00213634
0.00022945
0.00138823
0.0008526
-0.00013047
-0.000441888
-0.000420812
-0.000397895
-0.000440954
-0.000332286
0.000261346
0.000825959
0.000580432
-0.000119255
-0.000549447
-0.000540589
-0.000404233
-1.79216e-05
0.00025941
0.000366003
-0.000256482
-4.04761e-05
-9.79938e-05
2.09677e-05
-7.84208e-06
3.57144e-05
6.16464e-05
0.000113718
0.000122301
-2.15426e-15
-2.22731e-15
-2.16876e-15
-2.8937e-15
-6.97161e-16
-6.20924e-15
4.88514e-15
-1.71033e-14
2.21919e-14
-4.0882e-14
5.51689e-14
-8.31464e-14
9.35387e-14
-1.02965e-13
8.98021e-14
-4.35647e-14
-4.79019e-14
2.19242e-13
-4.98404e-13
9.38251e-13
-1.414e-12
2.24591e-12
-3.46684e-12
5.29611e-12
-6.26092e-12
7.12625e-12
-1.26996e-11
1.92401e-11
-2.10521e-11
2.36262e-11
-3.53996e-11
7.22741e-11
-2.95217e-10
2.24805e-09
-5.64462e-09
3.05443e-09
2.69646e-09
3.73573e-08
-1.80784e-07
5.39146e-07
-6.98303e-07
-8.40132e-06
3.61238e-05
-0.000400746
0.000166694
0.0022892
-0.00169891
-0.00467526
-0.00315976
0.00123859
0.00877911
0.0145805
-0.00328941
-0.0240641
-0.0211272
0.00723312
0.0276151
0.027118
-0.00110884
-0.0277941
-0.0284101
-0.0113023
0.0217372
0.0265486
0.0182838
-0.0137944
-0.0223421
-0.0190085
0.00337717
0.0182361
0.0175359
0.00132261
-0.0146336
-0.0146962
-0.00361629
0.010047
0.00984117
0.00395709
-0.00627617
-0.00685459
-0.00157308
0.00703179
0.00639726
-0.00115574
-0.00671311
-0.00354724
0.00408673
0.00449082
-0.000406642
-0.00323901
-0.00135932
0.00144363
0.00163372
0.000427942
-0.000456428
-0.000591229
-0.000623444
-0.000678989
-0.000309544
0.000325969
0.000604047
0.000181209
-0.000348318
-0.000356402
1.07319e-05
0.000256084
0.000276356
0.00028403
5.20371e-05
-0.000302808
-0.000480603
9.81742e-05
0.000110359
5.99636e-05
-1.24782e-06
4.32337e-05
7.64876e-05
0.00010606
0.000111153
-1.61343e-15
-1.68424e-15
-1.609e-15
-2.32158e-15
-3.10692e-16
-4.97179e-15
5.58569e-15
-1.58262e-14
2.07179e-14
-4.1673e-14
5.69911e-14
-7.89119e-14
1.0126e-13
-1.1485e-13
9.70152e-14
-6.71708e-14
-1.46319e-14
1.40822e-13
-3.07219e-13
6.01429e-13
-9.05843e-13
1.20998e-12
-1.808e-12
2.7185e-12
-3.26505e-12
2.60124e-12
-2.3497e-12
1.51564e-12
2.37112e-12
-1.31886e-11
4.23327e-11
-5.05184e-11
-1.15157e-10
7.82746e-10
-1.26691e-09
-6.5473e-10
-7.75272e-09
5.13005e-08
-1.03845e-07
-1.31875e-07
4.43252e-06
-5.09729e-05
0.000142196
-0.000728473
-0.000654615
0.00972035
0.000947414
-0.00961364
-0.0106712
-0.00320658
0.0103377
0.0201451
0.0131594
-0.0187237
-0.0331956
-0.0204006
0.0213116
0.0343295
0.0271484
-0.012998
-0.0317361
-0.0312168
0.00062175
0.0276392
0.0278917
0.00911111
-0.0207036
-0.0240504
-0.014908
0.0143766
0.0205383
0.0149249
-0.0102027
-0.0185832
-0.0145415
0.00685311
0.0144443
0.0109293
-0.00468803
-0.0104263
-0.00575716
0.00891868
0.00994714
-0.00264812
-0.00777117
-0.00187049
0.00473755
0.00190422
-0.00257087
-0.00224112
0.000870132
0.0020765
0.000736209
-0.000399477
-0.000799664
-0.000825532
-0.000610698
-0.000117138
0.000356117
0.000345305
-7.17763e-05
-0.000297912
7.86621e-05
0.000687799
0.000927983
0.000729481
0.000391792
8.83599e-05
-0.000242043
-0.000232228
6.85387e-05
0.000442709
0.000161765
-1.64864e-05
-2.62584e-05
4.96741e-05
8.59662e-05
9.72959e-05
9.92769e-05
2.17091e-16
1.34967e-16
2.72075e-16
-2.41852e-16
1.06925e-15
-2.04661e-15
6.19066e-15
-1.0692e-14
1.96816e-14
-3.55858e-14
5.36104e-14
-7.1554e-14
1.03371e-13
-1.16021e-13
1.10348e-13
-1.01201e-13
5.84506e-14
1.10299e-14
-6.60345e-14
1.73601e-13
-2.17384e-13
2.49671e-13
-3.86875e-13
5.48853e-13
-1.28953e-13
-6.26625e-13
1.9432e-12
-4.28181e-12
1.42108e-11
-3.29818e-11
4.26208e-11
-1.92752e-11
-7.88708e-11
2.91902e-10
-4.24323e-10
9.65783e-11
-6.39999e-09
2.13917e-08
6.57012e-09
-3.27217e-07
3.66501e-06
-2.99272e-05
-4.81138e-05
0.000805676
-0.0108358
0.0141589
0.0169456
-0.00860961
-0.0216717
-0.0183296
0.00377491
0.0260136
0.0291206
0.00123911
-0.0354791
-0.0361421
-0.00494057
0.0333964
0.03651
0.0179364
-0.0267662
-0.0344857
-0.024558
0.0186819
0.0289628
0.0226909
-0.00773396
-0.0247963
-0.0237436
0.000711015
0.0216457
0.0219172
0.000180484
-0.0200058
-0.0203177
0.000461333
0.0181259
0.0155737
-0.00634689
-0.0128259
-0.0024822
0.0108098
0.00388098
-0.00679101
-0.00305995
0.00333687
0.00209258
-0.00223773
-0.00172076
0.00118383
0.00180174
0.000293186
-0.000656969
-0.000763727
-0.000556353
-0.000205538
0.000167892
0.000368506
0.000209166
-7.80645e-05
-0.000120699
0.000156156
0.000420636
0.000327814
4.51365e-05
-0.000182601
-0.000196396
-0.000105758
7.95e-06
0.000404263
0.00049573
0.000343324
-5.6377e-05
-9.97841e-05
-1.15678e-05
7.18306e-05
8.87719e-05
8.36307e-05
8.23121e-05
3.51397e-15
3.42643e-15
3.62354e-15
3.64395e-15
3.83649e-15
2.94725e-15
6.72084e-15
-2.06424e-15
1.76712e-14
-2.15581e-14
4.45703e-14
-5.29356e-14
8.56325e-14
-9.44675e-14
1.06027e-13
-1.002e-13
1.03297e-13
-6.62181e-14
7.01873e-14
-7.23144e-14
1.01637e-13
-1.05217e-13
9.58938e-14
-3.47974e-14
-9.63776e-14
3.93653e-13
-1.21582e-12
3.00917e-12
-3.58162e-12
-1.88376e-12
2.35524e-13
2.15544e-11
-5.75808e-11
1.93885e-10
-9.25175e-10
4.39933e-09
-6.49002e-09
-1.1601e-08
3.66938e-08
-9.04413e-08
-1.76907e-06
2.41555e-05
2.05902e-05
0.000943854
0.000298905
-0.0153721
0.0213611
0.0210653
-0.0147074
-0.0302636
-0.0191844
0.0141487
0.0371096
0.0289387
-0.0172816
-0.041611
-0.0338905
0.0139141
0.0374892
0.0364069
-0.00292975
-0.0331048
-0.0339005
-0.00566829
0.0270706
0.0299456
0.0121504
-0.0230886
-0.028632
-0.0145223
0.0198773
0.0252598
0.00717764
-0.0186533
-0.0188862
0.00348327
0.0177361
0.00546176
-0.0117146
-0.00365051
0.00706027
0.00280096
-0.00364097
-0.000904001
0.0019179
6.93366e-05
-0.00139476
-0.000236595
0.000935603
0.000622122
-0.000167879
-0.000479645
-0.000370754
-0.000127079
0.000123772
0.000186282
7.92299e-05
-0.000167324
-0.000337957
-0.000222133
4.38464e-05
8.90081e-05
-0.00022918
-0.000599799
-0.000740939
-0.000593186
-0.000260329
7.07718e-05
0.000313122
0.00052059
0.000181861
-0.000129594
-0.000193811
-6.38537e-05
3.916e-05
8.45386e-05
7.46426e-05
6.20784e-05
5.89313e-05
8.22152e-15
8.08501e-15
8.21246e-15
8.64027e-15
8.03156e-15
9.47218e-15
7.95666e-15
8.85978e-15
1.23719e-14
4.49195e-16
2.69331e-14
-1.95543e-14
5.20209e-14
-4.74577e-14
7.47044e-14
-5.76085e-14
7.61585e-14
-4.0761e-14
5.15938e-14
-1.60154e-14
1.99339e-14
2.80269e-14
-3.93066e-14
2.01253e-13
-4.38334e-13
9.48448e-13
-1.97302e-12
4.99715e-12
-8.98487e-12
1.37154e-11
-2.59567e-11
4.40229e-11
-6.26359e-11
1.85746e-10
-6.46331e-10
3.705e-10
2.77814e-09
-5.45917e-10
-2.7983e-08
2.86752e-07
-2.55698e-06
4.84337e-06
2.26934e-05
-0.000560375
0.00194679
0.00134914
-0.0180864
0.0225535
0.0260174
-0.0190478
-0.0340208
-0.020147
0.028282
0.0422599
0.018377
-0.0348183
-0.0422224
-0.0171992
0.0306269
0.0387474
0.022375
-0.025247
-0.0351777
-0.0252331
0.0192499
0.0302822
0.0228095
-0.0159041
-0.0262836
-0.0145243
0.0176953
0.0208229
-0.00312415
-0.0163639
-0.00219555
0.0105198
0.00241469
-0.00485599
-0.000318561
0.00303118
0.000734323
-0.000827279
-4.80398e-05
0.000405118
-0.000251606
-0.000323695
0.000273702
0.000394174
3.40098e-05
-0.000203276
-0.000154349
-1.71273e-05
0.000101488
0.000147424
3.3117e-05
-0.000218429
-0.00045555
-0.000566117
-0.000486941
-0.000319919
-0.000216969
-0.000199408
-0.000238458
-0.000198312
-8.2301e-05
7.6844e-05
0.000203831
0.000215127
0.000184788
1.67057e-05
-0.000355121
-0.000281358
-8.39639e-05
2.48599e-05
6.46881e-05
7.1619e-05
5.13452e-05
4.05637e-05
3.79663e-05
1.3567e-14
1.34327e-14
1.34557e-14
1.40478e-14
1.30067e-14
1.56205e-14
1.13465e-14
1.76112e-14
1.11083e-14
1.59592e-14
1.68281e-14
5.9263e-15
3.27013e-14
-1.34603e-14
5.08291e-14
-1.93879e-14
3.91763e-14
9.77477e-15
-2.94898e-14
1.16308e-13
-2.03484e-13
3.69302e-13
-5.32198e-13
8.01188e-13
-1.18509e-12
1.95634e-12
-3.28698e-12
5.93515e-12
-9.14227e-12
1.55062e-11
-2.3309e-11
3.56569e-11
-5.17328e-11
7.96898e-11
-7.2247e-11
-7.28365e-13
-1.80176e-10
1.69098e-09
-2.63538e-09
-8.97796e-08
3.51379e-06
-9.21496e-06
-5.59694e-06
0.000150759
-0.00123685
0.00227223
0.00169899
-0.0168372
0.0228193
0.0231252
-0.0280102
-0.0358385
0.00275676
0.04043
0.0335485
-0.0172482
-0.0396653
-0.0290433
0.0184783
0.0342278
0.0277366
-0.014221
-0.0298235
-0.0237154
0.0131431
0.0255698
0.0135768
-0.0165395
-0.0177604
0.00509427
0.0124878
-0.000481486
-0.00663151
0.000775462
0.00398867
-8.44044e-05
-0.00161611
0.000604894
0.00127672
0.000365719
5.63899e-06
-4.87517e-05
-0.000125591
-0.000109329
-5.29877e-06
0.000172641
9.50478e-05
-0.000122013
-0.00012971
-1.8992e-05
9.24207e-05
0.000133665
9.29114e-05
-3.814e-05
-0.000235816
-0.000308425
-0.000270122
-0.000138695
-4.55823e-06
5.90146e-05
0.000115803
0.000228425
0.000414481
0.000582289
0.000633522
0.000545023
0.000357592
0.000137112
-9.76728e-05
-0.000284134
-0.000297821
-1.02933e-05
7.30255e-05
5.6853e-05
5.81535e-05
5.57205e-05
3.74558e-05
2.97278e-05
2.77339e-05
1.85018e-14
1.84401e-14
1.83921e-14
1.88079e-14
1.78486e-14
1.99146e-14
1.64688e-14
2.20983e-14
1.39883e-14
2.34638e-14
1.40656e-14
1.99371e-14
2.05826e-14
7.87657e-15
3.1679e-14
1.33797e-15
2.88487e-14
1.42639e-14
-1.49691e-14
1.09708e-13
-1.64194e-13
3.70983e-13
-5.52017e-13
7.28936e-13
-9.2231e-13
1.19317e-12
-1.43859e-12
1.4185e-12
-1.17817e-12
2.15596e-12
-5.7558e-12
7.54132e-12
-2.35045e-12
2.74055e-13
-4.49936e-11
1.54322e-10
6.75034e-11
2.40818e-10
2.83558e-08
3.25792e-09
1.17368e-06
2.98041e-06
-2.90366e-05
0.000130634
7.6469e-05
-0.000996292
0.0020318
-0.00106192
-0.008666
0.0242262
-0.00219668
-0.033361
-0.00992847
0.0310959
0.02986
-0.0101394
-0.0303124
-0.0194014
0.0156282
0.0245386
0.0128763
-0.0162453
-0.0201202
-0.00186078
0.0166873
0.00862018
-0.00973347
-0.00659592
0.00392829
0.00402079
-0.00115434
-0.00113833
0.00079996
0.000622463
3.93242e-05
-1.86991e-05
0.00043666
0.000449586
4.96077e-05
-1.08024e-05
-5.02367e-05
-0.000130256
-7.22292e-05
-5.39705e-05
-7.96829e-05
-0.000113304
-0.000198489
-0.000163199
-6.71033e-05
3.82239e-05
0.000100801
0.000128568
9.99075e-05
6.62774e-05
8.88406e-05
0.000228658
0.000401096
0.000526999
0.000544119
0.000464458
0.000351523
0.000270582
0.000292228
0.000329846
0.000303991
0.000245223
0.000144126
1.88537e-05
-7.27637e-05
-4.23127e-05
8.68222e-05
0.000204441
8.56434e-05
3.64973e-05
4.85178e-05
4.63406e-05
2.89519e-05
2.15102e-05
1.80174e-05
2.21352e-14
2.21501e-14
2.20849e-14
2.22396e-14
2.16285e-14
2.27435e-14
2.02673e-14
2.41784e-14
1.75568e-14
2.61814e-14
1.47165e-14
2.61098e-14
1.65305e-14
1.90382e-14
2.58526e-14
6.52048e-15
3.50465e-14
-9.4004e-15
5.22222e-14
-1.35778e-14
1.07977e-14
1.2872e-13
-2.48504e-13
4.60522e-13
-6.73991e-13
1.09731e-12
-1.20225e-12
7.52383e-13
7.0029e-13
-1.61036e-12
3.37246e-12
-1.06648e-11
9.09388e-12
1.951e-11
-9.48585e-11
1.00691e-10
2.37695e-10
8.85683e-12
2.09529e-08
3.95427e-07
-1.57649e-06
6.14347e-06
6.58451e-06
-6.58843e-05
0.000182885
5.68734e-05
-0.000533997
0.00105205
-0.000689619
-0.00194552
0.00497132
-0.000684443
-0.00317421
0.00282484
0.00219436
-0.00694704
-0.00449133
0.00760902
0.0106814
-0.00109756
-0.0127376
-0.00617239
0.00750879
0.00587047
-0.00188147
-0.00321741
0.000171023
0.00124212
0.000669253
-0.00016329
-3.20762e-05
0.00022946
2.83817e-05
0.000103443
0.000217828
0.000191724
0.000146429
-5.74418e-05
-0.000102603
-5.81986e-05
-8.68173e-05
-9.10846e-05
-0.0001718
-0.000325251
-0.000349811
-0.000312239
-0.000249079
-0.000165345
-1.49765e-05
0.00016551
0.00028822
0.000361015
0.000413612
0.000448197
0.000549967
0.000584764
0.000524027
0.000426621
0.000181472
7.16777e-05
-2.45442e-05
-5.18607e-05
-2.41826e-05
-2.37829e-05
-2.4152e-05
-5.32751e-05
-3.48031e-05
3.0072e-06
8.87469e-05
0.000212072
0.000243749
0.000137259
1.27406e-05
2.5521e-05
4.70564e-05
3.50945e-05
1.49203e-05
6.1352e-06
4.10077e-06
2.39429e-14
2.39788e-14
2.39868e-14
2.37341e-14
2.3811e-14
2.34489e-14
2.32003e-14
2.27244e-14
2.17064e-14
2.33557e-14
2.02194e-14
2.23649e-14
2.14056e-14
1.6621e-14
3.24084e-14
-2.39943e-15
5.65222e-14
-5.86214e-14
1.31002e-13
-1.42008e-13
1.94774e-13
-2.08789e-13
2.44382e-13
-1.38142e-13
2.99666e-14
1.58822e-13
-1.51582e-13
-1.39881e-14
5.57327e-13
-1.74265e-12
4.89845e-12
-5.59815e-12
-5.5852e-12
1.44177e-11
3.38198e-11
-2.3117e-10
2.78905e-10
4.32476e-09
-4.02828e-08
1.03634e-06
-1.86e-06
3.91577e-07
7.51175e-06
-2.52884e-05
-8.1223e-05
0.000160145
6.94492e-05
-0.000258042
0.000442023
0.00018108
-0.00279238
0.0051053
0.00758181
-0.0213021
-0.00724553
0.0234447
0.0132574
-0.0160973