/*--------------------------------*- C++ -*----------------------------------*\
| =========                 |                                                 |
| \\      /  F ield         | OpenFOAM: The Open Source CFD Toolbox           |
|  \\    /   O peration     | Version:  2.2.x                                 |
|   \\  /    A nd           | Web:      www.OpenFOAM.org                      |
|    \\/     M anipulation  |                                                 |
\*---------------------------------------------------------------------------*/
FoamFile
{
    version     2.0;
    format      ascii;
    class       volScalarField;
    location    "2.1";
    object      p;
}
// * * * * * * * * * * * * * * * * * * * * * * * * * * * * * * * * * * * * * //

dimensions      [1 -1 -2 0 0 0 0];

internalField   nonuniform List<scalar> 
14161
(
0.199138
0.199164
0.199122
0.199048
0.198944
0.198793
0.198598
0.198389
0.198125
0.197771
0.197439
0.197081
0.196543
0.196027
0.195547
0.195014
0.194359
0.193577
0.193122
0.19272
0.191871
0.191386
0.191289
0.190978
0.190635
0.190596
0.19068
0.191016
0.191563
0.19238
0.193443
0.194892
0.196889
0.199141
0.201993
0.206179
0.209958
0.212764
0.21704
0.223834
0.22405
0.94554
1.5606
1.61422
1.61749
1.60422
1.59629
1.57551
1.56048
1.54022
1.52185
1.50247
1.48476
1.46832
1.45322
1.43599
1.41675
1.40085
1.38623
1.37289
1.3622
1.35111
1.3381
1.32516
1.31364
1.30379
1.29624
1.29421
1.28931
1.2827
1.27375
1.26319
1.2528
1.2427
1.23398
1.22793
1.22745
1.22318
1.21686
1.20985
1.20175
1.19214
1.18266
1.17416
1.16488
1.15234
1.13293
1.11436
1.09999
1.08955
1.08637
1.08703
1.0749
1.06314
1.02769
0.990885
0.960074
0.937261
0.920935
0.904981
0.88281
0.8529
0.816356
0.781508
0.760914
0.747086
0.742503
0.739884
0.746774
0.777661
0.842473
1.0287
1.29446
1.52239
1.68468
1.794
1.86881
1.89107
1.96646
0.199138
0.199164
0.199122
0.199048
0.198944
0.198792
0.198599
0.198389
0.198122
0.197775
0.197439
0.197073
0.196549
0.19603
0.195552
0.19502
0.194314
0.193628
0.193152
0.192645
0.191884
0.191477
0.191244
0.190896
0.1906
0.190561
0.190661
0.190979
0.191492
0.192297
0.193398
0.194824
0.196801
0.199195
0.201997
0.205946
0.20972
0.212645
0.217192
0.224017
0.224766
0.952508
1.56385
1.61705
1.62024
1.60562
1.59693
1.57542
1.56085
1.53914
1.51984
1.49889
1.4799
1.46234
1.44697
1.42943
1.40992
1.39376
1.37967
1.36647
1.3553
1.34437
1.33187
1.31972
1.30879
1.29907
1.29086
1.28512
1.27927
1.27166
1.26294
1.25502
1.24825
1.24048
1.2328
1.22563
1.22073
1.21309
1.20502
1.19797
1.18998
1.17999
1.16958
1.15984
1.15164
1.14664
1.13751
1.12214
1.10527
1.09081
1.08166
1.07008
1.05376
1.04506
1.01721
0.999069
0.970279
0.942248
0.919927
0.895842
0.871745
0.845814
0.815806
0.787901
0.763196
0.751052
0.746989
0.759458
0.810952
0.906741
1.08892
1.35898
1.59146
1.74737
1.83897
1.894
1.92874
1.90764
1.97969
0.199138
0.199164
0.199122
0.199048
0.198942
0.198793
0.198601
0.198387
0.19812
0.197781
0.197435
0.197062
0.196564
0.196031
0.19555
0.195012
0.19429
0.193693
0.193116
0.192572
0.191954
0.191488
0.191124
0.190807
0.190589
0.190538
0.190617
0.190881
0.19132
0.192093
0.193231
0.194644
0.196549
0.199057
0.201687
0.205237
0.209137
0.212468
0.217252
0.22449
0.225859
0.959941
1.56593
1.624
1.62528
1.60834
1.59995
1.57607
1.56131
1.53735
1.51661
1.49435
1.47398
1.45458
1.43746
1.41945
1.4003
1.3833
1.36837
1.35523
1.34407
1.33345
1.32216
1.31027
1.30003
1.29109
1.28346
1.27526
1.26638
1.25695
1.24857
1.24197
1.23743
1.23404
1.22984
1.22433
1.214
1.20147
1.19061
1.18093
1.1732
1.16389
1.15393
1.14461
1.13811
1.13216
1.13256
1.12556
1.11511
1.09882
1.07552
1.05473
1.03469
1.02426
1.00684
0.998757
0.976423
0.950931
0.916388
0.885868
0.860327
0.837926
0.817005
0.794992
0.774509
0.766266
0.780642
0.837539
0.958303
1.14322
1.38292
1.58691
1.72595
1.81496
1.86369
1.89192
1.9085
1.88617
1.94744
0.199138
0.199164
0.199122
0.199049
0.198941
0.198793
0.198603
0.198384
0.198118
0.197789
0.197432
0.197054
0.196578
0.196029
0.19555
0.194992
0.194266
0.193743
0.193093
0.192487
0.192021
0.191507
0.190967
0.190731
0.190566
0.190461
0.19049
0.190666
0.191068
0.191744
0.192929
0.19431
0.196116
0.198554
0.200997
0.20397
0.208062
0.212036
0.217007
0.225156
0.227963
0.970533
1.57123
1.63391
1.63275
1.61143
1.6024
1.57467
1.55802
1.53222
1.50974
1.48665
1.46432
1.44357
1.42458
1.40483
1.38439
1.36517
1.3499
1.33673
1.32575
1.3139
1.30147
1.28924
1.27955
1.27271
1.26457
1.25539
1.24618
1.23727
1.2288
1.22243
1.21867
1.21662
1.21272
1.20549
1.19646
1.18603
1.17597
1.16536
1.15639
1.14712
1.13831
1.12843
1.12088
1.1137
1.11138
1.11159
1.10378
1.09197
1.07193
1.04325
1.02309
1.00972
0.993414
0.987794
0.967759
0.945844
0.913598
0.880387
0.855459
0.833516
0.817233
0.803637
0.799588
0.815412
0.87731
1.02735
1.25542
1.48577
1.66148
1.75063
1.80881
1.84899
1.8717
1.88428
1.89088
1.87499
1.91961
0.199139
0.199164
0.199122
0.19905
0.198941
0.198793
0.198606
0.19838
0.198114
0.197797
0.197431
0.197045
0.196586
0.19603
0.195546
0.194981
0.19426
0.193756
0.193078
0.192433
0.192043
0.191528
0.190885
0.190634
0.190507
0.190331
0.190285
0.19035
0.190676
0.191276
0.192457
0.193745
0.19543
0.197505
0.199698
0.20236
0.206194
0.210745
0.215854
0.224504
0.227868
0.975681
1.57546
1.6441
1.64223
1.6153
1.60545
1.57205
1.55171
1.52309
1.49745
1.47143
1.44638
1.42304
1.40139
1.38014
1.35811
1.33774
1.32164
1.30826
1.29716
1.28505
1.27286
1.26187
1.25278
1.24679
1.23856
1.22981
1.2196
1.21077
1.20232
1.19608
1.19137
1.18791
1.18265
1.17514
1.16779
1.16019
1.15338
1.14868
1.13977
1.12933
1.12022
1.11025
1.1006
1.09152
1.08523
1.08378
1.08005
1.07021
1.05899
1.03764
1.0125
0.998304
0.981169
0.972841
0.953552
0.932622
0.906963
0.876677
0.852689
0.833474
0.822766
0.82569
0.859204
0.940261
1.10633
1.33558
1.55108
1.69596
1.75715
1.80186
1.83273
1.85022
1.86504
1.87313
1.87414
1.86252
1.89115
0.19914
0.199165
0.199123
0.199051
0.198941
0.198792
0.19861
0.19838
0.198109
0.197804
0.197434
0.197036
0.196585
0.196043
0.195539
0.194963
0.194291
0.193751
0.193053
0.192447
0.192002
0.191481
0.190859
0.190545
0.190356
0.190125
0.190025
0.189992
0.190164
0.190653
0.191729
0.192879
0.194349
0.196002
0.197841
0.200143
0.20375
0.20819
0.213512
0.224259
0.230294
0.977735
1.5769
1.65144
1.64933
1.61559
1.6025
1.56268
1.53733
1.50563
1.47672
1.44834
1.42139
1.39697
1.37189
1.34711
1.32381
1.30261
1.28561
1.2717
1.25798
1.24344
1.23098
1.22078
1.21399
1.20835
1.2003
1.19195
1.1835
1.17484
1.16877
1.16354
1.15827
1.15231
1.14504
1.13761
1.13114
1.1242
1.1177
1.11785
1.11623
1.10857
1.1
1.09116
1.07965
1.06849
1.05857
1.04932
1.04527
1.04059
1.03516
1.02201
1.00456
0.987136
0.966539
0.953009
0.936469
0.920035
0.901232
0.880135
0.860582
0.844138
0.850089
0.889586
0.999867
1.19239
1.41262
1.60138
1.69912
1.74683
1.7824
1.81232
1.82641
1.84114
1.85647
1.86438
1.86147
1.85152
1.86865
0.199141
0.199166
0.199124
0.199052
0.198942
0.198792
0.198613
0.198381
0.198107
0.197809
0.197441
0.19703
0.196584
0.196068
0.195533
0.194961
0.19433
0.193708
0.193049
0.192495
0.191891
0.19136
0.190861
0.190446
0.190044
0.189821
0.189683
0.189594
0.189578
0.189817
0.190645
0.191612
0.192727
0.194052
0.195643
0.197478
0.200253
0.204176
0.209804
0.222027
0.230567
0.962489
1.57003
1.65202
1.64804
1.60462
1.58659
1.54209
1.50958
1.47616
1.44441
1.41301
1.38416
1.35718
1.32988
1.30292
1.27786
1.25733
1.24058
1.22718
1.21179
1.19659
1.18452
1.1741
1.16824
1.16296
1.15567
1.14606
1.13789
1.13003
1.12491
1.12221
1.11719
1.11209
1.10642
1.09988
1.09241
1.08328
1.07525
1.07006
1.07149
1.07187
1.06783
1.06245
1.05478
1.04435
1.03154
1.0214
1.01234
1.00687
1.00713
0.999078
0.988767
0.974697
0.952206
0.937055
0.92444
0.914368
0.900221
0.889862
0.888008
0.88958
0.938842
1.05819
1.26307
1.47732
1.63572
1.69033
1.7222
1.75331
1.78083
1.79928
1.8146
1.83321
1.84912
1.85245
1.84909
1.84236
1.85256
0.199144
0.199168
0.199125
0.199054
0.198943
0.198793
0.198616
0.198385
0.198106
0.197811
0.197452
0.197024
0.19658
0.1961
0.195527
0.194954
0.194362
0.193647
0.193059
0.192507
0.191738
0.191197
0.190838
0.190414
0.189662
0.189387
0.189218
0.189129
0.188979
0.188883
0.189176
0.189917
0.190625
0.191491
0.192757
0.194326
0.196014
0.198817
0.204109
0.215632
0.227337
0.921184
1.56016
1.64846
1.63245
1.58566
1.55238
1.5092
1.46874
1.43113
1.39631
1.36236
1.33264
1.30254
1.27536
1.24916
1.22611
1.20763
1.19002
1.17521
1.16162
1.14856
1.13569
1.12422
1.11656
1.11051
1.10647
1.10138
1.09252
1.08248
1.07342
1.06757
1.0653
1.06191
1.059
1.05792
1.05434
1.04689
1.03528
1.02708
1.0222
1.02288
1.02676
1.02367
1.01867
1.01243
1.00436
0.993218
0.985995
0.979141
0.980011
0.978641
0.971193
0.960785
0.943772
0.927743
0.920058
0.921013
0.91429
0.924647
0.958108
1.0125
1.14238
1.33269
1.52588
1.65103
1.6824
1.69513
1.71645
1.74612
1.76636
1.78171
1.80403
1.82689
1.84215
1.83642
1.83568
1.83504
1.84331
0.199146
0.19917
0.199128
0.199056
0.198946
0.198795
0.198618
0.198389
0.198108
0.197812
0.197464
0.19702
0.196582
0.196126
0.195512
0.194947
0.194383
0.193612
0.193048
0.192535
0.191634
0.191022
0.190784
0.190399
0.189344
0.188866
0.188653
0.188503
0.188382
0.187983
0.187541
0.187696
0.188112
0.188477
0.189006
0.189734
0.190943
0.192322
0.195279
0.202338
0.219451
0.814449
1.5473
1.64279
1.6028
1.55649
1.49059
1.4461
1.40183
1.36273
1.32831
1.29677
1.26956
1.24058
1.21785
1.19572
1.17454
1.15702
1.13891
1.12609
1.11516
1.1031
1.08972
1.08159
1.0728
1.06418
1.0571
1.05481
1.0485
1.04178
1.03392
1.02747
1.02113
1.01555
1.01094
1.0098
1.01435
1.01132
1.00388
0.99292
0.985483
0.983268
0.987974
0.99169
0.989997
0.986081
0.980096
0.972243
0.967098
0.96263
0.965101
0.969077
0.965799
0.955194
0.950082
0.932474
0.937753
0.956271
0.969958
1.02029
1.11791
1.25009
1.41321
1.57128
1.64982
1.67174
1.67154
1.68196
1.70822
1.72929
1.74474
1.76745
1.79597
1.82128
1.82864
1.82242
1.8247
1.8283
1.83651
0.19915
0.199173
0.199131
0.199057
0.198949
0.198799
0.19862
0.198393
0.198113
0.197814
0.197475
0.19702
0.196587
0.196139
0.195511
0.194941
0.194381
0.193622
0.193034
0.192504
0.191593
0.190935
0.190675
0.190257
0.189163
0.188377
0.188004
0.187754
0.187669
0.187191
0.186225
0.185067
0.184934
0.184858
0.184419
0.183858
0.183541
0.183609
0.183197
0.183932
0.198107
0.623815
1.50218
1.64099
1.54665
1.49986
1.40535
1.35228
1.31636
1.28719
1.25969
1.22949
1.21038
1.18611
1.16588
1.14611
1.13185
1.11488
1.09527
1.08395
1.07247
1.06107
1.05211
1.04384
1.03616
1.02697
1.01966
1.01269
1.00862
1.00656
1.00171
0.99613
0.988443
0.979261
0.974793
0.972577
0.97473
0.980075
0.978599
0.972489
0.962986
0.959643
0.962376
0.970785
0.971621
0.96995
0.968431
0.96728
0.966247
0.963892
0.965948
0.970834
0.97474
0.966941
0.980835
0.977175
0.998434
1.04152
1.10871
1.22186
1.37404
1.51366
1.61507
1.65082
1.66337
1.65429
1.65916
1.67193
1.68879
1.70584
1.72924
1.75908
1.78923
1.80924
1.81281
1.81521
1.82005
1.82018
1.82722
0.199153
0.199177
0.199135
0.19906
0.198953
0.198805
0.19862
0.198399
0.19812
0.197815
0.197481
0.197026
0.196589
0.196137
0.195527
0.194933
0.19436
0.193673
0.193015
0.192405
0.191591
0.190917
0.19048
0.18996
0.189036
0.187998
0.187352
0.186919
0.186774
0.186352
0.185453
0.182896
0.181492
0.180442
0.179315
0.177483
0.174861
0.172635
0.16956
0.160967
0.164407
0.330156
1.32576
1.66237
1.46748
1.40785
1.31276
1.25812
1.22546
1.20734
1.1905
1.1612
1.15311
1.12571
1.11331
1.09635
1.0819
1.07171
1.05488
1.03939
1.03031
1.02194
1.01386
1.00648
1.00038
0.994984
0.987685
0.979679
0.974046
0.971421
0.968959
0.96622
0.963621
0.958923
0.950013
0.946681
0.946954
0.953867
0.959291
0.959461
0.953089
0.948621
0.952005
0.959749
0.965201
0.967634
0.971997
0.974913
0.977894
0.978065
0.983683
0.9952
1.00804
1.01106
1.04947
1.07305
1.14222
1.23145
1.35495
1.47965
1.60233
1.65063
1.65771
1.65209
1.64546
1.64428
1.64398
1.65175
1.6667
1.68879
1.72295
1.75818
1.77839
1.79008
1.80123
1.81301
1.81608
1.81158
1.81863
0.199158
0.199181
0.199139
0.199064
0.198959
0.198811
0.198622
0.198406
0.19813
0.197817
0.197481
0.197041
0.196591
0.19613
0.195557
0.194928
0.194346
0.193716
0.192968
0.192272
0.191572
0.19092
0.190221
0.189564
0.188766
0.187751
0.186826
0.186127
0.185738
0.185322
0.18426
0.181988
0.178942
0.176669
0.174382
0.171513
0.1674
0.161521
0.155542
0.139067
0.125323
0.148122
0.84397
1.69471
1.41907
1.33229
1.25043
1.18784
1.15814
1.13545
1.12087
1.1018
1.10068
1.07131
1.0642
1.0489
1.03569
1.03005
1.01813
1.00361
0.995086
0.989486
0.981097
0.976135
0.971983
0.968615
0.965667
0.959362
0.950525
0.946592
0.94363
0.945162
0.946164
0.945414
0.941597
0.934486
0.934451
0.940925
0.948823
0.951835
0.952558
0.950053
0.95403
0.961656
0.971966
0.979384
0.991483
1.00151
1.01016
1.01835
1.03239
1.06161
1.09698
1.13133
1.21432
1.28826
1.38465
1.48291
1.59383
1.67272
1.6845
1.67046
1.64691
1.64046
1.63532
1.62594
1.62487
1.63287
1.65184
1.68365
1.72244
1.74889
1.76362
1.77288
1.79309
1.80832
1.80856
1.80492
1.8123
0.199163
0.199186
0.199145
0.199068
0.198964
0.198818
0.198626
0.198411
0.198143
0.197821
0.197478
0.197068
0.196597
0.196126
0.19559
0.194938
0.194328
0.193723
0.192971
0.192152
0.191533
0.190902
0.190039
0.189119
0.188326
0.187465
0.186505
0.185462
0.184563
0.184027
0.182864
0.181118
0.177598
0.174403
0.171115
0.167254
0.162484
0.156509
0.151053
0.143262
0.142828
0.179512
0.538853
1.5867
1.38745
1.31563
1.2408
1.15892
1.12622
1.09564
1.07367
1.05805
1.05641
1.0341
1.0284
1.01887
1.00683
1.00114
0.991228
0.979995
0.971676
0.966685
0.96146
0.956114
0.95288
0.95111
0.949714
0.947787
0.941278
0.934382
0.93116
0.932666
0.938184
0.939358
0.939955
0.934386
0.933951
0.938431
0.948814
0.955904
0.96079
0.969458
0.974632
0.985723
0.999356
1.01493
1.04066
1.06511
1.09384
1.12616
1.16286
1.21256
1.27585
1.3502
1.4531
1.54372
1.62166
1.68144
1.70417
1.71231
1.67814
1.65356
1.64076
1.62892
1.61731
1.60945
1.61222
1.6246
1.64967
1.68389
1.71387
1.73305
1.74905
1.76443
1.78609
1.79521
1.79851
1.80006
1.80872
0.199169
0.199191
0.19915
0.199074
0.198969
0.198825
0.198634
0.198415
0.198156
0.197831
0.197479
0.197095
0.196615
0.196121
0.195607
0.194971
0.194306
0.193713
0.192996
0.19208
0.191464
0.190846
0.189927
0.188703
0.187875
0.187054
0.186312
0.185135
0.183593
0.182348
0.181337
0.179555
0.177405
0.173445
0.16968
0.165554
0.160826
0.155231
0.148013
0.141361
0.13379
0.187343
0.407377
1.2653
1.28663
1.28694
1.25437
1.16201
1.12691
1.08985
1.05859
1.03939
1.03138
1.02164
1.01599
1.0021
0.994247
0.987697
0.979527
0.970999
0.96171
0.956826
0.952927
0.947457
0.942768
0.941339
0.945409
0.943462
0.942
0.936879
0.930182
0.93103
0.938314
0.944054
0.946327
0.947897
0.952201
0.957745
0.96997
0.984643
0.996504
1.01817
1.03666
1.05728
1.08459
1.11848
1.16564
1.21448
1.26844
1.3252
1.3842
1.44595
1.5183
1.5985
1.68443
1.7342
1.73287
1.74171
1.71935
1.6917
1.66435
1.64427
1.62771
1.6128
1.60194
1.60253
1.61239
1.62962
1.65043
1.67271
1.69765
1.71918
1.73894
1.76097
1.77565
1.78085
1.78802
1.79371
1.80267
0.199176
0.199197
0.199157
0.199082
0.198975
0.198834
0.198643
0.198421
0.198171
0.197843
0.197486
0.197113
0.196635
0.19612
0.195617
0.195006
0.194297
0.193692
0.192999
0.192037
0.191342
0.190778
0.189886
0.188376
0.187434
0.18672
0.186151
0.185087
0.182643
0.181091
0.179589
0.178393
0.176557
0.174103
0.169383
0.165666
0.161802
0.157764
0.153068
0.156076
0.175281
0.294206
0.628849
0.89818
1.10545
1.22405
1.2471
1.18202
1.13874
1.10256
1.06823
1.04661
1.03324
1.02511
1.01821
1.0021
0.993952
0.984975
0.976413
0.971639
0.963853
0.956859
0.953465
0.950944
0.947042
0.943527
0.945657
0.946047
0.949092
0.951139
0.945666
0.94984
0.955142
0.965063
0.978019
0.986606
1.00785
1.02057
1.03803
1.0645
1.09188
1.13769
1.17936
1.22675
1.26917
1.31552
1.37977
1.44573
1.51603
1.57844
1.62862
1.67755
1.73557
1.77842
1.78693
1.77741
1.75179
1.73355
1.70477
1.67639
1.65042
1.63171
1.61514
1.59952
1.59677
1.6042
1.61682
1.63072
1.64193
1.65775
1.68131
1.70829
1.7354
1.75436
1.76201
1.77057
1.77968
1.78572
1.7943
0.199183
0.199204
0.199164
0.19909
0.198981
0.198844
0.198655
0.19843
0.198184
0.197858
0.197493
0.197126
0.196654
0.196123
0.195622
0.195032
0.194293
0.19366
0.192977
0.192062
0.191244
0.190646
0.189758
0.188213
0.187118
0.186408
0.185944
0.184928
0.182137
0.180189
0.178627
0.177192
0.176107
0.174016
0.170942
0.166388
0.162982
0.160098
0.157535
0.15872
0.18275
0.534099
0.81108
0.848968
0.933523
1.08308
1.20086
1.21282
1.17042
1.13432
1.10107
1.07478
1.05415
1.04185
1.03001
1.01375
1.00332
0.993196
0.98223
0.977559
0.975255
0.963816
0.961318
0.963906
0.962523
0.963181
0.962961
0.96016
0.973332
0.981689
0.985016
1.00626
1.01381
1.03065
1.05661
1.08068
1.12777
1.16417
1.20249
1.24144
1.28514
1.35291
1.41617
1.47995
1.53109
1.56932
1.62592
1.6821
1.73946
1.77787
1.78891
1.79877
1.80779
1.81308
1.79188
1.76502
1.73892
1.71976
1.68735
1.65936
1.63776
1.6206
1.60441
1.59754
1.60017
1.60601
1.61443
1.6241
1.63197
1.64572
1.67043
1.70168
1.72718
1.7423
1.75092
1.76461
1.77388
1.77726
1.78567
0.19919
0.199212
0.199172
0.199099
0.198989
0.198854
0.198669
0.19844
0.198195
0.19788
0.197506
0.197131
0.196678
0.196136
0.195624
0.195047
0.194304
0.193624
0.192938
0.192107
0.19118
0.190427
0.189542
0.188162
0.187001
0.186058
0.185564
0.184384
0.182075
0.179635
0.178061
0.176606
0.1755
0.174243
0.172313
0.168183
0.165268
0.163483
0.161755
0.167962
0.211924
0.709245
0.853983
0.850013
0.872025
0.925371
1.07125
1.17316
1.2043
1.1654
1.13597
1.11045
1.08251
1.06346
1.04692
1.02855
1.01899
1.00942
0.995685
0.993213
0.992697
0.980346
0.985526
0.991243
0.99085
1.00586
1.01114
1.00555
1.03937
1.05543
1.07031
1.12185
1.15255
1.18343
1.2264
1.26789
1.33645
1.40027
1.45935
1.50692
1.54695
1.60758
1.65961
1.71099
1.75135
1.77636
1.79911
1.81762
1.82541
1.82228
1.82247
1.82192
1.81003
1.7925
1.771
1.75311
1.72772
1.70089
1.67113
1.64805
1.63019
1.61334
1.6036
1.60167
1.60387
1.60505
1.60827
1.61569
1.62563
1.64185
1.66922
1.69721
1.71519
1.72832
1.74399
1.76025
1.76721
1.76994
1.77822
0.199199
0.19922
0.19918
0.199109
0.198999
0.198864
0.198684
0.198454
0.198203
0.197902
0.197527
0.197138
0.196704
0.196163
0.195624
0.19505
0.194339
0.193603
0.192902
0.192122
0.191151
0.190198
0.189272
0.188172
0.186965
0.185798
0.184956
0.183841
0.182019
0.179381
0.177713
0.176367
0.175045
0.174315
0.172944
0.170568
0.168195
0.167867
0.169897
0.190765
0.343509
0.838806
0.88941
0.881264
0.877297
0.891656
0.946422
1.04558
1.17407
1.18862
1.19119
1.14627
1.12218
1.09466
1.06864
1.0434
1.03994
1.03363
1.01213
1.02486
1.0292
1.01328
1.03953
1.04902
1.051
1.0894
1.10603
1.11718
1.17516
1.21332
1.24655
1.31841
1.38041
1.43335
1.48216
1.52411
1.58825
1.64467
1.69818
1.73621
1.76362
1.78957
1.80788
1.819
1.82469
1.83011
1.83651
1.83566
1.82959
1.82169
1.8138
1.80908
1.79463
1.77754
1.75782
1.73889
1.71312
1.68579
1.66229
1.64512
1.6263
1.613
1.60767
1.60579
1.606
1.60446
1.60306
1.61001
1.62401
1.6446
1.66602
1.68522
1.70337
1.71726
1.73726
1.75202
1.75971
1.76445
1.77264
0.199209
0.19923
0.199189
0.19912
0.199011
0.198874
0.198701
0.198472
0.198215
0.197927
0.197551
0.197151
0.196727
0.196206
0.195626
0.195057
0.194392
0.193589
0.192859
0.192105
0.191172
0.190027
0.189034
0.188101
0.187018
0.185544
0.18434
0.18343
0.181931
0.179309
0.177536
0.17623
0.175024
0.174193
0.173447
0.172012
0.169874
0.169249
0.170665
0.196784
0.483078
0.938624
0.918694
0.900226
0.890546
0.885733
0.898576
0.940979
1.04543
1.13626
1.19431
1.16186
1.15168
1.11605
1.09674
1.05314
1.06851
1.07236
1.03875
1.08016
1.09227
1.07925
1.13526
1.16148
1.18527
1.23998
1.28233
1.32467
1.39081
1.45221
1.50263
1.56359
1.62103
1.66924
1.70961
1.74425
1.77694
1.79937
1.81127
1.81636
1.82324
1.83192
1.83608
1.83552
1.83368
1.83304
1.82819
1.82321
1.81706
1.81285
1.80482
1.79558
1.7808
1.76439
1.74658
1.72824
1.7023
1.67897
1.6611
1.64348
1.62604
1.61638
1.61046
1.60686
1.60574
1.60547
1.60416
1.60928
1.62296
1.63984
1.65592
1.67267
1.69098
1.71059
1.73062
1.74155
1.75181
1.76007
1.76807
0.199219
0.19924
0.199199
0.199132
0.199025
0.198886
0.198719
0.198491
0.198232
0.197951
0.197581
0.197168
0.196756
0.196249
0.195641
0.195072
0.19444
0.193589
0.192822
0.1921
0.191168
0.18989
0.188862
0.188051
0.187004
0.185289
0.183923
0.182906
0.181605
0.179638
0.17748
0.176138
0.175157
0.174207
0.173771
0.172672
0.170224
0.167785
0.167888
0.18608
0.677735
0.954289
0.954106
0.936053
0.92038
0.90675
0.899539
0.899979
0.949191
1.00413
1.1172
1.15359
1.18002
1.13334
1.14215
1.07042
1.12434
1.13971
1.11822
1.18747
1.21914
1.23017
1.3032
1.35586
1.40527
1.46543
1.51454
1.5701
1.62459
1.67727
1.7205
1.75428
1.77756
1.79
1.8023
1.81449
1.82562
1.83053
1.83037
1.83073
1.83113
1.83205
1.829
1.82555
1.82303
1.82205
1.81814
1.81383
1.80759
1.80264
1.79228
1.78085
1.76724
1.75508
1.73911
1.72062
1.69743
1.67872
1.66045
1.64147
1.62765
1.61942
1.61129
1.60578
1.60339
1.60453
1.60761
1.61233
1.61962
1.63126
1.64489
1.66102
1.68027
1.70261
1.72111
1.73101
1.74429
1.75439
1.76143
0.199231
0.199251
0.199211
0.199145
0.19904
0.1989
0.198737
0.198515
0.198251
0.197975
0.197615
0.197191
0.196782
0.196287
0.195659
0.19509
0.194471
0.193608
0.192803
0.192079
0.191141
0.189823
0.188757
0.187938
0.186892
0.185216
0.183589
0.182328
0.181418
0.179947
0.177654
0.176138
0.175165
0.174359
0.173914
0.173388
0.172375
0.171356
0.17948
0.238352
0.799504
0.967254
0.967218
0.958235
0.943158
0.927424
0.913235
0.906983
0.91045
0.91844
1.01158
1.09487
1.19233
1.17507
1.2131
1.16349
1.23522
1.26667
1.28177
1.36404
1.41757
1.46009
1.52275
1.5812
1.62968
1.6763
1.71479
1.74662
1.76838
1.785
1.7981
1.80727
1.81291
1.81661
1.82246
1.82671
1.82676
1.82484
1.82266
1.82277
1.82256
1.82187
1.81945
1.81664
1.8132
1.80996
1.805
1.80069
1.79465
1.78982
1.78042
1.76969
1.75783
1.74705
1.7322
1.71591
1.69584
1.67797
1.65858
1.64121
1.62991
1.6209
1.61171
1.60526
1.60181
1.60296
1.60757
1.61301
1.61647
1.62294
1.63468
1.6515
1.67252
1.6923
1.70885
1.72193
1.73744
1.74806
1.75435
0.199243
0.199264
0.199223
0.199159
0.199057
0.198916
0.198756
0.198542
0.198274
0.197997
0.197653
0.197225
0.196806
0.196326
0.195696
0.195105
0.194478
0.193658
0.192809
0.192038
0.191113
0.189809
0.188698
0.187775
0.186757
0.185215
0.183299
0.181963
0.181048
0.179928
0.178278
0.176027
0.175009
0.174376
0.173911
0.173747
0.174044
0.175492
0.193704
0.352522
0.911261
0.977869
0.971273
0.963151
0.955435
0.945187
0.934504
0.924227
0.918387
0.917645
0.953268
1.06117
1.16493
1.26118
1.3176
1.33935
1.41139
1.46601
1.50949
1.5791
1.62975
1.67684
1.71304
1.74032
1.75902
1.7732
1.78559
1.79644
1.80348
1.80845
1.81179
1.81285
1.81334
1.81322
1.81476
1.81463
1.81365
1.81418
1.8143
1.81353
1.8126
1.8093
1.80627
1.80328
1.79912
1.7968
1.79153
1.78812
1.78264
1.77713
1.76877
1.76067
1.75095
1.74077
1.72658
1.71213
1.69401
1.67676
1.65737
1.6422
1.63217
1.62169
1.61215
1.60523
1.60143
1.60137
1.60499
1.61125
1.61435
1.61825
1.62889
1.64476
1.66403
1.68211
1.69713
1.71468
1.73048
1.7406
1.74681
0.199257
0.199277
0.199237
0.199174
0.199076
0.198935
0.198775
0.198571
0.198304
0.19802
0.197694
0.197267
0.196836
0.196363
0.195754
0.195123
0.194494
0.193728
0.192827
0.191991
0.191075
0.189859
0.188663
0.187592
0.186662
0.18519
0.183088
0.181716
0.180642
0.179929
0.178682
0.176186
0.174669
0.173988
0.173527
0.173295
0.174108
0.176259
0.199887
0.493042
0.955722
0.976597
0.972155
0.971533
0.969989
0.966376
0.962636
0.958556
0.958518
0.952291
0.992909
1.1461
1.25885
1.44187
1.5216
1.56763
1.61779
1.6621
1.70045
1.72921
1.7516
1.76877
1.77889
1.78526
1.79012
1.79496
1.79942
1.80322
1.80431
1.80224
1.80167
1.80136
1.80304
1.80353
1.80287
1.80257
1.80173
1.80213
1.80227
1.80115
1.79888
1.79623
1.7926
1.79002
1.78578
1.78219
1.77702
1.77405
1.76973
1.76519
1.75832
1.75204
1.74369
1.73525
1.72249
1.70894
1.69122
1.67391
1.65671
1.64405
1.63324
1.62193
1.61272
1.60632
1.60245
1.60044
1.60118
1.60602
1.61086
1.61688
1.62706
1.63835
1.65351
1.67116
1.68933
1.70882
1.72432
1.73395
1.74015
0.199271
0.199291
0.199253
0.199191
0.199095
0.198958
0.198796
0.198601
0.198337
0.198051
0.197737
0.197314
0.196872
0.196409
0.19583
0.195163
0.19452
0.193803
0.192858
0.191957
0.191073
0.189951
0.188631
0.187438
0.186548
0.185169
0.183024
0.1815
0.180306
0.179755
0.178598
0.176706
0.174353
0.173293
0.17242
0.17132
0.170967
0.172412
0.196014
0.623565
1.00049
1.00228
0.997592
0.992236
0.989151
0.984456
0.982091
0.995443
1.00788
1.02437
1.11682
1.31362
1.47814
1.64507
1.70398
1.72694
1.74201
1.75448
1.76506
1.77343
1.78068
1.78702
1.78958
1.78903
1.78742
1.78771
1.78751
1.79049
1.79106
1.79088
1.7895
1.78947
1.7898
1.78894
1.78845
1.78849
1.78935
1.78939
1.78962
1.78722
1.78443
1.78095
1.77747
1.77459
1.77099
1.76714
1.76304
1.76087
1.75735
1.75476
1.74971
1.74445
1.73678
1.72932
1.71689
1.70371
1.68655
1.67046
1.65664
1.64533
1.63284
1.62047
1.61221
1.60784
1.60346
1.59929
1.5966
1.59841
1.60476
1.61154
1.62108
1.63117
1.64432
1.66189
1.68318
1.70292
1.71766
1.72739
1.73418
0.199287
0.199307
0.19927
0.199208
0.199117
0.198983
0.19882
0.198634
0.198373
0.198087
0.197781
0.197371
0.196915
0.196469
0.195903
0.195208
0.194574
0.193881
0.192915
0.191962
0.191088
0.190053
0.188622
0.187371
0.186332
0.185057
0.183224
0.181369
0.180086
0.179221
0.178362
0.17697
0.174244
0.172635
0.171349
0.169348
0.167303
0.169565
0.199107
0.740089
1.00573
1.01556
1.01642
1.0119
1.00878
1.00738
1.01001
1.04232
1.06899
1.16038
1.31165
1.54717
1.70333
1.77243
1.77894
1.77825
1.77742
1.7779
1.77785
1.77792
1.77733
1.77776
1.77606
1.77582
1.7743
1.77455
1.77236
1.77289
1.7727
1.77307
1.77299
1.7733
1.77306
1.77304
1.77284
1.77362
1.77547
1.77575
1.77584
1.77344
1.77044
1.7674
1.76456
1.7615
1.75841
1.75437
1.75118
1.74925
1.74533
1.74393
1.73939
1.73432
1.72652
1.71975
1.70846
1.69689
1.68178
1.66843
1.65735
1.64564
1.63183
1.61944
1.61305
1.60921
1.60381
1.59851
1.59303
1.59193
1.59695
1.60356
1.61223
1.62312
1.63575
1.6542
1.67536
1.69497
1.71059
1.72189
1.72941
0.199305
0.199325
0.199289
0.199227
0.19914
0.19901
0.198848
0.198666
0.198417
0.198125
0.197827
0.197436
0.196973
0.196526
0.19598
0.195275
0.194635
0.193948
0.193
0.191999
0.191115
0.190126
0.188712
0.187328
0.186114
0.185058
0.183461
0.18123
0.17976
0.178486
0.177878
0.176573
0.174848
0.172296
0.171049
0.170221
0.169234
0.181546
0.266601
0.865072
1.00826
1.01479
1.01635
1.01605
1.01819
1.02466
1.04067
1.10812
1.16333
1.39048
1.5648
1.74386
1.79939
1.80285
1.79033
1.78432
1.77741
1.77213
1.7678
1.76524
1.76414
1.7631
1.76026
1.75832
1.75571
1.75487
1.7521
1.75088
1.75068
1.75299
1.75488
1.75691
1.75714
1.75756
1.75746
1.75851
1.76137
1.76193
1.76207
1.75955
1.75657
1.75364
1.75129
1.74792
1.74554
1.74134
1.73825
1.73654
1.73264
1.73267
1.72918
1.72465
1.71742
1.71167
1.70065
1.68896
1.67497
1.66459
1.6554
1.64276
1.62794
1.61621
1.61022
1.60567
1.60016
1.59436
1.58954
1.58717
1.58943
1.59497
1.60261
1.61436
1.62863
1.64767
1.66844
1.68834
1.70427
1.71612
1.72264
0.199324
0.199343
0.19931
0.199249
0.199165
0.19904
0.198879
0.198702
0.198466
0.198171
0.197875
0.197508
0.197044
0.196588
0.196067
0.19537
0.194701
0.19402
0.193115
0.192071
0.191148
0.190183
0.188854
0.187313
0.185949
0.18502
0.18357
0.181339
0.179357
0.177926
0.176807
0.176107
0.174624
0.172628
0.171111
0.171055
0.171906
0.194576
0.391944
0.957992
1.00394
1.00654
1.01007
1.01402
1.02742
1.05654
1.09453
1.24381
1.36547
1.626
1.76295
1.80871
1.80779
1.78974
1.78082
1.76994
1.76232
1.75612
1.75087
1.74722
1.74464
1.74299
1.7404
1.73919
1.73722
1.73624
1.73414
1.73186
1.73027
1.73137
1.73231
1.73484
1.73495
1.73586
1.73634
1.73773
1.74143
1.74294
1.74434
1.74385
1.74247
1.74075
1.7398
1.7365
1.73479
1.73018
1.72696
1.72516
1.7216
1.72253
1.71902
1.7141
1.70674
1.70132
1.69081
1.67987
1.66876
1.66126
1.65263
1.64045
1.62741
1.61726
1.60929
1.60268
1.59673
1.59087
1.58773
1.58544
1.58459
1.58777
1.59438
1.60611
1.62133
1.63895
1.65887
1.67928
1.6967
1.70962
1.71625
0.199344
0.199364
0.199332
0.199272
0.199192
0.199073
0.198913
0.198742
0.198518
0.198226
0.19793
0.197585
0.197123
0.196663
0.196159
0.195492
0.19479
0.194111
0.193266
0.19218
0.191194
0.190278
0.189011
0.187343
0.185942
0.184773
0.183549
0.181677
0.179008
0.177246
0.175855
0.175005
0.174039
0.172244
0.17026
0.169372
0.170428
0.198677
0.519357
1.01348
1.00746
1.00866
1.01115
1.02607
1.04994
1.13384
1.21672
1.46197
1.63497
1.78038
1.81132
1.8041
1.78774
1.77612
1.76519
1.75554
1.74807
1.74169
1.73635
1.73263
1.72984
1.72804
1.72557
1.72349
1.72048
1.71787
1.7152
1.71222
1.70974
1.70952
1.71001
1.71349
1.71471
1.71659
1.71828
1.71965
1.72315
1.72566
1.72769
1.72923
1.72965
1.72903
1.72904
1.72594
1.72351
1.71828
1.71454
1.71285
1.70991
1.71064
1.70725
1.70372
1.69769
1.69298
1.68283
1.67185
1.66116
1.6535
1.6438
1.63305
1.62356
1.6152
1.60424
1.59486
1.58734
1.58326
1.58179
1.58182
1.58161
1.58349
1.58986
1.60053
1.61484
1.63145
1.65142
1.67258
1.69041
1.70361
1.70894
0.199367
0.199386
0.199356
0.199298
0.199221
0.199109
0.198953
0.198784
0.198574
0.198287
0.197995
0.197667
0.197212
0.196752
0.196268
0.195635
0.194908
0.194225
0.193442
0.192336
0.191301
0.190364
0.189201
0.187474
0.185983
0.184588
0.18354
0.181825
0.178897
0.176653
0.174949
0.173364
0.172726
0.170982
0.168397
0.164603
0.164596
0.188192
0.685844
1.01211
1.01707
1.01578
1.02246
1.05993
1.11997
1.29378
1.45321
1.68306
1.78768
1.80926
1.79709
1.78425
1.76979
1.75807
1.74877
1.74084
1.73401
1.72764
1.72253
1.71904
1.71653
1.71483
1.71258
1.71019
1.70724
1.70332
1.69985
1.69626
1.69316
1.69162
1.6911
1.69358
1.6949
1.69603
1.69832
1.69856
1.70075
1.7038
1.70643
1.71012
1.71374
1.71545
1.71737
1.71613
1.7135
1.70913
1.7054
1.70305
1.6999
1.69913
1.69556
1.69343
1.68774
1.68202
1.67212
1.66367
1.65542
1.64827
1.63894
1.6313
1.62557
1.6166
1.6031
1.5904
1.58179
1.57805
1.5773
1.57807
1.57871
1.58062
1.58657
1.59517
1.60682
1.62174
1.64095
1.66273
1.68128
1.69488
1.70092
0.199391
0.19941
0.199382
0.199326
0.199253
0.199147
0.198997
0.198831
0.198634
0.198355
0.198068
0.197754
0.197319
0.196855
0.196395
0.195792
0.195052
0.194373
0.193618
0.192565
0.191464
0.190478
0.189361
0.187783
0.186089
0.184502
0.1834
0.18171
0.179234
0.176165
0.173838
0.171886
0.17022
0.169143
0.166618
0.161602
0.170993
0.225783