/*--------------------------------*- C++ -*----------------------------------*\
| =========                 |                                                 |
| \\      /  F ield         | OpenFOAM: The Open Source CFD Toolbox           |
|  \\    /   O peration     | Version:  2.2.x                                 |
|   \\  /    A nd           | Web:      www.OpenFOAM.org                      |
|    \\/     M anipulation  |                                                 |
\*---------------------------------------------------------------------------*/
FoamFile
{
    version     2.0;
    format      ascii;
    class       volScalarField;
    location    "2.1";
    object      rho;
}
// * * * * * * * * * * * * * * * * * * * * * * * * * * * * * * * * * * * * * //

dimensions      [1 -3 0 0 0 0 0];

internalField   nonuniform List<scalar> 
14161
(
0.999239
0.999248
0.999216
0.999159
0.999064
0.998928
0.99877
0.99859
0.998324
0.998015
0.997769
0.997419
0.996897
0.996508
0.996103
0.995615
0.994894
0.994282
0.993973
0.993526
0.992723
0.992405
0.9923
0.991824
0.99147
0.991454
0.991621
0.991993
0.992443
0.993056
0.993892
0.995184
0.996909
0.998844
1.00193
1.00574
1.00817
1.01003
1.01501
1.02183
1.02041
1.94085
2.66668
2.71968
2.71901
2.70567
2.6961
2.67547
2.66003
2.63956
2.62046
2.59931
2.57981
2.56082
2.54369
2.52371
2.50232
2.48436
2.46702
2.452
2.44037
2.42611
2.41127
2.39837
2.38639
2.37687
2.37095
2.36751
2.35871
2.34806
2.33723
2.32675
2.31595
2.30625
2.29819
2.2938
2.29428
2.29091
2.28415
2.27594
2.26671
2.25562
2.24373
2.23374
2.22406
2.21152
2.19535
2.17778
2.16476
2.15592
2.15102
2.14797
2.13839
2.12249
2.08289
2.04632
2.01231
1.98949
1.97117
1.95461
1.92975
1.8962
1.85913
1.8193
1.79277
1.77954
1.78384
1.79322
1.81689
1.87657
1.99233
2.26023
2.63669
2.91501
3.07116
3.13175
3.14327
3.12027
3.1608
0.999238
0.999248
0.999216
0.999159
0.999064
0.998929
0.998771
0.998589
0.998324
0.99802
0.997766
0.997415
0.996904
0.996499
0.99611
0.995609
0.994876
0.994335
0.993973
0.993465
0.99277
0.992441
0.992236
0.991797
0.991473
0.991449
0.9916
0.991943
0.992384
0.993043
0.993898
0.995153
0.996879
0.998843
1.00168
1.00533
1.00787
1.0101
1.01506
1.02182
1.02027
1.94783
2.66559
2.71972
2.71897
2.70462
2.69453
2.6734
2.6583
2.63651
2.61661
2.59429
2.57403
2.55454
2.53703
2.5165
2.49395
2.47584
2.45857
2.44251
2.43011
2.41683
2.402
2.38978
2.3779
2.3667
2.35838
2.35257
2.34514
2.33651
2.32817
2.31981
2.31197
2.30396
2.29572
2.28974
2.28648
2.27944
2.26941
2.26107
2.25394
2.24338
2.23221
2.22251
2.21416
2.21015
2.20192
2.18624
2.16967
2.15533
2.14414
2.13033
2.11228
2.10493
2.07567
2.05524
2.02438
1.99503
1.96847
1.94219
1.91734
1.88891
1.85742
1.82772
1.80026
1.78677
1.79003
1.81802
1.88178
1.99338
2.19808
2.4813
2.75343
2.94229
3.07468
3.13286
3.14703
3.10594
3.16437
0.999238
0.999248
0.999216
0.999158
0.999063
0.99893
0.998772
0.998586
0.998326
0.998027
0.997756
0.997413
0.996914
0.996482
0.996114
0.99559
0.994886
0.994408
0.993932
0.993399
0.992854
0.99242
0.99209
0.991754
0.99149
0.99143
0.991519
0.991786
0.992234
0.993001
0.993909
0.995091
0.996754
0.998671
1.00101
1.00434
1.00734
1.01009
1.01508
1.02236
1.0213
1.95832
2.66401
2.72209
2.71947
2.70253
2.69201
2.66862
2.65307
2.62913
2.60798
2.58491
2.56384
2.54338
2.52483
2.5046
2.48199
2.46302
2.44463
2.42788
2.41608
2.40333
2.38843
2.37552
2.3634
2.3527
2.34446
2.33571
2.32513
2.31593
2.30826
2.30064
2.29538
2.29266
2.29053
2.28678
2.27538
2.26136
2.24789
2.23839
2.23267
2.22271
2.21243
2.20528
2.19885
2.19428
2.19511
2.19054
2.17779
2.1569
2.13441
2.113
2.09067
2.08348
2.06676
2.05732
2.03175
2.00067
1.96436
1.93317
1.90672
1.88284
1.85987
1.83542
1.81708
1.81246
1.83353
1.90439
2.04873
2.26287
2.49644
2.6396
2.75715
2.88448
2.99936
3.07548
3.11017
3.07724
3.14323
0.999238
0.999248
0.999217
0.999157
0.999062
0.998931
0.998773
0.998582
0.99833
0.998038
0.997743
0.997409
0.996927
0.99647
0.996114
0.995564
0.9949
0.994468
0.993874
0.993341
0.992936
0.99238
0.991932
0.99171
0.991506
0.99134
0.991361
0.991539
0.991965
0.992843
0.993834
0.994917
0.996449
0.998151
0.999821
1.00267
1.00635
1.00979
1.01489
1.02309
1.02268
1.96997
2.66424
2.72667
2.72081
2.69994
2.6882
2.6611
2.64312
2.61695
2.59305
2.56786
2.54472
2.522
2.50119
2.47865
2.45469
2.43429
2.41516
2.39896
2.38677
2.37268
2.35852
2.3471
2.33766
2.32906
2.3202
2.30849
2.2967
2.28658
2.27867
2.2723
2.26921
2.27024
2.27046
2.2639
2.25193
2.2391
2.22648
2.21757
2.21144
2.20165
2.19131
2.1836
2.17736
2.1729
2.17479
2.17748
2.16976
2.15406
2.13159
2.10086
2.07753
2.06793
2.05583
2.04998
2.02646
1.99988
1.96575
1.92959
1.90361
1.88002
1.8638
1.84896
1.85094
1.8749
1.94467
2.11943
2.36546
2.58503
2.70168
2.75561
2.79617
2.86063
2.94302
3.02127
3.06749
3.05139
3.1104
0.999239
0.999248
0.999217
0.999157
0.999061
0.998934
0.998774
0.998577
0.998335
0.998049
0.997734
0.997403
0.996943
0.996469
0.996112
0.995545
0.994908
0.994487
0.99384
0.9933
0.992958
0.99235
0.991842
0.991671
0.991482
0.991193
0.991142
0.991222
0.991588
0.992504
0.993548
0.994546
0.995895
0.997198
0.998185
1.00052
1.00464
1.00873
1.01419
1.02339
1.02364
1.97712
2.66223
2.73208
2.7211
2.69607
2.68174
2.64832
2.6264
2.59731
2.56961
2.54132
2.51542
2.49027
2.46505
2.43942
2.41374
2.39186
2.37359
2.35626
2.34137
2.32687
2.31537
2.30721
2.3011
2.29595
2.28861
2.27935
2.26809
2.25736
2.24853
2.24134
2.23672
2.23623
2.23455
2.22848
2.22009
2.21233
2.20489
2.20247
2.19624
2.18574
2.17586
2.16629
2.15785
2.15064
2.14819
2.15047
2.14823
2.1373
2.12468
2.10123
2.07365
2.06025
2.0451
2.03789
2.01615
1.99243
1.96536
1.93291
1.90708
1.88735
1.87537
1.88244
1.92499
2.0193
2.20613
2.44452
2.63031
2.72428
2.76233
2.78917
2.80946
2.84136
2.90749
2.98506
3.03117
3.02493
3.07007
0.99924
0.999249
0.999217
0.999157
0.999061
0.998936
0.998775
0.998572
0.998339
0.998061
0.997731
0.997394
0.996958
0.996484
0.996099
0.995533
0.994937
0.994474
0.993832
0.993316
0.992928
0.992323
0.991816
0.99157
0.991337
0.991037
0.99093
0.990904
0.991105
0.99194
0.992984
0.993887
0.994962
0.995836
0.996393
0.998063
1.00174
1.00615
1.01258
1.02327
1.02356
1.97411
2.65511
2.73398
2.71848
2.68742
2.66851
2.62805
2.6002
2.56747
2.5353
2.50448
2.47619
2.44979
2.42074
2.39216
2.36837
2.34746
2.3327
2.31738
2.29932
2.28254
2.27158
2.26496
2.26193
2.26013
2.25403
2.24714
2.24046
2.23205
2.22598
2.22016
2.21343
2.2079
2.20235
2.19637
2.19037
2.18461
2.18053
2.18304
2.18396
2.17777
2.17043
2.16232
2.15134
2.1387
2.12749
2.12003
2.11957
2.11682
2.11279
2.0999
2.08004
2.06268
2.03996
2.02678
2.01052
1.99212
1.97057
1.94725
1.92513
1.90963
1.91687
1.96315
2.09293
2.30338
2.52818
2.66466
2.73009
2.75666
2.77594
2.79186
2.80276
2.8278
2.8879
2.95774
3.00299
3.00569
3.03898
0.999241
0.99925
0.999218
0.999158
0.999062
0.998938
0.998778
0.99857
0.99834
0.998071
0.997733
0.997382
0.996973
0.996512
0.996066
0.995529
0.994957
0.994415
0.993846
0.993337
0.992802
0.99228
0.991838
0.991439
0.991039
0.990792
0.990685
0.990626
0.99061
0.991093
0.99208
0.992828
0.993549
0.994224
0.994676
0.995467
0.99785
1.00185
1.00962
1.0209
1.0222
1.94865
2.64387
2.73021
2.70969
2.67191
2.64513
2.59837
2.56218
2.5251
2.48982
2.45838
2.4306
2.4044
2.37734
2.35275
2.33201
2.31448
2.30252
2.29233
2.27598
2.25818
2.24554
2.23811
2.23394
2.23384
2.23116
2.22272
2.21538
2.20928
2.20692
2.20569
2.19926
2.1924
2.18618
2.18107
2.17568
2.16873
2.16122
2.15838
2.16087
2.16425
2.16337
2.15851
2.15096
2.13917
2.12321
2.10889
2.1011
2.09817
2.10149
2.09695
2.08415
2.06685
2.04323
2.02546
2.01081
2.00144
1.98589
1.97282
1.97035
1.97878
2.03051
2.16463
2.38787
2.59152
2.69211
2.72558
2.74036
2.75919
2.77504
2.78139
2.7919
2.82079
2.87438
2.93132
2.97812
2.99428
3.0228
0.999243
0.999252
0.99922
0.999159
0.999063
0.998939
0.998781
0.99857
0.998339
0.99808
0.997738
0.997366
0.99699
0.996545
0.996029
0.99553
0.994983
0.994348
0.993864
0.993346
0.992628
0.992211
0.991878
0.991342
0.990574
0.990413
0.990375
0.990387
0.990212
0.990096
0.990623
0.991247
0.991643
0.992105
0.992636
0.992936
0.993835
0.996395
1.0033
1.014
1.01827
1.89072
2.63565
2.71538
2.68717
2.64654
2.60153
2.55274
2.51172
2.4759
2.44344
2.41751
2.39296
2.3668
2.34452
2.32526
2.30983
2.29419
2.28165
2.27519
2.26288
2.24601
2.23119
2.22093
2.21323
2.20954
2.20968
2.20946
2.20285
2.19613
2.18996
2.18586
2.18223
2.17594
2.17109
2.16977
2.17082
2.16648
2.15598
2.14497
2.14033
2.14144
2.14876
2.14912
2.14514
2.13868
2.12837
2.11333
2.10378
2.096
2.09699
2.09765
2.08908
2.07544
2.05634
2.03576
2.02602
2.02812
2.02154
2.0359
2.07207
2.13593
2.27615
2.46867
2.64211
2.71715
2.7219
2.72353
2.73918
2.75611
2.76115
2.76537
2.78428
2.81721
2.86384
2.90666
2.9566
2.98574
3.01405
0.999246
0.999254
0.999222
0.999161
0.999065
0.998941
0.998783
0.998573
0.998337
0.998086
0.997746
0.99735
0.997
0.996573
0.996001
0.995534
0.995013
0.994319
0.99387
0.993355
0.992499
0.992116
0.991898
0.991283
0.990102
0.989874
0.989936
0.990069
0.98994
0.98926
0.988686
0.989013
0.98931
0.989485
0.989668
0.989911
0.990437
0.990818
0.993339
1.00087
1.01034
1.78453
2.62882
2.689
2.65321
2.60083
2.53598
2.49992
2.46529
2.43819
2.41266
2.39259
2.37177
2.3442
2.32636
2.30936
2.29303
2.27607
2.26342
2.25914
2.25006
2.23348
2.21948
2.20952
2.19948
2.19122
2.18698
2.18855
2.18618
2.18288
2.17867
2.1736
2.16626
2.15751
2.15208
2.15043
2.15567
2.15653
2.15117
2.13869
2.12801
2.12522
2.13063
2.1411
2.1422
2.13817
2.13042
2.11849
2.11002
2.10374
2.10519
2.10948
2.1047
2.09248
2.0848
2.06447
2.07235
2.09368
2.10953
2.16519
2.27423
2.41335
2.57653
2.68354
2.73614
2.7266
2.71455
2.72252
2.73673
2.74194
2.74243
2.7539
2.77907
2.8128
2.84877
2.89004
2.94278
2.97801
3.0068
0.999249
0.999256
0.999224
0.999163
0.999069
0.998942
0.998785
0.998577
0.998336
0.99809
0.997757
0.997344
0.997003
0.996592
0.995992
0.995531
0.995027
0.99433
0.993847
0.993317
0.99245
0.992041
0.991828
0.99119
0.989805
0.989323
0.989358
0.989586
0.989608
0.988949
0.986864
0.986023
0.986215
0.986212
0.985879
0.985685
0.98582
0.985464
0.983183
0.98302
0.989654
1.60895
2.58467
2.67185
2.60909
2.56261
2.48878
2.45938
2.43649
2.42059
2.39677
2.3756
2.35856
2.32985
2.31358
2.29389
2.28078
2.26513
2.24872
2.24245
2.23364
2.22082
2.20933
2.20023
2.19134
2.17979
2.17121
2.16646
2.16386
2.16399
2.16254
2.15841
2.14855
2.13823
2.13322
2.13089
2.1323
2.13948
2.13856
2.13317
2.12177
2.11767
2.12209
2.13581
2.1406
2.13908
2.1374
2.13377
2.12785
2.12381
2.12544
2.1307
2.13365
2.12639
2.14406
2.14026
2.16275
2.20846
2.28351
2.4132
2.56631
2.67768
2.73518
2.74903
2.73581
2.71866
2.71447
2.71977
2.7231
2.72396
2.73204
2.74945
2.77463
2.80279
2.8329
2.88115
2.93456
2.96884
2.99736
0.999252
0.999259
0.999227
0.999167
0.999073
0.998944
0.998788
0.998585
0.998338
0.998089
0.997767
0.997347
0.997002
0.996599
0.995999
0.995519
0.995024
0.994368
0.993792
0.993237
0.992478
0.99199
0.991606
0.991023
0.989695
0.988894
0.988724
0.988862
0.989085
0.988662
0.986134
0.983095
0.982306
0.982114
0.981687
0.980617
0.979854
0.979123
0.975968
0.96458
0.965967
1.30317
2.43217
2.71678
2.59027
2.54616
2.47568
2.42482
2.40077
2.39408
2.37417
2.34853
2.3411
2.30421
2.2944
2.27369
2.25867
2.24885
2.23261
2.21962
2.21188
2.20416
2.19464
2.1841
2.17551
2.16638
2.15626
2.14612
2.14089
2.13902
2.13774
2.135
2.13319
2.12648
2.11773
2.11369
2.11453
2.12229
2.13014
2.12989
2.12312
2.11804
2.12328
2.13503
2.14488
2.14922
2.15547
2.15854
2.15984
2.15778
2.16228
2.17446
2.1874
2.19403
2.24284
2.26579
2.33728
2.43462
2.56173
2.6959
2.76607
2.78946
2.77015
2.74802
2.72969
2.71471
2.70866
2.70668
2.70777
2.71436
2.73099
2.7503
2.76573
2.78516
2.82436
2.87889
2.92875
2.95936
2.9868
0.999256
0.999263
0.999231
0.99917
0.999079
0.998947
0.99879
0.998594
0.998345
0.998087
0.997776
0.997362
0.996999
0.996596
0.996024
0.995497
0.995014
0.994424
0.993723
0.993129
0.992528
0.991959
0.991277
0.990666
0.989672
0.988755
0.988221
0.988161
0.988351
0.988016
0.986077
0.981587
0.979086
0.977971
0.97709
0.975655
0.973776
0.97306
0.97035
0.954687
0.952413
1.03449
2.04778
2.88076
2.65081
2.56357
2.47485
2.39995
2.36536
2.34655
2.3256
2.31192
2.31019
2.26939
2.26455
2.24174
2.22834
2.22234
2.20558
2.19285
2.18397
2.17669
2.16785
2.16058
2.15389
2.14769
2.14033
2.13101
2.11927
2.11484
2.11205
2.11595
2.11802
2.1194
2.11367
2.10736
2.10693
2.11492
2.1255
2.12912
2.12883
2.12685
2.13357
2.14682
2.16132
2.17373
2.19046
2.20262
2.20939
2.21444
2.22932
2.25965
2.2945
2.33761
2.43802
2.51034
2.61278
2.70847
2.77962
2.83783
2.82788
2.79209
2.76361
2.74483
2.7243
2.70656
2.69853
2.69591
2.70023
2.71558
2.7335
2.74407
2.75328
2.77168
2.81911
2.87614
2.92214
2.9523
2.97827
0.999261
0.999268
0.999235
0.999175
0.999085
0.998952
0.998793
0.998603
0.998355
0.998084
0.997783
0.997391
0.996991
0.996589
0.99607
0.995485
0.994986
0.994462
0.993692
0.993019
0.992539
0.991966
0.99096
0.990194
0.989485
0.988757
0.988015
0.987389
0.98719
0.986772
0.985351
0.981785
0.977774
0.975235
0.973322
0.971222
0.969077
0.968174
0.968144
0.958555
0.960994
1.01899
1.74609
2.86398
2.68072
2.59947
2.50015
2.3994
2.35624
2.31661
2.28526
2.27176
2.26652
2.23443
2.23143
2.21184
2.19865
2.19187
2.17681
2.16286
2.15342
2.14609
2.13914
2.133
2.12758
2.12575
2.12298
2.11846
2.10789
2.10053
2.09682
2.10074
2.11007
2.11391
2.11506
2.10861
2.10891
2.11423
2.12777
2.13631
2.14412
2.15316
2.16311
2.1788
2.19724
2.22053
2.2523
2.28044
2.30791
2.33861
2.37696
2.43044
2.50093
2.58873
2.7047
2.77725
2.82985
2.8665
2.88102
2.8551
2.81853
2.78567
2.76024
2.73629
2.71273
2.70088
2.69488
2.69472
2.70398
2.71978
2.72962
2.73184
2.74259
2.76738
2.81507
2.8652
2.91289
2.94602
2.97134
0.999266
0.999273
0.99924
0.999179
0.99909
0.998959
0.998796
0.998612
0.998369
0.998082
0.99779
0.997429
0.99699
0.996578
0.99612
0.995495
0.994942
0.99446
0.993699
0.992927
0.992492
0.991949
0.990755
0.989715
0.989181
0.988745
0.988144
0.986693
0.985536
0.984863
0.983953
0.981979
0.978541
0.974317
0.971298
0.96856
0.96617
0.964474
0.965067
0.960816
0.965299
1.05575
1.6343
2.53613
2.55943
2.57373
2.50941
2.40084
2.35396
2.30388
2.26584
2.24509
2.23181
2.21335
2.20498
2.18635
2.17373
2.16383
2.15167
2.1382
2.12825
2.12193
2.11616
2.11014
2.10502
2.1036
2.10955
2.10753
2.10586
2.09845
2.09349
2.09538
2.1068
2.11463
2.12059
2.12231
2.12866
2.13511
2.14897
2.16628
2.18449
2.2092
2.23292
2.25796
2.28949
2.3333
2.38566
2.44118
2.4999
2.56231
2.62575
2.68588
2.75519
2.83276
2.89908
2.91664
2.92282
2.90171
2.87998
2.84457
2.80931
2.7795
2.75087
2.72431
2.70818
2.70047
2.6994
2.70355
2.70992
2.7145
2.71691
2.72195
2.73743
2.76865
2.80837
2.85086
2.90189
2.93811
2.96228
0.999271
0.999279
0.999246
0.999184
0.999097
0.998968
0.998801
0.998621
0.998385
0.998084
0.997793
0.997462
0.996994
0.996571
0.99615
0.995518
0.994915
0.994436
0.993733
0.992878
0.992394
0.991887
0.990673
0.989315
0.98885
0.988681
0.988259
0.986333
0.983822
0.982897
0.982426
0.981618
0.979711
0.97565
0.970774
0.96788
0.965446
0.963791
0.964741
0.968789
0.988891
1.24113
1.72941
2.0632
2.28387
2.44002
2.45167
2.39051
2.34482
2.29646
2.25796
2.23156
2.21398
2.20262
2.18943
2.17006
2.159
2.14736
2.13376
2.1245
2.11652
2.10891
2.10538
2.10363
2.09909
2.09636
2.10066
2.10124
2.10545
2.10864
2.10482
2.11168
2.11858
2.1303
2.146
2.1611
2.18251
2.19973
2.21644
2.24608
2.28285
2.33064
2.38279
2.436
2.48972
2.54732
2.61564
2.68567
2.7503
2.80739
2.85036
2.89155
2.92632
2.95388
2.96207
2.93161
2.91873
2.89868
2.86926
2.83048
2.79769
2.76943
2.74165
2.72022
2.70902
2.70535
2.70737
2.70985
2.7072
2.70424
2.70587
2.71638
2.73842
2.76632
2.79584
2.84193
2.89302
2.92768
2.95025
0.999277
0.999285
0.999253
0.99919
0.999103
0.998978
0.998809
0.998627
0.998402
0.998092
0.997795
0.99748
0.997008
0.996566
0.996162
0.995547
0.994899
0.994404
0.993767
0.992881
0.992266
0.991742
0.990637
0.989143
0.988581
0.988548
0.988193
0.986247
0.982752
0.98144
0.981011
0.981039
0.980266
0.977896
0.972165
0.96811
0.965883
0.964951
0.965529
0.972119
1.02449
1.57885
1.89687
1.95018
2.05505
2.24455
2.39002
2.39552
2.35738
2.3089
2.27258
2.24352
2.21915
2.20398
2.18899
2.16963
2.15721
2.1446
2.12984
2.12107
2.11646
2.10624
2.10472
2.10897
2.10733
2.11056
2.11073
2.10703
2.12154
2.13585
2.13908
2.16377
2.17418
2.18968
2.22151
2.25141
2.30167
2.34516
2.38225
2.43091
2.48363
2.55763
2.6287
2.69525
2.74268
2.78399
2.83497
2.88738
2.92356
2.94196
2.94693
2.96075
2.9693
2.95925
2.94793
2.92174
2.90686
2.88595
2.85157
2.81637
2.78861
2.763
2.7387
2.72334
2.71468
2.71004
2.70904
2.70769
2.70197
2.69723
2.70126
2.71582
2.73474
2.75489
2.78648
2.83789
2.88605
2.91654
2.93771
0.999284
0.999292
0.999261
0.999198
0.99911
0.998989
0.998819
0.998633
0.998416
0.99811
0.997799
0.997488
0.997034
0.99657
0.996161
0.99558
0.994902
0.994366
0.993771
0.99292
0.992151
0.991522
0.990577
0.98919
0.988394
0.988156
0.987801
0.986242
0.982424
0.980606
0.980057
0.980053
0.980176
0.979138
0.975525
0.969426
0.967406
0.967227
0.968024
0.97781
1.11466
1.81321
1.97695
1.96979
1.99156
2.0589
2.22388
2.36321
2.37826
2.33588
2.31321
2.2746
2.23972
2.21618
2.19509
2.17233
2.16189
2.1496
2.13167
2.12893
2.12738
2.11429
2.12161
2.13052
2.13039
2.14753
2.15304
2.15055
2.18717
2.20794
2.22365
2.28342
2.3126
2.34446
2.39846
2.44255
2.52038
2.58583
2.64248
2.68646
2.72777
2.78372
2.83966
2.88544
2.90619
2.91989
2.93728
2.95236
2.95935
2.95823
2.95851
2.95599
2.95478
2.94199
2.92961
2.91064
2.89193
2.86503
2.83432
2.80893
2.78515
2.76162
2.74318
2.73024
2.72106
2.71193
2.70622
2.70326
2.69957
2.6978
2.70503
2.71609
2.72488
2.74149
2.7816
2.83517
2.87923
2.90689
2.92618
0.999292
0.9993
0.999269
0.999207
0.999118
0.999
0.998834
0.99864
0.998429
0.998136
0.997807
0.997493
0.997074
0.996585
0.996147
0.995616
0.994927
0.99432
0.993747
0.992989
0.992051
0.991271
0.990449
0.989389
0.988321
0.987639
0.987042
0.985854
0.982731
0.980307
0.979491
0.979306
0.979519
0.979505
0.97804
0.972429
0.969533
0.969652
0.971813
0.990132
1.3239
1.95093
1.99986
1.98558
1.98168
1.99783
2.05607
2.19711
2.33116
2.35287
2.34588
2.29588
2.26969
2.23643
2.20734
2.17599
2.17434
2.16934
2.14248
2.15761
2.16106
2.14512
2.17367
2.1856
2.19078
2.23235
2.25011
2.26476
2.33651
2.37312
2.41404
2.50135
2.55517
2.60367
2.64784
2.68723
2.74667
2.80217
2.84668
2.86736
2.88613
2.90474
2.92176
2.93303
2.93725
2.94281
2.94673
2.94788
2.94375
2.94341
2.94605
2.94395
2.93731
2.92222
2.91149
2.89747
2.87615
2.84957
2.82712
2.80769
2.78523
2.76575
2.7501
2.73709
2.72615
2.71421
2.70428
2.70039
2.70052
2.70382
2.70688
2.70877
2.71584
2.73378
2.77692
2.82913
2.87216
2.89893
2.91622
0.999301
0.999308
0.999278
0.999217
0.999126
0.999012
0.99885
0.998649
0.998442
0.998168
0.997821
0.997497
0.997121
0.996611
0.996131
0.995647
0.994979
0.994277
0.993709
0.993045
0.992001
0.99103
0.990315
0.989548
0.988367
0.987117
0.986298
0.98536
0.983184
0.980357
0.979202
0.978862
0.978857
0.979308
0.978854
0.975572
0.970918
0.970445
0.973236
1.00187
1.53461
2.0466
2.02402
2.00206
1.98784
1.98277
1.99844
2.04631
2.17155
2.29726
2.33997
2.32137
2.30682
2.26388
2.2378
2.18565
2.20772
2.21026
2.17455
2.22305
2.23213
2.22134
2.28255
2.30724
2.33441
2.40422
2.44254
2.49446
2.57617
2.62696
2.67412
2.73464
2.77591
2.81222
2.83503
2.86005
2.8834
2.89941
2.90914
2.91137
2.91711
2.92451
2.92853
2.92958
2.92817
2.93002
2.93283
2.93353
2.93158
2.92919
2.93057
2.92631
2.91984
2.90795
2.89787
2.88484
2.86395
2.84272
2.82583
2.8075
2.7877
2.7725
2.75625
2.74078
2.72875
2.71817
2.70755
2.70233
2.70242
2.70278
2.70066
2.69995
2.70872
2.73114
2.77187
2.81933
2.86441
2.89194
2.9077
0.99931
0.999317
0.999288
0.999229
0.999136
0.999024
0.998868
0.998662
0.998454
0.998201
0.997839
0.997505
0.997159
0.996642
0.996124
0.995675
0.995038
0.994257
0.993668
0.993052
0.991994
0.990866
0.990199
0.989574
0.988407
0.986694
0.985736
0.984917
0.983554
0.980772
0.979061
0.978537
0.978479
0.978756
0.978813
0.977447
0.972048
0.970695
0.973921
1.01892
1.75003
2.06919
2.06798
2.04704
2.02685
2.00784
1.99801
2.00503
2.05276
2.13515
2.25678
2.31378
2.3277
2.28896
2.28342
2.21365
2.28114
2.28382
2.26837
2.35054
2.36941
2.39339
2.47561
2.5218
2.57399
2.63937
2.68422
2.73337
2.7861
2.82487
2.85231
2.8741
2.88272
2.88734
2.89321
2.90277
2.91033
2.91366
2.91398
2.91273
2.91448
2.91485
2.9168
2.91741
2.91678
2.91574
2.91627
2.91744
2.91771
2.91595
2.91406
2.90816
2.90321
2.8959
2.88725
2.87425
2.85629
2.84096
2.82546
2.80799
2.79254
2.77812
2.75978
2.74209
2.72869
2.71978
2.71303
2.70713
2.70141
2.69647
2.69207
2.69307
2.70352
2.7279
2.76528
2.80936
2.85608
2.8844
2.8981
0.99932
0.999327
0.999298
0.999241
0.999148
0.999037
0.998888
0.998679
0.998466
0.998228
0.997866
0.997518
0.997188
0.996678
0.996129
0.995692
0.995089
0.994262
0.993637
0.993036
0.991996
0.990783
0.990077
0.989517
0.988454
0.986405
0.985224
0.984521
0.983646
0.981695
0.979172
0.978181
0.977969
0.978041
0.978417
0.978002
0.97503
0.973733
0.980193
1.13667
1.89477
2.08385
2.0831
2.07166
2.05611
2.03759
2.01844
2.01015
2.01415
2.03379
2.12058
2.23927
2.34447
2.33942
2.3614
2.31979
2.4074
2.42517
2.45642
2.55271
2.58791
2.62793
2.69136
2.73187
2.77374
2.81425
2.8442
2.86274
2.8771
2.88701
2.89402
2.89828
2.90005
2.90061
2.9025
2.90467
2.90594
2.90352
2.90451
2.90551
2.90644
2.90515
2.90263
2.90273
2.90258
2.90123
2.90041
2.90048
2.90117
2.89984
2.898
2.89324
2.8898
2.88475
2.87747
2.86695
2.85263
2.83997
2.82495
2.80962
2.79699
2.78158
2.76194
2.74395
2.72931
2.72017
2.71509
2.70974
2.69992
2.69048
2.68604
2.6888
2.70046
2.72209
2.75583
2.80156
2.84765
2.8748
2.88646
0.999331
0.999338
0.99931
0.999255
0.999163
0.99905
0.998908
0.998703
0.998481
0.99825
0.997905
0.997539
0.997208
0.996724
0.996154
0.995696
0.99513
0.994298
0.993615
0.992999
0.992016
0.990767
0.98997
0.989381
0.988422
0.98633
0.984763
0.984098
0.983619
0.982535
0.979752
0.977678
0.977275
0.977308
0.977586
0.977822
0.977421
0.978267
0.98965
1.3178
2.0054
2.08578
2.08016
2.0753
2.07044
2.06049
2.04604
2.03234
2.02743
2.02238
2.05587
2.18319
2.32228
2.4402
2.49307
2.52568
2.59977
2.63325
2.67553
2.73504
2.76821
2.79975
2.82831
2.84486
2.85696
2.86903
2.8796
2.8868
2.89197
2.89386
2.89438
2.89452
2.8925
2.89388
2.89549
2.89603
2.89574
2.89447
2.89359
2.89411
2.89376
2.89139
2.88841
2.88655
2.88618
2.88485
2.88318
2.88345
2.88439
2.88353
2.88291
2.88062
2.87933
2.8763
2.87061
2.86248
2.85083
2.83897
2.82457
2.812
2.80092
2.78411
2.76412
2.74659
2.73171
2.72076
2.7143
2.7094
2.69886
2.68809
2.68411
2.68633
2.69621
2.71539
2.74737
2.7955
2.83877
2.86362
2.8741
0.999343
0.99935
0.999322
0.999269
0.999179
0.999065
0.998928
0.998731
0.9985
0.998274
0.997952
0.997568
0.997226
0.996784
0.996199
0.995696
0.995159
0.99438
0.993603
0.992943
0.99207
0.99081
0.989877
0.989192
0.988314
0.98638
0.984461
0.983723
0.983428
0.982836
0.980805
0.977354
0.976391
0.976353
0.976495
0.97698
0.977933
0.980323
1.00024
1.49868
2.06213
2.08685
2.08424
2.08479
2.0845
2.08034
2.07539
2.07387
2.07255
2.06184
2.10731
2.25567
2.41408
2.62165
2.68627
2.71725
2.75651
2.78874
2.81484
2.83246
2.84337
2.85245
2.8607
2.86663
2.87057
2.87482
2.87892
2.88257
2.88359
2.88415
2.88422
2.88441
2.88384
2.88361
2.88369
2.8828
2.88313
2.88347
2.88215
2.87997
2.87782
2.87518
2.87264
2.87091
2.87011
2.86886
2.86797
2.86874
2.87077
2.87111
2.87151
2.87046
2.87009
2.86873
2.86469
2.85773
2.84734
2.83602
2.8241
2.81488
2.80355
2.78564
2.76651
2.74974
2.73458
2.72092
2.71086
2.70452
2.69678
2.68857
2.68504
2.68393
2.6908
2.7092
2.74264
2.78985
2.8304
2.85291
2.86273
0.999357
0.999363
0.999335
0.999285
0.999197
0.999081
0.99895
0.998761
0.998523
0.998298
0.998003
0.997604
0.997249
0.996848
0.996258
0.995701
0.995198
0.994482
0.993608
0.992898
0.992124
0.990926
0.989793
0.989011
0.98818
0.986522
0.984348
0.983366
0.98308
0.982803
0.981584
0.977733
0.975538
0.975196
0.975138
0.975228
0.97612
0.979724
1.01109
1.6837
2.11271
2.11898
2.11302
2.10689
2.10358
2.09848
2.09823
2.11224
2.12957
2.1516
2.25488
2.46558
2.64304
2.78282
2.81051
2.8197
2.82761
2.835
2.84093
2.84649
2.85083
2.85475
2.85708
2.85847
2.8602
2.8633
2.86665
2.86904
2.86848
2.86815
2.86837
2.86998
2.87049
2.86999
2.87021
2.87035
2.8713
2.87154
2.87022
2.86662
2.8639
2.86069
2.85838
2.85595
2.85503
2.85395
2.8539
2.85455
2.85677
2.85866
2.86037
2.86008
2.86031
2.86022
2.85715
2.85077
2.84129
2.83242
2.82479
2.81783
2.80493
2.78678
2.76953
2.75394
2.73811
2.72221
2.70756
2.69741
2.69134
2.68487
2.68183
2.68022
2.68532
2.70292
2.73721
2.78286
2.82136
2.8427
2.85252
0.999371
0.999377
0.99935
0.999302
0.999218
0.9991
0.998973
0.998795
0.998552
0.998325
0.998054
0.997647
0.997282
0.996907
0.996322
0.995728
0.995247
0.994583
0.993626
0.992872
0.992181
0.991082
0.989736
0.988833
0.98805
0.98676
0.984436
0.983019
0.982535
0.982393
0.98161
0.978878
0.975281
0.974218
0.97384
0.97335
0.973801
0.979049
1.044
1.83157
2.13386
2.14065
2.13703
2.1283
2.1238
2.12354
2.12835
2.16044
2.20163
2.3024
2.49044
2.73006
2.82673
2.85346
2.84972
2.84608
2.84395
2.84124
2.83907
2.83786
2.83927
2.84136
2.84267
2.84244
2.84368
2.84475
2.84689
2.84883
2.84932
2.84991
2.85133
2.85355
2.85499
2.85579
2.8564
2.85707
2.85743
2.85768
2.85662
2.85308
2.84976
2.84663
2.84456
2.84197
2.84091
2.84012
2.84074
2.841
2.8426
2.84535
2.84778
2.84801
2.84847
2.84891
2.84676
2.84151
2.83422
2.82889
2.82496
2.81831
2.80373
2.78664
2.77166
2.75595
2.73912
2.7224
2.70494
2.69146
2.68377
2.67788
2.67469
2.67554
2.68167
2.6998
2.73163
2.77434
2.81143
2.83289
2.84259
0.999387
0.999393
0.999366
0.999319
0.99924
0.999123
0.998996
0.998831
0.998588
0.998355
0.998099
0.997705
0.997325
0.996964
0.996399
0.995778
0.995298
0.994676
0.993674
0.992878
0.992222
0.991255
0.989741
0.98868
0.987908
0.986895
0.984796
0.982712
0.981883
0.981586
0.981234
0.97986
0.976246
0.973534
0.973055
0.973026
0.973806
0.98433
1.19609
1.97418
2.13731
2.13946
2.13594
2.133
2.13484
2.14251
2.16451
2.23183
2.3208
2.56026
2.74203
2.86159
2.87889
2.86713
2.85331
2.84809
2.8412
2.83415
2.8281
2.82374
2.82255
2.82198
2.82222
2.82159
2.82201
2.82184
2.82223
2.82332
2.82509
2.82757
2.83017
2.83299
2.83558
2.83767
2.83939
2.84103
2.84166
2.84219
2.84171
2.83881
2.83549
2.83267
2.83061
2.82799
2.82667
2.82588
2.82711
2.82705
2.82881
2.83233
2.83531
2.83556
2.83614
2.8369
2.83497
2.83063
2.82608
2.82496
2.82414
2.8171
2.80217
2.78704
2.77264
2.75558
2.73797
2.72076
2.70349
2.68806
2.67707
2.67035
2.66671
2.66938
2.67729
2.69541
2.72511
2.76536
2.80149
2.82345
2.83204
0.999403
0.99941
0.999384
0.999339
0.999264
0.999148
0.999021
0.998867
0.998632
0.99839
0.998147
0.997776
0.997376
0.997019
0.996497
0.995856
0.995348
0.994757
0.993784
0.992917
0.992255
0.991391
0.989843
0.988572
0.987769
0.986932
0.985301
0.982586
0.981117
0.980556
0.980483
0.979927
0.978061
0.973834
0.972303
0.972374
0.974036
0.991859
1.38386
2.07105
2.12485
2.12615
2.12783
2.131
2.14487
2.17641
2.23017
2.38188
2.55912
2.80478
2.86923
2.88822
2.87419
2.85752
2.85168
2.84424
2.836
2.82633
2.81772
2.81177
2.80801
2.80459
2.80227
2.80022
2.7988
2.79731
2.79629
2.79616
2.79722
2.79984
2.80328
2.80733
2.81106
2.81487
2.81857
2.82169
2.82333
2.82437
2.82466
2.82358
2.82126
2.81921
2.81692
2.81432
2.8125
2.81133
2.81309
2.8132
2.81555
2.81973
2.82306
2.8232
2.824
2.82502
2.82332
2.81973
2.81755
2.81888
2.81876
2.812
2.80049
2.78857
2.77252
2.75295
2.73419
2.71708
2.70187
2.68637
2.67292
2.66477
2.66125
2.66459
2.67384
2.69048
2.71829
2.75715
2.79251
2.8135
2.82089
0.999422
0.999429
0.999403
0.999359
0.999289
0.999178
0.999049
0.998905
0.998682
0.998431
0.998198
0.997855
0.997438
0.997079
0.996612
0.995956
0.995403
0.994847
0.993955
0.992991
0.992288
0.99149
0.990039
0.988545
0.987619
0.986885
0.985634
0.982865
0.98045
0.979496
0.979307
0.979407
0.978503
0.975607
0.97088
0.970113
0.972357
1.00026
1.56193
2.12892
2.12736
2.12773
2.13006
2.14492
2.1759
2.26103
2.38494
2.63975
2.79444
2.88001
2.88223
2.87231
2.85848
2.85008
2.84314
2.8363
2.82846
2.8184
2.80902
2.80235
2.79785
2.79401
2.79088
2.78718
2.78298
2.77848
2.77427
2.77196
2.77206
2.77302
2.77623
2.78147
2.78703
2.79312
2.79848
2.80261
2.8054
2.80709
2.8083
2.8088
2.80785
2.80762
2.80634
2.80497
2.80272
2.80083
2.80189
2.80203
2.80427
2.80721
2.81008
2.81027
2.81155
2.81303
2.8122
2.81035
2.81017
2.81202
2.811
2.80562
2.79892
2.78949
2.77135
2.74828
2.72732
2.71119
2.6974
2.68435
2.67064
2.66107
2.65798
2.66039
2.66862
2.68382
2.71061
2.74919
2.78382
2.80374
2.80943
0.999442
0.999449
0.999424
0.999382
0.999316
0.99921
0.999081
0.998945
0.998735
0.99848
0.998255
0.997938
0.997513
0.997153
0.996731
0.996076
0.99548
0.994957
0.994161
0.993107
0.992325
0.991601
0.990325
0.98862
0.987523
0.986777
0.985726
0.983377
0.980137
0.97851
0.97797
0.978132
0.977969
0.976184
0.970445
0.966774
0.969826
1.01446
1.75839
2.13733
2.14688
2.14609
2.15534
2.19287
2.26564
2.4376
2.62868
2.83697
2.88258
2.87963
2.86756
2.8536
2.84224
2.83632
2.83108
2.82575
2.81871
2.80892
2.79964
2.79293
2.78824
2.78388
2.78018
2.77627
2.77187
2.76634
2.76036
2.7559
2.75437
2.7535
2.75525
2.75904
2.76344
2.76976
2.77636
2.78156
2.78554
2.78778
2.79003
2.79217
2.79364
2.79496
2.7943
2.79388
2.7911
2.78912
2.78991
2.79064
2.79255
2.79369
2.79677
2.79942
2.80212
2.80322
2.80258
2.80201
2.80245
2.80359
2.80245
2.80107
2.79879
2.78972
2.76944
2.74449
2.72232
2.70516
2.69166
2.68029
2.66789
2.65798
2.6552
2.6566
2.66344
2.67815
2.70421
2.74184
2.77466
2.79225
2.79675
0.999463
0.999471
0.999448
0.999406
0.999346
0.999245
0.999116
0.998988
0.998793
0.998538
0.998317
0.998027
0.997603
0.997242
0.996851
0.996221
0.995593
0.995088
0.994388
0.993275
0.992415
0.991716
0.990672
0.988836
0.987497
0.986614
0.985724
0.983909
0.980329
0.977704
0.976404
0.976123
0.976487
0.975586
0.971197
0.965924
0.972975
1.11906
1.89414
2.11748
2.13861
2.16093
2.20133
2.28916
2.44331
2.68158
2.82499
2.88394
2.87607
2.86248
2.84934
2.83621
2.82897
2.82348
2.81878
2.81435
2.80832
2.79987
2.79193
2.78592
2.78136
2.77707
2.77262
2.7682
2.7638
2.75782
2.75122
2.74459
2.74058
2.73858
2.73898
2.74066
2.74312
2.74786
2.75373
2.75968
2.76578
2.76946
2.77254
2.77636
2.77901
2.78143
2.78103
2.78065
2.77848
2.77716
2.77759
2.7789
2.78033
2.78009
2.78277
2.78639
2.79061
2.79257
2.79317
2.79438
2.79456
2.79427
2.79392
2.79537