/*--------------------------------*- C++ -*----------------------------------*\
| =========                 |                                                 |
| \\      /  F ield         | OpenFOAM: The Open Source CFD Toolbox           |
|  \\    /   O peration     | Version:  2.2.x                                 |
|   \\  /    A nd           | Web:      www.OpenFOAM.org                      |
|    \\/     M anipulation  |                                                 |
\*---------------------------------------------------------------------------*/
FoamFile
{
    version     2.0;
    format      ascii;
    class       volScalarField;
    location    "2.1";
    object      T;
}
// * * * * * * * * * * * * * * * * * * * * * * * * * * * * * * * * * * * * * //

dimensions      [0 0 0 1 0 0 0];

internalField   nonuniform List<scalar> 
14161
(
0.99645
0.996571
0.996391
0.996079
0.995652
0.995032
0.994215
0.993345
0.992289
0.990823
0.9894
0.987955
0.985772
0.983571
0.981561
0.979363
0.976782
0.973451
0.971466
0.969877
0.966388
0.964256
0.963867
0.96276
0.961373
0.961195
0.961458
0.962786
0.96511
0.968628
0.973157
0.979175
0.987499
0.996859
1.00801
1.02501
1.04128
1.05326
1.06915
1.09526
1.09784
2.43589
2.92611
2.96766
2.9744
2.96456
2.96037
2.94436
2.9332
2.91757
2.90379
2.89013
2.87765
2.8669
2.85652
2.845
2.83087
2.81934
2.80951
2.79953
2.79097
2.78451
2.77468
2.76261
2.75236
2.74266
2.73358
2.73327
2.73307
2.73139
2.72491
2.71449
2.70473
2.69419
2.68467
2.67663
2.67502
2.66964
2.66371
2.65791
2.65087
2.6426
2.63548
2.62825
2.61883
2.60532
2.58029
2.55847
2.54066
2.52687
2.52524
2.53036
2.51334
2.50448
2.46697
2.42113
2.38551
2.35552
2.33601
2.31499
2.28737
2.24897
2.19553
2.14782
2.12217
2.0991
2.08119
2.063
2.05509
2.07203
2.11429
2.27566
2.45471
2.61129
2.74274
2.86421
2.97272
3.0303
3.11071
0.996447
0.996569
0.99639
0.99608
0.99565
0.995028
0.994217
0.993345
0.992275
0.990839
0.989406
0.987919
0.985798
0.983595
0.981576
0.979402
0.976573
0.973655
0.971617
0.969563
0.96641
0.964679
0.963704
0.962375
0.961196
0.96102
0.961379
0.962651
0.964806
0.968221
0.972929
0.978863
0.987083
0.997128
1.0083
1.02427
1.04041
1.0526
1.06984
1.09616
1.1015
2.44505
2.93341
2.97282
2.9795
2.96828
2.96329
2.94647
2.9358
2.9189
2.90422
2.88883
2.87467
2.86223
2.85171
2.84012
2.82669
2.81472
2.80584
2.79727
2.78854
2.78127
2.77243
2.76118
2.75198
2.74448
2.73676
2.73132
2.72749
2.72128
2.7123
2.705
2.69953
2.69207
2.68501
2.67637
2.66947
2.66093
2.65493
2.64914
2.63979
2.62992
2.61978
2.6093
2.60062
2.59403
2.583
2.56637
2.54709
2.5305
2.52235
2.51154
2.49436
2.48241
2.45032
2.43054
2.39649
2.36148
2.33666
2.30627
2.27332
2.23889
2.19607
2.15542
2.11968
2.10171
2.08653
2.08869
2.15475
2.27437
2.47697
2.73844
2.88997
2.9694
2.9905
3.0228
3.06437
3.07095
3.12809
0.996447
0.996568
0.996389
0.996081
0.995645
0.995028
0.994223
0.993338
0.992261
0.990861
0.989396
0.987868
0.985861
0.983614
0.981567
0.979381
0.976442
0.973909
0.971475
0.969258
0.966679
0.964751
0.963238
0.961968
0.961127
0.960923
0.961236
0.96231
0.964088
0.967233
0.972075
0.978023
0.985946
0.996612
1.00742
1.02175
1.03806
1.05173
1.07012
1.09791
1.10574
2.45093
2.93904
2.98301
2.98823
2.97561
2.97167
2.95296
2.94247
2.92369
2.90764
2.89053
2.87454
2.85955
2.84664
2.83369
2.82092
2.80814
2.79872
2.79097
2.78152
2.77417
2.76784
2.75786
2.75033
2.74386
2.73722
2.72992
2.72323
2.71369
2.70456
2.69919
2.69548
2.69128
2.68462
2.67697
2.66769
2.65653
2.64828
2.63789
2.62735
2.61817
2.60784
2.59517
2.58796
2.5798
2.57974
2.56915
2.56018
2.54723
2.51948
2.49582
2.47454
2.45806
2.43578
2.42732
2.40291
2.37654
2.33253
2.29124
2.25604
2.22517
2.1964
2.1657
2.1312
2.11388
2.1288
2.19897
2.33878
2.52604
2.76979
3.00597
3.12995
3.14607
3.10682
3.07581
3.06815
3.06471
3.09783
0.996448
0.99657
0.99639
0.996085
0.99564
0.995028
0.994233
0.993327
0.992246
0.990892
0.989394
0.987828
0.985921
0.983619
0.981565
0.979303
0.97631
0.974104
0.971417
0.968888
0.966936
0.964886
0.962604
0.961627
0.960994
0.960625
0.960752
0.961467
0.96308
0.965632
0.970632
0.976512
0.984076
0.994609
1.00516
1.01713
1.03375
1.0499
1.06911
1.10037
1.11453
2.46332
2.94874
2.99617
3.00048
2.9842
2.98044
2.95868
2.94731
2.92749
2.91114
2.89473
2.87717
2.86196
2.84781
2.83387
2.8199
2.80404
2.79464
2.78606
2.77728
2.7688
2.75908
2.74645
2.73682
2.73223
2.72513
2.71907
2.71298
2.70549
2.69631
2.68986
2.68522
2.6795
2.67065
2.66242
2.65652
2.64846
2.64088
2.62756
2.61457
2.60513
2.59733
2.58387
2.57394
2.56271
2.55515
2.55247
2.54355
2.53469
2.51439
2.48291
2.46228
2.44138
2.41608
2.40927
2.38781
2.36476
2.32379
2.28128
2.24693
2.21677
2.19238
2.17321
2.15995
2.17454
2.25568
2.42366
2.65365
2.8738
3.07491
3.17648
3.23444
3.23178
3.17989
3.11836
3.08213
3.07236
3.08579
0.996451
0.996571
0.996391
0.996092
0.995638
0.995026
0.99425
0.993315
0.992221
0.99092
0.989399
0.98779
0.985946
0.983625
0.981546
0.979268
0.976271
0.974151
0.971373
0.968653
0.967023
0.965021
0.962277
0.961176
0.960717
0.960111
0.959926
0.960176
0.96147
0.963604
0.968534
0.974038
0.981179
0.990302
1.0003
1.01128
1.02621
1.04461
1.06417
1.09687
1.11302
2.46743
2.95891
3.00888
3.01759
2.99566
2.99331
2.96801
2.95406
2.93205
2.91377
2.89502
2.87502
2.8572
2.84251
2.82883
2.81329
2.79644
2.78405
2.77613
2.77009
2.76132
2.74873
2.73463
2.72212
2.71519
2.70593
2.69771
2.68861
2.68184
2.67357
2.66822
2.66321
2.65605
2.64628
2.63665
2.63005
2.6221
2.61552
2.60772
2.59483
2.58341
2.57421
2.56256
2.55022
2.53766
2.52591
2.51987
2.51381
2.50363
2.49211
2.46912
2.44134
2.42278
2.39883
2.38688
2.36479
2.34042
2.30738
2.26777
2.23559
2.20806
2.19361
2.19314
2.23172
2.32818
2.5074
2.73178
2.94848
3.11268
3.18055
3.23011
3.26172
3.25587
3.20731
3.13751
3.09145
3.07862
3.07998
0.996455
0.996574
0.996393
0.996097
0.995639
0.99502
0.994268
0.993317
0.992192
0.990944
0.989415
0.987756
0.985925
0.983675
0.981524
0.979189
0.9764
0.974139
0.971256
0.968709
0.966845
0.964814
0.962169
0.960823
0.960095
0.959224
0.95882
0.958681
0.959352
0.961011
0.965419
0.970325
0.976664
0.984109
0.992785
1.00266
1.01698
1.03459
1.0543
1.0958
1.12496
2.47639
2.96956
3.0202
3.03355
3.00583
3.00261
2.97308
2.95618
2.93213
2.91232
2.8915
2.87012
2.8512
2.83362
2.81568
2.79477
2.77452
2.75563
2.74384
2.73555
2.72381
2.70951
2.69493
2.68354
2.67319
2.66257
2.65214
2.64119
2.63175
2.62528
2.6204
2.61645
2.60952
2.59958
2.58975
2.58207
2.573
2.56291
2.5603
2.55553
2.54518
2.53406
2.52313
2.50924
2.49799
2.48785
2.47478
2.46576
2.45792
2.44975
2.43348
2.41476
2.39285
2.36901
2.35105
2.32892
2.30918
2.28672
2.25994
2.23512
2.21022
2.21739
2.26571
2.38868
2.58834
2.79376
3.00484
3.11184
3.16837
3.21045
3.24571
3.25823
3.25543
3.21422
3.1517
3.09936
3.08003
3.07447
0.996462
0.996579
0.996398
0.996101
0.995642
0.995018
0.994281
0.993327
0.992181
0.990956
0.989447
0.987734
0.985905
0.983772
0.981526
0.979183
0.976577
0.973979
0.971221
0.968929
0.966409
0.964243
0.962156
0.960454
0.958814
0.957927
0.957334
0.956942
0.956876
0.957615
0.960832
0.964979
0.969892
0.975899
0.983451
0.991887
1.00342
1.01899
1.03902
1.08741
1.1278
2.46962
2.96919
3.02544
3.04102
3.00276
2.99908
2.96741
2.94589
2.92298
2.90062
2.87386
2.84737
2.82228
2.79699
2.76894
2.73984
2.71623
2.69396
2.6767
2.66212
2.64945
2.63749
2.62297
2.61475
2.60305
2.58985
2.57805
2.56815
2.55747
2.5486
2.54389
2.53991
2.53624
2.53048
2.52142
2.51051
2.49751
2.48759
2.47886
2.4793
2.4763
2.46797
2.46107
2.45189
2.44102
2.4292
2.42165
2.40908
2.3994
2.39624
2.38222
2.37211
2.35793
2.33014
2.31319
2.29867
2.28428
2.26654
2.25531
2.25343
2.2478
2.31183
2.44429
2.64475
2.8503
3.03799
3.10085
3.14229
3.17721
3.20866
3.2345
3.24976
3.24947
3.21655
3.15975
3.10446
3.07647
3.06431
0.996472
0.996586
0.996405
0.996106
0.995649
0.995021
0.994292
0.993344
0.99218
0.99096
0.989497
0.987722
0.985867
0.9839
0.981533
0.979148
0.976712
0.973736
0.971254
0.968983
0.965811
0.963489
0.962003
0.960383
0.957335
0.956101
0.955284
0.954823
0.954237
0.95386
0.954833
0.957969
0.961156
0.965076
0.970936
0.978541
0.986151
0.997679
1.01719
1.06328
1.11629
2.43607
2.95971
3.0354
3.03748
2.99571
2.98358
2.95603
2.92377
2.89012
2.85727
2.8177
2.78451
2.7517
2.71987
2.68607
2.65411
2.63194
2.6078
2.58267
2.56669
2.55689
2.54503
2.53098
2.52247
2.513
2.5037
2.49242
2.47978
2.46451
2.45078
2.44199
2.44086
2.44011
2.43887
2.43787
2.42843
2.41611
2.40095
2.39415
2.38794
2.38831
2.3892
2.38161
2.37437
2.36696
2.35945
2.34989
2.34339
2.33574
2.33671
2.33271
2.32446
2.31465
2.29478
2.27862
2.2706
2.27061
2.26137
2.27086
2.31195
2.37016
2.50945
2.69922
2.88761
3.03816
3.0905
3.11202
3.13315
3.16773
3.1986
3.22147
3.23967
3.24238
3.21623
3.15899
3.10438
3.07301
3.05787
0.996483
0.996596
0.996415
0.996113
0.99566
0.99503
0.9943
0.99336
0.992188
0.990958
0.98955
0.987718
0.985866
0.984002
0.981484
0.979107
0.976788
0.973589
0.971192
0.969117
0.965411
0.9627
0.961713
0.960367
0.956184
0.953988
0.952852
0.951967
0.951483
0.950118
0.948436
0.948906
0.950722
0.952399
0.954897
0.958337
0.963934
0.970521
0.982943
1.01081
1.08603
2.28198
2.94295
3.05466
3.0205
2.99229
2.93889
2.8923
2.84314
2.79454
2.7528
2.70998
2.6764
2.64606
2.61749
2.58886
2.5611
2.54171
2.51592
2.49231
2.47807
2.46947
2.4549
2.44757
2.43875
2.42827
2.4168
2.40985
2.39801
2.38626
2.37282
2.36352
2.35691
2.35353
2.34876
2.3479
2.35274
2.34477
2.33333
2.32132
2.31551
2.31333
2.31851
2.31584
2.3107
2.3059
2.30024
2.29466
2.29167
2.2879
2.2922
2.29696
2.29438
2.28245
2.27859
2.25838
2.26253
2.28371
2.29899
2.35611
2.45778
2.58994
2.74247
2.92762
3.01487
3.06562
3.07885
3.08897
3.12091
3.15341
3.18101
3.209
3.23124
3.2375
3.20953
3.15293
3.1003
3.06967
3.05392
0.996497
0.996608
0.996429
0.99612
0.995673
0.995047
0.994305
0.993378
0.992215
0.990961
0.989593
0.987726
0.98589
0.984051
0.981491
0.979083
0.976764
0.973628
0.971146
0.968994
0.965255
0.962336
0.961228
0.959742
0.955554
0.952051
0.950133
0.94865
0.948196
0.946414
0.94352
0.938452
0.937597
0.937211
0.935303
0.932643
0.930903
0.931585
0.931652
0.935548
1.00089
1.93858
2.90594
3.07089
2.96396
2.92643
2.82338
2.74922
2.70136
2.65883
2.62788
2.58775
2.56594
2.54546
2.51964
2.49817
2.48127
2.46096
2.43531
2.41689
2.40071
2.38891
2.38107
2.37212
2.36423
2.35566
2.34813
2.3372
2.33061
2.3257
2.31605
2.30756
2.30025
2.28989
2.28479
2.28209
2.28563
2.29045
2.28798
2.27945
2.2693
2.2658
2.26752
2.27264
2.2695
2.26721
2.26544
2.2666
2.27047
2.26925
2.27235
2.27821
2.28421
2.27367
2.28733
2.28284
2.30826
2.35804
2.42765
2.53162
2.67708
2.82644
2.9524
3.00255
3.04
3.04247
3.05614
3.07366
3.10087
3.13118
3.16474
3.19897
3.22427
3.22757
3.19957
3.15014
3.10106
3.06547
3.04805
0.996513
0.996622
0.996446
0.99613
0.99569
0.995074
0.994306
0.993402
0.992248
0.990967
0.989614
0.987752
0.985903
0.984034
0.981564
0.979055
0.97666
0.973852
0.971106
0.968577
0.965217
0.962295
0.960461
0.958406
0.955023
0.950547
0.947442
0.94512
0.944176
0.942444
0.940302
0.930206
0.923805
0.918642
0.913302
0.904956
0.892279
0.881579
0.868678
0.834391
0.850999
1.26675
2.72545
3.05944
2.83267
2.76466
2.65131
2.59426
2.55222
2.52151
2.50719
2.47217
2.46275
2.44272
2.42614
2.41096
2.39498
2.38279
2.36245
2.34136
2.32904
2.31821
2.30986
2.30411
2.2992
2.29642
2.29028
2.28244
2.27487
2.27072
2.26632
2.26281
2.25864
2.25471
2.24299
2.2394
2.23916
2.24726
2.25171
2.25237
2.24454
2.23938
2.24183
2.24762
2.25002
2.25113
2.25472
2.25827
2.26381
2.26637
2.27464
2.28839
2.3042
2.30411
2.33961
2.36793
2.44349
2.52903
2.64459
2.74427
2.8964
2.9587
2.99209
3.00597
3.01401
3.02847
3.03467
3.05125
3.07763
3.11085
3.15444
3.19636
3.21504
3.21359
3.18874
3.1488
3.10043
3.06075
3.04444
0.996531
0.996639
0.996464
0.996145
0.99571
0.995102
0.994313
0.993425
0.992291
0.990981
0.989606
0.987811
0.985915
0.984001
0.981688
0.979051
0.976599
0.974013
0.970936
0.968013
0.965073
0.962338
0.959475
0.956753
0.953679
0.949429
0.945265
0.941784
0.939635
0.93785
0.934309
0.927009
0.913824
0.903243
0.892356
0.878962
0.859539
0.829966
0.801472
0.728338
0.657921
0.71592
2.06069
2.94143
2.67667
2.59851
2.52627
2.47471
2.44812
2.4194
2.40986
2.38286
2.38223
2.36034
2.34971
2.33949
2.32391
2.31748
2.30808
2.28837
2.27816
2.27291
2.26284
2.25896
2.25634
2.25502
2.25588
2.25096
2.24258
2.23797
2.23392
2.23343
2.23361
2.23039
2.2274
2.21719
2.21756
2.2245
2.232
2.23527
2.23728
2.23347
2.23576
2.23972
2.24854
2.25278
2.26318
2.27346
2.28606
2.29935
2.31549
2.34904
2.39044
2.41985
2.49038
2.56591
2.64976
2.73754
2.86699
2.94718
2.97838
2.99142
2.97963
2.98827
3.00136
3.00371
3.01065
3.02841
3.0587
3.09997
3.15063
3.18666
3.20277
3.19821
3.18024
3.14365
3.09459
3.05681
3.04254
0.996553
0.996658
0.996485
0.996164
0.995731
0.995131
0.994332
0.993443
0.992345
0.991006
0.989586
0.987917
0.985954
0.983987
0.981808
0.979112
0.976537
0.974007
0.970981
0.967516
0.964866
0.962239
0.958862
0.954957
0.951639
0.947982
0.943837
0.939154
0.93479
0.932468
0.927913
0.922391
0.908178
0.894159
0.879024
0.861047
0.838342
0.808268
0.780114
0.747282
0.743127
0.880836
1.54303
2.77009
2.58783
2.53057
2.48145
2.41502
2.38987
2.36476
2.34913
2.3287
2.33048
2.314
2.30435
2.30321
2.28966
2.28375
2.27679
2.26551
2.25613
2.2522
2.24731
2.24124
2.23936
2.23712
2.23675
2.23697
2.23275
2.22415
2.22041
2.21985
2.22311
2.22185
2.22206
2.21564
2.2143
2.21932
2.2296
2.23728
2.24053
2.25124
2.25285
2.26207
2.27412
2.28534
2.31021
2.33531
2.36975
2.40777
2.4461
2.49452
2.55076
2.60784
2.68625
2.77923
2.86527
2.93292
2.95758
2.99868
2.97697
2.96798
2.97213
2.97651
2.98096
2.97949
2.99126
3.01442
3.05045
3.09565
3.13939
3.17195
3.18869
3.18792
3.17238
3.13279
3.08716
3.05508
3.04361
0.996577
0.996679
0.996509
0.996189
0.995752
0.995162
0.994365
0.993456
0.992401
0.991057
0.989581
0.988015
0.986041
0.983972
0.981844
0.979267
0.976469
0.973961
0.971098
0.967242
0.964565
0.961976
0.958496
0.953318
0.94965
0.945916
0.942738
0.93816
0.931438
0.925755
0.92147
0.91425
0.906478
0.890087
0.873468
0.85464
0.832287
0.804742
0.766855
0.735632
0.692998
0.887252
1.24634
2.49455
2.5135
2.50014
2.49934
2.42001
2.39364
2.36526
2.33597
2.31482
2.31062
2.30791
2.30386
2.29172
2.28696
2.28229
2.2762
2.2706
2.25939
2.25461
2.25154
2.24501
2.23933
2.23745
2.24079
2.23832
2.23662
2.23232
2.2216
2.22163
2.22687
2.2322
2.23128
2.23317
2.23662
2.24285
2.25683
2.27266
2.28086
2.30439
2.3213
2.34123
2.36863
2.39677
2.44301
2.48748
2.53699
2.58595
2.63581
2.69177
2.75535
2.82145
2.90511
2.97295
2.96439
3.00118
2.98501
2.97356
2.9622
2.95786
2.95853
2.96002
2.9576
2.96712
2.98657
3.01385
3.04516
3.08107
3.12422
3.158
3.17623
3.1802
3.16136
3.12335
3.08078
3.05249
3.04272
0.996604
0.996703
0.996535
0.996221
0.995773
0.995197
0.994409
0.993478
0.992458
0.991113
0.989611
0.988075
0.986137
0.983975
0.981864
0.97942
0.97645
0.973881
0.971079
0.967074
0.964041
0.961695
0.95837
0.952051
0.947736
0.94429
0.941815
0.938259
0.928229
0.921208
0.914006
0.908667
0.901067
0.89224
0.872413
0.855819
0.837964
0.818453
0.79331
0.805522
0.88625
1.18524
1.8181
2.17667
2.42013
2.50827
2.54337
2.47231
2.4282
2.40056
2.36547
2.345
2.33344
2.32703
2.32529
2.30891
2.30188
2.29345
2.28801
2.28675
2.27698
2.26861
2.26435
2.26025
2.25584
2.25039
2.25085
2.25117
2.25389
2.25534
2.24643
2.24902
2.25421
2.26509
2.2787
2.28265
2.30892
2.31976
2.34166
2.36969
2.39149
2.44073
2.47474
2.51797
2.54881
2.58216
2.63754
2.69155
2.75611
2.81123
2.85687
2.90078
2.96545
3.0103
3.01636
3.03146
3.00094
2.99024
2.97075
2.96131
2.94962
2.94593
2.94555
2.94005
2.94714
2.96486
2.98597
3.00888
3.03252
3.06509
3.10679
3.14442
3.16863
3.17093
3.15112
3.11507
3.07581
3.04973
3.04093
0.996634
0.996731
0.996563
0.996256
0.9958
0.995236
0.994459
0.993515
0.992507
0.991183
0.989648
0.988118
0.986221
0.983995
0.981878
0.979523
0.976446
0.973749
0.970936
0.967194
0.963673
0.961169
0.957759
0.951392
0.9464
0.942839
0.940827
0.937536
0.926667
0.917983
0.910425
0.903082
0.898263
0.889747
0.879182
0.859345
0.843696
0.829567
0.815796
0.816363
0.891912
1.69142
2.13794
2.17664
2.27129
2.41269
2.51224
2.53143
2.48245
2.45641
2.4225
2.3953
2.37512
2.36357
2.35269
2.33623
2.32549
2.31558
2.30588
2.3044
2.30398
2.288
2.28372
2.28525
2.28375
2.28181
2.28111
2.27847
2.29393
2.29813
2.30243
2.32525
2.33147
2.35344
2.37813
2.4
2.44989
2.48207
2.52385
2.55344
2.58721
2.64486
2.69366
2.74548
2.79124
2.81846
2.86761
2.91285
2.9749
3.02158
3.0352
3.03769
3.04414
3.06341
3.03922
3.02049
2.99107
2.97955
2.95863
2.94592
2.93652
2.93268
2.92915
2.93306
2.94725
2.96308
2.9797
2.99905
3.01996
3.05074
3.09195
3.1329
3.15785
3.16219
3.1418
3.10903
3.0732
3.04687
3.03922
0.996666
0.996764
0.996595
0.996294
0.995833
0.995276
0.994518
0.99356
0.992546
0.991271
0.989707
0.988137
0.986317
0.984055
0.981889
0.979565
0.976497
0.973605
0.970734
0.967385
0.963464
0.960278
0.956724
0.951089
0.945985
0.941442
0.939278
0.93478
0.926663
0.915937
0.908422
0.901002
0.895249
0.889776
0.883179
0.867434
0.854178
0.84511
0.835488
0.858869
0.950619
1.95577
2.15985
2.15762
2.1893
2.24725
2.40852
2.48214
2.53189
2.49456
2.45539
2.44099
2.41662
2.39932
2.38469
2.3674
2.35673
2.34793
2.33546
2.33266
2.33314
2.31838
2.32259
2.32629
2.32551
2.3419
2.34816
2.33789
2.37606
2.39006
2.40664
2.4565
2.4919
2.52389
2.55665
2.59542
2.65128
2.70759
2.76134
2.80465
2.83555
2.88747
2.92219
2.96487
3.01315
3.04182
3.06255
3.07825
3.08413
3.08003
3.08005
3.08175
3.0629
3.04641
3.0226
3.01156
2.98715
2.96837
2.94802
2.9336
2.92657
2.921
2.92287
2.93321
2.94714
2.95924
2.97144
2.98842
3.01091
3.04294
3.08541
3.12436
3.14728
3.15215
3.13487
3.10432
3.0689
3.04439
3.03847
0.996701
0.996799
0.996627
0.996336
0.995874
0.995316
0.994581
0.99362
0.992575
0.99136
0.989805
0.988166
0.986406
0.984175
0.981902
0.979543
0.976651
0.973544
0.97058
0.967394
0.963414
0.959362
0.955484
0.950949
0.945872
0.940619
0.936922
0.932397
0.926088
0.914922
0.907168
0.90047
0.893523
0.88981
0.884138
0.877018
0.8674
0.865604
0.874123
0.96333
1.29734
2.14976
2.22369
2.21916
2.21352
2.23157
2.30153
2.37945
2.51821
2.52589
2.5389
2.49637
2.4721
2.44734
2.42065
2.39753
2.39139
2.38237
2.36204
2.375
2.38125
2.36183
2.39119
2.39985
2.39869
2.44004
2.45771
2.46645
2.51478
2.55638
2.58188
2.63539
2.70121
2.75256
2.79882
2.83585
2.89123
2.93464
2.98273
3.02754
3.05533
3.08043
3.09381
3.10088
3.10611
3.10946
3.11618
3.11352
3.10757
3.09452
3.07836
3.07253
3.05488
3.04141
3.01875
3.0007
2.97815
2.95796
2.9399
2.92966
2.9195
2.91603
2.92293
2.93339
2.94556
2.95567
2.96393
2.98107
3.00685
3.04124
3.07738
3.11067
3.13599
3.14082
3.12803
3.0964
3.06338
3.04328
3.03927
0.99674
0.996839
0.996664
0.996381
0.995927
0.995355
0.994648
0.993702
0.992623
0.991453
0.989911
0.98823
0.986474
0.984364
0.981928
0.979551
0.976866
0.973515
0.970399
0.967253
0.963566
0.958733
0.954413
0.95044
0.946097
0.939826
0.934502
0.930775
0.925214
0.914511
0.906536
0.900179
0.894025
0.889367
0.885969
0.881593
0.874809
0.872018
0.87679
0.98208
1.57395
2.29313
2.26948
2.24825
2.23998
2.23357
2.24819
2.29921
2.40711
2.47308
2.55199
2.50254
2.49625
2.46491
2.45049
2.40921
2.41993
2.42586
2.38841
2.42946
2.4467
2.42927
2.48682
2.51704
2.5387
2.57875
2.62499
2.65522
2.69937
2.76404
2.80957
2.85886
2.91983
2.96784
3.01515
3.04933
3.08133
3.103
3.11307
3.11941
3.12507
3.13201
3.1348
3.13275
3.1311
3.12804
3.11676
3.10754
3.09911
3.09445
3.07929
3.06799
3.04948
3.03372
3.01355
2.99538
2.97194
2.95311
2.93914
2.92694
2.91646
2.91502
2.92147
2.9314
2.94227
2.95322
2.96238
2.97758
3.00279
3.03363
3.06577
3.09759
3.12137
3.13163
3.12175
3.0886
3.0579
3.04305
3.04032
0.996783
0.996881
0.996706
0.99643
0.995986
0.995401
0.99472
0.993787
0.992696
0.99154
0.990043
0.988307
0.986584
0.984549
0.982011
0.979596
0.977049
0.973536
0.970252
0.967219
0.963553
0.958205
0.953656
0.950163
0.945987
0.938938
0.932924
0.928536
0.923209
0.915797
0.906379
0.900008
0.895046
0.88994
0.887662
0.883282
0.875595
0.864253
0.861919
0.913126
1.93636
2.30595
2.30686
2.28635
2.27047
2.25803
2.25109
2.2443
2.31199
2.35144
2.47522
2.49288
2.53475
2.47566
2.50097
2.41776
2.46442
2.49519
2.46479
2.52595
2.57266
2.56992
2.63208
2.68828
2.72975
2.77611
2.8212
2.87209
2.91552
2.96876
3.01597
3.05187
3.08314
3.09975
3.1147
3.12544
3.13645
3.14129
3.14067
3.14264
3.14144
3.14262
3.13528
3.12871
3.12508
3.12451
3.11724
3.1086
3.09761
3.091
3.07523
3.06181
3.0436
3.03028
3.01171
2.99316
2.9714
2.95449
2.93837
2.92285
2.91429
2.91459
2.91924
2.92801
2.93802
2.94975
2.96277
2.97793
2.99772
3.02482
3.05507
3.08388
3.10757
3.12075
3.11201
3.08078
3.05363
3.04117
3.03894
0.996831
0.996928
0.996752
0.996482
0.99605
0.995459
0.994791
0.993888
0.992777
0.991635
0.990187
0.988406
0.986686
0.984708
0.982099
0.979672
0.977153
0.973625
0.970186
0.967129
0.963414
0.957945
0.953244
0.949645
0.945377
0.938843
0.931714
0.925975
0.92217
0.916512
0.907162
0.900335
0.895557
0.89137
0.888753
0.886438
0.883947
0.879891
0.915536
1.04847
2.10976
2.32084
2.32158
2.31272
2.29355
2.27579
2.26223
2.256
2.26013
2.25795
2.38516
2.4447
2.54286
2.51147
2.56859
2.50774
2.56548
2.61151
2.60903
2.67176
2.73884
2.77802
2.82896
2.89399
2.93769
2.97822
3.01454
3.05062
3.07319
3.09144
3.10659
3.11784
3.12566
3.13144
3.13946
3.14443
3.14316
3.14247
3.13763
3.13675
3.13538
3.13559
3.13413
3.1292
3.12344
3.1193
3.11163
3.10412
3.09298
3.08607
3.07181
3.05832
3.04145
3.02809
3.00994
2.99257
2.97242
2.9542
2.93559
2.9207
2.91368
2.91364
2.91772
2.92509
2.93446
2.94644
2.96044
2.97631
2.99354
3.01608
3.04292
3.07107
3.09673
3.10847
3.10042
3.07316
3.05065
3.04031
3.03894
0.996882
0.996978
0.996804
0.996539
0.99612
0.995528
0.994866
0.993999
0.992876
0.991722
0.990341
0.98856
0.986785
0.984854
0.982259
0.97974
0.977148
0.973842
0.970238
0.966959
0.963258
0.957889
0.95305
0.948949
0.944724
0.938911
0.930677
0.924514
0.920314
0.915634
0.909811
0.90023
0.895392
0.892124
0.889494
0.888438
0.890323
0.896954
0.97865
1.33754
2.27201
2.34413
2.33461
2.32051
2.30732
2.2936
2.28369
2.2738
2.26491
2.26873
2.31841
2.43031
2.50817
2.58416
2.64253
2.65146
2.71444
2.78366
2.82091
2.88679
2.9437
2.99463
3.02838
3.05871
3.07848
3.09025
3.10041
3.11147
3.11807
3.12463
3.12985
3.13153
3.13455
3.13286
3.13378
3.13296
3.13158
3.13387
3.13504
3.13314
3.13191
3.12878
3.12676
3.1236
3.11678
3.1142
3.10686
3.10065
3.09016
3.08151
3.06768
3.05606
3.04055
3.02606
3.00733
2.99064
2.97108
2.95312
2.93384
2.91998
2.91363
2.91241
2.91621
2.92222
2.93118
2.94288
2.95656
2.97345
2.9908
3.01005
3.03433
3.06136
3.08587
3.09736
3.08864
3.06685
3.04794
3.03916
3.03888
0.996938
0.997033
0.996862
0.9966
0.996195
0.995608
0.994943
0.994115
0.99301
0.991815
0.990497
0.988738
0.986918
0.984985
0.982504
0.979834
0.9772
0.974117
0.970343
0.966778
0.963012
0.9581
0.952962
0.948209
0.944346
0.938736
0.929891
0.923614
0.91843
0.915355
0.910894
0.901342
0.89446
0.891009
0.88852
0.886889
0.890185
0.898984
0.999198
1.64492
2.31732
2.33989
2.33216
2.33005
2.32667
2.32264
2.31917
2.31103
2.31242
2.30932
2.35587
2.5405
2.60731
2.74992
2.83218
2.8846
2.9345
2.98003
3.02051
3.05249
3.08016
3.10043
3.10919
3.11387
3.11806
3.12187
3.12517
3.1278
3.12859
3.12439
3.12332
3.12257
3.12611
3.12721
3.12597
3.12642
3.12461
3.12494
3.1266
3.12704
3.12543
3.12369
3.12012
3.1175
3.11098
3.10609
3.09805
3.09202
3.08232
3.07406
3.06166
3.05185
3.0377
3.02442
3.00642
2.99003
2.96982
2.95117
2.93317
2.92028
2.91281
2.91123
2.91472
2.92085
2.92997
2.94099
2.95326
2.96913
2.98663
3.00696
3.02986
3.05216
3.07252
3.08424
3.07975
3.06255
3.04607
3.03891
3.03931
0.996999
0.997092
0.996927
0.996666
0.996277
0.995705
0.995023
0.994239
0.99315
0.991946
0.990663
0.988942
0.987075
0.985151
0.982827
0.980026
0.977295
0.974391
0.970492
0.966651
0.962949
0.958453
0.952881
0.947604
0.943896
0.938493
0.929672
0.92285
0.917046
0.914502
0.909744
0.903653
0.893623
0.888505
0.88408
0.878358
0.875749
0.879901
0.969318
1.85177
2.36778
2.365
2.36058
2.35474
2.35112
2.34564
2.34028
2.35636
2.36639
2.38049
2.47646
2.66391
2.79628
2.95577
3.03144
3.06227
3.08037
3.09432
3.10648
3.11512
3.12309
3.1299
3.13183
3.12935
3.12465
3.12176
3.11777
3.12037
3.12196
3.12202
3.11936
3.11757
3.11759
3.11664
3.11554
3.11546
3.11593
3.11574
3.11755
3.1173
3.11539
3.11281
3.10923
3.10684
3.10152
3.09596
3.08883
3.08432
3.07576
3.0692
3.05853
3.04964
3.03599
3.02306
3.00454
2.98815
2.96793
2.94881
2.93232
2.9195
2.91066
2.90742
2.91063
2.91916
2.92804
2.9375
2.94841
2.96286
2.98134
3.00115
3.02234
3.04298
3.06169
3.07424
3.07463
3.05966
3.04402
3.03829
3.03974
0.997065
0.997157
0.997
0.996736
0.996365
0.995811
0.995124
0.994367
0.993303
0.992095
0.990831
0.989183
0.987258
0.985392
0.983129
0.980228
0.977519
0.974685
0.970763
0.966701
0.962971
0.958814
0.952889
0.947435
0.942931
0.937698
0.930605
0.922513
0.916437
0.912166
0.908518
0.903943
0.893299
0.88602
0.879762
0.869923
0.85902
0.865967
0.953576
2.02037
2.35659
2.37208
2.37812
2.37725
2.37494
2.37193
2.37274
2.41228
2.42772
2.51992
2.63336
2.83357
3.0129
3.10576
3.12125
3.12403
3.12491
3.12874
3.13103
3.13249
3.1299
3.12837
3.12392
3.12375
3.11973
3.11898
3.11281
3.11161
3.11074
3.11075
3.10907
3.10718
3.10519
3.10429
3.10327
3.10392
3.10675
3.10698
3.10828
3.10794
3.10629
3.10438
3.10165
3.09909
3.09479
3.08855
3.08225
3.07859
3.06996
3.06452
3.05393
3.04479
3.03061
3.01825
3.00072
2.98589
2.96692
2.9489
2.9334
2.91955
2.9101
2.90572
2.90989
2.91953
2.92759
2.93585
2.94466
2.95738
2.9752
2.99409
3.01387
3.03326
3.04988
3.06356
3.06659
3.05472
3.04221
3.0391
3.04196
0.997136
0.997228
0.997078
0.996815
0.99646
0.995924
0.995241
0.994494
0.993488
0.992256
0.991017
0.989449
0.987504
0.985622
0.983442
0.980514
0.977774
0.974931
0.971145
0.966882
0.963065
0.959014
0.953339
0.947362
0.941961
0.937576
0.93147
0.922091
0.915382
0.90917
0.906401
0.901014
0.89551
0.884902
0.878926
0.874698
0.868929
0.922179
1.11447
2.19097
2.3587
2.3716
2.37917
2.38173
2.38471
2.39125
2.40395
2.48254
2.50632
2.7155
2.85336
3.04701
3.12514
3.144
3.13729
3.13248
3.12792
3.12639
3.12542
3.12571
3.12508
3.12388
3.11857
3.11584
3.11074
3.10944
3.1041
3.10075
3.09845
3.09982
3.10031
3.10081
3.09838
3.09683
3.09479
3.09484
3.09919
3.09961
3.10038
3.09909
3.09746
3.09539
3.09349
3.09038
3.08763
3.08106
3.07425
3.07129
3.06249
3.05874
3.04936
3.04111
3.02773
3.0168
2.99941
2.98336
2.96342
2.94621
2.9308
2.9157
2.90479
2.89951
2.90376
2.9135
2.92216
2.92999
2.93979
2.95226
2.96861
2.98645
3.00485
3.02385
3.04155
3.05643
3.06123
3.05265
3.04171
3.03905
3.04134
0.997214
0.997305
0.997163
0.996903
0.99656
0.996049
0.995369
0.994637
0.99369
0.992451
0.991211
0.989741
0.987811
0.985877
0.983779
0.980915
0.978057
0.975214
0.971612
0.967205
0.9632
0.95917
0.953961
0.94739
0.941258
0.937347
0.931543
0.922764
0.914047
0.907271
0.901631
0.898572
0.892707
0.886332
0.879929
0.879573
0.88244
0.980867
1.41613
2.31281
2.36239
2.36704
2.37347
2.3792
2.39505
2.42726
2.45392
2.61099
2.66785
2.89862
3.07216
3.13118
3.14488
3.13164
3.1224
3.11144
3.10705
3.10671
3.1069
3.10698
3.10655
3.10738
3.10533
3.10547
3.1035
3.10341
3.10079
3.09685
3.09285
3.09192
3.08979
3.08983
3.08595
3.08338
3.08018
3.07924
3.08401
3.08554
3.0877
3.08802
3.0881
3.0873
3.08813
3.08512
3.08407
3.07715
3.0695
3.06619
3.0573
3.05442
3.0446
3.03573
3.02185
3.01116
2.99436
2.97879
2.96137
2.94666
2.93149
2.91687
2.90559
2.8998
2.90221
2.91084
2.91992
2.92753
2.9382
2.95089
2.96415
2.97919
2.99555
3.01381
3.03183
3.04583
3.05132
3.04531
3.03794
3.03825
3.04204
0.997298
0.997388
0.997254
0.996999
0.996669
0.996185
0.995512
0.994798
0.993903
0.992689
0.991435
0.990048
0.988145
0.986196
0.98413
0.981428
0.978446
0.975582
0.972206
0.96768
0.963398
0.959554
0.954565
0.94757
0.941364
0.936145
0.931123
0.924222
0.912887
0.904783
0.897857
0.893425
0.889313
0.882755
0.876836
0.872948
0.876365
0.993129
1.66255
2.38027
2.36786
2.37027
2.37353
2.39186
2.41266
2.50735
2.55084
2.76915
2.92539
3.09093
3.14222
3.14051
3.12709
3.1159
3.10429
3.09477
3.09015
3.08985
3.09067
3.09138
3.09138
3.09239
3.09145
3.09181
3.09109
3.09139
3.09127
3.08846
3.08388
3.08242
3.07973
3.08019
3.07623
3.07289
3.07002
3.06795
3.07113
3.07375
3.07604
3.07825
3.08002
3.07916
3.0806
3.07658
3.07471
3.06745
3.05961
3.05646
3.04877
3.04687
3.03772
3.03124
3.01914
3.00916
2.99202
2.97446
2.95563
2.94007
2.92387
2.91032
2.90032
2.89516
2.89432
2.90155
2.91007
2.91986
2.93207
2.94638
2.96111
2.97529
2.99072
3.00808
3.02562
3.03942
3.04622
3.04195
3.03614
3.0381
3.04144
0.99739
0.997478
0.997352
0.997106
0.996788
0.996331
0.995681
0.994969
0.994129
0.992944
0.991707
0.990379
0.988518
0.98657
0.984556
0.982028
0.978966
0.97605
0.972888
0.968352
0.963901
0.95988
0.955246
0.948159
0.941664
0.935306
0.930991
0.924495
0.912613
0.902665
0.894449
0.8862
0.883084
0.875766
0.867626
0.8513
0.848586
0.927552
1.95021
2.3677
2.36871
2.36658
2.37193
2.41675
2.47165
2.6538
2.76416
2.96629
3.10083
3.14148
3.13348
3.12631
3.11337
3.09921
3.08852
3.08031
3.0759
3.07528
3.07634
3.07749
3.07817
3.07992
3.07998
3.08003
3.07957
3.07866
3.07904
3.0775
3.07359
3.07177
3.06887
3.06915
3.06665
3.0617
3.05853
3.05326
3.05283
3.05583
3.05808
3.06235
3.06721
3.06884
3.07299
3.07123
3.06957
3.06393
3.05638
3.05136
3.04363
3.04101
3.03129
3.02461
3.01155
3.00016
2.98317
2.96871
2.95352
2.93958
2.92413
2.91192
2.90406
2.89742
2.89426
2.89744
2.90523
2.91673
2.92998
2.94385
2.95872
2.97335
2.98767
3.00228
3.01643
3.02772
3.03406
3.03214
3.02971
3.03496
3.04088
0.99749
0.997576
0.997459
0.997224
0.996917
0.996489
0.995867
0.995164
0.994371
0.993228
0.992012
0.990724
0.988966
0.986999
0.985079
0.982671
0.979577
0.976663
0.973554
0.969344
0.964637
0.960344
0.955718
0.949518
0.942225
0.935025
0.930283
0.923407
0.914152
0.900914
0.890192
0.880455
0.871595
0.866879
0.8578
0.836516
0.878713
1.0088
2.08959
2.34273
2.35757
2.36876
2.40851
2.51536
2.61833
2.82704
2.9989
3.11248
3.14352
3.12923
3.12345
3.11008
3.09685
3.08546
3.07619
3.06939
3.06545
3.06452
3.06495
3.06569
3.0664
3.06762
3.06872
3.0685
3.06889
3.06763
3.06728
3.06667
3.06454
3.06251
3.05939
3.05817
3.0568
3.05203
3.05032
3.04379
3.03984
3.04256
3.04497
3.05137
3.05781
3.05981
3.06417
3.06206
3.05966
3.05419
3.04673
3.04167
3.03427
3.03201
3.02358
3.01891
3.00816
2.99935
2.9832
2.96852
2.94871