/*--------------------------------*- C++ -*----------------------------------*\
| =========                 |                                                 |
| \\      /  F ield         | OpenFOAM: The Open Source CFD Toolbox           |
|  \\    /   O peration     | Version:  2.2.x                                 |
|   \\  /    A nd           | Web:      www.OpenFOAM.org                      |
|    \\/     M anipulation  |                                                 |
\*---------------------------------------------------------------------------*/
FoamFile
{
    version     2.0;
    format      ascii;
    class       volScalarField;
    location    "0.12";
    object      T;
}
// * * * * * * * * * * * * * * * * * * * * * * * * * * * * * * * * * * * * * //

dimensions      [0 0 0 1 0 0 0];

internalField   nonuniform List<scalar> 
1024
(
0.5
0.5
0.5
0.5
0.5
0.5
0.5
0.5
0.5
0.5
0.5
0.5
0.5
0.5
0.5
0.5
0.5
0.5
0.5
0.5
0.5
0.5
0.5
0.5
0.5
0.5
0.5
0.5
0.5
0.5
0.5
0.5
0.5
0.5
0.5
0.5
0.5
0.5
0.5
0.5
0.5
0.5
0.5
0.5
0.5
0.5
0.5
0.5
0.5
0.5
0.5
0.5
0.5
0.5
0.5
0.5
0.5
0.5
0.5
0.5
0.5
0.5
0.5
0.5
0.5
0.5
0.5
0.5
0.5
0.5
0.5
0.5
0.5
0.5
0.5
0.5
0.5
0.5
0.5
0.5
0.5
0.5
0.5
0.5
0.5
0.5
0.5
0.5
0.5
0.5
0.5
0.5
0.5
0.5
0.5
0.5
0.5
0.5
0.5
0.5
0.5
0.5
0.5
0.5
0.5
0.5
0.5
0.5
0.5
0.5
0.5
0.5
0.5
0.5
0.5
0.5
0.5
0.5
0.5
0.5
0.5
0.5
0.5
0.5
0.5
0.5
0.5
0.5
0.5
0.5
0.5
0.5
0.5
0.5
0.5
0.5
0.5
0.5
0.5
0.5
0.5
0.5
0.5
0.5
0.5
0.5
0.5
0.5
0.5
0.5
0.5
0.5
0.5
0.5
0.5
0.5
0.5
0.5
0.5
0.5
0.5
0.5
0.5
0.5
0.5
0.5
0.5
0.5
0.5
0.5
0.5
0.5
0.5
0.5
0.5
0.5
0.5
0.5
0.5
0.5
0.5
0.5
0.5
0.5
0.5
0.5
0.5
0.5
0.5
0.5
0.5
0.5
0.5
0.5
0.5
0.5
0.5
0.5
0.5
0.5
0.5
0.5
0.5
0.5
0.5
0.5
0.5
0.5
0.5
0.5
0.5
0.5
0.5
0.5
0.5
0.5
0.5
0.5
0.5
0.5
0.5
0.5
0.5
0.500001
0.500003
0.500009
0.500029
0.500088
0.500272
0.50084
0.502581
0.507827
0.522574
0.554084
0.580491
0.594032
0.600334
0.603105
0.604311
0.604828
0.605054
0.605166
0.605205
0.605222
0.605229
0.605231
0.605231
0.605229
0.605217
0.605204
0.605196
0.605192
0.60519
0.605187
0.605184
0.605182
0.605183
0.605189
0.605192
0.605194
0.605193
0.605192
0.605193
0.605196
0.6052
0.605201
0.605202
0.605201
0.605202
0.605204
0.605207
0.605208
0.605202
0.605197
0.605192
0.605189
0.605188
0.605189
0.60519
0.605188
0.605192
0.605194
0.605199
0.605203
0.605205
0.605207
0.605206
0.605205
0.605205
0.605205
0.605207
0.605206
0.605207
0.605207
0.605207
0.605204
0.605205
0.605202
0.605201
0.6052
0.6052
0.605199
0.605199
0.605203
0.605207
0.605213
0.605217
0.605221
0.605223
0.605223
0.605224
0.605224
0.605223
0.605221
0.605215
0.605214
0.605212
0.605213
0.605214
0.605215
0.605217
0.605216
0.605217
0.605218
0.605218
0.605219
0.605222
0.605224
0.605228
0.605231
0.605234
0.605237
0.60524
0.605242
0.605241
0.605241
0.605239
0.605237
0.605235
0.605233
0.605232
0.605231
0.60523
0.605231
0.605231
0.605232
0.605231
0.605232
0.605232
0.605231
0.605231
0.605232
0.605235
0.605237
0.605239
0.605241
0.605241
0.60524
0.605239
0.605236
0.605232
0.605226
0.605219
0.605214
0.60521
0.605207
0.605206
0.605206
0.605206
0.605207
0.605209
0.605214
0.60522
0.605226
0.605228
0.605229
0.605228
0.605224
0.605236
0.605216
0.605281
0.605212
0.605373
0.605352
0.605544
0.605619
0.605694
0.605674
0.605805
0.605688
0.606092
0.605695
0.606563
0.606019
0.607346
0.607039
0.608666
0.609341
0.614318
0.619034
0.630832
0.638576
0.644997
0.649549
0.651053
0.652912
0.654434
0.655027
0.654961
0.655247
0.655635
0.655798
0.655802
0.655843
0.655941
0.656018
0.656073
0.656078
0.656112
0.656154
0.656199
0.656243
0.656308
0.656402
0.656528
0.656641
0.656795
0.656983
0.65725
0.657488
0.657637
0.657707
0.657764
0.657746
0.657591
0.657095
0.656031
0.654015
0.650801
0.645937
0.638986
0.629715
0.620581
0.61307
0.607083
0.602463
0.598995
0.596464
0.594673
0.59344
0.592608
0.592059
0.591722
0.591498
0.591329
0.591222
0.591155
0.591124
0.591092
0.591057
0.591035
0.591063
0.591095
0.591188
0.591346
0.591463
0.591558
0.591595
0.591537
0.591494
0.591486
0.591822
0.592286
0.59244
0.592232
0.590657
0.589186
0.589229
0.588873
0.582752
0.573844
0.566577
0.56111
0.557733
0.556023
0.55587
0.556474
0.556996
0.557146
0.558188
0.558865
0.55506
0.551414
0.552771
0.560294
0.551083
0.556513
0.55336
0.557267
0.554244
0.55647
0.554951
0.555775
0.555291
0.555618
0.555435
0.555555
0.555489
0.555542
0.555518
0.555539
0.555525
0.555533
0.555518
0.555527
0.55551
0.555517
0.555499
0.55549
0.555472
0.555469
0.555453
0.555476
0.555464
0.555488
0.555505
0.555518
0.555517
0.555526
0.555511
0.555518
0.555502
0.555492
0.555484
0.555479
0.555482
0.555482
0.555488
0.55549
0.555496
0.55549
0.555494
0.555486
0.555481
0.555475
0.55548
0.555474
0.555486
0.555479
0.555498
0.555498
0.555517
0.555531
0.55554
0.555542
0.555547
0.555541
0.555545
0.555535
0.555535
0.555526
0.555519
0.555515
0.555518
0.555515
0.555525
0.555523
0.555533
0.555539
0.555547
0.555549
0.555551
0.555546
0.555547
0.555538
0.555542
0.555534
0.55553
0.555526
0.555525
0.555523
0.555527
0.555524
0.55553
0.555526
0.555533
0.555537
0.555542
0.555544
0.555547
0.555546
0.555549
0.555544
0.555544
0.55554
0.555537
0.555534
0.555532
0.555532
0.555532
0.555533
0.555534
0.555536
0.555537
0.555537
0.555538
0.555538
0.555537
0.555534
0.555528
0.555523
0.55552
0.55552
0.555515
0.555523
0.555517
0.555524
0.55546
0.555574
0.555408
0.555561
0.555125
0.556653
0.553387
0.557429
0.551091
0.566713
0.525722
0.56978
0.502066
0.477354
0.444024
0.440381
0.439879
0.439823
0.439816
0.439815
0.439815
0.439815
0.439815
0.439815
0.439815
0.439815
0.439815
0.439815
0.439815
0.439815
0.439815
0.439815
0.439815
0.439815
0.439815
0.439815
0.439815
0.439815
0.439815
0.439815
0.439815
0.439815
0.439815
0.439815
0.439815
0.439815
0.439815
0.439815
0.439815
0.439815
0.439815
0.439815
0.439815
0.439815
0.439815
0.439815
0.439815
0.439815
0.439815
0.439815
0.439815
0.439815
0.439815
0.439815
0.439815
0.439815
0.439815
0.439815
0.439815
0.439815
0.439815
0.439815
0.439815
0.439815
0.439815
0.439815
0.439815
0.439815
0.439815
0.439815
0.439815
0.439815
0.439815
0.439815
0.439815
0.439815
0.439815
0.439815
0.439815
0.439815
0.439815
0.439815
0.439815
0.439815
0.439815
0.439815
0.439815
0.439815
0.439815
0.439815
0.439815
0.439815
0.439815
0.439815
0.439815
0.439815
0.439815
0.439815
0.439815
0.439815
0.439815
0.439815
0.439815
0.439815
0.439815
0.439815
0.439815
0.439815
0.439815
0.439815
0.439815
0.439815
0.439815
0.439815
0.439815
0.439815
0.439815
0.439815
0.439815
0.439815
0.439815
0.439815
0.439815
0.439815
0.439815
0.439815
0.439815
0.439815
0.439815
0.439815
0.439815
0.439815
0.439815
0.439815
0.439815
0.439815
0.439815
0.439815
0.439815
0.439815
0.439815
0.439815
0.439815
0.439815
0.439815
0.439815
0.439815
0.439815
0.439815
0.439815
0.439815
0.439815
0.439815
0.439815
0.439815
0.439815
0.439815
0.439815
0.439815
0.439815
0.439815
0.439815
0.439815
0.439815
0.439815
0.439815
0.439815
0.439815
0.439815
0.439815
0.439815
0.439815
0.439815
0.439815
0.439815
0.439815
0.439815
0.439815
0.439815
0.439815
0.439815
0.439815
0.439815
0.439815
0.439815
0.439815
0.439815
0.439815
0.439815
0.439815
0.439815
0.439815
0.439815
0.439815
0.439815
0.439815
0.439815
0.439815
0.439815
0.439815
0.439815
0.439815
0.439815
0.439815
0.439815
0.439815
0.439815
0.439815
0.439815
0.439815
0.439815
0.439815
0.439815
0.439815
0.439815
0.439815
0.439815
0.439815
0.439815
0.439815
0.439815
0.439815
0.439815
0.439815
0.439815
0.439815
0.439815
0.439815
0.439815
0.439815
0.439815
0.439815
0.439815
0.439815
0.439815
0.439815
0.439815
0.439815
0.439815
0.439815
0.439815
0.439815
0.439815
0.439815
0.439815
0.439815
0.439815
0.439815
0.439815
0.439815
0.439815
0.439815
0.439815
0.439815
0.439815
0.439815
0.439815
0.439815
0.439815
0.439815
0.439815
0.439815
0.439815
0.439815
0.439815
0.439815
0.439815
0.439815
0.439815
0.439815
0.439815
0.439815
0.439815
0.439815
0.439815
0.439815
0.439815
0.439815
0.439815
0.439815
0.439815
0.439815
0.439815
0.439815
0.439815
0.439815
0.439815
0.439815
0.439815
0.439815
0.439815
0.439815
0.439815
0.439815
0.439815
0.439815
0.439815
0.439815
0.439815
0.439815
0.439815
0.439815
0.439815
0.439815
0.439815
0.439815
0.439815
0.439815
0.439815
0.439815
0.439815
0.439815
0.439815
0.439815
0.439815
0.439815
0.439815
0.439815
0.439815
0.439815
0.439815
0.439815
0.439815
0.439815
0.439815
0.439815
0.439815
0.439815
0.439815
0.439815
0.439815
0.439815
0.439815
0.439815
0.439815
0.439815
0.439815
0.439815
0.439815
0.439815
0.439815
0.439815
0.439815
0.439815
0.439815
0.439815
0.439815
0.439815
0.439815
0.439815
0.439815
0.439815
0.439815
0.439815
0.439815
0.439815
0.439815
0.439815
0.439815
0.439815
0.439815
0.439815
0.439815
0.439815
0.439815
0.439815
0.439815
0.439815
0.439815
0.439815
0.439815
0.439815
0.439815
0.439815
0.439815
0.439815
0.439815
0.439815
0.439815
0.439815
0.439815
0.439815
0.439815
0.439815
0.439815
0.439815
0.439815
0.439815
0.439815
0.439815
0.439815
0.439815
0.439815
0.439815
0.439815
0.439815
0.439815
)
;

boundaryField
{
    front-back
    {
        type            empty;
    }
    inlet-outlet
    {
        type            zeroGradient;
    }
    top-down
    {
        type            empty;
    }
}


// ************************************************************************* //
