/*--------------------------------*- C++ -*----------------------------------*\
| =========                 |                                                 |
| \\      /  F ield         | OpenFOAM: The Open Source CFD Toolbox           |
|  \\    /   O peration     | Version:  2.2.x                                 |
|   \\  /    A nd           | Web:      www.OpenFOAM.org                      |
|    \\/     M anipulation  |                                                 |
\*---------------------------------------------------------------------------*/
FoamFile
{
    version     2.0;
    format      ascii;
    class       volVectorField;
    location    "0.12";
    object      U;
}
// * * * * * * * * * * * * * * * * * * * * * * * * * * * * * * * * * * * * * //

dimensions      [0 1 -1 0 0 0 0];

internalField   nonuniform List<vector> 
1024
(
(0 0 0)
(0 0 0)
(0 0 0)
(0 0 0)
(0 0 0)
(0 0 0)
(0 0 0)
(0 0 0)
(0 0 0)
(0 0 0)
(0 0 0)
(0 0 0)
(0 0 0)
(0 0 0)
(0 0 0)
(0 0 0)
(0 0 0)
(0 0 0)
(0 0 0)
(0 0 0)
(0 0 0)
(0 0 0)
(0 0 0)
(0 0 0)
(0 0 0)
(0 0 0)
(0 0 0)
(0 0 0)
(0 0 0)
(0 0 0)
(0 0 0)
(0 0 0)
(0 0 0)
(0 0 0)
(0 0 0)
(0 0 0)
(0 0 0)
(0 0 0)
(0 0 0)
(0 0 0)
(0 0 0)
(0 0 0)
(0 0 0)
(0 0 0)
(0 0 0)
(0 0 0)
(0 0 0)
(0 0 0)
(0 0 0)
(0 0 0)
(0 0 0)
(0 0 0)
(0 0 0)
(0 0 0)
(0 0 0)
(0 0 0)
(0 0 0)
(0 0 0)
(0 0 0)
(0 0 0)
(0 0 0)
(0 0 0)
(0 0 0)
(0 0 0)
(0 0 0)
(0 0 0)
(0 0 0)
(0 0 0)
(0 0 0)
(0 0 0)
(0 0 0)
(0 0 0)
(0 0 0)
(0 0 0)
(0 0 0)
(0 0 0)
(0 0 0)
(0 0 0)
(0 0 0)
(0 0 0)
(0 0 0)
(0 0 0)
(0 0 0)
(0 0 0)
(0 0 0)
(0 0 0)
(0 0 0)
(0 0 0)
(0 0 0)
(0 0 0)
(0 0 0)
(0 0 0)
(0 0 0)
(0 0 0)
(0 0 0)
(0 0 0)
(0 0 0)
(0 0 0)
(0 0 0)
(0 0 0)
(0 0 0)
(0 0 0)
(0 0 0)
(0 0 0)
(0 0 0)
(0 0 0)
(0 0 0)
(0 0 0)
(0 0 0)
(0 0 0)
(0 0 0)
(0 0 0)
(0 0 0)
(0 0 0)
(0 0 0)
(0 0 0)
(0 0 0)
(0 0 0)
(0 0 0)
(0 0 0)
(0 0 0)
(0 0 0)
(0 0 0)
(0 0 0)
(0 0 0)
(0 0 0)
(0 0 0)
(0 0 0)
(0 0 0)
(0 0 0)
(0 0 0)
(0 0 0)
(0 0 0)
(0 0 0)
(0 0 0)
(0 0 0)
(0 0 0)
(0 0 0)
(0 0 0)
(0 0 0)
(0 0 0)
(0 0 0)
(0 0 0)
(0 0 0)
(0 0 0)
(0 0 0)
(0 0 0)
(0 0 0)
(0 0 0)
(0 0 0)
(0 0 0)
(0 0 0)
(0 0 0)
(0 0 0)
(0 0 0)
(0 0 0)
(0 0 0)
(0 0 0)
(0 0 0)
(0 0 0)
(0 0 0)
(0 0 0)
(0 0 0)
(0 0 0)
(0 0 0)
(0 0 0)
(0 0 0)
(0 0 0)
(0 0 0)
(0 0 0)
(0 0 0)
(0 0 0)
(0 0 0)
(0 0 0)
(0 0 0)
(0 0 0)
(0 0 0)
(0 0 0)
(0 0 0)
(0 0 0)
(0 0 0)
(0 0 0)
(0 0 0)
(0 0 0)
(0 0 0)
(0 0 0)
(0 0 0)
(0 0 0)
(0 0 0)
(0 0 0)
(0 0 0)
(0 0 0)
(0 0 0)
(0 0 0)
(0 0 0)
(0 0 0)
(0 0 0)
(0 0 0)
(0 0 0)
(0 0 0)
(0 0 0)
(0 0 0)
(9.55352e-17 7.64281e-17 3.82141e-17)
(7.64281e-16 -2.77467e-30 -1.38733e-30)
(2.67498e-15 -3.72587e-16 -1.86294e-16)
(8.10138e-15 -1.6432e-15 -8.21602e-16)
(2.52404e-14 -4.92961e-15 -2.46481e-15)
(7.83962e-14 -1.63079e-14 -8.15393e-15)
(2.41952e-13 -4.96687e-14 -2.48344e-14)
(7.4718e-13 -1.52742e-13 -7.63708e-14)
(2.30826e-12 -4.74208e-13 -2.37104e-13)
(7.13057e-12 -1.46402e-12 -7.32009e-13)
(2.20255e-11 -4.51708e-12 -2.25854e-12)
(6.80291e-11 -1.3956e-11 -6.97798e-12)
(2.1012e-10 -4.31057e-11 -2.15528e-11)
(6.48982e-10 -1.33142e-10 -6.6571e-11)
(2.00446e-09 -4.11218e-10 -2.05609e-10)
(6.19102e-09 -1.2701e-09 -6.35051e-10)
(1.91218e-08 -3.92289e-09 -1.96144e-09)
(5.90612e-08 -1.21165e-08 -6.05826e-09)
(1.82424e-07 -3.74246e-08 -1.87123e-08)
(5.63469e-07 -1.15597e-07 -5.77984e-08)
(1.74048e-06 -3.57063e-07 -1.78532e-07)
(5.37628e-06 -1.10295e-06 -5.51475e-07)
(1.66075e-05 -3.40704e-06 -1.70352e-06)
(5.1302e-05 -1.05244e-05 -5.2622e-06)
(0.00015847 -3.25074e-05 -1.62537e-05)
(0.00048941 -0.000100374 -5.01869e-05)
(0.00151035 -0.000309569 -0.000154785)
(0.00465002 -0.000951298 -0.000475649)
(0.0142113 -0.00289121 -0.0014456)
(0.0424576 -0.00850869 -0.00425434)
(0.118614 -0.0230584 -0.0115292)
(0.277749 -0.0517824 -0.0258912)
(0.408296 -0.0740272 -0.0370136)
(0.477153 -0.08535 -0.042675)
(0.50922 -0.0905467 -0.0452733)
(0.523536 -0.092857 -0.0464285)
(0.529749 -0.0938574 -0.0469287)
(0.532471 -0.0942863 -0.0471431)
(0.533668 -0.0944654 -0.0472327)
(0.534139 -0.0945315 -0.0472657)
(0.534383 -0.094577 -0.0472885)
(0.534444 -0.0946009 -0.0473004)
(0.534441 -0.0946053 -0.0473026)
(0.534439 -0.0946011 -0.0473005)
(0.534441 -0.0945961 -0.0472981)
(0.534434 -0.0945914 -0.0472957)
(0.534414 -0.0945863 -0.0472932)
(0.534391 -0.0945856 -0.0472928)
(0.534367 -0.0945878 -0.0472939)
(0.534347 -0.0945902 -0.0472951)
(0.534334 -0.0945858 -0.0472929)
(0.534328 -0.0945859 -0.0472929)
(0.534322 -0.0945758 -0.0472879)
(0.534307 -0.0945718 -0.0472859)
(0.534289 -0.0945728 -0.0472864)
(0.534274 -0.0945765 -0.0472882)
(0.534277 -0.0945824 -0.0472912)
(0.534294 -0.0945821 -0.047291)
(0.534325 -0.0945815 -0.0472907)
(0.53436 -0.0945836 -0.0472918)
(0.534388 -0.0945864 -0.0472932)
(0.534409 -0.0945922 -0.0472961)
(0.534423 -0.0946022 -0.0473011)
(0.534435 -0.0946044 -0.0473022)
(0.53444 -0.0946032 -0.0473016)
(0.534438 -0.0945978 -0.0472989)
(0.534427 -0.0945918 -0.0472959)
(0.53441 -0.0945882 -0.0472941)
(0.534395 -0.0945898 -0.0472949)
(0.534383 -0.0945911 -0.0472956)
(0.534373 -0.0945919 -0.047296)
(0.534368 -0.0945876 -0.0472938)
(0.534369 -0.0945831 -0.0472915)
(0.53437 -0.0945784 -0.0472892)
(0.534371 -0.0945768 -0.0472884)
(0.534368 -0.0945813 -0.0472907)
(0.534365 -0.0945869 -0.0472935)
(0.53436 -0.0945844 -0.0472922)
(0.53436 -0.0945796 -0.0472898)
(0.534354 -0.0945764 -0.0472882)
(0.534355 -0.0945729 -0.0472864)
(0.534359 -0.0945745 -0.0472872)
(0.534368 -0.0945799 -0.04729)
(0.534383 -0.0945842 -0.0472921)
(0.534399 -0.0945868 -0.0472934)
(0.534414 -0.0945845 -0.0472923)
(0.534425 -0.0945822 -0.0472911)
(0.53443 -0.0945818 -0.0472909)
(0.534429 -0.0945828 -0.0472914)
(0.534422 -0.0945852 -0.0472926)
(0.534409 -0.0945844 -0.0472922)
(0.534391 -0.0945793 -0.0472896)
(0.534368 -0.0945728 -0.0472864)
(0.53435 -0.0945645 -0.0472823)
(0.534334 -0.0945615 -0.0472808)
(0.534326 -0.0945637 -0.0472818)
(0.534325 -0.0945647 -0.0472824)
(0.53433 -0.0945663 -0.0472831)
(0.534338 -0.0945652 -0.0472826)
(0.534347 -0.0945631 -0.0472815)
(0.534355 -0.0945626 -0.0472813)
(0.534364 -0.0945639 -0.0472819)
(0.534374 -0.0945661 -0.0472831)
(0.534381 -0.0945694 -0.0472847)
(0.534384 -0.0945715 -0.0472857)
(0.534384 -0.0945699 -0.0472849)
(0.534384 -0.0945665 -0.0472833)
(0.534388 -0.0945646 -0.0472823)
(0.534392 -0.0945646 -0.0472823)
(0.534395 -0.0945673 -0.0472837)
(0.534397 -0.0945695 -0.0472848)
(0.534394 -0.0945716 -0.0472858)
(0.534384 -0.094568 -0.047284)
(0.53437 -0.094562 -0.047281)
(0.534356 -0.0945588 -0.0472794)
(0.534341 -0.0945565 -0.0472782)
(0.534327 -0.0945582 -0.0472791)
(0.534315 -0.0945589 -0.0472795)
(0.534307 -0.0945564 -0.0472782)
(0.534305 -0.0945549 -0.0472774)
(0.534308 -0.0945525 -0.0472763)
(0.534316 -0.0945536 -0.0472768)
(0.534329 -0.094558 -0.047279)
(0.534343 -0.0945634 -0.0472817)
(0.534362 -0.0945666 -0.0472833)
(0.534381 -0.0945697 -0.0472848)
(0.534395 -0.0945702 -0.0472851)
(0.534404 -0.0945703 -0.0472851)
(0.534407 -0.0945714 -0.0472857)
(0.534406 -0.094573 -0.0472865)
(0.534404 -0.0945741 -0.047287)
(0.534402 -0.0945754 -0.0472877)
(0.534405 -0.0945751 -0.0472876)
(0.534407 -0.0945741 -0.0472871)
(0.534409 -0.0945735 -0.0472867)
(0.534411 -0.0945735 -0.0472868)
(0.534408 -0.0945749 -0.0472874)
(0.534403 -0.0945762 -0.0472881)
(0.534396 -0.0945763 -0.0472882)
(0.534387 -0.0945751 -0.0472875)
(0.534377 -0.0945718 -0.0472859)
(0.534366 -0.0945693 -0.0472847)
(0.534356 -0.0945676 -0.0472838)
(0.534349 -0.094568 -0.047284)
(0.534346 -0.0945693 -0.0472847)
(0.534349 -0.0945715 -0.0472857)
(0.534356 -0.0945733 -0.0472867)
(0.534367 -0.0945746 -0.0472873)
(0.534381 -0.0945772 -0.0472886)
(0.5344 -0.0945815 -0.0472907)
(0.534416 -0.0945841 -0.047292)
(0.534426 -0.0945906 -0.0472953)
(0.534429 -0.0945935 -0.0472967)
(0.534428 -0.0945954 -0.0472977)
(0.534422 -0.0945967 -0.0472983)
(0.534415 -0.0945972 -0.0472985)
(0.534407 -0.0945986 -0.0472991)
(0.534394 -0.0946006 -0.0473)
(0.534375 -0.094603 -0.047301)
(0.534357 -0.0946067 -0.0473025)
(0.534344 -0.0946084 -0.047303)
(0.534335 -0.094611 -0.0473036)
(0.534326 -0.0946142 -0.0473043)
(0.534318 -0.0946188 -0.0473052)
(0.534309 -0.0946225 -0.0473051)
(0.534302 -0.0946279 -0.0473049)
(0.534297 -0.094632 -0.0473029)
(0.534295 -0.0946359 -0.0472978)
(0.534304 -0.0946418 -0.0472862)
(0.534324 -0.094654 -0.0472668)
(0.534353 -0.094676 -0.0472321)
(0.534384 -0.0947138 -0.0471649)
(0.53441 -0.0947778 -0.0470362)
(0.53442 -0.0948861 -0.0468011)
(0.534418 -0.0950741 -0.0463882)
(0.534412 -0.0954141 -0.0456482)
(0.534391 -0.0960542 -0.0443423)
(0.534396 -0.097073 -0.0421251)
(0.534322 -0.098866 -0.0384625)
(0.534408 -0.101768 -0.0322525)
(0.534317 -0.106232 -0.0225972)
(0.534499 -0.113322 -0.00704465)
(0.534396 -0.123392 0.0164226)
(0.534629 -0.137276 0.0496145)
(0.534545 -0.150014 0.0819943)
(0.534507 -0.159886 0.108746)
(0.534686 -0.167637 0.131057)
(0.534387 -0.173363 0.149617)
(0.534947 -0.178096 0.163819)
(0.534232 -0.179982 0.174803)
(0.535328 -0.182701 0.182495)
(0.534638 -0.18187 0.188374)
(0.53563 -0.182499 0.192757)
(0.535944 -0.180079 0.19657)
(0.53726 -0.175236 0.199259)
(0.53856 -0.165625 0.199961)
(0.542157 -0.144465 0.199172)
(0.547804 -0.110076 0.198471)
(0.556179 -0.0605145 0.204173)
(0.563161 -0.0230492 0.21584)
(0.568613 0.00217702 0.228143)
(0.566929 0.019152 0.237599)
(0.574073 0.0286431 0.241664)
(0.574957 0.0361072 0.244426)
(0.572544 0.0412022 0.245616)
(0.573725 0.0440331 0.246241)
(0.575708 0.0452233 0.246654)
(0.575999 0.0463182 0.246881)
(0.574966 0.0469812 0.247124)
(0.574948 0.0474364 0.247236)
(0.575466 0.0475467 0.247325)
(0.575684 0.0476955 0.247301)
(0.575602 0.0477688 0.247326)
(0.575507 0.0477988 0.247306)
(0.57555 0.0477437 0.247283)
(0.57556 0.047638 0.247235)
(0.575521 0.0475521 0.247193)
(0.575449 0.0474671 0.247227)
(0.575381 0.0474422 0.247222)
(0.575339 0.047466 0.24724)
(0.575312 0.0475711 0.247188)
(0.575299 0.0477241 0.247202)
(0.575242 0.047839 0.247243)
(0.575259 0.0479151 0.247334)
(0.575282 0.0479202 0.247394)
(0.575274 0.0478956 0.247452)
(0.575299 0.0478041 0.247386)
(0.57529 0.0477657 0.247332)
(0.575335 0.0477604 0.247274)
(0.575375 0.0477707 0.247268)
(0.575455 0.0478163 0.247263)
(0.575506 0.0479218 0.247332)
(0.575512 0.0480487 0.24746)
(0.575532 0.0481033 0.247515)
(0.575527 0.0479904 0.247418)
(0.575475 0.0478028 0.247219)
(0.575457 0.0477341 0.247187)
(0.575425 0.0477449 0.247319)
(0.575396 0.0478309 0.247476)
(0.57539 0.0478412 0.24748)
(0.575363 0.0478202 0.247428)
(0.575351 0.0477973 0.247366)
(0.575354 0.047801 0.247294)
(0.575363 0.0477852 0.247259)
(0.575385 0.0477763 0.247273)
(0.57541 0.0477291 0.247352)
(0.575439 0.0476889 0.2474)
(0.575469 0.0476608 0.247388)
(0.575491 0.0476348 0.247295)
(0.575514 0.0476513 0.247118)
(0.575516 0.0476802 0.246972)
(0.575509 0.0476866 0.246922)
(0.575509 0.0476773 0.247009)
(0.575448 0.0476704 0.247286)
(0.575433 0.0476857 0.247421)
(0.575407 0.047717 0.247432)
(0.575343 0.0477759 0.247286)
(0.575317 0.0477864 0.246829)
(0.575316 0.0476911 0.246544)
(0.575296 0.0475907 0.246509)
(0.575313 0.0474216 0.246807)
(0.575361 0.047331 0.247632)
(0.575488 0.0474873 0.248164)
(0.575523 0.0476427 0.248302)
(0.575504 0.0477596 0.248118)
(0.575491 0.0475788 0.24718)
(0.575321 0.0470581 0.246471)
(0.575273 0.0467692 0.246378)
(0.575297 0.0469566 0.246662)
(0.575551 0.0484613 0.247677)
(0.575798 0.0496146 0.248171)
(0.575816 0.0497905 0.248174)
(0.575547 0.0481802 0.247615)
(0.575397 0.0462267 0.24724)
(0.574884 0.0483977 0.247891)
(0.576316 0.0578157 0.250357)
(0.579845 0.0733448 0.255284)
(0.58409 0.0896914 0.260968)
(0.586219 0.123124 0.270201)
(0.598855 0.165343 0.283367)
(0.600024 0.193446 0.293506)
(0.60318 0.209823 0.298989)
(0.606525 0.217235 0.301103)
(0.606426 0.22008 0.301093)
(0.60611 0.22047 0.301142)
(0.60534 0.216743 0.304943)
(0.604376 0.210691 0.309922)
(0.603593 0.206959 0.31082)
(0.603647 0.20335 0.312731)
(0.605113 0.201125 0.336542)
(0.608673 0.20557 0.372494)
(0.602956 0.198267 0.403895)
(0.604987 0.163818 0.436704)
(0.606581 0.157494 0.474332)
(0.605911 0.140686 0.500192)
(0.604729 0.134763 0.521989)
(0.606526 0.122196 0.533257)
(0.605579 0.120283 0.544726)
(0.6065 0.115105 0.549453)
(0.605984 0.114358 0.553429)
(0.606173 0.112936 0.555064)
(0.605953 0.112704 0.556096)
(0.605957 0.112382 0.556494)
(0.6059 0.112335 0.556684)
(0.605881 0.112297 0.556745)
(0.605841 0.112323 0.556774)
(0.605805 0.112311 0.556801)
(0.605768 0.112331 0.556806)
(0.605751 0.112329 0.556827)
(0.605744 0.112337 0.556838)
(0.605745 0.112329 0.556853)
(0.605752 0.112337 0.556865)
(0.605765 0.112325 0.556882)
(0.605788 0.11232 0.556886)
(0.605816 0.112326 0.556892)
(0.605847 0.112313 0.556893)
(0.605923 0.112301 0.556887)
(0.606017 0.112301 0.556883)
(0.606059 0.112284 0.556874)
(0.606065 0.112292 0.556872)
(0.60605 0.112307 0.556876)
(0.606008 0.1123 0.556869)
(0.605941 0.112325 0.556879)
(0.605832 0.112345 0.556885)
(0.605764 0.112351 0.556887)
(0.605744 0.112362 0.55689)
(0.605749 0.112361 0.556886)
(0.605762 0.112353 0.556881)
(0.605793 0.112362 0.556882)
(0.605834 0.112344 0.55687)
(0.605902 0.112341 0.556867)
(0.60594 0.112333 0.556861)
(0.605949 0.112333 0.55686)
(0.605946 0.112336 0.556861)
(0.60593 0.112342 0.556863)
(0.605898 0.112343 0.556863)
(0.605878 0.112352 0.556868)
(0.605873 0.112352 0.556867)
(0.605877 0.11235 0.556864)
(0.605892 0.112351 0.556866)
(0.605919 0.112347 0.556861)
(0.605955 0.112338 0.556858)
(0.605973 0.112341 0.556858)
(0.605975 0.112335 0.556855)
(0.605966 0.112342 0.556858)
(0.605945 0.112344 0.556858)
(0.605914 0.112341 0.556857)
(0.605887 0.11236 0.556867)
(0.605834 0.112356 0.556864)
(0.605762 0.112372 0.556875)
(0.605688 0.112385 0.556881)
(0.60565 0.112389 0.556884)
(0.605637 0.112395 0.556887)
(0.605635 0.112393 0.556886)
(0.60564 0.112394 0.556886)
(0.605651 0.112394 0.556887)
(0.60566 0.112386 0.556881)
(0.605681 0.112386 0.556882)
(0.605712 0.112379 0.556877)
(0.605742 0.112372 0.556873)
(0.605753 0.112374 0.556874)
(0.605754 0.112371 0.556873)
(0.605746 0.112375 0.556875)
(0.605735 0.112381 0.556878)
(0.605718 0.112378 0.556875)
(0.605699 0.112387 0.556882)
(0.605661 0.112391 0.556883)
(0.605623 0.112394 0.556886)
(0.605606 0.112398 0.556888)
(0.605602 0.112395 0.556887)
(0.605605 0.112397 0.556888)
(0.605616 0.112394 0.556886)
(0.605628 0.112388 0.556883)
(0.605647 0.112391 0.556884)
(0.605669 0.112383 0.556878)
(0.605706 0.112378 0.556877)
(0.605738 0.112374 0.556874)
(0.605751 0.11237 0.556872)
(0.605754 0.112374 0.556873)
(0.605751 0.112374 0.556874)
(0.605742 0.112376 0.556876)
(0.605734 0.112381 0.556878)
(0.605718 0.11238 0.556877)
(0.605696 0.112386 0.556881)
(0.605663 0.112389 0.556883)
(0.605638 0.112389 0.556885)
(0.605627 0.112389 0.556885)
(0.605625 0.112388 0.556883)
(0.605626 0.112388 0.556884)
(0.605631 0.112389 0.556882)
(0.605637 0.112387 0.556881)
(0.605646 0.112391 0.556882)
(0.605661 0.112387 0.556881)
(0.605676 0.112386 0.55688)
(0.605684 0.112383 0.55688)
(0.605689 0.112382 0.556879)
(0.605691 0.112381 0.556879)
(0.605691 0.112381 0.556878)
(0.605689 0.112381 0.55688)
(0.605687 0.112382 0.556878)
(0.605684 0.112382 0.556881)
(0.605685 0.112384 0.556879)
(0.60569 0.112381 0.556882)
(0.605698 0.11238 0.556877)
(0.605704 0.112374 0.556879)
(0.605709 0.112375 0.556872)
(0.605711 0.112371 0.556877)
(0.605712 0.112377 0.556869)
(0.605718 0.112372 0.556879)
(0.605732 0.112381 0.55687)
(0.605757 0.112372 0.556886)
(0.60579 0.112383 0.556863)
(0.605819 0.112354 0.556887)
(0.605832 0.112373 0.556855)
(0.605836 0.112344 0.556883)
(0.605815 0.112416 0.556839)
(0.605819 0.112246 0.556886)
(0.605804 0.112376 0.556828)
(0.606011 0.11231 0.55689)
(0.605988 0.113043 0.557084)
(0.606216 0.110881 0.556319)
(0.60584 0.112563 0.55672)
(0.607614 0.112096 0.55686)
(0.608093 0.121353 0.561928)
(0.609541 0.0936818 0.547018)
(0.625683 0.112598 0.555755)
(0.682376 0.118337 0.562876)
(0.789946 0.070759 0.532698)
(1.0384 0.042942 0.519479)
(1.17448 0.0151173 0.502893)
(1.19685 0.0106519 0.500365)
(1.19963 0.0100774 0.500043)
(1.19996 0.0100092 0.500005)
(1.19999 0.0100011 0.500001)
(1.2 0.0100001 0.5)
(1.2 0.01 0.5)
(1.2 0.01 0.5)
(1.2 0.01 0.5)
(1.2 0.01 0.5)
(1.2 0.01 0.5)
(1.2 0.01 0.5)
(1.2 0.01 0.5)
(1.2 0.01 0.5)
(1.2 0.01 0.5)
(1.2 0.01 0.5)
(1.2 0.01 0.5)
(1.2 0.01 0.5)
(1.2 0.01 0.5)
(1.2 0.01 0.5)
(1.2 0.01 0.5)
(1.2 0.01 0.5)
(1.2 0.01 0.5)
(1.2 0.01 0.5)
(1.2 0.01 0.5)
(1.2 0.01 0.5)
(1.2 0.01 0.5)
(1.2 0.01 0.5)
(1.2 0.01 0.5)
(1.2 0.01 0.5)
(1.2 0.01 0.5)
(1.2 0.01 0.5)
(1.2 0.01 0.5)
(1.2 0.01 0.5)
(1.2 0.01 0.5)
(1.2 0.01 0.5)
(1.2 0.01 0.5)
(1.2 0.01 0.5)
(1.2 0.01 0.5)
(1.2 0.01 0.5)
(1.2 0.01 0.5)
(1.2 0.01 0.5)
(1.2 0.01 0.5)
(1.2 0.01 0.5)
(1.2 0.01 0.5)
(1.2 0.01 0.5)
(1.2 0.01 0.5)
(1.2 0.01 0.5)
(1.2 0.01 0.5)
(1.2 0.01 0.5)
(1.2 0.01 0.5)
(1.2 0.01 0.5)
(1.2 0.01 0.5)
(1.2 0.01 0.5)
(1.2 0.01 0.5)
(1.2 0.01 0.5)
(1.2 0.01 0.5)
(1.2 0.01 0.5)
(1.2 0.01 0.5)
(1.2 0.01 0.5)
(1.2 0.01 0.5)
(1.2 0.01 0.5)
(1.2 0.01 0.5)
(1.2 0.01 0.5)
(1.2 0.01 0.5)
(1.2 0.01 0.5)
(1.2 0.01 0.5)
(1.2 0.01 0.5)
(1.2 0.01 0.5)
(1.2 0.01 0.5)
(1.2 0.01 0.5)
(1.2 0.01 0.5)
(1.2 0.01 0.5)
(1.2 0.01 0.5)
(1.2 0.01 0.5)
(1.2 0.01 0.5)
(1.2 0.01 0.5)
(1.2 0.01 0.5)
(1.2 0.01 0.5)
(1.2 0.01 0.5)
(1.2 0.01 0.5)
(1.2 0.01 0.5)
(1.2 0.01 0.5)
(1.2 0.01 0.5)
(1.2 0.01 0.5)
(1.2 0.01 0.5)
(1.2 0.01 0.5)
(1.2 0.01 0.5)
(1.2 0.01 0.5)
(1.2 0.01 0.5)
(1.2 0.01 0.5)
(1.2 0.01 0.5)
(1.2 0.01 0.5)
(1.2 0.01 0.5)
(1.2 0.01 0.5)
(1.2 0.01 0.5)
(1.2 0.01 0.5)
(1.2 0.01 0.5)
(1.2 0.01 0.5)
(1.2 0.01 0.5)
(1.2 0.01 0.5)
(1.2 0.01 0.5)
(1.2 0.01 0.5)
(1.2 0.01 0.5)
(1.2 0.01 0.5)
(1.2 0.01 0.5)
(1.2 0.01 0.5)
(1.2 0.01 0.5)
(1.2 0.01 0.5)
(1.2 0.01 0.5)
(1.2 0.01 0.5)
(1.2 0.01 0.5)
(1.2 0.01 0.5)
(1.2 0.01 0.5)
(1.2 0.01 0.5)
(1.2 0.01 0.5)
(1.2 0.01 0.5)
(1.2 0.01 0.5)
(1.2 0.01 0.5)
(1.2 0.01 0.5)
(1.2 0.01 0.5)
(1.2 0.01 0.5)
(1.2 0.01 0.5)
(1.2 0.01 0.5)
(1.2 0.01 0.5)
(1.2 0.01 0.5)
(1.2 0.01 0.5)
(1.2 0.01 0.5)
(1.2 0.01 0.5)
(1.2 0.01 0.5)
(1.2 0.01 0.5)
(1.2 0.01 0.5)
(1.2 0.01 0.5)
(1.2 0.01 0.5)
(1.2 0.01 0.5)
(1.2 0.01 0.5)
(1.2 0.01 0.5)
(1.2 0.01 0.5)
(1.2 0.01 0.5)
(1.2 0.01 0.5)
(1.2 0.01 0.5)
(1.2 0.01 0.5)
(1.2 0.01 0.5)
(1.2 0.01 0.5)
(1.2 0.01 0.5)
(1.2 0.01 0.5)
(1.2 0.01 0.5)
(1.2 0.01 0.5)
(1.2 0.01 0.5)
(1.2 0.01 0.5)
(1.2 0.01 0.5)
(1.2 0.01 0.5)
(1.2 0.01 0.5)
(1.2 0.01 0.5)
(1.2 0.01 0.5)
(1.2 0.01 0.5)
(1.2 0.01 0.5)
(1.2 0.01 0.5)
(1.2 0.01 0.5)
(1.2 0.01 0.5)
(1.2 0.01 0.5)
(1.2 0.01 0.5)
(1.2 0.01 0.5)
(1.2 0.01 0.5)
(1.2 0.01 0.5)
(1.2 0.01 0.5)
(1.2 0.01 0.5)
(1.2 0.01 0.5)
(1.2 0.01 0.5)
(1.2 0.01 0.5)
(1.2 0.01 0.5)
(1.2 0.01 0.5)
(1.2 0.01 0.5)
(1.2 0.01 0.5)
(1.2 0.01 0.5)
(1.2 0.01 0.5)
(1.2 0.01 0.5)
(1.2 0.01 0.5)
(1.2 0.01 0.5)
(1.2 0.01 0.5)
(1.2 0.01 0.5)
(1.2 0.01 0.5)
(1.2 0.01 0.5)
(1.2 0.01 0.5)
(1.2 0.01 0.5)
(1.2 0.01 0.5)
(1.2 0.01 0.5)
(1.2 0.01 0.5)
(1.2 0.01 0.5)
(1.2 0.01 0.5)
(1.2 0.01 0.5)
(1.2 0.01 0.5)
(1.2 0.01 0.5)
(1.2 0.01 0.5)
(1.2 0.01 0.5)
(1.2 0.01 0.5)
(1.2 0.01 0.5)
(1.2 0.01 0.5)
(1.2 0.01 0.5)
(1.2 0.01 0.5)
(1.2 0.01 0.5)
(1.2 0.01 0.5)
(1.2 0.01 0.5)
(1.2 0.01 0.5)
(1.2 0.01 0.5)
(1.2 0.01 0.5)
(1.2 0.01 0.5)
(1.2 0.01 0.5)
(1.2 0.01 0.5)
(1.2 0.01 0.5)
(1.2 0.01 0.5)
(1.2 0.01 0.5)
(1.2 0.01 0.5)
(1.2 0.01 0.5)
(1.2 0.01 0.5)
(1.2 0.01 0.5)
(1.2 0.01 0.5)
(1.2 0.01 0.5)
(1.2 0.01 0.5)
(1.2 0.01 0.5)
(1.2 0.01 0.5)
(1.2 0.01 0.5)
(1.2 0.01 0.5)
(1.2 0.01 0.5)
(1.2 0.01 0.5)
(1.2 0.01 0.5)
(1.2 0.01 0.5)
(1.2 0.01 0.5)
(1.2 0.01 0.5)
(1.2 0.01 0.5)
(1.2 0.01 0.5)
(1.2 0.01 0.5)
(1.2 0.01 0.5)
(1.2 0.01 0.5)
(1.2 0.01 0.5)
(1.2 0.01 0.5)
(1.2 0.01 0.5)
(1.2 0.01 0.5)
(1.2 0.01 0.5)
(1.2 0.01 0.5)
(1.2 0.01 0.5)
(1.2 0.01 0.5)
(1.2 0.01 0.5)
(1.2 0.01 0.5)
(1.2 0.01 0.5)
(1.2 0.01 0.5)
(1.2 0.01 0.5)
(1.2 0.01 0.5)
(1.2 0.01 0.5)
(1.2 0.01 0.5)
(1.2 0.01 0.5)
(1.2 0.01 0.5)
(1.2 0.01 0.5)
(1.2 0.01 0.5)
(1.2 0.01 0.5)
(1.2 0.01 0.5)
(1.2 0.01 0.5)
(1.2 0.01 0.5)
(1.2 0.01 0.5)
(1.2 0.01 0.5)
(1.2 0.01 0.5)
(1.2 0.01 0.5)
(1.2 0.01 0.5)
(1.2 0.01 0.5)
(1.2 0.01 0.5)
(1.2 0.01 0.5)
(1.2 0.01 0.5)
(1.2 0.01 0.5)
(1.2 0.01 0.5)
(1.2 0.01 0.5)
(1.2 0.01 0.5)
(1.2 0.01 0.5)
(1.2 0.01 0.5)
(1.2 0.01 0.5)
(1.2 0.01 0.5)
(1.2 0.01 0.5)
(1.2 0.01 0.5)
(1.2 0.01 0.5)
(1.2 0.01 0.5)
(1.2 0.01 0.5)
(1.2 0.01 0.5)
(1.2 0.01 0.5)
(1.2 0.01 0.5)
(1.2 0.01 0.5)
(1.2 0.01 0.5)
(1.2 0.01 0.5)
(1.2 0.01 0.5)
(1.2 0.01 0.5)
(1.2 0.01 0.5)
(1.2 0.01 0.5)
(1.2 0.01 0.5)
(1.2 0.01 0.5)
(1.2 0.01 0.5)
(1.2 0.01 0.5)
(1.2 0.01 0.5)
(1.2 0.01 0.5)
(1.2 0.01 0.5)
(1.2 0.01 0.5)
(1.2 0.01 0.5)
(1.2 0.01 0.5)
(1.2 0.01 0.5)
(1.2 0.01 0.5)
(1.2 0.01 0.5)
(1.2 0.01 0.5)
(1.2 0.01 0.5)
(1.2 0.01 0.5)
(1.2 0.01 0.5)
(1.2 0.01 0.5)
(1.2 0.01 0.5)
(1.2 0.01 0.5)
(1.2 0.01 0.5)
(1.2 0.01 0.5)
(1.2 0.01 0.5)
(1.2 0.01 0.5)
(1.2 0.01 0.5)
(1.2 0.01 0.5)
(1.2 0.01 0.5)
(1.2 0.01 0.5)
(1.2 0.01 0.5)
(1.2 0.01 0.5)
(1.2 0.01 0.5)
(1.2 0.01 0.5)
(1.2 0.01 0.5)
(1.2 0.01 0.5)
(1.2 0.01 0.5)
(1.2 0.01 0.5)
(1.2 0.01 0.5)
(1.2 0.01 0.5)
(1.2 0.01 0.5)
(1.2 0.01 0.5)
(1.2 0.01 0.5)
(1.2 0.01 0.5)
(1.2 0.01 0.5)
(1.2 0.01 0.5)
(1.2 0.01 0.5)
(1.2 0.01 0.5)
(1.2 0.01 0.5)
(1.2 0.01 0.5)
(1.2 0.01 0.5)
(1.2 0.01 0.5)
(1.2 0.01 0.5)
(1.2 0.01 0.5)
(1.2 0.01 0.5)
(1.2 0.01 0.5)
(1.2 0.01 0.5)
(1.2 0.01 0.5)
(1.2 0.01 0.5)
(1.2 0.01 0.5)
(1.2 0.01 0.5)
(1.2 0.01 0.5)
(1.2 0.01 0.5)
(1.2 0.01 0.5)
(1.2 0.01 0.5)
(1.2 0.01 0.5)
(1.2 0.01 0.5)
(1.2 0.01 0.5)
(1.2 0.01 0.5)
(1.2 0.01 0.5)
(1.2 0.01 0.5)
(1.2 0.01 0.5)
(1.2 0.01 0.5)
(1.2 0.01 0.5)
(1.2 0.01 0.5)
(1.2 0.01 0.5)
(1.2 0.01 0.5)
(1.2 0.01 0.5)
(1.2 0.01 0.5)
(1.2 0.01 0.5)
(1.2 0.01 0.5)
(1.2 0.01 0.5)
(1.2 0.01 0.5)
(1.2 0.01 0.5)
(1.2 0.01 0.5)
(1.2 0.01 0.5)
(1.2 0.01 0.5)
(1.2 0.01 0.5)
(1.2 0.01 0.5)
(1.2 0.01 0.5)
(1.2 0.01 0.5)
(1.2 0.01 0.5)
(1.2 0.01 0.5)
(1.2 0.01 0.5)
(1.2 0.01 0.5)
(1.2 0.01 0.5)
(1.2 0.01 0.5)
(1.2 0.01 0.5)
(1.2 0.01 0.5)
(1.2 0.01 0.5)
(1.2 0.01 0.5)
(1.2 0.01 0.5)
(1.2 0.01 0.5)
(1.2 0.01 0.5)
(1.2 0.01 0.5)
)
;

boundaryField
{
    front-back
    {
        type            empty;
    }
    inlet-outlet
    {
        type            zeroGradient;
    }
    top-down
    {
        type            empty;
    }
}


// ************************************************************************* //
