/*--------------------------------*- C++ -*----------------------------------*\
| =========                 |                                                 |
| \\      /  F ield         | OpenFOAM: The Open Source CFD Toolbox           |
|  \\    /   O peration     | Version:  2.2.x                                 |
|   \\  /    A nd           | Web:      www.OpenFOAM.org                      |
|    \\/     M anipulation  |                                                 |
\*---------------------------------------------------------------------------*/
FoamFile
{
    version     2.0;
    format      ascii;
    class       volScalarField;
    location    "0.07";
    object      Ma;
}
// * * * * * * * * * * * * * * * * * * * * * * * * * * * * * * * * * * * * * //

dimensions      [0 0 0 0 0 0 0];

internalField   nonuniform List<scalar> 
1024
(
0
0
0
0
0
0
0
0
0
0
0
0
0
0
0
0
0
0
0
0
0
0
0
0
0
0
0
0
0
0
0
0
0
0
0
0
0
0
0
0
0
0
0
0
0
0
0
0
0
0
0
0
0
0
0
0
0
0
0
0
0
0
0
0
0
0
0
0
0
0
0
0
0
0
0
0
0
0
0
0
0
0
0
0
0
0
0
0
0
0
0
0
0
0
0
0
0
0
0
0
0
0
0
0
0
0
0
0
0
0
0
0
0
0
0
0
0
0
0
0
0
0
0
0
0
0
0
0
0
0
0
0
0
0
0
0
0
0
0
0
0
0
0
0
0
0
0
0
0
0
0
0
0
0
0
0
0
0
0
0
0
0
0
0
0
0
0
0
0
0
0
0
0
0
0
0
0
0
0
0
0
0
0
0
0
0
0
0
0
0
0
0
0
0
0
0
0
0
0
0
0
0
0
0
0
0
0
0
0
0
0
0
0
0
0
0
0
0
0
0
0
0
0
0
0
0
8.61381e-17
9.60857e-16
4.91004e-15
1.93476e-14
7.4417e-14
2.62354e-13
8.9781e-13
3.08049e-12
1.0505e-11
3.57703e-11
1.21801e-10
4.14505e-10
1.41069e-09
4.80104e-09
1.63414e-08
5.56296e-08
1.89406e-07
6.44995e-07
2.19684e-06
7.48371e-06
2.54973e-05
8.68791e-05
0.000296376
0.00100709
0.00256848
0.00316423
0.00362962
0.00302536
0.00316141
0.00263686
0.00287113
0.00232912
0.00254227
0.00204632
0.00213509
0.00132163
0.00125068
0.00832551
0.0273683
0.0789489
0.190028
0.287755
0.260854
0.311866
0.281621
0.300674
0.283336
0.292524
0.290676
0.291714
0.289883
0.290151
0.29068
0.290804
0.290729
0.290729
0.291231
0.291592
0.292143
0.292595
0.293426
0.294197
0.295234
0.29618
0.297296
0.300608
0.307719
0.319961
0.331798
0.327169
0.3328
0.330582
0.332896
0.33037
0.325607
0.314857
0.301937
0.287967
0.294961
0.288699
0.291426
0.287327
0.280402
0.271614
0.270584
0.265356
0.269015
0.269168
0.274113
0.288754
0.31916
0.33329
0.35411
0.338736
0.345031
0.338072
0.329835
0.297081
0.247027
0.244503
0.223766
0.242777
0.248818
0.282835
0.32109
0.31751
0.336066
0.321878
0.32166
0.307332
0.296166
0.298784
0.290253
0.294468
0.291614
0.293819
0.291783
0.289259
0.28879
0.285619
0.278008
0.26954
0.262747
0.268783
0.270423
0.280333
0.309565
0.33735
0.362227
0.343128
0.348666
0.332768
0.303992
0.27431
0.242806
0.264937
0.252583
0.261711
0.256141
0.265884
0.293018
0.328011
0.321863
0.339418
0.332135
0.339822
0.335061
0.336386
0.331421
0.315848
0.275616
0.258769
0.244596
0.260004
0.253506
0.261858
0.26037
0.270293
0.288547
0.320994
0.349379
0.335262
0.350547
0.342808
0.34478
0.33204
0.30027
0.267189
0.274497
0.261003
0.26908
0.267667
0.272037
0.272778
0.27459
0.283497
0.305687
0.334964
0.329107
0.343356
0.335259
0.335173
0.31687
0.286406
0.276028
0.269228
0.267739
0.266451
0.282891
0.58336
0.920655
0.967599
0.989064
0.991828
0.991723
0.992954
0.990177
0.987075
0.984975
0.983385
0.984207
0.984462
0.984691
0.984747
0.986941
0.989001
0.990485
0.991171
0.991615
0.991395
0.989771
0.986386
0.984701
0.984487
0.984313
0.984341
0.985432
0.987326
0.988335
0.98877
0.989335
0.989257
0.988376
0.987489
0.984988
0.983511
0.983126
0.982887
0.981944
0.982
0.982488
0.984168
0.98746
0.99205
1.00014
1.01596
1.04204
1.08708
1.15919
1.25876
1.34126
1.4008
1.44188
1.46886
1.48553
1.49438
1.49896
1.50306
1.50572
1.50856
1.51258
1.51444
1.51486
1.51356
1.51165
1.51071
1.51043
1.51358
1.51751
1.51866
1.51976
1.5196
1.51508
1.51297
1.51284
1.51375
1.51852
1.52136
1.52236
1.52175
1.51722
1.51489
1.51416
1.51486
1.52056
1.52352
1.52423
1.52462
1.51996
1.51525
1.51344
1.51309
1.5192
1.52192
1.52213
1.52109
1.51235
1.49823
1.48684
1.47944
1.47781
1.47208
1.45901
1.43989
1.41822
1.39207
1.36395
1.3414
1.31237
1.28113
1.25993
1.24322
1.2087
1.16127
1.07002
0.963244
0.950262
0.688926
0.663613
0.663079
0.663445
0.663507
0.663478
0.66344
0.663206
0.66308
0.662876
0.662648
0.662341
0.662196
0.662162
0.662105
0.662269
0.662888
0.664045
0.665333
0.667487
0.669805
0.671869
0.673034
0.673131
0.672266
0.67202
0.670143
0.667535
0.663833
0.659857
0.65409
0.647824
0.640721
0.632406
0.623841
0.614645
0.604794
0.594928
0.5846
0.574178
0.563663
0.553293
0.542811
0.532555
0.522069
0.511685
0.501246
0.491112
0.480842
0.470726
0.460445
0.450394
0.440297
0.430445
0.420436
0.410606
0.400728
0.391103
0.381328
0.371685
0.36195
0.352486
0.342946
0.333538
0.323946
0.314554
0.305153
0.295974
0.286591
0.277297
0.267994
0.258966
0.249814
0.240616
0.231379
0.222768
0.214412
0.206265
0.198467
0.189924
0.180699
0.169659
0.157535
0.145643
0.135202
0.126255
0.118664
0.112287
0.109825
0.106517
0.104804
0.0966226
0.0851008
0.0679111
0.0528276
0.0419083
0.0330834
0.0256583
0.0194268
0.0143135
0.0102467
0.00712351
0.00480983
0.00315613
0.00201448
0.00125207
0.000758681
0.00044871
0.000259325
0.000146608
8.11588e-05
4.40321e-05
2.34319e-05
1.22396e-05
6.27969e-06
3.16648e-06
1.57007e-06
7.65903e-07
3.6774e-07
1.73859e-07
8.09672e-08
3.71559e-08
1.68072e-08
7.49622e-09
3.29758e-09
1.43109e-09
6.12875e-10
2.59062e-10
1.08115e-10
4.45522e-11
1.81334e-11
7.29088e-12
2.89671e-12
1.13705e-12
4.41715e-13
1.69574e-13
6.39508e-14
2.31231e-14
7.53209e-15
1.87819e-15
3.07918e-16
2.75509e-17
0
0
0
0
0
0
0
0
0
0
0
0
0
0
0
0
0
0
0
0
0
0
0
0
0
0
0
0
0
0
0
0
0
0
0
0
0
0
0
0
0
0
0
0
0
0
0
0
0
0
0
0
0
0
0
0
0
0
0
0
0
0
0
0
0
0
0
0
0
0
0
0
0
0
0
0
0
0
0
0
0
0
0
0
0
0
0
0
0
0
0
0
0
0
0
0
0
0
0
0
0
0
0
0
0
0
0
0
0
0
0
0
0
0
0
0
0
0
0
0
0
0
0
0
0
0
0
0
0
0
0
0
0
0
0
0
0
0
0
0
0
0
0
0
0
0
0
0
0
0
0
0
0
0
0
0
0
0
0
0
0
0
0
0
0
0
0
0
0
0
0
0
0
0
0
0
0
0
0
0
0
0
0
0
0
0
0
0
0
0
0
0
0
0
0
0
0
0
0
0
0
0
0
0
0
0
0
0
0
0
0
0
0
0
0
0
0
0
0
0
0
0
0
0
0
0
0
0
0
0
0
0
0
0
0
0
0
0
0
0
0
0
0
0
0
0
0
0
0
0
0
0
0
0
0
0
0
0
0
0
0
0
0
0
0
0
0
0
0
0
0
0
0
0
0
0
0
0
0
0
0
0
0
0
0
0
0
0
0
0
0
0
0
0
0
0
0
0
0
0
0
0
0
0
0
0
0
0
0
0
0
0
0
0
0
0
0
0
0
0
0
0
0
0
0
0
0
0
0
0
0
0
0
0
0
0
0
0
0
0
0
0
0
0
0
0
0
0
0
)
;

boundaryField
{
    front-back
    {
        type            empty;
    }
    inlet-outlet
    {
        type            calculated;
        value           uniform 0;
    }
    top-down
    {
        type            empty;
    }
}


// ************************************************************************* //
