/*--------------------------------*- C++ -*----------------------------------*\
| =========                 |                                                 |
| \\      /  F ield         | OpenFOAM: The Open Source CFD Toolbox           |
|  \\    /   O peration     | Version:  2.2.x                                 |
|   \\  /    A nd           | Web:      www.OpenFOAM.org                      |
|    \\/     M anipulation  |                                                 |
\*---------------------------------------------------------------------------*/
FoamFile
{
    version     2.0;
    format      ascii;
    class       volScalarField;
    location    "2.9";
    object      Bz;
}
// * * * * * * * * * * * * * * * * * * * * * * * * * * * * * * * * * * * * * //

dimensions      [1 0 -2 0 0 -1 0];

internalField   nonuniform List<scalar> 
14161
(
-3.75587e-20
-3.77207e-20
-3.76428e-20
-3.74736e-20
-3.64843e-20
-3.86547e-20
-3.61617e-20
-3.69767e-20
-3.73838e-20
-3.69493e-20
-3.85284e-20
-3.66763e-20
-3.83621e-20
-3.67294e-20
-3.73468e-20
-3.68608e-20
-3.72526e-20
-3.71992e-20
-3.71479e-20
-3.72389e-20
-3.72649e-20
-3.68896e-20
-3.71199e-20
-3.67468e-20
-3.70666e-20
-3.68043e-20
-3.65793e-20
-3.66483e-20
-3.62908e-20
-3.63898e-20
-3.59497e-20
-3.59215e-20
-3.57116e-20
-3.56516e-20
-3.55108e-20
-3.55553e-20
-3.54625e-20
-3.54506e-20
-3.53989e-20
-3.53489e-20
-3.53895e-20
-3.58345e-20
-3.27317e-20
3.08488e-21
2.74788e-19
2.85542e-18
1.14316e-17
1.61943e-17
1.00916e-17
8.57002e-18
8.26276e-18
7.96422e-18
8.05705e-18
7.48682e-18
7.08482e-18
6.57034e-18
6.06823e-18
5.60382e-18
5.1745e-18
4.65675e-18
4.28665e-18
3.84888e-18
3.45796e-18
3.15196e-18
2.96934e-18
2.82363e-18
2.63968e-18
2.45622e-18
2.32807e-18
2.22134e-18
2.17152e-18
2.10832e-18
1.99148e-18
1.82183e-18
1.80306e-18
1.65951e-18
1.5127e-18
1.34631e-18
1.23683e-18
1.15514e-18
7.84109e-19
5.31362e-19
3.25186e-19
7.35984e-20
-2.91378e-19
-6.25342e-19
-1.10887e-18
-1.78627e-18
-2.0205e-18
-2.37973e-18
-2.6902e-18
-3.02643e-18
-3.20221e-18
-3.39724e-18
-3.47925e-18
-3.28132e-18
-1.84246e-18
-2.70076e-18
-3.25598e-19
-1.67608e-18
-6.42336e-18
3.08275e-17
-1.32782e-16
1.09272e-16
8.94389e-17
5.01315e-17
-1.24169e-17
-2.69549e-16
2.9597e-17
3.21321e-17
1.60266e-16
-2.52814e-17
3.16747e-17
-1.84281e-16
-1.93034e-16
-3.01991e-16
-3.72042e-16
-5.55938e-16
-5.00556e-16
3.70674e-20
3.80414e-20
3.78219e-20
3.71892e-20
3.74997e-20
3.62466e-20
3.84516e-20
3.46765e-20
3.89144e-20
3.53688e-20
3.8195e-20
3.58044e-20
3.86477e-20
3.66152e-20
3.58133e-20
3.56933e-20
3.72786e-20
3.60658e-20
3.64411e-20
3.62149e-20
3.66493e-20
3.66758e-20
3.60271e-20
3.61808e-20
3.72081e-20
3.83185e-20
3.6748e-20
3.82813e-20
3.64766e-20
3.83757e-20
3.71058e-20
3.7704e-20
3.75344e-20
3.73578e-20
3.69823e-20
3.7563e-20
3.73193e-20
3.74342e-20
3.73424e-20
3.74646e-20
3.72071e-20
3.69521e-20
3.72242e-20
5.19188e-20
-8.38242e-20
-6.63269e-19
1.02595e-17
1.15929e-17
8.42006e-18
6.64743e-18
4.85865e-18
4.63836e-18
4.17653e-18
3.75753e-18
2.86586e-18
2.6871e-18
2.4749e-18
2.28473e-18
1.99442e-18
1.69558e-18
1.54359e-18
1.26314e-18
1.08436e-18
1.09921e-18
8.28188e-19
6.7781e-19
4.42407e-19
3.61956e-19
2.53139e-19
-6.08376e-20
-1.40507e-19
-3.40714e-19
-5.67025e-19
-6.56865e-19
-1.20275e-18
-1.38642e-18
-1.61266e-18
-2.79539e-18
-3.8158e-18
-4.15922e-18
-6.07372e-18
-7.20837e-18
-8.11654e-18
-8.8151e-18
-9.67589e-18
-9.07243e-18
-1.11496e-17
-1.25551e-17
-8.11365e-18
-5.47278e-18
-1.59476e-17
-1.99689e-17
-5.06905e-19
-1.68088e-17
1.58035e-16
-4.78649e-16
4.38359e-16
-4.25163e-16
1.12669e-15
-1.79376e-15
1.70553e-15
-1.05638e-15
-5.59111e-16
1.81449e-15
-5.82177e-15
9.15902e-15
2.55886e-15
1.37993e-16
6.54302e-15
5.51413e-15
5.45686e-15
4.86366e-15
4.04725e-15
4.606e-15
4.1465e-15
2.5676e-15
1.48724e-15
1.55054e-16
-1.96704e-16
7.35181e-20
7.21072e-20
7.18312e-20
7.24339e-20
7.45333e-20
6.97491e-20
7.65327e-20
6.68462e-20
7.75923e-20
6.59156e-20
7.81555e-20
6.82677e-20
6.97228e-20
6.76936e-20
7.06334e-20
6.91021e-20
6.88809e-20
6.67418e-20
6.76921e-20
6.6672e-20
6.54963e-20
6.1386e-20
6.23471e-20
6.19638e-20
5.75683e-20
5.82021e-20
5.71634e-20
5.6953e-20
5.5395e-20
5.82051e-20
5.64723e-20
5.75385e-20
5.58402e-20
5.70634e-20
5.60661e-20
5.63645e-20
5.63247e-20
5.62344e-20
5.61617e-20
5.62242e-20
5.69935e-20
5.93994e-20
6.67167e-20
1.15647e-19
4.63496e-19
2.10383e-18
5.19706e-18
4.6663e-18
2.33303e-18
8.6089e-19
6.62047e-19
1.45336e-18
3.76706e-20
5.14029e-20
7.08247e-19
3.34157e-19
-2.81065e-19
-8.06762e-19
4.65183e-19
-4.48467e-19
-2.83318e-19
-1.61367e-18
-1.17121e-18
-5.75553e-19
-1.35213e-18
-2.09967e-18
-2.20347e-18
-2.50902e-18
-3.29831e-18
-3.0687e-18
-4.72572e-18
-6.00474e-18
-6.25856e-18
-7.27145e-18
-8.84435e-18
-1.00775e-17
-1.2314e-17
-1.46703e-17
-1.69e-17
-1.78412e-17
-1.95386e-17
-2.08648e-17
-2.03045e-17
-2.16338e-17
-1.9091e-17
-2.78667e-17
-2.28714e-17
-2.61041e-17
-1.79418e-17
-3.35411e-16
-2.54844e-16
9.54384e-16
-1.21114e-15
1.73954e-15
-2.07037e-15
1.66361e-15
1.18752e-15
-5.87964e-15
6.80485e-15
8.66136e-16
-1.43665e-14
1.70747e-14
-1.35076e-14
2.9639e-14
-2.32546e-14
-4.06433e-14
2.18739e-14
-1.15961e-14
-1.52334e-14
3.66709e-15
3.77647e-15
6.18283e-15
6.51118e-15
4.04045e-15
2.74616e-15
3.25984e-15
2.60694e-15
1.19108e-15
4.04544e-16
-2.3537e-20
-2.23008e-20
-2.09854e-20
-2.12993e-20
-2.11545e-20
-2.23896e-20
-2.29378e-20
-2.10587e-20
-1.97475e-20
-1.98876e-20
-1.63496e-20
-1.80108e-20
-1.31123e-20
-1.29615e-20
-8.31542e-21
-4.05105e-21
-2.89737e-21
3.91158e-22
-1.3922e-21
3.1175e-21
5.22366e-21
1.14205e-20
1.24406e-20
1.47722e-20
1.86545e-20
1.52958e-20
1.94038e-20
2.16584e-20
2.52087e-20
2.24986e-20
2.51554e-20
2.78584e-20
3.0325e-20
3.2258e-20
3.33191e-20
3.46939e-20
3.51968e-20
3.61484e-20
3.66153e-20
3.66759e-20
3.728e-20
3.95137e-20
4.81983e-20
1.03825e-19
4.8999e-19
3.20048e-18
4.68937e-18
3.81453e-18
1.59224e-18
5.78042e-19
-2.60129e-21
1.14959e-18
-1.63376e-18
-1.33045e-19
1.74335e-18
1.58344e-19
-4.94455e-19
-4.28073e-18
3.77127e-18
-2.62502e-18
3.21824e-18
-4.98604e-18
-3.64392e-18
4.19597e-18
-2.87091e-18
3.92544e-19
-6.20662e-18
1.41504e-19
-7.59381e-18
2.80962e-19
-4.26104e-18
-9.68915e-18
-6.35332e-18
-6.44493e-18
-8.17079e-18
-9.83566e-18
-1.16467e-17
-1.72336e-17
-1.68569e-17
-2.74058e-17
-1.96278e-17
-2.19398e-17
-4.7704e-17
-1.67904e-17
-3.11596e-17
1.4636e-18
-1.78474e-16
2.1621e-16
6.00631e-17
-3.62007e-16
1.71876e-15
-3.20724e-15
3.09596e-15
-4.0968e-15
8.1712e-15
-1.15061e-14
9.6676e-15
1.41781e-15
-1.36307e-14
3.52958e-15
2.30299e-14
-1.29355e-14
-2.08299e-14
2.55278e-14
2.62419e-15
1.09051e-14
-1.27021e-14
-2.47151e-14
-1.90574e-15
-2.29223e-15
1.28113e-15
4.37687e-15
4.28325e-15
4.8853e-15
5.80958e-15
3.56146e-15
2.40098e-15
9.65881e-16
4.5698e-16
5.63546e-20
5.88325e-20
5.80232e-20
6.15184e-20
5.43246e-20
7.70225e-20
6.15939e-20
8.64414e-20
6.15043e-20
9.73348e-20
6.68409e-20
9.5902e-20
9.92319e-20
1.01632e-19
1.04343e-19
9.71538e-20
1.1405e-19
1.12749e-19
1.22952e-19
1.18875e-19
1.20297e-19
1.23936e-19
1.23539e-19
1.25972e-19
1.29588e-19
1.33602e-19
1.34572e-19
1.32787e-19
1.33613e-19
1.41058e-19
1.43662e-19
1.43375e-19
1.45513e-19
1.47674e-19
1.47422e-19
1.51149e-19
1.52278e-19
1.52364e-19
1.54063e-19
1.54275e-19
1.49023e-19
1.65926e-19
2.03036e-19
3.37412e-19
9.88517e-19
4.38186e-18
6.51628e-18
3.43265e-18
1.50071e-18
4.3677e-19
4.60738e-20
-5.5888e-19
7.52568e-19
-1.2788e-18
-4.38879e-19
2.08793e-18
1.52526e-19
-1.53597e-18
-7.27826e-18
6.08678e-18
5.53603e-18
-7.72494e-18
-7.44608e-18
-4.06526e-19
9.78928e-18
-1.52104e-18
-1.13422e-17
-4.46739e-18
-2.2982e-18
3.6657e-18
-4.32017e-18
-1.20368e-17
-7.77528e-18
-6.33818e-18
-5.53739e-18
-1.01965e-17
-1.29473e-17
-1.61335e-17
-2.0853e-17
-2.24625e-17
-4.16936e-17
-1.31515e-17
-4.26193e-17
-9.69001e-17
1.09807e-16
-2.85397e-16
8.32495e-17
1.5365e-16
-3.5293e-16
1.32169e-15
-1.72086e-15
8.04673e-16
2.25184e-15
-4.05983e-15
3.55069e-15
3.1682e-15
-5.9455e-15
-1.44687e-14
3.49376e-14
3.89736e-15
-3.45374e-14
-2.13155e-14
4.17665e-15
8.60363e-15
1.05999e-14
5.34174e-15
-2.02457e-14
-1.45912e-14
-9.94044e-15
-4.72056e-15
1.22654e-15
2.36759e-15
2.55454e-15
1.52203e-15
1.86057e-15
1.58789e-15
6.14136e-16
3.93778e-16
2.57501e-16
2.57866e-19
2.57149e-19
2.59089e-19
2.56057e-19
2.58795e-19
2.47921e-19
2.38167e-19
2.5325e-19
2.59902e-19
2.5017e-19
2.55186e-19
2.63421e-19
2.24707e-19
2.61934e-19
2.38999e-19
2.70637e-19
2.34815e-19
2.53877e-19
2.47867e-19
2.50456e-19
2.51857e-19
2.50602e-19
2.53971e-19
2.54063e-19
2.60537e-19
2.63274e-19
2.68599e-19
2.69287e-19
2.74261e-19
2.70977e-19
2.76111e-19
2.73173e-19
2.76525e-19
2.7914e-19
2.80087e-19
2.81542e-19
2.82096e-19
2.8288e-19
2.83886e-19
2.86772e-19
2.95564e-19
3.26532e-19
4.32298e-19
8.02455e-19
2.07108e-18
6.5611e-18
9.32065e-18
4.15491e-18
5.28344e-19
-3.80825e-20
4.0214e-19
4.17757e-19
-7.27371e-19
1.0786e-18
-1.9483e-19
-7.53402e-18
7.59221e-18
2.82843e-18
-1.08195e-17
-7.32415e-18
2.27715e-17
-4.14851e-19
-2.76671e-17
-2.15343e-18
1.96089e-17
3.64102e-18
-1.22053e-17
-1.08313e-17
-1.36905e-18
2.78596e-18
-1.16322e-19
-1.13046e-17
-1.19506e-17
-2.29013e-18
-6.75299e-18
-9.16012e-18
-1.38206e-17
-1.44877e-17
-1.0912e-17
-3.119e-17
-1.70371e-17
-4.67562e-17
-3.2585e-17
-1.03777e-16
-4.0874e-17
1.69927e-17
-6.75443e-17
1.78464e-16
1.31554e-16
-2.76842e-16
1.76383e-15
-3.13865e-16
-2.65988e-15
8.84338e-15
-6.75525e-15
-1.73915e-14
3.49903e-14
2.88176e-14
-5.57188e-14
-6.96598e-14
4.28253e-14
1.13132e-13
5.27001e-14
-8.55924e-15
3.63459e-16
-2.80567e-16
-1.70154e-14
-1.11069e-14
-8.30518e-15
-1.99351e-15
2.22359e-16
5.28668e-17
-6.07745e-16
-1.89363e-15
-1.95622e-15
-1.55305e-15
-5.55126e-16
-1.35606e-16
1.12607e-16
3.35303e-19
3.29995e-19
3.2699e-19
3.24761e-19
3.25362e-19
3.41429e-19
3.19708e-19
3.30581e-19
3.35374e-19
3.15112e-19
3.26008e-19
3.00769e-19
3.32098e-19
3.067e-19
2.96706e-19
2.88143e-19
3.02616e-19
3.13129e-19
3.06193e-19
3.18972e-19
3.22519e-19
3.29602e-19
3.32561e-19
3.39772e-19
3.29524e-19
3.30859e-19
3.32194e-19
3.35664e-19
3.39286e-19
3.36331e-19
3.39974e-19
3.46807e-19
3.53549e-19
3.58068e-19
3.60853e-19
3.66558e-19
3.6868e-19
3.73722e-19
3.73172e-19
3.81844e-19
3.74113e-19
3.92234e-19
4.20138e-19
5.46843e-19
1.01106e-18
4.30081e-18
5.19683e-18
4.84955e-18
-3.71956e-18
-3.72694e-18
8.82582e-19
2.12456e-18
-5.30535e-18
-4.29896e-18
2.03586e-17
-2.13268e-17
-1.99113e-17
1.71828e-17
7.24054e-18
-2.64593e-17
1.75497e-17
2.5506e-17
-2.3555e-17
-2.45374e-17
1.67278e-17
1.05776e-17
-7.33465e-18
-1.22721e-19
-9.46852e-18
-1.52225e-17
1.08605e-17
7.84333e-18
-2.25589e-17
-1.99377e-18
1.40273e-17
-8.05435e-18
-1.24881e-17
-2.05655e-17
1.94616e-18
-1.98271e-18
-4.91198e-17
5.70803e-17
-1.37453e-16
-6.37059e-17
7.04705e-17
-1.76079e-16
4.72803e-16
-6.78623e-16
6.7691e-16
2.32762e-15
-4.94019e-15
3.9435e-15
4.92882e-15
-1.71055e-14
1.56552e-14
3.37015e-14
-6.33917e-14
-9.38712e-14
6.3385e-14
1.86195e-13
6.95912e-14
-1.40726e-13
-2.08209e-13
-1.14662e-13
-4.57742e-15
1.03203e-14
-7.29261e-15
-7.61197e-15
-6.20638e-15
-7.81119e-16
-9.5845e-17
-5.99331e-16
-1.40491e-15
-2.49609e-15
-2.54534e-15
-1.84451e-15
-1.08718e-15
-4.73694e-16
-4.67073e-18
2.19087e-19
2.27244e-19
2.32591e-19
2.32712e-19
2.35701e-19
2.35726e-19
2.95633e-19
2.57231e-19
2.98902e-19
2.83592e-19
3.06014e-19
3.11088e-19
3.24099e-19
3.4558e-19
4.00315e-19
3.88989e-19
4.20277e-19
4.15911e-19
4.14151e-19
4.36419e-19
4.31689e-19
4.31325e-19
4.39989e-19
4.43935e-19
4.67428e-19
4.74652e-19
4.75681e-19
4.82729e-19
4.82119e-19
4.9386e-19
4.91919e-19
5.01681e-19
4.98751e-19
5.08588e-19
5.10692e-19
5.14106e-19
5.1749e-19
5.1892e-19
5.20985e-19
5.23451e-19
5.23233e-19
5.16705e-19
4.92001e-19
3.37449e-19
-7.3806e-19
-7.84308e-18
-1.22556e-17
-7.53546e-18
-6.59863e-18
-1.5142e-17
-1.3029e-17
8.71191e-18
-7.96631e-18
-2.8123e-17
3.38261e-17
3.59319e-17
-5.51418e-17
-5.09647e-17
-7.82316e-18
2.42904e-18
3.47371e-17
4.67365e-17
1.76941e-17
-3.1828e-17
-3.20138e-17
5.9007e-18
1.67778e-17
1.03924e-17
1.82368e-17
-4.22374e-17
-1.72922e-17
3.57469e-17
-7.57084e-18
-7.53286e-18
1.88241e-17
1.54265e-17
3.49902e-18
4.85209e-18
-4.19764e-17
5.09449e-17
-4.34128e-17
-3.74772e-17
2.67036e-16
-9.39545e-16
1.07452e-15
-7.20122e-17
-7.5693e-16
2.01548e-15
-4.123e-15
4.40622e-15
-1.05549e-15
-6.40671e-15
9.10874e-15
5.74787e-15
-3.96626e-14
-1.72837e-14
7.67975e-14
1.67523e-13
5.83945e-14
-2.41807e-13
-2.52133e-13
-6.964e-14
9.12178e-14
1.52457e-13
1.18579e-13
5.03314e-14
1.19972e-14
-2.1627e-15
-4.02391e-15
-3.23907e-16
-4.90633e-16
-1.03603e-15
-1.79248e-15
-2.49e-15
-2.47496e-15
-1.71496e-15
-1.17921e-15
-5.98801e-16
-7.74233e-17
4.04952e-19
4.24333e-19
4.38376e-19
4.72291e-19
4.71047e-19
4.95682e-19
5.11624e-19
4.91566e-19
5.31433e-19
5.2796e-19
5.55228e-19
5.82596e-19
5.91036e-19
6.20365e-19
6.07346e-19
6.51284e-19
6.24337e-19
6.55833e-19
6.79543e-19
6.79426e-19
6.92836e-19
7.10834e-19
7.13148e-19
7.23499e-19
7.08214e-19
7.15689e-19
7.15294e-19
7.35595e-19
7.1731e-19
7.36542e-19
7.21633e-19
7.2662e-19
7.14341e-19
7.06867e-19
6.97318e-19
6.92346e-19
6.91069e-19
6.8575e-19
6.85566e-19
6.81081e-19
6.76101e-19
6.59604e-19
6.01006e-19
2.25867e-19
-2.33434e-18
-1.43435e-17
-4.32396e-17
-4.92545e-17
-2.52454e-17
-2.35641e-17
-5.14066e-17
-4.41686e-17
-4.21591e-17
-4.07699e-17
1.55134e-17
6.7166e-17
-3.13527e-18
-7.69143e-17
-8.94843e-17
-1.10081e-16
3.16968e-17
1.52314e-16
8.99751e-17
2.45285e-17
-5.338e-17
-8.16801e-17
-1.87819e-17
5.55114e-17
4.48879e-17
1.67606e-17
-3.48989e-17
-4.89882e-17
-3.4716e-18
1.94516e-17
2.83309e-17
2.587e-17
1.96952e-17
2.91119e-18
3.93874e-18
-2.50215e-18
-2.02561e-17
3.9174e-17
4.19852e-17
-1.73726e-16
3.08793e-16
-4.12049e-16
9.68051e-16
-3.15484e-15
6.74876e-15
-1.78236e-14
2.40899e-14
-3.80787e-15
-3.29891e-14
1.88195e-14
9.08174e-14
-7.77297e-15
-1.66969e-13
-2.12522e-13
-2.17915e-13
1.56914e-14
2.89412e-13
2.71854e-13
2.13467e-13
1.18339e-13
1.80346e-14
-2.29152e-14
-1.89457e-14
-1.20984e-14
-3.02249e-15
1.43417e-15
2.0359e-16
-1.15761e-15
-1.85239e-15
-1.95359e-15
-1.59595e-15
-1.02687e-15
-7.40383e-16
-5.03247e-16
-1.03273e-16
7.1592e-19
7.103e-19
7.1048e-19
6.97042e-19
7.0875e-19
7.39008e-19
6.38984e-19
7.42163e-19
6.37382e-19
7.51643e-19
7.03057e-19
7.14448e-19
7.52848e-19
6.6944e-19
7.21919e-19
6.94819e-19
7.14278e-19
7.03468e-19
7.06807e-19
6.94588e-19
6.85727e-19
6.69461e-19
6.63214e-19
6.5884e-19
6.55077e-19
6.6788e-19
6.59999e-19
6.48211e-19
6.65662e-19
6.41806e-19
6.49988e-19
6.39106e-19
6.43905e-19
6.43573e-19
6.45149e-19
6.46016e-19
6.44282e-19
6.42747e-19
6.42671e-19
6.43423e-19
6.41443e-19
6.41476e-19
6.40056e-19
6.12008e-19
9.02804e-19
3.42479e-18
-1.16761e-16
-1.83737e-16
-1.29922e-16
-7.94743e-17
-9.70565e-17
-1.10695e-16
-1.05977e-16
-1.25984e-16
2.48136e-18
1.33782e-16
6.81914e-17
-1.07614e-16
-1.76313e-16
-2.30811e-16
-8.88324e-17
2.40293e-16
2.50804e-16
1.71897e-16
-3.40381e-17
-2.1209e-16
-1.01727e-16
3.42325e-17
7.70871e-17
9.79083e-17
2.22625e-17
-1.14964e-16
-5.02547e-17
1.64193e-17
7.3518e-17
7.24165e-17
4.43452e-17
8.20458e-18
-1.3254e-17
-1.3316e-17
-3.48554e-17
9.76177e-17
-1.22954e-16
6.46051e-16
-1.0588e-15
4.22152e-15
-7.41483e-15
9.16673e-15
-1.07217e-15
-3.27802e-15
-2.28964e-14
3.31686e-14
2.9905e-14
-9.65674e-14
-1.24971e-13
3.00645e-14
2.03193e-13
2.98366e-13
2.71271e-13
2.43759e-13
7.79091e-14
-1.70016e-13
-1.77318e-13
-1.57154e-13
-1.57325e-13
-9.78644e-14
-3.2106e-14
-6.65927e-15
-1.29422e-15
8.53004e-17
-2.90408e-16
-1.53548e-15
-1.72775e-15
-1.48589e-15
-1.12496e-15
-7.60251e-16
-5.535e-16
-3.15289e-16
-1.00693e-16
6.50629e-19
6.40906e-19
6.41234e-19
6.43618e-19
6.34169e-19
6.01594e-19
6.35239e-19
6.2647e-19
6.4932e-19
6.10601e-19
5.76158e-19
5.9583e-19
5.4307e-19
5.83553e-19
5.23502e-19
5.33426e-19
5.0781e-19
5.0771e-19
4.81783e-19
5.04474e-19
4.94596e-19
5.04943e-19
5.21576e-19
5.19077e-19
5.25718e-19
5.12053e-19
5.1386e-19
5.39076e-19
5.1589e-19
5.48842e-19
5.40349e-19
5.58525e-19
5.55487e-19
5.70172e-19
5.76065e-19
5.81243e-19
5.90137e-19
5.94322e-19
5.96654e-19
6.02904e-19
6.02127e-19
5.82821e-19
1.14756e-18
-7.16227e-19
-4.79662e-18
-3.09316e-17
-1.18397e-16
-3.14855e-16
-2.69398e-16
-1.43803e-16
-1.39382e-16
-1.97221e-16
-2.07993e-16
-2.26956e-16
2.90941e-17
2.87584e-16
2.48494e-16
-1.02727e-16
-3.5259e-16
-4.83507e-16
-1.89292e-16
2.85757e-16
5.22456e-16
3.87143e-16
7.66999e-17
-3.15788e-16
-2.95391e-16
-5.23744e-17
7.07589e-17
1.84348e-16
1.49145e-16
-1.75974e-16
-1.46998e-16
3.98893e-17
1.52878e-16
1.66213e-16
1.14937e-16
4.07768e-17
-2.50925e-17
-1.14039e-17
-1.26875e-16
1.93011e-16
-3.51673e-16
2.97738e-16
1.35016e-15
-9.46441e-15
2.58608e-14
-3.0901e-14
-1.34272e-16
4.50338e-14
-1.56716e-14
-7.08417e-14
6.97905e-14
1.77225e-13
1.38236e-13
-3.56788e-14
-1.88253e-13
-2.34898e-13
-2.92853e-13
-2.54079e-13
-2.81604e-13
-2.74302e-13
-1.02696e-13
-6.21667e-14
-7.88812e-14
-1.69825e-14
3.32731e-14
1.33817e-14
-1.50933e-14
-1.06108e-14
-3.20616e-15
-1.96139e-15
-1.70222e-15
-1.21825e-15
-7.95677e-16
-5.02827e-16
-3.18116e-16
-1.62732e-16
-8.18114e-17
5.49136e-19
5.51257e-19
5.51781e-19
5.44478e-19
5.69359e-19
5.2554e-19
6.01418e-19
4.98522e-19
5.26214e-19
5.04416e-19
5.98541e-19
5.20469e-19
5.83468e-19
5.24745e-19
5.59127e-19
5.41804e-19
5.73051e-19
5.59692e-19
5.96776e-19
5.80754e-19
6.09021e-19
6.26654e-19
6.19479e-19
6.21319e-19
6.31266e-19
6.37288e-19
6.49248e-19
6.3008e-19
6.67479e-19
6.6193e-19
6.74803e-19
6.72657e-19
6.71595e-19
6.76211e-19
6.7422e-19
6.76289e-19
6.73248e-19
6.74622e-19
6.73766e-19
6.78058e-19
6.59683e-19
7.65929e-19
3.89095e-19
2.0266e-18
-2.00686e-18
-1.79338e-17
-1.99991e-16
-4.89541e-16
-3.49229e-16
-1.43983e-16
-1.88031e-17
-4.04426e-16
-5.57713e-16
-5.03643e-16
1.34689e-16
7.80214e-16
6.9351e-16
-5.03809e-17
-6.47457e-16
-8.87951e-16
-4.08034e-16
4.61357e-16
9.63661e-16
7.65454e-16
9.86198e-17
-5.03408e-16
-5.97638e-16
-1.87461e-16
1.22613e-16
2.72134e-16
2.50966e-16
-7.2981e-17
-2.1253e-16
6.28464e-17
2.56112e-16
2.98579e-16
2.02108e-16
5.96511e-17
-6.54704e-17
-1.45195e-16
6.9629e-17
-4.59326e-16
1.13127e-15
-2.26503e-15
3.43335e-15
2.51537e-15
-2.90193e-14
6.15168e-14
-4.4473e-14
-1.62695e-14
5.50195e-14
-2.8982e-14
-2.91008e-13
-3.59887e-13
-2.23463e-13
-8.90477e-14
1.99682e-14
6.99441e-14
6.15823e-14
1.05653e-13
8.28968e-14
1.34997e-13
2.15875e-13
1.26219e-13
4.9936e-14
8.41267e-14
8.22066e-14
1.21117e-14
-1.68667e-14
-1.78903e-15
2.86357e-15
4.96869e-16
-9.66018e-16
-9.82936e-16
-6.324e-16
-4.30979e-16
-2.62492e-16
-1.05543e-16
-6.02815e-17
6.01887e-19
6.06016e-19
6.06183e-19
5.93887e-19
5.89819e-19
6.1467e-19
6.13719e-19
6.45658e-19
6.31833e-19
6.46307e-19
6.06612e-19
6.46564e-19
6.47205e-19
6.44148e-19
6.75543e-19
6.78683e-19
6.63129e-19
6.97429e-19
7.1451e-19
7.01502e-19
7.2323e-19
7.03669e-19
7.10135e-19
7.14753e-19
7.14551e-19
7.36576e-19
7.23199e-19
7.45483e-19
7.19671e-19
7.22129e-19
7.13178e-19
7.15176e-19
6.99901e-19
7.01807e-19
6.96645e-19
6.97171e-19
6.95031e-19
6.94925e-19
6.94165e-19
6.90563e-19
6.85981e-19
5.97643e-19
2.45884e-19
-1.02165e-18
-1.11162e-17
-6.14191e-17
-5.15745e-16
-6.79782e-16
-8.32426e-16
2.00729e-16
5.624e-16
-8.0633e-16
-1.45988e-15
-1.28113e-15
1.3861e-16
1.51254e-15
1.43132e-15
2.14352e-16
-9.90563e-16
-1.59907e-15
-7.57646e-16
6.94686e-16
1.68597e-15
1.38562e-15
4.52785e-17
-9.82468e-16
-1.28057e-15
-5.14298e-16
1.86257e-16
4.1843e-16
5.72591e-16
1.27163e-17
-4.31975e-16
3.6818e-16
6.79179e-16
5.90494e-16
3.48916e-16
-1.31889e-17
-2.50968e-16
-3.05153e-16
9.84526e-18
-6.66427e-16
8.53941e-16
-1.95653e-15
-2.86339e-15
1.21938e-14
-2.18332e-14
-1.62497e-14
7.2615e-15
-7.09484e-14
3.3889e-14
3.60984e-13
4.97633e-13
4.20892e-13
3.56703e-13
2.61377e-13
2.14064e-13
1.69966e-13
1.60568e-13
1.86525e-13
1.4681e-13
1.73462e-13
1.95177e-13
8.26928e-14
4.23597e-14
9.13953e-14
4.0983e-14
-2.26771e-14
-7.97898e-15
1.73841e-14
1.37433e-14
3.81442e-15
-6.4238e-16
-1.07088e-15
-5.95276e-16
-3.22128e-16
-1.95941e-16
-8.07278e-17
-3.85399e-17
6.16844e-19
6.22325e-19
6.46817e-19
6.52412e-19
6.21192e-19
6.83395e-19
5.77135e-19
6.20717e-19
6.2564e-19
6.93614e-19
6.01554e-19
7.21289e-19
6.10943e-19
7.44012e-19
7.25251e-19
7.40483e-19
7.1399e-19
6.96736e-19
7.2513e-19
7.27866e-19
7.20253e-19
6.95149e-19
6.93821e-19
6.85559e-19
7.01138e-19
6.90601e-19
7.00582e-19
6.92608e-19
6.82727e-19
6.78986e-19
6.85332e-19
6.88583e-19
6.85992e-19
6.79322e-19
6.79353e-19
6.75062e-19
6.76231e-19
6.73529e-19
6.7202e-19
6.69706e-19
6.80418e-19
6.56534e-19
5.4887e-19
8.22014e-20
-2.09423e-17
-4.80777e-18
-1.11409e-15
-1.7321e-15
-2.73038e-15
9.34484e-16
2.26418e-15
-1.15806e-15
-2.91288e-15
-2.74319e-15
1.26095e-17
2.15256e-15
2.32742e-15
8.92403e-16
-7.1805e-16
-1.8576e-15
-1.11796e-15
4.46822e-16
1.86242e-15
2.2304e-15
-1.76005e-16
-1.97755e-15
-1.82788e-15
-1.88994e-15
-1.93415e-16
2.31669e-15
1.16862e-15
-4.72688e-16
3.08738e-16
1.05999e-15
1.45547e-15
7.55338e-16
1.54496e-16
-5.55398e-16
-6.5391e-16
-7.5553e-16
-3.66354e-16
7.7368e-16
-3.10905e-15
1.34611e-14
-3.81725e-14
6.04469e-14
-5.16101e-14
2.01068e-14
8.83008e-14
-7.31083e-14
-6.50542e-13
-6.17142e-13
-5.05595e-13
-4.22024e-13
-3.6984e-13
-3.2224e-13
-2.58926e-13
-1.81018e-13
-1.2577e-13
-9.40301e-14
-1.12287e-13
-8.01492e-14
-6.5048e-14
-1.43291e-13
-6.43523e-14
2.59727e-14
-2.70511e-14
-4.13493e-14
4.34627e-15
2.32934e-14
1.53605e-14
4.46771e-15
-7.85719e-16
-1.06954e-15
-5.1324e-16
-2.13718e-16
-1.41252e-16
-7.16973e-17
-2.80355e-17
6.20585e-19
6.14269e-19
5.90643e-19
5.93865e-19
5.81496e-19
6.17092e-19
6.44146e-19
7.01873e-19
6.8527e-19
5.86764e-19
7.36615e-19
6.87533e-19
7.11128e-19
7.19083e-19
7.08168e-19
7.12501e-19
7.57758e-19
7.52888e-19
7.06611e-19
7.08212e-19
6.9115e-19
7.30136e-19
7.08294e-19
7.26614e-19
7.40649e-19
7.2933e-19
7.19566e-19
6.90488e-19
7.02433e-19
6.8695e-19
6.87975e-19
6.75504e-19
6.6786e-19
6.60908e-19
6.43003e-19
6.44967e-19
6.31433e-19
6.34463e-19
6.33054e-19
6.24873e-19
6.35728e-19
5.83756e-19
-4.73188e-21
-4.79605e-19
-5.87478e-17
1.76442e-16
-1.56102e-15
-3.60499e-15
-4.58796e-15
-2.8235e-15
1.81781e-15
-1.88184e-15
-3.07459e-15
-3.62497e-15
-1.70612e-15
9.0113e-16
3.04347e-15
3.44931e-15
1.27865e-15
-1.09445e-15
-2.16516e-15
-9.76533e-16
1.10041e-15
1.719e-15
3.1357e-16
-3.04673e-15
-4.16168e-15
-2.52892e-15
-4.84496e-16
2.16731e-15
3.02281e-15
2.07705e-15
1.54384e-15
1.86033e-15
1.23428e-15
2.78401e-16
-9.68919e-16
-1.54843e-15
-1.93246e-15
-1.05962e-15
-7.56175e-16
-1.1459e-15
4.73716e-15
-1.67453e-14
5.25904e-14
-9.4924e-14
5.85311e-14
-2.51359e-13
3.94835e-14
7.42168e-13
9.9736e-13
6.23475e-13
6.15752e-13
4.47616e-13
2.81822e-13
1.03041e-13
8.92182e-15
-4.85041e-14
-7.96494e-14
-1.07937e-13
-1.56975e-13
-1.30817e-13
-1.2673e-13
-1.52972e-13
-1.76873e-14
1.99288e-14
-5.79173e-14
-3.6972e-14
6.98377e-15
1.81953e-14
1.44294e-14
4.84269e-15
-6.78924e-16
-9.85299e-16
-4.40329e-16
-1.24762e-16
-7.89258e-17
-4.25743e-17
-2.56745e-17
6.68146e-19
6.43883e-19
6.34073e-19
6.49334e-19
6.53078e-19
7.5201e-19
6.8239e-19
8.39066e-19
7.0059e-19
8.38938e-19
7.42395e-19
6.51701e-19
8.242e-19
6.70659e-19
7.20167e-19
6.80706e-19
7.03148e-19
6.34056e-19
6.15435e-19
6.33827e-19
6.56752e-19
6.4249e-19
6.54522e-19
6.58524e-19
6.12429e-19
6.2333e-19
5.77342e-19
5.81696e-19
5.68186e-19
5.6121e-19
5.54989e-19
5.43538e-19
5.63893e-19
5.5523e-19
5.56059e-19
5.53602e-19
5.57083e-19
5.54686e-19
5.53019e-19
5.41675e-19
6.02598e-19
1.86971e-19
-1.18758e-18
-1.26177e-18
-1.80715e-16
6.14458e-16
-2.77264e-15
-4.79599e-15
-5.83137e-15
-6.22458e-15
-3.89937e-15
-3.51911e-16
-1.22285e-15
-3.06868e-15
-3.09763e-15
-1.49175e-15
2.22802e-15
4.83276e-15
3.77685e-15
-3.01711e-17
-3.14727e-15
-3.43926e-15
-1.82086e-15
1.40971e-15
2.02652e-15
-2.76054e-15
-3.62907e-15
-4.1469e-15
-1.67605e-15
4.00245e-15
5.96963e-15
2.87408e-15
1.66855e-15
1.98647e-16
-3.14554e-16
-1.16968e-15
-1.76828e-15
-2.27208e-15
-2.44274e-15
-4.0141e-16
-3.67631e-15
6.62626e-15
-2.3609e-14
7.51575e-14
-1.30074e-13
5.24526e-14
4.35181e-13
2.59696e-13
-7.6734e-13
-9.66681e-13
-4.23409e-13
-2.97602e-13
-1.464e-13
3.3516e-14
1.29044e-13
1.95012e-13
1.93307e-13
1.49651e-13
7.85714e-14
6.28438e-14
2.90015e-14
3.83068e-14
-1.07996e-14
-4.80288e-14
3.59382e-14
-1.45692e-14
-7.5226e-14
-2.5371e-14
1.02006e-14
1.81947e-14
1.23253e-14
1.52538e-15
-2.13972e-15
-1.45313e-15
-5.19332e-16
-8.02288e-17
-2.86508e-17
-2.52469e-17
-2.84738e-17
7.23026e-19
7.67403e-19
7.52425e-19
7.41693e-19
7.21529e-19
6.40998e-19
6.27582e-19
6.226e-19
5.62821e-19
6.98042e-19
5.04028e-19
6.84496e-19
5.37675e-19
6.84398e-19
5.50765e-19
5.97407e-19
5.47249e-19
6.2567e-19
5.84878e-19
5.97543e-19
5.22922e-19
5.58677e-19
5.42263e-19
5.33281e-19
5.01815e-19
4.88057e-19
5.1308e-19
5.14986e-19
5.17919e-19
5.0035e-19
5.13093e-19
5.06343e-19
4.96392e-19
4.93745e-19
4.88158e-19
4.86668e-19
4.7923e-19
4.81799e-19
4.6265e-19
4.78717e-19
4.80772e-19
-9.09422e-19
-6.25023e-18
-9.53714e-18
-7.87162e-16
1.77491e-15
-2.12436e-15
-8.09631e-15
-1.07009e-14
-9.18448e-15
-7.55456e-15
-5.22148e-15
5.67056e-15
4.78612e-15
-6.03692e-15
-6.55017e-15
8.66493e-16
8.1454e-15
8.48596e-15
-8.73342e-16
-7.09971e-15
-8.30123e-15
-6.63666e-15
3.27997e-15
4.01579e-15
-2.55079e-15
-6.05028e-15
-6.88163e-15
-1.51655e-15
6.98832e-15
8.4968e-15
3.57118e-15
-1.40594e-15
-3.29809e-15
-4.1704e-15
-4.32276e-15
-4.50546e-15
-3.84601e-15
-3.69767e-15
-1.1337e-15
-2.52063e-15
-1.3548e-15
7.75285e-15
-7.68751e-14
2.42365e-13
-1.19628e-12
-6.08044e-13
3.47357e-13
6.39459e-13
-2.30326e-13
-5.84284e-13
-6.22612e-13
-5.96196e-13
-4.41472e-13
-2.56546e-13
-1.55384e-13
-1.31971e-14
2.68997e-14
8.55989e-14
1.03092e-13
8.38886e-14
8.34574e-14
4.63211e-14
2.99721e-14
6.87355e-14
-1.99546e-14
-4.08472e-14
3.44668e-15
2.08734e-14
1.48072e-14
1.90771e-15
-5.52183e-15
-3.79338e-15
-1.49578e-15
-5.02981e-16
-1.6178e-17
1.70505e-17
-1.6115e-18
-3.32659e-17
6.51301e-19
6.31016e-19
6.61491e-19
6.71268e-19
7.59081e-19
6.53383e-19
8.30407e-19
6.43834e-19
8.1539e-19
6.09146e-19
7.59512e-19
6.86942e-19
6.03608e-19
6.4266e-19
5.65326e-19
6.41521e-19
5.16322e-19
6.65716e-19
5.73553e-19
6.52945e-19
5.32737e-19
5.93696e-19
5.74682e-19
5.68035e-19
5.51866e-19
5.87068e-19
5.42632e-19
5.18598e-19
4.77663e-19
4.57334e-19
4.43942e-19
4.18136e-19
3.90979e-19
4.12595e-19
3.90423e-19
3.78775e-19
3.74251e-19
3.61763e-19
3.606e-19
3.03071e-19
2.48486e-19
1.37969e-19
-1.4516e-17
8.94153e-17
-3.14528e-15
6.38141e-15
-1.61174e-15
-1.01626e-14
-1.69994e-14
-1.28222e-14
-8.43215e-15
1.26996e-15
1.39502e-14
2.00743e-14
-1.02641e-15
-7.8601e-15
-2.32057e-17
1.68113e-14
9.41828e-15
-9.22331e-16
-1.11437e-14
-1.31037e-14
-1.01854e-14
3.37155e-15
3.96508e-15
-4.84405e-15
-1.19254e-14
-6.17729e-15
-4.43052e-15
7.91679e-15
1.52182e-14
1.95022e-15
-5.54732e-15
-9.21453e-15
-9.71942e-15
-8.12226e-15
-7.08799e-15
-5.63441e-15
-4.85954e-15
-4.17079e-15
6.05174e-15
-1.68472e-14
-3.14755e-14
-4.94772e-14
2.04306e-12
1.97406e-12
1.69767e-13
9.51076e-13
1.08669e-12
1.58369e-12
1.39768e-12
7.69578e-13
3.62904e-13
3.67023e-14
-1.86918e-13
-2.20926e-13
-2.24854e-13
-1.60578e-13
-7.88026e-14
6.73586e-15
3.54382e-14
7.84349e-14
6.93359e-14
6.87692e-14
6.02493e-14
-2.1945e-14
-1.34403e-14
2.4085e-14
2.65214e-14
1.80803e-15
-1.35404e-14
-1.21079e-14
-4.89856e-15
-1.69602e-15
-5.23731e-16
3.46204e-17
4.03265e-17
1.62906e-17
-3.09295e-17
7.09752e-19
7.11988e-19
6.61939e-19
6.25099e-19
6.40228e-19
7.34438e-19
6.27763e-19
6.36471e-19
6.73507e-19
5.41438e-19
6.75418e-19
4.464e-19
7.23332e-19
4.77617e-19
6.47353e-19
4.37935e-19
6.16483e-19
4.60579e-19
5.35117e-19
3.94408e-19
4.53355e-19
4.30107e-19
3.35192e-19
3.48149e-19
3.31574e-19
3.11128e-19
2.61014e-19
2.89081e-19
2.53258e-19
2.77552e-19
2.4499e-19
2.31599e-19
2.55593e-19
2.31228e-19
2.42142e-19
2.54418e-19
2.57711e-19
2.52711e-19
2.02553e-19
-4.23762e-20
-1.01628e-18
-4.91074e-18
-5.32154e-17
6.60265e-16
-1.03225e-14
2.03518e-14
5.00336e-16
-1.07731e-14
-3.27784e-14
-1.24819e-14
-1.03357e-14
2.58354e-14
5.59435e-14
8.16031e-14
7.95845e-14
5.01415e-14
6.75513e-14
7.4436e-14
6.21139e-14
2.815e-14
1.81406e-14
-3.46427e-15
-1.38024e-14
-6.39259e-15
-1.9385e-14
-2.93746e-14
-2.96521e-14
-2.85423e-14
-5.02861e-15
1.44308e-14
-6.33929e-15
-2.16276e-14
-3.08676e-14
-3.20434e-14
-3.08199e-14
-2.74004e-14
-2.78262e-14
-2.73799e-14
-2.70145e-14
-2.56159e-15
-1.38836e-14
5.69227e-13
4.78001e-13
-4.2449e-12
-3.33917e-12
-1.57605e-12
-2.18558e-12
-2.63407e-12
-1.87588e-12
-1.10969e-12
-1.83604e-13
3.38628e-13
5.172e-13
5.17931e-13
3.25251e-13
1.14686e-13
1.2948e-14
-1.03706e-13
-1.36515e-13
-1.21838e-13
-8.52644e-14
-2.25593e-14
-4.65591e-15
1.13068e-14
2.24755e-15
-3.37411e-14
4.11012e-15
4.38622e-14
2.62955e-14
-1.23245e-14
-2.23008e-14
-1.24309e-14
-3.91372e-15
-1.16159e-15
-9.09411e-17
1.11094e-16
5.12107e-17
3.25763e-17
-2.18141e-17
7.17052e-19
7.31835e-19
7.60256e-19
7.43202e-19
6.84429e-19
7.27035e-19
5.70826e-19
6.37823e-19
3.85713e-19
6.83312e-19
4.68103e-19
7.0304e-19
4.94124e-19
5.18496e-19
6.18439e-19
4.78805e-19
5.93932e-19
3.24515e-19
4.05938e-19
2.83945e-19
4.16632e-19
1.1537e-19
3.17163e-19
1.95302e-19
2.68726e-19
1.73395e-19
2.64168e-19
2.15138e-19
2.82855e-19
2.61487e-19
2.61159e-19
3.10549e-19
3.05746e-19
3.14458e-19
3.08907e-19
3.2398e-19
3.2513e-19
3.00669e-19
3.46436e-19
-4.17177e-19
-2.57781e-18
-1.40896e-17
-2.85521e-16
3.92967e-15
-2.99553e-14
3.99402e-14
7.87812e-15
-6.40891e-16
-4.9211e-14
2.12479e-14
-2.78368e-14
7.98529e-14
1.32993e-13
2.42094e-13
5.60095e-13
4.54992e-13
5.04297e-13
4.62034e-13
3.54246e-13
2.89816e-13
1.9751e-13
7.75086e-14
-2.85734e-14
-8.05151e-14
-1.11597e-13
-1.15997e-13
-1.06733e-13
-4.36703e-14
-4.52705e-15
-2.08154e-14
-3.15967e-14
-3.63456e-14
-3.65167e-14
-4.13041e-14
-4.78387e-14
-6.27625e-14
-7.99927e-14
-1.0987e-13
-9.69458e-14
-1.84925e-13
-1.9663e-12
-1.18993e-12
4.57389e-12
3.59267e-12
2.33666e-12
2.2903e-12
1.82734e-12
7.81098e-13
-6.82778e-13
-1.21037e-12
-1.25065e-12
-9.78046e-13
-3.18637e-13
3.07678e-14
2.32084e-13
2.7333e-13
1.9287e-13
1.2542e-13
5.49143e-14
-2.3563e-14
-7.63852e-14
-7.42744e-14
-5.68311e-14
-2.1918e-14
-4.14301e-15
3.58558e-16
4.32223e-14
6.23714e-14
1.87251e-14
-2.17558e-14
-1.99012e-14
-7.24852e-15
-2.18634e-15