/*--------------------------------*- C++ -*----------------------------------*\
| =========                 |                                                 |
| \\      /  F ield         | OpenFOAM: The Open Source CFD Toolbox           |
|  \\    /   O peration     | Version:  2.2.x                                 |
|   \\  /    A nd           | Web:      www.OpenFOAM.org                      |
|    \\/     M anipulation  |                                                 |
\*---------------------------------------------------------------------------*/
FoamFile
{
    version     2.0;
    format      ascii;
    class       surfaceScalarField;
    location    "2.9";
    object      cfmax;
}
// * * * * * * * * * * * * * * * * * * * * * * * * * * * * * * * * * * * * * //

dimensions      [0 3 -1 0 0 0 0];

internalField   nonuniform List<scalar> 
28084
(
0.00126216
0.00125241
0.00124895
0.00124487
0.00124194
0.00123957
0.00123789
0.00123678
0.00123621
0.00123612
0.00123648
0.00123723
0.00123833
0.00123972
0.00124137
0.00124322
0.00124523
0.00124735
0.00124955
0.00125181
0.00125408
0.00125633
0.00125852
0.00126065
0.00126266
0.00126453
0.00126626
0.00126786
0.00126929
0.00127045
0.00127137
0.00127216
0.00127274
0.0012731
0.00127331
0.00127316
0.0012728
0.00127231
0.00127172
0.00127123
0.00127123
0.00127103
0.00126985
0.00126606
0.00126186
0.0013437
0.00112658
0.00097774
0.00102852
0.0010574
0.00107492
0.0010887
0.00110382
0.00111823
0.00113329
0.00114763
0.00116199
0.00117635
0.00119058
0.00120491
0.00121848
0.00123071
0.0012422
0.00125315
0.00126353
0.00127315
0.00128167
0.00128851
0.00129367
0.00129789
0.00130109
0.00130136
0.00129985
0.00129768
0.00129456
0.00129105
0.00128758
0.00128366
0.00127969
0.00127657
0.00127005
0.00126324
0.00125539
0.00124419
0.00122862
0.00121542
0.00120472
0.00119517
0.00118683
0.00118026
0.00117315
0.00116502
0.00115451
0.00114273
0.00113313
0.00112604
0.00112057
0.00111846
0.00111469
0.00110969
0.00110433
0.00109159
0.00107089
0.00103912
0.00100504
0.000965064
0.000926489
0.000894595
0.000867446
0.000846793
0.000829248
0.000816416
0.000805541
0.000797369
0.00078895
0.000781389
0.000769817
0.000759185
0.00364142
0.00361921
0.00126811
0.00361046
0.00126218
0.00358896
0.00126253
0.00356144
0.00126219
0.00352649
0.00126298
0.00348477
0.00126428
0.0034365
0.00126624
0.00338206
0.00126872
0.00332183
0.00127169
0.0032565
0.00127511
0.00318661
0.00127893
0.00311232
0.00128308
0.00303414
0.00128751
0.00295259
0.00129219
0.0028682
0.00129705
0.00278143
0.00130205
0.0026928
0.00130713
0.00260281
0.00131225
0.00251193
0.00131736
0.00242059
0.00132246
0.00232921
0.00132747
0.00223814
0.00133237
0.00214776
0.00133712
0.00205836
0.00134171
0.00197025
0.00134608
0.00188367
0.00135021
0.00179889
0.0013541
0.00171604
0.00135778
0.00163529
0.00136115
0.00155677
0.00136422
0.00148069
0.0013669
0.00140708
0.00136937
0.00133599
0.00137157
0.0012675
0.0013735
0.00120156
0.00137515
0.00113824
0.00137642
0.00107778
0.00137754
0.00101999
0.00137852
0.000964946
0.00137946
0.000912815
0.00137991
0.00086306
0.00138027
0.000815569
0.001381
0.00077084
0.00138602
0.000744078
0.00139158
0.000838118
0.00140068
0.000864183
0.001324
0.000658719
0.000967182
0.000659111
0.000960917
0.000660285
0.000987408
0.000663802
0.0010113
0.00066517
0.00102472
0.000666184
0.00103816
0.000668277
0.00105269
0.000669642
0.00106763
0.000671497
0.00108303
0.000672505
0.00109676
0.000673668
0.00111034
0.000674666
0.00112371
0.000675862
0.00113669
0.000677274
0.00115052
0.000678005
0.00116279
0.000678345
0.0011737
0.000679009
0.00118306
0.000679707
0.00119211
0.000680386
0.00120058
0.000681281
0.00120823
0.00068192
0.00121522
0.000682457
0.00122143
0.000683511
0.00122732
0.000684656
0.00123369
0.000686084
0.0012394
0.000689815
0.00124451
0.000694161
0.00124886
0.000698541
0.00125375
0.000702783
0.00125811
0.000706921
0.00126269
0.00071122
0.00126651
0.000715467
0.00126921
0.000718909
0.0012696
0.000723207
0.00126796
0.000727066
0.00126452
0.000729527
0.00125925
0.00073184
0.00124904
0.000735173
0.00123416
0.000737711
0.00121704
0.000741452
0.00120328
0.000745855
0.00119077
0.000750287
0.00118209
0.000755398
0.00117574
0.000760703
0.00116969
0.000765822
0.00116164
0.000769917
0.00115154
0.000774051
0.00114141
0.000776309
0.00112022
0.000774595
0.00108759
0.000771745
0.00106076
0.000766987
0.00103244
0.000760329
0.000999822
0.000757389
0.000973031
0.000753405
0.000946823
0.00074434
0.000914015
0.000734685
0.000876988
0.000722488
0.000850233
0.000714143
0.00082585
0.000704001
0.000806351
0.000697489
0.000789829
0.000686812
0.000775819
0.000681448
0.000764958
0.000675184
0.000756812
0.000671997
0.000751391
0.000669117
0.000746884
0.000670246
0.000744848
0.000671358
0.000743267
0.000675935
0.000743294
0.00068106
0.000743087
0.000690785
0.000744571
0.000696383
0.000742701
0.000715781
0.000739363
0.00364248
0.00361981
0.00127604
0.00361069
0.00127389
0.00358877
0.00127799
0.00356084
0.00128137
0.00352551
0.00128582
0.00348345
0.00129074
0.00343594
0.00129629
0.00338246
0.00130232
0.00332311
0.00130881
0.00325838
0.00131569
0.00318871
0.00132291
0.00311461
0.00133043
0.0030366
0.00133818
0.00295518
0.0013461
0.00287089
0.00135415
0.00278419
0.00136227
0.00269561
0.00137038
0.00260564
0.00137846
0.00251476
0.00138646
0.0024234
0.00139435
0.00233197
0.00140207
0.00224085
0.00140959
0.0021504
0.00141688
0.0020609
0.00142391
0.00197267
0.00143061
0.00188598
0.00143697
0.00180105
0.00144303
0.00171807
0.00144872
0.00163719
0.00145404
0.00155848
0.00145896
0.00148221
0.00146334
0.00140842
0.0014674
0.00133712
0.0014711
0.00126839
0.00147437
0.00120214
0.00147722
0.00113847
0.00147941
0.00107751
0.00148117
0.00101896
0.00148259
0.000963263
0.0014835
0.000910442
0.00148361
0.00085964
0.001484
0.000812636
0.00148336
0.000771924
0.00148447
0.000736895
0.00148275
0.000864493
0.00147997
0.000726116
0.00115302
0.000603599
0.00090874
0.000580693
0.000898507
0.000599127
0.000916536
0.000608203
0.000944487
0.000611831
0.000963245
0.000614384
0.000980606
0.000617431
0.00099823
0.000619559
0.00101623
0.000621478
0.00103379
0.00062431
0.00104961
0.000626475
0.00106537
0.000629624
0.00108173
0.000632712
0.00109875
0.000635349
0.00111566
0.000638356
0.00113159
0.000640553
0.00114636
0.000643458
0.00115963
0.000646741
0.00117292
0.000649916
0.00118609
0.000652917
0.00119849
0.00065579
0.00120914
0.000659272
0.00121883
0.00066304
0.00122816
0.000666712
0.00123714
0.000670522
0.00124528
0.000674636
0.00125232
0.000678901
0.00125857
0.000683886
0.00126426
0.000689792
0.00126954
0.000696076
0.00127438
0.000702637
0.0012786
0.000710344
0.00128162
0.000716501
0.00128233
0.000721903
0.00127979
0.000724907
0.00127386
0.000728874
0.00126373
0.000732424
0.00125158
0.000731966
0.0012357
0.000731614
0.00120983
0.00073597
0.00119124
0.000740367
0.00117748
0.000745392
0.00116682
0.000749821
0.00115489
0.000754547
0.00114119
0.000755912
0.00112561
0.000746437
0.00109029
0.000734946
0.00102684
0.000717121
0.00096932
0.000687956
0.00090783
0.000670719
0.000860717
0.00066808
0.000822876
0.000653535
0.000787752
0.000635555
0.000749649
0.000632474
0.000724098
0.000633764
0.000702773
0.000633425
0.000680494
0.000634362
0.000664236
0.000639578
0.00065492
0.000644544
0.000648173
0.000649855
0.000644489
0.00065185
0.000643826
0.000654424
0.000645481
0.000656248
0.00064775
0.000661757
0.000651129
0.000665008
0.000655267
0.000672545
0.000661712
0.000677729
0.000669239
0.000687363
0.000679158
0.000695619
0.000688771
0.000712717
0.000701236
0.000721792
0.000713591
0.000744022
0.000725882
0.0036413
0.00361821
0.00128597
0.00360868
0.00128753
0.00358639
0.00129534
0.00355974
0.00130237
0.00352631
0.00131045
0.00348606
0.00131896
0.00343915
0.00132804
0.00338594
0.00133757
0.00332685
0.00134752
0.00326234
0.00135782
0.00319286
0.00136842
0.00311892
0.00137926
0.00304103
0.00139027
0.00295972
0.00140141
0.00287549
0.0014126
0.00278882
0.00142379
0.00270023
0.00143491
0.00261024
0.00144592
0.00251931
0.00145676
0.00242787
0.00146742
0.00233634
0.00147782
0.00224511
0.00148793
0.00215453
0.00149771
0.00206487
0.00150715
0.00197646
0.00151616
0.00188961
0.00152475
0.00180449
0.00153289
0.00172128
0.00154063
0.00164019
0.00154788
0.00156128
0.00155459
0.00148477
0.00156076
0.00141075
0.00156654
0.00133922
0.00157187
0.00127027
0.00157677
0.00120378
0.00158125
0.00113989
0.00158524
0.0010786
0.0015889
0.00101993
0.00159216
0.000963806
0.00159534
0.000910111
0.00159817
0.000859433
0.00160054
0.000811611
0.00160123
0.000769465
0.00160322
0.000740335
0.0015999
0.000791826
0.00159273
0.000658644
0.00111486
0.000580303
0.000924903
0.000549882
0.000902615
0.000561228
0.000915851
0.000569612
0.000941603
0.000576204
0.000964962
0.000581791
0.000987697
0.000589243
0.00100957
0.000593141
0.0010309
0.000598052
0.00105329
0.000604181
0.00107387
0.000608757
0.00109434
0.000614328
0.00111462
0.000618033
0.00113466
0.00062227
0.0011537
0.000627314
0.0011716
0.000631173
0.00118827
0.000635363
0.00120423
0.000638962
0.00121951
0.000643198
0.00123351
0.000647191
0.0012464
0.000651031
0.00125792
0.000655109
0.0012686
0.000659062
0.00127875
0.000663003
0.00128805
0.000667012
0.00129575
0.000671096
0.00130228
0.00067511
0.00130793
0.000679784
0.00131282
0.000684318
0.0013167
0.000689259
0.0013196
0.000695283
0.00132108
0.000701773
0.00132071
0.000708125
0.0013188
0.000714653
0.00131481
0.000721318
0.00130843
0.000724545
0.00129884
0.000725166
0.00127989
0.000729104
0.00125786
0.000729658
0.00123653
0.000723494
0.00121117
0.000723618
0.00118787
0.000734852
0.00116989
0.000734457
0.00114972
0.000713538
0.00111021
0.000710551
0.00105143
0.000708457
0.00100449
0.000682088
0.000936484
0.000666915
0.000880072
0.000665862
0.000838383
0.000654105
0.000797329
0.000635464
0.000755169
0.000631691
0.000726058
0.000634144
0.000700669
0.000626209
0.000671953
0.000626551
0.000649348
0.000630087
0.000633726
0.00063402
0.000620205
0.000638534
0.000611264
0.000642074
0.000605738
0.000647788
0.000603764
0.000651131
0.000604257
0.000657268
0.000606962
0.000661746
0.000610611
0.000668804
0.000616541
0.000672305
0.000623131
0.000680039
0.000631162
0.000684306
0.000640347
0.000695335
0.000652488
0.000703072
0.000665582
0.000722173
0.000682437
0.000731952
0.000699351
0.00075939
0.00071734
0.00363785
0.0036158
0.00129787
0.00360912
0.00130309
0.00358971
0.00131455
0.00356417
0.00132518
0.00353109
0.00133682
0.00349115
0.00134886
0.00344451
0.00136143
0.00339156
0.00137442
0.00333269
0.00138777
0.00326836
0.00140144
0.00319905
0.00141536
0.00312524
0.00142947
0.00304744
0.00144371
0.00296618
0.001458
0.00288197
0.0014723
0.00279529
0.00148652
0.00270667
0.0015006
0.00261661
0.0015145
0.00252559
0.00152815
0.00243402
0.00154154
0.00234234
0.00155458
0.00225093
0.00156725
0.00216015
0.00157949
0.0020703
0.00159129
0.00198167
0.0016026
0.00189455
0.00161334
0.00180919
0.00162359
0.00172574
0.0016333
0.00164436
0.00164245
0.00156517
0.00165094
0.00148841
0.00165873
0.00141405
0.00166604
0.00134227
0.00167272
0.00127292
0.0016789
0.00120608
0.0016843
0.00114178
0.00168885
0.0010799
0.00169251
0.00102061
0.00169532
0.000963907
0.00169758
0.000909291
0.00169864
0.000857625
0.00169956
0.000807852
0.00169721
0.000762394
0.00169731
0.000728581
0.00168953
0.000730833
0.00169351
0.000626093
0.00120084
0.000578904
0.000986869
0.000557964
0.000957645
0.000562581
0.000964346
0.000568965
0.000978794
0.00057391
0.00100217
0.000580101
0.00102711
0.000588604
0.00105026
0.000592801
0.00107295
0.000599176
0.00109865
0.000606212
0.00112229
0.000611722
0.00114737
0.000618943
0.00117074
0.000623343
0.00118967
0.000626819
0.00121022
0.000632436
0.00123104
0.000636926
0.00124848
0.000641045
0.00126455
0.000643787
0.00127875
0.000647627
0.00129233
0.000651405
0.00130527
0.000655365
0.00131722
0.000659344
0.00132799
0.000662565
0.00133692
0.00066579
0.00134499
0.00066922
0.0013523
0.000672948
0.00135817
0.000676662
0.00136297
0.00068073
0.00136664
0.000684933
0.00136965
0.000689722
0.00137237
0.000696986
0.00137407
0.000704248
0.00137436
0.000711435
0.0013727
0.000719126
0.00136745
0.000725897
0.00135876
0.000731308
0.00134724
0.000732017
0.00133402
0.00073185
0.00130605
0.000727989
0.00126765
0.000728928
0.00124117
0.000728179
0.00121583
0.000717116
0.0011833
0.000708507
0.00112896
0.000719859
0.00108578
0.000716096
0.00103867
0.00070271
0.000975848
0.000702831
0.000934479
0.000695475
0.000900203
0.000679294
0.000853283
0.000670118
0.000810554
0.000654463
0.000778744
0.000649535
0.000742871
0.000644107
0.00070683
0.000644917
0.000682577
0.000642147
0.000662337
0.000641856
0.000642555
0.000644038
0.000627979
0.000646945
0.000616975
0.000648819
0.000610049
0.00065366
0.000606137
0.000656758
0.000604137
0.00066258
0.000604851
0.000666208
0.000611284
0.000673488
0.000619489
0.000676235
0.000628127
0.000683438
0.000637224
0.000686851
0.000647423
0.000697682
0.000659435
0.000704785
0.000671073
0.000725677
0.000685023
0.00073509
0.000699929
0.00076571
0.000715165
0.00364082
0.00362141
0.0013118
0.00361508
0.00132059
0.00359601
0.00133564
0.0035708
0.0013498
0.00353803
0.00136494
0.00349838
0.00138044
0.00345201
0.00139645
0.00339929
0.00141283
0.00334062
0.00142954
0.00327645
0.00144652
0.00320727
0.00146371
0.00313355
0.00148105
0.00305581
0.00149845
0.00297456
0.00151586
0.00289032
0.00153321
0.0028036
0.00155042
0.00271489
0.00156741
0.00262471
0.00158414
0.00253354
0.00160056
0.0024418
0.00161662
0.00234992
0.00163227
0.00225829
0.00164745
0.00216725
0.00166212
0.00207715
0.00167627
0.00198822
0.0016898
0.00190081
0.00170268
0.00181513
0.00171499
0.00173137
0.00172666
0.00164965
0.00173767
0.0015701
0.00174796
0.00149299
0.00175746
0.00141831
0.00176644
0.00134617
0.00177481
0.00127651
0.00178258
0.00120933
0.00178974
0.00114464
0.00179631
0.00108242
0.00180233
0.00102282
0.00180779
0.000965613
0.00181299
0.00091087
0.00181726
0.000858576
0.00182214
0.000807902
0.00182454
0.000762176
0.0018311
0.000719661
0.00182835
0.000693951
0.00184289
0.000591996
0.00130807
0.00057076
0.00106663
0.000563542
0.00103396
0.000570972
0.00103469
0.000578452
0.00104611
0.000583672
0.00106332
0.000591123
0.00109175
0.000600561
0.00111542
0.000604845
0.00113838
0.000611741
0.00116853
0.000618693
0.00119638
0.000623831
0.00122173
0.000631679
0.00124605
0.00063421
0.0012672
0.000637235
0.00128868
0.000641801
0.00130914
0.000645285
0.00132764
0.000648969
0.00134541
0.000651107
0.0013603
0.000654259
0.00137303
0.000657443
0.00138432
0.00066119
0.0013952
0.000664861
0.00140538
0.000667198
0.00141314
0.000669575
0.00142021
0.000672502
0.00142621
0.000675808
0.00143098
0.000679033
0.00143474
0.00068245
0.00143761
0.000686251
0.00143948
0.000690936
0.00144094
0.000699256
0.001441
0.000708831
0.00143918
0.000718597
0.00143549
0.00072645
0.00142976
0.000733237
0.00142192
0.000743763
0.00140798
0.000747602
0.0013837
0.000745778
0.00135836
0.00074012
0.00133171
0.000738961
0.00129027
0.000728626
0.00123867
0.000732129
0.00119465
0.000730972
0.00116137
0.000733821
0.00111143
0.00073806
0.00105372
0.000727398
0.0010226
0.000732849
0.000984064
0.000725556
0.000936905
0.000708425
0.000897587
0.000697256
0.000858665
0.000690074
0.000813479
0.000676002
0.000777054
0.000661868
0.000748203
0.00066418
0.000719519
0.000663155
0.000692324
0.000658005
0.000672585
0.000656481
0.000656491
0.00065685
0.000639624
0.000657515
0.000627806
0.000661321
0.000619636
0.000663181
0.000614283
0.00066852
0.000616519
0.000670182
0.000623488
0.000677058
0.000630555
0.000678869
0.000638297
0.000685775
0.000646487
0.000688612
0.000655739
0.000698165
0.000666759
0.000704866
0.000678276
0.000725905
0.000691587
0.000735294
0.000703721
0.000768875
0.000716504
0.00364823
0.00362926
0.00132771
0.00362325
0.00134002
0.00360452
0.00135858
0.00357962
0.0013762
0.00354715
0.00139478
0.00350776
0.00141368
0.00346163
0.00143306
0.00340911
0.00145276
0.00335062
0.00147276
0.0032866
0.001493
0.00321753
0.0015134
0.00314386
0.00153389
0.00306615
0.00155441
0.00298489
0.00157487
0.0029006
0.00159521
0.00281378
0.00161535
0.00272494
0.00163521
0.00263458
0.00165473
0.00254321
0.00167386
0.00245124
0.00169256
0.0023591
0.00171076
0.00226719
0.0017284
0.00217586
0.00174545
0.00208542
0.00176189
0.00199616
0.00177763
0.0019084
0.00179265
0.00182235
0.00180694
0.00173821
0.00182057
0.00165613
0.00183339
0.0015762
0.00184541
0.00149871
0.00185647
0.00142369
0.00186693
0.0013511
0.00187666
0.00128103
0.00188548
0.0012135
0.00189355
0.00114836
0.00190057
0.0010858
0.00190634
0.00102568
0.00191118
0.000967839
0.00191482
0.000912286
0.00191679
0.000858633
0.00191784
0.000807071
0.00191409
0.000757979
0.00191285
0.000712118
0.00190044
0.000683471
0.00190194
0.000558982
0.00131199
0.000552091
0.00109199
0.000561899
0.00106303
0.000577598
0.00107719
0.000590568
0.00110515
0.000599772
0.00113206
0.000607932
0.00116725
0.000618826
0.00119583
0.000623568
0.00122337
0.000632206
0.00125597
0.00063831
0.00128641
0.000643279
0.00131179
0.000650646
0.00133591
0.000653221
0.00135768
0.000658337
0.00138077
0.000662095
0.00140153
0.000664602
0.00141923
0.000668611
0.00143593
0.000671153
0.00145042
0.000673906
0.00146422
0.000675772
0.00147523
0.00067864
0.00148506
0.000681123
0.00149358
0.0006823
0.00149967
0.000683916
0.00150545
0.000686078
0.00151107
0.000688665
0.00151409
0.00069125
0.00151598
0.0006941
0.00151701
0.000697332
0.00151691
0.00070298
0.00151527
0.000711752
0.00151215
0.000721055
0.00150792
0.000730672
0.00150292
0.000741624
0.00149506
0.000751083
0.00148376
0.000756273
0.00146835
0.000760863
0.00145668
0.000771096
0.00143191
0.000762458
0.0013769
0.000762452
0.00133458
0.000750104
0.00129839
0.000762867
0.00125579
0.000762577
0.00119055
0.000766956
0.00114921
0.000764321
0.00111809
0.000775549
0.00107498
0.000771508
0.0010302
0.000758489
0.000995368
0.000754786
0.000955478
0.000735764
0.000912512
0.000719304
0.000876424
0.00070687
0.000839595
0.000698769
0.000797915
0.000689463
0.00076686
0.00068523
0.000741304
0.000681055
0.000719012
0.000677016
0.000696651
0.000672704
0.000677516
0.00067067
0.000660991
0.000671679
0.000646491
0.000670515
0.000635755
0.00067393
0.000628478
0.000673588
0.000629257
0.000680349
0.000636874
0.000680852
0.00064423
0.000687603
0.000652007
0.000690208
0.000660579
0.000699391
0.000670625
0.000705229
0.000681509
0.000724594
0.0006949
0.00073425
0.000706275
0.000771714
0.000717671
0.00365797
0.00363934
0.00134567
0.00363365
0.00136139
0.00361522
0.00138339
0.00359061
0.00140439
0.0035584
0.00142633
0.00351928
0.00144855
0.00347336
0.00147123
0.00342102
0.00149419
0.00336269
0.00151742
0.00329878
0.00154084
0.00322978
0.00156439
0.00315614
0.00158798
0.00307841
0.00161154
0.0029971
0.00163499
0.00291271
0.00165827
0.00282576
0.00168128
0.00273674
0.00170395
0.00264617
0.0017262
0.00255455
0.00174799
0.0024623
0.00176927
0.00236985
0.00178998
0.0022776
0.00181004
0.00218592
0.00182941
0.0020951
0.00184811
0.00200546
0.001866
0.00191728
0.00188306
0.00183082
0.00189934
0.00174622
0.00191482
0.00166369
0.00192947
0.00158329
0.00194319
0.00150534
0.00195594
0.00142983
0.00196796
0.00135677
0.00197923
0.00128629
0.00198969
0.0012183
0.00199943
0.00115273
0.00200819
0.0010897
0.00201629
0.0010291
0.00202372
0.000970683
0.0020305
0.000914678
0.00203639
0.000860022
0.00204174
0.000808368
0.0020451
0.000758658
0.00205026
0.000724864
0.00204767
0.00065394
0.00204548
0.000577534
0.00140626
0.000538244
0.00115496
0.000573915
0.00112452
0.000596195
0.00115766
0.000615867
0.001209
0.000630205
0.00125109
0.000639427
0.00129362
0.00065159
0.00132892
0.000657246
0.00135955
0.00066669
0.00139102
0.000671386
0.00141996
0.000673997
0.00144513
0.000680068
0.00147178
0.000679526
0.00149314
0.000684351
0.00151578
0.000684987
0.00153409
0.000686935
0.0015493
0.000688472
0.00156425
0.000689576
0.0015758
0.00069106
0.00158765
0.000691862
0.00159645
0.000694051
0.00160375
0.000694309
0.00160845
0.000694596
0.00161177
0.000695765
0.00161704
0.000696844
0.00161906
0.000698343
0.0016196
0.000700018
0.00161933
0.000701885
0.001618
0.000704917
0.00161551
0.000712906
0.00161157
0.000721523
0.00160634
0.000731401
0.00160042
0.000742149
0.00159368
0.000752916
0.00158374
0.000762433
0.0015711
0.000779759
0.00155696
0.000787758
0.00154112
0.000790862
0.001503
0.000783032
0.00147231
0.00079201
0.00143351
0.000795572
0.00137658
0.000803933
0.00132122
0.000790603
0.00127948
0.000814073
0.00123091
0.000816677
0.00118229
0.000809195
0.00113973
0.000810385
0.0011051
0.000807811
0.00106531
0.000794803
0.00102423
0.000776715
0.00098541
0.000767709
0.000943158
0.000748955
0.000897735
0.000731773
0.00085557
0.000720148
0.000818121
0.000713946
0.000786529
0.000708111
0.000759998
0.000700862
0.000735568
0.00069589
0.000715478
0.000689857
0.000696527
0.00068643
0.000677606
0.000682345
0.000661214
0.000682741
0.000649147
0.000678865
0.00064006
0.000684324
0.000640345
0.000683477
0.000647865
0.000689856
0.000655231
0.000691698
0.000663189
0.000700305
0.000672633
0.000706939
0.000683239
0.000723479
0.000695705
0.000732596
0.000706199
0.000774118
0.000718108
0.00366986
0.00365163
0.00136565
0.00364622
0.0013847
0.00362809
0.00141006
0.00360374
0.00143436
0.00357179
0.00145958
0.00353289
0.00148504
0.00348719
0.00151093
0.00343502
0.00153708
0.00337682
0.00156345
0.003313
0.00158998
0.00324404
0.0016166
0.0031704
0.00164322
0.00309263
0.00166975
0.00301122
0.00169614
0.00292671
0.00172228
0.00283957
0.0017481
0.00275034
0.00177351
0.00265951
0.00179843
0.00256759
0.00182281
0.00247502
0.00184661
0.00238221
0.00186977
0.00228957
0.00189219
0.00219748
0.00191384
0.00210623
0.00193474
0.00201611
0.00195475
0.00192746
0.00197384
0.0018405
0.00199206
0.00175544
0.00200938
0.0016724
0.00202578
0.00159155
0.00204117
0.00151311
0.00205554
0.00143711
0.00206904
0.00136367
0.00208159
0.00129275
0.00209327
0.00122439
0.00210396
0.00115859
0.00211369
0.00109537
0.00212234
0.00103474
0.00212998
0.000976531
0.00213691
0.000920604
0.00214242
0.000866765
0.00214742
0.000814737
0.00214912
0.000765438
0.00215253
0.000740024
0.00214528
0.000756652
0.00214584
0.000637763
0.0017158
0.000534505
0.00130346
0.000602274
0.001275
0.000640398
0.00132493
0.00066896
0.00140076
0.000687142
0.00144895
0.000696767
0.00148904
0.000708875
0.00152741
0.000710688
0.00155496
0.000717538
0.0015832
0.000718085
0.00160667
0.000719664
0.00162494
0.000721435
0.00164749
0.000718181
0.00165994
0.000717932
0.00167436
0.000713681
0.0016867
0.000714681
0.00169934
0.000712692
0.00170902
0.000712066
0.00171468
0.000710367
0.00172317
0.000709096
0.00172651
0.000709165
0.00173453
0.000707654
0.00173481
0.000707322
0.00173461
0.000706822
0.00173838
0.000706685
0.00173766
0.00070711
0.00173519
0.000707599
0.00173161
0.000708785
0.00172808
0.000716985
0.00172288
0.000725558
0.00171633
0.000734791
0.00170868
0.000745428
0.00170004
0.00075664
0.00169142
0.000769338
0.00168064
0.000782541
0.00166665
0.000799001
0.00164872
0.000807891
0.00163632
0.000822167
0.00160992
0.000830024
0.00157976
0.000833878
0.00151733
0.000833836
0.0014736
0.000851049
0.00143395
0.000859955
0.00138344
0.000866665
0.00132972
0.000854546
0.00128727
0.000864048
0.00123732
0.000863008
0.00119196
0.000851132
0.00114927
0.000846315
0.00110513
0.000829821
0.00106046
0.0008148
0.00101452
0.000792147
0.000968078
0.000774154
0.000921515
0.000757149
0.000875648
0.000743642
0.000835831
0.000735512
0.000803487
0.000726762
0.000776316
0.000721536
0.000754259
0.000713304
0.000733702
0.000706617
0.000714424
0.000698253
0.000695251
0.000694403
0.000677531
0.000686908
0.000663444
0.000690988
0.000653592
0.000685727
0.000648042
0.000692476
0.000656874
0.000693167
0.000664801
0.000701465
0.000673694
0.000707976
0.000683738
0.000722768
0.000695659
0.000731841
0.00070563
0.000776283
0.000718235
0.00368403
0.00366609
0.00138771
0.00366097
0.00140997
0.00364311
0.00143859
0.00361902
0.0014661
0.0035873
0.00149452
0.0035486
0.00152314
0.00350308
0.00155215
0.00345106
0.0015814
0.00339297
0.00161084
0.00332921
0.00164041
0.00326027
0.00167001
0.0031866
0.00169958
0.00310875
0.00172902
0.00302722
0.00175825
0.00294253
0.00178719
0.00285518
0.00181575
0.00276568
0.00184383
0.00267454
0.00187136
0.00258228
0.00189827
0.00248933
0.00192452
0.00239611
0.00195007
0.00230303
0.00197481
0.00221047
0.00199869
0.00211873
0.0020217
0.00202813
0.00204376
0.00193895
0.00206483
0.00185145
0.0020849
0.00176583
0.00210403
0.00168225
0.00212213
0.00160082
0.00213912
0.00152181
0.00215499
0.00144523
0.00216995
0.00137116
0.00218391
0.00129965
0.00219687
0.00123074
0.00220885
0.0011644
0.00221993
0.00110056
0.00223001
0.00103948
0.0022393
0.000980546
0.00224785
0.000924377
0.00225598
0.000869392
0.0022644
0.000818754
0.00227274
0.000767405
0.00228292
0.000729225
0.00229307
0.000843426
0.00231985
0.000758176
0.00230119
0.000585103
0.00165917
0.000684598
0.00154555
0.000732205
0.00159485
0.000758163
0.00166511
0.000765899
0.00169522
0.000767813
0.00171753
0.000769274
0.00173401
0.000763386
0.00174177
0.000766844
0.0017554
0.000761963
0.0017706
0.000762512
0.00177711
0.000756238
0.00178722
0.000751557
0.00178754
0.00074626
0.00179985
0.000742084
0.0018037
0.000741466
0.0018198
0.000737195
0.00182062
0.000735781
0.00182211
0.000732055
0.00182976
0.000732175
0.00183213
0.000729564
0.00183433
0.000727322
0.00183336
0.00072634
0.00183363
0.000725027
0.00183207
0.000723928
0.00183129
0.000723113
0.00182688
0.000723336
0.00182263
0.000731442
0.0018166
0.000739692
0.00180954
0.000748389
0.00180157
0.000757606
0.0017928
0.000767712
0.00178325
0.000779729
0.0017747
0.00079359
0.00176366
0.000803485
0.00174829
0.000822368
0.00173057
0.00083723
0.00171995
0.000859751
0.00169076
0.000859168
0.00166247
0.000869367
0.00160858
0.000887673
0.00156438
0.000909522
0.00152326
0.000916452
0.00148348
0.000928247
0.00144278
0.000928115
0.0014032
0.000920838
0.00134938
0.000915309
0.00129376
0.000907826
0.00124094
0.000897673
0.00118716
0.000881368
0.00113979
0.000865136
0.00109034
0.000843863
0.00103748
0.000818284
0.000984235
0.000796565
0.000931277
0.000777527
0.00088505
0.000765432
0.000846654
0.000752627
0.000814924
0.000745537
0.000790238
0.000736445
0.000768558
0.000729909
0.00074966
0.00071923
0.000731167
0.000711071
0.000711227
0.000700405
0.000690529
0.000700322
0.000673544
0.000692119
0.000661647
0.000695643
0.000657521
0.000693971
0.000664881
0.000702288
0.000673923
0.000708585
0.000683432
0.000722342
0.000694831
0.000731832
0.000704817
0.000778295
0.000717505
0.00370031
0.00368272
0.00141184
0.00367784
0.00143721
0.00366025
0.001469
0.0036364
0.00149962
0.0036049
0.00153113
0.0035664
0.00156281
0.00352104
0.00159486
0.00346915
0.00162711
0.00341115
0.00165954
0.00334743
0.00169205
0.00327848
0.00172456
0.00320475
0.00175699
0.00312679
0.00178924
0.0030451
0.00182125
0.0029602
0.0018529
0.0028726
0.00188412
0.0027828
0.00191479
0.00269131
0.00194485
0.00259866
0.00197423
0.0025053
0.00200287
0.00241161
0.00203074
0.00231803
0.00205772
0.00222494
0.00208376
0.00213266
0.00210886
0.00204148
0.00213293
0.00195169
0.00215593
0.00186361
0.00217785
0.00177737
0.00219875
0.00169317
0.00221852
0.00161112
0.00223712
0.00153147
0.0022546
0.00145429
0.00227109
0.00137961
0.00228648
0.00130752
0.00230082
0.00123808
0.00231413
0.00117129
0.00232635
0.00110713
0.00233773
0.00104572
0.00234837
0.000986896
0.00235849
0.00093098
0.00236817
0.000877501
0.00237866
0.000827878
0.00239032
0.000776746
0.00240333
0.000740095
0.00242125
0.000773382
0.00242937
0.000902677
0.00245105
0.000698024
0.00227939
0.000767451
0.00176206
0.000800818
0.00177648
0.000813132
0.00184058
0.000814315
0.00186481
0.000812793
0.00187723
0.000808086
0.00188165
0.000798297
0.00187936
0.000798646
0.00188764
0.000789132
0.00189117
0.000786891
0.00188783
0.000775773
0.00189245
0.000772171
0.00188684
0.000762881
0.00189633
0.000762848
0.00190258
0.000756899
0.001912
0.000751759
0.00190779
0.000749129
0.00191245
0.000745949
0.00191452
0.000744053
0.00191829
0.000740881
0.00191519
0.000738379
0.00191436
0.000736139
0.00191117
0.000734745
0.00191198
0.000733011
0.00190774
0.000731895
0.00190364
0.000739881
0.00189693
0.000748615
0.00188906
0.000757689
0.00188095
0.000767275
0.00187209
0.000777722
0.00186225
0.000788991
0.00185278
0.000801785
0.00184245
0.000815985
0.00183051
0.000831692
0.0018163
0.000848694
0.0018041
0.000869562
0.00178579
0.000881711
0.00176975
0.000898394
0.0017182
0.000915167
0.00167479
0.000931548
0.0016338
0.000963279
0.00159591
0.000972907
0.00156234
0.0009805
0.00152664
0.000990383
0.00148827
0.000985628
0.00144257
0.000977703
0.0013948
0.000964216
0.00134067
0.000949573
0.00127901
0.000936394
0.00121898
0.000917666
0.0011573
0.000897602
0.00110229
0.000867608
0.00104858
0.000841266
0.000990994
0.000814678
0.000935987
0.000796408
0.000890935
0.000779264
0.000853049
0.000769934
0.000823463
0.000758803
0.000798885
0.000751776
0.000778625
0.000741657
0.000758719
0.000733491
0.000737873
0.000719382
0.00071639
0.000713304
0.00069611
0.000701728
0.000679439
0.000701544
0.000667903
0.000696555
0.000665207
0.000703364
0.000674072
0.000709003
0.000683426
0.000721256
0.000693741
0.000732077
0.000704035
0.000780052
0.00071661
0.00371879
0.00370146
0.00143808
0.00369683
0.00146644
0.00367948
0.00150129
0.00365586
0.00153492
0.00362456
0.00156941
0.00358625
0.00160406
0.00354103
0.00163905
0.00348925
0.00167421
0.00343132
0.00170952
0.00336761
0.00174488
0.00329862
0.00178021
0.00322481
0.00181541
0.00314671
0.00185039
0.00306482
0.00188508
0.00297968
0.00191936
0.00289177
0.00195315
0.00280162
0.00198635
0.00270974
0.00201887
0.00261665
0.00205064
0.00252282
0.00208159
0.00242862
0.00211172
0.0023345
0.00214087
0.00224082
0.00216901
0.00214795
0.00219612
0.00205617
0.0022221
0.00196577
0.00224694
0.00187703
0.00227063
0.00179014
0.0022932
0.00170526
0.00231457
0.00162257
0.00233464
0.00154227
0.00235345
0.00146438
0.00237116
0.001389
0.00238768
0.00131619
0.00240298
0.00124595
0.00241719
0.00117829
0.00243006
0.00111319
0.00244154
0.0010507
0.00245161
0.000990702
0.00246058
0.000933162
0.00246837
0.000877763
0.00247423
0.000824372
0.00247744
0.000774739
0.00247797