/*--------------------------------*- C++ -*----------------------------------*\
| =========                 |                                                 |
| \\      /  F ield         | OpenFOAM: The Open Source CFD Toolbox           |
|  \\    /   O peration     | Version:  2.2.x                                 |
|   \\  /    A nd           | Web:      www.OpenFOAM.org                      |
|    \\/     M anipulation  |                                                 |
\*---------------------------------------------------------------------------*/
FoamFile
{
    version     2.0;
    format      ascii;
    class       volScalarField;
    location    "2.9";
    object      p;
}
// * * * * * * * * * * * * * * * * * * * * * * * * * * * * * * * * * * * * * //

dimensions      [1 -1 -2 0 0 0 0];

internalField   nonuniform List<scalar> 
14161
(
0.187799
0.189983
0.189345
0.189388
0.189227
0.189088
0.188924
0.18875
0.188588
0.188431
0.188285
0.188146
0.188029
0.18792
0.187829
0.187745
0.187694
0.187663
0.187659
0.187671
0.187692
0.18773
0.18779
0.187862
0.187951
0.188064
0.18821
0.188354
0.188482
0.188663
0.188893
0.189139
0.189374
0.189607
0.189779
0.189993
0.190286
0.190544
0.190659
0.190517
0.18977
0.189201
0.189277
0.191775
0.198773
0.197043
0.457091
1.2681
1.15355
1.07158
1.04836
1.04937
1.04753
1.046
1.04219
1.03845
1.03514
1.03169
1.02901
1.02505
1.02029
1.01602
1.01226
1.01065
1.00894
1.00737
1.00578
1.0054
1.00696
1.00861
1.00997
1.01422
1.02011
1.02615
1.03219
1.03765
1.04172
1.04346
1.04529
1.04224
1.04615
1.05068
1.05657
1.06847
1.09035
1.11222
1.12606
1.13401
1.13503
1.13093
1.12797
1.12884
1.13766
1.15193
1.16359
1.16843
1.16602
1.15498
1.15202
1.15867
1.15701
1.17912
1.21897
1.28637
1.35902
1.45413
1.54712
1.63754
1.71268
1.78067
1.83545
1.88468
1.92318
1.95754
1.98487
2.00758
2.02567
2.03388
2.06193
0.187814
0.189994
0.189347
0.189386
0.189232
0.189093
0.188927
0.188752
0.188591
0.188432
0.188285
0.188146
0.188029
0.187922
0.18783
0.187747
0.187696
0.187666
0.187661
0.187672
0.187693
0.187731
0.18779
0.18786
0.187948
0.188062
0.188209
0.188345
0.18848
0.188656
0.188884
0.189119
0.18932
0.189501
0.189646
0.189829
0.189923
0.18992
0.189687
0.189543
0.189321
0.188731
0.184363
0.179499
0.180881
0.256707
0.979346
1.36304
1.35357
1.2952
1.28006
1.26967
1.26469
1.25901
1.24991
1.24141
1.23569
1.22914
1.22419
1.21623
1.20929
1.2038
1.20005
1.19878
1.19732
1.19526
1.19163
1.18872
1.18703
1.18313
1.17833
1.17284
1.16769
1.16049
1.15331
1.14362
1.1329
1.12258
1.11341
1.10683
1.1044
1.10244
1.11046
1.12878
1.15013
1.17025
1.18744
1.19602
1.19229
1.18552
1.19027
1.19141
1.18809
1.21547
1.26413
1.30183
1.33897
1.40129
1.44687
1.46911
1.53085
1.60683
1.65548
1.71009
1.75361
1.79926
1.8352
1.87165
1.90117
1.92928
1.9526
1.97603
1.99512
2.01371
2.02863
2.04061
2.04768
2.05159
2.06976
0.187834
0.189999
0.189356
0.189395
0.189238
0.1891
0.188937
0.188759
0.188597
0.188439
0.188293
0.188155
0.188036
0.187928
0.187834
0.18775
0.187699
0.187673
0.187667
0.187679
0.1877
0.187738
0.187801
0.18786
0.187949
0.188071
0.188202
0.188356
0.188482
0.188649
0.188896
0.189171
0.189416
0.189687
0.189932
0.190298
0.190692
0.191185
0.1917
0.192531
0.192873
0.193587
0.192866
0.193178
0.203765
0.494117
1.29119
1.52017
1.56893
1.50993
1.48497
1.46496
1.45327
1.44441
1.42783
1.41402
1.40183
1.38648
1.37086
1.35544
1.34156
1.3284
1.31573
1.30196
1.28824
1.27775
1.26778
1.25779
1.2472
1.2364
1.22619
1.21637
1.20635
1.19554
1.18487
1.17397
1.16181
1.1491
1.13794
1.13114
1.13011
1.13668
1.14271
1.15377
1.19177
1.22336
1.23825
1.24284
1.25079
1.25467
1.24967
1.28704
1.39063
1.47601
1.57559
1.67418
1.72982
1.75494
1.82102
1.86258
1.89604
1.91442
1.92788
1.94588
1.96183
1.97165
1.97801
1.98665
1.99283
1.99869
2.0032
2.01083
2.01637
2.02196
2.02816
2.0319
2.03455
2.0357
2.05329
0.187847
0.190002
0.189363
0.189404
0.189242
0.189101
0.188934
0.188762
0.188601
0.188442
0.188295
0.188155
0.188035
0.187927
0.187833
0.18775
0.187698
0.18767
0.187663
0.187674
0.187694
0.187731
0.187788
0.187856
0.187941
0.188051
0.188199
0.188339
0.18846
0.188636
0.188857
0.189084
0.189274
0.189427
0.189527
0.189598
0.18962
0.189538
0.18931
0.188858
0.188405
0.188747
0.187722
0.189123
0.193422
0.66346
1.42647
1.62697
1.67969
1.64374
1.61792
1.59017
1.57024
1.55144
1.52089
1.49429
1.47286
1.45006
1.42969
1.40811
1.38634
1.36797
1.35055
1.3325
1.31802
1.30422
1.29047
1.27716
1.26448
1.25237
1.24121
1.22981
1.21909
1.20879
1.19837
1.18796
1.17708
1.16769
1.16088
1.15555
1.15109
1.15089
1.17257
1.19807
1.21451
1.24932
1.28947
1.30281
1.30998
1.35834
1.4467
1.48702
1.58104
1.69502
1.75066
1.78353
1.85435
1.89022
1.89028
1.90961
1.94482
1.94711
1.9537
1.96631
1.97383
1.98108
1.9877
1.99595
1.99978
2.00233
2.00586
2.0121
2.0154
2.01992
2.02379
2.02604
2.02829
2.029
2.0359
0.187876
0.190015
0.189371
0.189411
0.18925
0.189109
0.188942
0.188769
0.188606
0.188448
0.188302
0.188162
0.188041
0.187933
0.187839
0.187756
0.187702
0.187673
0.187665
0.187675
0.187692
0.187727
0.187786
0.187849
0.187925
0.188047
0.188184
0.188319
0.188449
0.188633
0.188874
0.189144
0.189427
0.189693
0.189975
0.190383
0.191002
0.191832
0.192647
0.194102
0.194978
0.197826
0.198315
0.203595
0.197169
0.652811
1.45127
1.62316
1.67433
1.67101
1.65248
1.62021
1.5959
1.57737
1.54152
1.50965
1.4826
1.46163
1.43936
1.41048
1.38773
1.36951
1.35174
1.33345
1.31727
1.30261
1.28974
1.27723
1.26433
1.25126
1.2391
1.22887
1.21872
1.20836
1.19764
1.18645
1.17557
1.16483
1.15492
1.14855
1.15059
1.15367
1.15273
1.18323
1.24327
1.282
1.29247
1.32458
1.41409
1.47406
1.49269
1.60455
1.68673
1.68926
1.75158
1.81441
1.83842
1.84585
1.90332
1.9257
1.92815
1.93717
1.95645
1.96767
1.97703
1.98706
1.99259
1.9979
2.00068
2.0031
2.00559
2.01179
2.01485
2.01917
2.0212
2.02296
2.02368
2.0219
2.02711
0.187888
0.190019
0.189372
0.189413
0.189252
0.189112
0.188943
0.188769
0.188607
0.188449
0.188301
0.18816
0.188038
0.187929
0.187832
0.187748
0.187692
0.187663
0.187654
0.187663
0.187678
0.187711
0.187769
0.187824
0.187905
0.188024
0.188155
0.188296
0.18841
0.188582
0.188815
0.189041
0.189217
0.189361
0.189452
0.18949
0.189466
0.189403
0.189077
0.188986
0.187944
0.188317
0.185401
0.187074
0.174192
0.63669
1.50351
1.61972
1.67093
1.66893
1.6643
1.62464
1.59836
1.57846
1.54061
1.507
1.4744
1.44735
1.42476
1.39681
1.36817
1.34299
1.32498
1.30749
1.29142
1.27378
1.25988
1.24738
1.23604
1.22525
1.21346
1.20283
1.19264
1.18253
1.17228
1.16154
1.15136
1.14202
1.13449
1.12869
1.12374
1.1285
1.15634
1.17761
1.19117
1.24213
1.32901
1.39905
1.40781
1.4537
1.57143
1.60865
1.61235
1.68012
1.72343
1.7421
1.80247
1.83997
1.86266
1.86609
1.90001
1.92159
1.93572
1.94768
1.96613
1.98153
1.99132
2.00036
2.00467
2.00702
2.00807
2.01383
2.0161
2.01943
2.02068
2.02293
2.02345
2.02027
2.02347
0.187919
0.190031
0.18938
0.18942
0.189259
0.189117
0.188946
0.188775
0.188613
0.188455
0.188304
0.188163
0.188039
0.187931
0.187832
0.187747
0.187689
0.187658
0.187648
0.187657
0.187669
0.187701
0.187757
0.187812
0.187886
0.187985
0.188129
0.188251
0.188368
0.188536
0.188812
0.189057
0.189283
0.189585
0.189847
0.190246
0.190817
0.19163
0.192613
0.194216
0.195801
0.199663
0.201782
0.209695
0.204139
0.723217
1.45182
1.63965
1.68604
1.65289
1.64223
1.59557
1.56404
1.53864
1.49999
1.46651
1.43255
1.40331
1.37569
1.35062
1.32254
1.29937
1.27746
1.25964
1.24513
1.22954
1.2169
1.20351
1.19293
1.18365
1.17079
1.16169
1.15268
1.14294
1.13379
1.1254
1.11778
1.11139
1.10414
1.09853
1.10156
1.11302
1.10429
1.12111
1.20084
1.25966
1.28378
1.32784
1.43069
1.50158
1.49779
1.54157
1.60851
1.62899
1.65802
1.70096
1.7421
1.76496
1.81203
1.83812
1.86374
1.8817
1.90296
1.91881
1.94197
1.96635
1.98615
1.99711
2.00211
2.0053
2.0064
2.01247
2.01481
2.0191
2.02148
2.0225
2.02315
2.02091
2.0218
0.187931
0.190035
0.189381
0.189421
0.189261
0.189119
0.188948
0.188773
0.18861
0.188452
0.1883
0.188158
0.188033
0.187924
0.187823
0.187737
0.187675
0.187639
0.187629
0.187635
0.187641
0.18767
0.187723
0.187777
0.187848
0.187951
0.188088
0.18822
0.188333
0.188492
0.188709
0.188941
0.189127
0.189292
0.189401
0.189505
0.189618
0.18963
0.189623
0.189505
0.189415
0.189907
0.188641
0.191416
0.191263
0.691427
1.41704
1.63426
1.66609
1.60782
1.57169
1.5066
1.46822
1.43209
1.39926
1.36401
1.34056
1.31623
1.28999
1.26938
1.24189
1.23061
1.21161
1.20109
1.18597
1.17461
1.16548
1.1553
1.15079
1.13999
1.13162
1.12493
1.11789
1.11051
1.1033
1.0964
1.09015
1.08384
1.07625
1.07266
1.07211
1.07566
1.07763
1.11949
1.14416
1.16921
1.24741
1.3358
1.36638
1.40459
1.46777
1.51679
1.52818
1.55937
1.60555
1.62175
1.66342
1.70879
1.7581
1.78547
1.81929
1.84492
1.86599
1.88606
1.91064
1.9417
1.96724
1.98662
1.99834
2.00487
2.00672
2.01253
2.01443
2.01935
2.02168
2.02377
2.02332
2.02106
2.02106
0.187961
0.190047
0.189388
0.189428
0.189263
0.189122
0.188952
0.188779
0.188613
0.188453
0.1883
0.188157
0.18803
0.18792
0.187818
0.187729
0.187667
0.187627
0.187616
0.187619
0.187622
0.187648
0.187695
0.187746
0.187808
0.187897
0.188023
0.188151
0.188265
0.188417
0.188612
0.188839
0.18905
0.189252
0.189473
0.189712
0.190004
0.190442
0.190815
0.19147
0.191972
0.19357
0.194099
0.19871
0.208547
0.454829
1.2494
1.51786
1.56098
1.44596
1.39909
1.35619
1.33087
1.30199
1.2844
1.25402
1.24283
1.21677
1.20337
1.18978
1.16597
1.15847
1.13977
1.13843
1.12118
1.11936
1.10322
1.09942
1.09749
1.08595
1.07996
1.07443
1.07004
1.06365
1.05818
1.05339
1.04877
1.04441
1.03895
1.03489
1.03227
1.04808
1.04376
1.07178
1.08307
1.16756
1.22027
1.26444
1.30744
1.36863
1.38204
1.41401
1.45431
1.49028
1.52416
1.55198
1.59379
1.63383
1.68131
1.73534
1.77852
1.80883
1.83352
1.85906
1.88153
1.91003
1.94078
1.9716
1.99016
1.99967
2.00443
2.01213
2.01407
2.01899
2.02154
2.02403
2.02344
2.02122
2.02054
0.187971
0.190051
0.189389
0.189427
0.189261
0.189121
0.188949
0.188778
0.188608
0.188447
0.188292
0.188149
0.188021
0.187908
0.187803
0.187712
0.187646
0.187601
0.187586
0.187584
0.18758
0.187601
0.187641
0.187693
0.187756
0.187842
0.187973
0.188093
0.188205
0.18836
0.188573
0.188785
0.188983
0.189174
0.189376
0.18953
0.189693
0.189827
0.189891
0.189768
0.189064
0.188228
0.185509
0.184599
0.175508
0.216608
0.722863
1.29955
1.36715
1.28169
1.24356
1.22074
1.20916
1.19353
1.19273
1.16137
1.16567
1.14082
1.15241
1.12196
1.12448
1.09506
1.09127
1.09261
1.07466
1.07111
1.06073
1.05952
1.05175
1.04853
1.0387
1.03561
1.03033
1.02598
1.02159
1.01726
1.01235
1.00767
0.999623
0.995361
0.993592
1.00641
0.994995
1.02932
1.04503
1.11843
1.16106
1.21799
1.23444
1.28022
1.3113
1.34193
1.37183
1.40641
1.45049
1.48474
1.51805
1.56419
1.61155
1.6736
1.72072
1.76516
1.79742
1.82653
1.85116
1.87888
1.9092
1.94324
1.97219
1.98949
1.99876
2.00873
2.01283
2.01898
2.02174
2.02394
2.02385
2.02157
2.02056
0.187997
0.190061
0.189395
0.189431
0.189263
0.189121
0.188949
0.188779
0.188608
0.188444
0.188288
0.188143
0.188014
0.187899
0.187792
0.187699
0.187631
0.187582
0.187562
0.187558
0.187547
0.187561
0.187594
0.18764
0.18769
0.187764
0.187875
0.187979
0.18808
0.188209
0.188394
0.18854
0.188686
0.188829
0.188956
0.189074
0.189159
0.189094
0.188825
0.188446
0.187354
0.185447
0.182226
0.175727
0.173967
0.193182
0.209603
1.2141
1.35205
1.24206
1.19666
1.16517
1.1525
1.13755
1.13693
1.11538
1.129
1.10539
1.12259
1.08962
1.08825
1.06087
1.07053
1.05541
1.05366
1.03861
1.03961
1.03227
1.03165
1.01957
1.01621
1.01014
1.00713
1.00367
0.999592
0.994604
0.990243
0.983338
0.978814
0.970668
0.974547
0.968063
0.982846
0.979553
1.03869
1.08684
1.14102
1.18502
1.20252
1.22396
1.23439
1.26222
1.30255
1.34511
1.38385
1.42469
1.45598
1.50074
1.54405
1.60577
1.66278
1.71455
1.75871
1.79467
1.82345
1.85174
1.88049
1.91417
1.94887
1.97578
1.9923
2.00454
2.01021
2.01781
2.02194
2.02373
2.02377
2.02224
2.02109
0.188007
0.190063
0.189395
0.189428
0.189261
0.189117
0.188945
0.188776
0.188601
0.188436
0.188277
0.188131
0.187999
0.187881
0.187772
0.187676
0.187601
0.187546
0.187518
0.187509
0.187492
0.187492
0.187523
0.18756
0.187615
0.187692
0.187798
0.187905
0.188007
0.18815
0.188365
0.188574
0.188782
0.189021
0.18925
0.189518
0.189867
0.190367
0.190929
0.191565
0.192461
0.193935
0.19606
0.19814
0.204482
0.223067
0.423246
1.38964
1.38064
1.29818
1.2219
1.17109
1.14584
1.12546
1.11563
1.10247
1.11182
1.09101
1.10771
1.07479
1.07227
1.04918
1.06073
1.04517
1.04493
1.02754
1.03198
1.02493
1.02462
1.01245
1.00997
1.00371
1.00079
0.996619
0.992808
0.987306
0.981992
0.974647
0.966248
0.958086
0.953168
0.960126
0.949019
0.986806
1.01573
1.09713
1.13221
1.14871
1.18766
1.19674
1.19398
1.21805
1.24264
1.2722
1.30723
1.35768
1.40533
1.45478
1.49833
1.54698
1.60664
1.66348
1.71742
1.76043
1.79236
1.8236
1.85181
1.88439
1.92046
1.95446
1.9793
1.99601
2.00424
2.01492
2.0213
2.02359
2.02389
2.02321
2.02266
0.188028
0.190071
0.1894
0.189431
0.189262
0.189114
0.188943
0.188772
0.188598
0.188432
0.188268
0.18812
0.187985
0.187866
0.187755
0.187656
0.187576
0.187516
0.18748
0.187467
0.187443
0.18743
0.187452
0.187478
0.187516
0.187582
0.187664
0.187744
0.187824
0.187928
0.188065
0.188174
0.188266
0.188321
0.188341
0.188283
0.188181
0.188011
0.187713
0.187362
0.186768
0.186018
0.185831
0.185339
0.184268
0.220128
0.553383
1.3205
1.33636
1.31162
1.25075
1.20493
1.1667
1.14229
1.12786
1.11801
1.12706
1.10448
1.12103
1.08443
1.08046
1.05694
1.06867
1.0523
1.05245
1.03388
1.03936
1.03247
1.03185
1.01943
1.01665
1.011
1.00803
1.00346
0.997593
0.991432
0.985659
0.979989
0.96966
0.959578
0.953291
0.960707
0.950386
0.992743
1.04467
1.10996
1.14949
1.14471
1.14893
1.18203
1.17955
1.20325
1.22864
1.25029
1.27574
1.30742
1.35112
1.38519
1.43634
1.47926
1.54446
1.60298
1.66871
1.72219
1.7615
1.79428
1.82471
1.85484
1.88866
1.925
1.95748
1.98154
1.99594
2.0098
2.01853
2.02297
2.02391
2.0243
2.02353
0.188036
0.190072
0.189399
0.189428
0.189257
0.189107
0.188936
0.188763
0.188588
0.18842
0.188253
0.188102
0.187964
0.187841
0.187726
0.187622
0.187536
0.187469
0.187423
0.187403
0.187373
0.187347
0.187358
0.18738
0.187417
0.187478
0.187557
0.187642
0.187738
0.187865
0.188046
0.188234
0.188438
0.188679
0.188946
0.189275
0.189736
0.190399
0.191192
0.192234
0.193506
0.19498
0.196873
0.199835
0.202015
0.222235
0.687661
1.16114
1.25289
1.30116
1.24401
1.21645
1.16487
1.13792
1.12468
1.11452
1.1271
1.10575
1.12672
1.08995
1.08522
1.06259
1.076
1.05922
1.06026
1.04362
1.04874
1.04155
1.0418
1.03024
1.02661
1.0234
1.01931
1.01441
1.00879
1.00168
0.996174
0.986378
0.977806
0.962695
0.961283
0.952395
0.980184
0.993858
1.08366
1.13633
1.15482
1.16476
1.14023
1.15618
1.18541
1.17525
1.17692
1.20297
1.22788
1.24565
1.28984
1.32252
1.37567
1.4262
1.48387
1.54776
1.61307
1.67993
1.73177
1.77112
1.80463
1.83478
1.86552
1.89871
1.93421
1.96515
1.98639
2.00471
2.01592
2.02161
2.0231
2.02381
2.02467
0.18805
0.190076
0.189401
0.189428
0.189255
0.189105
0.188929
0.188755
0.18858
0.18841
0.18824
0.188086
0.187945
0.187818
0.187698
0.187592
0.1875
0.187427
0.187372
0.187343
0.187306
0.187271
0.187259
0.187274
0.1873
0.18733
0.187377
0.187431
0.187506
0.187569
0.187658
0.187721
0.187769
0.187792
0.187796
0.187724
0.187604
0.187442
0.187207
0.186733
0.185743
0.185183
0.183619
0.181858
0.189856
0.203657
0.736706
0.964931
1.06612
1.19618
1.2033
1.22869
1.18559
1.17806
1.15105
1.14688
1.14284
1.13367
1.14773
1.10864
1.10059
1.0789
1.08954
1.07429
1.07351
1.06031
1.0629
1.05671
1.05591
1.04401
1.04138
1.03682
1.03057
1.02508
1.01959
1.01447
1.00776
0.995414
0.984187
0.970626
0.967586
0.960163
0.99728
1.05511
1.13537
1.17787
1.14876
1.17162
1.16755
1.14183
1.17218
1.18097
1.17739
1.18878
1.21052
1.22882
1.26025
1.30067
1.34353
1.39816
1.44274
1.50113
1.55844
1.62595
1.69164
1.74079
1.77684
1.8087
1.83896
1.87269
1.90889
1.94305
1.97122
1.99418
2.00972
2.01789
2.02069
2.02262
2.02427
0.188055
0.190075
0.189399
0.189424
0.189248
0.189096
0.188919
0.188743
0.188565
0.188394
0.188221
0.188065
0.18792
0.187786
0.187662
0.187551
0.18745
0.187368
0.187303
0.187259
0.187218
0.187175
0.187147
0.187144
0.187167
0.187195
0.187234
0.187283
0.18738
0.187471
0.187575
0.187727
0.18789
0.188083
0.188291
0.188537
0.188892
0.189371
0.189908
0.190636
0.191357
0.192823
0.193621
0.194384
0.214139
0.421772
0.843843
0.906741
0.966123
1.09266
1.16882
1.22592
1.21282
1.20859
1.1711
1.16952
1.14939
1.16717
1.1415
1.14132
1.1001
1.0971
1.08186
1.09042
1.07366
1.07084
1.066
1.06835
1.05776
1.05116
1.0468
1.04303
1.03952
1.03385
1.02896
1.02132
1.01459
1.00208
0.989913
0.976419
0.971209
0.977161
1.01006
1.13753
1.18418
1.20781
1.19969
1.17548
1.18665
1.15919
1.13993
1.16475
1.18728
1.19801
1.20573
1.22706
1.24037
1.2799
1.3098
1.35973
1.40411
1.45699
1.51575
1.58264
1.65421
1.70975
1.75075
1.7849
1.81563
1.84819
1.88322
1.91958
1.95405
1.9828
2.00381
2.01619
2.02084
2.02263
2.02551
0.188063
0.190076
0.189399
0.189421
0.189242
0.189088
0.18891
0.188733
0.188553
0.18838
0.188202
0.188044
0.187895
0.187757
0.187626
0.18751
0.187403
0.18731
0.187235
0.187178
0.187129
0.187075
0.187041
0.187012
0.187002
0.187009
0.187016
0.187035
0.187079
0.187112
0.187135
0.187165
0.187199
0.187226
0.187241
0.187236
0.187259
0.187268
0.187362
0.187396
0.187637
0.188298
0.188556
0.190069
0.213456
0.689199
0.88034
0.896011
0.909524
0.962129
1.01902
1.16938
1.19387
1.20756
1.16697
1.18663
1.15388
1.17381
1.13972
1.14383
1.09975
1.09658
1.07763
1.08731
1.07218
1.07099
1.0659
1.06789
1.05694
1.05157
1.04636
1.04234
1.03872
1.03468
1.02876
1.01973
1.00894
1.00084
0.990202
0.97984
0.977422
1.00257
1.11471
1.21334
1.24099
1.22764
1.21055
1.18382
1.20177
1.19449
1.16463
1.15061
1.16768
1.17397
1.17406
1.20131
1.2166
1.24746
1.27917
1.3198
1.37016
1.42195
1.48245
1.55034
1.62225
1.68512
1.7295
1.76269
1.79259
1.82347
1.85636
1.89396
1.93146
1.96631
1.99367
2.01106
2.01743
2.02104
2.02439
0.188065
0.190074
0.189395
0.189415
0.189233
0.189077
0.188897
0.188717
0.188537
0.18836
0.18818
0.188017
0.187862
0.187719
0.18758
0.187455
0.187341
0.187236
0.187151
0.18708
0.187023
0.18696
0.186905
0.186863
0.186839
0.18683
0.186831
0.186842
0.186885
0.186933
0.186989
0.187048
0.187149
0.187256
0.187366
0.187494
0.187623
0.187657
0.187559
0.187442
0.187466
0.186351
0.183696
0.186668
0.208307
0.79335
0.88761
0.896042
0.898735
0.913258
0.955451
0.995775
1.14554
1.17389
1.21778
1.18604
1.19931
1.16681
1.18243
1.13442
1.12587
1.09402
1.09402
1.07873
1.08435
1.0747
1.07699
1.06905
1.06502
1.05573
1.0521
1.0495
1.0466
1.04128
1.03431
1.026
1.01672
1.01027
0.999038
0.990743
1.01302
1.12788
1.22874
1.25619
1.26613
1.26527
1.23325
1.1952
1.18124
1.18255
1.18418
1.18038
1.1821
1.18301
1.18507
1.19785
1.21675
1.23571
1.26736
1.29543
1.34281
1.38874
1.44783
1.51348
1.58449
1.65444
1.70665
1.74277
1.77329
1.80271
1.83468
1.87106
1.91033
1.94871
1.98228
2.00451
2.01499
2.01986
2.02507
0.18807
0.190072
0.189391
0.189407
0.189225
0.189066
0.188884
0.188701
0.188522
0.188341
0.188157
0.187991
0.187831
0.187682
0.187535
0.1874
0.187276
0.187162
0.187066
0.186984
0.186923
0.186846
0.186764
0.1867
0.186652
0.186611
0.186573
0.186551
0.186536
0.186526
0.186512
0.186482
0.186457
0.186441
0.186414
0.186396
0.186384
0.186369
0.186402
0.18635
0.186746
0.186322
0.1861
0.203396
0.333662
0.916944
0.926885
0.922386
0.919303
0.922585
0.931659
0.947033
1.03909
1.09184
1.19577
1.18775
1.21307
1.17473
1.19469
1.13684
1.12834
1.09093
1.08991
1.07173
1.0818
1.07459
1.07698
1.0687
1.06245
1.05523
1.0526
1.05178
1.049
1.04195
1.03439
1.02781
1.02116
1.01344
1.01331
1.04948
1.17777
1.27576
1.34188
1.32021
1.26219
1.26262
1.26344
1.22764
1.19459
1.17821
1.17885
1.16654
1.16643
1.16593
1.17072
1.16887
1.19153
1.20445
1.23356
1.26614
1.30898
1.35647
1.41346
1.47641
1.54608
1.61927
1.67885
1.72074
1.75495
1.78492
1.81447
1.84845
1.88665
1.9266
1.96435
1.99508
2.01079
2.01747
2.02459
0.188061
0.190063
0.189383
0.189397
0.189213
0.189052
0.188866
0.188682
0.188502
0.188317
0.18813
0.187959
0.187793
0.187636
0.187482
0.187334
0.187199
0.187075
0.186962
0.186868
0.186799
0.186706
0.1866
0.186517
0.186452
0.186391
0.186338
0.1863
0.186273
0.186278
0.186275
0.186277
0.186279
0.186315
0.186367
0.186441
0.186494
0.186648
0.186854
0.186922
0.187353
0.187588
0.188106
0.212561
0.658209
0.926358
0.934926
0.927187
0.921218
0.923664
0.918161
0.911173
0.948717
0.979999
1.09254
1.15298
1.20192
1.17005
1.19789
1.14179
1.13928
1.09261
1.09296
1.07832
1.08331
1.0847
1.08328
1.07915
1.0691
1.06465
1.0645
1.0637
1.05796
1.05007
1.04784
1.0548
1.05433
1.07446
1.15437
1.29649
1.3838
1.38925
1.35874
1.34306
1.28668
1.23997
1.23794
1.22607
1.20883
1.20205
1.1964
1.18382
1.17885
1.17676
1.17583
1.17608
1.1881
1.20214
1.22205
1.25305
1.28718
1.33188
1.38386
1.44418
1.51337
1.58611
1.65339
1.69887
1.73545
1.76673
1.79498
1.82642
1.86265
1.90463
1.94854
1.98526
2.00561
2.01574
2.02447
0.188062
0.190057
0.189376
0.189388
0.189203
0.189039
0.188849
0.188663
0.188481
0.188293
0.188103
0.187926
0.187755
0.18759
0.187427
0.187268
0.18712
0.186985
0.186858
0.18675
0.186672
0.186563
0.186426
0.186318
0.186233
0.186147
0.186042
0.185956
0.185885
0.185832
0.185772
0.185695
0.185561
0.185449
0.185354
0.185253
0.185155
0.185033
0.184864
0.184804
0.184611
0.184374
0.18595
0.209647
0.819175
0.948321
0.952452
0.948639
0.937445
0.928633
0.919089
0.919129
0.913196
0.937875
0.946026
1.08068
1.10898
1.174
1.15044
1.17915
1.12357
1.11351
1.08488
1.09263
1.08444
1.0896
1.09062
1.08429
1.07574
1.07565
1.07646
1.07707
1.08001
1.08927
1.11557
1.17117
1.23451
1.34818
1.43802
1.48198
1.49317
1.43961
1.39855
1.36271
1.31661
1.27469
1.23299
1.21542
1.20081
1.18744
1.17844
1.16942
1.15928
1.16005
1.15606
1.16401
1.16528
1.18327
1.1987
1.22693
1.25977
1.30302
1.35297
1.41199
1.48053
1.55145
1.62489
1.67575
1.71446
1.74748
1.77646
1.80673
1.84076
1.88186
1.92853
1.96941
1.99825
2.01198
2.02225
0.188046
0.190044
0.189363
0.189374
0.189188
0.189024
0.18883
0.18864
0.188455
0.188263
0.188069
0.187886
0.187711
0.187537
0.187364
0.187197
0.187038
0.186885
0.186741
0.186611
0.186515
0.186389
0.186228
0.186103
0.185995
0.18589
0.185766
0.18565
0.18557
0.185493
0.185468
0.185413
0.185325
0.185239
0.185201
0.185171
0.185147
0.185176
0.185003
0.185103
0.184061
0.182748
0.195829
0.26246
0.913245
0.9741
0.976845
0.976691
0.972542
0.963334
0.942473
0.918489
0.914192
0.916687
0.937976
0.945445
1.07406
1.10436
1.17948
1.12955
1.16016
1.09588
1.08846
1.07774
1.09082
1.09755
1.10246
1.10364
1.10527
1.11782
1.15155
1.18945
1.2556
1.33368
1.4048
1.48268
1.5741
1.59706
1.60131
1.54897
1.49945
1.44669
1.40014
1.3653
1.3355
1.2976
1.27018
1.24686
1.22563
1.20928
1.19795
1.18642
1.17448
1.16893
1.16366
1.16395
1.16825
1.17939
1.19592
1.21719
1.24648
1.28267
1.32782
1.38291
1.44869
1.52039
1.59529
1.6522
1.69358
1.72791
1.75796
1.78682
1.81817
1.85756
1.90641
1.95414
1.9912
2.00753
2.0193
0.188041
0.190035
0.189351
0.189361
0.189174
0.189009
0.188809
0.188616
0.188427
0.188234
0.188034
0.187846
0.187665
0.187484
0.187297
0.18712
0.186951
0.186788
0.186627
0.186476
0.186348
0.186203
0.18603
0.185876
0.185736
0.185614
0.185463
0.185274
0.185125
0.184987
0.184886
0.18477
0.184585
0.184337
0.184077
0.183905
0.183719
0.183681
0.18355
0.18397
0.183955
0.184316
0.20639
0.51267
0.956861
0.97744
0.981162
0.97869
0.976049
0.969623
0.960717
0.946195
0.931493
0.924372
0.920373
0.923091
0.989941
1.04019
1.15751
1.13432
1.18764
1.12976
1.13251
1.12134
1.16588
1.21243
1.2462
1.29062
1.35145
1.41998
1.47009
1.54292
1.62318
1.66607
1.69648
1.69927
1.68334
1.64663
1.61896
1.56891
1.51567
1.47047
1.41534
1.37487
1.34552
1.31236
1.27943
1.25411
1.22747
1.20498
1.19078
1.17716
1.16436
1.15497
1.1516
1.14955
1.15627
1.16348
1.17736
1.19685
1.22446
1.25907
1.3032
1.35668
1.42045
1.49204
1.56757
1.6294
1.67424
1.71015
1.74081
1.76874
1.79747
1.83483
1.88466
1.93573
1.97835
2.00177
2.01719
0.188017
0.190017
0.189333
0.189343
0.189156
0.188991
0.188786
0.188589
0.188396
0.188201
0.187995
0.1878
0.187613
0.187424
0.187222
0.187032
0.186851
0.186679
0.186517
0.186339
0.186165
0.185993
0.185801
0.185623
0.185456
0.185331
0.18517
0.184942
0.18475
0.184607
0.184473
0.184432
0.184318
0.184198
0.184073
0.184099
0.184202
0.184373
0.184685
0.185274
0.186304
0.187021
0.214052
0.750874
0.983632
0.982792
0.985428
0.985629
0.982732
0.972735
0.96738
0.96701
0.965449
0.952101
0.920193
0.910184
0.948266
1.03423
1.09442
1.2336
1.26121
1.32486
1.35664
1.42622
1.47424
1.54894
1.6093
1.67139
1.71597
1.74385
1.75754
1.76303
1.76823
1.76436
1.74895
1.72366
1.69694
1.65752
1.62423
1.58326
1.54417
1.5103
1.4632
1.41899
1.38115
1.34597
1.31329
1.28667
1.25867
1.23411
1.21499
1.19848
1.18255
1.16909
1.16097
1.15798
1.16039
1.1648
1.17234
1.18721
1.21013
1.24167
1.28293
1.33525
1.39687
1.46694
1.54163
1.60678
1.65456
1.69188
1.72237
1.74924
1.77579
1.81059
1.85878
1.91347
1.96182
1.99308
2.01423
0.188005
0.190002
0.189316
0.189324
0.189137
0.18897
0.188765
0.188563
0.188363
0.188165
0.187954
0.18775
0.187557
0.187361
0.187144
0.186939
0.186746
0.186562
0.186398
0.186202
0.18598
0.185778
0.185567
0.18536
0.185165
0.185006
0.184831
0.184582
0.184292
0.184061
0.183842
0.183691
0.183506
0.183213
0.182744
0.182277
0.181756
0.181039
0.180243
0.178348
0.176899
0.181372
0.20955
0.86009
0.984437
0.99481
0.998819
0.997741
0.991453
0.987205
0.984078
0.98505
0.982844
0.965456
0.9561
0.96962
1.01735
1.09066
1.29495
1.456
1.5454
1.62292
1.69501
1.72879
1.75228
1.76824
1.78566
1.7967
1.80423
1.79953
1.78948
1.77677
1.76806
1.75892
1.7445
1.72603
1.70325
1.6773
1.6506
1.6171
1.5814
1.54254
1.49695
1.44576
1.40271
1.36018
1.32167
1.29229
1.26159
1.23442
1.2132
1.19658
1.18174
1.16986
1.16075
1.15645
1.15677
1.16008
1.16721
1.17924
1.19911
1.22801
1.26673
1.31627
1.37584
1.44383
1.51772
1.58386
1.63548
1.67475
1.70573
1.73212
1.75627
1.78822
1.83489
1.89248
1.94551
1.98366
2.01003
0.187975
0.189979
0.189294
0.189302
0.189114
0.188945
0.188738
0.188534
0.188331
0.188128
0.187912
0.187698
0.187495
0.187292
0.187063
0.186842
0.186635
0.186432
0.186268
0.186061
0.1858
0.185555
0.185322
0.185082
0.184859
0.184651
0.184481
0.184236
0.183873
0.183609
0.183397
0.183202
0.183113
0.182877
0.182642
0.182194
0.182097
0.181973
0.182128
0.181844
0.181051
0.197515
0.313877
0.96686
0.997457
1.00045
0.997337
0.994895
0.993408
0.99405
0.996718
0.998473
1.00061
1.00718
1.03327
1.08941
1.18157
1.39199
1.62741
1.72914
1.75298
1.76992
1.77708
1.78668
1.78923
1.79409
1.79585
1.79358
1.79184
1.78625
1.77999
1.77199
1.76231
1.75151
1.74001
1.72618
1.70921
1.68937
1.66616
1.63963
1.61225
1.58112
1.54242
1.494
1.44697
1.40019
1.35943
1.3251
1.28941
1.25795
1.2335
1.21402
1.19673
1.18317
1.17238
1.16525
1.16237
1.15959
1.16228
1.17138
1.18819
1.2141
1.25052
1.29711
1.35447
1.42064
1.49314
1.56067
1.61666
1.65808
1.68982
1.71589
1.73803
1.76697
1.81044
1.86884
1.92417
1.96669
2.00345
0.187952
0.189958
0.189271
0.189281
0.18909
0.188918
0.188712
0.188501
0.188293
0.18809
0.18787
0.187645
0.187431
0.187221
0.186984
0.186741
0.186516
0.186295
0.186126
0.185906
0.18562
0.185328
0.18507
0.184796
0.184538
0.184281
0.184104
0.183828
0.183441
0.183065
0.182768
0.182475
0.182291
0.182005
0.18171
0.181103
0.18085
0.180672
0.180955
0.181261
0.181406
0.20584
0.614267
0.967857
0.98595
0.985927
0.981834
0.98237
0.987377
0.991296
0.993866
0.996021
1.01296
1.05202
1.11499
1.24803
1.47717
1.69079
1.76542
1.78168
1.7764
1.77492
1.78188
1.78086
1.77806
1.77463
1.77249
1.77079
1.77331
1.77007
1.76762
1.76251
1.75426
1.74771
1.73946
1.72717
1.71369
1.69809
1.68005
1.65941
1.63661
1.60917
1.57618
1.53392
1.4865
1.43594
1.39057
1.34929
1.30867
1.27243
1.24401
1.22094
1.2012
1.18647
1.17392
1.16534
1.16077
1.16066
1.16167
1.16797
1.18106
1.20342
1.23648
1.28004
1.33517
1.39946
1.47078
1.53851
1.598
1.64138
1.67441
1.70016
1.72065
1.7466
1.78692
1.84363
1.90327
1.95
1.99743
0.187916
0.18993
0.189244
0.189255
0.189061
0.188887
0.188686
0.188466
0.188252
0.188046
0.187824
0.187589
0.187363
0.187147
0.186907
0.186639
0.186393
0.186156
0.185965
0.185737
0.185441
0.185106
0.184808
0.184508
0.184206
0.183912
0.183697
0.183424
0.183048
0.182585
0.182246
0.181971
0.181748
0.181595
0.181324
0.180958
0.180432
0.180274
0.179926
0.179661
0.181094
0.208221
0.804013
0.975166
0.983567
0.983898
0.981991
0.984853
0.991599
0.995038
0.995776
1.00823
1.05907
1.14629
1.28771
1.52543
1.73811
1.77517
1.77984
1.76544
1.75575
1.75371
1.75391
1.75156
1.74917
1.74958
1.74779
1.74648
1.74593
1.74541
1.74741
1.74955
1.7474
1.74191
1.73268
1.72484
1.71504
1.70245
1.69008
1.67373
1.65468
1.63164
1.60411
1.56941
1.52606
1.47278
1.42234
1.3748
1.33186
1.29269
1.2608
1.23425
1.21237
1.19475
1.17943
1.16913
1.16355
1.16222
1.1627
1.16665
1.1769
1.19573
1.22556
1.26668
1.31957
1.38177
1.4513
1.51753
1.57928
1.62491
1.65933
1.68525
1.70438
1.72754
1.76345
1.81947
1.88039
1.93296
1.98718
0.187883
0.189903
0.189215
0.189228
0.189033
0.188856
0.188656
0.188431
0.188212
0.187999
0.187775
0.187528
0.187292
0.187064
0.186824
0.186536
0.186268
0.186013
0.185786
0.18556
0.185261
0.184873
0.18454
0.184222
0.18387
0.183548
0.183259
0.182999
0.182634
0.182081
0.181661
0.181299
0.180935
0.180729
0.180249
0.179689
0.17861
0.178099
0.177068
0.175488
0.18798
0.248677
0.902558
0.978803
0.993079
0.992979
0.991049
0.99293
1.00163
1.01095
1.01646
1.04884
1.16983
1.35724
1.57028
1.75975
1.77701
1.76811
1.75189
1.738
1.73531
1.73353
1.7296
1.72515
1.72576
1.72657
1.72625
1.72479
1.72357
1.72398
1.72402
1.72506
1.72489
1.72304
1.71987
1.71464
1.70893
1.70221
1.69304
1.67964
1.66483
1.64569
1.62253
1.59326
1.55698
1.50958
1.45666
1.40518
1.35905
1.31601
1.27963
1.24894
1.22344
1.20288
1.18507
1.1725
1.16556
1.16308
1.16299
1.16538
1.1732
1.18967
1.21674
1.25499
1.30514
1.36541
1.43297
1.49771
1.56053
1.60843
1.6449
1.67096
1.68911
1.70962
1.74127
1.7943
1.85887
1.91304
1.97609
0.18784
0.18987
0.189182
0.189197
0.189001
0.188823
0.188619
0.188398
0.18817
0.18795
0.187724
0.187468
0.18722
0.186976
0.186732
0.186443
0.186144
0.185867
0.1856
0.185376
0.185066
0.184641
0.184274
0.183929
0.183544
0.183172
0.182812
0.182544
0.182141
0.181605
0.181112
0.180737
0.180386
0.180253
0.179957
0.17971
0.179321
0.179565
0.180068
0.180138
0.203151
0.527861
0.945794
0.972415
0.982859