/*--------------------------------*- C++ -*----------------------------------*\
| =========                 |                                                 |
| \\      /  F ield         | OpenFOAM: The Open Source CFD Toolbox           |
|  \\    /   O peration     | Version:  2.2.x                                 |
|   \\  /    A nd           | Web:      www.OpenFOAM.org                      |
|    \\/     M anipulation  |                                                 |
\*---------------------------------------------------------------------------*/
FoamFile
{
    version     2.0;
    format      ascii;
    class       volScalarField;
    location    "0.1";
    object      rho_0;
}
// * * * * * * * * * * * * * * * * * * * * * * * * * * * * * * * * * * * * * //

dimensions      [1 -3 0 0 0 0 0];

internalField   nonuniform List<scalar> 
1024
(
0.125
0.125
0.125
0.125
0.125
0.125
0.125
0.125
0.125
0.125
0.125
0.125
0.125
0.125
0.125
0.125
0.125
0.125
0.125
0.125
0.125
0.125
0.125
0.125
0.125
0.125
0.125
0.125
0.125
0.125
0.125
0.125
0.125
0.125
0.125
0.125
0.125
0.125
0.125
0.125
0.125
0.125
0.125
0.125
0.125
0.125
0.125
0.125
0.125
0.125
0.125
0.125
0.125
0.125
0.125
0.125
0.125
0.125
0.125
0.125
0.125
0.125
0.125
0.125
0.125
0.125
0.125
0.125
0.125
0.125
0.125
0.125
0.125
0.125
0.125
0.125
0.125
0.125
0.125
0.125
0.125
0.125
0.125
0.125
0.125
0.125
0.125
0.125
0.125
0.125
0.125
0.125
0.125
0.125
0.125
0.125
0.125
0.125
0.125
0.125
0.125
0.125
0.125
0.125
0.125
0.125
0.125
0.125
0.125
0.125
0.125
0.125
0.125
0.125
0.125
0.125
0.125
0.125
0.125
0.125
0.125
0.125
0.125
0.125
0.125
0.125
0.125
0.125
0.125
0.125
0.125
0.125
0.125
0.125
0.125
0.125
0.125001
0.125005
0.125016
0.125054
0.125105
0.125112
0.125116
0.125089
0.125108
0.125079
0.125093
0.125066
0.125083
0.125056
0.125074
0.125047
0.125064
0.125039
0.125049
0.124998
0.124894
0.124585
0.123735
0.121502
0.118108
0.116186
0.116416
0.115431
0.116404
0.116226
0.115779
0.116264
0.115792
0.116379
0.115799
0.116271
0.115846
0.11626
0.115888
0.116203
0.115906
0.116171
0.115923
0.11613
0.115923
0.116093
0.115919
0.116053
0.115905
0.116011
0.115885
0.115969
0.11586
0.115926
0.115832
0.115877
0.11575
0.115564
0.115204
0.115113
0.115017
0.115152
0.115031
0.115049
0.115071
0.115107
0.115264
0.115666
0.116107
0.116318
0.11616
0.11637
0.116215
0.116235
0.116423
0.116727
0.116954
0.116936
0.116813
0.116806
0.116506
0.115464
0.114539
0.114295
0.114157
0.114419
0.114454
0.115156
0.11689
0.117314
0.117703
0.116959
0.117538
0.117123
0.116078
0.115671
0.115058
0.115557
0.115269
0.115374
0.115621
0.115507
0.115804
0.1157
0.116
0.115952
0.116183
0.116113
0.116296
0.116242
0.116402
0.116349
0.116492
0.116421
0.116515
0.116399
0.116309
0.115755
0.11502
0.114582
0.114743
0.114444
0.114754
0.115185
0.116084
0.117141
0.117385
0.117144
0.11739
0.117029
0.116485
0.115683
0.114814
0.114764
0.114785
0.114753
0.114909
0.115012
0.114899
0.115147
0.115458
0.116497
0.117108
0.11736
0.116972
0.117411
0.117124
0.116792
0.116078
0.115119
0.114922
0.115051
0.114704
0.114854
0.115061
0.114881
0.115112
0.115228
0.116148
0.116726
0.116826
0.116746
0.116671
0.116872
0.116536
0.116073
0.115607
0.115162
0.115201
0.11505
0.115069
0.115344
0.115284
0.115221
0.115837
0.11629
0.11653
0.116618
0.11652
0.11648
0.116448
0.116253
0.115845
0.115398
0.115549
0.115552
0.115429
0.115232
0.115138
0.114817
0.115372
0.116118
0.116658
0.117001
0.116839
0.117061
0.116687
0.116398
0.115839
0.115051
0.114873
0.115038
0.114773
0.114993
0.115108
0.11523
0.115817
0.11653
0.116673
0.116944
0.116474
0.116614
0.116632
0.116323
0.115976
0.115145
0.114986
0.114823
0.114988
0.114732
0.114853
0.115189
0.115874
0.11658
0.116684
0.116479
0.116508
0.116174
0.115972
0.115998
0.115858
0.115325
0.114955
0.115179
0.115349
0.115657
0.116142
0.117985
0.138714
0.233645
0.271331
0.277333
0.277003
0.276941
0.274641
0.273209
0.273041
0.273189
0.273282
0.273335
0.27435
0.275535
0.275892
0.275919
0.275798
0.275638
0.275308
0.274463
0.27329
0.272969
0.272973
0.273097
0.273507
0.274836
0.2759
0.276162
0.276256
0.276306
0.276162
0.275736
0.27502
0.273835
0.273234
0.27307
0.273048
0.273349
0.274597
0.27528
0.275421
0.275497
0.27547
0.275255
0.274837
0.274266
0.27373
0.273351
0.273204
0.273234
0.273458
0.274487
0.275311
0.275374
0.275302
0.275034
0.274169
0.273409
0.272877
0.272427
0.272072
0.2719
0.271998
0.272992
0.275562
0.280083
0.28651
0.297071
0.315014
0.344227
0.389171
0.450844
0.504212
0.545831
0.577917
0.601655
0.617825
0.627683
0.63294
0.635544
0.637167
0.638776
0.641022
0.644008
0.645297
0.645619
0.645254
0.644035
0.643708
0.644054
0.645192
0.647929
0.649411
0.649684
0.649185
0.646735
0.645315
0.645137
0.645497
0.647612
0.650246
0.650768
0.650555
0.648734
0.64641
0.646002
0.646418
0.6486
0.651939
0.652886
0.65276
0.651037
0.647021
0.645529
0.645296
0.646232
0.650278
0.652674
0.653014
0.652223
0.648537
0.645925
0.645652
0.646426
0.650396
0.654068
0.654687
0.654156
0.650511
0.645626
0.644382
0.644283
0.64643
0.652463
0.654657
0.654637
0.651755
0.646977
0.645472
0.64629
0.649909
0.658819
0.664453
0.667157
0.666715
0.663924
0.665014
0.668676
0.673797
0.681369
0.691368
0.698012
0.701941
0.702758
0.705009
0.710063
0.717891
0.732757
0.745401
0.753456
0.753272
0.751373
0.758543
0.774459
0.803934
0.830291
0.809001
0.768951
0.689378
0.65412
0.647059
0.645722
0.645489
0.645461
0.645469
0.645484
0.64548
0.645449
0.645371
0.645298
0.645215
0.645083
0.64497
0.644896
0.644845
0.644811
0.644811
0.644849
0.644867
0.644824
0.64483
0.644895
0.64494
0.644905
0.644815
0.644768
0.644718
0.644493
0.644115
0.64385
0.643382
0.642705
0.642219
0.642128
0.642277
0.642292
0.642226
0.642721
0.643569
0.644487
0.645007
0.646353
0.648215
0.650034
0.651645
0.654083
0.656717
0.659148
0.662005
0.665066
0.667936
0.671069
0.674202
0.677305
0.68054
0.683773
0.686969
0.690134
0.693328
0.696521
0.699778
0.703073
0.706306
0.709531
0.712817
0.716071
0.719409
0.72275
0.726071
0.729393
0.732712
0.73603
0.739365
0.74269
0.746074
0.749443
0.752824
0.756231
0.759627
0.763011
0.766443
0.76988
0.773298
0.776719
0.780205
0.783683
0.78715
0.790631
0.794125
0.797609
0.80112
0.804677
0.808202
0.811747
0.815325
0.818918
0.822495
0.826113
0.829733
0.833369
0.83699
0.840661
0.844307
0.848036
0.851679
0.855417
0.859077
0.8628
0.866449
0.870061
0.873643
0.877272
0.880854
0.884588
0.888225
0.892256
0.896322
0.900818
0.905394
0.910288
0.915253
0.920301
0.92482
0.928991
0.932011
0.935186
0.937462
0.939314
0.940494
0.940951
0.943367
0.944188
0.947264
0.952787
0.962057
0.972137
0.978986
0.983904
0.987704
0.990729
0.99314
0.995032
0.996483
0.997567
0.998355
0.998912
0.999295
0.999553
0.999722
0.99983
0.999898
0.99994
0.999965
0.99998
0.999989
0.999994
0.999997
0.999998
0.999999
0.999999
1
1
1
1
1
1
1
1
1
1
1
1
1
1
1
1
1
1
1
1
1
1
1
1
1
1
1
1
1
1
1
1
1
1
1
1
1
1
1
1
1
1
1
1
1
1
1
1
1
1
1
1
1
1
1
1
1
1
1
1
1
1
1
1
1
1
1
1
1
1
1
1
1
1
1
1
1
1
1
1
1
1
1
1
1
1
1
1
1
1
1
1
1
1
1
1
1
1
1
1
1
1
1
1
1
1
1
1
1
1
1
1
1
1
1
1
1
1
1
1
1
1
1
1
1
1
1
1
1
1
1
1
1
1
1
1
1
1
1
1
1
1
1
1
1
1
1
1
1
1
1
1
1
1
1
1
1
1
1
1
1
1
1
1
1
1
1
1
1
1
1
1
1
1
1
1
1
1
1
1
1
1
1
1
1
1
1
1
1
1
1
1
1
1
1
1
1
1
1
1
1
1
1
1
1
1
1
1
1
1
1
1
1
1
1
1
1
1
1
1
1
1
1
1
1
1
1
1
1
1
1
1
1
1
1
1
1
1
1
1
1
1
1
1
1
1
1
1
1
1
1
1
1
1
1
1
1
1
1
1
1
1
1
1
1
1
1
1
1
1
1
1
1
1
1
1
1
1
1
1
1
1
1
1
1
1
1
1
1
1
1
1
1
1
1
1
1
1
1
1
1
1
1
1
1
1
1
1
1
1
1
1
1
1
1
1
1
1
1
1
)
;

boundaryField
{
    front-back
    {
        type            empty;
    }
    inlet-outlet
    {
        type            calculated;
        value           nonuniform List<scalar> 2(1 0.125);
    }
    top-down
    {
        type            empty;
    }
}


// ************************************************************************* //
