/*--------------------------------*- C++ -*----------------------------------*\
| =========                 |                                                 |
| \\      /  F ield         | OpenFOAM: The Open Source CFD Toolbox           |
|  \\    /   O peration     | Version:  2.2.x                                 |
|   \\  /    A nd           | Web:      www.OpenFOAM.org                      |
|    \\/     M anipulation  |                                                 |
\*---------------------------------------------------------------------------*/
FoamFile
{
    version     2.0;
    format      ascii;
    class       volScalarField;
    location    "1.35";
    object      pB;
}
// * * * * * * * * * * * * * * * * * * * * * * * * * * * * * * * * * * * * * //

dimensions      [1 1 -3 0 0 -1 0];

internalField   nonuniform List<scalar> 
14161
(
-3.06272e-05
7.97636e-07
-4.78682e-06
-7.40198e-06
-1.09175e-05
-1.48383e-05
-1.9515e-05
-2.4965e-05
-3.14797e-05
-3.90598e-05
-4.81099e-05
-5.83324e-05
-7.05691e-05
-8.33195e-05
-9.97366e-05
-0.000115383
-0.000131514
-0.000156007
-0.000173701
-0.00018189
-0.000223124
-0.000229844
-0.000238321
-0.000251306
-0.000243817
-0.00023586
-0.000188745
-0.00014428
-9.81164e-05
-4.39118e-05
-5.20224e-06
0.000111293
0.000243565
0.00043372
0.000662097
0.000963499
0.00132368
0.0017648
0.00232842
0.00296923
0.00368775
0.00448464
0.00546378
0.00631689
0.00662668
0.00422428
0.000914428
-0.00562339
-0.00106726
-0.00285743
0.00207692
0.00145366
0.00184026
0.00105251
0.00202644
0.00122598
0.00162919
0.00171479
0.0016146
0.00166976
0.00163575
0.00132384
0.00134637
0.000853193
0.000964256
0.000798778
0.000477242
0.000451919
-5.98941e-05
-0.000292557
-1.34262e-05
-0.000299566
-0.000380794
-0.000479915
-0.000660716
-0.000500714
-0.000442517
-0.000903787
-0.00131201
-0.00109547
-0.00117527
-0.00130189
-0.00100211
-0.00135097
-0.00172149
-0.00160545
-0.00133047
-0.00169024
-0.00208913
-0.00198192
-0.00263886
-0.00238406
-0.00285958
-0.00282032
-0.00322672
-0.00317752
-0.00374026
-0.00389084
-0.00427004
-0.00477114
-0.00458952
-0.00637112
-0.00906515
-0.0144846
-0.0210419
-0.0270628
-0.0209108
-0.0128512
-0.0100315
-0.00766107
-0.00604406
-0.00441141
-0.00322102
-0.00170968
-0.00192676
-0.00255369
-0.00660063
0.0049038
-0.0531206
-3.06882e-05
8.13827e-07
-4.79554e-06
-7.40692e-06
-1.09322e-05
-1.48615e-05
-1.95321e-05
-2.49982e-05
-3.14943e-05
-3.90994e-05
-4.80934e-05
-5.84021e-05
-7.04178e-05
-8.36909e-05
-9.93201e-05
-0.000114888
-0.000133014
-0.000153947
-0.000170093
-0.00019101
-0.000214385
-0.00023165
-0.000234346
-0.00025703
-0.00024078
-0.000222997
-0.000199329
-0.000151339
-0.000100818
-4.08229e-05
-7.2759e-06
0.000106803
0.000238711
0.000425446
0.00065395
0.000948088
0.00129974
0.00174345
0.00229971
0.00295056
0.00369434
0.00453877
0.00556854
0.00633504
0.00755704
0.00624426
0.00504824
-0.00969194
0.000849398
-0.00120678
0.00033646
0.00120637
0.00183904
0.000526165
0.00178676
0.000635893
0.00044288
0.000173785
-3.13291e-06
-0.000338949
-0.000661032
-0.000804349
-0.00107785
-0.000994014
-0.000901135
-0.000721948
-0.000946482
-0.00117974
-0.0013279
-0.000982608
-0.000677245
-0.000898996
-0.00144448
-0.0019091
-0.00189332
-0.00184387
-0.00176944
-0.00198565
-0.00223377
-0.00212732
-0.00186394
-0.00197217
-0.00189154
-0.00216145
-0.00280208
-0.0029943
-0.0027118
-0.00279215
-0.00267239
-0.00234499
-0.00293778
-0.00283899
-0.00346857
-0.00309575
-0.00367942
-0.00378795
-0.00420541
-0.00467883
-0.00588212
-0.00536277
-0.0049823
-0.00624676
-0.00445191
-0.00278196
-0.000288232
0.00464654
0.00368388
0.00131831
0.000773825
0.000437808
0.000376321
0.000523587
0.000860885
0.00153037
0.000598966
0.000911269
-0.00446613
0.00806975
-0.0421499
-3.06184e-05
7.74888e-07
-4.82469e-06
-7.43154e-06
-1.09359e-05
-1.48541e-05
-1.95095e-05
-2.49884e-05
-3.14829e-05
-3.9094e-05
-4.80681e-05
-5.84492e-05
-7.0377e-05
-8.38427e-05
-9.91103e-05
-0.000115233
-0.000133513
-0.000153521
-0.000170548
-0.00019384
-0.000211401
-0.000232774
-0.000234535
-0.000256995
-0.000249517
-0.000226929
-0.000205619
-0.00016421
-0.000108627
-4.8371e-05
-2.11915e-05
7.6696e-05
0.000203791
0.000376581
0.000594393
0.0008675
0.00120841
0.00163843
0.00213765
0.00275166
0.00349008
0.00443104
0.00545852
0.00659962
0.00821185
0.00762345
0.00552949
-0.0126004
0.000128111
-0.00161977
0.00220013
0.000176117
0.0022632
0.000605706
0.00145073
0.00124615
0.00100039
0.00123541
0.00109142
0.000914905
0.000644034
0.000642375
0.000349025
3.49962e-05
-0.000246498
-0.000369589
-0.00039847
-0.000600081
-0.000708924
-0.00084158
-0.00089842
-0.000999888
-0.00121547
-0.00138352
-0.0013066
-0.0013277
-0.00136598
-0.00153247
-0.00156301
-0.00170941
-0.00188051
-0.00209128
-0.00217516
-0.00164771
-0.00181275
-0.00180561
-0.001842
-0.00248671
-0.0029501
-0.00244498
-0.00275253
-0.00244618
-0.00297486
-0.00272007
-0.00362936
-0.00383827
-0.00451881
-0.00426908
-0.00372526
-0.00490944
-0.00540832
-0.00549197
-0.00985751
-0.0108426
-0.00703893
-0.00787677
0.000611653
0.00269197
0.000905846
0.00026552
6.98452e-05
0.000263503
0.000557708
0.0011905
0.000326164
0.000313873
-0.00507726
0.00638716
-0.0365947
-3.05703e-05
7.9856e-07
-4.79956e-06
-7.4146e-06
-1.09363e-05
-1.48527e-05
-1.95013e-05
-2.49914e-05
-3.14733e-05
-3.91003e-05
-4.80363e-05
-5.84966e-05
-7.02352e-05
-8.42529e-05
-9.85509e-05
-0.000115772
-0.000134593
-0.000151414
-0.000172277
-0.000197965
-0.000206723
-0.000233991
-0.000239444
-0.00025517
-0.0002535
-0.000222056
-0.000218407
-0.000180836
-0.000125347
-6.54343e-05
-2.81032e-05
4.66327e-05
0.000166122
0.000320431
0.00052319
0.000766316
0.00109194
0.0014878
0.00193553
0.00250471
0.00321293
0.00412824
0.00499183
0.00617852
0.00722356
0.00616036
0.00657219
-0.0185078
0.00502551
-0.00102538
0.0030141
0.000842468
0.00140047
0.00115113
0.00116633
0.00114758
0.000838062
0.000922977
0.000904801
0.000904647
0.000802207
0.00049958
0.000179192
0.000228012
5.84345e-06
-0.000365355
-0.000457799
-0.000724716
-0.000533468
-0.000689865
-0.00106059
-0.000992246
-0.00103369
-0.00114183
-0.00130698
-0.00140899
-0.00169193
-0.00190082
-0.00173353
-0.00165268
-0.00198422
-0.00204305
-0.00214438
-0.00167827
-0.0021621
-0.0021861
-0.00257168
-0.00287599
-0.00266157
-0.00231284
-0.0030632
-0.00288795
-0.00334936
-0.00323707
-0.0041048
-0.00411094
-0.00364497
-0.00391702
-0.00456257
-0.00469666
-0.00562556
-0.00709123
-0.00647183
-0.00561953
-0.0037091
-0.0013685
0.000659737
0.00221572
0.000220255
0.00060276
0.000378764
0.000438858
0.000633547
0.00106545
5.67417e-05
0.000486447
-0.00458434
0.0050089
-0.0305419
-3.04791e-05
7.7972e-07
-4.80951e-06
-7.41453e-06
-1.09229e-05
-1.48428e-05
-1.94871e-05
-2.49729e-05
-3.14454e-05
-3.91069e-05
-4.798e-05
-5.85742e-05
-7.01398e-05
-8.43007e-05
-9.81899e-05
-0.000115895
-0.000135229
-0.00015024
-0.000172565
-0.000199748
-0.000205596
-0.000233505
-0.000252587
-0.000248355
-0.000255963
-0.000241632
-0.000223103
-0.000193658
-0.000155098
-0.000105268
-4.53049e-05
-7.71881e-06
9.87553e-05
0.000223227
0.000399086
0.000606048
0.000878598
0.00119821
0.00159546
0.00207833
0.00271156
0.0034483
0.00434486
0.00549138
0.006512
0.00670102
0.00928304
-0.0216782
0.00737495
0.000193189
0.00371679
0.00154791
0.00157707
0.0018851
0.00173973
0.00171326
0.00123789
0.00122281
0.00101213
0.000872665
0.000783213
0.000532044
0.00055434
0.000387897
0.00012147
-0.000100741
-0.000275085
-5.15213e-05
-0.000294593
-0.000615274
-0.000970489
-0.00125133
-0.00109234
-0.00107433
-0.00125782
-0.00160476
-0.0016711
-0.00169909
-0.00166771
-0.00149646
-0.00187364
-0.00200913
-0.00212523
-0.00154995
-0.00203827
-0.00198147
-0.00224869
-0.00259042
-0.00238641
-0.00247257
-0.00316274
-0.0026301
-0.00334232
-0.00327776
-0.00298584
-0.00298499
-0.00394719
-0.00410436
-0.00411762
-0.00532759
-0.00638998
-0.0054224
-0.00414229
-0.00332947
-0.00311703
-0.000726178
0.00244234
0.00137618
0.001255
0.00109728
0.000814289
0.00077213
0.000791172
0.000863422
-0.000351791
3.94251e-05
-0.0038735
0.00377292
-0.0252885
-3.03886e-05
7.6872e-07
-4.80554e-06
-7.41014e-06
-1.09132e-05
-1.48315e-05
-1.9477e-05
-2.49456e-05
-3.14249e-05
-3.90914e-05
-4.79424e-05
-5.85592e-05
-7.01394e-05
-8.44183e-05
-9.83549e-05
-0.000116542
-0.000135177
-0.000150497
-0.000174288
-0.000197994
-0.000209511
-0.000229063
-0.000260051
-0.00024889
-0.00025211
-0.00026785
-0.000230381
-0.000206052
-0.000183377
-0.000151176
-9.60928e-05
-4.34978e-05
1.91872e-05
0.000115834
0.00025042
0.000414019
0.000618972
0.000857977
0.0011622
0.00154541
0.00201685
0.00253203
0.00310472
0.0041399
0.00443963
0.00396657
0.0117372
-0.0200826
0.00917803
0.00205079
0.00447113
0.00334744
0.00200131
0.00262569
0.00144437
0.00142862
0.000771209
0.00113212
0.00103662
0.000617487
0.000665182
0.000408112
0.000187474
8.91031e-05
-0.00011806
0.000136546
0.000183695
-0.00013722
-0.000590945
-0.000268281
-0.000817046
-0.00125612
-0.00127785
-0.00126616
-0.00135384
-0.00150399
-0.00157891
-0.00154418
-0.0017038
-0.00167667
-0.00174288
-0.00186687
-0.00219723
-0.00142867
-0.00232169
-0.00240823
-0.0026032
-0.00267038
-0.00214825
-0.00239056
-0.00295176
-0.00264939
-0.0024673
-0.00259459
-0.0032726
-0.00382322
-0.00332751
-0.00388698
-0.00491775
-0.0066363
-0.00365827
-0.00399309
-0.00315568
-0.0030885
-0.00163372
0.000843415
0.000791972
0.00143716
0.00098328
0.000963297
0.000774011
0.000744526
0.000635894
0.00052197
-0.000484919
-0.00024631
-0.00324783
0.00289473
-0.020917
-3.02569e-05
7.51805e-07
-4.80462e-06
-7.40274e-06
-1.08978e-05
-1.48062e-05
-1.94471e-05
-2.49104e-05
-3.13914e-05
-3.9044e-05
-4.79347e-05
-5.84744e-05
-7.02681e-05
-8.41894e-05
-9.88709e-05
-0.000116104
-0.00013433
-0.000152362
-0.000174591
-0.000194445
-0.000215747
-0.000228615
-0.000261821
-0.000257531
-0.000253048
-0.00028279
-0.000257477
-0.000227532
-0.000222913
-0.000195573
-0.000162632
-0.000119205
-6.09568e-05
-1.456e-05
6.25665e-05
0.000152887
0.000269239
0.000404808
0.000569668
0.000786117
0.00106322
0.00138757
0.00182623
0.00217194
0.00260985
0.0018542
0.0145105
-0.0142589
0.0109009
0.00394856
0.00581056
0.00433338
0.00217045
0.00301581
0.00253474
0.0019418
0.00123636
0.000512127
0.000279994
-0.000128694
5.63082e-05
-0.000299386
-0.000589247
-0.000658612
-0.00100223
-0.00083486
-0.000456901
-0.000898989
-0.000921077
-0.000504371
-0.000739594
-0.00137434
-0.00134871
-0.00137138
-0.00128624
-0.00138905
-0.00182502
-0.0016234
-0.00172633
-0.00181172
-0.0019028
-0.00224169
-0.00227
-0.00161829
-0.00255888
-0.00235114
-0.00205415
-0.00222618
-0.00240707
-0.00191881
-0.00195019
-0.0021369
-0.0027549
-0.00382509
-0.0036137
-0.00328492
-0.00229535
-0.00517106
-0.00455106
-0.00273252
-0.00304982
-0.00345886
-0.00294193
-0.0020647
-0.000380081
0.000178968
0.00102554
0.00105242
0.000819769
0.000889472
0.000669262
0.000566166
0.000422308
0.000211899
-0.000656869
-0.000546526
-0.00285676
0.00225266
-0.0175161
-3.01212e-05
7.34885e-07
-4.79963e-06
-7.39627e-06
-1.08769e-05
-1.47795e-05
-1.94187e-05
-2.48684e-05
-3.13468e-05
-3.89872e-05
-4.79322e-05
-5.83401e-05
-7.04554e-05
-8.36641e-05
-9.94331e-05
-0.000116028
-0.000133972
-0.00015459
-0.000175201
-0.000193744
-0.000218774
-0.000233631
-0.000256079
-0.000266472
-0.000275198
-0.000278464
-0.000280241
-0.000282912
-0.00026288
-0.000233824
-0.000227769
-0.000220855
-0.000201433
-0.000165332
-0.000132433
-0.000110778
-8.73366e-05
-5.15205e-05
-2.08644e-05
-2.19582e-07
2.17526e-06
9.07805e-05
0.000144523
-5.49154e-06
0.000120233
-0.00293763
0.0132897
-0.00417841
0.0129639
0.00715545
0.00709341
0.00531836
0.00266695
0.0033195
0.00195125
0.00137545
0.00122467
0.00149157
0.00123104
0.000395683
0.000589414
-5.21133e-05
3.42307e-05
-0.000326949
-0.000494807
-0.000388544
-0.00098566
-0.00126664
-0.000916349
-0.000889703
-0.00103658
-0.00122334
-0.00143297
-0.00140565
-0.00113561
-0.00133669
-0.00152079
-0.00137429
-0.00153673
-0.00185079
-0.00168514
-0.00181432
-0.00190156
-0.00160029
-0.00203743
-0.00195519
-0.00228278
-0.00192112
-0.00146711
-0.00174208
-0.00323097
-0.00417799
-0.00330242
-0.00263109
-0.00163349
-0.00408148
-0.0033586
-0.00375505
-0.00124539
-0.00286152
-0.00314571
-0.00305704
-0.00201917
-0.000822586
-0.000662112
3.391e-05
0.000389213
0.000518011
0.000566914
0.000618828
0.000398254
0.000296437
0.000156102
-5.17834e-05
-0.000777893
-0.00069524
-0.00262427
0.00183174
-0.0148858
-2.99447e-05
7.16601e-07
-4.79079e-06
-7.38399e-06
-1.08523e-05
-1.47354e-05
-1.93808e-05
-2.48129e-05
-3.12813e-05
-3.89173e-05
-4.7871e-05
-5.82684e-05
-7.05535e-05
-8.33672e-05
-0.00010005
-0.000116043
-0.000133479
-0.000156232
-0.000175891
-0.000192834
-0.000221925
-0.000243463
-0.000250542
-0.000276536
-0.000303251
-0.000274693
-0.000284881
-0.000333012
-0.000318318
-0.000287539
-0.000274389
-0.000311384
-0.00035719
-0.000367476
-0.000364014
-0.000393707
-0.0004679
-0.000572959
-0.000713603
-0.000901125
-0.00121958
-0.00153489
-0.00165481
-0.00162319
-0.00115579
-0.000834945
0.011721
0.00367194
0.00507565
0.00754768
0.00715787
0.006427
0.000745783
0.00139411
0.000953761
0.00149233
0.00102044
0.00126928
0.000388659
2.21587e-05
-3.61933e-06
-3.17599e-05
-0.000774321
-0.000613608
-0.000864678
-0.00103532
-0.000849192
-0.0013642
-0.00141173
-0.000976169
-0.00105659
-0.00129776
-0.00111473
-0.00124109
-0.00150029
-0.00130183
-0.00136373
-0.00158034
-0.00159595
-0.00141447
-0.00151142
-0.00148662
-0.00170309
-0.00195624
-0.00172365
-0.00146499
-0.00136568
-0.00219413
-0.00277126
-0.00321711
-0.00274327
-0.00228192
-0.00168927
-0.00328835
-0.0033169
-0.00379604
-0.00137124
-0.00256607
-0.00298621
-0.00233678
-0.00298081
-0.00223456
-0.000902304
-0.00158944
-0.000810161
-0.000328819
8.75118e-06
0.000217865
0.000311065
0.000332483
6.72998e-05
1.06093e-05
-9.4507e-05
-0.000367666
-0.000950113
-0.000765833
-0.00252013
0.00152209
-0.0129595
-2.97596e-05
6.94682e-07
-4.78121e-06
-7.36228e-06
-1.08293e-05
-1.4695e-05
-1.93192e-05
-2.47555e-05
-3.12109e-05
-3.8845e-05
-4.78065e-05
-5.81561e-05
-7.05451e-05
-8.33916e-05
-0.000100206
-0.000116027
-0.000134212
-0.000156747
-0.000176509
-0.000194575
-0.000224494
-0.000247564
-0.000250168
-0.000287725
-0.000313864
-0.000298697
-0.000305525
-0.000362811
-0.000375764
-0.000369266
-0.000361458
-0.000393804
-0.000465411
-0.000550926
-0.000605361
-0.000670795
-0.000823503
-0.001064
-0.00136907
-0.00173805
-0.00217539
-0.00283926
-0.00343002
-0.00379691
-0.00346688
0.00154078
0.00162875
0.0348833
-0.00522341
0.00392496
0.00302644
0.00508023
0.00268073
0.00248059
0.00213952
0.00154152
0.00190964
0.000651502
-0.000243113
-0.000175439
-0.000406452
-0.000417589
-0.00101986
-0.00104245
-0.00093634
-0.000962316
-0.000993943
-0.00107255
-0.00128775
-0.0010824
-0.00084646
-0.00113947
-0.00121635
-0.00106497
-0.00102982
-0.00118451
-0.00119318
-0.00121069
-0.00152768
-0.00148176
-0.00151513
-0.00135553
-0.00140771
-0.00146618
-0.0021684
-0.00228386
-0.00252928
-0.00239696
-0.00139394
-0.00203906
-0.00131846
-0.00267587
-0.00277977
-0.00244548
-0.00370516
0.000765275
-0.00146152
-0.00258702
-0.00199756
-0.00270856
-0.00238714
-0.00130792
-0.00175189
-0.00146784
-0.00103069
-0.000476227
-0.000381051
-0.000109395
-1.15259e-05
-1.26343e-05
-0.000211394
-0.00018731
-0.000268803
-0.000632506
-0.00103231
-0.000732303
-0.00237021
0.00131408
-0.0113615
-2.95347e-05
6.74246e-07
-4.76928e-06
-7.33621e-06
-1.07877e-05
-1.46466e-05
-1.92448e-05
-2.467e-05
-3.11186e-05
-3.87664e-05
-4.76923e-05
-5.81115e-05
-7.03381e-05
-8.37061e-05
-9.98017e-05
-0.000116227
-0.000135225
-0.000156776
-0.000176223
-0.000198653
-0.000225614
-0.000247451
-0.000264584
-0.000294477
-0.000320878
-0.00032951
-0.00035034
-0.000369087
-0.000403433
-0.000445697
-0.000471728
-0.000498235
-0.000546633
-0.000670082
-0.000811503
-0.000946002
-0.00115122
-0.00145965
-0.00186793
-0.00246515
-0.00322417
-0.00448584
-0.00623478
-0.0101169
-0.0138074
-0.0180505
-0.0394328
0.0466284
-0.0120328
0.0142882
0.0011959
0.00315204
0.00241584
0.00249663
0.001473
0.000443458
-0.000405537
0.000272082
-0.000738268
-0.000462518
-0.000978107
-0.000802722
-0.00102334
-0.00113726
-0.000878457
-0.000866253
-0.000799032
-0.000877093
-0.00081252
-0.000866075
-0.00076559
-0.000779232
-0.00105227
-0.00115965
-0.00115203
-0.00127095
-0.00128901
-0.00128321
-0.00124841
-0.00106912
-0.0011473
-0.00196015
-0.00181733
-0.00181698
-0.0015629
-0.00165582
-0.00157932
-0.000865282
-0.00258844
-0.00168263
-0.00205525
-0.000294401
-0.00345098
0.00225995
-0.000597288
-0.00198565
-0.00149595
-0.00179775
-0.00234681
-0.00220248
-0.00210875
-0.00161244
-0.00168482
-0.00150599
-0.000866489
-0.000624668
-0.000495225
-0.000263273
-0.000255397
-0.000167173
-0.000391022
-0.000279527
-0.000427401
-0.000817978
-0.00100684
-0.000634599
-0.00214061
0.00121078
-0.0100252
-2.92959e-05
6.50338e-07
-4.75565e-06
-7.30873e-06
-1.07441e-05
-1.45822e-05
-1.91764e-05
-2.45765e-05
-3.09947e-05
-3.86402e-05
-4.75716e-05
-5.80342e-05
-7.00753e-05
-8.4124e-05
-9.90993e-05
-0.000116801
-0.000135817
-0.000156812
-0.000178404
-0.000203313
-0.000225017
-0.000249055
-0.000278048
-0.000300853
-0.000318142
-0.00035525
-0.00039284
-0.0003866
-0.000420772
-0.00050358
-0.000570719
-0.000591812
-0.000626312
-0.000759112
-0.000960951
-0.00115331
-0.00138299
-0.00168757
-0.00210294
-0.00267984
-0.00333512
-0.00432243
-0.00521704
-0.005904
-0.00708346
-0.00619653
0.00517149
0.0208605
0.058369
0.00476799
0.00371518
-0.00139499
-0.00148808
-0.00169815
-0.000584278
-0.00069176
-0.000468368
-0.000886301
-0.00065749
-0.000948778
-0.00168129
-0.0016446
-0.00161077
-0.00151914
-0.00117456
-0.00104655
-0.000770912
-0.00100558
-0.000962726
-0.000944487
-0.000910106
-0.000937852
-0.00095011
-0.000872803
-0.000754673
-0.000814331
-0.00099237
-0.00129448
-0.00187891
-0.00149059
-0.00169803
-0.00168865
-0.00146867
-0.00117731
-0.00125682
-0.00188762
-0.00108426
-0.00198296
-0.00050482
0.000268473
-0.00423191
0.00308898
-0.000173721
-0.00106632
-0.00102187
-0.00112718
-0.00161673
-0.00176696
-0.00189898
-0.00243385
-0.00122411
-0.00175092
-0.00142847
-0.0013737
-0.000648899
-0.000663802
-0.000474382
-0.000336071
-0.000286601
-0.0001907
-0.000354079
-0.000274043
-0.00045352
-0.00081378
-0.000853575
-0.000480405
-0.00187429
0.00110723
-0.00889479
-2.90169e-05
6.28476e-07
-4.73408e-06
-7.27509e-06
-1.06834e-05
-1.45084e-05
-1.90721e-05
-2.44803e-05
-3.08643e-05
-3.84858e-05
-4.74666e-05
-5.78597e-05
-7.00072e-05
-8.41279e-05
-9.87124e-05
-0.000117659
-0.000136233
-0.00015597
-0.000180471
-0.000206258
-0.000224907
-0.000252943
-0.000292338
-0.000307671
-0.000323054
-0.00038239
-0.000423328
-0.000424417
-0.000455953
-0.000542958
-0.000627869
-0.000680671
-0.000725031
-0.000830829
-0.00102756
-0.00125463
-0.00149458
-0.00174541
-0.00208575
-0.0024762
-0.00301189
-0.0034806
-0.0041409
-0.00470608
-0.0041431
-0.00313575
0.00503583
0.0244116
0.0349189
-0.00216331
-0.00150911
-0.00055523
-0.00261623
-0.000520794
-0.00379434
-0.00244144
-0.00280922
-0.00212453
-0.00162325
-0.00144011
-0.0012212
-0.00108339
-0.000900517
-0.00101745
-0.00108365
-0.00115489
-0.000948704
-0.000834911
-0.000701339
-0.000814662
-0.000804603
-0.000829296
-0.00113905
-0.00117441
-0.00152365
-0.00181309
-0.00140146
-0.00146823
-0.0014752
-0.00141919
-0.00125628
-0.00117769
-0.00166076
-0.0007751
-0.00149414
0.000383909
0.000832419
-0.0027093
0.000755978
0.00288531
8.00744e-05
-0.000306073
-0.000366286
-0.000158877
-0.00105052
-0.0011997
-0.00136013
-0.00138346
-0.00226062
-0.000896967
-0.0017047
-0.00128875
-0.00139645
-0.000924522
-0.000707519
-0.000542377
-0.000421194
-0.00029095
-0.00020634
-0.000193593
-0.000287803
-0.000304462
-0.000469322
-0.0008371
-0.00077236
-0.000451479
-0.00167983
0.000973576
-0.00795557
-2.87187e-05
6.01106e-07
-4.70816e-06
-7.24101e-06
-1.0618e-05
-1.44285e-05
-1.89589e-05
-2.43403e-05
-3.07218e-05
-3.82985e-05
-4.72783e-05
-5.76925e-05
-6.98415e-05
-8.40537e-05
-9.87694e-05
-0.000118066
-0.000136685
-0.000156162
-0.000182771
-0.000207276
-0.000227468
-0.000260725
-0.000297923
-0.000314871
-0.000342155
-0.00039641
-0.000436413
-0.000462629
-0.00050239
-0.000569919
-0.000652009
-0.000727134
-0.000813803
-0.000897005
-0.00105461
-0.00124757
-0.00146547
-0.00166261
-0.00197024
-0.00218793
-0.00252657
-0.00279989
-0.00305968
-0.00317216
-0.00303262
-0.00194403
0.0119501
0.0309714
0.00903291
-0.0014028
0.00191063
-0.00214695
-0.00216994
-0.00226272
-0.00261299
-0.00301778
-0.00307524
-0.00273609
-0.0019295
-0.0016591
-0.0014804
-0.001287
-0.000967246
-0.000875865
-0.00126396
-0.00131982
-0.00121253
-0.00115778
-0.000932136
-0.00125045
-0.0011534
-0.00114107
-0.00154499
-0.00125929
-0.00138299
-0.0018269
-0.00109827
-0.00134242
-0.000875895
-0.00151479
-0.000900415
-0.00120589
0.000981018
0.00108643
-0.00199863
-0.000214156
0.00272093
0.00129014
0.0011904
0.000578517
0.000126336
0.000349987
-0.00037981
-0.000544357
-0.000753937
-0.000980232
-0.00117001
-0.00129784
-0.00119317
-0.00140773
-0.00119935
-0.00122082
-0.000999948
-0.000780059
-0.000559256
-0.00045419
-0.000333736
-0.000239626
-0.000108195
-0.000199681
-0.000187453
-0.000356486
-0.000414186
-0.0008044
-0.000642677
-0.000400406
-0.00147
0.000856745
-0.00709674
-2.83786e-05
5.76202e-07
-4.67653e-06
-7.18993e-06
-1.05471e-05
-1.43188e-05
-1.88409e-05
-2.41839e-05
-3.05553e-05
-3.80927e-05
-4.70702e-05
-5.74704e-05
-6.96546e-05
-8.37603e-05
-9.92985e-05
-0.000117582
-0.000137312
-0.000157341
-0.000183873
-0.000207898
-0.000232271
-0.00026612
-0.000298076
-0.00032645
-0.000361174
-0.000403173
-0.000448523
-0.000493861
-0.000542247
-0.000595008
-0.000672
-0.000752178
-0.000853199
-0.000945341
-0.00107261
-0.00121019
-0.0014039
-0.00153965
-0.00174629
-0.00186244
-0.00201032
-0.00198713
-0.00210594
-0.00164492
-0.00091474
-0.000527526
0.0291693
0.00344315
0.00157565
-0.00198815
-0.00268813
-0.000715016
-0.0017543
-0.00297305
-0.00335869
-0.0029347
-0.0025082
-0.0025776
-0.00176522
-0.00174505
-0.00132856
-0.00138187
-0.0012446
-0.00102753
-0.0013846
-0.000757257
-0.000952919
-0.00130266
-0.000983014
-0.00143725
-0.00138024
-0.00125757
-0.00177979
-0.00118986
-0.00170972
-0.000923839
-0.000873439
-0.000569966
-0.000114391
0.00080943
0.000172426
-0.00169301
0.00147225
0.00297398
0.00292211
0.000607717
0.00127914
0.000960226
0.00113334
0.000669608
0.000106005
0.000141298
-0.000133694
-0.000423769
-0.00069961
-0.000864703
-0.000981536
-0.00099107
-0.00105751
-0.0009966
-0.00102796
-0.000939761
-0.000813616
-0.000621599
-0.000414569
-0.000351265
-0.000251256
-0.000203729
-2.90036e-05
-0.000202291
-0.000116556
-0.000365548
-0.000383743
-0.000786832
-0.000598544
-0.00044648
-0.00133933
0.000705592
-0.00633971
-2.80122e-05
5.4734e-07
-4.64453e-06
-7.13297e-06
-1.04652e-05
-1.42012e-05
-1.86869e-05
-2.40035e-05
-3.03637e-05
-3.78388e-05
-4.67984e-05
-5.72325e-05
-6.94189e-05
-8.33877e-05
-9.96611e-05
-0.000116721
-0.000137808
-0.00015898
-0.000183671
-0.000209796
-0.000237703
-0.000268854
-0.000300629
-0.00033965
-0.000373491
-0.000408867
-0.000463079
-0.000519858
-0.000569876
-0.000612977
-0.000684033
-0.000763684
-0.000864822
-0.00095323
-0.00104459
-0.00114938
-0.00125182
-0.00136976
-0.00145775
-0.00149152
-0.00145646
-0.0014861
-0.0011435
-0.000755173
0.000955247
0.00710732
0.0334107
-0.0020166
-0.00103971
-0.00242035
-0.00259753
-0.00190877
0.00142327
-0.00184429
-0.00253254
-0.00140649
-0.00196204
-0.00274783
-0.00175311
-0.00176622
-0.000746384
-0.00139983
-0.000983475
-0.00136783
-0.00220358
-0.00100012
-0.001378
-0.00208061
-0.00176161
-0.00208468
-0.00113107
-0.0017261
-0.000795609
-0.00151396
-0.0005084
0.00127304
-8.34161e-05
-0.000288511
-0.00105271
0.00213145
0.0036849
0.00206695
0.00141891
0.00207744
0.000995898
0.00196794
0.0013596
0.000998112
0.00055217
0.000734843
0.000398843
0.000156334
-0.000134316
-0.000326382
-0.000517244
-0.000677764
-0.0007255
-0.000698556
-0.00079865
-0.000820965
-0.000802082
-0.000705979
-0.00060356
-0.000521235
-0.000304679
-0.000297933
-0.000204242
-0.00016791
2.96083e-05
-0.000176893
-7.93641e-05
-0.000312245
-0.000338041
-0.000701624
-0.000540285
-0.000460998
-0.00117251
0.000548476
-0.0056202
-2.76014e-05
5.19661e-07
-4.60515e-06
-7.06683e-06
-1.03676e-05
-1.40747e-05
-1.85199e-05
-2.37827e-05
-3.01102e-05
-3.75881e-05
-4.64273e-05
-5.69655e-05
-6.89906e-05
-8.32796e-05
-9.93256e-05
-0.00011665
-0.000138011
-0.000160714
-0.000182955
-0.000210473
-0.000242007
-0.00027109
-0.000306313
-0.000347644
-0.000383173
-0.000415018
-0.000474268
-0.000537621
-0.000587561
-0.000622244
-0.000686571
-0.000768964
-0.000860924
-0.000934058
-0.000998238
-0.00105736
-0.00113582
-0.00117415
-0.0011829
-0.00124534
-0.00126974
-0.0014752
-0.00167497
-0.00244834
-0.00312773
0.00825924
0.0172132
-0.001072
0.00193307
-0.000425081
0.000632844
-4.77073e-05
0.000509723
0.000510482
0.000268172
0.000145339
-0.000500533
-0.00120099
-0.000655005
-0.00164426
-0.00161387
-0.00231633
-0.00195237
-0.00190238
-0.00225343
-0.00203161
-0.00244443
-0.00123213
-0.00226369
-0.000542234
-0.00102739
0.000562465
0.000202933
-0.00168051
-0.000543875
0.00232912
0.00224782
0.0037905
0.00153762
0.00114023
0.00143455
0.0016384
0.00170728
0.00264625
0.00132766
0.00163381
0.00107363
0.00107998
0.00088692
0.000518804
0.000322828
0.000115545
-3.90244e-05
-0.000228925
-0.00035979
-0.000571213
-0.000452141
-0.000670751
-0.000527042
-0.000646842
-0.000581846
-0.000561419
-0.000474115
-0.00045076
-0.000226984
-0.000235424
-0.000146612
-0.000107929
4.28451e-05
-0.000148463
-0.00010129
-0.00029344
-0.00034911
-0.000602893
-0.000541508
-0.000530253
-0.00102571
0.000359945
-0.004939
-2.71573e-05
4.87253e-07
-4.5606e-06
-6.98896e-06
-1.02528e-05
-1.39185e-05
-1.83362e-05
-2.35629e-05
-2.98132e-05
-3.72883e-05
-4.60808e-05
-5.65675e-05
-6.85889e-05
-8.28042e-05
-9.88608e-05
-0.000116767
-0.000138285
-0.000161016
-0.000183186
-0.000211953
-0.000244398
-0.000273421
-0.000307619
-0.000350772
-0.000389542
-0.000425127
-0.000483355
-0.000545502
-0.000594624
-0.000634899
-0.000694114
-0.000768013
-0.000843883
-0.000905031
-0.000958416
-0.000978336
-0.00101414
-0.0010158
-0.00100228
-0.000957208
-0.000904085
-0.000586086
-0.00015228
0.0015609
0.00286953
0.0277262
0.00441267
0.00030465
-2.27865e-05
-0.000683634
-0.000270355
-0.00012362
0.000720559
0.000809584
0.00157487
-0.00110351
-0.000272046
-0.000713259
-0.002377
-0.00160929
-0.00194703
-0.00132144
-0.00220992
-0.00172626
-0.00053164
-0.0040602
4.90586e-05
-0.00107184
0.00014411
0.000507446
-0.00166742
0.00101989
0.00300646
0.00347575
0.00160967
0.00138633
0.00152384
0.00171811
0.00168121
0.00206062
0.00189798
0.00166455
0.00143222
0.00197633
0.00145662
0.00159993
0.00115296
0.000898198
0.000779309
0.000529866
0.000354603
0.000170945
3.70553e-05
-0.000139423
-0.000165624
-0.000378537
-0.00019402
-0.000469449
-0.000395644
-0.000529257
-0.000481777
-0.000466164
-0.000340449
-0.000313887
-0.000136293
-0.00021198
-9.78496e-05
-8.81851e-05
-1.31114e-06
-0.00014239
-0.000167626
-0.000249529
-0.000345139
-0.000519771
-0.000487003
-0.000504842
-0.000832555
0.000215951
-0.0042624
-2.66628e-05
4.56805e-07
-4.50728e-06
-6.90783e-06
-1.01292e-05
-1.37402e-05
-1.81021e-05
-2.3291e-05
-2.94801e-05
-3.68769e-05
-4.56599e-05
-5.608e-05
-6.82638e-05
-8.21168e-05
-9.83461e-05
-0.000116808
-0.000137714
-0.000160794
-0.00018447
-0.000213084
-0.000245298
-0.000277732
-0.000311476
-0.000352418
-0.000393167
-0.000435506
-0.000488154
-0.000545998
-0.000590108
-0.000644221
-0.000702101
-0.000767771
-0.000818205
-0.000879426
-0.000895238
-0.000915418
-0.0009079
-0.000933162
-0.000892843
-0.000802086
-0.000644042
-0.000287422
0.000233527
0.00194567
0.00646781
0.026558
-0.00583578
-0.000669825
-0.00202689
-0.00142678
-0.00227779
-0.00171513
-0.00165863
-0.00124578
-0.00252072
-0.00131888
-0.000529687
-0.00112809
-0.00290629
-0.00143162
-0.00288905
-0.00153586
-0.00319391
0.00232335
-0.00141073
-0.000513339
-4.72821e-06
-0.000663471
0.00137542
0.00315283
0.00225562
0.00100039
0.00197529
0.00155777
0.00203791
0.00217982
0.00219275
0.00193905
0.00164149
0.00175116
0.00177523
0.00156716
0.00168232
0.00162317
0.00145074
0.00139541
0.00136749
0.000926134
0.000826452
0.000505374
0.000368401
0.000127768
8.53743e-05
-0.000133809
-0.000161472
-0.000266786
-8.17804e-05
-0.000304206
-0.000272022
-0.000388654
-0.000338369
-0.000374495
-0.000196715
-0.000264332
-9.91365e-05
-0.000214958
-5.21021e-05
-8.72957e-05
-1.60023e-05
-0.000167743
-0.000232044
-0.000173338
-0.000355848
-0.000515776
-0.000476792
-0.000602305
-0.00071258
6.54356e-05
-0.00366129
-2.61284e-05
4.20654e-07
-4.44416e-06
-6.81295e-06
-9.98809e-06
-1.35518e-05
-1.78491e-05
-2.30004e-05
-2.91261e-05
-3.64439e-05
-4.51295e-05
-5.55005e-05
-6.77096e-05
-8.13817e-05
-9.77659e-05
-0.000116604
-0.000136641
-0.000160382
-0.00018556
-0.000213197
-0.000246495
-0.000281838
-0.000314092
-0.000352916
-0.000394185
-0.000444875
-0.000490299
-0.000547677
-0.000589057
-0.000646161
-0.000700273
-0.000749655
-0.00079945
-0.000830441
-0.000830198
-0.000865321
-0.000888185
-0.000926082
-0.000938877
-0.00100437
-0.00113159
-0.00137253
-0.00216047
-0.00243863
0.00605159
0.0141111
-0.00139765
0.00148532
-0.00140725
-0.000736513
-0.0011045
-0.0013693
-0.00197571
-0.00232639
-0.00167449
-0.00376075
-0.00656625
-0.00361991
-0.00310052
-0.00124608
-0.000979558
0.000253534
-0.00240305
0.000956552
0.000427686
0.00189151
0.00417776
0.00121323
0.00135314
0.00166186
0.00212389
0.00217931
0.00244091
0.00239843
0.00183694
0.00201404
0.00210852
0.00207472
0.00219025
0.00175609
0.001878
0.00139723
0.00166461
0.00132698
0.00128278
0.00110363
0.000951882
0.000736868
0.000588454
0.000420084
0.000293063
0.000169218
0.000115402
-1.72907e-05
-3.13538e-05
-0.0001485
-2.70586e-05
-0.000249255
-0.000273157
-0.000357832
-0.000330557
-8.64321e-05
-0.000151485
-0.000148572
-7.90591e-05
-0.000172613
-2.16124e-05
-0.000111454
-4.22436e-05
-0.000225634
-0.0002634
-0.000169126
-0.000331923
-0.000494992
-0.000401087
-0.000593617
-0.000555025
-7.94083e-06
-0.00304702
-2.55407e-05
3.83637e-07
-4.37281e-06
-6.7002e-06
-9.82576e-06
-1.33335e-05
-1.75608e-05
-2.26458e-05
-2.86906e-05
-3.58967e-05
-4.45655e-05
-5.48764e-05
-6.6869e-05