/*--------------------------------*- C++ -*----------------------------------*\
| =========                 |                                                 |
| \\      /  F ield         | OpenFOAM: The Open Source CFD Toolbox           |
|  \\    /   O peration     | Version:  2.2.x                                 |
|   \\  /    A nd           | Web:      www.OpenFOAM.org                      |
|    \\/     M anipulation  |                                                 |
\*---------------------------------------------------------------------------*/
FoamFile
{
    version     2.0;
    format      ascii;
    class       volVectorField;
    location    "0.02";
    object      U;
}
// * * * * * * * * * * * * * * * * * * * * * * * * * * * * * * * * * * * * * //

dimensions      [0 1 -1 0 0 0 0];

internalField   nonuniform List<vector> 
1024
(
(0 0 0)
(0 0 0)
(0 0 0)
(0 0 0)
(0 0 0)
(0 0 0)
(0 0 0)
(0 0 0)
(0 0 0)
(0 0 0)
(0 0 0)
(0 0 0)
(0 0 0)
(0 0 0)
(0 0 0)
(0 0 0)
(0 0 0)
(0 0 0)
(0 0 0)
(0 0 0)
(0 0 0)
(0 0 0)
(0 0 0)
(0 0 0)
(0 0 0)
(0 0 0)
(0 0 0)
(0 0 0)
(0 0 0)
(0 0 0)
(0 0 0)
(0 0 0)
(0 0 0)
(0 0 0)
(0 0 0)
(0 0 0)
(0 0 0)
(0 0 0)
(0 0 0)
(0 0 0)
(0 0 0)
(0 0 0)
(0 0 0)
(0 0 0)
(0 0 0)
(0 0 0)
(0 0 0)
(0 0 0)
(0 0 0)
(0 0 0)
(0 0 0)
(0 0 0)
(0 0 0)
(0 0 0)
(0 0 0)
(0 0 0)
(0 0 0)
(0 0 0)
(0 0 0)
(0 0 0)
(0 0 0)
(0 0 0)
(0 0 0)
(0 0 0)
(0 0 0)
(0 0 0)
(0 0 0)
(0 0 0)
(0 0 0)
(0 0 0)
(0 0 0)
(0 0 0)
(0 0 0)
(0 0 0)
(0 0 0)
(0 0 0)
(0 0 0)
(0 0 0)
(0 0 0)
(0 0 0)
(0 0 0)
(0 0 0)
(0 0 0)
(0 0 0)
(0 0 0)
(0 0 0)
(0 0 0)
(0 0 0)
(0 0 0)
(0 0 0)
(0 0 0)
(0 0 0)
(0 0 0)
(0 0 0)
(0 0 0)
(0 0 0)
(0 0 0)
(0 0 0)
(0 0 0)
(0 0 0)
(0 0 0)
(0 0 0)
(0 0 0)
(0 0 0)
(0 0 0)
(0 0 0)
(0 0 0)
(0 0 0)
(0 0 0)
(0 0 0)
(0 0 0)
(0 0 0)
(0 0 0)
(0 0 0)
(0 0 0)
(0 0 0)
(0 0 0)
(0 0 0)
(0 0 0)
(0 0 0)
(0 0 0)
(0 0 0)
(0 0 0)
(0 0 0)
(0 0 0)
(0 0 0)
(0 0 0)
(0 0 0)
(0 0 0)
(0 0 0)
(0 0 0)
(0 0 0)
(0 0 0)
(0 0 0)
(0 0 0)
(0 0 0)
(0 0 0)
(0 0 0)
(0 0 0)
(0 0 0)
(0 0 0)
(0 0 0)
(0 0 0)
(0 0 0)
(0 0 0)
(0 0 0)
(0 0 0)
(0 0 0)
(0 0 0)
(0 0 0)
(0 0 0)
(0 0 0)
(0 0 0)
(0 0 0)
(0 0 0)
(0 0 0)
(0 0 0)
(0 0 0)
(0 0 0)
(0 0 0)
(0 0 0)
(0 0 0)
(0 0 0)
(0 0 0)
(0 0 0)
(0 0 0)
(0 0 0)
(0 0 0)
(0 0 0)
(0 0 0)
(0 0 0)
(0 0 0)
(0 0 0)
(0 0 0)
(0 0 0)
(0 0 0)
(0 0 0)
(0 0 0)
(0 0 0)
(0 0 0)
(0 0 0)
(0 0 0)
(0 0 0)
(0 0 0)
(0 0 0)
(0 0 0)
(0 0 0)
(0 0 0)
(0 0 0)
(0 0 0)
(0 0 0)
(0 0 0)
(0 0 0)
(0 0 0)
(0 0 0)
(0 0 0)
(0 0 0)
(0 0 0)
(0 0 0)
(0 0 0)
(0 0 0)
(0 0 0)
(0 0 0)
(0 0 0)
(0 0 0)
(0 0 0)
(0 0 0)
(0 0 0)
(0 0 0)
(0 0 0)
(0 0 0)
(0 0 0)
(0 0 0)
(0 0 0)
(0 0 0)
(0 0 0)
(0 0 0)
(0 0 0)
(0 0 0)
(0 0 0)
(0 0 0)
(0 0 0)
(0 0 0)
(0 0 0)
(0 0 0)
(0 0 0)
(0 0 0)
(0 0 0)
(0 0 0)
(0 0 0)
(0 0 0)
(0 0 0)
(0 0 0)
(0 0 0)
(0 0 0)
(0 0 0)
(0 0 0)
(0 0 0)
(0 0 0)
(0 0 0)
(0 0 0)
(0 0 0)
(0 0 0)
(0 0 0)
(0 0 0)
(0 0 0)
(0 0 0)
(0 0 0)
(0 0 0)
(0 0 0)
(0 0 0)
(0 0 0)
(0 0 0)
(0 0 0)
(0 0 0)
(0 0 0)
(0 0 0)
(0 0 0)
(0 0 0)
(0 0 0)
(0 0 0)
(0 0 0)
(0 0 0)
(0 0 0)
(0 0 0)
(0 0 0)
(0 0 0)
(0 0 0)
(0 0 0)
(0 0 0)
(0 0 0)
(0 0 0)
(0 0 0)
(0 0 0)
(0 0 0)
(0 0 0)
(0 0 0)
(0 0 0)
(0 0 0)
(0 0 0)
(0 0 0)
(0 0 0)
(0 0 0)
(0 0 0)
(0 0 0)
(0 0 0)
(0 0 0)
(0 0 0)
(0 0 0)
(0 0 0)
(0 0 0)
(0 0 0)
(0 0 0)
(0 0 0)
(0 0 0)
(0 0 0)
(0 0 0)
(0 0 0)
(0 0 0)
(0 0 0)
(0 0 0)
(0 0 0)
(0 0 0)
(0 0 0)
(0 0 0)
(0 0 0)
(0 0 0)
(0 0 0)
(0 0 0)
(0 0 0)
(0 0 0)
(0 0 0)
(0 0 0)
(0 0 0)
(0 0 0)
(0 0 0)
(0 0 0)
(0 0 0)
(0 0 0)
(0 0 0)
(0 0 0)
(0 0 0)
(0 0 0)
(0 0 0)
(0 0 0)
(0 0 0)
(0 0 0)
(0 0 0)
(0 0 0)
(0 0 0)
(0 0 0)
(0 0 0)
(0 0 0)
(0 0 0)
(0 0 0)
(0 0 0)
(0 0 0)
(0 0 0)
(0 0 0)
(0 0 0)
(0 0 0)
(0 0 0)
(0 0 0)
(0 0 0)
(0 0 0)
(0 0 0)
(0 0 0)
(0 0 0)
(0 0 0)
(0 0 0)
(0 0 0)
(0 0 0)
(0 0 0)
(0 0 0)
(0 0 0)
(0 0 0)
(0 0 0)
(0 0 0)
(0 0 0)
(0 0 0)
(0 0 0)
(0 0 0)
(0 0 0)
(0 0 0)
(0 0 0)
(0 0 0)
(0 0 0)
(0 0 0)
(0 0 0)
(0 0 0)
(0 0 0)
(0 0 0)
(0 0 0)
(0 0 0)
(0 0 0)
(0 0 0)
(0 0 0)
(0 0 0)
(0 0 0)
(0 0 0)
(0 0 0)
(0 0 0)
(0 0 0)
(0 0 0)
(0 0 0)
(0 0 0)
(0 0 0)
(0 0 0)
(0 0 0)
(0 0 0)
(0 0 0)
(0 0 0)
(0 0 0)
(0 0 0)
(0 0 0)
(0 0 0)
(-7.27596e-17 -2.42532e-17 0)
(-1.1399e-15 -6.54836e-16 0)
(-6.04511e-15 -3.97752e-15 0)
(-1.86568e-14 -1.26359e-14 0)
(-5.36905e-14 -3.59311e-14 0)
(-1.48587e-13 -1.00263e-13 0)
(-4.12898e-13 -2.78014e-13 0)
(-1.13241e-12 -7.63879e-13 0)
(-3.06321e-12 -2.06997e-12 0)
(-8.18369e-12 -5.52742e-12 0)
(-2.15641e-11 -1.45645e-11 0)
(-5.60492e-11 -3.78502e-11 0)
(-1.43645e-10 -9.70011e-11 0)
(-3.62921e-10 -2.45076e-10 0)
(-9.037e-10 -6.10256e-10 0)
(-2.21725e-09 -1.49728e-09 0)
(-5.35873e-09 -3.61869e-09 0)
(-1.27536e-08 -8.6124e-09 0)
(-2.98809e-08 -2.01783e-08 0)
(-6.88964e-08 -4.65251e-08 0)
(-1.56274e-07 -1.05531e-07 0)
(-3.48581e-07 -2.35393e-07 0)
(-7.64312e-07 -5.16133e-07 0)
(-1.64665e-06 -1.11197e-06 0)
(-3.48415e-06 -2.35281e-06 0)
(-7.23671e-06 -4.88689e-06 0)
(-1.4747e-05 -9.95852e-06 0)
(-2.94665e-05 -1.98986e-05 0)
(-5.76961e-05 -3.89623e-05 0)
(-0.000110626 -7.47071e-05 0)
(-0.000207556 -0.000140169 0)
(-0.000380737 -0.000257136 0)
(-0.000682247 -0.000460801 0)
(-0.00119308 -0.000805931 0)
(-0.00203407 -0.00137431 0)
(-0.00337736 -0.00228265 0)
(-0.00545564 -0.0036891 0)
(-0.00856523 -0.00579594 0)
(-0.0130582 -0.00884517 0)
(-0.0193197 -0.0131045 0)
(-0.0277303 -0.0188436 0)
(-0.0386183 -0.0263031 0)
(-0.0522118 -0.0356621 0)
(-0.0686103 -0.0470109 0)
(-0.0872799 -0.0599954 0)
(-0.105367 -0.0726914 0)
(-0.122516 -0.0848265 0)
(-0.139014 -0.0965856 0)
(-0.155089 -0.108122 0)
(-0.170797 -0.119475 0)
(-0.186179 -0.130667 0)
(-0.201072 -0.141578 0)
(-0.215295 -0.152066 0)
(-0.228566 -0.161914 0)
(-0.2406 -0.170896 0)
(-0.251126 -0.178795 0)
(-0.259987 -0.185473 0)
(-0.267093 -0.190849 0)
(-0.272445 -0.194909 0)
(-0.276381 -0.197901 0)
(-0.278794 -0.199741 0)
(-0.280459 -0.201008 0)
(-0.281153 -0.201542 0)
(-0.281525 -0.201826 0)
(-0.281606 -0.201891 0)
(-0.28155 -0.201849 0)
(-0.281235 -0.201612 0)
(-0.280573 -0.201111 0)
(-0.279762 -0.200498 0)
(-0.279012 -0.199932 0)
(-0.278289 -0.199386 0)
(-0.277523 -0.198807 0)
(-0.276582 -0.198091 0)
(-0.275284 -0.197102 0)
(-0.273747 -0.195934 0)
(-0.272447 -0.194973 0)
(-0.271459 -0.194255 0)
(-0.270787 -0.193719 0)
(-0.270386 -0.193342 0)
(-0.270152 -0.193149 0)
(-0.269813 -0.193295 0)
(-0.269141 -0.194202 0)
(-0.267198 -0.197579 0)
(-0.259543 -0.208211 0)
(-0.23363 -0.241986 0)
(-0.157685 -0.34419 0)
(0.0258614 -0.602726 0)
(0.332219 -1.05966 0)
(0.533166 -1.39103 0)
(0.621902 -1.54072 0)
(0.651527 -1.59607 0)
(0.660822 -1.61359 0)
(0.663931 -1.61864 0)
(0.664628 -1.61946 0)
(0.664761 -1.61828 0)
(0.664285 -1.61661 0)
(0.663533 -1.61567 0)
(0.663414 -1.61563 0)
(0.663199 -1.61629 0)
(0.661561 -1.61658 0)
(0.658723 -1.61588 0)
(0.656709 -1.61392 0)
(0.654896 -1.61243 0)
(0.65583 -1.61197 0)
(0.657858 -1.61315 0)
(0.66003 -1.61407 0)
(0.660407 -1.61647 0)
(0.663164 -1.61865 0)
(0.66528 -1.62183 0)
(0.666053 -1.62563 0)
(0.666054 -1.62599 0)
(0.663533 -1.62452 0)
(0.658143 -1.62046 0)
(0.653259 -1.60825 0)
(0.644626 -1.58439 0)
(0.63002 -1.54826 0)
(0.60867 -1.50026 0)
(0.579596 -1.44103 0)
(0.549272 -1.372 0)
(0.521559 -1.28067 0)
(0.484471 -1.17117 0)
(0.500457 -1.02898 0)
(0.530616 -0.815562 0)
(0.585355 -0.58492 0)
(0.665714 -0.439032 0)
(0.701667 -0.359722 0)
(0.708602 -0.317471 0)
(0.701417 -0.29415 0)
(0.692065 -0.280083 0)
(0.675099 -0.270813 0)
(0.653865 -0.262728 0)
(0.629038 -0.252841 0)
(0.602805 -0.240923 0)
(0.575653 -0.227265 0)
(0.546997 -0.21254 0)
(0.517327 -0.197917 0)
(0.48699 -0.18368 0)
(0.455765 -0.169836 0)
(0.424134 -0.156237 0)
(0.392408 -0.142958 0)
(0.360355 -0.129753 0)
(0.328165 -0.11685 0)
(0.296092 -0.10418 0)
(0.263633 -0.0917582 0)
(0.231422 -0.0796419 0)
(0.198989 -0.0677562 0)
(0.166499 -0.0561631 0)
(0.135279 -0.0452571 0)
(0.106974 -0.035479 0)
(0.0818739 -0.0269397 0)
(0.0603213 -0.019712 0)
(0.0425871 -0.0138371 0)
(0.0287144 -0.00928687 0)
(0.0184525 -0.00594697 0)
(0.011294 -0.00363057 0)
(0.00658708 -0.0021137 0)
(0.00366585 -0.00117493 0)
(0.0019504 -0.000624652 0)
(0.000994235 -0.000318279 0)
(0.000486675 -0.000155757 0)
(0.000229252 -7.33598e-05 0)
(0.000104131 -3.33191e-05 0)
(4.56914e-05 -1.46194e-05 0)
(1.93994e-05 -6.20692e-06 0)
(7.98148e-06 -2.55368e-06 0)
(3.18636e-06 -1.01947e-06 0)
(1.23578e-06 -3.95385e-07 0)
(4.66111e-07 -1.49132e-07 0)
(1.71148e-07 -5.47586e-08 0)
(6.12322e-08 -1.95912e-08 0)
(2.13635e-08 -6.83521e-09 0)
(7.27414e-09 -2.32735e-09 0)
(2.41889e-09 -7.7392e-10 0)
(7.86074e-10 -2.51503e-10 0)
(2.49798e-10 -7.99225e-11 0)
(7.76671e-11 -2.48499e-11 0)
(2.36397e-11 -7.56362e-12 0)
(7.0475e-12 -2.25463e-12 0)
(2.05882e-12 -6.58382e-13 0)
(5.89407e-13 -1.88461e-13 0)
(1.65158e-13 -5.28523e-14 0)
(4.54656e-14 -1.43897e-14 0)
(1.25389e-14 -3.78956e-15 0)
(2.66482e-15 -6.33615e-16 0)
(3.1226e-16 -4.85064e-17 0)
(6.0633e-18 0 0)
(0 0 0)
(0 0 0)
(0 0 0)
(0 0 0)
(0 0 0)
(0 0 0)
(0 0 0)
(0 0 0)
(0 0 0)
(0 0 0)
(0 0 0)
(0 0 0)
(0 0 0)
(0 0 0)
(0 0 0)
(0 0 0)
(0 0 0)
(0 0 0)
(0 0 0)
(0 0 0)
(0 0 0)
(0 0 0)
(0 0 0)
(0 0 0)
(0 0 0)
(0 0 0)
(0 0 0)
(0 0 0)
(0 0 0)
(0 0 0)
(0 0 0)
(0 0 0)
(0 0 0)
(0 0 0)
(0 0 0)
(0 0 0)
(0 0 0)
(0 0 0)
(0 0 0)
(0 0 0)
(0 0 0)
(0 0 0)
(0 0 0)
(0 0 0)
(0 0 0)
(0 0 0)
(0 0 0)
(0 0 0)
(0 0 0)
(0 0 0)
(0 0 0)
(0 0 0)
(0 0 0)
(0 0 0)
(0 0 0)
(0 0 0)
(0 0 0)
(0 0 0)
(0 0 0)
(0 0 0)
(0 0 0)
(0 0 0)
(0 0 0)
(0 0 0)
(0 0 0)
(0 0 0)
(0 0 0)
(0 0 0)
(0 0 0)
(0 0 0)
(0 0 0)
(0 0 0)
(0 0 0)
(0 0 0)
(0 0 0)
(0 0 0)
(0 0 0)
(0 0 0)
(0 0 0)
(0 0 0)
(0 0 0)
(0 0 0)
(0 0 0)
(0 0 0)
(0 0 0)
(0 0 0)
(0 0 0)
(0 0 0)
(0 0 0)
(0 0 0)
(0 0 0)
(0 0 0)
(0 0 0)
(0 0 0)
(0 0 0)
(0 0 0)
(0 0 0)
(0 0 0)
(0 0 0)
(0 0 0)
(0 0 0)
(0 0 0)
(0 0 0)
(0 0 0)
(0 0 0)
(0 0 0)
(0 0 0)
(0 0 0)
(0 0 0)
(0 0 0)
(0 0 0)
(0 0 0)
(0 0 0)
(0 0 0)
(0 0 0)
(0 0 0)
(0 0 0)
(0 0 0)
(0 0 0)
(0 0 0)
(0 0 0)
(0 0 0)
(0 0 0)
(0 0 0)
(0 0 0)
(0 0 0)
(0 0 0)
(0 0 0)
(0 0 0)
(0 0 0)
(0 0 0)
(0 0 0)
(0 0 0)
(0 0 0)
(0 0 0)
(0 0 0)
(0 0 0)
(0 0 0)
(0 0 0)
(0 0 0)
(0 0 0)
(0 0 0)
(0 0 0)
(0 0 0)
(0 0 0)
(0 0 0)
(0 0 0)
(0 0 0)
(0 0 0)
(0 0 0)
(0 0 0)
(0 0 0)
(0 0 0)
(0 0 0)
(0 0 0)
(0 0 0)
(0 0 0)
(0 0 0)
(0 0 0)
(0 0 0)
(0 0 0)
(0 0 0)
(0 0 0)
(0 0 0)
(0 0 0)
(0 0 0)
(0 0 0)
(0 0 0)
(0 0 0)
(0 0 0)
(0 0 0)
(0 0 0)
(0 0 0)
(0 0 0)
(0 0 0)
(0 0 0)
(0 0 0)
(0 0 0)
(0 0 0)
(0 0 0)
(0 0 0)
(0 0 0)
(0 0 0)
(0 0 0)
(0 0 0)
(0 0 0)
(0 0 0)
(0 0 0)
(0 0 0)
(0 0 0)
(0 0 0)
(0 0 0)
(0 0 0)
(0 0 0)
(0 0 0)
(0 0 0)
(0 0 0)
(0 0 0)
(0 0 0)
(0 0 0)
(0 0 0)
(0 0 0)
(0 0 0)
(0 0 0)
(0 0 0)
(0 0 0)
(0 0 0)
(0 0 0)
(0 0 0)
(0 0 0)
(0 0 0)
(0 0 0)
(0 0 0)
(0 0 0)
(0 0 0)
(0 0 0)
(0 0 0)
(0 0 0)
(0 0 0)
(0 0 0)
(0 0 0)
(0 0 0)
(0 0 0)
(0 0 0)
(0 0 0)
(0 0 0)
(0 0 0)
(0 0 0)
(0 0 0)
(0 0 0)
(0 0 0)
(0 0 0)
(0 0 0)
(0 0 0)
(0 0 0)
(0 0 0)
(0 0 0)
(0 0 0)
(0 0 0)
(0 0 0)
(0 0 0)
(0 0 0)
(0 0 0)
(0 0 0)
(0 0 0)
(0 0 0)
(0 0 0)
(0 0 0)
(0 0 0)
(0 0 0)
(0 0 0)
(0 0 0)
(0 0 0)
(0 0 0)
(0 0 0)
(0 0 0)
(0 0 0)
(0 0 0)
(0 0 0)
(0 0 0)
(0 0 0)
(0 0 0)
(0 0 0)
(0 0 0)
(0 0 0)
(0 0 0)
(0 0 0)
(0 0 0)
(0 0 0)
(0 0 0)
(0 0 0)
(0 0 0)
(0 0 0)
(0 0 0)
(0 0 0)
(0 0 0)
(0 0 0)
(0 0 0)
(0 0 0)
(0 0 0)
(0 0 0)
(0 0 0)
(0 0 0)
(0 0 0)
(0 0 0)
(0 0 0)
(0 0 0)
(0 0 0)
(0 0 0)
(0 0 0)
(0 0 0)
(0 0 0)
(0 0 0)
(0 0 0)
(0 0 0)
(0 0 0)
(0 0 0)
(0 0 0)
(0 0 0)
(0 0 0)
(0 0 0)
(0 0 0)
(0 0 0)
(0 0 0)
(0 0 0)
(0 0 0)
(0 0 0)
(0 0 0)
(0 0 0)
(0 0 0)
(0 0 0)
(0 0 0)
(0 0 0)
(0 0 0)
(0 0 0)
(0 0 0)
(0 0 0)
(0 0 0)
(0 0 0)
(0 0 0)
(0 0 0)
(0 0 0)
(0 0 0)
(0 0 0)
(0 0 0)
(0 0 0)
(0 0 0)
(0 0 0)
(0 0 0)
(0 0 0)
(0 0 0)
(0 0 0)
(0 0 0)
(0 0 0)
(0 0 0)
(0 0 0)
(0 0 0)
(0 0 0)
(0 0 0)
(0 0 0)
(0 0 0)
(0 0 0)
(0 0 0)
(0 0 0)
(0 0 0)
(0 0 0)
(0 0 0)
(0 0 0)
(0 0 0)
(0 0 0)
(0 0 0)
(0 0 0)
(0 0 0)
(0 0 0)
(0 0 0)
(0 0 0)
(0 0 0)
(0 0 0)
(0 0 0)
(0 0 0)
(0 0 0)
(0 0 0)
(0 0 0)
(0 0 0)
(0 0 0)
(0 0 0)
(0 0 0)
(0 0 0)
(0 0 0)
(0 0 0)
(0 0 0)
(0 0 0)
(0 0 0)
(0 0 0)
(0 0 0)
(0 0 0)
(0 0 0)
(0 0 0)
(0 0 0)
(0 0 0)
(0 0 0)
(0 0 0)
(0 0 0)
(0 0 0)
(0 0 0)
(0 0 0)
(0 0 0)
(0 0 0)
(0 0 0)
(0 0 0)
(0 0 0)
(0 0 0)
(0 0 0)
(0 0 0)
(0 0 0)
(0 0 0)
(0 0 0)
(0 0 0)
(0 0 0)
(0 0 0)
(0 0 0)
(0 0 0)
(0 0 0)
(0 0 0)
(0 0 0)
(0 0 0)
(0 0 0)
(0 0 0)
(0 0 0)
(0 0 0)
(0 0 0)
(0 0 0)
(0 0 0)
(0 0 0)
(0 0 0)
(0 0 0)
(0 0 0)
(0 0 0)
(0 0 0)
(0 0 0)
(0 0 0)
(0 0 0)
(0 0 0)
(0 0 0)
(0 0 0)
(0 0 0)
(0 0 0)
(0 0 0)
(0 0 0)
(0 0 0)
(0 0 0)
(0 0 0)
(0 0 0)
(0 0 0)
(0 0 0)
(0 0 0)
(0 0 0)
(0 0 0)
(0 0 0)
(0 0 0)
(0 0 0)
(0 0 0)
)
;

boundaryField
{
    front-back
    {
        type            empty;
    }
    inlet-outlet
    {
        type            zeroGradient;
    }
    top-down
    {
        type            empty;
    }
}


// ************************************************************************* //
