/*--------------------------------*- C++ -*----------------------------------*\
| =========                 |                                                 |
| \\      /  F ield         | OpenFOAM: The Open Source CFD Toolbox           |
|  \\    /   O peration     | Version:  2.2.x                                 |
|   \\  /    A nd           | Web:      www.OpenFOAM.org                      |
|    \\/     M anipulation  |                                                 |
\*---------------------------------------------------------------------------*/
FoamFile
{
    version     2.0;
    format      ascii;
    class       volScalarField;
    location    "0.04";
    object      Ma;
}
// * * * * * * * * * * * * * * * * * * * * * * * * * * * * * * * * * * * * * //

dimensions      [0 0 0 0 0 0 0];

internalField   nonuniform List<scalar> 
1024
(
0
0
0
0
0
0
0
0
0
0
0
0
0
0
0
0
0
0
0
0
0
0
0
0
0
0
0
0
0
0
0
0
0
0
0
0
0
0
0
0
0
0
0
0
0
0
0
0
0
0
0
0
0
0
0
0
0
0
0
0
0
0
0
0
0
0
0
0
0
0
0
0
0
0
0
0
0
0
0
0
0
0
0
0
0
0
0
0
0
0
0
0
0
0
0
0
0
0
0
0
0
0
0
0
0
0
0
0
0
0
0
0
0
0
0
0
0
0
0
0
0
0
0
0
0
0
0
0
0
0
0
0
0
0
0
0
0
0
0
0
0
0
0
0
0
0
0
0
0
0
0
0
0
0
0
0
0
0
0
0
0
0
0
0
0
0
0
0
0
0
0
0
0
0
0
0
0
0
0
0
0
0
0
0
0
0
0
0
0
0
0
0
0
0
0
0
0
0
0
0
0
0
0
0
0
0
0
0
0
0
0
0
0
0
0
0
0
0
0
0
0
0
0
0
0
0
0
0
0
0
0
0
0
0
0
0
0
0
0
0
0
0
0
0
0
0
0
0
0
0
0
0
0
0
0
0
0
0
0
0
0
0
0
0
0
0
0
0
0
0
0
0
0
0
0
0
0
0
0
0
0
0
0
0
0
0
0
0
0
0
0
0
0
0
0
0
0
0
0
0
0
0
0
0
0
0
0
0
0
0
0
2.10039e-17
4.74451e-16
3.21622e-15
1.12125e-14
2.20714e-14
4.46539e-14
9.20369e-14
1.99464e-13
4.40328e-13
9.79063e-13
2.1709e-12
4.78827e-12
1.04833e-11
2.276e-11
4.89781e-11
1.04443e-10
2.20685e-10
4.61962e-10
9.57901e-10
1.96722e-09
4.0007e-09
8.05573e-09
1.60578e-08
3.16817e-08
6.18572e-08
1.19495e-07
2.28351e-07
4.31572e-07
8.06505e-07
1.48991e-06
2.72021e-06
4.90702e-06
8.74344e-06
1.53837e-05
2.67183e-05
4.57905e-05
7.7409e-05
0.000129026
0.000211956
0.000342993
0.000546484
0.000856817
0.00132121
0.00200252
0.0029816
0.00435855
0.00625204
0.00879607
0.0121334
0.0164063
0.0217444
0.0282526
0.0360004
0.0450157
0.0552834
0.0667518
0.0793464
0.0928329
0.106204
0.11931
0.132246
0.145085
0.157833
0.17051
0.183081
0.195467
0.207666
0.219444
0.230898
0.241635
0.251868
0.261116
0.269677
0.277097
0.283688
0.289172
0.293731
0.297432
0.300173
0.302395
0.303776
0.304857
0.305424
0.30574
0.305897
0.305904
0.305848
0.305602
0.305029
0.304
0.302429
0.300727
0.299341
0.298217
0.29736
0.296707
0.296213
0.295846
0.295595
0.295373
0.295226
0.295087
0.294959
0.294836
0.294711
0.294569
0.294392
0.294151
0.29381
0.293327
0.292827
0.292432
0.292163
0.291999
0.291919
0.291899
0.291908
0.291991
0.292224
0.292693
0.293482
0.29434
0.294984
0.295406
0.295646
0.295745
0.295765
0.295728
0.295546
0.295122
0.294412
0.293747
0.293264
0.292951
0.292802
0.292767
0.292818
0.293115
0.293696
0.294225
0.294002
0.292459
0.296516
0.3606
0.575807
0.805593
0.919114
0.962238
0.978707
0.984722
0.986823
0.987459
0.987601
0.98766
0.987543
0.987236
0.98668
0.985838
0.984621
0.983241
0.982121
0.981475
0.981321
0.981539
0.982388
0.984478
0.988547
0.995531
1.00644
1.0226
1.04541
1.07624
1.11636
1.1667
1.22727
1.28942
1.34212
1.38342
1.41533
1.4395
1.45751
1.4709
1.48077
1.48785
1.49288
1.49635
1.49853
1.50019
1.50177
1.50334
1.50538
1.50802
1.51068
1.51308
1.51489
1.51557
1.51549
1.51322
1.50737
1.49723
1.4829
1.46476
1.44129
1.41233
1.3779
1.33805
1.29301
1.24255
1.18695
1.1271
1.05896
0.971052
0.882856
0.77795
0.675684
0.652585
0.659746
0.672107
0.682595
0.690481
0.695333
0.697536
0.697887
0.697286
0.695467
0.692081
0.686684
0.679269
0.669708
0.657885
0.644653
0.630093
0.614183
0.598004
0.581241
0.563961
0.54681
0.529495
0.512051
0.494794
0.477623
0.460446
0.443401
0.426522
0.409704
0.392979
0.376422
0.35998
0.343608
0.327401
0.311335
0.295332
0.279494
0.263798
0.248173
0.232706
0.217377
0.202127
0.187037
0.172063
0.157197
0.142476
0.127871
0.113375
0.0991504
0.0856153
0.0728433
0.0609058
0.0499112
0.0399834
0.0312353
0.0237446
0.0175344
0.0125628
0.0087266
0.00587594
0.00383617
0.00242979
0.0014944
0.000893372
0.000519695
0.000294509
0.000162762
8.78135e-05
4.62959e-05
2.38714e-05
1.20483e-05
5.95678e-06
2.8869e-06
1.37233e-06
6.40253e-07
2.93317e-07
1.32019e-07
5.84045e-08
2.54074e-08
1.0873e-08
4.57914e-09
1.89853e-09
7.7517e-10
3.11788e-10
1.23578e-10
4.82776e-11
1.85973e-11
7.06359e-12
2.64772e-12
9.79609e-13
3.58455e-13
1.29515e-13
4.61854e-14
1.67539e-14
5.38262e-15
9.30013e-16
7.18443e-17
0
0
0
0
0
0
0
0
0
0
0
0
0
0
0
0
0
0
0
0
0
0
0
0
0
0
0
0
0
0
0
0
0
0
0
0
0
0
0
0
0
0
0
0
0
0
0
0
0
0
0
0
0
0
0
0
0
0
0
0
0
0
0
0
0
0
0
0
0
0
0
0
0
0
0
0
0
0
0
0
0
0
0
0
0
0
0
0
0
0
0
0
0
0
0
0
0
0
0
0
0
0
0
0
0
0
0
0
0
0
0
0
0
0
0
0
0
0
0
0
0
0
0
0
0
0
0
0
0
0
0
0
0
0
0
0
0
0
0
0
0
0
0
0
0
0
0
0
0
0
0
0
0
0
0
0
0
0
0
0
0
0
0
0
0
0
0
0
0
0
0
0
0
0
0
0
0
0
0
0
0
0
0
0
0
0
0
0
0
0
0
0
0
0
0
0
0
0
0
0
0
0
0
0
0
0
0
0
0
0
0
0
0
0
0
0
0
0
0
0
0
0
0
0
0
0
0
0
0
0
0
0
0
0
0
0
0
0
0
0
0
0
0
0
0
0
0
0
0
0
0
0
0
0
0
0
0
0
0
0
0
0
0
0
0
0
0
0
0
0
0
0
0
0
0
0
0
0
0
0
0
0
0
0
0
0
0
0
0
0
0
0
0
0
0
0
0
0
0
0
0
0
0
0
0
0
0
0
0
0
0
0
0
0
0
0
0
0
0
0
0
0
0
0
0
0
0
0
0
0
0
0
0
0
0
0
0
0
0
0
0
0
0
0
0
0
0
0
0
0
0
0
0
0
0
0
0
0
0
0
0
0
0
0
0
0
0
0
0
0
0
0
0
0
0
0
0
0
0
0
0
0
0
0
0
0
0
0
0
0
0
0
0
0
0
0
0
0
0
0
)
;

boundaryField
{
    front-back
    {
        type            empty;
    }
    inlet-outlet
    {
        type            calculated;
        value           uniform 0;
    }
    top-down
    {
        type            empty;
    }
}


// ************************************************************************* //
