/*--------------------------------*- C++ -*----------------------------------*\
| =========                 |                                                 |
| \\      /  F ield         | OpenFOAM: The Open Source CFD Toolbox           |
|  \\    /   O peration     | Version:  2.2.x                                 |
|   \\  /    A nd           | Web:      www.OpenFOAM.org                      |
|    \\/     M anipulation  |                                                 |
\*---------------------------------------------------------------------------*/
FoamFile
{
    version     2.0;
    format      ascii;
    class       surfaceScalarField;
    location    "0.04";
    object      phi;
}
// * * * * * * * * * * * * * * * * * * * * * * * * * * * * * * * * * * * * * //

dimensions      [1 0 -1 0 0 0 0];

internalField   nonuniform List<scalar> 
1023
(
0
0
0
0
0
0
0
0
0
0
0
0
0
0
0
0
0
0
0
0
0
0
0
0
0
0
0
0
0
0
0
0
0
0
0
0
0
0
0
0
0
0
0
0
0
0
0
0
0
0
0
0
0
0
0
0
0
0
0
0
0
0
0
0
0
0
0
0
0
0
0
0
0
0
0
0
0
0
0
0
0
0
0
0
0
0
0
0
0
0
0
0
0
0
0
0
0
0
0
0
0
0
0
0
0
0
0
0
0
0
0
0
0
0
0
0
0
0
0
0
0
0
0
0
0
0
0
0
0
0
0
0
0
0
0
0
0
0
0
0
0
0
0
0
0
0
0
0
0
0
0
0
0
0
0
0
0
0
0
0
0
0
0
0
0
0
0
0
0
0
0
0
0
0
0
0
0
0
0
0
0
0
0
0
0
0
0
0
0
0
0
0
0
0
0
0
0
0
0
0
0
0
0
0
0
0
0
0
0
0
0
0
0
0
0
0
0
0
0
0
0
0
0
0
0
0
0
0
0
0
0
0
0
0
0
0
0
0
0
0
0
0
0
0
0
0
0
0
0
0
0
0
0
0
0
0
0
0
0
0
0
0
0
0
0
0
0
0
0
0
0
0
0
0
0
0
0
0
0
0
0
0
0
0
0
0
0
0
0
0
0
0
0
0
0
0
0
0
0
0
0
0
0
0
0
0
0
0
0
0
5.68434e-19
1.52174e-17
1.40593e-16
9.94154e-16
1.881e-15
3.77137e-15
7.8337e-15
1.66764e-14
3.65959e-14
8.12584e-14
1.80412e-13
3.98815e-13
8.75669e-13
1.90731e-12
4.11811e-12
8.8122e-12
1.86853e-11
3.92547e-11
8.16948e-11
1.68402e-10
3.43784e-10
6.94934e-10
1.39075e-09
2.75508e-09
5.40155e-09
1.04791e-08
2.01124e-08
3.81814e-08
7.16789e-08
1.3304e-07
2.44074e-07
4.4248e-07
7.92462e-07
1.40167e-06
2.4477e-06
4.21859e-06
7.17318e-06
1.20287e-05
1.9884e-05
3.23864e-05
5.19494e-05
8.20217e-05
0.000127398
0.000194546
0.000291912
0.000430113
0.000621959
0.000882174
0.00122676
0.00167199
0.002233
0.00292234
0.00374853
0.00471501
0.00581983
0.00705605
0.00841304
0.00988172
0.0113795
0.0128278
0.0142386
0.0156214
0.016981
0.0183194
0.0196361
0.0209256
0.0221845
0.023401
0.0245696
0.0256759
0.0267128
0.027668
0.0285343
0.0293058
0.0299769
0.0305514
0.0310253
0.031413
0.0317123
0.0319417
0.0321064
0.0322172
0.0322907
0.0323276
0.0323463
0.0323503
0.0323466
0.0323325
0.0322957
0.0322228
0.0321032
0.0319378
0.0317934
0.031677
0.0315853
0.031516
0.0314635
0.0314243
0.0313965
0.0313752
0.0313587
0.031346
0.0313336
0.0313219
0.0313104
0.031298
0.0312831
0.0312635
0.0312365
0.0311982
0.0311471
0.0311041
0.0310729
0.0310532
0.0310427
0.0310395
0.0310401
0.0310443
0.0310588
0.0310911
0.0311493
0.0312361
0.0313076
0.0313568
0.0313861
0.0313996
0.0314024
0.0314005
0.0313904
0.0313626
0.0313089
0.0312373
0.0311817
0.0311454
0.0311277
0.0311218
0.0311197
0.0311227
0.0311208
0.031036
0.0306249
0.0291952
0.0248292
0.0125267
-0.0194507
-0.0890709
-0.144383
-0.167388
-0.176109
-0.179425
-0.180544
-0.180788
-0.180779
-0.18072
-0.180529
-0.18028
-0.180029
-0.179767
-0.179455
-0.179061
-0.178749
-0.178638
-0.178666
-0.178765
-0.178982
-0.179518
-0.180674
-0.182783
-0.186295
-0.191714
-0.199589
-0.210574
-0.225381
-0.244692
-0.269064
-0.298308
-0.325734
-0.347993
-0.365613
-0.37927
-0.389774
-0.397824
-0.403883
-0.408281
-0.411296
-0.41318
-0.414217
-0.414712
-0.415217
-0.416441
-0.418157
-0.419081
-0.419401
-0.419384
-0.419094
-0.418732
-0.418726
-0.419833
-0.421699
-0.422837
-0.423054
-0.421973
-0.41908
-0.417492
-0.416667
-0.416223
-0.415656
-0.41355
-0.408822
-0.402575
-0.396672
-0.392007
-0.391834
-0.395228
-0.402008
-0.416899
-0.430691
-0.438747
-0.443643
-0.446761
-0.44875
-0.449908
-0.45046
-0.450659
-0.450528
-0.449938
-0.448812
-0.447136
-0.444882
-0.441805
-0.438079
-0.43391
-0.429021
-0.423721
-0.418201
-0.412124
-0.405792
-0.399245
-0.392292
-0.385076
-0.377688
-0.369989
-0.36199
-0.353781
-0.345313
-0.336538
-0.327511
-0.318242
-0.30867
-0.298819
-0.288731
-0.278339
-0.267658
-0.256731
-0.2455
-0.233975
-0.222192
-0.210104
-0.197722
-0.185068
-0.172109
-0.15886
-0.145327
-0.131501
-0.117422
-0.10342
-0.0898124
-0.0767004
-0.06424
-0.0526233
-0.0420513
-0.0327028
-0.0247024
-0.0180969
-0.0128465
-0.0088335
-0.00588458
-0.00379997
-0.00238069
-0.00144859
-0.000857053
-0.000493627
-0.000277089
-0.000151755
-8.11727e-05
-4.24452e-05
-2.17156e-05
-1.08788e-05
-5.34035e-06
-2.57053e-06
-1.21396e-06
-5.62809e-07
-2.56279e-07
-1.14676e-07
-5.04466e-08
-2.1826e-08
-9.29122e-09
-3.89301e-09
-1.60607e-09
-6.52606e-10
-2.61266e-10
-1.03083e-10
-4.00934e-11
-1.53768e-11
-5.81688e-12
-2.17167e-12
-8.00797e-13
-2.91658e-13
-1.04911e-13
-3.77241e-14
-1.29408e-14
-4.38788e-15
-3.60328e-16
-2.12215e-17
0
0
0
0
0
0
0
0
0
0
0
0
0
0
0
0
0
0
0
0
0
0
0
0
0
0
0
0
0
0
0
0
0
0
0
0
0
0
0
0
0
0
0
0
0
0
0
0
0
0
0
0
0
0
0
0
0
0
0
0
0
0
0
0
0
0
0
0
0
0
0
0
0
0
0
0
0
0
0
0
0
0
0
0
0
0
0
0
0
0
0
0
0
0
0
0
0
0
0
0
0
0
0
0
0
0
0
0
0
0
0
0
0
0
0
0
0
0
0
0
0
0
0
0
0
0
0
0
0
0
0
0
0
0
0
0
0
0
0
0
0
0
0
0
0
0
0
0
0
0
0
0
0
0
0
0
0
0
0
0
0
0
0
0
0
0
0
0
0
0
0
0
0
0
0
0
0
0
0
0
0
0
0
0
0
0
0
0
0
0
0
0
0
0
0
0
0
0
0
0
0
0
0
0
0
0
0
0
0
0
0
0
0
0
0
0
0
0
0
0
0
0
0
0
0
0
0
0
0
0
0
0
0
0
0
0
0
0
0
0
0
0
0
0
0
0
0
0
0
0
0
0
0
0
0
0
0
0
0
0
0
0
0
0
0
0
0
0
0
0
0
0
0
0
0
0
0
0
0
0
0
0
0
0
0
0
0
0
0
0
0
0
0
0
0
0
0
0
0
0
0
0
0
0
0
0
0
0
0
0
0
0
0
0
0
0
0
0
0
0
0
0
0
0
0
0
0
0
0
0
0
0
0
0
0
0
0
0
0
0
0
0
0
0
0
0
0
0
0
0
0
0
0
0
0
0
0
0
0
0
0
0
0
0
0
0
0
0
0
0
0
0
0
0
0
0
0
0
0
0
0
0
0
0
0
0
0
0
0
0
0
0
0
0
0
0
0
0
0
)
;

boundaryField
{
    front-back
    {
        type            empty;
        value           nonuniform 0();
    }
    inlet-outlet
    {
        type            calculated;
        value           uniform 0;
    }
    top-down
    {
        type            empty;
        value           nonuniform 0();
    }
}


// ************************************************************************* //
