/*--------------------------------*- C++ -*----------------------------------*\
| =========                 |                                                 |
| \\      /  F ield         | OpenFOAM: The Open Source CFD Toolbox           |
|  \\    /   O peration     | Version:  2.2.x                                 |
|   \\  /    A nd           | Web:      www.OpenFOAM.org                      |
|    \\/     M anipulation  |                                                 |
\*---------------------------------------------------------------------------*/
FoamFile
{
    version     2.0;
    format      ascii;
    class       volScalarField;
    location    "0.02";
    object      Ma;
}
// * * * * * * * * * * * * * * * * * * * * * * * * * * * * * * * * * * * * * //

dimensions      [0 0 0 0 0 0 0];

internalField   nonuniform List<scalar> 
1024
(
7.74597
7.74597
7.74597
7.74597
7.74597
7.74597
7.74597
7.74597
7.74597
7.74597
7.74597
7.74597
7.74597
7.74597
7.74597
7.74597
7.74597
7.74597
7.74597
7.74597
7.74597
7.74597
7.74597
7.74597
7.74597
7.74597
7.74597
7.74597
7.74597
7.74597
7.74597
7.74597
7.74597
7.74597
7.74597
7.74597
7.74597
7.74597
7.74597
7.74597
7.74597
7.74597
7.74597
7.74597
7.74597
7.74597
7.74597
7.74597
7.74597
7.74597
7.74597
7.74597
7.74597
7.74597
7.74597
7.74597
7.74597
7.74597
7.74597
7.74597
7.74597
7.74597
7.74597
7.74597
7.74597
7.74597
7.74597
7.74597
7.74597
7.74597
7.74597
7.74597
7.74597
7.74597
7.74597
7.74597
7.74597
7.74597
7.74597
7.74597
7.74597
7.74597
7.74597
7.74597
7.74597
7.74597
7.74597
7.74597
7.74597
7.74597
7.74597
7.74597
7.74597
7.74597
7.74597
7.74597
7.74597
7.74597
7.74597
7.74597
7.74597
7.74597
7.74597
7.74597
7.74597
7.74597
7.74597
7.74597
7.74597
7.74597
7.74597
7.74597
7.74597
7.74597
7.74597
7.74597
7.74597
7.74597
7.74597
7.74597
7.74597
7.74597
7.74597
7.74597
7.74597
7.74597
7.74597
7.74597
7.74597
7.74597
7.74597
7.74597
7.74597
7.74597
7.74597
7.74597
7.74597
7.74597
7.74597
7.74597
7.74597
7.74597
7.74597
7.74597
7.74597
7.74597
7.74597
7.74597
7.74597
7.74597
7.74597
7.74597
7.74597
7.74597
7.74597
7.74597
7.74597
7.74597
7.74597
7.74597
7.74597
7.74597
7.74597
7.74597
7.74597
7.74597
7.74597
7.74597
7.74597
7.74597
7.74597
7.74597
7.74597
7.74597
7.74597
7.74597
7.74597
7.74597
7.74597
7.74597
7.74597
7.74597
7.74597
7.74597
7.74597
7.74597
7.74597
7.74597
7.74597
7.74597
7.74597
7.74597
7.74597
7.74597
7.74597
7.74597
7.74597
7.74597
7.74597
7.74597
7.74597
7.74597
7.74597
7.74597
7.74597
7.74597
7.74597
7.74597
7.74597
7.74597
7.74597
7.74597
7.74597
7.74597
7.74597
7.74597
7.74597
7.74597
7.74597
7.74597
7.74597
7.74597
7.74597
7.74597
7.74597
7.74597
7.74597
7.74597
7.74597
7.74597
7.74597
7.74597
7.74597
7.74597
7.74597
7.74597
7.74597
7.74597
7.74597
7.74597
7.74597
7.74597
7.74597
7.74597
7.74597
7.74597
7.74597
7.74597
7.74597
7.74597
7.74597
7.74597
7.74597
7.74597
7.74597
7.74597
7.74597
7.74597
7.74597
7.74597
7.74597
7.74597
7.74597
7.74597
7.74597
7.74597
7.74597
7.74597
7.74597
7.74597
7.74597
7.74597
7.74597
7.74597
7.74597
7.74597
7.74597
7.74597
7.74597
7.74597
7.74597
7.74597
7.74597
7.74597
7.74597
7.74597
7.74597
7.74597
7.74597
7.74597
7.74597
7.74597
7.74597
7.74597
7.74597
7.74597
7.74597
7.74597
7.74597
7.74597
7.74597
7.74597
7.74597
7.74597
7.74597
7.74597
7.74597
7.74597
7.74597
7.74597
7.74597
7.74597
7.74597
7.74597
7.74597
7.74597
7.74597
7.74597
7.74597
7.74597
7.74597
7.74597
7.74597
7.74597
7.74597
7.74597
7.74597
7.74597
7.74597
7.74597
7.74597
7.74597
7.74597
7.74597
7.74597
7.74597
7.74597
7.74597
7.74597
7.74597
7.74597
7.74597
7.74597
7.74597
7.74597
7.74597
7.74597
7.74597
7.74597
7.74597
7.74597
7.74597
7.74597
7.74597
7.74597
7.74597
7.74597
7.74597
7.74597
7.74597
7.74597
7.74597
7.74597
7.74597
7.74597
7.74597
7.74597
7.74597
7.74597
7.74597
7.74597
7.74597
7.74597
7.74597
7.74597
7.74597
7.74597
7.74597
7.74597
7.74597
7.74597
7.74597
7.74597
7.74597
7.74597
7.74597
7.74597
7.74597
7.74597
7.74597
7.74597
7.74597
7.74597
7.74597
7.74597
7.74597
7.74597
7.74597
7.74597
7.74597
7.74597
7.74597
7.74597
7.74597
7.74597
7.74597
7.74597
7.74597
7.74597
7.74597
7.74597
7.74597
7.74597
7.74597
7.74597
7.74597
7.74831
0.331277
0.0683604
0.0972964
0.101059
0.100759
0.100683
0.100799
0.1008
0.100736
0.100706
0.100703
0.1007
0.100715
0.100745
0.10076
0.100761
0.100758
0.100743
0.100727
0.100721
0.100717
0.100721
0.100732
0.100742
0.100747
0.100747
0.100742
0.100731
0.100723
0.100719
0.100719
0.100723
0.100729
0.100733
0.100734
0.100732
0.100727
0.100722
0.100718
0.100713
0.100707
0.100704
0.100701
0.100702
0.100705
0.100708
0.100709
0.100708
0.100698
0.10069
0.100688
0.10069
0.100692
0.100698
0.100701
0.100715
0.100731
0.100753
0.100784
0.100774
0.100569
0.100048
0.0991019
0.0972549
0.0937563
0.0893806
0.0894259
0.0928196
0.0962394
0.0985776
0.0998171
0.100343
0.100422
0.10036
0.100086
0.0996001
0.0989695
0.0981654
0.0965969
0.0936203
0.0898784
0.0870312
0.0851563
0.0840637
0.0835024
0.0832631
0.0831995
0.0832564
0.0834235
0.0834868
0.0832312
0.0830362
0.0830395
0.0828122
0.0821119
0.0812366
0.0805754
0.0794124
0.0785576
0.0780973
0.0779085
0.0778767
0.0779144
0.0780052
0.0780992
0.0781667
0.0781971
0.0782066
0.0781974
0.0781807
0.0781707
0.0781543
0.0781466
0.078139
0.0781407
0.0781522
0.0781637
0.0781716
0.078175
0.0781757
0.0781733
0.0781627
0.0781473
0.0781385
0.0781354
0.0781354
0.0781366
0.078142
0.0781587
0.078173
0.0781828
0.078187
0.0781843
0.0781762
0.0781592
0.0781369
0.0781185
0.0781105
0.0781135
0.078124
0.0781418
0.0781664
0.0781848
0.078193
0.0781905
0.0781802
0.078162
0.0781376
0.078111
0.0780975
0.078094
0.0780979
0.0781048
0.0781216
0.0781477
0.0781657
0.0781751
0.0781791
0.0781785
0.0781709
0.0781528
0.0781253
0.0781042
0.078092
0.078092
0.0781055
0.078138
0.0781665
0.0781866
0.078202
0.0782121
0.0782111
0.0781982
0.0781724
0.0781332
0.0780981
0.0780825
0.0780828
0.0781054
0.0781547
0.07819
0.0782049
0.0782035
0.0781973
0.0782005
0.0781989
0.0781813
0.0781507
0.0781094
0.0780115
0.0783836
0.0830161
0.105034
0.281237
1.73118
1.73205
1.73205
1.73205
1.73205
1.73205
1.73205
1.73205
1.73205
1.73205
1.73205
1.73205
1.73205
1.73205
1.73205
1.73205
1.73205
1.73205
1.73205
1.73205
1.73205
1.73205
1.73205
1.73205
1.73205
1.73205
1.73205
1.73205
1.73205
1.73205
1.73205
1.73205
1.73205
1.73205
1.73205
1.73205
1.73205
1.73205
1.73205
1.73205
1.73205
1.73205
1.73205
1.73205
1.73205
1.73205
1.73205
1.73205
1.73205
1.73205
1.73205
1.73205
1.73205
1.73205
1.73205
1.73205
1.73205
1.73205
1.73205
1.73205
1.73205
1.73205
1.73205
1.73205
1.73205
1.73205
1.73205
1.73205
1.73205
1.73205
1.73205
1.73205
1.73205
1.73205
1.73205
1.73205
1.73205
1.73205
1.73205
1.73205
1.73205
1.73205
1.73205
1.73205
1.73205
1.73205
1.73205
1.73205
1.73205
1.73205
1.73205
1.73205
1.73205
1.73205
1.73205
1.73205
1.73205
1.73205
1.73205
1.73205
1.73205
1.73205
1.73205
1.73205
1.73205
1.73205
1.73205
1.73205
1.73205
1.73205
1.73205
1.73205
1.73205
1.73205
1.73205
1.73205
1.73205
1.73205
1.73205
1.73205
1.73205
1.73205
1.73205
1.73205
1.73205
1.73205
1.73205
1.73205
1.73205
1.73205
1.73205
1.73205
1.73205
1.73205
1.73205
1.73205
1.73205
1.73205
1.73205
1.73205
1.73205
1.73205
1.73205
1.73205
1.73205
1.73205
1.73205
1.73205
1.73205
1.73205
1.73205
1.73205
1.73205
1.73205
1.73205
1.73205
1.73205
1.73205
1.73205
1.73205
1.73205
1.73205
1.73205
1.73205
1.73205
1.73205
1.73205
1.73205
1.73205
1.73205
1.73205
1.73205
1.73205
1.73205
1.73205
1.73205
1.73205
1.73205
1.73205
1.73205
1.73205
1.73205
1.73205
1.73205
1.73205
1.73205
1.73205
1.73205
1.73205
1.73205
1.73205
1.73205
1.73205
1.73205
1.73205
1.73205
1.73205
1.73205
1.73205
1.73205
1.73205
1.73205
1.73205
1.73205
1.73205
1.73205
1.73205
1.73205
1.73205
1.73205
1.73205
1.73205
1.73205
1.73205
1.73205
1.73205
1.73205
1.73205
1.73205
1.73205
1.73205
1.73205
1.73205
1.73205
1.73205
1.73205
1.73205
1.73205
1.73205
1.73205
1.73205
1.73205
1.73205
1.73205
1.73205
1.73205
1.73205
1.73205
1.73205
1.73205
1.73205
1.73205
1.73205
1.73205
1.73205
1.73205
1.73205
1.73205
1.73205
1.73205
1.73205
1.73205
1.73205
1.73205
1.73205
1.73205
1.73205
1.73205
1.73205
1.73205
1.73205
1.73205
1.73205
1.73205
1.73205
1.73205
1.73205
1.73205
1.73205
1.73205
1.73205
1.73205
1.73205
1.73205
1.73205
1.73205
1.73205
1.73205
1.73205
1.73205
1.73205
1.73205
1.73205
1.73205
1.73205
1.73205
1.73205
1.73205
1.73205
1.73205
1.73205
1.73205
1.73205
1.73205
1.73205
1.73205
1.73205
1.73205
1.73205
1.73205
1.73205
1.73205
1.73205
1.73205
1.73205
1.73205
1.73205
1.73205
1.73205
1.73205
1.73205
1.73205
1.73205
1.73205
1.73205
1.73205
1.73205
1.73205
1.73205
1.73205
1.73205
1.73205
1.73205
1.73205
1.73205
1.73205
1.73205
1.73205
1.73205
1.73205
1.73205
1.73205
1.73205
1.73205
1.73205
1.73205
1.73205
1.73205
1.73205
1.73205
1.73205
1.73205
1.73205
1.73205
1.73205
1.73205
1.73205
1.73205
1.73205
1.73205
1.73205
1.73205
1.73205
1.73205
1.73205
1.73205
1.73205
1.73205
1.73205
1.73205
1.73205
1.73205
1.73205
1.73205
1.73205
1.73205
1.73205
1.73205
1.73205
1.73205
1.73205
1.73205
1.73205
1.73205
1.73205
1.73205
1.73205
1.73205
1.73205
1.73205
1.73205
1.73205
1.73205
1.73205
1.73205
1.73205
1.73205
1.73205
1.73205
1.73205
1.73205
1.73205
1.73205
1.73205
1.73205
1.73205
1.73205
1.73205
1.73205
1.73205
1.73205
1.73205
1.73205
1.73205
1.73205
1.73205
1.73205
1.73205
1.73205
1.73205
1.73205
1.73205
1.73205
)
;

boundaryField
{
    front-back
    {
        type            empty;
    }
    inlet-outlet
    {
        type            calculated;
        value           nonuniform List<scalar> 2(1.73205 7.74597);
    }
    top-down
    {
        type            empty;
    }
}


// ************************************************************************* //
