/*--------------------------------*- C++ -*----------------------------------*\
| =========                 |                                                 |
| \\      /  F ield         | OpenFOAM: The Open Source CFD Toolbox           |
|  \\    /   O peration     | Version:  2.2.x                                 |
|   \\  /    A nd           | Web:      www.OpenFOAM.org                      |
|    \\/     M anipulation  |                                                 |
\*---------------------------------------------------------------------------*/
FoamFile
{
    version     2.0;
    format      ascii;
    class       volScalarField;
    location    "2.35";
    object      Bx;
}
// * * * * * * * * * * * * * * * * * * * * * * * * * * * * * * * * * * * * * //

dimensions      [1 0 -2 0 0 -1 0];

internalField   nonuniform List<scalar> 
14161
(
1.00351
1.00258
1.00276
1.00284
1.00296
1.0031
1.00326
1.00343
1.00363
1.00384
1.00406
1.0043
1.00454
1.00478
1.00504
1.00528
1.00552
1.00577
1.00598
1.00618
1.00636
1.00652
1.00662
1.00669
1.00673
1.00673
1.00667
1.00657
1.0064
1.00617
1.00587
1.00547
1.00499
1.00447
1.00377
1.00303
1.0021
1.00113
0.999899
0.99861
0.996941
0.995213
0.992161
0.990237
0.971775
0.963009
0.975098
0.99667
1.0279
1.05437
1.07597
1.09484
1.11185
1.1281
1.1419
1.15409
1.16492
1.174
1.18192
1.18814
1.19311
1.19704
1.20034
1.20296
1.20526
1.20726
1.20917
1.21086
1.21238
1.21379
1.21525
1.2165
1.21776
1.21942
1.22123
1.2233
1.22596
1.22867
1.23138
1.23387
1.23639
1.23883
1.24097
1.24309
1.24554
1.24849
1.25158
1.25388
1.25611
1.25922
1.26337
1.26739
1.27096
1.27441
1.27882
1.28237
1.28595
1.28994
1.29759
1.30771
1.31915
1.32694
1.33183
1.33779
1.3437
1.35006
1.36363
1.37199
1.38434
1.3577
1.23331
1.05041
0.863012
0.698444
0.545178
0.411719
0.272544
0.16716
0.0447857
1.00351
1.00258
1.00277
1.00284
1.00296
1.00309
1.00325
1.00343
1.00363
1.00384
1.00406
1.0043
1.00454
1.00478
1.00504
1.00528
1.00552
1.00577
1.00598
1.00618
1.00636
1.00652
1.00662
1.0067
1.00674
1.00673
1.00668
1.00658
1.00641
1.00618
1.00588
1.00551
1.00505
1.00447
1.00383
1.00306
1.00218
1.00116
1.00007
0.998857
0.997359
0.996018
0.993106
0.991112
0.981453
0.976117
0.991477
1.0107
1.03429
1.05537
1.07619
1.09329
1.10891
1.12409
1.13728
1.14928
1.15998
1.16921
1.17733
1.18389
1.18922
1.19402
1.19821
1.20195
1.20505
1.20755
1.20964
1.21143
1.21311
1.2148
1.21639
1.21796
1.2196
1.22142
1.22337
1.22553
1.22795
1.23041
1.23295
1.23542
1.23785
1.24024
1.24257
1.24498
1.24746
1.25012
1.25288
1.25536
1.25819
1.26112
1.26484
1.26848
1.27229
1.27594
1.28001
1.28407
1.28838
1.29332
1.29975
1.30946
1.31805
1.32634
1.33302
1.33836
1.34467
1.35067
1.35842
1.35974
1.31967
1.20031
1.01212
0.827401
0.668842
0.533865
0.403666
0.290803
0.183626
0.123996
0.047686
1.00351
1.00258
1.00277
1.00284
1.00296
1.00309
1.00325
1.00343
1.00363
1.00384
1.00406
1.0043
1.00454
1.00479
1.00504
1.00528
1.00553
1.00577
1.00598
1.00619
1.00637
1.00652
1.00663
1.00671
1.00676
1.00675
1.00669
1.0066
1.00644
1.00622
1.00593
1.00556
1.00512
1.00456
1.00394
1.00316
1.00232
1.00133
1.00031
0.99929
0.998071
0.997268
0.996509
0.99637
0.997815
1.00261
1.01342
1.031
1.04709
1.06327
1.07898
1.09529
1.11162
1.1261
1.13916
1.15118
1.16157
1.17107
1.17884
1.18507
1.19025
1.19531
1.20009
1.20448
1.208
1.21079
1.21311
1.215
1.21688
1.21867
1.22028
1.22201
1.22381
1.22565
1.22782
1.22987
1.23247
1.23484
1.23731
1.23972
1.24213
1.24441
1.24671
1.24909
1.25148
1.25445
1.25697
1.2595
1.26221
1.26508
1.26891
1.27227
1.27613
1.27992
1.28383
1.28815
1.29286
1.29717
1.30338
1.31316
1.31953
1.32896
1.33486
1.33862
1.34228
1.3456
1.34279
1.30174
1.16265
0.963917
0.763305
0.622875
0.509592
0.41299
0.314519
0.229051
0.144307
0.0965531
0.0242473
1.00351
1.00258
1.00277
1.00284
1.00296
1.0031
1.00326
1.00343
1.00363
1.00384
1.00406
1.0043
1.00454
1.00479
1.00504
1.00529
1.00553
1.00577
1.00599
1.00619
1.00637
1.00652
1.00664
1.00673
1.00678
1.00678
1.00673
1.00664
1.00649
1.00629
1.00601
1.00566
1.00524
1.00471
1.0041
1.00336
1.00257
1.00165
1.00068
0.999758
0.998922
0.998264
0.998563
0.998276
1.01222
1.0258
1.03118
1.04726
1.06213
1.07704
1.09173
1.10675
1.12231
1.13545
1.14819
1.15962
1.16992
1.17947
1.18701
1.19289
1.19807
1.20301
1.20746
1.21137
1.21476
1.21769
1.22019
1.22225
1.2244
1.22628
1.2279
1.22972
1.23167
1.23346
1.2356
1.23733
1.23959
1.24178
1.24402
1.24635
1.24863
1.25087
1.25314
1.25549
1.2575
1.26022
1.26273
1.2654
1.26835
1.27079
1.27434
1.27724
1.281
1.28484
1.2888
1.29313
1.2984
1.30263
1.30728
1.31564
1.32241
1.33229
1.33573
1.33842
1.33986
1.32941
1.27611
1.12447
0.886137
0.714499
0.597738
0.504647
0.425929
0.351671
0.274403
0.208522
0.135482
0.0893989
0.0167943
1.00351
1.00258
1.00277
1.00284
1.00296
1.0031
1.00326
1.00344
1.00363
1.00384
1.00407
1.0043
1.00454
1.00479
1.00504
1.00529
1.00554
1.00577
1.006
1.0062
1.00638
1.00653
1.00666
1.00676
1.00681
1.00681
1.00677
1.00669
1.00656
1.00638
1.00613
1.0058
1.0054
1.00491
1.00434
1.00366
1.00291
1.00204
1.00114
1.00016
0.999471
0.998776
0.998921
0.998576
1.01421
1.03208
1.04168
1.05486
1.07075
1.08781
1.10374
1.12084
1.13769
1.15167
1.16604
1.17786
1.1885
1.19748
1.20409
1.20944
1.21442
1.21949
1.22381
1.22757
1.23064
1.23306
1.23536
1.23683
1.23886
1.24004
1.24158
1.24299
1.24479
1.24629
1.24838
1.24961
1.25156
1.25347
1.25551
1.25758
1.25964
1.26178
1.2639
1.26615
1.26786
1.27035
1.27281
1.27539
1.27833
1.28065
1.2839
1.28642
1.29013
1.29416
1.29823
1.3025
1.30781
1.31263
1.31709
1.32538
1.33293
1.34259
1.34149
1.34007
1.32985
1.26447
1.09081
0.851649
0.676787
0.56623
0.486271
0.430364
0.376808
0.317148
0.255206
0.204662
0.140269
0.0982342
0.0244266
1.0035
1.00258
1.00277
1.00284
1.00296
1.0031
1.00326
1.00344
1.00363
1.00385
1.00407
1.0043
1.00455
1.0048
1.00505
1.0053
1.00555
1.00578
1.00601
1.00621
1.0064
1.00654
1.00668
1.00678
1.00685
1.00687
1.00684
1.00677
1.00666
1.00649
1.00628
1.00599
1.00562
1.00519
1.00467
1.00406
1.00335
1.00252
1.0016
1.00052
0.999334
0.998277
0.997526
0.996419
1.00336
1.01757
1.03705
1.051
1.07053
1.09257
1.11209
1.13386
1.15193
1.16894
1.18467
1.19917
1.21272
1.22314
1.23009
1.23486
1.24002
1.24428
1.24757
1.25029
1.2526
1.25491
1.25637
1.2577
1.25924
1.25988
1.26112
1.26196
1.26285
1.26375
1.26539
1.26611
1.26732
1.2688
1.2702
1.27173
1.27336
1.27519
1.27703
1.27908
1.28049
1.28265
1.28483
1.28736
1.29026
1.29243
1.29532
1.29757
1.30082
1.30466
1.30931
1.31322
1.31889
1.32425
1.3294
1.33926
1.34715
1.35286
1.35333
1.33703
1.27977
1.09987
0.861521
0.683698
0.565594
0.475485
0.414111
0.375228
0.332875
0.285837
0.236286
0.196356
0.142165
0.106966
0.0401593
1.0035
1.00258
1.00277
1.00284
1.00296
1.0031
1.00326
1.00344
1.00363
1.00385
1.00407
1.00431
1.00455
1.0048
1.00505
1.0053
1.00555
1.00578
1.00602
1.00623
1.00641
1.00656
1.0067
1.00682
1.0069
1.00693
1.00692
1.00687
1.00678
1.00663
1.00645
1.00622
1.00592
1.00555
1.00509
1.00457
1.00391
1.00311
1.00214
1.00095
0.999316
0.997669
0.995334
0.993227
0.98978
0.992472
1.01671
1.0421
1.07126
1.10393
1.12783
1.15458
1.17192
1.19245
1.20659
1.22381
1.23648
1.24836
1.25596
1.26179
1.26976
1.27468
1.27813
1.28075
1.2825
1.2846
1.28549
1.28723
1.28795
1.28815
1.28881
1.28903
1.28896
1.28918
1.29022
1.29048
1.29109
1.29193
1.29245
1.29344
1.29442
1.29567
1.29693
1.29857
1.29968
1.30141
1.30325
1.3055
1.30797
1.31003
1.3126
1.3148
1.31708
1.32037
1.32364
1.32734
1.33322
1.34028
1.34525
1.35511
1.36092
1.36284
1.35994
1.30128
1.13351
0.906584
0.724635
0.600212
0.512595
0.433945
0.382377
0.343022
0.301625
0.261252
0.218866
0.184605
0.138934
0.111232
0.0539818
1.00349
1.00258
1.00277
1.00284
1.00296
1.0031
1.00326
1.00344
1.00364
1.00385
1.00407
1.00431
1.00455
1.00481
1.00505
1.00531
1.00556
1.00579
1.00603
1.00625
1.00643
1.0066
1.00674
1.00686
1.00695
1.00701
1.00702
1.00699
1.00692
1.00681
1.00667
1.00649
1.00627
1.00598
1.00564
1.0052
1.00464
1.00398
1.00308
1.00179
1.0001
0.997892
0.994557
0.990418
0.97255
0.968581
0.993996
1.04377
1.08655
1.12785
1.15948
1.18803
1.20912
1.22966
1.24638
1.26292
1.27457
1.28523
1.29239
1.29599
1.30243
1.30548
1.30828
1.31129
1.31195
1.31423
1.31459
1.31679
1.31734
1.31786
1.31883
1.31915
1.31957
1.31941
1.32034
1.32045
1.32044
1.3207
1.3205
1.32091
1.32148
1.32195
1.3223
1.3233
1.32423
1.32512
1.3265
1.32819
1.32982
1.33114
1.33365
1.33518
1.33636
1.33895
1.34269
1.34618
1.35185
1.35909
1.36197
1.36609
1.36655
1.3644
1.33141
1.18197
0.965107
0.786004
0.661828
0.554866
0.474073
0.409742
0.366086
0.32443
0.283231
0.246554
0.209178
0.179434
0.140783
0.116762
0.0680287
1.00348
1.00257
1.00276
1.00284
1.00296
1.0031
1.00326
1.00344
1.00363
1.00385
1.00407
1.00431
1.00456
1.00481
1.00505
1.00531
1.00557
1.00581
1.00604
1.00627
1.00645
1.00663
1.00679
1.00692
1.00702
1.0071
1.00713
1.00712
1.00709
1.00703
1.00693
1.00681
1.00667
1.0065
1.00628
1.00599
1.00566
1.00522
1.00464
1.00386
1.00246
1
0.996284
0.991393
0.968405
0.973391
1.01457
1.07594
1.13045
1.1751
1.20567
1.23581
1.25564
1.27584
1.28986
1.30214
1.31126
1.31665
1.32381
1.3279
1.32967
1.33131
1.33441
1.33645
1.33715
1.33786
1.3392
1.34049
1.34174
1.34279
1.34368
1.3447
1.34551
1.34543
1.34636
1.34706
1.34695
1.34738
1.34753
1.34765
1.34816
1.34856
1.34885
1.34919
1.34968
1.35031
1.35122
1.35217
1.35311
1.35365
1.35583
1.35684
1.35775
1.35967
1.36142
1.36291
1.36431
1.36672
1.36683
1.36788
1.3656
1.32766
1.20215
1.00585
0.829855
0.715008
0.618735
0.534246
0.461016
0.404042
0.359229
0.316373
0.276176
0.241209
0.206457
0.179266
0.144678
0.121508
0.0798258
1.00347
1.00257
1.00276
1.00283
1.00296
1.0031
1.00326
1.00344
1.00363
1.00385
1.00407
1.00431
1.00456
1.00481
1.00506
1.00532
1.00558
1.00582
1.00606
1.00629
1.00648
1.00667
1.00684
1.00698
1.0071
1.00719
1.00726
1.00729
1.00728
1.00727
1.00723
1.00718
1.00711
1.00704
1.00698
1.0069
1.00683
1.00676
1.00671
1.00666
1.00675
1.00672
1.00714
1.00753
1.01187
1.02201
1.10011
1.15694
1.20294
1.23877
1.26749
1.29521
1.30784
1.32572
1.33352
1.34408
1.34926
1.34755
1.35224
1.35287
1.35151
1.35351
1.35362
1.3542
1.3542
1.35439
1.35554
1.35664
1.35772
1.35951
1.36079
1.36215
1.36358
1.36414
1.36463
1.36541
1.36547
1.36586
1.36621
1.36634
1.36693
1.36724
1.36782
1.36831
1.36831
1.36924
1.36967
1.37002
1.37095
1.37071
1.37079
1.37169
1.37063
1.37068
1.37021
1.36965
1.36824
1.36756
1.36131
1.34774
1.31306
1.1844
1.00629
0.825578
0.719509
0.623119
0.551133
0.491603
0.440244
0.396055
0.355338
0.313886
0.273826
0.239884
0.206799
0.180693
0.149277
0.127533
0.0918877
1.00346
1.00256
1.00276
1.00283
1.00295
1.00309
1.00326
1.00344
1.00363
1.00384
1.00407
1.00431
1.00456
1.00481
1.00507
1.00533
1.00559
1.00584
1.00607
1.00631
1.00652
1.00671
1.00688
1.00704
1.00718
1.0073
1.0074
1.00747
1.00751
1.00753
1.00756
1.00758
1.0076
1.00764
1.00772
1.00785
1.00806
1.0084
1.00896
1.00983
1.01155
1.01354
1.01761
1.01902
1.05612
1.12953
1.24117
1.26853
1.29896
1.31334
1.33175
1.33806
1.34804
1.3581
1.36013
1.36513
1.36575
1.36762
1.36758
1.367
1.3661
1.36587
1.36557
1.36503
1.36533
1.36529
1.36569
1.3665
1.3672
1.36845
1.36953
1.37098
1.37255
1.37378
1.37468
1.37575
1.37602
1.37666
1.37702
1.37749
1.37795
1.37826
1.37886
1.37926
1.37951
1.37987
1.37987
1.37987
1.37993
1.37914
1.3775
1.37693
1.37499
1.37283
1.37098
1.36643
1.35838
1.34447
1.30989
1.24146
1.10474
0.911343
0.767567
0.699944
0.622772
0.559854
0.503412
0.455303
0.413065
0.375654
0.338558
0.300847
0.264537
0.234265
0.204219
0.180361
0.15268
0.132915
0.102751
1.00345
1.00256
1.00275
1.00283
1.00295
1.00309
1.00325
1.00343
1.00363
1.00384
1.00407
1.00431
1.00455
1.00482
1.00508
1.00533
1.00559
1.00585
1.0061
1.00633
1.00656
1.00677
1.00695
1.00711
1.00726
1.0074
1.00754
1.00766
1.00775
1.00782
1.00789
1.00797
1.00807
1.00821
1.0084
1.00866
1.00906
1.00964
1.01052
1.01178
1.01349
1.01547
1.01857
1.01966
1.04826
1.22825
1.2882
1.30875
1.34027
1.34264
1.35711
1.35531
1.36405
1.37031
1.36997
1.37147
1.37013
1.37445
1.3701
1.37095
1.37078
1.36923
1.36878
1.36874
1.36927
1.36973
1.37029
1.37127
1.37197
1.3732
1.37459
1.37633
1.37772
1.37906
1.38005
1.38101
1.38125
1.38201
1.38243
1.38285
1.38334
1.38366
1.38436
1.38443
1.38457
1.38412
1.38379
1.38329
1.38234
1.38084
1.37838
1.3754
1.36917
1.35945
1.34735
1.32619
1.29004
1.22689
1.12379
0.960216
0.780412
0.6668
0.580536
0.540553
0.513607
0.48836
0.45828
0.4299
0.397911
0.365935
0.330081
0.29522
0.261694
0.233648
0.205814
0.183623
0.158823
0.14085
0.115218
1.00344
1.00255
1.00274
1.00282
1.00294
1.00309
1.00325
1.00343
1.00363
1.00384
1.00407
1.00431
1.00455
1.00482
1.00508
1.00534
1.0056
1.00587
1.00612
1.00636
1.00661
1.00683
1.00702
1.0072
1.00736
1.00752
1.00769
1.00784
1.00798
1.0081
1.00822
1.00834
1.0085
1.00871
1.00898
1.00938
1.0099
1.01077
1.01187
1.01377
1.01573
1.01974
1.02253
1.04395
1.08767
1.15237
1.18911
1.25542
1.31174
1.32881
1.34766
1.34826
1.36267
1.35921
1.36804
1.36646
1.36581
1.37127
1.36435
1.36754
1.3685
1.36602
1.36598
1.36605
1.36649
1.36746
1.36839
1.36985
1.37176
1.37392
1.3757
1.37757
1.37871
1.37977
1.38046
1.38119
1.38139
1.382
1.38228
1.38254
1.38286
1.38318
1.38337
1.38375
1.38316
1.38203
1.37962
1.37617
1.37122
1.36374
1.35269
1.3375
1.31537
1.28092
1.23327
1.15968
1.06333
0.93144
0.767874
0.641161
0.544872
0.489173
0.456487
0.439355
0.42725
0.419697
0.405418
0.391428
0.369941
0.345767
0.315479
0.286508
0.256101
0.231004
0.20556
0.185369
0.163505
0.147772
0.126308
1.00343
1.00255
1.00274
1.00281
1.00294
1.00308
1.00324
1.00343
1.00362
1.00383
1.00406
1.00431
1.00455
1.00481
1.00508
1.00535
1.00561
1.00589
1.00615
1.0064
1.00665
1.00689
1.0071
1.0073
1.00747
1.00765
1.00784
1.00802
1.00822
1.00839
1.00853
1.0087
1.00888
1.0091
1.00936
1.0097
1.01004
1.0105
1.01087
1.01142
1.01051
1.01213
1.00174
1.03752
1.08723
1.10134
1.12206
1.16793
1.20537
1.26444
1.28033
1.30797
1.32369
1.32738
1.34217
1.34288
1.35027
1.35131
1.35262
1.35372
1.35372
1.35548
1.35527
1.3563
1.35782
1.35986
1.36122
1.36288
1.36506
1.36709
1.36938
1.37126
1.37333
1.37474
1.37555
1.37639
1.37643
1.37688
1.37674
1.37589
1.37485
1.37332
1.3706
1.36761
1.36169
1.35516
1.34422
1.32885
1.30696
1.27761
1.23966
1.1853
1.115
1.03017
0.932957
0.810137
0.693598
0.594157
0.509674
0.442733
0.39635
0.376462
0.366168
0.36761
0.373465
0.376685
0.372776
0.36718
0.353909
0.333676
0.307302
0.281908
0.254351
0.23172
0.208203
0.190092
0.170889
0.157171
0.139029
1.00342
1.00254
1.00273
1.00281
1.00293
1.00307
1.00324
1.00342
1.00362
1.00383
1.00406
1.0043
1.00455
1.00481
1.00509
1.00536
1.00563
1.0059
1.00618
1.00644
1.0067
1.00695
1.00719
1.00741
1.00761
1.0078
1.00801
1.00822
1.00844
1.00865
1.00884
1.00902
1.00922
1.00943
1.00967
1.00991
1.01011
1.01026
1.01016
1.00989
1.00856
1.00778
0.996401
1.01981
1.06977
1.07242
1.08639
1.09907
1.12585
1.1852
1.23247
1.27698
1.28467
1.30649
1.31211
1.31963
1.32901
1.32975
1.34139
1.33807
1.33866
1.34285
1.34193
1.34418
1.34661
1.34866
1.35065
1.35209
1.35367
1.35561
1.35741
1.35878
1.36042
1.36156
1.36121
1.36112
1.35939
1.35767
1.35525
1.35005
1.34355
1.33424
1.32099
1.30425
1.28097
1.2513
1.21087
1.1582
1.0947
1.02177
0.941304
0.848806
0.754155
0.663481
0.586956
0.524246
0.453917
0.401269
0.353513
0.325307
0.31014
0.30468
0.315415
0.317345
0.328994
0.335686
0.34093
0.342402
0.335968
0.32298
0.301999
0.279667
0.254543
0.233444
0.211609
0.195218
0.178103
0.166109
0.150884
1.0034
1.00253
1.00272
1.0028
1.00292
1.00307
1.00323
1.00341
1.00361
1.00382
1.00405
1.0043
1.00455
1.00481
1.00509
1.00537
1.00564
1.00592
1.00621
1.00648
1.00675
1.00702
1.00727
1.00751
1.00775
1.00797
1.00819
1.00841
1.00864
1.00889
1.00912
1.00932
1.00953
1.00975
1.00996
1.01016
1.01037
1.01053
1.01074
1.01094
1.0112
1.01238
1.01004
1.03345
1.07185
1.07042
1.07963
1.08296
1.09902
1.12628
1.16982
1.23295
1.25852
1.28782
1.29036
1.30857
1.31209
1.32141
1.33158
1.33017
1.33185
1.33332
1.33364
1.33546
1.3357
1.33669
1.33756
1.33805
1.33797
1.33766
1.33702
1.33654
1.33365
1.33181
1.32534
1.31937
1.30919
1.29578
1.28058
1.26022
1.23242
1.19813
1.15212
1.09893
1.03809
0.970929
0.897189
0.81552
0.737895
0.665246
0.60219
0.548965
0.495781
0.442858
0.395682
0.360538
0.322416
0.296091
0.27403
0.258199
0.258816
0.260122
0.277352
0.290276
0.305607
0.313482
0.322224
0.326701
0.323826
0.315915
0.298754
0.279528
0.256447
0.237233
0.21708
0.202467
0.187352
0.177236
0.164524
1.00339
1.00252
1.00271
1.00279
1.00291
1.00306
1.00322
1.0034
1.0036
1.00381
1.00404
1.00429
1.00454
1.00481
1.00509
1.00537
1.00566
1.00594
1.00624
1.00654
1.00681
1.00709
1.00736
1.00762
1.00789
1.00814
1.00839
1.00863
1.00887
1.00912
1.00938
1.00962
1.00984
1.01006
1.01026
1.01046
1.01067
1.01088
1.01136
1.01177
1.014
1.0131
1.0362
1.06667
1.07139
1.0701
1.07555
1.07762
1.08709
1.0964
1.12524
1.17771
1.22452
1.26846
1.2819
1.30794
1.30911
1.32242
1.32273
1.32621
1.32646
1.327
1.32573
1.32525
1.32307
1.32058
1.31734
1.31437
1.30936
1.3025
1.29242
1.28133
1.2662
1.24835
1.22489
1.1968
1.16118
1.11689
1.06888
1.01612
0.95758
0.894196
0.823187
0.755348
0.690664
0.632201
0.585428
0.543323
0.499749
0.458047
0.420215
0.388153
0.359045
0.327861
0.298491
0.27926
0.257509
0.241526
0.23262
0.223578
0.228661
0.233991
0.254714
0.268428
0.286654
0.296662
0.308283
0.315801
0.315326
0.311229
0.29735
0.280801
0.260336
0.242768
0.223923
0.210818
0.19701
0.188117
0.177576
1.00338
1.00251
1.0027
1.00278
1.0029
1.00305
1.00321
1.00339
1.00359
1.0038
1.00403
1.00428
1.00454
1.00481
1.00509
1.00538
1.00567
1.00596
1.00627
1.00658
1.00688
1.00716
1.00745
1.00774
1.00803
1.00832
1.00859
1.00885
1.0091
1.00937
1.00964
1.00992
1.01015
1.01033
1.01048
1.01053
1.01049
1.01023
1.01004
1.00872
1.00936
1.00118
1.02213
1.06338
1.06195
1.06135
1.06439
1.06705
1.07315
1.08228
1.10115
1.12932
1.18875
1.24386
1.27942
1.31304
1.31662
1.32394
1.32033
1.32324
1.31834
1.3161
1.30959
1.30285
1.29427
1.28235
1.26832
1.25133
1.23022
1.20385
1.16997
1.12715
1.08203
1.0321
0.979232
0.92261
0.862112
0.797396
0.737514
0.682266
0.631341
0.591325
0.555082
0.51815
0.483477
0.450689
0.421363
0.397467
0.374196
0.350162
0.327964
0.308923
0.291662
0.274172
0.253435
0.23949
0.226772
0.216143
0.210996
0.207243
0.213078
0.22084
0.241013
0.256768
0.275019
0.286497
0.299872
0.308729
0.310733
0.308837
0.297874
0.284292
0.265879
0.249763
0.232537
0.220617
0.20733
0.199773
0.190822
1.00336
1.0025
1.00269
1.00277
1.00289
1.00303
1.0032
1.00337
1.00358
1.00379
1.00402
1.00427
1.00454
1.0048
1.00509
1.00539
1.00569
1.00598
1.0063
1.00662
1.00695
1.00725
1.00756
1.00786
1.00817
1.00849
1.00879
1.00908
1.00935
1.00963
1.00993
1.01023
1.01052
1.01074
1.01092
1.01107
1.01117
1.01118
1.01117
1.01058
1.01053
1.00237
1.01563
1.05461
1.0545
1.05775
1.0615
1.06413
1.06993
1.07793
1.08898
1.10838
1.14584
1.20061
1.27086
1.30593
1.31814
1.31908
1.31122
1.30211
1.28955
1.27352
1.25602
1.23072
1.20323
1.16571
1.12142
1.07285
1.0199
0.963501
0.90352
0.836886
0.774043
0.715684
0.663455
0.619253
0.583748
0.549434
0.515891
0.485015
0.455879
0.430162
0.409861
0.391198
0.373043
0.356663
0.340776
0.326323
0.31337
0.299409
0.284239
0.271061
0.259166
0.248963
0.233876
0.223475
0.21312
0.20589
0.20201
0.201188
0.206967
0.216052
0.232015
0.249644
0.267535
0.282484
0.29749
0.307892
0.310606
0.310458
0.301174
0.288319
0.27262
0.257582
0.24204
0.230536
0.217821
0.211152
0.203591
1.00334
1.00249
1.00267
1.00275
1.00288
1.00302
1.00318
1.00336
1.00356
1.00378
1.00401
1.00426
1.00453
1.0048
1.00509
1.00539
1.00571
1.00601
1.00633
1.00666
1.00701
1.00734
1.00767
1.00799
1.00832
1.00867
1.009
1.00931
1.00961
1.0099
1.01022
1.01055
1.0109
1.01121
1.01149
1.0118
1.01212
1.01258
1.01303
1.01358
1.01501
1.01293
1.0258
1.06231
1.06024
1.06523
1.06688
1.06932
1.0738
1.0794
1.08689
1.10053
1.12087
1.15904
1.21912
1.26172
1.2836
1.27261
1.25281
1.2236
1.18506
1.14125
1.09537
1.04162
0.983276
0.918676
0.849601
0.784918
0.725769
0.672756
0.62985
0.591386
0.55511
0.520028
0.487955
0.458724
0.434941
0.415494
0.398075
0.382458
0.368069
0.354832
0.342944
0.332796
0.323349
0.31412
0.304398
0.294936
0.285884
0.276999
0.266059
0.256008
0.246057
0.238287
0.226399
0.217921
0.209361
0.203256
0.200737
0.201042
0.206878
0.216622
0.230982
0.247769
0.264995
0.279927
0.295013
0.306179
0.310493
0.311106
0.304404
0.292645
0.280071
0.265619
0.252831
0.241116
0.229319
0.222828
0.216418
1.00333
1.00247
1.00266
1.00274
1.00286
1.003
1.00317
1.00335
1.00355
1.00377
1.004
1.00425
1.00452
1.0048
1.00508
1.0054
1.00572
1.00604
1.00636
1.0067
1.00707
1.00743
1.00778
1.00813
1.00848
1.00885
1.0092
1.00954
1.00987
1.01019
1.01052
1.01088
1.01127
1.0117
1.0121
1.01261
1.01322
1.01424
1.01521
1.01807
1.01826
1.04263
1.06121
1.06471
1.06463
1.06896
1.07015
1.0738
1.07769
1.0816
1.0871
1.0966
1.10653
1.12956
1.15536
1.16646
1.17842
1.13463
1.08846
1.03654
0.968925
0.898306
0.83634
0.776945
0.724929
0.68043
0.639549
0.599068
0.562608
0.52733
0.497238
0.470162
0.447316
0.425189
0.406418
0.388228
0.372249
0.357895
0.346519
0.337001
0.328886
0.321138
0.314098
0.307303
0.301728
0.296157
0.289927
0.283351
0.276448
0.269713
0.260681
0.252754
0.244157
0.237851
0.228166
0.220743
0.213415
0.20804
0.205468
0.205685
0.210603
0.219983
0.235112
0.25017
0.267377
0.282385
0.297438
0.308661
0.313206
0.314375
0.30901
0.299276
0.287637
0.274356
0.262984
0.250883
0.240722
0.234527
0.229351
1.00331
1.00246
1.00265
1.00273
1.00285
1.00299
1.00315
1.00333
1.00353
1.00375
1.00398
1.00423
1.0045
1.00479
1.00508
1.00539
1.00573
1.00607
1.0064
1.00675
1.00713
1.00751
1.00789
1.00826
1.00864
1.00903
1.00941
1.0098
1.01015
1.01049
1.01083
1.01118
1.01154
1.01192
1.01224
1.01246
1.01249
1.01253
1.01149
1.01217
1.00406
1.02058
1.0584
1.0554
1.05525
1.0568
1.0579
1.06098
1.06408
1.06651
1.0678
1.06947
1.06592
1.06364
1.05166
1.04006
0.986232
0.91873
0.860047
0.804752
0.762644
0.716347
0.677856
0.640505
0.607743
0.576051
0.546804
0.51767
0.491353
0.466636
0.445284
0.42518
0.407046
0.390862
0.376519
0.363642
0.352455
0.340647
0.331739
0.324036
0.318154
0.312527
0.306949
0.302054
0.297147
0.293119
0.288034
0.283325
0.277696
0.272628
0.265146
0.258732
0.251009
0.245285
0.237085
0.230048
0.223062
0.217704
0.214636
0.214298
0.217964
0.226969
0.240604
0.256359
0.272837
0.286656
0.302119
0.31374
0.318563
0.319644
0.314938
0.306705
0.29598
0.28353
0.273071
0.26149
0.253432
0.24691
0.24269
1.00329
1.00245
1.00263
1.00271
1.00283
1.00297
1.00313
1.00331
1.0035
1.00373
1.00396
1.00421
1.00449
1.00478
1.00507
1.00539
1.00574
1.00609
1.00643
1.00679
1.00718
1.0076
1.00801
1.00841
1.0088
1.00921
1.00963
1.01005
1.01045
1.01081
1.01116
1.01152
1.01188
1.01222
1.01264
1.01295
1.01323
1.01343
1.01317
1.01361
1.0068
1.01518
1.04824
1.04505
1.0469
1.04755
1.04883
1.05105
1.05324
1.05595
1.0558
1.05425
1.0478
1.00048
0.947555
0.861212
0.798509
0.760227
0.7204
0.688962
0.658737
0.631712
0.606335
0.583259
0.562608
0.543586
0.525206
0.504502
0.485631
0.464902
0.44688
0.429299
0.412766
0.397771
0.383931
0.371952
0.361594
0.350072
0.340548
0.331934
0.325164
0.3196
0.313659
0.30905
0.303857
0.299782
0.295142
0.291293
0.286564
0.282401
0.275977
0.270385
0.263295
0.257622
0.250314
0.243468
0.236635
0.230914
0.227161
0.22587
0.228618
0.236387
0.249595
0.264096
0.280577
0.293269
0.307483
0.319005
0.324764
0.325803
0.321856
0.315134
0.304635
0.292782
0.282962
0.27231
0.265932
0.258949
0.256005
1.00327
1.00243
1.00261
1.00269
1.00281
1.00295
1.00311
1.00329
1.00348
1.0037
1.00394
1.00419
1.00447
1.00476
1.00507
1.00539
1.00574
1.0061
1.00647
1.00684
1.00723
1.00767
1.00812
1.00855
1.00897
1.00939
1.00984
1.0103
1.01076
1.01117
1.01154
1.01189
1.01223
1.01261
1.01304
1.01347
1.01407
1.01465
1.01556
1.01714
1.01888
1.02392
1.04988
1.04202
1.0426
1.04149
1.04178
1.04185
1.04215
1.04144
1.0392
1.02407
1.00309
0.912208
0.813841
0.745928
0.705656
0.676817
0.65304
0.6312
0.612372
0.594067
0.578475
0.563547
0.550503
0.538237
0.528244
0.516797
0.50568
0.491425
0.476752
0.460684
0.444324
0.428542
0.413434
0.399677
0.387374
0.374554
0.363163
0.352508
0.343569
0.336302
0.329064
0.32353
0.317696
0.312737
0.307893
0.303971
0.299466
0.295532
0.28976
0.284443
0.277706
0.271668
0.264698
0.257933
0.251251
0.245436
0.241426
0.239863
0.241744
0.248784
0.260077
0.274493
0.288651
0.302403
0.316092
0.326068
0.330738
0.332044
0.328992
0.32303
0.313382
0.302651
0.293938
0.283971
0.279145
0.271864
0.269815
1.00325
1.00241
1.00259
1.00267
1.00279
1.00292
1.00308
1.00326
1.00346
1.00367
1.00392
1.00417
1.00444
1.00474
1.00506
1.00538
1.00574
1.00611
1.0065
1.00688
1.00729
1.00774
1.00822
1.00869
1.00913
1.00958
1.01005
1.01055
1.01106
1.01153
1.01194
1.01233
1.01271
1.01308
1.01353
1.01396
1.01457
1.01487
1.01661
1.01445
1.03444
1.04432
1.03857
1.03568
1.0357
1.03564
1.03603
1.03523
1.0338
1.02869
1.01735
0.96734
0.904445
0.805022
0.735798
0.691836
0.663649
0.643313
0.626494
0.612348
0.599107
0.587288
0.575989
0.566247
0.557771
0.549943
0.543819
0.537705
0.532252
0.524531
0.515736
0.503855
0.48986
0.473877
0.456881
0.439669
0.424411
0.409791
0.395772
0.382593
0.370901
0.360982
0.351938
0.34452
0.337312
0.330985
0.325076
0.320248
0.315375
0.310989
0.305381
0.300138
0.29374
0.28764
0.280923
0.274379
0.267927
0.262186
0.257895
0.255917
0.256799
0.262627
0.273203
0.285626
0.299117
0.310385
0.32278
0.33289
0.338317
0.33929
0.33701
0.331843
0.323394
0.313743
0.305197
0.295764
0.292001
0.284471
0.283399
1.00322
1.0024
1.00257
1.00265
1.00276
1.0029
1.00305
1.00323
1.00343
1.00364
1.00389
1.00414
1.00442
1.00472
1.00504
1.00537
1.00573
1.00612
1.00652
1.00693
1.00735
1.00781
1.00832
1.00882
1.0093
1.00977
1.01026
1.01078
1.01134
1.01188
1.01234
1.01273
1.01305
1.01324
1.01337
1.01333
1.01322
1.01228
1.01234
1.00543
1.01241
1.03075
1.02846
1.02777
1.02797
1.02824
1.02798
1.02761
1.02274
1.0083
0.982256
0.893837
0.79795
0.73204
0.688359
0.662285
0.643008
0.630229
0.618684
0.609529
0.600577
0.592985
0.585227
0.57806
0.571722
0.565591
0.560761
0.556138
0.552252
0.548078
0.543424
0.536836
0.526823
0.515021
0.500463
0.483863
0.467275
0.450957
0.434927
0.41969
0.405103
0.392125
0.380616
0.370745
0.361419
0.353259
0.345745
0.339341
0.333529
0.328307
0.322486
0.317015
0.310687
0.304356
0.297463
0.290771
0.284191
0.278506
0.274087
0.272198
0.272624
0.278147
0.286786
0.298892
0.310301
0.322302
0.331692
0.339421
0.344157
0.345665
0.344421
0.339742
0.332977
0.324633
0.317059
0.308318
0.305371
0.297632
0.297163
1.0032
1.00238
1.00255
1.00262
1.00274
1.00287
1.00302
1.0032
1.0034
1.00361
1.00385
1.00411
1.00439
1.00469
1.00502
1.00535
1.00572
1.00611
1.00653
1.00696
1.0074
1.00788
1.0084
1.00893
1.00946
1.00997
1.01048
1.01102
1.0116
1.01221
1.01277
1.01323
1.01363
1.01395
1.01423
1.01435
1.01445
1.01426
1.01465
1.00913
1.00655
1.02748
1.0245
1.02662
1.0259
1.02516
1.02297
1.01795
1.00332
0.95743
0.892945
0.80146
0.737742
0.69677
0.670849
0.653623
0.640837
0.632263
0.624274
0.61787
0.610865
0.604779
0.598517
0.592395
0.586592
0.580806
0.57521
0.570566
0.565895
0.562344
0.558906
0.555772
0.550586
0.543366
0.533211
0.520422
0.505491
0.488756
0.471948
0.455322
0.439153
0.424102
0.410161
0.397952
0.386809
0.376999
0.367973
0.359947
0.35299
0.346738
0.340471
0.334643
0.328331
0.321881
0.31482
0.308055
0.301249
0.295616
0.291091
0.289011
0.288923
0.293784
0.301353
0.312442
0.321825
0.331947
0.3411
0.347997
0.352417
0.353753
0.352825
0.349147
0.344107
0.336709
0.329748
0.321237
0.318546
0.310634
0.310814
1.00317
1.00236
1.00253
1.0026
1.00271
1.00284
1.00299
1.00317
1.00336
1.00357
1.00381
1.00407
1.00435
1.00465
1.00499
1.00533
1.0057
1.0061
1.00653
1.00699
1.00745
1.00794
1.00847
1.00904
1.00961
1.01017
1.01072
1.01128
1.0119
1.01255
1.01321
1.01382
1.01433
1.01487
1.01536
1.01586
1.01625
1.01689
1.01806
1.01805
1.01207
1.03597
1.03169
1.03337
1.03248
1.03138
1.02504
1.0087
0.977034
0.893664
0.802161
0.7427
0.703211
0.679573
0.663043
0.652294
0.643345
0.637237
0.631176
0.626534
0.621274
0.616471
0.611344
0.606163
0.600842
0.595593
0.589854
0.584978
0.579725
0.575941
0.571919
0.569547
0.566472
0.562834
0.556644
0.547736
0.536216
0.522448
0.506764
0.489917
0.472903
0.45658
0.441252
0.427188
0.414531
0.403094
0.392351
0.382668
0.374113
0.366543
0.359429
0.353017
0.346653
0.340308
0.333268
0.326172
0.318895
0.312608
0.307901
0.305141
0.305039
0.308778
0.3164
0.326067
0.335515
0.343478
0.35044
0.355771
0.359803
0.361659
0.361265
0.358367
0.354435
0.347878
0.342193
0.334516
0.332064
0.323961
0.324516
1.00314
1.00233
1.0025
1.00257
1.00268
1.0028
1.00295
1.00313
1.00332
1.00353
1.00377
1.00403
1.00431
1.00461
1.00495
1.0053
1.00567
1.00607
1.00652
1.00699
1.00747
1.00797
1.00852
1.00913
1.00975
1.01037
1.01098
1.01157
1.01221
1.01293
1.0137
1.01447
1.0152
1.01592
1.01662
1.01752
1.01824
1.02037
1.01964
1.03777
1.03191
1.03286
1.03166
1.0341
1.03135
1.02597
1.01292
0.963583
0.896349
0.808381
0.749684
0.713074
0.689141
0.673265
0.661574
0.653434
0.646199
0.641012
0.635926
0.631793
0.627341
0.623263
0.618757
0.614262
0.609713
0.605389
0.600639
0.596569
0.591729
0.588034
0.583841
0.580919
0.578109
0.57581
0.572541
0.567584
0.559343
0.54888
0.5359
0.520266
0.503506
0.486099
0.469224
0.45401
0.440352
0.427608
0.415884
0.405059
0.395336
0.386641
0.378741
0.371851
0.365499
0.359227
0.352498
0.345067
0.337425
0.330114
0.325146
0.321679
0.321321
0.323589
0.33039
0.338404
0.347786
0.355166
0.361773
0.36609
0.369069
0.370684
0.370622
0.368612
0.365907
0.360357
0.355681
0.348097
0.34563
0.337385
0.338312
1.00311
1.00231
1.00247
1.00254
1.00264
1.00277
1.00291
1.00308
1.00328
1.00349
1.00372
1.00398
1.00426
1.00456
1.0049
1.00526
1.00563
1.00604
1.0065
1.00698
1.00748
1.00799
1.00856
1.00918
1.00986
1.01055
1.01123
1.01189
1.01259
1.01334
1.01416
1.01501
1.01575
1.01627
1.01648
1.01657
1.01566
1.01582
1.00841
1.01503
1.03695
1.03622
1.03694
1.0368
1.03425
1.01384
0.983922
0.8964
0.80863
0.754564
0.719023
0.697253
0.682272
0.672212
0.664195
0.65887
0.653787
0.649763
0.645603
0.641782
0.637505
0.633491
0.629121
0.624616
0.620324
0.616276
0.611896
0.608433
0.603809
0.600331
0.595935
0.592729
0.589359
0.587342
0.584612
0.582077
0.577425
0.569758
0.55997
0.547721
0.533317
0.516463
0.499475
0.482861
0.467966
0.453904
0.441028
0.428948
0.417951
0.408109
0.39905
0.391259
0.384474