/*--------------------------------*- C++ -*----------------------------------*\
| =========                 |                                                 |
| \\      /  F ield         | OpenFOAM: The Open Source CFD Toolbox           |
|  \\    /   O peration     | Version:  2.2.x                                 |
|   \\  /    A nd           | Web:      www.OpenFOAM.org                      |
|    \\/     M anipulation  |                                                 |
\*---------------------------------------------------------------------------*/
FoamFile
{
    version     2.0;
    format      ascii;
    class       volScalarField;
    location    "2.35";
    object      p;
}
// * * * * * * * * * * * * * * * * * * * * * * * * * * * * * * * * * * * * * //

dimensions      [1 -1 -2 0 0 0 0];

internalField   nonuniform List<scalar> 
14161
(
0.196748
0.197542
0.197378
0.19731
0.1972
0.197071
0.196922
0.196759
0.19657
0.196376
0.196164
0.195937
0.19572
0.195492
0.19525
0.195034
0.194776
0.194514
0.194311
0.194114
0.193949
0.193836
0.19373
0.193601
0.193545
0.19354
0.193589
0.19367
0.193806
0.194004
0.194258
0.19461
0.195051
0.195434
0.196013
0.196609
0.197438
0.198283
0.199444
0.200626
0.202025
0.20358
0.20563
0.239682
1.18574
1.62298
1.64654
1.60023
1.56799
1.52794
1.49515
1.4644
1.43434
1.40309
1.37325
1.34409
1.31631
1.29099
1.26833
1.24918
1.2338
1.22101
1.20995
1.20081
1.19396
1.18957
1.18675
1.18535
1.18579
1.18955
1.19088
1.19493
1.19731
1.19885
1.19759
1.19116
1.18826
1.18295
1.17853
1.17431
1.17057
1.16703
1.16482
1.16367
1.1627
1.1535
1.1496
1.14775
1.14675
1.13729
1.13163
1.12674
1.11442
1.1104
1.10571
1.10321
1.10291
1.11397
1.07994
1.0616
1.03142
0.997175
0.959407
0.906749
0.885423
0.882517
0.873189
0.86927
0.878479
1.01016
1.25257
1.48099
1.65238
1.76567
1.85433
1.92374
1.9894
2.04159
2.11571
0.196744
0.197542
0.197374
0.197305
0.197204
0.197081
0.196917
0.19675
0.196573
0.196383
0.196158
0.195935
0.19572
0.195487
0.195253
0.195032
0.194774
0.194515
0.194309
0.194114
0.193949
0.193838
0.193728
0.193599
0.193541
0.193535
0.193583
0.193664
0.193804
0.194001
0.194265
0.194562
0.19499
0.195498
0.195962
0.196571
0.197378
0.198343
0.199299
0.200446
0.201772
0.203002
0.205393
0.237229
1.16886
1.61546
1.62124
1.57869
1.55435
1.52012
1.48953
1.45985
1.43084
1.39982
1.37052
1.34163
1.31477
1.29026
1.26862
1.25039
1.23553
1.22303
1.21143
1.20155
1.19398
1.18916
1.18623
1.18497
1.18531
1.18874
1.18991
1.19348
1.19565
1.19741
1.19457
1.18917
1.18585
1.18103
1.1766
1.17224
1.16851
1.16511
1.16253
1.16108
1.1599
1.15096
1.1477
1.1455
1.14364
1.1348
1.12948
1.12494
1.11217
1.10803
1.10399
1.10086
1.09962
1.10854
1.0756
1.05878
1.03363
0.998234
0.953211
0.907108
0.883048
0.881996
0.878285
0.877783
1.03737
1.33284
1.56616
1.71683
1.81593
1.87143
1.92924
1.96794
2.01063
2.03659
2.09722
0.196744
0.197541
0.197375
0.197306
0.197199
0.197071
0.196926
0.196766
0.196562
0.196367
0.196162
0.195943
0.195712
0.195487
0.195259
0.195031
0.194767
0.194516
0.194303
0.19411
0.193946
0.193839
0.193719
0.193594
0.193527
0.19352
0.193567
0.193644
0.193778
0.193952
0.194212
0.194557
0.194931
0.195346
0.19588
0.196571
0.197245
0.198108
0.199115
0.200131
0.201316
0.202039
0.202389
0.221782
1.11949
1.61007
1.59731
1.56408
1.54372
1.51352
1.4874
1.45765
1.42938
1.3995
1.37021
1.34122
1.3144
1.28914
1.26652
1.2475
1.23258
1.2202
1.20841
1.19864
1.19083
1.18577
1.18246
1.18125
1.18119
1.18483
1.18597
1.18929
1.1915
1.19342
1.18909
1.185
1.18082
1.1767
1.17203
1.16772
1.16383
1.1605
1.15783
1.15624
1.15495
1.14593
1.14297
1.14053
1.13883
1.12996
1.12492
1.12114
1.10765
1.10363
1.10012
1.097
1.09497
1.10343
1.07118
1.0562
1.0371
0.992682
0.952016
0.90558
0.887026
0.889168
0.896795
1.03455
1.31962
1.54541
1.70459
1.8013
1.86731
1.89917
1.93325
1.95041
1.98329
1.99818
2.02733
0.196743
0.197541
0.197372
0.197304
0.197203
0.197079
0.196916
0.196751
0.196572
0.196381
0.196154
0.195931
0.195717
0.195492
0.195248
0.195022
0.194768
0.194508
0.194292
0.194106
0.193944
0.193837
0.193703
0.193582
0.193508
0.193496
0.193535
0.193606
0.193725
0.193907
0.194159
0.194427
0.194803
0.195278
0.195799
0.196331
0.196998
0.197812
0.198881
0.199762
0.200477
0.201409
0.201006
0.204858
1.09161
1.60342
1.58399
1.5512
1.53252
1.50234
1.47653
1.44556
1.41618
1.38566
1.3555
1.32718
1.30213
1.27836
1.25627
1.23741
1.22153
1.2085
1.19687
1.1878
1.18067
1.17606
1.17319
1.17214
1.17193
1.17606
1.1769
1.1797
1.18144
1.18325
1.17785
1.17472
1.17059
1.16678
1.16177
1.15737
1.15353
1.15021
1.14737
1.14569
1.14477
1.13608
1.13333
1.1306
1.12792
1.12013
1.11562
1.11302
1.09875
1.09459
1.09128
1.08757
1.08392
1.09131
1.05943
1.04715
1.02583
0.982915
0.949616
0.906286
0.889143
0.913979
1.07638
1.34229
1.5739
1.69825
1.76319
1.82999
1.8789
1.89981
1.92333
1.92972
1.96402
1.97448
1.99135
0.196746
0.19754
0.197377
0.197309
0.197194
0.197065
0.196924
0.196764
0.196561
0.196364
0.196162
0.195945
0.195708
0.195477
0.195253
0.195017
0.194762
0.194506
0.194282
0.194098
0.193934
0.193827
0.193684
0.193564
0.19348
0.193456
0.193486
0.193551
0.193657
0.193811
0.194036
0.194326
0.194689
0.195069
0.195543
0.196137
0.196756
0.197508
0.198373
0.199358
0.19989
0.200675
0.200566
0.20243
1.0818
1.60024
1.57424
1.5471
1.52408
1.49089
1.46371
1.43065
1.40025
1.37096
1.33727
1.30791
1.28138
1.25605
1.23419
1.21552
1.20227
1.19063
1.18001
1.17138
1.16429
1.16033
1.1573
1.15716
1.15723
1.16152
1.16244
1.16666
1.16841
1.17011
1.16507
1.16314
1.15847
1.15529
1.15077
1.14657
1.14267
1.13934
1.13646
1.1344
1.1334
1.12555
1.12299
1.11986
1.1169
1.10974
1.10554
1.10357
1.09011
1.08571
1.08257
1.08015
1.07488
1.07912
1.05142
1.03885
1.01448
0.974441
0.939355
0.902971
0.91262
1.09694
1.36337
1.5888
1.68897
1.73567
1.7788
1.82326
1.86434
1.88343
1.90466
1.9063
1.94255
1.95349
1.97008
0.196748
0.197541
0.19737
0.197303
0.197202
0.197078
0.196913
0.196747
0.19657
0.196377
0.196154
0.19593
0.195708
0.195475
0.195247
0.195006
0.194761
0.194501
0.194267
0.194085
0.193927
0.193814
0.193667
0.193543
0.193452
0.193407
0.193425
0.193476
0.193567
0.193712
0.193899
0.194147
0.19447
0.194863
0.195329
0.195728
0.196302
0.19706
0.198023
0.199026
0.200009
0.200976
0.201651
0.203332
1.07493
1.60203
1.58648
1.54235
1.51679
1.48035
1.44827
1.41298
1.3786
1.34875
1.31409
1.28526
1.25697
1.23119
1.20573
1.18689
1.17059
1.1592
1.14967
1.14155
1.13618
1.13229
1.13147
1.13078
1.13357
1.13699
1.13855
1.14367
1.14625
1.14817
1.14361
1.14238
1.13791
1.13515
1.13146
1.12765
1.12417
1.12096
1.11823
1.11603
1.11518
1.10797
1.10581
1.10204
1.09839
1.09227
1.08884
1.08727
1.07437
1.06964
1.06738
1.06582
1.05908
1.06052
1.03329
1.0187
0.992717
0.958641
0.927452
0.914634
1.07314
1.36376
1.58013
1.66129
1.69045
1.72558
1.77421
1.81715
1.85645
1.87812
1.8931
1.88447
1.92288
1.93465
1.95524
0.196752
0.197542
0.197375
0.197305
0.197196
0.197065
0.196922
0.196761
0.19656
0.19636
0.196159
0.19594
0.195699
0.195472
0.195249
0.194998
0.194755
0.194501
0.194254
0.194066
0.193916
0.193792
0.193645
0.193513
0.193418
0.193347
0.193346
0.193379
0.193455
0.193577
0.193745
0.193945
0.194207
0.194539
0.19493
0.195321
0.195872
0.196593
0.19748
0.19851
0.199787
0.201262
0.203238
0.210167
1.09378
1.61138
1.60107
1.54507
1.50946
1.46583
1.42589
1.38553
1.34802
1.31379
1.27912
1.24711
1.21754
1.18926
1.16861
1.14602
1.13247
1.12154
1.11064
1.10352
1.0985
1.09547
1.09454
1.09221
1.09785
1.10128
1.104
1.11011
1.11416
1.11755
1.11392
1.11262
1.10969
1.10735
1.10524
1.10171
1.099
1.09682
1.09467
1.09228
1.09139
1.08626
1.08402
1.08077
1.07795
1.07129
1.06828
1.0667
1.05738
1.05294
1.04811
1.04513
1.03642
1.03268
1.00714
0.992454
0.97313
0.955771
0.913399
1.07054
1.33484
1.54046
1.6177
1.64176
1.65677
1.70201
1.75753
1.80724
1.84617
1.86829
1.88294
1.87148
1.90554
1.91628
1.9386
0.196757
0.197545
0.197376
0.197306
0.197197
0.197067
0.196921
0.196749
0.196568
0.19637
0.196154
0.195933
0.195695
0.19547
0.195247
0.194994
0.194742
0.194501
0.194243
0.194045
0.193895
0.19376
0.193612
0.193474
0.193378
0.193278
0.193252
0.193271
0.193318
0.193407
0.193543
0.193714
0.193903
0.194162
0.194444
0.19479
0.195286
0.195904
0.19656
0.197635
0.199133
0.201045
0.20363
0.219283
1.09954
1.62129
1.59759
1.53014
1.48115
1.43487
1.3897
1.34438
1.31046
1.27117
1.24367
1.20671
1.18487
1.15113
1.12818
1.10976
1.09442
1.08268
1.07275
1.06333
1.06242
1.05641
1.05758
1.05397
1.06088
1.06396
1.06481
1.07046
1.07346
1.07972
1.07537
1.07323
1.07164
1.06875
1.06827
1.06522
1.06333
1.06199
1.06109
1.05905
1.05786
1.05616
1.05162
1.05027
1.04718
1.04232
1.03962
1.03821
1.03023
1.02663
1.02333
1.02219
1.01349
1.00632
0.989427
0.982439
0.976076
0.952684
1.04219
1.33143
1.50558
1.5694
1.58399
1.5946
1.62574
1.67317
1.73742
1.7931
1.83334
1.85631
1.87078
1.86062
1.88932
1.89596
1.9234
0.196763
0.197548
0.197378
0.197305
0.197203
0.197078
0.196916
0.196748
0.196569
0.196362
0.196156
0.195938
0.195692
0.195464
0.195242
0.19499
0.194733
0.194493
0.194235
0.194026
0.193863
0.193723
0.193563
0.193435
0.193325
0.193208
0.19314
0.193138
0.193159
0.193201
0.193307
0.193429
0.19356
0.193706
0.193883
0.194136
0.194421
0.194776
0.195161
0.195696
0.196719
0.199176
0.202659
0.208401
1.03754
1.60732
1.55355
1.47677
1.41925
1.37603
1.33241
1.28527
1.25885
1.21668
1.19656
1.15711
1.14162
1.10639
1.08812
1.06956
1.05866
1.05459
1.03516
1.0311
1.02623
1.0275
1.02397
1.02231
1.0268
1.02918
1.03087
1.03268
1.03815
1.04485
1.04056
1.03787
1.03646
1.03329
1.03254
1.0298
1.02763
1.02667
1.02573
1.02459
1.02312
1.0216
1.01869
1.01776
1.01693
1.01225
1.01051
1.01196
1.00256
1.00058
0.997016
0.999198
0.996335
0.994695
0.985172
0.982703
0.97698
1.12572
1.33189
1.50147
1.5548
1.53365
1.53027
1.54484
1.58102
1.64093
1.71251
1.77307
1.81665
1.84223
1.85709
1.84888
1.87268
1.88094
1.90704
0.19677
0.19755
0.197384
0.197313
0.1972
0.197068
0.196924
0.196762
0.196567
0.19636
0.196154
0.19594
0.195691
0.195456
0.195234
0.194986
0.194724
0.194481
0.194228
0.194008
0.193828
0.193679
0.193517
0.193385
0.193267
0.193142
0.193013
0.192976
0.192971
0.192983
0.193012
0.193103
0.193175
0.193244
0.193304
0.193378
0.193463
0.193533
0.193601
0.193783
0.193723
0.194023
0.193657
0.193586
0.824011
1.54743
1.44575
1.36711
1.31978
1.28896
1.25603
1.21205
1.20233
1.157
1.15093
1.10841
1.09244
1.09258
1.04758
1.03427
1.03512
1.01962
1.01218
1.00621
1.00368
1.00167
1.00123
1.00041
1.0046
1.00685
1.00908
1.01087
1.01382
1.0229
1.01781
1.01389
1.01224
1.00766
1.0068
1.00526
1.00212
1.00081
0.999688
0.998492
0.997892
0.995533
0.99366
0.994126
0.992154
0.989379
0.987534
0.988597
0.98392
0.985123
0.988083
0.990753
0.99464
0.996399
0.99566
1.01607
1.17264
1.4062
1.56113
1.5717
1.52054
1.49944
1.49336
1.51091
1.55022
1.61457
1.69064
1.7555
1.80097
1.82846
1.84393
1.83737
1.85748
1.86668
1.89066
0.196779
0.197556
0.197386
0.197315
0.197203
0.197077
0.196922
0.196751
0.196574
0.196375
0.196149
0.195936
0.195693
0.195452
0.195226
0.194981
0.194716
0.194466
0.194222
0.193984
0.193788
0.193623
0.19347
0.193332
0.193202
0.193076
0.192889
0.192799
0.192758
0.192734
0.192722
0.192719
0.192715
0.192709
0.192669
0.192569
0.19239
0.192054
0.19138
0.190512
0.188861
0.186951
0.182578
0.182478
0.326452
1.27652
1.3552
1.2631
1.23281
1.21904
1.17515
1.16536
1.15652
1.1218
1.11773
1.08175
1.07139
1.059
1.03851
1.02566
1.01348
1.00679
0.99939
0.995813
0.990154
0.989282
0.988597
0.988134
0.989467
0.99149
0.994222
0.995308
0.999263
1.00549
1.00214
0.998482
0.996026
0.992586
0.991206
0.988213
0.985882
0.984407
0.982618
0.981358
0.980082
0.978872
0.978173
0.977908
0.977207
0.976216
0.979653
0.982468
0.982407
0.982557
0.985286
0.999605
1.01225
1.0304
1.11321
1.29056
1.4839
1.61888
1.63701
1.54614
1.48784
1.44697
1.4614
1.48158
1.52368
1.59291
1.66973
1.73727
1.78412
1.81317
1.82937
1.82524
1.84274
1.85229
1.87376
0.196788
0.197561
0.19739
0.197317
0.197212
0.19708
0.196925
0.196758
0.196576
0.196372
0.196154
0.19594
0.195701
0.195449
0.195215
0.194975
0.194713
0.19445
0.194209
0.193959
0.193741
0.193562
0.193407
0.193276
0.193135
0.193002
0.192771
0.19262
0.192526
0.192467
0.192408
0.192354
0.192274
0.192186
0.192099
0.191924
0.19161
0.191206
0.190365
0.189272
0.188126
0.187331
0.184378
0.186895
0.544772
0.899501
1.08412
1.20503
1.16202
1.18586
1.14786
1.17476
1.11954
1.1318
1.10241
1.09721
1.06492
1.04455
1.05238
1.00106
1.00534
1.00584
0.998203
0.9906
0.985982
0.983731
0.982924
0.982585
0.98429
0.987473
0.990732
0.991423
0.994737
1.00023
0.994514
0.990248
0.988386
0.984551
0.98263
0.98042
0.978143
0.976506
0.975451
0.97416
0.974045
0.974719
0.973105
0.974862
0.976125
0.975957
0.979192
0.983504
0.996424
1.0086
1.02696
1.07352
1.14093
1.27248
1.4371
1.58831
1.70713
1.70739
1.62601
1.54051
1.46045
1.42731
1.43457
1.45382
1.50228
1.57309
1.65069
1.72034
1.76896
1.79951
1.81629
1.81414
1.82991
1.83931
1.8588
0.196797
0.197564
0.197398
0.197326
0.197213
0.19708
0.196933
0.196759
0.196579
0.196378
0.196155
0.195939
0.19571
0.195446
0.195205
0.19497
0.19471
0.194432
0.19419
0.193934
0.193695
0.193494
0.193326
0.193207
0.19305
0.192882
0.19268
0.192456
0.192304
0.192192
0.192099
0.191999
0.191872
0.191693
0.191552
0.191303
0.190826
0.18991
0.188558
0.186572
0.184155
0.179741
0.174108
0.171022
0.575058
0.913792
0.984176
1.04977
1.1802
1.18011
1.19349
1.16817
1.14847
1.14351
1.09269
1.10189
1.07587
1.04906
1.05355
1.00548
1.00708
1.01044
0.999712
0.993984
0.990062
0.987284
0.98593
0.985448
0.984756
0.984937
0.988672
0.988917
0.993774
0.998112
0.993212
0.989389
0.988071
0.984885
0.982717
0.981115
0.978647
0.977297
0.977146
0.975555
0.977182
0.978899
0.98035
0.987854
0.994064
1.00247
1.02306
1.04442
1.08524
1.13748
1.22811
1.34918
1.47374
1.59332
1.71221
1.77998
1.75988
1.69198
1.59362
1.51082
1.44863
1.4254
1.42505
1.44155
1.48898
1.55919
1.63724
1.70662
1.75531
1.78621
1.80306
1.80279
1.81721
1.82624
1.8435
0.196808
0.197573
0.197403
0.197331
0.197217
0.197091
0.196938
0.196765
0.196582
0.196388
0.196159
0.195938
0.195715
0.195448
0.195194
0.194962
0.194706
0.194413
0.194168
0.193909
0.193652
0.193433
0.193244
0.193118
0.192956
0.192762
0.192571
0.192296
0.192085
0.191921
0.191793
0.191658
0.191509
0.191309
0.191205
0.190995
0.190663
0.190223
0.189772
0.189319
0.190511
0.189616
0.199426
0.292623
0.762192
0.902828
0.913758
0.959074
1.13419
1.21112
1.24859
1.20571
1.21122
1.17057
1.14142
1.12455
1.09692
1.0864
1.04895
1.03458
1.03366
1.01885
1.01575
1.00664
1.00159
0.997776
0.996364
0.996346
0.994617
0.995623
0.997963
0.998066
1.00006
1.0047
0.998834
0.995566
0.994462
0.99238
0.990097
0.989879
0.989224
0.990812
0.995025
0.997195
1.00734
1.016
1.03282
1.0654
1.09607
1.14669
1.20374
1.29521
1.3867
1.47577
1.56473
1.65394
1.744
1.79928
1.81223
1.79582
1.73602
1.66261
1.58647
1.50616
1.43952
1.41938
1.41872
1.43808
1.48177
1.55076
1.62638
1.69427
1.7421
1.77325
1.79053
1.79213
1.80601
1.81452
1.83031
0.19682
0.197581
0.197409
0.197335
0.197229
0.197096
0.196946
0.196772
0.196589
0.196397
0.196166
0.195939
0.195717
0.195453
0.195187
0.194951
0.194698
0.194402
0.19414
0.193878
0.193606
0.193373
0.193165
0.193009
0.192841
0.192619
0.192412
0.192154
0.191893
0.191668
0.191488
0.191338
0.191171
0.190979
0.190883
0.190735
0.190544
0.190331
0.190288
0.190748
0.19186
0.193046
0.202605
0.486474
0.862455
0.903742
0.888692
0.929229
1.00738
1.1592
1.25159
1.25991
1.28156
1.20005
1.19923
1.13383
1.13172
1.09595
1.06448
1.07101
1.04517
1.03427
1.03605
1.01828
1.01657
1.01268
1.01025
1.01162
1.01033
1.01164
1.0149
1.01486
1.01796
1.02294
1.01835
1.01683
1.01967
1.02073
1.02133
1.03211
1.03846
1.05821
1.07657
1.10616
1.14906
1.1919
1.26432
1.33661
1.40973
1.47912
1.54511
1.61351
1.68575
1.74826
1.79125
1.81726
1.82876
1.82694
1.80279
1.76936
1.71711
1.64752
1.56532
1.49849
1.45536
1.43629
1.43545
1.44837
1.48403
1.54643
1.61848
1.68343
1.72969
1.76048
1.77808
1.7815
1.79504
1.80285
1.81723
0.196832
0.197589
0.197419
0.197346
0.197234
0.197101
0.196955
0.196784
0.196594
0.196403
0.196176
0.195941
0.195718
0.195462
0.195183
0.194935
0.194683
0.194404
0.194107
0.193836
0.193557
0.193309
0.193087
0.192898
0.192705
0.192464
0.19223
0.192028
0.191735
0.19145
0.191207
0.191022
0.190855
0.190682
0.190544
0.190475
0.190283
0.190105
0.189831
0.189399
0.189351
0.187931
0.192535
0.619908
0.901502
0.913234
0.899858
0.907932
0.914309
1.01632
1.1505
1.24366
1.28747
1.22823
1.23879
1.16008
1.16647
1.08698
1.07213
1.07101
1.0578
1.04747
1.04409
1.02735
1.03196
1.02746
1.02858
1.03122
1.03303
1.03673
1.04241
1.04433
1.05929
1.06556
1.07348
1.07839
1.10096
1.11937
1.14156
1.18064
1.21847
1.27863
1.34239
1.4047
1.46456
1.52154
1.57758
1.63759
1.69957
1.74798
1.78199
1.8034
1.81854
1.83036
1.83448
1.83246
1.822
1.80877
1.78383
1.75367
1.70494
1.64138
1.56768
1.50147
1.45897
1.43967
1.43915
1.45305
1.48836
1.54641
1.61315
1.67349
1.71751
1.74763
1.76568
1.77133
1.78477
1.79196
1.80541
0.196845
0.197598
0.197428
0.197356
0.197242
0.197114
0.196964
0.196793
0.196601
0.19641
0.19619
0.195945
0.195718
0.19547
0.195181
0.194915
0.194672
0.194403
0.194075
0.193785
0.193505
0.193241
0.192996
0.192802
0.192571
0.192299
0.192018
0.19181
0.191593
0.191298
0.190948
0.190708
0.190527
0.190361
0.190186
0.190061
0.189877
0.189595
0.189066
0.188141
0.185626
0.184533
0.188126
0.712175
0.906698
0.912579
0.906941
0.909382
0.902353
0.941745
0.988831
1.15281
1.24146
1.25589
1.23749
1.17385
1.16834
1.08368
1.09494
1.04717
1.06319
1.05309
1.05059
1.03964
1.04999
1.04896
1.05877
1.06325
1.07564
1.09204
1.11
1.13013
1.16558
1.1923
1.23482
1.2714
1.33244
1.38738
1.43831
1.48836
1.53588
1.58558
1.63385
1.69045
1.73575
1.76985
1.79402
1.80826
1.81928
1.82744
1.83201
1.83046
1.82822
1.82834
1.82322
1.81715
1.80625
1.7932
1.76929
1.74078
1.69768
1.64001
1.57312
1.51598
1.47817
1.45704
1.45454
1.46607
1.49787
1.54971
1.61041
1.66439
1.7059
1.73499
1.75343
1.76119
1.77459
1.78107
1.79259
0.196858
0.197607
0.197436
0.197363
0.197257
0.197124
0.196973
0.196808
0.196613
0.196418
0.196204
0.195952
0.195717
0.195476
0.195183
0.194902
0.194653
0.194388
0.194061
0.193736
0.193444
0.193166
0.192905
0.192695
0.192437
0.19213
0.191827
0.191579
0.191389
0.191143
0.190722
0.1904
0.190198
0.190065
0.18996
0.189934
0.190031
0.190349
0.1906
0.191889
0.191971
0.199474
0.340128
0.864062
0.937007
0.93004
0.922029
0.917033
0.908769
0.907011
0.917746
1.01421
1.0987
1.25253
1.21261
1.18011
1.1526
1.10485
1.1057
1.03515
1.08043
1.0669
1.07903
1.07824
1.10155
1.11183
1.14376
1.16792
1.21206
1.24938
1.312
1.36915
1.42143
1.47335
1.52041
1.56399
1.61268
1.65855
1.7083
1.74722
1.77563
1.79485
1.80752
1.81632
1.82298
1.82784
1.82977
1.82767
1.82694
1.82641
1.82385
1.81871
1.81559
1.81327
1.80998
1.80522
1.79328
1.78032
1.75842
1.73204
1.69404
1.64279
1.58182
1.52244
1.48545
1.46528
1.46377
1.47583
1.50613
1.55313
1.60819
1.65612
1.69471
1.72227
1.74102
1.75175
1.76434
1.7704
1.78179
0.196873
0.197617
0.197448
0.197376
0.197266
0.197132
0.196986
0.196823
0.196626
0.196427
0.196219
0.195962
0.195718
0.195478
0.195194
0.194893
0.194625
0.194364
0.194057
0.193695
0.193374
0.193079
0.192804
0.192577
0.192304
0.191974
0.191639
0.191359
0.191143
0.190897
0.190583
0.19008
0.189807
0.189625
0.189474
0.189333
0.189227
0.189229
0.189234
0.189711
0.189483
0.196064
0.495221
0.92544
0.953727
0.942646
0.936795
0.930359
0.917505
0.906985
0.897731
0.904657
0.943617
1.08051
1.15618
1.20417
1.14079
1.12699
1.12021
1.08771
1.12765
1.13453
1.16754
1.19386
1.24433
1.29477
1.36353
1.42104
1.47445
1.52671
1.57611
1.62682
1.67427
1.71976
1.75674
1.78237
1.8004
1.81425
1.82368
1.8287
1.83221
1.83361
1.83199
1.82993
1.82689
1.82498
1.82201
1.81804
1.81626
1.81415
1.81193
1.80836
1.80499
1.8014
1.79748
1.79238
1.78251
1.76942
1.75053
1.72594
1.69188
1.64517
1.58897
1.53708
1.50357
1.4828
1.48002
1.49093
1.51848
1.5598
1.60787
1.64875
1.6842
1.70985
1.72878
1.74162
1.75401
1.75949
1.76967
0.196888
0.197628
0.19746
0.197389
0.197278
0.19715
0.196997
0.196837
0.196642
0.196437
0.196231
0.19598
0.195721
0.19548
0.195206
0.194887
0.194596
0.194343
0.194044
0.193668
0.193309
0.192989
0.192692
0.192434
0.192164
0.191822
0.191442
0.191141
0.190874
0.190652
0.190354
0.189888
0.189426
0.18917
0.188969
0.188736
0.188504
0.188172
0.187913
0.18795
0.186498
0.190778
0.622641
0.937147
0.95151
0.942216
0.939767
0.932485
0.924737
0.915257
0.90329
0.896009
0.890387
0.956566
1.00923
1.2185
1.14526
1.21537
1.17482
1.24319
1.28509
1.33434
1.39423
1.45026
1.50092
1.55588
1.61135
1.66341
1.70649
1.74016
1.76668
1.78465
1.80144
1.81422
1.82452
1.83249
1.83685
1.8385
1.83717
1.83444
1.83089
1.82742
1.8246
1.82048
1.81709
1.81454
1.81131
1.80856
1.80578
1.80279
1.79964
1.79677
1.79445
1.79049
1.78649
1.78189
1.77296
1.76134
1.74446
1.72198
1.69036
1.64692
1.59403
1.54907
1.51736
1.49641
1.4932
1.50419
1.52941
1.56526
1.60673
1.64164
1.67434
1.69811
1.71683
1.7295
1.7441
1.74926
1.76018
0.196904
0.197639
0.197472
0.197399
0.197296
0.197165
0.197011
0.196854
0.19666
0.196448
0.196243
0.196
0.195729
0.19548
0.195216
0.194885
0.194574
0.194308
0.194016
0.193672
0.193248
0.192897
0.192576
0.192275
0.192032
0.191688
0.191237
0.190909
0.190599
0.190347
0.190074
0.189738
0.189101
0.188634
0.18828
0.187803
0.187187
0.1861
0.184749
0.181616
0.179135
0.177759
0.713641
0.92609
0.935958
0.935841
0.937851
0.930272
0.924341
0.917233
0.906981
0.896029
0.891672
0.924685
0.974085
1.22386
1.33014
1.38331
1.4059
1.47629
1.53039
1.57942
1.63174
1.67217
1.70313
1.72944
1.75176
1.77162
1.78552
1.79683
1.80681
1.81254
1.81864
1.82225
1.82539
1.82654
1.82853
1.82999
1.82789
1.82592
1.82219
1.81942
1.81648
1.81264
1.80951
1.80578
1.80145
1.79848
1.79507
1.79232
1.78876
1.78707
1.78485
1.7807
1.77667
1.77242
1.76446
1.75406
1.73909
1.71874
1.68997
1.64915
1.60096
1.55866
1.52812
1.51467
1.50892
1.51836
1.54011
1.57128
1.60632
1.63644
1.66573
1.68546
1.70529
1.71777
1.73288
1.73904
1.7504
0.196921
0.197652
0.197487
0.197416
0.197307
0.197182
0.197027
0.19687
0.196684
0.196463
0.196255
0.196023
0.19574
0.195482
0.195222
0.194897
0.194566
0.194258
0.193994
0.193664
0.1932
0.192804
0.192455
0.192117
0.191891
0.19155
0.191047
0.190636
0.19031
0.190014
0.189772
0.189448
0.189069
0.188442
0.188141
0.188023
0.18814
0.188292
0.189453
0.189359
0.197285
0.356946
0.891167
0.9551
0.952683
0.950658
0.950447
0.947777
0.944195
0.942001
0.939846
0.942469
0.943372
1.02401
1.12657
1.43665
1.56839
1.61521
1.64524
1.67149
1.69366
1.71742
1.73281
1.74443
1.75365
1.76184
1.7711
1.77929
1.78573
1.79147
1.79654
1.80287
1.80731
1.80973
1.81301
1.81268
1.81493
1.81631
1.8163
1.81487
1.81187
1.80993
1.80662
1.80417
1.80137
1.79745
1.79306
1.78966
1.78555
1.78261
1.77867
1.77748
1.77538
1.77113
1.76692
1.76298
1.75621
1.74721
1.734
1.71546
1.68902
1.65155
1.60687
1.56796
1.53945
1.52918
1.52212
1.53023
1.54905
1.57579
1.60381
1.62966
1.65627
1.6742
1.69411
1.70603
1.72211
1.72974
1.74159
0.196939
0.197665
0.197502
0.197433
0.197326
0.197202
0.197047
0.196887
0.196709
0.196484
0.19627
0.196045
0.195758
0.195485
0.195227
0.19492
0.194557
0.194221
0.193959
0.193629
0.193197
0.192715
0.192326
0.191964
0.191719
0.19141
0.190929
0.190353
0.189986
0.189652
0.189375
0.189142
0.188804
0.188426
0.18774
0.187325
0.187047
0.186871
0.187049
0.186572
0.191738
0.523084
0.943681
0.972914
0.96742
0.96575
0.962484
0.95984
0.958305
0.958517
0.960214
0.988596
1.01628
1.22536
1.42003
1.65671
1.71622
1.7188
1.72728
1.73413
1.74341
1.75052
1.75539
1.75892
1.75979
1.75952
1.76067
1.76301
1.76654
1.77272
1.77758
1.78334
1.78835
1.793
1.79639
1.79827
1.80149
1.80338
1.80462
1.80437
1.80198
1.80105
1.79821
1.79643
1.79365
1.78987
1.78548
1.78182
1.77782
1.77484
1.77069
1.7699
1.76765
1.76344
1.75892
1.75472
1.74843
1.73982
1.72748
1.71028
1.68659
1.65304
1.61281
1.57643
1.55303
1.54079
1.53547
1.54126
1.55644
1.57876
1.60188
1.62335
1.64699
1.66365
1.68328
1.69486
1.71139
1.72038
1.73246
0.196958
0.19768
0.197519
0.197452
0.197343
0.197224
0.197072
0.196907
0.196733
0.196512
0.196287
0.196062
0.195785
0.195496
0.19523
0.194939
0.194553
0.1942
0.193901
0.193601
0.193198
0.192629
0.192202
0.191822
0.191515
0.191259
0.19084
0.19009
0.189617
0.189268
0.188939
0.188717
0.188503
0.188155
0.187746
0.187069
0.186446
0.185769
0.185079
0.18329
0.184801
0.660555
0.970503
0.985966
0.980812
0.979112
0.97571
0.97436
0.975836
0.984168
0.997003
1.08607
1.17546
1.48837
1.67827
1.75598
1.75716
1.75011
1.74742
1.74763
1.74819
1.75055
1.75
1.74903
1.74708
1.74315
1.74085
1.73863
1.73869
1.74135
1.74534
1.75182
1.75863
1.76576
1.77212
1.77801
1.78245
1.78491
1.7882
1.78989
1.78991
1.79009
1.78799
1.78713
1.78455
1.78157
1.77808
1.77439
1.77071
1.76745
1.76355
1.76199
1.75902
1.75491
1.74992
1.74549
1.73963
1.73174
1.72093
1.70572
1.68443
1.65469
1.61775
1.5852
1.563
1.553
1.54651
1.5512
1.56298
1.58093
1.5985
1.61577
1.63681
1.65328
1.6725
1.6842
1.70145
1.71142
1.72354
0.196978
0.197696
0.197537
0.197472
0.197363
0.197246
0.197098
0.196928
0.196756
0.196545
0.196307
0.196082
0.195817
0.195511
0.195235
0.194948
0.194572
0.194191
0.193841
0.193568
0.193184
0.192577
0.192084
0.191677
0.191308
0.191093
0.190665
0.190029
0.189275
0.188848
0.188523
0.188166
0.18796
0.187726
0.187285
0.186781
0.18593
0.185416
0.18373
0.184171
0.20284
0.7832
0.987544
0.995574
0.997142
0.995435
0.993059
0.991122
1.00052
1.02796
1.07374
1.28613
1.48685
1.70431
1.77246
1.77187
1.75656
1.7498
1.7434
1.74034
1.73836
1.73753
1.73666
1.73488
1.73267
1.72895
1.7258
1.72263
1.71896
1.71706
1.71764
1.72086
1.7256
1.73345
1.74299
1.75041
1.75541
1.76094
1.7673
1.77161
1.77483
1.77625
1.77613
1.77612
1.77449
1.77218
1.76991
1.7665
1.76331
1.75995
1.7562
1.75373
1.75049
1.74618
1.74109
1.73647
1.73104
1.7235
1.71348
1.69921
1.67966
1.65335
1.62111
1.59239
1.57422
1.56178
1.55729
1.55917
1.56759
1.58131
1.59541
1.60916
1.62748
1.64325
1.66176
1.67393
1.69166
1.70239
1.71495
0.197
0.197713
0.197557
0.197493
0.197386
0.197268
0.197126
0.196954
0.196781
0.19658
0.196334
0.196104
0.19585
0.195532
0.195239
0.194959
0.194605
0.19418
0.193799
0.193509
0.193127
0.192591
0.191987
0.191532
0.191109
0.190884
0.190492
0.18999
0.189053
0.188458
0.188074
0.187765
0.187501
0.187481
0.187456
0.187507
0.187541
0.188492
0.188998
0.194863
0.369444
0.948071
1.01485
1.00359
0.999236
0.997076
1.00032
1.00514
1.03535
1.11506
1.24064
1.53179
1.71197
1.77817
1.775
1.75755
1.74687
1.73764
1.73115
1.72799
1.72557
1.72434
1.72325
1.72197
1.72046
1.71731
1.71458
1.71113
1.70576
1.7012
1.69639
1.69409
1.69532
1.69921
1.70662
1.71596
1.72521
1.73395
1.74135
1.74817
1.75491
1.75892
1.76211
1.76367
1.76329
1.76234
1.76127
1.75866
1.75582
1.75241
1.74879
1.74532
1.74162
1.73718
1.73215
1.72753
1.72237
1.71519
1.70603
1.69323
1.67585
1.65284
1.62339
1.59793
1.57907
1.57041
1.56461
1.56622
1.57219
1.58189
1.59128
1.60202
1.61796
1.63291
1.65103
1.66398
1.68194
1.69374
1.70556
0.197023
0.197732
0.197578
0.197516
0.197411
0.197294
0.197156
0.196984
0.196809
0.196615
0.196368
0.196131
0.195883
0.195564
0.195253
0.194973
0.194643
0.194189
0.193786
0.193425
0.19309
0.192606
0.191909
0.191396
0.190952
0.190596
0.1903
0.18978
0.189093
0.188126
0.187588
0.187211
0.186901
0.1866
0.186403
0.186424
0.186331
0.186473
0.185655
0.189711
0.525643
1.00008
1.02676
1.01655
1.01466
1.01299
1.01564
1.04382
1.11075
1.31338
1.52309
1.7241
1.78036
1.77225
1.75426
1.7418
1.73008
1.72219
1.71578
1.71245
1.71003
1.70864
1.70728
1.70599
1.70526
1.7034
1.70162
1.69898
1.69489
1.68995
1.68458
1.67893
1.67509
1.67495
1.6788
1.68495
1.69386
1.70337
1.71192
1.72069
1.72944
1.73645
1.74193
1.74449
1.74624
1.74747
1.74794
1.74686
1.74505
1.74253
1.73929
1.73545
1.73158
1.7268
1.72184
1.7173
1.71263
1.7061
1.69789
1.6862
1.67038
1.64919
1.62344
1.60149
1.58469
1.57683
1.56986
1.56992
1.57347
1.58008
1.58713
1.59623
1.60975
1.62353
1.64052
1.65407
1.67245
1.68481
1.69744
0.197048
0.197752
0.197601
0.197541
0.197439
0.197322
0.197188
0.197019
0.196841
0.196651
0.196408
0.196162
0.195915
0.195608
0.19528
0.194987
0.194665
0.194231
0.193781
0.193362
0.193054
0.192595
0.191898
0.191281
0.190782
0.190312
0.190039
0.189571
0.188965
0.188046
0.187123
0.186572
0.186194
0.185768
0.185375
0.185
0.184839
0.184689
0.18328
0.185438
0.650534
1.01038
1.0225
1.01801
1.01823
1.02591
1.03733
1.13087
1.27584
1.55042
1.72621
1.77985
1.76905
1.75194
1.73788
1.72593
1.71701
1.71075
1.7052
1.70177
1.69864
1.6967
1.69492
1.69334
1.69197
1.69002
1.68822
1.68553
1.68271
1.67866
1.67441
1.6679
1.66276
1.65831
1.65752
1.65995
1.6656
1.67283
1.68167
1.69258
1.70297
1.71308
1.72127
1.72689
1.7309
1.73431
1.73595
1.7365
1.73545
1.73368
1.73053
1.72635
1.72197
1.71678
1.71224
1.70778
1.70359
1.69771
1.69011
1.67957
1.66576
1.64774
1.6249
1.60375
1.58744
1.58005
1.57402
1.57309
1.57452
1.5784
1.5826
1.58969
1.60139
1.61405
1.63007
1.64399
1.66261
1.67601
1.68775
0.197075
0.197774
0.197626
0.197569
0.19747
0.197354
0.197222
0.197056
0.196877
0.196689
0.196454
0.196199
0.195956
0.195658
0.195315
0.195006
0.194693
0.194281
0.193787
0.193339
0.192995
0.192569
0.191966
0.191206
0.190615
0.190098
0.189673
0.189322
0.188713
0.188032
0.18677
0.185898
0.18528
0.184607
0.184037
0.183203
0.18235
0.180295
0.179882
0.187057
0.777849
1.00217
1.01525
1.0173
1.02583
1.06347
1.11223
1.33947
1.54653
1.73489
1.77679
1.76101
1.7456
1.73036
1.71785
1.70828
1.70186
1.69699
1.6925
1.68967
1.68709
1.68531
1.6836
1.68217
1.68043
1.67833
1.67627
1.674
1.67122
1.66848
1.66458
1.65918
1.65437
1.64778
1.64355
1.64149
1.64316
1.64655
1.65311
1.66332
1.67292
1.68566
1.69573
1.70379
1.70917
1.7151
1.71842
1.72047
1.72064
1.72027
1.71837
1.71508
1.71102
1.7061
1.70146
1.69644
1.69238
1.68726
1.68059
1.67164
1.65974
1.6441
1.62466
1.60667
1.5917
1.58277
1.5748
1.57264
1.57207
1.5742
1.57724
1.58374
1.59372
1.60545
1.6204
1.63438
1.6533
1.66739
1.67997
0.197104
0.197798
0.197653
0.197599
0.197503
0.19739
0.19726
0.197097
0.196918
0.196733
0.196503
0.196244
0.196002
0.195713
0.195359
0.195035
0.194733
0.194335
0.193803
0.193349
0.192935
0.192566
0.192033
0.191183
0.190499
0.189887
0.189325
0.18896
0.188421
0.187688
0.186781
0.185472
0.184664
0.184192
0.184121
0.184129
0.18507
0.185506
0.192225
0.349836
0.926582
1.00997
1.01009