/*--------------------------------*- C++ -*----------------------------------*\
| =========                 |                                                 |
| \\      /  F ield         | OpenFOAM: The Open Source CFD Toolbox           |
|  \\    /   O peration     | Version:  2.2.x                                 |
|   \\  /    A nd           | Web:      www.OpenFOAM.org                      |
|    \\/     M anipulation  |                                                 |
\*---------------------------------------------------------------------------*/
FoamFile
{
    version     2.0;
    format      ascii;
    class       surfaceScalarField;
    location    "2";
    object      phi;
}
// * * * * * * * * * * * * * * * * * * * * * * * * * * * * * * * * * * * * * //

dimensions      [1 0 -1 0 0 0 0];

internalField   nonuniform List<scalar> 
28084
(
0.00174119
0.00173364
0.00172716
0.00172171
0.00171724
0.0017137
0.00171103
0.00170917
0.00170807
0.00170766
0.00170788
0.00170867
0.00170996
0.00171169
0.0017138
0.00171622
0.0017189
0.00172179
0.00172482
0.00172796
0.00173114
0.00173433
0.00173749
0.00174057
0.00174355
0.00174639
0.00174907
0.00175155
0.00175382
0.00175585
0.00175764
0.00175915
0.00176039
0.00176133
0.00176197
0.00176229
0.00176229
0.00176197
0.00176131
0.00176031
0.00175896
0.00175725
0.00175484
0.0017484
0.00173823
0.0017487
0.00176022
0.00176877
0.00177442
0.00178088
0.00178996
0.00180156
0.00181252
0.00182183
0.0018284
0.00183049
0.00183209
0.00183863
0.00184765
0.00185447
0.00185747
0.00185632
0.00184896
0.00184288
0.00184305
0.00184358
0.00184134
0.00183299
0.00181791
0.00179905
0.00178549
0.00177664
0.00176541
0.00174902
0.00172665
0.0016964
0.00166991
0.00165011
0.00162925
0.00160429
0.00157421
0.00153597
0.001501
0.0014728
0.0014442
0.00141219
0.00137562
0.00133362
0.00129629
0.00126389
0.00123087
0.00119523
0.00115493
0.0011146
0.00108012
0.00104717
0.00101292
0.000975943
0.00093713
0.000903507
0.000872037
0.000839722
0.000804834
0.00076804
0.000735593
0.000704514
0.000671785
0.00063525
0.0005969
0.000560636
0.000523267
0.000481671
0.000434246
0.000383208
0.000328087
0.000266623
0.000193779
0.000110442
8.66109e-06
7.54863e-06
0.00174939
6.47668e-06
0.00174716
5.44921e-06
0.00174594
4.47006e-06
0.00174568
3.54277e-06
0.00174633
2.67052e-06
0.00174786
1.85605e-06
0.0017502
1.10164e-06
0.0017533
4.09011e-07
0.00175709
-2.20687e-07
0.00176151
-7.86861e-07
0.00176649
-1.2895e-06
0.00177197
-1.72913e-06
0.00177786
-2.10681e-06
0.00178412
-2.42407e-06
0.00179066
-2.68288e-06
0.00179743
-2.88556e-06
0.00180435
-3.03476e-06
0.00181137
-3.13337e-06
0.00181842
-3.18447e-06
0.00182546
-3.19125e-06
0.00183243
-3.15699e-06
0.00183929
-3.08497e-06
0.00184598
-2.97845e-06
0.00185247
-2.84059e-06
0.00185872
-2.67445e-06
0.0018647
-2.48295e-06
0.00187039
-2.26884e-06
0.00187574
-2.03466e-06
0.00188075
-1.78276e-06
0.00188539
-1.5153e-06
0.00188965
-1.23418e-06
0.0018935
-9.41099e-07
0.00189695
-6.37555e-07
0.00189998
-3.24805e-07
0.00190257
-3.92172e-09
0.00190474
3.24239e-07
0.00190646
6.59003e-07
0.00190773
9.99947e-07
0.00190855
1.34774e-06
0.00190892
1.71291e-06
0.00190884
2.29938e-06
0.00190827
6.2622e-06
0.00190641
1.05083e-05
0.00189712
-1.08683e-05
0.00188341
-8.98862e-06
0.00189001
-8.55954e-06
0.00189935
-8.67552e-06
0.00190577
-8.81106e-06
0.00190898
-8.80321e-06
0.00191306
-8.61001e-06
0.00192
-8.30667e-06
0.0019294
-7.86619e-06
0.00193793
-7.30072e-06
0.00194447
-6.62317e-06
0.00194815
-5.96488e-06
0.00194662
-5.21929e-06
0.00194531
-4.24523e-06
0.00194962
-3.15839e-06
0.00195612
-1.93491e-06
0.00196028
-6.02577e-07
0.00196012
7.24812e-07
0.00195559
1.98754e-06
0.0019447
3.37922e-06
0.00193576
4.92278e-06
0.00193372
6.54019e-06
0.00193161
8.2488e-06
0.00192663
9.91585e-06
0.00191512
1.15282e-05
0.0018963
1.31231e-05
0.00187449
1.48628e-05
0.00185875
1.66768e-05
0.00184758
1.84778e-05
0.00183376
2.01755e-05
0.00181435
2.1742e-05
0.00178855
2.31492e-05
0.00175534
2.46603e-05
0.00172681
2.62741e-05
0.00170506
2.78368e-05
0.00168199
2.92693e-05
0.00165446
3.04211e-05
0.00162123
3.13525e-05
0.00158028
3.23321e-05
0.00154351
3.33817e-05
0.00151367
3.43583e-05
0.00148322
3.51306e-05
0.00144899
3.55868e-05
0.00140965
3.57934e-05
0.0013653
3.60757e-05
0.00132658
3.64408e-05
0.00129278
3.67654e-05
0.00125809
3.68817e-05
0.00122055
3.66363e-05
0.00117775
3.62493e-05
0.00113555
3.58758e-05
0.00109974
3.5627e-05
0.00106552
3.54069e-05
0.00102983
3.51005e-05
0.000991041
3.4651e-05
0.000950386
3.40824e-05
0.000915188
3.36031e-05
0.000882316
3.33606e-05
0.000848697
3.33785e-05
0.000812488
3.35272e-05
0.000774065
3.3623e-05
0.000739907
3.38997e-05
0.000707253
3.46044e-05
0.000673164
3.58428e-05
0.000635524
3.75015e-05
0.000595732
3.94787e-05
0.000557846
4.20334e-05
0.000518927
4.55977e-05
0.000475953
5.01305e-05
0.00042715
5.58504e-05
0.000374409
6.29109e-05
0.000317284
7.27418e-05
0.000253748
8.20539e-05
0.000179139
0.000110813
9.37219e-05
1.19281e-05
9.77838e-06
0.00176035
7.7027e-06
0.00176337
5.71085e-06
0.00176733
3.81222e-06
0.00177219
2.01555e-06
0.00177791
3.28676e-07
0.00178445
-1.24153e-06
0.00179175
-2.68939e-06
0.00179974
-4.01043e-06
0.00180837
-5.20151e-06
0.00181756
-6.26081e-06
0.00182725
-7.1878e-06
0.00183736
-7.98325e-06
0.00184782
-8.6491e-06
0.00185855
-9.1884e-06
0.00186948
-9.60519e-06
0.00188053
-9.90436e-06
0.00189165
-1.00915e-05
0.00190276
-1.01728e-05
0.00191379
-1.01549e-05
0.0019247
-1.00447e-05
0.00193541
-9.84932e-06
0.00194589
-9.57582e-06
0.00195608
-9.2313e-06
0.00196594
-8.82267e-06
0.00197543
-8.35657e-06
0.00198452
-7.83937e-06
0.00199318
-7.27704e-06
0.00200138
-6.67513e-06
0.00200909
-6.03876e-06
0.00201631
-5.37258e-06
0.00202301
-4.68076e-06
0.00202919
-3.96698e-06
0.00203482
-3.23445e-06
0.00203991
-2.4859e-06
0.00204444
-1.72362e-06
0.00204842
-9.49447e-07
0.00205184
-1.64799e-07
0.00205469
6.29498e-07
0.00205698
1.4358e-06
0.0020587
2.2717e-06
0.00205986
4.04514e-06
0.00206046
1.53534e-05
0.00205935
2.45992e-05
0.00204982
-1.78519e-05
0.00203509
-1.55302e-05
0.00203905
-1.51757e-05
0.00204595
-1.53335e-05
0.00204958
-1.53923e-05
0.00204997
-1.52069e-05
0.00205149
-1.47083e-05
0.00205632
-1.39698e-05
0.00206337
-1.30411e-05
0.0020693
-1.18984e-05
0.00207296
-1.05119e-05
0.00207368
-9.10523e-06
0.00206861
-7.4935e-06
0.00206459
-5.49492e-06
0.00206683
-3.31199e-06
0.00207076
-9.17257e-07
0.00207225
1.63777e-06
0.0020688
4.29312e-06
0.00206078
6.86995e-06
0.00204649
9.69932e-06
0.00203507
1.28131e-05
0.00203087
1.6033e-05
0.00202616
1.9347e-05
0.00201816
2.27132e-05
0.00200349
2.58631e-05
0.00198091
2.90647e-05
0.00195632
3.25431e-05
0.00193853
3.61091e-05
0.00192496
3.96034e-05
0.00190836
4.29837e-05
0.00188586
4.60515e-05
0.00185649
4.89192e-05
0.00182037
5.19525e-05
0.00178994
5.51056e-05
0.00176615
5.8096e-05
0.00174064
6.08137e-05
0.00171019
6.308e-05
0.00167375
6.4955e-05
0.00162997
6.69396e-05
0.00159152
6.89848e-05
0.00155986
7.08011e-05
0.0015272
7.22237e-05
0.0014904
7.30748e-05
0.00144797
7.35977e-05
0.0014012
7.42063e-05
0.00136113
7.4857e-05
0.00132569
7.52891e-05
0.00128893
7.53599e-05
0.00124927
7.48018e-05
0.00120367
7.41458e-05
0.00115959
7.35329e-05
0.00112239
7.29863e-05
0.00108662
7.2376e-05
0.00104915
7.16038e-05
0.00100821
7.06871e-05
0.000965453
6.97025e-05
0.000928419
6.88511e-05
0.000893823
6.83183e-05
0.000858563
6.82362e-05
0.000820699
6.84204e-05
0.000780273
6.86744e-05
0.000744008
6.92971e-05
0.000709402
7.06548e-05
0.000673557
7.31156e-05
0.000634395
7.63706e-05
0.00059278
8.03672e-05
0.000552909
8.55624e-05
0.000512116
9.27653e-05
0.00046756
0.00010194
0.000417572
0.000113575
0.000363978
0.000127732
0.000306441
0.000147329
0.000243211
0.000166328
0.000170027
0.000204899
8.6665e-05
9.87125e-06
6.75719e-06
0.00177405
3.74382e-06
0.00178225
8.48654e-07
0.00179132
-1.91163e-06
0.00180123
-4.52152e-06
0.00181195
-6.96697e-06
0.00182343
-9.23574e-06
0.00183562
-1.13175e-05
0.00184844
-1.32041e-05
0.00186184
-1.48895e-05
0.00187575
-1.63702e-05
0.00189008
-1.76445e-05
0.00190477
-1.87131e-05
0.00191973
-1.95789e-05
0.00193488
-2.02462e-05
0.00195014
-2.07213e-05
0.00196544
-2.1012e-05
0.00198069
-2.11271e-05
0.00199584
-2.10764e-05
0.00201081
-2.08707e-05
0.00202552
-2.05211e-05
0.00203994
-2.00389e-05
0.00205399
-1.94358e-05
0.00206764
-1.87232e-05
0.00208082
-1.79122e-05
0.00209351
-1.70137e-05
0.00210567
-1.60379e-05
0.00211726
-1.49946e-05
0.00212827
-1.38928e-05
0.00213866
-1.27407e-05
0.00214842
-1.15459e-05
0.00215754
-1.03151e-05
0.002166
-9.05429e-06
0.00217379
-7.76862e-06
0.00218091
-6.46247e-06
0.00218736
-5.13952e-06
0.00219313
-3.80269e-06
0.00219822
-2.45423e-06
0.00220263
-1.09546e-06
0.00220637
2.77108e-07
0.00220943
1.67103e-06
0.00221182
5.03421e-06
0.00221357
2.46495e-05
0.00221398
3.97288e-05
0.00220823
-2.21006e-05
0.00219648
-1.94248e-05
0.0021997
-1.93122e-05
0.00220452
-1.95439e-05
0.00220471
-1.9465e-05
0.00220162
-1.90398e-05
0.00220025
-1.81709e-05
0.0022029
-1.69966e-05
0.00220735
-1.5526e-05
0.00221056
-1.37528e-05
0.00221098
-1.16383e-05
0.00220861
-9.43788e-06
0.00220014
-6.89816e-06
0.00219376
-3.86125e-06
0.00219432
-5.81298e-07
0.00219554
2.97029e-06
0.00219432
6.79156e-06
0.00218745
1.07189e-05
0.00217574
1.46126e-05
0.00215845
1.89003e-05
0.00214517
2.36113e-05
0.00213902
2.84376e-05
0.0021317
3.33504e-05
0.00212033
3.83754e-05
0.00210246
4.30497e-05
0.00207591
4.78331e-05
0.00204901
5.29965e-05
0.0020298
5.82875e-05
0.0020137
6.34551e-05
0.00199436
6.85405e-05
0.00196866
7.30759e-05
0.00193527
7.73584e-05
0.00189656
8.19024e-05
0.00186481
8.65254e-05
0.00183894
9.08574e-05
0.00181081
9.48595e-05
0.00177727
9.81701e-05
0.00173719
0.000100993
0.00169071
0.000103949
0.00165085
0.000106901
0.00161717
0.000109468
0.00158197
0.000111567
0.00154242
0.000112789
0.00149658
0.000113635
0.00144737
0.000114552
0.00140584
0.00011533
0.00136833
0.000115756
0.0013292
0.000115659
0.00128705
0.000114879
0.00123842
0.000114021
0.00119231
0.000113166
0.00115321
0.000112219
0.00111529
0.000111124
0.00107551
0.000109785
0.00103191
0.000108455
0.000986703
0.000107209
0.000947425
0.000106068
0.000910583
0.000105241
0.000873068
0.000104923
0.0008329
0.000105066
0.000790166
0.000105505
0.000751586
0.000106564
0.000714726
0.000108661
0.000676751
0.000112249
0.0006356
0.000116968
0.000591891
0.000122949
0.000549936
0.000130727
0.000507243
0.000141343
0.000461092
0.000154687
0.000409811
0.00017168
0.000355168
0.000192097
0.000297124
0.000220314
0.000234265
0.000248576
0.000162731
0.000292148
8.20794e-05
2.56937e-06
-1.43874e-06
0.00179051
-5.32607e-06
0.0018038
-9.06565e-06
0.0018179
-1.26318e-05
0.00183278
-1.60005e-05
0.00184842
-1.91502e-05
0.00186477
-2.2062e-05
0.00188176
-2.47196e-05
0.00189935
-2.71103e-05
0.00191745
-2.92245e-05
0.001936
-3.1056e-05
0.00195492
-3.26019e-05
0.00197411
-3.38625e-05
0.00199351
-3.48411e-05
0.00201301
-3.55437e-05
0.00203254
-3.59789e-05
0.00205202
-3.61575e-05
0.00207136
-3.60918e-05
0.00209048
-3.5796e-05
0.00210932
-3.52851e-05
0.0021278
-3.4575e-05
0.00214586
-3.3682e-05
0.00216344
-3.26226e-05
0.00218049
-3.14132e-05
0.00219695
-3.00698e-05
0.0022128
-2.8608e-05
0.00222798
-2.70424e-05
0.00224247
-2.53869e-05
0.00225623
-2.36545e-05
0.00226926
-2.18571e-05
0.00228153
-2.00053e-05
0.00229303
-1.81089e-05
0.00230374
-1.61762e-05
0.00231366
-1.42148e-05
0.00232278
-1.22307e-05
0.00233111
-1.02293e-05
0.00233865
-8.21463e-06
0.00234539
-6.18986e-06
0.00235133
-4.157e-06
0.00235649
-2.11403e-06
0.00236087
-8.33888e-08
0.00236448
4.51134e-06
0.00236735
3.01041e-05
0.00236919
5.18512e-05
0.00236686
-2.54325e-05
0.00235722
-2.1002e-05
0.00235915
-2.04262e-05
0.00236209
-2.06265e-05
0.00235931
-2.04882e-05
0.00235339
-1.99194e-05
0.00234986
-1.87993e-05
0.002351
-1.72549e-05
0.00235346
-1.52457e-05
0.00235459
-1.28351e-05
0.00235198
-1.0024e-05
0.00234583
-7.06445e-06
0.00233407
-3.61213e-06
0.0023262
4.84569e-07
0.0023257
4.87212e-06
0.00232477
9.69099e-06
0.00232086
1.47681e-05
0.00231068
1.99114e-05
0.00229443
2.51286e-05
0.00227437
3.09224e-05
0.00226038
3.72187e-05
0.0022531
4.36237e-05
0.00224356
5.01751e-05
0.00222876
5.68044e-05
0.00220765
6.30099e-05
0.00217658
6.93286e-05
0.00214802
7.6231e-05
0.00212842
8.3166e-05
0.00211004
9.00794e-05
0.00208837
9.67362e-05
0.00205943
0.000102687
0.00202142
0.000108428
0.00198052
0.000114469
0.00194829
0.000120547
0.00192059
0.000126247
0.00188993
0.000131475
0.0018535
0.000135729
0.00180932
0.000139562
0.00176047
0.000143528
0.00171982
0.000147338
0.00168418
0.000150598
0.00164639
0.000153205
0.00160399
0.000154812
0.00155456
0.000156036
0.00150303
0.000157283
0.0014601
0.00015817
0.00142026
0.00015852
0.00137857
0.000158186
0.00133363
0.000157247
0.00128177
0.000156206
0.00123333
0.000155119
0.00119195
0.000153759
0.00115143
0.00015221
0.00110884
0.000150341
0.00106212
0.000148587
0.00101423
0.000147048
0.000972455
0.000145623
0.000932959
0.000144492
0.000892671
0.00014386
0.000849749
0.00014389
0.000804629
0.000144568
0.000763654
0.00014608
0.000724351
0.000148841
0.000683937
0.000153381
0.000640451
0.000159466
0.00059455
0.000167374
0.000550526
0.000177628
0.000505928
0.000191363
0.000458105
0.000208473
0.000405486
0.00023023
0.000349876
0.000256034
0.000291336
0.000291572
0.00022848
0.000328195
0.000157897
0.000374786
7.93331e-05
-9.88994e-06
-1.47245e-05
0.00180973
-1.94246e-05
0.00182801
-2.3952e-05
0.00184705
-2.82702e-05
0.00186682
-3.23454e-05
0.00188729
-3.61469e-05
0.00190842
-3.96477e-05
0.00193014
-4.28248e-05
0.00195241
-4.56597e-05
0.00197514
-4.81385e-05
0.00199825
-5.02519e-05
0.00202167
-5.19951e-05
0.0020453
-5.33677e-05
0.00206906
-5.43735e-05
0.00209285
-5.50202e-05
0.00211658
-5.53186e-05
0.00214017
-5.52829e-05
0.00216352
-5.49294e-05
0.00218656
-5.42767e-05
0.00220921
-5.33447e-05
0.00223139
-5.21548e-05
0.00225303
-5.07285e-05
0.00227408
-4.90879e-05
0.00229448
-4.72549e-05
0.00231417
-4.52509e-05
0.00233311
-4.30966e-05
0.00235126
-4.08116e-05
0.00236859
-3.84147e-05
0.00238508
-3.59229e-05
0.0024007
-3.33522e-05
0.00241543
-3.0717e-05
0.00242927
-2.80299e-05
0.00244219
-2.53025e-05
0.00245421
-2.25444e-05
0.0024653
-1.97639e-05
0.00247548
-1.69679e-05
0.00248475
-1.41618e-05
0.00249311
-1.13498e-05
0.00250057
-8.5348e-06
0.00250713
-5.71719e-06
0.0025128
-2.95273e-06
0.00251759
2.55511e-06
0.00252154
3.20691e-05
0.00252397
6.18708e-05
0.00251875
-2.71652e-05
0.00250672
-2.0386e-05
0.00250412
-1.92921e-05
0.00250274
-1.93891e-05
0.0024955
-1.91658e-05
0.00248605
-1.83652e-05
0.00248007
-1.69811e-05
0.00247917
-1.50936e-05
0.00247878
-1.25817e-05
0.00247681
-9.49643e-06
0.00247074
-5.95246e-06
0.00246016
-2.18313e-06
0.00244532
2.27474e-06
0.00243612
7.35826e-06
0.00243374
1.28591e-05
0.0024299
1.88794e-05
0.0024224
2.52135e-05
0.00240858
3.16486e-05
0.00238765
3.82839e-05
0.00236519
4.55523e-05
0.0023505
5.33215e-05
0.00234127
6.12894e-05
0.00232876
6.94211e-05
0.00231011
7.76198e-05
0.0022848
8.54327e-05
0.00225022
9.34505e-05
0.00222028
0.000102013
0.00220005
0.000110582
0.00217941
0.000119052
0.00215481
0.000127212
0.00212282
0.000134728
0.00208027
0.000142019
0.00203771
0.000149537
0.00200522
0.000156963
0.00197587
0.000164056
0.00194342
0.000170308
0.0019044
0.000175704
0.00185627
0.00018062
0.00180588
0.000185557
0.00176529
0.000190215
0.00172885
0.000194197
0.00168989
0.000197195
0.00164592
0.000199145
0.00159364
0.00020087
0.00154122
0.00020245
0.00149806
0.000203529
0.00145731
0.000203771
0.00141456
0.00020318
0.0013682
0.000202156
0.00131492
0.00020112
0.00126593
0.000199834
0.00122368
0.000198088
0.00118192
0.000195937
0.00113785
0.000193553
0.00108941
0.000191472
0.00104067
0.000189625
0.000997972
0.000187864
0.00095702
0.000186306
0.000914797
0.000185239
0.000869466
0.000185201
0.000822085
0.0001861
0.000778682
0.000188013
0.000736874
0.000191332
0.000693888
0.000196675
0.000647868
0.000204008
0.000599814
0.000213709
0.000553764
0.000226219
0.000507219
0.000242739
0.000457595
0.000263209
0.000403589
0.000289285
0.000347205
0.000320012
0.000288358
0.000361815
0.000225428
0.000405936
0.000155352
0.000454449
7.79401e-05
-2.74098e-05
-3.30063e-05
0.00183173
-3.84606e-05
0.00185491
-4.37216e-05
0.00187878
-4.87404e-05
0.00190333
-5.34718e-05
0.00192854
-5.78744e-05
0.00195435
-6.19121e-05
0.00198072
-6.55539e-05
0.00200758
-6.87748e-05
0.00203484
-7.15556e-05
0.00206244
-7.38833e-05
0.00209027
-7.57509e-05
0.00211826
-7.71572e-05
0.00214629
-7.81063e-05
0.00217429
-7.86072e-05
0.00220214
-7.86736e-05
0.00222976
-7.83231e-05
0.00225706
-7.75763e-05
0.00228394
-7.64567e-05
0.00231033
-7.49898e-05
0.00233614
-7.32024e-05
0.0023613
-7.11222e-05
0.00238575
-6.87774e-05
0.00240943
-6.61959e-05
0.00243229
-6.3405e-05
0.00245427
-6.04311e-05
0.00247534
-5.72994e-05
0.00249547
-5.40336e-05
0.00251462
-5.06558e-05
0.00253278
-4.7186e-05
0.00254993
-4.36428e-05
0.00256606
-4.00423e-05
0.00258116
-3.6399e-05
0.00259522
-3.27253e-05
0.00260825
-2.90318e-05
0.00262025
-2.5327e-05
0.00263121
-2.1618e-05
0.00264116
-1.79098e-05
0.0026501
-1.42061e-05
0.00265803
-1.05075e-05
0.00266497
-6.8912e-06
0.00267093
3.25519e-08
0.00267597
3.68547e-05
0.00267906
7.42263e-05
0.00267251
-2.39755e-05
0.00265759
-1.55512e-05
0.00265283
-1.46669e-05
0.00264963
-1.49818e-05
0.00263932
-1.48647e-05
0.00262747
-1.39201e-05
0.00261988
-1.22198e-05
0.00261707
-9.89594e-06
0.00261393
-6.90067e-06
0.00260873
-3.13491e-06
0.00259922
1.10368e-06
0.00258418
5.6383e-06
0.00256681
1.10522e-05
0.00255661
1.71267e-05
0.0025521
2.3733e-05
0.00254503
3.09213e-05
0.00253353
3.8664e-05
0.00251616
4.62853e-05
0.00249042
5.43028e-05
0.00246586
6.30737e-05
0.00245021
7.22344e-05
0.00243801
8.17515e-05
0.00242235
9.14168e-05
0.00239947
0.000100922
0.002369
0.00011038
0.0023313
0.000120168
0.00230006
0.000130378
0.00227796
0.000140596
0.00225435
0.00015048
0.00222558
0.000159935
0.00218984
0.000168828
0.00214243
0.000177805
0.0020983
0.000186924
0.00206458
0.000195617
0.00203234
0.000203696
0.00199659
0.000210895
0.00195427
0.000217133
0.00190162
0.000223249
0.00184995
0.000229142
0.00180863
0.000234536
0.00176995
0.000239026
0.00172837
0.000242398
0.00168202
0.000244582
0.00162632
0.000246702
0.0015735
0.000248683
0.00152998
0.000250051
0.00148788
0.000250396
0.00144329
0.00024952
0.00139453
0.000248175
0.0013401
0.000247013
0.0012915
0.000245581
0.00124889
0.00024355
0.00120609
0.000240929
0.00116077
0.000238044
0.00111064
0.000235731
0.00106173
0.000233707
0.00101854
0.000231792
0.00097657
0.000230116
0.000932943
0.000229082
0.000886025
0.000229142
0.000838127
0.000230182
0.000794019
0.000232402
0.000750772
0.000236167
0.000705522
0.000242235
0.000656552
0.000250711
0.000606408
0.000261996
0.000558249
0.000276476
0.000509567
0.00029543
0.000457902
0.000318786
0.000402366
0.000348751
0.000345288
0.000384062
0.000286246
0.00043148
0.000223083
0.000482659
0.000152939
0.00053264
7.64782e-05
-4.98839e-05
-5.61806e-05
0.00185652
-6.23335e-05
0.00188448
-6.82765e-05
0.00191308
-7.39469e-05
0.00194231
-7.92862e-05
0.00197215
-8.42414e-05
0.00200255
-8.87658e-05
0.00203345
-9.28193e-05
0.0020648
-9.63695e-05
0.0020965
-9.93914e-05
0.00212848
-0.000101868
0.00216065
-0.000103789
0.00219289
-0.000105152
0.00222512
-0.000105962
0.00225723
-0.000106229
0.00228913
-0.00010597
0.0023207
-0.000105206
0.00235185
-0.000103962
0.0023825
-0.000102267
0.00241254
-0.000100153
0.00244191
-9.76531e-05
0.00247052
-9.48006e-05
0.0024983
-9.16307e-05
0.00252519
-8.81779e-05
0.00255114
-8.4476e-05
0.0025761
-8.05577e-05
0.00260003
-7.64541e-05
0.00262289
-7.21944e-05
0.00264465
-6.7806e-05
0.0026653
-6.33138e-05
0.00268481
-5.87403e-05
0.00270319
-5.41058e-05
0.00272041
-4.94279e-05
0.00273648
-4.47221e-05
0.0027514
-4.00011e-05
0.00276517
-3.52757e-05
0.00277781
-3.05542e-05
0.00278931
-2.5843e-05
0.00279969
-2.11462e-05
0.00280897
-1.64656e-05
0.00281715
-1.19186e-05
0.00282426
-3.11192e-06
0.00283037
4.29111e-05
0.00283492
8.93689e-05
0.00283307
-1.80417e-05
0.00282095
-8.93703e-06
0.00281568
-8.11542e-06
0.0028099
-8.42559e-06
0.00279615
-8.06425e-06
0.0027818
-6.77146e-06
0.00277291
-4.67534e-06
0.00276814
-1.93106e-06
0.00276233
1.63437e-06
0.00275381
6.1679e-06
0.00274114
1.09145e-05
0.00272126
1.64456e-05
0.00270194
2.28627e-05
0.00269116
2.99238e-05
0.00268426
3.76598e-05
0.00267432
4.60533e-05
0.00265858
5.49976e-05
0.0026372
6.3949e-05
0.0026074
7.3437e-05
0.00258103
8.37485e-05
0.00256462
9.43443e-05
0.00254879
0.000105287
0.00252963
0.000116567
0.00250227
0.000127519
0.00246605
0.000138435
0.00242585
0.000150019
0.00239418
0.000161909
0.00236946
0.000173631
0.00234206
0.000185075
0.00230844
0.000195767
0.00226764
0.00020603
0.0022166
0.000216401
0.00217117
0.000227035
0.00213556
0.000237187
0.0020996
0.000246214
0.00205928
0.000254056
0.00201299
0.000261038
0.00195588
0.000268164
0.00190272
0.000275016
0.00185935
0.000281056
0.00181683
0.000285861
0.00177111
0.000289189
0.00172066
0.000291694
0.00166135
0.000294212
0.00160718
0.000296493
0.00156198
0.000297883
0.00151726
0.000298029
0.00146942
0.000296622
0.00141666
0.00029491
0.00136065
0.000293619
0.00131241
0.000292083
0.0012686
0.000289865
0.0012239
0.000286935
0.0011769
0.000283558
0.0011247
0.000280939
0.0010762
0.000278713
0.00103318
0.000276683
0.000990606
0.000275021
0.000945796
0.000273863
0.000897098
0.000274217
0.000849315
0.000275729
0.000805216
0.000278762
0.000761372
0.000283591
0.000715021
0.000290324
0.000664798
0.000299769
0.00061394
0.000312311
0.000564002
0.000328456
0.000513223
0.000349551
0.00045915
0.00037531
0.000401679
0.000408604
0.000343905
0.000448286
0.000284701
0.00050083
0.000220782
0.00055855
0.000150334
0.000609525
7.49854e-05
-7.71956e-05
-8.41346e-05
0.00188413
-9.09334e-05
0.00191674
-9.75096e-05
0.00194995
-0.000103785
0.00198374
-0.000109686
0.0020181
-0.000115148
0.00205297
-0.00012011
0.00208831
-0.000124525
0.00212404
-0.000128349
0.00216007
-0.000131553
0.00219634
-0.000134114
0.00223272
-0.000136019
0.00226913
-0.000137264
0.00230545
-0.000137854
0.00234159
-0.000137801
0.00237742
-0.000137125
0.00241285
-0.00013585
0.00244777
-0.000134008
0.00248209
-0.000131633
0.00251571
-0.000128762
0.00254855
-0.000125435
0.00258052
-0.000121694
0.00261156
-0.000117581
0.00264159
-0.000113136
0.00267056
-0.000108402
0.00269843
-0.000103417
0.00272514
-9.82185e-05
0.00275066
-9.28425e-05
0.00277498
-8.73216e-05
0.00279805
-8.16859e-05
0.00281987
-7.59627e-05
0.00284044
-7.01761e-05
0.00285973
-6.43475e-05
0.00287776
-5.84954e-05
0.00289453
-5.26351e-05
0.00291003
-4.67794e-05
0.00292429
-4.09385e-05
0.00293731
-3.51197e-05
0.00294911
-2.93282e-05
0.0029597
-2.35686e-05
0.00296909
-1.80161e-05
0.00297731
-7.6863e-06
0.00298444
4.42314e-05
0.00299025
0.000101643
0.0029913
-1.08914e-05
0.00298136
6.14713e-08
0.00297608
1.02197e-06
0.0029678
7.5888e-07
0.00295074
1.3375e-06
0.00293467
2.9592e-06
0.00292536
5.38056e-06
0.00291899
8.73674e-06
0.00291119
1.29497e-05
0.00289912
1.80158e-05
0.00288279
2.35889e-05
0.00285808
3.00113e-05
0.00283799
3.75359e-05
0.00282827
4.56143e-05
0.00281918
5.45881e-05
0.00280705
6.42666e-05
0.0027873
7.43416e-05
0.00276092
8.46413e-05
0.00272757
9.56723e-05
0.00270142
0.000107519
0.00268524
0.000119678
0.00266749
0.000132149
0.00264487
0.000145005
0.00261405
0.000157401
0.00257213
0.000169949
0.00252994
0.000183234
0.0024987
0.000196702
0.00247217
0.000209974
0.0024418
0.000223057
0.00240372
0.000234984
0.00235728
0.00024664
0.0023027
0.000258343
0.00225704
0.000270375
0.0022199
0.000281927
0.00218055
0.000292124
0.00213539
0.000300607
0.00208339
0.000308448
0.00202188
0.000316437
0.00196709
0.000324074
0.00192099
0.000330697
0.00187424
0.000335841
0.00182331
0.000339256
0.00176652
0.000341912
0.00170352
0.000344559
0.00164804
0.000346751
0.00159984
0.000347895
0.00155118
0.000347479
0.00149934
0.00034556
0.00144138
0.0003436
0.00138355
0.000342029
0.00133463
0.000340113
0.00128832
0.000337363
0.00124068
0.000333483
0.00118997
0.00032955
0.00113561
0.000326745
0.00108758
0.000324449
0.00104387
0.000322345
0.00099976
0.000320581
0.000953472
0.000319293
0.000902848
0.000319876
0.000855833
0.000321936
0.000811896
0.000325783
0.000767653
0.00033163
0.000720048
0.000339796
0.00066876
0.000350663
0.000618405
0.000364834
0.000568797
0.000382447
0.000517073
0.000405244
0.000460943
0.000432889
0.000401515
0.000468982
0.000342611
0.000513004
0.000282967
0.000570232
0.000217891
0.000633401
0.000147075
0.000685101
7.332e-05
-0.000109218
-0.000116745
0.00191458
-0.00012414
0.00195171
-0.000131304
0.0019894
-0.00013814
0.00202763
-0.00014456
0.00206637
-0.000150483
0.0021056
-0.000155838
0.00214525
-0.000160564
0.00218524
-0.000164611
0.0022255
-0.000167939
0.00226593
-0.000170522
0.00230643
-0.000172343
0.00234689
-0.000173396
0.0023872
-0.000173688
0.00242725
-0.000173231
0.00246692
-0.000172048
0.00250611
-0.000170169
0.0025447
-0.000167629
0.0025826
-0.000164469
0.0026197
-0.000160733
0.00265592
-0.00015647
0.00269116
-0.000151727
0.00272536
-0.000146554
0.00275845
-0.000141
0.00279037
-0.000135114
0.00282106
-0.000128943
0.00285048
-0.00012253
0.0028786
-0.000115918
0.00290539
-0.000109146
0.00293083
-0.000102248
0.0029549
-9.52584e-05
0.00297759
-8.82046e-05
0.00299891
-8.11119e-05
0.00301884
-7.40021e-05
0.0030374
-6.68934e-05
0.00305459
-5.98007e-05
0.00307043
-5.27358e-05
0.00308493
-4.57076e-05
0.0030981
-3.87218e-05
0.00310997
-3.1786e-05
0.00312054
-2.51206e-05
0.00312984
-1.3465e-05
0.00313801
4.25547e-05
0.00314461
0.000111511
0.00314474
-2.81419e-06
0.00313424
1.07345e-05
0.00312692
1.19789e-05
0.00311492
1.22372e-05
0.00309448
1.31689e-05
0.00307672
1.51201e-05
0.00306549
1.79083e-05
0.00305564
2.16185e-05
0.00304432
2.62176e-05
0.00302823
3.18108e-05
0.00300739
3.85386e-05
0.00298079
4.62386e-05
0.00295995
5.48034e-05
0.00294793
6.39426e-05
0.00293518
7.3915e-05
0.00291876
8.44815e-05
0.00289503
9.56672e-05
0.00286438
0.000107605
0.00283013
0.00012053
0.00280363
0.000133969
0.00278487
0.00014761
0.00276346
0.000161496
0.0027362
0.000175558
0.00270192
0.000189517
0.0026567
0.000204144
0.00261452
0.000219346
0.00258291
0.000234489
0.00255305
0.000249464
0.00251969
0.000263704
0.00247791
0.000276954
0.00242681
0.000290292
0.00237165
0.000303693
0.00232683
0.000317168
0.00228821
0.000329864
0.00224631
0.000341256
0.00219775
0.000350861
0.00214115
0.000359951
0.00207798
0.000368908
0.00202401
0.000377283
0.00197701
0.000384319
0.00192791
0.000389735
0.00187364
0.000393131
0.0018118
0.000395957
0.00174643
0.000398559
0.00169019
0.000400429
0.00163933
0.000401023
0.00158679
0.000399922
0.00153143
0.000397534
0.00146849
0.000395301
0.00140909
0.000393137
0.00135853
0.000390361
0.00130961
0.000386534
0.00125868
0.000381628
0.00120342
0.000377308
0.00114723
0.000374182
0.00109888
0.000371442
0.00105336
0.000368887
0.00100684
0.000366276
0.000957218
0.000365141
0.000905233
0.000366078
0.00085904
0.000368741
0.000815032
0.000373317
0.000769531
0.000379962
0.000720371
0.000389361
0.000668459
0.000401893
0.000619124
0.000418193
0.000570007
0.000438056
0.000517803
0.00046271
0.000461029
0.000491828
0.000401487
0.000530208
0.000341288
0.000578368
0.000280556
0.000639834
0.000214459
0.0007069
0.000143771
0.000759114
7.16311e-05
-0.000145815
-0.000153878
0.0019479
-0.000161824
0.00198942
-0.000169532
0.00203144
-0.000176888
0.00207396
-0.000183786
0.00211697
-0.000190129
0.00216041
-0.000195832
0.00220424
-0.000200823
0.00224837
-0.00020504
0.00229273
-0.000208438
0.0023372
-0.000210982
0.00238169
-0.000212654
0.00242609
-0.000213445
0.00247027
-0.000213362
0.00251412
-0.000212419
0.00255752
-0.000210642
0.00260036
-0.000208065
0.00264251
-0.00020473
0.00268388
-0.000200684
0.00272436
-0.00019598
0.00276386
-0.000190671
0.00280228
-0.000184815
0.00283956
-0.000178469
0.00287561
-0.000171692
0.00291038
-0.000164538
0.00294382
-0.000157064
0.00297587
-0.00014932
0.00300651
-0.000141355
0.0030357
-0.000133215
0.00306343
-0.000124942
0.00308968
-0.000116571
0.00311444
-0.000108138
0.00313771
-9.96711e-05
0.00315949
-9.11953e-05
0.00317979
-8.2732e-05
0.00319862
-7.42985e-05
0.00321599
-6.59083e-05
0.00323192
-5.75715e-05
0.00324643
-4.92947e-05
0.00325953
-4.10872e-05
0.00327125
-3.32591e-05
0.00328165
-1.99621e-05
0.00329097
4.19223e-05
0.00329875
0.000121736
0.003304
7.67221e-06
0.00329375
2.40313e-05
0.00328457
2.57799e-05
0.00326853
2.65549e-05
0.00324534
2.79983e-05
0.00322744
3.03096e-05
0.00321506
3.34744e-05
0.00320259
3.75334e-05
0.00318808
4.2733e-05
0.00316879
4.89339e-05
0.00314231
5.63724e-05
0.00311486
6.51559e-05
0.0030952
7.48205e-05
0.00308158
8.50591e-05
0.00306529
9.61376e-05
0.00304393
0.000107895
0.00301638
0.000120266
0.00297964
0.000133614
0.00294525
0.000148054
0.00292005
0.000162939
0.00289878
0.000178114
0.00287402
0.000193568
0.00284164
0.000208875
0.00280086
0.00022443
0.00275278
0.000240929
0.00271198
0.000257898
0.00268085
0.00027461
0.00264836
0.000290983
0.00261071
0.000306525
0.00256571
0.000321191
0.002508
0.000336257
0.00245312
0.000351492
0.00240939
0.000366192
0.00236814
0.000379878
0.0023236
0.000392182
0.00227164
0.00040284
0.00220986
0.000413297
0.00214569
0.000423534
0.00209228
0.000433012
0.00204314
0.000440714
0.00199131
0.000446224
0.00193346
0.000449775
0.00186693
0.000452964
0.00179961
0.000455662
0.00174225
0.000457211
0.00168721
0.000457253
0.00162994
0.00045547
0.00156924
0.000452714
0.00150162
0.000449875
0.00143996
0.000446872
0.00138655
0.00044309
0.00133379
0.000438105
0.00127929
0.000432413
0.00121944
0.000427618
0.00116162
0.000423795
0.00111177
0.000420007
0.00106385
0.000416433
0.00101452
0.000413197
0.000961173
0.000412288
0.000908318
0.000413452
0.000861594
0.000416189
0.000816263
0.000421151
0.000768966
0.000428229
0.000717611
0.000439109
0.000666065
0.000453274
0.000617264
0.000471599
0.000568112
0.000493641
0.000515118
0.000520851
0.000458069
0.000552212
0.000399406
0.000592533
0.00033949
0.000644298
0.00027754
0.000709302
0.000210665
0.000779036
0.000140475
0.000831334
6.9792e-05
-0.000186837
-0.00019539
0.00198413
-0.000203844
0.00202987
-0.000212057
0.00207607
-0.000219894
0.00212275
-0.000227231
0.00216987
-0.000233956
0.00221739