/*--------------------------------*- C++ -*----------------------------------*\
| =========                 |                                                 |
| \\      /  F ield         | OpenFOAM: The Open Source CFD Toolbox           |
|  \\    /   O peration     | Version:  2.2.x                                 |
|   \\  /    A nd           | Web:      www.OpenFOAM.org                      |
|    \\/     M anipulation  |                                                 |
\*---------------------------------------------------------------------------*/
FoamFile
{
    version     2.0;
    format      ascii;
    class       volScalarField;
    location    "2";
    object      T;
}
// * * * * * * * * * * * * * * * * * * * * * * * * * * * * * * * * * * * * * //

dimensions      [0 0 0 1 0 0 0];

internalField   nonuniform List<scalar> 
14161
(
1
1
1
1
1
1
1
1
1
1
1
1
1
1
1
1
1
1
1
1
1
1
1
1
1
1
1
1
1
1
1
1
1
1
1
1
1
1
1
1.00003
1.00051
1.00892
1.20593
5.96389
10.6783
12.05
12.3315
12.4043
12.429
12.4425
12.4548
12.472
12.4925
12.5109
12.5269
12.5413
12.5515
12.5603
12.576
12.5976
12.616
12.6314
12.6444
12.6511
12.6593
12.6762
12.6982
12.7153
12.7297
12.739
12.744
12.7547
12.7751
12.7949
12.8108
12.8224
12.8261
12.835
12.8524
12.8727
12.8887
12.9008
12.9051
12.9141
12.9306
12.9494
12.9644
12.975
12.9803
12.991
13.0079
13.0242
13.0371
13.0448
13.0534
13.0679
13.084
13.0973
13.1063
13.1147
13.1284
13.1436
13.156
13.1639
13.1716
13.1837
13.1965
13.2063
13.2119
13.2184
13.2279
13.2377
13.2451
13.2523
13.2623
13.2751
13.2856
13.2904
13.2962
1
1
1
1
1
1
1
1
1
1
1
1
1
1
1
1
1
1
1
1
1
1
1
1
1
1
1
1
1
1
1
1
1
1
1
1
1
1
1
1.00003
1.00051
1.00894
1.2072
5.96338
10.6806
12.0568
12.3401
12.4133
12.4376
12.4504
12.4625
12.4798
12.5
12.5182
12.534
12.5481
12.5579
12.5667
12.583
12.605
12.6231
12.6386
12.6514
12.6574
12.6659
12.6833
12.7053
12.7223
12.7365
12.7452
12.7505
12.7615
12.7823
12.8017
12.8173
12.8283
12.8321
12.8412
12.8592
12.8792
12.8951
12.9064
12.9102
12.9195
12.9365
12.9552
12.9699
12.9797
12.9847
12.9956
13.013
13.0292
13.0418
13.0488
13.0571
13.0716
13.0879
13.1013
13.11
13.1177
13.131
13.1461
13.1585
13.1664
13.1736
13.1851
13.1975
13.2073
13.2128
13.2191
13.2281
13.2375
13.245
13.2521
13.2618
13.2742
13.2842
13.2885
13.2937
1
1
1
1
1
1
1
1
1
1
1
1
1
1
1
1
1
1
1
1
1
1
1
1
1
1
1
1
1
1
1
1
1
1
1
1
1
1
1
1.00003
1.00049
1.00851
1.19646
5.92608
10.6697
12.0544
12.3396
12.4131
12.4372
12.4501
12.4624
12.4802
12.5005
12.5185
12.5341
12.548
12.5576
12.5666
12.5838
12.606
12.6238
12.6392
12.6517
12.6574
12.6665
12.6846
12.7065
12.7233
12.7372
12.7454
12.7509
12.7629
12.7841
12.803
12.8181
12.8287
12.8326
12.8424
12.8612
12.8807
12.8962
12.9071
12.9109
12.9206
12.9383
12.9566
12.971
12.9802
12.9853
12.9967
13.0148
13.0309
13.0433
13.0496
13.0578
13.0727
13.0894
13.1029
13.1115
13.1188
13.1316
13.1468
13.1595
13.1677
13.1745
13.1856
13.1978
13.2074
13.213
13.2189
13.2272
13.2361
13.2435
13.2507
13.2598
13.2711
13.28
13.2834
13.286
1
1
1
1
1
1
1
1
1
1
1
1
1
1
1
1
1
1
1
1
1
1
1
1
1
1
1
1
1
1
1
1
1
1
1
1
1
1
1
1.00003
1.00045
1.00758
1.17297
5.84971
10.6447
12.0418
12.3305
12.404
12.428
12.4415
12.4548
12.4739
12.4946
12.5124
12.5281
12.542
12.551
12.5609
12.5792
12.6014
12.6189
12.634
12.6459
12.6517
12.6617
12.6809
12.7024
12.719
12.7325
12.7396
12.7456
12.7592
12.781
12.7993
12.8141
12.8236
12.8279
12.8386
12.8583
12.8775
12.8927
12.9028
12.9069
12.9173
12.9359
12.954
12.9681
12.9767
12.9822
12.9943
13.0129
13.0291
13.0413
13.0471
13.0557
13.071
13.088
13.1017
13.1101
13.1174
13.1305
13.1461
13.1592
13.1678
13.1748
13.1858
13.198
13.2077
13.2132
13.2185
13.226
13.2342
13.2413
13.2481
13.2565
13.2665
13.2741
13.2762
13.277
1
1
1
1
1
1
1
1
1
1
1
1
1
1
1
1
1
1
1
1
1
1
1
1
1
1
1
1
1
1
1
1
1
1
1
1
1
1
1
1.00003
1.0004
1.00656
1.14659
5.7601
10.6163
12.0302
12.3247
12.3995
12.4234
12.4369
12.4509
12.4711
12.492
12.5096
12.5254
12.5388
12.5466
12.5576
12.5776
12.5995
12.6166
12.6312
12.6418
12.6476
12.6586
12.6797
12.7002
12.7165
12.7297
12.7344
12.7413
12.7566
12.7789
12.7964
12.8106
12.8184
12.8233
12.8346
12.8553
12.8736
12.8881
12.8967
12.9009
12.9119
12.9309
12.9483
12.962
12.9693
12.975
12.9879
13.0067
13.0227
13.0347
13.0401
13.0497
13.0654
13.0825
13.0961
13.1048
13.1129
13.1264
13.1424
13.1556
13.1646
13.1721
13.1835
13.196
13.206
13.2116
13.2167
13.2237
13.2314
13.2381
13.2445
13.2521
13.2609
13.267
13.2673
13.2667
1
1
1
1
1
1
1
1
1
1
1
1
1
1
1
1
1
1
1
1
1
1
1
1
1
1
1
1
1
1
1
1
1
1
1
1
1
1
1
1.00002
1.00036
1.00572
1.125
5.67218
10.5938
12.0277
12.3276
12.4028
12.4261
12.4397
12.4545
12.4751
12.4954
12.5124
12.5276
12.5401
12.5481
12.56
12.581
12.6018
12.6182
12.632
12.6411
12.6472
12.6599
12.6817
12.701
12.7166
12.7287
12.7319
12.7397
12.7567
12.7785
12.7952
12.8087
12.8145
12.8196
12.8325
12.8534
12.8711
12.8851
12.892
12.8965
12.9082
12.9281
12.9455
12.9587
12.9647
12.9704
12.984
13.0029
13.0185
13.03
13.0352
13.0451
13.061
13.0774
13.0906
13.0987
13.1074
13.1211
13.1368
13.1497
13.1586
13.1669
13.179
13.1919
13.202
13.2079
13.2131
13.2198
13.2273
13.2338
13.2398
13.2466
13.2543
13.2587
13.2573
13.2553
1
1
1
1
1
1
1
1
1
1
1
1
1
1
1
1
1
1
1
1
1
1
1
1
1
1
1
1
1
1
1
1
1
1
1
1
1
1
1
1.00002
1.0003
1.00444
1.09179
5.52832
10.5547
12.0218
12.3287
12.4032
12.4251
12.4381
12.454
12.4751
12.4947
12.5113
12.5262
12.5375
12.5455
12.5592
12.5813
12.6012
12.6172
12.6309
12.6381
12.645
12.66
12.6827
12.7013
12.7164
12.7272
12.7308
12.7398
12.7588
12.7804
12.7972
12.8102
12.814
12.8203
12.8353
12.857
12.8739
12.887
12.8923
12.8979
12.9114
12.9314
12.9478
12.9601
12.9646
12.9712
12.9854
13.0032
13.0176
13.0272
13.0317
13.0422
13.0584
13.0739
13.0858
13.0928
13.1019
13.116
13.131
13.1432
13.1515
13.1605
13.1729
13.1857
13.1956
13.2017
13.2076
13.2146
13.2221
13.2282
13.2339
13.2402
13.2465
13.2489
13.2462
13.2428
1
1
1
1
1
1
1
1
1
1
1
1
1
1
1
1
1
1
1
1
1
1
1
1
1
1
1
1
1
1
1
1
1
1
1
1
1
1
1
1.00002
1.00022
1.00264
1.04379
5.31187
10.4911
12.0026
12.3185
12.3935
12.4153
12.429
12.4463
12.4679
12.4867
12.5029
12.5175
12.5275
12.5359
12.5519
12.5747
12.5935
12.6094
12.6226
12.6282
12.6365
12.6538
12.6768
12.6946
12.7096
12.7188
12.7237
12.7343
12.7553
12.776
12.7929
12.8049
12.8082
12.8164
12.8337
12.8552
12.8717
12.8844
12.8884
12.8957
12.9113
12.9315
12.9476
12.9595
12.9636
12.9725
12.9881
13.0049
13.0181
13.0258
13.0306
13.0418
13.0582
13.0721
13.0821
13.0876
13.0976
13.1121
13.1262
13.137
13.144
13.1535
13.1663
13.1788
13.1878
13.1936
13.2
13.2076
13.2156
13.2215
13.2266
13.2325
13.2374
13.2377
13.2339
13.2291
1
1
1
1
1
1
1
1
1
1
1
1
1
1
1
1
1
1
1
1
1
1
1
1
1
1
1
1
1
1
1
1
1
1
1
1
1
1
1
1.00001
1.00014
1.00084
0.995136
5.05437
10.4161
11.9809
12.3087
12.3842
12.4055
12.4195
12.4389
12.4604
12.478
12.4941
12.5083
12.5157
12.5252
12.5434
12.5662
12.5839
12.5994
12.6112
12.6158
12.6254
12.6447
12.6666
12.6839
12.6983
12.7051
12.711
12.7238
12.7459
12.765
12.7809
12.792
12.796
12.8061
12.8253
12.8455
12.862
12.874
12.8781
12.8877
12.9056
12.9259
12.9421
12.9533
12.9586
12.9693
12.987
13.0038
13.0168
13.0233
13.0296
13.0423
13.058
13.0707
13.0786
13.0836
13.0945
13.1093
13.122
13.1308
13.1365
13.1469
13.16
13.1716
13.1793
13.1845
13.1914
13.1996
13.2073
13.213
13.2183
13.2233
13.2264
13.2249
13.2202
13.2143
1
1
1
1
1
1
1
1
1
1
1
1
1
1
1
1
1
1
1
1
1
1
1
1
1
1
1
1
1
1
1
1
1
1
1
1
1
1
1
1.00001
1.00004
0.999179
0.950654
4.76036
10.3342
11.9639
12.3043
12.3804
12.4024
12.4185
12.4394
12.4599
12.4772
12.4928
12.5057
12.5133
12.5243
12.5444
12.5658
12.5824
12.5966
12.6068
12.6128
12.6236
12.6446
12.6647
12.6806
12.6937
12.6987
12.7057
12.7212
12.7434
12.761
12.7757
12.7847
12.7896
12.8013
12.8222
12.8411
12.8567
12.8669
12.8716
12.8827
12.9022
12.921
12.9363
12.9459
12.9521
12.9641
12.9833
13.0002
13.013
13.0189
13.0272
13.0416
13.057
13.069
13.0752
13.0808
13.0926
13.1067
13.118
13.1245
13.1302
13.141
13.154
13.1641
13.17
13.1749
13.1824
13.1912
13.1981
13.2027
13.2081
13.2124
13.2134
13.2104
13.2052
13.1982
1
1
1
1
1
1
1
1
1
1
1
1
1
1
1
1
1
1
1
1
1
1
1
1
1
1
1
1
1
1
1
1
1
1
1
1
1
1
1
1
1
0.997646
0.904371
4.37134
10.22
11.935
12.2928
12.3702
12.3935
12.4121
12.4334
12.4523
12.4685
12.4831
12.494
12.5023
12.5161
12.538
12.5576
12.5731
12.5864
12.5939
12.6012
12.6158
12.6382
12.6564
12.6712
12.6817
12.6861
12.6946
12.713
12.7348
12.7519
12.7654
12.7702
12.7763
12.7904
12.8122
12.8302
12.8447
12.8527
12.8583
12.8713
12.8918
12.9097
12.9241
12.9323
12.9399
12.9548
12.9744
12.9918
13.0048
13.011
13.0215
13.0376
13.0535
13.0654
13.0707
13.0778
13.0903
13.1038
13.1138
13.1186
13.125
13.136
13.1479
13.1561
13.16
13.1654
13.1734
13.182
13.1878
13.1912
13.196
13.1997
13.199
13.1943
13.1888
13.1808
1
1
1
1
1
1
1
1
1
1
1
1
1
1
1
1
1
1
1
1
1
1
1
1
1
1
1
1
1
1
1
1
1
1
1
1
1
1
1
0.999979
1.00108
1.00694
0.869315
3.91881
10.0859
11.904
12.2818
12.3616
12.3876
12.4098
12.4303
12.448
12.4634
12.4764
12.4849
12.4951
12.5139
12.5358
12.5529
12.5674
12.5788
12.5848
12.5942
12.6134
12.6351
12.6513
12.6647
12.6729
12.6783
12.6896
12.7106
12.7297
12.7457
12.757
12.7608
12.7684
12.7848
12.8055
12.8222
12.8351
12.8397
12.8471
12.8626
12.8828
12.8993
12.9121
12.9174
12.9267
12.9436
12.9629
12.9791
12.9913
12.9986
13.0112
13.0291
13.0459
13.0583
13.0642
13.0732
13.0867
13.0997
13.1088
13.1127
13.1198
13.1308
13.1411
13.1473
13.1504
13.1561
13.1643
13.1716
13.1759
13.1788
13.1825
13.1855
13.1831
13.1766
13.1708
13.1618
1
1
1
1
1
1
1
1
1
1
1
1
1
1
1
1
1
1
1
1
1
1
1
1
1
1
1
1
1
1
1
1
1
1
1
1
1
1
1.00002
1.00035
1.00409
1.02072
0.817802
3.37578
9.92713
11.8722
12.2744
12.3574
12.3862
12.4094
12.4284
12.4439
12.4578
12.4684
12.4762
12.4894
12.5106
12.5295
12.545
12.5583
12.5678
12.5745
12.5873
12.6089
12.6279
12.6434
12.656
12.6618
12.67
12.6862
12.7079
12.7247
12.7384
12.7471
12.7531
12.7641
12.7839
12.802
12.8165
12.8263
12.8312
12.8411
12.8592
12.8775
12.8917
12.9008
12.905
12.9157
12.934
12.9524
12.9673
12.977
12.9847
12.9987
13.0173
13.034
13.0469
13.0544
13.0657
13.0802
13.0933
13.1021
13.1063
13.1143
13.1248
13.1334
13.138
13.1408
13.1467
13.1546
13.1599
13.1629
13.1657
13.1684
13.1692
13.1657
13.1576
13.1513
13.1408
1
1
1
1
1
1
1
1
1
1
1
1
1
1
1
1
1
1
1
1
1
1
1
1
1
1
1
1
1
1
1
1
1
1
1
1
1
0.999999
1.00001
1.00013
1.00264
1.00589
0.754636
2.69912
9.72385
11.8219
12.2535
12.3413
12.3731
12.3956
12.4122
12.4254
12.4376
12.4472
12.4569
12.4739
12.4944
12.5111
12.5255
12.5382
12.5466
12.5571
12.575
12.5956
12.6121
12.6263
12.6372
12.6445
12.6572
12.6777
12.6967
12.7123
12.7243
12.7302
12.739
12.7561
12.7774
12.7944
12.8081
12.8155
12.8229
12.8362
12.8559
12.8723
12.8848
12.8909
12.8969
12.9099
12.9285
12.9444
12.9565
12.9623
12.9716
12.9875
13.0063
13.022
13.034
13.0424
13.0549
13.0704
13.0843
13.0934
13.0988
13.1075
13.1174
13.1247
13.1281
13.1311
13.1368
13.1434
13.1473
13.1496
13.1513
13.1527
13.1516
13.147
13.1372
13.1301
13.118
1
1
1
1
1
1
1
1
1
1
1
1
1
1
1
1
1
1
1
1
1
1
1
1
1
1
1
1
1
1
1
1
1
1
1
1
1
1
0.999996
0.99984
0.997279
0.972612
0.722012
2.03251
9.5563
11.7167
12.2107
12.3128
12.346
12.3661
12.381
12.3938
12.4041
12.4161
12.4331
12.4518
12.4693
12.4851
12.4994
12.5094
12.5191
12.536
12.5574
12.5741
12.5888
12.6016
12.6084
12.6192
12.6375
12.6599
12.6769
12.6916
12.7022
12.71
12.7231
12.7442
12.7643
12.7809
12.7934
12.8006
12.8112
12.8293
12.8486
12.8643
12.8756
12.8816
12.8903
12.9057
12.9228
12.9362
12.945
12.9509
12.9623
12.9797
12.9967
13.0106
13.0194
13.0287
13.0428
13.059
13.0726
13.082
13.0891
13.0985
13.1083
13.115
13.1174
13.1208
13.126
13.1313
13.134
13.1358
13.1363
13.1348
13.1327
13.1266
13.1153
13.1075
13.0937
1
1
1
1
1
1
1
1
1
1
1
1
1
1
1
1
1
1
1
1
1
1
1
1
1
1
1
1
1
1
1
1
1
1
1
1
1
1
1.00005
1.00083
1.00452
0.991164
0.791611
1.18148
9.34662
11.5805
12.158
12.282
12.3206
12.339
12.3535
12.3646
12.3757
12.3917
12.4141
12.4331
12.4482
12.4618
12.4704
12.4807
12.4961
12.5172
12.5349
12.5508
12.5629
12.5718
12.5827
12.6001
12.6205
12.6371
12.6527
12.6651
12.6731
12.6865
12.7068
12.7281
12.7459
12.7615
12.7711
12.7811
12.7973
12.8192
12.8374
12.8519
12.861
12.8701
12.8838
12.9017
12.9166
12.9278
12.9335
12.9416
12.9559
12.9727
12.9869
12.9971
13.0036
13.0157
13.032
13.0478
13.0602
13.0683
13.0764
13.0872
13.0976
13.1039
13.1059
13.1093
13.1142
13.1185
13.1199
13.1204
13.1198
13.1161
13.1123
13.1047
13.092
13.0833
13.0678
1
1
1
1
1
1
1
1
1
1
1
1
1
1
1
1
1
1
1
1
1
1
1
1
1
1
1
1
1
1
1
1
1
1
1
1
1
0.999999
1.00001
1.00011
1.00034
0.988521
0.846554
1.24071
9.02625
11.4023
12.1092
12.2628
12.3029
12.3166
12.3267
12.3458
12.372
12.3936
12.4112
12.4256
12.4305
12.4364
12.4487
12.4739
12.4968
12.5139
12.5263
12.5279
12.5334
12.5447
12.5686
12.5913
12.6086
12.6208
12.6234
12.6315
12.6432
12.6655
12.6885
12.7078
12.7236
12.7307
12.7414
12.7566
12.7804
12.8026
12.8206
12.833
12.8425
12.855
12.8749
12.8938
12.9082
12.917
12.9235
12.9344
12.9507
12.9654
12.9762
12.982
12.9906
13.0052
13.0219
13.0358
13.0454
13.0517
13.0618
13.0741
13.0848
13.0909
13.0929
13.0965
13.1016
13.1049
13.1048
13.1034
13.1016
13.0968
13.091
13.0809
13.0672
13.0574
13.0403
1
1
1
1
1
1
1
1
1
1
1
1
1
1
1
1
1
1
1
1
1
1
1
1
1
1
1
1
1
1
1
1
1
1
1
1
1
1
1
0.999999
0.999984
0.99931
0.973138
1.53697
8.49676
11.2665
12.1046
12.2827
12.3262
12.3379
12.3451
12.364
12.3894
12.4084
12.4243
12.4358
12.4365
12.44
12.4545
12.48
12.4988
12.514
12.5244
12.5208
12.5243
12.5396
12.5644
12.5817
12.595
12.6024
12.6
12.6069
12.627
12.6518
12.6708
12.6861
12.6923
12.6971
12.7103
12.734
12.7588
12.78
12.797
12.8032
12.8167
12.8356
12.8603
12.8804
12.8951
12.9014
12.9119
12.9274
12.9444
12.9574
12.9648
12.9694
12.98
12.9961
13.0111
13.0217
13.0269
13.0356
13.0481
13.0613
13.0707
13.0748
13.0779
13.0828
13.0884
13.0899
13.0881
13.0853
13.0823
13.0763
13.0682
13.0556
13.0408
13.0298
13.011
1
1
1
1
1
1
1
1
1
1
1
1
1
1
1
1
1
1
1
1
1
1
1
1
1
1
1
1
1
1
1
1
1
1
1
1
1
1
1
1
1.00006
1.00097
1.02044
1.54115
7.62828
11.057
12.08
12.2904
12.3387
12.3504
12.3599
12.3804
12.4024
12.4187
12.4328
12.4444
12.4473
12.4543
12.4714
12.4934
12.5094
12.5223
12.5311
12.5319
12.5374
12.5533
12.5734
12.5873
12.5971
12.599
12.5972
12.6045
12.6256
12.6439
12.6577
12.6667
12.6633
12.6703
12.6887
12.7147
12.7361
12.7537
12.7627
12.7693
12.7859
12.8111
12.8369
12.8589
12.8719
12.8809
12.8955
12.916
12.9346
12.9475
12.9518
12.9585
12.9711
12.9865
12.9982
13.0048
13.0102
13.021
13.035
13.047
13.0536
13.0558
13.0612
13.0683
13.0737
13.0728
13.0699
13.0661
13.062
13.0543
13.0435
13.0287
13.013
13.0009
12.9798
1
1
1
1
1
1
1
1
1
1
1
1
1
1
1
1
1
1
1
1
1
1
1
1
1
1
1
1
1
1
1
1
1
1
1
1
1
1
1
1
1.00003
1.00043
1.00692
1.25451
6.50599
10.7531
12.001
12.2496
12.3084
12.3284
12.3441
12.3655
12.3859
12.4018
12.4155
12.4271
12.4335
12.4438
12.4628
12.4828
12.4982
12.5113
12.5211
12.5259
12.5352
12.5537
12.5723
12.5863
12.5977
12.6014
12.6035
12.6125
12.6306
12.6442
12.6533
12.6573
12.6542
12.6596
12.6784
12.6983
12.7145
12.7272
12.7283
12.7384
12.7582
12.785
12.8092
12.8297
12.8392
12.8533
12.8728
12.8974
12.9177
12.931
12.9372
12.9474
12.9619
12.9757
12.9845
12.9875
12.9951
13.0075
13.021
13.0295
13.0327
13.0374
13.0446
13.0534
13.0562
13.0534
13.0502
13.0461
13.0399
13.0309
13.0172
13.0005
12.9837
12.9705
12.9469
1
1
1
1
1
1
1
1
1
1
1
1
1
1
1
1
1
1
1
1
1
1
1
1
1
1
1
1
1
1
1
1
1
1
1
1
1
1
1
1
1.00003
1.00024
0.99839
0.978608
5.1726
10.3727
11.8977
12.2016
12.2735
12.3004
12.3203
12.3374
12.3529
12.3675
12.3813
12.3928
12.4041
12.4191
12.4373
12.4542
12.469
12.4822
12.4935
12.5026
12.5156
12.5356
12.554
12.5685
12.5814
12.5892
12.5967
12.6097
12.6265
12.6393
12.6493
12.6535
12.654
12.6608
12.6771
12.6901
12.6993
12.7044
12.7055
12.7156
12.7369
12.7599
12.7807
12.7972
12.8044
12.821
12.8443
12.8709
12.8942
12.9075
12.9177
12.9327
12.9497
12.9625
12.9692
12.9724
12.9808
12.9936
13.0037
13.0094
13.0123
13.0192
13.0284
13.0356
13.035
13.0322
13.0291
13.0249
13.0157
13.0058
12.9896
12.9712
12.953
12.9385
12.9125
1
1
1
1
1
1
1
1
1
1
1
1
1
1
1
1
1
1
1
1
1
1
1
1
1
1
1
1
1
1
1
1
1
1
1
1
1
1
1
1.00002
1.0003
1.00381
1.01701
0.828977
3.50301
9.88634
11.7821
12.1585
12.2395
12.2657
12.281
12.2942
12.3081
12.3226
12.3365
12.351
12.3677
12.3848
12.4004
12.4154
12.4298
12.4436
12.4574
12.4723
12.4894
12.5071
12.5237
12.539
12.5528
12.5641
12.5764
12.5929
12.61
12.6233
12.6349
12.6424
12.6486
12.6595
12.6737
12.6838
12.6908
12.6926
12.6937
12.7053
12.7247
12.7408
12.7539
12.7631
12.772
12.7883
12.8139
12.8401
12.863
12.8771
12.8925
12.9117
12.9317
12.9464
12.9528
12.958
12.9669
12.9777
12.9848
12.9882
12.9928
13.001
13.0103
13.0131
13.0115
13.01
13.0063
13.0022
12.9898
12.9791
12.9607
12.9407
12.9206
12.9049
12.8767
1
1
1
1
1
1
1
1
1
1
1
1
1
1
1
1
1
1
1
1
1
1
1
1
1
1
1
1
1
1
1
1
1
1
1
1
1
1
1
0.999997
0.999917
0.998823
0.986785
0.781667
1.40962
9.30394
11.6464
12.1173
12.2096
12.2341
12.2503
12.2649
12.2789
12.2929
12.3075
12.3237
12.3403
12.3556
12.3699
12.3833
12.3954
12.4082
12.4237
12.44
12.4546
12.469
12.4833
12.4959
12.5106
12.5258
12.5432
12.5616
12.5792
12.5954
12.6093
12.6206
12.6327
12.6482
12.6626
12.6733
12.6807
12.6835
12.688
12.6999
12.7132
12.7233
12.7311
12.7345
12.7441
12.7634
12.787
12.8098
12.8294
12.8439
12.8616
12.8839
12.9073
12.9254
12.9342
12.9426
12.9516
12.96
12.9653
12.9675
12.9731
12.9817
12.9874
12.9884
12.9871
12.9873
12.9819
12.9772
12.9624
12.951
12.9302
12.9085
12.8866
12.8699
12.8393
1
1
1
1
1
1
1
1
1
1
1
1
1
1
1
1
1
1
1
1
1
1
1
1
1
1
1
1
1
1
1
1
1
1
1
1
1
1
1
1
1.00001
1.00033
1.00136
0.930183
1.10761
8.65727
11.2891
11.9829
12.1334
12.1847
12.2141
12.2348
12.2513
12.2665
12.2832
12.3007
12.3166
12.3308
12.3437
12.3543
12.3645
12.3781
12.3939
12.4081
12.4207
12.4326
12.4428
12.4535
12.4681
12.487
12.5055
12.5233
12.5407
12.5557
12.5718
12.588
12.6065
12.6265
12.6421
12.6545
12.6635
12.6706
12.681
12.6933
12.7024
12.7092
12.7129
12.7159
12.727
12.7458
12.7644
12.781
12.7954
12.8078
12.8269
12.8514
12.8778
12.8992
12.9113
12.9238
12.9338
12.9413
12.9454
12.9474
12.9524
12.9595
12.9626
12.9638
12.9625
12.9629
12.9553
12.9495
12.9342
12.921
12.8979
12.8743
12.8512
12.8335
12.8001
1
1
1
1
1
1
1
1
1
1
1
1
1
1
1
1
1
1
1
1
1
1
1
1
1
1
1
1
1
1
1
1
1
1
1
1
1
1
1
1
1
1.00003
1.00036
1.00518
1.23364
7.41245
10.9626
11.9339
12.1367
12.1916
12.2172
12.2329
12.2454
12.258
12.2734
12.2895
12.3037
12.3163
12.3276
12.3367
12.3469
12.3619
12.3781
12.3924
12.4053
12.4163
12.4241
12.4331
12.4475
12.4643
12.4795
12.4942
12.5073
12.5191
12.5334
12.5528
12.5739
12.5939
12.6127
12.6266
12.6389
12.6515
12.6672
12.6809
12.6903
12.6957
12.6976
12.7022
12.7146
12.7295
12.7415
12.7517
12.7593
12.7732
12.7952
12.8217
12.8475
12.869
12.8829
12.8984
12.9112
12.9207
12.925
12.9268
12.9302
12.935
12.9375
12.9387
12.9367
12.9355
12.9266
12.9197
12.905
12.889
12.8641
12.8382
12.8148
12.7958
12.7596
1
1
1
1
1
1
1
1
1
1
1
1
1
1
1
1
1
1
1
1
1
1
1
1
1
1
1
1
1
1
1
1
1
1
1
1
1
1
1
1
1
0.999994
0.999826
0.989842
0.933797
5.46908
10.4535
11.8385
12.1064
12.1692
12.1937
12.2067
12.2177
12.2295
12.244
12.259
12.2725
12.2848
12.2965
12.3065
12.3182
12.3346
12.3519
12.367
12.3809
12.3929
12.4021
12.4135
12.4291
12.4438
12.4571
12.4692
12.4777
12.4871
12.5005
12.5195
12.5386
12.5575
12.5749
12.5881
12.6045
12.6236
12.6442
12.6604
12.6721
12.6785
12.6833
12.6917
12.7038
12.7133
12.72
12.7244
12.7311
12.7467
12.7698
12.794
12.8166
12.8339
12.8483
12.8674
12.8845
12.8974
12.9032
12.9047
12.9063
12.91
12.912
12.9122
12.9086
12.9052
12.8975
12.8878
12.8745
12.8548
12.8287
12.8008
12.7773
12.7566
12.7173
1
1
1
1
1
1
1
1
1
1
1
1
1
1
1
1
1
1
1
1
1
1
1
1
1
1
1
1
1
1
1
1
1
1
1
1
1
1
1
1
1
1.00004
1.0015
0.97833
0.713977
2.72844
9.719
11.6832
12.0541
12.1325
12.153
12.164
12.1738
12.1858
12.1998
12.2151
12.2293
12.243
12.2558
12.2679
12.2815
12.2984
12.3151
12.3301
12.3441
12.3568
12.3685
12.383
12.4002
12.4158
12.4301
12.4426
12.4521
12.4628
12.4769
12.493
12.509
12.5244
12.5374
12.5516
12.5692
12.5916
12.6137
12.6323
12.6459
12.655
12.6656
12.6788
12.6896
12.6967
12.6999
12.7016
12.7098
12.7262
12.7457
12.7646
12.78
12.7926
12.8117
12.834
12.8551
12.8712
12.8776
12.8792
12.8813
12.885
12.8859
12.884
12.8787
12.8735
12.8678
12.8542
12.8414
12.8189
12.7925
12.7621
12.7381
12.7154
12.6736
1
1
1
1
1
1
1
1
1
1
1
1
1
1
1
1
1
1
1
1
1
1
1
1
1
1
1
1
1
1
1
1
1
1
1
1
1
1
1
1
0.999999
0.999989
0.999761
0.992924
0.871905
0.466609
8.78421
11.3505
11.9366
12.0558
12.087
12.1046
12.1213
12.1378
12.1538
12.1693
12.1842
12.1987
12.213
12.2275
12.2419
12.2558
12.2691
12.2825
12.295
12.3077
12.322
12.3382
12.3543
12.37
12.3854
12.3981
12.4122
12.4275
12.4449
12.4613
12.4769
12.4907
12.5032
12.5182
12.5369
12.5588
12.5806
12.6005
12.6137
12.6274
12.6436
12.6607
12.6721
12.679
12.6803
12.683
12.6929
12.7074
12.7205
12.7316
12.7409
12.7567
12.7789
12.804
12.8271
12.8413
12.845
12.8503
12.855
12.8598
12.8584
12.8534
12.8484
12.841
12.8365
12.8194
12.8059
12.7817
12.7545
12.722
12.6972
12.6725
12.6282
1
1
1
1
1
1
1
1
1
1
1
1
1
1
1
1
1
1
1
1
1
1
1
1
1
1
1
1
1
1
1
1
1
1
1
1
1
1
1
1
1
1
0.999998
1.00006
1.00099
1.16105
7.4684
10.9462
11.8353
12.0219
12.0775
12.1022
12.119
12.132
12.1429
12.153
12.1631
12.1731
12.1837
12.1947
12.2056
12.2163
12.2269
12.2373
12.2475
12.2595
12.2739
12.2894
12.3053
12.3211
12.3362
12.3506
12.367
12.3861
12.4051
12.4227
12.4386
12.4517
12.4665
12.4835
12.503
12.5228
12.5433
12.5619
12.5777
12.5959
12.6164
12.6353
12.6492
12.6565
12.6598
12.666
12.6769
12.6861
12.6925
12.6974
12.7073
12.7265
12.7509
12.775
12.7936
12.8015
12.8092
12.8201
12.8276
12.8327
12.8283
12.8214
12.8172
12.8075
12.8028
12.7832
12.7687
12.7426
12.7146
12.6803
12.6543
12.6285
12.5817
1
1
1
1
1
1
1
1
1
1
1
1
1
1
1
1
1
1
1
1
1
1
1
1
1
1
1
1
1
1
1
1
1
1
1
1
1
1
1
1
1
0.999998
0.999973
0.999639
0.98966
0.897781
5.03038
10.2913
11.728
12.0067
12.0695
12.0919
12.106
12.1175
12.1276
12.1375
12.1471
12.157
12.1671
12.1773
12.1873
12.197
12.2069
12.2169
12.2274
12.2389
12.2513
12.2641
12.2773
12.2908
12.304
12.3175
12.3334
12.3513
12.3689
12.3855
12.4006
12.415
12.4312
12.4493
12.4676
12.4857
12.503
12.5189
12.5382
12.5598
12.5835
12.6047
12.6208
12.6301
12.6388
12.6496
12.6592
12.6644
12.6659
12.668
12.6794
12.6999
12.722
12.7399
12.7503
12.7603
12.7742
12.7889
12.8011
12.8019
12.795
12.7882
12.7851
12.7725
12.7662
12.7461
12.7304
12.7016
12.6724
12.6367
12.6101
12.5835
12.5326
1
1
1
1
1
1
1
1
1
1
1
1
1
1
1
1
1
1
1
1
1
1
1
1
1
1
1
1
1
1
1
1
1
1
1
1
1
1
1
1
1
0.999995
0.99989
0.99857
0.985893
0.78212
1.41804
9.2191
11.5269
11.9474
12.0255
12.0461
12.0577
12.0687
12.0792
12.0905
12.1038
12.1171
12.1294
12.1412
12.1527
12.1642
12.1766
12.1893
12.2016
12.2133
12.2245
12.2356
12.2467
12.2581
12.2701
12.2834
12.2985
12.3143
12.3305
12.3465
12.3617
12.378
12.3956
12.4142
12.432
12.4489
12.4633
12.4795
12.499
12.5219
12.5456
12.5677
12.5841
12.5985
12.6135
12.6282
12.6373
12.6409
12.6399
12.643
12.6553
12.6727
12.6878
12.6981
12.708
12.7231
12.7417
12.7608
12.7692
12.7645
12.7605
12.7542
12.7522
12.7361
12.7268
12.7076
12.691
12.6589
12.6279
12.5916
12.5642
12.5366
12.4831
1
1
1
1
1
1
1
1
1
1
1
1
1
1
1
1
1
1
1
1
1
1
1
1
1
1
1
1
1
1
1
1
1
1
1
1
1
1
1
1
1
1
0.999996
0.999985
1.00006
0.994415
1.07483
7.79616
10.9742
11.7445
11.9161
11.9708
11.999
12.018
12.0345
12.0508
12.0666
12.0815
12.0956
12.1088
12.1215
12.1349
12.1491
12.1625
12.1749
12.1865
12.1969
12.2063
12.2157
12.2256
12.2361
12.2479
12.261
12.2748
12.2891
12.3043
12.3207
12.3384
12.3567
12.3752
12.3933
12.4101
12.4261
12.4433
12.4627
12.4847
12.5074
12.5288
12.5456
12.565
12.5851
12.6016
12.6122
12.6153
12.6155
12.6206
12.6314
12.6418
12.65
12.6575
12.6714
12.6911
12.7116
12.7262
12.7273
12.7247
12.7258
12.7196
12.718
12.6975
12.6863
12.6675
12.65
12.6148
12.5819
12.5451
12.517
12.4875
12.4296
1
1
1
1
1
1
1
1
1
1
1
1
1
1
1
1
1
1
1
1
1
1
1
1
1
1
1
1
1
1
1
1
1
1
1
1
1
1
1
1
1
1
1
1.00004
1.00001
0.990616
0.884823
4.95345
10.2046
11.5696
11.8461
11.9137
11.9393
11.9564
11.9732
11.9914
12.0096
12.0264
12.0421
12.057
12.0716
12.0878
12.1051
12.1205
12.1353
12.149
12.1611
12.173
12.185
12.1971
12.2086
12.2199
12.2298
12.2399
12.2519
12.2659
12.2814
12.298
12.3152
12.3328
12.3504
12.3678
12.3861
12.4048
12.4244
12.4449
12.4657
12.4851
12.5056
12.5279
12.5507
12.5694
12.5821
12.5875
12.592
12.5988
12.6053
12.6091
12.6128
12.6217
12.6391
12.6599
12.6759
12.6819
12.6829
12.6853
12.6913
12.6843
12.6786
12.6567
12.6462
12.625
12.6064
12.5696
12.5345
12.4972
12.468
12.4374
12.3768
1
1
1
1
1
1
1
1
1
1
1
1
1
1
1
1
1
1
1
1
1
1
1
1
1
1
1
1
1
1
1
1
1
1
1
1
1
1
1
1
1
1
1.00004
1.00066
1.00344
0.991824
0.818405
0.912658
8.93481
11.3687
11.8031
11.8875
11.9065
11.9169
11.9299
11.9455
11.9609
11.9759
11.99
12.0044
12.0197
12.0352
12.0512
12.0667
12.0809
12.0942
12.1091
12.1243
12.1395
12.1546
12.1691
12.1816
12.1938
12.2054
12.2177
12.2315
12.2464
12.2623
12.2783
12.2939
12.3111
12.3292
12.3479
12.3671
12.3863
12.4051
12.423
12.4424
12.4641
12.4879
12.5123
12.5335
12.5468
12.5576
12.5671
12.5744
12.5772
12.5767
12.5787
12.5898
12.6071
12.6239
12.632
12.6356
12.6425
12.6472
12.6572
12.646
12.6338
12.6151
12.6064
12.5808
12.5604
12.5233
12.4863
12.448
12.4173
12.3854
12.3202
1
1
1
1
1
1
1
1
1
1
1
1
1
1
1
1
1
1
1
1
1
1
1
1
1
1
1
1
1
1
1
1
1
1
1
1
1
1
1
1
1
1
1
0.999997
1.00005
0.999706
0.992814
1.00921
7.18989
10.7901
11.6362
11.8049
11.8533
11.8752
11.8894
11.9015
11.9125
11.9232
11.9341
11.9459
11.9587
11.9722
11.9867
12.0018
12.0166
12.0316
12.0478
12.0655
12.0837
12.1016
12.1191
12.1347
12.1501
12.1647
12.1791
12.1935
12.2085
12.2232
12.2374
12.2531
12.2703
12.2885
12.3074
12.3267
12.3455
12.3628
12.3813
12.4009
12.4226
12.4462
12.4706
12.4919
12.5088
12.5249
12.5385
12.5462
12.5477
12.545
12.548
12.5594
12.5724
12.5813
12.5865
12.594
12.6052
12.6104
12.6177
12.6006
12.5897
12.573
12.5643
12.5352
12.5128
12.4749
12.4366
12.3972
12.3649
12.3327
12.2656
1
1
1
1
1
1
1
1
1
1
1
1
1
1
1
1
1
1
1
1
1
1
1
1
1
1
1
1
1
1
1
1
1
1
1
1
1
1
1
1
1
1
1
1.00005
1.00021
0.999131
0.987645
0.835812
3.6183
9.7396
11.3851
11.7123
11.7938
11.8246
11.8428
11.8573
11.8699
11.8819
11.8936
11.9059
11.9185
11.9313
11.9445
11.958
11.9717
11.9871
12.0034
12.0202
12.0373
12.0545
12.0712
12.0884
12.106
12.1239
12.1411
12.1571
12.1718
12.1847
12.1977
12.2127
12.2293
12.2474
12.2666
12.2861
12.3038
12.3219
12.3404
12.3601
12.3815
12.4043
12.4265
12.4469
12.4683
12.4885
12.5049
12.5145
12.5163
12.5147
12.5186
12.5275
12.5336
12.539
12.5442
12.5546
12.5694
12.5686
12.5679
12.5543
12.5488
12.5309
12.5203
12.488
12.463
12.4247
12.3849
12.3437
12.3101
12.2774
12.2053
1
1
1
1
1
1
1
1
1
1
1
1
1
1
1
1
1
1
1
1
1
1
1
1
1
1
1
1
1
1
1
1
1
1
1
1
1
1
1
1
1
1
1
1
1.00002
0.999933
0.999174
0.974338
0.778317
8.00239
10.897
11.5612
11.7085
11.7516
11.773
11.7919
11.8072
11.8225
11.8373
11.8519
11.866
11.8788
11.8919
11.9053
11.9199
11.9356
11.952
11.969
11.9858
12.0019
12.0191
12.0369
12.0553
12.0739
12.0926
12.1105
12.1266
12.1422
12.1575
12.1728
12.1888
12.2064
12.2248
12.2428
12.2607
12.28
12.2993
12.3194
12.3402
12.361
12.3811
12.4031
12.4261
12.4482
12.4669
12.4787
12.4833
12.4846
12.4888
12.4924
12.4939
12.4983
12.5047
12.5153
12.5281
12.5205
12.5175
12.5091
12.5091
12.4876
12.4719
12.4403
12.4123
12.3718
12.3311
12.2894
12.2556
12.222
12.1474
1
1
1
1
1
1
1
1
1
1
1
1
1
1
1
1
1
1
1
1
1
1
1
1
1
1
1
1
1
1
1
1
1
1
1
1
1
1
1
1
1
1
1
1
0.999997
1.00001
0.999878
0.992542
0.876993
4.94391
10.1315
11.3919
11.6344
11.6906
11.7145
11.7336
11.7517
11.7683
11.7846
11.8008
11.8162
11.8311
11.8454
11.8597
11.8743
11.8893
11.9049
11.9209
11.9365
11.9533
11.9708
11.9888
12.0076
12.0266
12.0452
12.0632
12.0813
12.0993
12.1171
12.1337
12.1498
12.1664
12.1822
12.1984
12.2171
12.2367
12.2569
12.2775
12.2977
12.3162
12.3365
12.3587
12.382
12.4054
12.4257
12.4387
12.4486
12.4534
12.4567
12.4564
12.4539
12.46
12.4666
12.4715
12.4794
12.4714
12.4727
12.4647
12.4668
12.4402
12.4205
12.3919
12.3624
12.3164
12.274
12.2325
12.1982
12.1642
12.0846
1
1
1
1
1
1
1
1
1
1
1
1
1
1
1
1
1
1
1
1
1
1
1
1
1
1
1
1
1
1
1
1
1
1
1
1
1
1
1
1
1
1
1
1
1.00005
1.00074
1.00409
0.994134
0.870945
0.787186
8.35523
11.0047
11.5261
11.6343
11.6614
11.6752
11.6921
11.7086
11.7237
11.7386
11.7544
11.7708
11.7873
11.8038
11.8199
11.8356
11.8511
11.8667
11.8832
11.9009
11.9192
11.9377
11.9565
11.9751
11.9939
12.0135
12.0331
12.0526
12.0718
12.0904
12.108
12.124
12.1394
12.1561
12.1742
12.1936
12.2141
12.2346
12.2533
12.2718
12.2919
12.314
12.3372
12.3606
12.3804
12.397
12.4115
12.4194
12.4218
12.4198
12.4158
12.422
12.4273
12.4246
12.4287
12.4249
12.431
12.4194
12.4165
12.3892
12.3708
12.3417
12.3103
12.2607
12.2172
12.1758
12.141
12.1067
12.0236
1
1
1
1
1
1
1
1
1
1
1
1
1
1
1
1
1
1
1
1
1
1
1
1
1
1
1
1
1
1
1
1
1
1
1
1
1
1
1
1
1
1
1
1
0.999994
1.00003
1.00012
0.999647
0.988149
0.838119
5.47942
10.226
11.3384
11.5622
11.6129
11.6298
11.6428
11.6586
11.6726
11.6857
11.7
11.7156
11.7323
11.7495
11.7668
11.7831
11.7988
11.8154
11.8324
11.8502
11.8689
11.8874
11.9058
11.9245
11.9441
11.964
11.9845
12.0054
12.0257
12.0449
12.0629
12.0803
12.0974
12.1142
12.132
12.1512
12.1709
12.1895
12.2074
12.227
12.2472
12.2691
12.292
12.314
12.3338
12.3534
12.371
12.3811
12.3843
12.3831
12.3785
12.3839
12.3848
12.3785
12.3815
12.3781
12.3867
12.3706
12.3619
12.338
12.3217
12.2896
12.2559
12.2047
12.1597
12.1161
12.0793
12.0459
11.9577
1
1
1
1
1
1
1
1
1
1
1
1
1
1
1
1
1
1
1
1
1
1
1
1
1
1
1
1
1
1
1
1
1
1
1
1
1
1
1
1
1
1
1
1
1
1.00004
1.00055
1.00333
0.996362
0.851753
1.03682
8.44237
10.9705
11.4474
11.555
11.5812
11.593
11.6082
11.6217
11.634
11.6467
11.6609
11.676
11.6917
11.708
11.7241
11.7412
11.7589
11.7771
11.7959
11.8153
11.8342
11.8526
11.8724
11.8924
11.9131
11.9342
11.9552
11.9757
11.9961
12.016
12.0356
12.0544
12.0725
12.0904
12.1083
12.1255
12.143
12.162
12.1817
12.2023
12.2242
12.2459
12.2658
12.2871
12.3074
12.3268
12.339
12.3433
12.346
12.3417
12.3435
12.3404
12.3332
12.3366
12.3294
12.3357
12.3186
12.31
12.286
12.27
12.2353
12.2002
12.1472
12.1018
12.0578
12.0201
11.9866
11.8948
1
1
1
1
1
1
1
1
1
1
1
1
1
1
1
1
1
1
1
1
1
1
1
1
1
1
1
1
1
1
1
1
1
1
1
1
1
1
1
1
1
1
1
1
0.999999
0.999987
1.00003
1.00011
0.999537
0.985588
0.789733
5.51087
10.1635
11.2397
11.4605
11.5164
11.5391
11.5564
11.574
11.5889
11.6019
11.6148
11.6272
11.6404
11.6551
11.6708
11.6875
11.705
11.7234
11.7424
11.7617
11.7807
11.8002
11.8205
11.8408
11.8618