/*--------------------------------*- C++ -*----------------------------------*\
| =========                 |                                                 |
| \\      /  F ield         | OpenFOAM: The Open Source CFD Toolbox           |
|  \\    /   O peration     | Version:  2.2.x                                 |
|   \\  /    A nd           | Web:      www.OpenFOAM.org                      |
|    \\/     M anipulation  |                                                 |
\*---------------------------------------------------------------------------*/
FoamFile
{
    version     2.0;
    format      ascii;
    class       surfaceScalarField;
    location    "0.6";
    object      phi;
}
// * * * * * * * * * * * * * * * * * * * * * * * * * * * * * * * * * * * * * //

dimensions      [1 0 -1 0 0 0 0];

internalField   nonuniform List<scalar> 
28084
(
0.000746648
0.000742384
0.000739858
0.000737597
0.000735666
0.000734018
0.000732949
0.000732308
0.000732001
0.000731961
0.000732297
0.000732886
0.000733491
0.000733867
0.000734436
0.000735426
0.000736479
0.000737761
0.000738975
0.000740382
0.000742018
0.000743947
0.000745408
0.000746359
0.00074772
0.000749088
0.00075055
0.000751732
0.000752489
0.000752996
0.00075386
0.000754649
0.000755298
0.000755693
0.000755805
0.000755545
0.000754737
0.000754533
0.000754424
0.00075428
0.000754105
0.00075384
0.000753376
0.000752881
0.00075212
0.000761279
0.00077058
0.00078004
0.000789181
0.000797834
0.000791682
0.000668146
0.000530447
0.000486734
0.000520101
0.000580021
0.000650721
0.000720758
0.000787643
0.000854358
0.000892981
0.000923152
0.000951568
0.000999618
0.00102804
0.00104762
0.00106787
0.00109065
0.0011072
0.00112138
0.00113505
0.00115061
0.0011659
0.00117487
0.0011786
0.00117861
0.00117249
0.00115259
0.00110982
0.00103429
0.000940659
0.000861725
0.000795544
0.000742445
0.000697343
0.000658086
0.000622968
0.000593047
0.000566248
0.00053906
0.000510121
0.000484154
0.000459442
0.000434731
0.000409182
0.000382103
0.00035554
0.000333335
0.000311782
0.000290377
0.000267841
0.000245429
0.000224677
0.000206866
0.000189329
0.000173373
0.000157689
0.000144254
0.000132104
0.000122428
0.000114045
0.000106095
9.75592e-05
8.82313e-05
7.75353e-05
6.43589e-05
4.74976e-05
2.6699e-05
3.33768e-06
4.29862e-06
0.000741512
2.63311e-06
0.000743552
2.25512e-06
0.000744968
1.85055e-06
0.000746414
1.56952e-06
0.000747647
9.77161e-07
0.000749171
4.67404e-07
0.000750659
2.21591e-07
0.000752164
6.96971e-08
0.000753678
-2.20412e-07
0.000754942
-5.08223e-07
0.000756022
-5.07004e-07
0.000756744
-2.29769e-07
0.000757693
-6.21175e-07
0.000759567
-9.51463e-07
0.000762478
-1.01278e-06
0.000765864
-1.20192e-06
0.000769572
-1.32354e-06
0.00077384
-1.64611e-06
0.000778062
-1.55554e-06
0.000781968
-1.54173e-06
0.000785642
-1.43223e-06
0.000788768
-1.31743e-06
0.000791453
-1.44821e-06
0.000793482
-1.07349e-06
0.000794808
-1.00451e-06
0.000796687
-8.59433e-07
0.000798971
-9.19175e-07
0.000801376
-8.54991e-07
0.000803561
-8.35193e-07
0.000805218
-6.13302e-07
0.000806493
-4.73913e-07
0.000808278
-2.70303e-07
0.000810007
-1.07559e-07
0.000811656
-1.84145e-08
0.000813235
1.38074e-07
0.000814412
1.16028e-07
0.000815375
1.54664e-07
0.000816232
3.10479e-07
0.000816878
3.95772e-07
0.00081723
4.75927e-07
0.000817296
6.53992e-07
0.000816974
8.70528e-07
0.000816296
1.20879e-06
0.000815388
-9.20246e-06
0.000814235
-9.49e-06
0.000822483
-9.77844e-06
0.000830879
-9.98405e-06
0.000839365
-8.81441e-06
0.000846966
4.98116e-06
0.000852433
0.00010021
0.000835288
0.000137269
0.000708915
4.71942e-05
0.000647419
-2.61476e-05
0.000633949
-6.14711e-05
0.000671268
-6.92051e-05
0.000718508
-6.04502e-05
0.000763288
-5.285e-05
0.000807183
-5.54715e-05
0.000863853
-5.20861e-05
0.000925954
-5.00845e-05
0.000970478
-3.83391e-05
0.00100546
-3.15794e-05
0.00103481
-2.80575e-05
0.00106448
-2.59842e-05
0.00109197
-1.93384e-05
0.00111939
-1.94983e-05
0.0011307
-1.50026e-05
0.00113534
-1.27414e-05
0.00114197
-1.16388e-05
0.00114908
-1.19438e-05
0.0011577
-1.25511e-05
0.00116433
-1.26171e-05
0.00116721
-9.43505e-06
0.00116657
-4.13538e-06
0.00116081
2.84002e-06
0.00114604
1.7696e-05
0.0011244
4.30928e-05
0.00109795
7.86412e-05
0.00106977
9.81021e-05
0.00103751
8.09832e-05
0.000990223
6.80828e-05
0.000911553
5.21496e-05
0.000836084
4.19374e-05
0.000777172
3.47832e-05
0.000727869
3.00312e-05
0.000686606
2.6466e-05
0.000652578
2.72294e-05
0.000625668
2.75682e-05
0.000599978
2.66672e-05
0.000570984
2.66699e-05
0.0005412
2.58023e-05
0.000511846
2.43768e-05
0.000483908
2.56492e-05
0.000457487
2.45629e-05
0.000430385
2.32259e-05
0.000401441
2.27775e-05
0.000372902
2.32092e-05
0.000348968
2.21911e-05
0.000327378
2.19495e-05
0.000306489
1.92389e-05
0.000284273
1.75188e-05
0.0002614
1.62357e-05
0.000240017
1.69823e-05
0.000221668
1.56381e-05
0.000204033
1.52726e-05
0.000188223
1.32497e-05
0.000173207
1.27221e-05
0.000160373
1.08174e-05
0.000148565
9.83773e-06
0.000139085
9.36043e-06
0.000130415
9.73801e-06
0.000121931
1.02038e-05
0.000112966
1.134e-05
0.000103019
1.31525e-05
9.13251e-05
1.61426e-05
7.64334e-05
1.98469e-05
5.68466e-05
2.59882e-05
3.19121e-05
1.30858e-05
2.67914e-06
0.000770019
1.46696e-06
0.000765428
1.08952e-06
0.000762984
3.76279e-07
0.000762676
-6.75763e-07
0.000763576
-1.03451e-06
0.000764683
-1.23613e-06
0.000766851
-1.34473e-06
0.000770112
-1.13829e-06
0.000774126
-9.97235e-07
0.000779089
-6.10426e-07
0.000785142
-5.78239e-07
0.000792566
-1.53834e-06
0.000800208
-3.03202e-06
0.000806519
-4.20841e-06
0.000811579
-5.16745e-06
0.000815835
-6.01676e-06
0.000818613
-6.37058e-06
0.000820795
-6.1039e-06
0.000823128
-5.30701e-06
0.000826043
-4.61112e-06
0.000829876
-4.12899e-06
0.000834605
-3.40801e-06
0.000839818
-3.06178e-06
0.000845508
-2.84507e-06
0.000851251
-2.75313e-06
0.000856589
-2.61392e-06
0.000861566
-2.64947e-06
0.000865692
-2.54277e-06
0.000869027
-2.42487e-06
0.000872046
-2.26213e-06
0.000875396
-2.05228e-06
0.000878612
-1.80038e-06
0.000880835
-1.62059e-06
0.000882425
-1.46882e-06
0.000883857
-1.211e-06
0.000884957
-9.3142e-07
0.0008857
-6.2651e-07
0.00088605
-1.40518e-07
0.000886195
3.39844e-07
0.000886067
8.42425e-07
0.000886223
1.39196e-06
0.000886859
1.91126e-06
0.000887518
2.40469e-06
0.000888113
-1.74786e-05
0.000888612
-1.78805e-05
0.000897899
-1.82209e-05
0.000908048
-1.78578e-05
0.000918865
-1.48081e-05
0.000928683
1.80025e-05
0.000938303
0.000212823
0.000940784
0.000193271
0.000882011
6.1148e-05
0.000804816
-6.23906e-05
0.000789604
-0.00010646
0.000828568
-0.000116356
0.000876207
-0.000102326
0.000933167
-0.000102755
0.000994423
-0.000104405
0.00105147
-9.31954e-05
0.00109658
-8.52227e-05
0.00112937
-6.92622e-05
0.00115796
-6.41889e-05
0.00118348
-5.50213e-05
0.00120721
-4.67512e-05
0.00122633
-3.64872e-05
0.00124264
-2.99353e-05
0.00125769
-2.54076e-05
0.00126983
-2.12356e-05
0.00127633
-1.74877e-05
0.00128032
-1.55285e-05
0.00128454
-1.37189e-05
0.00128877
-1.04578e-05
0.00129399
-3.04804e-06
0.00129933
8.29875e-06
0.0013029
2.06586e-05
0.0012952
4.48722e-05
0.00127703
7.45653e-05
0.00124748
0.000115335
0.00121066
0.000150259
0.00115562
0.000161259
0.00108489
0.000144981
0.00101157
0.000111233
0.000935717
8.82195e-05
0.000858402
7.01421e-05
0.000793012
5.94832e-05
0.000746258
5.35562e-05
0.000712302
5.38144e-05
0.000684733
5.45651e-05
0.000658833
5.49461e-05
0.000629704
5.49378e-05
0.00059836
5.33787e-05
0.000562313
5.16712e-05
0.000530773
5.31445e-05
0.000501638
5.11041e-05
0.000472366
4.80861e-05
0.000441798
4.61824e-05
0.000412007
4.67595e-05
0.000385823
4.44159e-05
0.000362272
4.41661e-05
0.00033987
3.94428e-05
0.00031591
3.60902e-05
0.000292004
3.31596e-05
0.000270442
3.38584e-05
0.000252862
3.08336e-05
0.000236366
2.98281e-05
0.000220953
2.60424e-05
0.000206131
2.52396e-05
0.000192949
2.15355e-05
0.000180097
1.98787e-05
0.000169352
1.90953e-05
0.000158973
1.98157e-05
0.00014867
2.09211e-05
0.000137064
2.36402e-05
0.000124136
2.8291e-05
0.000108617
3.5246e-05
8.93643e-05
4.38688e-05
6.53283e-05
5.68562e-05
3.56495e-05
-3.80534e-06
6.48417e-06
0.000739247
3.3086e-06
0.000750047
1.35356e-06
0.000759126
1.30631e-07
0.000766796
-6.62617e-07
0.000773428
-1.84549e-06
0.000780305
-4.07201e-06
0.000786652
-5.22678e-06
0.000792473
-6.50794e-06
0.00079801
-7.80241e-06
0.000802961
-9.21078e-06
0.000806699
-1.00513e-05
0.000809204
-9.31261e-06
0.000811486
-8.40872e-06
0.000815523
-8.30694e-06
0.00082167
-7.67979e-06
0.000828527
-7.32825e-06
0.000836638
-7.20169e-06
0.000846017
-7.71515e-06
0.000855653
-8.463e-06
0.000864422
-8.8585e-06
0.00087175
-9.02226e-06
0.000878056
-9.1461e-06
0.00088352
-9.0606e-06
0.000887728
-8.61332e-06
0.000890969
-7.97566e-06
0.000893758
-7.21681e-06
0.00089767
-6.64703e-06
0.000902059
-6.11163e-06
0.000906187
-5.577e-06
0.000909986
-5.01138e-06
0.000913448
-4.34994e-06
0.000916709
-3.70696e-06
0.000920267
-2.97261e-06
0.000923745
-2.23513e-06
0.000927285
-1.50718e-06
0.000930816
-9.15614e-07
0.000934204
-4.75455e-07
0.000937157
-9.444e-08
0.000939577
3.18442e-07
0.000941615
6.76811e-07
0.000942729
1.11168e-06
0.00094323
1.63972e-06
0.000943416
2.22245e-06
0.000943314
-2.6453e-05
0.000943028
-2.7533e-05
0.000950538
-2.84243e-05
0.000957397
-2.8705e-05
0.000964082
-2.55606e-05
0.00097167
1.36803e-05
0.000978784
0.000248268
0.000993108
0.000256845
0.000993291
6.73624e-05
0.000952651
-0.000109208
0.00098279
-0.000153531
0.00103163
-0.000166649
0.00108398
-0.000162094
0.00114092
-0.000158837
0.00119899
-0.000148752
0.00124556
-0.00012807
0.00128362
-0.000113632
0.00131498
-9.36566e-05
0.00133427
-8.58688e-05
0.00135312
-7.36061e-05
0.00137031
-6.38805e-05
0.00138548
-5.21026e-05
0.00140044
-4.40835e-05
0.00141376
-3.69268e-05
0.00142497
-3.09854e-05
0.00143239
-2.54335e-05
0.00143265
-2.07857e-05
0.00142875
-1.64732e-05
0.00142553
-1.02265e-05
0.00142548
1.20524e-07
0.00142563
1.99121e-05
0.00142537
4.09813e-05
0.00142434
7.62225e-05
0.00140746
0.00011362
0.00138936
0.000172511
0.00135118
0.000221278
0.00131233
0.000239332
0.00125764
0.000223156
0.00119306
0.000187959
0.00111289
0.000148393
0.00101472
0.000112754
0.00092534
9.00019e-05
0.000859027
8.0789e-05
0.000812537
8.14811e-05
0.000779014
8.51431e-05
0.00075182
8.55675e-05
0.00072075
8.61441e-05
0.000683546
8.45167e-05
0.000643728
8.15619e-05
0.000603387
8.2475e-05
0.000565874
7.99561e-05
0.000530258
7.44124e-05
0.000495312
7.04163e-05
0.000461233
7.13433e-05
0.000430099
6.81304e-05
0.000400556
6.83528e-05
0.000373467
6.11644e-05
0.000348095
5.55649e-05
0.000324329
5.00027e-05
0.000303155
4.97068e-05
0.000285583
4.51838e-05
0.000268611
4.40076e-05
0.000252224
3.93604e-05
0.000235605
3.91594e-05
0.000220474
3.38807e-05
0.000205702
3.17429e-05
0.000192706
3.04949e-05
0.000179837
3.22765e-05
0.000167236
3.45051e-05
0.000152968
3.96927e-05
0.000137732
4.80518e-05
0.000120128
5.91332e-05
9.94967e-05
7.28474e-05
7.37636e-05
9.08911e-05
4.22814e-05
1.47751e-05
-3.14687e-06
0.000794666
-4.87915e-06
0.000791135
-6.05095e-06
0.000790464
-7.36357e-06
0.000792888
-9.25724e-06
0.000797206
-1.01507e-05
0.000801809
-1.04095e-05
0.000807653
-1.09349e-05
0.000814859
-1.12379e-05
0.000823015
-1.08263e-05
0.000832021
-1.01401e-05
0.000843211
-9.87238e-06
0.000856498
-1.13558e-05
0.000870035
-1.3388e-05
0.000882017
-1.51098e-05
0.00089177
-1.66298e-05
0.000899525
-1.79607e-05
0.000905359
-1.85505e-05
0.000909942
-1.79951e-05
0.000914042
-1.70314e-05
0.000918841
-1.55417e-05
0.000925156
-1.44706e-05
0.000932803
-1.32595e-05
0.000941209
-1.21283e-05
0.000950355
-1.14008e-05
0.000959796
-1.10005e-05
0.000968667
-1.04851e-05
0.000976516
-1.00623e-05
0.000983565
-9.47555e-06
0.000990309
-8.94267e-06
0.000996857
-8.24679e-06
0.00100212
-7.61754e-06
0.00100625
-7.04517e-06
0.00101045
-6.51452e-06
0.00101434
-5.94405e-06
0.00101728
-5.31105e-06
0.00101895
-4.45044e-06
0.00101984
-3.49218e-06
0.00102073
-2.47005e-06
0.00102198
-1.31504e-06
0.00102339
-2.85106e-07
0.00102484
8.24251e-07
0.0010254
1.84724e-06
0.00102648
2.75939e-06
0.0010278
-3.39788e-05
0.00102896
-3.4867e-05
0.00103607
-3.55039e-05
0.00104406
-3.59968e-05
0.00105359
-3.24959e-05
0.00106467
-9.79164e-07
0.00107844
0.000229852
0.00110714
0.000295531
0.00124639
2.94555e-05
0.00129991
-0.000165725
0.00137168
-0.000211829
0.00138665
-0.00022146
0.00139555
-0.000217397
0.00140414
-0.000205751
0.00141678
-0.000185976
0.00143248
-0.000158797
0.00145003
-0.00013957
0.00146755
-0.000116681
0.00147879
-0.000102512
0.00149306
-8.62687e-05
0.00150562
-7.49676e-05
0.00151877
-6.29234e-05
0.00153159
-5.24074e-05
0.00154234
-4.39058e-05
0.00155291
-3.62765e-05
0.00156059
-3.03438e-05
0.0015619
-2.414e-05
0.00155903
-1.71399e-05
0.00155219
-8.24584e-06
0.00154526
4.46183e-06
0.00153958
2.5572e-05
0.00153273
6.01225e-05
0.0015245
9.87492e-05
0.00151803
0.00015709
0.0014935
0.000214949
0.00146708
0.000276854
0.00143093
0.000303216
0.00140084
0.000300562
0.00136299
0.000284398
0.00130547
0.000235067
0.00123558
0.000173559
0.0011522
0.000129085
0.00105865
0.00011329
0.000981151
0.000113853
0.00092413
0.000119668
0.000877135
0.000122806
0.000830705
0.000125122
0.000782877
0.000122903
0.000732296
0.000117658
0.000679418
0.000118514
0.00062928
0.000114021
0.000583294
0.000105809
0.000541472
9.91082e-05
0.000501898
9.94157e-05
0.000464716
9.52764e-05
0.000430212
9.36565e-05
0.000400503
8.36683e-05
0.000373821
7.59163e-05
0.000348769
6.75282e-05
0.000325161
6.64884e-05
0.00030374
6.08044e-05
0.000282751
5.98135e-05
0.000262576
5.47505e-05
0.000243357
5.51149e-05
0.00022594
4.83615e-05
0.000209157
4.57437e-05
0.000193964
4.35576e-05
0.000178735
4.65374e-05
0.000163998
4.95647e-05
0.000147924
5.71332e-05
0.000131025
6.86673e-05
0.000111766
8.46952e-05
8.94301e-05
0.00010324
6.19776e-05
0.000131111
3.36508e-05
-1.85883e-05
-1.06607e-06
0.000744584
-5.40067e-06
0.000762724
-8.71734e-06
0.000777941
-1.06421e-05
0.000790534
-1.19525e-05
0.000801764
-1.40105e-05
0.000813352
-1.6363e-05
0.000824451
-1.86519e-05
0.000834664
-2.06797e-05
0.000843978
-2.28171e-05
0.0008526
-2.49735e-05
0.000859697
-2.64962e-05
0.000864937
-2.57757e-05
0.000869366
-2.41907e-05
0.000875653
-2.32777e-05
0.000884969
-2.20842e-05
0.000894703
-2.12196e-05
0.000906464
-2.05901e-05
0.000919946
-2.0835e-05
0.00093383
-2.16211e-05
0.000946329
-2.20402e-05
0.000957098
-2.22456e-05
0.000967123
-2.22657e-05
0.000975642
-2.18194e-05
0.000982265
-2.09841e-05
0.00098752
-1.98299e-05
0.000992696
-1.83721e-05
0.000998748
-1.70795e-05
0.00100459
-1.57506e-05
0.00101069
-1.45611e-05
0.00101675
-1.32997e-05
0.00102191
-1.19794e-05
0.00102706
-1.06116e-05
0.00103231
-9.2404e-06
0.00103769
-7.711e-06
0.0010431
-6.26719e-06
0.00104865
-4.88261e-06
0.00105409
-3.81322e-06
0.00105893
-2.73139e-06
0.00106322
-1.81005e-06
0.00106667
-8.84908e-07
0.00106966
3.18251e-08
0.00107192
1.09901e-06
0.00107306
2.12122e-06
0.00107363
-4.12494e-05
0.00107414
-4.32194e-05
0.00108158
-4.49381e-05
0.00108841
-4.6678e-05
0.00109468
-4.60283e-05
0.00110058
-3.07152e-05
0.0011073
7.82329e-05
0.00112285
0.000240463
0.00123198
-3.73465e-05
0.00159053
-0.000175079
0.00161433
-0.000222276
0.00161434
-0.00023577
0.00160756
-0.000234239
0.00159299
-0.000222558
0.00158662
-0.00020191
0.00158743
-0.000176925
0.00159223
-0.000154931
0.00159677
-0.00013241
0.00160144
-0.000114706
0.00160605
-9.63344e-05
0.00161102
-8.24223e-05
0.00161901
-6.8027e-05
0.00162721
-5.64931e-05
0.00163312
-4.80904e-05
0.0016402
-3.99832e-05
0.00164311
-3.25379e-05
0.00164144
-2.43504e-05
0.00163626
-1.58771e-05
0.00162841
-5.32987e-06
0.0016202
1.07105e-05
0.0016124
3.4333e-05
0.00160235
6.78716e-05
0.0015875
0.00012511
0.00156956
0.000178697
0.00154943
0.000248645
0.00151926
0.000308922
0.00149385
0.000344416
0.00147478
0.00035693
0.0014556
0.000352525
0.00141984
0.000316817
0.00137399
0.000262557
0.00131264
0.000200467
0.00123002
0.000166012
0.00114512
0.000162804
0.00106637
0.000170106
0.000997397
0.000175164
0.000935906
0.000176022
0.000877332
0.000174688
0.000818078
0.000166503
0.000754741
0.000164289
0.000698195
0.000157752
0.000653111
0.000144657
0.000615305
0.000133359
0.000577687
0.000130762
0.00053497
0.000123852
0.000485477
0.000120398
0.000444695
0.000109064
0.000414147
0.000100363
0.000389964
8.98147e-05
0.000366474
8.73584e-05
0.000343596
7.92105e-05
0.000320004
7.73088e-05
0.000294119
7.17769e-05
0.000268335
7.27449e-05
0.000247004
6.56564e-05
0.000227669
6.30812e-05
0.00021094
5.9889e-05
0.000194275
6.38038e-05
0.000178212
6.73948e-05
0.000160544
7.7107e-05
0.000141661
9.14735e-05
0.000120136
0.000112601
9.59162e-05
0.000130412
6.45004e-05
0.000163199
3.25386e-05
5.95141e-06
-1.75968e-05
0.000820838
-1.92796e-05
0.000819979
-2.10798e-05
0.000822538
-2.30821e-05
0.000828494
-2.56921e-05
0.000836729
-2.74556e-05
0.000845141
-2.79645e-05
0.000854619
-2.85388e-05
0.000865505
-2.91116e-05
0.000877264
-2.89669e-05
0.000890306
-2.82298e-05
0.000905653
-2.76296e-05
0.000922916
-2.91337e-05
0.000941095
-3.13514e-05
0.000957582
-3.29422e-05
0.000971199
-3.46245e-05
0.000983094
-3.58542e-05
0.000992982
-3.65154e-05
0.00100084
-3.58136e-05
0.00100771
-3.44596e-05
0.00101472
-3.25011e-05
0.00102324
-3.08153e-05
0.00103342
-2.90571e-05
0.00104437
-2.71125e-05
0.00105595
-2.56024e-05
0.00106791
-2.44686e-05
0.00107947
-2.34073e-05
0.00109025
-2.21821e-05
0.00109974
-2.09292e-05
0.00110852
-1.9726e-05
0.0011173
-1.83e-05
0.00112501
-1.69395e-05
0.0011314
-1.56773e-05
0.00113655
-1.44662e-05
0.00114152
-1.32932e-05
0.00114626
-1.19923e-05
0.00115001
-1.05864e-05
0.00115232
-8.95387e-06
0.00115355
-7.12223e-06
0.00115422
-5.30771e-06
0.00115542
-3.49175e-06
0.00115733
-1.80851e-06
0.00115949
-1.02333e-07
0.00116128
1.46343e-06
0.00116237
-4.86648e-05
0.00116323
-5.01801e-05
0.00116866
-5.137e-05
0.00117442
-5.24474e-05
0.00118046
-5.26436e-05
0.0011864
-4.71516e-05
0.00119339
-3.70539e-05
0.00120714
-0.000125657
0.00126411
-7.0655e-05
0.00135074
-0.000177163
0.00145782
-0.000218451
0.0014908
-0.000228005
0.00150715
-0.000233695
0.00152989
-0.000225146
0.00155377
-0.000206035
0.00157416
-0.000180632
0.00158803
-0.000158575
0.00159559
-0.000135072
0.00160415
-0.000117558
0.00161052
-9.8577e-05
0.00161841
-8.34189e-05
0.00162726
-6.7789e-05
0.00163392
-5.60317e-05
0.00163578
-4.72358e-05
0.00163472
-3.87915e-05
0.00163294
-3.04739e-05
0.00163119
-2.15243e-05
0.0016292
-1.20763e-05
0.00162749
-5.28839e-07
0.00162307
1.78097e-05
0.00161642
4.50855e-05
0.00160738
8.06494e-05
0.00159419
0.00014225
0.00157164
0.000209219
0.00154653
0.000274565
0.00152051
0.000333501
0.00150055
0.000368405
0.00148895
0.000393223
0.00147586
0.000397
0.00144958
0.000378561
0.00140745
0.000348568
0.00135237
0.000286078
0.00128363
0.00024424
0.00120524
0.000233737
0.0011222
0.000236888
0.00104092
0.000236978
0.000967736
0.000235908
0.000900911
0.000232641
0.000837083
0.000221195
0.000775183
0.000217196
0.000718933
0.000206535
0.000668802
0.000187703
0.000625153
0.00017491
0.000584132
0.000170285
0.000540901
0.00015873
0.00049636
0.000151874
0.000456333
0.000139305
0.000422841
0.000129034
0.00039297
0.000115805
0.000365296
0.000111071
0.000339201
0.000100174
0.000314076
9.75996e-05
0.000291228
9.09729e-05
0.00027015
9.17177e-05
0.000251961
8.42068e-05
0.000234707
8.24553e-05
0.000217606
7.869e-05
0.000198741
8.3802e-05
0.000179211
8.82186e-05
0.000158008
9.99627e-05
0.000135442
0.000116121
0.00011023
0.000144026
8.48579e-05
0.000161099
5.65884e-05
0.000193673
2.89974e-05
-4.04178e-05
-1.86359e-05
0.000757175
-2.3411e-05
0.000780255
-2.75157e-05
0.000799923
-3.02345e-05
0.000816694
-3.19755e-05
0.00083201
-3.40907e-05
0.000847687
-3.69665e-05
0.000863033
-3.98063e-05
0.000877551
-4.22829e-05
0.000891245
-4.47295e-05
0.000903872
-4.72179e-05
0.000915122
-4.92191e-05
0.00092453
-4.87016e-05
0.000932255
-4.71026e-05
0.000941735
-4.55141e-05
0.000954018
-4.4092e-05
0.000966881
-4.25442e-05
0.000981895
-4.12938e-05
0.000998474
-4.07618e-05
0.00101559
-4.08617e-05
0.0010317
-4.1055e-05
0.00104638
-4.06986e-05
0.00105932
-4.01466e-05
0.00107075
-3.9307e-05
0.0010807
-3.78845e-05
0.00108912
-3.60111e-05
0.00109694
-3.3883e-05
0.00110499
-3.17653e-05
0.00111358
-2.95752e-05
0.00112223
-2.74843e-05
0.0011305
-2.52152e-05
0.00113741
-2.3091e-05
0.0011447
-2.09322e-05
0.00115191
-1.86958e-05
0.00115914
-1.63232e-05
0.0011663
-1.39094e-05
0.00117341
-1.16842e-05
0.00118037
-9.60456e-06
0.00118703
-7.7746e-06
0.00119286
-6.0224e-06
0.00119789
-4.37932e-06
0.00120196
-2.66469e-06
0.00120543
-8.67279e-07
0.00120885
9.68516e-07
0.00121068
-5.35866e-05
0.00121179
-5.56464e-05
0.00121863
-5.75161e-05
0.00122551
-5.91391e-05
0.00123157
-6.09512e-05
0.00123833
-6.23594e-05
0.00124469
-9.75077e-05
0.00125489
-0.000249806
0.00125988
-0.000179479
0.00126021
-0.000208868
0.00136406
-0.000234374
0.00143757
-0.000246206
0.00148848
-0.000249136
0.00153916
-0.000242578
0.00158858
-0.000223551
0.00161975
-0.000194443
0.00163765
-0.00017072
0.001655
-0.00014228
0.00166105
-0.000126291
0.00167106
-0.000104309
0.0016735
-8.77599e-05
0.0016783
-6.92413e-05
0.00167852
-5.53713e-05
0.00167833
-4.6826e-05
0.00168031
-3.81462e-05
0.00168255
-2.88293e-05
0.0016834
-1.91642e-05
0.00168269
-8.01629e-06
0.00168107
5.14384e-06
0.00167656
2.46084e-05
0.00166951
5.4867e-05
0.00166034
9.84602e-05
0.00164647
0.000163021
0.00162005
0.000235628
0.00158427
0.000297845
0.00155581
0.000351598
0.0015264
0.00038719
0.00150738
0.000421815
0.00148567
0.000438837
0.00145458
0.000433586
0.00140574
0.000419463
0.00134094
0.000370058
0.00127422
0.000332558
0.00120131
0.000317859
0.00113122
0.000313026
0.00106802
0.000308327
0.00101008
0.000300585
0.000953599
0.000289752
0.000896932
0.00027296
0.00084189
0.000264957
0.000787278
0.00025335
0.00073086
0.000235971
0.000669144
0.000220733
0.000617159
0.00021171
0.000577438
0.000193997
0.000540797
0.000183374
0.000503484
0.000169084
0.000463617
0.000158202
0.000419913
0.000143032
0.000379337
0.000135971
0.000346996
0.00012157
0.000320158
0.000117732
0.000297157
0.000109478
0.000276345
0.000109918
0.000257642
0.000102451
0.000238766
0.000102926
0.000219972
9.96976e-05
0.000199578
0.000106167
0.000179587
0.000111929
0.000158061
0.000125831
0.000134798
0.000141128
0.000106852
0.000171611
7.92782e-05
0.000187483
5.10971e-05
0.000220954
2.72388e-05
-1.24979e-05
-3.99617e-05
0.000847658
-4.16989e-05
0.00085105
-4.40324e-05
0.000857858
-4.67844e-05
0.000867721
-4.98015e-05
0.000879613
-5.21186e-05
0.000891745
-5.32464e-05
0.000904712
-5.41882e-05
0.000918802
-5.50768e-05
0.000933988
-5.51201e-05
0.000950333
-5.46515e-05
0.000967911
-5.39283e-05
0.000987585
-5.48524e-05
0.00100873
-5.68559e-05
0.00102853
-5.79323e-05
0.00104534
-5.93229e-05
0.00106089
-5.99058e-05
0.00107447
-6.02483e-05
0.00108611
-5.9272e-05
0.0010964
-5.7395e-05
0.00110651
-5.53273e-05
0.00111757
-5.27293e-05
0.00112933
-5.03586e-05
0.00114248
-4.77945e-05
0.00115607
-4.53128e-05
0.0011694
-4.3144e-05
0.00118262
-4.1192e-05
0.00119526
-3.90425e-05
0.00120706
-3.69295e-05
0.00121864
-3.46281e-05
0.00122892
-3.23781e-05
0.0012377
-3.00411e-05
0.00124494
-2.77658e-05
0.00125241
-2.54975e-05
0.00125953
-2.32975e-05
0.00126539
-2.10804e-05
0.00126978
-1.89295e-05
0.00127315
-1.66594e-05
0.00127589
-1.39203e-05
0.00127828
-1.12276e-05
0.00128039
-8.7038e-06
0.00128232
-6.13914e-06
0.00128421
-3.56056e-06
0.00128577
-8.4397e-07
0.00128662
-6.04167e-05
0.00128657
-6.24788e-05
0.00129062
-6.42353e-05
0.00129539
-6.58499e-05
0.00129998
-6.76659e-05
0.00130368
-7.35749e-05
0.00130808
-0.000115504
0.00131437
-0.000291814
0.00131593
-0.000281856
0.00131734
-0.000275533
0.00142111
-0.000277029
0.00150807
-0.000284714
0.0015675
-0.000283769
0.00161765
-0.000274149
0.00165915
-0.000247655
0.00170029
-0.00021785
0.00172948
-0.000182425
0.00174488
-0.000159434
0.0017583
-0.000134538
0.00177111
-0.00011317
0.00177811
-9.31563e-05
0.00177936
-7.32077e-05
0.00177746
-5.69543e-05
0.00177638
-4.79553e-05
0.0017812
-3.88347e-05
0.00179151
-2.87662e-05
0.00179497
-1.77532e-05
0.00178939
-4.72731e-06
0.00178186
1.00159e-05
0.00177348
3.1097e-05
0.00176227
6.46696e-05
0.00174962
0.000119142
0.00173101
0.000193598
0.00170538
0.000264579
0.0016667
0.000330417
0.00163005
0.000376422
0.00158616
0.000416223
0.00154479
0.000457803
0.00149821
0.000488238
0.00144375
0.000499036
0.00137567
0.000487851
0.0013002
0.000447611
0.00122727
0.000412691
0.00115279
0.000391632
0.00109063
0.000377796
0.00103427
0.000367818
0.00097785
0.000358013
0.000924057
0.000343439
0.000872179
0.00032386
0.000821948
0.000314478
0.000771867
0.000304615
0.000719492
0.000287303
0.000668752
0.000269443
0.000620411
0.000254568
0.000574734
0.000231709
0.000531938
0.00021822
0.00049165
0.000205579
0.000452732
0.000193918
0.000416472
0.000173789
0.000384023
0.00016249
0.000353569
0.000144732
0.000325072
0.000139378
0.000299421
0.000129706
0.000275404
0.000130112
0.000253396
0.000122621
0.00023121
0.000125307
0.000209739
0.000121996
0.000187401
0.000129692
0.000165523
0.000136778
0.000141497
0.000154047
0.000116878
0.000167814
8.97943e-05
0.000198421
6.69404e-05
0.000209958
4.43761e-05
0.000246133
2.45901e-05
-6.7228e-05
-4.51581e-05
0.000780157
-4.99359e-05
0.000806238
-5.43158e-05
0.000829495
-5.77611e-05
0.000850347
-6.00844e-05
0.000869695
-6.23621e-05
0.000889199
-6.53001e-05
0.000908513
-6.83862e-05
0.000927403
-7.1066e-05
0.000945498
-7.32513e-05
0.000962548
-7.58335e-05
0.000978399
-7.78822e-05
0.000992411
-7.76096e-05
0.0010049
-7.62391e-05
0.0010187
-7.4479e-05
0.00103449
-7.28439e-05
0.00105085
-7.08539e-05
0.00106874
-6.90083e-05
0.00108744
-6.74689e-05
0.00110698
-6.64794e-05
0.00112605
-6.57858e-05
0.0011435
-6.43617e-05
0.00115934
-6.2984e-05
0.00117413
-6.13593e-05
0.00118782
-5.91091e-05
0.00119978
-5.63211e-05
0.0012109
-5.35075e-05
0.00122149
-5.04347e-05
0.00123222
-4.72651e-05
0.00124279
-4.40849e-05
0.00125318
-4.08685e-05
0.00126313
-3.7628e-05
0.00127251
-3.43787e-05
0.00128163
-3.11108e-05
0.00129045
-2.78133e-05
0.00129907
-2.44727e-05
0.00130749
-2.13174e-05
0.00131574
-1.83324e-05
0.00132335
-1.51256e-05
0.00133011
-1.23752e-05
0.00133621
-9.79719e-06
0.00134185
-7.1366e-06
0.00134628
-4.30994e-06
0.00135023
-1.06617e-06
0.00135337
-6.39136e-05
0.00135583
-6.65276e-05
0.0013609
-6.87324e-05
0.00136646
-7.0435e-05
0.00137131
-7.24525e-05
0.00137545
-8.02076e-05
0.00138026
-0.000132908
0.00138945
-0.000339599
0.00141401
-0.000378878
0.00151748
-0.000351034
0.00160965
-0.000334757
0.00168051
-0.000343357
0.0017269
-0.000328103
0.00176445
-0.000303521
0.00179144
-0.00027114
0.00182172
-0.000237376
0.00185409
-0.000198893
0.00186904
-0.000173222
0.00187536
-0.000145464
0.00188131
-0.000121339
0.00188798
-9.91466e-05
0.00189109
-7.73411e-05
0.00188709
-5.82864e-05
0.00188427
-4.73352e-05
0.00188879
-3.64798e-05
0.00189504
-2.58498e-05
0.00189369
-1.35255e-05
0.00188402
6.63204e-07
0.00187386
1.74565e-05
0.00186543
4.07952e-05
0.00185725
8.09783e-05
0.00184598
0.000143158
0.0018339
0.000230678
0.00180123
0.000305024
0.0017633
0.000379537
0.00171402
0.000424873
0.00166585
0.000469944
0.00158868
0.000520668
0.00150207
0.000562432
0.00141266
0.000579299
0.00131927
0.000562803
0.00123226
0.000525349
0.00115014
0.000483288
0.00107571
0.000454785
0.00101629
0.000434263
0.000953039
0.000420508
0.000897353
0.00040979
0.000850004
0.000395367
0.000804722
0.00037601
0.000762269
0.000366188
0.00071998
0.000352534
0.000677899
0.000331232
0.00063911
0.000311384
0.000600236
0.000295235
0.000560083
0.000271392
0.000520789
0.0002587
0.00048272
0.00024362
0.00044563
0.000227791
0.000412162
0.000204033
0.000382583
0.000190791
0.000354187
0.000170506
0.000326448
0.000164453
0.00030095
0.000153486
0.000276378
0.000153735
0.000253742
0.000145379
0.000231175
0.000149379
0.000209277
0.000145863
0.000185736
0.00015517
0.000161919
0.000162001
0.000134887
0.000180862
0.00010963
0.000189779
8.49243e-05
0.000219473
6.40212e-05
0.000227918
4.32394e-05
0.000268129
2.48769e-05
-4.13587e-05
-6.94961e-05
0.000872955
-7.20504e-05
0.000881362
-7.48574e-05
0.000892579
-7.80375e-05
0.000905785
-8.14244e-05
0.000921288
-8.42802e-05
0.000937266
-8.58198e-05
0.000953617
-8.74088e-05
0.000970581
-8.83747e-05
0.000988596
-8.86643e-05
0.00100745
-8.88114e-05
0.00102768
-8.81547e-05
0.00104916
-8.82586e-05
0.00107168
-8.95165e-05
0.00109381
-8.99851e-05
0.00111427
-9.03706e-05
0.00113276
-9.01644e-05
0.00114946
-8.96735e-05
0.00116478
-8.82009e-05
0.00117911
-8.58495e-05
0.00119298
-8.32274e-05
0.00120719
-7.99314e-05
0.00122179
-7.67525e-05
0.00123649
-7.3324e-05
0.00125107
-6.99038e-05
0.0012663
-6.66085e-05
0.00128132
-6.35714e-05
0.00129561
-6.02299e-05
0.00130899
-5.69371e-05
0.00132158
-5.35546e-05
0.00133347
-5.0041e-05
0.00134417
-4.65543e-05
0.00135373
-4.29539e-05
0.0013623
-3.94933e-05
0.00137007
-3.6091e-05
0.00137714
-3.28745e-05
0.00138354
-2.94082e-05
0.00138922
-2.58758e-05
0.0013939
-2.235e-05
0.00139741
-1.92584e-05
0.00140036
-1.53314e-05
0.00140263
-1.141e-05
0.00140464
-7.7846e-06
0.00140685
-4.18392e-06
0.00140911
-6.95679e-05
0.00141101
-7.20087e-05
0.00141434
-7.38082e-05
0.00141807
-7.53621e-05
0.00142211
-7.78492e-05
0.00142625
-8.92228e-05
0.00143072
-0.000167727
0.00144116
-0.000479664
0.00150929
-0.000480224
0.00165489
-0.000422333
0.00176016
-0.00038117
0.00182683
-0.00037999
0.00186491
-0.000355545
0.00189781
-0.000330086
0.0019217
-0.000293636
0.00194694
-0.000255449
0.00197043
-0.000214909
0.00198413
-0.000176807
0.0019747
-0.000149207
0.00197312
-0.000124488
0.00198012
-0.000100892
0.00198713
-8.06684e-05
0.00199834
-5.92002e-05
0.00199582
-4.50762e-05
0.00198717
-3.28386e-05
0.00197867
-2.26897e-05
0.00197101
-9.09952e-06
0.00195901
7.34579e-06
0.00194612
2.44039e-05
0.00192948
5.20741e-05
0.00191009
9.54124e-05
0.00188513
0.000175951
0.00183865
0.000266115
0.00177608
0.000355373
0.00168796
0.00042842
0.00159416
0.000499014
0.00148222
0.000558922
0.00137845
0.000615511
0.0012807
0.0006578
0.00120177
0.000666509
0.00114098
0.000643797
0.0010909
0.000600894
0.00104112
0.000550807
0.000989608
0.000520704
0.000937082
0.000488576
0.000887035
0.000466367
0.000840735
0.000454515
0.000795172
0.000438535
0.000752727
0.000417996
0.000719896
0.000406307
0.000688531
0.000390004
0.000655681