/*--------------------------------*- C++ -*----------------------------------*\
| =========                 |                                                 |
| \\      /  F ield         | OpenFOAM: The Open Source CFD Toolbox           |
|  \\    /   O peration     | Version:  2.2.x                                 |
|   \\  /    A nd           | Web:      www.OpenFOAM.org                      |
|    \\/     M anipulation  |                                                 |
\*---------------------------------------------------------------------------*/
FoamFile
{
    version     2.0;
    format      ascii;
    class       volScalarField;
    location    "1.2";
    object      By;
}
// * * * * * * * * * * * * * * * * * * * * * * * * * * * * * * * * * * * * * //

dimensions      [1 0 -2 0 0 -1 0];

internalField   nonuniform List<scalar> 
14161
(
-1.58834e-06
-4.90084e-07
-5.39913e-07
-2.60952e-07
-5.62892e-07
-5.63552e-07
-2.03562e-07
-1.70714e-07
-1.41023e-06
1.78328e-08
9.20292e-07
-5.77993e-06
5.11949e-06
1.96141e-06
-1.36104e-05
5.57292e-06
1.39195e-05
-9.12375e-06
-2.63879e-05
1.01946e-05
3.40173e-05
-7.72145e-06
-4.73327e-05
-1.10876e-06
4.98906e-05
1.73598e-05
-2.58623e-05
-2.6375e-05
-8.27129e-07
2.30687e-05
4.49985e-05
3.28718e-05
-7.65382e-06
-5.79277e-06
2.49482e-05
4.64934e-05
8.9852e-05
8.3401e-05
9.55852e-05
0.000107593
0.000122305
9.87216e-05
0.00011971
0.000181146
0.000264865
0.000345257
0.000518363
0.000504999
0.000182039
0.00101852
0.00786642
0.0210987
0.00902229
-0.00214236
-0.0123301
-0.0183413
-0.0200146
-0.0220246
-0.0196972
-0.0177226
-0.0152325
-0.0132904
-0.0114234
-0.0102395
-0.00822256
-0.00688585
-0.0057984
-0.00497927
-0.00377344
-0.00261987
-0.00186296
-0.00159078
-0.00148073
-0.00158153
-0.00155129
-0.00147132
-0.00162017
-0.00172387
-0.00235889
-0.00160228
-0.00122665
-0.00152354
-0.0021537
-0.00120895
-0.00115039
-0.00161016
-0.00189155
-0.00192544
-0.00151462
-0.00142959
-0.00198765
-0.0018031
-0.00151422
-0.00181921
-0.00157469
-0.00121895
-0.00156426
-0.000794786
0.0021684
0.00789767
0.0196212
0.0427233
0.0602614
0.0732569
0.0649594
0.0516518
0.0417169
0.035437
0.0310364
0.0280096
0.026223
0.0252922
0.0250429
0.0250637
0.0258977
0.0270654
0.0279546
0.0267838
0.0260286
-3.07509e-06
-1.16596e-06
-1.45949e-06
-7.1889e-07
-1.82552e-06
-1.77409e-06
-3.7105e-07
-5.25896e-07
-3.48855e-06
-5.63244e-07
1.9391e-06
-1.10043e-05
8.19101e-06
4.17817e-06
-3.23296e-05
1.23842e-05
3.69255e-05
-2.98195e-05
-5.61022e-05
3.58882e-05
7.36845e-05
-2.24888e-05
-0.000104792
-2.1994e-06
0.000116281
5.73168e-05
-6.5013e-05
-8.3881e-05
-8.34094e-06
7.74093e-05
0.000123473
8.42496e-05
-2.6615e-07
-6.55601e-06
4.94741e-05
0.000126107
0.000217326
0.000256666
0.000297049
0.000326666
0.00038078
0.000453781
0.000619268
0.000703295
0.00095245
0.00119711
0.00175263
0.00143088
0.00147596
0.00485027
0.0313568
0.0485754
0.0173359
-0.0112544
-0.0409006
-0.0570027
-0.0602273
-0.0641371
-0.0603847
-0.0540526
-0.04842
-0.043052
-0.0379188
-0.0341688
-0.027949
-0.023861
-0.0203372
-0.0174022
-0.0138176
-0.0103618
-0.00820446
-0.00682518
-0.00543635
-0.00443092
-0.00424419
-0.00421947
-0.00466404
-0.00532852
-0.00673134
-0.00525298
-0.00425252
-0.00516772
-0.0062068
-0.00447557
-0.00399097
-0.00536515
-0.00612258
-0.00619836
-0.00506712
-0.00476272
-0.00667189
-0.00630883
-0.00505112
-0.00605896
-0.00459388
-0.00459617
-0.00319768
-0.000296246
0.0064632
0.0209337
0.0563189
0.129779
0.187398
0.205839
0.178758
0.148613
0.123879
0.106158
0.0931875
0.0842185
0.0785982
0.0751229
0.0739425
0.0739073
0.0747367
0.0767746
0.0776332
0.0728858
0.071844
-4.65002e-06
-2.06577e-06
-2.58486e-06
-1.42081e-06
-2.95238e-06
-3.24506e-06
-5.16762e-07
-8.06542e-07
-6.09348e-06
-8.2552e-07
1.85723e-06
-1.65209e-05
1.46899e-05
2.1269e-06
-5.07057e-05
2.51814e-05
5.87242e-05
-5.78042e-05
-8.56154e-05
7.18486e-05
0.000114087
-5.7179e-05
-0.000160188
1.85497e-05
0.000170193
8.5856e-05
-0.000112239
-0.000126776
3.24466e-07
0.000159092
0.000200046
0.000126547
-3.59928e-06
1.15448e-05
8.4895e-05
0.00019706
0.000314158
0.000476306
0.000592713
0.000683402
0.000783959
0.000990691
0.00127803
0.00152792
0.00193346
0.00227512
0.00303258
0.00349772
0.0041844
0.0136662
0.0674537
0.0811709
0.0259235
-0.0295153
-0.0753622
-0.102495
-0.105658
-0.107069
-0.100616
-0.0895326
-0.0817824
-0.0723078
-0.0645
-0.0575579
-0.0479877
-0.0409148
-0.0347022
-0.0296893
-0.0237529
-0.0179004
-0.0141677
-0.0115907
-0.00980202
-0.00798484
-0.00743821
-0.00693704
-0.0077297
-0.00934752
-0.0102933
-0.0080198
-0.00674085
-0.00866051
-0.00905936
-0.0066192
-0.00591561
-0.00828178
-0.00963611
-0.00931623
-0.00736838
-0.0067573
-0.0100124
-0.00946343
-0.00692146
-0.00826554
-0.00643969
-0.0060947
-0.00147904
0.00517441
0.0230371
0.0632658
0.13273
0.251609
0.30753
0.307012
0.263073
0.221555
0.188573
0.164342
0.146254
0.133632
0.126019
0.121607
0.12037
0.12083
0.121768
0.124925
0.125893
0.117851
0.117857
-6.19268e-06
-3.05237e-06
-3.68112e-06
-2.09534e-06
-3.64356e-06
-4.66422e-06
-5.94911e-07
-1.43575e-06
-8.4575e-06
-1.31545e-06
1.10824e-06
-1.90047e-05
1.56918e-05
-7.26795e-08
-5.87902e-05
3.30381e-05
6.47962e-05
-8.05789e-05
-9.54292e-05
9.85592e-05
0.000130193
-8.39574e-05
-0.000175947
2.72267e-05
0.000208789
8.80928e-05
-0.000142576
-0.00016586
1.62942e-05
0.000222909
0.000270771
0.000151592
1.76303e-06
1.92133e-05
0.000105604
0.000268538
0.00044399
0.000651154
0.000853478
0.000983928
0.00111425
0.00135724
0.00158125
0.00190894
0.00235152
0.00295045
0.00400422
0.0046821
0.00718713
0.0214336
0.104665
0.115474
0.0289383
-0.0598859
-0.118693
-0.153255
-0.160073
-0.156189
-0.144115
-0.125756
-0.11331
-0.097484
-0.0855234
-0.073494
-0.0615918
-0.0518832
-0.0427195
-0.036231
-0.0290757
-0.0221626
-0.0181501
-0.0149602
-0.0125899
-0.0107736
-0.00966822
-0.00914351
-0.0099286
-0.0125563
-0.0133957
-0.010946
-0.0093013
-0.0121343
-0.0124453
-0.00994661
-0.00921799
-0.012047
-0.0143248
-0.0134207
-0.0115629
-0.011016
-0.0142481
-0.0129029
-0.00896125
-0.00960411
-0.0064949
-0.00374651
0.00599543
0.0255233
0.0619114
0.141204
0.264157
0.375613
0.41727
0.394252
0.337778
0.287259
0.247521
0.217867
0.195886
0.180471
0.170723
0.165032
0.163613
0.164091
0.165646
0.169472
0.171234
0.16023
0.161593
-7.90698e-06
-4.18035e-06
-4.77062e-06
-2.70808e-06
-4.20595e-06
-6.53034e-06
-8.20759e-07
-2.54581e-06
-1.03218e-05
-1.16612e-06
-1.02138e-06
-1.87591e-05
1.43574e-05
-7.1119e-06
-5.51944e-05
3.47243e-05
5.75726e-05
-8.91668e-05
-8.76549e-05
0.000103231
0.000118088
-7.93106e-05
-0.000153059
2.14362e-05
0.000184374
7.44357e-05
-0.000118594
-0.000119585
1.69133e-05
0.000244777
0.0002839
0.000134169
3.35509e-05
6.40285e-05
0.000155833
0.000333409
0.00057704
0.00085531
0.0010442
0.00121529
0.00143331
0.00171786
0.00205285
0.00257506
0.00319468
0.0038675
0.0051093
0.0062332
0.00931616
0.0307099
0.136958
0.153013
0.024635
-0.102468
-0.169706
-0.207262
-0.214631
-0.202848
-0.186085
-0.162944
-0.144735
-0.124345
-0.108254
-0.0904257
-0.0760812
-0.0637834
-0.0519862
-0.0418018
-0.0344098
-0.0265124
-0.0218489
-0.0177555
-0.0146982
-0.0135903
-0.0130271
-0.0127425
-0.013325
-0.0163396
-0.0171374
-0.0145508
-0.0124864
-0.0154095
-0.0154475
-0.0129271
-0.0116033
-0.0145074
-0.017144
-0.0160345
-0.0145771
-0.0132046
-0.0154321
-0.0130978
-0.00808674
-0.00845532
-0.0010519
0.00858629
0.0312673
0.0793448
0.150995
0.28971
0.409345
0.477749
0.488365
0.45312
0.394596
0.34038
0.297709
0.265085
0.240619
0.223439
0.21237
0.205674
0.204154
0.204567
0.206801
0.211177
0.214241
0.201079
0.203704
-8.81319e-06
-4.68592e-06
-5.39949e-06
-3.58964e-06
-4.90648e-06
-7.76414e-06
-1.30016e-06
-3.86429e-06
-1.20252e-05
-1.04147e-07
-4.77714e-06
-1.65699e-05
1.13182e-05
-1.41734e-05
-4.53683e-05
2.94246e-05
4.10991e-05
-8.04266e-05
-6.33085e-05
8.31794e-05
8.06972e-05
-5.84645e-05
-0.000111505
2.33794e-05
0.000123153
4.56421e-05
-5.49849e-05
-7.01986e-05
3.85076e-05
0.000217547
0.000223344
0.000137128
8.78098e-05
0.000129269
0.000211113
0.000360214
0.000583256
0.00088439
0.00111372
0.00131262
0.00156142
0.00188937
0.00233293
0.00295285
0.00376289
0.00468319
0.00612922
0.00773062
0.012101
0.0322667
0.15104
0.178583
0.00427617
-0.16081
-0.233198
-0.267971
-0.270587
-0.250285
-0.226346
-0.194955
-0.168691
-0.14379
-0.123771
-0.10297
-0.0854714
-0.0687793
-0.0560253
-0.0421881
-0.0342969
-0.0285853
-0.0213021
-0.0175709
-0.014434
-0.0130575
-0.0135812
-0.0139447
-0.0142393
-0.0170903
-0.018414
-0.0166498
-0.0144047
-0.017398
-0.0178816
-0.0167203
-0.0148449
-0.0178861
-0.0192282
-0.018202
-0.0178533
-0.01457
-0.0140308
-0.0108004
-0.00267758
-0.000602018
0.0144892
0.0447685
0.0891036
0.184306
0.313327
0.443156
0.515243
0.550631
0.537009
0.49586
0.439069
0.384055
0.340424
0.306615
0.281161
0.262942
0.250849
0.243516
0.242029
0.242334
0.245443
0.24998
0.255006
0.2403
0.243911
-9.68355e-06
-5.63561e-06
-6.61511e-06
-5.0596e-06
-5.45118e-06
-8.3435e-06
-2.27544e-06
-6.77297e-06
-1.20663e-05
9.81225e-07
-1.04519e-05
-1.29783e-05
5.97814e-06
-2.35555e-05
-2.84413e-05
2.48268e-05
6.92813e-06
-5.99425e-05
-2.18488e-05
4.95902e-05
2.91887e-05
-3.04428e-05
-3.92073e-05
1.71453e-05
4.19774e-05
1.25126e-05
-4.49146e-06
7.17311e-06
8.63549e-05
0.000163427
0.000150785
0.000144931
0.000175073
0.000214357
0.000285018
0.000408939
0.000599085
0.000869576
0.00111795
0.00139738
0.00166123
0.0019588
0.00229651
0.00275067
0.00338029
0.00401929
0.00484732
0.00583166
0.00863722
0.0205288
0.107432
0.198893
-0.0179168
-0.227264
-0.300748
-0.31941
-0.309118
-0.282621
-0.254977
-0.220497
-0.189072
-0.160943
-0.136184
-0.110789
-0.0910805
-0.0710386
-0.0576201
-0.0435076
-0.0332114
-0.0282216
-0.0217362
-0.0176723
-0.0155999
-0.0154819
-0.0166201
-0.0179583
-0.0174107
-0.0201941
-0.0213785
-0.02
-0.017532
-0.0194303
-0.01929
-0.0187647
-0.0161022
-0.0185476
-0.019615
-0.0177345
-0.0163832
-0.0121802
-0.00858364
-0.00330366
0.0114571
0.0287804
0.0582994
0.124212
0.214992
0.351485
0.473986
0.551348
0.589285
0.595052
0.572028
0.527622
0.473453
0.419018
0.377087
0.343422
0.317979
0.299426
0.286847
0.279165
0.277725
0.277751
0.281918
0.286464
0.292794
0.278048
0.282348
-1.06653e-05
-6.52187e-06
-7.66401e-06
-6.30362e-06
-5.64444e-06
-8.05004e-06
-4.40947e-06
-8.23819e-06
-1.14887e-05
-4.93246e-07
-1.56579e-05
-8.3089e-06
-8.0183e-07
-2.83102e-05
-6.89267e-06
1.10469e-05
-3.01139e-05
-2.37069e-05
1.15537e-05
3.81509e-06
-2.90423e-05
6.51405e-06
4.11136e-05
-5.11121e-07
-4.13743e-05
-3.14965e-05
4.47818e-05
0.000113189
0.000130623
7.97696e-05
5.40687e-05
0.000113755
0.000195414
0.000304633
0.000385957
0.000449122
0.00054534
0.000719129
0.000900076
0.0011706
0.00155547
0.00193749
0.00238224
0.00285127
0.0033254
0.00388033
0.00447388
0.00475918
0.00621293
0.0112985
0.0531631
0.146034
-0.0982069
-0.310199
-0.36811
-0.368782
-0.351896
-0.318246
-0.278751
-0.239923
-0.202834
-0.170549
-0.141627
-0.1136
-0.0900575
-0.0681724
-0.05382
-0.0424473
-0.0302427
-0.0233897
-0.0182799
-0.01501
-0.0148931
-0.0158127
-0.0177158
-0.0197091
-0.0191888
-0.0214725
-0.0222705
-0.0211072
-0.0183932
-0.0187852
-0.0183939
-0.0190303
-0.0167876
-0.0159251
-0.0162401
-0.0131468
-0.0110156
-0.00430065
0.0091904
0.0199022
0.0473678
0.0940715
0.152347
0.277484
0.397888
0.511056
0.582753
0.62133
0.637745
0.625602
0.595439
0.5527
0.499746
0.448368
0.40835
0.375671
0.351112
0.332796
0.320178
0.312536
0.311373
0.311307
0.316384
0.320849
0.327553
0.313575
0.318625
-1.15199e-05
-7.47803e-06
-8.61903e-06
-7.54583e-06
-6.29188e-06
-7.96895e-06
-7.70499e-06
-1.0173e-05
-8.31873e-06
-4.33577e-06
-1.82164e-05
-3.43279e-06
-1.17242e-05
-2.85716e-05
1.16723e-05
-1.13367e-05
-5.24062e-05
1.72657e-05
3.23713e-05
-4.73965e-05
-6.78677e-05
5.35388e-05
9.84125e-05
-1.18289e-05
-0.00012479
-6.32554e-05
0.000108282
0.00021699
0.000158604
-1.7188e-06
-3.87116e-05
9.12117e-05
0.000242974
0.000381001
0.000497724
0.000544991
0.000539527
0.000569596
0.000656285
0.000864292
0.00113874
0.00155508
0.00194128
0.002204
0.00232912
0.00255169
0.00264725
0.00316262
0.00215363
0.000855237
-0.0132663
-0.0312212
-0.252266
-0.351652
-0.376295
-0.375056
-0.366478
-0.337393
-0.297511
-0.253755
-0.210588
-0.170422
-0.141628
-0.110778
-0.0870018
-0.0694277
-0.0505574
-0.0385239
-0.0245064
-0.0189168
-0.0172118
-0.0143737
-0.0143898
-0.0156006
-0.0181197
-0.0207659
-0.0212916
-0.0226935
-0.0235882
-0.0223406
-0.0196463
-0.0180618
-0.0155826
-0.0152966
-0.0128765
-0.00871143
-0.00938191
-0.00278062
0.00617368
0.0191813
0.0460833
0.0789069
0.128569
0.227792
0.333611
0.455139
0.549687
0.612782
0.649308
0.668655
0.665744
0.646705
0.614208
0.571014
0.520297
0.473239
0.435733
0.40494
0.381752
0.364054
0.351703
0.344344
0.343428
0.34323
0.348907
0.352936
0.359935
0.347085
0.352846
-1.21962e-05
-8.16161e-06
-8.99846e-06
-8.75364e-06
-7.17454e-06
-6.96282e-06
-1.13368e-05
-1.05654e-05
-4.66348e-06
-1.16402e-05
-1.81718e-05
-1.10371e-06
-2.60716e-05
-2.08811e-05
1.9547e-05
-3.96968e-05
-5.87324e-05
4.98652e-05
3.62183e-05
-9.77343e-05
-7.48892e-05
0.000100726
0.000133852
-4.57355e-05
-0.000189853
-6.89133e-05
0.0001674
0.000284027
0.000154948
-4.68093e-05
-7.74227e-05
5.99558e-05
0.000234532
0.000416365
0.000541043
0.000521855
0.000450417
0.000405353
0.000474619
0.000607593
0.000799737
0.00106133
0.00140988
0.00169508
0.00173752
0.00182773
0.00156735
0.00202472
0.000692435
-0.00766553
-0.0656452
-0.309279
-0.483719
-0.4129
-0.377718
-0.367093
-0.359506
-0.333341
-0.301417
-0.263576
-0.218491
-0.173466
-0.139528
-0.104795
-0.080074
-0.0627748
-0.0419461
-0.0308794
-0.022072
-0.0134552
-0.0114888
-0.0116806
-0.0134479
-0.0159086
-0.0183272
-0.0205951
-0.0213298
-0.0213659
-0.0216355
-0.0195875
-0.0169099
-0.0138613
-0.00932488
-0.00850782
-0.00505511
0.00581098
0.00901482
0.0216781
0.0476625
0.0756307
0.129219
0.203155
0.296922
0.409158
0.510559
0.588984
0.641491
0.674284
0.69294
0.695987
0.68426
0.660968
0.62848
0.584668
0.536954
0.493562
0.458962
0.430436
0.409052
0.3924
0.380819
0.374125
0.37378
0.373627
0.379746
0.383141
0.390359
0.378753
0.38484
-1.31286e-05
-8.93587e-06
-9.76886e-06
-9.99387e-06
-9.09454e-06
-6.05382e-06
-1.47253e-05
-1.03668e-05
-2.88905e-06
-2.0527e-05
-1.33822e-05
-1.85167e-06
-3.75346e-05
-7.01287e-06
1.84746e-05
-6.24593e-05
-4.96603e-05
6.13459e-05
2.17145e-05
-0.000120717
-6.65685e-05
0.000119417
0.000127511
-5.69115e-05
-0.000186594
-6.94775e-05
0.000176749
0.000272009
0.000104862
-4.61596e-05
-1.75768e-05
2.69597e-05
0.000175245
0.0004255
0.000505616
0.000414856
0.000320037
0.000313853
0.000361441
0.000396415
0.000495401
0.00056955
0.000710829
0.000904624
0.000849464
0.000892853
0.000407975
-0.000108132
-0.0038848
-0.0257377
-0.173436
-0.605846
-0.657951
-0.503719
-0.398179
-0.376763
-0.352802
-0.324365
-0.298612
-0.266484
-0.222244
-0.176338
-0.138988
-0.0999347
-0.0735551
-0.0565117
-0.0369441
-0.0216098
-0.0148189
-0.00988877
-0.00614452
-0.00702559
-0.0107044
-0.0140048
-0.0163783
-0.0183189
-0.0183003
-0.016912
-0.016857
-0.0135098
-0.00996388
-0.00592492
0.002139
0.00958363
0.0163907
0.0379383
0.056251
0.0836117
0.140771
0.20343
0.292717
0.390534
0.48104
0.566866
0.62627
0.668349
0.69577
0.711987
0.718336
0.711509
0.696046
0.671922
0.638596
0.596024
0.551698
0.512375
0.480771
0.454506
0.434783
0.419117
0.408403
0.402395
0.402622
0.402512
0.408848
0.411326
0.418594
0.408147
0.414511
-1.3468e-05
-9.43669e-06
-1.05012e-05
-1.04562e-05
-1.02904e-05
-7.31973e-06
-1.67209e-05
-1.03819e-05
-4.22123e-06
-2.57631e-05
-9.17647e-06
-6.12434e-06
-4.37291e-05
1.71407e-06
8.54912e-06
-7.07098e-05
-3.71498e-05
5.48905e-05
2.79028e-07
-0.000111491
-4.64573e-05
9.41197e-05
8.14493e-05
-3.65734e-05
-0.000128405
-4.6384e-05
0.000132087
0.000184546
7.33002e-05
1.58608e-05
3.38694e-05
5.28471e-05
0.000141953
0.000295071
0.00034867
0.000310284
0.000238237
0.000188654
0.000173579
0.000172595
9.91462e-05
5.82962e-05
2.80614e-05
2.45677e-05
-1.7862e-05
-0.000405292
-0.00109122
-0.00253519
-0.00961535
-0.0540827
-0.358751
-0.78162
-0.747263
-0.618082
-0.493712
-0.41065
-0.361796
-0.333922
-0.307651
-0.277548
-0.227536
-0.17915
-0.137065
-0.0958243
-0.0667947
-0.0482766
-0.0281658
-0.0109648
-0.00424749
-0.00258458
0.000134767
-0.00168005
-0.00681088
-0.0108549
-0.0133253
-0.0141153
-0.0133255
-0.00946752
-0.00826539
-0.00242661
0.00813155
0.0156909
0.0314248
0.0537347
0.0725761
0.109564
0.160989
0.22243
0.313136
0.391568
0.476246
0.556062
0.613036
0.657717
0.692157
0.715071
0.727752
0.734582
0.731061
0.721159
0.703767
0.678898
0.645595
0.604606
0.563351
0.527841
0.499336
0.475618
0.457924
0.443659
0.434212
0.429077
0.42997
0.430025
0.436498
0.437972
0.445165
0.436006
0.442445
-1.44727e-05
-1.03198e-05
-1.14851e-05
-1.10949e-05
-1.21703e-05
-8.86614e-06
-1.72535e-05
-9.59472e-06
-8.4697e-06
-2.63821e-05
-5.51603e-06
-1.50228e-05
-4.0701e-05
3.05661e-06
-6.85995e-06
-6.58858e-05
-2.03838e-05
3.42259e-05
-2.79959e-05
-7.97035e-05
-7.76108e-06
5.10474e-05
2.29633e-05
-2.75281e-05
-4.4386e-05
-9.09707e-07
6.00132e-05
6.67207e-05
7.19147e-05
7.33376e-05
8.13472e-05
0.000110237
0.000133632
0.000138034
0.000178507
0.000206099
0.000179777
0.0001455
9.98208e-05
2.17806e-05
-1.45929e-05
-0.000146507
-0.000234569
-0.000344163
-0.000362388
-0.00035695
-0.00057788
-0.00191867
-0.0122852
-0.103021
-0.565824
-0.806915
-0.781737
-0.731895
-0.641183
-0.508423
-0.414193
-0.370267
-0.327264
-0.287442
-0.233389
-0.186364
-0.138296
-0.0928958
-0.0595563
-0.0389134
-0.0168249
-0.000805342
0.00437135
0.00365158
0.00438398
0.00145023
-0.00384126
-0.00750378
-0.00709234
-0.00639159
-0.00267936
0.00756022
0.0147624
0.0254415
0.0495267
0.0716522
0.0987649
0.149853
0.198178
0.264804
0.345302
0.410582
0.491457
0.557961
0.610514
0.652236
0.687724
0.713551
0.730521
0.740988
0.74673
0.745377
0.739024
0.726755
0.708795
0.683454
0.651314
0.613076
0.575657
0.543392
0.517323
0.495579
0.47953
0.466506
0.458368
0.454057
0.455671
0.455872
0.46257
0.463069
0.469833
0.461688
0.468051
-1.49055e-05
-1.07934e-05
-1.23209e-05
-1.16028e-05
-1.2608e-05
-1.15872e-05
-1.55769e-05
-1.02329e-05
-1.48381e-05
-2.44009e-05
-6.50115e-06
-2.63665e-05
-3.08719e-05
-5.26185e-07
-2.91437e-05
-4.66447e-05
-7.58011e-06
-5.69541e-06
-4.34912e-05
-2.4936e-05
7.31026e-06
-9.5736e-06
-3.66625e-05
-7.26539e-06
4.81812e-05
3.5258e-05
-2.37318e-05
-4.11426e-05
4.94792e-05
0.000125754
0.000136239
0.0001621
0.000103872
8.28844e-06
-1.55381e-05
6.01001e-05
0.000145179
0.000140263
8.89838e-05
2.22146e-05
-2.7981e-05
-0.000199943
-0.000418623
-0.000769457
-0.000921514
-0.00111927
-0.00160825
-0.00476402
-0.0262374
-0.19321
-0.710293
-0.830899
-0.812929
-0.785777
-0.73806
-0.646406
-0.52968
-0.436545
-0.364955
-0.305586
-0.246724
-0.194566
-0.135341
-0.0903165
-0.0489555
-0.0232097
-0.00616321
0.00980266
0.0130184
0.0136331
0.0113492
0.00669806
0.00515993
0.00565504
0.010436
0.0188902
0.0256238
0.0471541
0.0734019
0.0953233
0.140859
0.196081
0.25191
0.324027
0.383974
0.449653
0.518093
0.569223
0.616761
0.651356
0.686757
0.71254
0.730063
0.742959
0.751067
0.755948
0.75603
0.751819
0.743148
0.730146
0.711165
0.686144
0.655022
0.619546
0.585746
0.557137
0.533814
0.514321
0.499979
0.488267
0.481421
0.477834
0.480024
0.480278
0.487149
0.486697
0.492962
0.485867
0.492119
-1.57128e-05
-1.15415e-05
-1.32843e-05
-1.20753e-05
-1.34729e-05
-1.49405e-05
-1.19157e-05
-1.37568e-05
-2.07213e-05
-1.49286e-05
-1.19149e-05
-3.30335e-05
-1.57427e-05
-1.14231e-05
-4.58109e-05
-1.72803e-05
-4.74814e-06
-5.78675e-05
-4.47351e-05
3.03739e-05
3.95948e-06
-7.97401e-05
-7.16265e-05
3.83935e-05
0.000111108
5.70969e-05
-9.80158e-05
-0.000123968
3.1023e-05
0.000184433
0.000204828
0.000196393
8.9948e-05
-7.17039e-05
-0.000157803
-7.02299e-05
0.000103308
0.000157039
0.000106259
4.16645e-05
-7.66526e-05
-0.000319399
-0.000592704
-0.000953142
-0.0012438
-0.00164489
-0.00253077
-0.00758626
-0.0471689
-0.349004
-0.802271
-0.839314
-0.825052
-0.809251
-0.781094
-0.738273
-0.663941
-0.554751
-0.43278
-0.344988
-0.270186
-0.203867
-0.128767
-0.0823718
-0.03484
-0.00521475
0.00717843
0.0236232
0.0280276
0.0262172
0.0262745
0.024507
0.0274895
0.0376795
0.0508585
0.0778513
0.10121
0.138459
0.200562
0.251102
0.310792
0.378119
0.431685
0.495059
0.546619
0.590613
0.629565
0.654526
0.68827
0.711404
0.729307
0.743495
0.753232
0.759481
0.762951
0.763524
0.760948
0.755275
0.745967
0.731965
0.712929
0.688545
0.659285
0.626867
0.596025
0.570026
0.548875
0.531441
0.518745
0.50849
0.503043
0.500178
0.503008
0.503182
0.510275
0.50889
0.51466
0.50826
0.514213
-1.63633e-05
-1.21845e-05
-1.40029e-05
-1.29282e-05
-1.41259e-05
-1.84364e-05
-1.03406e-05
-1.82301e-05
-2.56963e-05
-8.63319e-06
-2.40132e-05
-3.51194e-05
-4.10917e-06
-3.10589e-05
-5.20871e-05
6.96303e-06
-1.59967e-05
-9.34241e-05
-3.07503e-05
6.08379e-05
-8.9337e-06
-0.000129766
-7.596e-05
7.15896e-05
0.000136247
3.83279e-05
-0.000148467
-0.000184904
7.81043e-06
0.000213726
0.000262658
0.000168794
6.77217e-05
-9.26952e-05
-0.000223287
-0.000171173
2.25555e-05
0.000167909
0.000210228
9.56217e-05
-7.03334e-05
-0.000227627
-0.000420808
-0.000498703
-0.000420281
-0.000448124
-0.00127122
-0.00903539
-0.080678
-0.526476
-0.837109
-0.841377
-0.837353
-0.826227
-0.811432
-0.786773
-0.744873
-0.676163
-0.563406
-0.428844
-0.305332
-0.213467
-0.127261
-0.072038
-0.0213936
0.00929135
0.0254814
0.0401666
0.0521867
0.0520912
0.0613938
0.0736362
0.0859027
0.115213
0.150323
0.205733
0.259994
0.309913
0.376808
0.428213
0.48519
0.535384
0.576083
0.610497
0.636871
0.667607
0.693671
0.710887
0.728543
0.742686
0.753172
0.760838
0.765641
0.768426
0.769044
0.767275
0.763542
0.756935
0.746878
0.732646
0.713845
0.690445
0.663094
0.63384
0.606281
0.583028
0.563885
0.54827
0.53691
0.527934
0.523676
0.521293
0.524735
0.524693
0.53175
0.529691
0.534946
0.529185
0.534971
-1.70105e-05
-1.27437e-05
-1.43844e-05
-1.4098e-05
-1.53402e-05
-1.88322e-05
-1.14096e-05
-2.17064e-05
-2.33271e-05
-9.7399e-06
-3.3414e-05
-2.91794e-05
-3.62927e-06
-5.00305e-05
-4.64588e-05
1.32612e-05
-3.59481e-05
-0.000105786
-1.91206e-05
5.61949e-05
-3.49892e-05
-0.000148821
-6.66616e-05
8.48527e-05
0.000110207
6.25228e-06
-0.000134808
-0.000160894
-2.2687e-05
0.000165702
0.000219057
0.000138138
3.72689e-05
-6.13905e-05
-0.00012162
-0.000108506
-5.5455e-05
6.93461e-05
0.000121755
2.79712e-05
-7.70777e-05
-0.000141916
-0.000171382
-0.00017972
-0.000153722
-0.000303518
-0.0020548
-0.0176368
-0.145274
-0.673829
-0.847611
-0.849931
-0.84753
-0.841451
-0.83241
-0.816043
-0.791474
-0.754718
-0.686168
-0.550723
-0.380034
-0.230504
-0.127048
-0.0488096
0.00828515
0.0406675
0.0589007
0.0809166
0.106762
0.116404
0.137733
0.180432
0.216782
0.269029
0.319337
0.376994
0.431031
0.481208
0.527969
0.567083
0.598327
0.625754
0.650664
0.677266
0.696277
0.712435
0.728458
0.740616
0.75173
0.760505
0.766488
0.770647
0.772727
0.773381
0.772192
0.769617
0.765056
0.757959
0.747507
0.733407
0.715241
0.693153
0.667582
0.640616
0.615577
0.594738
0.577614
0.563866
0.553912
0.546261
0.543184
0.541299
0.545349
0.544983
0.551652
0.549265
0.554182
0.548896
0.554179
-1.76606e-05
-1.33682e-05
-1.52308e-05
-1.49639e-05
-1.64347e-05
-1.86821e-05
-1.50523e-05
-2.42951e-05
-2.20125e-05
-1.35952e-05
-3.8818e-05
-2.1784e-05
-1.1163e-05
-5.75893e-05
-3.69315e-05
7.15615e-06
-5.32867e-05
-9.38831e-05
-9.53041e-06
2.78746e-05
-5.49668e-05
-0.000123555
-3.57506e-05
5.80767e-05
4.51524e-05
-2.31043e-05
-7.77398e-05
-8.01372e-05
-2.0715e-05
4.84196e-05
0.000101301
8.82815e-05
7.60895e-05
3.77406e-05
4.89062e-06
-1.79746e-05
-9.5895e-05
-0.000127023
-9.47741e-05
-7.3412e-05
-5.91742e-05
-0.000102475
-0.000156079
-0.000260182
-0.000572648
-0.00129561
-0.00562101
-0.0355013
-0.279267
-0.776014
-0.856841
-0.853389
-0.851682
-0.847178
-0.841116
-0.829022
-0.81388
-0.790888
-0.755176
-0.655051
-0.48714
-0.267846
-0.113287
-0.0111528
0.0507839
0.101063
0.126378
0.161029
0.215717
0.249436
0.282245
0.340186
0.38285
0.436638
0.481778
0.522481
0.559435
0.589901
0.618404
0.637614
0.663224
0.682633
0.696758
0.713302
0.726888
0.738844
0.749498
0.758063
0.765287
0.770922
0.774361
0.77637
0.776766
0.775941
0.773988
0.770656
0.765638
0.758158
0.747739
0.733932
0.716621
0.696119
0.67292
0.648463
0.625639
0.606755
0.591286
0.57912
0.570314
0.56376
0.561652
0.560046
0.564703
0.564014
0.570278
0.567778
0.572055
0.567111
0.572066
-1.83666e-05
-1.40953e-05
-1.59773e-05
-1.62683e-05
-1.74804e-05
-1.80203e-05
-1.96927e-05
-2.28924e-05
-1.7205e-05
-2.45604e-05
-3.74999e-05
-1.39232e-05
-2.8351e-05
-5.71529e-05
-2.15514e-05
-1.52031e-05
-6.24025e-05
-5.08311e-05
-1.5022e-05
-3.86175e-05
-6.62771e-05
-4.17904e-05
-1.08855e-05
-2.04781e-05
-4.24899e-05
-2.07493e-05
1.4259e-05
4.94288e-06
-4.24823e-05
-9.33259e-05
-1.55176e-05
8.88214e-05
0.000132518
0.000116633
6.01879e-05
3.3289e-06
-0.00014796
-0.000270051
-0.000213463
-9.90384e-05
4.65222e-05
0.000109323
0.000118592
0.000109047
5.13864e-05
-0.000772889
-0.00690892
-0.0588309
-0.445516
-0.840984
-0.860101
-0.857292
-0.854208
-0.850288
-0.847187
-0.839972
-0.829647
-0.8155
-0.790394
-0.701956
-0.551815
-0.294438
-0.080477
0.0513494
0.127639
0.208937
0.259886
0.296788
0.35573
0.401287
0.44235
0.486076
0.522567
0.555412
0.582461
0.606432
0.627889
0.652248
0.671302
0.685352
0.696675
0.712035
0.723993
0.735848
0.746122
0.754476
0.761987
0.76819
0.773495
0.777493
0.77992
0.780508
0.780095
0.778393
0.775758
0.771862
0.766421
0.758729
0.748553
0.735154
0.718835
0.69962
0.678258
0.655863
0.63512
0.618096
0.604306
0.593638
0.585936
0.580448
0.579276
0.577965
0.582973
0.58199
0.587772
0.585184
0.588992
0.584494
0.58898
-1.90991e-05
-1.47567e-05
-1.64182e-05
-1.72874e-05
-1.77033e-05
-1.86514e-05
-2.45714e-05
-2.22944e-05
-2.04588e-05
-3.48976e-05
-2.85342e-05
-1.83269e-05
-4.65814e-05
-4e-05
-1.98456e-05
-5.83252e-05
-5.58586e-05
-7.30725e-06
-4.13538e-05
-0.000107825
-4.59769e-05
3.19834e-05
-1.60272e-05
-0.000116312
-9.73017e-05
1.81802e-05
7.25338e-05
4.12376e-05
-9.13455e-05
-0.000169116
-0.000104606
7.96038e-05
0.000156676
0.000144993
7.45925e-05
-2.1565e-05
-0.000124616
-0.000227579
-0.000215571
-0.000118923
7.57456e-05
0.000213876
0.000375192
0.000505357
0.000482835
-0.000759477
-0.0127292
-0.116878
-0.621085
-0.848356
-0.859371
-0.859631
-0.858035
-0.856024
-0.854212
-0.847048
-0.833372
-0.819332
-0.791619
-0.690931
-0.514556
-0.216755
0.0252332
0.165663
0.262445
0.338687
0.39931
0.443046
0.485356
0.524076
0.552153
0.577336
0.60005
0.62148
0.643292
0.65988
0.672218
0.685501
0.699411
0.710872
0.719821
0.730522
0.74008
0.749411
0.758047
0.764974
0.770869
0.775611
0.779225
0.781858
0.783892
0.783388
0.782407
0.780239
0.777141
0.7728
0.767148
0.759543
0.749731
0.736986
0.721736
0.703809
0.684204
0.663664
0.644791
0.629361
0.61708
0.607724
0.600999
0.596423
0.595982
0.594806
0.599905
0.598757
0.60418
0.601684
0.604978
0.600736
0.604623
-1.99e-05
-1.55289e-05
-1.71668e-05
-1.88159e-05
-1.84425e-05
-2.07264e-05
-2.57731e-05
-1.89904e-05
-2.79132e-05
-3.52103e-05
-1.79264e-05
-3.44716e-05
-5.41443e-05
-1.72172e-05
-3.40294e-05
-9.04499e-05
-3.078e-05
7.7796e-06
-9.01686e-05
-0.000143832
-1.94883e-05
5.49301e-05
-5.57852e-05
-0.000177431
-9.12262e-05
5.52934e-05
8.20934e-05
-3.65231e-07
-0.000120593
-0.000192892
-0.000111069
2.44693e-05
0.000134598
0.000116223
3.80617e-05
-1.44111e-05
-5.73466e-05
-0.000106339
-0.000139022
-0.000160058
-0.000104659
-8.72129e-05
-1.69143e-05
-3.26919e-05
-0.000483777
-0.00378121
-0.0286625
-0.230825
-0.746805
-0.857133
-0.857399
-0.85697
-0.855231
-0.853585
-0.853441
-0.8483
-0.825832
-0.79752
-0.743938
-0.592495
-0.344465
-0.0414693
0.171664
0.303055
0.390824
0.455326
0.503107
0.538649
0.566242
0.593115
0.617392
0.636923
0.651955
0.664458
0.674844
0.688837
0.698325
0.708184
0.717425
0.727355
0.73532
0.743974
0.752001
0.758872
0.765592
0.771319
0.775909
0.779721
0.782237
0.784403
0.785726
0.785759
0.784444
0.782081
0.778613
0.773904
0.76792
0.760299
0.750718
0.738639
0.724414
0.70787
0.690054
0.67143
0.654301
0.640406
0.629519
0.621235
0.615373
0.611605
0.611942
0.610963
0.616154
0.614943
0.619878
0.617324
0.619816
0.615854
0.619384
-2.06267e-05
-1.61984e-05
-1.79654e-05
-1.94199e-05
-1.88659e-05
-2.26335e-05
-2.83081e-05
-2.02059e-05
-3.40687e-05
-3.69167e-05
-1.751e-05
-5.19476e-05
-4.92285e-05
-1.02817e-05
-6.41494e-05
-9.21555e-05
-8.46867e-06
-1.38208e-05
-0.000118951
-0.000113952
-3.15351e-06
4.47074e-06
-8.51774e-05
-0.000145794
-5.53383e-05
2.7701e-05
1.28081e-05
-3.64778e-05
-7.77485e-05
-0.000114006
-0.000111923
-7.18322e-05
1.29955e-05
6.29793e-05
5.5329e-05
2.91307e-05
-1.04459e-05
-5.02726e-05
-0.000127203
-0.000156671
-0.000210715
-0.000238715
-0.000191511
-0.000295959
-0.000983694
-0.00673921
-0.0533498
-0.403541
-0.829793
-0.857825
-0.855418
-0.854132
-0.851849
-0.848031
-0.846705
-0.839649
-0.798577
-0.735177
-0.621993
-0.382243
-0.081487
0.159661
0.311954
0.409063
0.477683
0.52659
0.566085
0.59728
0.621433
0.639892
0.655296
0.670246
0.68218
0.693129
0.70122
0.710693
0.717463
0.724433
0.7309
0.738343
0.74517
0.751364
0.757738
0.763047
0.768788
0.774159
0.778608
0.782936
0.785293
0.788099
0.788374
0.788773
0.78731
0.78453
0.780648
0.775577
0.76933
0.761713
0.752309
0.740774
0.727364
0.712188
0.696038
0.679272
0.663802
0.651367
0.641758
0.634437
0.629448
0.626404
0.627274
0.626334
0.631259
0.629917
0.634233
0.631714
0.63382
0.630174
0.633129
-2.14699e-05
-1.70564e-05
-1.88621e-05
-2.01944e-05
-2.04138e-05
-2.43582e-05
-2.56714e-05
-2.46023e-05
-3.6432e-05
-2.8907e-05
-2.77161e-05
-5.76943e-05
-3.45097e-05
-2.59529e-05
-8.05163e-05
-5.98423e-05
-1.62278e-05
-6.98696e-05
-0.000100676
-5.24637e-05
-4.14593e-05
-8.55182e-05
-7.41431e-05
-3.57133e-05
-5.35289e-05
-9.09063e-05
-6.32302e-05
-2.56125e-05
-1.63235e-05
-6.39026e-05
-0.000163359
-0.000180033
-0.000104509
4.29511e-05
6.85204e-05
4.60788e-05
6.50631e-06
-3.13143e-05
-4.57977e-05
-2.65843e-05
-6.64368e-06
6.06074e-05
0.000318037
0.000409357
-0.000823674
-0.0121808
-0.112236
-0.605098
-0.841814
-0.853336
-0.853362
-0.854336
-0.852315
-0.841803
-0.83103
-0.815213
-0.738132
-0.603042
-0.376627
-0.0835209
0.155419
0.311256
0.415836
0.489023
0.540888
0.579578
0.608666
0.632003
0.651612
0.668413
0.681884