/*--------------------------------*- C++ -*----------------------------------*\
| =========                 |                                                 |
| \\      /  F ield         | OpenFOAM: The Open Source CFD Toolbox           |
|  \\    /   O peration     | Version:  2.2.x                                 |
|   \\  /    A nd           | Web:      www.OpenFOAM.org                      |
|    \\/     M anipulation  |                                                 |
\*---------------------------------------------------------------------------*/
FoamFile
{
    version     2.0;
    format      ascii;
    class       volScalarField;
    location    "1.2";
    object      rho;
}
// * * * * * * * * * * * * * * * * * * * * * * * * * * * * * * * * * * * * * //

dimensions      [1 -3 0 0 0 0 0];

internalField   nonuniform List<scalar> 
14161
(
0.999273
0.9993
0.999264
0.999221
0.999156
0.999069
0.998973
0.998861
0.998709
0.998542
0.99839
0.998171
0.997951
0.997764
0.99745
0.997189
0.997031
0.996707
0.996215
0.99602
0.995962
0.995663
0.994953
0.994651
0.994635
0.994555
0.993902
0.993275
0.993147
0.993204
0.993501
0.993559
0.993218
0.992392
0.992155
0.992177
0.992316
0.992763
0.993555
0.994002
0.994463
0.995032
0.995712
0.996569
0.997698
0.998927
1.0003
1.00012
1.002
0.999817
1.61342
2.63894
2.76863
2.77991
2.75347
2.72309
2.6712
2.62717
2.57885
2.53045
2.48805
2.44423
2.39559
2.35377
2.30909
2.26736
2.22918
2.19279
2.16232
2.13457
2.11241
2.09551
2.08309
2.07627
2.07061
2.06989
2.07892
2.06243
2.06238
2.06671
2.09243
2.06598
2.06647
2.06831
2.08135
2.06333
2.06161
2.05964
2.05955
2.06779
2.05118
2.05134
2.04974
2.0339
2.02083
2.01659
2.00202
2.00631
1.99885
2.04019
2.0871
2.28124
2.49653
2.73873
2.89039
2.96918
3.01946
3.05382
3.07751
3.09865
3.11567
3.13096
3.13917
3.14434
3.14352
3.14385
3.14117
3.13866
3.1401
0.999272
0.9993
0.999264
0.999221
0.999156
0.999069
0.998973
0.998861
0.998709
0.998543
0.998389
0.998171
0.997955
0.997759
0.99745
0.9972
0.997028
0.996698
0.996224
0.996044
0.995958
0.995628
0.994959
0.994702
0.994637
0.994502
0.99388
0.993303
0.993183
0.993241
0.993496
0.993509
0.993149
0.992409
0.992198
0.992209
0.99235
0.992773
0.993573
0.99402
0.994493
0.995004
0.995594
0.996352
0.997421
0.999003
0.999277
1.00057
1.00153
0.998548
1.62196
2.62088
2.7628
2.76655
2.73916
2.7084
2.65927
2.61487
2.56759
2.51746
2.47101
2.4252
2.37747
2.33816
2.29516
2.25369
2.2171
2.18213
2.15362
2.12706
2.1067
2.09124
2.08049
2.07545
2.07027
2.06966
2.07879
2.06167
2.062
2.0664
2.09214
2.0657
2.06647
2.06866
2.08149
2.0633
2.06115
2.05979
2.05938
2.06754
2.051
2.05098
2.04946
2.03381
2.02216
2.01918
2.00772
2.01653
2.01585
2.07846
2.16033
2.37175
2.58452
2.7732
2.89051
2.96444
3.01424
3.04975
3.07507
3.09706
3.1145
3.12945
3.13802
3.14327
3.14277
3.14279
3.14062
3.13749
3.14082
0.999273
0.9993
0.999264
0.999221
0.999156
0.99907
0.998972
0.99886
0.998709
0.998548
0.998387
0.998171
0.997962
0.997752
0.997456
0.997218
0.997016
0.996686
0.996263
0.996076
0.995911
0.995572
0.995029
0.994783
0.994589
0.994368
0.993859
0.993412
0.993287
0.993309
0.993394
0.99334
0.993016
0.992458
0.992286
0.992281
0.99237
0.992731
0.993367
0.993755
0.994206
0.99462
0.995071
0.995718
0.996984
0.998187
0.999331
0.998343
1.00106
0.997749
1.61917
2.58675
2.74905
2.74293
2.71238
2.68141
2.63178
2.58779
2.54175
2.49325
2.44988
2.40464
2.35747
2.32405
2.28386
2.24249
2.20821
2.17522
2.14886
2.12257
2.10365
2.08843
2.07908
2.07537
2.07167
2.07194
2.08206
2.06473
2.0656
2.06968
2.09436
2.06985
2.07051
2.07223
2.08396
2.06731
2.06418
2.06306
2.06196
2.06968
2.05571
2.05451
2.0526
2.03966
2.02926
2.03136
2.02422
2.04743
2.06358
2.16555
2.29693
2.50788
2.67014
2.78342
2.87332
2.94133
2.99103
3.02831
3.05706
3.08222
3.10263
3.12064
3.13145
3.13804
3.1392
3.13946
3.13818
3.13428
3.13923
0.999273
0.9993
0.999264
0.999221
0.999157
0.999071
0.998972
0.998857
0.998709
0.998554
0.998384
0.998172
0.997968
0.997743
0.997469
0.99724
0.996991
0.996669
0.996329
0.996096
0.995831
0.995516
0.995134
0.994868
0.994511
0.9942
0.993854
0.993592
0.993453
0.993322
0.993159
0.993021
0.992826
0.992553
0.992443
0.992391
0.992391
0.99257
0.992932
0.993239
0.993568
0.993981
0.994271
0.994932
0.996097
0.997294
0.99745
0.997503
0.999966
0.99801
1.58733
2.55219
2.73576
2.72207
2.67889
2.6462
2.59559
2.54926
2.50502
2.45951
2.41847
2.38019
2.3354
2.30636
2.27194
2.23393
2.20253
2.17094
2.14635
2.11931
2.10218
2.08789
2.07903
2.07606
2.07388
2.07409
2.08562
2.06926
2.07018
2.07381
2.09642
2.07542
2.07523
2.0761
2.08575
2.072
2.06824
2.06619
2.06488
2.07134
2.06189
2.06031
2.05869
2.05131
2.04386
2.0569
2.06042
2.11287
2.1733
2.33776
2.50894
2.66475
2.75534
2.81632
2.88099
2.93753
2.97973
3.0119
3.03878
3.06498
3.08816
3.1084
3.12209
3.13056
3.13377
3.13438
3.13394
3.12954
3.13667
0.999274
0.9993
0.999265
0.999221
0.999157
0.999072
0.99897
0.998854
0.998711
0.998561
0.998382
0.998174
0.997974
0.997734
0.997484
0.997256
0.996958
0.99666
0.996399
0.996106
0.99573
0.99548
0.995239
0.994962
0.994414
0.994041
0.993866
0.993769
0.99364
0.993289
0.992839
0.992674
0.992629
0.992603
0.992611
0.992563
0.992422
0.992285
0.99227
0.992412
0.992714
0.993045
0.993378
0.993909
0.994865
0.995244
0.99574
0.995786
0.997694
1.00029
1.50833
2.50606
2.72768
2.70022
2.63978
2.60316
2.55367
2.50514
2.46935
2.43155
2.38747
2.36123
2.32345
2.29576
2.26597
2.23192
2.20367
2.17149
2.15038
2.12087
2.10637
2.09294
2.08462
2.08243
2.0808
2.08027
2.09151
2.07847
2.07954
2.0833
2.10192
2.08651
2.08452
2.08367
2.09164
2.08129
2.07784
2.07378
2.0735
2.07984
2.07558
2.07502
2.07193
2.07697
2.07377
2.11087
2.14132
2.24148
2.37629
2.55563
2.67628
2.75489
2.80263
2.84631
2.89326
2.9384
2.97234
2.99996
3.02406
3.04814
3.07217
3.09449
3.11121
3.12142
3.12662
3.12782
3.1283
3.12349
3.13277
0.999275
0.9993
0.999265
0.999221
0.999157
0.999075
0.99897
0.998849
0.998715
0.998566
0.998377
0.998177
0.997977
0.997724
0.9975
0.997267
0.996924
0.99666
0.996458
0.996112
0.995642
0.995443
0.995326
0.995062
0.99433
0.993925
0.993845
0.993873
0.993803
0.993241
0.992564
0.992414
0.992425
0.992547
0.992689
0.992665
0.992451
0.991867
0.991442
0.991453
0.991613
0.991904
0.992224
0.992645
0.993246
0.993445
0.993629
0.994048
0.995023
0.998152
1.35873
2.42651
2.72188
2.67828
2.59904
2.55154
2.51204
2.47087
2.44118
2.41622
2.37295
2.35222
2.32129
2.29232
2.26425
2.22671
2.20667
2.16733
2.15298
2.12564
2.11047
2.09963
2.09057
2.08879
2.08719
2.08557
2.09473
2.08651
2.08719
2.09098
2.10559
2.09704
2.09401
2.0918
2.09891
2.09264
2.08969
2.08463
2.08789
2.09444
2.09718
2.10071
2.09528
2.12576
2.14083
2.21304
2.29933
2.45904
2.61328
2.72205
2.77099
2.80567
2.83386
2.86579
2.90516
2.93944
2.96756
2.9903
3.01176
3.03383
3.05688
3.07984
3.09898
3.11075
3.1178
3.11979
3.12134
3.11623
3.12766
0.999277
0.999301
0.999266
0.999222
0.999158
0.999078
0.998971
0.998846
0.998721
0.998569
0.998371
0.998183
0.997979
0.997718
0.997516
0.997273
0.996898
0.996664
0.996501
0.996109
0.995594
0.995414
0.995371
0.995118
0.994285
0.993879
0.993811
0.993902
0.993859
0.993186
0.992423
0.992263
0.99227
0.992421
0.992659
0.992654
0.992417
0.991556
0.990731
0.990512
0.990505
0.990591
0.99087
0.991114
0.991293
0.991177
0.991285
0.991581
0.991398
0.995172
1.1525
2.29705
2.73654
2.66807
2.5722
2.50621
2.47647
2.44638
2.41861
2.40565
2.36287
2.34669
2.32195
2.28916
2.26754
2.22047
2.21155
2.16412
2.15386
2.13402
2.11233
2.10378
2.09306
2.09071
2.09011
2.08881
2.0965
2.09139
2.09156
2.09509
2.1071
2.10502
2.10199
2.10178
2.10773
2.10655
2.10556
2.09973
2.11163
2.11814
2.1291
2.1473
2.15192
2.21451
2.26413
2.39256
2.53436
2.68161
2.76712
2.8001
2.81495
2.83208
2.85429
2.88024
2.91437
2.94005
2.96338
2.98318
3.00278
3.02272
3.04389
3.06598
3.08622
3.0991
3.10768
3.11046
3.1133
3.1082
3.12117
0.999279
0.999303
0.999268
0.999223
0.999158
0.999081
0.998973
0.998845
0.998727
0.998571
0.998369
0.998192
0.997979
0.997718
0.997534
0.997274
0.996886
0.996679
0.99652
0.996085
0.995579
0.995423
0.995388
0.995114
0.994285
0.993883
0.993814
0.993911
0.993838
0.993081
0.992368
0.992198
0.992177
0.992268
0.992544
0.992532
0.992256
0.991361
0.990315
0.989909
0.989587
0.989446
0.989443
0.989439
0.98932
0.988826
0.988561
0.988699
0.986864
0.989157
1.01344
1.9748
2.77943
2.67056
2.55042
2.47205
2.44576
2.41821
2.39415
2.3916
2.35475
2.33104
2.31734
2.27537
2.26371
2.20674
2.20489
2.16567
2.14513
2.13038
2.10907
2.10138
2.08848
2.0864
2.08731
2.08758
2.09155
2.09038
2.09124
2.09488
2.10528
2.10878
2.10643
2.11117
2.11532
2.11968
2.12347
2.11881
2.14691
2.16062
2.17734
2.22077
2.25436
2.37528
2.48484
2.63176
2.74444
2.80993
2.82833
2.8321
2.84003
2.85053
2.86644
2.89186
2.92064
2.94211
2.96133
2.97847
2.99595
3.01348
3.03256
3.05325
3.07354
3.08697
3.09663
3.10007
3.1042
3.09946
3.11339
0.999281
0.999304
0.999269
0.999225
0.999159
0.999084
0.998975
0.998846
0.998732
0.998571
0.99837
0.998203
0.997977
0.997725
0.997547
0.997264
0.996891
0.996713
0.996519
0.996069
0.99561
0.99546
0.995355
0.995041
0.994316
0.993954
0.993874
0.993848
0.993666
0.992956
0.992419
0.992228
0.992155
0.992155
0.99224
0.992181
0.991863
0.991012
0.99017
0.989735
0.989254
0.988638
0.988157
0.987841
0.987302
0.986792
0.985788
0.986351
0.98398
0.984953
1.00353
1.56711
2.76202
2.71971
2.60089
2.49241
2.45076
2.40447
2.37524
2.3724
2.35071
2.30495
2.30676
2.25565
2.24737
2.1962
2.18736
2.16383
2.12564
2.11593
2.09887
2.08876
2.07361
2.0725
2.07465
2.07791
2.08054
2.08401
2.08792
2.09196
2.10145
2.10971
2.10872
2.12185
2.12851
2.13544
2.1525
2.15373
2.19924
2.22865
2.27051
2.36339
2.45809
2.60802
2.72056
2.80707
2.84488
2.85196
2.84967
2.85136
2.8557
2.86378
2.87787
2.90092
2.92515
2.94468
2.96101
2.97612
2.99153
3.00666
3.02359
3.04229
3.06176
3.07517
3.08534
3.08903
3.09431
3.09023
3.10465
0.999284
0.999306
0.999271
0.999227
0.999161
0.999085
0.998979
0.99885
0.998735
0.99857
0.998376
0.998212
0.997975
0.997743
0.997555
0.997254
0.996922
0.99673
0.99649
0.996058
0.99569
0.995482
0.995265
0.994941
0.99443
0.994131
0.993917
0.993644
0.993319
0.992831
0.992567
0.9924
0.992213
0.991969
0.991769
0.991546
0.991155
0.990505
0.990021
0.989705
0.989297
0.988507
0.987377
0.986465
0.985934
0.984891
0.984658
0.984714
0.983305
0.985259
1.01715
1.37371
2.44281
2.67407
2.62273
2.5107
2.46868
2.40339
2.36292
2.34502
2.33088
2.26669
2.29187
2.23021
2.21276
2.1853
2.15216
2.14069
2.10279
2.088
2.07723
2.06925
2.05665
2.05725
2.05895
2.06617
2.07207
2.07801
2.08671
2.09131
2.10311
2.11666
2.11508
2.14037
2.1532
2.16227
2.20364
2.22377
2.29787
2.36674
2.45241
2.58903
2.69619
2.80121
2.85294
2.86839
2.86819
2.86337
2.86171
2.86369
2.86723
2.87385
2.88851
2.90858
2.93008
2.94683
2.9605
2.97347
2.98682
2.99993
3.01498
3.03152
3.04985
3.06331
3.07376
3.07753
3.0838
3.08049
3.095
0.999286
0.999309
0.999273
0.999229
0.999163
0.999085
0.998983
0.998858
0.998736
0.998569
0.998391
0.998216
0.997976
0.997768
0.997555
0.997249
0.996971
0.996741
0.996443
0.996076
0.995789
0.995481
0.99513
0.994858
0.99459
0.994348
0.993935
0.993346
0.992974
0.992748
0.992678
0.992657
0.992425
0.991812
0.991157
0.990788
0.990437
0.990067
0.989818
0.989692
0.989428
0.988716
0.987391
0.985947
0.985013
0.984128
0.983176
0.983077
0.981244
0.985699
1.0566
1.49643
2.14261
2.35578
2.50995
2.50584
2.47184
2.39129
2.35089
2.32834
2.30581
2.2402
2.2643
2.20135
2.16843
2.16546
2.11912
2.10534
2.08903
2.06667
2.05502
2.05028
2.04447
2.0494
2.05175
2.06038
2.06919
2.0765
2.0899
2.09598
2.11384
2.13485
2.14087
2.18517
2.20966
2.23295
2.31653
2.3753
2.47931
2.58743
2.68675
2.79098
2.8453
2.87566
2.88026
2.87676
2.87072
2.86764
2.86918
2.87109
2.87446
2.88339
2.89734
2.91569
2.93435
2.949
2.96082
2.97219
2.98351
2.99451
3.00744
3.02152
3.0383
3.05162
3.0622
3.06593
3.07301
3.07043
3.08489
0.99929
0.999312
0.999276
0.999233
0.999167
0.999086
0.998989
0.998871
0.998735
0.998571
0.99841
0.998219
0.997984
0.997789
0.997549
0.997257
0.997023
0.99674
0.996398
0.996119
0.995881
0.995471
0.995005
0.994792
0.994698
0.994548
0.993962
0.993099
0.992766
0.992661
0.99268
0.992789
0.992636
0.991779
0.990652
0.990238
0.98998
0.98975
0.989647
0.989639
0.989637
0.989164
0.988242
0.986227
0.98513
0.984083
0.983875
0.9835
0.985157
1.00003
1.21657
1.7727
1.95959
2.05185
2.27661
2.44058
2.44368
2.39308
2.34285
2.32903
2.28921
2.23581
2.24878
2.18396
2.14734
2.15093
2.10589
2.08083
2.07125
2.05857
2.04577
2.04204
2.0408
2.0497
2.05424
2.0649
2.07576
2.08492
2.10864
2.12097
2.14961
2.18426
2.20903
2.28437
2.33709
2.39907
2.5254
2.6065
2.70265
2.78822
2.84056
2.8725
2.88065
2.87983
2.87633
2.87242
2.86977
2.87129
2.87301
2.87554
2.88128
2.89119
2.90486
2.92218
2.93804
2.95027
2.96019
2.96995
2.9794
2.98859
2.99969
3.01148
3.02672
3.03993
3.05061
3.05438
3.06213
3.06029
3.07425
0.999293
0.999315
0.999279
0.999236
0.999171
0.999086
0.998994
0.998882
0.998733
0.998577
0.998427
0.998218
0.998001
0.997808
0.997537
0.997277
0.997068
0.996732
0.996372
0.996166
0.995949
0.995452
0.99494
0.994748
0.994745
0.994638
0.993969
0.992999
0.992682
0.992596
0.992636
0.992808
0.992683
0.991817
0.990469
0.989994
0.989732
0.989568
0.989532
0.989569
0.989684
0.989408
0.988737
0.986987
0.985213
0.98448
0.983611
0.983877
0.987256
1.0192
1.50027
1.9372
1.94122
1.96397
2.08283
2.28219
2.39123
2.39685
2.35596
2.35269
2.28082
2.2431
2.24751
2.18054
2.14681
2.15032
2.10224
2.0701
2.06263
2.0618
2.04894
2.04779
2.0498
2.06358
2.07091
2.08933
2.105
2.11825
2.16524
2.19394
2.23764
2.31019
2.37289
2.47479
2.56257
2.64098
2.73814
2.79455
2.84174
2.86805
2.87805
2.87537
2.87294
2.87184
2.87011
2.8686
2.86962
2.87181
2.87491
2.87919
2.88681
2.89722
2.91124
2.92766
2.94136
2.95159
2.95946
2.96737
2.97497
2.98248
2.99189
3.00162
3.01527
3.02822
3.03908
3.04309
3.05127
3.04998
3.06353
0.999297
0.999319
0.999283
0.99924
0.999176
0.99909
0.998999
0.99889
0.998733
0.998592
0.998439
0.998216
0.998026
0.997822
0.997528
0.997303
0.997102
0.996718
0.99637
0.996203
0.995981
0.995423
0.994926
0.994767
0.994768
0.994634
0.993959
0.993007
0.992665
0.992562
0.992594
0.992748
0.99261
0.991833
0.990495
0.98996
0.989672
0.989512
0.989462
0.989516
0.989625
0.989391
0.988773
0.987409
0.985832
0.985261
0.984471
0.984904
0.990697
1.0676
1.75928
1.97878
1.96731
1.95507
1.98754
2.0836
2.23343
2.36839
2.37265
2.36715
2.29047
2.27771
2.25714
2.1927
2.16044
2.15353
2.10406
2.07212
2.06962
2.07516
2.06651
2.07423
2.08172
2.10468
2.12154
2.16086
2.19061
2.21969
2.30631
2.36182
2.43163
2.53992
2.61015
2.69364
2.76489
2.81066
2.84183
2.85656
2.86605
2.86271
2.86428
2.86442
2.86358
2.8646
2.8654
2.86682
2.8691
2.87236
2.87619
2.88274
2.89141
2.90273
2.91719
2.93271
2.94411
2.95254
2.95898
2.96546
2.97139
2.97724
2.98489
2.99264
3.00439
3.01657
3.0277
3.03209
3.04061
3.0398
3.05257
0.999302
0.999323
0.999287
0.999244
0.999181
0.999095
0.999005
0.998895
0.998738
0.998608
0.998447
0.998221
0.998048
0.997831
0.99753
0.997337
0.99712
0.996719
0.9964
0.996231
0.995982
0.995425
0.994981
0.994813
0.994732
0.994529
0.993926
0.993111
0.99274
0.992567
0.992518
0.992541
0.992349
0.991745
0.990751
0.990216
0.98982
0.989527
0.989422
0.989428
0.989343
0.988992
0.988448
0.987647
0.986988
0.986895
0.986809
0.987975
1.00042
1.25589
1.90852
1.99378
1.98136
1.96487
1.96576
1.98828
2.04772
2.22768
2.34448
2.35801
2.30667
2.32486
2.24856
2.23624
2.16918
2.15318
2.14009
2.08443
2.094
2.1088
2.1071
2.14094
2.16057
2.19873
2.24176
2.30428
2.37005
2.43574
2.53861
2.59927
2.66458
2.7417
2.78684
2.82372
2.84228
2.85034
2.85442
2.84661
2.84926
2.8489
2.84997
2.85309
2.85604
2.85855
2.86139
2.86459
2.86838
2.87226
2.87787
2.88549
2.89522
2.90746
2.92193
2.93607
2.94541
2.95233
2.95765
2.9628
2.9672
2.97162
2.9777
2.98379
2.99386
3.00497
3.01626
3.02127
3.03013
3.02973
3.04191
0.999306
0.999328
0.999292
0.999249
0.999185
0.999102
0.999011
0.998899
0.998751
0.998621
0.99845
0.998237
0.998067
0.997833
0.997551
0.997365
0.997123
0.996737
0.99646
0.996241
0.995951
0.995459
0.995099
0.994851
0.994634
0.994363
0.993935
0.993387
0.992938
0.992534
0.992302
0.992137
0.991939
0.991607
0.991181
0.990797
0.990291
0.989582
0.989249
0.989045
0.988788
0.988451
0.988171
0.988032
0.987903
0.987933
0.988296
0.990234
1.01187
1.49123
2.00666
1.99645
1.98343
1.96943
1.95955
1.96052
1.98202
2.06356
2.2017
2.32293
2.34188
2.38015
2.24502
2.28055
2.19629
2.17516
2.19235
2.13416
2.16534
2.18494
2.19973
2.27831
2.32265
2.38149
2.46651
2.53882
2.60915
2.67059
2.73717
2.77694
2.80446
2.8248
2.83637
2.84359
2.83782
2.83466
2.83653
2.83299
2.83484
2.83705
2.83996
2.84361
2.84815
2.85288
2.85759
2.86221
2.86708
2.87261
2.87961
2.88833
2.89901
2.91202
2.92632
2.93922
2.94694
2.95268
2.95686
2.96061
2.96346
2.96644
2.97096
2.97552
2.98401
2.99359
3.00464
3.01045
3.01985
3.0203
3.03166
0.999311
0.999332
0.999297
0.999254
0.999191
0.999112
0.999017
0.998903
0.998772
0.998631
0.998453
0.998266
0.998082
0.997836
0.997594
0.997387
0.997116
0.996791
0.996534
0.996232
0.995908
0.995551
0.995253
0.994879
0.994502
0.994218
0.993984
0.993702
0.993277
0.992511
0.992001
0.991721
0.991567
0.991486
0.991454
0.991328
0.990891
0.989761
0.989016
0.988688
0.988473
0.988291
0.988277
0.988159
0.988271
0.988157
0.988595
0.991931
1.03306
1.7353
2.03008
2.02908
2.01752
2.00476
1.98804
1.97313
1.97364
1.99898
2.05866
2.20485
2.33738
2.41287
2.2984
2.34498
2.24583
2.24869
2.27651
2.243
2.31591
2.34713
2.39394
2.50306
2.55953
2.61813
2.68455
2.73668
2.77839
2.79881
2.81379
2.82383
2.82775
2.82728
2.82421
2.82643
2.82392
2.81968
2.82114
2.82143
2.82324
2.82656
2.83069
2.83584
2.84197
2.84822
2.85397
2.85983
2.86601
2.87294
2.8809
2.89044
2.90157
2.91502
2.92884
2.94033
2.94683
2.95175
2.9549
2.95743
2.95903
2.96082
2.964
2.9672
2.97424
2.98217
2.9928
2.99959
3.00964
3.01105
3.02192
0.999317
0.999338
0.999303
0.999261
0.999198
0.999123
0.999023
0.998907
0.998792
0.99864
0.998461
0.998297
0.998094
0.997849
0.997647
0.997402
0.997111
0.99686
0.996601
0.996211
0.995882
0.995653
0.995401
0.994901
0.994404
0.994149
0.99404
0.993899
0.993539
0.992567
0.991823
0.991508
0.991388
0.991366
0.991465
0.991435
0.991115
0.990094
0.989016
0.98871
0.988552
0.98849
0.988477
0.988499
0.988571
0.988833
0.989972
0.998093
1.17739
1.87999
2.03402
2.03517
2.03273
2.02714
2.01693
2.00142
1.98409
1.99283
2.02782
2.09935
2.28847
2.45684
2.42506
2.42209
2.34549
2.41184
2.4287
2.4501
2.53614
2.57731
2.62824
2.70042
2.74557
2.7771
2.79384
2.80594
2.81753
2.81755
2.8189
2.8128
2.81437
2.81551
2.81193
2.81164
2.8096
2.8073
2.80816
2.80962
2.81294
2.81757
2.82275
2.82905
2.83588
2.84302
2.84994
2.85709
2.86471
2.87284
2.88178
2.89174
2.90279
2.9157
2.92865
2.93941
2.94548
2.94982
2.95225
2.95378
2.95439
2.95511
2.9571
2.95894
2.96452
2.97052
2.9807
2.98872
2.99944
3.00191
3.01237
0.999323
0.999343
0.99931
0.999268
0.999206
0.999133
0.999032
0.998917
0.998807
0.998647
0.998479
0.998321
0.998098
0.997878
0.99769
0.997408
0.997121
0.996929
0.996649
0.996197
0.995893
0.995734
0.99548
0.994893
0.994369
0.994149
0.994089
0.993962
0.993591
0.992672
0.991852
0.991488
0.991303
0.991241
0.99125
0.991237
0.99099
0.990488
0.989631
0.989154
0.988914
0.988748
0.988662
0.988631
0.988724
0.989068
0.99115
1.00752
1.41758
1.98094
2.02097
2.02356
2.02918
2.03218
2.0322
2.02263
2.012
2.0193
2.04913
2.08404
2.28339
2.49671
2.58445
2.5603
2.53085
2.6085
2.62385
2.66133
2.70916
2.74825
2.77207
2.79137
2.80201
2.81002
2.80937
2.80926
2.8058
2.80401
2.80615
2.80378
2.8001
2.80094
2.79862
2.7964
2.79528
2.7949
2.7961
2.7989
2.8035
2.80914
2.81565
2.823
2.83063
2.83824
2.84626
2.85434
2.86332
2.8725
2.88248
2.89279
2.90412
2.91686
2.92907
2.93874
2.94388
2.94724
2.94874
2.94936
2.94922
2.94907
2.95005
2.95064
2.95486
2.95883
2.96848
2.97775
2.98923
2.99289
3.00286
0.999329
0.99935
0.999317
0.999275
0.999214
0.999142
0.999042
0.998932
0.998818
0.998657
0.998507
0.998339
0.998104
0.99792
0.997724
0.997415
0.997159
0.996976
0.996669
0.996223
0.995966
0.995767
0.995481
0.994927
0.994475
0.994216
0.994055
0.993874
0.99353
0.992911
0.992104
0.991565
0.99122
0.99102
0.990888
0.990815
0.990799
0.99066
0.99038
0.990027
0.989575
0.988946
0.988602
0.988422
0.98826
0.988481
0.991047
1.0251
1.67544
2.04805
2.05341
2.04945
2.04552
2.04501
2.048
2.04497
2.03892
2.06312
2.11686
2.18152
2.4231
2.62886
2.71793
2.70468
2.70971
2.73784
2.7537
2.76859
2.77815
2.78861
2.79374
2.7953
2.79664
2.7947
2.79444
2.79662
2.79528
2.79206
2.79216
2.79164
2.78861
2.78634
2.78406
2.78346
2.78352
2.78429
2.78661
2.79063
2.79615
2.80234
2.80931
2.81681
2.82486
2.83325
2.84185
2.85108
2.86098
2.87119
2.88152
2.89173
2.90317
2.91585
2.92775
2.93663
2.9411
2.94356
2.94425
2.94424
2.94345
2.94261
2.94285
2.94248
2.94562
2.94785
2.95676
2.96656
2.97877
2.98366
2.99341
0.999336
0.999356
0.999324
0.999284
0.999223
0.999152
0.999056
0.998949
0.998828
0.998677
0.998533
0.998353
0.998128
0.99796
0.997744
0.997441
0.997225
0.996999
0.996679
0.996321
0.996068
0.995767
0.995437
0.995034
0.994684
0.994302
0.993979
0.993719
0.99349
0.993164
0.992623
0.991738
0.991152
0.990824
0.990634
0.990548
0.990541
0.990585
0.990632
0.990513
0.990207
0.989664
0.988814
0.988373
0.988122
0.988602
0.994769
1.12047
1.8554
2.06293
2.06977
2.06961
2.06677
2.06321
2.06968
2.07741
2.07665
2.12579
2.23671
2.37116
2.64688
2.76767
2.7928
2.78341
2.77829
2.77654
2.77795
2.77874
2.77802
2.77797
2.77907
2.7799
2.77993
2.7795
2.7781
2.78016
2.78081
2.77892
2.77711
2.77646
2.77531
2.77395
2.7735
2.77386
2.77468
2.77621
2.77868
2.78262
2.78823
2.79458
2.80217
2.80983
2.81837
2.82716
2.83654
2.84671
2.85781
2.86919
2.88014
2.89072
2.90245
2.91492
2.92606
2.93393
2.93769
2.93922
2.93937
2.9388
2.93727
2.93576
2.93532
2.93423
2.93661
2.93753
2.94565
2.95529
2.96789
2.97432
2.98375
0.999343
0.999364
0.999332
0.999293
0.999234
0.999162
0.999074
0.998964
0.998838
0.998708
0.998554
0.998365
0.998175
0.997992
0.997756
0.997506
0.997286
0.997
0.9967
0.996464
0.996166
0.995737
0.99541
0.995186
0.994905
0.994362
0.993893
0.993643
0.993528
0.993367
0.992975
0.992062
0.991172
0.990788
0.990576
0.990463
0.990414
0.990395
0.990421
0.990495
0.990413
0.990199
0.989743
0.989098
0.988282
0.989442
1.00372
1.34777
1.97343
2.05149
2.06155
2.06914
2.07207
2.07147
2.08608
2.11182
2.12876
2.23001
2.43778
2.62369
2.80008
2.82721
2.81224
2.79174
2.7829
2.77329
2.76714
2.76331
2.7612
2.75989
2.75977
2.76011
2.75961
2.76099
2.76121
2.76297
2.76445
2.76521
2.76463
2.76421
2.76324
2.76285
2.76277
2.76356
2.76484
2.76703
2.76963
2.77359
2.77872
2.78499
2.79293
2.80083
2.80993
2.81938
2.82963
2.8408
2.85309
2.86563
2.87744
2.88881
2.90096
2.91325
2.92352
2.93048
2.93342
2.93415
2.93395
2.93276
2.93061
2.92845
2.92731
2.92575
2.92755
2.92755
2.93501
2.94402
2.95678
2.96468
2.97386
0.999351
0.999372
0.999341
0.999303
0.999245
0.999174
0.999093
0.998979
0.998853
0.99874
0.998571
0.998385
0.998229
0.998013
0.997775
0.997591
0.997335
0.996993
0.996771
0.99659
0.996219
0.995724
0.995469
0.995306
0.995014
0.994388
0.993899
0.993665
0.993553
0.993444
0.993115
0.992499
0.99143
0.990872
0.990601
0.990426
0.990312
0.990259
0.99022
0.990255
0.990307
0.990295
0.99001
0.989265
0.988299
0.990314
1.02261
1.63616
2.05151
2.06588
2.06564
2.07041
2.07701
2.07937
2.10385
2.16812
2.23499
2.4315
2.68125
2.7994
2.84456
2.82535
2.7998
2.78571
2.76997
2.75766
2.74777
2.74111
2.7377
2.73622
2.73578
2.73635
2.73746
2.74032
2.74263
2.74513
2.74728
2.74929
2.75
2.75013
2.74983
2.75011
2.75026
2.75128
2.75311
2.75575
2.75881
2.76322
2.76836
2.77462
2.7825
2.79085
2.80044
2.8105
2.82158
2.83372
2.84706
2.86067
2.87343
2.88574
2.89829
2.91019
2.91961
2.92574
2.92799
2.92827
2.92786
2.92619
2.92349
2.92066
2.91877
2.91678
2.91816
2.91783
2.92477
2.93299
2.9456
2.95471
2.96375
0.99936
0.99938
0.99935
0.999314
0.999257
0.999188
0.99911
0.998994
0.998876
0.998765
0.998589
0.998424
0.99827
0.998031
0.997826
0.997658
0.99736
0.997037
0.996865
0.996655
0.996258
0.995825
0.995566
0.995337
0.995031
0.994524
0.994044
0.993735
0.993521
0.993397
0.993193
0.992803
0.991993
0.991027
0.990628
0.9904
0.990271
0.990182
0.990134
0.990065
0.990029
0.990106
0.989889
0.989016
0.988856
0.994579
1.12234
1.8626
2.07167
2.07719
2.07483
2.08088
2.09167
2.09907
2.14315
2.27743
2.43681
2.67842
2.81368
2.85045
2.83067
2.80293
2.78805
2.77075
2.75563
2.74165
2.73003
2.72139
2.71524
2.71226
2.7115
2.71226
2.71383
2.71656
2.72006
2.72397
2.72742
2.73011
2.732
2.73281
2.73379
2.73497
2.73633
2.7381
2.74042
2.74352
2.7472
2.75185
2.7571
2.76318
2.77084
2.77905
2.78874
2.79922
2.81089
2.8238
2.83797
2.85267
2.86691
2.88067
2.89406
2.90601
2.91506
2.92058
2.92234
2.92241
2.92182
2.91969
2.9164
2.91266
2.90995
2.90758
2.90871
2.9083
2.91465
2.92208
2.93444
2.94449
2.95316
0.999369
0.999389
0.99936
0.999326
0.99927
0.999203
0.999127
0.999014
0.998902
0.998785
0.99862
0.998467
0.998296
0.998069
0.997895
0.997699
0.997398
0.997141
0.996933
0.996675
0.996343
0.996012
0.99567
0.995339
0.99507
0.994756
0.994284
0.993813
0.993506
0.993348
0.993242
0.992964
0.992435
0.991375
0.990818
0.990512
0.990329
0.990197
0.990064
0.989919
0.989865
0.98987
0.98983
0.989772
0.991181
1.00647
1.38873
1.99785
2.06104
2.067
2.07185
2.08837
2.11664
2.14962
2.24791
2.46312
2.67744
2.8143
2.84632
2.82657
2.80014
2.78563
2.76826
2.75243
2.73774
2.72429
2.71279
2.70417
2.69856
2.69477
2.69316
2.69293
2.69312
2.69438
2.69682
2.70124
2.70649
2.71101
2.7152
2.71751
2.71957
2.7212
2.72302
2.72519
2.72747
2.7307
2.73435
2.73899
2.74484
2.75116
2.75862
2.76699
2.77696
2.78798
2.80024
2.81376
2.82855
2.84415
2.8597
2.87474
2.8889
2.90093
2.90961
2.91465
2.91605
2.91603
2.91528
2.91266
2.90884
2.90427
2.90076
2.89804
2.89896
2.89848
2.90444
2.91143
2.92353
2.93389
2.94216
0.999379
0.9994
0.999371
0.999338
0.999284
0.999219
0.999145
0.999041
0.998927
0.998807
0.998663
0.998506
0.998324
0.998141
0.997955
0.997725
0.997482
0.997255
0.996975
0.996707
0.996486
0.996193
0.99574
0.995395
0.995195
0.994955
0.994516
0.993972
0.993638
0.993389
0.993181
0.992941
0.99256
0.992017
0.991462
0.990877
0.990432
0.990103
0.989803
0.989592
0.989361
0.989171
0.988959
0.989307
0.992871
1.0335
1.70813
2.06952
2.08244
2.08414
2.08763
2.11628
2.16554
2.25933
2.46176
2.68471
2.81531
2.83866
2.81958
2.79285
2.77742
2.76051
2.74475
2.73076
2.7179
2.70639
2.69682
2.68926
2.68359
2.6794
2.6761
2.67466
2.67437
2.67537
2.67701
2.6806
2.6855
2.69115
2.69733
2.70102
2.70427
2.70607
2.70783
2.71023
2.71314
2.71712
2.72144
2.72661
2.73232
2.73898
2.74646
2.75447
2.76408
2.77519
2.78778
2.80174
2.81705
2.83329
2.85001
2.86653
2.88178
2.89427
2.90287
2.90758
2.90884
2.90877
2.90795
2.90494
2.90071
2.8954
2.89127
2.88838
2.88937
2.88897
2.89462
2.90126
2.91271
2.92295
2.93062
0.999389
0.99941
0.999383
0.999352
0.999301
0.999234
0.999163
0.999071
0.99895
0.998835
0.99871
0.998536
0.998368
0.998219
0.998
0.997771
0.997592
0.997346
0.997026
0.996816
0.996621
0.996306
0.995863
0.99556
0.995323
0.995059
0.994705
0.994305
0.993879
0.993446
0.993101
0.992857
0.992745
0.992537
0.992154
0.99148
0.990488
0.98996
0.98958
0.989364
0.989114
0.989128
0.989252
0.990499
1.00164
1.19926
1.93114
2.07693
2.08809
2.09617
2.10894
2.17338
2.26032
2.46005
2.70531
2.81563
2.83414
2.81566
2.79046
2.77129
2.75259
2.73691
2.72373
2.71199
2.70125
2.69172
2.68361
2.67689
2.67152
2.66712
2.66346
2.66092
2.65974
2.65998
2.6606
2.66286
2.66602
2.67121
2.67786
2.68347
2.68889
2.69182
2.69461
2.69735
2.69997
2.70337
2.7075
2.7127
2.71876
2.72581
2.73334
2.74169
2.7514
2.7628
2.77575
2.79026
2.80621
2.82304
2.8405
2.85794
2.87398
2.88685
2.89554
2.90022
2.90155
2.90151
2.90061
2.89726
2.89246
2.88631
2.88166
2.87865
2.87944
2.87904
2.88429
2.89085
2.90194
2.91191
2.91835
0.999401
0.999422
0.999396
0.999367
0.999319
0.999251
0.999184
0.9991
0.998976
0.998872
0.998751
0.998573
0.998431
0.998282
0.998053
0.997858
0.997685
0.997426
0.997145
0.996943
0.996715
0.99642
0.99608
0.995755
0.99542
0.995162
0.994959
0.994649
0.994096
0.993446
0.993097
0.992983
0.993006
0.992832
0.992447
0.991728
0.990555
0.990015
0.989716
0.989516
0.98926
0.98918
0.989541
0.99236
1.02116
1.51955
2.07238
2.06689
2.07989
2.11078
2.14767
2.27846
2.47764
2.69813
2.82307
2.82837
2.81046
2.78785
2.76545
2.74612
2.72973
2.71647
2.70502
2.69454
2.68512
2.67712
2.67054
2.66517
2.66102
2.65701
2.65313
2.64965
2.64736
2.64641
2.64587
2.64679
2.64845
2.65226
2.6577
2.66423
2.67142
2.67566
2.67941
2.68248
2.68575
2.68959
2.69408
2.69941
2.70556
2.71241
2.72
2.72838
2.73783
2.7492
2.76218
2.77697
2.7933
2.81069
2.82889
2.84736
2.86447
2.87793
2.8871
2.89197
2.89351
2.89337
2.89237
2.88871
2.88337
2.87652
2.87151
2.86839
2.86947
2.86962
2.87446
2.88084
2.89113
2.90015
2.9057
0.999413
0.999434
0.99941
0.999382
0.999337
0.999273
0.999207
0.999128
0.999011
0.99891
0.99879
0.99863
0.998491
0.998336
0.998138
0.997954
0.99776
0.997537
0.997301
0.997055
0.996811
0.996583
0.996297
0.995911
0.995583
0.995413
0.99521
0.994842
0.994202
0.993677
0.993459
0.993363
0.993148
0.992776
0.992292
0.991537
0.99097
0.990627
0.990235
0.989579
0.988778
0.988201
0.988681
0.995553
1.10338
1.84647
2.0769
2.08934
2.11358
2.17366
2.26323
2.47395
2.72318
2.8258
2.82717
2.80794
2.78482
2.76058
2.74114
2.72403
2.70982
2.69797
2.68749
2.67799
2.66959
2.66263
2.65724
2.65304
2.64962
2.64636
2.64259
2.63884
2.63598
2.63375
2.63186
2.63201
2.63258
2.63516
2.63887
2.64496
2.65281
2.65876
2.66435
2.6681
2.67166
2.67516
2.67947
2.68487
2.69142
2.69862
2.70638
2.71467
2.72454
2.73628
2.74944
2.76424
2.78048
2.79809
2.81705
2.83664
2.8548
2.86869
2.87813
2.88318
2.88484
2.88478
2.88365
2.87985
2.87401
2.86656
2.86111
2.8579
2.85909
2.8598
2.86392
2.87012
2.87991
2.88856
2.89276
0.999426
0.999447
0.999426
0.999398
0.999356
0.999297
0.999232
0.999157
0.999055
0.998945
0.998834
0.9987
0.998546
0.998398
0.998241
0.998041
0.997848
0.997675
0.997445
0.997176
0.996975
0.996761
0.996448
0.996105
0.995909
0.995723
0.995412
0.994916
0.994423
0.994182
0.994008
0.993722
0.993247
0.992629
0.992109
0.991772
0.991701
0.991499
0.99102
0.990037
0.989044
0.989226
0.991843
1.01344
1.42516
2.00986
2.07168
2.09523
2.16428
2.28731
2.48719
2.71254
2.83166
2.82769
2.80695
2.78317
2.757
2.7375
2.71962
2.70401
2.69074
2.67969
2.67032