/*--------------------------------*- C++ -*----------------------------------*\
| =========                 |                                                 |
| \\      /  F ield         | OpenFOAM: The Open Source CFD Toolbox           |
|  \\    /   O peration     | Version:  2.2.x                                 |
|   \\  /    A nd           | Web:      www.OpenFOAM.org                      |
|    \\/     M anipulation  |                                                 |
\*---------------------------------------------------------------------------*/
FoamFile
{
    version     2.0;
    format      ascii;
    class       volScalarField;
    location    "1.2";
    object      T;
}
// * * * * * * * * * * * * * * * * * * * * * * * * * * * * * * * * * * * * * //

dimensions      [0 0 0 1 0 0 0];

internalField   nonuniform List<scalar> 
14161
(
0.996337
0.996797
0.996531
0.996272
0.995925
0.995481
0.994932
0.994368
0.993689
0.992869
0.992024
0.99108
0.989977
0.988978
0.98771
0.986269
0.985307
0.984229
0.982119
0.980502
0.979612
0.9789
0.976737
0.974521
0.97343
0.972856
0.972105
0.969712
0.968226
0.967204
0.966829
0.966926
0.967089
0.966836
0.966446
0.966706
0.967187
0.967846
0.970139
0.972991
0.976346
0.980988
0.986726
0.993561
1.00088
1.00973
1.01965
1.03021
1.0388
1.03377
2.00193
2.90057
3.00733
3.04708
3.03201
3.02056
2.98769
2.95943
2.92505
2.89073
2.85169
2.81689
2.78327
2.7492
2.72083
2.68994
2.66153
2.63508
2.60937
2.58727
2.56565
2.55017
2.5418
2.53547
2.53236
2.52969
2.54089
2.52897
2.52455
2.52277
2.54358
2.51984
2.51218
2.50586
2.51502
2.49766
2.4909
2.48543
2.48056
2.48704
2.47153
2.46245
2.45856
2.43487
2.42153
2.41053
2.39014
2.38083
2.3556
2.39609
2.40495
2.5799
2.69626
2.79583
2.90459
2.99048
3.04775
3.09073
3.12201
3.14482
3.15968
3.17238
3.1844
3.19876
3.21356
3.22725
3.23876
3.24647
3.25239
0.996332
0.996797
0.996532
0.996274
0.995926
0.995481
0.994932
0.994368
0.993687
0.992869
0.992022
0.991069
0.989988
0.988961
0.987664
0.986286
0.985306
0.984174
0.982026
0.980531
0.979684
0.978855
0.97651
0.974647
0.973658
0.972854
0.971925
0.969584
0.968129
0.967175
0.966946
0.967005
0.966839
0.966695
0.96627
0.966575
0.967187
0.968248
0.970774
0.97372
0.977005
0.980965
0.985765
0.990948
0.997337
1.00478
1.01681
1.02517
1.03585
1.03841
2.05526
2.92135
3.03557
3.0619
3.04102
3.02155
2.98529
2.95814
2.92889
2.89913
2.86562
2.83359
2.80103
2.76504
2.73591
2.70328
2.6733
2.64586
2.61796
2.59303
2.56955
2.55028
2.53751
2.52767
2.52404
2.5211
2.53193
2.51872
2.5141
2.51385
2.53402
2.5103
2.50193
2.4978
2.50617
2.48871
2.48145
2.47543
2.47174
2.47745
2.46187
2.45223
2.44773
2.42405
2.41315
2.40323
2.38679
2.38581
2.37526
2.44992
2.5115
2.7069
2.83825
2.93858
3.01731
3.06434
3.09879
3.12625
3.14723
3.16339
3.17403
3.18361
3.19292
3.20508
3.21767
3.22912
3.2386
3.24468
3.25109
0.996337
0.996798
0.996532
0.996276
0.995925
0.995484
0.994934
0.994368
0.993683
0.992867
0.992023
0.991067
0.990004
0.988953
0.987634
0.986352
0.985248
0.98408
0.982057
0.98069
0.979681
0.978681
0.976413
0.974937
0.97377
0.972759
0.97155
0.969443
0.968172
0.967419
0.966987
0.966801
0.966503
0.966338
0.965991
0.96629
0.966727
0.967406
0.969586
0.972105
0.975113
0.978793
0.983416
0.987929
0.993072
1.0015
1.01003
1.02086
1.03383
1.04226
2.07606
2.93032
3.0551
3.07119
3.04964
3.02925
2.98412
2.94925
2.91771
2.88702
2.85295
2.82264
2.78958
2.75134
2.7233
2.68929
2.66016
2.63363
2.60545
2.58077
2.55709
2.53551
2.52189
2.511
2.50677
2.50344
2.51553
2.50169
2.49658
2.49783
2.51527
2.49417
2.48517
2.48276
2.48917
2.47373
2.4666
2.45984
2.45657
2.45988
2.44584
2.43586
2.42997
2.41009
2.40126
2.39654
2.38212
2.40713
2.40727
2.52054
2.63547
2.78336
2.92824
3.03408
3.09099
3.12139
3.14411
3.16231
3.17585
3.18529
3.19031
3.19504
3.20002
3.20822
3.21797
3.22763
3.23565
3.24066
3.24669
0.996341
0.996798
0.996533
0.996277
0.995924
0.995488
0.99494
0.994367
0.993675
0.992868
0.992034
0.99106
0.990015
0.988939
0.98764
0.986446
0.985189
0.983894
0.98219
0.980927
0.979558
0.978353
0.976568
0.975291
0.973853
0.972402
0.971007
0.969499
0.96852
0.967796
0.966954
0.96644
0.965986
0.96568
0.9655
0.965538
0.966125
0.966779
0.968515
0.970517
0.972884
0.975758
0.979202
0.982674
0.98841
0.994494
1.00166
1.00882
1.01683
1.03961
1.98489
2.90774
3.05485
3.07393
3.03897
3.0131
2.96607
2.9285
2.89348
2.86027
2.81912
2.78206
2.74441
2.70326
2.67759
2.64103
2.61458
2.58905
2.56481
2.54073
2.52007
2.50062
2.48764
2.47724
2.47235
2.4694
2.48101
2.46873
2.46478
2.46713
2.48207
2.4652
2.45633
2.45422
2.45903
2.44565
2.43885
2.43306
2.43003
2.43092
2.41887
2.41176
2.40844
2.39725
2.38711
2.39911
2.39351
2.45594
2.50524
2.67176
2.80509
2.92609
3.00974
3.08711
3.12827
3.15674
3.17787
3.19416
3.20474
3.20964
3.20924
3.20781
3.20766
3.21175
3.21796
3.2254
3.23174
3.23614
3.24195
0.996346
0.9968
0.996536
0.996282
0.995921
0.995492
0.994955
0.994368
0.993665
0.992879
0.992047
0.991057
0.99002
0.988914
0.987667
0.986532
0.985168
0.98374
0.98238
0.981167
0.979409
0.977986
0.976741
0.97563
0.973962
0.972001
0.970603
0.969506
0.968913
0.968238
0.966638
0.965818
0.965203
0.964835
0.964771
0.964822
0.965123
0.965702
0.96692
0.967967
0.969368
0.971445
0.973166
0.975313
0.979059
0.982369
0.986637
0.989783
0.996082
1.04507
1.79932
2.86056
3.04542
3.06211
3.00891
2.97234
2.91674
2.87697
2.83591
2.79728
2.7563
2.71243
2.67403
2.63338
2.61004
2.57348
2.55239
2.52093
2.50594
2.47694
2.46002
2.44473
2.43274
2.4246
2.42076
2.41858
2.42933
2.42112
2.41804
2.42225
2.43531
2.4226
2.415
2.41218
2.41543
2.40417
2.39875
2.39603
2.39326
2.395
2.39168
2.39
2.38271
2.38551
2.37646
2.4186
2.43572
2.53328
2.65981
2.79476
2.93701
3.00637
3.05744
3.10648
3.14214
3.17438
3.19666
3.21357
3.22451
3.22823
3.22457
3.21887
3.21432
3.21459
3.21758
3.2227
3.22742
3.23161
3.23724
0.996353
0.996805
0.996543
0.996288
0.995915
0.995499
0.994975
0.994371
0.99366
0.992902
0.992058
0.991066
0.990051
0.988889
0.987725
0.986609
0.985111
0.983651
0.982561
0.981392
0.979293
0.977687
0.976764
0.975847
0.974157
0.971801
0.970312
0.969474
0.968966
0.968502
0.966297
0.965157
0.96438
0.963948
0.96393
0.96393
0.964028
0.96423
0.96408
0.96438
0.964909
0.965755
0.966589
0.967128
0.968947
0.970422
0.971413
0.973888
0.974891
1.01746
1.47261
2.77264
3.0339
3.02083
2.93649
2.87551
2.81429
2.77787
2.73326
2.7007
2.6599
2.61744
2.58658
2.54638
2.52932
2.49
2.47958
2.44098
2.43105
2.40508
2.39047
2.3785
2.36615
2.36086
2.35868
2.35695
2.36628
2.36179
2.35956
2.3631
2.375
2.36738
2.36183
2.35892
2.36337
2.35681
2.35523
2.35404
2.35726
2.3633
2.3691
2.37076
2.35997
2.39463
2.39796
2.46928
2.54905
2.67768
2.80167
2.93059
3.00596
3.03774
3.07937
3.11155
3.14997
3.18168
3.20712
3.22481
3.23618
3.24001
3.23624
3.22813
3.22016
3.21707
3.21707
3.22002
3.22283
3.22724
3.23289
0.996363
0.996811
0.996549
0.996292
0.995916
0.995505
0.994993
0.99437
0.993669
0.992937
0.992055
0.99108
0.99009
0.988869
0.987771
0.986698
0.985069
0.983615
0.982701
0.981549
0.979276
0.977557
0.976695
0.975921
0.974275
0.971773
0.970202
0.969359
0.968888
0.96847
0.965997
0.964676
0.963711
0.962988
0.962806
0.96284
0.96265
0.962645
0.961415
0.96041
0.959671
0.958933
0.958446
0.957604
0.957451
0.956113
0.954245
0.952121
0.948677
0.963379
0.982981
2.59207
3.0175
2.93953
2.83329
2.75571
2.68681
2.65851
2.62128
2.5937
2.56093
2.51924
2.50687
2.46056
2.45917
2.40889
2.4068
2.37421
2.35578
2.34679
2.32676
2.31898
2.3063
2.30337
2.30276
2.30213
2.3104
2.30829
2.30665
2.30936
2.31996
2.31743
2.31512
2.31444
2.31982
2.31855
2.32287
2.3191
2.33561
2.341
2.35084
2.37057
2.36602
2.42954
2.47272
2.58239
2.71696
2.81755
2.93342
2.99334
3.02907
3.05554
3.08574
3.11297
3.15334
3.18603
3.21128
3.22921
3.24105
3.24555
3.24293
3.2344
3.22446
3.21913
3.21658
3.21761
3.21844
3.22283
3.22848
0.996374
0.996817
0.996556
0.996299
0.995923
0.995511
0.99501
0.994375
0.993688
0.99297
0.992052
0.991107
0.990121
0.988871
0.987838
0.986763
0.985006
0.98365
0.982786
0.981559
0.979196
0.977562
0.976743
0.975938
0.97419
0.971693
0.970119
0.969287
0.968853
0.968211
0.965729
0.964289
0.963091
0.962172
0.961649
0.961527
0.961112
0.960711
0.959103
0.957056
0.955171
0.953056
0.95138
0.949075
0.946861
0.942457
0.93884
0.929978
0.924923
0.911061
0.921719
2.22197
3.01225
2.83879
2.72756
2.63729
2.57942
2.54906
2.53042
2.4967
2.48198
2.43523
2.44266
2.39297
2.40134
2.34829
2.33759
2.32859
2.30225
2.29634
2.27758
2.27093
2.25986
2.25861
2.2592
2.2625
2.26773
2.26892
2.26993
2.27379
2.28247
2.28464
2.28286
2.28761
2.29226
2.29548
2.30188
2.2963
2.3283
2.34408
2.35201
2.40121
2.4186
2.52617
2.63237
2.73232
2.85496
2.93882
2.98443
3.01343
3.03196
3.06182
3.08656
3.11655
3.15127
3.18542
3.21085
3.22942
3.24171
3.24712
3.24588
3.23765
3.22687
3.22027
3.21568
3.21512
3.21439
3.21861
3.22405
0.996386
0.996824
0.996564
0.996309
0.995936
0.995516
0.995026
0.994383
0.993706
0.992996
0.992061
0.991139
0.990143
0.988901
0.987898
0.986778
0.984979
0.983774
0.982783
0.981455
0.979144
0.977719
0.976831
0.975859
0.973873
0.971622
0.970276
0.969416
0.968663
0.967629
0.96536
0.963921
0.962625
0.961534
0.960585
0.959945
0.958902
0.95798
0.955907
0.95372
0.951431
0.948371
0.944993
0.94091
0.936173
0.928763
0.919875
0.910292
0.899603
0.889997
0.906774
1.44659
2.79324
2.70139
2.61579
2.52671
2.4917
2.45811
2.44994
2.42242
2.43358
2.38046
2.39492
2.35444
2.34657
2.31864
2.29674
2.30003
2.26943
2.26099
2.24849
2.24158
2.23084
2.23227
2.23394
2.24
2.24313
2.24725
2.25173
2.25578
2.26306
2.2677
2.26474
2.27635
2.28253
2.28489
2.30078
2.30009
2.34392
2.38063
2.40828
2.4998
2.5745
2.67214
2.78159
2.88233
2.94629
2.97878
2.99869
3.01114
3.03368
3.0586
3.08591
3.11767
3.14911
3.18111
3.20611
3.22467
3.23746
3.24406
3.24445
3.23745
3.22694
3.21997
3.21407
3.21251
3.21058
3.21455
3.21944
0.996399
0.996835
0.996575
0.996322
0.995954
0.995522
0.995037
0.994397
0.993726
0.993012
0.992082
0.991165
0.990138
0.988954
0.987911
0.986732
0.985089
0.983919
0.982722
0.981226
0.979324
0.977973
0.976735
0.97555
0.973626
0.971943
0.970712
0.96944
0.968195
0.966556
0.964876
0.963665
0.962362
0.961016
0.959557
0.958291
0.956691
0.954773
0.952313
0.950097
0.948313
0.945791
0.941122
0.936414
0.930635
0.924302
0.917402
0.91106
0.907726
0.91173
0.978734
1.53693
2.38623
2.52857
2.56717
2.47413
2.45574
2.42057
2.41703
2.38721
2.40331
2.35747
2.35867
2.34645
2.31663
2.31685
2.28367
2.27669
2.25344
2.24096
2.23375
2.22984
2.21963
2.22033
2.22385
2.22856
2.2345
2.23999
2.24668
2.24929
2.25824
2.2637
2.2588
2.28196
2.29404
2.29258
2.33223
2.35385
2.42277
2.50155
2.55032
2.65708
2.75556
2.84039
2.9224
2.9602
2.97873
2.9889
2.99564
3.00964
3.03138
3.05396
3.08343
3.11477
3.14669
3.17737
3.20182
3.22045
3.23329
3.2405
3.24198
3.23626
3.22616
3.2188
3.21183
3.20967
3.2068
3.21044
3.21472
0.996414
0.996847
0.996587
0.996334
0.995975
0.995532
0.995042
0.994421
0.993753
0.993012
0.992105
0.991216
0.990139
0.989033
0.987953
0.986667
0.985242
0.984013
0.982683
0.981104
0.979607
0.978275
0.976556
0.975092
0.973535
0.972441
0.971285
0.969203
0.967416
0.965761
0.964334
0.963311
0.96237
0.961149
0.958571
0.956607
0.95445
0.95205
0.949612
0.946759
0.94482
0.941863
0.938127
0.931344
0.925178
0.917775
0.909446
0.896468
0.87186
0.858425
0.936359
1.26219
2.22983
2.33725
2.48335
2.47404
2.49043
2.42497
2.42517
2.39572
2.41196
2.36833
2.3584
2.35202
2.3186
2.30735
2.28659
2.2649
2.26062
2.24188
2.23314
2.22874
2.21717
2.22083
2.22567
2.23059
2.23614
2.23943
2.24935
2.25217
2.26831
2.27952
2.27846
2.3168
2.35194
2.35365
2.43404
2.4975
2.57246
2.67553
2.74852
2.83037
2.92
2.95428
2.97306
2.98081
2.98509
2.98799
2.99426
3.01014
3.02734
3.05113
3.07957
3.11058
3.14123
3.17005
3.19368
3.21247
3.22582
3.23419
3.2371
3.23317
3.22407
3.21657
3.20882
3.20649
3.20306
3.20642
3.21012
0.996431
0.996861
0.9966
0.996346
0.995997
0.995555
0.995044
0.994452
0.993793
0.993009
0.992152
0.991269
0.990169
0.98912
0.987991
0.986645
0.985438
0.984158
0.982601
0.981116
0.979951
0.978573
0.97644
0.974705
0.97349
0.972653
0.971759
0.969026
0.966974
0.965359
0.963899
0.96288
0.962021
0.961256
0.957808
0.955349
0.952995
0.950452
0.948063
0.945604
0.944174
0.941998
0.938377
0.935486
0.92915
0.924163
0.920333
0.920423
0.928433
0.994044
1.06979
1.87738
2.14171
2.3128
2.3705
2.51062
2.53495
2.49726
2.46712
2.4296
2.43573
2.39656
2.37365
2.36802
2.32567
2.31016
2.29596
2.26892
2.2627
2.25036
2.24029
2.2325
2.22412
2.22969
2.23673
2.24605
2.25586
2.25872
2.27868
2.28704
2.31005
2.34018
2.35189
2.4126
2.4807
2.51028
2.60583
2.70658
2.77048
2.85328
2.9275
2.96429
2.9811
2.98919
2.98517
2.98263
2.98325
2.98538
2.9958
3.00823
3.02612
3.04874
3.07611
3.10632
3.1373
3.16517
3.18789
3.20611
3.21938
3.22835
3.23213
3.22972
3.22143
3.21369
3.20519
3.20293
3.1992
3.20221
3.2052
0.996449
0.996876
0.996614
0.996361
0.996017
0.99558
0.995053
0.994502
0.993821
0.993026
0.992214
0.991298
0.990226
0.9892
0.988005
0.986678
0.985623
0.984301
0.9825
0.981166
0.98016
0.978781
0.976417
0.974547
0.97342
0.972697
0.971918
0.968876
0.966759
0.965117
0.963554
0.962506
0.961594
0.960723
0.957475
0.954644
0.952211
0.949741
0.947422
0.944919
0.943573
0.941933
0.939645
0.937872
0.932278
0.928259
0.923555
0.923135
0.926062
1.00197
1.58112
2.1486
2.15654
2.18592
2.24072
2.47588
2.51315
2.55358
2.48138
2.45987
2.45125
2.41865
2.38718
2.38015
2.33559
2.32192
2.30575
2.27971
2.26447
2.26255
2.25567
2.24845
2.24446
2.25717
2.26423
2.28605
2.30165
2.30462
2.34777
2.38078
2.41021
2.47175
2.52747
2.58657
2.67558
2.73934
2.8121
2.90023
2.95092
2.98169
2.98967
3.00177
2.99434
2.98442
2.98028
2.98045
2.98173
2.98741
2.99612
3.00806
3.02516
3.04669
3.0719
3.1
3.12972
3.15691
3.18003
3.19878
3.21241
3.22211
3.22662
3.22558
3.21811
3.21027
3.20098
3.19882
3.19502
3.19781
3.20056
0.996469
0.996892
0.996632
0.996379
0.996039
0.995606
0.99508
0.994545
0.993836
0.993062
0.99229
0.991295
0.990292
0.989308
0.987992
0.986764
0.985744
0.984373
0.982503
0.981284
0.980289
0.978812
0.976347
0.974542
0.973496
0.972686
0.971801
0.968743
0.966562
0.964837
0.963269
0.96219
0.961238
0.960093
0.957501
0.954445
0.952
0.949674
0.947552
0.945337
0.944138
0.94277
0.940847
0.939506
0.934133
0.930545
0.924606
0.919308
0.933571
0.949498
1.91061
2.14865
2.14993
2.13925
2.16274
2.32059
2.35616
2.51278
2.49025
2.49728
2.44355
2.42155
2.39524
2.3867
2.34666
2.34269
2.3188
2.28684
2.28026
2.28497
2.27978
2.28908
2.29178
2.31371
2.32563
2.3625
2.40761
2.42048
2.49157
2.56435
2.59423
2.67557
2.75777
2.80349
2.8759
2.94167
2.98718
3.00844
3.00907
3.01994
3.00219
2.99238
2.98662
2.98218
2.97966
2.97913
2.98144
2.98756
2.99568
3.00789
3.02432
3.04473
3.06831
3.09503
3.12386
3.14965
3.17185
3.19026
3.20396
3.21437
3.21963
3.21997
3.2137
3.2063
3.19629
3.19429
3.19051
3.19324
3.19541
0.996491
0.99691
0.996653
0.996403
0.996061
0.995633
0.995109
0.994579
0.99386
0.993107
0.992357
0.991324
0.990375
0.989404
0.988011
0.986885
0.985824
0.984357
0.982603
0.981458
0.980308
0.978714
0.976382
0.974787
0.973619
0.972629
0.971431
0.968655
0.966552
0.964796
0.963158
0.961846
0.960788
0.959215
0.957164
0.954446
0.952159
0.949946
0.948155
0.946439
0.945395
0.943944
0.942155
0.940735
0.938375
0.938519
0.940932
0.942365
1.01288
1.1409
2.06943
2.19344
2.19993
2.19376
2.18946
2.23342
2.23866
2.41888
2.46665
2.55114
2.46178
2.45368
2.41834
2.39874
2.38144
2.34804
2.35755
2.30599
2.32167
2.32983
2.32581
2.36251
2.38325
2.41961
2.46263
2.51068
2.5773
2.62198
2.6917
2.7796
2.82748
2.88747
2.95406
2.98863
3.01443
3.02177
3.027
3.03589
3.01415
3.00652
2.99873
2.9913
2.9841
2.98007
2.97841
2.97872
2.98204
2.98682
2.99543
3.00745
3.02303
3.04215
3.06374
3.08923
3.11747
3.14276
3.16422
3.18234
3.19602
3.20694
3.21259
3.21398
3.20855
3.20199
3.19147
3.18943
3.1855
3.18814
3.19033
0.996515
0.996929
0.996676
0.99643
0.996083
0.995661
0.995144
0.9946
0.9939
0.993165
0.992388
0.991392
0.99045
0.989455
0.988109
0.987016
0.985896
0.984324
0.982823
0.981581
0.980282
0.978552
0.976677
0.975168
0.97364
0.972392
0.970864
0.968926
0.967023
0.965032
0.963203
0.961494
0.960014
0.958355
0.956704
0.955
0.953304
0.951074
0.949189
0.947767
0.946488
0.944729
0.94327
0.942376
0.941525
0.941031
0.94264
0.946459
1.03864
1.48362
2.25242
2.23278
2.21871
2.21385
2.20176
2.19581
2.20649
2.31247
2.36171
2.51705
2.48711
2.54029
2.46498
2.43898
2.42316
2.3859
2.41657
2.36776
2.40433
2.43192
2.42844
2.49324
2.54423
2.57851
2.66221
2.72049
2.7839
2.85164
2.90244
2.96859
3.00726
3.02565
3.03232
3.03657
3.05065
3.04048
3.02447
3.02064
3.01107
3.00382
2.99557
2.98861
2.98299
2.97936
2.97795
2.97883
2.98103
2.98631
2.99446
3.00578
3.02032
3.0379
3.05765
3.08216
3.10912
3.13363
3.15472
3.17286
3.1868
3.19839
3.20448
3.20694
3.20237
3.1973
3.18687
3.18451
3.18021
3.18255
3.18426
0.99654
0.996951
0.996701
0.996456
0.996108
0.995692
0.9952
0.994622
0.993947
0.993242
0.992421
0.991479
0.990547
0.989463
0.988256
0.987116
0.98593
0.984447
0.983143
0.981726
0.980198
0.978564
0.977085
0.975629
0.973756
0.972045
0.970445
0.969136
0.967602
0.965726
0.963182
0.961172
0.959358
0.957641
0.956263
0.955389
0.954224
0.952983
0.95031
0.948657
0.946995
0.945419
0.943595
0.942061
0.939794
0.936139
0.932302
0.933162
0.964362
1.91968
2.24473
2.24592
2.23
2.22415
2.20857
2.20232
2.18266
2.23268
2.26103
2.43468
2.48598
2.59568
2.50785
2.5119
2.4743
2.46389
2.50792
2.46911
2.53315
2.58446
2.60202
2.67086
2.74471
2.79104
2.87043
2.92274
2.97362
3.01668
3.03471
3.04317
3.04987
3.05762
3.05429
3.0372
3.03408
3.03073
3.02184
3.01539
3.00694
2.99948
2.99273
2.98665
2.98212
2.97881
2.97793
2.97827
2.98025
2.98512
2.99282
3.00377
3.01784
3.03467
3.05378
3.07811
3.1037
3.12649
3.14657
3.16421
3.17809
3.18998
3.19628
3.19963
3.19581
3.19239
3.18254
3.17963
3.17469
3.17626
3.17766
0.996568
0.996976
0.996727
0.996484
0.996137
0.99573
0.995256
0.994659
0.994016
0.993328
0.992465
0.991586
0.99066
0.989503
0.988436
0.987287
0.985913
0.984643
0.983444
0.981897
0.980115
0.97872
0.97752
0.976052
0.973759
0.971792
0.97017
0.969208
0.96788
0.966422
0.963297
0.960994
0.959175
0.957582
0.95624
0.955654
0.954526
0.953698
0.951151
0.949323
0.948018
0.946893
0.945784
0.944709
0.943599
0.943781
0.941531
0.989929
1.09039
2.05869
2.23463
2.24518
2.24153
2.24448
2.2327
2.23801
2.21805
2.24054
2.26162
2.34173
2.43409
2.63513
2.56277
2.63451
2.52878
2.58571
2.63909
2.63736
2.69953
2.76236
2.8193
2.87041
2.93247
2.97936
3.02163
3.04051
3.04589
3.05617
3.05635
3.06249
3.04964
3.04345
3.04297
3.03434
3.0314
3.02462
3.0171
3.01052
3.00312
2.99639
2.99039
2.98563
2.98187
2.97904
2.97758
2.97755
2.97924
2.98349
2.99075
3.00106
3.01424
3.0297
3.04762
3.07099
3.09551
3.11777
3.1375
3.15497
3.16892
3.18107
3.1876
3.19201
3.18909
3.18754
3.17847
3.17467
3.16892
3.16988
3.17079
0.996598
0.997002
0.996756
0.996516
0.996172
0.995775
0.995303
0.994708
0.99409
0.993388
0.992531
0.991697
0.990725
0.989606
0.988608
0.987432
0.985944
0.98485
0.98372
0.981959
0.980097
0.978903
0.977789
0.976262
0.973721
0.971752
0.97027
0.969418
0.96804
0.966547
0.963405
0.961114
0.959276
0.95778
0.956307
0.955409
0.954413
0.953228
0.952103
0.950399
0.949282
0.948589
0.948036
0.948025
0.948516
0.951237
0.9585
1.03693
1.48769
2.21746
2.25736
2.25693
2.25911
2.26139
2.26051
2.2516
2.235
2.24891
2.2903
2.29579
2.50308
2.6717
2.67466
2.74293
2.6798
2.75628
2.79444
2.85589
2.891
2.93818
2.98619
3.01047
3.03055
3.04006
3.05427
3.05935
3.06404
3.05325
3.04592
3.04563
3.04812
3.03835
3.03631
3.02911
3.02465
3.0194
3.01326
3.00748
3.00106
2.99452
2.98887
2.98476
2.98105
2.97873
2.97775
2.97718
2.97885
2.98205
2.989
2.99872
3.01139
3.02597
3.04295
3.06509
3.08844
3.10994
3.12908
3.14621
3.15997
3.17207
3.17865
3.184
3.18204
3.18243
3.17434
3.16967
3.16313
3.16322
3.16346
0.99663
0.997029
0.996787
0.996552
0.996212
0.99582
0.995349
0.994771
0.994168
0.993427
0.992632
0.991835
0.990759
0.989745
0.988783
0.987483
0.986104
0.985049
0.983895
0.98194
0.980348
0.97914
0.977881
0.9762
0.973897
0.972164
0.970612
0.969359
0.96807
0.966195
0.964055
0.961637
0.959573
0.957932
0.956425
0.955034
0.953762
0.952898
0.951836
0.950899
0.950273
0.949627
0.948415
0.947207
0.945379
0.943679
0.943963
1.00244
1.85587
2.2813
2.28329
2.2784
2.27503
2.26873
2.27166
2.27398
2.25789
2.29336
2.36889
2.39064
2.68477
2.76622
2.83982
2.88993
2.89315
2.95233
2.96713
3.00358
3.0183
3.02581
3.03839
3.04973
3.0541
3.05657
3.04793
3.04387
3.04677
3.0464
3.04074
3.03729
3.03676
3.03318
3.03089
3.02512
3.01987
3.0143
3.00825
3.00233
2.99702
2.99146
2.98654
2.98346
2.98024
2.97835
2.97709
2.97661
2.97732
2.97989
2.98603
2.99502
3.00703
3.02059
3.03679
3.05808
3.08071
3.10174
3.12041
3.13713
3.15067
3.16264
3.16922
3.17539
3.17434
3.17647
3.16965
3.16475
3.15747
3.15634
3.15616
0.996664
0.997061
0.996822
0.996591
0.996259
0.995865
0.995399
0.994845
0.99424
0.993502
0.99274
0.991936
0.990869
0.989908
0.988945
0.987564
0.986381
0.985224
0.983929
0.982202
0.980866
0.979417
0.977876
0.976155
0.974455
0.972793
0.97103
0.969331
0.967708
0.966315
0.964605
0.962768
0.960129
0.958144
0.956479
0.955009
0.95368
0.952395
0.951491
0.950774
0.949963
0.949048
0.948251
0.946039
0.94458
0.941525
0.974447
1.05036
2.05192
2.26895
2.28249
2.28664
2.28798
2.28423
2.29077
2.29826
2.29064
2.34919
2.48897
2.53644
2.80193
2.94984
3.0232
3.03803
3.04701
3.05187
3.05106
3.05281
3.05664
3.05279
3.04582
3.0404
3.03982
3.04096
3.04381
3.03719
3.03835
3.03412
3.03494
3.02933
3.0285
3.02445
3.02085
3.01651
3.01187
3.0073
3.00292
2.99825
2.995
2.98999
2.98635
2.98253
2.98002
2.97772
2.97644
2.9758
2.97608
2.97828
2.98392
2.9922
3.00292
3.01516
3.03036
3.05059
3.0725
3.09327
3.11143
3.12781
3.14133
3.15324
3.15977
3.1665
3.16614
3.16959
3.16405
3.15963
3.15206
3.14977
3.14842
0.9967
0.997094
0.996859
0.996633
0.996311
0.995912
0.99546
0.994939
0.994308
0.993612
0.992882
0.992003
0.991043
0.99009
0.989021
0.987799
0.986699
0.985427
0.983905
0.982671
0.981438
0.979672
0.977806
0.97639
0.975105
0.973497
0.971218
0.969261
0.967581
0.9666
0.965103
0.963725
0.960698
0.958525
0.956781
0.955324
0.953994
0.95264
0.951328
0.950631
0.950227
0.949778
0.949461
0.950185
0.950326
0.952908
1.02598
1.36949
2.19182
2.27661
2.28449
2.29343
2.29737
2.29669
2.31314
2.34848
2.35398
2.44303
2.64186
2.78067
2.9813
3.08934
3.10632
3.09711
3.09057
3.08492
3.07445
3.06363
3.05237
3.04623
3.04137
3.03669
3.0341
3.0301
3.03113
3.02668
3.02589
3.02275
3.02254
3.01907
3.01779
3.01598
3.01354
3.01164
3.00768
3.00346
2.99941
2.99419
2.99141
2.98566
2.98371
2.97898
2.97712
2.97512
2.97408
2.97361
2.97386
2.97586
2.98109
2.98891
2.9986
3.00995
3.02442
3.04377
3.06485
3.08515
3.10257
3.11866
3.1321
3.14388
3.1505
3.15754
3.15776
3.16228
3.15792
3.1545
3.14687
3.14293
3.14067
0.996739
0.997129
0.9969
0.996679
0.996367
0.995966
0.995535
0.995027
0.99438
0.99374
0.993012
0.992089
0.991237
0.990291
0.989098
0.988105
0.987037
0.985464
0.984087
0.983091
0.981878
0.979706
0.977978
0.976801
0.975562
0.973895
0.97137
0.969456
0.967846
0.966797
0.965492
0.963778
0.961758
0.959199
0.957318
0.955817
0.954419
0.953024
0.951629
0.950183
0.948596
0.947937
0.946875
0.945744
0.942547
0.943737
1.01318
1.81225
2.29997
2.3021
2.29868
2.30187
2.3099
2.30862
2.33662
2.4215
2.45664
2.6035
2.80425
3
3.10452
3.12907
3.10767
3.09943
3.08568
3.07696
3.07008
3.06303
3.05514
3.0457
3.03801
3.03022
3.02431
3.01872
3.01868
3.01623
3.01604
3.01386
3.01452
3.01411
3.01164
3.0104
3.00643
3.00368
3.0002
2.99583
2.99255
2.98844
2.98745
2.98355
2.98222
2.97837
2.97646
2.97452
2.97358
2.97317
2.97332
2.97494
2.97935
2.98596
2.99409
3.00421
3.01766
3.03608
3.05639
3.07617
3.09295
3.1089
3.12237
3.13439
3.1415
3.14889
3.14962
3.15464
3.15118
3.14868
3.14138
3.1361
3.13319
0.996782
0.997167
0.996944
0.996729
0.996424
0.996028
0.995618
0.995106
0.99448
0.993865
0.993105
0.992244
0.991448
0.990394
0.98931
0.988391
0.987275
0.985655
0.984469
0.983411
0.982089
0.980075
0.978532
0.977135
0.97581
0.974041
0.971914
0.970091
0.968376
0.966796
0.9657
0.964072
0.962871
0.960203
0.958058
0.956263
0.954672
0.953085
0.951524
0.949678
0.947286
0.945207
0.943371
0.941073
0.937409
0.97257
1.04868
2.06841
2.2854
2.29906
2.29966
2.3067
2.3253
2.32834
2.36542
2.53019
2.60957
2.80954
3.00258
3.09924
3.12507
3.09952
3.08981
3.07449
3.06599
3.06028
3.05561
3.0506
3.04545
3.03839
3.03041
3.02323
3.01771
3.0119
3.00845
3.00655
3.00594
3.0039
3.00218
3.00265
2.99996
3.00005
2.99738
2.99613
2.99465
2.99129
2.98901
2.98458
2.98196
2.97766
2.97607
2.97277
2.97088
2.9692
2.96857
2.96865
2.96931
2.97114
2.97523
2.98127
2.98882
2.9985
3.01141
3.02905
3.0485
3.06759
3.08371
3.09938
3.11277
3.12522
3.13286
3.14047
3.14151
3.14664
3.14406
3.1423
3.13562
3.12958
3.12607
0.996826
0.997209
0.996992
0.996781
0.996487
0.996099
0.995701
0.995194
0.994599
0.993979
0.993237
0.992438
0.991629
0.990563
0.989601
0.988652
0.987393
0.986082
0.984906
0.983671
0.982241
0.980759
0.979215
0.977531
0.975941
0.974468
0.972886
0.970736
0.968793
0.966972
0.965825
0.964587
0.963185
0.961556
0.9588
0.956829
0.955142
0.953613
0.952118
0.950597
0.949389
0.948874
0.949345
0.952326
0.957813
1.03882
1.44035
2.23501
2.29411
2.29639
2.30195
2.32075
2.36137
2.38806
2.47183
2.65497
2.80783
3.01396
3.10078
3.11862
3.09346
3.08139
3.06506
3.05493
3.04807
3.04405
3.04159
3.03888
3.03483
3.03049
3.02469
3.01803
3.01215
3.00614
3.00165
2.99714
2.99634
2.99332
2.99132
2.99174
2.99063
2.99166
2.99028
2.98753
2.98548
2.98184
2.97984
2.97711
2.97733
2.97447
2.97493
2.97184
2.96953
2.96784
2.96748
2.9679
2.96881
2.97052
2.97378
2.97848
2.98471
2.9933
3.00529
3.02204
3.04056
3.05898
3.07444
3.08983
3.10301
3.11583
3.12434
3.13219
3.13353
3.13872
3.13686
3.13535
3.12916
3.12262
3.1195
0.996875
0.997255
0.997042
0.996836
0.996556
0.996187
0.995778
0.9953
0.994738
0.994093
0.993407
0.992658
0.991784
0.990845
0.989939
0.988847
0.987679
0.986594
0.985342
0.983901
0.982698
0.981462
0.979764
0.97785
0.976373
0.975148
0.973717
0.971394
0.969524
0.967819
0.966288
0.964991
0.963515
0.961688
0.959831
0.958064
0.955949
0.954107
0.952212
0.950253
0.947952
0.945278
0.940897
0.937472
0.941516
1.00325
1.89932
2.29337
2.31077
2.31058
2.30919
2.34747
2.40359
2.49185
2.65736
2.81926
3.02
3.10329
3.11018
3.08834
3.07324
3.05737
3.04582
3.03728
3.03198
3.02895
3.02687
3.02487
3.0224
3.01958
3.01626
3.01154
3.00567
2.99926
2.99445
2.98887
2.9871
2.9831
2.98094
2.97871
2.97698
2.97837
2.97949
2.97941
2.97968
2.97767
2.97597
2.97333
2.97251
2.96893
2.96792
2.96459
2.96215
2.96101
2.96097
2.96169
2.96296
2.96495
2.96809
2.97229
2.97814
2.98654
2.99828
3.0142
3.03185
3.04979
3.06487
3.08026
3.0935
3.10694
3.11613
3.12398
3.12525
3.13035
3.12886
3.1273
3.12221
3.11653
3.11371
0.996928
0.997304
0.997095
0.996896
0.996631
0.996284
0.995869
0.995428
0.994867
0.994243
0.993615
0.99284
0.991976
0.991165
0.99024
0.989092
0.988109
0.987096
0.985631
0.984361
0.98328
0.982043
0.980249
0.978612
0.977122
0.975677
0.97415
0.972396
0.970846
0.968836
0.967029
0.965132
0.963505
0.962214
0.960648
0.959307
0.956859
0.954172
0.951851
0.949899
0.947685
0.945641
0.945376
0.943197
1.00195
1.08463
2.11877
2.28368
2.30812
2.32657
2.3384
2.42205
2.49035
2.63562
2.83206
3.02214
3.10014
3.09836
3.07863
3.06374
3.05029
3.03779
3.02839
3.02194
3.01756
3.01465
3.01255
3.01076
3.00905
3.00787
3.00535
3.00238
2.99803
2.99239
2.98748
2.98107
2.97777
2.97298
2.97254
2.96877
2.96802
2.96799
2.96931
2.96897
2.96894
2.96762
2.96615
2.96489
2.96609
2.96502
2.96521
2.96306
2.96062
2.9596
2.95959
2.96011
2.96115
2.96286
2.96557
2.96886
2.97385
2.98144
2.99241
3.00712
3.02373
3.04106
3.05561
3.07081
3.08404
3.09799
3.10765
3.11539
3.11668
3.12168
3.12082
3.11945
3.11506
3.11043
3.10777
0.996984
0.997356
0.997153
0.996962
0.996713
0.996379
0.995975
0.995563
0.995001
0.994404
0.99382
0.993024
0.992232
0.991483
0.990491
0.989481
0.988552
0.987494
0.986152
0.984979
0.983821
0.982501
0.981071
0.979571
0.977935
0.97614
0.974965
0.973657
0.972186
0.969635
0.967358
0.965396
0.96404
0.962974
0.961538
0.960104
0.957755
0.954954
0.953049
0.951899
0.951045
0.950896
0.953249
0.956053
1.06731
1.53775
2.34028
2.3228
2.33291
2.37246
2.38434
2.53443
2.67617
2.83179
3.02393
3.10426
3.09091
3.07429
3.05881
3.04388
3.03154
3.02167
3.01461
3.0096
3.0059
3.00298
3.00047
2.99843
2.99646
2.99574
2.99421
2.99192
2.9888
2.98424
2.98072
2.97489
2.9704
2.96459
2.96448
2.95917
2.95811
2.95685
2.95877
2.96052
2.96228
2.96335
2.96289
2.96168
2.9616
2.95929
2.95806
2.9554
2.95238
2.95164
2.95186
2.95269
2.95397
2.9559
2.95853
2.96143
2.96628
2.97369
2.98454
2.99871
3.01487
3.03155
3.0458
3.06104
3.07466
3.08943
3.09969
3.10721
3.10827
3.11264
3.11198
3.11071
3.10728
3.10375
3.10264
0.997046
0.997412
0.997218
0.997038
0.996798
0.996479
0.996088
0.995691
0.995164
0.994593
0.994014
0.993283
0.992544
0.991771
0.99086
0.989952
0.988966
0.987927
0.986827
0.98565
0.984339
0.983245
0.982009
0.98045
0.9786
0.977185
0.976176
0.974766
0.972901
0.970261
0.968298
0.96682
0.965525
0.963899
0.96218
0.959772
0.956714
0.954102
0.951559
0.948516
0.943737
0.937396
0.929613
0.953997
1.03093
2.05815
2.31361
2.32489
2.34436
2.41421
2.49759
2.65334
2.84205
3.02563
3.10405
3.08579
3.07291
3.05502
3.0397
3.0271
3.01695
3.00923
3.00357
2.99946
2.99625
2.99329
2.99047
2.9878
2.98543
2.98396
2.98319
2.98098
2.97875
2.97567
2.97428
2.96963
2.96481
2.95828
2.9561
2.95053
2.95164
2.94911
2.94918
2.94953
2.95117
2.95212
2.95206
2.9513
2.95168
2.95148
2.95367
2.95366
2.95093
2.94969
2.94943
2.95024
2.95175
2.95367
2.95583
2.95771
2.96172
2.9681
2.97852
2.9916
3.00722
3.02283
3.03687
3.05192
3.0655
3.08082
3.09106
3.09843
3.09898
3.10276
3.10337
3.10254
3.10022
3.09818
3.09752
0.997113
0.997473
0.997289
0.997124
0.996884
0.996588
0.996216
0.995817
0.995351
0.994803
0.994213
0.993583
0.992857
0.992083
0.991302
0.990414
0.989433
0.988502
0.987526
0.986244
0.985124
0.984104
0.982877
0.981153
0.979761
0.978772
0.977464
0.975738
0.973315
0.971469
0.970154
0.968942
0.967292
0.964979
0.962389
0.959655
0.957689
0.956497
0.954937
0.954145
0.952637
0.955528
0.961741
1.04678
1.51494
2.25497
2.32822
2.33789
2.41439
2.52868
2.69061
2.85768
3.03505
3.10257
3.07978
3.06957
3.05128
3.03565
3.02306
3.01307
3.00552
2.9997
2.9953
2.99191
2.98892