/*--------------------------------*- C++ -*----------------------------------*\
| =========                 |                                                 |
| \\      /  F ield         | OpenFOAM: The Open Source CFD Toolbox           |
|  \\    /   O peration     | Version:  2.2.x                                 |
|   \\  /    A nd           | Web:      www.OpenFOAM.org                      |
|    \\/     M anipulation  |                                                 |
\*---------------------------------------------------------------------------*/
FoamFile
{
    version     2.0;
    format      ascii;
    class       volVectorField;
    location    "0.06";
    object      U;
}
// * * * * * * * * * * * * * * * * * * * * * * * * * * * * * * * * * * * * * //

dimensions      [0 1 -1 0 0 0 0];

internalField   nonuniform List<vector> 
1024
(
(0 0 0)
(0 0 0)
(0 0 0)
(0 0 0)
(0 0 0)
(0 0 0)
(0 0 0)
(0 0 0)
(0 0 0)
(0 0 0)
(0 0 0)
(0 0 0)
(0 0 0)
(0 0 0)
(0 0 0)
(0 0 0)
(0 0 0)
(0 0 0)
(0 0 0)
(0 0 0)
(0 0 0)
(0 0 0)
(0 0 0)
(0 0 0)
(0 0 0)
(0 0 0)
(0 0 0)
(0 0 0)
(0 0 0)
(0 0 0)
(0 0 0)
(0 0 0)
(0 0 0)
(0 0 0)
(0 0 0)
(0 0 0)
(0 0 0)
(0 0 0)
(0 0 0)
(0 0 0)
(0 0 0)
(0 0 0)
(0 0 0)
(0 0 0)
(0 0 0)
(0 0 0)
(0 0 0)
(0 0 0)
(0 0 0)
(0 0 0)
(0 0 0)
(0 0 0)
(0 0 0)
(0 0 0)
(0 0 0)
(0 0 0)
(0 0 0)
(0 0 0)
(0 0 0)
(0 0 0)
(0 0 0)
(0 0 0)
(0 0 0)
(0 0 0)
(0 0 0)
(0 0 0)
(0 0 0)
(0 0 0)
(0 0 0)
(0 0 0)
(0 0 0)
(0 0 0)
(0 0 0)
(0 0 0)
(0 0 0)
(0 0 0)
(0 0 0)
(0 0 0)
(0 0 0)
(0 0 0)
(0 0 0)
(0 0 0)
(0 0 0)
(0 0 0)
(0 0 0)
(0 0 0)
(0 0 0)
(0 0 0)
(0 0 0)
(0 0 0)
(0 0 0)
(0 0 0)
(0 0 0)
(0 0 0)
(0 0 0)
(0 0 0)
(0 0 0)
(0 0 0)
(0 0 0)
(0 0 0)
(0 0 0)
(0 0 0)
(0 0 0)
(0 0 0)
(0 0 0)
(0 0 0)
(0 0 0)
(0 0 0)
(0 0 0)
(0 0 0)
(0 0 0)
(0 0 0)
(0 0 0)
(0 0 0)
(0 0 0)
(0 0 0)
(0 0 0)
(0 0 0)
(0 0 0)
(0 0 0)
(0 0 0)
(0 0 0)
(0 0 0)
(0 0 0)
(0 0 0)
(0 0 0)
(0 0 0)
(0 0 0)
(0 0 0)
(0 0 0)
(0 0 0)
(0 0 0)
(0 0 0)
(0 0 0)
(0 0 0)
(0 0 0)
(0 0 0)
(0 0 0)
(0 0 0)
(0 0 0)
(0 0 0)
(0 0 0)
(0 0 0)
(0 0 0)
(0 0 0)
(0 0 0)
(0 0 0)
(0 0 0)
(0 0 0)
(0 0 0)
(0 0 0)
(0 0 0)
(0 0 0)
(0 0 0)
(0 0 0)
(0 0 0)
(0 0 0)
(0 0 0)
(0 0 0)
(0 0 0)
(0 0 0)
(0 0 0)
(0 0 0)
(0 0 0)
(0 0 0)
(0 0 0)
(0 0 0)
(0 0 0)
(0 0 0)
(0 0 0)
(0 0 0)
(0 0 0)
(0 0 0)
(0 0 0)
(0 0 0)
(0 0 0)
(0 0 0)
(0 0 0)
(0 0 0)
(0 0 0)
(0 0 0)
(0 0 0)
(0 0 0)
(0 0 0)
(0 0 0)
(0 0 0)
(0 0 0)
(0 0 0)
(0 0 0)
(0 0 0)
(0 0 0)
(0 0 0)
(0 0 0)
(0 0 0)
(0 0 0)
(0 0 0)
(0 0 0)
(0 0 0)
(0 0 0)
(0 0 0)
(0 0 0)
(0 0 0)
(0 0 0)
(0 0 0)
(0 0 0)
(0 0 0)
(0 0 0)
(0 0 0)
(0 0 0)
(0 0 0)
(0 0 0)
(0 0 0)
(0 0 0)
(0 0 0)
(0 0 0)
(0 0 0)
(0 0 0)
(0 0 0)
(0 0 0)
(0 0 0)
(0 0 0)
(0 0 0)
(0 0 0)
(0 0 0)
(0 0 0)
(0 0 0)
(0 0 0)
(0 0 0)
(0 0 0)
(0 0 0)
(0 0 0)
(0 0 0)
(0 0 0)
(0 0 0)
(0 0 0)
(0 0 0)
(-5.3357e-16 -3.88051e-16 0)
(-2.78912e-15 -2.01301e-15 0)
(-8.60988e-15 -6.13606e-15 0)
(-1.90388e-14 -1.3412e-14 0)
(-4.09879e-14 -2.8643e-14 0)
(-8.7166e-14 -5.96629e-14 0)
(-1.85149e-13 -1.25923e-13 0)
(-3.90646e-13 -2.64505e-13 0)
(-8.25894e-13 -5.56684e-13 0)
(-1.73362e-12 -1.17014e-12 0)
(-3.62003e-12 -2.44504e-12 0)
(-7.50309e-12 -5.06715e-12 0)
(-1.54375e-11 -1.04236e-11 0)
(-3.15288e-11 -2.12893e-11 0)
(-6.3905e-11 -4.31529e-11 0)
(-1.28533e-10 -8.67954e-11 0)
(-2.56504e-10 -1.73213e-10 0)
(-5.07845e-10 -3.42942e-10 0)
(-9.97432e-10 -6.73555e-10 0)
(-1.94312e-09 -1.31217e-09 0)
(-3.75427e-09 -2.53522e-09 0)
(-7.193e-09 -4.85736e-09 0)
(-1.36645e-08 -9.22751e-09 0)
(-2.57347e-08 -1.73784e-08 0)
(-4.80421e-08 -3.24423e-08 0)
(-8.88864e-08 -6.00241e-08 0)
(-1.62964e-07 -1.10048e-07 0)
(-2.96016e-07 -1.99896e-07 0)
(-5.32632e-07 -3.59681e-07 0)
(-9.49178e-07 -6.4097e-07 0)
(-1.67489e-06 -1.13104e-06 0)
(-2.92583e-06 -1.97579e-06 0)
(-5.05868e-06 -3.41608e-06 0)
(-8.6545e-06 -5.84431e-06 0)
(-1.4647e-05 -9.89098e-06 0)
(-2.45149e-05 -1.65548e-05 0)
(-4.05653e-05 -2.73937e-05 0)
(-6.63405e-05 -4.47998e-05 0)
(-0.000107187 -7.23845e-05 0)
(-0.000171034 -0.000115502 0)
(-0.000269409 -0.000181941 0)
(-0.000418734 -0.000282796 0)
(-0.000641878 -0.000433521 0)
(-0.000969918 -0.000655127 0)
(-0.00144396 -0.000975422 0)
(-0.0021168 -0.00143015 0)
(-0.003054 -0.00206377 0)
(-0.00433408 -0.00292962 0)
(-0.00604716 -0.00408908 0)
(-0.00829184 -0.00560961 0)
(-0.0111701 -0.00756136 0)
(-0.0147803 -0.0100128 0)
(-0.0192101 -0.0130256 0)
(-0.0245286 -0.01665 0)
(-0.0307821 -0.0209215 0)
(-0.0379938 -0.0258608 0)
(-0.0461699 -0.031478 0)
(-0.0553167 -0.0377833 0)
(-0.0654661 -0.0448014 0)
(-0.076027 -0.0521283 0)
(-0.0861482 -0.0591893 0)
(-0.0959191 -0.0660351 0)
(-0.105485 -0.0727662 0)
(-0.114843 -0.0793743 0)
(-0.124158 -0.0859842 0)
(-0.133351 -0.0925221 0)
(-0.142544 -0.0990981 0)
(-0.151701 -0.105663 0)
(-0.160834 -0.112248 0)
(-0.169935 -0.118823 0)
(-0.179022 -0.125432 0)
(-0.187972 -0.131942 0)
(-0.196914 -0.138504 0)
(-0.20558 -0.144849 0)
(-0.214157 -0.151201 0)
(-0.222426 -0.157299 0)
(-0.230276 -0.163147 0)
(-0.238045 -0.168937 0)
(-0.244958 -0.174096 0)
(-0.251748 -0.179222 0)
(-0.257872 -0.183805 0)
(-0.263113 -0.187761 0)
(-0.268293 -0.191702 0)
(-0.272256 -0.194672 0)
(-0.275765 -0.197371 0)
(-0.278903 -0.19973 0)
(-0.280861 -0.201222 0)
(-0.28273 -0.202668 0)
(-0.28411 -0.203693 0)
(-0.284721 -0.204166 0)
(-0.28535 -0.204655 0)
(-0.285711 -0.204921 0)
(-0.285701 -0.204913 0)
(-0.285727 -0.204938 0)
(-0.285694 -0.204908 0)
(-0.28545 -0.204717 0)
(-0.284762 -0.204191 0)
(-0.283396 -0.203144 0)
(-0.281042 -0.201345 0)
(-0.27753 -0.198672 0)
(-0.274337 -0.19625 0)
(-0.271969 -0.194467 0)
(-0.27002 -0.192968 0)
(-0.268972 -0.192212 0)
(-0.268009 -0.191446 0)
(-0.267339 -0.190974 0)
(-0.267101 -0.190775 0)
(-0.266855 -0.190593 0)
(-0.266631 -0.190421 0)
(-0.266534 -0.19035 0)
(-0.266535 -0.190348 0)
(-0.26649 -0.190313 0)
(-0.266421 -0.19026 0)
(-0.266385 -0.190234 0)
(-0.2664 -0.190246 0)
(-0.266402 -0.190247 0)
(-0.2664 -0.190246 0)
(-0.266408 -0.190252 0)
(-0.266445 -0.19028 0)
(-0.266526 -0.190342 0)
(-0.266675 -0.190455 0)
(-0.266934 -0.190652 0)
(-0.267387 -0.190996 0)
(-0.268148 -0.191575 0)
(-0.269334 -0.192475 0)
(-0.270454 -0.19332 0)
(-0.271305 -0.19397 0)
(-0.271775 -0.194313 0)
(-0.272202 -0.194652 0)
(-0.27233 -0.194734 0)
(-0.272376 -0.194779 0)
(-0.272405 -0.194796 0)
(-0.272343 -0.194747 0)
(-0.272097 -0.194559 0)
(-0.271536 -0.194131 0)
(-0.270664 -0.19347 0)
(-0.270002 -0.192973 0)
(-0.269504 -0.192589 0)
(-0.269265 -0.192416 0)
(-0.269129 -0.192309 0)
(-0.269071 -0.192268 0)
(-0.269078 -0.192275 0)
(-0.26914 -0.192322 0)
(-0.269343 -0.192476 0)
(-0.269776 -0.192806 0)
(-0.270222 -0.193139 0)
(-0.270549 -0.193389 0)
(-0.270669 -0.193471 0)
(-0.270782 -0.193562 0)
(-0.2708 -0.193569 0)
(-0.270788 -0.19356 0)
(-0.270722 -0.193508 0)
(-0.27053 -0.193361 0)
(-0.270243 -0.193144 0)
(-0.270034 -0.192986 0)
(-0.269931 -0.19291 0)
(-0.269894 -0.192883 0)
(-0.269888 -0.19288 0)
(-0.269929 -0.192913 0)
(-0.270088 -0.193036 0)
(-0.270459 -0.193319 0)
(-0.27095 -0.193691 0)
(-0.271278 -0.193939 0)
(-0.271518 -0.194125 0)
(-0.27158 -0.194167 0)
(-0.271636 -0.194215 0)
(-0.271637 -0.194213 0)
(-0.271595 -0.194181 0)
(-0.271445 -0.194068 0)
(-0.271189 -0.193874 0)
(-0.271009 -0.19374 0)
(-0.270893 -0.193652 0)
(-0.270856 -0.193627 0)
(-0.270846 -0.19362 0)
(-0.270861 -0.193633 0)
(-0.270946 -0.1937 0)
(-0.27117 -0.193872 0)
(-0.271619 -0.194214 0)
(-0.272254 -0.194696 0)
(-0.272744 -0.19507 0)
(-0.27305 -0.195307 0)
(-0.273202 -0.195421 0)
(-0.273247 -0.195443 0)
(-0.273229 -0.195418 0)
(-0.273053 -0.195289 0)
(-0.272599 -0.195064 0)
(-0.271894 -0.195322 0)
(-0.270075 -0.196717 0)
(-0.265116 -0.202669 0)
(-0.249234 -0.224088 0)
(-0.197396 -0.29349 0)
(-0.0571906 -0.487703 0)
(0.220029 -0.888072 0)
(0.474532 -1.30096 0)
(0.597756 -1.50345 0)
(0.637231 -1.57645 0)
(0.650512 -1.60117 0)
(0.654565 -1.60932 0)
(0.656098 -1.61173 0)
(0.656605 -1.61237 0)
(0.6567 -1.61242 0)
(0.656954 -1.61212 0)
(0.657116 -1.61172 0)
(0.657151 -1.61143 0)
(0.657088 -1.61126 0)
(0.656993 -1.61118 0)
(0.656802 -1.61117 0)
(0.656394 -1.61127 0)
(0.656025 -1.61133 0)
(0.655821 -1.61133 0)
(0.655755 -1.61127 0)
(0.655811 -1.61118 0)
(0.655922 -1.61107 0)
(0.656125 -1.61098 0)
(0.656364 -1.61093 0)
(0.656585 -1.6109 0)
(0.656677 -1.61092 0)
(0.656632 -1.61099 0)
(0.65641 -1.61101 0)
(0.656071 -1.61102 0)
(0.655768 -1.61103 0)
(0.655481 -1.611 0)
(0.655282 -1.61097 0)
(0.655034 -1.61093 0)
(0.654976 -1.61074 0)
(0.655047 -1.61053 0)
(0.655168 -1.61043 0)
(0.65544 -1.61033 0)
(0.655601 -1.61027 0)
(0.655604 -1.61022 0)
(0.655454 -1.61019 0)
(0.655185 -1.61017 0)
(0.654844 -1.61013 0)
(0.654529 -1.61004 0)
(0.654351 -1.6099 0)
(0.654313 -1.60971 0)
(0.654463 -1.60955 0)
(0.654705 -1.60948 0)
(0.655006 -1.60946 0)
(0.655262 -1.6095 0)
(0.6554 -1.60962 0)
(0.655409 -1.60981 0)
(0.655319 -1.61002 0)
(0.655267 -1.61019 0)
(0.655326 -1.61033 0)
(0.655555 -1.61042 0)
(0.655901 -1.61038 0)
(0.656143 -1.61031 0)
(0.656198 -1.61026 0)
(0.65602 -1.61024 0)
(0.655663 -1.61032 0)
(0.655276 -1.61039 0)
(0.655044 -1.6104 0)
(0.655079 -1.61036 0)
(0.655527 -1.61014 0)
(0.656055 -1.60991 0)
(0.656219 -1.60989 0)
(0.656137 -1.61007 0)
(0.655789 -1.61048 0)
(0.655447 -1.61085 0)
(0.655257 -1.61112 0)
(0.655306 -1.61128 0)
(0.655696 -1.61112 0)
(0.656363 -1.61082 0)
(0.656603 -1.61083 0)
(0.656587 -1.61097 0)
(0.656281 -1.61126 0)
(0.655314 -1.61168 0)
(0.65467 -1.61183 0)
(0.654558 -1.6119 0)
(0.654784 -1.61205 0)
(0.656324 -1.61208 0)
(0.657708 -1.61101 0)
(0.657631 -1.60878 0)
(0.655642 -1.60621 0)
(0.651672 -1.60349 0)
(0.64748 -1.59965 0)
(0.643522 -1.5935 0)
(0.640037 -1.58442 0)
(0.636441 -1.57138 0)
(0.630996 -1.55464 0)
(0.623191 -1.5354 0)
(0.611837 -1.51624 0)
(0.597876 -1.49424 0)
(0.58514 -1.47026 0)
(0.574018 -1.44589 0)
(0.564302 -1.41777 0)
(0.556502 -1.38316 0)
(0.545917 -1.34172 0)
(0.528274 -1.29475 0)
(0.504074 -1.24829 0)
(0.49581 -1.18635 0)
(0.463588 -1.09614 0)
(0.478364 -0.954486 0)
(0.510718 -0.742855 0)
(0.568879 -0.501277 0)
(0.640485 -0.367815 0)
(0.670798 -0.312416 0)
(0.678691 -0.291597 0)
(0.682041 -0.284586 0)
(0.68524 -0.282966 0)
(0.687388 -0.282823 0)
(0.689298 -0.283835 0)
(0.690457 -0.284462 0)
(0.690876 -0.284713 0)
(0.691059 -0.284812 0)
(0.691262 -0.2849 0)
(0.691805 -0.285137 0)
(0.693005 -0.285776 0)
(0.695239 -0.286914 0)
(0.699489 -0.289152 0)
(0.705859 -0.292525 0)
(0.711051 -0.29548 0)
(0.712924 -0.296657 0)
(0.71303 -0.296852 0)
(0.712365 -0.296481 0)
(0.710688 -0.295634 0)
(0.70672 -0.293571 0)
(0.700786 -0.290081 0)
(0.69356 -0.28619 0)
(0.684143 -0.281083 0)
(0.673962 -0.275413 0)
(0.663083 -0.269734 0)
(0.65162 -0.263591 0)
(0.640145 -0.25769 0)
(0.628583 -0.251711 0)
(0.617059 -0.245861 0)
(0.605637 -0.240135 0)
(0.594329 -0.234515 0)
(0.583106 -0.228975 0)
(0.57192 -0.223531 0)
(0.560771 -0.218149 0)
(0.549637 -0.212838 0)
(0.538518 -0.207582 0)
(0.527377 -0.202373 0)
(0.516222 -0.197198 0)
(0.505085 -0.192094 0)
(0.493923 -0.187015 0)
(0.482727 -0.181975 0)
(0.471555 -0.176986 0)
(0.460369 -0.172048 0)
(0.449156 -0.167129 0)
(0.437949 -0.162269 0)
(0.426757 -0.15745 0)
(0.415531 -0.152668 0)
(0.404308 -0.147916 0)
(0.393102 -0.14323 0)
(0.381874 -0.138559 0)
(0.370632 -0.133934 0)
(0.359419 -0.129351 0)
(0.348178 -0.124805 0)
(0.336927 -0.12028 0)
(0.325698 -0.115815 0)
(0.314449 -0.111367 0)
(0.303182 -0.106956 0)
(0.291945 -0.102587 0)
(0.280676 -0.098247 0)
(0.269405 -0.0939321 0)
(0.258153 -0.0896678 0)
(0.246867 -0.0854167 0)
(0.235593 -0.0812069 0)
(0.22432 -0.0770293 0)
(0.213017 -0.0728729 0)
(0.201743 -0.0687575 0)
(0.190434 -0.0646636 0)
(0.179133 -0.0605989 0)
(0.167832 -0.0565698 0)
(0.1565 -0.0525545 0)
(0.145197 -0.0485842 0)
(0.133852 -0.0446239 0)
(0.122527 -0.0407016 0)
(0.111175 -0.0367989 0)
(0.0998092 -0.0329319 0)
(0.0886918 -0.0291699 0)
(0.0779711 -0.0255606 0)
(0.0676814 -0.0221179 0)
(0.0578946 -0.0188635 0)
(0.0487078 -0.0158262 0)
(0.0402287 -0.0130377 0)
(0.0325599 -0.0105278 0)
(0.0257842 -0.00831975 0)
(0.0199514 -0.0064261 0)
(0.0150694 -0.00484625 0)
(0.0111025 -0.00356599 0)
(0.00797613 -0.00255923 0)
(0.00558723 -0.00179129 0)
(0.00381713 -0.00122304 0)
(0.00254457 -0.000814937 0)
(0.00165617 -0.000530239 0)
(0.00105324 -0.000337128 0)
(0.000654982 -0.000209619 0)
(0.000398629 -0.000127563 0)
(0.000237628 -7.60368e-05 0)
(0.000138852 -4.44284e-05 0)
(7.95896e-05 -2.54656e-05 0)
(4.47825e-05 -1.43284e-05 0)
(2.47506e-05 -7.91902e-06 0)
(1.34446e-05 -4.3016e-06 0)
(7.1817e-06 -2.29778e-06 0)
(3.77439e-06 -1.20761e-06 0)
(1.95257e-06 -6.24722e-07 0)
(9.94708e-07 -3.18255e-07 0)
(4.99214e-07 -1.59723e-07 0)
(2.46913e-07 -7.89993e-08 0)
(1.20397e-07 -3.85208e-08 0)
(5.78956e-08 -1.85236e-08 0)
(2.74642e-08 -8.78711e-09 0)
(1.28559e-08 -4.11323e-09 0)
(5.93985e-09 -1.90044e-09 0)
(2.70952e-09 -8.66909e-10 0)
(1.22057e-09 -3.9052e-10 0)
(5.43108e-10 -1.73767e-10 0)
(2.38758e-10 -7.63912e-11 0)
(1.0372e-10 -3.31856e-11 0)
(4.45349e-11 -1.42488e-11 0)
(1.89036e-11 -6.04774e-12 0)
(7.9334e-12 -2.53813e-12 0)
(3.29138e-12 -1.05317e-12 0)
(1.35071e-12 -4.31758e-13 0)
(5.48328e-13 -1.75099e-13 0)
(2.20777e-13 -7.05525e-14 0)
(8.78451e-14 -2.83975e-14 0)
(3.52945e-14 -1.14111e-14 0)
(1.40911e-14 -4.57173e-15 0)
(5.66918e-15 -1.80989e-15 0)
(1.5037e-15 -3.75924e-16 0)
(2.36469e-16 -3.03165e-17 0)
(0 0 0)
(0 0 0)
(0 0 0)
(0 0 0)
(0 0 0)
(0 0 0)
(0 0 0)
(0 0 0)
(0 0 0)
(0 0 0)
(0 0 0)
(0 0 0)
(0 0 0)
(0 0 0)
(0 0 0)
(0 0 0)
(0 0 0)
(0 0 0)
(0 0 0)
(0 0 0)
(0 0 0)
(0 0 0)
(0 0 0)
(0 0 0)
(0 0 0)
(0 0 0)
(0 0 0)
(0 0 0)
(0 0 0)
(0 0 0)
(0 0 0)
(0 0 0)
(0 0 0)
(0 0 0)
(0 0 0)
(0 0 0)
(0 0 0)
(0 0 0)
(0 0 0)
(0 0 0)
(0 0 0)
(0 0 0)
(0 0 0)
(0 0 0)
(0 0 0)
(0 0 0)
(0 0 0)
(0 0 0)
(0 0 0)
(0 0 0)
(0 0 0)
(0 0 0)
(0 0 0)
(0 0 0)
(0 0 0)
(0 0 0)
(0 0 0)
(0 0 0)
(0 0 0)
(0 0 0)
(0 0 0)
(0 0 0)
(0 0 0)
(0 0 0)
(0 0 0)
(0 0 0)
(0 0 0)
(0 0 0)
(0 0 0)
(0 0 0)
(0 0 0)
(0 0 0)
(0 0 0)
(0 0 0)
(0 0 0)
(0 0 0)
(0 0 0)
(0 0 0)
(0 0 0)
(0 0 0)
(0 0 0)
(0 0 0)
(0 0 0)
(0 0 0)
(0 0 0)
(0 0 0)
(0 0 0)
(0 0 0)
(0 0 0)
(0 0 0)
(0 0 0)
(0 0 0)
(0 0 0)
(0 0 0)
(0 0 0)
(0 0 0)
(0 0 0)
(0 0 0)
(0 0 0)
(0 0 0)
(0 0 0)
(0 0 0)
(0 0 0)
(0 0 0)
(0 0 0)
(0 0 0)
(0 0 0)
(0 0 0)
(0 0 0)
(0 0 0)
(0 0 0)
(0 0 0)
(0 0 0)
(0 0 0)
(0 0 0)
(0 0 0)
(0 0 0)
(0 0 0)
(0 0 0)
(0 0 0)
(0 0 0)
(0 0 0)
(0 0 0)
(0 0 0)
(0 0 0)
(0 0 0)
(0 0 0)
(0 0 0)
(0 0 0)
(0 0 0)
(0 0 0)
(0 0 0)
(0 0 0)
(0 0 0)
(0 0 0)
(0 0 0)
(0 0 0)
(0 0 0)
(0 0 0)
(0 0 0)
(0 0 0)
(0 0 0)
(0 0 0)
(0 0 0)
(0 0 0)
(0 0 0)
(0 0 0)
(0 0 0)
(0 0 0)
(0 0 0)
(0 0 0)
(0 0 0)
(0 0 0)
(0 0 0)
(0 0 0)
(0 0 0)
(0 0 0)
(0 0 0)
(0 0 0)
(0 0 0)
(0 0 0)
(0 0 0)
(0 0 0)
(0 0 0)
(0 0 0)
(0 0 0)
(0 0 0)
(0 0 0)
(0 0 0)
(0 0 0)
(0 0 0)
(0 0 0)
(0 0 0)
(0 0 0)
(0 0 0)
(0 0 0)
(0 0 0)
(0 0 0)
(0 0 0)
(0 0 0)
(0 0 0)
(0 0 0)
(0 0 0)
(0 0 0)
(0 0 0)
(0 0 0)
(0 0 0)
(0 0 0)
(0 0 0)
(0 0 0)
(0 0 0)
(0 0 0)
(0 0 0)
(0 0 0)
(0 0 0)
(0 0 0)
(0 0 0)
(0 0 0)
(0 0 0)
(0 0 0)
(0 0 0)
(0 0 0)
(0 0 0)
(0 0 0)
(0 0 0)
(0 0 0)
(0 0 0)
(0 0 0)
(0 0 0)
(0 0 0)
(0 0 0)
(0 0 0)
(0 0 0)
(0 0 0)
(0 0 0)
(0 0 0)
(0 0 0)
(0 0 0)
(0 0 0)
(0 0 0)
(0 0 0)
(0 0 0)
(0 0 0)
(0 0 0)
(0 0 0)
(0 0 0)
(0 0 0)
(0 0 0)
(0 0 0)
(0 0 0)
(0 0 0)
(0 0 0)
(0 0 0)
(0 0 0)
(0 0 0)
(0 0 0)
(0 0 0)
(0 0 0)
(0 0 0)
(0 0 0)
(0 0 0)
(0 0 0)
(0 0 0)
(0 0 0)
(0 0 0)
(0 0 0)
(0 0 0)
(0 0 0)
(0 0 0)
(0 0 0)
(0 0 0)
(0 0 0)
(0 0 0)
(0 0 0)
(0 0 0)
(0 0 0)
(0 0 0)
(0 0 0)
(0 0 0)
(0 0 0)
(0 0 0)
(0 0 0)
(0 0 0)
(0 0 0)
(0 0 0)
(0 0 0)
(0 0 0)
(0 0 0)
(0 0 0)
(0 0 0)
(0 0 0)
(0 0 0)
(0 0 0)
(0 0 0)
(0 0 0)
(0 0 0)
(0 0 0)
(0 0 0)
(0 0 0)
(0 0 0)
(0 0 0)
(0 0 0)
(0 0 0)
(0 0 0)
(0 0 0)
(0 0 0)
(0 0 0)
(0 0 0)
(0 0 0)
(0 0 0)
(0 0 0)
(0 0 0)
(0 0 0)
(0 0 0)
(0 0 0)
(0 0 0)
(0 0 0)
(0 0 0)
(0 0 0)
(0 0 0)
(0 0 0)
(0 0 0)
(0 0 0)
(0 0 0)
(0 0 0)
(0 0 0)
(0 0 0)
(0 0 0)
(0 0 0)
(0 0 0)
(0 0 0)
(0 0 0)
(0 0 0)
(0 0 0)
(0 0 0)
(0 0 0)
(0 0 0)
(0 0 0)
(0 0 0)
(0 0 0)
(0 0 0)
(0 0 0)
(0 0 0)
(0 0 0)
(0 0 0)
(0 0 0)
(0 0 0)
(0 0 0)
(0 0 0)
(0 0 0)
(0 0 0)
(0 0 0)
(0 0 0)
(0 0 0)
(0 0 0)
(0 0 0)
(0 0 0)
(0 0 0)
(0 0 0)
(0 0 0)
(0 0 0)
(0 0 0)
(0 0 0)
(0 0 0)
(0 0 0)
(0 0 0)
(0 0 0)
(0 0 0)
(0 0 0)
(0 0 0)
(0 0 0)
(0 0 0)
(0 0 0)
(0 0 0)
(0 0 0)
(0 0 0)
(0 0 0)
(0 0 0)
(0 0 0)
(0 0 0)
(0 0 0)
)
;

boundaryField
{
    front-back
    {
        type            empty;
    }
    inlet-outlet
    {
        type            zeroGradient;
    }
    top-down
    {
        type            empty;
    }
}


// ************************************************************************* //
