/*--------------------------------*- C++ -*----------------------------------*\
| =========                 |                                                 |
| \\      /  F ield         | OpenFOAM: The Open Source CFD Toolbox           |
|  \\    /   O peration     | Version:  2.2.x                                 |
|   \\  /    A nd           | Web:      www.OpenFOAM.org                      |
|    \\/     M anipulation  |                                                 |
\*---------------------------------------------------------------------------*/
FoamFile
{
    version     2.0;
    format      ascii;
    class       surfaceScalarField;
    location    "0.1";
    object      phi;
}
// * * * * * * * * * * * * * * * * * * * * * * * * * * * * * * * * * * * * * //

dimensions      [1 0 -1 0 0 0 0];

internalField   nonuniform List<scalar> 
1023
(
0
0
0
0
0
0
0
0
0
0
0
0
0
0
0
0
0
0
0
0
0
0
0
0
0
0
0
0
0
0
0
0
0
0
0
0
0
0
0
0
0
0
0
0
0
0
0
0
0
0
0
0
0
0
0
0
0
0
0
0
0
0
0
0
0
0
0
0
0
0
0
0
0
0
0
0
0
0
0
-8.43975e-17
-7.54694e-16
-2.91564e-15
-9.97193e-15
-2.79954e-14
-7.08915e-14
-1.71756e-13
-4.07641e-13
-9.57919e-13
-2.24349e-12
-5.23919e-12
-1.22305e-11
-2.85331e-11
-6.65354e-11
-1.55105e-10
-3.61457e-10
-8.42058e-10
-1.96125e-09
-4.56989e-09
-1.03964e-08
-2.09719e-08
-2.58464e-08
-3.06993e-08
-3.59643e-08
-4.07453e-08
-4.57046e-08
-5.06634e-08
-5.54741e-08
-5.9846e-08
-6.36717e-08
-6.67234e-08
-6.88382e-08
-6.9738e-08
-6.9445e-08
-6.66114e-08
-5.79361e-08
-3.20454e-08
3.77349e-08
1.71674e-07
4.40639e-07
9.26682e-07
1.85018e-06
3.48547e-06
6.57381e-06
1.22025e-05
2.3294e-05
4.50461e-05
9.1136e-05
0.00018982
0.000412316
0.000874507
0.00124917
0.00148033
0.0017168
0.00192293
0.00213582
0.00233309
0.00251195
0.00264125
0.00297031
0.00365919
0.00426516
0.00488136
0.00562014
0.00621198
0.00675117
0.00732979
0.00797556
0.00860497
0.009207
0.00981373
0.0104453
0.0110692
0.011686
0.0122935
0.0129055
0.0135171
0.0141351
0.0147451
0.0153552
0.0159643
0.0165806
0.0171889
0.0177946
0.0183895
0.0189832
0.0195614
0.020139
0.0207146
0.021313
0.0219758
0.0227214
0.0235271
0.024218
0.0247855
0.0252459
0.0257194
0.0262779
0.026824
0.0273418
0.0278117
0.0282834
0.02871
0.0290914
0.029463
0.0298058
0.0301264
0.0304222
0.0306954
0.0309403
0.0311752
0.0313948
0.0315722
0.0317242
0.031834
0.0319267
0.0319978
0.0320506
0.0320877
0.0321092
0.032114
0.0321085
0.0320978
0.0320678
0.0320103
0.0319285
0.0318604
0.0318002
0.0317381
0.031661
0.0316053
0.0315754
0.0315327
0.0314984
0.0314671
0.0314433
0.0314295
0.0314252
0.0314009
0.0313817
0.0313665
0.0313482
0.0313168
0.0312769
0.0312588
0.0312621
0.0312625
0.0312404
0.0311981
0.0311776
0.0311696
0.0311531
0.0311332
0.0311362
0.031161
0.0311811
0.0311919
0.0311977
0.0312019
0.0312172
0.0312276
0.0312308
0.0312298
0.0312345
0.0312492
0.0312543
0.0312562
0.0312534
0.0312621
0.0312689
0.0312786
0.031281
0.0312867
0.0312923
0.0313023
0.0313059
0.0313057
0.0313059
0.0313055
0.031303
0.0312966
0.0312887
0.0312843
0.0312774
0.0312783
0.0312766
0.0312854
0.0312917
0.0313144
0.0313384
0.0313635
0.0313828
0.0313997
0.0314162
0.0314317
0.0314433
0.0314533
0.0314584
0.0314628
0.0314676
0.0314737
0.0314785
0.0314802
0.0314809
0.0314819
0.0314847
0.0314883
0.0314927
0.0314944
0.0314941
0.031491
0.0314889
0.0314872
0.031488
0.0314878
0.0314887
0.0314885
0.0314908
0.0314956
0.0315021
0.0315109
0.0315229
0.0315323
0.0315395
0.0315441
0.0315442
0.0315439
0.0315451
0.0315457
0.0315454
0.0315488
0.0315571
0.0315621
0.0315655
0.0315705
0.0315742
0.0315784
0.0315821
0.0315912
0.0316014
0.0316085
0.0316119
0.0316123
0.0316092
0.0316022
0.0315921
0.0315822
0.0315778
0.0315782
0.0315807
0.0315902
0.0316042
0.031609
0.0316105
0.0316101
0.0316043
0.031601
0.0316029
0.0316202
0.0316598
0.0316819
0.0316849
0.0316846
0.0316666
0.031606
0.0315622
0.0315542
0.0315527
0.0315866
0.0316982
0.0317705
0.0317822
0.0317859
0.0317247
0.0315329
0.0314125
0.0313945
0.0313909
0.0315005
0.0318299
0.032014
0.0320337
0.0320274
0.0318136
0.0312232
0.0309837
0.0309361
0.0309617
0.0313455
0.0323722
0.0328618
0.0328004
0.0318389
0.0267053
0.00171779
-0.0968543
-0.155992
-0.175879
-0.179549
-0.179102
-0.179022
-0.179352
-0.179851
-0.17984
-0.179676
-0.179601
-0.179597
-0.179645
-0.17968
-0.1797
-0.179697
-0.179683
-0.179661
-0.179601
-0.179558
-0.179543
-0.179548
-0.179572
-0.179589
-0.179617
-0.179626
-0.179615
-0.179608
-0.17959
-0.179574
-0.179563
-0.179552
-0.179527
-0.179502
-0.179493
-0.179494
-0.179508
-0.179538
-0.179574
-0.179597
-0.179611
-0.179617
-0.179602
-0.179533
-0.179422
-0.179284
-0.179161
-0.179065
-0.179001
-0.178961
-0.178936
-0.178914
-0.178885
-0.178842
-0.178799
-0.178767
-0.178742
-0.178724
-0.178735
-0.178842
-0.179111
-0.179665
-0.180682
-0.182447
-0.185402
-0.190175
-0.19767
-0.209109
-0.226039
-0.250261
-0.283409
-0.315321
-0.341731
-0.362792
-0.379017
-0.391133
-0.399932
-0.406162
-0.410474
-0.413436
-0.41552
-0.417042
-0.41822
-0.419173
-0.419906
-0.420444
-0.420823
-0.421068
-0.42126
-0.421502
-0.421851
-0.422264
-0.422571
-0.422729
-0.42276
-0.4227
-0.422657
-0.422743
-0.423004
-0.423372
-0.423608
-0.423705
-0.423661
-0.423485
-0.423381
-0.423397
-0.423606
-0.424083
-0.424421
-0.42451
-0.424433
-0.424015
-0.423763
-0.423731
-0.423841
-0.424414
-0.425051
-0.425224
-0.42515
-0.424571
-0.423785
-0.423557
-0.423614
-0.424201
-0.42544
-0.425942
-0.425945
-0.425489
-0.423908
-0.423171
-0.423101
-0.423519
-0.425555
-0.427222
-0.42741
-0.426681
-0.424204
-0.422544
-0.422004
-0.422298
-0.424951
-0.427379
-0.428057
-0.427365
-0.423454
-0.42084
-0.419877
-0.419841
-0.420909
-0.423882
-0.424943
-0.424448
-0.419972
-0.414059
-0.411196
-0.410776
-0.413326
-0.417996
-0.419554
-0.414607
-0.401793
-0.396558
-0.395861
-0.404489
-0.408035
-0.395858
-0.394579
-0.419593
-0.433779
-0.439014
-0.440157
-0.440396
-0.440451
-0.440472
-0.440486
-0.440507
-0.44053
-0.440552
-0.440569
-0.440582
-0.440588
-0.440591
-0.440602
-0.440623
-0.440634
-0.440634
-0.440629
-0.440631
-0.440647
-0.440675
-0.440696
-0.440706
-0.440702
-0.440736
-0.440884
-0.441019
-0.441174
-0.441421
-0.441698
-0.442059
-0.442382
-0.442541
-0.442551
-0.442421
-0.442397
-0.442341
-0.442049
-0.441284
-0.440809
-0.440176
-0.438891
-0.437745
-0.436501
-0.434852
-0.432966
-0.431126
-0.429071
-0.426845
-0.424598
-0.422182
-0.419679
-0.417198
-0.414646
-0.412029
-0.409361
-0.406642
-0.403896
-0.401128
-0.398312
-0.395449
-0.39254
-0.389587
-0.386601
-0.383586
-0.380533
-0.377441
-0.374309
-0.371134
-0.367917
-0.364657
-0.361356
-0.358014
-0.354629
-0.351202
-0.347733
-0.344216
-0.340664
-0.337072
-0.333432
-0.32976
-0.326033
-0.322256
-0.318427
-0.314537
-0.310611
-0.306645
-0.302648
-0.298623
-0.294552
-0.290442
-0.286273
-0.282045
-0.277754
-0.273396
-0.268985
-0.264518
-0.260006
-0.255452
-0.250854
-0.246209
-0.241519
-0.236778
-0.231991
-0.227157
-0.222279
-0.217357
-0.212394
-0.207393
-0.202346
-0.19726
-0.192131
-0.186951
-0.181725
-0.176445
-0.171115
-0.16573
-0.160294
-0.154805
-0.149266
-0.143677
-0.138041
-0.132362
-0.126638
-0.120873
-0.115068
-0.109224
-0.103344
-0.097429
-0.0914808
-0.085497
-0.0795446
-0.0736296
-0.0677604
-0.0619516
-0.0562249
-0.050608
-0.0451349
-0.0398451
-0.0347827
-0.0299935
-0.025523
-0.0214125
-0.0176957
-0.0143953
-0.0115207
-0.00906705
-0.00701581
-0.00533682
-0.00399128
-0.00293529
-0.0021234
-0.00151153
-0.00105923
-0.000731072
-0.000497196
-0.000333351
-0.000220438
-0.000143839
-9.26523e-05
-5.89393e-05
-3.70414e-05
-2.30069e-05
-1.41274e-05
-8.579e-06
-5.15355e-06
-3.06331e-06
-1.80219e-06
-1.04964e-06
-6.05355e-07
-3.4578e-07
-1.95657e-07
-1.09694e-07
-6.09452e-08
-3.35612e-08
-1.8321e-08
-9.91612e-09
-5.32204e-09
-2.83284e-09
-1.49565e-09
-7.83343e-10
-4.07049e-10
-2.09881e-10
-1.07384e-10
-5.45317e-11
-2.74879e-11
-1.37498e-11
-6.82585e-12
-3.36426e-12
-1.64674e-12
-7.99553e-13
-3.83619e-13
-1.81353e-13
-8.38104e-14
-3.73594e-14
-1.5575e-14
-4.95308e-15
-8.97335e-16
-9.4255e-17
0
0
0
0
0
0
0
0
0
0
0
0
0
0
0
0
0
0
0
0
0
0
0
0
0
0
0
0
0
0
0
0
0
0
0
0
0
0
0
0
0
0
0
0
0
0
0
0
0
0
0
0
0
0
0
0
0
0
0
0
0
0
0
0
0
0
0
0
0
0
0
0
0
0
0
0
0
0
0
0
0
0
0
0
0
0
0
0
0
0
0
0
0
0
0
0
0
0
0
0
0
0
0
0
0
0
0
0
0
0
0
0
0
0
0
0
0
0
0
0
0
0
0
0
0
0
0
0
0
0
0
0
0
0
0
0
0
0
0
0
0
0
0
0
0
0
0
0
0
0
0
0
0
0
0
0
0
0
0
0
0
0
0
0
0
0
0
0
0
0
0
0
0
0
0
0
0
0
0
0
0
0
0
0
0
0
0
0
0
0
0
0
0
0
0
0
0
0
0
0
0
0
0
0
0
0
0
0
0
0
0
0
0
0
0
0
0
0
0
0
0
0
0
0
0
0
0
0
0
0
0
0
0
0
0
0
0
0
0
0
0
0
0
0
0
0
0
0
0
0
0
0
0
0
0
0
0
0
0
0
0
0
0
0
0
0
0
0
0
0
0
0
0
0
0
0
0
0
0
0
0
)
;

boundaryField
{
    front-back
    {
        type            empty;
        value           nonuniform 0();
    }
    inlet-outlet
    {
        type            calculated;
        value           uniform 0;
    }
    top-down
    {
        type            empty;
        value           nonuniform 0();
    }
}


// ************************************************************************* //
