/*--------------------------------*- C++ -*----------------------------------*\
| =========                 |                                                 |
| \\      /  F ield         | OpenFOAM: The Open Source CFD Toolbox           |
|  \\    /   O peration     | Version:  2.2.x                                 |
|   \\  /    A nd           | Web:      www.OpenFOAM.org                      |
|    \\/     M anipulation  |                                                 |
\*---------------------------------------------------------------------------*/
FoamFile
{
    version     2.0;
    format      ascii;
    class       volVectorField;
    location    "0.1";
    object      U;
}
// * * * * * * * * * * * * * * * * * * * * * * * * * * * * * * * * * * * * * //

dimensions      [0 1 -1 0 0 0 0];

internalField   nonuniform List<vector> 
1024
(
(0 0 0)
(0 0 0)
(0 0 0)
(0 0 0)
(0 0 0)
(0 0 0)
(0 0 0)
(0 0 0)
(0 0 0)
(0 0 0)
(0 0 0)
(0 0 0)
(0 0 0)
(0 0 0)
(0 0 0)
(0 0 0)
(0 0 0)
(0 0 0)
(0 0 0)
(0 0 0)
(0 0 0)
(0 0 0)
(0 0 0)
(0 0 0)
(0 0 0)
(0 0 0)
(0 0 0)
(0 0 0)
(0 0 0)
(0 0 0)
(0 0 0)
(0 0 0)
(0 0 0)
(0 0 0)
(0 0 0)
(0 0 0)
(0 0 0)
(0 0 0)
(0 0 0)
(0 0 0)
(0 0 0)
(0 0 0)
(0 0 0)
(0 0 0)
(0 0 0)
(0 0 0)
(0 0 0)
(0 0 0)
(0 0 0)
(0 0 0)
(0 0 0)
(0 0 0)
(0 0 0)
(0 0 0)
(0 0 0)
(0 0 0)
(0 0 0)
(0 0 0)
(0 0 0)
(0 0 0)
(0 0 0)
(0 0 0)
(0 0 0)
(0 0 0)
(0 0 0)
(0 0 0)
(0 0 0)
(0 0 0)
(0 0 0)
(0 0 0)
(0 0 0)
(0 0 0)
(0 0 0)
(0 0 0)
(0 0 0)
(0 0 0)
(0 0 0)
(0 0 0)
(0 0 0)
(2.37259e-16 0 0)
(2.55336e-15 1.80769e-16 0)
(1.32413e-14 2.70024e-15 0)
(4.9994e-14 1.87774e-14 0)
(1.48592e-13 7.01045e-14 0)
(3.8862e-13 1.96507e-13 0)
(9.53975e-13 5.00369e-13 0)
(2.27717e-12 1.21058e-12 0)
(5.37035e-12 2.83756e-12 0)
(1.25953e-11 6.70049e-12 0)
(2.9429e-11 1.5653e-11 0)
(6.87227e-11 3.65574e-11 0)
(1.60362e-10 8.53645e-11 0)
(3.73993e-10 1.99125e-10 0)
(8.71969e-10 4.64267e-10 0)
(2.03234e-09 1.08239e-09 0)
(4.73508e-09 2.52228e-09 0)
(1.10297e-08 5.8763e-09 0)
(2.5686e-08 1.366e-08 0)
(6.01649e-08 3.30747e-08 0)
(1.27238e-07 6.39716e-08 0)
(1.9206e-07 1.35324e-07 0)
(2.24892e-07 1.00197e-07 0)
(2.69111e-07 1.97518e-07 0)
(3.08454e-07 1.45269e-07 0)
(3.4727e-07 2.50101e-07 0)
(3.87222e-07 1.98044e-07 0)
(4.2696e-07 3.06242e-07 0)
(4.6356e-07 2.50314e-07 0)
(4.9688e-07 3.58868e-07 0)
(5.24023e-07 2.95409e-07 0)
(5.45117e-07 4.00811e-07 0)
(5.56895e-07 3.25793e-07 0)
(5.58619e-07 4.22002e-07 0)
(5.51713e-07 3.44497e-07 0)
(4.91746e-07 3.79454e-07 0)
(3.74826e-07 2.91246e-07 0)
(-2.78339e-08 6.10594e-08 0)
(-8.40058e-07 -3.52604e-07 0)
(-2.46112e-06 -1.41597e-06 0)
(-5.51096e-06 -3.00645e-06 0)
(-1.11531e-05 -6.75195e-06 0)
(-2.14866e-05 -1.22054e-05 0)
(-4.03191e-05 -2.45505e-05 0)
(-7.53284e-05 -4.30051e-05 0)
(-0.000141661 -8.49359e-05 0)
(-0.000272443 -0.000153181 0)
(-0.000540125 -0.000312981 0)
(-0.00111211 -0.000608323 0)
(-0.00237994 -0.00133198 0)
(-0.00518598 -0.00264751 0)
(-0.00853692 -0.00598142 0)
(-0.0108985 -0.0049142 0)
(-0.0129665 -0.00953496 0)
(-0.0146954 -0.00693619 0)
(-0.0163693 -0.0119713 0)
(-0.0181042 -0.00944209 0)
(-0.0195102 -0.0142003 0)
(-0.021014 -0.0120765 0)
(-0.0222032 -0.0152333 0)
(-0.0274473 -0.0176366 0)
(-0.0321585 -0.0215949 0)
(-0.0371601 -0.0249503 0)
(-0.0426181 -0.0288374 0)
(-0.0482611 -0.0328453 0)
(-0.0528997 -0.0356593 0)
(-0.0572704 -0.0392907 0)
(-0.0626483 -0.0423119 0)
(-0.0676328 -0.0465161 0)
(-0.073053 -0.0494984 0)
(-0.07777 -0.0535554 0)
(-0.0832973 -0.0566414 0)
(-0.0881928 -0.0608888 0)
(-0.0937493 -0.063966 0)
(-0.0985943 -0.068124 0)
(-0.104089 -0.0712277 0)
(-0.108937 -0.0754529 0)
(-0.114514 -0.0785694 0)
(-0.119409 -0.0828452 0)
(-0.124989 -0.0859701 0)
(-0.129862 -0.0902858 0)
(-0.135507 -0.0934378 0)
(-0.140422 -0.0977992 0)
(-0.146047 -0.100965 0)
(-0.150899 -0.105281 0)
(-0.156434 -0.108441 0)
(-0.161203 -0.112698 0)
(-0.166643 -0.115768 0)
(-0.171334 -0.1201 0)
(-0.176976 -0.123034 0)
(-0.182078 -0.127977 0)
(-0.188937 -0.131213 0)
(-0.195062 -0.137353 0)
(-0.20247 -0.140839 0)
(-0.207151 -0.146462 0)
(-0.212817 -0.147794 0)
(-0.216099 -0.152974 0)
(-0.221816 -0.154653 0)
(-0.225859 -0.159987 0)
(-0.23148 -0.162715 0)
(-0.235295 -0.167058 0)
(-0.240122 -0.169663 0)
(-0.243807 -0.173371 0)
(-0.247912 -0.175516 0)
(-0.251044 -0.178582 0)
(-0.25467 -0.180679 0)
(-0.257452 -0.18333 0)
(-0.260482 -0.185328 0)
(-0.263108 -0.18721 0)
(-0.265444 -0.189195 0)
(-0.267786 -0.190616 0)
(-0.269681 -0.192417 0)
(-0.271813 -0.193286 0)
(-0.273018 -0.194848 0)
(-0.274584 -0.195232 0)
(-0.275204 -0.196679 0)
(-0.276239 -0.196867 0)
(-0.276621 -0.197686 0)
(-0.277216 -0.197809 0)
(-0.277357 -0.19833 0)
(-0.277557 -0.19841 0)
(-0.277567 -0.198166 0)
(-0.277534 -0.198274 0)
(-0.27732 -0.197992 0)
(-0.276857 -0.19774 0)
(-0.276231 -0.197083 0)
(-0.275521 -0.196561 0)
(-0.274933 -0.195968 0)
(-0.274358 -0.195485 0)
(-0.273704 -0.195115 0)
(-0.273099 -0.194941 0)
(-0.272803 -0.194246 0)
(-0.272316 -0.194206 0)
(-0.271903 -0.194399 0)
(-0.271582 -0.194277 0)
(-0.271275 -0.194296 0)
(-0.271085 -0.194124 0)
(-0.270932 -0.194137 0)
(-0.270782 -0.194026 0)
(-0.270657 -0.193899 0)
(-0.27048 -0.193775 0)
(-0.27037 -0.193534 0)
(-0.270128 -0.193345 0)
(-0.269867 -0.193523 0)
(-0.269669 -0.19317 0)
(-0.269411 -0.192965 0)
(-0.269275 -0.192962 0)
(-0.269137 -0.19261 0)
(-0.268948 -0.192739 0)
(-0.268777 -0.192618 0)
(-0.268685 -0.192616 0)
(-0.268583 -0.192525 0)
(-0.268575 -0.192709 0)
(-0.268589 -0.192395 0)
(-0.268604 -0.192546 0)
(-0.268703 -0.192439 0)
(-0.268757 -0.192241 0)
(-0.268839 -0.192268 0)
(-0.268952 -0.192282 0)
(-0.269103 -0.19234 0)
(-0.269228 -0.192359 0)
(-0.269308 -0.192418 0)
(-0.269387 -0.192479 0)
(-0.269462 -0.192549 0)
(-0.26947 -0.192703 0)
(-0.269539 -0.192711 0)
(-0.269574 -0.19297 0)
(-0.269612 -0.192637 0)
(-0.269672 -0.193159 0)
(-0.269679 -0.192829 0)
(-0.26975 -0.193289 0)
(-0.269792 -0.192959 0)
(-0.269905 -0.193333 0)
(-0.269869 -0.193071 0)
(-0.269942 -0.193173 0)
(-0.269971 -0.193263 0)
(-0.269992 -0.193069 0)
(-0.270039 -0.193253 0)
(-0.269994 -0.192973 0)
(-0.269972 -0.193169 0)
(-0.269869 -0.192995 0)
(-0.269841 -0.192927 0)
(-0.269766 -0.193098 0)
(-0.269746 -0.192705 0)
(-0.26975 -0.19305 0)
(-0.269729 -0.192717 0)
(-0.26979 -0.192968 0)
(-0.269866 -0.192902 0)
(-0.269996 -0.193094 0)
(-0.270254 -0.193163 0)
(-0.270433 -0.193377 0)
(-0.270697 -0.193446 0)
(-0.270828 -0.193593 0)
(-0.270994 -0.193705 0)
(-0.271135 -0.193721 0)
(-0.271216 -0.193974 0)
(-0.271319 -0.193986 0)
(-0.271409 -0.194158 0)
(-0.271429 -0.194088 0)
(-0.271483 -0.194257 0)
(-0.271477 -0.19417 0)
(-0.271526 -0.194302 0)
(-0.271521 -0.19423 0)
(-0.271564 -0.194336 0)
(-0.271568 -0.194283 0)
(-0.271623 -0.19438 0)
(-0.271644 -0.194334 0)
(-0.2717 -0.194442 0)
(-0.271713 -0.194368 0)
(-0.271755 -0.194502 0)
(-0.271754 -0.194341 0)
(-0.271774 -0.194494 0)
(-0.271743 -0.194388 0)
(-0.271744 -0.194507 0)
(-0.271719 -0.194429 0)
(-0.271731 -0.194492 0)
(-0.271729 -0.194426 0)
(-0.271756 -0.194478 0)
(-0.271789 -0.19447 0)
(-0.271831 -0.194532 0)
(-0.271899 -0.194525 0)
(-0.27196 -0.194656 0)
(-0.272068 -0.194688 0)
(-0.272122 -0.194826 0)
(-0.272191 -0.194833 0)
(-0.272227 -0.194867 0)
(-0.272222 -0.194885 0)
(-0.272243 -0.194913 0)
(-0.272245 -0.194954 0)
(-0.27225 -0.19499 0)
(-0.272248 -0.195016 0)
(-0.272325 -0.195044 0)
(-0.272358 -0.195151 0)
(-0.272384 -0.195074 0)
(-0.272417 -0.195203 0)
(-0.272439 -0.195112 0)
(-0.272479 -0.1952 0)
(-0.272509 -0.195193 0)
(-0.272565 -0.195244 0)
(-0.272655 -0.19529 0)
(-0.272743 -0.195358 0)
(-0.272802 -0.195392 0)
(-0.272819 -0.195413 0)
(-0.272822 -0.195406 0)
(-0.272771 -0.195364 0)
(-0.272709 -0.195301 0)
(-0.272612 -0.19524 0)
(-0.27256 -0.195156 0)
(-0.272527 -0.195141 0)
(-0.272559 -0.19509 0)
(-0.272612 -0.195125 0)
(-0.272738 -0.195184 0)
(-0.272819 -0.195271 0)
(-0.272861 -0.195237 0)
(-0.272855 -0.195252 0)
(-0.272831 -0.195206 0)
(-0.272767 -0.195117 0)
(-0.272773 -0.195055 0)
(-0.272853 -0.195079 0)
(-0.273148 -0.195239 0)
(-0.273446 -0.195487 0)
(-0.273601 -0.195464 0)
(-0.273603 -0.195698 0)
(-0.273585 -0.195575 0)
(-0.273162 -0.195364 0)
(-0.272704 -0.194932 0)
(-0.272394 -0.194906 0)
(-0.272376 -0.194431 0)
(-0.272425 -0.194605 0)
(-0.273223 -0.194973 0)
(-0.274018 -0.195776 0)
(-0.274512 -0.195714 0)
(-0.274566 -0.196605 0)
(-0.274469 -0.196276 0)
(-0.27309 -0.195633 0)
(-0.27173 -0.194235 0)
(-0.270909 -0.194349 0)
(-0.270853 -0.192906 0)
(-0.271056 -0.193478 0)
(-0.273449 -0.194655 0)
(-0.275697 -0.197039 0)
(-0.276944 -0.196783 0)
(-0.276916 -0.199128 0)
(-0.276361 -0.198171 0)
(-0.272024 -0.195944 0)
(-0.268162 -0.19178 0)
(-0.266435 -0.192596 0)
(-0.266618 -0.188792 0)
(-0.267722 -0.190353 0)
(-0.275244 -0.195229 0)
(-0.282696 -0.202111 0)
(-0.285586 -0.205403 0)
(-0.282203 -0.209457 0)
(-0.257506 -0.235747 0)
(-0.164574 -0.389062 0)
(0.21916 -0.911166 0)
(0.457082 -1.47742 0)
(0.645458 -1.50051 0)
(0.654954 -1.59304 0)
(0.65219 -1.62153 0)
(0.651933 -1.59813 0)
(0.652122 -1.61483 0)
(0.654448 -1.60879 0)
(0.655404 -1.60827 0)
(0.654517 -1.60938 0)
(0.654047 -1.60862 0)
(0.654068 -1.60861 0)
(0.654339 -1.60893 0)
(0.654587 -1.60892 0)
(0.654652 -1.6094 0)
(0.654598 -1.6095 0)
(0.654492 -1.60944 0)
(0.654331 -1.60937 0)
(0.654173 -1.60902 0)
(0.653994 -1.60877 0)
(0.653991 -1.60871 0)
(0.654076 -1.60883 0)
(0.654302 -1.60898 0)
(0.654505 -1.60914 0)
(0.654597 -1.60938 0)
(0.654647 -1.60936 0)
(0.654596 -1.60932 0)
(0.654485 -1.60921 0)
(0.654399 -1.60893 0)
(0.654332 -1.60879 0)
(0.65433 -1.60879 0)
(0.65431 -1.60886 0)
(0.654295 -1.60903 0)
(0.65423 -1.60916 0)
(0.654173 -1.6092 0)
(0.654139 -1.60923 0)
(0.654129 -1.60914 0)
(0.654145 -1.60897 0)
(0.654204 -1.60881 0)
(0.654257 -1.60877 0)
(0.654342 -1.60868 0)
(0.654411 -1.60874 0)
(0.654462 -1.60884 0)
(0.654442 -1.60897 0)
(0.654362 -1.60905 0)
(0.654279 -1.60902 0)
(0.654072 -1.60901 0)
(0.653907 -1.60891 0)
(0.653861 -1.60883 0)
(0.653867 -1.60883 0)
(0.65399 -1.60883 0)
(0.654127 -1.6089 0)
(0.654296 -1.60895 0)
(0.654379 -1.60889 0)
(0.654411 -1.6088 0)
(0.65436 -1.60871 0)
(0.654278 -1.60864 0)
(0.654183 -1.60862 0)
(0.654077 -1.60866 0)
(0.654027 -1.60873 0)
(0.654009 -1.60878 0)
(0.654008 -1.60887 0)
(0.654029 -1.60888 0)
(0.654062 -1.6088 0)
(0.654091 -1.6087 0)
(0.654129 -1.60856 0)
(0.654154 -1.60845 0)
(0.65418 -1.60839 0)
(0.654198 -1.6084 0)
(0.654171 -1.60848 0)
(0.65418 -1.60856 0)
(0.654048 -1.60864 0)
(0.654011 -1.6086 0)
(0.653888 -1.60857 0)
(0.653886 -1.60848 0)
(0.653927 -1.60842 0)
(0.654038 -1.60836 0)
(0.654093 -1.60835 0)
(0.654096 -1.60835 0)
(0.654025 -1.60838 0)
(0.653955 -1.60844 0)
(0.65393 -1.6085 0)
(0.653944 -1.60853 0)
(0.654013 -1.60851 0)
(0.654105 -1.60845 0)
(0.654111 -1.60836 0)
(0.654069 -1.6083 0)
(0.653955 -1.60831 0)
(0.6538 -1.60833 0)
(0.653709 -1.60835 0)
(0.653741 -1.60838 0)
(0.653913 -1.60837 0)
(0.654102 -1.60834 0)
(0.654168 -1.60838 0)
(0.654131 -1.60844 0)
(0.65402 -1.60853 0)
(0.653796 -1.60868 0)
(0.653696 -1.60874 0)
(0.653794 -1.60871 0)
(0.65402 -1.60866 0)
(0.654295 -1.6085 0)
(0.654345 -1.6084 0)
(0.65425 -1.60842 0)
(0.654023 -1.60855 0)
(0.653725 -1.60874 0)
(0.653569 -1.60884 0)
(0.653628 -1.60885 0)
(0.653919 -1.60875 0)
(0.654332 -1.60851 0)
(0.654509 -1.60834 0)
(0.654485 -1.60828 0)
(0.654188 -1.60836 0)
(0.653748 -1.60862 0)
(0.653549 -1.60878 0)
(0.653543 -1.60888 0)
(0.653829 -1.60894 0)
(0.654526 -1.60874 0)
(0.65498 -1.60849 0)
(0.655036 -1.60843 0)
(0.65473 -1.60852 0)
(0.65388 -1.60892 0)
(0.653263 -1.60931 0)
(0.653062 -1.60945 0)
(0.653256 -1.60938 0)
(0.654244 -1.60888 0)
(0.655122 -1.60816 0)
(0.65538 -1.60784 0)
(0.655258 -1.60774 0)
(0.654209 -1.60806 0)
(0.652922 -1.60893 0)
(0.652606 -1.60947 0)
(0.652857 -1.60973 0)
(0.654016 -1.60985 0)
(0.65625 -1.60917 0)
(0.657282 -1.60812 0)
(0.656808 -1.60753 0)
(0.654729 -1.60724 0)
(0.65201 -1.60724 0)
(0.649726 -1.60722 0)
(0.648391 -1.60657 0)
(0.648862 -1.60455 0)
(0.65046 -1.60082 0)
(0.650784 -1.5954 0)
(0.648716 -1.58932 0)
(0.643225 -1.58407 0)
(0.636176 -1.57969 0)
(0.630369 -1.57345 0)
(0.625839 -1.56419 0)
(0.621815 -1.55288 0)
(0.61906 -1.53988 0)
(0.616163 -1.52552 0)
(0.610991 -1.51123 0)
(0.601957 -1.49935 0)
(0.591207 -1.48642 0)
(0.581387 -1.47043 0)
(0.574067 -1.45498 0)
(0.568618 -1.44192 0)
(0.566782 -1.42802 0)
(0.56419 -1.40964 0)
(0.55688 -1.38909 0)
(0.542338 -1.36252 0)
(0.528158 -1.33737 0)
(0.51617 -1.32288 0)
(0.50819 -1.31707 0)
(0.504295 -1.28854 0)
(0.494283 -1.21444 0)
(0.477252 -1.06293 0)
(0.55625 -0.935332 0)
(0.635489 -0.48321 0)
(0.671893 -0.328746 0)
(0.680136 -0.290148 0)
(0.681867 -0.281826 0)
(0.682259 -0.280075 0)
(0.682395 -0.279755 0)
(0.682457 -0.279727 0)
(0.682487 -0.279759 0)
(0.682529 -0.279782 0)
(0.682552 -0.279829 0)
(0.682588 -0.279859 0)
(0.682612 -0.279894 0)
(0.682638 -0.279921 0)
(0.682657 -0.279954 0)
(0.682681 -0.279992 0)
(0.682724 -0.280026 0)
(0.682767 -0.280051 0)
(0.682797 -0.280065 0)
(0.682811 -0.280072 0)
(0.68282 -0.280064 0)
(0.682843 -0.280063 0)
(0.68288 -0.280096 0)
(0.682916 -0.280162 0)
(0.68296 -0.280192 0)
(0.683034 -0.280242 0)
(0.683119 -0.280397 0)
(0.683363 -0.280503 0)
(0.683758 -0.280637 0)
(0.684206 -0.28098 0)
(0.684796 -0.281349 0)
(0.685742 -0.281636 0)
(0.686699 -0.282438 0)
(0.687708 -0.282958 0)
(0.688258 -0.283134 0)
(0.688475 -0.283157 0)
(0.688373 -0.283154 0)
(0.688127 -0.283239 0)
(0.687698 -0.282665 0)
(0.687108 -0.281988 0)
(0.685665 -0.281691 0)
(0.683772 -0.280894 0)
(0.682024 -0.279037 0)
(0.679244 -0.277732 0)
(0.675652 -0.276639 0)
(0.672039 -0.274008 0)
(0.667976 -0.271511 0)
(0.662828 -0.26974 0)
(0.657633 -0.266652 0)
(0.652387 -0.263405 0)
(0.646241 -0.261067 0)
(0.640364 -0.257476 0)
(0.634003 -0.254448 0)
(0.62762 -0.251081 0)
(0.621004 -0.247984 0)
(0.614673 -0.244376 0)
(0.607887 -0.241425 0)
(0.601451 -0.237752 0)
(0.594588 -0.234808 0)
(0.588126 -0.231155 0)
(0.58126 -0.228279 0)
(0.574828 -0.224626 0)
(0.567942 -0.221809 0)
(0.561464 -0.218188 0)
(0.554558 -0.21538 0)
(0.548064 -0.211801 0)
(0.541168 -0.209039 0)
(0.534694 -0.205496 0)
(0.527813 -0.202781 0)
(0.521334 -0.199277 0)
(0.514448 -0.196591 0)
(0.507953 -0.193119 0)
(0.501057 -0.190463 0)
(0.494553 -0.187017 0)
(0.487647 -0.184398 0)
(0.481136 -0.180974 0)
(0.474222 -0.178392 0)
(0.467699 -0.174998 0)
(0.460781 -0.172441 0)
(0.454249 -0.169081 0)
(0.44733 -0.166557 0)
(0.440805 -0.163214 0)
(0.433876 -0.160747 0)
(0.427347 -0.157414 0)
(0.420409 -0.15497 0)
(0.413824 -0.151694 0)
(0.406884 -0.149198 0)
(0.400238 -0.146018 0)
(0.393324 -0.143484 0)
(0.386679 -0.140383 0)
(0.379805 -0.137866 0)
(0.373186 -0.13481 0)
(0.366324 -0.132322 0)
(0.359694 -0.129297 0)
(0.352811 -0.126807 0)
(0.346116 -0.123829 0)
(0.3392 -0.121297 0)
(0.332427 -0.118383 0)
(0.325499 -0.115812 0)
(0.318685 -0.112963 0)
(0.311768 -0.110378 0)
(0.304952 -0.107586 0)
(0.29805 -0.10501 0)
(0.29123 -0.102257 0)
(0.284334 -0.0996982 0)
(0.277504 -0.0969815 0)
(0.270615 -0.0944351 0)
(0.263785 -0.0917591 0)
(0.256907 -0.0892299 0)
(0.250086 -0.0865909 0)
(0.24323 -0.0840861 0)
(0.236426 -0.0814857 0)
(0.229586 -0.0790039 0)
(0.222801 -0.0764349 0)
(0.21597 -0.0739834 0)
(0.209187 -0.0714354 0)
(0.202357 -0.069006 0)
(0.195562 -0.0664837 0)
(0.18873 -0.0640659 0)
(0.181921 -0.061574 0)
(0.175087 -0.0591636 0)
(0.168267 -0.0567048 0)
(0.161437 -0.0543034 0)
(0.154614 -0.0518794 0)
(0.147795 -0.0494911 0)
(0.140984 -0.0471027 0)
(0.134183 -0.044734 0)
(0.127393 -0.0423777 0)
(0.120616 -0.0400369 0)
(0.113854 -0.037711 0)
(0.107108 -0.035401 0)
(0.100381 -0.0331058 0)
(0.0936687 -0.0308246 0)
(0.0870106 -0.0285739 0)
(0.0804461 -0.0263616 0)
(0.0739791 -0.0241898 0)
(0.06762 -0.0220614 0)
(0.0613859 -0.0199818 0)
(0.0553001 -0.0179582 0)
(0.0493923 -0.016 0)
(0.0436975 -0.0141181 0)
(0.0382551 -0.0123252 0)
(0.033107 -0.0106346 0)
(0.0282955 -0.00905968 0)
(0.0238598 -0.0076128 0)
(0.0198328 -0.00630417 0)
(0.0162379 -0.00514072 0)
(0.0130866 -0.0041253 0)
(0.0103766 -0.00325623 0)
(0.00809216 -0.00252736 0)
(0.00620554 -0.00192863 0)
(0.00467934 -0.00144699 0)
(0.00346997 -0.00106752 0)
(0.00253104 -0.000774637 0)
(0.0018165 -0.000553064 0)
(0.00128323 -0.000388675 0)
(0.000892665 -0.000268983 0)
(0.000611763 -0.000183398 0)
(0.000413229 -0.000123254 0)
(0.000275239 -8.16862e-05 0)
(0.000180859 -5.34114e-05 0)
(0.000117291 -3.44706e-05 0)
(7.51051e-05 -2.1967e-05 0)
(4.75029e-05 -1.38283e-05 0)
(2.96877e-05 -8.60208e-06 0)
(1.83396e-05 -5.2896e-06 0)
(1.12021e-05 -3.21636e-06 0)
(6.76768e-06 -1.93447e-06 0)
(4.04509e-06 -1.15115e-06 0)
(2.39267e-06 -6.77944e-07 0)
(1.40091e-06 -3.95228e-07 0)
(8.12107e-07 -2.2814e-07 0)
(4.66215e-07 -1.3042e-07 0)
(2.65105e-07 -7.38527e-08 0)
(1.49347e-07 -4.14339e-08 0)
(8.33682e-08 -2.30347e-08 0)
(4.61218e-08 -1.26923e-08 0)
(2.52922e-08 -6.93218e-09 0)
(1.37502e-08 -3.75401e-09 0)
(7.41213e-09 -2.01553e-09 0)
(3.9623e-09 -1.07335e-09 0)
(2.10081e-09 -5.66862e-10 0)
(1.10487e-09 -2.96995e-10 0)
(5.7647e-10 -1.54371e-10 0)
(2.98427e-10 -7.96135e-11 0)
(1.53303e-10 -4.0748e-11 0)
(7.81473e-11 -2.06842e-11 0)
(3.95431e-11 -1.04375e-11 0)
(1.98608e-11 -5.2153e-12 0)
(9.89656e-12 -2.59142e-12 0)
(4.89592e-12 -1.27767e-12 0)
(2.40484e-12 -6.25054e-13 0)
(1.17269e-12 -3.04052e-13 0)
(5.66731e-13 -1.45542e-13 0)
(2.70058e-13 -6.82983e-14 0)
(1.26445e-13 -3.11488e-14 0)
(5.7558e-14 -1.40393e-14 0)
(2.5271e-14 -5.37364e-15 0)
(9.67115e-15 -1.17359e-15 0)
(2.29351e-15 -1.0027e-16 0)
(3.89783e-16 0 0)
(4.80168e-17 0 0)
(0 0 0)
(0 0 0)
(0 0 0)
(0 0 0)
(0 0 0)
(0 0 0)
(0 0 0)
(0 0 0)
(0 0 0)
(0 0 0)
(0 0 0)
(0 0 0)
(0 0 0)
(0 0 0)
(0 0 0)
(0 0 0)
(0 0 0)
(0 0 0)
(0 0 0)
(0 0 0)
(0 0 0)
(0 0 0)
(0 0 0)
(0 0 0)
(0 0 0)
(0 0 0)
(0 0 0)
(0 0 0)
(0 0 0)
(0 0 0)
(0 0 0)
(0 0 0)
(0 0 0)
(0 0 0)
(0 0 0)
(0 0 0)
(0 0 0)
(0 0 0)
(0 0 0)
(0 0 0)
(0 0 0)
(0 0 0)
(0 0 0)
(0 0 0)
(0 0 0)
(0 0 0)
(0 0 0)
(0 0 0)
(0 0 0)
(0 0 0)
(0 0 0)
(0 0 0)
(0 0 0)
(0 0 0)
(0 0 0)
(0 0 0)
(0 0 0)
(0 0 0)
(0 0 0)
(0 0 0)
(0 0 0)
(0 0 0)
(0 0 0)
(0 0 0)
(0 0 0)
(0 0 0)
(0 0 0)
(0 0 0)
(0 0 0)
(0 0 0)
(0 0 0)
(0 0 0)
(0 0 0)
(0 0 0)
(0 0 0)
(0 0 0)
(0 0 0)
(0 0 0)
(0 0 0)
(0 0 0)
(0 0 0)
(0 0 0)
(0 0 0)
(0 0 0)
(0 0 0)
(0 0 0)
(0 0 0)
(0 0 0)
(0 0 0)
(0 0 0)
(0 0 0)
(0 0 0)
(0 0 0)
(0 0 0)
(0 0 0)
(0 0 0)
(0 0 0)
(0 0 0)
(0 0 0)
(0 0 0)
(0 0 0)
(0 0 0)
(0 0 0)
(0 0 0)
(0 0 0)
(0 0 0)
(0 0 0)
(0 0 0)
(0 0 0)
(0 0 0)
(0 0 0)
(0 0 0)
(0 0 0)
(0 0 0)
(0 0 0)
(0 0 0)
(0 0 0)
(0 0 0)
(0 0 0)
(0 0 0)
(0 0 0)
(0 0 0)
(0 0 0)
(0 0 0)
(0 0 0)
(0 0 0)
(0 0 0)
(0 0 0)
(0 0 0)
(0 0 0)
(0 0 0)
(0 0 0)
(0 0 0)
(0 0 0)
(0 0 0)
(0 0 0)
(0 0 0)
(0 0 0)
(0 0 0)
(0 0 0)
(0 0 0)
(0 0 0)
(0 0 0)
(0 0 0)
(0 0 0)
(0 0 0)
(0 0 0)
(0 0 0)
(0 0 0)
(0 0 0)
(0 0 0)
(0 0 0)
(0 0 0)
(0 0 0)
(0 0 0)
(0 0 0)
(0 0 0)
(0 0 0)
(0 0 0)
(0 0 0)
(0 0 0)
(0 0 0)
(0 0 0)
(0 0 0)
(0 0 0)
(0 0 0)
(0 0 0)
(0 0 0)
(0 0 0)
(0 0 0)
(0 0 0)
(0 0 0)
(0 0 0)
(0 0 0)
(0 0 0)
(0 0 0)
(0 0 0)
(0 0 0)
(0 0 0)
(0 0 0)
(0 0 0)
(0 0 0)
(0 0 0)
(0 0 0)
(0 0 0)
(0 0 0)
(0 0 0)
(0 0 0)
(0 0 0)
(0 0 0)
(0 0 0)
(0 0 0)
(0 0 0)
(0 0 0)
(0 0 0)
(0 0 0)
(0 0 0)
(0 0 0)
(0 0 0)
(0 0 0)
(0 0 0)
(0 0 0)
(0 0 0)
(0 0 0)
(0 0 0)
(0 0 0)
(0 0 0)
(0 0 0)
(0 0 0)
(0 0 0)
(0 0 0)
(0 0 0)
(0 0 0)
(0 0 0)
(0 0 0)
(0 0 0)
(0 0 0)
(0 0 0)
(0 0 0)
(0 0 0)
(0 0 0)
(0 0 0)
(0 0 0)
(0 0 0)
(0 0 0)
(0 0 0)
(0 0 0)
(0 0 0)
(0 0 0)
(0 0 0)
(0 0 0)
(0 0 0)
(0 0 0)
(0 0 0)
(0 0 0)
(0 0 0)
(0 0 0)
(0 0 0)
(0 0 0)
(0 0 0)
(0 0 0)
(0 0 0)
(0 0 0)
(0 0 0)
(0 0 0)
(0 0 0)
(0 0 0)
(0 0 0)
(0 0 0)
(0 0 0)
(0 0 0)
(0 0 0)
(0 0 0)
(0 0 0)
(0 0 0)
(0 0 0)
(0 0 0)
(0 0 0)
(0 0 0)
(0 0 0)
(0 0 0)
(0 0 0)
(0 0 0)
(0 0 0)
(0 0 0)
(0 0 0)
(0 0 0)
(0 0 0)
(0 0 0)
(0 0 0)
(0 0 0)
(0 0 0)
(0 0 0)
(0 0 0)
(0 0 0)
(0 0 0)
(0 0 0)
(0 0 0)
(0 0 0)
(0 0 0)
(0 0 0)
)
;

boundaryField
{
    front-back
    {
        type            empty;
    }
    inlet-outlet
    {
        type            zeroGradient;
    }
    top-down
    {
        type            empty;
    }
}


// ************************************************************************* //
