/*--------------------------------*- C++ -*----------------------------------*\
| =========                 |                                                 |
| \\      /  F ield         | OpenFOAM: The Open Source CFD Toolbox           |
|  \\    /   O peration     | Version:  2.2.x                                 |
|   \\  /    A nd           | Web:      www.OpenFOAM.org                      |
|    \\/     M anipulation  |                                                 |
\*---------------------------------------------------------------------------*/
FoamFile
{
    version     2.0;
    format      ascii;
    class       volScalarField;
    location    "1.45";
    object      By;
}
// * * * * * * * * * * * * * * * * * * * * * * * * * * * * * * * * * * * * * //

dimensions      [1 0 -2 0 0 -1 0];

internalField   nonuniform List<scalar> 
14161
(
-1.60968e-06
-1.40982e-07
-4.22552e-07
-2.18403e-07
-1.11232e-06
-8.83718e-07
1.20495e-07
6.12319e-07
-5.53581e-07
-2.00563e-06
6.38644e-07
1.63558e-06
-1.89638e-06
-1.60245e-06
3.15044e-06
-5.52798e-07
-3.60703e-06
3.19823e-06
5.2602e-06
-1.53155e-06
1.14347e-06
-5.67707e-06
-3.39915e-07
5.92023e-06
8.39078e-06
8.96379e-06
1.08007e-05
8.00583e-06
7.59582e-06
1.13771e-05
1.6647e-05
2.19133e-05
2.29901e-05
3.08528e-05
3.06854e-05
3.96976e-05
4.22053e-05
4.66425e-05
5.64176e-05
7.08665e-05
8.06947e-05
8.81193e-05
0.000202992
0.000148266
0.000410064
0.00037953
0.00138896
0.0054843
-0.00542911
-0.0245528
-0.0287395
-0.017207
-0.0115512
-0.00943875
-0.00878576
-0.00815659
-0.00801791
-0.00776404
-0.00693264
-0.00612957
-0.00487422
-0.00401826
-0.00304499
-0.00212728
-0.00161493
-0.00129861
-0.0010473
-0.000945523
-0.000893674
-0.000949462
-0.00120607
-0.00156911
-0.00194851
-0.00130275
-0.000958202
-0.00112495
-0.000752338
-0.000755151
-0.00122171
-0.00187957
-0.00171292
-0.00195758
-0.00249096
-0.00212565
-0.0018475
-0.0019329
-0.00182725
-0.00111922
-0.00106523
-0.00106573
-0.00156795
-0.00226068
-0.00376185
-0.00259076
-0.00318164
-0.000981813
-0.000575244
-0.00106583
-0.00182326
-0.0124627
-0.00792015
0.0190822
0.0560219
0.112389
0.120288
0.0956307
0.0762092
0.0639446
0.0553462
0.0488762
0.0455304
0.0421729
0.0420693
0.0412421
0.0424989
0.0411448
0.0407219
0.0385654
0.0285632
-4.10676e-06
-7.12134e-07
-1.04289e-06
-6.62409e-07
-1.25892e-06
-6.70707e-07
-1.08032e-06
-3.18462e-07
6.15827e-07
-3.15577e-06
-5.57637e-07
2.10585e-06
-3.97576e-06
-2.78217e-06
5.55744e-06
-6.44059e-08
-1.06733e-05
8.69156e-06
1.53514e-05
-3.69427e-06
-2.87385e-08
-6.93565e-06
-6.31802e-07
1.38907e-05
2.37338e-05
2.56668e-05
3.2884e-05
2.3634e-05
2.38854e-05
3.35453e-05
4.74069e-05
6.04055e-05
7.71272e-05
0.00010131
0.000101535
0.000132009
0.000127447
0.000142169
0.000168633
0.000222675
0.00022866
0.000238923
0.000335052
0.000367218
0.000862724
0.000938189
0.00329115
0.00521749
-0.0155775
-0.0374062
-0.0415622
-0.0324606
-0.0265301
-0.022197
-0.0218436
-0.021455
-0.0218662
-0.021594
-0.0195843
-0.0177453
-0.0147225
-0.0126268
-0.00991487
-0.00745558
-0.00618163
-0.00509524
-0.00429258
-0.00387522
-0.00379361
-0.00381432
-0.00426229
-0.00516449
-0.00612919
-0.00493762
-0.00405051
-0.00412065
-0.00349569
-0.00261125
-0.0034959
-0.00531206
-0.00515789
-0.00598296
-0.00769779
-0.0072354
-0.00665936
-0.00671487
-0.00647036
-0.0046896
-0.004277
-0.00406298
-0.00502672
-0.00693371
-0.0106553
-0.00879816
-0.0105516
-0.00522547
-0.00172675
-0.00363767
-0.00601002
-0.0160645
-0.00431218
0.0679754
0.162102
0.211894
0.196372
0.15974
0.130188
0.109508
0.0945933
0.0835539
0.0772897
0.0709688
0.0704677
0.0671724
0.0673738
0.0677008
0.0709227
0.0665708
0.0537839
-6.51564e-06
-1.08472e-06
-1.6756e-06
-1.29205e-06
-2.0825e-06
-8.93158e-07
-1.76307e-06
-4.26156e-07
2.56447e-07
-4.79852e-06
-6.01363e-07
3.57526e-06
-7.93947e-06
-4.85048e-06
9.90412e-06
-4.89901e-09
-1.58457e-05
1.48567e-05
2.53083e-05
-5.13169e-06
-3.35178e-06
-8.36386e-06
-2.69484e-07
2.46261e-05
4.20735e-05
4.35044e-05
5.56832e-05
4.12924e-05
4.14297e-05
5.77479e-05
7.80449e-05
0.00010749
0.000136576
0.000163924
0.000177149
0.000212671
0.000204348
0.000259559
0.000300958
0.000380561
0.000418198
0.000363056
0.000520184
0.00035235
0.000917338
0.000988291
0.00270223
-0.00327161
-0.0497106
-0.0543835
-0.0536576
-0.0483668
-0.0463805
-0.0413467
-0.041494
-0.0406239
-0.0404023
-0.0391637
-0.0356283
-0.0326335
-0.0274336
-0.0237381
-0.0191773
-0.0146464
-0.0123314
-0.0102118
-0.00859265
-0.00735242
-0.00688385
-0.00675252
-0.00716987
-0.00824386
-0.00930409
-0.00780868
-0.00681077
-0.00617926
-0.00534923
-0.00492047
-0.00635943
-0.00865602
-0.00831647
-0.00925644
-0.0116627
-0.0111617
-0.0105204
-0.0104314
-0.0104537
-0.0077943
-0.00699324
-0.00698029
-0.00883988
-0.0116118
-0.0161614
-0.0148382
-0.0163564
-0.00774727
-0.00200851
-0.0059277
-0.0075781
-0.0074118
0.064564
0.239253
0.327376
0.338148
0.291551
0.238958
0.200565
0.172194
0.150851
0.135102
0.125496
0.116129
0.114437
0.108597
0.10795
0.106166
0.101064
0.0893337
0.0794924
-8.10407e-06
-1.8919e-06
-2.30123e-06
-1.8555e-06
-2.31459e-06
-7.9134e-07
-2.60871e-06
-1.42269e-06
-1.28709e-07
-4.87528e-06
-1.71948e-06
4.21279e-06
-9.54104e-06
-6.433e-06
1.18658e-05
-1.6409e-06
-1.83467e-05
1.88024e-05
3.3492e-05
-4.0777e-06
-1.09703e-05
-7.91748e-06
2.99835e-06
3.518e-05
5.90926e-05
6.08019e-05
8.11084e-05
5.96663e-05
5.72091e-05
8.0808e-05
0.000109805
0.000146928
0.000180251
0.000232485
0.000279799
0.000295991
0.000297941
0.000359948
0.000437374
0.00054232
0.000580764
0.000556079
0.000513312
0.00045443
0.000396222
0.000133231
-0.000131689
-0.0190144
-0.0753715
-0.0727981
-0.0621129
-0.0618127
-0.0640923
-0.0627213
-0.0636312
-0.0611912
-0.0600385
-0.0559598
-0.050085
-0.0457437
-0.0382704
-0.0324696
-0.0261162
-0.0196526
-0.0156495
-0.0128653
-0.0112267
-0.0102126
-0.00945713
-0.0087699
-0.00954325
-0.0112697
-0.0126971
-0.0113115
-0.0109471
-0.00857127
-0.0070151
-0.00674663
-0.00926056
-0.0124969
-0.0119658
-0.0129051
-0.0160957
-0.0154104
-0.0139479
-0.0139197
-0.0141358
-0.0109223
-0.00997271
-0.010378
-0.0131439
-0.0169662
-0.0226592
-0.0221239
-0.0202648
-0.00814885
-0.000609221
-0.0044238
0.00753676
0.068091
0.262156
0.410153
0.449172
0.416479
0.352531
0.293534
0.250877
0.218819
0.195171
0.177398
0.165604
0.154346
0.151106
0.140371
0.135865
0.126757
0.11737
0.103727
0.0988768
-1.02652e-05
-2.63102e-06
-3.0592e-06
-2.22374e-06
-2.92301e-06
-7.70775e-07
-3.27794e-06
-2.22728e-06
-9.46106e-07
-5.2396e-06
-3.47607e-06
4.2414e-06
-1.03094e-05
-8.65669e-06
1.32893e-05
-1.68688e-06
-1.92243e-05
2.12146e-05
3.6648e-05
-5.75186e-08
-1.6592e-05
-2.60494e-06
3.12992e-06
4.31112e-05
7.8961e-05
8.2601e-05
9.45029e-05
7.95697e-05
7.62941e-05
0.000100838
0.000138041
0.000190943
0.000238434
0.000295678
0.000356145
0.000378552
0.000413005
0.000447304
0.000611266
0.000702902
0.00078708
0.000735294
0.000638868
0.000548159
-2.98139e-05
-0.00106973
-0.00289038
-0.0272321
-0.0841248
-0.0791753
-0.075752
-0.0820208
-0.0914207
-0.0944269
-0.0951724
-0.0920667
-0.0887258
-0.0828054
-0.0744828
-0.0678648
-0.0569744
-0.0497947
-0.0404325
-0.0308565
-0.0250582
-0.020365
-0.0172491
-0.0149829
-0.0141567
-0.0127083
-0.0128238
-0.0142762
-0.0157291
-0.0143147
-0.0142676
-0.0122975
-0.0100585
-0.00948027
-0.0120779
-0.0159326
-0.0155485
-0.0166551
-0.0204746
-0.0199827
-0.0181808
-0.0182633
-0.0187058
-0.0148559
-0.0143769
-0.0151567
-0.018715
-0.0231881
-0.0307323
-0.0323153
-0.0274877
-0.00801053
0.00169506
0.00911978
0.0772969
0.277774
0.466314
0.548193
0.543417
0.486128
0.412693
0.351049
0.30416
0.268225
0.242948
0.223552
0.209991
0.196447
0.190733
0.175139
0.167047
0.150056
0.135847
0.12006
0.118592
-1.12652e-05
-3.44672e-06
-3.96049e-06
-3.01306e-06
-3.21714e-06
-1.06566e-06
-3.63553e-06
-2.85921e-06
-1.6748e-06
-4.63585e-06
-5.64491e-06
3.35533e-06
-9.35844e-06
-1.0578e-05
1.3206e-05
3.07695e-07
-1.90459e-05
2.11071e-05
3.85136e-05
1.00717e-05
-2.01979e-05
5.14097e-07
9.15116e-06
5.26201e-05
8.48697e-05
0.00010099
0.00011057
0.00010761
9.7748e-05
0.00011811
0.000160632
0.000216787
0.00028026
0.000361039
0.00043455
0.000491448
0.000535785
0.000583851
0.000822681
0.000900387
0.00110483
0.00109176
0.00115164
0.00108878
0.00100619
0.000768116
0.000118014
-0.0155584
-0.0753204
-0.0929356
-0.108044
-0.123933
-0.133582
-0.131404
-0.126826
-0.120371
-0.113818
-0.103332
-0.0932016
-0.0821073
-0.0675031
-0.0591047
-0.0460193
-0.0333643
-0.0280238
-0.0233693
-0.0189899
-0.0161545
-0.0158968
-0.0141115
-0.0140582
-0.0155247
-0.0173575
-0.0168909
-0.0173655
-0.0156943
-0.0126913
-0.0112571
-0.0138226
-0.0193197
-0.0192943
-0.0201363
-0.0245507
-0.0240909
-0.0210218
-0.0220743
-0.0225815
-0.0184555
-0.0170798
-0.0189411
-0.0244109
-0.0286069
-0.0389279
-0.0399512
-0.0324094
-0.00814658
0.0147944
0.072122
0.281369
0.504021
0.616677
0.651095
0.615808
0.543015
0.466481
0.403795
0.35451
0.31528
0.287929
0.266495
0.251379
0.236512
0.228286
0.208019
0.197311
0.172816
0.155198
0.137898
0.139311
-1.28475e-05
-4.30637e-06
-4.85011e-06
-3.75063e-06
-3.38675e-06
-1.04962e-06
-4.49841e-06
-3.6361e-06
-2.25275e-06
-4.00753e-06
-8.35043e-06
1.3516e-06
-6.95857e-06
-1.00399e-05
9.85702e-06
1.44234e-06
-1.34553e-05
1.78299e-05
3.53791e-05
1.60685e-05
-1.88034e-05
1.67861e-06
1.71074e-05
4.8614e-05
9.63331e-05
0.000130519
0.000125065
0.000135481
0.000118634
0.000134974
0.000189929
0.000270413
0.000346107
0.000408145
0.000475142
0.000577561
0.000665458
0.000750436
0.000945618
0.00116465
0.00134762
0.00151808
0.00178151
0.00181893
0.00222501
0.00252688
0.00284153
0.00379354
-0.0479145
-0.104432
-0.152686
-0.180867
-0.189941
-0.185432
-0.173796
-0.164434
-0.155211
-0.138642
-0.126285
-0.108008
-0.0886263
-0.0796818
-0.0616165
-0.0425502
-0.0384747
-0.0314337
-0.023357
-0.020942
-0.0208557
-0.0179736
-0.0164672
-0.0177698
-0.018694
-0.0180651
-0.0182094
-0.0187626
-0.0168979
-0.0151731
-0.0174104
-0.0218042
-0.024066
-0.0245287
-0.0280274
-0.0286949
-0.024462
-0.0258695
-0.026749
-0.0232791
-0.0236328
-0.0248746
-0.0319509
-0.0375213
-0.0488195
-0.0471538
-0.0318001
0.0023155
0.0650274
0.258465
0.509391
0.665868
0.731131
0.728198
0.673888
0.593352
0.516105
0.450777
0.398402
0.356568
0.327473
0.304491
0.289353
0.273803
0.264884
0.243831
0.230952
0.200724
0.179411
0.159662
0.16291
-1.42963e-05
-4.96831e-06
-5.229e-06
-3.91872e-06
-4.66705e-06
-2.79098e-06
-3.50732e-06
-3.76808e-06
-4.35921e-06
-3.18429e-06
-8.94727e-06
-6.78415e-07
-5.12339e-06
-9.50341e-06
3.40857e-06
4.78984e-06
-3.9444e-06
1.28757e-05
3.04637e-05
2.28609e-05
-7.50111e-06
-2.70408e-06
2.43827e-05
6.0342e-05
9.58158e-05
0.000132726
0.000144508
0.000162866
0.000150933
0.000160224
0.000198517
0.000287362
0.000376082
0.000475383
0.000573035
0.000634778
0.000737404
0.000915202
0.00111139
0.00141032
0.00162022
0.00200904
0.00237254
0.00283427
0.00344695
0.00367768
0.00472354
0.0193023
-0.0161909
-0.12328
-0.203324
-0.243796
-0.249378
-0.239544
-0.218221
-0.206226
-0.188383
-0.165638
-0.1496
-0.121749
-0.0991202
-0.0870778
-0.0679644
-0.0453769
-0.0392372
-0.0326808
-0.0259324
-0.0232649
-0.0197804
-0.0184645
-0.0180814
-0.018733
-0.0201524
-0.0196565
-0.019988
-0.0205345
-0.0191854
-0.0182908
-0.0200442
-0.024068
-0.0289914
-0.0280825
-0.0310228
-0.0320178
-0.0270796
-0.0291711
-0.0299345
-0.0272451
-0.0273079
-0.0300964
-0.0378674
-0.0431913
-0.0533041
-0.0497705
-0.0208175
0.0381445
0.228877
0.503685
0.690296
0.785617
0.819896
0.790022
0.725596
0.640912
0.558044
0.493013
0.441178
0.399223
0.369037
0.34527
0.329225
0.313867
0.304607
0.282929
0.267852
0.232913
0.207786
0.184891
0.189077
-1.53964e-05
-5.5464e-06
-6.38466e-06
-5.02459e-06
-4.83526e-06
-3.59121e-06
-3.97539e-06
-5.55554e-06
-6.08779e-06
-1.40551e-06
-9.40293e-06
-5.20103e-06
-2.73162e-06
-7.757e-06
-5.2881e-06
5.36056e-06
8.26413e-06
5.99303e-06
2.78328e-05
2.71821e-05
6.8661e-06
-1.00937e-05
3.06803e-05
7.57372e-05
8.94045e-05
0.000137491
0.000174394
0.000182385
0.000186465
0.000183883
0.000222581
0.000310395
0.000410621
0.000499451
0.000606212
0.000726189
0.000845237
0.000975281
0.0011797
0.00144612
0.00176191
0.00209233
0.00259759
0.00319207
0.00416741
0.00562379
0.0076279
0.0298488
0.00705387
-0.155302
-0.273988
-0.323535
-0.323563
-0.300209
-0.270621
-0.253216
-0.22233
-0.195596
-0.170765
-0.13539
-0.107434
-0.100588
-0.0746329
-0.0545817
-0.0451137
-0.030349
-0.0284019
-0.0257042
-0.0199116
-0.0199154
-0.0197323
-0.0195452
-0.0205881
-0.02094
-0.0198365
-0.0219256
-0.0224654
-0.0205319
-0.0240396
-0.0275096
-0.0311573
-0.0305462
-0.0345494
-0.0350923
-0.0315723
-0.0334409
-0.0342158
-0.0318245
-0.0324648
-0.0338134
-0.0373684
-0.042578
-0.050502
-0.0451492
0.012334
0.186617
0.468668
0.695546
0.809157
0.87603
0.879191
0.845711
0.779825
0.687443
0.597956
0.533343
0.482058
0.440533
0.409473
0.384373
0.367538
0.351677
0.340502
0.318608
0.304971
0.269059
0.241114
0.214701
0.21953
-1.64657e-05
-6.38654e-06
-7.17708e-06
-5.51155e-06
-5.09874e-06
-4.99637e-06
-4.46239e-06
-5.98638e-06
-8.08496e-06
-1.23492e-06
-8.35528e-06
-1.00983e-05
7.7387e-08
-4.75237e-06
-1.2229e-05
5.8896e-06
1.74698e-05
1.88274e-06
2.13635e-05
3.26419e-05
2.08858e-05
6.22521e-07
2.89497e-05
8.8075e-05
8.17134e-05
0.000131528
0.000183814
0.000203549
0.000219441
0.000213009
0.000224952
0.000302771
0.000416641
0.000538174
0.000635677
0.000753285
0.000896348
0.00106061
0.00126901
0.00152964
0.00186767
0.00225562
0.00281882
0.00358206
0.00432875
0.00576694
0.00620441
0.0239006
-0.000854223
-0.231253
-0.366094
-0.401492
-0.390685
-0.357391
-0.318336
-0.289142
-0.253519
-0.224107
-0.190733
-0.142694
-0.115187
-0.0983716
-0.0807564
-0.058088
-0.0392236
-0.0317181
-0.0287133
-0.0245158
-0.0202355
-0.0209801
-0.021736
-0.0210978
-0.0229201
-0.0225981
-0.0235489
-0.0251869
-0.0239566
-0.0233031
-0.0274195
-0.0310001
-0.0329463
-0.0329361
-0.036233
-0.0365026
-0.0321408
-0.0347604
-0.034457
-0.0309784
-0.0300974
-0.0310249
-0.0328234
-0.0334419
-0.0310011
0.0127757
0.161277
0.442586
0.67817
0.828688
0.899848
0.935934
0.925783
0.88703
0.820338
0.724167
0.635304
0.570452
0.519647
0.479142
0.447797
0.421847
0.403815
0.386534
0.373417
0.352799
0.342673
0.308004
0.279426
0.249121
0.2535
-1.74256e-05
-7.2158e-06
-7.53736e-06
-5.8e-06
-6.39799e-06
-6.38969e-06
-3.99274e-06
-6.49956e-06
-1.07516e-05
-2.28019e-06
-7.30879e-06
-1.52956e-05
1.50962e-06
-8.39338e-07
-1.72938e-05
4.47279e-06
2.36246e-05
4.9454e-06
7.92079e-06
4.0693e-05
2.85444e-05
1.41499e-05
3.10566e-05
8.65696e-05
9.95001e-05
0.000112231
0.000181925
0.000228972
0.00023984
0.000246608
0.000247058
0.000298403
0.000417162
0.000548555
0.000659334
0.000769258
0.00087315
0.00100233
0.00112394
0.00127531
0.00144003
0.00158777
0.00189031
0.00194573
0.0027309
0.00212135
0.00308171
0.00509833
-0.120474
-0.373944
-0.416557
-0.432432
-0.423844
-0.396225
-0.353413
-0.307519
-0.262616
-0.24001
-0.193255
-0.156424
-0.125928
-0.0905477
-0.0771582
-0.0593039
-0.0368793
-0.0307754
-0.0266478
-0.0234207
-0.0216039
-0.0230399
-0.0247552
-0.0223834
-0.0243284
-0.0241398
-0.0269273
-0.0268553
-0.0257862
-0.0254254
-0.0301804
-0.031865
-0.0335303
-0.0330315
-0.0356694
-0.0358913
-0.0307701
-0.0307747
-0.0306428
-0.0248992
-0.020414
-0.01444
-0.00708255
0.0205141
0.0744805
0.221177
0.404331
0.61927
0.802483
0.905954
0.96057
0.979436
0.969039
0.928625
0.853988
0.753806
0.665506
0.600951
0.553102
0.514825
0.484079
0.457906
0.4389
0.419627
0.405594
0.385534
0.377207
0.345582
0.320898
0.287262
0.290915
-1.82795e-05
-7.76979e-06
-8.40791e-06
-6.89615e-06
-7.18324e-06
-6.79351e-06
-5.74533e-06
-5.99933e-06
-1.23665e-05
-3.21511e-06
-6.31624e-06
-1.69132e-05
2.98295e-07
2.5012e-06
-1.89468e-05
1.06778e-06
2.69399e-05
7.86192e-06
-1.49812e-06
4.11089e-05
4.23596e-05
2.54498e-05
4.90116e-05
8.09235e-05
0.000110703
0.000106081
0.000159915
0.000233028
0.000261918
0.000271856
0.000264169
0.000293348
0.000388362
0.000519972
0.000638902
0.000756116
0.000842511
0.000962614
0.00109156
0.00121791
0.00137623
0.00138146
0.00164783
0.00142734
0.00248028
0.00124269
0.00505976
-0.0121703
-0.403902
-0.569096
-0.503054
-0.460357
-0.436844
-0.404115
-0.363722
-0.317402
-0.273836
-0.237525
-0.18669
-0.161335
-0.130135
-0.0802265
-0.0696721
-0.0576703
-0.0337407
-0.0296307
-0.0272745
-0.02463
-0.023464
-0.0259884
-0.0273524
-0.0237336
-0.0266886
-0.0264551
-0.0294924
-0.0287422
-0.0276809
-0.0268725
-0.0297159
-0.0319601
-0.0314844
-0.0310569
-0.0319547
-0.0313931
-0.0226652
-0.0173079
-0.0136619
0.00266879
0.0307573
0.0673482
0.124268
0.216895
0.30809
0.450506
0.595414
0.731855
0.84032
0.929347
0.982553
0.995982
0.986123
0.950212
0.880066
0.783751
0.692695
0.628375
0.58225
0.546583
0.517376
0.492103
0.472446
0.451615
0.436734
0.417072
0.409504
0.381685
0.363927
0.328892
0.330741
-1.92593e-05
-8.53346e-06
-9.33519e-06
-7.71108e-06
-7.00899e-06
-9.04897e-06
-6.8967e-06
-5.43387e-06
-1.43764e-05
-6.43069e-06
-3.43002e-06
-1.80342e-05
-3.8367e-06
3.92949e-06
-1.70875e-05
-2.8663e-06
2.69297e-05
1.21086e-05
-4.81836e-06
2.99809e-05
5.76727e-05
4.28093e-05
5.88585e-05
7.74462e-05
0.000100186
0.000133572
0.000137538
0.000205243
0.000263529
0.000292215
0.000296343
0.000300964
0.000373675
0.000488683
0.000634372
0.000675625
0.000744533
0.000744453
0.00078811
0.000797044
0.000785365
0.000527376
0.00034771
-0.000147036
-0.000546077
-0.0024572
-0.00136702
-0.0875047
-0.671414
-0.71163
-0.609649
-0.548649
-0.473195
-0.412565
-0.367769
-0.316791
-0.281808
-0.231757
-0.189448
-0.159622
-0.122533
-0.0825044
-0.0616506
-0.053668
-0.0315153
-0.0289492
-0.0272386
-0.0248529
-0.0247792
-0.0288943
-0.0303793
-0.0248504
-0.028839
-0.028488
-0.0317118
-0.030527
-0.0287872
-0.0269059
-0.0266136
-0.0273877
-0.0234431
-0.0218307
-0.0172166
-0.0047356
0.0154845
0.0514557
0.082518
0.135014
0.213714
0.280014
0.33632
0.419109
0.507007
0.58956
0.67956
0.779425
0.875108
0.938484
0.977247
0.990285
0.984635
0.954922
0.89132
0.802059
0.71494
0.653201
0.608727
0.57528
0.547655
0.524145
0.504284
0.482224
0.466319
0.446613
0.43936
0.415153
0.40489
0.371428
0.372263
-2.01179e-05
-9.12903e-06
-9.76943e-06
-8.37299e-06
-8.87826e-06
-1.00102e-05
-7.86261e-06
-5.18263e-06
-1.49637e-05
-8.89051e-06
-3.47089e-06
-1.58888e-05
-9.7938e-06
3.65636e-06
-1.24138e-05
-5.02537e-06
2.20978e-05
1.58629e-05
1.64685e-06
1.09606e-05
6.27486e-05
7.04207e-05
6.33615e-05
8.72605e-05
9.76422e-05
0.000132485
0.000151279
0.000165173
0.000238255
0.000291943
0.000325666
0.000335637
0.000352903
0.000431101
0.000533289
0.000637133
0.000637512
0.00061516
0.000584036
0.000492153
0.00033261
0.000187677
-9.06488e-05
-0.000563785
-0.00129077
-0.00189329
-0.00419461
-0.298473
-0.770511
-0.771639
-0.71932
-0.647968
-0.526204
-0.445124
-0.386298
-0.342666
-0.300456
-0.238433
-0.200998
-0.157642
-0.124778
-0.0860293
-0.0536272
-0.0483025
-0.0326789
-0.0288856
-0.0279798
-0.0255991
-0.0268802
-0.0324915
-0.0349128
-0.0259146
-0.0295168
-0.0289439
-0.0305515
-0.0281376
-0.0234896
-0.0185235
-0.0101207
-0.00420535
0.0145637
0.0394878
0.0655127
0.114102
0.175913
0.253916
0.297959
0.340281
0.403877
0.466474
0.510968
0.557138
0.60693
0.663275
0.724816
0.791188
0.861454
0.926245
0.971024
0.987798
0.977628
0.946496
0.888017
0.808852
0.72961
0.672659
0.630937
0.600287
0.575177
0.554363
0.534929
0.512425
0.495243
0.475243
0.468228
0.447309
0.442679
0.413107
0.412928
-2.11519e-05
-9.9538e-06
-1.00753e-05
-9.09177e-06
-1.03229e-05
-1.00955e-05
-9.79894e-06
-5.74618e-06
-1.3785e-05
-1.36045e-05
-4.48991e-06
-1.18266e-05
-1.56543e-05
1.79333e-06
-4.30883e-06
-4.82725e-06
1.52893e-05
1.86402e-05
8.72562e-06
-9.70721e-07
5.38436e-05
8.92944e-05
8.13183e-05
7.83312e-05
0.000106525
0.000128392
0.000157944
0.000154454
0.000190049
0.000260054
0.000336874
0.000370153
0.000354964
0.00039263
0.000483065
0.000590988
0.000591188
0.000586702
0.00054308
0.000537056
0.00045668
0.000698164
0.0007558
0.00155084
0.00155331
0.0057934
-0.00222661
-0.489026
-0.81406
-0.805513
-0.782061
-0.737129
-0.642016
-0.549278
-0.444299
-0.384327
-0.322681
-0.254912
-0.215157
-0.156497
-0.134034
-0.0872797
-0.0511608
-0.045479
-0.0343568
-0.0285092
-0.0300015
-0.0247732
-0.0293216
-0.034126
-0.0342809
-0.021903
-0.0237431
-0.0191865
-0.0156625
-0.00718182
0.0123443
0.0337456
0.0696657
0.103675
0.158094
0.228988
0.2786
0.323303
0.371615
0.436063
0.48267
0.507436
0.53907
0.571875
0.60241
0.629514
0.662596
0.699247
0.742
0.791857
0.851462
0.909352
0.946726
0.965077
0.958527
0.932432
0.882061
0.812013
0.740588
0.688506
0.650212
0.622321
0.600088
0.581695
0.563481
0.542103
0.523293
0.503099
0.495897
0.477114
0.476157
0.451497
0.451576
-2.18529e-05
-1.04451e-05
-1.12299e-05
-1.00967e-05
-1.06097e-05
-1.08288e-05
-1.2739e-05
-6.8159e-06
-1.15449e-05
-1.83236e-05
-6.19667e-06
-6.92872e-06
-2.08353e-05
-2.27603e-06
3.50331e-06
-4.99322e-06
6.59595e-06
2.02595e-05
1.45507e-05
-3.06053e-07
3.65221e-05
9.93548e-05
9.6929e-05
7.55609e-05
0.000117294
0.000141364
0.000156639
0.000155857
0.000155376
0.000217798
0.000310727
0.000366598
0.000369094
0.000365774
0.000395111
0.000493814
0.000498533
0.000503117
0.000397567
0.000368173
0.000193127
0.000119434
-0.000344447
-0.000105093
-0.00202031
0.000957598
-0.0586586
-0.673248
-0.837993
-0.823097
-0.809436
-0.781799
-0.733182
-0.662676
-0.536912
-0.439596
-0.360207
-0.285843
-0.222855
-0.159568
-0.138552
-0.0809744
-0.0517579
-0.0414083
-0.0293765
-0.0253274
-0.0261967
-0.0201001
-0.0224171
-0.0222341
-0.0201278
-0.00239052
0.0172479
0.0344168
0.0669232
0.0985393
0.152874
0.213978
0.268597
0.304251
0.351723
0.412112
0.463487
0.497182
0.526339
0.556521
0.578118
0.592423
0.612889
0.631828
0.652468
0.669111
0.691396
0.718366
0.749849
0.78783
0.834152
0.884814
0.921463
0.940713
0.936827
0.913477
0.86912
0.807965
0.746303
0.700803
0.666853
0.642041
0.623102
0.607057
0.590368
0.571003
0.550802
0.530496
0.522586
0.505277
0.506418
0.485994
0.486651
-2.26932e-05
-1.119e-05
-1.20881e-05
-1.14272e-05
-1.06201e-05
-1.09569e-05
-1.45576e-05
-8.78132e-06
-1.02257e-05
-2.19599e-05
-9.0669e-06
-4.28605e-06
-2.10322e-05
-9.39324e-06
8.40236e-06
-2.70321e-06
-2.15744e-06
2.09789e-05
2.31699e-05
2.27702e-06
1.91863e-05
9.0243e-05
0.00010776
7.80284e-05
0.000105544
0.00015353
0.000160175
0.00017275
0.000155059
0.000164954
0.00023344
0.00034405
0.000381028
0.00034473
0.000345672
0.000421912
0.000508824
0.00046557
0.000405237
0.000349031
0.000189226
8.63031e-05
-0.000224696
-0.000593057
-0.00155509
-0.00193689
-0.249423
-0.771505
-0.840073
-0.829135
-0.823648
-0.80643
-0.781828
-0.737418
-0.662478
-0.556161
-0.429929
-0.327944
-0.234234
-0.165617
-0.139703
-0.0686636
-0.0535957
-0.0256923
-0.00896691
-0.0129962
-0.0117333
0.00107273
0.0194232
0.0376203
0.0606035
0.102885
0.160839
0.217493
0.25938
0.290078
0.332185
0.387069
0.442375
0.477987
0.508001
0.536872
0.561421
0.582564
0.601076
0.618494
0.628874
0.640253
0.653781
0.663998
0.679081
0.692948
0.709263
0.728908
0.753014
0.782875
0.819585
0.862533
0.895979
0.914569
0.912613
0.892201
0.853846
0.80171
0.749305
0.710192
0.681009
0.659724
0.644464
0.630394
0.615582
0.597983
0.577524
0.557243
0.548546
0.532202
0.534126
0.516935
0.518064
-2.33272e-05
-1.17521e-05
-1.32622e-05
-1.27134e-05
-1.1564e-05
-1.14997e-05
-1.62093e-05
-1.11361e-05
-9.7121e-06
-2.28973e-05
-1.35121e-05
-2.27642e-06
-1.902e-05
-1.65298e-05
9.82139e-06
1.46961e-06
-1.03486e-05
1.90268e-05
2.81758e-05
1.29721e-05
1.86776e-05
6.04954e-05
0.000109676
9.0436e-05
9.49047e-05
0.000146869
0.000177217
0.00018622
0.000184471
0.000162198
0.000187944
0.000242141
0.000292815
0.000296721
0.000293639
0.000314514
0.000454494
0.000465566
0.000552655
0.000523551
0.000749357
0.000826906
0.00156061
0.0013715
0.00459541
-0.00093559
-0.450547
-0.827217
-0.84686
-0.842393
-0.839218
-0.827614
-0.812762
-0.790323
-0.752808
-0.684357
-0.550641
-0.393614
-0.277693
-0.156414
-0.121138
-0.0546781
-0.0175402
0.00219085
0.0398699
0.0496255
0.0666951
0.102403
0.160649
0.216705
0.248643
0.284581
0.329107
0.37829
0.424051
0.451695
0.48009
0.508587
0.537025
0.562513
0.58596
0.60272
0.616495
0.62872
0.640127
0.650244
0.657558
0.665591
0.676413
0.683939
0.695345
0.707013
0.7204
0.735908
0.754572
0.777635
0.806471
0.841693
0.870732
0.887595
0.88724
0.869662
0.83715
0.79381
0.750267
0.717734
0.693369
0.675751
0.664206
0.651909
0.63914
0.623296
0.603798
0.583389
0.574219
0.558084
0.559013
0.544106
0.545879
-2.41011e-05
-1.24866e-05
-1.42859e-05
-1.41607e-05
-1.22545e-05
-1.09929e-05
-1.82117e-05
-1.57476e-05
-8.61263e-06
-2.07345e-05
-1.99431e-05
-2.87017e-06
-1.49966e-05
-2.06179e-05
6.62481e-06
6.41054e-06
-1.50355e-05
1.16931e-05
3.15537e-05
3.1046e-05
2.02194e-05
3.1599e-05
9.61526e-05
0.000105215
8.64536e-05
0.000124485
0.000180954
0.000196144
0.000208426
0.000202789
0.000182168
0.000191527
0.000235647
0.000239417
0.000228686
0.000227474
0.000309905
0.000430699
0.000501595
0.000381701
0.000462211
9.46437e-05
0.000574673
-0.000734845
0.00234252
-0.0370597
-0.650769
-0.854189
-0.853319
-0.850613
-0.847439
-0.84133
-0.836099
-0.822008
-0.800447
-0.765517
-0.682678
-0.525268
-0.342959
-0.139089
-0.0566387
-0.00625596
0.070912
0.114346
0.175902
0.223875
0.246118
0.276726
0.320771
0.37081
0.413836
0.442028
0.470758
0.494653
0.517152
0.536799
0.558379
0.57507
0.591086
0.60597
0.620472
0.632638
0.642906
0.650708
0.658985
0.666716
0.673543
0.680841
0.690244
0.697237
0.706896
0.716683
0.727846
0.740447
0.755446
0.773236
0.795504
0.823254
0.847707
0.862282
0.862782
0.848026
0.821358
0.785692
0.750114
0.723773
0.704186
0.690259
0.682407
0.671756
0.661181
0.64691
0.629319
0.609132
0.599357
0.583017
0.581652
0.56831
0.5711
-2.47713e-05
-1.32104e-05
-1.51341e-05
-1.49403e-05
-1.47243e-05
-1.237e-05
-1.82068e-05
-1.88803e-05
-9.05866e-06
-1.80331e-05
-2.60129e-05
-5.54183e-06
-1.03718e-05
-2.24354e-05
-8.80125e-07
8.70486e-06
-1.39991e-05
-7.5061e-07
3.15194e-05
4.53034e-05
2.68448e-05
1.64328e-05
6.75273e-05
0.000109939
9.6819e-05
9.5369e-05
0.000160062
0.000196167
0.000225108
0.000219635
0.000186635
0.000167307
0.000194663
0.000214083
0.000206865
0.000162959
0.000180392
0.000234407
0.000316899
0.000252795
3.75416e-05
-0.000283705
-0.000770813
-0.00160212
-0.00158619
-0.209683
-0.764389
-0.858255
-0.855089
-0.855721
-0.855189
-0.854704
-0.852318
-0.844307
-0.831681
-0.81201
-0.759886
-0.607551
-0.368496
-0.0956866
0.0788573
0.173316
0.230607
0.27862
0.319556
0.367162
0.404264
0.428114
0.456953
0.479457
0.501678
0.518659
0.539321
0.555959
0.569877
0.583345
0.596837
0.607622
0.620375
0.630374
0.640247
0.65029
0.658536
0.665099
0.671478
0.678607
0.685023
0.691874
0.70001
0.706406
0.714573
0.722786
0.732072
0.742356
0.754789
0.769759
0.786644
0.807548
0.826929
0.838665
0.839433
0.827888
0.806422
0.777695
0.749401
0.7288
0.71372
0.703477
0.69914
0.690189
0.681808
0.669213
0.653452
0.634068
0.623392
0.606685
0.603057
0.590638
0.593842
-2.56103e-05
-1.4074e-05
-1.57857e-05
-1.5644e-05
-1.7285e-05
-1.25447e-05
-1.75962e-05
-2.27873e-05
-1.16826e-05
-1.45638e-05
-2.81205e-05
-1.19641e-05
-7.26196e-06
-2.10719e-05
-9.16325e-06
8.29567e-06
-8.2875e-06
-1.33183e-05
2.84714e-05
5.15667e-05
4.30828e-05
1.0618e-05
3.25521e-05
9.90428e-05
0.000113913
8.77958e-05
0.000124905
0.000190156
0.000224253
0.00022949
0.000210221
0.000161782
0.000162009
0.000171989
0.000176432
0.000164082
8.97353e-05
0.000189115
0.000246404
0.00046086
0.000543101
0.000961541
0.000865625
0.00271871
-0.000346441
-0.411626
-0.83318
-0.860391
-0.858649
-0.860339
-0.860577
-0.861342
-0.859346
-0.85347
-0.839376
-0.819985
-0.765261
-0.558211
-0.196444
0.0866555
0.235346
0.32674
0.384978
0.422037
0.453509
0.477204
0.500485
0.518283
0.54186
0.555581
0.567222
0.573224
0.584978
0.596283
0.604768
0.615105
0.62364
0.631899
0.640969
0.647185
0.653553
0.661645
0.668028
0.674026
0.678956
0.68525
0.690973
0.697212
0.704498
0.710812
0.718353
0.725976
0.734737
0.744147
0.754668
0.766121
0.778983
0.794367
0.809281
0.817855
0.818507
0.809865
0.793186
0.770356
0.74856
0.733055
0.722251
0.715448
0.714316
0.707014
0.700955
0.69004
0.67595
0.657536
0.646123
0.629142
0.624078
0.611959
0.614969
-2.63588e-05
-1.48739e-05
-1.67674e-05
-1.62332e-05
-1.88766e-05
-1.57518e-05
-1.65876e-05
-2.49332e-05
-1.59503e-05
-1.27969e-05
-2.77315e-05
-1.96741e-05
-6.18016e-06
-1.88414e-05
-1.83708e-05
5.44895e-06
-2.31073e-06
-2.0301e-05
1.85051e-05
5.31664e-05
5.65029e-05
1.47955e-05
2.4495e-06
7.01692e-05
0.000119684
0.000101151
0.000102573
0.000163291
0.000208508
0.000220904
0.000219118
0.000173826
0.000160625
0.000177359
0.000177225
0.000173456
0.000118759
0.000159949
0.000160234
0.000381757
0.000224908
0.000798127
-0.000155728
0.00287193
-0.0248307
-0.622637
-0.85862
-0.862784
-0.86169
-0.862815
-0.863978
-0.863738
-0.861915
-0.85686
-0.831787
-0.772416
-0.646855
-0.310441
0.0495615
0.260373
0.371736
0.436199
0.47555
0.503067
0.52544
0.546254
0.563984
0.579053
0.594588
0.604787
0.614418
0.613697
0.618624
0.626339
0.631647
0.637829
0.639843
0.645923
0.651947
0.655799
0.660556
0.665988
0.671119
0.677448
0.682338
0.688447
0.694214
0.700752
0.708318
0.715378
0.722925
0.729867
0.737574
0.745263
0.753937
0.763261
0.772932
0.783613
0.794274
0.800395
0.800842
0.794945
0.782171
0.764714
0.748236
0.736947
0.729769
0.726364
0.727952
0.722002
0.718407
0.70938
0.696664
0.679639
0.667671
0.650461
0.643955
0.632034
0.634507
-2.7232e-05
-1.57105e-05
-1.77581e-05
-1.73371e-05
-2.03181e-05
-1.82149e-05
-1.61969e-05
-2.52991e-05
-2.15311e-05
-1.24713e-05
-2.59682e-05
-2.60826e-05
-7.18878e-06
-1.44731e-05
-2.53912e-05
-9.67332e-07
1.6431e-06
-1.82547e-05
4.39037e-06
4.76031e-05
6.04308e-05
2.48172e-05
-5.15826e-06
2.27204e-05
0.00010964
0.000126326
0.000107157
0.000131849
0.000188912
0.000209434
0.000206654
0.000177834
0.000181847
0.000191951
0.000163794
0.000148641
8.84072e-05
7.83901e-05
-5.6666e-05
-0.000145598
-0.000386885
-0.000738593
-0.00147808
-0.00126873
-0.176642
-0.74861
-0.859527
-0.860351
-0.860733
-0.860808
-0.861877
-0.86033
-0.854905
-0.845785
-0.795255
-0.640251
-0.347115
0.00498307
0.244448
0.378293
0.456027
0.504003
0.53649
0.558181
0.573846
0.587673
0.599705
0.611737
0.62217
0.630622
0.639134
0.641063
0.644209
0.645138
0.648351
0.65065
0.654763
0.658219
0.663205
0.666578
0.669909