/*--------------------------------*- C++ -*----------------------------------*\
| =========                 |                                                 |
| \\      /  F ield         | OpenFOAM: The Open Source CFD Toolbox           |
|  \\    /   O peration     | Version:  2.2.x                                 |
|   \\  /    A nd           | Web:      www.OpenFOAM.org                      |
|    \\/     M anipulation  |                                                 |
\*---------------------------------------------------------------------------*/
FoamFile
{
    version     2.0;
    format      ascii;
    class       volScalarField;
    location    "1.85";
    object      T;
}
// * * * * * * * * * * * * * * * * * * * * * * * * * * * * * * * * * * * * * //

dimensions      [0 0 0 1 0 0 0];

internalField   nonuniform List<scalar> 
14161
(
1
1
1
1
1
1
1
1
1
1
1
1
1
1
1
1
1
1
1
2.19585
2.91095
2.92261
2.92839
2.93207
2.93432
2.93525
2.93503
2.93425
2.93402
2.935
2.9377
2.94245
2.94935
2.95829
2.96898
2.98098
2.99375
3.00677
3.01954
3.03165
3.04284
3.05293
3.06187
3.06968
3.07644
3.08205
3.08732
3.09199
3.09615
3.09987
3.10322
3.10629
3.10915
3.11184
3.11443
3.11694
3.1194
3.12183
3.12424
3.12664
3.12903
3.13142
3.13381
3.13619
3.13858
3.14096
3.14334
3.14573
3.14812
3.15052
3.15293
3.15535
3.15779
3.16026
3.16275
3.16528
3.16785
3.17045
3.17309
3.17578
3.17849
3.18123
3.18399
3.18675
3.18948
3.19217
3.19478
3.19729
3.19967
3.20187
3.20386
3.20561
3.20707
3.20821
3.20901
3.20942
3.20942
3.209
3.20813
3.20683
3.20512
3.20305
3.20073
3.19831
3.19598
3.19403
3.19276
3.19252
3.19363
3.19631
3.20068
3.20666
3.21403
3.22244
3.23153
3.24103
3.25093
3.26177
3.29895
1
1
1
1
1
1
1
1
1
1
1
1
1
1
1
1
1
1
1
2.36741
3.10938
3.16613
3.21335
3.25206
3.2769
3.28494
3.27754
3.25964
3.23623
3.21127
3.18722
3.16545
3.14662
3.13101
3.11871
3.10951
3.103
3.09871
3.09618
3.09498
3.09477
3.09527
3.09627
3.09761
3.0992
3.10081
3.10256
3.10441
3.10639
3.1085
3.11074
3.1131
3.11558
3.11817
3.12085
3.12362
3.12648
3.12941
3.13241
3.13549
3.13865
3.1419
3.14525
3.14871
3.15232
3.1561
3.16009
3.16433
3.16889
3.17385
3.17929
3.18531
3.19201
3.19948
3.20781
3.21703
3.2271
3.23792
3.24927
3.26085
3.27225
3.283
3.29264
3.30071
3.30688
3.31091
3.31275
3.31245
3.31022
3.30631
3.30106
3.29477
3.28776
3.28029
3.2726
3.26489
3.25734
3.25015
3.24348
3.23755
3.23259
3.22885
3.22662
3.22618
3.22781
3.23174
3.2381
3.2468
3.25745
3.26918
3.28065
3.29013
3.29607
3.29792
3.29668
3.29463
3.29403
3.2964
3.3187
1
1
1
1
1
1
1
1
1
1
1
1
1
1
1
1
1
1
1
2.29695
3.03733
3.07
3.09103
3.10462
3.1114
3.1133
3.11296
3.11202
3.11137
3.11115
3.11114
3.11098
3.1104
3.10935
3.10789
3.10618
3.10445
3.10288
3.10163
3.10076
3.10032
3.10027
3.10059
3.10121
3.10208
3.10299
3.10416
3.1056
3.10727
3.10914
3.11119
3.11339
3.11573
3.11819
3.12074
3.12338
3.12609
3.12886
3.13169
3.13458
3.13753
3.14054
3.14361
3.14677
3.15002
3.15338
3.15687
3.16052
3.16438
3.16847
3.17285
3.17758
3.18274
3.18837
3.19456
3.20136
3.2088
3.21686
3.22548
3.23454
3.24384
3.25312
3.26206
3.27033
3.27762
3.28364
3.28819
3.29117
3.29257
3.29247
3.29101
3.28838
3.28476
3.28034
3.27531
3.26985
3.26416
3.25848
3.25311
3.24838
3.2447
3.24248
3.24211
3.24393
3.24818
3.25489
3.26382
3.27434
3.28536
3.29539
3.30284
3.30663
3.30674
3.30425
3.30073
3.29724
3.29411
3.29215
3.29717
1
1
1
1
1
1
1
1
1
1
1
1
1
1
1
1
1
1
1
2.22757
2.98541
2.99804
3.00518
3.00888
3.01087
3.01319
3.01758
3.0245
3.03338
3.0434
3.05365
3.06337
3.07207
3.07941
3.08522
3.08955
3.09265
3.09481
3.09633
3.09747
3.09843
3.09935
3.10029
3.10131
3.10242
3.10345
3.10464
3.10606
3.10766
3.10944
3.11138
3.11346
3.11565
3.11795
3.12034
3.1228
3.12533
3.1279
3.13053
3.13319
3.1359
3.13864
3.14143
3.14427
3.14717
3.15012
3.15316
3.15628
3.15951
3.16288
3.16641
3.17012
3.17407
3.17828
3.18279
3.18766
3.1929
3.19854
3.20456
3.21093
3.21757
3.22438
3.23121
3.23787
3.24417
3.24994
3.25499
3.25922
3.26255
3.26497
3.26652
3.26727
3.26731
3.26673
3.2656
3.264
3.26199
3.25966
3.25717
3.25479
3.25289
3.25195
3.25247
3.25496
3.25974
3.26689
3.27605
3.28635
3.2964
3.30452
3.30929
3.31027
3.3084
3.30548
3.30283
3.30017
3.29632
3.29185
3.28859
1
1
1
1
1
1
1
1
1
1
1
1
1
1
1
1
1
1
1
2.14033
2.92775
2.92958
2.93492
2.94205
2.95158
2.96399
2.97913
2.99613
3.01377
3.03083
3.04631
3.05956
3.07032
3.07864
3.08481
3.08922
3.09229
3.09442
3.09595
3.09712
3.09813
3.09909
3.10009
3.10116
3.10231
3.10335
3.10455
3.10594
3.1075
3.10922
3.1111
3.1131
3.11522
3.11743
3.11973
3.12209
3.1245
3.12696
3.12946
3.13199
3.13454
3.13712
3.13972
3.14235
3.14501
3.1477
3.15043
3.1532
3.15603
3.15893
3.16191
3.16499
3.16818
3.17152
3.17502
3.1787
3.18261
3.18674
3.19111
3.19572
3.20054
3.20554
3.21066
3.21582
3.22091
3.22584
3.23052
3.23485
3.23879
3.2423
3.24539
3.24807
3.2504
3.25239
3.25406
3.2554
3.25636
3.25691
3.25707
3.25693
3.25676
3.25695
3.25804
3.26061
3.26513
3.27181
3.28038
3.29002
3.29931
3.30659
3.31054
3.31097
3.30917
3.30712
3.30588
3.30431
3.30016
3.29378
3.28443
1
1
1
1
1
1
1
1
1
1
1
1
1
1
1
1
1
1
1
2.14519
2.94929
2.95434
2.9653
2.97812
2.9919
3.00614
3.02035
3.034
3.04665
3.05793
3.06759
3.07554
3.08181
3.08655
3.09
3.09243
3.09412
3.09532
3.09624
3.09704
3.09782
3.09867
3.09961
3.10067
3.10183
3.10287
3.10411
3.10551
3.10708
3.10882
3.11069
3.1127
3.11481
3.11701
3.11929
3.12163
3.12402
3.12645
3.12891
3.13139
3.13389
3.13641
3.13894
3.14148
3.14404
3.14661
3.1492
3.15181
3.15445
3.15711
3.15981
3.16256
3.16537
3.16825
3.17121
3.17427
3.17744
3.18075
3.1842
3.18779
3.19154
3.19544
3.19946
3.20358
3.20776
3.21195
3.21611
3.22019
3.22418
3.22804
3.23177
3.23539
3.2389
3.2423
3.24556
3.24861
3.25138
3.25374
3.25562
3.25701
3.25805
3.25905
3.2605
3.26297
3.26701
3.27295
3.28069
3.28954
3.29827
3.30532
3.30943
3.31041
3.3095
3.30867
3.3088
3.30834
3.30433
3.29668
3.28213
1
1
1
1
1
1
1
1
1
1
1
1
1
1
1
1
1
1
1
2.18984
2.98901
2.99448
3.00373
3.01396
3.02445
3.0349
3.0451
3.05479
3.06369
3.07157
3.07823
3.08362
3.08775
3.09077
3.09288
3.09428
3.09522
3.09589
3.09643
3.09698
3.09761
3.09835
3.09924
3.10026
3.10141
3.10246
3.10371
3.10513
3.10673
3.10848
3.11037
3.1124
3.11452
3.11674
3.11903
3.12138
3.12378
3.12621
3.12867
3.13116
3.13366
3.13617
3.13869
3.14123
3.14377
3.14632
3.14888
3.15145
3.15403
3.15663
3.15925
3.16189
3.16456
3.16726
3.17
3.17279
3.17564
3.17857
3.18158
3.18468
3.18788
3.19119
3.1946
3.19812
3.20174
3.20544
3.2092
3.21303
3.2169
3.22082
3.22478
3.22877
3.23281
3.23686
3.24087
3.24476
3.2484
3.25166
3.2544
3.25657
3.25824
3.25965
3.26121
3.26346
3.26698
3.27214
3.279
3.28706
3.29529
3.3023
3.30692
3.30884
3.30909
3.30948
3.31084
3.31148
3.30802
3.2997
3.28077
1
1
1
1
1
1
1
1
1
1
1
1
1
1
1
1
1
1
1
2.18861
2.98942
2.99727
3.0069
3.01712
3.02743
3.03763
3.04755
3.05694
3.06555
3.07312
3.07948
3.08456
3.08841
3.09117
3.09305
3.09427
3.09507
3.09563
3.0961
3.0966
3.0972
3.09794
3.09882
3.09985
3.101
3.10207
3.10333
3.10478
3.10639
3.10816
3.11008
3.11211
3.11425
3.11648
3.11879
3.12115
3.12355
3.12599
3.12846
3.13096
3.13347
3.13599
3.13852
3.14107
3.14363
3.14619
3.14877
3.15135
3.15395
3.15656
3.15918
3.16182
3.16448
3.16716
3.16986
3.1726
3.17537
3.17818
3.18104
3.18397
3.18696
3.19003
3.19318
3.19643
3.19977
3.20322
3.20678
3.21044
3.21422
3.21812
3.22214
3.22627
3.2305
3.23479
3.23907
3.24326
3.2472
3.25075
3.25377
3.25619
3.25803
3.2595
3.26095
3.2629
3.26589
3.27032
3.27635
3.28365
3.29138
3.29837
3.30351
3.30641
3.30783
3.30934
3.31176
3.31347
3.31085
3.30235
3.27997
1
1
1
1
1
1
1
1
1
1
1
1
1
1
1
1
1
1
1
2.18441
2.98739
2.99656
3.00646
3.01684
3.02729
3.03763
3.04766
3.05711
3.06571
3.07322
3.07948
3.08443
3.08814
3.09078
3.09255
3.09369
3.09443
3.09495
3.09542
3.09592
3.09654
3.0973
3.09821
3.09927
3.10045
3.10155
3.10284
3.10431
3.10595
3.10774
3.10968
3.11173
3.11388
3.11612
3.11843
3.1208
3.12321
3.12566
3.12813
3.13063
3.13315
3.13568
3.13822
3.14078
3.14335
3.14593
3.14853
3.15114
3.15377
3.15641
3.15906
3.16174
3.16444
3.16715
3.16989
3.17266
3.17546
3.17828
3.18115
3.18407
3.18704
3.19007
3.19317
3.19635
3.19963
3.20301
3.20651
3.21013
3.21388
3.21778
3.22182
3.226
3.23028
3.23462
3.23894
3.24314
3.24706
3.25058
3.25354
3.25588
3.25762
3.25893
3.26015
3.26174
3.2642
3.26798
3.27326
3.27984
3.28709
3.29401
3.29959
3.30334
3.30581
3.3083
3.31163
3.31432
3.31267
3.3044
3.27946
1
1
1
1
1
1
1
1
1
1
1
1
1
1
1
1
1
1
1
2.1812
2.98739
2.99745
3.00759
3.01806
3.02858
3.03893
3.04891
3.05825
3.06666
3.07392
3.07989
3.08455
3.08799
3.09038
3.09195
3.09295
3.09359
3.09406
3.0945
3.09501
3.09564
3.09644
3.09739
3.09848
3.09971
3.10085
3.10218
3.10368
3.10536
3.10718
3.10913
3.1112
3.11337
3.11562
3.11794
3.12031
3.12273
3.12517
3.12765
3.13015
3.13266
3.13519
3.13774
3.1403
3.14288
3.14547
3.14808
3.15071
3.15336
3.15602
3.15871
3.16142
3.16416
3.16692
3.16971
3.17254
3.17539
3.17828
3.18121
3.18419
3.18721
3.1903
3.19345
3.19668
3.2
3.20342
3.20696
3.21062
3.21442
3.21836
3.22243
3.22663
3.23092
3.23523
3.23949
3.24358
3.24736
3.25068
3.25342
3.25552
3.25701
3.25806
3.25897
3.26019
3.26218
3.26537
3.26998
3.27593
3.28271
3.28949
3.29538
3.29984
3.30318
3.3065
3.31057
3.31413
3.31352
3.30572
3.27903
1
1
1
1
1
1
1
1
1
1
1
1
1
1
1
1
1
1
1
2.17349
2.98486
2.99547
3.00582
3.01648
3.0272
3.03778
3.04795
3.05742
3.0659
3.07316
3.07906
3.08362
3.08694
3.08922
3.09071
3.09165
3.09227
3.09275
3.09322
3.09377
3.09447
3.09532
3.09634
3.0975
3.09878
3.09998
3.10136
3.10291
3.10462
3.10647
3.10845
3.11055
3.11273
3.11499
3.11731
3.11968
3.12209
3.12454
3.12701
3.1295
3.132
3.13453
3.13707
3.13963
3.1422
3.1448
3.14741
3.15004
3.1527
3.15538
3.15808
3.16082
3.16358
3.16638
3.16922
3.17209
3.175
3.17795
3.18095
3.184
3.18711
3.19028
3.19352
3.19684
3.20025
3.20376
3.20739
3.21113
3.21501
3.21902
3.22316
3.22739
3.23167
3.23594
3.24011
3.24405
3.24763
3.2507
3.25317
3.25497
3.25617
3.25691
3.25751
3.25836
3.25993
3.26261
3.26665
3.27203
3.27837
3.28498
3.29106
3.29605
3.30009
3.30409
3.30876
3.31306
3.31345
3.3063
3.2785
1
1
1
1
1
1
1
1
1
1
1
1
1
1
1
1
1
1
1
2.16772
2.98485
2.99586
3.00635
3.01707
3.02782
3.03837
3.04847
3.05779
3.06605
3.07302
3.07861
3.08286
3.08589
3.08794
3.08926
3.09009
3.09066
3.09113
3.09163
3.09225
3.09301
3.09395
3.09504
3.09628
3.09764
3.0989
3.10034
3.10195
3.10371
3.10561
3.10762
3.10974
3.11194
3.11421
3.11654
3.11891
3.12131
3.12375
3.1262
3.12868
3.13118
3.13369
3.13622
3.13877
3.14133
3.14391
3.14652
3.14915
3.1518
3.15448
3.15719
3.15994
3.16272
3.16554
3.1684
3.1713
3.17426
3.17726
3.18032
3.18343
3.18661
3.18987
3.19319
3.19661
3.20012
3.20374
3.20746
3.21132
3.21529
3.21938
3.22358
3.22785
3.23214
3.23638
3.24045
3.24425
3.24762
3.25045
3.25264
3.25415
3.25504
3.25549
3.25579
3.25632
3.25752
3.25977
3.26332
3.2682
3.27413
3.28055
3.28672
3.29209
3.29667
3.30118
3.30631
3.31122
3.31255
3.30615
3.2777
1
1
1
1
1
1
1
1
1
1
1
1
1
1
1
1
1
1
1
2.16005
2.98433
2.99577
3.00651
3.01741
3.02828
3.0389
3.04895
3.05812
3.06613
3.07277
3.07799
3.08186
3.08457
3.08635
3.08747
3.08819
3.08871
3.08919
3.08974
3.09044
3.0913
3.09233
3.09353
3.09486
3.0963
3.09765
3.09917
3.10084
3.10266
3.1046
3.10665
3.10879
3.11101
3.11329
3.11561
3.11798
3.12038
3.1228
3.12524
3.1277
3.13018
3.13267
3.13519
3.13771
3.14026
3.14283
3.14542
3.14803
3.15068
3.15335
3.15606
3.1588
3.16159
3.16441
3.16728
3.17021
3.17318
3.17622
3.17932
3.18248
3.18572
3.18904
3.19245
3.19594
3.19955
3.20326
3.20709
3.21104
3.21511
3.21929
3.22355
3.22787
3.23217
3.23637
3.24037
3.24403
3.24722
3.24983
3.25176
3.253
3.25362
3.25381
3.25384
3.25409
3.25498
3.25686
3.26
3.26446
3.27002
3.27621
3.2824
3.28802
3.29299
3.29787
3.30333
3.30872
3.31089
3.30528
3.27651
1
1
1
1
1
1
1
1
1
1
1
1
1
1
1
1
1
1
1
2.15031
2.98316
2.99492
3.00589
3.01696
3.02797
3.03865
3.04867
3.0577
3.06545
3.07177
3.07663
3.08016
3.08257
3.08414
3.08512
3.08578
3.08631
3.08685
3.0875
3.08832
3.08931
3.09048
3.0918
3.09324
3.09478
3.09623
3.09783
3.09958
3.10146
3.10345
3.10554
3.1077
3.10993
3.11222
3.11454
3.1169
3.11928
3.12169
3.12411
3.12655
3.12901
3.13148
3.13397
3.13647
3.139
3.14154
3.14411
3.14671
3.14934
3.152
3.15469
3.15743
3.1602
3.16303
3.1659
3.16883
3.17182
3.17487
3.17799
3.18119
3.18447
3.18784
3.1913
3.19487
3.19854
3.20234
3.20625
3.21029
3.21444
3.2187
3.22303
3.22739
3.2317
3.23588
3.23981
3.24336
3.24639
3.2488
3.25051
3.25152
3.2519
3.25185
3.25165
3.25168
3.2523
3.25388
3.25668
3.26077
3.266
3.27197
3.27812
3.28388
3.2891
3.29423
3.2999
3.30564
3.30854
3.30373
3.27484
1
1
1
1
1
1
1
1
1
1
1
1
1
1
1
1
1
1
1
2.14098
2.98346
2.99567
3.00694
3.0182
3.02928
3.03988
3.04966
3.05829
3.06552
3.07125
3.07552
3.07852
3.0805
3.08174
3.08253
3.08309
3.08362
3.08423
3.08499
3.08594
3.08709
3.0884
3.08986
3.09143
3.09309
3.09463
3.09633
3.09816
3.1001
3.10214
3.10427
3.10645
3.1087
3.11098
3.1133
3.11565
3.11802
3.1204
3.1228
3.12522
3.12765
3.13009
3.13255
3.13503
3.13753
3.14005
3.1426
3.14517
3.14778
3.15042
3.15309
3.15581
3.15858
3.16139
3.16426
3.16719
3.17018
3.17324
3.17637
3.17959
3.1829
3.1863
3.1898
3.19342
3.19715
3.20101
3.20499
3.2091
3.21333
3.21765
3.22204
3.22643
3.23076
3.23491
3.23878
3.24223
3.24513
3.24738
3.24889
3.24969
3.24987
3.24963
3.24924
3.24907
3.24949
3.25083
3.25334
3.25711
3.26205
3.26781
3.27386
3.27968
3.28504
3.2903
3.29607
3.30206
3.30558
3.30154
3.27263
1
1
1
1
1
1
1
1
1
1
1
1
1
1
1
1
1
1
1
2.12845
2.98254
2.99518
3.00677
3.01828
3.02949
3.04006
3.04963
3.05788
3.06461
3.06979
3.07352
3.07605
3.07766
3.07867
3.07935
3.07991
3.08052
3.08126
3.0822
3.08333
3.08466
3.08615
3.08777
3.08948
3.09125
3.0929
3.0947
3.0966
3.09861
3.1007
3.10285
3.10506
3.10731
3.10959
3.1119
3.11423
3.11657
3.11893
3.1213
3.12369
3.12609
3.1285
3.13093
3.13338
3.13585
3.13834
3.14086
3.1434
3.14599
3.1486
3.15126
3.15396
3.15671
3.15951
3.16237
3.16529
3.16827
3.17133
3.17448
3.1777
3.18103
3.18445
3.18798
3.19164
3.19541
3.19932
3.20336
3.20753
3.21181
3.21619
3.22061
3.22504
3.22937
3.2335
3.23732
3.24069
3.24347
3.24556
3.24691
3.24754
3.24755
3.24714
3.2466
3.24628
3.24652
3.24766
3.24994
3.25346
3.25813
3.26367
3.26961
3.27541
3.28081
3.2861
3.29188
3.29801
3.30204
3.29873
3.26985
1
1
1
1
1
1
1
1
1
1
1
1
1
1
1
1
1
1
1
2.11495
2.98245
2.99562
3.00758
3.01931
3.03054
3.04091
3.05006
3.0577
3.06372
3.06816
3.07122
3.0732
3.07443
3.07521
3.0758
3.0764
3.07713
3.07805
3.07919
3.08054
3.08207
3.08375
3.08553
3.08739
3.08928
3.09104
3.09293
3.09491
3.09697
3.0991
3.10128
3.10349
3.10574
3.10801
3.1103
3.11261
3.11493
3.11726
3.1196
3.12195
3.12431
3.12669
3.12909
3.1315
3.13394
3.1364
3.13888
3.1414
3.14395
3.14655
3.14918
3.15186
3.15459
3.15737
3.16021
3.16312
3.1661
3.16916
3.1723
3.17554
3.17887
3.18231
3.18587
3.18954
3.19335
3.1973
3.20138
3.20559
3.20992
3.21434
3.2188
3.22324
3.22758
3.23169
3.23546
3.23874
3.24142
3.24338
3.24459
3.24506
3.24493
3.24439
3.24372
3.24327
3.24339
3.24437
3.24646
3.24976
3.2542
3.25954
3.26533
3.27106
3.27642
3.28165
3.28736
3.29352
3.29796
3.29533
3.26648
1
1
1
1
1
1
1
1
1
1
1
1
1
1
1
1
1
1
1
2.09825
2.98163
2.9953
3.00761
3.01952
3.03071
3.0408
3.04944
3.05641
3.06169
3.06542
3.06788
3.06942
3.07039
3.07108
3.07173
3.07248
3.07343
3.07461
3.07601
3.07761
3.07938
3.08126
3.08322
3.08521
3.08722
3.08908
3.09105
3.0931
3.0952
3.09736
3.09955
3.10176
3.104
3.10626
3.10852
3.1108
3.11308
3.11537
3.11768
3.11999
3.12231
3.12465
3.12701
3.12939
3.13179
3.13421
3.13667
3.13915
3.14167
3.14424
3.14684
3.1495
3.15221
3.15497
3.1578
3.1607
3.16367
3.16672
3.16986
3.1731
3.17644
3.17989
3.18346
3.18716
3.191
3.19497
3.19909
3.20333
3.2077
3.21215
3.21663
3.22109
3.22542
3.2295
3.23322
3.23643
3.23901
3.24085
3.24193
3.24228
3.24202
3.24137
3.2406
3.24006
3.24007
3.24093
3.24287
3.24598
3.25022
3.25537
3.26099
3.2666
3.27185
3.27695
3.28251
3.28864
3.29338
3.29136
3.26252
1
1
1
1
1
1
1
1
1
1
1
1
1
1
1
1
1
1
1
2.08009
2.98174
2.99601
3.00863
3.02058
3.0315
3.04102
3.04885
3.05489
3.05924
3.06214
3.06397
3.06511
3.06588
3.06657
3.06735
3.06834
3.06957
3.07105
3.07275
3.07463
3.07663
3.07871
3.08083
3.08296
3.08507
3.08701
3.08905
3.09115
3.09329
3.09546
3.09765
3.09985
3.10207
3.1043
3.10653
3.10877
3.11101
3.11326
3.11552
3.11779
3.12008
3.12238
3.12469
3.12703
3.12939
3.13177
3.13419
3.13664
3.13913
3.14167
3.14425
3.14688
3.14956
3.15231
3.15512
3.158
3.16096
3.16401
3.16715
3.17038
3.17373
3.17719
3.18077
3.18449
3.18835
3.19235
3.19649
3.20077
3.20516
3.20963
3.21413
3.21859
3.22291
3.22697
3.23064
3.23377
3.23626
3.23799
3.23895
3.23919
3.23882
3.23807
3.23723
3.23662
3.23655
3.23732
3.23913
3.24209
3.24616
3.25111
3.25656
3.26201
3.2671
3.272
3.27734
3.28336
3.28833
3.28685
3.25798
1
1
1
1
1
1
1
1
1
1
1
1
1
1
1
1
1
1
1
2.05866
2.9818
2.9967
3.00958
3.02142
3.03186
3.04059
3.04743
3.05242
3.0558
3.05794
3.05926
3.06014
3.06088
3.06172
3.06277
3.06409
3.06568
3.0675
3.06952
3.07166
3.07389
3.07616
3.07842
3.08066
3.08284
3.08484
3.08694
3.08907
3.09122
3.09338
3.09556
3.09774
3.09993
3.10212
3.10431
3.10651
3.10871
3.11091
3.11313
3.11535
3.11759
3.11984
3.12211
3.12441
3.12672
3.12907
3.13145
3.13387
3.13632
3.13883
3.14138
3.14398
3.14664
3.14937
3.15216
3.15503
3.15798
3.16102
3.16415
3.16739
3.17074
3.17421
3.17781
3.18154
3.18542
3.18944
3.19361
3.19791
3.20232
3.20681
3.21132
3.21578
3.22008
3.22411
3.22772
3.23078
3.23317
3.23481
3.23566
3.23579
3.23533
3.23451
3.2336
3.23294
3.23281
3.23351
3.23523
3.23806
3.24197
3.24675
3.25201
3.25726
3.26214
3.26679
3.27186
3.27772
3.28282
3.28182
3.25287
1
1
1
1
1
1
1
1
1
1
1
1
1
1
1
1
1
1
1
2.03357
2.98214
2.99759
3.01051
3.02195
3.0316
3.03925
3.04491
3.04878
3.05125
3.05277
3.05377
3.05461
3.05553
3.05669
3.05814
3.05988
3.06187
3.06406
3.06638
3.06878
3.07121
3.07362
3.076
3.07831
3.08055
3.08258
3.0847
3.08683
3.08898
3.09112
3.09327
3.09542
3.09756
3.09971
3.10185
3.104
3.10615
3.10831
3.11047
3.11265
3.11483
3.11704
3.11926
3.12151
3.12379
3.12609
3.12843
3.13081
3.13324
3.1357
3.13822
3.1408
3.14344
3.14615
3.14892
3.15178
3.15472
3.15775
3.16088
3.16412
3.16748
3.17095
3.17456
3.17831
3.18221
3.18625
3.19044
3.19476
3.19919
3.20369
3.20821
3.21266
3.21694
3.22093
3.22448
3.22747
3.22977
3.23131
3.23206
3.23209
3.23155
3.23066
3.22971
3.229
3.22885
3.22949
3.23113
3.23385
3.23762
3.24223
3.2473
3.25233
3.25696
3.26131
3.26607
3.2717
3.27688
3.27629
3.24722
1
1
1
1
1
1
1
1
1
1
1
1
1
1
1
1
1
1
1
2.00413
2.98299
2.99877
3.0114
3.02203
3.03051
3.03681
3.04116
3.04395
3.04567
3.0468
3.04775
3.0488
3.0501
3.05172
3.05366
3.05586
3.05826
3.06079
3.06339
3.066
3.06858
3.07111
3.07355
3.0759
3.07815
3.08018
3.0823
3.08442
3.08654
3.08865
3.09076
3.09286
3.09495
3.09705
3.09914
3.10123
3.10333
3.10543
3.10754
3.10967
3.1118
3.11396
3.11614
3.11834
3.12057
3.12283
3.12513
3.12747
3.12986
3.1323
3.13479
3.13734
3.13995
3.14264
3.1454
3.14824
3.15117
3.1542
3.15733
3.16057
3.16393
3.16742
3.17104
3.1748
3.17871
3.18278
3.18698
3.19132
3.19577
3.20028
3.2048
3.20924
3.21349
3.21744
3.22093
3.22384
3.22605
3.22749
3.22815
3.22809
3.22748
3.22653
3.22554
3.22481
3.22463
3.22524
3.22683
3.22945
3.23309
3.23753
3.2424
3.24719
3.25153
3.25555
3.25996
3.26533
3.27051
3.27026
3.24102
1
1
1
1
1
1
1
1
1
1
1
1
1
1
1
1
1
1
1
1.96896
2.98436
3.00003
3.01188
3.02122
3.02816
3.03295
3.03603
3.03794
3.03922
3.04031
3.04152
3.04301
3.04487
3.04705
3.04951
3.05217
3.05495
3.05777
3.06057
3.06333
3.066
3.06858
3.07104
3.07339
3.07562
3.07762
3.07971
3.0818
3.08387
3.08594
3.08799
3.09004
3.09208
3.09412
3.09616
3.09819
3.10023
3.10228
3.10434
3.10641
3.10849
3.1106
3.11272
3.11488
3.11706
3.11928
3.12154
3.12385
3.1262
3.1286
3.13106
3.13359
3.13618
3.13884
3.14159
3.14442
3.14734
3.15036
3.15349
3.15673
3.1601
3.1636
3.16723
3.17101
3.17494
3.17902
3.18325
3.18761
3.19206
3.19658
3.2011
3.20552
3.20974
3.21364
3.21707
3.2199
3.22202
3.22336
3.22392
3.22378
3.2231
3.22211
3.2211
3.22035
3.22016
3.22075
3.22229
3.22484
3.22835
3.23263
3.23729
3.24182
3.24585
3.2495
3.25352
3.25859
3.26372
3.26377
3.23431
1
1
1
1
1
1
1
1
1
1
1
1
1
1
1
1
1
1
1
1.92619
2.98622
3.00103
3.01141
3.01898
3.02416
3.02749
3.02958
3.03101
3.03227
3.0337
3.03546
3.0376
3.0401
3.04288
3.04583
3.04888
3.05194
3.05495
3.05788
3.06071
3.06341
3.06597
3.06841
3.07072
3.07291
3.07485
3.0769
3.07894
3.08096
3.08297
3.08496
3.08695
3.08894
3.09091
3.09289
3.09487
3.09685
3.09884
3.10084
3.10286
3.10489
3.10694
3.10902
3.11113
3.11327
3.11545
3.11767
3.11993
3.12224
3.12462
3.12705
3.12954
3.13211
3.13476
3.13749
3.14031
3.14322
3.14624
3.14937
3.15261
3.15599
3.15949
3.16314
3.16694
3.17089
3.17499
3.17923
3.1836
3.18807
3.19259
3.1971
3.2015
3.20569
3.20953
3.21289
3.21564
3.21766
3.21891
3.21938
3.21916
3.21842
3.2174
3.21637
3.21562
3.21542
3.216
3.2175
3.21998
3.22339
3.2275
3.23194
3.2362
3.23989
3.24315
3.24676
3.2515
3.25654
3.25681
3.22711
1
1
1
1
1
1
1
1
1
1
1
1
1
1
1
1
1
1
1
1.87307
2.98831
3.0012
3.00944
3.01491
3.01839
3.02059
3.02219
3.02366
3.02537
3.02746
3.02998
3.03286
3.03601
3.03929
3.04263
3.04594
3.04917
3.05227
3.05523
3.05805
3.06071
3.06323
3.0656
3.06785
3.06996
3.07184
3.07383
3.07581
3.07777
3.07972
3.08165
3.08358
3.0855
3.08742
3.08934
3.09126
3.09318
3.09512
3.09706
3.09902
3.101
3.103
3.10503
3.10709
3.10919
3.11132
3.1135
3.11572
3.118
3.12034
3.12274
3.12522
3.12776
3.13039
3.1331
3.13591
3.13882
3.14183
3.14496
3.14821
3.15159
3.15511
3.15878
3.16259
3.16656
3.17068
3.17494
3.17932
3.1838
3.18831
3.19281
3.19718
3.20133
3.20511
3.2084
3.21106
3.21299
3.21414
3.21452
3.21423
3.21344
3.21239
3.21134
3.2106
3.21041
3.21098
3.21246
3.21488
3.21817
3.22213
3.22634
3.23031
3.23364
3.23649
3.23967
3.24406
3.24896
3.2494
3.21942
1
1
1
1
1
1
1
1
1
1
1
1
1
1
1
1
1
1
1
1.80593
2.99005
2.99981
3.00542
3.00887
3.01108
3.01279
3.01452
3.01658
3.0191
3.02207
3.0254
3.02896
3.03261
3.03626
3.03981
3.04324
3.0465
3.04959
3.05251
3.05525
3.05784
3.06027
3.06256
3.06472
3.06676
3.06855
3.07048
3.0724
3.0743
3.07618
3.07806
3.07993
3.08179
3.08365
3.0855
3.08736
3.08923
3.09111
3.093
3.0949
3.09683
3.09878
3.10076
3.10277
3.10482
3.10691
3.10905
3.11124
3.11348
3.11579
3.11816
3.12061
3.12313
3.12574
3.12844
3.13124
3.13414
3.13715
3.14028
3.14354
3.14693
3.15046
3.15414
3.15797
3.16195
3.16608
3.17036
3.17475
3.17923
3.18374
3.18822
3.19257
3.19666
3.20039
3.20359
3.20616
3.208
3.20906
3.20935
3.20899
3.20815
3.20707
3.20602
3.20529
3.20511
3.20569
3.20714
3.2095
3.21269
3.21649
3.22047
3.22413
3.22709
3.22951
3.23225
3.23626
3.24098
3.24155
3.21126
1
1
1
1
1
1
1
1
1
1
1
1
1
1
1
1
1
1
1
1.72076
2.99064
2.99629
2.99927
3.00124
3.00297
3.00494
3.00741
3.01044
3.01395
3.01779
3.02179
3.02582
3.02977
3.03356
3.03717
3.04057
3.04378
3.04678
3.0496
3.05224
3.05472
3.05705
3.05925
3.06132
3.06327
3.06498
3.06686
3.06871
3.07055
3.07237
3.07419
3.076
3.0778
3.0796
3.0814
3.0832
3.08501
3.08683
3.08866
3.09052
3.09239
3.09429
3.09622
3.09818
3.10019
3.10223
3.10433
3.10648
3.10869
3.11096
3.11331
3.11573
3.11823
3.12082
3.1235
3.12629
3.12918
3.13219
3.13532
3.13859
3.14199
3.14553
3.14922
3.15307
3.15707
3.16121
3.1655
3.1699
3.17438
3.17889
3.18334
3.18765
3.19169
3.19535
3.19847
3.20095
3.20269
3.20365
3.20386
3.20343
3.20255
3.20145
3.20041
3.19968
3.19953
3.20011
3.20154
3.20385
3.20693
3.21056
3.21431
3.21766
3.22022
3.2222
3.22448
3.2281
3.23263
3.23328
3.20265
1
1
1
1
1
1
1
1
1
1
1
1
1
1
1
1
1
1
1
1.61463
2.98928
2.99065
2.99165
2.99306
2.99517
2.99806
3.00163
3.00572
3.0101
3.01456
3.01895
3.02318
3.02718
3.03095
3.03448
3.03777
3.04085
3.04374
3.04644
3.04897
3.05134
3.05357
3.05567
3.05765
3.05952
3.06115
3.06297
3.06476
3.06654
3.06831
3.07006
3.07181
3.07355
3.07529
3.07703
3.07878
3.08053
3.0823
3.08408
3.08587
3.08769
3.08954
3.09142
3.09334
3.0953
3.0973
3.09935
3.10147
3.10364
3.10588
3.10819
3.11059
3.11307
3.11564
3.11831
3.12108
3.12397
3.12698
3.13011
3.13338
3.13678
3.14033
3.14404
3.1479
3.15191
3.15607
3.16037
3.16477
3.16925
3.17373
3.17816
3.18243
3.18641
3.18999
3.19303
3.19541
3.19705
3.19792
3.19805
3.19756
3.19664
3.19552
3.19449
3.19378
3.19364
3.19423
3.19565
3.1979
3.20089
3.20435
3.20785
3.21087
3.21303
3.21455
3.21637
3.21959
3.22389
3.22458
3.19359
1
1
1
1
1
1
1
1
1
1
1
1
1
1
1
1
1
1
1
1.48804
2.9854
2.98347
2.98365
2.98551
2.98869
2.9928
2.99747
3.00238
3.00727
3.012
3.01646
3.02065
3.02455
3.02819
3.03158
3.03474
3.03769
3.04045
3.04303
3.04545
3.04772
3.04985
3.05186
3.05375
3.05554
3.0571
3.05885
3.06059
3.06231
3.06401
3.06571
3.0674
3.06908
3.07076
3.07245
3.07413
3.07583
3.07753
3.07926
3.081
3.08277
3.08456
3.08639
3.08826
3.09017
3.09213
3.09414
3.09621
3.09835
3.10056
3.10284
3.10521
3.10767
3.11022
3.11287
3.11563
3.11851
3.12151
3.12464
3.12791
3.13132
3.13489
3.1386
3.14247
3.14649
3.15066
3.15496
3.15936
3.16383
3.16829
3.17268
3.1769
3.18082
3.18432
3.18727
3.18955
3.19109
3.19186
3.19191
3.19137
3.19041
3.18929
3.18826
3.18758
3.18747
3.18806
3.18946
3.19166
3.19454
3.19782
3.20108
3.20376
3.20551
3.20657
3.20792
3.21073
3.21477
3.21547
3.18411
1
1
1
1
1
1
1
1
1
1
1
1
1
1
1
1
1
1
1
1.34833
2.97901
2.97589
2.97651
2.97959
2.98407
2.98925
2.99463
2.9999
3.0049
3.00957
3.01392
3.01795
3.02171
3.0252
3.02846
3.03149
3.03433
3.03697
3.03944
3.04176
3.04392
3.04596
3.04787
3.04967
3.05137
3.05285
3.05454
3.05622
3.05788
3.05952
3.06116
3.06279
3.06441
3.06603
3.06765
3.06928
3.07092
3.07257
3.07423
3.07592
3.07764
3.07938
3.08116
3.08297
3.08484
3.08675
3.08872
3.09075
3.09285
3.09502
3.09727
3.09961
3.10204
3.10457
3.1072
3.10995
3.11282
3.11581
3.11894
3.12221
3.12562
3.12919
3.13291
3.13679
3.14081
3.14499
3.14928
3.15368
3.15812
3.16256
3.16691
3.17107
3.17492
3.17834
3.18119
3.18337
3.1848
3.18548
3.18546
3.18486
3.18387
3.18275
3.18174
3.18108
3.18099
3.18159
3.18298
3.18511
3.18788
3.19099
3.19398
3.19632
3.19765
3.19824
3.19911
3.20151
3.20529
3.20595
3.17421
1
1
1
1
1
1
1
1
1
1
1
1
1
1
1
1
1
1
1
1.20941
2.96994
2.96874
2.97091
2.97546
2.98101
2.98678
2.99235
2.99758
3.00245
3.00697
3.01116
3.01506
3.01869
3.02207
3.0252
3.02812
3.03084
3.03336
3.03572
3.03793
3.03998
3.04191
3.04373
3.04543
3.04704
3.04844
3.05007
3.05168
3.05328
3.05487
3.05644
3.05801
3.05957
3.06113
3.0627
3.06426
3.06584
3.06743
3.06904
3.07067
3.07233
3.07402
3.07575
3.07751
3.07933
3.08119
3.08312
3.0851
3.08716
3.08929
3.09151
3.09382
3.09622
3.09872
3.10133
3.10406
3.10691
3.1099
3.11302
3.11628
3.11969
3.12326
3.12698
3.13086
3.13488
3.13905
3.14334
3.14772
3.15214
3.15654
3.16084
3.16494
3.16871
3.17203
3.17478
3.17686
3.17819
3.17878
3.17868
3.17803
3.17703
3.1759
3.17491
3.17428
3.17421
3.17482
3.17618
3.17826
3.18091
3.18383
3.18656
3.18854
3.18944
3.18955
3.18996
3.19194
3.19543
3.19603
3.16391
1
1
1
1
1
1
1
1
1
1
1
1
1
1
1
1
1
1
1
1.0895
2.95722
2.96193
2.96656
2.97254
2.97865
2.98448
2.98996
2.99506
2.99981
3.00423
3.00832
3.01211
3.01562
3.01887
3.02188
3.02467
3.02726
3.02966
3.0319
3.03399
3.03593
3.03776
3.03947
3.04108
3.0426
3.0439
3.04547
3.04702
3.04856
3.05008
3.0516
3.0531
3.05461
3.05611
3.05761
3.05912
3.06064
3.06217
3.06372
3.0653
3.0669
3.06853
3.0702
3.07191
3.07367
3.07549
3.07736
3.0793
3.08131
3.0834
3.08558
3.08785
3.09022
3.09269
3.09527
3.09798
3.10081
3.10378
3.10688
3.11014
3.11354
3.1171
3.12081
3.12468
3.12871
3.13286
3.13714
3.14149
3.14588
3.15024
3.15448
3.1585
3.16219
3.16541
3.16806
3.17003
3.17126
3.17176
3.17159
3.1709
3.16987
3.16875
3.16778
3.16717
3.16712
3.16774
3.16908
3.17109
3.17362
3.17635
3.1788
3.18042
3.18088
3.18052
3.18045
3.18201
3.1852
3.18572
3.1532
1
1
1
1
1
1
1
1
1
1
1
1
1
1
1
1
1
1
1
1.00703
2.93851
2.9573
2.96371
2.97
2.97611
2.98194
2.98741
2.99249
2.99719
3.00151
3.00548
3.00914
3.01252
3.01563
3.0185
3.02115
3.02361
3.02588
3.028
3.02997
3.0318
3.03352
3.03513
3.03664
3.03807
3.03928
3.04079
3.04228
3.04376
3.04522
3.04668
3.04812
3.04956
3.051
3.05245
3.05389
3.05535
3.05682
3.05831
3.05983
3.06137
3.06294
3.06455
3.0662
3.0679
3.06966
3.07148
3.07337
3.07533
3.07737
3.0795
3.08173
3.08405
3.08649
3.08904
3.09172
3.09452
3.09746
3.10055
3.10378
3.10717
3.11072
3.11442
3.11828
3.12228
3.12642
3.13067
3.13499
3.13934
3.14364
3.14782
3.15176
3.15535
3.15848
3.16102
3.16288
3.16401
3.16442
3.16419
3.16346
3.16242
3.1613
3.16035
3.15977
3.15974
3.16036
3.16167
3.1636
3.166
3.16853
3.1707
3.17195
3.17198
3.17113
3.17059
3.17173
3.17461
3.17502
3.14211
1
1
1
1
1
1
1
1
1
1
1
1
1
1
1
1
1
1
1
1.00078
2.91211
2.95309
2.96022
2.96698
2.97341
2.97941
2.98494
2.98999
2.9946
2.9988
3.00264
3.00616
3.00938
3.01235
3.01508
3.0176
3.01993
3.02208
3.02407
3.02593
3.02766
3.02927
3.03078
3.03219
3.03353
3.03463
3.03608
3.03751
3.03893
3.04033
3.04172
3.0431
3.04448
3.04586
3.04723
3.04861
3.05001
3.05141
3.05283
3.05428
3.05575
3.05725
3.0588
3.06039
3.06202
3.06372
3.06548
3.06731
3.06921
3.0712
3.07328
3.07545
3.07773
3.08013
3.08264
3.08528
3.08805
3.09096
3.09402
3.09723
3.1006
3.10412
3.1078
3.11164
3.11562
3.11973
3.12395
3.12823
3.13252
3.13676
3.14086
3.14472
3.14821
3.15123
3.15366
3.15541
3.15644
3.15677
3.15648
3.15571
3.15466
3.15355
3.15262
3.15207
3.15206
3.15267
3.15394
3.1558
3.15806
3.16038
3.16226
3.16313
3.16271
3.16139
3.16038
3.1611
3.16366
3.16394
3.13063
1
1
1
1
1
1
1
1
1
1
1
1
1
1
1
1
1
1
1
1.00008
2.87604
2.94867
2.95665
2.96402
2.97082
2.977
2.98256
2.98756
2.99206
2.99613
2.99982
3.00319
3.00628
3.0091
3.0117
3.01409
3.01629
3.01832
3.0202
3.02194
3.02355
3.02506
3.02646
3.02778
3.02901
3.03
3.03138
3.03274
3.03409
3.03542
3.03673
3.03804
3.03934
3.04064
3.04194
3.04324
3.04456
3.04588
3.04723
3.04859
3.04999
3.05142
3.05289
3.05441
3.05598
3.05761
3.0593
3.06107
3.06291
3.06485
3.06687
3.069
3.07123
3.07358
3.07605
3.07864
3.08138
3.08426
3.08729
3.09047
3.09381
3.0973
3.10096
3.10476
3.10871
3.11279
3.11696
3.12119
3.12543
3.1296
3.13361
3.13737
3.14077
3.14367
3.14599
3.14763
3.14857
3.14882
3.14847
3.14767
3.14661
3.14551
3.14461
3.14408
3.14408
3.14468
3.14591
3.14767
3.14979
3.15189
3.15347
3.15396
3.15309
3.15129
3.14982
3.15011
3.15235
3.15248
3.11877
1
1
1
1
1
1
1
1
1
1
1
1
1
1
1
1
1
1
1
1.00001
2.83324
2.94452
2.95332
2.96131
2.96848
2.97481
2.98037
2.98528
2.98965
2.99358
2.99712
3.00034
3.00328
3.00596
3.00842
3.01067
3.01274
3.01463
3.01638
3.01798
3.01947
3.02084
3.02211