/*--------------------------------*- C++ -*----------------------------------*\
| =========                 |                                                 |
| \\      /  F ield         | OpenFOAM: The Open Source CFD Toolbox           |
|  \\    /   O peration     | Version:  2.2.x                                 |
|   \\  /    A nd           | Web:      www.OpenFOAM.org                      |
|    \\/     M anipulation  |                                                 |
\*---------------------------------------------------------------------------*/
FoamFile
{
    version     2.0;
    format      ascii;
    class       volScalarField;
    location    "0.5";
    object      By;
}
// * * * * * * * * * * * * * * * * * * * * * * * * * * * * * * * * * * * * * //

dimensions      [1 0 -2 0 0 -1 0];

internalField   nonuniform List<scalar> 
14161
(
-0.0132713
-0.00273998
-0.000380599
0.000155468
0.000102671
-9.36638e-05
-7.90545e-05
-9.68756e-06
0.000112638
0.000235842
0.00026224
0.000219711
0.000141672
7.26987e-05
5.37757e-06
-1.76542e-07
7.99383e-05
0.000201017
0.000392049
0.000690655
0.000863798
0.000996204
0.000903281
0.000745954
0.000425467
0.000131941
-0.000153355
-0.000608665
-0.000874235
-0.000963977
-0.000986369
-0.00078896
-0.0004686
-5.92288e-05
6.20612e-05
0.000167438
0.000229878
0.000455397
0.000685204
0.000658379
0.000735523
0.000858998
0.000760202
0.00078854
0.00093878
0.000930681
0.000830241
0.000644805
0.000445269
0.000476041
0.000759317
0.0018943
0.00248958
0.0053501
0.0164435
0.128982
0.148258
0.0369541
-0.0724183
-0.122195
-0.1082
-0.0641952
-0.0264397
-0.0192834
-0.0105051
-0.0116779
-0.0104513
-0.00706789
-0.00243319
-0.00184099
-0.00602103
-0.0108606
-0.0114077
-0.0108067
-0.00594062
0.00546738
0.0193893
0.0398633
0.0532314
0.0490225
0.0294252
0.0171252
0.0105934
0.0174928
0.0254716
0.0336639
0.0294579
0.0175126
0.0200649
0.0234346
0.0237783
0.0233076
0.0252434
0.0286694
0.0296992
0.0285091
0.0259908
0.0252681
0.025783
0.0259315
0.0260495
0.0244954
0.0240016
0.023555
0.0213266
0.0199759
0.0179481
0.0175679
0.0164046
0.016132
0.0146216
0.0164074
0.0163037
0.0181234
0.0149132
0.0160226
0.0157877
0.00570376
0.0135743
0.0145007
0.00235805
-0.000178728
-0.000360451
-0.000112719
0.000105055
8.66965e-05
1.60658e-05
-0.000129254
-0.000276939
-0.000289254
-0.000200708
-0.000143425
-7.541e-05
2.37726e-05
-4.44397e-06
-8.35245e-05
-0.000210578
-0.000420445
-0.000722413
-0.000895406
-0.000981758
-0.000951586
-0.000802467
-0.000477927
-0.000184806
0.000266622
0.000798203
0.0010415
0.00103748
0.00113014
0.000957742
0.000666415
0.000375887
4.9615e-05
-0.000469961
-0.000655581
-0.00071461
-0.000764916
-0.000682135
-0.00051577
-0.000632739
-0.00105163
-0.00104462
-0.000857245
-0.000591604
-0.00035421
-2.84298e-05
0.000445134
0.000661272
0.00130155
0.00191238
0.00271285
0.0052581
0.0436579
0.239015
0.260037
0.00758
-0.0955802
-0.156916
-0.148988
-0.134647
-0.128079
-0.120762
-0.0923361
-0.0795009
-0.0564819
-0.0411215
-0.0306917
-0.0282192
-0.0258346
-0.020995
-0.016041
-0.0108297
-0.00424363
0.00664166
0.0258061
0.052964
0.0685358
0.0680502
0.054049
0.0366008
0.0264463
0.0270459
0.0358119
0.0414545
0.0485902
0.0505366
0.0539709
0.0471357
0.0427641
0.0393193
0.0356757
0.0353619
0.034829
0.0350835
0.03564
0.0346112
0.0346121
0.0343366
0.032569
0.0326462
0.0343432
0.0349676
0.0344487
0.0348893
0.0344716
0.0359873
0.0354786
0.0390567
0.0347581
0.0388884
0.0349982
0.0427617
0.0346767
0.0409342
0.040924
0.0286121
0.0485076
-0.0129879
-0.00234006
-0.000160537
9.73724e-05
2.67925e-05
-0.000142894
-0.000133528
-7.94738e-05
6.90833e-05
0.00016915
0.000252633
0.000190228
0.000118501
5.58324e-05
3.09751e-05
9.80112e-06
0.000101407
0.000190256
0.000347628
0.000591378
0.000864866
0.000804927
0.000716753
0.000640027
0.000474383
0.000257884
-0.000116786
-0.000357756
-0.000576531
-0.00076476
-0.00076113
-0.000668319
-0.000411699
-0.000210388
8.9296e-06
0.000230614
0.000358487
0.000529994
0.000739049
0.000829126
0.000854157
0.000885344
0.000935045
0.000811324
0.000721802
0.000679467
0.000653877
0.000772062
0.000843539
0.00141311
0.00174425
0.0032541
0.00567788
0.0135967
0.0690132
0.356469
0.357336
0.053941
-0.19418
-0.243609
-0.228982
-0.184382
-0.15437
-0.132089
-0.10568
-0.0924824
-0.0676533
-0.0524994
-0.036377
-0.0263738
-0.0212601
-0.0168965
-0.011139
-0.00163941
0.014155
0.0384665
0.0651302
0.110719
0.136779
0.147337
0.133633
0.0935331
0.0646453
0.0527093
0.0631723
0.0712136
0.0847249
0.0968599
0.104004
0.0948177
0.0920777
0.0892531
0.0863266
0.0847002
0.0823118
0.0796771
0.0810107
0.0784732
0.0789098
0.07595
0.0721263
0.0701676
0.071956
0.07021
0.0682031
0.067116
0.0659296
0.0658458
0.0642604
0.0671623
0.0626022
0.0663728
0.0637204
0.0702832
0.0667181
0.0726203
0.0746502
0.0542055
0.0816539
0.0125084
0.00267063
2.08692e-05
-0.000330477
-9.6594e-05
8.83397e-05
7.56749e-05
3.25266e-05
-7.72472e-05
-0.00014284
-0.000191463
-0.000154115
-0.000114
-7.58834e-05
-6.27226e-05
-6.25625e-05
-8.76841e-05
-0.000151679
-0.000288335
-0.000443249
-0.000723424
-0.000744461
-0.000825611
-0.000794594
-0.000630592
-0.000417368
-8.16899e-05
0.000247125
0.000490953
0.000705123
0.000747267
0.000789442
0.000640533
0.000448867
0.0002487
-3.77556e-05
-0.000231102
-0.000332364
-0.000371023
-0.000345162
-0.000368248
-0.000352387
-0.000462598
-0.0003881
-0.000411401
-0.000511319
-0.000436753
-0.000220852
0.000105935
0.000442654
0.000607173
0.00175115
0.00217262
0.00800522
0.0422518
0.295203
0.449117
-0.00785107
-0.231017
-0.271567
-0.274482
-0.249838
-0.217247
-0.180817
-0.141848
-0.114894
-0.0853556
-0.0636739
-0.0465325
-0.0347365
-0.027978
-0.0222642
-0.0159322
-0.00375922
0.0124569
0.0328428
0.067503
0.107467
0.144863
0.151941
0.147422
0.130348
0.0997432
0.0815762
0.0943155
0.109435
0.119502
0.134577
0.136851
0.132151
0.124503
0.116926
0.111715
0.109494
0.10528
0.10307
0.104979
0.103359
0.102734
0.0980927
0.0909995
0.0892602
0.0912032
0.0893483
0.0869935
0.0862911
0.0854803
0.0859276
0.0836578
0.0882108
0.0828975
0.0897655
0.0845543
0.095242
0.0888662
0.101461
0.0989202
0.0808257
0.117296
-0.0104048
-0.00202121
-0.000255757
-0.000108675
-0.000149651
-0.000203604
-0.000138511
-5.38988e-05
3.15922e-05
6.66784e-05
0.000159893
0.000110378
0.00011126
0.000121099
9.25581e-05
7.21411e-05
0.000122961
0.000155382
0.000279032
0.00032955
0.000551801
0.000611498
0.00065099
0.000602417
0.00055634
0.000477818
0.000346365
0.000204335
3.42525e-05
-0.000108124
-0.000145044
-0.000205748
-0.000216376
-0.000139091
-0.00010268
-8.38733e-06
9.18723e-05
0.00030158
0.000419385
0.0005251
0.000588209
0.000751615
0.000807482
0.000746978
0.00080096
0.000692263
0.000630557
0.000687812
0.000416308
0.000761381
0.000360445
-0.000102596
-0.00237704
-0.00196352
0.0071404
0.175309
0.291099
-0.011692
-0.209711
-0.262728
-0.258921
-0.24351
-0.217304
-0.181772
-0.146464
-0.120161
-0.0929112
-0.0737609
-0.0537052
-0.0397081
-0.0244055
-0.0148838
-0.00594655
0.00610676
0.0207414
0.0438662
0.0777335
0.120467
0.164402
0.192124
0.205438
0.199283
0.17837
0.147541
0.151068
0.154854
0.159949
0.170838
0.172884
0.169027
0.161418
0.153408
0.148383
0.147094
0.141338
0.137824
0.13957
0.138665
0.137078
0.131447
0.122874
0.120881
0.12229
0.11815
0.113869
0.111459
0.109945
0.109735
0.107398
0.111354
0.10771
0.114017
0.109435
0.118892
0.114475
0.126986
0.127473
0.114508
0.15933
0.00872048
0.0028331
0.000393803
-0.000137954
-0.00013553
-2.86291e-05
6.97413e-07
-1.5575e-05
-4.73985e-05
-5.7185e-05
-8.79972e-05
-0.000146938
-0.000139674
-0.00012612
-0.000212957
-0.000180156
-0.000156198
-0.000181554
-0.000186746
-0.000283511
-0.00037145
-0.000515942
-0.000563658
-0.000657012
-0.000701426
-0.000652959
-0.000522395
-0.000442963
-0.000207595
-3.92809e-05
6.85672e-05
0.000207189
0.000330709
0.000317473
0.000322552
0.000165631
0.000182433
0.000134301
0.00011264
-4.27676e-06
0.000136259
2.23958e-05
7.89044e-05
-3.60894e-05
8.85037e-06
-0.000221289
-0.000265443
-0.000127381
-0.00022189
-0.000447407
-0.000743744
-0.00118601
-0.00218145
-0.00341031
0.00094062
0.0382685
0.0878409
-0.0535507
-0.212713
-0.262537
-0.263121
-0.250565
-0.224523
-0.184874
-0.145504
-0.123145
-0.0973616
-0.0784295
-0.0607691
-0.0446797
-0.0294887
-0.0190019
-0.00860283
0.00291508
0.0195991
0.0440204
0.0769367
0.121049
0.164896
0.21348
0.238251
0.266613
0.262377
0.236164
0.225055
0.222428
0.22291
0.230312
0.231178
0.225232
0.216742
0.205283
0.195799
0.19159
0.184079
0.178617
0.179261
0.17656
0.174224
0.166361
0.156072
0.153977
0.153774
0.148541
0.142321
0.139288
0.136177
0.134826
0.131936
0.13495
0.132175
0.137422
0.133763
0.141636
0.140437
0.153825
0.157097
0.149916
0.196734
-0.00591557
-0.00156708
-0.000382624
-0.000313603
-0.000258639
-0.000181175
-6.18198e-05
1.34669e-05
3.75609e-05
5.99552e-05
8.5143e-05
0.000134657
0.000187899
0.000214984
0.000194841
0.000176364
0.000183201
0.00021694
0.000206103
0.0002377
0.000291727
0.000377491
0.000477783
0.000466293
0.000513361
0.00063011
0.000690843
0.000767041
0.000678506
0.00053813
0.000494925
0.000260841
0.000222409
6.39397e-05
3.40835e-05
-1.68644e-05
-7.26941e-05
2.52353e-05
7.19338e-05
0.000224317
0.000212713
0.000433612
0.000421208
0.000519091
0.000358707
0.000472118
0.000416449
0.000329589
0.00027258
0.00021919
-0.000276514
-0.000791254
-0.00158126
-0.00207855
-0.00264549
-0.0123531
-0.0521105
-0.194539
-0.26265
-0.29051
-0.293427
-0.279681
-0.253338
-0.212823
-0.171129
-0.139774
-0.106561
-0.0795475
-0.0576162
-0.0412247
-0.0272498
-0.0173937
-0.0051408
0.00653609
0.0250927
0.055276
0.0925481
0.137844
0.19029
0.257689
0.301779
0.338946
0.331102
0.300885
0.276704
0.259895
0.252992
0.25751
0.256645
0.250058
0.241841
0.230803
0.222712
0.217195
0.206863
0.19992
0.199191
0.196084
0.193285
0.184505
0.174999
0.174251
0.173851
0.168397
0.162057
0.159024
0.156201
0.155053
0.152363
0.155243
0.153024
0.158699
0.154972
0.163605
0.163817
0.179762
0.183525
0.184709
0.231368
0.003461
0.00242332
0.000537111
2.1133e-05
-0.000122595
-0.000225789
-0.000140325
-0.000109256
-7.98683e-05
-7.87867e-05
-9.94778e-05
-0.00016357
-0.000208962
-0.000221996
-0.00026582
-0.000268311
-0.000238265
-0.000195855
-0.000163694
-8.12076e-05
-9.47411e-05
-0.000139311
-0.000210058
-0.000431712
-0.000541525
-0.000567542
-0.000657338
-0.00077666
-0.000783126
-0.000689323
-0.000552094
-0.000402846
-0.000139434
6.49294e-05
0.000189839
0.000232933
0.000384963
0.000299015
0.000470327
0.000344654
0.000561827
0.00043588
0.00080279
0.000697018
0.000967017
0.00076001
0.000674387
0.000794424
0.000796428
0.00124536
0.00158042
0.00200805
0.00238934
0.00440341
0.00129767
-0.0304585
-0.209924
-0.318886
-0.326271
-0.313639
-0.317503
-0.303835
-0.271977
-0.226537
-0.180572
-0.146755
-0.112662
-0.0852148
-0.0604107
-0.0401979
-0.0270164
-0.0177699
-0.00824115
0.00676431
0.0262075
0.0581675
0.1041
0.15351
0.220095
0.313042
0.394471
0.431237
0.431117
0.400371
0.361442
0.339455
0.332869
0.330581
0.324143
0.312727
0.303425
0.289481
0.279817
0.269732
0.255909
0.247472
0.245498
0.239489
0.232184
0.220141
0.208636
0.206946
0.204247
0.195957
0.188202
0.183591
0.180061
0.177738
0.17466
0.176203
0.174502
0.179396
0.177131
0.185023
0.187098
0.203996
0.210545
0.221697
0.266316
5.03887e-06
-0.000793951
-0.000412774
-0.000489434
-0.000298787
-0.000166485
-6.32191e-05
2.16484e-05
4.44146e-05
5.45915e-05
7.18533e-05
0.000124965
0.000202992
0.000238196
0.000228116
0.000223165
0.000207896
0.000192809
0.000146838
9.10807e-05
1.87316e-05
4.26281e-05
7.48747e-05
0.000186269
0.00022856
0.000437934
0.000627419
0.000830244
0.000789404
0.000836989
0.00074874
0.000715297
0.000443316
0.000408796
8.50344e-05
5.25821e-05
6.0542e-05
2.38463e-05
-2.45304e-05
-3.08014e-05
-2.54821e-05
0.000203398
0.000149265
0.00029108
8.35082e-05
0.000232112
0.000448849
0.000320878
0.00069421
0.000203886
0.00058894
0.00052311
0.00125651
-0.000118692
-0.00901546
-0.0896302
-0.43535
-0.445107
-0.400441
-0.349739
-0.341541
-0.323409
-0.28879
-0.246066
-0.194762
-0.142744
-0.109246
-0.08242
-0.0562368
-0.0420117
-0.0282442
-0.0182511
-0.00537359
0.0106005
0.0371231
0.0756168
0.125813
0.200244
0.290075
0.394222
0.471075
0.517549
0.51395
0.480478
0.438345
0.408119
0.38969
0.374033
0.357587
0.342574
0.335294
0.322721
0.311128
0.297643
0.280229
0.271802
0.267755
0.259983
0.25081
0.238377
0.228507
0.227968
0.224425
0.215308
0.207671
0.203304
0.200238
0.197929
0.194314
0.194849
0.19279
0.197475
0.196839
0.205911
0.209449
0.229511
0.236206
0.254918
0.294677
-0.00219277
0.00121885
0.000730101
0.000263833
-3.66724e-05
-0.000216853
-0.000145142
-0.000110311
-6.87605e-05
-5.30306e-05
-7.03744e-05
-0.000122901
-0.000156385
-0.000189478
-0.000177854
-0.000148778
-0.000111806
-3.53365e-05
4.50913e-05
0.000168292
0.000244692
0.000263723
6.98648e-05
1.36073e-06
-0.000135694
-0.000213449
-0.000430602
-0.000587768
-0.00072808
-0.000723108
-0.000659136
-0.000568599
-0.000428542
-0.000199285
2.6175e-05
0.000230335
0.000543578
0.000651533
0.000701769
0.000571102
0.000767202
0.000679142
0.000971216
0.00105005
0.00131658
0.00111171
0.000878826
0.000535403
0.000365803
0.000199494
0.000455945
0.000334545
0.000191996
-0.00188185
-0.0164926
-0.154714
-0.613246
-0.57323
-0.483069
-0.410254
-0.403194
-0.359979
-0.315023
-0.263493
-0.210261
-0.154275
-0.113296
-0.0833156
-0.0590865
-0.0413845
-0.0311129
-0.0186575
-0.00582246
0.0122629
0.0471207
0.112817
0.183396
0.320453
0.431724
0.528662
0.580073
0.605572
0.593472
0.552309
0.512425
0.479444
0.458576
0.435301
0.408923
0.387858
0.374822
0.361307
0.351963
0.339458
0.323212
0.315508
0.305092
0.290951
0.279384
0.265529
0.257115
0.255499
0.250305
0.23906
0.231106
0.225346
0.222145
0.21923
0.215879
0.215374
0.212601
0.216579
0.216722
0.22718
0.231567
0.253794
0.259655
0.284905
0.319358
0.00559051
0.00011942
-0.00066602
-0.000752966
-0.000436899
-0.000326754
-0.000201939
-0.000106672
-0.000104608
-0.0001156
-9.90769e-05
-4.30957e-05
3.36723e-05
6.69018e-05
7.51911e-05
7.45694e-05
5.22294e-05
2.59847e-05
-5.8278e-05
-0.000103419
-0.000286314
-0.000480274
-0.000356762
-0.000176548
-3.8761e-05
-2.56754e-06
9.87389e-05
0.000314081
0.000530355
0.000684527
0.000682432
0.000685782
0.000547112
0.000414906
0.000308244
0.000151111
0.000176437
0.0002177
0.000125093
0.000109534
-3.50278e-05
9.04787e-05
0.000204084
0.000271867
0.000353534
0.000441586
0.000651654
0.000621658
0.000962732
0.000772516
0.00128077
0.00124893
0.00211295
-0.00118917
-0.0210456
-0.242502
-0.762593
-0.709097
-0.59403
-0.492416
-0.459
-0.399385
-0.348459
-0.289423
-0.226867
-0.166755
-0.117608
-0.082859
-0.0566002
-0.0435638
-0.0338685
-0.0175077
-0.000866804
0.0357653
0.102293
0.240987
0.398194
0.493272
0.578711
0.619565
0.643571
0.639921
0.626754
0.594164
0.555663
0.522734
0.501156
0.472675
0.446389
0.425944
0.407194
0.389693
0.376288
0.359837
0.344556
0.338989
0.326704
0.311204
0.298629
0.284799
0.278772
0.276867
0.270788
0.259435
0.251598
0.245123
0.241432
0.238015
0.234931
0.234236
0.230837
0.234949
0.235779
0.248382
0.252574
0.276995
0.281926
0.315937
0.342031
-0.00630231
5.26526e-05
0.00104139
0.000684053
0.000229479
1.28805e-06
4.88363e-05
5.17535e-05
8.28339e-05
0.000128203
0.000147339
0.000117979
7.68643e-05
-3.08509e-05
3.91543e-05
0.000102769
0.000143803
0.000207075
0.000317352
0.000405097
0.000477888
0.000450355
0.000480673
0.000306311
0.00022709
0.000139699
-7.12629e-05
-0.000269706
-0.000380562
-0.000430151
-0.000449741
-0.00051906
-0.0005909
-0.000449613
-0.000117127
0.000227964
0.000499182
0.000584148
0.000705428
0.000598118
0.000721582
0.000897847
0.00121003
0.00101846
0.00119291
0.00102499
0.000864131
0.00084014
0.000954845
0.00071229
0.00102383
0.00101438
0.00073643
-0.00514991
-0.0454994
-0.408895
-0.821958
-0.803131
-0.703316
-0.617247
-0.530848
-0.438034
-0.384826
-0.302928
-0.232301
-0.164177
-0.117403
-0.0786633
-0.0522652
-0.0345491
-0.0200035
0.0273924
0.118712
0.25181
0.351995
0.458217
0.546768
0.610299
0.650255
0.664159
0.66944
0.664739
0.649437
0.62124
0.586054
0.55591
0.527955
0.497686
0.475302
0.461988
0.44693
0.427
0.410189
0.389973
0.376398
0.367794
0.352361
0.33774
0.32487
0.310245
0.304554
0.298517
0.290506
0.279097
0.271462
0.26377
0.259492
0.255515
0.252273
0.250923
0.247592
0.251719
0.253293
0.268112
0.272667
0.298888
0.303096
0.345339
0.361881
0.00862838
0.00079521
-0.0010578
-0.00114368
-0.000697349
-0.000663205
-0.000475812
-0.000381293
-0.000366559
-0.00035737
-0.000330445
-0.000295389
-0.000265726
-0.000138846
-0.000218751
-0.000219034
-0.000204065
-0.000218572
-0.000282205
-0.000313333
-0.000348904
-0.000328348
-0.000309698
-0.000351271
-0.000294182
-0.000237635
-8.89253e-05
9.63728e-05
0.00021671
0.000331635
0.000388644
0.000421529
0.000391309
0.000408213
0.000275994
0.000345578
0.000342768
0.000390477
0.000343034
0.000357563
0.00039553
0.000475455
0.000456238
0.00050201
0.000446631
0.000688222
0.000829919
0.000970428
0.00106086
0.00136496
0.00108985
0.00164382
0.000161587
-0.00908002
-0.0928559
-0.57401
-0.840492
-0.849468
-0.811646
-0.741612
-0.621057
-0.540531
-0.42483
-0.336183
-0.244983
-0.169266
-0.100232
-0.0614621
-0.0243285
0.050675
0.161095
0.236336
0.344614
0.439475
0.517792
0.563513
0.616954
0.64804
0.661054
0.669919
0.671587
0.665417
0.648971
0.623617
0.59246
0.569366
0.547257
0.524352
0.505081
0.491215
0.471582
0.450177
0.432258
0.411218
0.399128
0.386731
0.37058
0.358928
0.346822
0.334858
0.328995
0.318825
0.309468
0.298476
0.291433
0.282665
0.277506
0.272388
0.268816
0.267326
0.264117
0.26867
0.270727
0.286647
0.291819
0.318617
0.323686
0.371351
0.380118
-0.00755092
-0.000425374
0.00153406
0.00107159
0.000449724
0.000306312
0.000272745
0.000248554
0.000272673
0.00033431
0.000355848
0.00032698
0.000318196
0.000350647
0.000233382
0.000134581
0.000145632
0.000211295
0.000255145
0.000305861
0.000259268
0.000390208
0.000356533
0.000348175
0.000364366
0.000202039
0.000154174
0.000137297
-1.60564e-05
-0.000205502
-0.000341261
-0.000256454
-3.50162e-05
1.17753e-05
-8.37823e-05
-3.02228e-05
1.84321e-05
0.000211759
0.000453503
0.000598594
0.000822683
0.000814885
0.000744979
0.000677728
0.000572682
0.00060334
0.000392803
0.000486412
0.000345921
0.000538074
0.000395333
0.000424279
-0.00177153
-0.0151369
-0.148451
-0.683211
-0.861124
-0.87324
-0.860122
-0.814184
-0.746716
-0.623521
-0.513963
-0.366626
-0.244696
-0.134615
0.00496903
0.0860871
0.204826
0.259478
0.373597
0.442204
0.4866
0.532589
0.572509
0.604913
0.64039
0.657307
0.66845
0.672448
0.670965
0.660398
0.643742
0.621256
0.599223
0.583897
0.563838
0.543576
0.528988
0.51679
0.496859
0.47888
0.460989
0.439137
0.426395
0.41092
0.395676
0.387127
0.37287
0.361592
0.352822
0.33884
0.32752
0.316088
0.308865
0.299174
0.29375
0.287567
0.283885
0.281924
0.279308
0.284014
0.287189
0.303783
0.309997
0.337503
0.342727
0.393348
0.396516
0.00846973
0.000936807
-0.00134609
-0.00137378
-0.00111664
-0.0010565
-0.00080997
-0.000661637
-0.000545506
-0.000517399
-0.000472389
-0.000393467
-0.00032856
-0.000295149
-0.000215353
-0.000132558
-0.000109739
-0.000110871
-9.79793e-05
-0.000182044
-0.000254913
-0.000320188
-0.000304358
-0.00033225
-0.000303442
-0.000152407
-3.0928e-05
7.16044e-05
0.000109966
4.37658e-05
1.68222e-05
0.000199891
0.000479398
0.00057142
0.000523474
0.00036192
0.000152299
0.000196063
0.000190151
0.000312439
0.00037912
0.000574751
0.000511671
0.000735248
0.000615218
0.0008458
0.000818576
0.000970344
0.00080392
0.00136065
0.00068797
0.00168273
-0.00227601
-0.0238931
-0.255888
-0.806186
-0.868366
-0.876709
-0.875487
-0.85636
-0.813987
-0.733353
-0.583229
-0.397872
-0.184547
0.0413285
0.14847
0.289518
0.368428
0.443868
0.481102
0.529143
0.5578
0.594582
0.618065
0.632191
0.650157
0.659026
0.670459
0.670306
0.665
0.653334
0.638536
0.621227
0.606526
0.591372
0.573851
0.558394
0.545412
0.530573
0.511846
0.498428
0.482362
0.463255
0.448284
0.4304
0.418201
0.410939
0.39653
0.386095
0.374879
0.357478
0.345784
0.334057
0.327145
0.316801
0.311713
0.304518
0.30047
0.297631
0.29507
0.299933
0.303567
0.320675
0.327638
0.353734
0.360176
0.411027
0.413179
-0.0062579
-0.000214841
0.00165984
0.00129253
0.000801067
0.000448695
0.000145954
9.96093e-05
0.000103774
0.00011753
0.000154481
0.000214966
0.000209464
0.000237614
0.000260065
0.000222459
0.000207514
0.000148346
0.000103217
0.000116944
0.000133836
0.000155489
0.000159752
0.000195671
0.000119125
0.000199422
0.000261637
0.000140573
4.63851e-05
-0.000116235
-0.000275135
-0.000189772
4.32896e-05
0.000234845
0.000319849
0.000179989
-0.000136346
-0.00013074
-0.000106876
-1.5124e-05
0.000273892
0.000540686
0.000592939
0.000623698
0.000666346
0.000594562
0.000679513
0.000767515
0.000648639
0.000840719
0.000594476
-0.000148373
-0.0074478
-0.0559077
-0.437969
-0.849082
-0.880681
-0.878347
-0.875545
-0.864216
-0.834571
-0.763165
-0.602238
-0.295661
0.0279653
0.241331
0.353996
0.42605
0.497478
0.518581
0.54588
0.576779
0.602629
0.624436
0.643228
0.650123
0.658245
0.664786
0.675158
0.673314
0.667509
0.654145
0.640686
0.626121
0.61472
0.601213
0.589483
0.577492
0.564674
0.549866
0.533981
0.523622
0.50725
0.49047
0.472565
0.451994
0.441755
0.43181
0.416814
0.406455
0.393364
0.375471
0.365481
0.35356
0.345917
0.334612
0.329118
0.320481
0.315335
0.311749
0.309269
0.314386
0.318885
0.336372
0.344341
0.36877
0.377767
0.427907
0.42803
0.00626603
0.000781063
-0.00136552
-0.00118056
-0.000936597
-0.000725739
-0.000591996
-0.000489671
-0.000359751
-0.000266936
-0.000238992
-0.000255007
-0.000215291
-0.000164242
-8.84855e-05
-5.0129e-05
-2.83988e-05
-3.03846e-05
-5.08916e-05
-9.47396e-05
-0.000126383
-0.000129231
-0.000161477
-0.00018984
-0.000144231
-1.36654e-05
3.59004e-05
4.93573e-05
-9.27325e-06
-5.43099e-05
-0.000131662
1.92086e-05
0.000347613
0.000619873
0.000675863
0.000431049
0.000196713
1.88385e-05
-0.00019842
-7.12622e-05
5.05328e-05
0.000354938
0.000674613
0.000977647
0.00102538
0.00115547
0.00114449
0.000955354
0.00101082
0.000621662
0.000711151
-0.00133785
-0.012528
-0.114221
-0.613716
-0.856213
-0.881963
-0.881359
-0.874369
-0.855679
-0.813247
-0.710408
-0.470662
-0.0631496
0.202307
0.376593
0.461745
0.509174
0.541528
0.564476
0.588654
0.617335
0.634011
0.644492
0.655607
0.661516
0.668147
0.672965
0.681198
0.679447
0.673494
0.661522
0.649277
0.634984
0.622894
0.610526
0.601046
0.589907
0.577396
0.564617
0.553236
0.543644
0.526785
0.512096
0.493569
0.472309
0.462105
0.450155
0.436572
0.426899
0.412939
0.396581
0.387782
0.374403
0.364754
0.352341
0.346286
0.336277
0.329829
0.325417
0.322855
0.328202
0.333687
0.351616
0.359744
0.383009
0.393152
0.442585
0.442608
-0.00396486
0.000170117
0.00155831
0.000976189
0.000626455
0.000375731
1.8274e-05
-5.83016e-05
-3.41085e-05
1.0275e-05
3.26322e-05
5.68805e-05
6.84934e-05
0.000100531
0.000121644
0.000128
9.91626e-05
5.93878e-05
3.32636e-05
2.53443e-05
3.77098e-05
5.36301e-05
4.76565e-05
5.88579e-06
4.50824e-05
0.000167308
0.000160961
0.000129459
-4.86296e-05
-0.000192075
-0.000203866
-1.63558e-05
0.000196436
0.000293089
0.000318756
0.000308447
7.04627e-05
-0.000230457
-0.000417293
-0.000343075
-0.000131961
0.000145686
0.000498138
0.000627368
0.000741185
0.000727866
0.000450967
0.000368417
0.000159117
0.000183257
0.000244853
-0.00265827
-0.0208875
-0.198868
-0.757654
-0.867121
-0.879164
-0.874726
-0.861357
-0.829279
-0.752563
-0.568541
-0.197841
0.158057
0.342771
0.477946
0.53203
0.547061
0.569993
0.591066
0.617654
0.638059
0.651077
0.656786
0.664757
0.672698
0.679275
0.68315
0.687838
0.685039
0.680196
0.669412
0.658713
0.646004
0.634634
0.624325
0.615698
0.605188
0.594363
0.583236
0.571446
0.560777
0.545551
0.533954
0.514879
0.493737
0.4812
0.467116
0.455534
0.446494
0.432195
0.418682
0.410342
0.394606
0.382927
0.369436
0.362159
0.350502
0.34297
0.338151
0.335516
0.341413
0.347474
0.365637
0.37446
0.396853
0.408794
0.45769
0.455314
0.00371539
0.000542489
-0.000832641
-0.00077343
-0.000680082
-0.000428816
-0.000400292
-0.000364838
-0.000287642
-0.000208795
-0.000159911
-0.000140673
-0.000111984
-7.4963e-05
-3.55207e-05
-8.39023e-06
1.66472e-05
1.89721e-06
-1.35038e-05
-2.92616e-05
-3.01354e-05
-1.58578e-05
-2.46127e-05
-3.86617e-05
-3.36875e-05
2.84794e-05
5.56826e-05
1.4444e-05
-1.81926e-05
-7.96119e-05
-6.6179e-05
4.58156e-05
0.000142148
0.000208928
0.000222148
0.000150792
9.22843e-05
0.000173736
0.000116159
3.16061e-05
-9.80463e-05
-2.33563e-05
0.00016464
0.00041211
0.000754241
0.000835044
0.00124507
0.00129545
0.00224292
0.00186586
0.00204323
-0.00465163
-0.0464491
-0.381606
-0.860484
-0.876914
-0.870195
-0.859882
-0.827602
-0.756714
-0.605105
-0.290296
0.0895863
0.29921
0.446424
0.534579
0.557629
0.573505
0.596953
0.621207
0.637116
0.650089
0.657959
0.665159
0.675664
0.684232
0.690008
0.69271
0.695046
0.691852
0.689108
0.679236
0.669963
0.658297
0.64742
0.637253
0.627309
0.617223
0.607523
0.597597
0.58686
0.577679
0.565427
0.556203
0.53661
0.516055
0.501128
0.485997
0.477173
0.467518
0.453203
0.442179
0.432839
0.413832
0.399425
0.384624
0.376344
0.363606
0.355855
0.3507
0.347908
0.354188
0.360624
0.378845
0.387937
0.410474
0.423737
0.471156
0.466484
-0.001962
0.000445636
0.00104928
0.000661988
0.000382304
0.000164811
-5.187e-05
-0.000147402
-0.000142215
-0.000109315
-7.28754e-05
-5.1064e-05
-2.85975e-05
-5.99218e-06
1.18771e-05
2.02627e-05
2.29871e-05
1.74937e-05
5.0972e-06
-1.34343e-05
-5.0654e-06
2.76324e-05
4.12196e-05
4.106e-05
1.69546e-05
1.0731e-05
1.75874e-05
2.35185e-05
2.71587e-06
-5.18113e-06
3.86142e-06
-1.17269e-05
-1.94422e-05
3.99495e-05
8.69567e-05
0.000164678
0.000173175
0.000245466
0.000206781
3.91619e-05
-0.000209715
-0.000201062
1.02208e-06
0.000211616
0.000386724
0.000584363
0.000421909
0.000803207
0.000331642
0.000241582
-0.00165855
-0.0136931
-0.117673
-0.616296
-0.863497
-0.872658
-0.863181
-0.833813
-0.764732
-0.617071
-0.340184
0.0367941
0.274542
0.398429
0.508959
0.563053
0.574595
0.58837
0.615216
0.640323
0.652641
0.657016
0.663728
0.675728
0.688687
0.696491
0.699998
0.700621
0.70126
0.699129
0.698849
0.69112
0.684361
0.6732
0.6632
0.652623
0.641266
0.631447
0.621251
0.611472
0.601777
0.594572
0.584679
0.575766
0.555863
0.53853
0.521439
0.506414
0.498554
0.487759
0.473586
0.465205
0.45279
0.4296
0.413827
0.398489
0.390398
0.377437
0.369826
0.363827
0.360338
0.36625
0.372595
0.390626
0.400217
0.424015
0.438802
0.484017
0.47606
0.00182406
0.000471932
-0.000316412
-0.000372949
-0.000295393
-0.00023066
-0.000240337
-0.000244609
-0.000207813
-0.000165357
-0.000123246
-9.60427e-05
-7.9311e-05
-5.82417e-05
-3.39534e-05
-2.06169e-05
-1.66845e-05
-2.73547e-06
1.86142e-05
9.5736e-06
-5.38255e-07
1.15902e-05
3.18571e-05
2.1714e-05
-2.0718e-05
-6.97078e-05
-3.46679e-05
-6.58771e-06
1.50522e-05
4.40141e-05
-6.60517e-07
-0.000108757
-0.000226867
-0.000175835
-9.28046e-05
4.04497e-05
0.00016281
0.000283928
0.000320926
0.000257333
-0.000142172
-0.000256328
-0.000371033
-3.90853e-05
1.94496e-05
0.000206166
0.000312117
0.000605631
0.000504498
0.00124752
-0.00228215
-0.0221707
-0.232243
-0.781491
-0.862006
-0.86461
-0.842824
-0.783894
-0.644921
-0.36137
-0.027196
0.277512
0.390655
0.472649
0.548416
0.587801
0.590905
0.600158
0.62674
0.651856
0.66257
0.664538
0.671801
0.686523
0.699474
0.706114
0.706986
0.706075
0.708407
0.706337
0.709424
0.703081
0.697728
0.686864
0.677936
0.66713
0.656187
0.646259
0.63494
0.626121
0.617116
0.610802
0.60168
0.592174
0.573428
0.55995
0.541437
0.527293
0.518183
0.505443
0.491801
0.484596
0.469563
0.443473
0.429335
0.414404
0.405665
0.392012
0.383647
0.376617
0.372191
0.377587
0.383889
0.401749
0.411312
0.437651
0.453426
0.49523
0.484412
-0.000803678
0.000510099
0.00064978
0.000445887
0.000227032
3.84508e-05
-9.65094e-05
-0.000169785
-0.000175797
-0.000150912
-0.000120273
-9.33616e-05
-8.80397e-05
-6.03565e-05
-4.40308e-05
-2.57387e-05
-3.07601e-05
-2.23232e-05
5.05532e-06
2.13648e-05
-1.82503e-06
3.65697e-06
3.13211e-05
3.83593e-05
-2.01279e-05
-9.42996e-05
-5.7513e-05
6.96181e-06
4.72976e-05
0.000115929
8.40987e-05
-8.53664e-05
-0.000224501
-0.00017014
-6.56158e-05
8.75441e-05
0.000252676
0.000371598
0.000436776
0.000403419
0.000123411
-0.000271943
-0.000477282
-0.000197073
-0.000289908
0.000233227
-0.000204777
0.000476146
0.000284753
0.000100355
-0.00749665
-0.0609702
-0.454285
-0.85163
-0.865147
-0.842098
-0.786904
-0.657722
-0.383854
-0.0363655
0.213291
0.39793
0.460931
0.507868
0.56635
0.602524
0.607768
0.614597
0.636414
0.659698
0.669724
0.672213
0.681098
0.695966
0.708744
0.71292
0.711969
0.712685
0.71671
0.715708
0.719632
0.714381
0.70993
0.699891
0.692377
0.681696
0.671943
0.66148
0.649556
0.641784
0.632572
0.626306
0.616827
0.606867
0.590899
0.579624
0.560517
0.547706
0.535783
0.521149
0.509834
0.503375
0.485535
0.459844
0.447096
0.431747
0.421506
0.407248
0.397748
0.389231
0.38344
0.388329
0.394358
0.411819
0.421197
0.450901
0.467193
0.505247
0.491903
0.000764059
0.000332154
0.000114384
-4.59267e-05
-6.1555e-05
-8.17961e-05
-0.000132057
-0.000163934
-0.00016151
-0.000149618
-0.000125737
-9.86961e-05
-9.03308e-05
-7.47069e-05
-6.85155e-05
-4.47042e-05
-3.68866e-05
-3.02331e-05
1.17358e-05
3.93895e-05
1.51858e-05
2.98147e-07
3.45174e-05
4.44994e-05
-1.53817e-05
-0.000114867
-9.96408e-05
6.61708e-06
6.14657e-05
0.000105541
2.9292e-05
-0.000176289
-0.000401481
-0.000491978
-0.000362642
-0.000204667
-0.000118273
1.84617e-05
7.13731e-05
0.000169254
7.80801e-05
-0.000108996
-0.000609369
-0.000752584
-0.000616506
-0.000414321
-0.000264093
-0.000194236
-2.07281e-05
-0.00202781
-0.0151525
-0.139738
-0.659879
-0.839296
-0.840808
-0.786667
-0.66227
-0.408436
-0.0384796
0.193451
0.339152
0.467176
0.510996
0.534619
0.577231
0.610615
0.620821
0.625771
0.642555
0.663249
0.674334
0.67887
0.689378
0.703396
0.714129
0.71605
0.716449
0.720548
0.725237
0.723762
0.727354
0.722773
0.719723
0.710883
0.705588
0.695563
0.687584
0.677251
0.665181
0.657574
0.647581
0.641363
0.631319
0.621675
0.608408
0.597372
0.577959
0.56623
0.551718
0.537442
0.528542
0.521832
0.502455
0.478576
0.466688
0.449917
0.437129
0.422069
0.411006
0.401089
0.394042
0.398537
0.404317
0.421273
0.430599
0.463752
0.479856
0.513913
0.498935
-0.000249634
0.000338654
0.000486963
0.000325662
0.000180218
2.84292e-05
-7.668e-05
-0.000140474
-0.000164931