/*--------------------------------*- C++ -*----------------------------------*\
| =========                 |                                                 |
| \\      /  F ield         | OpenFOAM: The Open Source CFD Toolbox           |
|  \\    /   O peration     | Version:  2.2.x                                 |
|   \\  /    A nd           | Web:      www.OpenFOAM.org                      |
|    \\/     M anipulation  |                                                 |
\*---------------------------------------------------------------------------*/
FoamFile
{
    version     2.0;
    format      ascii;
    class       volScalarField;
    location    "2.1";
    object      Bx;
}
// * * * * * * * * * * * * * * * * * * * * * * * * * * * * * * * * * * * * * //

dimensions      [1 0 -2 0 0 -1 0];

internalField   nonuniform List<scalar> 
14161
(
1.04309
0.966478
0.945381
0.948883
0.971325
0.995637
1.00711
0.99951
0.982502
0.94874
0.925029
0.916914
0.921815
0.935415
0.962674
0.986197
0.990831
0.97623
0.958183
0.937843
0.925362
0.936467
0.948436
0.968681
0.983834
0.991519
0.995658
0.994726
1.01214
1.05367
1.19434
1.34969
1.4099
1.40438
1.405
1.39792
1.38622
1.3769
1.37213
1.36943
1.3684
1.36512
1.35844
1.34844
1.33664
1.32131
1.30605
1.29163
1.27699
1.26185
1.24666
1.23188
1.21825
1.2063
1.19652
1.18908
1.18382
1.18007
1.17783
1.17706
1.17679
1.17839
1.1794
1.18058
1.17833
1.17358
1.16351
1.15069
1.13514
1.11842
1.10168
1.08639
1.07403
1.06353
1.05543
1.04993
1.04737
1.04947
1.05287
1.05665
1.05969
1.06036
1.05827
1.05305
1.0477
1.04572
1.04344
1.04333
1.04455
1.04584
1.04431
1.03465
1.01632
0.984086
0.938721
0.8834
0.824224
0.773376
0.727446
0.68714
0.656509
0.629514
0.608237
0.59454
0.582043
0.565555
0.544757
0.515974
0.477231
0.432814
0.38765
0.347598
0.313577
0.277213
0.230191
0.181466
0.115714
0.099442
0.0310982
0.74176
1.01475
1.09525
1.08474
1.01526
0.899545
0.804143
0.783566
0.811556
0.896554
0.996152
1.04863
1.0434
1.00709
0.924521
0.827776
0.775843
0.787164
0.833938
0.917824
0.990918
1.01332
1.00376
0.977086
0.940723
0.907233
0.900267
0.907294
0.926176
0.951408
0.986409
0.873817
0.790479
0.716517
0.686066
0.678008
0.679119
0.681426
0.679115
0.67577
0.671443
0.66908
0.671187
0.675279
0.684554
0.692121
0.700439
0.710821
0.72268
0.735621
0.749756
0.763665
0.777167
0.78941
0.800365
0.809727
0.817717
0.824325
0.83015
0.834073
0.836093
0.835748
0.833016
0.831186
0.828955
0.8289
0.829139
0.83178
0.83601
0.842569
0.849757
0.855308
0.857389
0.856791
0.856201
0.856505
0.854808
0.852128
0.84622
0.838471
0.826828
0.813289
0.800449
0.785988
0.771886
0.756897
0.739671
0.719357
0.698313
0.672654
0.646238
0.615527
0.581858
0.547136
0.512308
0.482204
0.457479
0.436354
0.423125
0.417192
0.409896
0.401241
0.386386
0.366597
0.344088
0.324485
0.307327
0.293389
0.282558
0.272318
0.256966
0.234128
0.205298
0.166774
0.132657
0.0897476
0.0614532
0.0382315
0.0155708
1.3316
0.951976
0.749008
0.74955
0.869316
1.07082
1.22567
1.25772
1.20031
1.05584
0.866375
0.750933
0.745442
0.813098
0.949209
1.10684
1.18942
1.19209
1.1199
0.992405
0.870328
0.817366
0.839136
0.893707
0.971396
1.03726
1.05883
1.04883
1.02927
0.990568
0.938386
0.712514
0.65005
0.610113
0.579684
0.556362
0.547557
0.541377
0.53678
0.534331
0.534558
0.538035
0.544166
0.552118
0.56375
0.576007
0.586866
0.599746
0.611466
0.622278
0.633077
0.643206
0.653348
0.66364
0.674379
0.685915
0.698351
0.711613
0.725596
0.739597
0.753352
0.76727
0.780366
0.791515
0.7997
0.805585
0.809525
0.813704
0.815805
0.817498
0.816078
0.809508
0.797602
0.779937
0.761341
0.741567
0.727262
0.712607
0.697837
0.676598
0.654879
0.630487
0.606744
0.581001
0.555048
0.528416
0.500873
0.471391
0.442922
0.413251
0.384687
0.357107
0.331957
0.307876
0.289691
0.274955
0.264469
0.257629
0.252766
0.250691
0.24688
0.244017
0.241634
0.237866
0.232535
0.225829
0.216537
0.207002
0.196258
0.183875
0.169549
0.148809
0.129391
0.104531
0.0869941
0.0624065
0.0417574
0.0288029
0.00591486
0.509373
1.04876
1.23639
1.23195
1.10145
0.860823
0.648662
0.588347
0.641771
0.820026
1.0447
1.16596
1.16334
1.09065
0.936939
0.738526
0.621868
0.620598
0.703374
0.870859
1.03046
1.09547
1.08219
1.03287
0.952994
0.88151
0.855543
0.856894
0.864957
0.859681
0.790188
0.57946
0.565374
0.534232
0.525143
0.51489
0.512378
0.508592
0.506884
0.50787
0.51105
0.515992
0.521985
0.528224
0.535857
0.541373
0.548641
0.556815
0.566396
0.577062
0.589369
0.602362
0.616436
0.630785
0.64529
0.659777
0.674416
0.68875
0.703171
0.716339
0.72802
0.737259
0.745587
0.751707
0.757122
0.760151
0.762647
0.762598
0.760446
0.756254
0.752329
0.748735
0.748605
0.749908
0.753701
0.752855
0.738785
0.718501
0.691294
0.666245
0.639544
0.610782
0.583191
0.552775
0.521501
0.490429
0.459075
0.426767
0.396564
0.364483
0.335289
0.306089
0.281266
0.255305
0.236888
0.220093
0.212136
0.210533
0.210897
0.215225
0.217005
0.21877
0.219467
0.218518
0.215306
0.210342
0.200689
0.188142
0.171573
0.151822
0.134161
0.109587
0.0929631
0.0706156
0.0615715
0.0469535
0.0342916
0.0263766
0.00768177
1.43428
0.901039
0.617124
0.61169
0.78736
1.08059
1.30845
1.36229
1.30051
1.10538
0.8317
0.649349
0.625251
0.716375
0.903128
1.13629
1.26337
1.27092
1.19518
1.01087
0.814718
0.721445
0.7277
0.796123
0.903089
1.00028
1.03707
1.03431
1.01715
0.983731
0.945141
0.705677
0.636372
0.593967
0.583323
0.578376
0.575763
0.569421
0.562137
0.554352
0.547273
0.541795
0.5384
0.53731
0.538883
0.540901
0.544678
0.550522
0.55923
0.569238
0.58258
0.597993
0.61485
0.632638
0.651191
0.669734
0.687907
0.704658
0.720833
0.735148
0.74945
0.762451
0.775747
0.786721
0.798848
0.810188
0.820559
0.827087
0.830908
0.829475
0.824226
0.814405
0.802384
0.786553
0.767945
0.748065
0.728312
0.713173
0.695578
0.673117
0.653137
0.626144
0.601216
0.570215
0.537301
0.503266
0.469563
0.434422
0.400666
0.366266
0.333997
0.302792
0.274882
0.24679
0.226112
0.213619
0.209414
0.206171
0.208077
0.212625
0.217462
0.223956
0.2282
0.227717
0.222203
0.21286
0.199982
0.185444
0.164166
0.139485
0.116438
0.0868443
0.0689595
0.0456908
0.0350192
0.0316579
0.0277853
0.0228712
0.0064893
0.423361
1.09448
1.32886
1.33079
1.17122
0.866247
0.581619
0.489584
0.536105
0.754937
1.04971
1.23071
1.24328
1.15603
0.979178
0.732305
0.566407
0.536338
0.620865
0.826566
1.04439
1.15246
1.15596
1.10114
1.01144
0.920102
0.871119
0.864537
0.877981
0.893885
0.89972
0.709664
0.616385
0.559378
0.558354
0.551155
0.551191
0.551863
0.552422
0.552607
0.552492
0.551994
0.552595
0.553823
0.555059
0.55852
0.568115
0.577498
0.594577
0.612228
0.634992
0.657819
0.681444
0.704083
0.725777
0.74592
0.764141
0.780895
0.796057
0.809478
0.821977
0.83178
0.840961
0.846686
0.855094
0.860341
0.867902
0.871953
0.877161
0.878582
0.880199
0.87943
0.877004
0.872077
0.860694
0.848185
0.828236
0.80457
0.782252
0.75322
0.729033
0.69731
0.668929
0.635582
0.599517
0.562158
0.524349
0.48489
0.447138
0.409335
0.373523
0.338493
0.305459
0.272506
0.244803
0.224439
0.214586
0.208889
0.212058
0.216115
0.220855
0.228151
0.233668
0.23405
0.227648
0.216558
0.200164
0.181729
0.155899
0.128646
0.102865
0.0728369
0.0532237
0.0309134
0.0251539
0.0261314
0.0243394
0.0231205
0.00660128
1.47947
0.872082
0.533328
0.514364
0.704158
1.04146
1.32703
1.40518
1.35693
1.14885
0.834288
0.591069
0.535918
0.627497
0.830452
1.10532
1.27949
1.30656
1.23451
1.04586
0.809074
0.661634
0.637464
0.703097
0.813465
0.928125
0.997699
1.01942
1.00988
0.972275
0.964167
0.736317
0.628421
0.589778
0.593935
0.603125
0.613493
0.624859
0.633654
0.640053
0.64602
0.651877
0.65726
0.662063
0.66591
0.670746
0.685701
0.69206
0.705161
0.715815
0.730627
0.746271
0.763814
0.781937
0.800888
0.819703
0.837903
0.855086
0.870173
0.883409
0.895091
0.904432
0.91484
0.922133
0.933177
0.93722
0.946192
0.945258
0.952847
0.949027
0.954713
0.949705
0.953104
0.948428
0.946159
0.937382
0.928175
0.907145
0.892459
0.864993
0.842671
0.807158
0.772946
0.7319
0.683686
0.636096
0.589931
0.544153
0.502309
0.461025
0.422486
0.383347
0.3441
0.304795
0.270551
0.24224
0.227363
0.217153
0.218292
0.220465
0.226156
0.232928
0.235191
0.238315
0.234272
0.225117
0.206436
0.185476
0.157766
0.131937
0.102517
0.0744188
0.0497364
0.0329252
0.0264014
0.0257605
0.0249984
0.0226359
0.00779403
0.387789
1.11644
1.38715
1.39914
1.23096
0.911727
0.580747
0.453039
0.476922
0.701249
1.02881
1.27065
1.31479
1.23274
1.05985
0.797325
0.578223
0.518048
0.590304
0.783749
1.03762
1.20487
1.24847
1.19232
1.10616
1.01153
0.940357
0.91472
0.920715
0.936131
0.983422
0.797896
0.721369
0.683193
0.692199
0.722051
0.75019
0.76831
0.780655
0.79124
0.798568
0.804709
0.809671
0.815094
0.81865
0.824105
0.840336
0.847645
0.86323
0.875013
0.891467
0.90802
0.926494
0.945115
0.963818
0.98225
0.999435
1.01719
1.03219
1.04795
1.06052
1.07389
1.08516
1.09523
1.10457
1.10862
1.11715
1.11368
1.12019
1.11089
1.11412
1.1001
1.09782
1.08092
1.07324
1.05251
1.04269
1.01683
1.00265
0.971407
0.951772
0.912218
0.873776
0.835657
0.785304
0.737874
0.688731
0.640242
0.591994
0.544829
0.499753
0.454806
0.407379
0.359292
0.315799
0.276719
0.25213
0.236094
0.228438
0.223042
0.227653
0.232156
0.234168
0.236302
0.233712
0.226062
0.209156
0.189963
0.161893
0.135828
0.107437
0.0803716
0.0569328
0.0415643
0.0323047
0.0303219
0.0278132
0.0224748
0.00884081
1.51407
0.874684
0.492303
0.45787
0.648515
0.984289
1.31017
1.4232
1.38399
1.18241
0.865425
0.571573
0.475655
0.560906
0.762638
1.04945
1.27934
1.34351
1.28391
1.12145
0.873208
0.662994
0.592912
0.643319
0.744464
0.875083
0.984782
1.04412
1.06518
1.04403
1.08142
0.970839
0.88984
0.846681
0.81696
0.850817
0.877096
0.899316
0.918913
0.937033
0.953143
0.967236
0.979692
0.992808
1.00262
1.01611
1.03831
1.05288
1.069
1.08372
1.09788
1.10925
1.11977
1.12875
1.13595
1.14267
1.14875
1.15534
1.16106
1.16905
1.17463
1.18589
1.18963
1.20081
1.2026
1.21148
1.21171
1.21086
1.21543
1.20808
1.21279
1.20152
1.20261
1.18826
1.18546
1.16476
1.15713
1.1334
1.12086
1.09064
1.07072
1.04017
1.00237
0.970927
0.922804
0.871495
0.817106
0.755825
0.695441
0.632745
0.575439
0.520963
0.467253
0.412487
0.359684
0.305427
0.26972
0.24331
0.226509
0.220847
0.222808
0.225241
0.227411
0.232094
0.23222
0.231181
0.215276
0.198208
0.169054
0.14735
0.120108
0.0965326
0.071417
0.0574653
0.0409045
0.0362971
0.0301837
0.0221839
0.00955558
0.374362
1.12135
1.42647
1.45645
1.28376
0.983464
0.626079
0.461302
0.476466
0.68773
1.02265
1.32228
1.40724
1.34327
1.17729
0.919165
0.652241
0.556883
0.610776
0.78385
1.05816
1.29388
1.38005
1.35388
1.27734
1.17557
1.09308
1.05478
1.05153
1.08031
1.1503
1.12174
1.0445
1.03724
1.02996
1.05861
1.07024
1.0815
1.09509
1.10947
1.12495
1.14173
1.15671
1.17243
1.18623
1.19838
1.21726
1.23068
1.24505
1.2538
1.2595
1.26231
1.26318
1.26353
1.26441
1.26499
1.26743
1.26841
1.26896
1.27199
1.27171
1.27738
1.27614
1.28335
1.28017
1.2866
1.28119
1.2883
1.2825
1.2892
1.27971
1.27805
1.27968
1.26576
1.26414
1.24865
1.23969
1.22297
1.20528
1.18034
1.1466
1.122
1.08214
1.0597
1.01695
0.962981
0.909522
0.840359
0.770622
0.695731
0.625093
0.559746
0.497191
0.435099
0.373019
0.310078
0.266278
0.236087
0.227766
0.230462
0.226771
0.224173
0.223843
0.226007
0.225559
0.225327
0.220925
0.212419
0.185916
0.167635
0.13961
0.115198
0.0886802
0.0711423
0.0500137
0.0442828
0.0336105
0.0264688
0.0124728
1.54633
0.898829
0.488565
0.443421
0.620507
0.925572
1.28011
1.43592
1.41067
1.22327
0.924917
0.589909
0.454017
0.53152
0.714139
0.989213
1.27631
1.39772
1.36086
1.22412
0.988378
0.734937
0.624475
0.642707
0.733905
0.851237
0.956163
1.02882
1.05966
1.07713
1.07329
1.12278
1.07474
1.08946
1.12856
1.16641
1.19094
1.2098
1.22783
1.24393
1.2598
1.27336
1.28413
1.29213
1.30003
1.30669
1.31526
1.31988
1.32365
1.326
1.3266
1.32705
1.3251
1.32481
1.32375
1.32126
1.31822
1.31719
1.31377
1.31478
1.31228
1.31619
1.31298
1.31742
1.31227
1.31749
1.31204
1.31871
1.31284
1.31906
1.30994
1.31676
1.30303
1.30862
1.29084
1.29297
1.27002
1.27046
1.2447
1.24324
1.21351
1.20386
1.16842
1.14761
1.11488
1.05602
1.00697
0.926073
0.849465
0.758664
0.677319
0.597929
0.52669
0.459939
0.392347
0.32565
0.274178
0.240442
0.227579
0.227043
0.221385
0.221147
0.222424
0.226678
0.225442
0.228807
0.222838
0.226355
0.205522
0.191217
0.162846
0.136107
0.107307
0.0868616
0.0613559
0.0536591
0.0373024
0.0345592
0.0157138
0.388261
1.12351
1.46148
1.49801
1.33822
1.07234
0.724543
0.525144
0.546359
0.732468
1.05282
1.39611
1.52671
1.47214
1.32174
1.09831
0.856742
0.73995
0.772518
0.907824
1.1365
1.38036
1.49417
1.48953
1.41043
1.31277
1.23152
1.18582
1.17571
1.1867
1.22511
1.27421
1.26952
1.28192
1.366
1.37604
1.38031
1.38111
1.3865
1.3905
1.39261
1.39343
1.39275
1.3924
1.39074
1.38848
1.38745
1.38344
1.37852
1.37313
1.36925
1.36732
1.36547
1.36277
1.36003
1.3556
1.35047
1.34502
1.34115
1.3357
1.33323
1.32997
1.3275
1.3291
1.32523
1.33012
1.32433
1.32999
1.32331
1.32998
1.32187
1.32819
1.31803
1.32586
1.31342
1.31967
1.30479
1.30972
1.29175
1.29459
1.27043
1.26039
1.22796
1.18831
1.16773
1.11014
1.07689
1.00634
0.943148
0.853154
0.759046
0.661504
0.576931
0.501032
0.427939
0.355985
0.294556
0.253222
0.229299
0.223437
0.223328
0.22683
0.229502
0.236338
0.236106
0.242243
0.235167
0.239344
0.226758
0.213687
0.185644
0.158409
0.129392
0.103988
0.074037
0.0641483
0.0421621
0.0446694
0.0201898
1.5647
0.943858
0.533674
0.489534
0.621089
0.879182
1.23072
1.4246
1.41817
1.25613
0.999681
0.661318
0.505797
0.562019
0.70316
0.921364
1.17016
1.29432
1.29601
1.19884
1.04753
0.882397
0.798365
0.798469
0.845023
0.91024
0.974955
1.01539
1.02905
1.03068
1.01417
1.08061
1.22288
1.30794
1.37449
1.38589
1.38813
1.39333
1.39682
1.40194
1.40345
1.40307
1.40195
1.4017
1.40131
1.40168
1.40183
1.40149
1.40017
1.39735
1.39617
1.39223
1.38826
1.38281
1.37749
1.37107
1.36518
1.35897
1.35491
1.35026
1.3481
1.34514
1.34434
1.33982
1.34148
1.33504
1.33906
1.33212
1.33612
1.32716
1.33237
1.32342
1.33116
1.32227
1.33433
1.32415
1.33644
1.32321
1.33389
1.3164
1.32069
1.29041
1.28322
1.23403
1.21558
1.15309
1.12586
1.05671
1.00586
0.926107
0.848789
0.749126
0.649925
0.56482
0.484888
0.4086
0.333559
0.283323
0.249377
0.239911
0.237533
0.237088
0.238746
0.244704
0.246851
0.255048
0.248786
0.25345
0.242234
0.237063
0.213807
0.187974
0.155571
0.127296
0.0910154
0.0769374
0.0502401
0.0554504
0.0253149
0.465062
1.12946
1.47949
1.50275
1.37836
1.16082
0.897241
0.734769
0.741285
0.866643
1.10762
1.42606
1.56269
1.50949
1.37972
1.19914
1.02932
0.937291
0.938198
0.996441
1.10165
1.2327
1.30311
1.30954
1.27938
1.23809
1.20397
1.19096
1.20154
1.23497
1.30249
1.42267
1.55015
1.53027
1.47474
1.44136
1.43107
1.43001
1.42985
1.4281
1.4259
1.42299
1.41971
1.41613
1.41377
1.41077
1.40789
1.40503
1.40161
1.39838
1.39316
1.38768
1.38153
1.37514
1.36872
1.36214
1.35674
1.352
1.34829
1.34448
1.34093
1.33874
1.33778
1.33298
1.33559
1.32853
1.33214
1.32352
1.32802
1.3187
1.3258
1.31669
1.32645
1.31684
1.33159
1.31927
1.33317
1.31545
1.33081
1.3069
1.32005
1.28658
1.29397
1.25171
1.24496
1.19243
1.17413
1.11529
1.07677
1.00436
0.938015
0.849421
0.761156
0.662729
0.567252
0.479679
0.396816
0.341099
0.295808
0.272727
0.267848
0.26118
0.257659
0.258338
0.256754
0.265842
0.264392
0.275971
0.260884
0.25227
0.232977
0.213141
0.186223
0.153703
0.109233
0.0903541
0.0601555
0.064234
0.0322843
1.51789
1.00015
0.664019
0.61164
0.697121
0.880522
1.11626
1.26123
1.27285
1.18141
1.02837
0.822572
0.706813
0.717881
0.806411
0.94407
1.07573
1.14441
1.1594
1.13408
1.08147
1.01763
0.982172
0.978969
0.991562
1.01343
1.03788
1.05772
1.07486
1.0884
1.0971
1.14643
1.16009
1.32008
1.38387
1.39949
1.39252
1.38665
1.37965
1.37416
1.37015
1.36684
1.36445
1.36059
1.35924
1.35455
1.34819
1.34257
1.33617
1.33011
1.32327
1.31618
1.30983
1.30565
1.30412
1.30455
1.30549
1.30683
1.30746
1.30902
1.30788
1.30886
1.30517
1.30836
1.30066
1.30631
1.29785
1.30513
1.2963
1.30409
1.29562
1.30315
1.2942
1.29626
1.30364
1.28779
1.29904
1.27574
1.29
1.25761
1.27182
1.23282
1.24906
1.20982
1.21146
1.16808
1.16634
1.11721
1.09587
1.04871
0.994185
0.921435
0.848038
0.750473
0.649029
0.552732
0.474336
0.411956
0.368654
0.329737
0.311286
0.295412
0.278849
0.269823
0.259759
0.264322
0.262075
0.27336
0.272171
0.273104
0.254232
0.235116
0.209719
0.178411
0.129591
0.106934
0.0715958
0.07317
0.0402454
0.710272
1.1312
1.37628
1.39708
1.31038
1.15506
0.992592
0.905945
0.905249
0.958005
1.06659
1.22518
1.31808
1.29628
1.22233
1.11261
1.00843
0.966472
0.968347
0.98964
1.02755
1.07524
1.10315
1.11486
1.11604
1.1095
1.10186
1.09339
1.0848
1.08065
1.07688
1.08235
1.02849
1.10038
1.12397
1.15759
1.17826
1.18986
1.18941
1.19218
1.19427
1.19541
1.19705
1.19903
1.20242
1.20423
1.20078
1.1999
1.1973
1.19617
1.19435
1.19409
1.19611
1.19708
1.19953
1.20169
1.20345
1.20543
1.20595
1.20699
1.207
1.20433
1.20884
1.20544
1.21549
1.21325
1.22582
1.22422
1.23665
1.23304
1.24441
1.23671
1.24601
1.23293
1.24302
1.22182
1.23249
1.20365
1.21756
1.18042
1.19506
1.15049
1.16546
1.11897
1.12444
1.07827
1.08355
1.03846
1.02934
1.00045
0.968886
0.918611
0.859301
0.78704
0.693696
0.599213
0.524111
0.453027
0.418538
0.374561
0.338839
0.314115
0.289244
0.274071
0.259302
0.257383
0.252345
0.264133
0.266069
0.272309
0.265083
0.253066
0.231687
0.203792
0.154122
0.126428
0.0842501
0.07774
0.0503402
1.29009
1.01228
0.836197
0.806063
0.849116
0.944227
1.05353
1.11939
1.12583
1.09717
1.03714
0.960047
0.919457
0.924449
0.961642
1.01958
1.07198
1.0933
1.09022
1.0827
1.06457
1.04424
1.03696
1.03721
1.04352
1.05053
1.05758
1.06373
1.06877
1.0684
1.06624
1.09274
1.08691
1.13551
1.17204
1.17978
1.18183
1.17741
1.1687
1.16134
1.15333
1.14587
1.13975
1.13422
1.13148
1.12517
1.1165
1.10923
1.10087
1.09513
1.08926
1.08751
1.08394
1.08403
1.08307
1.08274
1.08327
1.08424
1.08585
1.08731
1.08899
1.08693
1.08917
1.08591
1.0921
1.08904
1.10037
1.09821
1.11232
1.10552
1.11882
1.10606
1.1185
1.10025
1.11139
1.08535
1.09874
1.06886
1.08433
1.04873
1.06661
1.02624
1.04423
1.0027
1.01697
0.974864
0.970041
0.916911
0.882863
0.857957
0.84022
0.818409
0.79045
0.745606
0.68143
0.597278
0.526133
0.454988
0.42282
0.39031
0.351334
0.320064
0.291049
0.265969
0.249841
0.243943
0.235096
0.246933
0.248524
0.259686
0.259238
0.2548
0.238658
0.21682
0.172252
0.138849
0.0937717
0.0808481
0.0562847
0.94933
1.10147
1.2026
1.21276
1.16735
1.08565
1.00327
0.965607
0.969078
0.99166
1.02724
1.07492
1.10842
1.10549
1.08428
1.04908
1.01324
1.00194
1.00165
1.00959
1.02211
1.03472
1.04639
1.05651
1.06303
1.06658
1.06869
1.07043
1.0759
1.08035
1.09572
1.09273
1.03414
1.05574
1.03813
1.05074
1.03531
1.02241
1.01044
1.00332
0.997412
0.995008
0.993811
0.992192
0.992694
0.992335
0.988418
0.988007
0.986442
0.987921
0.985398
0.987459
0.984492
0.985509
0.983428
0.983204
0.982076
0.982046
0.980604
0.979652
0.973631
0.96893
0.952543
0.940952
0.915516
0.896498
0.867809
0.846954
0.827713
0.806428
0.798151
0.776756
0.777534
0.75767
0.766661
0.751737
0.770254
0.761715
0.788067
0.782439
0.811767
0.797253
0.817586
0.790449
0.802173
0.78111
0.786204
0.785109
0.767372
0.727136
0.697538
0.678931
0.660182
0.634467
0.612467
0.550373
0.491265
0.419316
0.389459
0.359853
0.324594
0.292708
0.264985
0.238156
0.220247
0.217456
0.209605
0.223585
0.230201
0.247588
0.252948
0.253221
0.241512
0.223809
0.183582
0.150809
0.102845
0.086342
0.0635732
1.11616
1.0292
0.969194
0.959815
0.975165
1.00903
1.04512
1.06297
1.06031
1.05393
1.03441
1.01217
1.00494
1.00928
1.02251
1.04076
1.05593
1.06027
1.05586
1.05106
1.04502
1.03913
1.03776
1.03907
1.04287
1.04743
1.05191
1.05693
1.06041
1.06068
1.09947
1.00498
0.95808
0.925244
0.900046
0.891837
0.881918
0.878938
0.878422
0.878074
0.874811
0.874901
0.872703
0.872589
0.871221
0.870998
0.864316
0.862638
0.858379
0.85434
0.849757
0.844344
0.838671
0.832007
0.824788
0.816813
0.807777
0.797222
0.78466
0.769288
0.749556
0.724868
0.693179
0.655006
0.617645
0.577512
0.542824
0.505405
0.476587
0.447749
0.429358
0.408756
0.400805
0.389651
0.393235
0.393406
0.409062
0.421348
0.449256
0.474253
0.511617
0.54301
0.576006
0.586223
0.598687
0.59144
0.5945
0.598342
0.608128
0.613706
0.610173
0.59861
0.568738
0.531356
0.50736
0.45856
0.413736
0.359539
0.328123
0.295931
0.273828
0.252144
0.233895
0.213533
0.196532
0.189741
0.188454
0.202716
0.214002
0.234208
0.244946
0.248824
0.240961
0.224452
0.189505
0.160651
0.111497
0.0927783
0.0710939
1.03019
1.07173
1.09429
1.09031
1.07728
1.04984
1.01555
0.999329
1.00296
1.01215
1.02186
1.03221
1.0425
1.04617
1.04401
1.03854
1.03345
1.03108
1.0309
1.03267
1.03579
1.03979
1.04473
1.04809
1.05058
1.05176
1.05272
1.05304
1.05454
1.04924
1.07995
0.91933
0.870634
0.826858
0.798473
0.77809
0.754254
0.740218
0.72865
0.722089
0.717484
0.714962
0.713123
0.71127
0.711457
0.70867
0.699661
0.694698
0.685353
0.677854
0.667683
0.657243
0.645017
0.631884
0.617443
0.601647
0.584543
0.565997
0.545978
0.525351
0.503559
0.479306
0.457044
0.429488
0.401609
0.372735
0.345743
0.317971
0.2957
0.2711
0.25233
0.232873
0.219737
0.210851
0.207055
0.208284
0.216089
0.228123
0.248826
0.274311
0.308405
0.349424
0.393043
0.428061
0.447161
0.460638
0.465472
0.475878
0.480336
0.491216
0.493936
0.490548
0.494127
0.480871
0.439998
0.394564
0.331279
0.297847
0.262257
0.243918
0.230978
0.215136
0.203858
0.191497
0.180055
0.174645
0.177019
0.186152
0.202706
0.22198
0.239554
0.243298
0.238292
0.227424
0.196256
0.170996
0.121083
0.101657
0.0805909
1.06924
1.03792
1.02385
1.01891
1.02491
1.03398
1.0416
1.043
1.03965
1.034
1.02802
1.02242
1.02209
1.02538
1.02972
1.03676
1.04314
1.04646
1.04721
1.04545
1.04454
1.04366
1.04247
1.04372
1.04422
1.04549
1.04684
1.04788
1.05199
1.04997
1.07335
0.879827
0.818074
0.755126
0.711173
0.678698
0.64742
0.619669
0.598168
0.583235
0.573922
0.568306
0.566221
0.563178
0.563263
0.559583
0.552563
0.546793
0.538521
0.530463
0.520406
0.510146
0.498452
0.486871
0.473741
0.461042
0.446238
0.432949
0.416643
0.402374
0.385058
0.370982
0.354441
0.335397
0.319156
0.297377
0.275043
0.249073
0.226338
0.204125
0.184603
0.166809
0.153876
0.144273
0.138675
0.137555
0.13757
0.143216
0.153056
0.171625
0.196438
0.233099
0.271604
0.319514
0.353959
0.380374
0.397189
0.411177
0.418259
0.423149
0.427299
0.426442
0.424163
0.417133
0.391001
0.349883
0.290386
0.25857
0.217786
0.216668
0.203602
0.189529
0.181096
0.172475
0.166054
0.165564
0.167263
0.177147
0.190841
0.21244
0.232682
0.241761
0.239464
0.231484
0.20496
0.181355
0.132249
0.112451
0.0906378
1.04775
1.04712
1.05133
1.04745
1.04418
1.03773
1.02804
1.02276
1.02059
1.02293
1.02433
1.02583
1.02823
1.03087
1.03366
1.03634
1.03983
1.0415
1.04406
1.04627
1.04774
1.04924
1.05084
1.05183
1.05161
1.05197
1.05014
1.04693
1.03947
1.032
1.02113
0.819334
0.722149
0.611805
0.557379
0.523398
0.494515
0.4752
0.462902
0.449772
0.440473
0.434915
0.431438
0.428122
0.426955
0.424739
0.420174
0.416264
0.411146
0.405782
0.399687
0.393438
0.386389
0.379956
0.372417
0.366009
0.358566
0.352188
0.346034
0.339737
0.336183
0.329546
0.327525
0.31387
0.296392
0.281467
0.260851
0.241941
0.219931
0.200166
0.180541
0.162505
0.149188
0.137073
0.131298
0.127378
0.128011
0.129236
0.133823
0.140683
0.152575
0.175827
0.206812
0.254162
0.29459
0.332788
0.359387
0.376127
0.388124
0.394897
0.399984
0.403469
0.404733
0.395548
0.377357
0.332384
0.275186
0.232643
0.203348
0.199146
0.185157
0.175717
0.170505
0.165403
0.162468
0.162207
0.165695
0.172342
0.18413
0.203222
0.224441
0.24247
0.243476
0.239251
0.218102
0.192691
0.146327
0.123425
0.101295
1.04883
1.03857
1.03541
1.03208
1.03295
1.03457
1.03457
1.03412
1.03318
1.03085
1.02872
1.02543
1.02592
1.02746
1.03021
1.03466
1.0401
1.04491
1.04791
1.05023
1.05086
1.05128
1.05152
1.04965
1.04706
1.0423
1.03585
1.02744
1.01476
1.01388
0.978937
0.758032
0.620318
0.513252
0.452048
0.40989
0.378389
0.360582
0.345963
0.337682
0.335044
0.334099
0.333847
0.333567
0.334805
0.333756
0.331338
0.329024
0.325247
0.321233
0.316889
0.312749
0.308293
0.305218
0.30127
0.299546
0.296917
0.297308
0.296849
0.300441
0.302516
0.309553
0.310661
0.318426
0.313602
0.311088
0.295052
0.280764
0.261831
0.244193
0.22617
0.2049
0.187726
0.168724
0.155167
0.145079
0.140012
0.137875
0.139809
0.143666
0.15396
0.16674
0.190743
0.230152
0.275417
0.316075
0.346539
0.364223
0.381068
0.388395
0.395178
0.39861
0.400888
0.394609
0.380383
0.333555
0.274853
0.226035
0.203409
0.194982
0.186072
0.179428
0.173912
0.168518
0.164812
0.163646
0.166283
0.172695
0.181115
0.201721
0.217691
0.245228
0.248335
0.249646
0.232572
0.20442
0.159142
0.133948
0.110973
1.04087
1.03687
1.03641
1.03486
1.03424
1.03284
1.03058
1.03
1.02953
1.02837
1.02869
1.02842
1.02848
1.02931
1.03122
1.03373
1.03791
1.04273
1.04737
1.05142
1.05469
1.05799
1.06001
1.061
1.06206
1.06253
1.06098
1.05916
1.05142
1.04816
0.886831
0.591544
0.449118
0.36732
0.324711
0.297642
0.283531
0.277902
0.277625
0.278193
0.280789
0.28359
0.283357
0.282351
0.281089
0.278484
0.275594
0.272268
0.268731
0.264471
0.260938
0.257421
0.254453
0.252785
0.251541
0.252255
0.253395
0.257306
0.261161
0.269229
0.276716
0.290614
0.300757
0.314459
0.319577
0.327864
0.329259
0.328442
0.323318
0.310614
0.29697
0.278758
0.260958
0.238413
0.219258
0.199962
0.185638
0.177095
0.173231
0.174096
0.179749
0.189015
0.208197
0.237881
0.28061
0.323565
0.358419
0.375131
0.392468
0.399409
0.406998
0.412268
0.416863
0.413407
0.40254
0.356983
0.292978
0.239096
0.213815
0.202548
0.195127
0.189913
0.18359
0.17729
0.171153
0.168834
0.169758
0.174889
0.182025
0.199513
0.21742
0.248281
0.255274
0.260674
0.245968
0.216457
0.172212
0.145494
0.121237
1.03959
1.03371
1.03183
1.0302
1.03025
1.03069
1.03105
1.03184
1.03151
1.03125
1.03095
1.02958
1.0287
1.02965
1.03131
1.03407
1.03786
1.0428
1.04809
1.05304
1.05701
1.05873
1.05897
1.05655
1.04892
1.03379
1.00616
0.958548
0.884299
0.729663
0.636123
0.551505
0.486719
0.424049
0.380926
0.339859
0.316803
0.303306
0.296889
0.288787
0.277002
0.266117
0.258552
0.251413
0.245167
0.239596
0.234216
0.230028
0.226388
0.223088
0.220751
0.218884
0.217868
0.217967
0.218616
0.220761
0.223044
0.227402
0.232369
0.239707
0.247921
0.261087
0.277301
0.298733
0.321352
0.340502
0.359153
0.369631
0.377827
0.381994
0.37787
0.365666
0.353681
0.334871
0.316753
0.292766
0.273372
0.256596
0.245272
0.239083
0.237601
0.242735
0.254986
0.276566
0.31194
0.3572
0.397523
0.418847
0.43662
0.446469
0.454731
0.463012
0.470881
0.469283
0.460649
0.416438
0.343888
0.278284
0.244588
0.227438
0.219466
0.213878
0.205205
0.195647
0.185874
0.179523
0.177694
0.179832
0.185617
0.199748
0.216913
0.248614
0.262243
0.271037
0.256893
0.231349
0.186444
0.159032
0.131572
1.03612
1.03145
1.02999
1.0291
1.02852
1.02872
1.02894
1.03001
1.03092
1.0319
1.0328
1.03251
1.03256
1.03308
1.03448
1.03682
1.03932
1.0433
1.04821
1.0536
1.05964
1.06486
1.0707
1.07789
1.08679
1.10082
1.12486
1.16458
1.23058
1.34462
1.27339
1.04661
0.86042
0.689612
0.569066
0.47453
0.403503
0.349047
0.300756
0.273585
0.2538
0.240496
0.232538
0.227864
0.22381
0.220669
0.217852
0.215539
0.213464
0.211814
0.21091
0.210974
0.21205
0.213642
0.216408
0.219261
0.223442
0.227949
0.234127
0.242444
0.252053
0.264996
0.277996
0.295279
0.313701
0.336096
0.361281
0.390473
0.41443
0.435472
0.447702
0.453952
0.450475
0.438778
0.427118
0.409084
0.391374
0.368748
0.350804
0.337887
0.330293
0.326594
0.33032
0.342609
0.368063
0.407463
0.45838
0.493046
0.52148
0.536476
0.549746
0.560068
0.576011
0.583635
0.576649
0.531424
0.437979
0.352521
0.299356
0.272471
0.258854
0.24969
0.236717
0.222295
0.207413
0.195346
0.189205
0.188346
0.191193
0.202389
0.218543
0.246997
0.269775
0.280847
0.268815
0.247048
0.202815
0.173049
0.142337
1.03428
1.03038
1.02929
1.02781
1.02736
1.02748
1.02851
1.03011
1.03179
1.03285
1.03367
1.03453
1.03434
1.03452
1.03576
1.03827
1.04094
1.04514
1.04995
1.05517
1.06113
1.06698
1.07176
1.07764
1.08617
1.09417
1.10079
1.10339
1.11173
1.11593
1.22731
1.07742
0.959102
0.853329
0.717972
0.581592
0.491146
0.421866
0.382268
0.356469
0.336781
0.328491
0.325743
0.323349
0.320486
0.315976
0.311003
0.304536
0.299573
0.2951
0.29173
0.289891
0.288959
0.289306
0.290349
0.291954
0.293654
0.296174
0.299934
0.304589
0.311773
0.320132
0.331483
0.344055
0.360017
0.376864
0.395052
0.418439
0.441551
0.469928
0.493797
0.518115
0.528999
0.534391
0.529377
0.520435
0.508039
0.492096
0.47347
0.458508
0.447722
0.44341
0.438561
0.4375
0.44618
0.471861
0.514722
0.574722
0.62743
0.66258
0.683694
0.69244
0.692697
0.69703
0.695678
0.664216
0.563837
0.45357
0.375479
0.33416
0.309955
0.295094
0.276912
0.256759
0.235142
0.217647
0.204803
0.199589
0.198497
0.206108
0.220094
0.246391
0.274093
0.292674
0.283326
0.265526
0.218033
0.193974
0.153212
1.03206
1.02869
1.02802
1.02686
1.02651
1.02683
1.02785
1.02941
1.03132
1.03291
1.03427
1.03588
1.03747
1.03823
1.03942
1.04134
1.04475
1.04879
1.05378
1.05938
1.06529
1.07193
1.07932
1.08839
1.10151
1.11685
1.13413
1.15555
1.17855
1.20285
1.29044
1.14837
1.11603
1.05939
0.975739
0.897859
0.813791
0.732832
0.65406
0.585473
0.533313
0.494413
0.469586
0.454569
0.444938
0.438738
0.433161
0.43105
0.427011
0.424576
0.420603
0.416035
0.409603
0.403051
0.396729
0.392574
0.390846
0.391619
0.395359
0.402237
0.413012
0.424781
0.439368
0.453882
0.469671
0.484629
0.498766
0.512684
0.528104
0.544929
0.563445
0.583017
0.59717
0.609757
0.614171
0.61269
0.605883
0.60326
0.593485
0.580381
0.568148
0.558499
0.55603
0.554119
0.558376
0.569251
0.590261
0.635458
0.680628
0.733744
0.776167
0.806942
0.82425
0.830236
0.816106
0.776421
0.685174
0.577984
0.469572
0.40595
0.366089
0.340524
0.316666
0.292368
0.266399
0.244258
0.224444
0.212988
0.208712
0.211423
0.223026
0.247941
0.278162
0.303225
0.298638
0.283526
0.238062
0.214029
0.164705
1.03059
1.02774
1.02704
1.02721
1.02693
1.02716
1.02824
1.02972
1.03141
1.03277
1.03455
1.03626
1.03787
1.03983
1.04196
1.04439
1.04808
1.05191
1.0575
1.06327
1.06943
1.07715
1.08631
1.09633
1.1099
1.12381
1.13617
1.14555
1.15275
1.1634
1.25078
1.11923
1.13219
1.1152
1.09713
1.08702
1.06405
1.04341
0.998989
0.984461
0.931907
0.919221
0.903856
0.889853
0.873141
0.862722
0.858465
0.860902
0.858152
0.858636
0.852668
0.848343
0.842254
0.83725
0.834842
0.832558
0.829581
0.820702
0.807137
0.788822
0.768668
0.745327
0.726982
0.712751
0.700842
0.695366
0.693115
0.689954