/*--------------------------------*- C++ -*----------------------------------*\
| =========                 |                                                 |
| \\      /  F ield         | OpenFOAM: The Open Source CFD Toolbox           |
|  \\    /   O peration     | Version:  2.2.x                                 |
|   \\  /    A nd           | Web:      www.OpenFOAM.org                      |
|    \\/     M anipulation  |                                                 |
\*---------------------------------------------------------------------------*/
FoamFile
{
    version     2.0;
    format      ascii;
    class       volScalarField;
    location    "0.85";
    object      T;
}
// * * * * * * * * * * * * * * * * * * * * * * * * * * * * * * * * * * * * * //

dimensions      [0 0 0 1 0 0 0];

internalField   nonuniform List<scalar> 
14161
(
1
1
1
1
1
1
1
1
1
1
1
1
1
1
1
1
1
1
1
1
1
1
1
1
1
1
1
1
1
1
1
1
1
1
1
1
1
1
1
1
1.00001
1.00008
0.999964
0.957062
4.75709
10.3666
11.9973
12.3265
12.4129
12.4495
12.4695
12.4837
12.4934
12.5045
12.5241
12.5477
12.5674
12.5854
12.6021
12.6123
12.625
12.648
12.6749
12.6951
12.7117
12.7214
12.7262
12.7374
12.7597
12.7821
12.7997
12.8111
12.8107
12.8162
12.8318
12.8535
12.8711
12.8849
12.8883
12.8965
12.9157
12.9426
12.9659
12.9853
12.9933
13.0032
13.0204
13.0371
13.0442
13.0405
13.0288
13.0244
13.0357
13.0522
13.0669
13.0779
13.0862
13.1013
13.1206
13.1384
13.1518
13.1614
13.1727
13.1855
13.1966
13.2052
13.2141
13.2266
13.2412
13.254
13.2653
13.2764
13.2911
13.304
13.3124
13.3198
13.3269
13.3313
13.3347
1
1
1
1
1
1
1
1
1
1
1
1
1
1
1
1
1
1
1
1
1
1
1
1
1
1
1
1
1
1
1
1
1
1
1
1
1
1
1
1
1.00001
1.00008
0.999946
0.956879
4.74806
10.367
12.0041
12.3343
12.4206
12.4561
12.475
12.4885
12.498
12.5097
12.5302
12.5537
12.5734
12.5916
12.6077
12.6174
12.6302
12.6533
12.6796
12.6991
12.7148
12.7235
12.728
12.7392
12.7614
12.7831
12.8003
12.8116
12.8117
12.8176
12.8332
12.8546
12.8718
12.8853
12.8895
12.8975
12.9164
12.9428
12.9656
12.9841
12.992
13.0008
13.0164
13.0323
13.0392
13.0363
13.0259
13.0222
13.0332
13.0495
13.0644
13.0761
13.0857
13.1019
13.1213
13.1383
13.1512
13.1606
13.1726
13.1858
13.1973
13.2059
13.2145
13.2268
13.2414
13.2542
13.2642
13.2749
13.2884
13.301
13.3105
13.3181
13.3251
13.3305
13.3339
1
1
1
1
1
1
1
1
1
1
1
1
1
1
1
1
1
1
1
1
1
1
1
1
1
1
1
1
1
1
1
1
1
1
1
1
1
1
1
1
1.00001
1.00006
0.999556
0.946403
4.67674
10.3437
11.9954
12.3296
12.4171
12.4525
12.4711
12.4845
12.4945
12.5076
12.5295
12.5524
12.5719
12.59
12.6055
12.6154
12.6289
12.6529
12.6782
12.697
12.712
12.7198
12.7249
12.7367
12.7593
12.7801
12.7967
12.808
12.8089
12.8152
12.8308
12.8515
12.868
12.8813
12.8866
12.8951
12.9135
12.9397
12.9625
12.9812
12.9912
13.0002
13.0147
13.0287
13.035
13.0327
13.0243
13.0219
13.0323
13.0467
13.0599
13.0712
13.0836
13.1021
13.1217
13.1379
13.1491
13.1581
13.1714
13.1863
13.199
13.2072
13.2145
13.226
13.2402
13.2527
13.2619
13.2724
13.285
13.2968
13.3063
13.3139
13.3204
13.3256
13.3273
1
1
1
1
1
1
1
1
1
1
1
1
1
1
1
1
1
1
1
1
1
1
1
1
1
1
1
1
1
1
1
1
1
1
1
1
1
1
1
1
1.00001
1.00003
0.998958
0.929652
4.56531
10.3067
11.9786
12.3201
12.4103
12.4463
12.4653
12.4791
12.4899
12.5052
12.5282
12.5498
12.5684
12.5858
12.6007
12.6109
12.6253
12.6504
12.6745
12.6927
12.7074
12.7143
12.7203
12.7333
12.7561
12.7759
12.7917
12.8025
12.8041
12.8105
12.8259
12.8456
12.8614
12.8745
12.8809
12.8898
12.9081
12.9337
12.9563
12.9753
12.9864
12.996
13.0092
13.0217
13.0273
13.0252
13.0198
13.0202
13.031
13.0446
13.0573
13.0671
13.0824
13.1042
13.1246
13.1406
13.1498
13.1584
13.1722
13.1878
13.2003
13.2075
13.214
13.2249
13.2384
13.2503
13.2586
13.2691
13.2815
13.2926
13.3015
13.3096
13.3165
13.3213
13.3222
1
1
1
1
1
1
1
1
1
1
1
1
1
1
1
1
1
1
1
1
1
1
1
1
1
1
1
1
1
1
1
1
1
1
1
1
1
1
1
1
1
1
0.99854
0.918864
4.46881
10.2801
11.9727
12.3197
12.4119
12.4484
12.4676
12.4812
12.4924
12.5084
12.5316
12.5532
12.5716
12.5885
12.6019
12.6119
12.6269
12.6527
12.6766
12.6949
12.7095
12.7148
12.7205
12.7339
12.7568
12.7764
12.7918
12.8016
12.8031
12.8093
12.825
12.8444
12.8597
12.872
12.8784
12.8879
12.9069
12.9326
12.9544
12.9722
12.9822
12.9915
13.0041
13.0139
13.0179
13.0151
13.0127
13.0178
13.0302
13.0431
13.0556
13.0642
13.08
13.1026
13.1236
13.1393
13.1468
13.1554
13.1696
13.1855
13.1975
13.204
13.2108
13.2223
13.2358
13.2465
13.2542
13.265
13.2773
13.2879
13.2957
13.3033
13.3097
13.3139
13.3124
1
1
1
1
1
1
1
1
1
1
1
1
1
1
1
1
1
1
1
1
1
1
1
1
1
1
1
1
1
1
1
1
1
1
1
1
1
1
1
1
0.999999
0.999956
0.99786
0.902774
4.31023
10.2351
11.9662
12.3212
12.4145
12.4504
12.4686
12.4811
12.492
12.5084
12.5316
12.5527
12.5705
12.5869
12.5986
12.6078
12.6237
12.6503
12.6739
12.692
12.7064
12.7108
12.7168
12.7308
12.754
12.7729
12.7875
12.796
12.7974
12.8042
12.8208
12.8396
12.8548
12.8668
12.8729
12.8835
12.9038
12.9295
12.9501
12.9646
12.9725
12.9822
12.9945
13.0026
13.006
13.0036
13.0026
13.0112
13.027
13.0418
13.0541
13.0614
13.0767
13.0978
13.1177
13.1329
13.1402
13.1497
13.1643
13.1796
13.1913
13.1972
13.2052
13.2176
13.2312
13.2412
13.2482
13.2591
13.2716
13.2819
13.2893
13.2958
13.3011
13.305
13.3041
1
1
1
1
1
1
1
1
1
1
1
1
1
1
1
1
1
1
1
1
1
1
1
1
1
1
1
1
1
1
1
1
1
1
1
1
1
1
1
0.999993
0.999972
1.00002
0.997842
0.881757
4.08343
10.1652
11.9447
12.3113
12.4078
12.4437
12.461
12.473
12.4836
12.5007
12.5241
12.5447
12.562
12.5777
12.5886
12.5975
12.6146
12.6417
12.6645
12.6822
12.696
12.6997
12.7068
12.7221
12.7454
12.7637
12.7778
12.7853
12.7877
12.7963
12.8148
12.833
12.849
12.8612
12.8663
12.8781
12.8998
12.9232
12.9408
12.9509
12.9564
12.9669
12.9814
12.9906
12.9958
12.9944
12.9937
13.0029
13.0213
13.039
13.0522
13.0588
13.0736
13.0937
13.1125
13.1266
13.1338
13.144
13.1586
13.1729
13.1833
13.1885
13.1975
13.2109
13.2246
13.2345
13.2411
13.2514
13.2638
13.2745
13.2821
13.2875
13.291
13.2935
13.2911
1
1
1
1
1
1
1
1
1
1
1
1
1
1
1
1
1
1
1
1
1
1
1
1
1
1
1
1
1
1
1
1
1
1
1
1
1
1
0.999995
0.99993
0.999647
1.00231
1.02109
0.873073
3.85497
10.1005
11.9302
12.3083
12.4068
12.4431
12.4595
12.4702
12.4804
12.4987
12.5225
12.5418
12.5581
12.5727
12.5798
12.5887
12.6071
12.6343
12.656
12.6738
12.6871
12.6896
12.6988
12.7169
12.7409
12.7603
12.7758
12.7808
12.7842
12.7941
12.8144
12.832
12.8464
12.8543
12.8571
12.869
12.8927
12.9133
12.9284
12.9355
12.939
12.9503
12.969
12.9833
12.9921
12.991
12.9909
12.9992
13.0177
13.0367
13.051
13.0581
13.072
13.0909
13.1082
13.1209
13.1278
13.1376
13.1518
13.1653
13.1745
13.1793
13.1892
13.2032
13.2171
13.2269
13.2337
13.2431
13.2548
13.2657
13.2731
13.2777
13.28
13.2807
13.2773
1
1
1
1
1
1
1
1
1
1
1
1
1
1
1
1
1
1
1
1
1
1
1
1
1
1
1
1
1
1
1
1
1
1
1
1
1
1
0.999993
0.999887
0.999482
1.00362
1.02537
0.838706
3.5491
10.0127
11.9146
12.3087
12.4093
12.4446
12.4597
12.4687
12.4788
12.4979
12.5205
12.5379
12.5532
12.5669
12.5732
12.5831
12.6043
12.6322
12.6535
12.6713
12.6833
12.6865
12.6967
12.7169
12.7392
12.7571
12.7713
12.7717
12.7749
12.7872
12.8088
12.8247
12.837
12.8408
12.8418
12.8547
12.8805
12.9008
12.9153
12.9202
12.9224
12.934
12.9552
12.974
12.9864
12.9884
12.9894
12.9983
13.018
13.038
13.0518
13.0582
13.0711
13.0888
13.1048
13.1164
13.1226
13.132
13.1453
13.1576
13.1662
13.1713
13.1814
13.1953
13.2088
13.2186
13.2257
13.2345
13.2454
13.2557
13.2625
13.2664
13.2679
13.2666
13.2616
1
1
1
1
1
1
1
1
1
1
1
1
1
1
1
1
1
1
1
1
1
1
1
1
1
1
1
1
1
1
1
1
1
1
1
1
1
1
1
1.00002
1.0003
1.00381
1.01795
0.790396
3.14638
9.89049
11.8835
12.2986
12.4019
12.4357
12.4498
12.4591
12.4717
12.493
12.5147
12.5319
12.5473
12.5603
12.5672
12.5788
12.6024
12.6292
12.6491
12.6648
12.6726
12.6753
12.6864
12.7096
12.7301
12.7466
12.7585
12.7562
12.7591
12.7741
12.7964
12.812
12.8231
12.823
12.8249
12.8385
12.8648
12.887
12.9035
12.9093
12.9121
12.924
12.9444
12.9639
12.9782
12.9835
12.9866
12.9981
13.0187
13.0379
13.0509
13.0564
13.068
13.0849
13.1008
13.112
13.1177
13.1259
13.138
13.1503
13.1597
13.1653
13.1746
13.1871
13.1998
13.2098
13.2175
13.2258
13.2358
13.2448
13.2508
13.2538
13.2537
13.2509
13.245
1
1
1
1
1
1
1
1
1
1
1
1
1
1
1
1
1
1
1
1
1
1
1
1
1
1
1
1
1
1
1
1
1
1
1
1
1
1
1
1
1.00013
1.00263
1.00653
0.74745
2.67061
9.74882
11.8489
12.2874
12.394
12.4269
12.4412
12.4519
12.468
12.4913
12.5122
12.5288
12.5435
12.5533
12.5587
12.5701
12.5947
12.6189
12.6363
12.6495
12.6547
12.6567
12.6681
12.6925
12.7131
12.7295
12.7413
12.7381
12.7417
12.7564
12.78
12.797
12.8097
12.812
12.8139
12.8249
12.85
12.8733
12.8921
12.9023
12.9067
12.9187
12.9381
12.9577
12.9729
12.98
12.9853
12.9982
13.0187
13.0365
13.0481
13.0529
13.0633
13.0795
13.0955
13.1072
13.1131
13.1199
13.1308
13.1437
13.1542
13.1608
13.1682
13.1786
13.1905
13.2008
13.209
13.2167
13.2251
13.2325
13.2381
13.2399
13.2382
13.2342
13.2281
1
1
1
1
1
1
1
1
1
1
1
1
1
1
1
1
1
1
1
1
1
1
1
1
1
1
1
1
1
1
1
1
1
1
1
1
1
1
1
0.999993
0.999872
0.998958
0.980968
0.720127
2.19945
9.62546
11.8062
12.2783
12.3903
12.4213
12.4326
12.4416
12.4578
12.4802
12.4989
12.5138
12.5269
12.5352
12.5402
12.5525
12.5774
12.6011
12.6183
12.631
12.6356
12.6383
12.6484
12.6708
12.6921
12.7099
12.7247
12.727
12.7321
12.7427
12.7647
12.7833
12.7981
12.8065
12.8096
12.8192
12.8407
12.8629
12.8811
12.895
12.9027
12.9158
12.9352
12.9545
12.9697
12.9779
12.9847
12.9982
13.0172
13.033
13.0434
13.0479
13.058
13.0737
13.0893
13.1011
13.108
13.1143
13.1244
13.1374
13.1484
13.1555
13.1613
13.1701
13.1814
13.1919
13.1999
13.207
13.2138
13.2194
13.2241
13.2251
13.2218
13.2165
13.2089
1
1
1
1
1
1
1
1
1
1
1
1
1
1
1
1
1
1
1
1
1
1
1
1
1
1
1
1
1
1
1
1
1
1
1
1
1
1
1
0.999993
0.999852
0.998295
0.984014
0.771141
1.71847
9.51871
11.732
12.2547
12.3696
12.3978
12.4075
12.4167
12.4329
12.4554
12.476
12.4926
12.5072
12.5179
12.5247
12.5362
12.5599
12.5851
12.6039
12.6182
12.6246
12.6281
12.6387
12.6595
12.6792
12.6965
12.7118
12.722
12.7292
12.7396
12.758
12.7757
12.7903
12.8024
12.8098
12.8207
12.8384
12.8586
12.8762
12.8919
12.902
12.9152
12.9337
12.9519
12.9661
12.9751
12.9824
12.9951
13.0113
13.0253
13.0349
13.0402
13.0511
13.0669
13.0819
13.0935
13.1013
13.1079
13.1179
13.1305
13.1411
13.1484
13.1538
13.1616
13.1721
13.1824
13.1899
13.1963
13.2019
13.2061
13.2093
13.2093
13.2038
13.1973
13.1873
1
1
1
1
1
1
1
1
1
1
1
1
1
1
1
1
1
1
1
1
1
1
1
1
1
1
1
1
1
1
1
1
1
1
1
1
1
1
1
1
1.00008
1.00075
0.993237
0.804346
1.04232
9.33268
11.6151
12.216
12.3467
12.3826
12.3971
12.4093
12.4241
12.4444
12.4665
12.4855
12.5019
12.5155
12.5254
12.5352
12.5497
12.5724
12.595
12.613
12.6272
12.6332
12.6406
12.6542
12.6739
12.6919
12.7083
12.7213
12.729
12.7402
12.7576
12.7758
12.7912
12.8049
12.8146
12.8246
12.8402
12.8603
12.8778
12.8937
12.9053
12.9174
12.934
12.9509
12.9637
12.972
12.9784
12.989
13.0021
13.0138
13.023
13.0289
13.0403
13.0562
13.0709
13.0824
13.0908
13.0982
13.1084
13.1207
13.1315
13.1392
13.1449
13.1523
13.1622
13.1718
13.1787
13.1841
13.1884
13.1918
13.1936
13.1913
13.1837
13.1765
13.1648
1
1
1
1
1
1
1
1
1
1
1
1
1
1
1
1
1
1
1
1
1
1
1
1
1
1
1
1
1
1
1
1
1
1
1
1
1
1
1
1.00004
1.00055
1.00246
0.988619
0.851907
1.23684
9.03348
11.4409
12.1583
12.3171
12.3693
12.3921
12.4068
12.4222
12.443
12.4668
12.4857
12.5016
12.516
12.5254
12.536
12.5521
12.5768
12.6002
12.6191
12.6333
12.6395
12.6451
12.6569
12.6773
12.6965
12.7137
12.7274
12.7345
12.745
12.7624
12.7812
12.7971
12.8109
12.8191
12.8275
12.843
12.8636
12.8807
12.8953
12.9053
12.9153
12.93
12.9466
12.9588
12.9663
12.971
12.9787
12.9893
13.0001
13.01
13.0175
13.0285
13.043
13.057
13.0688
13.0783
13.0871
13.0977
13.1092
13.1191
13.1268
13.1338
13.142
13.1513
13.1594
13.1654
13.1697
13.1733
13.1753
13.1762
13.1715
13.1621
13.1543
13.1407
1
1
1
1
1
1
1
1
1
1
1
1
1
1
1
1
1
1
1
1
1
1
1
1
1
1
1
1
1
1
1
1
1
1
1
1
1
1
1
1
1.00002
1.00007
0.99943
0.97392
1.55683
8.56602
11.3267
12.1517
12.3327
12.3916
12.4135
12.4255
12.4374
12.4564
12.4778
12.4941
12.5084
12.5211
12.5277
12.5365
12.5537
12.5788
12.6003
12.6178
12.631
12.6352
12.641
12.6544
12.6752
12.6935
12.7105
12.7234
12.7311
12.7421
12.7606
12.7788
12.7942
12.807
12.8135
12.8227
12.8393
12.8587
12.8741
12.8868
12.8933
12.9018
12.9166
12.9337
12.9462
12.9539
12.9574
12.9644
12.9755
12.9878
12.9984
13.0069
13.0161
13.0288
13.043
13.056
13.0671
13.0771
13.0868
13.0963
13.1056
13.1142
13.1228
13.1312
13.139
13.1458
13.151
13.1543
13.1567
13.1571
13.1567
13.1501
13.139
13.1303
13.1148
1
1
1
1
1
1
1
1
1
1
1
1
1
1
1
1
1
1
1
1
1
1
1
1
1
1
1
1
1
1
1
1
1
1
1
1
1
1
1
1
1
1.00006
1.00104
1.02194
1.5681
7.7986
11.1436
12.1219
12.3276
12.3882
12.4088
12.4196
12.4308
12.4493
12.4688
12.4839
12.497
12.5083
12.5139
12.5228
12.5409
12.5647
12.5839
12.5999
12.6118
12.6161
12.6232
12.6382
12.6584
12.6753
12.6909
12.7022
12.7107
12.7236
12.7432
12.7607
12.775
12.7861
12.7923
12.8029
12.8215
12.8395
12.8536
12.8641
12.8675
12.8766
12.8931
12.9121
12.9266
12.9364
12.9408
12.9496
12.9631
12.9775
12.9889
12.9968
13.0041
13.0164
13.0314
13.0454
13.0571
13.0659
13.0741
13.0836
13.0939
13.1031
13.1112
13.1179
13.1252
13.132
13.1363
13.1374
13.1381
13.1374
13.1356
13.1273
13.1148
13.1048
13.0873
1
1
1
1
1
1
1
1
1
1
1
1
1
1
1
1
1
1
1
1
1
1
1
1
1
1
1
1
1
1
1
1
1
1
1
1
1
1
1
1
1
1.00004
1.0006
1.0103
1.31261
6.84044
10.8985
12.0594
12.2906
12.3528
12.3736
12.3862
12.4017
12.4221
12.4403
12.4551
12.4678
12.4771
12.4842
12.4965
12.517
12.5373
12.554
12.5682
12.5786
12.585
12.5964
12.6151
12.6326
12.6481
12.6625
12.6724
12.6831
12.7003
12.7221
12.7392
12.7534
12.7628
12.7707
12.784
12.8045
12.8214
12.8338
12.8407
12.8448
12.8551
12.8733
12.892
12.9071
12.917
12.9226
12.9335
12.9492
12.9645
12.9769
12.9841
12.9918
13.0054
13.0213
13.0352
13.0459
13.0525
13.0615
13.0724
13.0827
13.091
13.0969
13.1033
13.1114
13.118
13.1205
13.1187
13.118
13.1162
13.1134
13.1027
13.0891
13.0776
13.0581
1
1
1
1
1
1
1
1
1
1
1
1
1
1
1
1
1
1
1
1
1
1
1
1
1
1
1
1
1
1
1
1
1
1
1
1
1
1
1
1
1
1.00001
1.00012
0.999602
1.04543
5.74673
10.6107
11.9859
12.2593
12.3264
12.3497
12.3678
12.3885
12.4074
12.4228
12.4361
12.4466
12.4534
12.4635
12.4817
12.5006
12.5162
12.5299
12.5406
12.548
12.5595
12.5793
12.598
12.6131
12.6268
12.6351
12.6456
12.6601
12.6826
12.7035
12.7204
12.7334
12.7405
12.7512
12.7692
12.7887
12.8036
12.8139
12.8169
12.8231
12.8361
12.8554
12.873
12.8872
12.8952
12.9043
12.9187
12.9356
12.9504
12.9619
12.9679
12.9782
12.9938
13.0097
13.0229
13.0315
13.0382
13.0485
13.0605
13.0703
13.0762
13.0814
13.0886
13.0971
13.102
13.1021
13.099
13.0972
13.0937
13.0893
13.076
13.0615
13.0486
13.0273
1
1
1
1
1
1
1
1
1
1
1
1
1
1
1
1
1
1
1
1
1
1
1
1
1
1
1
1
1
1
1
1
1
1
1
1
1
1
1
1
1
0.999995
0.999786
0.990338
0.874764
4.43399
10.2591
11.9137
12.2403
12.3083
12.3319
12.3513
12.3682
12.3828
12.3959
12.4076
12.4126
12.423
12.4421
12.4624
12.4777
12.4906
12.501
12.5052
12.5143
12.5354
12.5592
12.5772
12.5923
12.5997
12.6044
12.6163
12.6377
12.6637
12.6847
12.7019
12.7094
12.7181
12.7314
12.7531
12.772
12.7865
12.7941
12.7973
12.8045
12.8208
12.8395
12.8557
12.8675
12.8749
12.8873
12.9047
12.9213
12.9349
12.9429
12.9501
12.9635
12.9807
12.9961
13.0076
13.0133
13.0222
13.0344
13.0474
13.0558
13.0587
13.0651
13.0731
13.0813
13.0828
13.0815
13.078
13.0751
13.0691
13.0628
13.0472
13.0322
13.0182
12.9951
1
1
1
1
1
1
1
1
1
1
1
1
1
1
1
1
1
1
1
1
1
1
1
1
1
1
1
1
1
1
1
1
1
1
1
1
1
1
1
1
1
1.00003
1.00151
0.984496
0.715709
2.78321
9.80939
11.8221
12.2112
12.2848
12.3065
12.3214
12.3358
12.3496
12.3633
12.3746
12.382
12.3928
12.4119
12.4311
12.4465
12.4598
12.4674
12.4732
12.4843
12.506
12.5275
12.5453
12.5603
12.5642
12.5705
12.5846
12.6088
12.6334
12.655
12.6703
12.6738
12.6871
12.7073
12.7319
12.7521
12.7686
12.7739
12.7794
12.7894
12.8085
12.8258
12.84
12.848
12.8568
12.872
12.8911
12.9065
12.9178
12.9231
12.9331
12.9489
12.9657
12.9788
12.9869
12.9935
13.0046
13.019
13.0317
13.0375
13.0402
13.0481
13.0564
13.0625
13.0615
13.0596
13.0552
13.0519
13.0431
13.0343
13.0168
13.0013
12.9861
12.9606
1
1
1
1
1
1
1
1
1
1
1
1
1
1
1
1
1
1
1
1
1
1
1
1
1
1
1
1
1
1
1
1
1
1
1
1
1
1
1
1
0.999997
0.999877
0.998921
0.993599
0.821739
0.88607
9.33888
11.6776
12.168
12.2642
12.2867
12.2979
12.3093
12.3262
12.346
12.362
12.3752
12.3864
12.3928
12.4022
12.4169
12.4357
12.4504
12.4631
12.4736
12.4817
12.4932
12.509
12.5245
12.5367
12.5499
12.5645
12.5797
12.5952
12.6124
12.627
12.6363
12.6524
12.6762
12.7012
12.7236
12.7398
12.7467
12.7571
12.774
12.7935
12.81
12.8228
12.83
12.8413
12.8588
12.8771
12.8907
12.8985
12.905
12.9173
12.9341
12.949
12.9592
12.9636
12.9732
12.9868
13.0019
13.0121
13.0152
13.0206
13.0293
13.0374
13.0403
13.0382
13.0367
13.0314
13.027
13.0158
13.0045
12.9849
12.9689
12.9522
12.9242
1
1
1
1
1
1
1
1
1
1
1
1
1
1
1
1
1
1
1
1
1
1
1
1
1
1
1
1
1
1
1
1
1
1
1
1
1
1
1
1
1.00002
1.00026
1.00171
1.00035
0.920868
1.09624
8.7562
11.3498
12.062
12.2181
12.2667
12.2878
12.3033
12.3229
12.3428
12.3584
12.372
12.3833
12.3891
12.3957
12.4094
12.426
12.4401
12.4525
12.462
12.4684
12.4751
12.4887
12.5057
12.5195
12.5318
12.5415
12.5506
12.5622
12.5774
12.5934
12.6102
12.6274
12.6439
12.6626
12.6815
12.6962
12.7094
12.726
12.7473
12.7679
12.7863
12.7975
12.8097
12.8254
12.8455
12.863
12.8752
12.8802
12.8887
12.9028
12.9183
12.93
12.9365
12.9425
12.9538
12.9687
12.9818
12.9892
12.9924
12.9999
13.0101
13.0147
13.0151
13.0132
13.0124
13.0062
13
12.9871
12.9735
12.9517
12.9349
12.9163
12.8858
1
1
1
1
1
1
1
1
1
1
1
1
1
1
1
1
1
1
1
1
1
1
1
1
1
1
1
1
1
1
1
1
1
1
1
1
1
1
1
1
1
1.00001
1.00009
1.00053
1.0065
1.26408
7.56449
11.0354
12.0192
12.221
12.2727
12.2903
12.304
12.323
12.3404
12.3541
12.3661
12.3756
12.3806
12.3898
12.4073
12.4247
12.4387
12.4509
12.4592
12.4639
12.4715
12.4879
12.5046
12.5182
12.5288
12.5317
12.5365
12.5455
12.5611
12.576
12.5893
12.6013
12.6117
12.624
12.6401
12.6583
12.6782
12.6978
12.7155
12.7325
12.7483
12.7627
12.7808
12.8039
12.8272
12.8456
12.8566
12.8637
12.8737
12.8883
12.9016
12.9104
12.9144
12.9227
12.9356
12.9491
12.9586
12.9641
12.9707
12.9789
12.9877
12.9887
12.9882
12.987
12.9871
12.9792
12.9705
12.957
12.9412
12.9173
12.899
12.879
12.8464
1
1
1
1
1
1
1
1
1
1
1
1
1
1
1
1
1
1
1
1
1
1
1
1
1
1
1
1
1
1
1
1
1
1
1
1
1
1
1
1
1
1
1.00001
1.00008
0.994908
0.992222
5.75111
10.5558
11.9172
12.1797
12.2379
12.2577
12.2754
12.2925
12.3076
12.3213
12.3337
12.3432
12.3505
12.363
12.3833
12.4017
12.4176
12.4322
12.4407
12.4489
12.461
12.4796
12.4956
12.5091
12.5185
12.521
12.5264
12.5382
12.5546
12.568
12.5787
12.5848
12.5897
12.5993
12.6164
12.634
12.6508
12.6655
12.678
12.689
12.7025
12.7218
12.7468
12.7745
12.8009
12.8212
12.8329
12.8455
12.8592
12.8732
12.8839
12.8899
12.8951
12.9045
12.9171
12.9268
12.9342
12.9403
12.949
12.9582
12.9616
12.96
12.9617
12.961
12.9608
12.9504
12.9395
12.9255
12.9072
12.8813
12.8613
12.8407
12.8056
1
1
1
1
1
1
1
1
1
1
1
1
1
1
1
1
1
1
1
1
1
1
1
1
1
1
1
1
1
1
1
1
1
1
1
1
1
1
1
1
1
1.00001
1.00014
1.00275
1.00206
0.773635
3.24933
9.86632
11.7636
12.1259
12.1977
12.217
12.2304
12.2433
12.2567
12.271
12.2846
12.296
12.3085
12.324
12.3428
12.3609
12.379
12.3956
12.4069
12.4194
12.4355
12.454
12.4689
12.4821
12.4916
12.4975
12.5056
12.5194
12.5352
12.5486
12.5592
12.5639
12.5705
12.5837
12.601
12.6157
12.6275
12.6349
12.6406
12.6515
12.669
12.6912
12.716
12.741
12.7651
12.7833
12.8027
12.8218
12.8399
12.8547
12.8643
12.8695
12.8765
12.887
12.8966
12.9034
12.9099
12.9179
12.9277
12.9337
12.9342
12.932
12.9349
12.9346
12.9321
12.9198
12.908
12.8925
12.8711
12.8434
12.8222
12.801
12.7636
1
1
1
1
1
1
1
1
1
1
1
1
1
1
1
1
1
1
1
1
1
1
1
1
1
1
1
1
1
1
1
1
1
1
1
1
1
1
1
1
1
1
0.999988
0.999754
0.993113
0.854374
0.598757
9.03009
11.5025
12.0323
12.1386
12.1656
12.1812
12.194
12.2069
12.2206
12.2351
12.2505
12.266
12.2812
12.2963
12.3134
12.3309
12.3469
12.3646
12.383
12.402
12.419
12.4348
12.4479
12.4576
12.4679
12.4818
12.4976
12.5118
12.5247
12.534
12.5425
12.5547
12.5717
12.5869
12.5989
12.6066
12.6102
12.6162
12.6293
12.6461
12.664
12.6829
12.701
12.7184
12.7404
12.7656
12.7906
12.813
12.83
12.839
12.8481
12.858
12.8683
12.8758
12.8796
12.8864
12.8953
12.9051
12.907
12.9067
12.905
12.9076
12.9055
12.9009
12.8884
12.8752
12.8576
12.8333
12.8043
12.7821
12.7601
12.7195
1
1
1
1
1
1
1
1
1
1
1
1
1
1
1
1
1
1
1
1
1
1
1
1
1
1
1
1
1
1
1
1
1
1
1
1
1
1
1
1
1
1
0.999997
0.999981
1.00011
1.0017
1.21045
7.95042
11.1032
11.9215
12.0983
12.15
12.1743
12.1891
12.2001
12.2095
12.2188
12.229
12.2398
12.2505
12.2615
12.2738
12.288
12.3042
12.3225
12.3433
12.3639
12.3824
12.3987
12.4113
12.4222
12.4351
12.4512
12.4659
12.4794
12.4917
12.5021
12.5145
12.5322
12.5503
12.5651
12.577
12.5823
12.5886
12.5994
12.6141
12.6272
12.6382
12.6476
12.6581
12.677
12.7035
12.7326
12.7598
12.7814
12.7927
12.8068
12.8216
12.8365
12.8474
12.8531
12.856
12.8631
12.8723
12.8806
12.8801
12.8797
12.8778
12.879
12.8742
12.8682
12.8555
12.8407
12.821
12.7945
12.7643
12.7409
12.7175
12.6734
1
1
1
1
1
1
1
1
1
1
1
1
1
1
1
1
1
1
1
1
1
1
1
1
1
1
1
1
1
1
1
1
1
1
1
1
1
1
1
1
1
1
1
1.00001
0.999999
0.99343
0.982176
5.8499
10.541
11.8182
12.0758
12.1394
12.1617
12.1746
12.1847
12.1932
12.2012
12.2092
12.2169
12.2241
12.2318
12.2409
12.2522
12.2667
12.2842
12.3031
12.3213
12.3389
12.3557
12.3712
12.387
12.4041
12.4199
12.4347
12.4484
12.4596
12.4732
12.4887
12.5078
12.5252
12.54
12.5507
12.5586
12.5693
12.5845
12.5978
12.6069
12.6121
12.6152
12.6267
12.6481
12.6747
12.7011
12.7236
12.7373
12.7495
12.7693
12.7894
12.8098
12.8228
12.8266
12.8313
12.8393
12.8484
12.854
12.8528
12.8522
12.8489
12.8484
12.8421
12.8347
12.8211
12.8042
12.7829
12.7539
12.7231
12.698
12.6731
12.6251
1
1
1
1
1
1
1
1
1
1
1
1
1
1
1
1
1
1
1
1
1
1
1
1
1
1
1
1
1
1
1
1
1
1
1
1
1
1
1
1
1
0.999999
1.00001
1.00011
1.00227
0.990145
0.742169
2.62238
9.63433
11.641
12.0177
12.0936
12.1153
12.1292
12.1401
12.1506
12.1599
12.1679
12.1749
12.1815
12.1894
12.1997
12.2109
12.2226
12.2361
12.2514
12.2662
12.283
12.3013
12.3211
12.3416
12.3605
12.3778
12.3913
12.4047
12.4199
12.4366
12.4556
12.4752
12.494
12.51
12.5205
12.5329
12.5483
12.5649
12.5772
12.5849
12.5871
12.5918
12.6055
12.6262
12.647
12.6657
12.6797
12.6923
12.7106
12.7344
12.7584
12.7794
12.79
12.7966
12.8048
12.8152
12.8224
12.8251
12.8246
12.8241
12.819
12.816
12.809
12.8004
12.7853
12.7658
12.7432
12.7117
12.6806
12.6533
12.6268
12.5756
1
1
1
1
1
1
1
1
1
1
1
1
1
1
1
1
1
1
1
1
1
1
1
1
1
1
1
1
1
1
1
1
1
1
1
1
1
1
1
1
1
1
1.00002
1.00029
1.00146
0.996701
0.926391
0.834548
8.44633
11.1956
11.8425
11.9807
12.0294
12.0588
12.0825
12.1025
12.1191
12.1324
12.1428
12.1509
12.1591
12.1678
12.1748
12.182
12.1907
12.2009
12.2121
12.2264
12.2446
12.2655
12.2873
12.3082
12.3269
12.3431
12.3594
12.377
12.3967
12.4171
12.4367
12.4558
12.4715
12.4863
12.5027
12.5216
12.5382
12.5515
12.5602
12.5654
12.574
12.5884
12.6029
12.616
12.6272
12.6388
12.6568
12.6796
12.7033
12.7249
12.7395
12.749
12.7636
12.7761
12.7887
12.7934
12.7946
12.7955
12.7954
12.7886
12.7818
12.7741
12.7647
12.748
12.7261
12.7016
12.6678
12.6363
12.6068
12.5792
12.5246
1
1
1
1
1
1
1
1
1
1
1
1
1
1
1
1
1
1
1
1
1
1
1
1
1
1
1
1
1
1
1
1
1
1
1
1
1
1
1
1
1
1
1
1.00001
1
0.999938
0.995506
0.99731
6.19176
10.5993
11.7097
11.937
11.9957
12.018
12.0359
12.0549
12.0735
12.0904
12.1057
12.1195
12.1327
12.1452
12.1543
12.1614
12.1687
12.1766
12.1859
12.1981
12.2134
12.2313
12.2503
12.2683
12.285
12.3024
12.3202
12.3392
12.3584
12.3772
12.3954
12.4127
12.4296
12.447
12.4663
12.4854
12.503
12.5176
12.5298
12.541
12.554
12.5658
12.575
12.5827
12.592
12.6069
12.6287
12.6509
12.6704
12.6811
12.6921
12.7086
12.7283
12.7464
12.7585
12.7592
12.7624
12.7652
12.7652
12.7569
12.7466
12.7377
12.7266
12.709
12.6848
12.6584
12.6223
12.5901
12.5588
12.5303
12.4728
1
1
1
1
1
1
1
1
1
1
1
1
1
1
1
1
1
1
1
1
1
1
1
1
1
1
1
1
1
1
1
1
1
1
1
1
1
1
1
1
1
1
1
1
1.00011
1.00236
0.996803
0.768677
2.61468
9.56366
11.5297
11.8866
11.9515
11.9697
11.9819
11.9965
12.0124
12.0286
12.0459
12.0644
12.0829
12.1005
12.1158
12.1281
12.1385
12.1482
12.1585
12.1687
12.1795
12.1928
12.2072
12.2211
12.2371
12.2556
12.2753
12.2954
12.3156
12.3347
12.3526
12.3722
12.391
12.4098
12.4287
12.4475
12.4654
12.4799
12.4964
12.514
12.529
12.5395
12.5468
12.5511
12.5617
12.5803
12.6017
12.6191
12.6297
12.6347
12.6502
12.671
12.6955
12.7141
12.7196
12.7215
12.728
12.733
12.7325
12.7227
12.7103
12.7006
12.6866
12.6679
12.642
12.6136
12.5752
12.5421
12.5092
12.4801
12.4197
1
1
1
1
1
1
1
1
1
1
1
1
1
1
1
1
1
1
1
1
1
1
1
1
1
1
1
1
1
1
1
1
1
1
1
1
1
1
1
1
1
1
1
1
1
1.00004
0.999847
0.989161
1.00552
7.98173
11.0044
11.6999
11.8472
11.8941
11.9153
11.9336
11.9526
11.9706
11.9889
12.0085
12.03
12.0513
12.071
12.0874
12.1014
12.1153
12.1279
12.1362
12.143
12.1515
12.1609
12.172
12.1867
12.2055
12.2263
12.2465
12.2669
12.2862
12.3053
12.328
12.3497
12.3705
12.3903
12.4094
12.4252
12.4419
12.4611
12.4813
12.4977
12.5093
12.5153
12.5225
12.5352
12.5543
12.5713
12.5817
12.5874
12.5962
12.6144
12.6365
12.6598
12.6707
12.6738
12.683
12.6913
12.6991
12.6962
12.6852
12.6728
12.6624
12.6445
12.6247
12.5976
12.567
12.5268
12.4924
12.4582
12.428
12.364
1
1
1
1
1
1
1
1
1
1
1
1
1
1
1
1
1
1
1
1
1
1
1
1
1
1
1
1
1
1
1
1
1
1
1
1
1
1
1
1
1
1
1
1
1
1.00001
0.999859
0.990604
0.887108
5.03007
10.2052
11.5062
11.7766
11.8392
11.8597
11.875
11.8915
11.9072
11.9251
11.9455
11.9677
11.9907
12.0123
12.0329
12.0522
12.0709
12.0874
12.0995
12.1095
12.1184
12.1259
12.1347
12.1465
12.1622
12.1808
12.1995
12.2176
12.236
12.2569
12.2806
12.3043
12.3275
12.3495
12.3683
12.3846
12.4033
12.4233
12.4434
12.4616
12.4752
12.4834
12.4948
12.5092
12.5251
12.5377
12.5447
12.5516
12.5641
12.5822
12.5983
12.6118
12.6195
12.6301
12.6439
12.6556
12.6614
12.6548
12.6461
12.6336
12.6226
12.6013
12.5796
12.5514
12.5189
12.477
12.4407
12.4054
12.3749
12.3079
1
1
1
1
1
1
1
1
1
1
1
1
1
1
1
1
1
1
1
1
1
1
1
1
1
1
1
1
1
1
1
1
1
1
1
1
1
1
1
1
1
1
1
1
1.00004
1.00052
1.00294
0.994682
0.823379
0.848301
8.79249
11.2864
11.734
11.8154
11.8344
11.8439
11.8533
11.8635
11.8765
11.8928
11.9116
11.9322
11.9526
11.9726
11.9923
12.0131
12.0312
12.0455
12.0594
12.0729
12.0842
12.0946
12.1061
12.1204
12.136
12.1519
12.1686
12.1882
12.2106
12.2337
12.2574
12.282
12.3057
12.326
12.3444
12.3638
12.3834
12.4024
12.4216
12.4367
12.4506
12.4664
12.4804
12.4927
12.5038
12.5109
12.5219
12.5345
12.5479
12.5518
12.5602
12.5722
12.59
12.6088
12.6162
12.6156
12.6106
12.6056
12.5924
12.5802
12.5568
12.5337
12.5033
12.4691
12.4254
12.3871
12.351
12.3197
12.2482
1
1
1
1
1
1
1
1
1
1
1
1
1
1
1
1
1
1
1
1
1
1
1
1
1
1
1
1
1
1
1
1
1
1
1
1
1
1
1
1
1
1
1
1
1
0.99999
1.00004
0.999798
0.991221
0.93173
6.69355
10.6438
11.557
11.745
11.7922
11.8105
11.8218
11.8291
11.8348
11.8424
11.853
11.8665
11.8823
11.9
11.9196
11.9411
11.9623
11.9813
12.0003
12.0188
12.0354
12.0495
12.063
12.0762
12.0893
12.1038
12.1208
12.1411
12.1636
12.1864
12.2098
12.2337
12.2579
12.2826
12.3034
12.3239
12.3434
12.3608
12.3796
12.3977
12.4154
12.4342
12.4488
12.4592
12.4697
12.4804
12.4932
12.5031
12.5081
12.5049
12.5147
12.5316
12.5523
12.5674
12.5671
12.5663
12.5655
12.5637
12.5492
12.5335
12.5103
12.4866
12.4538
12.4175
12.3716
12.3317
12.2953
12.264
12.1902
1
1
1
1
1
1
1
1
1
1
1
1
1
1
1
1
1
1
1
1
1
1
1
1
1
1
1
1
1
1
1
1
1
1
1
1
1
1
1
1
1
1
1
1
1
1.00002
1.00029
1.0031
1.01245
0.845755
2.81624
9.43044
11.2911
11.6506
11.7396
11.7706
11.7872
11.7995
11.808
11.8159
11.8256
11.8367
11.8489
11.8619
11.8771
11.8948
11.9134
11.9314
11.9509
11.9704
11.9897
12.0075
12.0226
12.035
12.0466
12.0597
12.0754
12.0944
12.116
12.1388
12.1608
12.1823
12.2077
12.2345
12.2584
12.2817
12.3024
12.3187
12.3372
12.3566
12.3762
12.3972
12.4135
12.4241
12.4362
12.4499
12.4626
12.467
12.4669
12.4649
12.4756
12.4927
12.5099
12.5153
12.5132
12.5192
12.5208
12.5207
12.5024
12.4836
12.4619
12.4377
12.4025
12.3638
12.3161
12.2755
12.2391
12.2067
12.1275
1
1
1
1
1
1
1
1
1
1
1
1
1
1
1
1
1
1
1
1
1
1
1
1
1
1
1
1
1
1
1
1
1
1
1
1
1
1
1
1
1
1
1
1
1
1
0.999986
1.00006
0.999812
0.98511
0.872697
7.12806
10.6774
11.4657
11.6426
11.6914
11.7147
11.7358
11.7513
11.7652
11.7781
11.7904
11.8025
11.8148
11.8278
11.8424
11.8594
11.8777
11.8977
11.9179
11.9374
11.9559
11.9722
11.9879
12.0026
12.0169
12.0317
12.0494
12.0698
12.0912
12.1115
12.1327
12.1583
12.1852
12.2109
12.2369
12.2597
12.2766
12.2948
12.3135
12.3336
12.3561
12.3732
12.3883
12.4024
12.4164
12.4285
12.4302
12.4284
12.4303
12.4392
12.4497
12.4578
12.4612
12.4653
12.4739
12.4767
12.4721
12.4507
12.4339
12.412
12.3868
12.3481
12.307
12.2588
12.2179
12.1811
12.1487
12.0669
1
1
1
1
1
1
1
1
1
1
1
1
1
1
1
1
1
1
1
1
1
1
1
1
1
1
1
1
1
1
1
1
1
1
1
1
1
1
1
1
1
1
1
1
1
1
1.00004
1.00018
0.999393
0.990937
0.838745
3.54482
9.65436
11.242
11.5418
11.6124
11.6452
11.6713
11.692
11.7094
11.7263
11.7417
11.7556
11.7691
11.7827
11.7969
11.8125
11.8296
11.848
11.8687
11.8879
11.9053
11.9238
11.9417
11.9585
11.9746
11.9901
12.0058
12.0229
12.0418
12.0622
12.085
12.1099
12.1363
12.1629
12.1904
12.2137
12.2331
12.2509
12.2691
12.2895
12.3122
12.3304
12.3499
12.3656
12.379
12.3904
12.3932
12.3932
12.3992
12.4007
12.402
12.4051
12.4138
12.423
12.4273
12.4252
12.4155
12.3992
12.3845
12.3608
12.3333
12.2921
12.2483
12.2002
12.1592
12.1216
12.0882
12.0013
1
1
1
1
1
1
1
1
1
1
1
1
1
1
1
1
1
1
1
1
1
1
1
1
1
1
1
1
1
1
1
1
1
1
1
1
1
1
1
1
1
1
1
1
1
1
1
1.00001
0.999982
0.999504
0.984184
0.878174
7.22186
10.6304
11.3574
11.5238
11.5737
11.6006
11.6238
11.643
11.6616
11.6809
11.6987
11.7151
11.7309
11.7464
11.7621
11.779
11.7968
11.8163
11.8354
11.8535
11.8732
11.8923
11.9112
11.9291
11.9457
11.9616
11.978
11.9961
12.0159
12.0386
12.0633
12.0886
12.1141
12.1408
12.1651
12.1876
12.2059
12.2243
12.2437
12.2657
12.2852
12.3084
12.3255
12.3384
12.3498
12.3562
12.3587
12.3647
12.359
12.3559
12.3585
12.3688
12.38
12.3756
12.3669
12.3588
12.3483
12.3353
12.3071
12.2762
12.2359
12.1884
12.1398
12.0982
12.0603
12.0275
11.9377
1
1
1
1
1
1
1
1
1
1
1
1
1
1
1
1
1
1
1
1
1
1
1
1
1
1
1
1
1
1
1
1
1
1
1
1
1
1
1
1
1
1
1
1
1
1
1
1.00001
1.00005
0.9997
0.991677
0.844528
3.72616
9.65813
11.1624
11.4443
11.5071
11.5316
11.5511
11.5734
11.5948
11.6164
11.6373
11.6571
11.6763
11.6943
11.7116
11.729
11.7462
11.7636
11.7812
11.7995
11.8197
11.8401
11.8604
11.8801
11.8975
11.9154
11.9331
11.9513
11.9704
11.9922
12.016
12.0393
12.0625
12.0894
12.1168
12.1411
12.1615
12.1803
12.1972
12.2175
12.2379
12.2633
12.2819
12.2944
12.3062
12.3176
12.3223
12.3262
12.317
12.3144
12.315
12.322
12.3301
12.3203
12.3108