/*--------------------------------*- C++ -*----------------------------------*\
| =========                 |                                                 |
| \\      /  F ield         | OpenFOAM: The Open Source CFD Toolbox           |
|  \\    /   O peration     | Version:  2.2.x                                 |
|   \\  /    A nd           | Web:      www.OpenFOAM.org                      |
|    \\/     M anipulation  |                                                 |
\*---------------------------------------------------------------------------*/
FoamFile
{
    version     2.0;
    format      ascii;
    class       volScalarField;
    location    "0.75";
    object      rho;
}
// * * * * * * * * * * * * * * * * * * * * * * * * * * * * * * * * * * * * * //

dimensions      [1 -3 0 0 0 0 0];

internalField   nonuniform List<scalar> 
14161
(
0.999985
0.999985
0.999984
0.999982
0.999978
0.999973
0.999967
0.999958
0.999948
0.999936
0.999928
0.999925
0.999925
0.999927
0.999937
0.999956
0.999989
1.00004
1.00012
1.00023
1.00038
1.00057
1.00082
1.00112
1.00149
1.00194
1.00246
1.00307
1.00376
1.00454
1.00541
1.00636
1.0074
1.00851
1.0097
1.01095
1.01227
1.01361
1.015
1.01643
1.01786
1.01927
1.02072
1.02218
1.02357
1.02493
1.02639
1.02798
1.02976
1.03222
1.03753
1.05588
1.13071
1.51089
2.15211
2.52246
2.6227
2.63351
2.61501
2.58685
2.55751
2.53117
2.50652
2.48205
2.45739
2.43329
2.41084
2.39047
2.37117
2.35378
2.33898
2.32616
2.31456
2.30326
2.29291
2.28345
2.27415
2.26449
2.25216
2.23909
2.22693
2.21552
2.20514
2.19565
2.18991
2.18794
2.18864
2.19508
2.21323
2.2409
2.27913
2.33235
2.40459
2.49817
2.61682
2.7492
2.86626
2.95106
3.00862
3.04997
3.08233
3.10768
3.12525
3.13977
3.15524
3.16984
3.18053
3.18957
3.19652
3.20038
3.2017
3.20163
3.20049
3.19797
3.19232
3.18246
3.1713
3.16434
3.16572
0.999985
0.999985
0.999984
0.999982
0.999978
0.999973
0.999967
0.999958
0.999948
0.999936
0.999928
0.999925
0.999924
0.999927
0.999936
0.999955
0.999988
1.00004
1.00012
1.00023
1.00037
1.00057
1.00081
1.00112
1.00149
1.00193
1.00245
1.00306
1.00375
1.00453
1.0054
1.00635
1.00739
1.0085
1.00969
1.01094
1.01225
1.0136
1.01499
1.01641
1.01784
1.01927
1.02072
1.02215
1.02355
1.02494
1.02641
1.02797
1.02973
1.03218
1.03741
1.05534
1.12814
1.50709
2.1479
2.52161
2.62146
2.63292
2.61544
2.58797
2.55907
2.53253
2.50753
2.4826
2.45753
2.43321
2.41061
2.38974
2.36998
2.35214
2.33668
2.32341
2.31125
2.29946
2.28862
2.27849
2.26859
2.25868
2.24589
2.23235
2.22046
2.21022
2.20134
2.19458
2.19186
2.19215
2.19513
2.20644
2.22902
2.26398
2.31382
2.38162
2.46767
2.56961
2.68293
2.79336
2.88637
2.95823
3.01034
3.04907
3.08026
3.10526
3.12305
3.13815
3.15408
3.16892
3.17982
3.18902
3.19628
3.20044
3.20195
3.20193
3.2008
3.19816
3.1923
3.18275
3.17137
3.16353
3.16674
0.999985
0.999985
0.999984
0.999982
0.999978
0.999973
0.999967
0.999958
0.999948
0.999936
0.999928
0.999924
0.999924
0.999926
0.999935
0.999954
0.999987
1.00004
1.00012
1.00022
1.00037
1.00056
1.00081
1.00111
1.00148
1.00192
1.00244
1.00304
1.00373
1.00451
1.00537
1.00632
1.00736
1.00847
1.00966
1.01091
1.01221
1.01357
1.01496
1.01637
1.0178
1.01926
1.02069
1.0221
1.02351
1.02496
1.02643
1.02795
1.0297
1.03218
1.03745
1.05539
1.12849
1.5098
2.15063
2.52311
2.62248
2.6345
2.61755
2.59049
2.56181
2.53503
2.50969
2.48394
2.45833
2.43371
2.41066
2.3891
2.36928
2.35142
2.33489
2.31976
2.30646
2.29429
2.2828
2.27133
2.25978
2.24848
2.23479
2.22124
2.21059
2.20334
2.19838
2.19674
2.19797
2.20336
2.21475
2.23426
2.26595
2.31248
2.37731
2.46157
2.56003
2.66369
2.75511
2.82793
2.8911
2.94963
2.99916
3.03813
3.06955
3.09473
3.11386
3.1309
3.14814
3.16361
3.17526
3.18511
3.1927
3.197
3.19851
3.19866
3.19785
3.19586
3.19047
3.18132
3.16984
3.1609
3.16532
0.999985
0.999985
0.999984
0.999982
0.999978
0.999973
0.999966
0.999958
0.999948
0.999936
0.999927
0.999922
0.999922
0.999924
0.999932
0.999951
0.999983
1.00003
1.00011
1.00022
1.00036
1.00055
1.00079
1.00109
1.00146
1.00189
1.00241
1.00301
1.00369
1.00446
1.00532
1.00627
1.0073
1.0084
1.00959
1.01083
1.01213
1.01349
1.01489
1.0163
1.01773
1.01919
1.02064
1.02204
1.02346
1.02494
1.02642
1.02793
1.02967
1.03217
1.03761
1.05648
1.13292
1.51962
2.15668
2.52037
2.61822
2.63005
2.61305
2.58651
2.55755
2.53015
2.50402
2.47747
2.45083
2.42536
2.40142
2.37876
2.35801
2.33933
2.32183
2.30499
2.29002
2.27618
2.26291
2.24941
2.23589
2.22351
2.21217
2.2035
2.19831
2.19651
2.19679
2.20037
2.20945
2.22581
2.25197
2.29025
2.3443
2.41731
2.51353
2.61611
2.70744
2.78416
2.84376
2.88619
2.92351
2.96295
3.0012
3.03254
3.05931
3.08232
3.10166
3.12063
3.13958
3.15613
3.1689
3.1796
3.1877
3.19233
3.19399
3.19407
3.19362
3.19193
3.18717
3.1788
3.1675
3.15711
3.16327
0.999985
0.999985
0.999984
0.999982
0.999978
0.999973
0.999966
0.999958
0.999948
0.999936
0.999926
0.99992
0.999919
0.999921
0.999929
0.999945
0.999977
1.00003
1.0001
1.0002
1.00035
1.00053
1.00077
1.00106
1.00142
1.00185
1.00236
1.00295
1.00363
1.00439
1.00524
1.00618
1.0072
1.0083
1.00947
1.01071
1.01201
1.01336
1.01475
1.01617
1.0176
1.01906
1.02053
1.02196
1.02338
1.02486
1.02636
1.02791
1.02966
1.03224
1.03808
1.05895
1.14241
1.53642
2.16674
2.5157
2.60979
2.61979
2.60168
2.5739
2.54288
2.51254
2.48352
2.45528
2.42728
2.40049
2.37536
2.3516
2.32981
2.30975
2.29035
2.27162
2.25446
2.2394
2.22611
2.21513
2.20576
2.19812
2.1944
2.19378
2.19527
2.19841
2.20449
2.21569
2.23639
2.2707
2.32043
2.38701
2.47361
2.57532
2.67582
2.75374
2.81562
2.86226
2.89905
2.92883
2.95386
2.9789
3.00499
3.02958
3.0515
3.07058
3.0881
3.10738
3.12757
3.1454
3.15964
3.17179
3.18052
3.18527
3.1873
3.18808
3.18794
3.18654
3.18233
3.17468
3.16382
3.15265
3.16028
0.999985
0.999985
0.999984
0.999981
0.999978
0.999973
0.999966
0.999957
0.999947
0.999935
0.999924
0.999918
0.999916
0.999917
0.999923
0.999938
0.999968
1.00002
1.00009
1.00019
1.00032
1.0005
1.00073
1.00102
1.00137
1.00179
1.00229
1.00287
1.00354
1.00429
1.00512
1.00604
1.00705
1.00814
1.0093
1.01053
1.01182
1.01316
1.01454
1.01597
1.01742
1.01887
1.02034
1.02181
1.02326
1.02473
1.02625
1.02783
1.02966
1.03235
1.03863
1.06142
1.15207
1.55688
2.18619
2.52089
2.60836
2.61458
2.59257
2.55942
2.52474
2.49104
2.45942
2.42834
2.3984
2.36983
2.3429
2.31698
2.29203
2.26897
2.24819
2.22944
2.21337
2.20062
2.19161
2.18624
2.18391
2.18408
2.18628
2.19088
2.19957
2.2121
2.22935
2.25542
2.29634
2.35705
2.43944
2.53975
2.64297
2.73123
2.79711
2.84276
2.87896
2.90937
2.93567
2.95758
2.97645
2.99467
3.01274
3.03061
3.0475
3.06307
3.07825
3.09568
3.11487
3.13316
3.14886
3.1618
3.17101
3.17678
3.1799
3.18087
3.18094
3.17972
3.17591
3.16893
3.15898
3.1478
3.15629
0.999984
0.999985
0.999984
0.999981
0.999978
0.999972
0.999965
0.999957
0.999946
0.999934
0.999922
0.999914
0.999911
0.999912
0.999916
0.999929
0.999957
1
1.00007
1.00016
1.00029
1.00046
1.00069
1.00096
1.0013
1.00171
1.0022
1.00276
1.00341
1.00414
1.00496
1.00586
1.00685
1.00792
1.00906
1.01027
1.01155
1.01288
1.01426
1.01568
1.01713
1.0186
1.02006
1.02155
1.02306
1.02454
1.02606
1.0277
1.02964
1.03246
1.03899
1.06277
1.15724
1.57163
2.20342
2.52751
2.6096
2.61308
2.58737
2.54937
2.50902
2.47094
2.43436
2.4002
2.36653
2.33306
2.30266
2.27519
2.2498
2.22732
2.20894
2.19454
2.18493
2.17933
2.17712
2.1772
2.17799
2.18214
2.19074
2.2035
2.22216
2.24845
2.28518
2.33698
2.4087
2.50255
2.60457
2.69655
2.76706
2.81694
2.85339
2.88364
2.91016
2.93391
2.95484
2.97297
2.98908
3.00368
3.0173
3.0304
3.04401
3.05746
3.07106
3.08667
3.10382
3.12106
3.13691
3.15027
3.16042
3.16735
3.17118
3.1725
3.17279
3.17159
3.16829
3.162
3.15318
3.14254
3.15142
0.999984
0.999984
0.999983
0.999981
0.999977
0.999972
0.999965
0.999956
0.999945
0.999933
0.99992
0.99991
0.999905
0.999905
0.999908
0.999918
0.999942
0.999982
1.00004
1.00013
1.00025
1.00042
1.00063
1.00089
1.00122
1.00161
1.00207
1.00262
1.00324
1.00395
1.00475
1.00563
1.00659
1.00763
1.00874
1.00994
1.01119
1.01251
1.01387
1.01528
1.01674
1.01821
1.01969
1.02121
1.02275
1.02424
1.02579
1.02753
1.02958
1.03249
1.03911
1.0631
1.15842
1.57632
2.21144
2.53135
2.60492
2.6035
2.57292
2.53044
2.48612
2.44474
2.40398
2.36565
2.32883
2.29349
2.26263
2.23763
2.21745
2.20076
2.18825
2.18001
2.17571
2.17628
2.17786
2.18115
2.18743
2.19856
2.21774
2.24508
2.28213
2.33177
2.39814
2.48438
2.58099
2.67354
2.74587
2.79605
2.83001
2.85631
2.87994
2.90322
2.92474
2.94475
2.96324
2.98001
2.9948
3.00729
3.01854
3.02988
3.04177
3.05319
3.06549
3.07953
3.09472
3.11013
3.12493
3.13824
3.14904
3.1568
3.16135
3.16295
3.1636
3.16241
3.15974
3.15411
3.14658
3.13698
3.14591
0.999984
0.999984
0.999983
0.999981
0.999977
0.999971
0.999964
0.999955
0.999944
0.999932
0.999918
0.999906
0.999898
0.999896
0.999897
0.999905
0.999924
0.999959
1.00001
1.0001
1.00021
1.00036
1.00055
1.0008
1.00111
1.00148
1.00192
1.00244
1.00304
1.00372
1.00448
1.00533
1.00626
1.00727
1.00835
1.00951
1.01074
1.01203
1.01338
1.01478
1.01622
1.01769
1.0192
1.02073
1.02229
1.02381
1.02545
1.02729
1.02943
1.0324
1.03895
1.06207
1.15389
1.57016
2.20879
2.52567
2.5906
2.58394
2.54816
2.50068
2.45115
2.40413
2.36044
2.32259
2.28917
2.25944
2.23412
2.21416
2.19958
2.19071
2.18454
2.18188
2.1811
2.18402
2.19226
2.20428
2.22289
2.25033
2.28798
2.33809
2.40359
2.48737
2.58168
2.67241
2.7435
2.79278
2.82306
2.84356
2.86056
2.8767
2.89356
2.91184
2.92977
2.94767
2.96494
2.98086
2.99465
3.00627
3.0174
3.02868
3.0395
3.05015
3.06159
3.07376
3.08659
3.0998
3.11305
3.12572
3.13696
3.14545
3.1507
3.15258
3.15363
3.15252
3.15051
3.14532
3.13934
3.13126
3.13997
0.999984
0.999984
0.999983
0.99998
0.999976
0.999971
0.999963
0.999954
0.999943
0.99993
0.999916
0.999902
0.99989
0.999885
0.999884
0.999889
0.999903
0.999931
0.999979
1.00005
1.00015
1.00029
1.00047
1.0007
1.00098
1.00133
1.00174
1.00223
1.00279
1.00344
1.00416
1.00497
1.00585
1.00682
1.00787
1.00898
1.01017
1.01143
1.01275
1.01413
1.01555
1.01701
1.01853
1.02007
1.02163
1.02322
1.02497
1.02688
1.02909
1.03224
1.03885
1.06057
1.14487
1.55354
2.19561
2.51333
2.56991
2.55264
2.50922
2.45388
2.39978
2.35395
2.31541
2.28418
2.25758
2.23519
2.21813
2.20482
2.19574
2.19381
2.19345
2.19501
2.19994
2.2135
2.23759
2.26865
2.30673
2.35483
2.42013
2.50426
2.59849
2.68804
2.75926
2.80916
2.83758
2.85238
2.86172
2.87005
2.87842
2.88883
2.90085
2.91483
2.93086
2.94833
2.96569
2.98113
2.99409
3.00533
3.01639
3.02692
3.03655
3.04652
3.05727
3.06794
3.079
3.09032
3.10183
3.11329
3.12454
3.13352
3.13939
3.14159
3.143
3.14204
3.14035
3.13569
3.13192
3.12556
3.13377
0.999984
0.999984
0.999983
0.99998
0.999976
0.99997
0.999962
0.999953
0.999941
0.999928
0.999913
0.999897
0.999883
0.999873
0.999869
0.99987
0.999878
0.999899
0.999938
0.999998
1.00008
1.00021
1.00037
1.00057
1.00083
1.00115
1.00153
1.00198
1.0025
1.0031
1.00378
1.00453
1.00537
1.00628
1.00727
1.00834
1.00948
1.01068
1.01196
1.01329
1.01468
1.01613
1.01763
1.01917
1.02076
1.0224
1.0242
1.02616
1.02851
1.03196
1.03894
1.0602
1.13723
1.51741
2.1486
2.46988
2.52627
2.50509
2.45651
2.39797
2.3449
2.3066
2.27722
2.25496
2.23827
2.22424
2.21387
2.20642
2.20062
2.2055
2.21784
2.23406
2.25429
2.28253
2.32435
2.38069
2.45396
2.53803
2.62822
2.71456
2.78384
2.83316
2.86186
2.87537
2.88105
2.88319
2.88505
2.88788
2.89218
2.8975
2.90464
2.91571
2.93004
2.94637
2.96341
2.97834
2.99097
3.00241
3.01356
3.02363
3.0329
3.04273
3.05271
3.06207
3.0716
3.08128
3.09127
3.10126
3.11199
3.12135
3.12766
3.13013
3.13182
3.13091
3.12958
3.12592
3.12456
3.11984
3.12743
0.999983
0.999984
0.999982
0.99998
0.999975
0.999969
0.999961
0.999951
0.999939
0.999925
0.999909
0.999892
0.999875
0.99986
0.99985
0.999847
0.99985
0.999863
0.99989
0.999937
1.00001
1.00011
1.00025
1.00043
1.00065
1.00094
1.00128
1.00168
1.00216
1.0027
1.00332
1.00402
1.00479
1.00564
1.00656
1.00756
1.00863
1.00977
1.01098
1.01225
1.01359
1.01499
1.01644
1.01796
1.01954
1.02119
1.02297
1.02496
1.02747
1.03129
1.0393
1.06364
1.14608
1.47109
2.04229
2.38802
2.46502
2.44693
2.40344
2.35142
2.30853
2.2787
2.257
2.24084
2.23002
2.22314
2.22165
2.22163
2.22567
2.24138
2.27131
2.30959
2.35314
2.41162
2.48775
2.57793
2.66957
2.7501
2.8131
2.85755
2.88255
2.89479
2.90031
2.90157
2.90073
2.89995
2.90046
2.90102
2.90165
2.90346
2.90835
2.91723
2.92938
2.94413
2.95979
2.97368
2.98625
2.9982
3.00956
3.01958
3.02906
3.03871
3.04779
3.05606
3.06421
3.07247
3.08114
3.08973
3.09975
3.10916
3.11577
3.11856
3.12042
3.11974
3.11934
3.11686
3.11712
3.11379
3.12089
0.999983
0.999983
0.999982
0.999979
0.999975
0.999968
0.99996
0.999949
0.999936
0.999921
0.999904
0.999886
0.999867
0.999847
0.99983
0.99982
0.999816
0.99982
0.999835
0.999868
0.999921
1
1.00011
1.00026
1.00045
1.00069
1.00099
1.00134
1.00176
1.00224
1.00279
1.00341
1.00411
1.00488
1.00572
1.00663
1.00761
1.00866
1.00978
1.01097
1.01222
1.01354
1.01491
1.01635
1.01786
1.01941
1.02111
1.02307
1.02564
1.0298
1.03942
1.0691
1.16508
1.46384
1.93787
2.24375
2.33562
2.34301
2.32431
2.29488
2.27231
2.2569
2.24802
2.23966
2.23631
2.23677
2.24437
2.25932
2.2813
2.3212
2.38235
2.45709
2.53612
2.6206
2.70493
2.77782
2.83411
2.87573
2.89831
2.90753
2.91059
2.9115
2.91131
2.91039
2.90913
2.90932
2.90912
2.9086
2.90869
2.91061
2.9147
2.92173
2.93156
2.94404
2.95688
2.96876
2.98067
2.99284
3.00468
3.01507
3.02479
3.03412
3.04243
3.04965
3.0566
3.06374
3.07122
3.07856
3.08783
3.09705
3.10395
3.10731
3.10959
3.10941
3.10987
3.1084
3.10953
3.10714
3.11406
0.999983
0.999983
0.999982
0.999979
0.999974
0.999967
0.999959
0.999947
0.999934
0.999917
0.999899
0.999879
0.999857
0.999834
0.99981
0.99979
0.999776
0.99977
0.999773
0.999789
0.999822
0.999876
0.999957
1.00007
1.00022
1.00041
1.00066
1.00095
1.0013
1.00171
1.00218
1.00272
1.00332
1.00399
1.00473
1.00553
1.00641
1.00735
1.00835
1.00941
1.01053
1.01171
1.01295
1.01427
1.01565
1.01702
1.01853
1.02034
1.02282
1.02738
1.03955
1.07843
1.19956
1.5162
1.89216
2.09897
2.17811
2.20454
2.21449
2.21518
2.22458
2.23804
2.24781
2.25078
2.25663
2.27339
2.30498
2.35506
2.41488
2.48924
2.57676
2.66156
2.73513
2.79685
2.8463
2.87833
2.89619
2.90704
2.9121
2.91332
2.91321
2.91307
2.91255
2.91215
2.91266
2.91325
2.91323
2.91295
2.91443
2.91713
2.9212
2.92709
2.93488
2.9446
2.955
2.96527
2.97601
2.98779
2.99996
3.01069
3.0204
3.02925
3.03676
3.04295
3.04889
3.05512
3.06152
3.06788
3.07633
3.08513
3.09225
3.0962
3.09911
3.09981
3.10098
3.1002
3.10185
3.10009
3.10686
0.999983
0.999983
0.999981
0.999978
0.999973
0.999966
0.999957
0.999945
0.999931
0.999913
0.999893
0.99987
0.999845
0.999818
0.999789
0.99976
0.999733
0.999713
0.999701
0.9997
0.999709
0.999736
0.999784
0.999858
0.999962
1.0001
1.00029
1.00051
1.00078
1.00111
1.00149
1.00193
1.00242
1.00297
1.00358
1.00427
1.00501
1.00581
1.00666
1.00756
1.00848
1.00946
1.01054
1.01172
1.01293
1.01406
1.01531
1.01683
1.01914
1.02446
1.04134
1.09721
1.27854
1.6216
1.8945
2.02151
2.07374
2.10278
2.13151
2.1606
2.19636
2.23168
2.2697
2.30636
2.33994
2.39099
2.46186
2.5424
2.61853
2.69195
2.75593
2.80597
2.84238
2.866
2.88317
2.89427
2.90187
2.90739
2.9103
2.9112
2.91132
2.91149
2.9115
2.91228
2.91402
2.91506
2.91533
2.91634
2.9186
2.9218
2.92603
2.93146
2.9381
2.94573
2.95451
2.96336
2.97274
2.98363
2.99543
3.00597
3.01535
3.02353
3.03024
3.03559
3.0408
3.04636
3.0519
3.05754
3.06525
3.07342
3.08058
3.08507
3.08875
3.09045
3.09242
3.09218
3.0941
3.0927
3.09928
0.999982
0.999982
0.999981
0.999978
0.999973
0.999965
0.999955
0.999943
0.999927
0.999908
0.999886
0.99986
0.999831
0.9998
0.999765
0.999728
0.99969
0.999653
0.999621
0.999595
0.999582
0.99958
0.99959
0.99962
0.999675
0.999757
0.99987
1.00002
1.0002
1.00043
1.00071
1.00104
1.0014
1.00182
1.00229
1.00282
1.0034
1.00404
1.00471
1.00538
1.00609
1.00687
1.00778
1.0088
1.00973
1.01055
1.01145
1.01259
1.01481
1.02147
1.045
1.12718
1.37958
1.72607
1.91397
1.99454
2.033
2.06381
2.09919
2.15458
2.23109
2.31619
2.40581
2.48103
2.54085
2.60544
2.67184
2.72688
2.77109
2.80605
2.82827
2.84461
2.85859
2.87047
2.88082
2.88877
2.89329
2.89713
2.90052
2.90309
2.90512
2.90715
2.90873
2.91082
2.91292
2.91448
2.91545
2.91732
2.91997
2.9235
2.92803
2.93347
2.93978
2.94674
2.95478
2.96243
2.97059
2.98067
2.9917
3.00133
3.00998
3.01735
3.02331
3.02805
3.03275
3.03778
3.04261
3.04776
3.05477
3.06202
3.06897
3.07384
3.07836
3.08108
3.08396
3.08426
3.08627
3.08506
3.09141
0.999982
0.999982
0.99998
0.999977
0.999972
0.999964
0.999954
0.99994
0.999923
0.999903
0.999878
0.999849
0.999816
0.999779
0.999738
0.999692
0.999643
0.999591
0.999537
0.999485
0.999439
0.9994
0.999372
0.999359
0.999358
0.999372
0.999408
0.999471
0.999564
0.999688
0.999848
1.00004
1.00027
1.00053
1.00083
1.00119
1.0016
1.00204
1.0025
1.00295
1.00344
1.00399
1.00471
1.00547
1.00606
1.00654
1.00708
1.00798
1.01052
1.01951
1.05136
1.16345
1.47285
1.80151
1.93567
1.99427
2.02935
2.06535
2.11376
2.19394
2.32051
2.47545
2.60549
2.68012
2.72716
2.76332
2.79039
2.80702
2.81895
2.82876
2.83665
2.84363
2.85195
2.85976
2.86695
2.87374
2.87852
2.88343
2.88846
2.89312
2.89729
2.90149
2.90475
2.90785
2.91055
2.91289
2.91492
2.91737
2.92022
2.92382
2.92818
2.93333
2.93939
2.94632
2.95429
2.96103
2.96851
2.97789
2.98784
2.99631
3.00395
3.01039
3.01565
3.02
3.02431
3.02888
3.03331
3.03831
3.0448
3.05078
3.05728
3.06244
3.0679
3.07168
3.07542
3.07632
3.07841
3.07727
3.08334
0.999981
0.999981
0.99998
0.999976
0.999971
0.999963
0.999951
0.999937
0.999919
0.999897
0.99987
0.999837
0.999799
0.999756
0.999707
0.999651
0.99959
0.999522
0.999448
0.99937
0.999291
0.999211
0.999135
0.999065
0.999
0.998943
0.998899
0.998873
0.998866
0.998873
0.998898
0.998949
0.999025
0.999116
0.999232
0.999385
0.999589
0.99983
1.00007
1.00029
1.00054
1.00083
1.00128
1.00174
1.00205
1.00226
1.00258
1.00352
1.00685
1.01951
1.06468
1.22237
1.56242
1.84358
1.95187
2.00587
2.04796
2.10123
2.18773
2.32519
2.51032
2.67733
2.76281
2.79684
2.80815
2.81203
2.81505
2.81825
2.8215
2.82512
2.82851
2.8321
2.83683
2.84211
2.84779
2.85423
2.86081
2.8676
2.87427
2.88101
2.88734
2.89342
2.89828
2.90257
2.90634
2.90987
2.91313
2.91644
2.91961
2.92331
2.9276
2.93268
2.93873
2.94568
2.95331
2.95964
2.96689
2.97545
2.98398
2.99115
2.99765
3.00318
3.00777
3.01184
3.01579
3.01997
3.02423
3.02929
3.03522
3.03982
3.04576
3.05095
3.05736
3.06221
3.06676
3.06828
3.07048
3.06939
3.07518
0.999981
0.999981
0.999979
0.999976
0.99997
0.999961
0.999949
0.999934
0.999914
0.99989
0.99986
0.999825
0.999782
0.999731
0.999673
0.999606
0.99953
0.999445
0.99935
0.999245
0.999132
0.999011
0.998883
0.998753
0.99862
0.998486
0.998351
0.998219
0.998097
0.997977
0.997861
0.997758
0.997672
0.997594
0.997509
0.99744
0.997409
0.997409
0.997424
0.997414
0.997392
0.997395
0.997497
0.99765
0.99775
0.99781
0.998063
0.999156
1.00354
1.02073
1.08207
1.28431
1.6277
1.86446
1.96657
2.03609
2.10715
2.20239
2.34801
2.54962
2.72941
2.81731
2.83839
2.83592
2.82829
2.81993
2.81452
2.81221
2.81162
2.81172
2.81271
2.81457
2.81749
2.82154
2.82659
2.83289
2.84061
2.84916
2.85773
2.86644
2.87495
2.88287
2.88949
2.89523
2.90034
2.90499
2.90936
2.91366
2.91761
2.9217
2.92606
2.93109
2.93707
2.94395
2.9514
2.95802
2.96545
2.97303
2.98005
2.98592
2.99124
2.99583
2.99974
3.00348
3.00707
3.01099
3.01516
3.02029
3.02565
3.0291
3.03449
3.03946
3.04668
3.05261
3.05793
3.06007
3.06244
3.06149
3.06699
0.999981
0.999981
0.999979
0.999975
0.999969
0.999959
0.999947
0.999931
0.99991
0.999883
0.999851
0.999811
0.999762
0.999705
0.999637
0.999558
0.999466
0.999362
0.999243
0.999109
0.998959
0.998795
0.998616
0.998423
0.998215
0.997996
0.997763
0.997518
0.997274
0.997025
0.996756
0.996472
0.996195
0.995948
0.995689
0.995369
0.995044
0.994784
0.994579
0.994369
0.994043
0.993696
0.993464
0.993305
0.993228
0.993242
0.993513
0.99492
1.0009
1.02356
1.10415
1.33991
1.66682
1.87712
1.99678
2.09958
2.21663
2.3805
2.59322
2.77781
2.85924
2.87645
2.86745
2.84983
2.83274
2.81839
2.80796
2.80077
2.79649
2.7947
2.79452
2.79522
2.79721
2.80054
2.80546
2.81163
2.81958
2.82888
2.83843
2.8489
2.85914
2.86909
2.87768
2.88532
2.89205
2.89801
2.90351
2.90867
2.91347
2.91828
2.92317
2.92855
2.93462
2.94141
2.94891
2.95621
2.96367
2.97013
2.97589
2.98077
2.98512
2.98886
2.992
2.99523
2.99848
3.00221
3.00632
3.0113
3.01594
3.01856
3.0235
3.0282
3.03592
3.04282
3.04888
3.05168
3.05434
3.05359
3.05879
0.99998
0.99998
0.999978
0.999974
0.999967
0.999958
0.999944
0.999927
0.999904
0.999876
0.99984
0.999796
0.999742
0.999677
0.999599
0.999507
0.999399
0.999273
0.999128
0.998962
0.998775
0.998564
0.998329
0.998069
0.997784
0.997476
0.997142
0.996778
0.9964
0.996012
0.995585
0.995119
0.994641
0.994178
0.993744
0.993265
0.99267
0.992078
0.991583
0.99115
0.990688
0.990085
0.989399
0.98883
0.98855
0.988535
0.988922
0.990983
0.999624
1.03047
1.1374
1.39234
1.70102
1.91005
2.06181
2.21539
2.40397
2.62471
2.80807
2.88633
2.90207
2.89114
2.87058
2.85106
2.83243
2.8167
2.80395
2.79386
2.78655
2.78178
2.77953
2.77908
2.77985
2.78156
2.78476
2.78945
2.79675
2.80574
2.81587
2.82775
2.83986
2.85189
2.86259
2.87227
2.88095
2.88856
2.89539
2.90164
2.90754
2.91326
2.91893
2.92485
2.93122
2.93827
2.94622
2.954
2.96123
2.96672
2.97151
2.97551
2.97885
2.9817
2.98415
2.98692
2.98988
2.99344
2.99749
3.0021
3.00596
3.0081
3.01277
3.01734
3.02521
3.0328
3.03963
3.04317
3.04615
3.04564
3.05055
0.99998
0.99998
0.999978
0.999973
0.999966
0.999956
0.999942
0.999923
0.999899
0.999868
0.999829
0.99978
0.99972
0.999647
0.999559
0.999453
0.999328
0.99918
0.999007
0.998808
0.998579
0.998319
0.998025
0.997696
0.997332
0.996931
0.996491
0.99601
0.995496
0.994952
0.994374
0.993749
0.993075
0.992382
0.991699
0.991051
0.990351
0.989474
0.988598
0.987863
0.987221
0.986583
0.985606
0.984524
0.98393
0.98385
0.984379
0.987628
1.00026
1.04735
1.18295
1.45747
1.76484
1.9838
2.1831
2.40098
2.63843
2.82238
2.90096
2.91645
2.90563
2.88611
2.86695
2.84734
2.82952
2.8141
2.80104
2.79007
2.78045
2.77272
2.76744
2.76447
2.76336
2.76325
2.76477
2.76746
2.77277
2.77999
2.7897
2.80234
2.81603
2.83033
2.84342
2.8554
2.86625
2.87589
2.88439
2.89203
2.89925
2.9061
2.91283
2.91963
2.92674
2.9345
2.94303
2.95101
2.95797
2.96268
2.9668
2.97009
2.97254
2.97456
2.97644
2.97885
2.98149
2.98481
2.98858
2.99263
2.99589
2.9978
3.00234
3.00685
3.01464
3.02258
3.0302
3.03453
3.03783
3.03754
3.0422
0.999979
0.999979
0.999977
0.999972
0.999965
0.999954
0.999939
0.999919
0.999893
0.999859
0.999817
0.999764
0.999698
0.999616
0.999517
0.999397
0.999253
0.999083
0.998882
0.998648
0.998377
0.998066
0.997712
0.997313
0.996868
0.996374
0.995826
0.995232
0.994589
0.993887
0.99314
0.992379
0.991548
0.990631
0.989685
0.988775
0.987938
0.986986
0.985794
0.984684
0.983779
0.982959
0.98184
0.980437
0.979567
0.979475
0.980349
0.985667
1.00459
1.07823
1.24461
1.54237
1.86699
2.11658
2.37834
2.63458
2.81957
2.90055
2.91631
2.90727
2.88984
2.87257
2.85468
2.83778
2.82236
2.80848
2.79617
2.78521
2.77542
2.76646
2.75855
2.75228
2.74798
2.7458
2.74592
2.74675
2.75005
2.75505
2.76321
2.77467
2.78793
2.80377
2.81975
2.83444
2.84767
2.85963
2.87016
2.87961
2.88844
2.89681
2.90492
2.91295
2.92113
2.92981
2.93894
2.9471
2.95385
2.95813
2.96176
2.96441
2.96606
2.96736
2.96877
2.97088
2.97318
2.97619
2.97941
2.98291
2.98581
2.98767
2.99208
2.99651
3.00418
3.0123
3.02061
3.02581
3.02939
3.0293
3.03367
0.999979
0.999978
0.999976
0.999971
0.999963
0.999952
0.999936
0.999914
0.999886
0.99985
0.999804
0.999746
0.999674
0.999584
0.999473
0.999339
0.999177
0.998983
0.998754
0.998485
0.998172
0.997811
0.997398
0.99693
0.996406
0.995818
0.995166
0.994459
0.993688
0.992841
0.991929
0.990997
0.990029
0.988955
0.98778
0.986596
0.985508
0.98446
0.983179
0.98178
0.980556
0.979451
0.977999
0.976377
0.975608
0.975758
0.977731
0.986772
1.01668
1.12236
1.32476
1.66618
2.02913
2.34086
2.61664
2.81614
2.90065
2.91742
2.90677
2.88792
2.87143
2.85455
2.83881
2.82471
2.81192
2.80031
2.78961
2.77958
2.76998
2.76069
2.75158
2.74325
2.73669
2.73183
2.7298
2.72942
2.73107
2.73401
2.74029
2.74919
2.76004
2.77463
2.79183
2.80943
2.82517
2.83973
2.85267
2.86434
2.87512
2.88524
2.89494
2.90443
2.91399
2.9239
2.93377
2.94216
2.9489
2.95302
2.9561
2.95818
2.95923
2.96006
2.96115
2.963
2.96494
2.96757
2.97011
2.97305
2.97569
2.97757
2.98184
2.98619
2.99373
3.00198
3.01085
3.01684
3.02076
3.021
3.02502
0.999978
0.999978
0.999975
0.99997
0.999962
0.99995
0.999933
0.99991
0.99988
0.999841
0.999792
0.999728
0.999649
0.999551
0.999429
0.99928
0.9991
0.998883
0.998626
0.998323
0.997969
0.997558
0.997087
0.996552
0.995949
0.995272
0.994522
0.993702
0.992809
0.991833
0.990779
0.989664
0.988523
0.987324
0.986019
0.98462
0.983209
0.981915
0.980634
0.979222
0.977688
0.976036
0.973998
0.972357
0.971835
0.972399
0.976495
0.991073
1.04988
1.18837
1.48357
1.89261
2.27582
2.57984
2.79263
2.88742
2.90779
2.89923
2.88098
2.86345
2.84689
2.83239
2.81983
2.80894
2.79916
2.79012
2.78137
2.7726
2.76377
2.75469
2.74559
2.73664
2.72853
2.7215
2.71703
2.71498
2.71543
2.71659
2.72075
2.72715
2.73574
2.74785
2.76296
2.78118
2.79946
2.81674
2.83228
2.84655
2.85942
2.87139
2.88282
2.89398
2.90522
2.91653
2.92722
2.93605
2.94293
2.94695
2.94959
2.95138
2.95212
2.95272
2.95361
2.95522
2.95681
2.95902
2.96087
2.96318
2.96537
2.96727
2.97144
2.97586
2.98323
2.9917
3.00093
3.00751
3.01188
3.0127
3.01631
0.999978
0.999977
0.999975
0.999969
0.99996
0.999947
0.999929
0.999905
0.999873
0.999832
0.999778
0.99971
0.999624
0.999517
0.999384
0.999221
0.999022
0.998783
0.998498
0.99816
0.997765
0.997306
0.996779
0.996178
0.995499
0.994737
0.993894
0.992968
0.991955
0.990856
0.98968
0.988425
0.98709
0.985718
0.984324
0.982821
0.981186
0.979554
0.97807
0.976679
0.975168
0.972761
0.970319
0.969247
0.969267
0.970994
0.97881
1.00769
1.10276
1.31571
1.73746
2.19384
2.55498
2.78178
2.88252
2.90396
2.89241
2.87144
2.8533
2.83599
2.821
2.80875
2.79881
2.79058
2.78338
2.77657
2.76977
2.7627
2.75509
2.74715
2.73857
2.72998
2.72143
2.71313
2.70693
2.70274
2.70173
2.70169
2.70401
2.7081
2.71457
2.72416
2.73649
2.75253
2.77096
2.79095
2.80937
2.82617
2.84113
2.85518
2.86847
2.88157
2.89466
2.90741
2.91906
2.92845
2.93561
2.93964
2.94225
2.94401
2.94472
2.94529
2.94609
2.94745
2.9487
2.95044
2.95167
2.9534
2.95496
2.95672
2.96083
2.96544
2.97278
2.98148
2.9908
2.99779
3.00271
3.00439
3.0077
0.999977
0.999976
0.999974
0.999968
0.999959
0.999945
0.999926
0.999901
0.999867
0.999822
0.999765
0.999692
0.999599
0.999483
0.999339
0.999161
0.998945
0.998683
0.99837
0.997999
0.997564
0.997058
0.996476
0.995812
0.995061
0.99422
0.993287
0.992262
0.991142
0.989928
0.988634
0.987259
0.985789
0.984238
0.982689
0.981119
0.979394
0.977571
0.975824
0.974223
0.97238
0.969809
0.967721
0.967075
0.967693
0.971678
0.986203
1.04436
1.19314
1.56187
2.06626
2.48725
2.74791
2.86838
2.89881
2.88722
2.86401
2.84369
2.82555
2.81048
2.79803
2.78763
2.77917
2.77219
2.76623
2.76083
2.75535
2.74974
2.74356
2.73704
2.72997
2.72229
2.71404
2.70604
2.69851
2.69225
2.68959
2.68846
2.68964
2.69177
2.69633
2.70353
2.71331
2.72671
2.74278
2.76269
2.7836
2.80323
2.82047
2.83655
2.85188
2.86711
2.88208
2.89637
2.90921
2.91935
2.92694
2.93131
2.93419
2.93616
2.937
2.93773
2.93852
2.93967
2.94057
2.94184
2.9425
2.94364
2.94468
2.94626
2.95023
2.95499
2.96236
2.97104
2.98036
2.98781
2.99336
2.99599
2.9989
0.999976
0.999976
0.999973
0.999967
0.999957
0.999943
0.999923
0.999896
0.99986
0.999813
0.999752
0.999674
0.999574
0.99945
0.999294
0.999103
0.998868
0.998585
0.998245
0.997842
0.997369
0.996819
0.996185
0.995462
0.994644
0.99373
0.992716
0.991601
0.990386
0.989073
0.987667
0.986181
0.984609
0.982947
0.98122
0.979531
0.977784
0.975908
0.974036
0.972138
0.969558
0.967097
0.966114
0.966281
0.968364
0.976622
1.01153
1.10787
1.39226
1.91588
2.41905
2.71669
2.85054
2.88514
2.87527
2.85267
2.83194
2.81382
2.79892
2.78678
2.77677
2.76823
2.76051
2.75408
2.74838
2.74358
2.73882
2.73402
2.72921
2.72403
2.71879
2.71239
2.70537
2.69829
2.69087
2.68295
2.67862
2.67644
2.67676
2.6773
2.68024
2.68523
2.69276
2.70363
2.71727
2.73483
2.75539
2.77742
2.79751
2.81607
2.8335
2.85062
2.86749
2.88342
2.89762
2.90875
2.91705
2.92204
2.92544
2.92784
2.92904
2.93005
2.93086
2.93177
2.93229
2.93305
2.93317
2.93383
2.93451
2.93596
2.93974
2.94454
2.95181
2.96032
2.96972
2.97774
2.98388
2.98727
2.98998
0.999976
0.999975
0.999972
0.999966
0.999956
0.999941
0.99992
0.999891
0.999853
0.999803
0.999739
0.999655
0.99955
0.999417
0.99925
0.999045
0.998793
0.998489
0.998124
0.99769
0.997181
0.996589
0.995906
0.995128
0.99425
0.993267
0.992179
0.990984
0.989685
0.988286
0.986788
0.985199
0.983541
0.9818
0.979975
0.978149
0.976322
0.974441
0.972453
0.970041
0.967406
0.965631
0.9652
0.966317
0.971279
0.993513
1.06314
1.27244
1.77489
2.32882
2.67488
2.82353
2.85977
2.85047
2.82754
2.8073
2.79068
2.7779
2.76808
2.75992
2.75291
2.74657
2.7408
2.73507
2.73013
2.72546
2.72109
2.71694
2.71316
2.70912
2.7049
2.70031
2.69465
2.68858
2.68228
2.67439
2.66868
2.66534
2.66475
2.66393
2.6657
2.66874
2.67422
2.68275
2.69407
2.70917
2.72714
2.74926
2.77203
2.79352
2.81334
2.83257
2.85115
2.86866
2.88434
2.89666
2.90601
2.91196
2.91612
2.91916
2.92081
2.92213
2.92285
2.92353
2.92365
2.92397
2.92372
2.9241
2.92452
2.92584
2.92935
2.93402
2.94107
2.94934
2.95898
2.96774
2.97443
2.97823
2.98034
0.999975
0.999974
0.999971
0.999965
0.999954
0.999938
0.999916
0.999886
0.999846
0.999794
0.999725
0.999637
0.999525
0.999384
0.999207
0.998988
0.99872
0.998396
0.998006
0.997544
0.997
0.996368
0.995641
0.994812
0.993877
0.992832
0.991678
0.990412
0.989039
0.987561
0.985985
0.984316
0.982577
0.98076
0.978881
0.976966
0.975071
0.973128
0.970896
0.968151
0.96608
0.965409
0.965917
0.969076
0.982462
1.03041
1.18552
1.63827
2.22917
2.63246
2.80103
2.83939
2.82848
2.80233
2.77893
2.76104
2.74817
2.7395
2.73378
2.72948
2.72542
2.72193
2.71844
2.71484
2.71107
2.70686
2.70282
2.6989
2.69531
2.69197
2.68867
2.68557
2.68114
2.67649
2.67167
2.6651
2.65907
2.65524
2.65325
2.65104
2.65186
2.65327
2.65697
2.66341
2.6726
2.68528
2.70091
2.72096
2.74413
2.7684
2.79103
2.81258
2.83303
2.85222
2.86931
2.88299
2.89372
2.90096
2.90616
2.91004
2.91223
2.91385
2.91441
2.91484
2.91468
2.91473
2.91422
2.91444
2.91467
2.9159
2.91901
2.92339
2.93007
2.93825
2.94836
2.95784
2.96482
2.96865
2.97031
0.999974
0.999974