/*--------------------------------*- C++ -*----------------------------------*\
| =========                 |                                                 |
| \\      /  F ield         | OpenFOAM: The Open Source CFD Toolbox           |
|  \\    /   O peration     | Version:  2.2.x                                 |
|   \\  /    A nd           | Web:      www.OpenFOAM.org                      |
|    \\/     M anipulation  |                                                 |
\*---------------------------------------------------------------------------*/
FoamFile
{
    version     2.0;
    format      ascii;
    class       surfaceScalarField;
    location    "1.95";
    object      phi;
}
// * * * * * * * * * * * * * * * * * * * * * * * * * * * * * * * * * * * * * //

dimensions      [1 0 -1 0 0 0 0];

internalField   nonuniform List<scalar> 
28084
(
0.000753133
0.000743105
0.000738146
0.000735094
0.000733697
0.000733591
0.000732726
0.000732363
0.000731931
0.000731602
0.000731785
0.000732238
0.000732804
0.000733372
0.000734184
0.000735295
0.000736347
0.000737639
0.000739414
0.000741641
0.000743263
0.000744261
0.000745489
0.000746745
0.00074791
0.000749092
0.000750466
0.000751714
0.000752567
0.000753169
0.000753715
0.00075438
0.000755213
0.000755932
0.000756394
0.000756799
0.000757502
0.000758679
0.000761437
0.000767087
0.000800761
0.00104951
0.00110079
0.00109054
0.00108562
0.00109491
0.00110433
0.00111312
0.00112187
0.00113164
0.00114231
0.00115254
0.00116375
0.00117582
0.00118866
0.00120188
0.00121455
0.00122485
0.00123597
0.00124933
0.00126208
0.001274
0.00128358
0.00128842
0.00129396
0.00130198
0.00131024
0.00131861
0.00132694
0.00133518
0.00134276
0.00134843
0.00135201
0.00135374
0.00135379
0.00135327
0.00135338
0.00135226
0.00134966
0.0013479
0.00134654
0.00134644
0.00134414
0.00134039
0.00133405
0.00132794
0.00132464
0.00132518
0.0013228
0.00131503
0.00130876
0.00129788
0.00128359
0.00126212
0.00123237
0.00119758
0.00115073
0.00109122
0.00102883
0.000978191
0.00093732
0.000903979
0.000875872
0.000850191
0.000824654
0.000799458
0.000773077
0.000746253
0.000716591
0.000683974
0.00064616
0.000605274
0.000555507
0.000498414
0.000421972
0.000340422
0.000241855
0.000131275
-3.38482e-06
1.05285e-05
0.000713531
3.5304e-06
0.000723557
3.06451e-06
0.000729411
1.83579e-06
0.000735493
2.47547e-07
0.000742867
8.88046e-07
0.000747018
2.03577e-07
0.000748934
5.7706e-07
0.000749772
8.0477e-09
0.000750424
-6.85901e-07
0.000750453
-4.99576e-07
0.000749465
-7.2976e-08
0.000749005
-2.804e-07
0.00074968
-5.8945e-07
0.000751587
-1.13538e-06
0.000754798
-9.76749e-07
0.000758864
-1.11271e-06
0.000763465
-1.61241e-06
0.000768356
-1.75799e-06
0.000772928
-1.64705e-06
0.000777158
-1.42871e-06
0.000780807
-1.71159e-06
0.000784159
-1.49344e-06
0.000786816
-1.39462e-06
0.000788676
-1.23616e-06
0.00079003
-1.1258e-06
0.000791369
-9.92424e-07
0.000792887
-9.81457e-07
0.000794437
-8.35137e-07
0.000796374
-8.18112e-07
0.00079833
-7.85093e-07
0.000800102
-7.07137e-07
0.000801545
-6.42513e-07
0.000803094
-6.70079e-07
0.00080458
-6.56138e-07
0.000805488
-8.19901e-07
0.000806131
-1.27292e-06
0.00080639
-2.93773e-06
0.000806097
-5.76114e-06
0.000805526
-3.36302e-05
0.00080277
-0.000249161
0.000792186
-5.20529e-05
0.00070899
1.04181e-05
0.000680041
5.33535e-06
0.000678394
-8.81163e-06
0.000688459
-9.49002e-06
0.000712152
-1.04885e-05
0.000739282
-1.00225e-05
0.000768
-1.0168e-05
0.000798186
-1.05246e-05
0.000822308
-9.9538e-06
0.000846234
-8.63574e-06
0.000868458
-9.42007e-06
0.000887059
-1.03898e-05
0.000906865
-1.10116e-05
0.00092799
-1.07215e-05
0.000949241
-9.96396e-06
0.000969608
-1.01299e-05
0.000989102
-1.07486e-05
0.00100844
-1.07476e-05
0.00102561
-1.02854e-05
0.00103978
-9.43241e-06
0.00105251
-8.72239e-06
0.0010655
-8.51001e-06
0.00107873
-8.47786e-06
0.00109184
-8.25648e-06
0.00110458
-7.9599e-06
0.00111651
-7.5308e-06
0.00112852
-7.31355e-06
0.0011388
-6.92657e-06
0.0011455
-6.29557e-06
0.00114952
-5.27515e-06
0.00115219
-3.47706e-06
0.00115413
-1.89671e-06
0.00115516
-1.70402e-06
0.00115541
-2.38857e-06
0.00115307
-1.64441e-06
0.00114925
5.28602e-07
0.00114605
1.56912e-06
0.00114187
1.65372e-06
0.00113557
-6.91498e-07
0.00112248
-7.6977e-07
0.00110396
2.82062e-06
0.00109272
7.91993e-06
0.00108278
4.04622e-06
0.00106963
-3.40871e-06
0.0010449
-4.92929e-06
0.000997277
4.78423e-07
0.000940403
1.12832e-05
0.000891078
1.15664e-05
0.000837078
1.31444e-05
0.000785913
1.64438e-05
0.00073477
2.28451e-05
0.000690221
2.96317e-05
0.000646939
3.5811e-05
0.000606791
4.71243e-05
0.000573459
6.08547e-05
0.000546786
6.33741e-05
0.000527041
5.32631e-05
0.000512943
4.22337e-05
0.000500153
3.47179e-05
0.000486547
3.13618e-05
0.000474084
2.8638e-05
0.000461758
2.71876e-05
0.000449009
2.52034e-05
0.000434705
2.5024e-05
0.000418404
2.46753e-05
0.000399504
2.7453e-05
0.000377695
3.10294e-05
0.000352864
3.71757e-05
0.000326101
4.13976e-05
0.000298764
5.17252e-05
0.000270299
5.98707e-05
0.000239912
7.84295e-05
0.000207737
8.1638e-05
0.000170024
9.65386e-05
0.000131447
0.00010676
9.16261e-05
0.000128037
6.62682e-05
3.48481e-05
2.6543e-06
0.000831751
-2.32606e-06
0.000811013
-3.1187e-06
0.000793858
-4.74366e-06
0.000780619
-5.10951e-06
0.000773637
-2.74793e-06
0.000770974
-1.9704e-06
0.000772123
-7.42871e-07
0.000775285
-2.84612e-07
0.000780419
3.18747e-07
0.000787725
6.88887e-07
0.000797101
-4.58906e-07
0.000807458
-2.12438e-06
0.000817058
-3.81317e-06
0.000824251
-5.23313e-06
0.000830695
-5.66504e-06
0.000835372
-6.40962e-06
0.000838615
-6.607e-06
0.000840545
-6.01027e-06
0.000841805
-5.29006e-06
0.000844174
-4.37512e-06
0.000847171
-3.88877e-06
0.000849722
-2.88024e-06
0.000853487
-2.24028e-06
0.000858651
-1.86867e-06
0.000864801
-2.21884e-06
0.000871425
-2.47046e-06
0.000877516
-2.87235e-06
0.000882255
-2.8691e-06
0.000886179
-3.09793e-06
0.000889598
-3.05393e-06
0.000891972
-2.95529e-06
0.000894104
-2.7712e-06
0.000896678
-2.41695e-06
0.000898686
-2.05898e-06
0.000900638
-1.90056e-06
0.000902697
-1.58584e-06
0.000904823
-2.66137e-06
0.000907497
-3.31955e-06
0.000908668
-2.33761e-05
0.000906535
-0.000166557
0.000890035
-2.34994e-05
0.000737054
1.21376e-05
0.000672833
-4.59928e-06
0.000681674
-3.23274e-05
0.000706659
-3.78234e-05
0.000741946
-3.95496e-05
0.000780076
-3.81735e-05
0.000822052
-2.97811e-05
0.000860545
-3.08603e-05
0.000895186
-3.17185e-05
0.000924526
-2.85987e-05
0.000952669
-3.00176e-05
0.000977404
-3.12707e-05
0.00100027
-3.13692e-05
0.00102166
-2.99299e-05
0.00104232
-2.7972e-05
0.00106239
-2.7081e-05
0.00108198
-2.64957e-05
0.00110058
-2.55856e-05
0.00111742
-2.42945e-05
0.00113355
-2.30676e-05
0.00114874
-2.19606e-05
0.00116425
-2.0883e-05
0.00117764
-1.98396e-05
0.00118845
-1.86731e-05
0.00119875
-1.72537e-05
0.00120914
-1.55548e-05
0.00121975
-1.42489e-05
0.00122975
-1.26393e-05
0.00123758
-1.04223e-05
0.00124337
-8.01461e-06
0.00124842
-5.25116e-06
0.00125172
-3.2789e-06
0.00125306
-1.96803e-06
0.00125324
4.94261e-07
0.00125244
3.18587e-06
0.00125202
5.56117e-06
0.00124974
6.89209e-06
0.00124235
9.83494e-06
0.00123166
1.12474e-05
0.0012181
1.42628e-05
0.00120142
1.76222e-05
0.00118147
1.96914e-05
0.00115301
1.97307e-05
0.00111297
3.82946e-05
0.00106658
5.76273e-05
0.000998162
5.6978e-05
0.000905691
6.74994e-05
0.000805858
6.16364e-05
0.000712648
6.80743e-05
0.000641025
6.57149e-05
0.00057018
6.69004e-05
0.000505827
6.86712e-05
0.000448811
7.11243e-05
0.000405169
7.74114e-05
0.000372607
8.38099e-05
0.000346223
7.86101e-05
0.000325892
6.72364e-05
0.000310792
5.65927e-05
0.00029919
4.87666e-05
0.000288143
4.43668e-05
0.000276014
4.2355e-05
0.000265987
4.25068e-05
0.000256161
4.17881e-05
0.00024434
4.34425e-05
0.000229752
4.54453e-05
0.000212746
5.0742e-05
0.000192254
5.65465e-05
0.000169369
6.48101e-05
0.000146129
7.12481e-05
0.000123174
8.45397e-05
0.000101326
9.44868e-05
7.97811e-05
0.00011734
6.36388e-05
0.000119272
4.92663e-05
0.000134059
3.57654e-05
0.00012926
2.48611e-05
0.000191651
1.58288e-05
-4.67525e-05
1.77429e-05
0.000659574
1.23952e-05
0.000688942
8.09988e-06
0.000714107
4.92426e-06
0.000736324
2.21319e-06
0.000753663
-5.47723e-07
0.000766165
-3.88466e-06
0.000773752
-5.38623e-06
0.000778428
-7.70289e-06
0.000782463
-9.97143e-06
0.000783868
-1.11487e-05
0.000782591
-1.02106e-05
0.000781135
-8.82225e-06
0.000782346
-8.42211e-06
0.000786215
-7.85224e-06
0.000792841
-7.07586e-06
0.000801318
-6.92312e-06
0.000811318
-7.06606e-06
0.000822408
-7.93563e-06
0.000833279
-8.76286e-06
0.00084319
-9.1255e-06
0.000850492
-9.60529e-06
0.00085601
-9.75532e-06
0.000860756
-9.94693e-06
0.000863834
-9.99304e-06
0.000865669
-9.57736e-06
0.000866888
-8.64344e-06
0.000868287
-7.50084e-06
0.00087098
-6.53878e-06
0.000874399
-5.75706e-06
0.00087737
-4.85994e-06
0.000879747
-4.28036e-06
0.000883311
-3.72167e-06
0.000887296
-3.45031e-06
0.000891479
-3.17609e-06
0.000895071
-2.96048e-06
0.000898031
-2.59758e-06
0.000900502
-2.27198e-06
0.000902773
-5.05252e-07
0.000904061
-6.72525e-06
0.000904588
-1.39898e-05
0.000875432
4.27079e-05
0.000713546
3.87905e-06
0.000677165
-3.02097e-05
0.000694101
-6.78405e-05
0.000730021
-7.6466e-05
0.00077567
-7.88281e-05
0.000817507
-7.72901e-05
0.00086016
-6.973e-05
0.000902554
-6.3226e-05
0.000940243
-6.1038e-05
0.000974091
-5.52424e-05
0.00101009
-5.48497e-05
0.00104248
-5.343e-05
0.00107339
-5.27004e-05
0.00110153
-5.01067e-05
0.00112453
-4.7722e-05
0.00114393
-4.59573e-05
0.00116262
-4.41875e-05
0.0011797
-4.20069e-05
0.00119571
-3.93146e-05
0.00121094
-3.71566e-05
0.00122663
-3.52347e-05
0.00124157
-3.32187e-05
0.00125422
-3.09224e-05
0.00126484
-2.89984e-05
0.0012738
-2.70872e-05
0.00128249
-2.4586e-05
0.0012922
-2.18718e-05
0.00129861
-1.90563e-05
0.0013027
-1.59611e-05
0.00130621
-1.26938e-05
0.0013079
-8.69931e-06
0.00130846
-4.57203e-06
0.00130762
-7.1059e-07
0.0013067
2.58708e-06
0.00130393
6.54952e-06
0.00129809
1.24274e-05
0.00128988
1.79258e-05
0.00127953
2.40645e-05
0.00126402
2.82176e-05
0.00123628
3.57476e-05
0.00120517
4.24251e-05
0.00116787
5.45445e-05
0.00112245
8.23955e-05
0.00107652
0.000118359
0.00101609
0.000149653
0.000942008
0.000153522
0.000873046
0.000161955
0.000795205
0.000142563
0.000711401
0.00014333
0.000619843
0.000128348
0.000542085
0.000123592
0.000486255
0.000115052
0.000432784
0.000107864
0.000382617
0.000103981
0.000345985
0.000102667
0.000321858
9.4428e-05
0.00030489
8.10862e-05
0.000289161
6.75112e-05
0.000272918
5.90568e-05
0.000260049
5.57228e-05
0.000247305
5.44379e-05
0.000232779
5.56563e-05
0.000216736
5.77102e-05
0.00019926
6.2182e-05
0.000178907
6.60587e-05
0.000155447
7.24966e-05
0.00013168
7.89814e-05
0.000108517
8.74292e-05
8.58632e-05
9.39476e-05
6.57739e-05
0.000108255
4.95175e-05
0.00011264
3.5416e-05
0.000132657
2.53648e-05
0.000132597
1.7817e-05
0.000143717
1.33134e-05
0.000136197
7.62965e-06
0.000204836
2.85245e-06
5.7873e-05
-4.59698e-06
0.000901981
-9.13354e-06
0.000875061
-1.21222e-05
0.000851075
-1.52058e-05
0.000833188
-1.53748e-05
0.000823974
-1.34461e-05
0.000822356
-1.18506e-05
0.00082693
-1.08029e-05
0.000834189
-9.88061e-06
0.000844294
-8.611e-06
0.000858283
-7.82152e-06
0.000876422
-9.90682e-06
0.000896509
-1.23539e-05
0.000912864
-1.47191e-05
0.000926859
-1.6327e-05
0.000937632
-1.76103e-05
0.00094548
-1.89814e-05
0.000950897
-1.90054e-05
0.00095401
-1.80768e-05
0.000956257
-1.69157e-05
0.000959678
-1.53936e-05
0.000964407
-1.40629e-05
0.000969293
-1.20033e-05
0.000974937
-1.07668e-05
0.000983935
-9.934e-06
0.000994507
-9.97011e-06
0.00100547
-9.98357e-06
0.00101555
-1.00949e-05
0.00102399
-1.00007e-05
0.0010325
-9.75521e-06
0.00103947
-9.67525e-06
0.00104445
-9.14724e-06
0.00104874
-8.5807e-06
0.00105387
-7.85814e-06
0.00105771
-6.99697e-06
0.00106121
-6.08889e-06
0.00106509
-5.22648e-06
0.00106874
-3.99348e-06
0.00107105
-1.35066e-06
0.0010727
2.14901e-05
0.00107206
0.000146889
0.00105948
8.00764e-05
0.000993369
-1.14426e-05
0.000934907
-6.6145e-05
0.000932563
-0.000111997
0.000949382
-0.000119172
0.000978251
-0.000118998
0.00100682
-0.000115178
0.00103691
-0.00011184
0.00106562
-0.000100222
0.00109059
-9.51869e-05
0.0011176
-8.83028e-05
0.00114721
-8.52761e-05
0.00117574
-7.80189e-05
0.00120295
-7.4145e-05
0.00122771
-6.99252e-05
0.00125083
-6.68825e-05
0.00127232
-6.38541e-05
0.00129326
-6.09792e-05
0.00131153
-5.75354e-05
0.00132882
-5.35775e-05
0.00134463
-5.01249e-05
0.00135945
-4.7319e-05
0.00137386
-4.40487e-05
0.0013877
-4.06614e-05
0.00140025
-3.78575e-05
0.00141188
-3.48928e-05
0.00142314
-3.13286e-05
0.00143116
-2.71911e-05
0.00143625
-2.2973e-05
0.00143987
-1.86704e-05
0.00144292
-1.43023e-05
0.00144424
-9.0149e-06
0.00144463
-2.85832e-06
0.00144522
3.87104e-06
0.00144465
1.09484e-05
0.00144226
1.71158e-05
0.00143833
2.64945e-05
0.00143165
3.43694e-05
0.00142142
4.60147e-05
0.00140072
6.0241e-05
0.00137467
7.78716e-05
0.00134685
8.85255e-05
0.0013119
0.000105196
0.00125991
0.000129876
0.001192
0.000186954
0.00110814
0.000222112
0.00103533
0.000232623
0.000955067
0.000249997
0.000866692
0.000224998
0.000785622
0.000221649
0.000706185
0.000192435
0.000628273
0.00017854
0.000551918
0.000161502
0.000477438
0.000143226
0.000421256
0.000130122
0.000378526
0.000121169
0.000341843
0.00011256
0.000309847
9.51835e-05
0.000289485
8.08127e-05
0.000276259
7.24544e-05
0.000260902
7.06684e-05
0.000244844
7.14045e-05
0.000227514
7.51809e-05
0.000208442
7.96911e-05
0.000186689
8.63898e-05
0.000161819
9.04794e-05
0.000135429
9.51655e-05
0.000110291
0.000100419
8.66027e-05
0.000106159
6.42068e-05
0.000110459
4.62356e-05
0.000123978
3.33477e-05
0.000124672
2.21807e-05
0.000141692
1.40842e-05
0.000137708
7.80371e-06
0.000148698
5.16889e-06
0.000139506
6.86951e-07
0.000205194
-2.4026e-06
-8.69026e-05
1.08818e-05
0.000623893
8.94396e-06
0.000667887
1.85528e-06
0.000706459
-3.4836e-06
0.00073993
-6.60862e-06
0.00076306
-1.13153e-05
0.000781473
-1.62225e-05
0.00079471
-1.92765e-05
0.000803228
-2.26534e-05
0.00080892
-2.58315e-05
0.000813056
-2.82082e-05
0.0008156
-2.72228e-05
0.000815944
-2.51751e-05
0.000818004
-2.37903e-05
0.000825561
-2.27208e-05
0.000836158
-2.16808e-05
0.000849032
-2.07594e-05
0.000864005
-2.04882e-05
0.000880025
-2.13251e-05
0.000895562
-2.22535e-05
0.000908995
-2.27653e-05
0.000919798
-2.24688e-05
0.000928424
-2.30266e-05
0.000935114
-2.32613e-05
0.000939475
-2.32805e-05
0.000942244
-2.24585e-05
0.000943904
-2.08866e-05
0.00094551
-1.8678e-05
0.000948835
-1.68772e-05
0.000952974
-1.50298e-05
0.00095787
-1.3574e-05
0.000963727
-1.2221e-05
0.000969985
-1.09468e-05
0.000976498
-9.85932e-06
0.000983387
-8.789e-06
0.000989923
-7.52405e-06
0.00099589
-6.13506e-06
0.00100132
-4.33113e-06
0.00100622
2.7217e-07
0.00101063
3.47872e-05
0.00101461
0.000212321
0.00102006
0.000140711
0.000991799
-6.2973e-06
0.000970123
-8.00249e-05
0.000984542
-0.000140618
0.00102272
-0.000147869
0.00108207
-0.000150463
0.00113465
-0.000146584
0.00118104
-0.000140331
0.00122277
-0.00013017
0.00125923
-0.00012422
0.00129066
-0.000115191
0.0013159
-0.000110544
0.00134241
-0.000102055
0.00136618
-9.88565e-05
0.0013872
-9.29429e-05
0.00140211
-8.74772e-05
0.00141608
-8.18841e-05
0.00143197
-7.73536e-05
0.00144595
-7.28896e-05
0.00145852
-6.7718e-05
0.00147103
-6.31655e-05
0.00148262
-5.86822e-05
0.00149345
-5.41078e-05
0.00150249
-4.95656e-05
0.00151122
-4.53588e-05
0.00151967
-4.13466e-05
0.00152762
-3.70263e-05
0.00153287
-3.20189e-05
0.00153478
-2.68698e-05
0.00153478
-2.15865e-05
0.0015338
-1.58217e-05
0.00153294
-9.28637e-06
0.00153121
-2.19164e-06
0.00152896
6.44286e-06
0.00152708
1.65117e-05
0.00152427
2.60473e-05
0.00151947
3.72786e-05
0.00151144
4.99764e-05
0.00150156
6.92303e-05
0.00148673
9.10145e-05
0.00147058
0.000110088
0.00144955
0.000138293
0.00140989
0.000176585
0.00136102
0.000213928
0.00130947
0.000267123
0.00124026
0.000299356
0.0011623
0.000313595
0.00108891
0.000327356
0.00101705
0.000307091
0.000942793
0.000305177
0.00086173
0.000269191
0.000781012
0.000251928
0.000700597
0.000219848
0.000614245
0.000190215
0.000534039
0.000166218
0.000465816
0.000148148
0.000412593
0.000130384
0.000369398
0.000110183
0.000333734
9.79026e-05
0.000304081
8.8488e-05
0.000281443
8.79053e-05
0.000262178
9.05995e-05
0.000241808
9.77953e-05
0.000218912
0.000105191
0.000193698
0.000113375
0.000167356
0.000116224
0.000139327
0.000118389
0.000112282
0.000121515
8.7373e-05
0.000122798
6.3885e-05
0.000123424
4.51217e-05
0.000136107
3.18952e-05
0.000134153
2.10401e-05
0.000149478
1.26997e-05
0.000141412
4.95598e-06
0.000153137
1.04024e-06
0.000141504
-3.69827e-06
0.000200293
-6.78079e-06
6.99292e-05
-2.17957e-05
0.000960276
-2.32358e-05
0.000933263
-2.8198e-05
0.000909539
-3.2769e-05
0.000893466
-3.32026e-05
0.000884522
-3.13176e-05
0.000884222
-2.97956e-05
0.000890989
-2.9271e-05
0.000901603
-2.83498e-05
0.000915907
-2.66204e-05
0.000934492
-2.55306e-05
0.000957649
-2.72922e-05
0.000982895
-3.05297e-05
0.00100491
-3.3012e-05
0.00102137
-3.47707e-05
0.00103518
-3.63709e-05
0.00104643
-3.76866e-05
0.00105496
-3.7829e-05
0.00106126
-3.67774e-05
0.00106654
-3.49918e-05
0.00107169
-3.2801e-05
0.00107723
-3.01388e-05
0.00108346
-2.77499e-05
0.00108966
-2.61136e-05
0.00110028
-2.43753e-05
0.00111282
-2.34253e-05
0.00112665
-2.2784e-05
0.00114035
-2.20457e-05
0.00115191
-2.15733e-05
0.00116292
-2.08002e-05
0.001172
-1.99331e-05
0.00117904
-1.8849e-05
0.00118536
-1.78936e-05
0.00119287
-1.63804e-05
0.00119839
-1.47825e-05
0.00120331
-1.29968e-05
0.00120801
-1.11477e-05
0.00121238
-8.95759e-06
0.00121665
-3.32462e-06
0.0012213
2.95727e-05
0.00122684
0.000238761
0.00123984
0.000161935
0.00134083
-2.12268e-05
0.00132267
-0.000117299
0.00135067
-0.000198466
0.00136417
-0.000201712
0.00137845
-0.00019943
0.00139195
-0.000190639
0.00140452
-0.000176827
0.00141831
-0.000164069
0.00143322
-0.000152616
0.00144815
-0.000142182
0.00146365
-0.000133252
0.00148273
-0.00012348
0.00149778
-0.000116353
0.00151317
-0.000109248
0.00152888
-0.000102623
0.00153987
-9.6283e-05
0.00154837
-9.01204e-05
0.00155904
-8.38064e-05
0.00157022
-7.74782e-05
0.00157973
-7.17155e-05
0.00158828
-6.6354e-05
0.00159563
-6.07115e-05
0.00160264
-5.48644e-05
0.00160903
-4.97026e-05
0.00161506
-4.48703e-05
0.00161944
-3.97004e-05
0.00162188
-3.39815e-05
0.00162228
-2.81522e-05
0.00162083
-2.21184e-05
0.00161908
-1.51657e-05
0.00161712
-7.27334e-06
0.00161447
1.97643e-06
0.00161142
1.19238e-05
0.00160692
2.17918e-05
0.00160118
3.35762e-05
0.00159301
4.68561e-05
0.00158389
6.61075e-05
0.00157406
8.53074e-05
0.00156079
0.000111792
0.00153796
0.000145502
0.00151414
0.000192185
0.00148741
0.000231743
0.00144559
0.00028475
0.00138862
0.000337294
0.00133464
0.000371678
0.00128682
0.000386963
0.001236
0.000399007
0.00118561
0.000385515
0.00112185
0.000387398
0.00104908
0.000356661
0.000963764
0.000341465
0.000869989
0.000299059
0.000771004
0.000256875
0.000673192
0.000220616
0.000574384
0.000192916
0.000488183
0.00016452
0.000420148
0.000137636
0.000371747
0.000121985
0.000338081
0.000110619
0.000311999
0.000109283
0.000288892
0.000112751
0.00026645
0.000122386
0.000244362
0.000131254
0.000219794
0.000141062
0.000192597
0.000143525
0.000164912
0.000143296
0.00013622
0.000144539
0.000108987
0.000140697
8.30487e-05
0.000136391
6.18934e-05
0.000147116
4.54617e-05
0.000143465
3.06198e-05
0.000158306
2.01149e-05
0.000145832
1.02378e-05
0.000157882
3.542e-06
0.000143435
-2.92058e-06
0.000191504
-7.97118e-06
-0.000120161
-9.31428e-06
0.000613679
-9.01136e-06
0.000665446
-1.69738e-05
0.000711183
-2.29731e-05
0.00074993
-2.6489e-05
0.000778064
-3.10129e-05
0.000800716
-3.62529e-05
0.000818649
-4.06975e-05
0.000832894
-4.43058e-05
0.000844492
-4.75601e-05
0.000853966
-5.0728e-05
0.00086075
-4.95118e-05
0.000866664
-4.83745e-05
0.000876402
-4.68238e-05
0.000888724
-4.51023e-05
0.000902988
-4.36504e-05
0.000919199
-4.23153e-05
0.000937168
-4.12775e-05
0.000956393
-4.10957e-05
0.00097525
-4.12021e-05
0.000991878
-4.08643e-05
0.00100531
-4.02975e-05
0.00101661
-4.06969e-05
0.00102644
-4.04123e-05
0.00103547
-3.9874e-05
0.00104319
-3.86348e-05
0.00104987
-3.64387e-05
0.00105617
-3.35009e-05
0.00106198
-3.10174e-05
0.00106893
-2.86088e-05
0.00107724
-2.63163e-05
0.00108581
-2.41212e-05
0.00109445
-2.17948e-05
0.00110313
-1.98278e-05
0.00111198
-1.78056e-05
0.00112038
-1.56934e-05
0.00112821
-1.38751e-05
0.00113546
-1.22282e-05
0.00114224
-7.78683e-06
0.00114858
1.81501e-05
0.00115552
0.000136723
0.00117378
0.000151174
0.00126864
-4.92663e-05
0.00140798
-0.000125813
0.00145541
-0.000207468
0.00146708
-0.000212421
0.00148494
-0.000211619
0.00150096
-0.000205085
0.00151606
-0.000193627
0.00153002
-0.000182513
0.00154292
-0.000169162
0.00155487
-0.000159632
0.00156649
-0.000148589
0.0015789
-0.000139693
0.0015897
-0.000130708
0.00159829
-0.000121364
0.00160428
-0.000114121
0.00161265
-0.000107513
0.00162094
-0.000100295
0.00162792
-9.28645e-05
0.00163401
-8.56745e-05
0.0016406
-7.90428e-05
0.00164595
-7.27892e-05
0.00165159
-6.60957e-05
0.00165703
-5.91473e-05
0.00166111
-5.31555e-05
0.00166356
-4.77553e-05
0.00166481
-4.19616e-05
0.00166598
-3.53934e-05
0.00166595
-2.85148e-05
0.00166389
-2.12364e-05
0.00166109
-1.28229e-05
0.00165895
-3.7594e-06
0.0016561
7.28812e-06
0.00165126
1.84363e-05
0.00164452
2.97612e-05
0.00163653
4.27706e-05
0.00162728
5.74272e-05
0.00161651
7.75692e-05
0.00160319
0.000103019
0.00158572
0.000137495
0.00156365
0.000174751
0.00153356
0.000227598
0.00149352
0.000285487
0.00144261
0.000344031
0.00139009
0.000390134
0.00133532
0.000421821
0.00128757
0.000437374
0.00123952
0.000465976
0.00119091
0.000461687
0.00113592
0.000473185
0.00107192
0.000449012
0.00100185
0.000439835
0.000920084
0.000400859
0.00083856
0.000360852
0.000751651
0.00031001
0.000658533
0.000260602
0.00056755
0.000210986
0.000496215
0.00017126
0.000441887
0.000148552
0.000398471
0.00013482
0.000361655
0.000133551
0.000329646
0.000136557
0.000300118
0.000146464
0.00027287
0.000156613
0.000247244
0.000168158
0.00022242
0.000171775
0.000197073
0.000170348
0.000169618
0.000170626
0.000140973
0.000162297
0.000112418
0.00015319
8.63804e-05
0.000161224
6.17954e-05
0.000153708
4.29336e-05
0.000167762
3.05385e-05
0.000152071
1.82943e-05
0.000164054
8.88747e-06
0.000147662
6.33815e-07
0.000182789
-5.7576e-06
6.53025e-05
-4.68786e-05
0.000999468
-4.62381e-05
0.000976233
-5.20405e-05
0.000957997
-5.63462e-05
0.000945971
-5.80984e-05
0.000939488
-5.70082e-05
0.000940658
-5.5983e-05
0.000949465
-5.59056e-05
0.000963746
-5.50928e-05
0.000981202
-5.38782e-05
0.00100143
-5.2521e-05
0.00102503
-5.34989e-05
0.00105045
-5.69944e-05
0.00107298
-5.91183e-05
0.00109177
-6.04722e-05
0.00110744
-6.19128e-05
0.00112037
-6.30344e-05
0.00113062
-6.29446e-05
0.00113872
-6.15548e-05
0.00114554
-5.85587e-05
0.00115143
-5.55211e-05
0.00115744
-5.27102e-05
0.00116366
-5.07674e-05
0.00117269
-4.81747e-05
0.00118485
-4.54348e-05
0.00119853
-4.30332e-05
0.0012121
-4.09684e-05
0.00122544
-3.90041e-05
0.00123864
-3.75278e-05
0.00125018
-3.58278e-05
0.00126065
-3.40636e-05
0.00127089
-3.21381e-05
0.0012798
-3.01314e-05
0.00128787
-2.78382e-05
0.0012948
-2.53703e-05
0.00130057
-2.28352e-05
0.00130561
-2.0589e-05
0.00131013
-1.85278e-05
0.00131443
-1.46861e-05
0.00131842
-4.74238e-07
0.00132303
4.3622e-05
0.00133637
3.17124e-06
0.00140005
-9.54729e-05
0.00153946
-0.000139996
0.00157447
-0.000226403
0.00157774
-0.000227121
0.00157492
-0.000226166
0.00157591
-0.000219463
0.00157862
-0.000208018
0.00158364
-0.000196661
0.00159022
-0.000182771
0.00159737
-0.000172808
0.00160505
-0.000160788
0.00161533
-0.000151494
0.00162547
-0.000139842
0.00163793
-0.000131522
0.00164948
-0.000123494
0.00166051
-0.000116345
0.00167088
-0.000107303
0.0016798
-9.93982e-05
0.001687
-9.13769e-05
0.00169455
-8.4047e-05
0.0017017
-7.69771e-05
0.00170794
-6.92768e-05
0.00171357
-6.1688e-05
0.00171696
-5.55353e-05
0.00171869
-4.98133e-05
0.00171995
-4.35134e-05
0.00172157
-3.59131e-05
0.00172278
-2.71875e-05
0.00172223
-1.91577e-05
0.00172181
-9.41842e-06
0.00172144
1.21575e-06
0.00171894
1.3515e-05
0.00171383
2.60121e-05
0.00170637
3.86587e-05
0.00169688
5.31863e-05
0.00168548
6.98101e-05
0.00167199
9.30614e-05
0.00165586
0.000122522
0.00163661
0.00016569
0.0016119
0.000213636
0.00157508
0.000277304
0.00152962
0.000338421
0.00147637
0.000399335
0.0014275
0.00043647
0.00138002
0.000471839
0.00133604
0.000488157
0.00129231
0.000521477
0.00124024
0.000523879
0.00119028
0.000541598
0.00113631
0.00053016
0.00107735
0.000523649
0.00100936
0.000489856
0.000941546
0.000456595
0.000863427
0.000402432
0.000775715
0.000334331
0.000682603
0.000265453
0.000593137
0.000213658
0.00052142
0.000185491
0.000462604
0.000169531
0.000409805
0.000165961
0.000367369
0.000165437
0.000335053
0.000172344
0.000308991
0.000181317
0.000286084
0.000192563
0.000264463
0.000198184
0.00024184
0.0001986
0.000217139
0.000199254
0.000188616
0.000189851
0.000157768
0.0001796
0.000125316
0.000180019
8.9864e-05
0.000165623
6.43329e-05
0.000178129
4.6219e-05
0.000159485
2.91224e-05
0.000171046
1.76537e-05
0.000153051
7.41858e-06
0.00017683
-1.11194e-06
-0.000145886
-3.8339e-05
0.000633365
-3.96723e-05
0.000688514
-4.51052e-05
0.000736972
-5.07582e-05
0.000777522
-5.49254e-05
0.000808617
-5.96913e-05
0.000835106
-6.45404e-05
0.000857463
-6.82828e-05
0.00087677
-7.19296e-05
0.000896137
-7.50498e-05
0.000913102
-7.77787e-05
0.000928274
-7.72339e-05
0.000941779
-7.64799e-05
0.000957053
-7.5294e-05
0.000974487
-7.38131e-05
0.000993062
-7.20509e-05
0.00101285
-7.00167e-05
0.00103426
-6.82904e-05
0.0010566
-6.69307e-05
0.0010784
-6.52376e-05
0.0010984
-6.45271e-05
0.00111625
-6.39734e-05
0.00113254
-6.3385e-05
0.00114804
-6.18905e-05
0.00116227
-5.9913e-05
0.00117523
-5.77788e-05
0.00118712
-5.50663e-05
0.00119881
-5.16968e-05
0.00121019
-4.87514e-05
0.00122137
-4.55472e-05
0.00123263
-4.23835e-05
0.00124428
-3.9399e-05
0.00125531
-3.59659e-05
0.0012652
-3.27605e-05
0.00127462
-2.9751e-05
0.00128395
-2.67245e-05
0.00129318
-2.38161e-05
0.00130218
-2.09646e-05
0.00131076
-1.76584e-05
0.00131887
-1.22125e-05
0.00132693
-1.98734e-05
0.00133978
-0.000131168
0.00137721
-0.000125274
0.00144254
-0.000138972
0.00148874
-0.000222726
0.00150635
-0.000228862
0.00152555
-0.000228674
0.00154263
-0.000223914
0.00155953
-0.000214474
0.00157639
-0.000204228
0.00159352
-0.000191082
0.00161016
-0.00018361
0.00162491
-0.000171918
0.00164115
-0.000163474
0.00165662
-0.000151921
0.00167218
-0.000144811
0.00168767
-0.000133818
0.00170058
-0.000125578
0.00170977
-0.000115674
0.00171823
-0.000107576
0.00172528
-9.79171e-05
0.00173076
-8.97176e-05
0.00173534
-8.19976e-05
0.00173994
-7.33881e-05
0.00174334
-6.49809e-05
0.00174411
-5.80489e-05
0.00174378
-5.17259e-05
0.00174285
-4.46517e-05
0.00174228
-3.61399e-05
0.00174163
-2.65065e-05
0.00174132
-1.67986e-05
0.00174144
-5.55904e-06
0.00174144
6.66469e-06
0.00174104
2.05461e-05
0.00173743
3.46344e-05
0.00173056
4.91998e-05
0.00172024
6.57935e-05
0.00170808
8.46921e-05
0.00169319
0.000110949
0.00167339
0.000145223
0.00164708
0.00019876
0.00161439
0.000257883
0.00156852
0.000329675
0.00151541
0.000385283
0.00146163
0.000442912
0.00141783
0.00047742
0.00137536
0.000514546
0.00133501
0.000536546
0.0012951
0.000568435
0.00125199
0.000576427
0.00121083
0.000599078
0.00116293
0.000597192
0.00111113
0.000593455
0.00105086
0.000568728
0.00098787
0.000545327
0.000912288
0.000493802
0.000829255
0.000423786
0.000739576
0.000340141
0.000644341
0.000273476
0.00055929
0.000238028
0.000494367
0.000212294
0.000441092
0.000200177
0.000400808
0.000193013
0.000370782
0.000195905
0.000345147
0.000203046
0.000321432
0.00021427
0.000298829
0.000221618
0.000275774
0.000226131
0.000249908
0.000229761
0.000219361
0.000223236
0.000187276
0.000217606
0.000153714
0.000207162
0.000116256
0.000183596
8.79526e-05
0.000192948
6.33548e-05
0.000168249
4.06169e-05
0.000179304
2.71432e-05
0.000160244
1.43069e-05
0.000175799
3.82916e-06
4.07022e-05
-7.90636e-05
0.00101432
-7.90903e-05
0.000994222
-8.18363e-05
0.000981295
-8.56535e-05
0.000974184
-8.9483e-05
0.000975217
-9.0794e-05
0.00098004
-9.00924e-05
0.000989164
-8.96343e-05
0.00100434
-8.9801e-05
0.00102316
-8.88152e-05
0.00104476
-8.76307e-05
0.00106618
-8.83768e-05
0.00108813
-9.02766e-05
0.0011101
-9.1704e-05
0.00113076
-9.25997e-05
0.00114969
-9.33651e-05
0.00116632
-9.3706e-05
0.00118016
-9.30902e-05
0.00119105
-9.10033e-05
0.00120003
-8.72096e-05
0.00120816
-8.40687e-05
0.00121648
-8.17723e-05
0.0012261
-7.90243e-05
0.0012397
-7.5362e-05
0.00125428
-7.12902e-05
0.00126867
-6.75455e-05
0.00128282
-6.4204e-05
0.00129619
-6.09896e-05
0.00130847
-5.76604e-05
0.00131759
-5.48348e-05
0.00132601
-5.16925e-05
0.00133606
-4.86241e-05
0.00134663
-4.5285e-05
0.00135623
-4.20047e-05
0.00136495
-3.87124e-05
0.00137265
-3.52866e-05
0.00137928
-3.18894e-05
0.00138501
-2.8383e-05
0.00139105
-2.50845e-05
0.00139774
-2.4672e-05
0.00140435
-5.73264e-05
0.00141323
-0.000198147
0.00143621
-0.000174929
0.00149756
-0.000158661
0.00155643
-0.000242756
0.00159031
-0.000246687
0.00161461
-0.000245625
0.00163347
-0.000239483
0.00165138
-0.000230025
0.00166681
-0.000220528
0.00168391
-0.000205943
0.00169814
-0.000199744
0.00171482
-0.000186891
0.00172849
-0.000177759
0.00174143
-0.000165732
0.00175434
-0.000157284
0.00176628
-0.00014345
0.00177686
-0.000134106
0.00178714
-0.000122898
0.00179581
-0.000113932
0.00180244
-0.000103377
0.00180767
-9.46137e-05
0.00181302
-8.5521e-05
0.00181849
-7.56761e-05
0.00182108
-6.63131e-05
0.00182129
-5.83596e-05
0.00182121
-5.10818e-05
0.00181991
-4.28624e-05
0.00181883
-3.33881e-05
0.00181556
-2.33051e-05
0.00181207
-1.27116e-05
0.00180865
-5.10473e-07
0.0018041
1.27732e-05
0.00179853
2.77779e-05
0.00179144
4.42669e-05
0.00178222
6.048e-05
0.00176951
7.9524e-05
0.00175469
0.00010225
0.00173671
0.000134964
0.00171392
0.000176683
0.0016815
0.000242188
0.00163692
0.000308237
0.00158277
0.000380861
0.00153164
0.000428291
0.00148473
0.000482338
0.00143995
0.000515593
0.00139555
0.000554354
0.00135375
0.00057852
0.00131428
0.00060876
0.00127435
0.000625461
0.00123651
0.000653092
0.00119847
0.000659296
0.00115743
0.00065827
0.00110311
0.000643757
0.00104482
0.000627738
0.000976242
0.000583029
0.000902411
0.000518328