/*--------------------------------*- C++ -*----------------------------------*\
| =========                 |                                                 |
| \\      /  F ield         | OpenFOAM: The Open Source CFD Toolbox           |
|  \\    /   O peration     | Version:  2.1.1                                 |
|   \\  /    A nd           | Web:      www.OpenFOAM.org                      |
|    \\/     M anipulation  |                                                 |
\*---------------------------------------------------------------------------*/
FoamFile
{
    version     2.0;
    format      ascii;
    class       surfaceScalarField;
    location    "3.14";
    object      phi;
}
// * * * * * * * * * * * * * * * * * * * * * * * * * * * * * * * * * * * * * //

dimensions      [1 0 -1 0 0 0 0];

internalField   nonuniform List<scalar> 
19800
(
-0.00161469
0.0037893
-0.00147272
0.00636675
-0.000972193
0.00888241
-0.000304535
0.0120414
0.000525877
0.0143685
0.00120481
0.0158024
0.00172133
0.0174052
0.00233611
0.0192571
0.00276734
0.0209535
0.00297104
0.022689
0.00293616
0.0244732
0.00281542
0.0263334
0.00270088
0.0284122
0.00266506
0.030801
0.00279369
0.033239
0.00307705
0.035804
0.00360132
0.0383144
0.00416421
0.0407149
0.00485916
0.0430785
0.0056603
0.0451264
0.00657505
0.0472283
0.00757318
0.0490346
0.00856843
0.0509562
0.00952406
0.0530818
0.0102466
0.0554834
0.0100945
0.0577455
0.00915574
0.0594653
0.00728076
0.0608668
0.00480373
0.0619412
0.00177438
0.0621699
-0.00132655
0.0616341
-0.00382016
0.0605215
-0.00548361
0.0590849
-0.00641963
0.058228
-0.00670274
0.0575582
-0.00673961
0.0573566
-0.00656841
0.0571811
-0.00641214
0.0572301
-0.00628809
0.057247
-0.00614119
0.0574719
-0.00610017
0.0573521
-0.00602634
0.0574399
-0.00593409
0.0570688
-0.00557053
0.0567806
-0.00499001
0.0565551
-0.00438362
0.056589
-0.00372318
0.0564661
-0.00302071
0.0566872
-0.00225831
0.0561132
-0.00150042
0.0555484
-0.000796849
0.0548652
-0.000198085
0.054084
0.000298625
0.0534825
0.000494339
0.053202
0.00068929
0.0527779
0.000830991
0.052387
0.000657351
0.0524147
0.000399946
0.0522913
6.23444e-05
0.0523404
-0.000317272
0.0519427
-0.000807429
0.0518366
-0.00101279
0.0508564
-0.00185389
0.0505202
-0.00302628
0.0511074
-0.00465561
0.0534706
-0.00629017
0.0580367
-0.00598763
0.0633375
-0.00473181
0.0666012
-0.00352295
0.0679036
-0.00287854
0.0666827
-0.00191314
0.0604435
-0.00193612
0.0515164
-0.00270089
0.0409063
-0.00410515
0.0320603
-0.00564241
0.0282835
-0.00719069
0.027215
-0.00882809
0.0254829
-0.0104284
0.0235713
-0.0116571
0.0210211
-0.0124287
0.0187627
-0.0126937
0.0172954
-0.0125493
0.0164517
-0.0122955
0.015955
-0.0119943
0.0158303
-0.0117376
0.0158026
-0.0114217
0.0156299
-0.0110648
0.0155397
-0.0106454
0.0152214
-0.0101545
0.0148029
-0.00931032
0.0140095
-0.00827211
0.0129219
-0.00733298
0.0118558
-0.00636574
0.0106283
-0.00527139
0.00933348
-0.00407575
0.00784751
-0.00299705
0.00674778
-0.00182522
0.00549085
-0.00118076
0.00466262
-0.000818012
0.00366107
0.00220019
-0.00440876
0.00531445
-0.00403557
0.00783931
-0.00354881
0.0103001
-0.00290628
0.0133368
-0.00232724
0.0157393
-0.00198035
0.0174645
-0.00183087
0.0193519
-0.00159949
0.0212318
-0.00147549
0.0232263
-0.00152325
0.0252738
-0.00171398
0.0272949
-0.00192601
0.0293829
-0.00215298
0.0316557
-0.0023697
0.0341697
-0.00239843
0.0364582
-0.00238459
0.0390133
-0.00220733
0.0413589
-0.00188715
0.0435639
-0.00151473
0.0458492
-0.0011549
0.0479244
-0.000708717
0.0499601
-0.000360216
0.0519053
-0.000120315
0.0541183
-3.51053e-05
0.0566405
-0.000496594
0.0591516
-0.00163507
0.0611772
-0.00324555
0.0626157
-0.00486279
0.0633883
-0.00623284
0.0634428
-0.00759876
0.0628687
-0.00900952
0.0614481
-0.0102018
0.0598144
-0.0108762
0.0584456
-0.01103
0.0575032
-0.0109726
0.0570617
-0.0108459
0.0570004
-0.0107269
0.057078
-0.0105207
0.0573753
-0.0104085
0.0573818
-0.0102905
0.057506
-0.0100366
0.0570778
-0.00958342
0.056715
-0.00886054
0.0561736
-0.00803799
0.0557892
-0.00724339
0.0556388
-0.0066703
0.0557862
-0.0062391
0.0558827
-0.00586052
0.0563927
-0.00543257
0.0561788
-0.00510898
0.0559636
-0.00487489
0.0557054
-0.00478754
0.0553531
-0.0047663
0.055087
-0.00485683
0.0549082
-0.00499152
0.0544044
-0.00538212
0.0541606
-0.00618125
0.0547213
-0.00741676
0.0550214
-0.00871739
0.0550728
-0.00979973
0.0545271
-0.0106865
0.0537965
-0.0121257
0.0525541
-0.0136178
0.0515374
-0.0162199
0.0531417
-0.0188577
0.0556531
-0.0209523
0.0602321
-0.0215299
0.0646267
-0.0208245
0.0672248
-0.0192705
0.0672621
-0.0160992
0.0624754
-0.0137209
0.0550225
-0.00958591
0.0431774
-0.00809288
0.0348888
-0.00860642
0.0303206
-0.00938352
0.0284876
-0.0101194
0.0269816
-0.0110935
0.0250808
-0.0119656
0.0227093
-0.0127249
0.0203889
-0.0130838
0.0187552
-0.0130825
0.0175283
-0.0128809
0.0168516
-0.0125947
0.0165774
-0.0123015
0.0164183
-0.012066
0.0165601
-0.0116779
0.0164715
-0.0113344
0.0161373
-0.0108129
0.0157885
-0.00988176
0.0151041
-0.00895042
0.0142876
-0.00802726
0.013253
-0.0070182
0.0121504
-0.00589585
0.0107844
-0.0047231
0.00941901
-0.00362227
0.00797374
-0.00255536
0.00695204
-0.00195164
0.00637601
-0.00189653
0.00634573
-0.000785031
0.00424647
0.00275528
-0.00719233
0.00636314
-0.00645769
0.00891611
-0.00583269
0.0115354
-0.00526016
0.0146771
-0.00501261
0.017458
-0.00520305
0.0196955
-0.00547394
0.0217827
-0.0056873
0.0237821
-0.00594484
0.0259525
-0.00633942
0.0281602
-0.00680888
0.0303044
-0.00728807
0.0325685
-0.00767538
0.0348496
-0.00811869
0.0374439
-0.00863355
0.0398537
-0.00892011
0.0421609
-0.00916528
0.0444147
-0.00936219
0.0465679
-0.00950312
0.048792
-0.00961434
0.0508758
-0.00967346
0.0528198
-0.00985866
0.0550001
-0.00996032
0.0574199
-0.00999133
0.0600375
-0.0102636
0.0622241
-0.0107172
0.0636374
-0.0111989
0.0641059
-0.0116681
0.0639813
-0.0123406
0.0633224
-0.0132079
0.0622068
-0.0142833
0.0603028
-0.0149216
0.0587395
-0.0151297
0.0577643
-0.0152195
0.0573777
-0.0151859
0.0573534
-0.0150395
0.0575434
-0.0148143
0.0575025
-0.0145348
0.0575891
-0.0140577
0.0571706
-0.0134423
0.0568198
-0.0126402
0.0561375
-0.0116229
0.0555736
-0.0107472
0.0551973
-0.0100533
0.0550548
-0.00956912
0.0551437
-0.00928848
0.0555378
-0.00916208
0.056038
-0.00910164
0.0569307
-0.00920086
0.0572669
-0.00943242
0.0574282
-0.00954436
0.0573659
-0.00952468
0.0570523
-0.00954968
0.0566759
-0.00997148
0.056569
-0.0110319
0.0566633
-0.0122751
0.0568961
-0.0138299
0.0579157
-0.0158289
0.0590073
-0.0178983
0.0586833
-0.0201369
0.0576913
-0.0225804
0.056543
-0.0258655
0.0554177
-0.0301406
0.05536
-0.033621
0.0563057
-0.0357599
0.0581893
-0.0364807
0.0610803
-0.0353557
0.0630395
-0.0337614
0.0644135
-0.0287068
0.0609351
-0.0213616
0.0521132
-0.0150206
0.0440287
-0.0125381
0.0357575
-0.0115428
0.0317969
-0.0115877
0.0294611
-0.0119746
0.0278526
-0.0123062
0.026029
-0.0127293
0.0237994
-0.0133279
0.0214647
-0.0136541
0.0197503
-0.0136256
0.0186669
-0.0134654
0.017976
-0.0131964
0.0173979
-0.0128178
0.0172142
-0.0125839
0.0172987
-0.0122948
0.0172183
-0.0118891
0.0171369
-0.0111061
0.0167152
-0.0103306
0.0160381
-0.00957674
0.0154113
-0.0086744
0.0146041
-0.00770309
0.0135041
-0.0066106
0.0123151
-0.00545622
0.0110038
-0.00440339
0.00975363
-0.00361293
0.00855945
-0.00307477
0.00792035
-0.00334543
0.00844237
-0.00278323
0.00776901
-0.00206837
0.00511368
0.00288847
-0.00965129
0.00708879
-0.0086995
0.00971507
-0.00792904
0.0125949
-0.00750917
0.0161563
-0.00768033
0.0196033
-0.00837366
0.022472
-0.00909446
0.0247621
-0.00984371
0.0269596
-0.0107023
0.0293065
-0.0115662
0.0315326
-0.0123031
0.033592
-0.0130245
0.0359488
-0.013777
0.0382824
-0.0144864
0.0407087
-0.0151743
0.0430951
-0.0157017
0.0452396
-0.0160971
0.0472876
-0.0164283
0.0493259
-0.0165571
0.0513715
-0.0165732
0.0533104
-0.0166166
0.0552595
-0.0164224
0.0574225
-0.0159093
0.0597867
-0.0154731
0.0619551
-0.0152579
0.0633636
-0.0152216
0.0639217
-0.015399
0.0639474
-0.0158622
0.0635751
-0.0166404
0.0626063
-0.0177384
0.0610552
-0.0186967
0.0592652
-0.0191798
0.0582702
-0.019354
0.0579055
-0.0193806
0.0579235
-0.0191495
0.0577241
-0.0186239
0.0576692
-0.0179378
0.0571913
-0.0171088
0.0568195
-0.0161113
0.0561597
-0.0149381
0.0555836
-0.013866
0.0550259
-0.0130291
0.0546793
-0.0124255
0.0545767
-0.0120631
0.0548134
-0.0119375
0.0552509
-0.0120494
0.0561515
-0.012419
0.0571784
-0.0127517
0.0581019
-0.0129583
0.0585279
-0.0129816
0.0585878
-0.0130727
0.0585941
-0.0133565
0.0583721
-0.0138182
0.0582287
-0.0149047
0.0586832
-0.0166775
0.0597177
-0.0193176
0.0610948
-0.0226896
0.0630299
-0.0260665
0.064031
-0.0301748
0.0634248
-0.0340335
0.0616694
-0.0375873
0.0598271
-0.040798
0.0578343
-0.0431177
0.0565038
-0.0446974
0.0556912
-0.045086
0.0570582
-0.0441564
0.0587985
-0.0408146
0.0579235
-0.0350752
0.0554343
-0.0270217
0.0486323
-0.0202353
0.0409247
-0.0162499
0.0365635
-0.0145408
0.0325587
-0.0138664
0.0303297
-0.0137762
0.028551
-0.0136021
0.0264322
-0.0136213
0.0243358
-0.0140264
0.0221515
-0.0143143
0.0203509
-0.0143544
0.0192669
-0.0141701
0.0185881
-0.0138459
0.0182095
-0.0134934
0.0182097
-0.0131268
0.0179202
-0.0128108
0.0178865
-0.0124001
0.0179134
-0.0118955
0.0174913
-0.011138
0.0170936
-0.0102362
0.0163403
-0.00938535
0.0155969
-0.0083228
0.0146647
-0.00717737
0.0135357
-0.00612186
0.0124943
-0.00516816
0.0114123
-0.00434531
0.0104283
-0.00385015
0.00962581
-0.00391975
0.00971552
-0.00379786
0.0102108
-0.00311035
0.00849088
-0.00195411
0.00529017
0.00262076
-0.0120835
0.00769051
-0.0111806
0.0105159
-0.0104714
0.01368
-0.0102794
0.0178372
-0.0107685
0.0220557
-0.0117705
0.0255741
-0.0129059
0.0281706
-0.0140038
0.0304013
-0.0149874
0.0326866
-0.0159842
0.0349434
-0.0169849
0.0370507
-0.017889
0.03935
-0.0187842
0.0416909
-0.0195607
0.0439031
-0.0202345
0.0460822
-0.0207219
0.0480481
-0.021048
0.0499846
-0.0211891
0.051883
-0.0211377
0.0536241
-0.0209401
0.0552552
-0.0205393
0.0570676
-0.0197997
0.0589913
-0.0190262
0.0608967
-0.0184934
0.0623274
-0.0182269
0.0631917
-0.0183042
0.0634771
-0.0186414
0.0635171
-0.0192642
0.0630286
-0.0203336
0.0617904
-0.0216813
0.0601909
-0.0224403
0.05896
-0.022706
0.0583011
-0.0226661
0.057956
-0.0222507
0.0576944
-0.0215045
0.0571263
-0.0205505
0.0567339
-0.0194225
0.0560215
-0.0180972
0.0554368
-0.0168535
0.0549099
-0.0157931
0.0544861
-0.0150366
0.0542944
-0.0145091
0.0542761
-0.0141779
0.0544939
-0.0140392
0.0550056
-0.0143027
0.0560116
-0.0148172
0.05733
-0.015205
0.058267
-0.015385
0.0590128
-0.0154799
0.0593426
-0.0156973
0.059439
-0.0163092
0.0595622
-0.0169404
0.059699
-0.0182788
0.0606494
-0.020559
0.0620596
-0.0240212
0.0647232
-0.0287148
0.0674349
-0.0333373
0.0687201
-0.0367933
0.0681212
-0.0390002
0.0657326
-0.0410105
0.0629615
-0.0429262
0.0603035
-0.044576
0.0577146
-0.0458182
0.0555796
-0.0463785
0.0537424
-0.0457079
0.0531872
-0.0429437
0.0520105
-0.0372092
0.048119
-0.0296039
0.0429629
-0.0236844
0.0386708
-0.0196178
0.0348332
-0.0175311
0.0327201
-0.0166537
0.0305727
-0.0157664
0.0289835
-0.0149423
0.0271073
-0.014753
0.0247588
-0.0149056
0.0225587
-0.0150195
0.0208447
-0.0150824
0.0197145
-0.0149302
0.0191037
-0.0145663
0.0187798
-0.0143023
0.0186088
-0.0140205
0.018728
-0.0136212
0.0186146
-0.0131211
0.0183911
-0.0125943
0.0182635
-0.0117748
0.0177457
-0.0110355
0.0172793
-0.0100878
0.0164747
-0.00902651
0.0156617
-0.00791288
0.0146171
-0.00679682
0.0135555
-0.00580569
0.0127251
-0.00499837
0.0119505
-0.00446896
0.0115268
-0.00442728
0.0112579
-0.00504538
0.0123428
-0.00423736
0.0111594
-0.00322891
0.00870763
-0.00176541
0.00492432
0.00241996
-0.014489
0.00828274
-0.0138516
0.011519
-0.0134739
0.015026
-0.0136613
0.0198424
-0.0143271
0.0246772
-0.015196
0.0285263
-0.0162814
0.0314081
-0.0173598
0.0337426
-0.0183377
0.0360184
-0.0193928
0.0383538
-0.0204846
0.0405169
-0.0214899
0.042725
-0.022374
0.0449597
-0.0231174
0.046938
-0.0236156
0.0487488
-0.0238974
0.0504677
-0.0239369
0.0522028
-0.0237773
0.0538961
-0.0235235
0.0554595
-0.0232141
0.0570198
-0.0226738
0.0586689
-0.0219824
0.0602341
-0.0214342
0.0615755
-0.0211027
0.0626204
-0.0210568
0.0633422
-0.0212982
0.0636602
-0.0217909
0.063562
-0.0226597
0.0626607
-0.0239974
0.0611708
-0.0249422
0.0596364
-0.0251916
0.0584873
-0.0249534
0.0577764
-0.0243139
0.0571108
-0.0234102
0.0565934
-0.0223011
0.0559635
-0.02096
0.0553357
-0.0196542
0.0547932
-0.0184602
0.0543437
-0.0174589
0.0540514
-0.0167399
0.0539768
-0.0162453
0.0540576
-0.0159532
0.0543531
-0.0158156
0.054821
-0.0159648
0.0556412
-0.0164315
0.0569559
-0.0168566
0.0582159
-0.0171728
0.0590753
-0.0174538
0.0597351
-0.0178756
0.0601414
-0.0184156
0.0603848
-0.019224
0.0610463
-0.0208584
0.0623695
-0.0237469
0.0646988
-0.0278778
0.0677925
-0.0323958
0.0706197
-0.0358644
0.0719767
-0.0376279
0.0708234
-0.038737
0.0690239
-0.039656
0.0658797
-0.0408116
0.0624849
-0.0421587
0.0592944
-0.0432005
0.0559472
-0.0436917
0.0527268
-0.0431171
0.0495071
-0.0407585
0.0463628
-0.0361663
0.0424457
-0.0302979
0.0387188
-0.0254942
0.0359421
-0.0222307
0.0333238
-0.0201423
0.031081
-0.0184994
0.0300175
-0.017264
0.0284076
-0.0164967
0.0273193
-0.0159376
0.0255066
-0.015841
0.0230959
-0.0158099
0.0212896
-0.015719
0.0200768
-0.0154803
0.0193932
-0.0151625
0.0190947
-0.0148538
0.0189605
-0.0144786
0.0192696
-0.0139879
0.0191569
-0.0136945
0.019026
-0.0130588
0.0189093
-0.0124393
0.018532
-0.0117317
0.0180636
-0.010721
0.0174328
-0.00979317
0.0165401
-0.00863072
0.0155278
-0.00752681
0.0146494
-0.00651633
0.0137456
-0.00571611
0.0131481
-0.00525703
0.0129347
-0.00518659
0.0131974
-0.0059128
0.0138974
-0.00529342
0.0134805
-0.00448583
0.0116236
-0.00302328
0.00821942
-0.00124537
0.00436091
0.00227849
-0.0170606
0.00903521
-0.0168485
0.0129013
-0.0169332
0.0167869
-0.0172072
0.0218995
-0.0176542
0.0270113
-0.0182609
0.0311132
-0.0191382
0.0343912
-0.0202183
0.0370335
-0.0212578
0.0393318
-0.022293
0.041679
-0.0233492
0.0439362
-0.0242522
0.0460101
-0.0250031
0.0479757
-0.0256623
0.0497413
-0.026143
0.0512767
-0.0264304
0.0527544
-0.0264588
0.0542465
-0.0262634
0.0557297
-0.0259782
0.0572509
-0.0255717
0.0587703
-0.0249792
0.06024
-0.0244182
0.061498
-0.0240664
0.062613
-0.0239304
0.0635451
-0.0241318
0.0641898
-0.0244355
0.0642218
-0.025086
0.0634467
-0.0261273
0.0618209
-0.0268811
0.0600601
-0.0269234
0.0586082
-0.0265475
0.0573869
-0.0258318
0.0566026
-0.0248377
0.0558584
-0.0235508
0.0552232
-0.0221365
0.0546765
-0.0208344
0.0542918
-0.019757
0.0539609
-0.0189157
0.0538211
-0.0182337
0.0537856
-0.017722
0.0539324
-0.0173956
0.0542151
-0.0172641
0.0546855
-0.0173945
0.0554566
-0.0177611
0.056569
-0.018173
0.0579072
-0.0185241
0.0590263
-0.0189721
0.0598709
-0.0194578
0.0605779
-0.0200346
0.0613355
-0.0210298
0.062281
-0.0228438
0.0639717
-0.0257641
0.0665579
-0.0300791
0.0705481
-0.0337681
0.0727636
-0.0361817
0.0736475
-0.0369174
0.0730346
-0.0372853
0.0710486
-0.0376058
0.0683597
-0.0381595
0.0649422
-0.0386792
0.0608123
-0.0391759
0.0568611
-0.0392592
0.0527426
-0.0385621
0.0481337
-0.0364414
0.0433286
-0.0329111
0.0388779
-0.0293931
0.035908
-0.0262669
0.0334854
-0.0234965
0.0316067
-0.0214298
0.0298458
-0.0199567
0.0284798
-0.0187303
0.0276544
-0.017903
0.0262737
-0.0173136
0.0253151
-0.0169987
0.0234471
-0.0168159
0.0217612
-0.016575
0.0205821
-0.0163505
0.0198722
-0.0160026
0.019387
-0.0155269
0.0193466
-0.0152327
0.0193149
-0.014948
0.0196677
-0.0143751
0.0195756
-0.0137436
0.0194009
-0.0131498
0.0191792
-0.0123105
0.0187058
-0.011519
0.0182913
-0.0105247
0.0174707
-0.00935665
0.016497
-0.00828944
0.0155594
-0.00732475
0.0148115
-0.00651536
0.014178
-0.00599022
0.0139301
-0.00589385
0.014358
-0.00653695
0.015822
-0.00704589
0.016458
-0.00616197
0.0140498
-0.00461664
0.0110636
-0.00230906
0.00709536
-0.00080829
0.00416816
0.00236282
-0.019132
0.00986116
-0.019242
0.0145294
-0.0197113
0.0188787
-0.0200949
0.0239542
-0.0205058
0.0292131
-0.0210915
0.0336181
-0.0218421
0.0372533
-0.0227857
0.0402227
-0.0237596
0.0425898
-0.0247404
0.0448477
-0.0257616
0.0470379
-0.02669
0.0490302
-0.0274506
0.0508356
-0.0281687
0.0524629
-0.0287127
0.053702
-0.0290529
0.0550022
-0.0291268
0.0562704
-0.0289597
0.0576234
-0.0286791
0.0591971
-0.0282432
0.0607075
-0.0277326
0.0620426
-0.0273685
0.063196
-0.0272318
0.064248
-0.027171
0.0648828
-0.0271763
0.0648035
-0.0275121
0.0640136
-0.0280131
0.062317
-0.0284543
0.0601255
-0.0283022
0.0583913
-0.0277144
0.0571732
-0.0269033
0.0560237
-0.0258257
0.0552519
-0.0245296
0.0545235
-0.0232017
0.0540574
-0.0220367
0.0537781
-0.0210133
0.0536105
-0.0201915
0.053571
-0.0195441
0.0536634
-0.019092
0.0538716
-0.0187702
0.0541732
-0.0185835
0.0546275
-0.018596
0.0552547
-0.0188604
0.0563285
-0.0193236
0.057663
-0.0197437
0.0588621
-0.0202029
0.0599803
-0.0207384
0.0609418
-0.0213388
0.0619774
-0.0222646
0.0633195
-0.0241561
0.065326
-0.0273262
0.0684982
-0.0312403
0.0718497
-0.033893
0.0742107
-0.0353319
0.0747797
-0.035781
0.0742687
-0.0358958
0.072848
-0.0356829
0.0702195
-0.0352921
0.0665046
-0.0348155
0.0622506
-0.034376
0.0576318
-0.0339412
0.0532494
-0.033067
0.0486817
-0.0314062
0.0431121
-0.0294157
0.0379955
-0.0275969
0.0341083
-0.0257341
0.0316173
-0.0239858
0.0298466
-0.0223588
0.0287655
-0.02074
0.0274055
-0.0194769
0.0263132
-0.0186725
0.0255221
-0.0183214
0.0239421
-0.0180951
0.0229895
-0.0176972
0.0218649
-0.017321
0.0209818
-0.0169148
0.0203252
-0.0164877
0.0198758
-0.0160757
0.0195793
-0.0156856
0.0198031
-0.0151915
0.019943
-0.014685
0.0200426
-0.0143662
0.020062
-0.0135815
0.0199088
-0.0128114
0.0194025
-0.0120918
0.0189879
-0.0109989
0.0184144
-0.0100249
0.017534
-0.00896561
0.0166701
-0.00804805
0.0159205
-0.00735503
0.015316
-0.00693713
0.0150825
-0.0068946
0.0153157
-0.00750594
0.0167807
-0.00814398
0.0184048
-0.00742875
0.0174103
-0.00643778
0.0141221
-0.00401817
0.0097029
-0.00202824
0.00644318
-0.000620946
0.00416727
0.00237263
-0.0209717
0.0104723
-0.0210584
0.0161089
-0.021729
0.0211683
-0.0223407
0.0261684
-0.0229293
0.0314911
-0.0237002
0.0361868
-0.0245304
0.0400766
-0.0254652
0.0433418
-0.0263823
0.0459016
-0.0272964
0.0481745
-0.0282429
0.050121
-0.029216
0.0519486
-0.0301107
0.0536429
-0.0309963
0.0551774
-0.0316908
0.056214
-0.0320957
0.0574217
-0.0322338
0.0585897
-0.0321284
0.059783
-0.0318421
0.0613393
-0.0313628
0.0627307
-0.0308725
0.0639098
-0.030411
0.0650038
-0.0297588
0.0656016
-0.0295396
0.0653001
-0.0295031
0.0642682
-0.0295776
0.062608
-0.0296814
0.060231
-0.0294046
0.0580234
-0.0287049
0.0565394
-0.0276641
0.0556075
-0.0265308
0.054636
-0.0252856
0.0540735
-0.0240579
0.0536486
-0.0229695
0.0533994
-0.0220386
0.05332
-0.0212765
0.0533217
-0.0206879
0.0534712
-0.0202279
0.0536995
-0.0198756
0.0540505
-0.0196819
0.054561
-0.0196174
0.0551969
-0.0197759
0.0561643
-0.0202211
0.0574258
-0.0207824
0.058769
-0.0213257
0.059878
-0.0218321
0.0611434
-0.0223901
0.0624999
-0.0234639
0.0642609
-0.0253742
0.0664317
-0.0283775
0.0698685
-0.0314654
0.0730203
-0.0335461
0.0747714
-0.0343253
0.0752934
-0.0344951
0.0750767
-0.0344194
0.0737257
-0.0338413
0.0714036
-0.0324787
0.0675757
-0.0310211
0.0628196
-0.029721
0.0582761
-0.0286371
0.0539072
-0.027791
0.0496355
-0.0268293
0.0442459
-0.0260471
0.0385494
-0.0252874
0.0336391
-0.0244279
0.0302788
-0.0234663
0.0283632
-0.022397
0.0271637
-0.0214283
0.0265428
-0.0203965
0.0253495
-0.0196212
0.0243515
-0.0189826
0.023149
-0.0188177
0.0219763
-0.0185906
0.02152
-0.0182108
0.0210167
-0.0177634
0.0207467
-0.0172509
0.0203518
-0.0168173
0.0202305
-0.0164458
0.0201039
-0.0159744
0.0203536
-0.0154885
0.0204036
-0.0149302
0.0205726
-0.0142141
0.0203678
-0.0135139
0.0201222
-0.0125511
0.0196487
-0.0116636
0.0191387
-0.0106239
0.0184579
-0.00957459
0.0177976
-0.00872739
0.0171629
-0.00801542
0.0166356
-0.00762688
0.0164468
-0.00769502
0.0168297
-0.00810791
0.0176455
-0.00923106
0.0199491
-0.00866556
0.0196886
-0.00774403
0.0176575
-0.00555015
0.0130541
-0.0034687
0.00892093
-0.0018575
0.00623354
-0.000369423
0.00402241
0.00242374
-0.0224487
0.0105729
-0.0222128
0.017328
-0.0229615
0.023508
-0.0238076
0.0286732
-0.0247612
0.0340967
-0.0258576
0.0389829
-0.0268081
0.0429775
-0.0277043
0.0463293
-0.028661
0.0489596
-0.029549
0.0512798
-0.0304338
0.0532309
-0.0315048
0.0548885
-0.0326395
0.0564667
-0.0337281
0.0578761
-0.0346246
0.0587952
-0.0350338
0.0597389
-0.0350791
0.0608421
-0.0347954
0.0619212
-0.0342315
0.0631408
-0.0335723
0.0643338
-0.0328698
0.0654916
-0.0318954
0.0659147
-0.0315517
0.065666
-0.031174
0.0644521
-0.0310146
0.0627557
-0.0309163
0.0603756
-0.0305517
0.0576946
-0.0297698
0.0558918
-0.0287107
0.0547848
-0.0274715
0.0541154
-0.0262913
0.0534577
-0.0251331
0.0531786
-0.0240691
0.0529763
-0.0231403
0.0528846
-0.0223356
0.0529353
-0.0216964
0.0531176
-0.0211932
0.0534128
-0.0208054
0.0537989
-0.020555
0.0543366
-0.0204642
0.055006
-0.0206111
0.0558547
-0.0210232
0.0570826
-0.0215843
0.0584024
-0.0222434
0.0598836
-0.0228386
0.0612098
-0.0234797
0.0628266
-0.0245763
0.0649197
-0.0265759
0.0675636
-0.0294292
0.0709538
-0.0315383
0.0736303
-0.0327837
0.0752465
-0.0332639
0.0755671
-0.0332812
0.0753321
-0.0330385
0.07433
-0.0319856
0.0718463
-0.030099
0.0679223
-0.0276546
0.0629323
-0.025662
0.0581021
-0.024311
0.054472
-0.0233979
0.0506009
-0.0230496
0.0455876
-0.023166
0.0395662
-0.0233819
0.0338907
-0.0230834
0.0297842
-0.0226264
0.0270552
-0.0221851
0.0256177
-0.0217515
0.0246151
-0.0212541
0.0240434
-0.0206303
0.0229774
-0.0199834
0.0224384
-0.0193138
0.0215853
-0.0189925
0.0210741
-0.0186748
0.0208701
-0.0183175
0.0207571
-0.0178951
0.020756
-0.0174857
0.0207218
-0.0170019
0.0209081
-0.0165697
0.0208371
-0.0160058
0.0209931
-0.0153637
0.0208562
-0.0148399
0.0209753
-0.0139623
0.0205024
-0.0130857
0.0203243
-0.0122066
0.0197679
-0.0111009
0.0190906
-0.0102116
0.0186135
-0.00938315
0.0181943
-0.00870477
0.0178848
-0.00837332
0.0177777
-0.00841683
0.0180982
-0.00937886
0.0198548
-0.0106343
0.0212443
-0.0105358
0.0221769
-0.00972688
0.020321
-0.0076002
0.0165751
-0.00491802
0.0116959
-0.00291657
0.00831226
-0.00133242
0.00599043
-4.56837e-05
0.00405229
0.00249679
-0.0240832
0.0101338
-0.0233265
0.0180269
-0.0235906
0.0253306
-0.0247691
0.0315047
-0.0260653
0.0370024
-0.0274463
0.0420284
-0.0286567
0.0460864
-0.0295627
0.049344
-0.0304296
0.0518846
-0.0315784
0.0540473
-0.0326189
0.0559584
-0.033552
0.0578513
-0.0345928
0.0593423
-0.0357205
0.0603647
-0.0364674
0.0610185
-0.0366694
0.061647
-0.0365199
0.0626085
-0.0359803
0.0634763
-0.0351961
0.0645305
-0.0341891
0.0655074
-0.0332017
0.0661347
-0.0327445
0.06583
-0.0323023
0.0648314
-0.032065
0.0630687
-0.0319293
0.0606413
-0.031626
0.0576246
-0.0309198
0.0552715
-0.029862
0.0538958
-0.0286536
0.0531459
-0.0274061
0.0527359
-0.0262589
0.0523723
-0.0251833
0.0523341
-0.0241973
0.0523062
-0.0233473
0.0523486
-0.0226312
0.0525214
-0.0220686
0.0528499
-0.0216217
0.053261
-0.0213663
0.0538079
-0.0212793
0.0545006
-0.0214264
0.0553814
-0.021827
0.0564618
-0.0224107
0.057932
-0.0230902
0.0595027
-0.0237702
0.0613201
-0.0245846
0.0631441
-0.0257934
0.065325
-0.0277638
0.0683178
-0.0301573
0.0715255
-0.0315424
0.0739766
-0.032134
0.0752875
-0.0322598
0.0757548
-0.0321401
0.0754762
-0.0316036
0.0742529
-0.0303829
0.0719685
-0.0280079
0.0679948
-0.0250157
0.0625367
-0.0225911
0.0578828
-0.0210644
0.0544973
-0.0202362
0.0513875
-0.0199654
0.0468725
-0.0205803
0.0411511
-0.0216794
0.0344645
-0.0222027
0.029395
-0.0221701
0.0261908
-0.0218939
0.0241852
-0.0215667
0.0232121
-0.0212283
0.0225357
-0.0209624
0.0221668
-0.0206353
0.0216286
-0.0200993
0.0215072
-0.0194951
0.02096
-0.0190567
0.0209219
-0.0186543
0.0207656
-0.0183145
0.0207638
-0.0179367
0.0210608
-0.0175122
0.021131
-0.0169899
0.0214242
-0.0163785
0.0213694
-0.0157394
0.0214635
-0.0150178
0.0211753
-0.0142262
0.0211186
-0.0135137
0.0207022
-0.0125516
0.0204121
-0.0115712
0.0197382
-0.010658
0.0192801
-0.0097436
0.0188502
-0.00904818
0.0185706
-0.00856947
0.0185511
-0.00842384
0.0189503
-0.0089155
0.0202297
-0.0102933
0.0231308
-0.0116608
0.0248947
-0.0108372
0.0229617
-0.00944154
0.0198413
-0.00637079
0.0147113
-0.00413198
0.0107832
-0.00249191
0.00803923
-0.00104963
0.00588728
0.000167562
0.00415025
0.00262003
-0.0259678
0.00932065
-0.0244761
0.0179876
-0.0237505
0.0261813
-0.0246262
0.0340183
-0.0262874
0.0402044
-0.0281309
0.0453975
-0.0297801
0.0494854
-0.0309374
0.0525321
-0.0317921
0.0548579
-0.0325695
0.0566773
-0.0336702
0.0583325
-0.034783
0.0601361
-0.0357252
0.0617701
-0.0366055
0.0626219
-0.0371683
0.0629313
-0.0372073
0.0633012
-0.0368308
0.063987
-0.0362186
0.0647079
-0.035148
0.065554
-0.0338994
0.0658959
-0.0332555
0.0660097
-0.0326936
0.0651639
-0.0323386
0.0637352
-0.0321423
0.0613325
-0.0319766
0.0580128
-0.0314452
0.0549481
-0.030512
0.0531441
-0.0293564
0.0521949
-0.028137
0.0517007
-0.0269532
0.0514739
-0.0258949
0.0513428
-0.0248811
0.0514325
-0.0239877
0.0515541
-0.0232586
0.0517764
-0.0227132
0.0520974
-0.0223358
0.0525585
-0.0221074
0.0530976
-0.0220365
0.0537638
-0.0221568
0.0546632
-0.0225298
0.0558944
-0.0231106
0.0573197
-0.0238372
0.0592061
-0.024588
0.0611055
-0.0255448
0.0634043
-0.0269741
0.0657984
-0.0290151
0.0688867
-0.0307479
0.0717983
-0.0315417
0.0739978
-0.0316684
0.0751818
-0.0315119
0.0755972
-0.0312696
0.0753815
-0.0304344
0.0741076
-0.0288027
0.0715634
-0.02622
0.0675601
-0.0228003
0.0621225
-0.0204575
0.0578853
-0.0188554
0.054711
-0.0178807
0.0518246
-0.0178335
0.0483272
-0.0187471
0.0428546
-0.0203304
0.0361486
-0.0213705
0.0295028
-0.0217663
0.0257485
-0.0217029
0.023614
-0.0214259
0.0225023
-0.0211515
0.0219873
-0.0208833
0.0216663
-0.0207005
0.0215551
-0.0205161
0.0213056
-0.0200999
0.021347
-0.019643
0.020914
-0.0191086
0.0211547
-0.0186172
0.0209736
-0.0183137
0.0210355
-0.0179221
0.0214085
-0.0174548
0.0215666
-0.0168751
0.0217836
-0.0162398
0.0217321
-0.0155367
0.0217109
-0.0148608
0.0213809
-0.0140506
0.0211749
-0.0131783
0.0207421
-0.0122863
0.0203815
-0.0114191
0.0198381
-0.0106598
0.0195587
-0.0100044
0.0193038
-0.00963224
0.0193048
-0.00962736
0.0196611
-0.0103571
0.0210647
-0.0120082
0.0235421
-0.01327
0.0261641
-0.0127963
0.0260731
-0.0117461
0.0228244
-0.00840244
0.0175901
-0.00562452
0.0133267
-0.00364057
0.0102239
-0.00199944
0.00779331
-0.000721657
0.00593338
0.000514676
0.00424693
0.00273285
-0.0279988
0.00827206
-0.0259154
0.0171625
-0.0242172
0.0259663
-0.0240151
0.0354075
-0.0256277
0.0432052
-0.0278139
0.0489027
-0.0299946
0.0530996
-0.0315525
0.0558894
-0.032515
0.057893
-0.0331653
0.0593138
-0.0338993
0.0607047
-0.0350215
0.0619827
-0.0359847
0.0633232
-0.0365861
0.0643054
-0.0367988
0.0646267
-0.0366796
0.064835
-0.0362367
0.0652117
-0.0353566
0.0657208
-0.034449
0.0661128
-0.0333129
0.0657632
-0.032371
0.0652925
-0.0317538
0.064166
-0.031412
0.0622518
-0.031263
0.0588591
-0.0310299
0.0550811
-0.0303951
0.0525915
-0.0294307
0.0513558
-0.0283298
0.050761
-0.0272185
0.0504842
-0.0261849
0.0504474
-0.0252892
0.050549
-0.0245042
0.0508436
-0.0238616
0.0511424
-0.0233778
0.0515124
-0.0230376
0.051941
-0.0228147
0.0524755
-0.0227451
0.0532028
-0.0228558
0.0541319
-0.0231699
0.0553027
-0.0236791
0.0568885
-0.024411
0.0587187
-0.0253869
0.0610193
-0.0265697
0.0633633
-0.0281047
0.0661323
-0.0300647
0.0691287
-0.0312798
0.0718013
-0.0316234
0.0736649
-0.0315093
0.0747627
-0.03123
0.0752896
-0.0307744
0.0749847
-0.0297278
0.0736583
-0.0278045
0.0710267
-0.0248671
0.0668855
-0.0215891
0.0620001
-0.0192536
0.0580832
-0.0176319
0.0551937
-0.0166225
0.0526311
-0.0164149
0.049377
-0.0172462
0.0450105
-0.0190697
0.0381635
-0.0208329
0.0306554
-0.0215474
0.026136
-0.0216705
0.0237687
-0.0215174
0.0225672
-0.0212507
0.0219868
-0.0210126
0.0217307
-0.0207439
0.0215246
-0.020573
0.0215118
-0.0203798
0.0213316
-0.0200331
0.0214652
-0.0197216
0.0212625
-0.0192147
0.0217716
-0.0186728
0.0215209
-0.0182296
0.0215043
-0.0177361
0.0217414
-0.0172094
0.0219984
-0.0165225
0.0220241
-0.0158513
0.0219361
-0.0151554
0.0218634
-0.0144371
0.0214532
-0.0136139
0.0211746
-0.0127316
0.0207615
-0.0119088
0.0204251
-0.0111984
0.02009
-0.0105674
0.0199955
-0.0101802
0.0200589
-0.0100842
0.0204564
-0.0105681
0.0216992
-0.0121907
0.0246085
-0.0143385
0.0277407
-0.0142968
0.0278867
-0.0133893
0.0262149
-0.0106811
0.0211031
-0.00761349
0.0158843
-0.00519394
0.0124205
-0.0032888
0.00978952
-0.00183738
0.00773508
-0.000522239
0.00595265
0.000624079
0.00438899
0.00281586
-0.0296236
0.0070055
-0.0269547
0.0155659
-0.0243815
0.0245087
-0.0231322
0.0354558
-0.024022
0.0451971
-0.0263317
0.0522835
-0.0288038
0.0566835
-0.0310063
0.0593819
-0.0325034
0.0609165
-0.0333789
0.0618357
-0.033868
0.0629068
-0.0344697
0.0637533
-0.0352572
0.064506
-0.0356846
0.0654291
-0.0357981
0.0656652
-0.035578
0.0657312
-0.034833
0.0661372
-0.0338674
0.065965
-0.0328667
0.0657937
-0.0316726
0.0652048
-0.0304809
0.0642026
-0.0298436
0.0625054
-0.0296522
0.0598249
-0.0298351
0.0559895
-0.0297755
0.052641
-0.0292791
0.0508125
-0.0284772
0.0500595
-0.0275699
0.0497774
-0.0266988
0.0497797
-0.0258978
0.050016
-0.0252027
0.0503178
-0.0246
0.0506939
-0.0241122
0.0510607
-0.0237249
0.0514962
-0.0234651
0.0520438
-0.0233721
0.0527822
-0.0234579
0.053743
-0.0237332
0.0549792
-0.0242406
0.0564568
-0.0250234
0.0584598
-0.0260673
0.0606598
-0.0274729
0.06338
-0.029263
0.0662952
-0.0308545
0.0690203
-0.031719
0.0714502
-0.0317968
0.0730892
-0.0315654
0.0740634
-0.0311735
0.0746644
-0.0305692
0.0744779
-0.0292806
0.0729995
-0.0270969
0.0702124
-0.0240153
0.0661148
-0.0208668
0.0617994
-0.018723
0.0584363
-0.0170726
0.0557828
-0.0159727
0.0535026
-0.0157654
0.0508608
-0.0163839
0.0467499
-0.0181109
0.0407797
-0.0203071
0.0323586
-0.0214356
0.0271508
-0.0216358
0.0245046
-0.0215398
0.0230974
-0.0213501
0.0224198
-0.0211298
0.0219676
-0.0209452
0.0217652
-0.0207072
0.0216448
-0.0204849
0.0217673
-0.0202825
0.0217185
-0.0199502
0.0219491
-0.0196813
0.0219243
-0.0192917
0.0225219
-0.0187159
0.0221654
-0.0181237
0.0220474
-0.0175816
0.0221614
-0.0169963
0.0223882
-0.0163198
0.0222653
-0.0156321
0.0221017
-0.0148926
0.0219383
-0.0141182
0.021496
-0.0132689
0.0211796
-0.0125253
0.0209374
-0.0118606
0.0207503
-0.0113786
0.0206548
-0.0111326
0.0208522
-0.011202
0.0213584
-0.0119524
0.0227254
-0.0134968
0.0252884
-0.0154603
0.0288707