/*--------------------------------*- C++ -*----------------------------------*\
| =========                 |                                                 |
| \\      /  F ield         | OpenFOAM: The Open Source CFD Toolbox           |
|  \\    /   O peration     | Version:  2.2.x                                 |
|   \\  /    A nd           | Web:      www.OpenFOAM.org                      |
|    \\/     M anipulation  |                                                 |
\*---------------------------------------------------------------------------*/
FoamFile
{
    version     2.0;
    format      ascii;
    class       volScalarField;
    location    "1.95";
    object      T;
}
// * * * * * * * * * * * * * * * * * * * * * * * * * * * * * * * * * * * * * //

dimensions      [0 0 0 1 0 0 0];

internalField   nonuniform List<scalar> 
14161
(
1
1
1
1
1
1
1
1
1
1
1
1
1
1
1
1
1
1
1
2.57512
2.97104
2.97923
2.98665
2.9936
3.00004
3.00594
3.0113
3.01615
3.02052
3.02442
3.02791
3.03102
3.03378
3.03624
3.03843
3.04039
3.04213
3.0437
3.04511
3.04639
3.04755
3.04862
3.04964
3.05062
3.05163
3.05415
3.05688
3.05944
3.06187
3.06416
3.0663
3.06827
3.07004
3.0716
3.07294
3.07406
3.07495
3.07562
3.07608
3.07632
3.07637
3.07624
3.07594
3.0755
3.07495
3.07431
3.07364
3.07301
3.07267
3.07297
3.07402
3.07601
3.07907
3.08331
3.0888
3.0955
3.10332
3.11205
3.12141
3.13104
3.1406
3.14973
3.15818
3.16575
3.17238
3.17809
3.18296
3.18713
3.19075
3.19395
3.19686
3.19957
3.20215
3.20465
3.20711
3.20954
3.21196
3.21436
3.21674
3.21909
3.2214
3.22365
3.2258
3.22783
3.22974
3.23156
3.23317
3.23444
3.2353
3.23567
3.23555
3.23503
3.23419
3.23311
3.23199
3.2312
3.23151
3.23471
3.26978
1
1
1
1
1
1
1
1
1
1
1
1
1
1
1
1
1
1
1
2.58527
2.98166
2.99283
3.00373
3.01488
3.02639
3.03835
3.05088
3.06415
3.07831
3.09351
3.10984
3.12735
3.14594
3.1654
3.18536
3.20535
3.22479
3.24311
3.25979
3.27441
3.28668
3.29649
3.30382
3.30881
3.31162
3.31278
3.31186
3.30903
3.30458
3.29877
3.29189
3.28421
3.27601
3.26753
3.25898
3.25054
3.24234
3.23448
3.22704
3.22005
3.21353
3.20749
3.20192
3.19679
3.19208
3.18776
3.18377
3.18002
3.17632
3.17259
3.16911
3.16609
3.16374
3.16222
3.16163
3.16199
3.16328
3.16539
3.16819
3.17153
3.17524
3.17918
3.18324
3.18735
3.19148
3.19566
3.19993
3.20439
3.20914
3.21431
3.22006
3.22652
3.23382
3.24201
3.25108
3.26087
3.27109
3.28129
3.29091
3.29933
3.30593
3.3102
3.3118
3.31057
3.30655
3.3
3.29163
3.28228
3.27289
3.26447
3.25804
3.25464
3.25489
3.25831
3.26314
3.2671
3.26909
3.27147
3.29015
1
1
1
1
1
1
1
1
1
1
1
1
1
1
1
1
1
1
1
2.58512
2.98001
2.99055
3.00061
3.01074
3.02095
3.03131
3.04189
3.05276
3.064
3.07565
3.08775
3.10025
3.11308
3.12608
3.13903
3.15168
3.16375
3.175
3.18519
3.19418
3.20188
3.20827
3.21341
3.21738
3.22033
3.22035
3.21903
3.21701
3.21438
3.2113
3.2079
3.20436
3.20083
3.19742
3.19426
3.19143
3.18899
3.18697
3.18537
3.18418
3.18336
3.18285
3.18258
3.18246
3.18243
3.18239
3.18229
3.18206
3.18165
3.18109
3.18036
3.17953
3.17868
3.17792
3.17737
3.17714
3.17731
3.17794
3.17905
3.18063
3.18265
3.18506
3.18783
3.19093
3.19434
3.19805
3.2021
3.20654
3.21146
3.21697
3.22321
3.2303
3.23838
3.24749
3.25757
3.2684
3.27955
3.29043
3.30029
3.30835
3.31389
3.31641
3.31572
3.31194
3.30554
3.29728
3.28814
3.27929
3.27198
3.26738
3.26631
3.26882
3.27389
3.27949
3.28319
3.28321
3.27985
3.27688
3.27327
1
1
1
1
1
1
1
1
1
1
1
1
1
1
1
1
1
1
1
2.58452
2.97858
2.98841
2.99769
3.00683
3.01582
3.0247
3.03349
3.04224
3.05098
3.05971
3.06844
3.07712
3.0857
3.09409
3.10217
3.10982
3.11693
3.12339
3.12913
3.13411
3.13831
3.14176
3.14449
3.14657
3.14805
3.14725
3.14548
3.14359
3.14158
3.13955
3.1376
3.13585
3.13439
3.13333
3.13274
3.13268
3.13318
3.13427
3.13594
3.13815
3.14085
3.14397
3.14741
3.15106
3.15481
3.15852
3.16209
3.16547
3.16859
3.17138
3.17376
3.17574
3.17731
3.17855
3.17953
3.18037
3.18117
3.18205
3.1831
3.1844
3.18598
3.18788
3.19011
3.19268
3.19557
3.19881
3.20241
3.20641
3.21087
3.21587
3.22154
3.22798
3.23531
3.24357
3.25275
3.26265
3.27293
3.28305
3.29236
3.30014
3.30574
3.30869
3.30882
3.30624
3.30139
3.29495
3.28781
3.28106
3.27595
3.27369
3.27512
3.28015
3.28724
3.29363
3.29653
3.29453
3.2886
3.28295
3.27087
1
1
1
1
1
1
1
1
1
1
1
1
1
1
1
1
1
1
1
2.58275
2.97642
2.98533
2.99364
3.00159
3.00919
3.01642
3.02333
3.02994
3.03626
3.04233
3.04813
3.05367
3.05891
3.06383
3.0684
3.07258
3.07634
3.07968
3.08259
3.08509
3.0872
3.08897
3.09043
3.09162
3.09259
3.09238
3.09187
3.09161
3.09162
3.09194
3.09261
3.09368
3.09518
3.09714
3.09957
3.10248
3.10586
3.10968
3.11392
3.11853
3.12346
3.12862
3.13396
3.13943
3.14492
3.15034
3.15554
3.1604
3.16483
3.16873
3.17207
3.17485
3.17709
3.17887
3.18028
3.18142
3.18242
3.18338
3.18441
3.1856
3.187
3.18867
3.19062
3.19288
3.19544
3.19833
3.20153
3.20509
3.20904
3.21344
3.21838
3.22395
3.23023
3.23729
3.24513
3.25364
3.26257
3.27154
3.28004
3.28749
3.29336
3.29722
3.29885
3.29831
3.29584
3.29195
3.28729
3.28274
3.27941
3.2785
3.281
3.28696
3.29483
3.3016
3.3043
3.30168
3.29485
3.28771
3.27273
1
1
1
1
1
1
1
1
1
1
1
1
1
1
1
1
1
1
1
2.58182
2.97539
2.98391
2.99178
2.99918
3.00608
3.0125
3.01845
3.02396
3.02908
3.03384
3.03826
3.04239
3.04624
3.04984
3.0532
3.05636
3.05932
3.06212
3.06477
3.06732
3.06977
3.07216
3.07452
3.07686
3.0792
3.08151
3.08405
3.08684
3.0899
3.09324
3.09686
3.10075
3.10487
3.10921
3.11373
3.11841
3.1232
3.12805
3.13293
3.13778
3.14255
3.14725
3.15177
3.15601
3.15993
3.16347
3.16664
3.16941
3.17179
3.17381
3.1755
3.17689
3.17802
3.17897
3.17979
3.18055
3.18133
3.18218
3.18316
3.18433
3.18572
3.18737
3.18928
3.19146
3.19392
3.19665
3.19965
3.20295
3.20655
3.2105
3.21487
3.21971
3.2251
3.2311
3.23773
3.24493
3.25255
3.26034
3.26793
3.2749
3.28083
3.28536
3.28827
3.28953
3.28925
3.28775
3.28544
3.28298
3.28122
3.28131
3.28429
3.29048
3.29858
3.30566
3.30862
3.30621
3.29934
3.29126
3.27558
1
1
1
1
1
1
1
1
1
1
1
1
1
1
1
1
1
1
1
2.58342
2.97703
2.98623
2.99476
3.00286
3.01049
3.01763
3.02429
3.03048
3.03624
3.04159
3.04658
3.05126
3.05565
3.05981
3.06376
3.06755
3.07119
3.07472
3.07814
3.08149
3.08476
3.08797
3.09113
3.09424
3.09732
3.10069
3.1044
3.10815
3.11199
3.11592
3.11992
3.12398
3.12807
3.13218
3.13627
3.14033
3.14431
3.14819
3.15193
3.15552
3.15891
3.16203
3.16485
3.16737
3.16959
3.17149
3.1731
3.17443
3.1755
3.17635
3.17701
3.17752
3.17795
3.17833
3.17873
3.17919
3.17976
3.1805
3.18142
3.18257
3.18396
3.18561
3.18751
3.18967
3.19208
3.19472
3.1976
3.20072
3.20408
3.20772
3.21166
3.21596
3.22067
3.22584
3.2315
3.23763
3.24414
3.25087
3.25759
3.26399
3.26977
3.27463
3.27839
3.28096
3.28239
3.28282
3.28251
3.28186
3.28152
3.28244
3.28571
3.29184
3.29992
3.30726
3.31079
3.30907
3.3027
3.29401
3.27812
1
1
1
1
1
1
1
1
1
1
1
1
1
1
1
1
1
1
1
2.58347
2.97734
2.98696
2.99587
3.00439
3.0125
3.02019
3.02747
3.03434
3.04082
3.04693
3.05269
3.05814
3.0633
3.06819
3.07286
3.07732
3.08159
3.0857
3.08965
3.09346
3.09713
3.10068
3.10411
3.10742
3.11061
3.11385
3.11735
3.12086
3.12438
3.12792
3.13147
3.13502
3.13856
3.14208
3.14555
3.14896
3.15227
3.15548
3.15855
3.16144
3.16413
3.16658
3.16879
3.17073
3.1724
3.1738
3.17492
3.17579
3.17643
3.17688
3.17717
3.17735
3.17748
3.17762
3.17781
3.1781
3.17855
3.17919
3.18005
3.18115
3.18251
3.18413
3.186
3.18812
3.19048
3.19305
3.19583
3.19881
3.202
3.2054
3.20903
3.21293
3.21713
3.22168
3.22661
3.2319
3.23753
3.24339
3.24934
3.25517
3.26066
3.2656
3.26984
3.27328
3.27592
3.2778
3.27905
3.27987
3.28072
3.28237
3.28583
3.29179
3.2997
3.30725
3.31145
3.31071
3.30516
3.29619
3.27983
1
1
1
1
1
1
1
1
1
1
1
1
1
1
1
1
1
1
1
2.58235
2.97697
2.98676
2.99576
3.00437
3.01259
3.02041
3.02785
3.03493
3.04164
3.04802
3.05408
3.05984
3.06532
3.07055
3.07553
3.0803
3.08486
3.08923
3.09343
3.09745
3.10131
3.10501
3.10856
3.11196
3.1152
3.11826
3.1215
3.12477
3.12805
3.13134
3.13464
3.13795
3.14124
3.14451
3.14773
3.1509
3.15399
3.15697
3.15981
3.16249
3.16499
3.16727
3.16931
3.1711
3.17262
3.17388
3.17486
3.1756
3.17611
3.17643
3.1766
3.17667
3.1767
3.17675
3.17685
3.17708
3.17747
3.17807
3.17889
3.17996
3.1813
3.18289
3.18474
3.18682
3.18913
3.19165
3.19436
3.19724
3.2003
3.20352
3.20693
3.21055
3.21439
3.21849
3.22287
3.22755
3.2325
3.23768
3.24299
3.24831
3.25347
3.25835
3.26281
3.26679
3.27023
3.27315
3.27553
3.27748
3.27926
3.28147
3.28506
3.29079
3.29844
3.3061
3.31097
3.31132
3.30681
3.29785
3.28056
1
1
1
1
1
1
1
1
1
1
1
1
1
1
1
1
1
1
1
2.58057
2.97655
2.98645
2.99551
3.00416
3.0124
3.02026
3.02774
3.03486
3.04163
3.04808
3.05421
3.06006
3.06564
3.07097
3.07606
3.08094
3.0856
3.09007
3.09435
3.09846
3.10239
3.10615
3.10975
3.11319
3.11648
3.11951
3.12266
3.12583
3.12903
3.13225
3.13547
3.1387
3.14192
3.14511
3.14826
3.15135
3.15435
3.15724
3.15999
3.16257
3.16497
3.16714
3.16908
3.17075
3.17217
3.17331
3.1742
3.17484
3.17527
3.17551
3.17562
3.17563
3.17562
3.17562
3.1757
3.17591
3.17629
3.17688
3.1777
3.17877
3.1801
3.18169
3.18353
3.18561
3.1879
3.19038
3.19305
3.19587
3.19885
3.20196
3.20522
3.20864
3.21223
3.21602
3.22002
3.22425
3.22871
3.23337
3.23818
3.24306
3.24792
3.25267
3.25721
3.26149
3.26545
3.26906
3.27224
3.27498
3.27743
3.28004
3.28366
3.28912
3.29645
3.30412
3.30957
3.31099
3.30765
3.29897
3.28036
1
1
1
1
1
1
1
1
1
1
1
1
1
1
1
1
1
1
1
2.57803
2.97602
2.98599
2.99506
3.00369
3.01192
3.01974
3.02719
3.03427
3.04101
3.04742
3.05353
3.05936
3.06492
3.07024
3.07533
3.0802
3.08487
3.08935
3.09364
3.09776
3.10171
3.1055
3.10912
3.11258
3.11588
3.11891
3.12201
3.12515
3.12832
3.13151
3.13471
3.13792
3.14112
3.14429
3.14742
3.15049
3.15347
3.15634
3.15907
3.16163
3.16399
3.16614
3.16804
3.16968
3.17105
3.17216
3.173
3.1736
3.17399
3.1742
3.17429
3.17428
3.17426
3.17426
3.17434
3.17456
3.17495
3.17555
3.17639
3.17748
3.17882
3.18043
3.18228
3.18436
3.18665
3.18914
3.19178
3.19458
3.19751
3.20056
3.20374
3.20703
3.21046
3.21404
3.21778
3.2217
3.22581
3.23009
3.23453
3.23907
3.24367
3.24827
3.25281
3.25725
3.26153
3.26557
3.26927
3.27254
3.27542
3.27826
3.28182
3.28695
3.29391
3.30149
3.30741
3.30983
3.30768
3.29952
3.27934
1
1
1
1
1
1
1
1
1
1
1
1
1
1
1
1
1
1
1
2.57485
2.97557
2.9856
2.99471
3.00337
3.01161
3.01944
3.02688
3.03395
3.04067
3.04707
3.05316
3.05896
3.0645
3.06979
3.07485
3.07969
3.08433
3.08878
3.09305
3.09714
3.10106
3.10482
3.10842
3.11186
3.11515
3.11818
3.12128
3.12441
3.12757
3.13075
3.13394
3.13713
3.14031
3.14346
3.14656
3.1496
3.15254
3.15536
3.15803
3.16053
3.16283
3.1649
3.16673
3.16831
3.16961
3.17065
3.17144
3.172
3.17235
3.17253
3.1726
3.17259
3.17257
3.17259
3.1727
3.17294
3.17337
3.174
3.17488
3.17601
3.17739
3.17903
3.18091
3.18301
3.18532
3.18782
3.19047
3.19326
3.19618
3.1992
3.20233
3.20556
3.20889
3.21234
3.21592
3.21963
3.2235
3.22752
3.23168
3.23598
3.24037
3.24484
3.24934
3.25386
3.25831
3.26262
3.26663
3.27021
3.27331
3.27622
3.27962
3.28439
3.29093
3.29835
3.30462
3.30792
3.30692
3.29943
3.27762
1
1
1
1
1
1
1
1
1
1
1
1
1
1
1
1
1
1
1
2.57087
2.97508
2.98517
2.99431
3.003
3.01124
3.01908
3.02652
3.03359
3.04031
3.0467
3.05278
3.05858
3.0641
3.06938
3.07442
3.07925
3.08387
3.0883
3.09255
3.09662
3.10052
3.10426
3.10784
3.11126
3.11453
3.11757
3.12067
3.12379
3.12694
3.1301
3.13327
3.13644
3.13959
3.1427
3.14576
3.14874
3.15162
3.15436
3.15695
3.15936
3.16157
3.16354
3.16527
3.16674
3.16795
3.1689
3.16961
3.1701
3.1704
3.17055
3.1706
3.17059
3.17058
3.17062
3.17076
3.17105
3.17152
3.17221
3.17314
3.17432
3.17576
3.17744
3.17936
3.1815
3.18385
3.18637
3.18904
3.19185
3.19477
3.19779
3.2009
3.2041
3.20738
3.21076
3.21424
3.21783
3.22154
3.22539
3.22937
3.23349
3.23773
3.24209
3.24656
3.25109
3.25564
3.26008
3.26425
3.26796
3.27113
3.27397
3.27714
3.2815
3.28759
3.29477
3.30128
3.30533
3.30542
3.2987
3.27531
1
1
1
1
1
1
1
1
1
1
1
1
1
1
1
1
1
1
1
2.566
2.97454
2.98466
2.99382
3.00252
3.01077
3.0186
3.02602
3.03307
3.03977
3.04613
3.05218
3.05795
3.06344
3.06869
3.07371
3.07851
3.0831
3.08751
3.09174
3.09579
3.09967
3.10339
3.10695
3.11036
3.11361
3.11663
3.11972
3.12283
3.12596
3.1291
3.13224
3.13538
3.13849
3.14156
3.14457
3.14749
3.1503
3.15297
3.15548
3.1578
3.1599
3.16178
3.16341
3.16478
3.1659
3.16677
3.16741
3.16785
3.16811
3.16823
3.16827
3.16827
3.16828
3.16836
3.16854
3.16889
3.16942
3.17018
3.17117
3.17241
3.17391
3.17565
3.17762
3.17981
3.18219
3.18474
3.18745
3.19028
3.19322
3.19625
3.19937
3.20256
3.20583
3.20917
3.2126
3.21612
3.21975
3.22349
3.22736
3.23136
3.2355
3.23979
3.24422
3.24875
3.25333
3.25782
3.26203
3.26574
3.26885
3.27153
3.27439
3.27832
3.28393
3.29083
3.29747
3.30214
3.30321
3.2973
3.27247
1
1
1
1
1
1
1
1
1
1
1
1
1
1
1
1
1
1
1
2.56025
2.974
2.98417
2.99337
3.00209
3.01036
3.01821
3.02564
3.0327
3.03939
3.04575
3.05179
3.05754
3.06303
3.06826
3.07325
3.07803
3.08261
3.08699
3.09119
3.09521
3.09907
3.10276
3.10629
3.10967
3.1129
3.11591
3.11899
3.12208
3.12519
3.1283
3.13141
3.1345
3.13755
3.14055
3.14348
3.1463
3.14901
3.15156
3.15394
3.15613
3.1581
3.15984
3.16133
3.16257
3.16357
3.16434
3.16489
3.16525
3.16546
3.16556
3.16559
3.1656
3.16565
3.16577
3.16602
3.16643
3.16704
3.16787
3.16894
3.17026
3.17183
3.17363
3.17566
3.1779
3.18033
3.18292
3.18566
3.18852
3.19149
3.19454
3.19768
3.20088
3.20416
3.2075
3.21091
3.2144
3.21798
3.22167
3.22547
3.22941
3.2335
3.23774
3.24214
3.24666
3.25123
3.25571
3.25988
3.2635
3.26644
3.26888
3.27138
3.27485
3.27998
3.28656
3.29324
3.29842
3.30035
3.29527
3.26916
1
1
1
1
1
1
1
1
1
1
1
1
1
1
1
1
1
1
1
2.5534
2.97337
2.98356
2.99278
3.00151
3.00979
3.01762
3.02504
3.03208
3.03875
3.04509
3.05111
3.05684
3.0623
3.06751
3.07249
3.07726
3.08182
3.08619
3.09037
3.09439
3.09823
3.10191
3.10543
3.1088
3.112
3.11501
3.11807
3.12114
3.12422
3.1273
3.13036
3.1334
3.13639
3.13931
3.14214
3.14486
3.14745
3.14987
3.15212
3.15416
3.15598
3.15756
3.15891
3.16002
3.16089
3.16154
3.162
3.1623
3.16246
3.16254
3.16257
3.1626
3.16269
3.16287
3.16319
3.16369
3.16438
3.1653
3.16646
3.16786
3.1695
3.17138
3.17347
3.17577
3.17824
3.18088
3.18366
3.18655
3.18955
3.19264
3.1958
3.19902
3.20231
3.20566
3.20908
3.21257
3.21614
3.21981
3.22359
3.2275
3.23156
3.23578
3.24016
3.24466
3.24921
3.25362
3.25769
3.26115
3.26387
3.266
3.26811
3.2711
3.27576
3.28199
3.28864
3.2942
3.29689
3.2926
3.26541
1
1
1
1
1
1
1
1
1
1
1
1
1
1
1
1
1
1
1
2.54541
2.9727
2.98292
2.99216
3.00091
3.00918
3.01701
3.02443
3.03145
3.0381
3.04441
3.05041
3.05612
3.06155
3.06675
3.07171
3.07645
3.081
3.08535
3.08952
3.09352
3.09735
3.10101
3.10452
3.10786
3.11105
3.11404
3.11708
3.12013
3.12317
3.12621
3.12921
3.13218
3.13508
3.1379
3.14062
3.14321
3.14565
3.14792
3.15
3.15187
3.15352
3.15494
3.15612
3.15708
3.15782
3.15836
3.15873
3.15896
3.15908
3.15915
3.15919
3.15926
3.15941
3.15966
3.16007
3.16065
3.16145
3.16246
3.16371
3.16521
3.16693
3.16888
3.17104
3.1734
3.17593
3.17861
3.18143
3.18436
3.18739
3.1905
3.19369
3.19695
3.20026
3.20363
3.20707
3.21057
3.21415
3.21782
3.22161
3.22551
3.22957
3.23379
3.23816
3.24264
3.24714
3.25147
3.25539
3.25865
3.26109
3.26287
3.26457
3.26709
3.27126
3.27712
3.28369
3.28954
3.29287
3.28933
3.26123
1
1
1
1
1
1
1
1
1
1
1
1
1
1
1
1
1
1
1
2.53613
2.97195
2.98219
2.99143
3.00017
3.00844
3.01625
3.02363
3.03061
3.03722
3.04349
3.04945
3.05511
3.06052
3.06568
3.07061
3.07533
3.07986
3.08419
3.08835
3.09234
3.09615
3.0998
3.10329
3.10662
3.10978
3.11275
3.11577
3.11878
3.12179
3.12477
3.1277
3.13058
3.13339
3.13609
3.13868
3.14113
3.14341
3.14552
3.14742
3.14912
3.15059
3.15184
3.15286
3.15368
3.15429
3.15473
3.15503
3.15521
3.15531
3.15538
3.15545
3.15558
3.15579
3.15614
3.15664
3.15733
3.15823
3.15936
3.16071
3.1623
3.16411
3.16614
3.16837
3.17079
3.17337
3.1761
3.17896
3.18192
3.18499
3.18813
3.19135
3.19463
3.19797
3.20137
3.20484
3.20836
3.21197
3.21566
3.21946
3.22339
3.22746
3.23168
3.23605
3.24051
3.24494
3.24917
3.25292
3.25593
3.25807
3.25948
3.26075
3.2628
3.26649
3.27198
3.27841
3.28446
3.28832
3.28547
3.25662
1
1
1
1
1
1
1
1
1
1
1
1
1
1
1
1
1
1
1
2.52547
2.97115
2.98142
2.99069
2.99944
3.0077
3.0155
3.02286
3.02981
3.03639
3.04263
3.04855
3.05418
3.05955
3.06467
3.06957
3.07427
3.07877
3.08308
3.08721
3.09117
3.09495
3.09857
3.10202
3.10531
3.10843
3.11136
3.11434
3.1173
3.12023
3.12313
3.12596
3.12873
3.1314
3.13396
3.13638
3.13865
3.14075
3.14266
3.14437
3.14587
3.14716
3.14823
3.1491
3.14977
3.15027
3.15063
3.15086
3.15101
3.15112
3.15121
3.15134
3.15154
3.15185
3.1523
3.15292
3.15373
3.15475
3.15599
3.15745
3.15914
3.16104
3.16315
3.16545
3.16793
3.17056
3.17334
3.17623
3.17924
3.18233
3.18551
3.18875
3.19206
3.19544
3.19887
3.20236
3.20592
3.20955
3.21327
3.2171
3.22105
3.22515
3.22939
3.23375
3.23819
3.24256
3.24666
3.25021
3.25296
3.25477
3.2558
3.25664
3.25823
3.26146
3.26657
3.27282
3.27899
3.28328
3.28105
3.25159
1
1
1
1
1
1
1
1
1
1
1
1
1
1
1
1
1
1
1
2.51321
2.97027
2.98057
2.98985
2.99861
3.00686
3.01464
3.02197
3.02889
3.03543
3.04163
3.04751
3.05311
3.05845
3.06355
3.06843
3.07311
3.07759
3.08188
3.08599
3.08992
3.09367
3.09725
3.10066
3.1039
3.10697
3.10984
3.11275
3.11563
3.11847
3.12126
3.12397
3.12658
3.12909
3.13146
3.13369
3.13576
3.13764
3.13934
3.14083
3.14212
3.14321
3.14411
3.14482
3.14536
3.14576
3.14604
3.14624
3.14638
3.14651
3.14666
3.14686
3.14716
3.14758
3.14815
3.1489
3.14984
3.15099
3.15235
3.15393
3.15572
3.15772
3.15991
3.16228
3.16482
3.1675
3.17032
3.17326
3.17629
3.17942
3.18262
3.1859
3.18924
3.19264
3.1961
3.19962
3.20321
3.20688
3.21063
3.21449
3.21848
3.2226
3.22686
3.23123
3.23563
3.23992
3.24389
3.24724
3.24971
3.25118
3.25182
3.25223
3.25337
3.25615
3.26088
3.26693
3.27314
3.27777
3.27608
3.24613
1
1
1
1
1
1
1
1
1
1
1
1
1
1
1
1
1
1
1
2.49919
2.9693
2.97964
2.98894
2.99771
3.00595
3.0137
3.021
3.02787
3.03437
3.04052
3.04636
3.05193
3.05724
3.06231
3.06717
3.07182
3.07628
3.08054
3.08462
3.08851
3.09222
3.09575
3.0991
3.10227
3.10527
3.10806
3.11088
3.11366
3.11638
3.11902
3.12156
3.124
3.12631
3.12847
3.13048
3.13232
3.13397
3.13544
3.13671
3.13779
3.13869
3.13941
3.13998
3.14042
3.14074
3.14097
3.14116
3.14132
3.1415
3.14173
3.14204
3.14245
3.143
3.14371
3.1446
3.14568
3.14697
3.14846
3.15015
3.15205
3.15414
3.15641
3.15885
3.16145
3.16418
3.16704
3.17002
3.17308
3.17624
3.17947
3.18277
3.18614
3.18956
3.19305
3.1966
3.20023
3.20393
3.20772
3.21161
3.21563
3.21979
3.22406
3.22843
3.2328
3.23701
3.24082
3.24396
3.24614
3.24726
3.24751
3.24751
3.24821
3.25057
3.25492
3.26074
3.26694
3.27182
3.2706
3.24024
1
1
1
1
1
1
1
1
1
1
1
1
1
1
1
1
1
1
1
2.48321
2.96826
2.97865
2.98799
2.99677
3.00501
3.01273
3.01999
3.02682
3.03327
3.03938
3.04518
3.05071
3.05599
3.06103
3.06586
3.07047
3.07489
3.07911
3.08314
3.08697
3.09061
3.09406
3.09732
3.10039
3.10328
3.10596
3.10865
3.11129
3.11384
3.11629
3.11864
3.12086
3.12294
3.12487
3.12663
3.12822
3.12963
3.13087
3.13192
3.13281
3.13353
3.13411
3.13457
3.13492
3.1352
3.13543
3.13564
3.13586
3.13612
3.13645
3.13689
3.13744
3.13814
3.139
3.14004
3.14127
3.1427
3.14431
3.14612
3.14813
3.15031
3.15266
3.15516
3.15782
3.1606
3.1635
3.16651
3.1696
3.17279
3.17604
3.17937
3.18276
3.18621
3.18973
3.19331
3.19696
3.20069
3.20452
3.20845
3.2125
3.21668
3.22097
3.22533
3.22966
3.23378
3.23744
3.24035
3.24225
3.24302
3.24288
3.24248
3.24276
3.2447
3.24869
3.25425
3.26038
3.26543
3.26461
3.23391
1
1
1
1
1
1
1
1
1
1
1
1
1
1
1
1
1
1
1
2.465
2.96713
2.97761
2.987
2.99581
3.00405
3.01175
3.01897
3.02576
3.03216
3.03823
3.04399
3.04948
3.05472
3.05973
3.06451
3.06908
3.07344
3.07758
3.08153
3.08526
3.08879
3.09212
3.09525
3.09818
3.10092
3.10343
3.10596
3.1084
3.11075
3.11298
3.11508
3.11706
3.11888
3.12054
3.12205
3.12339
3.12456
3.12557
3.12643
3.12714
3.12772
3.12819
3.12858
3.12889
3.12917
3.12943
3.1297
3.13002
3.1304
3.13086
3.13145
3.13216
3.13302
3.13405
3.13524
3.13662
3.13818
3.13993
3.14186
3.14396
3.14622
3.14865
3.15122
3.15392
3.15675
3.15969
3.16272
3.16585
3.16905
3.17233
3.17568
3.1791
3.18257
3.18611
3.18972
3.1934
3.19716
3.20102
3.20498
3.20906
3.21327
3.21757
3.22192
3.2262
3.23023
3.23373
3.23641
3.238
3.23843
3.23792
3.23712
3.23701
3.23855
3.24217
3.24747
3.25348
3.25862
3.25813
3.22714
1
1
1
1
1
1
1
1
1
1
1
1
1
1
1
1
1
1
1
2.4443
2.96594
2.97656
2.98603
2.99489
3.00313
3.0108
3.01798
3.02472
3.03108
3.0371
3.04282
3.04827
3.05345
3.0584
3.06311
3.0676
3.07186
3.07589
3.0797
3.08329
3.08665
3.08981
3.09275
3.09549
3.09803
3.10033
3.10264
3.10484
3.10694
3.10891
3.11075
3.11244
3.11399
3.11539
3.11664
3.11774
3.11869
3.11951
3.1202
3.12078
3.12127
3.12168
3.12204
3.12237
3.12269
3.12303
3.12341
3.12385
3.12438
3.125
3.12575
3.12664
3.12767
3.12886
3.13022
3.13175
3.13345
3.13531
3.13735
3.13954
3.14189
3.14438
3.14701
3.14976
3.15262
3.15559
3.15866
3.16181
3.16504
3.16834
3.17171
3.17514
3.17864
3.1822
3.18583
3.18954
3.19333
3.19721
3.2012
3.20531
3.20954
3.21385
3.21818
3.22241
3.22633
3.22966
3.23211
3.23341
3.23349
3.23261
3.23144
3.23094
3.2321
3.23537
3.24038
3.24623
3.25141
3.25118
3.21992
1
1
1
1
1
1
1
1
1
1
1
1
1
1
1
1
1
1
1
2.42077
2.96469
2.97553
2.98513
2.99404
3.00229
3.00994
3.01707
3.02376
3.03006
3.03602
3.04167
3.04705
3.05215
3.05699
3.06159
3.06593
3.07003
3.07388
3.07749
3.08086
3.08399
3.08691
3.0896
3.09209
3.0944
3.09643
3.09847
3.10041
3.10222
3.10391
3.10547
3.10689
3.10817
3.10932
3.11034
3.11123
3.11201
3.11268
3.11326
3.11377
3.11422
3.11463
3.11502
3.11542
3.11584
3.1163
3.11682
3.11742
3.11812
3.11893
3.11986
3.12092
3.12213
3.12349
3.125
3.12667
3.12849
3.13047
3.1326
3.13488
3.1373
3.13985
3.14253
3.14532
3.14822
3.15122
3.15431
3.15749
3.16074
3.16406
3.16745
3.1709
3.17442
3.178
3.18165
3.18538
3.18919
3.1931
3.19711
3.20125
3.20548
3.2098
3.21411
3.21827
3.22208
3.22524
3.22745
3.22845
3.22819
3.22696
3.22542
3.22456
3.22536
3.22827
3.23299
3.23865
3.24379
3.24376
3.21226
1
1
1
1
1
1
1
1
1
1
1
1
1
1
1
1
1
1
1
2.39401
2.96344
2.9746
2.98438
2.99336
3.0016
3.0092
3.01627
3.02287
3.02909
3.03495
3.04049
3.04572
3.05067
3.05534
3.05973
3.06384
3.06769
3.07127
3.07459
3.07766
3.08049
3.0831
3.0855
3.08769
3.08971
3.09145
3.09321
3.09486
3.0964
3.09781
3.0991
3.10028
3.10133
3.10228
3.10312
3.10387
3.10454
3.10513
3.10568
3.10618
3.10666
3.10714
3.10763
3.10815
3.10871
3.10933
3.11003
3.11081
3.11169
3.11269
3.1138
3.11505
3.11642
3.11794
3.11959
3.12139
3.12333
3.12541
3.12763
3.12998
3.13246
3.13507
3.13779
3.14062
3.14355
3.14657
3.14968
3.15288
3.15614
3.15948
3.16289
3.16636
3.16989
3.17349
3.17716
3.18091
3.18474
3.18867
3.19271
3.19686
3.2011
3.20541
3.20969
3.21378
3.21747
3.22045
3.22242
3.22312
3.22253
3.22095
3.21906
3.21786
3.21831
3.22088
3.22529
3.23072
3.23578
3.23589
3.20416
1
1
1
1
1
1
1
1
1
1
1
1
1
1
1
1
1
1
1
2.36351
2.96228
2.97389
2.98387
2.99291
3.00111
3.00863
3.01557
3.02204
3.02809
3.03377
3.0391
3.0441
3.04878
3.05314
3.05721
3.06098
3.06446
3.06767
3.07062
3.07331
3.07578
3.07803
3.08009
3.08198
3.0837
3.08513
3.08664
3.08803
3.08932
3.09051
3.09159
3.09259
3.09349
3.09431
3.09506
3.09575
3.0964
3.09701
3.09759
3.09817
3.09876
3.09936
3.1
3.10068
3.10142
3.10223
3.10311
3.10409
3.10517
3.10635
3.10764
3.10905
3.11058
3.11223
3.11402
3.11593
3.11797
3.12013
3.12242
3.12484
3.12737
3.13002
3.13277
3.13563
3.13858
3.14163
3.14476
3.14797
3.15125
3.15461
3.15803
3.16152
3.16507
3.16868
3.17237
3.17613
3.17998
3.18393
3.18798
3.19214
3.19639
3.20068
3.20492
3.20894
3.2125
3.2153
3.21701
3.21742
3.21651
3.21459
3.21237
3.21084
3.21095
3.21318
3.21728
3.22245
3.22739
3.22758
3.19561
1
1
1
1
1
1
1
1
1
1
1
1
1
1
1
1
1
1
1
2.32853
2.96132
2.97349
2.98367
2.9927
3.00078
3.00811
3.01482
3.02103
3.02679
3.03214
3.03712
3.04173
3.04599
3.04993
3.05354
3.05685
3.05988
3.06264
3.06515
3.06744
3.06952
3.07142
3.07315
3.07474
3.07621
3.07739
3.07869
3.0799
3.08103
3.08208
3.08305
3.08396
3.08481
3.08561
3.08637
3.0871
3.08781
3.08852
3.08922
3.08994
3.09068
3.09146
3.09228
3.09315
3.09409
3.09509
3.09617
3.09734
3.09859
3.09994
3.10139
3.10295
3.10461
3.10639
3.10828
3.11028
3.1124
3.11463
3.11698
3.11944
3.12202
3.1247
3.12748
3.13036
3.13333
3.1364
3.13954
3.14277
3.14607
3.14944
3.15287
3.15637
3.15994
3.16357
3.16727
3.17105
3.17491
3.17887
3.18293
3.1871
3.19134
3.19562
3.19981
3.20374
3.20717
3.20977
3.21124
3.21135
3.21012
3.20787
3.20533
3.20348
3.20327
3.20518
3.20895
3.21384
3.2186
3.21883
3.18662
1
1
1
1
1
1
1
1
1
1
1
1
1
1
1
1
1
1
1
2.28799
2.96071
2.97349
2.98375
2.9926
3.00036
3.00731
3.0136
3.01934
3.0246
3.02943
3.03387
3.03792
3.04162
3.045
3.04808
3.05087
3.05342
3.05573
3.05783
3.05976
3.06151
3.06313
3.06462
3.06601
3.0673
3.06834
3.06955
3.0707
3.07178
3.07281
3.07379
3.07472
3.07563
3.07651
3.07737
3.07822
3.07908
3.07994
3.08082
3.08172
3.08265
3.08362
3.08464
3.0857
3.08682
3.08801
3.08927
3.0906
3.09201
3.0935
3.09508
3.09675
3.09852
3.10039
3.10236
3.10444
3.10662
3.1089
3.1113
3.11379
3.1164
3.1191
3.1219
3.1248
3.12779
3.13087
3.13403
3.13727
3.14058
3.14396
3.14741
3.15092
3.1545
3.15815
3.16186
3.16565
3.16953
3.1735
3.17757
3.18173
3.18597
3.19021
3.19435
3.19819
3.20147
3.20388
3.20509
3.20491
3.20336
3.20079
3.19794
3.1958
3.19528
3.19686
3.2003
3.20489
3.20944
3.20965
3.17719
1
1
1
1
1
1
1
1
1
1
1
1
1
1
1
1
1
1
1
2.24017
2.96062
2.97384
2.98389
2.99222
2.99934
3.00558
3.01116
3.01619
3.02073
3.02485
3.02859
3.03199
3.03509
3.0379
3.04047
3.04282
3.04497
3.04694
3.04877
3.05046
3.05204
3.05351
3.0549
3.05621
3.05745
3.05849
3.05974
3.06093
3.06209
3.06321
3.06429
3.06536
3.0664
3.06743
3.06846
3.06949
3.07052
3.07157
3.07263
3.07372
3.07484
3.07599
3.07718
3.07841
3.07969
3.08103
3.08243
3.08389
3.08541
3.08702
3.08869
3.09046
3.0923
3.09424
3.09627
3.09839
3.10061
3.10294
3.10536
3.10788
3.1105
3.11322
3.11604
3.11895
3.12196
3.12505
3.12822
3.13147
3.13479
3.13818
3.14165
3.14517
3.14876
3.15242
3.15614
3.15994
3.16383
3.1678
3.17187
3.17603
3.18025
3.18447
3.18854
3.19228
3.19541
3.19761
3.19857
3.1981
3.19623
3.19335
3.19021
3.18778
3.18697
3.18823
3.19133
3.19559
3.1999
3.20006
3.16733
1
1
1
1
1
1
1
1
1
1
1
1
1
1
1
1
1
1
1
2.18241
2.96116
2.97429
2.98354
2.99082
2.99684
3.00202
3.00661
3.01072
3.01443
3.01781
3.02089
3.02372
3.02633
3.02876
3.03101
3.03311
3.03508
3.03694
3.03868
3.04034
3.04191
3.0434
3.04482
3.04619
3.0475
3.04863
3.05001
3.05135
3.05265
3.05392
3.05517
3.05639
3.05761
3.05881
3.06001
3.0612
3.06241
3.06362
3.06484
3.06608
3.06734
3.06863
3.06995
3.07131
3.0727
3.07415
3.07564
3.07718
3.07879
3.08046
3.08221
3.08402
3.08592
3.0879
3.08997
3.09212
3.09437
3.09671
3.09916
3.10169
3.10433
3.10706
3.10989
3.11281
3.11583
3.11893
3.12211
3.12537
3.1287
3.13211
3.13558
3.13912
3.14272
3.14638
3.15012
3.15392
3.15781
3.16179
3.16586
3.17001
3.17421
3.17838
3.18238
3.18601
3.18899
3.19098
3.19168
3.19091
3.18873
3.18556
3.18213
3.17942
3.17832
3.17927
3.18203
3.18594
3.18998
3.19005
3.15705
1
1
1
1
1
1
1
1
1
1
1
1
1
1
1
1
1
1
1
2.1105
2.96222
2.97416
2.98177
2.9874
2.99195
2.99588
2.99942
3.00269
3.00574
3.0086
3.01131
3.01389
3.01634
3.01868
3.02091
3.02304
3.02508
3.02703
3.02888
3.03065
3.03234
3.03396
3.0355
3.03698
3.0384
3.03965
3.04117
3.04264
3.04408
3.04549
3.04688
3.04824
3.04958
3.05091
3.05223
3.05354
3.05485
3.05617
3.05749
3.05882
3.06017
3.06154
3.06293
3.06435
3.06581
3.06731
3.06885
3.07045
3.0721
3.07381
3.07558
3.07743
3.07935
3.08135
3.08344
3.08561
3.08788
3.09023
3.09268
3.09523
3.09788
3.10062
3.10346
3.10639
3.10941
3.11251
3.11571
3.11897
3.12232
3.12573
3.12922
3.13276
3.13637
3.14005
3.14379
3.1476
3.15149
3.15547
3.15954
3.16367
3.16784
3.17196
3.17589
3.1794
3.1822
3.18397
3.18441
3.18335
3.18087
3.1774
3.1737
3.17073
3.16936
3.17
3.1724
3.17596
3.1797
3.17965
3.14635
1
1
1
1
1
1
1
1
1
1
1
1
1
1
1
1
1
1
1
2.0181
2.96316
2.97229
2.97744
2.98111
2.98424
2.98721
2.99012
2.99302
2.9959
2.99874
3.00153
3.00425
3.00688
3.00943
3.01188
3.01423
3.01647
3.01861
3.02064
3.02256
3.02438
3.02611
3.02775
3.02931
3.03079
3.0321
3.03367
3.0352
3.0367
3.03816
3.0396
3.04101
3.0424
3.04377
3.04513
3.04647
3.04782
3.04916
3.05051
3.05186
3.05323
3.05462
3.05603
3.05747
3.05894
3.06045
3.06201
3.06362
3.06528
3.067
3.06879
3.07064
3.07258
3.07459
3.07668
3.07886
3.08113
3.08349
3.08595
3.0885
3.09115
3.0939
3.09674
3.09968
3.1027
3.10582
3.10902
3.1123
3.11565
3.11907
3.12256
3.12612
3.12973
3.13341
3.13716
3.14098
3.14487
3.14884
3.15289
3.15701
3.16115
3.16521
3.16905
3.17243
3.17506
3.17661
3.17678
3.17543
3.17265
3.16889
3.16493
3.1617
3.16006
3.16039
3.16244
3.16562
3.16904
3.16884
3.13524
1
1
1
1
1
1
1
1
1
1
1
1
1
1
1
1
1
1
1
1.89709
2.96273
2.96752
2.97001
2.97218
2.97462
2.97741
2.98046
2.98367
2.98695
2.99023
2.99345
2.99657
2.99958
3.00244
3.00516
3.00773
3.01015
3.01241
3.01453
3.01651
3.01837
3.0201
3.02172
3.02324
3.02467
3.02593
3.02744
3.02892
3.03036
3.03177
3.03316
3.03452
3.03587
3.0372
3.03851
3.03982
3.04113
3.04243
3.04375
3.04507
3.04641
3.04777
3.04916
3.05058
3.05204
3.05353
3.05508
3.05667
3.05833
3.06004
3.06182
3.06367
3.0656
3.06761
3.0697
3.07187
3.07414
3.07651
3.07896
3.08152
3.08417
3.08692
3.08976
3.0927
3.09573
3.09885
3.10206
3.10534
3.1087
3.11213
3.11563
3.11919
3.12281
3.12649
3.13024
3.13406
3.13794
3.14191
3.14595
3.15004
3.15413
3.15813
3.16187
3.16512
3.16757
3.16889
3.16879
3.16714
3.16407
3.16003
3.15581
3.15233
3.15043
3.15045
3.15215
3.15494
3.15802
3.15764
3.12374
1
1
1
1
1
1
1
1
1
1
1
1
1
1
1
1
1
1
1
1.74188
2.96016
2.96031
2.96096
2.96273
2.9655
2.96894
2.97274
2.97669
2.98063
2.98448
2.98817
2.99167
2.99495
2.99802
3.00086
3.00349
3.00591
3.00814
3.01019
3.01207
3.0138
3.0154
3.01687
3.01824
3.01952
3.02063
3.02199
3.02332
3.02463
3.02592
3.02719
3.02845
3.02969
3.03092
3.03214
3.03337
3.03459
3.03583
3.03708
3.03834
3.03962
3.04093
3.04228
3.04365
3.04507
3.04653
3.04805
3.04962
3.05125
3.05294
3.0547
3.05653
3.05845
3.06044
3.06252
3.06469
3.06695
3.0693
3.07175
3.0743
3.07695
3.0797
3.08254
3.08548
3.08851
3.09164
3.09484
3.09813
3.10149
3.10493
3.10843
3.11199
3.11561
3.1193
3.12304
3.12685
3.13073
3.13468
3.1387
3.14276
3.14681
3.15073
3.15437
3.15747
3.15973
3.16081
3.16044
3.15849
3.15513
3.15082
3.14635
3.14263
3.14047
3.14019
3.14153
3.14392
3.14664
3.14606
3.11184
1
1
1
1
1
1
1
1
1
1
1
1
1
1
1
1
1
1
1
1.55884
2.95686
2.95339
2.95338
2.9557
2.95941
2.96379
2.96841
2.973
2.97744
2.98163
2.98553
2.98912
2.99241
2.99541
2.99812
3.00058
3.0028
3.0048