/*--------------------------------*- C++ -*----------------------------------*\
| =========                 |                                                 |
| \\      /  F ield         | OpenFOAM: The Open Source CFD Toolbox           |
|  \\    /   O peration     | Version:  2.2.x                                 |
|   \\  /    A nd           | Web:      www.OpenFOAM.org                      |
|    \\/     M anipulation  |                                                 |
\*---------------------------------------------------------------------------*/
FoamFile
{
    version     2.0;
    format      ascii;
    class       volScalarField;
    location    "0.9";
    object      Bz;
}
// * * * * * * * * * * * * * * * * * * * * * * * * * * * * * * * * * * * * * //

dimensions      [1 0 -2 0 0 -1 0];

internalField   nonuniform List<scalar> 
14161
(
-1.72891e-19
-1.74459e-19
-1.57898e-19
-1.44951e-19
-1.35306e-19
-1.27772e-19
-1.21299e-19
-1.16437e-19
-1.11266e-19
-1.05175e-19
-1.03909e-19
-9.7828e-20
-9.6645e-20
-9.38067e-20
-9.15887e-20
-9.03752e-20
-9.23121e-20
-9.26407e-20
-9.11255e-20
-8.87295e-20
-8.62751e-20
-8.42202e-20
-7.88351e-20
-7.64121e-20
-7.33025e-20
-7.04765e-20
-6.84178e-20
-6.43132e-20
-6.32164e-20
-6.29224e-20
-6.04179e-20
-5.99522e-20
-5.7031e-20
-5.63833e-20
-5.72129e-20
-5.50216e-20
-5.14272e-20
-5.16783e-20
-4.7546e-20
-4.84865e-20
-1.10276e-19
-3.83108e-19
-4.10232e-19
-4.09183e-19
-4.0868e-19
-3.69334e-19
-3.42231e-19
-2.98271e-19
-2.48309e-19
-2.14085e-19
-1.66619e-19
-1.27027e-19
-8.72094e-20
-4.06481e-20
-5.20549e-21
4.08078e-20
6.17448e-20
8.90762e-20
1.02309e-19
1.08612e-19
1.28089e-19
1.42101e-19
1.86567e-19
2.29265e-19
3.05332e-19
4.27305e-19
5.46153e-19
5.92989e-19
5.54679e-19
5.48171e-19
5.38294e-19
5.47494e-19
5.46766e-19
4.67579e-19
4.51002e-19
3.64962e-19
3.24618e-19
3.20236e-19
3.11317e-19
3.36817e-19
3.63283e-19
3.7011e-19
3.22861e-19
2.34756e-19
4.96196e-20
-2.76877e-19
-5.55056e-19
-9.25376e-19
-1.14751e-18
-1.36596e-18
-1.53754e-18
-1.67889e-18
-1.93473e-18
-2.06478e-18
-2.08493e-18
-2.01556e-18
-1.90354e-18
-1.8538e-18
-1.64644e-18
-1.4985e-18
-1.40719e-18
-1.2553e-18
-9.78336e-19
-8.8873e-19
-8.20846e-19
-7.5933e-19
-8.065e-19
-8.6595e-19
-9.27125e-19
-9.47102e-19
-7.9627e-19
-7.42894e-19
-6.90845e-19
-1.33562e-18
-1.19396e-18
-1.56108e-18
-9.99902e-19
-2.61295e-19
-5.44525e-20
-2.61237e-19
-2.29688e-19
-2.02396e-19
-1.97932e-19
-1.97191e-19
-1.95371e-19
-1.89422e-19
-1.87559e-19
-1.84338e-19
-1.77193e-19
-1.62298e-19
-1.5076e-19
-1.4504e-19
-1.46837e-19
-1.47144e-19
-1.46992e-19
-1.42969e-19
-1.47432e-19
-1.49843e-19
-1.53526e-19
-1.52131e-19
-1.53677e-19
-1.513e-19
-1.50259e-19
-1.50637e-19
-1.51597e-19
-1.51511e-19
-1.50551e-19
-1.50065e-19
-1.48687e-19
-1.45057e-19
-1.60603e-19
-1.30412e-19
-1.52327e-19
-1.45959e-19
-1.48796e-19
-1.27985e-19
-1.29905e-19
-1.41428e-19
-1.55252e-19
-1.18127e-19
-5.48059e-19
-5.99546e-19
-6.45697e-19
-7.82098e-19
-8.08822e-19
-5.76034e-19
-4.06858e-19
-2.61995e-19
-1.52525e-19
-8.42412e-20
-3.82866e-20
7.46631e-21
6.73069e-20
1.19765e-19
1.68092e-19
1.93135e-19
2.14123e-19
2.23433e-19
2.09489e-19
2.02681e-19
1.92992e-19
3.44892e-19
4.60808e-19
5.78113e-19
6.65738e-19
7.47884e-19
7.87019e-19
7.48471e-19
7.10065e-19
6.90906e-19
6.5933e-19
6.19437e-19
5.59162e-19
4.65403e-19
4.1246e-19
2.53807e-19
1.06286e-19
-7.66644e-20
-1.86428e-19
-4.50677e-19
-6.12836e-19
-8.81204e-19
-1.28589e-18
-1.48369e-18
-1.90509e-18
-2.16169e-18
-2.39509e-18
-2.7872e-18
-3.23194e-18
-3.12686e-18
-2.9123e-18
-2.70029e-18
-2.34014e-18
-1.59484e-18
-5.83118e-19
1.23113e-19
7.76435e-19
1.36559e-18
9.56208e-19
7.84547e-19
-7.68921e-20
-8.92621e-19
-1.533e-18
-2.77638e-18
-3.15127e-18
-3.02519e-18
-2.2834e-18
-1.19367e-18
-6.42144e-19
-3.43145e-20
-1.35115e-18
-2.95339e-18
-6.17814e-18
-6.67541e-18
-7.39287e-18
-7.32683e-18
7.80977e-19
1.3761e-18
-2.52706e-20
4.56908e-20
2.00799e-20
1.08439e-20
1.19875e-20
2.16325e-21
-1.54977e-20
-2.84641e-20
-3.26721e-20
-4.19051e-20
-2.85325e-20
-3.4676e-20
-3.28651e-20
-3.03904e-20
-2.65604e-20
-2.26626e-20
-1.53905e-20
-3.30898e-21
2.76767e-21
6.89513e-21
8.32864e-21
1.04516e-20
2.32716e-20
1.65421e-20
1.08269e-20
1.12846e-20
1.04804e-20
1.10904e-20
8.61441e-21
9.41448e-21
6.763e-21
5.70954e-21
5.55613e-21
1.02874e-20
1.4008e-20
2.48529e-20
1.79322e-20
1.08839e-20
-2.09013e-21
5.12379e-21
2.42165e-20
1.58174e-19
1.59799e-19
1.23937e-19
9.41276e-20
5.61229e-20
5.38072e-20
1.27014e-19
1.96153e-19
2.40178e-19
2.91285e-19
3.64374e-19
4.16705e-19
4.59476e-19
5.67114e-19
6.06003e-19
6.89715e-19
7.33817e-19
7.97773e-19
8.35963e-19
8.03966e-19
8.7289e-19
9.16071e-19
9.39539e-19
9.96449e-19
9.90557e-19
9.72447e-19
1.01688e-18
1.01446e-18
1.01966e-18
9.48258e-19
9.42917e-19
9.01386e-19
7.15273e-19
6.72364e-19
6.08166e-19
5.41495e-19
4.18493e-19
3.27934e-19
3.988e-19
4.71875e-20
-9.33394e-20
-2.484e-19
-6.39914e-19
-8.43537e-19
-1.22212e-18
-1.31665e-18
-1.82631e-18
-2.0657e-18
-2.34182e-18
-2.74871e-18
-2.8828e-18
-3.35873e-18
-3.36157e-18
-3.38901e-18
-2.87343e-18
-2.56794e-18
-1.3462e-18
-4.99036e-19
3.97353e-19
6.13927e-19
9.70813e-19
9.31536e-19
1.57242e-19
-1.74758e-18
-3.13757e-18
-4.03358e-18
-3.54916e-18
-1.93848e-18
-5.35298e-19
1.81156e-19
-2.35551e-18
-6.7716e-18
-1.54532e-17
-2.13874e-17
-2.53833e-17
-2.06065e-17
-2.20097e-18
-6.47487e-18
1.21815e-18
9.69623e-19
7.91838e-19
7.12699e-19
6.9759e-19
7.10514e-19
6.89265e-19
6.6044e-19
6.16066e-19
5.27819e-19
4.4625e-19
3.56354e-19
3.21805e-19
3.27631e-19
3.52255e-19
3.71831e-19
4.35961e-19
4.99241e-19
5.06471e-19
5.05762e-19
4.96333e-19
4.80364e-19
4.51996e-19
4.1091e-19
3.95192e-19
3.93171e-19
3.81494e-19
3.89402e-19
4.18484e-19
4.1975e-19
4.20927e-19
4.15188e-19
4.09722e-19
3.97923e-19
3.78697e-19
3.5635e-19
3.48383e-19
3.44629e-19
3.02789e-19
3.56538e-19
4.84533e-19
1.34727e-18
1.39794e-18
1.32376e-18
1.16265e-18
1.22371e-18
1.26661e-18
1.24123e-18
1.20448e-18
1.14353e-18
1.1424e-18
1.15806e-18
1.14382e-18
1.18311e-18
1.20153e-18
1.26849e-18
1.30972e-18
1.37063e-18
1.41141e-18
1.44901e-18
1.52758e-18
1.67058e-18
1.76282e-18
1.87669e-18
1.84778e-18
1.83056e-18
1.70275e-18
1.61242e-18
1.59056e-18
1.61882e-18
1.66123e-18
1.6447e-18
1.58421e-18
1.22573e-18
9.9745e-19
7.72562e-19
6.2151e-19
6.08646e-19
3.65693e-19
4.22824e-19
1.26136e-19
2.25414e-19
3.94965e-20
-4.86976e-20
-2.65695e-19
-3.22913e-19
-7.23111e-19
-9.38192e-19
-1.32351e-18
-1.57573e-18
-1.93698e-18
-2.66107e-18
-3.03068e-18
-3.01351e-18
-3.12894e-18
-3.20213e-18
-3.1979e-18
-2.55801e-18
-2.03899e-18
-1.78411e-18
-1.08886e-18
-3.9564e-19
-3.05784e-19
-2.74815e-19
-8.29156e-19
-1.67283e-18
-2.16374e-18
-2.19711e-18
-9.40769e-19
2.48301e-19
3.09187e-19
-3.18797e-18
-9.60175e-18
-2.29567e-17
-3.2138e-17
-4.1876e-17
-3.96461e-17
-1.16406e-17
-1.71382e-17
1.10099e-18
1.55876e-18
1.84535e-18
1.65305e-18
1.50123e-18
1.195e-18
1.02137e-18
9.85204e-19
9.98213e-19
1.03086e-18
1.12635e-18
1.24634e-18
1.27146e-18
1.2521e-18
1.20525e-18
1.16493e-18
1.07824e-18
9.75408e-19
9.23678e-19
9.00006e-19
9.12393e-19
9.11861e-19
9.97011e-19
1.04599e-18
1.04256e-18
1.03639e-18
1.00259e-18
9.52671e-19
9.11122e-19
8.19765e-19
7.92603e-19
7.91395e-19
7.35625e-19
7.67896e-19
7.87233e-19
7.86069e-19
7.82246e-19
7.84638e-19
7.94942e-19
7.84745e-19
8.38634e-19
3.2673e-18
3.35584e-18
3.07436e-18
2.75345e-18
2.75008e-18
2.62098e-18
2.59768e-18
2.40925e-18
2.28048e-18
2.24092e-18
2.19651e-18
2.18999e-18
2.07666e-18
2.03925e-18
2.01035e-18
1.99377e-18
2.01455e-18
2.05319e-18
2.05303e-18
2.04655e-18
2.12879e-18
2.16588e-18
2.27639e-18
2.3075e-18
2.31914e-18
2.28714e-18
2.18236e-18
2.15302e-18
2.22379e-18
2.27338e-18
2.13789e-18
2.16416e-18
1.99944e-18
1.50357e-18
1.20192e-18
9.29127e-19
1.06646e-18
4.28987e-19
4.8944e-19
1.9627e-19
4.13998e-19
5.18548e-19
-6.75434e-21
-2.2323e-20
-1.118e-19
-1.74233e-19
-4.01721e-19
-3.7833e-19
-6.42382e-19
-8.81602e-19
-1.27355e-18
-1.94017e-18
-1.94834e-18
-2.11581e-18
-2.2961e-18
-2.63732e-18
-2.39237e-18
-2.18939e-18
-2.16753e-18
-1.80061e-18
-1.64563e-18
-1.63056e-18
-1.55867e-18
-1.55194e-18
-1.69281e-18
-1.10991e-18
-7.35801e-19
3.98157e-19
6.52906e-19
-6.71602e-19
-7.3339e-18
-1.37173e-17
-2.89784e-17
-3.92133e-17
-5.1608e-17
-5.30383e-17
-3.40653e-17
-5.18526e-17
3.51561e-18
2.80427e-18
2.12588e-18
1.90256e-18
1.87415e-18
2.01897e-18
2.13119e-18
2.06613e-18
1.94016e-18
1.71145e-18
1.47428e-18
1.14697e-18
9.92179e-19
9.60739e-19
9.83124e-19
1.02008e-18
1.18653e-18
1.36579e-18
1.39521e-18
1.40962e-18
1.39105e-18
1.35521e-18
1.2795e-18
1.15275e-18
1.10931e-18
1.09741e-18
1.05247e-18
1.09079e-18
1.10058e-18
1.13534e-18
1.14576e-18
1.14621e-18
1.15686e-18
1.13596e-18
1.06893e-18
1.03875e-18
1.04189e-18
1.03224e-18
1.08122e-18
9.57201e-19
1.67509e-18
4.52146e-18
4.42692e-18
4.34857e-18
4.10651e-18
4.08862e-18
4.05281e-18
3.93e-18
3.73218e-18
3.44287e-18
3.34907e-18
3.24608e-18
3.30528e-18
3.16818e-18
2.90152e-18
2.6915e-18
2.5725e-18
2.5616e-18
2.53012e-18
2.55961e-18
2.54779e-18
2.59723e-18
2.63942e-18
2.63934e-18
2.61032e-18
2.58531e-18
2.54617e-18
2.52276e-18
2.44019e-18
2.41638e-18
2.56899e-18
2.3862e-18
2.30212e-18
2.35395e-18
2.18548e-18
2.06181e-18
1.6249e-18
1.39234e-18
9.00639e-19
1.04484e-18
6.92194e-19
6.13776e-19
2.74852e-19
4.44416e-19
3.33256e-20
-1.6737e-20
-1.40711e-19
-6.554e-19
-1.15715e-18
-1.03098e-18
-1.29523e-18
-1.79946e-18
-2.07327e-18
-2.19617e-18
-2.30166e-18
-2.45106e-18
-2.37269e-18
-2.14324e-18
-1.89779e-18
-1.96499e-18
-1.474e-18
-1.75815e-18
-1.27096e-18
-1.28627e-18
-7.3556e-19
-2.7231e-19
1.03786e-19
8.22821e-19
2.06343e-19
-1.60208e-18
-4.78462e-18
-1.2198e-17
-1.68981e-17
-2.83634e-17
-3.66292e-17
-5.11691e-17
-5.58384e-17
-5.35344e-17
-8.87214e-17
1.34614e-18
2.12069e-18
2.71004e-18
2.5601e-18
2.36226e-18
1.90415e-18
1.6438e-18
1.55531e-18
1.55718e-18
1.6321e-18
1.83063e-18
2.00902e-18
2.07226e-18
2.04851e-18
1.96862e-18
1.87868e-18
1.76769e-18
1.54989e-18
1.41655e-18
1.39063e-18
1.38401e-18
1.36506e-18
1.52345e-18
1.59645e-18
1.58119e-18
1.5626e-18
1.51099e-18
1.49293e-18
1.37504e-18
1.30016e-18
1.15636e-18
1.12233e-18
1.08278e-18
1.08782e-18
1.03859e-18
1.08733e-18
1.1189e-18
1.12117e-18
1.12391e-18
1.10604e-18
1.52202e-18
4.46787e-18
4.85999e-18
5.13646e-18
5.16939e-18
4.91585e-18
4.5865e-18
4.38542e-18
4.13279e-18
3.87699e-18
3.73229e-18
3.62373e-18
3.52045e-18
3.3438e-18
3.1312e-18
2.88475e-18
2.7104e-18
2.58581e-18
2.4875e-18
2.45965e-18
2.50514e-18
2.51954e-18
2.7399e-18
2.80797e-18
2.97934e-18
3.05492e-18
3.16414e-18
3.09779e-18
3.07334e-18
2.96957e-18
2.95254e-18
2.87386e-18
2.77496e-18
2.71147e-18
2.52509e-18
2.35134e-18
2.15551e-18
1.87154e-18
1.6504e-18
1.21689e-18
1.02106e-18
8.49711e-19
4.83204e-19
2.86365e-19
5.66597e-19
-2.74822e-19
-3.45958e-19
-3.30916e-19
-1.30374e-18
-1.13581e-18
-1.13084e-18
-1.86926e-18
-2.47043e-18
-2.80966e-18
-2.5675e-18
-2.70513e-18
-2.24844e-18
-2.46656e-18
-1.04757e-18
-5.22028e-19
-2.15144e-19
5.25235e-19
7.74078e-19
8.93064e-19
1.10506e-18
1.16882e-18
1.58001e-18
1.54213e-18
4.18276e-19
-1.65228e-18
-5.49775e-18
-1.23111e-17
-1.7422e-17
-2.68061e-17
-3.22316e-17
-4.34851e-17
-4.54907e-17
-4.9301e-17
-7.55633e-17
3.72345e-18
3.09829e-18
2.26946e-18
1.96098e-18
1.9457e-18
2.1481e-18
2.47618e-18
2.37832e-18
2.22941e-18
1.95595e-18
1.71236e-18
1.34381e-18
1.12727e-18
1.06938e-18
1.08487e-18
1.10726e-18
1.28701e-18
1.45211e-18
1.5079e-18
1.52776e-18
1.46903e-18
1.42422e-18
1.31603e-18
1.17756e-18
1.10031e-18
1.08178e-18
1.03425e-18
1.06489e-18
1.10035e-18
1.03651e-18
1.11706e-18
1.14225e-18
1.13343e-18
1.12911e-18
1.09847e-18
1.01417e-18
1.00239e-18
1.01179e-18
1.07361e-18
8.41216e-19
1.38104e-18
4.41469e-18
5.28038e-18
5.19334e-18
4.70588e-18
4.4844e-18
4.33309e-18
4.283e-18
3.99146e-18
3.89896e-18
3.86796e-18
3.81044e-18
3.57202e-18
3.30248e-18
3.02258e-18
2.8844e-18
2.57024e-18
2.45491e-18
2.31257e-18
2.52758e-18
2.6579e-18
2.9702e-18
3.02364e-18
3.11893e-18
3.20393e-18
3.2398e-18
3.21097e-18
3.15657e-18
3.17337e-18
3.06413e-18
3.15214e-18
2.99804e-18
2.98579e-18
3.01142e-18
2.87468e-18
2.82026e-18
2.72049e-18
2.53655e-18
2.43331e-18
1.99092e-18
1.387e-18
1.1407e-18
7.76435e-19
7.14323e-19
4.42621e-19
-3.75539e-19
-8.50611e-19
-1.09341e-18
-1.04544e-18
-2.31131e-18
-1.97767e-18
-2.2154e-18
-2.73614e-18
-3.22843e-18
-3.42175e-18
-3.35425e-18
-3.0853e-18
-2.60131e-18
-9.63163e-19
5.94425e-19
1.84835e-18
2.20569e-18
2.52798e-18
3.11762e-18
2.9786e-18
1.78803e-18
1.09431e-18
6.59629e-19
2.1068e-20
-3.42578e-18
-6.35674e-18
-1.24543e-17
-1.71722e-17
-2.73526e-17
-3.16936e-17
-4.13732e-17
-4.27957e-17
-3.72279e-17
-4.86449e-17
8.43783e-19
1.45747e-18
1.96641e-18
1.9751e-18
1.80448e-18
1.49098e-18
1.31428e-18
1.15411e-18
1.14447e-18
1.17069e-18
1.32782e-18
1.50027e-18
1.53828e-18
1.5363e-18
1.48092e-18
1.39556e-18
1.27798e-18
1.17788e-18
1.00318e-18
9.51676e-19
9.27643e-19
9.2569e-19
1.00144e-18
1.05136e-18
1.04792e-18
1.05061e-18
1.01403e-18
9.86538e-19
9.36557e-19
8.42387e-19
7.66074e-19
7.02582e-19
6.77692e-19
6.13507e-19
7.29404e-19
5.87966e-19
6.80278e-19
6.24553e-19
6.53371e-19
7.75341e-19
1.17585e-18
3.00941e-18
3.5801e-18
3.88999e-18
3.7792e-18
3.87449e-18
3.96291e-18
3.81386e-18
3.41245e-18
3.07888e-18
3.11343e-18
3.29847e-18
3.06087e-18
2.73176e-18
2.27186e-18
2.1453e-18
1.99722e-18
1.96194e-18
1.9374e-18
2.06801e-18
1.96344e-18
2.3394e-18
2.53804e-18
2.95057e-18
2.92828e-18
2.93365e-18
2.86967e-18
2.91846e-18
2.8604e-18
2.81648e-18
2.71317e-18
2.80113e-18
2.80702e-18
2.69489e-18
2.57291e-18
2.59664e-18
2.59613e-18
2.67703e-18
2.55257e-18
2.35828e-18
2.00216e-18
2.10678e-18
2.11783e-18
1.4569e-18
4.88907e-19
-5.9277e-19
6.96685e-19
-5.9028e-19
-1.54536e-18
-6.91522e-19
-1.81258e-18
-2.76825e-18
-2.84071e-18
-2.58494e-18
-2.8639e-18
-2.6217e-18
-2.64014e-18
-2.04215e-18
-8.4652e-19
6.05109e-19
2.43834e-18
2.95362e-18
3.78541e-18
4.06569e-18
3.17464e-18
1.12691e-18
4.20421e-19
-1.63156e-19
-1.05706e-18
-3.4574e-18
-8.38051e-18
-1.55862e-17
-2.28794e-17
-3.41898e-17
-3.83646e-17
-4.36089e-17
-4.47142e-17
-3.83607e-17
-4.8023e-17
2.21489e-18
1.95802e-18
1.38324e-18
1.13173e-18
1.16119e-18
1.30115e-18
1.54381e-18
1.50769e-18
1.38918e-18
1.19908e-18
1.05013e-18
8.25562e-19
6.62338e-19
6.03879e-19
6.10815e-19
6.23269e-19
6.96798e-19
8.11544e-19
8.5575e-19
8.40856e-19
8.02721e-19
7.37904e-19
6.68637e-19
6.03237e-19
5.26809e-19
5.176e-19
5.15729e-19
5.24269e-19
5.56684e-19
6.08021e-19
5.96077e-19
6.15134e-19
6.2459e-19
7.15393e-19
4.14475e-19
8.65353e-19
4.45384e-19
6.55902e-19
5.71168e-19
7.44085e-19
-2.95232e-19
3.27969e-18
3.23567e-18
3.22228e-18
2.74513e-18
3.44238e-18
3.90503e-18
3.79294e-18
3.73969e-18
2.53286e-18
2.08918e-18
2.92535e-18
3.3343e-18
2.81263e-18
1.91549e-18
1.43492e-18
1.32493e-18
1.55301e-18
2.04622e-18
2.65222e-18
2.52522e-18
2.55407e-18
2.51662e-18
3.18228e-18
3.56563e-18
3.23197e-18
2.73228e-18
2.58838e-18
2.62652e-18
2.52082e-18
2.30115e-18
2.0332e-18
2.02344e-18
2.12483e-18
1.95086e-18
1.81958e-18
1.85083e-18
2.0769e-18
2.05934e-18
2.08705e-18
1.86794e-18
1.6639e-18
1.18095e-18
1.725e-18
8.55401e-19
2.31221e-18
4.3648e-19
-4.70405e-19
-5.77718e-19
-3.53024e-18
-2.01676e-18
-1.03836e-18
-3.98591e-18
-4.58671e-18
-2.9686e-18
-2.78814e-18
-3.02866e-18
-2.39232e-18
-1.67227e-18
-1.48409e-18
-1.3287e-19
1.15283e-18
2.72778e-18
3.46723e-18
3.11528e-18
3.13864e-18
1.70346e-18
2.6775e-19
-3.2427e-19
-2.90412e-18
-8.92978e-18
-1.65587e-17
-2.61557e-17
-3.53651e-17
-3.7276e-17
-4.15472e-17
-3.99514e-17
-3.62295e-17
-4.04861e-17
4.28875e-19
6.82196e-19
9.02709e-19
9.18798e-19
8.28101e-19
6.75328e-19
5.94426e-19
5.13943e-19
5.05084e-19
4.96831e-19
5.64138e-19
6.5971e-19
6.8816e-19
6.86676e-19
6.52279e-19
6.01373e-19
5.53514e-19
4.71778e-19
3.95187e-19
3.76057e-19
3.60859e-19
3.99269e-19
4.45618e-19
5.18726e-19
5.27697e-19
5.04191e-19
4.99827e-19
4.87927e-19
4.61006e-19
3.91182e-19
3.70663e-19
3.1718e-19
2.94777e-19
3.16474e-19
3.02105e-19
3.14119e-19
2.67013e-19
4.25955e-19
4.0062e-19
3.7167e-19
7.01371e-19
3.02321e-18
3.18891e-18
3.66419e-18
2.67074e-18
4.24507e-18
4.91596e-18
4.39757e-18
5.59689e-18
4.40988e-18
1.91684e-18
1.82616e-18
2.81491e-18
3.78125e-18
3.55985e-18
2.4461e-18
1.34274e-18
7.45919e-19
1.09562e-18
2.27978e-18
3.46276e-18
3.85326e-18
3.7595e-18
2.20289e-18
2.46972e-18
3.36399e-18
3.31731e-18
2.68141e-18
2.10198e-18
1.7482e-18
1.95294e-18
1.99149e-18
1.94894e-18
1.64213e-18
1.64612e-18
1.46309e-18
1.3228e-18
1.4374e-18
1.27595e-18
1.54439e-18
2.1992e-18
2.55178e-18
2.41515e-18
2.41517e-18
1.00195e-18
2.64409e-18
-1.60568e-19
1.74474e-18
3.45978e-18
4.58533e-20
3.17119e-18
1.834e-18
-4.4032e-18
2.53943e-18
6.598e-19
-4.0985e-18
3.16464e-19
3.47399e-18
1.72391e-19
-2.67925e-18
-1.73261e-18
6.0155e-19
5.15779e-19
-2.15912e-19
2.40315e-18
2.44878e-18
8.416e-19
8.31329e-20
8.50496e-19
-1.35938e-18
-5.34459e-18
-1.44211e-17
-2.45739e-17
-3.65757e-17
-3.8386e-17
-4.18552e-17
-3.64383e-17
-3.10313e-17
-3.36848e-17
8.17321e-19
7.54731e-19
5.18272e-19
4.09675e-19
4.22298e-19
4.76826e-19
6.45671e-19
5.71162e-19
5.36441e-19
4.79959e-19
4.27513e-19
3.21877e-19
2.57888e-19
2.37759e-19
2.51e-19
2.77509e-19
3.02591e-19
4.1358e-19
4.62019e-19
4.51313e-19
4.27961e-19
4.01759e-19
3.52897e-19
2.87318e-19
2.43146e-19
2.39379e-19
2.38893e-19
2.51386e-19
3.13648e-19
3.68927e-19
3.64742e-19
4.16683e-19
4.33638e-19
4.41255e-19
4.78019e-19
3.39632e-19
4.56622e-19
4.10471e-19
3.71957e-19
2.99601e-19
6.69668e-19
2.77044e-18
2.9018e-18
4.4207e-18
3.58911e-18
5.12579e-18
5.75697e-18
4.70757e-18
6.09749e-18
7.02717e-18
5.36732e-18
5.66304e-19
-5.49038e-19
2.90358e-18
5.68462e-18
5.78088e-18
3.33939e-18
1.46952e-18
-1.389e-19
8.92775e-19
2.5241e-18
4.33963e-18
5.55845e-18
2.87214e-18
1.0389e-18
1.69852e-18
2.38675e-18
1.75041e-18
1.41593e-18
1.35732e-18
1.19358e-18
1.11284e-18
5.8647e-19
4.26075e-19
-1.91472e-20
1.11705e-18
2.604e-18
2.33419e-18
9.79498e-19
4.55793e-19
1.21133e-19
8.66712e-20
6.54112e-19
1.57755e-18
1.51384e-18
3.09528e-18
2.29202e-18
1.21383e-18
4.02784e-18
1.08051e-18
-9.685e-19
1.99307e-19
2.37044e-18
-6.60545e-19
-2.67247e-18
2.65696e-18
9.80933e-19
-7.13413e-19
-1.82657e-18
-1.35338e-18
2.29991e-18
-8.78613e-19
-5.47958e-18
2.19954e-19
4.41736e-18
2.14243e-18
7.96675e-20
1.86795e-19
1.21002e-18
4.67601e-19
-1.44189e-18
-9.68429e-18
-1.962e-17
-3.23044e-17
-3.99154e-17
-4.26538e-17
-3.74628e-17
-3.25456e-17
-3.49798e-17
1.75801e-19
2.70041e-19
3.53885e-19
3.49733e-19
3.25114e-19
2.65774e-19
2.19581e-19
1.83141e-19
1.88131e-19
1.86221e-19
2.51544e-19
3.10777e-19
3.76268e-19
4.08446e-19
4.01343e-19
3.46849e-19
2.97565e-19
2.48414e-19
2.10787e-19
2.04651e-19
2.1702e-19
2.33717e-19
3.07852e-19
3.66719e-19
4.24197e-19
4.26908e-19
4.07393e-19
4.02241e-19
3.58172e-19
3.14329e-19
2.80025e-19
2.22517e-19
1.8968e-19
1.84086e-19
1.91279e-19
1.79656e-19
2.52909e-19
2.22239e-19
2.23336e-19
1.8771e-19
5.63196e-19
2.18663e-18
4.60578e-18
1.08635e-17
1.10197e-17
8.35161e-18
5.65758e-18
3.31633e-18
5.4255e-18
6.82385e-18
8.73949e-18
3.44353e-18
-2.84606e-18
-2.67139e-21
3.40466e-18
6.12261e-18
4.55984e-18
2.90038e-18
2.55601e-19
-2.98944e-19
9.24844e-19
2.83745e-18
5.58702e-18
4.43296e-18
8.3471e-19
-5.37487e-19
2.17809e-18
1.92073e-18
-3.36104e-19
-1.36788e-18
1.03026e-18
3.75631e-18
4.27121e-18
-2.05108e-19
-2.40621e-18
-6.61616e-18
-6.64095e-18
1.54452e-18
5.07824e-18
5.92776e-18
5.59431e-18
1.96952e-18
2.61458e-19
1.91183e-19
2.94633e-19
1.91824e-18
3.03817e-18
6.68903e-19
3.61255e-18
5.82487e-18
7.32055e-19
-3.20825e-18
2.77249e-18
2.7285e-18
-2.66424e-18
-2.86418e-18
-6.56604e-19
2.74441e-18
-1.66617e-18
-1.93882e-18
-9.11217e-19
-2.40298e-18
3.2439e-18
6.18226e-18
1.74882e-18
-7.32359e-19
-1.14993e-19
-1.09176e-18
3.98795e-19
1.12067e-18
2.05154e-21
-8.38138e-18
-1.79054e-17
-2.95597e-17
-4.03633e-17
-4.49399e-17
-3.37485e-17
-2.30867e-17
-3.29842e-17
3.22724e-19
3.01439e-19
2.16923e-19
1.89415e-19
2.12719e-19
2.5763e-19
2.97682e-19
3.78701e-19
3.70843e-19
3.01695e-19
2.8237e-19
2.27962e-19
1.85758e-19
2.22457e-19
2.38394e-19
2.62729e-19
3.03101e-19
3.9727e-19
4.33797e-19
4.11097e-19
3.60848e-19
3.25402e-19
3.05541e-19
2.54461e-19
2.00433e-19
1.84766e-19
1.90809e-19
1.96716e-19
2.53447e-19
2.3784e-19
3.02683e-19
4.47769e-19
4.48535e-19
4.05322e-19
3.54111e-19
3.40714e-19
3.65663e-19
3.46564e-19
3.59539e-19
3.66606e-19
5.18605e-19
2.72061e-18
8.15324e-18
1.2368e-17
1.32628e-17
1.25527e-17
7.70233e-18
4.60631e-18
4.21135e-18
6.88901e-18
1.04988e-17
6.90988e-18
-1.06197e-18
-1.96671e-18
3.05145e-19
6.42161e-18
2.58455e-18
4.89299e-18
-1.01323e-18
4.61734e-19
-2.33821e-19
7.06266e-18
2.65128e-18
5.45551e-18
7.76278e-18
1.37138e-19
-1.12032e-17
7.25062e-18
7.75313e-18
-1.13147e-17
-2.1125e-17
-1.48569e-17
-7.4567e-19
8.05804e-18
1.93988e-17
2.45618e-17
8.6924e-18
-2.07157e-17
-2.45407e-17
-1.94409e-17
-5.67794e-19
1.21632e-17
9.58504e-18
4.34509e-18
1.68955e-18
-2.19974e-18
5.68259e-18
7.75345e-18
-1.15935e-17
2.68503e-18
1.77817e-17
-3.26006e-18
-7.09297e-18
3.6716e-18
6.8943e-18
3.01167e-18
8.46028e-19
3.59773e-18
2.98179e-18
5.26064e-18
7.69136e-18
6.50864e-18
3.85842e-19
-5.20387e-18
-4.19456e-18
-2.43009e-18
-2.65678e-18
-1.69116e-19
2.18063e-18
4.01364e-19
-6.21284e-19
-8.673e-18
-1.76823e-17
-2.82065e-17
-3.78471e-17
-4.17572e-17
-2.94053e-17
-1.75918e-17
-2.94972e-17
1.14323e-19
1.6583e-19
1.55098e-19
1.91228e-19
2.14089e-19
2.13303e-19
1.99479e-19
1.60486e-19
1.35806e-19
1.71599e-19
2.29108e-19
3.20326e-19
3.73539e-19
3.68685e-19
3.59691e-19
3.52969e-19
3.20472e-19
2.73847e-19
2.00301e-19
1.90283e-19
2.21843e-19
2.41023e-19
2.66168e-19
3.91585e-19
3.99318e-19
4.02916e-19
3.75945e-19
3.41028e-19
3.41504e-19
2.99019e-19
2.77124e-19
2.46685e-19
1.74166e-19
1.63541e-19
9.68853e-20
2.42235e-19
2.98433e-19
-7.48374e-20
2.67282e-19
2.1386e-19
5.84771e-19
6.48747e-19
1.50507e-17
3.93522e-19
2.06923e-17
1.05716e-17
8.93832e-18
7.45391e-18
3.09057e-18
9.10593e-18
1.21741e-17
5.96229e-18
-2.84253e-18
-1.05506e-18
-3.92775e-18
1.89101e-17
-2.32493e-17
2.21938e-17
-1.75736e-17
1.40779e-17
-1.66273e-17
-1.54436e-18
6.8437e-17
-9.06214e-17
3.90926e-17
9.16851e-17
-6.51629e-17
-9.21126e-17
4.21449e-17
1.16941e-16
7.38025e-17
-9.88644e-18
-2.57315e-17
-3.72177e-17
-2.71884e-17
-1.43654e-17
9.67412e-18
3.67988e-17
3.95177e-17
5.82116e-18
-2.33469e-17
-1.86207e-17
-5.14424e-18
-4.14435e-19
-1.37311e-18
-3.12734e-19
-1.65212e-17
3.91928e-18
2.37627e-17
-1.85192e-17
-1.03267e-17
1.62232e-17
8.49187e-18
8.05911e-19
4.90124e-18
3.60608e-18
1.94766e-18
1.92133e-18
2.91758e-19
-1.78495e-18
-6.82802e-18
-1.22266e-17
-9.94645e-18
-3.67867e-18
-3.98206e-19
-8.94124e-19
1.1331e-18
1.18196e-18
2.82805e-20
-1.73636e-18
-6.57592e-19
-6.40674e-18
-1.37587e-17
-2.63944e-17
-3.62756e-17
-3.85881e-17
-2.53357e-17
-7.2628e-18
-2.19743e-17
2.95232e-19
2.56164e-19
1.5725e-19
1.55725e-19
2.07311e-19
2.92292e-19
3.88536e-19
3.99536e-19
3.94144e-19
3.26819e-19
2.36326e-19
2.74919e-19
2.72861e-19
2.24801e-19
2.48164e-19
2.55312e-19
3.00396e-19
2.87567e-19
3.49166e-19
3.81141e-19
3.71099e-19
3.31899e-19
3.18268e-19
2.87341e-19
2.3969e-19
2.0381e-19
1.79408e-19
1.83452e-19
1.89828e-19
1.88395e-19
2.34833e-19
2.73917e-19
2.87876e-19
3.03483e-19
2.965e-19
2.92999e-19
2.42319e-19
2.95567e-19
2.66573e-19
2.16849e-19
5.53276e-19
1.04685e-18
6.22789e-18
2.87253e-18
3.86388e-17
-6.99019e-18
2.35219e-18
1.89699e-17
-3.97699e-18
2.06945e-17
3.92164e-18
5.10372e-18
-5.66849e-18
8.36698e-19
-6.29331e-18
6.76308e-17
-2.11991e-16
3.09301e-16
-2.85841e-16
1.51939e-16
3.4249e-17
-1.81246e-16
3.11027e-16
-1.02621e-16
-2.91395e-16
1.63982e-16
1.81463e-16
-6.30181e-17
-1.49539e-16
-1.01558e-16
-2.6498e-17
-1.12198e-17
-1.74805e-17
-1.25456e-17
2.4311e-17
4.92512e-17
3.72596e-17
-1.75743e-17
-3.42786e-17
-1.86977e-17
-7.52162e-18
1.17645e-17
1.48275e-17
6.34326e-18
4.98467e-18
7.91436e-20
6.89438e-18
1.11311e-17
-2.69472e-17
4.7077e-18
2.16939e-17
-1.61937e-17
-2.1127e-17
-2.36555e-18
-1.15995e-18
-6.33901e-18
-8.51834e-18
-9.57476e-18
-1.08919e-17
-1.0465e-17
-6.54039e-18
-1.29099e-18
3.8613e-18
4.87881e-18
2.27033e-18
2.30835e-18
2.30358e-18
-1.98353e-18
-2.00348e-18
4.26007e-19
1.55643e-18
-2.87869e-18
-1.36599e-17
-2.69176e-17
-3.51577e-17
-3.55218e-17
-2.1768e-17
-7.16164e-19
-7.68389e-18
1.26664e-19
2.60679e-19
2.93758e-19
2.85349e-19
2.30648e-19
2.23014e-19
2.03025e-19
2.12271e-19
2.42377e-19
2.56799e-19
2.80815e-19
3.1558e-19
3.32065e-19
3.34794e-19
3.12922e-19
3.03115e-19
2.93438e-19
3.02632e-19
2.51773e-19
2.11016e-19
2.03148e-19
2.05818e-19
2.07985e-19
2.25592e-19
2.41618e-19
2.78643e-19
3.01073e-19
2.92529e-19
2.58617e-19
2.46624e-19
2.3999e-19
1.94112e-19
1.64227e-19
1.60588e-19
1.56236e-19
1.76054e-19
1.63165e-19
1.87039e-19
1.79449e-19
2.44432e-19
9.89445e-19
6.23923e-19
6.48575e-18
7.90485e-18
2.78604e-17
-2.54304e-17
1.13413e-17
4.88382e-17
-5.99653e-18
5.16794e-17
-6.03768e-17
2.56042e-17
-3.50722e-17
1.88138e-17
9.66635e-17
-2.36565e-16
2.61009e-16
-1.62613e-16
-1.72526e-16
6.26181e-16
-1.67404e-16
-6.17895e-16
2.12033e-16
2.46938e-16
2.2093e-17
3.72736e-17
-8.04127e-17
-1.42289e-16
-2.80749e-17
1.60488e-16
1.24876e-16
4.39291e-17
-1.57626e-17
-2.00426e-17
-3.12054e-17
-3.4237e-17
-2.42091e-17
7.76915e-18
1.15049e-17
-4.11467e-18
-1.27843e-17
2.97384e-18
1.2594e-17
1.26037e-17
5.12955e-18
-1.07006e-17
-1.55482e-17
-2.29523e-17
3.80837e-18
1.66842e-17
-1.60948e-17
-1.82205e-17
-2.51e-19
1.10568e-18
-2.31338e-18
-2.27355e-18
-1.29504e-18
8.3906e-19
3.28034e-18
7.19824e-18
1.11494e-17
1.02748e-17
7.41909e-18
3.09675e-18
7.93164e-19
4.7002e-19
-2.61736e-18
-1.77316e-18
1.92707e-19
6.7053e-19
1.57677e-18
-1.44709e-18
-1.36137e-17
-2.50152e-17
-3.36119e-17
-3.33123e-17
-1.95186e-17
6.47077e-18
-2.24354e-18
4.06441e-19
3.49024e-19
3.25497e-19
3.01798e-19
3.73878e-19
3.74948e-19
4.02985e-19
3.84693e-19
3.64814e-19
3.40162e-19
3.37501e-19
2.93048e-19
2.67625e-19
2.69831e-19
2.68007e-19
2.64087e-19
2.58761e-19
3.0969e-19
2.96088e-19
3.0181e-19
2.8568e-19
2.85839e-19
2.45709e-19
2.16974e-19
1.98183e-19
1.9514e-19
1.71181e-19
1.63086e-19
1.51015e-19
1.63717e-19
1.70479e-19
1.62674e-19
1.94689e-19
2.00369e-19
1.82449e-19
1.74414e-19
1.70008e-19
1.64654e-19
1.70325e-19
1.80579e-19
9.92632e-19
5.89548e-19
4.63568e-18
4.05162e-18
2.85963e-17
-3.75265e-17
8.80158e-17
3.47783e-17
-5.0352e-17
3.43595e-17
-8.86941e-17
1.70341e-16
-2.83959e-16
3.27363e-16
-1.86359e-16
-2.72361e-16
4.13079e-16
-1.33017e-16
-8.11815e-17
8.97698e-17
-4.77207e-16
3.76851e-16
5.61127e-16
-3.52864e-16
-2.92633e-16
1.35313e-16
1.26532e-16
-3.13293e-17
6.0493e-18
6.24222e-17
7.75156e-18
-3.25664e-17
-6.23982e-17
-4.47328e-17
6.74627e-18
1.57622e-17
6.14144e-18
-1.31822e-19
-6.30709e-18
-1.59609e-17
-9.20639e-18
3.85066e-18
8.72078e-18
4.77104e-18
-4.34692e-18
-1.00103e-17
-1.02044e-17
-1.77075e-18
4.27093e-19
-1.63706e-17
-8.09847e-18
8.89552e-18
6.24804e-18
-4.09969e-19
3.33841e-18
8.69368e-18
1.25672e-17
1.45975e-17
1.47298e-17
1.34611e-17
9.98993e-18
4.37824e-18
4.75376e-19
-5.41063e-19
-2.75397e-18
-3.72766e-18
-2.23405e-18
1.13876e-18
2.05929e-18
-2.50442e-20
-6.7569e-19
-3.30261e-18
-1.07542e-17
-2.56193e-17
-3.27004e-17
-3.19057e-17
-1.76411e-17
7.75601e-18
1.25862e-17
2.1463e-19
2.76731e-19
2.96324e-19
2.96006e-19
3.63097e-19
3.53809e-19
3.15467e-19
3.11382e-19
3.08424e-19
3.16161e-19
3.07054e-19
3.33523e-19
3.35099e-19
3.08719e-19
2.80517e-19
2.72302e-19
2.52524e-19
2.38973e-19
2.09286e-19
1.85841e-19
1.92343e-19
1.77506e-19
1.49681e-19
1.67879e-19
1.68533e-19
1.49915e-19
1.42498e-19
1.49878e-19
1.55397e-19
1.71579e-19
1.2601e-19
1.4281e-19
1.38038e-19
1.21484e-19
1.23798e-19
1.31e-19
1.12534e-19
1.39149e-19
1.61696e-19
-1.26417e-20
2.01483e-18
-3.23085e-19
4.53186e-18
3.48596e-18
2.1297e-17
-1.21966e-17
8.69553e-17
-5.88281e-17
3.0016e-17
2.51771e-16
-2.46811e-16
2.1257e-16
-3.93103e-16
-2.37223e-16
6.36076e-16
-1.1654e-16
-5.65022e-16
1.84341e-16
4.94291e-16
-2.73328e-16
-1.98318e-16
4.28867e-16
-2.48834e-17
-3.81756e-16
3.46822e-17
2.10165e-16
-8.0477e-18
-1.03425e-16
-2.42088e-17
2.91231e-17
-6.19933e-18
-4.90803e-17
-4.38449e-17
-1.12446e-17
3.96142e-17
3.23991e-17
7.97268e-18
-1.63806e-17
-2.85306e-17
-1.5288e-18
9.91652e-18
5.25277e-18
-5.81462e-19
-3.84566e-18
-2.70463e-18
2.81391e-18
6.31507e-18
2.55297e-18
-1.20439e-17
-9.4219e-18
4.85422e-18
2.57045e-18
-3.64171e-18
-2.24412e-18
4.04837e-18
7.93854e-18
8.29767e-18
8.90227e-18
4.1363e-18
-1.64439e-19
-3.43912e-18
-3.6824e-18
-2.87525e-18
-3.44931e-18
-3.20728e-18
-1.92099e-18
1.53288e-18
1.30644e-18
-6.83693e-19
-8.80697e-19
1.16584e-18
-3.47304e-18
-1.2148e-17
-2.56657e-17
-2.81875e-17
-2.96011e-17
-1.62027e-17
1.1734e-17
9.30159e-18
5.02584e-19
4.56109e-19
4.64345e-19
4.14917e-19
4.07729e-19
4.16385e-19
3.20919e-19
2.9033e-19
3.11534e-19
3.40004e-19
3.42699e-19
3.16259e-19
2.45881e-19
2.69293e-19
2.58289e-19
2.28793e-19
2.01975e-19
1.36873e-19
1.72738e-19
1.62825e-19
1.14561e-19
1.02433e-19
1.39644e-19
9.69012e-20
9.19291e-20
9.67968e-20
1.10293e-19
9.83633e-20
1.16163e-19
9.5846e-20
1.00554e-19
1.30493e-19
1.10693e-19
1.28138e-19
9.77038e-20
1.04505e-19
1.05892e-19
7.61126e-20
2.43079e-19
-6.48937e-19
3.89819e-18
-1.16248e-18
9.48133e-18
-1.77384e-18
3.22864e-17
-4.40783e-17
1.8804e-16
-2.77318e-16
8.80092e-16
-8.0688e-18
-1.28778e-15
1.12991e-15
-1.11527e-16
-8.49196e-16
3.71311e-16
3.73078e-17
-1.65641e-16
6.69301e-17
-4.77256e-17
-1.47525e-16
1.02093e-16
1.39175e-16
-2.74851e-16
-1.15798e-16
2.3099e-16
1.28333e-16
-8.27069e-17
-7.57866e-17
2.62304e-17
4.73296e-17
-1.5079e-17
-5.54769e-17
-1.72172e-17
1.23532e-17
3.98871e-17
1.8264e-17
-1.43557e-17
-3.07042e-17
-1.27322e-17
1.70208e-17
1.00193e-17
-3.12941e-18
-9.49866e-18
-8.30677e-18
-7.08097e-19
5.81743e-18
6.40386e-18
7.19663e-20
2.49936e-19
5.49281e-18
-7.25075e-19
-8.2136e-18
-6.69771e-18
-4.91481e-18
-3.19231e-18
-2.46504e-18
-3.86128e-18
-5.48174e-18
-9.05782e-18
-8.53451e-18
-6.74425e-18
-4.29529e-18
-2.67038e-18
-1.57898e-18
-1.3429e-21
7.49394e-19
7.32688e-19
-8.30088e-19
-4.3745e-18
-2.68874e-18
3.85696e-19
-2.71838e-18
-1.29746e-17
-2.60964e-17
-2.84875e-17
-2.85654e-17
-1.58064e-17
1.25335e-17
1.06845e-17
2.16656e-19
2.67615e-19
3.81235e-19
4.65261e-19
3.94825e-19
2.59901e-19