/*--------------------------------*- C++ -*----------------------------------*\
| =========                 |                                                 |
| \\      /  F ield         | OpenFOAM: The Open Source CFD Toolbox           |
|  \\    /   O peration     | Version:  2.2.x                                 |
|   \\  /    A nd           | Web:      www.OpenFOAM.org                      |
|    \\/     M anipulation  |                                                 |
\*---------------------------------------------------------------------------*/
FoamFile
{
    version     2.0;
    format      ascii;
    class       volScalarField;
    location    "2.3";
    object      By;
}
// * * * * * * * * * * * * * * * * * * * * * * * * * * * * * * * * * * * * * //

dimensions      [1 0 -2 0 0 -1 0];

internalField   nonuniform List<scalar> 
14161
(
-4.73482e-06
-8.79697e-07
-1.27255e-06
-9.22802e-07
-1.02768e-06
-1.29499e-06
5.98006e-08
-1.12574e-06
-2.00701e-06
-9.43087e-07
1.44694e-06
4.45615e-08
-6.15577e-06
1.35145e-06
1.13582e-05
-5.02661e-06
-1.44591e-05
-5.42008e-06
2.71626e-05
4.033e-06
-1.79435e-05
-1.22012e-05
5.579e-06
1.78189e-05
2.9138e-05
-5.83611e-06
-2.40145e-05
-5.7154e-06
2.00941e-05
3.26053e-05
3.71383e-05
4.51996e-05
4.69334e-05
4.85699e-05
4.29957e-05
8.43523e-05
0.000117097
0.000164834
0.000193105
0.000269377
0.000197308
0.000390494
5.28069e-05
0.000553766
0.000936744
0.0109973
0.00666418
0.000281482
-0.0058584
-0.00940994
-0.0139952
-0.0153128
-0.014104
-0.0135222
-0.0123143
-0.0109971
-0.0095732
-0.00866271
-0.00753466
-0.00644673
-0.00590181
-0.00524363
-0.00435319
-0.00351166
-0.00325892
-0.00286614
-0.00246329
-0.00215576
-0.00193523
-0.00178158
-0.00149218
-0.00135156
-0.00156494
-0.0018226
-0.00218368
-0.00226942
-0.00201602
-0.00183104
-0.00201797
-0.00179299
-0.00159849
-0.00200657
-0.00146671
-0.0013526
-0.00157525
-0.00161014
-0.00152207
-0.00111331
-0.0010691
-0.00152319
-0.00120515
-0.00109766
-0.00159207
-0.00123546
-0.00102452
-0.00127364
-0.0012306
-0.00157577
-0.00137072
-0.00143736
-0.00146226
-0.00155774
-0.00183722
-0.00120443
-0.000639326
0.00177708
0.00579359
0.0151778
0.0378923
0.0622747
0.0865979
0.0959033
0.083666
0.07232
0.064032
0.0618263
0.0602302
0.0578194
0.0552423
-8.38207e-06
-2.51566e-06
-3.01114e-06
-2.48798e-06
-2.90506e-06
-3.2501e-06
-5.63716e-07
-2.30272e-06
-4.44937e-06
-4.08373e-06
4.74617e-06
1.58714e-06
-2.11513e-05
3.28345e-06
3.1565e-05
-1.31906e-05
-3.83661e-05
-4.72897e-06
5.86624e-05
1.56065e-05
-5.09988e-05
-4.14595e-05
6.96816e-06
6.27025e-05
6.85473e-05
-8.28372e-06
-6.59743e-05
-2.16105e-05
3.34221e-05
8.36399e-05
9.80168e-05
0.000128196
0.000123743
0.000125831
0.000154573
0.000254358
0.000343718
0.000429109
0.000456707
0.000621862
0.000741309
0.00100156
0.000697287
0.00127853
0.00458305
0.0294771
0.0189338
-0.000405638
-0.01972
-0.0299391
-0.0407232
-0.0453156
-0.0438418
-0.0416354
-0.038077
-0.0347229
-0.0312358
-0.0289556
-0.0255819
-0.0220289
-0.0203752
-0.017792
-0.0153892
-0.0132045
-0.0118315
-0.0104537
-0.00928804
-0.008322
-0.00765312
-0.00701897
-0.00640732
-0.00554255
-0.00530498
-0.00520477
-0.00554092
-0.00522523
-0.00524307
-0.00508911
-0.00617627
-0.00551818
-0.00483147
-0.00618658
-0.00508817
-0.00460519
-0.00548774
-0.00545721
-0.0049977
-0.00414361
-0.00389153
-0.00513471
-0.00438977
-0.00395012
-0.00535987
-0.0043623
-0.00381309
-0.00453034
-0.00437788
-0.00533673
-0.00466278
-0.00489291
-0.00496569
-0.00514691
-0.00406994
-0.00173034
-0.000523724
0.00572098
0.0163881
0.0399018
0.100785
0.188169
0.25379
0.256477
0.225244
0.199028
0.178693
0.168806
0.160009
0.146299
0.138425
-1.24946e-05
-5.05172e-06
-5.74821e-06
-3.95857e-06
-4.7007e-06
-5.10593e-06
-1.55314e-06
-4.16787e-06
-5.0025e-06
-8.26887e-06
8.38086e-06
2.74711e-06
-3.64408e-05
6.49129e-06
4.63296e-05
-2.02789e-05
-6.75176e-05
9.30303e-06
8.36997e-05
2.2944e-05
-8.40297e-05
-6.54842e-05
2.73951e-05
0.000121667
9.71094e-05
-1.99277e-05
-0.000105547
-2.42436e-05
5.86549e-05
0.000138156
0.000168968
0.000206354
0.000206394
0.000241149
0.000320056
0.000410566
0.000538881
0.000652884
0.000770535
0.000998494
0.00141848
0.00171597
0.00154747
0.00276016
0.00976946
0.0511879
0.0337203
-0.00213744
-0.0374988
-0.0578454
-0.0728644
-0.0776881
-0.073796
-0.0690063
-0.0626369
-0.057269
-0.052042
-0.0490791
-0.0435796
-0.0378832
-0.0351
-0.0306855
-0.0267784
-0.0230195
-0.0200811
-0.0175589
-0.0155511
-0.0137835
-0.0124773
-0.0111436
-0.0104143
-0.00933018
-0.00939185
-0.0095471
-0.0100498
-0.00906845
-0.00860862
-0.00826974
-0.00943997
-0.00855251
-0.00754161
-0.00883623
-0.0074769
-0.0067568
-0.0083066
-0.00829497
-0.0071779
-0.00603624
-0.00568249
-0.00758527
-0.00660844
-0.0060707
-0.00798532
-0.00674123
-0.00558277
-0.00684591
-0.00672067
-0.00823973
-0.00693575
-0.00739241
-0.0071471
-0.00732317
-0.00524075
0.000355291
0.00396781
0.0188976
0.0523569
0.107765
0.225154
0.337093
0.382349
0.371986
0.332155
0.300719
0.275774
0.263517
0.253256
0.230291
0.222997
-1.6797e-05
-7.06641e-06
-8.19369e-06
-5.43144e-06
-6.14529e-06
-6.69971e-06
-3.22761e-06
-5.08588e-06
-6.11865e-06
-1.29323e-05
1.14324e-05
3.10975e-06
-4.41328e-05
8.59122e-06
5.73088e-05
-2.30627e-05
-8.73376e-05
2.01727e-05
0.000108815
2.75273e-05
-0.000118233
-9.38187e-05
5.11974e-05
0.000162273
0.000122127
-2.75837e-05
-0.000123476
-3.45193e-05
7.6088e-05
0.000179797
0.00023865
0.0002893
0.000287583
0.000353135
0.000422224
0.000522954
0.000695795
0.000905501
0.00116658
0.00155147
0.00219679
0.00261442
0.00288231
0.00447261
0.0166745
0.0782998
0.0468182
-0.00880819
-0.0626491
-0.0923844
-0.111229
-0.116861
-0.109934
-0.101658
-0.091149
-0.0811138
-0.0718917
-0.065784
-0.0570818
-0.049285
-0.0449669
-0.0390742
-0.0345164
-0.0291564
-0.0251409
-0.0219417
-0.0191245
-0.0169852
-0.0157116
-0.0147889
-0.0142883
-0.0132216
-0.0126276
-0.0124667
-0.0129303
-0.0120077
-0.0113551
-0.011308
-0.0126241
-0.0119511
-0.0108378
-0.0118981
-0.010569
-0.0100994
-0.011982
-0.0117459
-0.010286
-0.00903696
-0.00878857
-0.0107289
-0.00989109
-0.00926079
-0.0110757
-0.0100748
-0.00892623
-0.0103197
-0.0103304
-0.0115279
-0.00967467
-0.0103671
-0.00882288
-0.00703826
-0.00353126
0.00734158
0.0212501
0.0521336
0.121616
0.236423
0.378226
0.468674
0.496103
0.465959
0.415524
0.379804
0.353779
0.339957
0.332535
0.302603
0.29733
-1.96866e-05
-9.1629e-06
-1.01716e-05
-7.56394e-06
-8.27911e-06
-8.64067e-06
-5.5605e-06
-5.54392e-06
-7.80734e-06
-1.75382e-05
1.33085e-05
2.19268e-06
-4.87132e-05
9.54252e-06
6.29225e-05
-3.21421e-05
-9.21909e-05
2.27195e-05
0.000118828
2.46318e-05
-0.000132665
-0.000100453
6.82371e-05
0.000191849
0.000113399
-3.87235e-05
-0.000101644
-2.40584e-05
8.24636e-05
0.00022352
0.000322546
0.000358097
0.000386716
0.00045384
0.000546418
0.000671267
0.000892488
0.00121015
0.00166622
0.00211121
0.00291212
0.00339434
0.0046197
0.00671816
0.0249364
0.11047
0.0607596
-0.0212969
-0.0963399
-0.134693
-0.152419
-0.156928
-0.148089
-0.136301
-0.123286
-0.110433
-0.0990528
-0.0886581
-0.0762088
-0.0662308
-0.0584619
-0.0499755
-0.0433648
-0.0368936
-0.0318985
-0.0271918
-0.0234745
-0.0209982
-0.0192885
-0.0180789
-0.0174688
-0.0164903
-0.0158794
-0.0161109
-0.0168247
-0.0160696
-0.015008
-0.0147427
-0.0159334
-0.0150053
-0.0137311
-0.0145252
-0.0129856
-0.0126207
-0.0147612
-0.0143153
-0.0126568
-0.0112153
-0.0109533
-0.0129965
-0.012156
-0.0116268
-0.0132388
-0.0126474
-0.0114157
-0.0121138
-0.0132483
-0.0133123
-0.010324
-0.0105112
-0.00785216
-0.00253974
0.00591399
0.0275118
0.067926
0.13358
0.266359
0.407695
0.51364
0.56575
0.56851
0.530717
0.479668
0.443827
0.418071
0.403288
0.400644
0.366801
0.363894
-2.24301e-05
-1.10239e-05
-1.21693e-05
-9.53986e-06
-1.0764e-05
-1.07311e-05
-7.46647e-06
-5.98538e-06
-9.30345e-06
-1.95415e-05
1.20392e-05
7.43262e-08
-4.77886e-05
9.36913e-06
5.8179e-05
-3.30901e-05
-8.58561e-05
2.32466e-05
0.000114315
1.16177e-05
-0.000119479
-8.84743e-05
7.31509e-05
0.000173541
9.47475e-05
-2.29903e-05
-4.65634e-05
3.26173e-06
9.41764e-05
0.000264792
0.000357616
0.00037438
0.000408994
0.000474752
0.000621287
0.000832433
0.00108444
0.00144064
0.00200327
0.00259369
0.00366763
0.00442037
0.00600179
0.00889271
0.0336937
0.140641
0.0702734
-0.0491456
-0.139208
-0.189676
-0.208029
-0.201591
-0.187522
-0.168377
-0.148935
-0.131374
-0.117164
-0.10275
-0.0870503
-0.0764405
-0.0654823
-0.0547275
-0.0472469
-0.0394485
-0.0339612
-0.0290079
-0.0246861
-0.0216496
-0.020016
-0.019524
-0.0192961
-0.0184955
-0.0176761
-0.0175049
-0.018541
-0.018006
-0.0165278
-0.0163047
-0.017771
-0.0173027
-0.0160507
-0.016777
-0.0156826
-0.0153322
-0.0171819
-0.0167022
-0.0157913
-0.0143899
-0.013996
-0.0155831
-0.0151907
-0.0142477
-0.0156135
-0.0151718
-0.0144659
-0.0141031
-0.014825
-0.0135044
-0.00882613
-0.00864621
-0.00254464
0.0125185
0.0332234
0.0773884
0.16489
0.292327
0.44049
0.546165
0.605705
0.631645
0.618101
0.577236
0.529998
0.494857
0.47074
0.456009
0.455913
0.424405
0.42377
-2.43587e-05
-1.31826e-05
-1.45588e-05
-1.19965e-05
-1.27235e-05
-1.16327e-05
-8.41109e-06
-7.33772e-06
-1.26335e-05
-1.99425e-05
9.62588e-06
-2.51324e-06
-4.16565e-05
7.21805e-06
4.29261e-05
-2.85527e-05
-6.85823e-05
1.87896e-05
8.14905e-05
8.79119e-06
-8.34662e-05
-6.36744e-05
6.62123e-05
0.00012873
6.19729e-05
1.42828e-05
1.30555e-05
2.60903e-05
0.000103342
0.000261247
0.000376416
0.0003907
0.000451975
0.000559226
0.000714263
0.000950822
0.00126016
0.00167404
0.00223839
0.00297427
0.00404611
0.0051874
0.00733128
0.011275
0.0411623
0.161551
0.0669127
-0.0908047
-0.191892
-0.252764
-0.265137
-0.247807
-0.2269
-0.198689
-0.174897
-0.154793
-0.138448
-0.118716
-0.101935
-0.0869048
-0.0743306
-0.0608492
-0.0524331
-0.0431612
-0.0373663
-0.0314692
-0.0265069
-0.0237627
-0.0215617
-0.0210406
-0.0210196
-0.0206443
-0.0198519
-0.0196233
-0.020824
-0.0205027
-0.0190037
-0.0185146
-0.019724
-0.0195746
-0.0182399
-0.0184852
-0.0176035
-0.0169954
-0.0182093
-0.0186296
-0.017999
-0.0164672
-0.0156363
-0.0168052
-0.0166394
-0.0159852
-0.0164205
-0.0167298
-0.0150734
-0.0129893
-0.0132108
-0.0119195
-0.00359264
0.00219518
0.0158287
0.0492222
0.100081
0.184448
0.338127
0.475567
0.578901
0.640569
0.669464
0.677304
0.654883
0.612806
0.571804
0.538442
0.516848
0.502367
0.502858
0.474913
0.475811
-2.6614e-05
-1.51867e-05
-1.69038e-05
-1.38779e-05
-1.37823e-05
-1.16707e-05
-1.0463e-05
-1.12456e-05
-1.50126e-05
-1.69191e-05
3.44257e-06
-7.42964e-06
-2.88429e-05
4.66692e-06
2.0232e-05
-2.36278e-05
-4.02047e-05
1.92795e-05
4.0836e-05
-3.17455e-06
-4.65042e-05
-1.94953e-05
5.48711e-05
7.36322e-05
4.65742e-05
4.26475e-05
5.3238e-05
7.32278e-05
0.000144634
0.000230495
0.000297083
0.000383191
0.000464692
0.000578945
0.00073862
0.00096992
0.00127991
0.00160833
0.00209494
0.00281816
0.0039424
0.00483776
0.00758895
0.0119489
0.0438233
0.155262
0.0466149
-0.164758
-0.266837
-0.316899
-0.311395
-0.284794
-0.257645
-0.223928
-0.193428
-0.170414
-0.149141
-0.126405
-0.109226
-0.0907216
-0.0774106
-0.063966
-0.0539928
-0.0449182
-0.0373092
-0.0316737
-0.0265354
-0.0239938
-0.0221155
-0.0219333
-0.0218028
-0.0216509
-0.0209499
-0.0209692
-0.0219794
-0.0216128
-0.0202356
-0.0200702
-0.0212901
-0.0212175
-0.0202771
-0.0202574
-0.0195354
-0.0187666
-0.0195302
-0.019867
-0.019289
-0.0182453
-0.0170077
-0.017137
-0.0175967
-0.0165992
-0.0151092
-0.0149265
-0.0133869
-0.00971725
-0.00769927
-0.0036996
0.0110005
0.0306284
0.0608755
0.127757
0.233948
0.366564
0.512398
0.60854
0.668481
0.701141
0.715846
0.706954
0.681259
0.641603
0.604752
0.573485
0.555026
0.541177
0.542528
0.51829
0.52094
-2.92764e-05
-1.72018e-05
-1.87008e-05
-1.50275e-05
-1.51333e-05
-1.34692e-05
-1.36677e-05
-1.53733e-05
-1.5662e-05
-1.34587e-05
-4.70973e-06
-1.5313e-05
-9.70547e-06
1.75537e-06
-8.2089e-06
-1.80992e-05
2.51359e-06
1.02812e-05
-7.05959e-06
-2.56709e-05
4.3095e-07
3.63196e-05
3.1366e-05
7.20637e-06
2.49236e-05
5.01749e-05
9.75781e-05
0.000149523
0.000153226
0.000157076
0.000178978
0.000323282
0.000490772
0.000629339
0.000797616
0.000989646
0.00122009
0.001572
0.00203243
0.00244311
0.00295306
0.00387929
0.00539576
0.00956182
0.027133
0.0873566
-0.00755632
-0.246251
-0.338668
-0.365439
-0.353446
-0.322289
-0.286447
-0.24594
-0.209951
-0.183037
-0.157826
-0.132607
-0.112111
-0.0935027
-0.0777538
-0.0652702
-0.0540761
-0.0454669
-0.0366718
-0.0304639
-0.0263132
-0.0231427
-0.0222986
-0.0221764
-0.0224232
-0.0224832
-0.0222743
-0.0225039
-0.0232498
-0.0229795
-0.0219059
-0.0213375
-0.0220212
-0.0220196
-0.0211728
-0.0208049
-0.020087
-0.0189393
-0.0196943
-0.0201318
-0.0191014
-0.018484
-0.0168242
-0.0151044
-0.0155525
-0.0147348
-0.0119858
-0.0108333
-0.00836865
-0.000492264
0.0090534
0.0183034
0.0459631
0.0981418
0.161438
0.28546
0.421989
0.547105
0.63706
0.693875
0.727884
0.744986
0.746116
0.730442
0.702829
0.667792
0.634156
0.605735
0.589382
0.576036
0.577861
0.55737
0.56121
-3.01697e-05
-1.84544e-05
-1.98462e-05
-1.69991e-05
-1.79668e-05
-1.57412e-05
-1.54559e-05
-1.62211e-05
-1.73062e-05
-8.44163e-06
-1.45272e-05
-2.21442e-05
9.17142e-06
-3.96707e-06
-3.99725e-05
-1.08194e-05
4.21067e-05
4.34956e-07
-5.90348e-05
-4.06484e-05
5.3373e-05
8.46992e-05
8.92563e-06
-5.54513e-05
-5.97155e-06
8.02484e-05
0.000168346
0.000228258
0.000195744
0.00010591
9.8205e-05
0.000228174
0.000425452
0.000625334
0.00074964
0.000890886
0.000992005
0.00106949
0.00118085
0.00135992
0.00137568
0.00151164
0.0011422
0.00284408
-0.0017563
-0.00534835
-0.188801
-0.354568
-0.368863
-0.368708
-0.361772
-0.338184
-0.305246
-0.26034
-0.222511
-0.190518
-0.160678
-0.134559
-0.111303
-0.09304
-0.0752965
-0.0639264
-0.0506435
-0.0420865
-0.0335148
-0.0280246
-0.0250882
-0.0229464
-0.0224599
-0.0222663
-0.0224428
-0.0227191
-0.0229131
-0.0228765
-0.0231579
-0.0229691
-0.0224745
-0.0216145
-0.0221296
-0.0221727
-0.0213998
-0.0209708
-0.0201055
-0.0184038
-0.0188721
-0.0187671
-0.0168586
-0.0161078
-0.0141473
-0.010918
-0.0115996
-0.010339
-0.00442398
0.00135227
0.00595237
0.0209533
0.0467553
0.0731525
0.125854
0.230802
0.34395
0.472232
0.586258
0.662129
0.715753
0.748805
0.767383
0.774005
0.765601
0.746178
0.720478
0.688114
0.658239
0.633272
0.6192
0.606393
0.608519
0.590767
0.594655
-3.24724e-05
-2.03271e-05
-2.19738e-05
-1.98128e-05
-1.99429e-05
-1.70017e-05
-1.71556e-05
-1.93409e-05
-1.94908e-05
-4.17007e-06
-2.55253e-05
-2.61857e-05
2.51621e-05
-8.66753e-06
-6.49115e-05
4.05599e-06
6.54752e-05
-6.21475e-06
-9.79343e-05
-3.38688e-05
9.9241e-05
0.000105531
-1.21025e-05
-0.000108131
-2.7188e-05
0.000118804
0.000238387
0.000257858
0.00017267
5.30981e-05
4.65779e-05
0.000150931
0.000331442
0.000530279
0.000655134
0.000704641
0.000744587
0.00065296
0.000593292
0.000472889
0.000200655
-6.77578e-05
-0.00112172
-0.00417752
-0.0230356
-0.153975
-0.505099
-0.48042
-0.389606
-0.362822
-0.346548
-0.326619
-0.304726
-0.268303
-0.232494
-0.195889
-0.161091
-0.133302
-0.107899
-0.08966
-0.0705749
-0.0591042
-0.0462622
-0.0379661
-0.031841
-0.025867
-0.0235856
-0.0220926
-0.0221822
-0.0223091
-0.0226801
-0.0229811
-0.023142
-0.0229502
-0.0227915
-0.0228289
-0.0222533
-0.0211359
-0.0213551
-0.0210758
-0.0197859
-0.0191179
-0.0180478
-0.0160351
-0.0163721
-0.0158969
-0.0124295
-0.0116406
-0.00924972
-0.00380624
-0.000369843
0.00209315
0.0121925
0.0288653
0.0434119
0.0717727
0.130241
0.190076
0.290629
0.416429
0.529481
0.621029
0.687513
0.737195
0.766922
0.783874
0.793917
0.792499
0.780804
0.761342
0.737833
0.707297
0.680619
0.658065
0.645576
0.633489
0.63573
0.620717
0.624819
-3.33731e-05
-2.15451e-05
-2.41159e-05
-2.12394e-05
-2.06625e-05
-1.95988e-05
-1.98867e-05
-2.12055e-05
-2.13785e-05
-2.02092e-06
-3.66744e-05
-2.5143e-05
3.17521e-05
-1.98909e-05
-8.00624e-05
1.77884e-05
7.54909e-05
-2.37433e-05
-0.000122433
-2.11507e-05
0.000127382
0.000108116
-4.31884e-05
-0.000130573
-3.22636e-05
0.000144703
0.000282074
0.000233267
0.000116807
5.64958e-05
5.83665e-05
9.35435e-05
0.000208632
0.00039611
0.000537165
0.000499465
0.000393025
0.000277197
2.84616e-05
-0.000355194
-0.000628345
-0.00115124
-0.00294621
-0.0104456
-0.0537916
-0.330975
-0.737399
-0.614139
-0.449669
-0.393581
-0.358495
-0.335665
-0.309859
-0.272884
-0.238278
-0.199115
-0.162287
-0.131846
-0.104212
-0.0846344
-0.0654211
-0.0537478
-0.0424654
-0.0325742
-0.0274941
-0.0221661
-0.0206717
-0.02053
-0.0208795
-0.0214
-0.021676
-0.0218041
-0.0219157
-0.0216603
-0.0211148
-0.0209852
-0.0202119
-0.0187611
-0.0188579
-0.0182717
-0.0163373
-0.0160072
-0.0148118
-0.0118891
-0.0114545
-0.0104272
-0.00464488
0.000313512
0.00247357
0.0131286
0.0249733
0.0341793
0.0528473
0.0923676
0.128113
0.184924
0.287553
0.377671
0.479933
0.583352
0.655081
0.710631
0.75276
0.781183
0.798779
0.807919
0.810409
0.80376
0.790636
0.773183
0.751242
0.723885
0.700689
0.680451
0.669293
0.657742
0.659721
0.646598
0.650162
-3.53468e-05
-2.34614e-05
-2.58405e-05
-2.26733e-05
-2.24757e-05
-2.23978e-05
-2.04304e-05
-2.58439e-05
-2.1285e-05
-1.79585e-06
-4.30805e-05
-2.07799e-05
2.7639e-05
-3.12322e-05
-7.44888e-05
1.94656e-05
6.2561e-05
-3.56793e-05
-0.000104152
-1.2053e-05
0.000113119
8.28036e-05
-4.04373e-05
-8.44495e-05
-1.65445e-05
0.00013853
0.000235605
0.000163391
9.56817e-05
6.73426e-05
7.48605e-05
9.05185e-05
0.000169023
0.000250859
0.000299575
0.000258631
0.00011175
-3.74829e-05
-0.000300666
-0.00051174
-0.000697214
-0.00105195
-0.00333384
-0.0165528
-0.116803
-0.569545
-0.78362
-0.71253
-0.595628
-0.48185
-0.404029
-0.359269
-0.321505
-0.279284
-0.24336
-0.201894
-0.160859
-0.129721
-0.100135
-0.079411
-0.0613957
-0.0459843
-0.0357495
-0.0276877
-0.0226461
-0.0184672
-0.0178359
-0.0181613
-0.0188635
-0.0197033
-0.0197889
-0.0200914
-0.0202782
-0.0196145
-0.0184438
-0.0185535
-0.017571
-0.0154059
-0.0160506
-0.0151718
-0.0117064
-0.00958084
-0.00819789
-0.00257802
0.0020922
0.00370471
0.0144506
0.0285284
0.0345777
0.0526216
0.0829631
0.106851
0.144446
0.218644
0.294773
0.364414
0.467438
0.556702
0.623657
0.684281
0.733188
0.767016
0.791535
0.808901
0.818453
0.823573
0.821028
0.812682
0.800246
0.784117
0.763971
0.740113
0.719343
0.700778
0.690622
0.679495
0.680925
0.669492
0.672831
-3.67487e-05
-2.48418e-05
-2.73449e-05
-2.39863e-05
-2.44136e-05
-2.36332e-05
-2.29488e-05
-2.97049e-05
-1.84269e-05
-8.3695e-06
-4.22466e-05
-1.47979e-05
1.56041e-05
-3.82164e-05
-5.51076e-05
2.08382e-05
3.42527e-05
-4.21945e-05
-6.58845e-05
1.24434e-05
7.40268e-05
3.23648e-05
-3.14835e-05
-3.15761e-05
2.59213e-05
0.000116085
0.000135757
0.00010964
9.33885e-05
8.9178e-05
0.000103475
0.000123938
0.000119932
8.3767e-05
5.38257e-05
4.77626e-05
-6.89489e-05
-0.000221859
-0.000451942
-0.000783906
-0.00118359
-0.00218191
-0.00652152
-0.0330992
-0.224948
-0.715016
-0.81003
-0.776133
-0.721591
-0.61636
-0.488723
-0.397178
-0.338646
-0.28921
-0.250357
-0.203869
-0.16201
-0.127958
-0.0960631
-0.0747739
-0.0591401
-0.0418007
-0.0313826
-0.0246752
-0.0191767
-0.0170333
-0.0171746
-0.0175028
-0.018844
-0.0194022
-0.018968
-0.0187413
-0.0185125
-0.0170785
-0.0148101
-0.0150693
-0.0128421
-0.0088913
-0.00766056
-0.00643971
0.000194089
0.00784622
0.0101932
0.0196618
0.0342435
0.0404508
0.0578765
0.0897577
0.107765
0.140466
0.200712
0.256012
0.312006
0.395342
0.473958
0.54242
0.609907
0.663886
0.711889
0.749728
0.77856
0.800409
0.815645
0.825575
0.831808
0.832079
0.827537
0.818775
0.807741
0.792552
0.774894
0.754718
0.736429
0.71951
0.7101
0.699256
0.699943
0.689635
0.692264
-3.81943e-05
-2.63204e-05
-2.872e-05
-2.56598e-05
-2.66507e-05
-2.58667e-05
-2.83775e-05
-2.78417e-05
-1.70276e-05
-2.31875e-05
-3.47585e-05
-9.13224e-06
-5.30706e-06
-4.20504e-05
-2.14523e-05
1.14789e-05
-1.29586e-05
-4.23911e-05
-6.8939e-06
2.51655e-05
1.21313e-05
-3.04042e-05
5.72078e-07
5.32988e-05
7.47945e-05
5.2043e-05
2.9809e-06
5.22618e-05
0.000115217
0.000139189
0.000166427
0.000168662
8.63989e-05
-6.31059e-05
-0.000166982
-0.000166762
-0.000139397
-0.000193027
-0.000356316
-0.000565134
-0.000819523
-0.00193288
-0.00847454
-0.0569626
-0.399537
-0.8003
-0.820272
-0.800655
-0.768438
-0.708853
-0.614791
-0.492009
-0.395532
-0.322053
-0.268355
-0.207434
-0.170134
-0.131356
-0.0983226
-0.0730626
-0.0571174
-0.0412884
-0.0305309
-0.0233195
-0.0179448
-0.0175719
-0.0171576
-0.0166133
-0.0176763
-0.0177022
-0.016325
-0.0144173
-0.0139385
-0.0112018
-0.00666413
-0.00448262
-0.00189167
0.00623579
0.013994
0.016576
0.0277301
0.0462651
0.0549818
0.0718923
0.103172
0.123697
0.15635
0.216521
0.255242
0.304301
0.370418
0.427301
0.488262
0.55547
0.611556
0.645935
0.696627
0.734498
0.763116
0.787925
0.806624
0.820396
0.83019
0.836178
0.839244
0.837734
0.832643
0.8251
0.814755
0.800972
0.785765
0.768231
0.752078
0.736703
0.7279
0.71723
0.716949
0.707514
0.709796
-3.95342e-05
-2.7708e-05
-2.99792e-05
-2.79581e-05
-2.86758e-05
-2.85556e-05
-2.98247e-05
-2.43183e-05
-2.31448e-05
-3.6021e-05
-2.21423e-05
-6.42747e-06
-3.72889e-05
-3.58149e-05
1.48279e-05
-5.67515e-06
-6.53792e-05
-2.48326e-05
5.49439e-05
2.81364e-05
-6.51068e-05
-6.55946e-05
5.0462e-05
0.000129745
0.000109078
-1.99305e-05
-8.8378e-05
1.42037e-05
0.000145632
0.00020687
0.000215744
0.000145054
1.07281e-05
-0.000174702
-0.000286967
-0.000277432
-0.000188123
-0.000159933
-8.63287e-05
-0.000123074
-0.000171784
-0.00133406
-0.0115896
-0.1036
-0.573343
-0.814094
-0.820784
-0.81064
-0.793643
-0.764383
-0.720212
-0.628164
-0.503845
-0.381399
-0.289341
-0.230913
-0.185969
-0.136055
-0.0992961
-0.0708321
-0.0542324
-0.0370793
-0.0272736
-0.0203011
-0.0146466
-0.0155267
-0.0146844
-0.0132485
-0.0131372
-0.0130666
-0.00922465
-0.00388952
-0.000643119
0.00288847
0.0115251
0.0225072
0.0266275
0.0395553
0.0605956
0.0727165
0.0899519
0.126602
0.153771
0.188219
0.23846
0.278067
0.31764
0.37968
0.425374
0.471005
0.526726
0.573168
0.610064
0.647486
0.690189
0.718335
0.747862
0.774152
0.794013
0.810626
0.823054
0.832287
0.838533
0.842404
0.843062
0.841193
0.836471
0.829849
0.820407
0.808562
0.795618
0.780656
0.766529
0.752549
0.744352
0.733807
0.732396
0.72353
0.725136
-4.07739e-05
-2.91271e-05
-3.20446e-05
-3.01685e-05
-3.04546e-05
-3.05225e-05
-3.0847e-05
-2.65418e-05
-2.93916e-05
-4.2892e-05
-1.00418e-05
-9.74413e-06
-6.47451e-05
-2.06488e-05
3.51383e-05
-3.38345e-05
-9.9452e-05
3.37352e-06
8.87044e-05
1.57983e-05
-0.000116105
-7.09163e-05
8.80803e-05
0.000171701
9.85033e-05
-5.89251e-05
-0.00012907
-1.74852e-05
0.000148317
0.000254535
0.00021076
9.16173e-05
-5.60439e-05
-0.000161109
-0.000258996
-0.000296588
-0.000206176
-0.000150428
-0.00016452
-0.000225181
-0.00064675
-0.00338062
-0.0239277
-0.187757
-0.703774
-0.833312
-0.829635
-0.820604
-0.808319
-0.790497
-0.766339
-0.716341
-0.62278
-0.47896
-0.354626
-0.269121
-0.198505
-0.149448
-0.101277
-0.072668
-0.054275
-0.0378096
-0.0253327
-0.0163816
-0.00879419
-0.0104508
-0.00846769
-0.00424588
0.000452812
0.00234174
0.00887391
0.0200334
0.0314701
0.0390236
0.0542653
0.0789474
0.0937792
0.115435
0.158543
0.191592
0.22349
0.273765
0.313472
0.353359
0.40119
0.442006
0.480363
0.526108
0.563223
0.591716
0.617318
0.65419
0.684483
0.70848
0.736434
0.758522
0.779493
0.798218
0.812246
0.823893
0.832783
0.839379
0.843609
0.845812
0.845727
0.843785
0.840068
0.834252
0.825985
0.815906
0.804624
0.791896
0.779703
0.767145
0.759694
0.749226
0.746585
0.738166
0.739459
-4.19637e-05
-3.05926e-05
-3.34969e-05
-3.12359e-05
-3.11801e-05
-3.3295e-05
-3.31278e-05
-2.89919e-05
-3.26941e-05
-4.31708e-05
-5.73539e-06
-2.24568e-05
-7.80625e-05
-3.17419e-06
3.13704e-05
-6.5938e-05
-9.83471e-05
2.8606e-05
8.22642e-05
-1.22589e-05
-0.000116233
-5.70755e-05
8.88887e-05
0.000136058
5.18833e-05
-4.4411e-05
-7.36025e-05
8.19436e-08
0.000126542
0.000187669
0.000128046
4.26001e-05
-3.11881e-05
-8.94735e-05
-0.00010555
-0.000133184
-0.000202789
-0.000269346
-0.000414362
-0.000666313
-0.00152235
-0.0063252
-0.0421449
-0.322779
-0.785497
-0.838707
-0.829381
-0.821485
-0.811502
-0.799858
-0.786726
-0.760025
-0.707387
-0.605907
-0.46395
-0.325756
-0.235132
-0.169534
-0.111273
-0.0740875
-0.0500155
-0.0294869
-0.0160775
-0.00547312
0.00511081
0.0077703
0.00983317
0.0177218
0.0320055
0.0414169
0.0537848
0.073198
0.09816
0.119384
0.14756
0.192772
0.22702
0.26114
0.308404
0.35069
0.384868
0.430162
0.46791
0.498857
0.536532
0.564523
0.585661
0.613362
0.639334
0.663101
0.68184
0.704111
0.725669
0.744841
0.765245
0.782934
0.798307
0.812469
0.82323
0.831824
0.83831
0.843103
0.84608
0.847453
0.847563
0.846074
0.843233
0.838182
0.831268
0.822661
0.812977
0.80227
0.791906
0.780772
0.773855
0.763347
0.759279
0.751102
0.751899
-4.36104e-05
-3.25045e-05
-3.54584e-05
-3.31038e-05
-3.33788e-05
-3.63098e-05
-3.38868e-05
-3.25788e-05
-3.55825e-05
-4.12018e-05
-7.71014e-06
-4.04855e-05
-7.16722e-05
6.00792e-06
1.33827e-05
-7.98213e-05
-6.8275e-05
3.90373e-05
4.32276e-05
-3.97339e-05
-6.83035e-05
5.98676e-07
5.46833e-05
3.97709e-05
1.99303e-05
1.6503e-05
3.15947e-05
3.99836e-05
4.46123e-05
3.2177e-05
5.03528e-05
4.65118e-05
3.15871e-05
1.99247e-05
1.26483e-05
-2.0995e-05
-8.40588e-05
-0.000106918
-0.000128187
-0.000148052
-0.000923209
-0.00753811
-0.0624203
-0.463547
-0.833719
-0.84319
-0.837723
-0.83134
-0.821985
-0.813312
-0.803315
-0.787381
-0.760631
-0.702209
-0.585512
-0.420198
-0.2789
-0.181293
-0.117967
-0.0677956
-0.0344412
-0.0139247
0.00631973
0.0141819
0.0315084
0.0474747
0.0565733
0.0701545
0.0990982
0.121893
0.149941
0.185132
0.225272
0.26171
0.294626
0.340852
0.378227
0.415212
0.454102
0.488881
0.518364
0.545567
0.569878
0.588885
0.611384
0.636429
0.653672
0.67113
0.688435
0.705217
0.718052
0.734989
0.751865
0.767416
0.783381
0.797747
0.810108
0.820924
0.829446
0.836266
0.841702
0.845601
0.847972
0.849068
0.849242
0.848179
0.845882
0.841637
0.835913
0.828603
0.820489
0.811724
0.803077
0.79362
0.786805
0.776506
0.771353
0.76334
0.763858
-4.51544e-05
-3.36661e-05
-3.67506e-05
-3.53805e-05
-3.63514e-05
-3.619e-05
-3.66827e-05
-3.5449e-05
-3.89622e-05
-3.74533e-05
-1.54357e-05
-5.57802e-05
-4.14853e-05
1.04743e-06
-3.60906e-05
-6.74004e-05
-9.98648e-06
1.71166e-05
-3.56391e-05
-4.05888e-05
2.13944e-05
3.27755e-05
-2.13976e-05
-4.55379e-05
2.36268e-05
8.79785e-05
0.000111187
6.63671e-05
-4.46166e-05
-8.55644e-05
-7.66036e-06
9.58063e-05
0.000150282
0.000121308
7.79947e-05
7.15624e-05
3.387e-06
4.03712e-06
6.68538e-05
0.000133177
-0.00096331
-0.0120132
-0.107525
-0.602664
-0.835434
-0.844169
-0.842757
-0.838371
-0.831611
-0.824928
-0.815936
-0.804625
-0.785696
-0.751835
-0.671688
-0.537177
-0.34338
-0.203911
-0.121812
-0.0554202
-0.00960511
0.0212702
0.0545336
0.0676354
0.0912194
0.128003
0.151875
0.178988
0.222887
0.257873
0.289025
0.327692
0.366645
0.405199
0.437579
0.472395
0.502348
0.527358
0.550357
0.572733
0.594987
0.610989
0.631982
0.648199
0.663043
0.678609
0.692637
0.705056
0.71831
0.732328
0.742503
0.755857
0.769486
0.78224
0.795041
0.807003
0.817446
0.826591
0.833843
0.839544
0.843937
0.847107
0.849064
0.849903
0.85008
0.84937
0.847604
0.844433
0.840039
0.834367
0.827978
0.821034
0.813701
0.805676
0.798607
0.788273
0.781969
0.774129
0.774191
-4.68642e-05
-3.51819e-05
-3.84808e-05
-3.81501e-05
-3.8375e-05
-3.69219e-05
-4.06542e-05
-3.82053e-05
-4.27869e-05
-2.68208e-05
-4.00386e-05
-5.88413e-05
-7.48298e-06
-2.14021e-05
-8.00786e-05
-2.25677e-05
2.59946e-05
-3.50313e-05
-9.00677e-05
-2.32448e-06
7.84864e-05
3.16415e-05
-8.93798e-05
-9.884e-05
4.54782e-05
0.000141634
0.000137572
5.78956e-05
-8.60211e-05
-0.000133719
-3.04901e-05
0.000108383
0.000190208
0.000194568
0.000139421
6.86995e-05
1.99162e-05
5.76424e-05
5.00654e-05
-0.000175945
-0.00261606
-0.0223358
-0.184306
-0.705528
-0.843701
-0.845893
-0.844813
-0.841746
-0.837176
-0.833049
-0.826655
-0.817755
-0.804648
-0.782628
-0.72296
-0.625021
-0.416367
-0.227217
-0.0969971
-0.0216379
0.0480633
0.0994676
0.144855
0.175752
0.206282
0.253235
0.286215
0.318387
0.357937
0.394454
0.423282
0.453633
0.483096
0.509562
0.531711
0.552951
0.573713
0.589323
0.610247
0.626452
0.642857
0.655993
0.666354
0.680826
0.693274
0.706583
0.718277
0.729005
0.738131
0.749681
0.759088
0.770382
0.781936
0.792825
0.803733
0.813781
0.822601
0.830218
0.836343
0.841123
0.844808
0.847565
0.849339
0.850341
0.850699
0.850577
0.849647
0.847629
0.84434
0.839911
0.834737
0.829071
0.822765
0.816055
0.809143
0.799213
0.792204
0.78462
0.784122
-4.83947e-05
-3.67348e-05
-4.02131e-05
-4.02354e-05
-3.91492e-05
-4.09801e-05
-4.32642e-05
-4.1416e-05
-4.08779e-05
-2.72794e-05
-6.68823e-05
-4.29266e-05
3.44908e-06
-6.30062e-05
-9.50895e-05
1.69704e-05
2.7543e-05
-8.85936e-05
-0.000103546
3.65783e-05
8.55379e-05
-1.8033e-06
-0.000115074
-8.43086e-05
5.93949e-05
0.000127972
8.73885e-05
1.45265e-05
-4.45174e-05
-5.35547e-05
2.12705e-05
9.54553e-05
0.00014467
0.00014217
0.000100418
4.07577e-05
5.24482e-05
5.74164e-06
-0.000144924
-0.000848613
-0.00516895
-0.0382675
-0.300909
-0.780444
-0.847324
-0.845597
-0.843483
-0.840709
-0.83782
-0.834668
-0.82897
-0.82121
-0.810351
-0.79064
-0.735535
-0.644949
-0.439043
-0.20706
-0.0367906
0.0713809
0.154228
0.21649
0.266179
0.304518
0.340803
0.380397
0.412457
0.439779
0.466986
0.491721
0.512721
0.532525
0.552813
0.569978
0.590364
0.604034
0.618944
0.630885
0.645227
0.657873
0.670007
0.682113
0.69178
0.703082
0.713324
0.723767
0.734331
0.744604
0.752835
0.763036
0.771885
0.781712
0.791439
0.800294
0.809282
0.817615
0.825105
0.831718
0.837442
0.84213
0.845732
0.848345
0.85001
0.850992
0.851408
0.851458
0.850798
0.84949
0.847397
0.844546
0.841043
0.837076
0.832018
0.826372
0.819297
0.809538
0.801155
0.793956
0.792648
-5.00982e-05
-3.87711e-05
-4.19775e-05
-4.18941e-05
-4.10056e-05
-4.56993e-05
-4.27793e-05
-4.67333e-05
-4.16469e-05
-3.16976e-05
-7.83468e-05
-2.68124e-05
-5.12219e-06
-9.18083e-05
-7.49285e-05
2.30375e-05
-8.68061e-06
-0.000106823
-6.50225e-05
4.46896e-05
3.28811e-05
-3.8508e-05
-6.67236e-05
-7.16297e-06
3.81321e-05
2.9804e-05
9.90467e-06
2.41206e-05
6.40966e-05
7.7381e-05
6.06557e-05
2.7101e-05
7.49431e-06
5.27431e-05
9.32685e-05
0.000138554
0.000124215
7.63774e-05
-4.94982e-05
-0.000957575
-0.00722007
-0.0574385
-0.432107
-0.832986
-0.847175
-0.845177
-0.84327
-0.84128
-0.839165
-0.835475
-0.82936
-0.818713
-0.801462
-0.772875
-0.693355
-0.571972
-0.339435
-0.086147
0.0860615
0.199171
0.27949
0.33908
0.383973