/*--------------------------------*- C++ -*----------------------------------*\
| =========                 |                                                 |
| \\      /  F ield         | OpenFOAM: The Open Source CFD Toolbox           |
|  \\    /   O peration     | Version:  2.2.x                                 |
|   \\  /    A nd           | Web:      www.OpenFOAM.org                      |
|    \\/     M anipulation  |                                                 |
\*---------------------------------------------------------------------------*/
FoamFile
{
    version     2.0;
    format      ascii;
    class       volScalarField;
    location    "2.3";
    object      p;
}
// * * * * * * * * * * * * * * * * * * * * * * * * * * * * * * * * * * * * * //

dimensions      [1 -1 -2 0 0 0 0];

internalField   nonuniform List<scalar> 
14161
(
0.197599
0.197876
0.197784
0.197725
0.197631
0.197512
0.197375
0.197231
0.197056
0.196864
0.196677
0.19649
0.196253
0.195981
0.195804
0.195616
0.195268
0.194958
0.194798
0.194692
0.194429
0.193989
0.193747
0.193608
0.193567
0.193511
0.193212
0.192934
0.19285
0.192842
0.192885
0.193075
0.193263
0.193525
0.193923
0.194474
0.195205
0.196025
0.196802
0.197567
0.198984
0.200749
0.204129
0.20497
0.20426
1.06282
1.5976
1.64927
1.64981
1.61748
1.60094
1.55727
1.52382
1.48637
1.45103
1.41733
1.3833
1.35152
1.32171
1.29319
1.26698
1.24228
1.21961
1.19967
1.18192
1.16712
1.15513
1.14559
1.13754
1.13092
1.12546
1.12172
1.11884
1.11667
1.1074
1.10456
1.10336
1.10342
1.09076
1.0884
1.08864
1.07788
1.07514
1.07804
1.06285
1.05881
1.05559
1.05396
1.05775
1.04368
1.04083
1.04028
1.02402
1.02025
1.01937
1.00451
0.999679
0.99084
0.981671
0.973527
0.963466
0.955012
0.947934
0.931435
0.925739
0.917533
0.926868
0.943977
1.0474
1.22308
1.43489
1.62066
1.76097
1.84815
1.91338
1.95253
1.98454
1.99833
2.01809
0.197598
0.197877
0.197784
0.197725
0.19763
0.197511
0.197375
0.19723
0.197055
0.196863
0.196676
0.196488
0.196253
0.195985
0.195807
0.195612
0.195255
0.194966
0.194828
0.194684
0.194411
0.19398
0.193735
0.193609
0.193572
0.193493
0.193199
0.192936
0.192841
0.192817
0.192852
0.19308
0.193284
0.193546
0.193857
0.194343
0.195057
0.195884
0.196736
0.197519
0.199038
0.200965
0.204447
0.205919
0.206416
1.06384
1.59798
1.65066
1.64832
1.61242
1.59316
1.55065
1.51764
1.48147
1.44753
1.41448
1.38164
1.3504
1.32083
1.29225
1.26582
1.24122
1.2181
1.19823
1.18046
1.16539
1.15319
1.14342
1.13548
1.12889
1.12344
1.11908
1.11542
1.11264
1.10264
1.09966
1.09874
1.09852
1.08579
1.08374
1.0841
1.07377
1.07165
1.07443
1.05935
1.05542
1.05257
1.05146
1.05476
1.04054
1.03808
1.03732
1.02112
1.01774
1.01693
1.00201
0.996999
0.987872
0.979044
0.970646
0.96035
0.952229
0.946242
0.933259
0.933224
0.929712
0.961304
1.01938
1.17823
1.38592
1.5803
1.72927
1.82737
1.88539
1.93326
1.95988
1.9843
1.99197
2.01525
0.197601
0.197877
0.197784
0.197724
0.197629
0.197511
0.197376
0.197229
0.197057
0.196867
0.196677
0.196484
0.19625
0.195995
0.195804
0.1956
0.195249
0.194988
0.194837
0.194667
0.194381
0.193974
0.193749
0.193625
0.193563
0.193445
0.19316
0.192944
0.192846
0.19281
0.192828
0.193033
0.193198
0.193423
0.193718
0.19419
0.194851
0.195687
0.196496
0.197167
0.198465
0.200327
0.203869
0.205379
0.207454
1.06085
1.59892
1.65275
1.64541
1.609
1.58405
1.5396
1.50419
1.46841
1.43384
1.40132
1.36993
1.33876
1.30922
1.27992
1.25414
1.23101
1.20849
1.18922
1.17221
1.15751
1.1454
1.13627
1.12857
1.12212
1.11672
1.11255
1.10934
1.10716
1.09683
1.09397
1.09308
1.09299
1.08045
1.07863
1.07859
1.06942
1.06749
1.06904
1.05524
1.0513
1.04866
1.0476
1.05031
1.03691
1.03442
1.03312
1.01813
1.01463
1.01334
0.998994
0.993581
0.984415
0.975956
0.967715
0.958131
0.952024
0.949354
0.93731
0.953981
0.962378
1.02594
1.1478
1.33026
1.51806
1.67064
1.77173
1.84486
1.8905
1.92985
1.95145
1.97283
1.97702
2.00352
0.197601
0.197876
0.197785
0.197726
0.19763
0.197512
0.197377
0.197227
0.197059
0.196871
0.19668
0.19648
0.19625
0.196009
0.195795
0.195579
0.195261
0.195024
0.194824
0.194625
0.194344
0.193998
0.193811
0.193647
0.193513
0.193358
0.193108
0.192963
0.192856
0.192788
0.192788
0.192937
0.193071
0.193248
0.193513
0.193932
0.194494
0.195145
0.195954
0.196695
0.19806
0.199877
0.203098
0.204602
0.209769
1.04277
1.60133
1.65243
1.63683
1.59975
1.56721
1.52503
1.48712
1.45045
1.41413
1.37944
1.34635
1.31364
1.28514
1.25566
1.23077
1.21005
1.188
1.17001
1.15374
1.1401
1.12862
1.12036
1.11367
1.10798
1.10338
1.09981
1.09703
1.09542
1.08497
1.08235
1.0816
1.08166
1.06983
1.06823
1.06807
1.06002
1.05853
1.05891
1.04648
1.0427
1.04051
1.03952
1.042
1.02944
1.02688
1.02529
1.01186
1.00827
1.00643
0.992522
0.986775
0.977933
0.970348
0.964657
0.958395
0.955043
0.959919
0.953463
1.00125
1.05022
1.18827
1.37262
1.54354
1.66494
1.73578
1.79974
1.8554
1.89157
1.92354
1.9402
1.95828
1.95985
1.98821
0.197605
0.197878
0.197787
0.197728
0.197631
0.197513
0.19738
0.197228
0.19706
0.196874
0.196682
0.196475
0.196251
0.196028
0.195789
0.195556
0.195283
0.195065
0.194819
0.194574
0.194314
0.194053
0.19388
0.193651
0.193419
0.19324
0.193062
0.19298
0.192879
0.192775
0.192733
0.192786
0.19287
0.192983
0.193177
0.193486
0.19394
0.194467
0.195093
0.195796
0.196938
0.198579
0.201133
0.203063
0.210047
0.999672
1.6039
1.64723
1.61816
1.58281
1.53115
1.49238
1.45318
1.41592
1.38057
1.34616
1.31451
1.28327
1.25628
1.22553
1.2022
1.18328
1.16068
1.14389
1.12801
1.11665
1.10604
1.09863
1.09268
1.08754
1.08343
1.08042
1.07848
1.07821
1.06867
1.06672
1.06647
1.06682
1.05575
1.05446
1.05428
1.0472
1.04584
1.04538
1.03517
1.03159
1.02968
1.02867
1.03078
1.01943
1.01672
1.01494
1.0031
0.999556
0.997684
0.984327
0.979799
0.972516
0.966779
0.965309
0.962402
0.965819
0.987776
1.00183
1.09859
1.22432
1.40166
1.56813
1.6736
1.72265
1.7636
1.81026
1.85423
1.88575
1.91361
1.92667
1.9415
1.94194
1.97203
0.197609
0.197881
0.197789
0.197729
0.197632
0.197514
0.197383
0.197229
0.19706
0.196876
0.196685
0.196471
0.196255
0.196048
0.195787
0.195529
0.195302
0.195103
0.194809
0.194526
0.194284
0.19412
0.19395
0.193635
0.19333
0.193141
0.193017
0.192964
0.192897
0.192783
0.192612
0.192559
0.192569
0.192626
0.192731
0.192893
0.193269
0.193622
0.193946
0.194486
0.19514
0.196341
0.197804
0.199969
0.208709
0.925826
1.59292
1.64196
1.58418
1.54988
1.48951
1.44652
1.40698
1.36919
1.33601
1.30021
1.2688
1.24085
1.21695
1.18528
1.16571
1.14756
1.12593
1.11167
1.0953
1.08648
1.07717
1.07028
1.06486
1.06042
1.05706
1.0546
1.0532
1.05363
1.04533
1.04372
1.04376
1.04397
1.0348
1.0335
1.03278
1.02739
1.0255
1.02459
1.01781
1.01422
1.01215
1.01107
1.01324
1.00383
1.00091
0.999591
0.990156
0.987505
0.986617
0.976536
0.975732
0.9734
0.96455
0.975169
0.980336
0.996401
1.05202
1.11843
1.2785
1.44496
1.59847
1.68586
1.72135
1.74345
1.77442
1.81143
1.84909
1.87746
1.90204
1.91215
1.9249
1.92561
1.95503
0.197615
0.197883
0.197792
0.197732
0.197633
0.197518
0.197387
0.197232
0.19706
0.196882
0.196692
0.196464
0.196264
0.196065
0.195786
0.19551
0.195326
0.195138
0.194807
0.19448
0.194267
0.194149
0.194
0.193624
0.19329
0.193094
0.192966
0.192922
0.192878
0.192779
0.192449
0.192279
0.192225
0.192222
0.192247
0.192313
0.192431
0.192532
0.192601
0.192731
0.192808
0.193038
0.193503
0.1945
0.206087
0.78672
1.57733
1.63248
1.52684
1.48909
1.41939
1.37783
1.34489
1.31234
1.28494
1.25101
1.22382
1.19806
1.179
1.14576
1.13292
1.10946
1.09288
1.0803
1.06497
1.05833
1.04798
1.0426
1.03767
1.03394
1.03129
1.02938
1.02841
1.02874
1.02207
1.02049
1.02041
1.02089
1.01388
1.01221
1.01122
1.00743
1.00538
1.00467
1.00062
0.996627
0.995249
0.994538
0.996708
0.990033
0.987554
0.987122
0.980564
0.980329
0.982034
0.973466
0.978903
0.98233
0.969234
1.00403
1.02604
1.07333
1.18411
1.32698
1.48748
1.62734
1.69471
1.71952
1.73301
1.7484
1.77651
1.80607
1.84165
1.86628
1.88832
1.89592
1.90803
1.90945
1.9368
0.197621
0.197887
0.197795
0.197735
0.197637
0.197524
0.197391
0.197235
0.197061
0.196889
0.1967
0.196461
0.196269
0.19608
0.19579
0.195498
0.195334
0.195162
0.194815
0.194453
0.194255
0.194155
0.194021
0.193607
0.193255
0.193055
0.192902
0.192862
0.192845
0.192736
0.192307
0.192032
0.191876
0.191785
0.191704
0.191622
0.191487
0.191324
0.191088
0.190568
0.190071
0.188862
0.187609
0.186345
0.196605
0.5544
1.51956
1.63662
1.45259
1.40855
1.35072
1.31329
1.28463
1.25713
1.23304
1.20028
1.18584
1.15275
1.14518
1.10866
1.10448
1.07433
1.06483
1.05282
1.03984
1.03508
1.02277
1.02013
1.01479
1.01231
1.01041
1.00898
1.00818
1.00756
1.00286
1.00129
1.00097
1.00117
0.996411
0.99441
0.993272
0.990604
0.989048
0.989061
0.986385
0.983206
0.98276
0.983747
0.985518
0.982211
0.98063
0.982304
0.977001
0.980787
0.984654
0.9757
0.993239
1.00711
0.999074
1.06686
1.1281
1.23579
1.39009
1.53781
1.65531
1.70257
1.71809
1.72454
1.73087
1.74976
1.7731
1.80132
1.83391
1.85569
1.87515
1.88143
1.89303
1.89554
1.91977
0.197627
0.197892
0.1978
0.19774
0.197643
0.19753
0.197394
0.197237
0.197067
0.196898
0.196709
0.196461
0.196273
0.196092
0.195793
0.195496
0.195338
0.195178
0.194817
0.194442
0.194256
0.194162
0.194027
0.193583
0.19323
0.193011
0.192845
0.192805
0.192778
0.192629
0.192175
0.191855
0.191581
0.191383
0.191191
0.19093
0.19056
0.190286
0.189629
0.188523
0.186837
0.185023
0.181541
0.178649
0.182271
0.258859
1.32739
1.66233
1.39423
1.33857
1.29148
1.25412
1.22884
1.21187
1.18481
1.15653
1.15258
1.11524
1.11541
1.07895
1.07518
1.05017
1.03992
1.03274
1.01653
1.01374
1.00204
1.00058
0.995217
0.994226
0.992819
0.99197
0.991177
0.99077
0.988049
0.986726
0.986101
0.986139
0.983489
0.981642
0.980343
0.979337
0.978689
0.978825
0.977253
0.975245
0.974807
0.978462
0.980876
0.97798
0.980429
0.984043
0.977739
0.991115
1.00056
0.994747
1.02674
1.0605
1.08344
1.20252
1.3182
1.45397
1.58895
1.68074
1.70983
1.71634
1.71502
1.71643
1.7272
1.74473
1.76627
1.7937
1.82262
1.84336
1.8616
1.86702
1.87845
1.88158
1.90235
0.197635
0.197898
0.197806
0.197746
0.197648
0.197535
0.197399
0.197243
0.197075
0.196905
0.196715
0.196467
0.196284
0.196097
0.195789
0.195511
0.195352
0.195171
0.194793
0.194451
0.194281
0.194163
0.193996
0.193533
0.193205
0.192984
0.19283
0.192757
0.192654
0.192454
0.192035
0.191728
0.191388
0.191036
0.190703
0.190296
0.189717
0.189209
0.188375
0.186944
0.184755
0.182359
0.179461
0.177152
0.176315
0.194289
0.930811
1.59971
1.38821
1.31946
1.26257
1.21359
1.18863
1.16878
1.14964
1.12395
1.12174
1.09251
1.08534
1.0622
1.04987
1.037
1.02074
1.01545
0.998258
0.994574
0.987165
0.984583
0.980039
0.979293
0.978665
0.978407
0.978021
0.978318
0.976859
0.975858
0.975452
0.975427
0.974585
0.973932
0.971763
0.97311
0.973754
0.973614
0.97323
0.973234
0.971015
0.978351
0.983293
0.978143
0.989776
0.997695
0.991049
1.0148
1.03602
1.04429
1.10858
1.18171
1.26224
1.40357
1.53181
1.64493
1.70033
1.71638
1.71483
1.70731
1.70622
1.71192
1.72485
1.74071
1.76251
1.78781
1.81314
1.83231
1.84791
1.8534
1.86461
1.86842
1.88665
0.197644
0.197904
0.197813
0.197752
0.197654
0.197543
0.197405
0.19725
0.197086
0.196912
0.19672
0.196481
0.196297
0.196095
0.195784
0.195546
0.195361
0.195146
0.194768
0.194496
0.194324
0.194147
0.193929
0.19349
0.193212
0.193019
0.192828
0.192669
0.192465
0.192189
0.191854
0.191592
0.191284
0.190792
0.190266
0.189734
0.18907
0.188337
0.187247
0.186105
0.184805
0.183122
0.18063
0.178226
0.176673
0.227807
0.568413
1.41327
1.35772
1.29569
1.25647
1.2042
1.17554
1.13548
1.12654
1.10474
1.09763
1.08034
1.06336
1.05578
1.03222
1.02819
1.00099
1.00064
0.989355
0.98155
0.976369
0.971129
0.96837
0.968456
0.968947
0.969286
0.969724
0.970585
0.969942
0.969555
0.970378
0.970281
0.971085
0.971866
0.968728
0.971979
0.973976
0.971868
0.974999
0.977526
0.9723
0.986642
0.994212
0.98972
1.01139
1.02814
1.03181
1.07873
1.12368
1.17098
1.26846
1.38339
1.49479
1.60809
1.69068
1.71762
1.72152
1.70843
1.70159
1.69945
1.69983
1.70674
1.71751
1.73302
1.75494
1.77919
1.80311
1.82131
1.83534
1.84121
1.85193
1.85604
1.87151
0.197654
0.197912
0.19782
0.197758
0.197663
0.19755
0.197413
0.197259
0.197096
0.196918
0.196722
0.196502
0.196306
0.196086
0.195803
0.195591
0.195355
0.195105
0.194791
0.194576
0.194365
0.194093
0.193815
0.193499
0.193294
0.193093
0.192815
0.192534
0.192224
0.191939
0.191678
0.191492
0.191206
0.190791
0.189998
0.189373
0.188665
0.187951
0.187141
0.18613
0.184755
0.183442
0.182526
0.182129
0.192377
0.248533
0.643196
1.02645
1.22721
1.2827
1.26035
1.20073
1.18196
1.12966
1.12553
1.102
1.08663
1.0801
1.05104
1.05109
1.01723
1.01987
0.996775
0.988536
0.984315
0.972104
0.970456
0.964463
0.963535
0.963875
0.96511
0.965966
0.967137
0.96802
0.966874
0.967878
0.96909
0.968163
0.970706
0.972524
0.968703
0.974852
0.979627
0.976145
0.986115
0.99253
0.986791
1.012
1.02893
1.02991
1.0726
1.10686
1.13526
1.21195
1.29028
1.38383
1.48658
1.5924
1.68373
1.71975
1.72984
1.72306
1.70705
1.69874
1.69323
1.69195
1.69479
1.70355
1.71394
1.72972
1.7501
1.77162
1.79316
1.81012
1.82294
1.82947
1.83975
1.84429
1.85768
0.197665
0.19792
0.197828
0.197767
0.197674
0.197559
0.197422
0.197269
0.19711
0.19693
0.196724
0.196531
0.19632
0.196074
0.195836
0.195636
0.195358
0.195067
0.194827
0.194658
0.194404
0.19401
0.193724
0.19351
0.193374
0.193167
0.192768
0.192369
0.192056
0.191794
0.19154
0.191385
0.191139
0.190801
0.189969
0.189328
0.188766
0.188121
0.187414
0.186634
0.185718
0.1849
0.184692
0.18623
0.206795
0.45918
0.804539
0.87498
1.01411
1.18113
1.25326
1.20507
1.20602
1.14813
1.13502
1.11757
1.08982
1.08798
1.04817
1.05458
1.01433
1.01251
0.997792
0.985671
0.982058
0.969484
0.968672
0.963254
0.96325
0.963587
0.96519
0.966475
0.968575
0.969647
0.968199
0.971195
0.9739
0.971682
0.978663
0.982913
0.978083
0.991417
1.00046
0.997028
1.01922
1.03401
1.03257
1.07734
1.11019
1.13058
1.19965
1.262
1.3259
1.42146
1.51218
1.60342
1.67953
1.72567
1.73894
1.73559
1.71643
1.70461
1.69635
1.68939
1.68598
1.68626
1.69105
1.69816
1.70925
1.72467
1.74304
1.7629
1.78292
1.79917
1.81143
1.81853
1.82818
1.83289
1.84443
0.197676
0.197929
0.197838
0.197778
0.197684
0.197569
0.197433
0.19728
0.197125
0.196942
0.196733
0.196558
0.196337
0.196067
0.195871
0.195677
0.195363
0.195049
0.194862
0.194702
0.194431
0.19398
0.193667
0.193498
0.193391
0.193216
0.192704
0.192259
0.191962
0.191706
0.191456
0.191343
0.191116
0.190802
0.18999
0.18932
0.188771
0.188234
0.187732
0.187257
0.186702
0.186141
0.184972
0.191129
0.211608
0.661437
0.816596
0.82344
0.866834
0.988222
1.18246
1.21586
1.23176
1.18049
1.15519
1.14206
1.10496
1.10394
1.05657
1.06365
1.02365
1.01633
1.00515
0.991221
0.98682
0.975267
0.974689
0.969736
0.970594
0.971576
0.972705
0.974781
0.978058
0.979743
0.9779
0.98598
0.990251
0.98667
1.00327
1.0125
1.00822
1.03321
1.05172
1.05851
1.09451
1.12647
1.14763
1.21346
1.27079
1.32228
1.40815
1.48482
1.56118
1.63284
1.69802
1.73826
1.74623
1.74735
1.72836
1.71555
1.70491
1.69451
1.68707
1.68235
1.68042
1.6829
1.68797
1.6954
1.70648
1.72063
1.73693
1.75475
1.77274
1.78814
1.79996
1.80771
1.81692
1.82197
1.83226
0.197688
0.197939
0.197849
0.197789
0.197694
0.19758
0.197444
0.197295
0.197142
0.196949
0.196748
0.19658
0.196351
0.196073
0.195903
0.195713
0.195362
0.195047
0.194888
0.194729
0.194432
0.193959
0.193651
0.193506
0.193393
0.193208
0.19263
0.192208
0.191901
0.191661
0.191434
0.191309
0.191047
0.190716
0.189989
0.189443
0.188988
0.188649
0.18844
0.188444
0.188674
0.189365
0.19116
0.208874
0.350742
0.791867
0.841108
0.834336
0.853716
0.898594
1.05112
1.17904
1.25541
1.21939
1.1966
1.16706
1.13059
1.12198
1.07346
1.07221
1.04211
1.02872
1.02041
1.00256
0.997173
0.989393
0.990278
0.984309
0.98787
0.99057
0.991383
0.995065
1.00183
1.00581
1.00336
1.02236
1.03209
1.02906
1.06162
1.08076
1.08723
1.12718
1.16412
1.19732
1.24464
1.30227
1.35495
1.42632
1.4971
1.55806
1.62469
1.68548
1.73349
1.74895
1.75434
1.75619
1.73937
1.72562
1.71448
1.7032
1.69332
1.68563
1.68039
1.67753
1.67732
1.6801
1.68443
1.69183
1.70236
1.71517
1.73003
1.74638
1.76267
1.7774
1.78891
1.79717
1.80604
1.81138
1.82051
0.197702
0.19795
0.197861
0.197801
0.197705
0.197593
0.197457
0.197313
0.197158
0.196958
0.19677
0.196597
0.196358
0.196095
0.195929
0.195727
0.195351
0.195076
0.194918
0.194728
0.194403
0.193962
0.193705
0.193526
0.193355
0.193118
0.192587
0.192226
0.191931
0.191661
0.191428
0.191215
0.190904
0.190521
0.190102
0.189761
0.189428
0.189099
0.188852
0.188673
0.188489
0.188568
0.1897
0.207766
0.557955
0.888447
0.888911
0.872711
0.865703
0.865813
0.929034
1.02239
1.19546
1.23441
1.25827
1.18123
1.16344
1.13589
1.10278
1.08181
1.06732
1.04431
1.03576
1.0202
1.01398
1.0114
1.01491
1.0083
1.01911
1.02466
1.02681
1.03356
1.04911
1.06079
1.06362
1.09585
1.11795
1.12874
1.17764
1.2148
1.24847
1.29645
1.35991
1.41762
1.47091
1.53095
1.58743
1.63914
1.69465
1.73601
1.75365
1.75985
1.76763
1.76064
1.74466
1.73467
1.72211
1.71211
1.70119
1.69202
1.68464
1.6792
1.67589
1.67443
1.67546
1.67777
1.68229
1.6894
1.6988
1.71015
1.72345
1.73813
1.75278
1.76691
1.7781
1.78678
1.79573
1.80122
1.80949
0.197716
0.197962
0.197874
0.197813
0.197719
0.197609
0.197473
0.197331
0.197172
0.196977
0.1968
0.196616
0.19636
0.196136
0.195946
0.195722
0.195372
0.195151
0.194947
0.194704
0.19436
0.194042
0.193804
0.193514
0.193254
0.192967
0.192611
0.192345
0.192059
0.191661
0.191368
0.19106
0.190737
0.190425
0.19022
0.190097
0.189902
0.189688
0.189319
0.188993
0.188526
0.187868
0.191848
0.21569
0.709279
0.90414
0.905852
0.892466
0.884755
0.867657
0.897772
0.938728
1.07775
1.20388
1.26025
1.2107
1.20092
1.16
1.13427
1.09857
1.09524
1.06043
1.05785
1.0476
1.03768
1.04854
1.05462
1.04964
1.07227
1.08529
1.09561
1.11066
1.13938
1.16694
1.18953
1.23558
1.27616
1.31329
1.37202
1.42657
1.4801
1.52578
1.58219
1.63214
1.67646
1.71814
1.74466
1.75511
1.76241
1.77007
1.77099
1.76079
1.7509
1.74163
1.73027
1.72108
1.70925
1.69975
1.69095
1.68405
1.67883
1.67507
1.67291
1.67257
1.67358
1.67561
1.67972
1.68599
1.69439
1.70476
1.71678
1.72987
1.74318
1.75662
1.76732
1.77631
1.78551
1.79105
1.79875
0.197731
0.197975
0.197888
0.197828
0.197735
0.197626
0.197492
0.19735
0.197189
0.197005
0.196826
0.19663
0.196386
0.196194
0.195969
0.195702
0.195437
0.195239
0.194971
0.194658
0.194374
0.194162
0.193916
0.19349
0.193142
0.192841
0.192642
0.192454
0.192208
0.191667
0.191276
0.190944
0.190675
0.190459
0.190341
0.190319
0.190268
0.190127
0.189845
0.18974
0.189884
0.189617
0.202852
0.29902
0.825707
0.93049
0.92789
0.921099
0.916748
0.905391
0.904809
0.929715
0.969741
1.09777
1.1923
1.25766
1.21251
1.20853
1.14536
1.11729
1.12766
1.08579
1.09076
1.09395
1.07358
1.10774
1.12185
1.1275
1.16436
1.19082
1.21987
1.25265
1.29504
1.3409
1.3903
1.43863
1.49094
1.53812
1.58796
1.63282
1.68061
1.71209
1.73687
1.75244
1.75843
1.76603
1.77175
1.7691
1.76348
1.75562
1.75199
1.74401
1.73824
1.72776
1.71772
1.70818
1.69872
1.69061
1.68376
1.67862
1.67481
1.67228
1.67092
1.67115
1.67194
1.6738
1.67752
1.68296
1.69036
1.69954
1.71024
1.72188
1.73389
1.74644
1.75669
1.76578
1.77547
1.7812
1.78856
0.197748
0.19799
0.197903
0.197845
0.197753
0.197643
0.197513
0.19737
0.197211
0.197035
0.196854
0.196641
0.196428
0.196244
0.195991
0.195703
0.195515
0.195316
0.194968
0.194621
0.1944
0.194231
0.193987
0.19347
0.193082
0.192806
0.192657
0.1925
0.192259
0.19164
0.191228
0.190938
0.19072
0.190573
0.190507
0.190514
0.190509
0.19046
0.190344
0.190677
0.191173
0.192306
0.211136
0.455261
0.9146
0.939789
0.93239
0.930339
0.927324
0.91851
0.913301
0.912484
0.927855
0.979661
1.09386
1.21399
1.24495
1.25153
1.18021
1.1485
1.16894
1.1289
1.15331
1.16881
1.15216
1.21165
1.23977
1.26516
1.31365
1.36025
1.40491
1.45627
1.50151
1.5485
1.59806
1.64108
1.68308
1.71628
1.73623
1.74776
1.75728
1.76318
1.76772
1.77035
1.76662
1.7609
1.75663
1.75266
1.74776
1.74337
1.73979
1.73197
1.72496
1.71569
1.70703
1.69859
1.69064
1.68411
1.67881
1.67498
1.6721
1.67031
1.66935
1.66955
1.67019
1.67178
1.67481
1.67951
1.68609
1.69431
1.70388
1.71412
1.72485
1.7362
1.74613
1.75537
1.76565
1.77162
1.77839
0.197765
0.198005
0.19792
0.197863
0.197771
0.197663
0.197537
0.197391
0.197235
0.197067
0.196886
0.19665
0.196474
0.196294
0.195993
0.195729
0.19558
0.19537
0.194961
0.194628
0.194445
0.194265
0.194005
0.19346
0.193105
0.192838
0.19266
0.192471
0.1922
0.191653
0.19128
0.191
0.190806
0.190665
0.190544
0.190476
0.190379
0.190243
0.190127
0.189974
0.190001
0.190709
0.208816
0.633768
0.975776
0.975859
0.965777
0.958312
0.944447
0.937574
0.927917
0.924481
0.931009
0.957406
1.03054
1.15077
1.25267
1.26362
1.26852
1.1918
1.24069
1.22896
1.26722
1.29287
1.29952
1.37171
1.41545
1.45905
1.50861
1.55544
1.60182
1.64622
1.68365
1.71369
1.73481
1.74674
1.75601
1.76322
1.76677
1.76802
1.76589
1.76405
1.75911
1.75603
1.75281
1.74922
1.74496
1.74166
1.73604
1.73037
1.72634
1.7196
1.71343
1.70561
1.69851
1.69141
1.68488
1.67938
1.67501
1.67191
1.66972
1.66841
1.66782
1.66819
1.66886
1.67024
1.67275
1.67669
1.68226
1.68932
1.69753
1.70635
1.71597
1.72604
1.73573
1.74529
1.756
1.76217
1.76839
0.197784
0.198022
0.197938
0.197882
0.197791
0.197687
0.197561
0.197417
0.197263
0.197097
0.196912
0.196681
0.196522
0.196331
0.195995
0.195793
0.19562
0.19539
0.194968
0.194707
0.19449
0.194262
0.193951
0.193521
0.193216
0.192907
0.192618
0.192376
0.192081
0.191743
0.191457
0.191178
0.190853
0.190643
0.190465
0.190326
0.190204
0.190076
0.189922
0.189581
0.189308
0.194296
0.223944
0.76225
0.987215
0.990309
0.984661
0.979113
0.965339
0.956264
0.944161
0.939938
0.936993
0.963623
0.991594
1.13804
1.23553
1.31092
1.35672
1.31225
1.36791
1.37917
1.43007
1.46381
1.504
1.55619
1.60097
1.64285
1.67869
1.70678
1.72859
1.74256
1.75238
1.7589
1.76353
1.76605
1.76523
1.76505
1.75979
1.75758
1.7533
1.75103
1.74967
1.74526
1.7419
1.73595
1.73131
1.72701
1.72371
1.71837
1.71482
1.70889
1.7038
1.69737
1.69136
1.68534
1.6798
1.67528
1.6718
1.66944
1.66783
1.66691
1.66658
1.66689
1.66752
1.66855
1.67041
1.67347
1.67799
1.68385
1.6908
1.69851
1.70706
1.71617
1.72551
1.73536
1.74619
1.75247
1.75795
0.197804
0.19804
0.197957
0.197903
0.197814
0.197712
0.197585
0.197449
0.197292
0.197129
0.196935
0.196735
0.19656
0.196346
0.196058
0.195871
0.195651
0.195369
0.195053
0.194826
0.194545
0.194231
0.193929
0.193655
0.193382
0.192948
0.192584
0.192259
0.191985
0.191806
0.191589
0.191357
0.190907
0.190605
0.190362
0.190208
0.190075
0.18993
0.189857
0.189938
0.189419
0.202096
0.293478
0.866785
0.989801
0.995074
0.997901
0.998767
0.990753
0.985887
0.975991
0.971645
0.969373
0.998337
1.02156
1.18359
1.2844
1.43522
1.48431
1.48841
1.53877
1.55657
1.60312
1.63549
1.67244
1.69784
1.71786
1.73343
1.7443
1.75165
1.75752
1.76118
1.76173
1.76137
1.75705
1.75727
1.75374
1.7537
1.74987
1.74758
1.74354
1.73992
1.73673
1.73202
1.72844
1.72463
1.71956
1.71542
1.71223
1.70747
1.7041
1.69874
1.69452
1.68983
1.68509
1.68039
1.67611
1.67242
1.66935
1.66697
1.66522
1.66434
1.66425
1.66475
1.66544
1.66648
1.66814
1.67056
1.67405
1.67866
1.68431
1.69077
1.69814
1.70639
1.71528
1.72536
1.7364
1.74273
1.74816
0.197825
0.198059
0.197979
0.197926
0.19784
0.197737
0.197615
0.197483
0.197328
0.197164
0.196969
0.196802
0.196606
0.196356
0.196152
0.195954
0.195671
0.195379
0.195178
0.194943
0.194553
0.194194
0.193949
0.19375
0.193501
0.192976
0.192554
0.192217
0.191991
0.191845
0.19164
0.19139
0.1909
0.190572
0.190346
0.19023
0.190166
0.190169
0.190375
0.190942
0.191807
0.211575
0.424749
0.953001
0.995165
1.00007
1.00494
1.00781
1.00847
1.00898
1.00739
1.01019
1.01563
1.06857
1.10883
1.31596
1.44486
1.59128
1.64121
1.6612
1.68676
1.70074
1.71393
1.72499
1.73548
1.74266
1.74804
1.75255
1.75517
1.7558
1.75327
1.75253
1.7498
1.75082
1.74842
1.7473
1.74404
1.74257
1.73786
1.73505
1.73229
1.72863
1.72582
1.72098
1.71715
1.71309
1.70817
1.70389
1.70095
1.6969
1.69405
1.69005
1.68702
1.68375
1.67991
1.67578
1.67166
1.66809
1.66535
1.66348
1.66245
1.66217
1.66245
1.66303
1.66375
1.66448
1.66546
1.66685
1.66924
1.67275
1.67725
1.68264
1.68925
1.69691
1.70543
1.71564
1.72665
1.733
1.73812
0.197848
0.19808
0.198002
0.197951
0.197867
0.197764
0.19765
0.197517
0.197368
0.197198
0.197015
0.196861
0.196638
0.196399
0.196243
0.196023
0.195663
0.195439
0.195269
0.195016
0.194553
0.194221
0.194019
0.193804
0.193541
0.192988
0.192613
0.192306
0.192036
0.191814
0.191568
0.191262
0.190899
0.190642
0.190416
0.190203
0.190016
0.189901
0.189875
0.190205
0.190516
0.215965
0.560106
1.02385
1.01557
1.01151
1.01023
1.01055
1.01402
1.01957
1.02983
1.0543
1.07924
1.1928
1.28116
1.50792
1.64805
1.73228
1.75086
1.75291
1.75058
1.74955
1.7485
1.74813
1.74882
1.74824
1.74644
1.7448
1.74338
1.74406
1.74229
1.74188
1.73892
1.73897
1.73621
1.73541
1.73237
1.73053
1.72689
1.72373
1.72057
1.71676
1.7139
1.70946
1.70586
1.70245
1.69854
1.6949
1.69221
1.68874
1.68597
1.68202
1.67879
1.67567
1.67258
1.6697
1.66702
1.66446
1.66221
1.6603
1.65889
1.65814
1.65816
1.65869
1.65951
1.66025
1.66134
1.66286
1.66484
1.66731
1.67058
1.67494
1.6805
1.68735
1.69543
1.70555
1.71659
1.72313
1.72851
0.197872
0.198103
0.198026
0.197978
0.197896
0.197796
0.197687
0.197553
0.197411
0.197235
0.197077
0.196919
0.196659
0.196474
0.196311
0.19606
0.195725
0.195531
0.19533
0.195028
0.194616
0.194349
0.194098
0.193818
0.193471
0.193064
0.192776
0.192481
0.192049
0.191713
0.191402
0.191108
0.190916
0.190727
0.190485
0.190161
0.189738
0.189385
0.18871
0.188178
0.190523
0.211776
0.752717
1.02139
1.02574
1.02388
1.02331
1.02328
1.02488
1.04305
1.06535
1.12744
1.19428
1.37109
1.52412
1.69739
1.77542
1.79073
1.78343
1.77572
1.76745
1.75996
1.7536
1.74785
1.7426
1.73883
1.73604
1.73405
1.73124
1.73051
1.72832
1.72794
1.72526
1.72498
1.72345
1.72261
1.72036
1.71818
1.71595
1.71302
1.71068
1.70726
1.70472
1.70091
1.69752
1.69415
1.69038
1.68653
1.68319
1.67952
1.67652
1.67335
1.67067
1.66836
1.66633
1.66384
1.66103
1.65846
1.65655
1.65524
1.65471
1.65469
1.65513
1.65579
1.6567
1.65717
1.65767
1.65805
1.65864
1.66001
1.66272
1.66651
1.6716
1.6781
1.68594
1.69639
1.70704
1.71396
1.71918
0.197898
0.198128
0.198052
0.198006
0.197928
0.197831
0.197726
0.197596
0.197452
0.197289
0.197136
0.19696
0.196728
0.196563
0.196365
0.196088
0.195852
0.19564
0.195375
0.195039
0.194768
0.194527
0.194196
0.193804
0.193431
0.193199
0.192934
0.192624
0.192051
0.191633
0.191282
0.19104
0.190906
0.190725
0.190533
0.190177
0.189749
0.189565
0.189626
0.189376
0.20159
0.272298
0.852814
1.01105
1.02113
1.02455
1.02757
1.0365
1.04665
1.07887
1.13878
1.2395
1.40435
1.57248
1.72972
1.79577
1.80454
1.79221
1.78261
1.76956
1.7597
1.75127
1.74408
1.73843
1.73351
1.72876
1.72429
1.72064
1.7172
1.71493
1.713
1.71252
1.71114
1.71088
1.71069
1.71017
1.70988
1.70735
1.70617
1.70321
1.701
1.69682
1.69391
1.69062
1.6875
1.6846
1.68192
1.6783
1.67526
1.6715
1.66829
1.66478
1.66158
1.65898
1.65695
1.65551
1.65428
1.65264
1.65112
1.64943
1.64832
1.64774
1.64767
1.64819
1.64923
1.64987
1.65051
1.65124
1.65234
1.65391
1.65625
1.65925
1.6635
1.66908
1.67635
1.68622
1.69642
1.70392
1.70854
0.197926
0.198154
0.198081
0.198038
0.197963
0.19787
0.197766
0.197644
0.197497
0.197355
0.1972
0.196997
0.196828
0.196655
0.196403
0.196168
0.195994
0.195739
0.195385
0.195116
0.19494
0.194681
0.194219
0.193788
0.193507
0.193319
0.193044
0.192655
0.192033
0.191604
0.191306
0.191095
0.190902
0.190645
0.190353
0.189971
0.189762
0.189852
0.190328
0.191223
0.211865
0.416068
0.955248
1.00579
1.0146
1.02306
1.03246
1.05553
1.09141
1.14235
1.28917
1.41462
1.63086
1.75361
1.80118
1.8053
1.78868
1.77902
1.76513
1.75478
1.7454
1.73749
1.73073
1.72454
1.71883
1.7137
1.70911
1.70555
1.70261
1.70047
1.69876
1.69779
1.69701
1.69601
1.69576
1.69431
1.69526
1.69323
1.69233
1.69008
1.68891
1.68619
1.68401
1.68105
1.67843
1.67562
1.67317
1.66931
1.66615
1.6617
1.65824
1.65506
1.65279
1.65126
1.64996
1.64891
1.64805
1.64634
1.64523
1.64417
1.64366
1.6435
1.64342
1.64397
1.64503
1.64561
1.64593
1.64601
1.64595
1.64636
1.6473
1.64974
1.65378
1.65922
1.66662
1.677
1.68738
1.6952
1.69954
0.197957
0.198183
0.198112
0.198072
0.198001
0.197911
0.197812
0.197694
0.197551
0.197423
0.197252
0.197062
0.196926
0.196733
0.196452
0.196289
0.196114
0.195798
0.195447
0.195258
0.195064
0.194769
0.194248
0.193904
0.193682
0.193424
0.193099
0.192535
0.192044
0.191705
0.191429
0.191132
0.190778
0.19033
0.189809
0.189388
0.189045
0.188904
0.189139
0.189871
0.216788
0.579537
1.02767
1.02189
1.02374
1.03477
1.05431
1.0867
1.19133
1.27593
1.49809
1.64959
1.76846
1.79853
1.79832
1.78034
1.77133
1.7572
1.7466
1.7365
1.72763
1.72004
1.7137
1.7086
1.70435
1.70064
1.69671
1.69308
1.68967
1.68646
1.68363
1.68135
1.67965
1.67847
1.67906
1.67861
1.68092
1.68039
1.68028
1.67866
1.67794
1.67537
1.67303
1.66974
1.66724
1.66491
1.66377
1.6613
1.65904
1.65492
1.65147
1.64716
1.64352
1.64081
1.63909
1.63809
1.6384
1.63727
1.63647
1.63534
1.63474
1.63443
1.63423
1.6346
1.63558
1.63626
1.63658
1.63673
1.63663
1.63797
1.63922
1.64231
1.64619
1.65086
1.65787
1.66725
1.67704
1.68509
1.68781
0.19799
0.198213
0.198146
0.198108
0.198043
0.197956
0.197862
0.197744
0.197617
0.197492
0.197305
0.197157
0.197016
0.196787
0.196563
0.196405
0.196206
0.195857
0.195612
0.195418
0.195164
0.194771
0.194388
0.194155
0.193885
0.193529
0.193018
0.192519
0.192169
0.191902
0.191526
0.191107
0.190451
0.189873
0.189286
0.18877
0.188051
0.187107
0.186084
0.189833
0.21538
0.767293
1.02618
1.03551
1.03923
1.05011
1.11048
1.16287
1.35683
1.49793
1.68861
1.77458
1.79351
1.78502
1.77202
1.75941
1.74734
1.73598
1.72629
1.71787
1.7106
1.70434
1.69888
1.69408
1.68979
1.68577
1.68184
1.67809
1.67458
1.67139
1.66864
1.66653
1.66469
1.66321
1.66319
1.66238
1.66365
1.66344
1.66351
1.66234
1.66218
1.66161
1.66224
1.66013
1.65877
1.656
1.6544
1.65134
1.64862
1.64404
1.64017
1.63626
1.63357
1.63229
1.63215
1.63177
1.6331
1.63207
1.63137
1.6303
1.62983
1.62958
1.6293
1.62939
1.6301
1.63071
1.63069
1.63046
1.62991
1.63035
1.63095
1.6329
1.63593
1.64038
1.6474
1.65744
1.66792
1.6762
1.67857
0.198025
0.198246
0.198182
0.198148
0.198088
0.198007
0.197914
0.197804
0.197687
0.197554
0.197388
0.197255
0.197092
0.196871
0.196712
0.196523
0.196262
0.195999
0.195828
0.195581
0.195223
0.194852
0.194641
0.194409
0.194073
0.193526
0.193001
0.192636
0.19239
0.191998
0.191545
0.190865
0.190206