/*--------------------------------*- C++ -*----------------------------------*\
| =========                 |                                                 |
| \\      /  F ield         | OpenFOAM: The Open Source CFD Toolbox           |
|  \\    /   O peration     | Version:  2.2.x                                 |
|   \\  /    A nd           | Web:      www.OpenFOAM.org                      |
|    \\/     M anipulation  |                                                 |
\*---------------------------------------------------------------------------*/
FoamFile
{
    version     2.0;
    format      ascii;
    class       surfaceScalarField;
    location    "2.95";
    object      cfmax;
}
// * * * * * * * * * * * * * * * * * * * * * * * * * * * * * * * * * * * * * //

dimensions      [0 3 -1 0 0 0 0];

internalField   nonuniform List<scalar> 
28084
(
0.00101422
0.00100982
0.00100605
0.00100287
0.00100027
0.000998202
0.000996646
0.000995564
0.000994922
0.000994683
0.000994811
0.000995269
0.000996019
0.000997026
0.000998253
0.000999664
0.00100123
0.00100291
0.00100467
0.0010065
0.00100835
0.00101021
0.00101205
0.00101385
0.00101558
0.00101724
0.0010188
0.00102024
0.00102156
0.00102275
0.00102379
0.00102467
0.00102539
0.00102594
0.00102631
0.0010265
0.0010265
0.00102631
0.00102592
0.00102532
0.00102416
0.00101757
0.00102471
0.000865902
0.000771192
0.000756802
0.000759886
0.000766266
0.000773854
0.000782148
0.000790741
0.00079935
0.000807814
0.000815974
0.000823483
0.000831286
0.000839453
0.000847725
0.00085565
0.00086288
0.0008693
0.000874889
0.000880562
0.000886447
0.000892118
0.000897042
0.000900848
0.000903154
0.000905001
0.000906964
0.000908831
0.000910122
0.000910199
0.000908724
0.000906102
0.000903498
0.000900928
0.000897969
0.000893956
0.000888516
0.000881758
0.000875148
0.000868715
0.000862079
0.000854659
0.00084605
0.000836692
0.000827776
0.000819245
0.00081077
0.000801852
0.000792151
0.000782755
0.000774279
0.00076643
0.000758876
0.000751197
0.000743816
0.00073771
0.000732741
0.000728672
0.000725079
0.00072215
0.000720833
0.000721039
0.00072255
0.000724959
0.000728512
0.000733957
0.000741164
0.000749816
0.000759625
0.000770981
0.000784188
0.000799218
0.000815428
0.000832362
0.000851058
0.000725948
0.000724383
0.001019
0.000721305
0.0010177
0.000716739
0.00101698
0.00071072
0.00101683
0.000703295
0.00101721
0.000694525
0.0010181
0.000684478
0.00101946
0.000673231
0.00102127
0.000660871
0.00102347
0.000647708
0.00102605
0.000633965
0.00102895
0.000619332
0.00103214
0.00060391
0.00103557
0.000587804
0.00103921
0.000571117
0.00104303
0.00055395
0.00104696
0.000536403
0.001051
0.000518574
0.00105508
0.000500553
0.00105919
0.000482428
0.00106329
0.000464282
0.00106735
0.000446191
0.00107135
0.000428224
0.00107524
0.000410446
0.00107903
0.000392913
0.00108267
0.000375678
0.00108615
0.000358784
0.00108946
0.000342272
0.00109258
0.000326173
0.0010955
0.000310516
0.0010982
0.000295322
0.00110068
0.000280609
0.00110293
0.000266391
0.00110493
0.000252676
0.0011067
0.000239468
0.00110821
0.000226771
0.00110947
0.000214907
0.00111047
0.000203558
0.00111121
0.000192717
0.00111169
0.000182417
0.00111188
0.000173362
0.00111143
0.000181152
0.00110506
0.000378026
0.00111338
0.00047374
0.000941616
0.000503056
0.000838334
0.000508578
0.000821122
0.000509979
0.000823068
0.000510672
0.000828637
0.000511369
0.000835519
0.000512205
0.000843132
0.000513094
0.000850993
0.000514003
0.000858841
0.000514949
0.000866492
0.000515919
0.000873778
0.000516892
0.000880372
0.000518005
0.000887305
0.000519357
0.000894637
0.000520772
0.000902049
0.000522177
0.000909085
0.000523621
0.000915369
0.000525072
0.000920764
0.00052658
0.000925357
0.00052859
0.000930061
0.0005309
0.000935027
0.000533275
0.000939783
0.000535673
0.000943749
0.000538094
0.000946552
0.00054043
0.000947758
0.00054293
0.000948591
0.000545717
0.000949595
0.000548724
0.000950524
0.000551725
0.000950866
0.000554745
0.000949959
0.000557709
0.000947425
0.000560715
0.00094379
0.000563971
0.000940237
0.00056752
0.000936749
0.0005711
0.000932877
0.000574682
0.000927927
0.000578214
0.000921492
0.000581746
0.000913791
0.000585525
0.000906277
0.000589585
0.00089899
0.000593698
0.000891519
0.000597805
0.000883241
0.000601844
0.000873721
0.000605931
0.000863494
0.000610274
0.000853766
0.000614853
0.000844457
0.00061946
0.000835214
0.000624062
0.000825507
0.000628608
0.000814987
0.000633339
0.000804804
0.000638313
0.000795566
0.000643409
0.000786963
0.000648532
0.000778663
0.000653639
0.000770228
0.00065886
0.000762083
0.000664335
0.000755225
0.000669979
0.000749505
0.000675675
0.000744676
0.000681388
0.000740308
0.000687214
0.000736591
0.000693297
0.000734486
0.000699561
0.000733899
0.000705916
0.000734597
0.000712336
0.000736168
0.000718938
0.000738862
0.000725791
0.000743412
0.000732827
0.000749688
0.000740007
0.000757385
0.000747391
0.000766216
0.000755101
0.00077655
0.000763212
0.000788662
0.000771596
0.000802458
0.000780373
0.000817332
0.000789102
0.000832909
0.000800417
0.000850219
0.000727518
0.000725435
0.00102538
0.000721855
0.00102714
0.000716807
0.00102944
0.000710328
0.00103227
0.00070247
0.00103561
0.000693293
0.00103941
0.00068411
0.00104366
0.000673966
0.00104832
0.000662613
0.00105334
0.000650141
0.0010587
0.000636646
0.00106434
0.000622226
0.00107023
0.000606984
0.00107632
0.000591024
0.00108257
0.000574449
0.00108893
0.000557362
0.00109538
0.000539866
0.00110185
0.000522057
0.00110832
0.000504029
0.00111475
0.000485871
0.0011211
0.000467668
0.00112734
0.000449498
0.00113344
0.000431432
0.00113938
0.000413536
0.00114512
0.00039587
0.00115065
0.000378486
0.00115594
0.000361431
0.00116099
0.000344746
0.00116576
0.000328465
0.00117026
0.000312617
0.00117446
0.000297225
0.00117836
0.000282308
0.00118196
0.00026788
0.00118524
0.000253952
0.0011882
0.000240528
0.00119084
0.000227611
0.00119316
0.0002152
0.00119515
0.000203293
0.00119681
0.000192515
0.00119814
0.000182444
0.00119912
0.000173609
0.00119937
0.000181718
0.00119313
0.000380265
0.00120302
0.000476185
0.00101825
0.000504365
0.000906622
0.000509827
0.000886544
0.000511271
0.000887283
0.000511977
0.00089199
0.00051266
0.000898135
0.000513468
0.000905042
0.000514319
0.000912147
0.000515182
0.000919216
0.000516067
0.000926029
0.000516956
0.00093241
0.000517823
0.000938107
0.000518819
0.000944179
0.000520054
0.000950689
0.000521341
0.000957245
0.000522612
0.000963385
0.000523901
0.000968714
0.000525523
0.000973078
0.000527466
0.000976684
0.000529641
0.000980452
0.000532134
0.000984511
0.000534694
0.000988351
0.000537288
0.000991341
0.000539926
0.000993127
0.000542457
0.000993233
0.000545155
0.00099307
0.000548151
0.000993124
0.000551372
0.000993118
0.000554583
0.000992494
0.000557823
0.000990585
0.00056099
0.000986973
0.000564188
0.000982327
0.000567639
0.00097783
0.000571384
0.000973422
0.000575154
0.000968621
0.000578919
0.000962707
0.000582616
0.000955249
0.00058629
0.000946599
0.000590202
0.000938182
0.0005944
0.000930021
0.000598629
0.000921688
0.00060284
0.000912521
0.000606954
0.000902061
0.000611093
0.000890948
0.000615485
0.000880395
0.000620102
0.000870281
0.000624727
0.000860234
0.000629332
0.000849702
0.000633853
0.000838333
0.000638546
0.000827356
0.000643479
0.000817339
0.000648524
0.000807964
0.000653578
0.00079888
0.000658609
0.000789646
0.000663761
0.000780714
0.000669169
0.000773076
0.000674746
0.000766572
0.000680383
0.000760943
0.000686056
0.000755766
0.000691866
0.000751233
0.00069795
0.000748293
0.000704235
0.000746845
0.000710655
0.000746667
0.0007172
0.00074734
0.000723993
0.000749123
0.000731093
0.000752727
0.000738457
0.000758011
0.000746057
0.000764664
0.000753986
0.000772465
0.000762379
0.000781795
0.000771328
0.000792936
0.000780708
0.000805676
0.000790852
0.000819463
0.000800947
0.000834073
0.000813626
0.000850403
0.000726435
0.000723869
0.00103336
0.000719821
0.00103813
0.000714321
0.00104342
0.000709324
0.00104919
0.000703669
0.00105543
0.000696559
0.00106212
0.000688055
0.00106922
0.000678229
0.00107669
0.00066716
0.00108449
0.000654937
0.00109259
0.000641654
0.00110094
0.000627409
0.0011095
0.000612305
0.00111821
0.000596445
0.00112703
0.000579936
0.00113592
0.00056288
0.00114483
0.000545381
0.00115372
0.000527537
0.00116254
0.000509444
0.00117126
0.000491194
0.00117983
0.000472873
0.00118822
0.000454561
0.00119641
0.000436331
0.00120436
0.000418253
0.00121204
0.000400386
0.00121943
0.000382788
0.00122651
0.000365505
0.00123326
0.00034858
0.00123967
0.00033205
0.00124573
0.000315945
0.00125141
0.00030029
0.00125672
0.000285105
0.00126165
0.000270405
0.00126619
0.0002562
0.00127034
0.000242498
0.00127409
0.000229302
0.00127745
0.000216611
0.00128042
0.000204422
0.00128299
0.000192733
0.00128516
0.000181849
0.00128692
0.000173241
0.00128787
0.000181019
0.00128164
0.000381094
0.00129367
0.000478304
0.00109582
0.00050509
0.000976226
0.000510577
0.000953365
0.0005121
0.000952909
0.000512863
0.000956722
0.000513571
0.000962081
0.000514369
0.000968235
0.000515179
0.000974558
0.000515976
0.000980825
0.000516782
0.000986782
0.000517568
0.000992224
0.000518339
0.000997054
0.000519259
0.00100228
0.000520387
0.00100799
0.000521529
0.00101372
0.000522638
0.00101895
0.000524546
0.00102332
0.000526591
0.00102664
0.000528709
0.0010293
0.000531106
0.00103218
0.000533788
0.00103536
0.000536513
0.00103829
0.00053928
0.00104027
0.000542078
0.00104102
0.000544792
0.00104002
0.000547724
0.00103891
0.000550957
0.00103805
0.000554383
0.00103713
0.000557788
0.00103553
0.00056122
0.0010326
0.000564558
0.00102787
0.000567977
0.00102223
0.000571663
0.00101683
0.00057561
0.00101152
0.000579553
0.00100578
0.000583483
0.000998881
0.000587314
0.000990362
0.000591164
0.00098076
0.000595252
0.000971463
0.000599592
0.000962422
0.000603925
0.0009532
0.000608221
0.000943109
0.000612392
0.000931682
0.000616618
0.000919678
0.000621086
0.00090829
0.000625737
0.000897339
0.000630366
0.000886447
0.000634946
0.000875047
0.000639426
0.0008628
0.000644095
0.000851012
0.000648981
0.000840183
0.000653964
0.000829986
0.000658957
0.000820052
0.000663918
0.000809953
0.000669002
0.000800187
0.000674345
0.000791713
0.000679855
0.000784365
0.000685437
0.000777887
0.00069108
0.000771846
0.000696899
0.000766455
0.000703008
0.000762654
0.000709335
0.000760312
0.00071584
0.000759211
0.00072252
0.000758949
0.00072952
0.000759802
0.000736889
0.000762451
0.000744608
0.000766722
0.000752673
0.000772302
0.000761184
0.000779024
0.000770263
0.000787292
0.000780056
0.000797409
0.000790422
0.000809083
0.000801884
0.000821795
0.000813431
0.000835466
0.000827102
0.000850821
0.00072274
0.000721166
0.00104295
0.000720569
0.00105069
0.000718387
0.0010589
0.000714642
0.00106757
0.000709367
0.00107668
0.00070261
0.0010862
0.000694429
0.0010961
0.000684891
0.00110634
0.000674076
0.00111688
0.000662068
0.00112769
0.000648961
0.00113871
0.000634853
0.00114989
0.000619846
0.00116118
0.000604045
0.00117254
0.000587554
0.00118392
0.00057048
0.00119526
0.000552926
0.00120653
0.000534993
0.00121767
0.000516779
0.00122864
0.000498377
0.00123941
0.000479877
0.00124992
0.00046136
0.00126016
0.000442903
0.00127009
0.000424577
0.00127968
0.000406446
0.00128891
0.000388566
0.00129775
0.000370989
0.00130619
0.000353759
0.00131421
0.000336914
0.0013218
0.000320487
0.00132895
0.000304504
0.00133564
0.000288987
0.00134188
0.000273951
0.00134766
0.000259409
0.00135298
0.000245369
0.00135783
0.000231834
0.00136222
0.000218804
0.00136614
0.000206278
0.0013696
0.000194252
0.00137261
0.000182753
0.00137513
0.000172363
0.00137678
0.000178729
0.00137055
0.000379722
0.00138487
0.000479549
0.00117417
0.000505933
0.00104604
0.000511247
0.00102021
0.000512734
0.00101855
0.000513496
0.00102154
0.000514194
0.00102621
0.000514978
0.00103171
0.00051575
0.00103733
0.000516492
0.00104287
0.000517225
0.00104805
0.000517926
0.00105257
0.000518589
0.00105655
0.000519382
0.00106096
0.000520381
0.00106591
0.000521718
0.00107084
0.00052383
0.0010752
0.000526016
0.00107865
0.000528194
0.00108089
0.000530464
0.00108259
0.000533045
0.00108461
0.000535929
0.00108697
0.000538845
0.00108902
0.000541804
0.00109001
0.000544779
0.0010897
0.000547682
0.00108757
0.000550807
0.00108556
0.000554269
0.00108384
0.000557911
0.00108205
0.000561542
0.00107951
0.000565178
0.00107556
0.000568686
0.00106964
0.000572304
0.00106306
0.000576201
0.0010568
0.000580356
0.00105062
0.000584493
0.00104398
0.000588602
0.0010361
0.000592584
0.00102649
0.000596581
0.00101595
0.000600817
0.00100582
0.000605287
0.000995909
0.000609733
0.000985793
0.000614114
0.000974763
0.000618349
0.000962352
0.000622632
0.000949489
0.000627143
0.000937275
0.000631818
0.000925468
0.000636452
0.000913693
0.000641006
0.000901389
0.000645441
0.000888245
0.000650075
0.000875641
0.000654924
0.000863956
0.000659857
0.00085289
0.000664782
0.000842044
0.000669662
0.00083103
0.000674674
0.000820427
0.000679931
0.000811098
0.000685365
0.000802843
0.000690888
0.00079545
0.000696494
0.000788479
0.000702309
0.000782221
0.000708444
0.000777541
0.000714824
0.000774275
0.000721432
0.000772219
0.000728271
0.000770988
0.000735505
0.000770906
0.000743168
0.000772618
0.000751258
0.000775903
0.00075979
0.000780433
0.000768896
0.000786083
0.00077869
0.000793284
0.000789356
0.000802346
0.00080071
0.000812954
0.00081341
0.000824571
0.000826415
0.00083725
0.000840919
0.00085148
0.000726371
0.00072778
0.00105414
0.00072759
0.00106479
0.000725803
0.00107588
0.000722434
0.0010874
0.000717514
0.00109932
0.000711084
0.00111162
0.000703198
0.00112428
0.000693921
0.00113725
0.000683329
0.00115049
0.000671505
0.00116395
0.00065854
0.00117759
0.000644532
0.00119135
0.000629582
0.00120519
0.000613796
0.00121905
0.000597278
0.00123287
0.000580136
0.00124661
0.000562476
0.00126021
0.0005444
0.00127363
0.000526008
0.00128683
0.000507397
0.00129974
0.000488657
0.00131235
0.000469874
0.00132461
0.000451127
0.00133649
0.00043249
0.00134796
0.000414028
0.00135899
0.000395803
0.00136957
0.000377866
0.00137966
0.000360266
0.00138927
0.000343041
0.00139836
0.000326228
0.00140695
0.000309853
0.001415
0.00029394
0.00142253
0.000278507
0.00142953
0.000263567
0.00143599
0.000249128
0.00144192
0.000235196
0.00144732
0.000221771
0.00145219
0.000208851
0.00145653
0.000196434
0.00146035
0.000184541
0.00146363
0.000173678
0.00146597
0.000175804
0.00145972
0.000377609
0.00147649
0.000480662
0.00125327
0.000506733
0.00111589
0.00051193
0.00108674
0.000513392
0.00108362
0.000514167
0.00108567
0.000514892
0.00108962
0.000515686
0.00109438
0.000516443
0.0010992
0.000517158
0.00110387
0.000517849
0.00110808
0.000518463
0.00111148
0.000519044
0.00111454
0.000519757
0.0011181
0.000520931
0.00112217
0.000523057
0.00112614
0.000525265
0.00112944
0.000527571
0.0011318
0.000529866
0.00113279
0.000532294
0.00113354
0.000535051
0.00113472
0.000538084
0.00113616
0.000541138
0.00113721
0.000544258
0.0011371
0.000547403
0.00113558
0.000550489
0.00113239
0.000553817
0.00112945
0.00055749
0.00112687
0.00056132
0.00112416
0.000565147
0.0011206
0.00056898
0.00111558
0.000572662
0.00110845
0.000576495
0.00110095
0.000580623
0.00109387
0.000584992
0.00108685
0.000589324
0.0010793
0.000593608
0.00107045
0.000597737
0.00105973
0.000601925
0.00104831
0.000606361
0.00103742
0.000611018
0.00102676
0.000615616
0.00101586
0.000620105
0.00100396
0.000624412
0.000990556
0.000628804
0.000976959
0.000633433
0.000964105
0.0006382
0.000951654
0.000642868
0.000939167
0.000647412
0.000926066
0.000651837
0.000912105
0.000656473
0.000898895
0.000661308
0.000886628
0.000666185
0.000874972
0.000671021
0.000863431
0.000675808
0.00085164
0.00068076
0.000840352
0.000685962
0.000830361
0.000691319
0.000821427
0.000696765
0.000813243
0.0007023
0.000805431
0.000708097
0.000798368
0.000714239
0.000792841
0.000720672
0.000788696
0.0007274
0.000785638
0.00073442
0.000783366
0.000741895
0.000782324
0.000749857
0.000783071
0.000758335
0.000785363
0.000767351
0.000788861
0.000777071
0.000793452
0.000787593
0.000799593
0.000799141
0.000807589
0.00081151
0.000817111
0.000825424
0.000827622
0.000839884
0.000839233
0.000855207
0.000852262
0.00073512
0.000736911
0.00106696
0.000737099
0.00108046
0.00073568
0.00109436
0.000732663
0.00110867
0.000728072
0.00112335
0.000721944
0.00113838
0.000714328
0.00115374
0.000705284
0.00116938
0.000694886
0.00118526
0.000683214
0.00120134
0.000670358
0.00121755
0.000656413
0.00123385
0.000641481
0.00125018
0.000625667
0.00126649
0.000609077
0.00128271
0.00059182
0.0012988
0.000574003
0.0013147
0.000555731
0.00133036
0.000537106
0.00134573
0.000518228
0.00136076
0.000499189
0.00137542
0.000480079
0.00138966
0.00046098
0.00140345
0.000441968
0.00141677
0.000423113
0.00142957
0.000404477
0.00144184
0.000386117
0.00145357
0.000368081
0.00146472
0.000350413
0.0014753
0.000333149
0.00148529
0.00031632
0.00149469
0.00029995
0.00150348
0.000284058
0.00151167
0.000268659
0.00151926
0.000253763
0.00152625
0.000239376
0.00153264
0.000225499
0.00153843
0.00021213
0.00154364
0.000199268
0.00154826
0.000186929
0.00155227
0.00017554
0.0015553
0.000172386
0.00154901
0.000374895
0.00156855
0.000481885
0.0013332
0.000507317
0.00118594
0.000512385
0.00115301
0.000513849
0.00114832
0.000514622
0.00114938
0.00051534
0.00115262
0.000516106
0.00115667
0.000516808
0.00116073
0.000517447
0.00116458
0.000518021
0.00116793
0.000518485
0.00117028
0.000519129
0.00117252
0.000521035
0.00117532
0.000523216
0.00117863
0.000525451
0.00118176
0.000527791
0.0011841
0.000530236
0.00118546
0.000532633
0.00118532
0.000535224
0.00118515
0.000538162
0.00118548
0.000541353
0.00118602
0.000544572
0.00118607
0.000547873
0.00118486
0.000551177
0.00118207
0.000554462
0.0011779
0.000558004
0.00117398
0.000561904
0.00117046
0.000565918
0.00116678
0.000569946
0.00116214
0.000573975
0.00115597
0.000577842
0.00114761
0.000581905
0.00113915
0.000586271
0.00113117
0.000590838
0.00112322
0.000595351
0.00111465
0.000599802
0.00110472
0.000604068
0.00109278
0.000608436
0.00108048
0.000613053
0.00106876
0.000617837
0.00105725
0.000622527
0.0010454
0.000627085
0.00103251
0.000631419
0.00101803
0.000635879
0.0010037
0.000640548
0.00099018
0.000645279
0.000976989
0.000649889
0.000963648
0.000654337
0.000949613
0.000658686
0.000934843
0.000663258
0.000921018
0.000668071
0.000908135
0.000672883
0.000895839
0.000677626
0.000883571
0.00068229
0.000870996
0.000687147
0.000859142
0.000692282
0.000848618
0.000697577
0.000839123
0.000702961
0.000830246
0.000708437
0.000821639
0.00071423
0.0008139
0.00072041
0.000807729
0.000726934
0.000802923
0.000733777
0.000799082
0.00074096
0.000795934
0.000748678
0.000793963
0.000756939
0.000793692
0.000765811
0.000794946
0.000775315
0.000797385
0.000785655
0.000800902
0.000796899
0.000805971
0.000809329
0.000812872
0.000822741
0.000821251
0.000837877
0.000830629
0.000853808
0.000841145
0.000869996
0.000852885
0.000746369
0.000748512
0.0010814
0.000749051
0.00109768
0.000747974
0.00111434
0.000745285
0.00113137
0.000740999
0.00114875
0.000735149
0.00116646
0.000727778
0.00118446
0.000718942
0.00120272
0.00070871
0.00122119
0.00069716
0.00123981
0.000684379
0.00125855
0.000670462
0.00127733
0.000655509
0.0012961
0.000639626
0.00131481
0.00062292
0.00133338
0.0006055
0.00135177
0.000587476
0.00136992
0.000568956
0.00138777
0.000550043
0.00140527
0.000530841
0.00142238
0.000511445
0.00143904
0.000491948
0.00145522
0.000472436
0.00147089
0.000452987
0.001486
0.000433675
0.00150054
0.000414566
0.00151448
0.000395718
0.00152779
0.000377184
0.00154047
0.00035901
0.0015525
0.000341233
0.00156386
0.000323887
0.00157456
0.000306998
0.0015846
0.000290587
0.00159396
0.000274671
0.00160265
0.000259259
0.00161067
0.00024436
0.00161803
0.000229975
0.00162473
0.000216104
0.00163078
0.000202743
0.00163618
0.000189906
0.00164092
0.000177917
0.00164464
0.000171133
0.0016382
0.000371196
0.00166131
0.000483289
0.00141415
0.000507331
0.00125693
0.00051245
0.00122001
0.000513924
0.00121375
0.000514692
0.00121391
0.000515431
0.00121645
0.000516183
0.00121977
0.000516843
0.00122305
0.00051741
0.00122606
0.000518318
0.00122854
0.000519825
0.00122988
0.000521512
0.00123132
0.000523544
0.00123339
0.000525821
0.00123591
0.000528153
0.00123817
0.000530608
0.00123955
0.000533175
0.0012399
0.000535705
0.00123868
0.000538479
0.00123768
0.000541593
0.00123717
0.000544925
0.00123685
0.000548288
0.00123592
0.000551749
0.00123362
0.00055521
0.00122961
0.000558717
0.00122448
0.000562505
0.00121965
0.000566622
0.00121521
0.000570817
0.00121055
0.000575031
0.00120476
0.00057925
0.00119742
0.000583312
0.00118789
0.000587642
0.00117858
0.000592254
0.00116967
0.000597013
0.00116074
0.000601717
0.00115107
0.000606352
0.00113998
0.000610744
0.00112684
0.000615302
0.00111369
0.000620116
0.00110112
0.000625039
0.0010887
0.000629845
0.00107581
0.000634471
0.0010618
0.000638838
0.00104621
0.000643383
0.0010311
0.000648113
0.00101677
0.000652848
0.00100272
0.000657443
0.000988418
0.00066182
0.000973265
0.000666127
0.000957683
0.000670663
0.000943099
0.000675368
0.000929441
0.000680043
0.00091632
0.000684629
0.000903134
0.000689103
0.000889591
0.000693857
0.000877112
0.00069891
0.000866018
0.000704129
0.000855916
0.000709448
0.000846312
0.000714843
0.000836878
0.000720594
0.000828514
0.0007268
0.000821762
0.000733407
0.00081635
0.000740404
0.000811793
0.000747821
0.000807853
0.000755832
0.000805149
0.000764424
0.000804106
0.000773692
0.000804529
0.000783682
0.000805958
0.000794641
0.000808378
0.000806582
0.000812361
0.000819869
0.000818144
0.000834341
0.000825341
0.000850702
0.000833563
0.000868119
0.000842925
0.000885177
0.000853491
0.000760067
0.000762533
0.00109748
0.000763397
0.00111648
0.000762639
0.00113582
0.000760254
0.00115551
0.000756252
0.00117552
0.000750656
0.00119583
0.000743506
0.00121641
0.000734852
0.00123722
0.000724759
0.00125822
0.000713301
0.00127934
0.000700564
0.00130053
0.000686639
0.00132174
0.000671628
0.0013429
0.000655635
0.00136395
0.00063877
0.00138482
0.000621141
0.00140546
0.000602862
0.0014258
0.000584041
0.00144579
0.000564787
0.00146537
0.000545205
0.0014845
0.000525395
0.00150312
0.000505452
0.0015212
0.000485466
0.00153869
0.00046552
0.00155557
0.000445689
0.0015718
0.000426044
0.00158736
0.000406647
0.00160223
0.000387552
0.00161639
0.000368808
0.00162983
0.000350457
0.00164254
0.000332533
0.00165452
0.000315065
0.00166576
0.000298076
0.00167626
0.000281584
0.00168602
0.0002656
0.00169506
0.000250133
0.00170336
0.000235186
0.00171095
0.000220758
0.00171782
0.000206847
0.00172398
0.00019346
0.00172944
0.000180786
0.00173385
0.000169327
0.00172721
0.00036471
0.00175471
0.000484132
0.00149615
0.000506984
0.00132879
0.000512137
0.00128759
0.000513777
0.00127978
0.00051467
0.00127914
0.000515643
0.00128106
0.000516742
0.00128368
0.000517951
0.00128622
0.000519319
0.0012884
0.000520839
0.00128998
0.000522406
0.0012903
0.000524203
0.00129096
0.000526361
0.00129231
0.000528733
0.00129406
0.00053117
0.00129543
0.000533739
0.00129582
0.000536403
0.00129509
0.00053909
0.00129285
0.000542033
0.00129101
0.00054533
0.0012897
0.000548818
0.00128851
0.00055236
0.00128661
0.000555998
0.0012833
0.000559616
0.00127805
0.000563342
0.00127198
0.000567357
0.00126635
0.000571719
0.00126106
0.000576126
0.00125545
0.000580555
0.00124857
0.000584937
0.00124002
0.000589253
0.00122944
0.000593809
0.00121929
0.000598687
0.00120956
0.000603666
0.00119971
0.000608574
0.00118896
0.000613353
0.00117672
0.000617928
0.00116239
0.000622698
0.0011484
0.00062771
0.00113503
0.000632768
0.00112168
0.000637674
0.00110772
0.000642354
0.00109257
0.000646814
0.00107586
0.000651441
0.00105986
0.000656234
0.00104459
0.00066097
0.00102958
0.000665529
0.00101418
0.000669849
0.000997782
0.000674126
0.000981178
0.000678605
0.000965716
0.000683201
0.000951161
0.000687718
0.000937077
0.000692126
0.00092288
0.000696447
0.000908345
0.000701063
0.000895114
0.000705978
0.000883251
0.000711029
0.000872378
0.00071619
0.000861913
0.000721462
0.000851569
0.000727222
0.000842524
0.000733451
0.000835125
0.000740114
0.000829037
0.000747233
0.000823714
0.000754822
0.000818979
0.000763117
0.000815591
0.000772098
0.000813844
0.000781878
0.000813516
0.000792464
0.000814095
0.000804011
0.000815669
0.000816603
0.00081868
0.000830708
0.000823367
0.000846244
0.000829315
0.000863826
0.000836379
0.000882642
0.000844539
0.0009006
0.000853964
0.000776156
0.000778919
0.00111522
0.000780084
0.00113685
0.000779622
0.0011588
0.00077752
0.00118107
0.000773779
0.00120364
0.000768417
0.00122649
0.000761465
0.00124958
0.000752969
0.00127288
0.000742988
0.00129633
0.000731594
0.00131988
0.000718869
0.00134347
0.000704903
0.00136704
0.000689797
0.00139052
0.000673655
0.00141385
0.000656587
0.00143696
0.000638704
0.00145978
0.000620121
0.00148226
0.00060095
0.00150434
0.000581302
0.00152595
0.000561286
0.00154704
0.000541005
0.00156757
0.000520558
0.0015875
0.000500039
0.00160677
0.000479535
0.00162536
0.000459125
0.00164324
0.000438883
0.00166038
0.000418875
0.00167676
0.000399158
0.00169236
0.000379784
0.00170718
0.000360798
0.0017212
0.000342237
0.00173442
0.000324131
0.00174683
0.000306506
0.00175844
0.000289381
0.00176925
0.000272769
0.00177927
0.000256679
0.00178849
0.000241116
0.00179694
0.00022608
0.00180461
0.000211568
0.00181152
0.00019758
0.00181767
0.000184181
0.00182276
0.000167795
0.00181606
0.000355215
0.00184823
0.000484208
0.00157907
0.000506567
0.00140043
0.000514394
0.00135412
0.000516303
0.00134463
0.000517282
0.00134306
0.000518292
0.00134423
0.000519399
0.00134604
0.000520633
0.00134774
0.000522043
0.00134903
0.000523627
0.00134966
0.0005253
0.00134904
0.00052721
0.00134886
0.000529452
0.00134936
0.00053188
0.00135022
0.000534397
0.00135061
0.000537076
0.00134998
0.00053988
0.00134821
0.000542741
0.00134505
0.000545857
0.00134226
0.000549311
0.00134001
0.000552921
0.00133779
0.00055661
0.00133481
0.000560414
0.00133042
0.000564197
0.00132407
0.000568161
0.00131706
0.000572434
0.00131048
0.000576995
0.00130421
0.000581581
0.00129758
0.000586208
0.00128961
0.000590789
0.00127987
0.00059536
0.00126837
0.00060019
0.00125728
0.000605326
0.00124665
0.000610505
0.00123591
0.000615614
0.00122415
0.000620591
0.00121087
0.000625391
0.00119552
0.000630397
0.00118071
0.000635627
0.0011665
0.000640848
0.00115239
0.000645888
0.00113757
0.000650689
0.00112141
0.000655299
0.00110387
0.000660057
0.0010871
0.000664951
0.00107113
0.000669747
0.00105548
0.000674327
0.00103934
0.0006786
0.0010221
0.000682839
0.00100474
0.000687214
0.000988598
0.000691636
0.00097328
0.000695945
0.00095834
0.00070013
0.000943147
0.00070432
0.000927659
0.000708784
0.000913563
0.000713499
0.000900819
0.000718337
0.000889045
0.000723306
0.00087765
0.000728482
0.000866423
0.000734179
0.000856624
0.000740389
0.000848415
0.00074705
0.00084148
0.000754224
0.000835254
0.000761964
0.000829686
0.000770539
0.000825618
0.000779907
0.00082313
0.000790174
0.000821995
0.000801351
0.000821675
0.000813619
0.000822416
0.000826937
0.000824594
0.000841821
0.00082833
0.000858407
0.000833095
0.000877194
0.000838958
0.000897261
0.000846008
0.000916116
0.000854324
0.000794575
0.00079761
0.00113463
0.000799053
0.00115881
0.000798867
0.00118329
0.000797028
0.00120806
0.000793529
0.00123311
0.00078838
0.00125842
0.000781604
0.00128395
0.000773242
0.00130966
0.000763349
0.00133549
0.000751991
0.0013614
0.000739247
0.00138731
0.000725207
0.00141317
0.00070997
0.00143891
0.00069364
0.00146445
0.000676328
0.00148974
0.000658147
0.00151469
0.000639213
0.00153924
0.000619642
0.00156334
0.000599549
0.00158692
0.000579045
0.00160993
0.000558237
0.00163231
0.00053723
0.00165402
0.00051612
0.00167502
0.000494999
0.00169528
0.000473951
0.00171475
0.000453052
0.00173342
0.000432373
0.00175127
0.000411974
0.00176828
0.000391911
0.00178443
0.000372231
0.00179972
0.000352974
0.00181414
0.000334173
0.00182769
0.000315855
0.00184038
0.000298041
0.00185221
0.000280746
0.00186317
0.00026398
0.00187329
0.000247749
0.00188257
0.000232054
0.00189102
0.000216892
0.00189865
0.000202251
0.00190547
0.000188063
0.00191134
0.000167059
0.00190341
0.000344172
0.00194326
0.000484245
0.00166291
0.000507949
0.00147308
0.000517393
0.00142084
0.000519449
0.00140957
0.000520516
0.00140714
0.000521581
0.00140757
0.000522719
0.00140862
0.000523991
0.00140954
0.00052545
0.00141003
0.000527092
0.00140982
0.000528837
0.00140844
0.000530841
0.00140756
0.000533211
0.00140728
0.000535749
0.00140722
0.000538381
0.00140662
0.00054117
0.00140499
0.000544095
0.00140223
0.000547114
0.00139822
0.000550406
0.00139456
0.00055405
0.00139142
0.000557832
0.00138817
0.000561709
0.00138403
0.000565709
0.0013785
0.000569715
0.00137106
0.000573886
0.00136312
0.000578363
0.00135561
0.000583148
0.00134834
0.000587979
0.00134062
0.000592863
0.0013315
0.00059773
0.00132057
0.000602569
0.00130816
0.000607604
0.00129606
0.000612953
0.00128441
0.000618363
0.00127266
0.000623721
0.00125984
0.000628948
0.00124546
0.000634012
0.00122914
0.000639182
0.00121336
0.000644539
0.00119818
0.000649876
0.00118309
0.000655039
0.00116729
0.000659949
0.00115013
0.000664661
0.00113171
0.000669416
0.00111405
0.000674312
0.00109718
0.000679072
0.00108064
0.000683578
0.00106364
0.000687793
0.00104556
0.000692004
0.00102751
0.000696305
0.00101066
0.000700594
0.000994637
0.000704745
0.000978977
0.000708761
0.000963047
0.000712789
0.000946912
0.000717059
0.000932067
0.000721513
0.00091844
0.000726098
0.000905728
0.000730849
0.000893393
0.000735905
0.000881336
0.000741505
0.000870775
0.000747621
0.000861704
0.000754218
0.000853815
0.000761404
0.000846608
0.000769295
0.000840207
0.00077812
0.000835385
0.000787835
0.000832113
0.000798558
0.000830034
0.000810297
0.000828769
0.000823279
0.000828695
0.000837385
0.000830067
0.0008532
0.00083285
0.000870775
0.00083656
0.000890696
0.000841362
0.000911846
0.000847428
0.000931554
0.00085465
0.000815258
0.000818541
0.00115573
0.000820243
0.00118238
0.000820312
0.00120929
0.000818718
0.00123648
0.000815442
0.00126393
0.000810486
0.00129161
0.000803867
0.00131949
0.000795618
0.00134753
0.000785787
0.00137568
0.000774438
0.00140386
0.000761647
0.00143203
0.000747501
0.00146011
0.000732098
0.00148803
0.000715542
0.00151571
0.000697945
0.0015431