/*--------------------------------*- C++ -*----------------------------------*\
| =========                 |                                                 |
| \\      /  F ield         | OpenFOAM: The Open Source CFD Toolbox           |
|  \\    /   O peration     | Version:  2.2.x                                 |
|   \\  /    A nd           | Web:      www.OpenFOAM.org                      |
|    \\/     M anipulation  |                                                 |
\*---------------------------------------------------------------------------*/
FoamFile
{
    version     2.0;
    format      ascii;
    class       volScalarField;
    location    "2.95";
    object      T;
}
// * * * * * * * * * * * * * * * * * * * * * * * * * * * * * * * * * * * * * //

dimensions      [0 0 0 1 0 0 0];

internalField   nonuniform List<scalar> 
14161
(
1
1
1
1
1
1
1
1
1
1
1
1
1
1
1
1
1
1
1
1
1
1
1
1
1
1
1
1
1
1
1
1
1
1
1
1
1
1
1
1.00003
1.00056
1.01004
1.23413
6.0575
10.7036
12.0584
12.3381
12.4038
12.4245
12.4394
12.458
12.4786
12.4965
12.5121
12.5261
12.5356
12.5452
12.5629
12.5848
12.6022
12.6174
12.63
12.6361
12.6456
12.6641
12.6858
12.7024
12.7162
12.7244
12.7298
12.7418
12.7632
12.7822
12.7976
12.8084
12.8119
12.8211
12.8396
12.8597
12.8758
12.8873
12.8907
12.8999
12.9172
12.9364
12.9518
12.9624
12.9671
12.9778
12.9956
13.0128
13.0262
13.0337
13.0411
13.0555
13.0731
13.0874
13.0973
13.1038
13.1158
13.1317
13.1455
13.1552
13.1617
13.1726
13.1861
13.1977
13.2052
13.2111
13.2206
13.2309
13.2392
13.2451
13.2526
13.264
13.2765
13.2857
13.2905
13.297
1
1
1
1
1
1
1
1
1
1
1
1
1
1
1
1
1
1
1
1
1
1
1
1
1
1
1
1
1
1
1
1
1
1
1
1
1
1
1
1.00003
1.00056
1.01006
1.23532
6.05673
10.7059
12.0653
12.3467
12.4126
12.4331
12.4477
12.4663
12.4864
12.5039
12.5193
12.5331
12.5421
12.5519
12.5701
12.5921
12.6095
12.6247
12.6369
12.6427
12.6522
12.6711
12.693
12.7097
12.7233
12.731
12.7363
12.7487
12.7702
12.7891
12.8044
12.8148
12.8182
12.8275
12.8463
12.8663
12.8821
12.8933
12.8965
12.9057
12.9232
12.9424
12.9576
12.9677
12.9721
12.9828
13.0006
13.0177
13.031
13.0382
13.0455
13.0596
13.0768
13.0909
13.1005
13.1071
13.119
13.1346
13.1482
13.1577
13.1639
13.1746
13.1879
13.1992
13.2064
13.2119
13.2208
13.2307
13.239
13.245
13.2527
13.264
13.2758
13.2841
13.2884
13.2947
1
1
1
1
1
1
1
1
1
1
1
1
1
1
1
1
1
1
1
1
1
1
1
1
1
1
1
1
1
1
1
1
1
1
1
1
1
1
1
1.00003
1.00054
1.0096
1.22403
6.01934
10.695
12.0632
12.3463
12.4123
12.4329
12.448
12.467
12.487
12.5043
12.5198
12.5335
12.5419
12.5522
12.5711
12.593
12.6104
12.6254
12.6373
12.6428
12.6527
12.6722
12.694
12.7107
12.7244
12.7313
12.7368
12.7497
12.7716
12.7903
12.8054
12.8154
12.8189
12.8286
12.8478
12.8676
12.8833
12.8942
12.8974
12.9068
12.9247
12.9439
12.9589
12.9686
12.973
12.9838
13.0019
13.0191
13.0323
13.0393
13.0466
13.0606
13.0776
13.0916
13.1011
13.1077
13.1198
13.1353
13.1487
13.1581
13.1645
13.1752
13.1883
13.1995
13.2067
13.2122
13.2208
13.2301
13.2376
13.2432
13.2513
13.2622
13.2726
13.2795
13.2829
13.2872
1
1
1
1
1
1
1
1
1
1
1
1
1
1
1
1
1
1
1
1
1
1
1
1
1
1
1
1
1
1
1
1
1
1
1
1
1
1
1
1.00003
1.0005
1.00862
1.19964
5.94324
10.6698
12.0511
12.3373
12.4037
12.4249
12.4406
12.4606
12.481
12.4984
12.5142
12.5277
12.5358
12.5468
12.5664
12.5882
12.6053
12.6201
12.6315
12.6371
12.6475
12.6678
12.6892
12.7059
12.7196
12.7255
12.7315
12.7453
12.7676
12.7861
12.8011
12.8104
12.8142
12.8244
12.8443
12.864
12.8796
12.89
12.8935
12.9033
12.9218
12.9409
12.9559
12.9653
12.97
12.9812
12.9996
13.0166
13.0297
13.0366
13.0443
13.0586
13.0754
13.0894
13.0989
13.1058
13.118
13.1337
13.1473
13.1569
13.1637
13.1748
13.1879
13.199
13.2063
13.2123
13.221
13.2297
13.2361
13.2409
13.2485
13.259
13.2681
13.2734
13.2757
13.2782
1
1
1
1
1
1
1
1
1
1
1
1
1
1
1
1
1
1
1
1
1
1
1
1
1
1
1
1
1
1
1
1
1
1
1
1
1
1
1
1.00003
1.00045
1.00754
1.1724
5.85296
10.6419
12.0403
12.3305
12.3973
12.4184
12.4343
12.4546
12.4748
12.4921
12.5078
12.521
12.5291
12.5405
12.5612
12.5831
12.6003
12.6151
12.626
12.6318
12.643
12.6646
12.6857
12.7023
12.7159
12.7205
12.727
12.742
12.7648
12.783
12.7977
12.8058
12.8099
12.8206
12.8412
12.8604
12.8756
12.8852
12.8887
12.8989
12.9176
12.9361
12.9506
12.9594
12.9642
12.9755
12.9938
13.0102
13.0229
13.0296
13.038
13.0525
13.0695
13.0835
13.0933
13.101
13.1136
13.1293
13.143
13.1528
13.1603
13.1718
13.1848
13.1959
13.2032
13.21
13.2191
13.2276
13.2337
13.2378
13.2448
13.2546
13.2626
13.2665
13.2673
13.2678
1
1
1
1
1
1
1
1
1
1
1
1
1
1
1
1
1
1
1
1
1
1
1
1
1
1
1
1
1
1
1
1
1
1
1
1
1
1
1
1.00002
1.0004
1.00644
1.14397
5.74725
10.6127
12.0337
12.3283
12.3948
12.4161
12.4329
12.4542
12.4743
12.4914
12.5069
12.5197
12.5281
12.5404
12.5622
12.5837
12.6008
12.6152
12.6249
12.6311
12.6433
12.6656
12.6858
12.702
12.7147
12.7179
12.725
12.7414
12.7641
12.7814
12.7953
12.8021
12.8063
12.8177
12.8389
12.8575
12.8721
12.8805
12.8842
12.8948
12.9142
12.9324
12.9465
12.9541
12.9593
12.9714
12.9902
13.0061
13.018
13.0235
13.0321
13.0473
13.0642
13.0778
13.0869
13.0949
13.1079
13.1233
13.1365
13.1459
13.154
13.166
13.1794
13.1907
13.1982
13.2054
13.2149
13.2237
13.2298
13.2337
13.2403
13.2491
13.256
13.2586
13.2578
13.2565
1
1
1
1
1
1
1
1
1
1
1
1
1
1
1
1
1
1
1
1
1
1
1
1
1
1
1
1
1
1
1
1
1
1
1
1
1
1
1
1.00002
1.00034
1.00516
1.11079
5.61196
10.5767
12.0285
12.3297
12.3965
12.4178
12.4353
12.4571
12.4769
12.4938
12.5091
12.5205
12.5284
12.5415
12.5638
12.5846
12.6012
12.6153
12.6231
12.6294
12.6432
12.6663
12.6859
12.7021
12.714
12.7167
12.7247
12.7426
12.7653
12.7827
12.7965
12.8015
12.8066
12.8197
12.8416
12.8599
12.8741
12.8812
12.8856
12.8973
12.9176
12.9351
12.9484
12.9546
12.9606
12.9742
12.9923
13.0071
13.0176
13.0214
13.0302
13.0457
13.0616
13.074
13.0812
13.0891
13.1025
13.1178
13.1303
13.1386
13.1467
13.1591
13.1728
13.1838
13.1914
13.1988
13.2086
13.2178
13.2243
13.2284
13.2347
13.2425
13.2482
13.2493
13.2468
13.2437
1
1
1
1
1
1
1
1
1
1
1
1
1
1
1
1
1
1
1
1
1
1
1
1
1
1
1
1
1
1
1
1
1
1
1
1
1
1
1
1.00002
1.00026
1.00345
1.06597
5.41592
10.5209
12.0148
12.3247
12.3923
12.4142
12.4328
12.4547
12.4741
12.4909
12.5059
12.5163
12.524
12.5384
12.5611
12.5811
12.5972
12.611
12.6172
12.624
12.6389
12.6623
12.6811
12.6966
12.7076
12.7109
12.7196
12.7386
12.7607
12.7779
12.7916
12.7953
12.8017
12.8165
12.8386
12.8563
12.87
12.8758
12.8815
12.8952
12.9159
12.9329
12.9457
12.9508
12.9585
12.9737
12.992
13.0067
13.0164
13.0202
13.0301
13.046
13.0611
13.0721
13.077
13.0852
13.0994
13.1142
13.1255
13.132
13.1398
13.1523
13.166
13.1768
13.1838
13.191
13.2005
13.2099
13.2167
13.2214
13.2278
13.2346
13.2388
13.2383
13.2344
13.2301
1
1
1
1
1
1
1
1
1
1
1
1
1
1
1
1
1
1
1
1
1
1
1
1
1
1
1
1
1
1
1
1
1
1
1
1
1
1
1
1.00001
1.00017
1.00153
1.01439
5.1604
10.4458
11.9925
12.3129
12.381
12.4037
12.4232
12.4452
12.4639
12.4802
12.4949
12.5046
12.5127
12.5285
12.5516
12.5706
12.5866
12.6001
12.6051
12.6126
12.6288
12.6522
12.6704
12.6854
12.6951
12.699
12.7086
12.7288
12.7498
12.7665
12.7793
12.782
12.7898
12.8062
12.8278
12.8448
12.8582
12.8621
12.8693
12.8848
12.9053
12.9219
12.9348
12.9388
12.9482
12.9651
12.9845
13.0001
13.0102
13.0156
13.0272
13.0446
13.0598
13.0703
13.0742
13.0827
13.0971
13.1115
13.1218
13.1265
13.1341
13.1467
13.16
13.1698
13.1756
13.1826
13.192
13.2012
13.2078
13.2127
13.2191
13.225
13.2276
13.2255
13.2207
13.2152
1
1
1
1
1
1
1
1
1
1
1
1
1
1
1
1
1
1
1
1
1
1
1
1
1
1
1
1
1
1
1
1
1
1
1
1
1
1
1
1.00001
1.00008
0.999819
0.966564
4.87005
10.3648
11.9736
12.3064
12.3768
12.4001
12.4206
12.4425
12.4612
12.4774
12.4918
12.5009
12.5094
12.5262
12.5493
12.5678
12.5836
12.5967
12.6018
12.6099
12.627
12.6497
12.6672
12.682
12.6911
12.6955
12.7056
12.7263
12.7465
12.7626
12.7744
12.7766
12.7845
12.8018
12.8231
12.8399
12.8528
12.8554
12.8625
12.8787
12.8995
12.9161
12.928
12.9309
12.9401
12.9578
12.9775
12.9926
13.0018
13.0076
13.0203
13.0384
13.054
13.065
13.0694
13.0788
13.0935
13.1077
13.1176
13.1219
13.1296
13.1416
13.1538
13.1622
13.1668
13.1739
13.1833
13.192
13.198
13.2025
13.2085
13.2136
13.2145
13.2108
13.2058
13.1988
1
1
1
1
1
1
1
1
1
1
1
1
1
1
1
1
1
1
1
1
1
1
1
1
1
1
1
1
1
1
1
1
1
1
1
1
1
1
1
1
0.999949
0.997666
0.916521
4.48912
10.2542
11.945
12.2953
12.3696
12.3944
12.4157
12.4364
12.4543
12.4698
12.4835
12.4924
12.5017
12.5194
12.5415
12.5591
12.5743
12.5871
12.5933
12.6027
12.6212
12.643
12.6599
12.6743
12.6834
12.6888
12.7
12.7215
12.7413
12.7572
12.7688
12.7717
12.7802
12.7979
12.8193
12.8362
12.8489
12.8516
12.8594
12.8756
12.896
12.9125
12.9237
12.9267
12.9355
12.9526
12.9716
12.9861
12.9948
13.0009
13.0137
13.0317
13.0471
13.0579
13.0635
13.0735
13.088
13.1018
13.1114
13.1162
13.1245
13.1361
13.1466
13.1534
13.1578
13.1651
13.1743
13.182
13.1872
13.1914
13.1967
13.2007
13.1997
13.1948
13.1894
13.1811
1
1
1
1
1
1
1
1
1
1
1
1
1
1
1
1
1
1
1
1
1
1
1
1
1
1
1
1
1
1
1
1
1
1
1
1
1
1
1
1.00001
1.00003
0.996933
0.875414
4.03615
10.1191
11.9101
12.2814
12.3604
12.3871
12.4094
12.4291
12.446
12.4607
12.4731
12.4821
12.4944
12.5139
12.5334
12.5495
12.5635
12.575
12.5823
12.5936
12.6132
12.633
12.6489
12.662
12.6705
12.6768
12.6893
12.7098
12.7288
12.7447
12.7564
12.7606
12.7698
12.7866
12.8075
12.8247
12.838
12.843
12.8515
12.8668
12.8865
12.9029
12.9152
12.9203
12.9301
12.9462
12.9639
12.9782
12.9871
12.9945
13.0076
13.0247
13.0393
13.0498
13.0565
13.0674
13.0817
13.0943
13.1035
13.1093
13.1188
13.1299
13.139
13.1444
13.1488
13.1562
13.1647
13.1709
13.1754
13.1796
13.1839
13.1858
13.1835
13.1772
13.1713
13.162
1
1
1
1
1
1
1
1
1
1
1
1
1
1
1
1
1
1
1
1
1
1
1
1
1
1
1
1
1
1
1
1
1
1
1
1
1
1
1.00001
1.00024
1.00417
1.023
0.832279
3.5003
9.96283
11.8769
12.273
12.3575
12.3864
12.4082
12.4265
12.4417
12.4552
12.4661
12.4768
12.4925
12.5108
12.527
12.5415
12.5544
12.5647
12.574
12.5885
12.6067
12.6231
12.638
12.651
12.6605
12.6699
12.6838
12.7011
12.7174
12.7324
12.7451
12.7538
12.7642
12.78
12.7971
12.8126
12.8259
12.8352
12.8448
12.8597
12.8767
12.8915
12.9037
12.9122
12.9237
12.9396
12.955
12.9684
12.9774
12.9873
13.0018
13.0173
13.0305
13.0398
13.0481
13.0607
13.0746
13.0862
13.0944
13.1013
13.1114
13.122
13.1301
13.1347
13.1394
13.1464
13.1539
13.1589
13.1628
13.1663
13.1696
13.1695
13.166
13.1582
13.1517
13.141
1
1
1
1
1
1
1
1
1
1
1
1
1
1
1
1
1
1
1
1
1
1
1
1
1
1
1
1
1
1
1
1
1
1
1
1
1
0.999999
1.00001
1.00014
1.00293
1.00896
0.765391
2.84388
9.76796
11.8307
12.2552
12.3457
12.3767
12.3954
12.4099
12.4231
12.4361
12.4494
12.4644
12.4798
12.4942
12.5078
12.5215
12.5355
12.5495
12.5652
12.5807
12.5938
12.6059
12.6187
12.634
12.6501
12.6656
12.6799
12.6917
12.7019
12.7146
12.7309
12.7473
12.7622
12.7761
12.7864
12.7976
12.8117
12.827
12.842
12.8566
12.8691
12.8801
12.8908
12.9038
12.919
12.9337
12.9467
12.9571
12.966
12.9792
12.9949
13.0088
13.0205
13.0283
13.0389
13.0528
13.0661
13.0768
13.0836
13.0916
13.1022
13.1122
13.1194
13.1233
13.1286
13.1355
13.142
13.1459
13.1495
13.1519
13.1529
13.152
13.1472
13.1376
13.1304
13.118
1
1
1
1
1
1
1
1
1
1
1
1
1
1
1
1
1
1
1
1
1
1
1
1
1
1
1
1
1
1
1
1
1
1
1
1
1
1
0.999992
0.999813
0.997613
0.973363
0.720353
2.14224
9.58036
11.7316
12.2125
12.3177
12.3511
12.3662
12.3778
12.3903
12.4062
12.4249
12.4426
12.4574
12.4708
12.4806
12.4901
12.5064
12.5285
12.5478
12.564
12.5769
12.5827
12.5917
12.6077
12.6325
12.6528
12.6692
12.6792
12.6852
12.694
12.7119
12.7353
12.7543
12.7689
12.7752
12.7836
12.7959
12.816
12.8351
12.8506
12.8606
12.8682
12.8788
12.8953
12.9128
12.9269
12.9375
12.9444
12.9555
12.971
12.9866
12.9996
13.0086
13.0165
13.029
13.0438
13.0565
13.0655
13.0714
13.0808
13.0922
13.1018
13.1078
13.1113
13.1169
13.1239
13.1298
13.1325
13.1352
13.1366
13.1349
13.1331
13.1265
13.1156
13.1074
13.0937
1
1
1
1
1
1
1
1
1
1
1
1
1
1
1
1
1
1
1
1
1
1
1
1
1
1
1
1
1
1
1
1
1
1
1
1
1
1
1
1.00006
0.999961
0.986166
0.787522
1.30067
9.37226
11.5932
12.1598
12.2841
12.3194
12.3334
12.3441
12.3591
12.3793
12.3992
12.4161
12.4315
12.4443
12.4493
12.4584
12.4782
12.5043
12.5237
12.5401
12.553
12.5541
12.5617
12.5791
12.6072
12.6295
12.6478
12.6569
12.6579
12.6682
12.6883
12.7145
12.7358
12.752
12.755
12.7634
12.7778
12.8023
12.8235
12.8398
12.8478
12.8546
12.8663
12.8862
12.9047
12.9192
12.9267
12.9332
12.9455
12.9629
12.9783
12.9899
12.9959
13.0052
13.0194
13.0344
13.046
13.0527
13.0596
13.0703
13.0822
13.0909
13.0951
13.0987
13.105
13.1122
13.117
13.1182
13.1193
13.1199
13.116
13.1129
13.1042
13.0924
13.083
13.0678
1
1
1
1
1
1
1
1
1
1
1
1
1
1
1
1
1
1
1
1
1
1
1
1
1
1
1
1
1
1
1
1
1
1
1
1
1
1
1.00003
1.00052
1.00296
0.994853
0.833199
1.09893
9.07915
11.4276
12.1065
12.2567
12.3041
12.3231
12.3328
12.3437
12.3589
12.3825
12.4049
12.4226
12.4368
12.4466
12.4523
12.4625
12.4833
12.5056
12.5225
12.5358
12.5421
12.5483
12.5604
12.5814
12.6005
12.6168
12.6298
12.6329
12.6445
12.6654
12.6883
12.7073
12.7234
12.7265
12.7368
12.7554
12.7817
12.8045
12.8219
12.8264
12.8355
12.8514
12.8747
12.8943
12.9089
12.9131
12.9216
12.9364
12.9545
12.9693
12.9784
12.9836
12.9944
13.0101
13.0244
13.0346
13.0391
13.0476
13.0597
13.0713
13.0786
13.081
13.0857
13.093
13.0997
13.1026
13.1026
13.1021
13.1015
13.0959
13.0913
13.0803
13.0678
13.0571
13.04
1
1
1
1
1
1
1
1
1
1
1
1
1
1
1
1
1
1
1
1
1
1
1
1
1
1
1
1
1
1
1
1
1
1
1
1
1
1
0.999987
1.00002
1.00001
0.998751
0.951505
1.4418
8.60067
11.2884
12.0985
12.2691
12.3222
12.3424
12.3521
12.3592
12.3722
12.3936
12.4133
12.4288
12.4423
12.4515
12.4563
12.4642
12.4828
12.5027
12.5173
12.5289
12.5349
12.5387
12.5494
12.5693
12.5864
12.5996
12.6097
12.6134
12.6223
12.6404
12.6609
12.678
12.6931
12.6996
12.7123
12.7321
12.7547
12.775
12.7927
12.7988
12.8124
12.8332
12.8575
12.878
12.8919
12.8976
12.9089
12.9271
12.9455
12.959
12.9648
12.9711
12.9835
12.9996
13.0127
13.0206
13.0255
13.0352
13.0481
13.0584
13.0639
13.0667
13.0719
13.0804
13.0856
13.0864
13.0858
13.0834
13.0823
13.0744
13.0682
13.0547
13.0416
13.0294
13.0106
1
1
1
1
1
1
1
1
1
1
1
1
1
1
1
1
1
1
1
1
1
1
1
1
1
1
1
1
1
1
1
1
1
1
1
1
1
1
1
1
1.00006
1.00096
1.02056
1.55309
7.74801
11.0897
12.0838
12.2853
12.3425
12.3623
12.3711
12.378
12.3922
12.4133
12.431
12.4449
12.4569
12.465
12.4695
12.4798
12.4995
12.5171
12.5301
12.5404
12.5435
12.5464
12.5566
12.5752
12.5903
12.6017
12.6085
12.6088
12.6133
12.6281
12.6468
12.661
12.6721
12.6786
12.6871
12.7037
12.724
12.7422
12.7586
12.7691
12.7861
12.8087
12.8321
12.8535
12.868
12.8776
12.8935
12.9146
12.9335
12.9463
12.9504
12.9587
12.9725
12.9877
12.9991
13.0044
13.011
13.0221
13.0347
13.0435
13.047
13.051
13.0575
13.066
13.0691
13.0682
13.0674
13.0633
13.062
13.0516
13.0437
13.0276
13.0138
13.0001
12.9794
1
1
1
1
1
1
1
1
1
1
1
1
1
1
1
1
1
1
1
1
1
1
1
1
1
1
1
1
1
1
1
1
1
1
1
1
1
1
1
1
1.00003
1.00046
1.00832
1.2875
6.64016
10.7903
12.009
12.2515
12.3176
12.3418
12.3541
12.3642
12.381
12.4022
12.4193
12.4333
12.4454
12.4533
12.4598
12.4738
12.4948
12.5117
12.5255
12.5365
12.5401
12.5463
12.5605
12.5802
12.5946
12.6056
12.6113
12.6119
12.6162
12.6304
12.6462
12.6574
12.665
12.6659
12.67
12.6842
12.7033
12.7193
12.7337
12.7453
12.7579
12.7763
12.798
12.8188
12.8367
12.8521
12.8727
12.8961
12.9157
12.9292
12.9363
12.9466
12.9609
12.9744
12.9835
12.9877
12.9961
13.008
13.0194
13.0264
13.0289
13.0346
13.0422
13.0492
13.0504
13.0485
13.048
13.0419
13.0397
13.0279
13.018
12.999
12.9845
12.9694
12.9466
1
1
1
1
1
1
1
1
1
1
1
1
1
1
1
1
1
1
1
1
1
1
1
1
1
1
1
1
1
1
1
1
1
1
1
1
1
1
1
1
1.00003
1.00028
0.999568
1.00078
5.31636
10.4113
11.9044
12.2025
12.2797
12.3064
12.3212
12.3352
12.3535
12.3716
12.387
12.4012
12.4139
12.4216
12.4316
12.4488
12.4695
12.4862
12.5009
12.5125
12.5183
12.5282
12.5462
12.5668
12.5823
12.5952
12.6022
12.6068
12.6162
12.6328
12.6468
12.6566
12.6618
12.6613
12.6652
12.6788
12.695
12.7071
12.7161
12.7215
12.7302
12.7464
12.7672
12.7869
12.8059
12.8252
12.8463
12.8686
12.8904
12.9075
12.9199
12.9337
12.948
12.9593
12.9665
12.9722
12.9813
12.9929
13.0018
13.007
13.0107
13.0175
13.0254
13.0299
13.0302
13.0274
13.0273
13.0189
13.0154
13.0029
12.9909
12.969
12.9535
12.9373
12.9125
1
1
1
1
1
1
1
1
1
1
1
1
1
1
1
1
1
1
1
1
1
1
1
1
1
1
1
1
1
1
1
1
1
1
1
1
1
1
1
1.00002
1.00035
1.00424
1.02107
0.848536
3.66338
9.92992
11.7899
12.1616
12.2428
12.2657
12.2798
12.2944
12.3105
12.3267
12.3423
12.357
12.3701
12.3814
12.3958
12.4153
12.4337
12.4501
12.4653
12.4775
12.4886
12.5023
12.5215
12.5404
12.5572
12.5715
12.579
12.5885
12.6035
12.6226
12.637
12.6479
12.653
12.6561
12.6641
12.6785
12.6907
12.6992
12.7032
12.7033
12.7113
12.7286
12.7467
12.7629
12.7778
12.7916
12.8097
12.8316
12.8564
12.8796
12.8988
12.9172
12.9324
12.9433
12.9503
12.9575
12.9669
12.9761
12.9828
12.9868
12.9918
12.9997
13.0064
13.0085
13.0091
13.005
13.0047
12.9946
12.9897
12.9761
12.9625
12.938
12.9212
12.9039
12.877
1
1
1
1
1
1
1
1
1
1
1
1
1
1
1
1
1
1
1
1
1
1
1
1
1
1
1
1
1
1
1
1
1
1
1
1
1
1
1
1
0.999954
0.999048
0.986058
0.771483
1.53939
9.32965
11.6601
12.1216
12.2111
12.233
12.2485
12.2642
12.2784
12.2923
12.3059
12.3194
12.3348
12.3517
12.3682
12.3831
12.3971
12.4102
12.4223
12.4352
12.4504
12.4682
12.4855
12.5024
12.5188
12.5311
12.5449
12.5595
12.5792
12.5994
12.616
12.6287
12.6358
12.6441
12.6576
12.6729
12.6836
12.6904
12.6907
12.6926
12.7036
12.7196
12.7327
12.7428
12.75
12.7576
12.7736
12.7982
12.8244
12.8505
12.8737
12.8921
12.9099
12.9239
12.9344
12.9433
12.9515
12.9577
12.9625
12.9669
12.9726
12.9802
12.9849
12.9852
12.9865
12.9813
12.9806
12.9692
12.963
12.9474
12.9324
12.9055
12.8875
12.8691
12.8398
1
1
1
1
1
1
1
1
1
1
1
1
1
1
1
1
1
1
1
1
1
1
1
1
1
1
1
1
1
1
1
1
1
1
1
1
1
1
1
1.00003
1.00041
1.00249
0.999466
0.895565
1.04459
8.70362
11.3111
11.9865
12.1299
12.1781
12.208
12.2298
12.2469
12.2621
12.2772
12.2942
12.3112
12.3265
12.3399
12.3512
12.3614
12.3727
12.3869
12.4024
12.4174
12.4319
12.4456
12.4587
12.4723
12.4882
12.5066
12.5259
12.5453
12.5644
12.5815
12.5954
12.6089
12.6238
12.6421
12.6573
12.6685
12.6749
12.678
12.6849
12.6979
12.7101
12.7182
12.7224
12.7232
12.732
12.751
12.7741
12.7975
12.8195
12.8373
12.8569
12.8782
12.8987
12.9155
12.9268
12.9339
12.9382
12.9423
12.9476
12.9534
12.9586
12.9616
12.9612
12.9628
12.956
12.9542
12.9425
12.935
12.9168
12.9005
12.8718
12.8527
12.8331
12.8006
1
1
1
1
1
1
1
1
1
1
1
1
1
1
1
1
1
1
1
1
1
1
1
1
1
1
1
1
1
1
1
1
1
1
1
1
1
1
1
1
1.00001
1.00007
1.00032
1.00461
1.25079
7.52802
10.9949
11.9382
12.1373
12.1929
12.2191
12.2345
12.2459
12.2568
12.2705
12.2861
12.3001
12.3126
12.3241
12.3336
12.3423
12.3555
12.3724
12.3877
12.4012
12.4132
12.4222
12.4307
12.443
12.46
12.4771
12.4939
12.5104
12.5243
12.538
12.5538
12.5732
12.5952
12.6157
12.6325
12.6443
12.6533
12.6626
12.6761
12.6891
12.6979
12.7026
12.7022
12.7055
12.718
12.7357
12.7527
12.7681
12.7807
12.7956
12.8182
12.8448
12.8705
12.8921
12.904
12.9115
12.9173
12.9226
12.9283
12.9327
12.9348
12.9382
12.9365
12.938
12.9291
12.9256
12.914
12.9052
12.8847
12.8664
12.8365
12.8164
12.7954
12.76
1
1
1
1
1
1
1
1
1
1
1
1
1
1
1
1
1
1
1
1
1
1
1
1
1
1
1
1
1
1
1
1
1
1
1
1
1
1
1
1
1
1
0.999889
0.991138
0.954959
5.63882
10.499
11.8472
12.1101
12.1733
12.1979
12.2104
12.2201
12.2304
12.2439
12.2585
12.272
12.2846
12.2963
12.3057
12.3158
12.3312
12.3495
12.3649
12.3784
12.3902
12.3981
12.4079
12.4222
12.4389
12.4538
12.4677
12.4789
12.488
12.5
12.5179
12.5397
12.5606
12.5809
12.597
12.6105
12.6248
12.6423
12.6604
12.6736
12.6818
12.6845
12.6866
12.695
12.7085
12.7202
12.7287
12.7349
12.7431
12.7616
12.7885
12.8171
12.8432
12.8609
12.8705
12.8835
12.8937
12.9024
12.9083
12.9098
12.9102
12.9142
12.9111
12.9116
12.9009
12.896
12.8837
12.8736
12.8511
12.8301
12.7997
12.7784
12.756
12.7177
1
1
1
1
1
1
1
1
1
1
1
1
1
1
1
1
1
1
1
1
1
1
1
1
1
1
1
1
1
1
1
1
1
1
1
1
1
1
1
1
1
1.00007
1.00194
0.985788
0.728884
2.92714
9.77124
11.6931
12.0567
12.1326
12.1535
12.165
12.175
12.1863
12.2003
12.2154
12.2296
12.2429
12.2553
12.2663
12.2791
12.2958
12.3123
12.3269
12.3404
12.3526
12.363
12.3764
12.3939
12.4106
12.426
12.4397
12.4492
12.4596
12.4726
12.4904
12.5085
12.5269
12.5438
12.5568
12.5733
12.5924
12.6153
12.6351
12.65
12.6585
12.6641
12.672
12.6845
12.6953
12.7013
12.7033
12.7052
12.7165
12.7386
12.7633
12.7874
12.8055
12.8174
12.8342
12.8527
12.8686
12.8812
12.8843
12.8843
12.8855
12.8899
12.8845
12.8824
12.8717
12.8658
12.8517
12.8399
12.8162
12.7915
12.7612
12.7384
12.7154
12.6748
1
1
1
1
1
1
1
1
1
1
1
1
1
1
1
1
1
1
1
1
1
1
1
1
1
1
1
1
1
1
1
1
1
1
1
1
1
1
1
1
0.999999
0.999991
0.999778
0.993674
0.88439
0.405016
8.84405
11.3843
11.9486
12.0638
12.0941
12.1113
12.1279
12.1442
12.16
12.1751
12.1891
12.202
12.2147
12.2286
12.2428
12.2557
12.2681
12.2806
12.2921
12.3044
12.3184
12.3348
12.3511
12.367
12.3824
12.3943
12.4075
12.4218
12.4393
12.4575
12.4755
12.4927
12.5058
12.5215
12.5389
12.5611
12.5842
12.6047
12.6205
12.6303
12.6417
12.6564
12.6701
12.6785
12.6813
12.68
12.684
12.6988
12.7182
12.7367
12.7504
12.7601
12.7771
12.7994
12.8229
12.8447
12.8534
12.8529
12.8575
12.8595
12.8651
12.8565
12.8506
12.8411
12.8335
12.8186
12.8037
12.7799
12.7508
12.7214
12.6968
12.6736
12.6295
1
1
1
1
1
1
1
1
1
1
1
1
1
1
1
1
1
1
1
1
1
1
1
1
1
1
1
1
1
1
1
1
1
1
1
1
1
1
1
1
1
1
0.999993
1.00009
1.00139
1.16753
7.61011
10.9825
11.8422
12.0228
12.0763
12.1013
12.1192
12.1333
12.1452
12.1561
12.1662
12.1762
12.1864
12.1972
12.2079
12.2183
12.2284
12.2382
12.2478
12.2592
12.2731
12.2878
12.3027
12.3178
12.3325
12.3461
12.3619
12.3811
12.4001
12.4182
12.4357
12.4499
12.465
12.482
12.5026
12.5251
12.5482
12.569
12.5834
12.5992
12.6165
12.6355
12.6494
12.6577
12.6583
12.6597
12.6684
12.6823
12.6943
12.7029
12.7086
12.7222
12.7444
12.7704
12.7952
12.8108
12.8145
12.8198
12.8289
12.8338
12.8372
12.8251
12.8178
12.8095
12.7989
12.7844
12.7652
12.742
12.7092
12.6802
12.6535
12.6299
12.5828
1
1
1
1
1
1
1
1
1
1
1
1
1
1
1
1
1
1
1
1
1
1
1
1
1
1
1
1
1
1
1
1
1
1
1
1
1
1
1
1
1
0.999999
0.999975
0.999666
0.990028
0.913981
5.25068
10.3511
11.7388
12.0107
12.0741
12.0971
12.1119
12.1238
12.1337
12.1432
12.1534
12.164
12.1746
12.1849
12.195
12.2048
12.2141
12.2237
12.2336
12.2433
12.2532
12.2633
12.2737
12.2847
12.2965
12.3097
12.3268
12.3453
12.3627
12.3794
12.3941
12.4075
12.4238
12.443
12.4642
12.486
12.5072
12.5246
12.5432
12.5639
12.5869
12.608
12.6236
12.6319
12.6361
12.643
12.6541
12.6629
12.6673
12.6684
12.675
12.6931
12.7175
12.7413
12.7582
12.7649
12.7746
12.787
12.8013
12.8063
12.8032
12.7917
12.784
12.7773
12.7627
12.7479
12.7253
12.702
12.6665
12.6371
12.6086
12.5845
12.5335
1
1
1
1
1
1
1
1
1
1
1
1
1
1
1
1
1
1
1
1
1
1
1
1
1
1
1
1
1
1
1
1
1
1
1
1
1
1
1
1
1
0.999995
0.99989
0.998542
0.985352
0.764428
1.69316
9.30067
11.5383
11.9511
12.0275
12.0483
12.0603
12.0716
12.0825
12.0942
12.1076
12.1223
12.1359
12.1488
12.161
12.1729
12.185
12.198
12.2108
12.2224
12.2329
12.2421
12.2504
12.2591
12.2698
12.2822
12.2955
12.3095
12.3243
12.3387
12.3527
12.3683
12.3867
12.4068
12.4267
12.4462
12.4625
12.4794
12.5001
12.524
12.55
12.5731
12.5903
12.601
12.6118
12.6245
12.6349
12.6395
12.6391
12.6389
12.6495
12.6695
12.6898
12.7041
12.7115
12.7214
12.7382
12.7562
12.773
12.7711
12.7639
12.7583
12.7497
12.7443
12.7249
12.7089
12.6846
12.6602
12.6221
12.5917
12.5619
12.5372
12.4837
1
1
1
1
1
1
1
1
1
1
1
1
1
1
1
1
1
1
1
1
1
1
1
1
1
1
1
1
1
1
1
1
1
1
1
1
1
1
1
1
1
1
0.999995
0.999983
1.00013
0.993671
1.06649
7.85429
10.9858
11.7426
11.9117
11.9647
11.992
12.0121
12.0304
12.0482
12.0659
12.0819
12.0971
12.1111
12.124
12.1367
12.1514
12.1671
12.1811
12.1941
12.2061
12.216
12.2255
12.2353
12.2453
12.2554
12.2656
12.2763
12.2869
12.2999
12.3155
12.3332
12.3515
12.3698
12.3877
12.404
12.4198
12.4384
12.4595
12.4844
12.5109
12.5351
12.5512
12.5683
12.5855
12.6017
12.6116
12.6147
12.6122
12.6149
12.6274
12.6432
12.6544
12.6602
12.669
12.6854
12.7072
12.7262
12.7337
12.7271
12.7255
12.7247
12.7148
12.708
12.6854
12.6692
12.6431
12.6168
12.5762
12.5448
12.514
12.4881
12.4302
1
1
1
1
1
1
1
1
1
1
1
1
1
1
1
1
1
1
1
1
1
1
1
1
1
1
1
1
1
1
1
1
1
1
1
1
1
1
1
1
1
1
0.999998
0.999975
0.999676
0.990403
0.891093
5.05532
10.2333
11.5681
11.8408
11.9066
11.9319
11.9494
11.9669
11.985
12.0039
12.0221
12.0392
12.0554
12.0702
12.0859
12.1032
12.1205
12.137
12.1527
12.1661
12.1791
12.1924
12.2056
12.2173
12.2284
12.2382
12.2465
12.2553
12.2658
12.2807
12.2971
12.3131
12.3292
12.3443
12.3606
12.3785
12.3984
12.4201
12.4436
12.4676
12.4886
12.509
12.5314
12.5538
12.5725
12.5842
12.5868
12.5879
12.5938
12.6038
12.6108
12.6154
12.6204
12.6343
12.655
12.6764
12.6863
12.6857
12.6863
12.6875
12.6914
12.6775
12.6655
12.6449
12.6295
12.5998
12.5712
12.5288
12.4966
12.4646
12.4378
12.3771
1
1
1
1
1
1
1
1
1
1
1
1
1
1
1
1
1
1
1
1
1
1
1
1
1
1
1
1
1
1
1
1
1
1
1
1
1
1
1
1
1
1
0.999995
0.999891
0.998586
0.986557
0.807222
1.0571
8.99088
11.3802
11.8026
11.8849
11.9048
11.9141
11.9246
11.9381
11.9533
11.969
11.9848
11.9999
12.0157
12.0319
12.0483
12.0644
12.0801
12.0945
12.1099
12.1263
12.1429
12.1595
12.1757
12.1902
12.2034
12.2158
12.2268
12.2383
12.251
12.2645
12.2781
12.2915
12.306
12.3222
12.3411
12.3614
12.3819
12.4023
12.4206
12.4401
12.4644
12.4903
12.5167
12.5381
12.5508
12.5579
12.5642
12.5717
12.5763
12.5774
12.5778
12.5868
12.6044
12.6235
12.6355
12.6381
12.6414
12.6482
12.6514
12.6558
12.6344
12.6209
12.6034
12.5882
12.5553
12.5236
12.48
12.4472
12.414
12.3855
12.3201
1
1
1
1
1
1
1
1
1
1
1
1
1
1
1
1
1
1
1
1
1
1
1
1
1
1
1
1
1
1
1
1
1
1
1
1
1
1
1
1
1
1
1
1.00003
0.999962
0.999679
0.992457
1.01288
7.25161
10.8035
11.6368
11.8037
11.8516
11.8738
11.8879
11.8995
11.9097
11.9192
11.9291
11.9402
11.9524
11.9657
11.9797
11.9944
12.0099
12.0257
12.0432
12.0618
12.0815
12.1018
12.1219
12.1392
12.1566
12.1734
12.1892
12.204
12.2174
12.2299
12.2415
12.2546
12.2686
12.285
12.3033
12.3221
12.3404
12.3567
12.3744
12.3957
12.4203
12.4478
12.4757
12.4981
12.5123
12.5264
12.5383
12.5457
12.5471
12.5441
12.5451
12.5571
12.5737
12.5837
12.5884
12.5919
12.601
12.6139
12.6133
12.6101
12.5889
12.5798
12.5605
12.5441
12.5085
12.4742
12.4299
12.3964
12.3619
12.3324
12.265
1
1
1
1
1
1
1
1
1
1
1
1
1
1
1
1
1
1
1
1
1
1
1
1
1
1
1
1
1
1
1
1
1
1
1
1
1
1
1
1
1
1
1
1.00004
1.00019
0.999394
0.988374
0.837189
3.7466
9.783
11.3945
11.7156
11.7948
11.8251
11.8437
11.8586
11.8703
11.8813
11.8919
11.9027
11.9145
11.9265
11.9389
11.9516
11.9653
11.9803
11.997
12.0147
12.0332
12.0519
12.0707
12.0886
12.1077
12.1269
12.1462
12.1644
12.1806
12.1938
12.2072
12.2195
12.2335
12.2495
12.2663
12.2827
12.2977
12.3138
12.3318
12.353
12.3776
12.405
12.4312
12.4507
12.4715
12.491
12.5073
12.516
12.5163
12.513
12.5157
12.5272
12.5365
12.5396
12.5436
12.5517
12.5629
12.5766
12.5676
12.5584
12.5444
12.5411
12.5164
12.496
12.4604
12.4241
12.3789
12.3439
12.3076
12.2767
12.2047
1
1
1
1
1
1
1
1
1
1
1
1
1
1
1
1
1
1
1
1
1
1
1
1
1
1
1
1
1
1
1
1
1
1
1
1
1
1
1
1
1
1
1
1
1
0.999914
0.998672
0.95701
0.752319
8.07056
10.9247
11.5704
11.713
11.7534
11.7743
11.7928
11.8072
11.8216
11.8359
11.8497
11.8636
11.8762
11.8886
11.9015
11.9152
11.93
11.9457
11.9623
11.9799
11.9976
12.0155
12.0347
12.0545
12.0746
12.0949
12.1148
12.133
12.1507
12.1674
12.1827
12.1975
12.2128
12.2277
12.2417
12.2575
12.2738
12.2917
12.3124
12.3358
12.3595
12.3805
12.4027
12.4281
12.4514
12.4707
12.4824
12.4838
12.4836
12.4866
12.4928
12.4957
12.4958
12.5042
12.5153
12.5223
12.5294
12.516
12.5122
12.5009
12.5003
12.4705
12.4458
12.4105
12.373
12.3265
12.2896
12.2525
12.221
12.1467
1
1
1
1
1
1
1
1
1
1
1
1
1
1
1
1
1
1
1
1
1
1
1
1
1
1
1
1
1
1
1
1
1
1
1
1
1
1
1
1
1
1
1
1
0.999995
1.00002
0.99987
0.991678
0.881326
5.08454
10.1708
11.4014
11.6411
11.6955
11.7176
11.7352
11.7522
11.7679
11.7836
11.7994
11.8146
11.8294
11.8435
11.857
11.8707
11.8847
11.899
11.9142
11.9301
11.9463
11.9639
11.9829
12.0026
12.0229
12.0439
12.0647
12.0843
12.1047
12.124
12.1428
12.1603
12.1755
12.1888
12.2032
12.2182
12.2347
12.2526
12.2721
12.2919
12.3103
12.3315
12.3562
12.3825
12.4085
12.4305
12.4424
12.4497
12.4534
12.4559
12.456
12.4556
12.4558
12.466
12.4763
12.475
12.4759
12.4681
12.4705
12.4568
12.4526
12.4216
12.3964
12.3591
12.3204
12.2711
12.2322
12.1952
12.1633
12.0845
1
1
1
1
1
1
1
1
1
1
1
1
1
1
1
1
1
1
1
1
1
1
1
1
1
1
1
1
1
1
1
1
1
1
1
1
1
1
1
1
1
1
1
1
1.00007
1.00101
1.00484
0.988501
0.846808
0.818258
8.4247
11.0378
11.5383
11.641
11.6655
11.679
11.6953
11.7108
11.7254
11.7399
11.7546
11.7702
11.7859
11.802
11.8179
11.8331
11.8475
11.8624
11.8777
11.8941
11.9117
11.9303
11.9497
11.9699
11.9906
12.0112
12.0328
12.0542
12.0757
12.0965
12.1161
12.1333
12.1498
12.165
12.1801
12.1963
12.2134
12.2299
12.2456
12.2641
12.286
12.3105
12.3372
12.3642
12.3847
12.399
12.4123
12.4206
12.4225
12.4198
12.4174
12.4174
12.4266
12.4311
12.4241
12.426
12.4227
12.429
12.4094
12.398
12.3722
12.3479
12.3064
12.2651
12.2144
12.1746
12.1377
12.1059
12.0233
1
1
1
1
1
1
1
1
1
1
1
1
1
1
1
1
1
1
1
1
1
1
1
1
1
1
1
1
1
1
1
1
1
1
1
1
1
1
1
1
1
1
1
1
0.999987
1.00004
1.00013
0.999511
0.987258
0.832569
5.60397
10.2595
11.3429
11.5636
11.6155
11.6343
11.6481
11.6636
11.6777
11.6906
11.7039
11.7181
11.7337
11.7501
11.7666
11.7823
11.7975
11.8134
11.8293
11.8458
11.8629
11.8808
11.8992
11.9179
11.9375
11.9586
11.9805
12.003
12.0257
12.0481
12.0684
12.0884
12.1076
12.1253
12.1418
12.1576
12.1724
12.1864
12.2025
12.2207
12.2418
12.2659
12.2921
12.3154
12.334
12.3544
12.3713
12.3831
12.387
12.3825
12.3809
12.3801
12.3821
12.3829
12.3755
12.3814
12.3774
12.382
12.3572
12.344
12.3212
12.2979
12.2527
12.2082
12.1565
12.1155
12.0776
12.0459
11.9583
1
1
1
1
1
1
1
1
1
1
1
1
1
1
1
1
1
1
1
1
1
1
1
1
1
1
1
1
1
1
1
1
1
1
1
1
1
1
1
1
1
1
1
1
0.999999
1
1.00005
1.00104
0.998344
0.847173
1.18015
8.5221
10.9812
11.4475
11.5537
11.5813
11.5954
11.6115
11.6261
11.6394
11.6523
11.6654
11.6795
11.6948
11.7105
11.7257
11.7417
11.7589
11.7762
11.7938
11.8117
11.8294
11.8469
11.8657
11.8855
11.9066
11.9285
11.9511
11.9739
11.9964
12.0184
12.0405
12.0619
12.0821
12.1009
12.1171
12.1314
12.1455
12.1608
12.1783
12.1986
12.2214
12.2434
12.263
12.2848
12.3079
12.3275
12.3417
12.347
12.3444
12.3439
12.3414
12.3367
12.3354
12.3285
12.3369
12.3291
12.3274
12.304
12.2935
12.2687
12.2444
12.1973
12.15
12.0982
12.0569
12.0189
11.987
11.8958
1
1
1
1
1
1
1
1
1
1
1
1
1
1
1
1
1
1
1
1
1
1
1
1
1
1
1
1
1
1
1
1
1
1
1
1
1
1
1
1
1
1
1
1
1
1
1
1.00001
0.999512
0.9853
0.788623
5.60147
10.1872
11.2408
11.4567
11.5121
11.5369
11.5557
11.5745
11.5905
11.6044
11.6176
11.6308
11.6444
11.6583
11.6732
11.6892
11.7064