/*--------------------------------*- C++ -*----------------------------------*\
| =========                 |                                                 |
| \\      /  F ield         | OpenFOAM: The Open Source CFD Toolbox           |
|  \\    /   O peration     | Version:  2.2.x                                 |
|   \\  /    A nd           | Web:      www.OpenFOAM.org                      |
|    \\/     M anipulation  |                                                 |
\*---------------------------------------------------------------------------*/
FoamFile
{
    version     2.0;
    format      ascii;
    class       volScalarField;
    location    "1.6";
    object      pB;
}
// * * * * * * * * * * * * * * * * * * * * * * * * * * * * * * * * * * * * * //

dimensions      [1 1 -3 0 0 -1 0];

internalField   nonuniform List<scalar> 
14161
(
-0.0118312
0.00280635
-0.000859247
5.24204e-05
-0.000312284
-0.00023035
-0.000304403
-0.000302964
-0.000322342
-0.0003255
-0.000339669
-0.000347365
-0.000337003
-0.00034508
-0.000334221
-0.000328725
-0.000313386
-0.000298817
-0.000272451
-0.00024566
-0.000213394
-0.00017698
-0.000136402
-9.75104e-05
-5.24561e-05
1.02118e-05
6.09554e-05
0.000144604
0.000205776
0.000301657
0.000378524
0.000479231
0.000563571
0.000684317
0.000789907
0.000949568
0.00104914
0.00116129
0.00132644
0.00144754
0.0013906
0.00142746
0.00092632
0.00103154
-0.00201574
0.00247819
-0.0146449
0.0883151
0.0777645
-0.0272468
-0.00400782
-0.0124932
0.00237268
-0.00387247
0.00342759
0.000110136
-7.66609e-05
0.00122152
0.00070885
0.00367815
0.000100473
0.00119048
0.000958234
0.000928634
0.00072687
-0.0001068
0.000523478
0.000936003
0.00120582
0.00028625
-0.000959372
-0.000741579
6.20723e-05
-0.000250187
7.31811e-05
-0.000208744
-0.00130023
-0.00212212
-0.000183872
0.00276372
0.00305315
0.00178492
0.000637015
0.00476686
0.0014207
0.00215319
0.00641446
0.00381241
0.00518582
0.000622823
-0.00209239
-0.00538654
-0.0031265
-0.000605158
0.000520794
0.00287981
-0.00396021
0.00525741
-0.00893343
0.000739893
-0.00302229
0.0031678
-0.0041973
0.00344186
-0.00300917
0.0028077
-0.00307925
0.00316106
-0.00441528
0.00395705
-0.00454323
0.00561216
-0.00537714
0.00551075
-0.00711464
0.00613521
-0.00886802
0.00806379
-0.00908355
-0.0118416
0.00281426
-0.000860519
5.28158e-05
-0.000312899
-0.000231027
-0.000304477
-0.00030247
-0.000322814
-0.000325325
-0.00034166
-0.00034488
-0.000337809
-0.000346377
-0.000332302
-0.000327227
-0.000312273
-0.000289782
-0.000273094
-0.000245569
-0.000213677
-0.000178008
-0.000136736
-9.75163e-05
-5.19314e-05
1.25318e-05
6.38028e-05
0.000149023
0.000209307
0.000307974
0.000383696
0.000487298
0.000573741
0.000686396
0.000782653
0.00091253
0.000960054
0.00102951
0.00106093
0.00116631
0.000936361
0.000805475
-0.000308827
-0.000526993
-0.00574508
0.00208058
-0.0443518
0.0588329
0.0461857
-0.0138176
0.0163487
-0.00165437
0.0126398
-0.00205737
0.00629116
0.000169935
0.00046131
0.00225358
-0.00101612
0.00314403
0.000172518
0.00120808
-0.000318272
-0.00126106
-0.00203198
-0.00422312
-0.00237366
-0.000424021
0.00325401
0.00421984
0.0049389
-0.000721465
-0.000979393
-0.00291171
-0.000419165
0.00222758
0.0117922
0.0116652
-0.00116612
-0.0170702
-0.0197842
-0.00940075
0.0042125
0.0247677
0.0196413
0.0138216
-0.00120045
-0.0107818
-0.0212517
-0.0183102
-0.0234366
0.00316112
0.000913066
0.0119075
0.00264673
0.00371709
-0.00705533
-0.0018747
-0.00511058
0.00563469
0.00579934
0.0124521
-0.000203923
0.00106189
-0.00568554
0.00379161
-0.00159344
0.00567338
-0.00423336
0.00351124
-0.00379051
0.00454245
-0.00533086
0.00502283
-0.00660034
0.00749457
-0.00579592
0.00744727
-0.00678803
-0.0118341
0.00280946
-0.000860973
5.18651e-05
-0.000313107
-0.000231192
-0.000305434
-0.000300236
-0.000327484
-0.000323443
-0.000340056
-0.000346972
-0.000338968
-0.000346924
-0.000335765
-0.00033048
-0.000315852
-0.000300545
-0.000275557
-0.000244814
-0.000216119
-0.000178193
-0.000140761
-9.87229e-05
-5.69577e-05
5.38153e-06
5.62085e-05
0.000134543
0.000195054
0.000287496
0.000355835
0.000465804
0.000542231
0.000670945
0.000789459
0.000969678
0.00112147
0.00134039
0.00162101
0.00197752
0.00223825
0.00277065
0.00362181
0.00457857
0.00652577
0.0104496
0.0151697
0.0178478
0.0768009
-0.0155914
0.0212192
-0.0104367
0.0138515
-0.00479047
0.00616217
-0.000524279
0.00020298
0.00267944
-0.00170576
0.00157744
-0.00054472
-0.000325348
0.000328137
0.00171346
0.00265839
0.00279035
0.0035996
0.00161442
-0.0053471
-0.00735477
-0.00399554
0.000738322
0.00293094
0.00501402
0.00337891
-0.00694293
-0.0157826
-0.0139357
0.00219616
0.0314567
0.0300442
0.0132674
-0.0261204
-0.0519776
-0.0462039
-0.0176475
0.00237869
0.0686734
0.0464749
0.0679189
0.0223488
0.00459246
-0.0132118
-0.0204832
-0.0134129
0.00976768
0.011682
0.0129958
0.00602569
-0.00581881
-0.0188628
-0.0162623
-0.00709966
0.0149266
-0.00141817
0.00215221
-0.00666185
0.000353426
-0.00383423
0.00484481
-0.00436107
0.00490205
-0.0049189
0.00603469
-0.00660087
0.00625292
-0.0092598
0.00835836
-0.00922641
-0.0118311
0.00280332
-0.000860617
5.08042e-05
-0.000313844
-0.000231451
-0.000305996
-0.000301835
-0.000324813
-0.000326952
-0.000341012
-0.00034685
-0.000339838
-0.000344289
-0.000333231
-0.000325801
-0.000315465
-0.000298725
-0.000273929
-0.000249144
-0.000216009
-0.000181119
-0.000138837
-0.000100321
-5.80805e-05
9.67494e-06
6.21718e-05
0.000144871
0.000210097
0.000304059
0.00037864
0.000492932
0.000563692
0.000681965
0.000752752
0.000852891
0.000889033
0.00101116
0.00104366
0.00122556
0.00117124
0.00145507
0.00130297
0.00208506
0.00224175
0.00432544
0.00133071
-0.0108617
0.0788388
-0.0210709
0.0298108
-0.0110267
0.0174607
-0.00304055
0.00454641
0.000285193
-5.68238e-05
0.00501805
-0.00404112
-0.000197091
0.000514257
0.000518512
-0.000946826
-0.00211123
-0.00159073
-0.00334569
-0.00217049
0.000624614
0.00458572
0.00760749
0.00706283
0.00361532
-0.00554151
-0.0105323
-0.0053852
0.000821511
0.0127824
0.013873
-0.00122595
-0.014097
-0.017397
-0.0173487
0.0289813
0.0653122
0.0443387
0.008311
-0.0422898
-0.0525123
-0.0755071
-0.0302053
-0.00849637
0.0354706
0.0354728
0.0348675
0.00598846
-0.00803989
-0.012769
-0.00623643
-0.000928313
0.0208606
0.0122259
0.0126797
-0.00236036
-0.0143862
-0.0140252
0.00794762
0.00285852
0.00936126
-0.00437001
0.00143097
-0.00603153
0.00688853
-0.00606378
0.00405556
-0.00491051
0.00659693
-0.00507344
0.0050603
-0.00620985
-0.0118132
0.00278963
-0.000859518
4.89497e-05
-0.000314318
-0.000232027
-0.000306366
-0.000302386
-0.000322712
-0.000327551
-0.000338877
-0.000345703
-0.00034234
-0.000345496
-0.000343398
-0.000335332
-0.00030951
-0.000300543
-0.000278716
-0.00025128
-0.000218713
-0.000184035
-0.000150324
-0.000103901
-6.69185e-05
-4.19787e-06
4.25705e-05
0.000113528
0.000175844
0.000256327
0.00032799
0.000420891
0.00050078
0.000632115
0.000753883
0.000893263
0.00113565
0.0013687
0.00175825
0.00209863
0.0027394
0.00344109
0.0047694
0.0059086
0.00776233
0.0101018
0.00541045
0.00180467
0.0735204
-0.0240115
0.0353348
-0.014801
0.017102
-0.00369173
0.00292269
0.00197455
-1.81411e-05
0.0038551
-0.00397119
0.000305486
-0.00250976
0.00074066
-0.000816704
0.00232616
0.00295674
0.00431021
0.0034464
0.000743449
-0.00634007
-0.00820629
-0.00632703
-0.00155791
0.00497925
0.013707
0.0119946
0.00062327
-0.0165561
-0.0189509
-0.0125824
0.0166484
0.0375068
0.0219899
-0.0132477
-0.0406252
-0.0384699
-0.0137347
0.0231609
0.0401461
0.048492
0.0179774
0.00800649
-0.030081
-0.0385539
-0.0314698
-0.0115862
0.027154
0.00647767
0.0132868
-0.00280727
-0.0138928
-0.0149139
0.00112351
0.00463527
0.0238308
0.00538805
-0.00820034
-0.0142578
-0.00120337
-0.00374431
0.00899905
-0.0026866
0.000866878
-0.00577157
0.00757083
-0.00597276
0.00514095
-0.00770491
0.00638701
-0.00460091
-0.0118051
0.00277775
-0.000858526
4.71706e-05
-0.00031544
-0.000233138
-0.000306976
-0.000302034
-0.000327589
-0.00032989
-0.000338866
-0.000346648
-0.000345315
-0.000345925
-0.00034008
-0.000332145
-0.000316196
-0.000305566
-0.000276305
-0.000255797
-0.000222992
-0.000187444
-0.00014694
-0.000104237
-6.83109e-05
2.07194e-06
5.45328e-05
0.000132422
0.00019716
0.000295982
0.000366978
0.000464911
0.000547851
0.000658569
0.000719821
0.000802028
0.000872458
0.000945263
0.00104481
0.00122682
0.00128841
0.00171042
0.00188947
0.00326516
0.00350203
0.00527843
0.00879525
-0.0189482
0.0724385
-0.0211328
0.0327591
-0.0118703
0.0143554
-1.10386e-05
0.00180471
0.00386186
-0.000839316
0.00342881
-0.00314956
0.00448466
-0.00201845
0.00286197
0.00209976
0.00172729
-0.000373512
-0.00151518
-0.00216131
-0.00107403
0.00216885
0.00420484
0.00810276
0.00461745
-0.00318392
-0.00921772
-0.00663402
-0.00106826
0.0144462
0.022179
0.0110864
-0.0230797
-0.0327948
-0.0270412
0.0106193
0.0427062
0.0478508
0.0331557
0.0280565
-0.0383077
-0.00979977
-0.0490528
-0.000919425
0.00411511
0.0272355
0.0285499
0.00789724
-0.0141034
-0.0138269
-0.00535459
-0.00064274
0.0187626
0.00436039
0.00435235
-0.0141096
-0.0125737
-0.00842608
0.0175645
0.00716119
0.0103482
-0.00929826
-0.00234245
-0.00643557
0.00884166
-0.00485822
0.00289302
-0.00538877
0.00671645
-0.00524021
0.00594775
-0.00625259
-0.0117795
0.00275764
-0.000857665
4.44352e-05
-0.000316384
-0.000233902
-0.00030764
-0.000301699
-0.00032635
-0.000328253
-0.000341334
-0.000346439
-0.000346287
-0.000344384
-0.000344247
-0.000334794
-0.000319739
-0.000305329
-0.00028234
-0.00025872
-0.000226497
-0.00019434
-0.000158474
-0.000112949
-8.39726e-05
-2.47609e-05
2.40643e-05
7.93474e-05
0.000143027
0.000212392
0.000273462
0.000360582
0.000429779
0.000533864
0.000650671
0.000800835
0.000905831
0.00110201
0.00132673
0.0016636
0.00222233
0.00271627
0.00377539
0.00448583
0.0067365
0.00697791
0.0184409
-0.0303183
0.104204
-0.0219445
0.0301849
-0.0140658
0.0102405
-0.00560506
-4.58042e-05
-0.000276527
-0.00325381
0.00232094
-0.00480752
0.00348279
-0.00462007
0.000282444
-0.00461129
-0.000920073
-0.000319342
0.00150861
0.00282112
0.00191802
-0.00217048
-0.00523858
-0.00763783
-0.00501449
5.15315e-05
0.00966175
0.0103555
0.00756105
-0.00836816
-0.0168568
-0.010039
0.0147005
0.0335682
0.0280424
0.00306901
-0.0304171
-0.0206605
-0.0191821
0.00895541
-0.00875377
0.0362822
0.00478707
0.0320267
-0.0272883
-0.0190224
-0.0206192
-0.015287
0.0191341
0.00726354
0.00835501
-0.00418178
-0.0109764
-0.0120359
-0.00244944
0.00829018
0.0217322
0.00330279
-0.0106104
-0.0149268
-0.00342978
0.000706185
0.014785
-0.00277525
0.000584399
-0.00798965
0.00633317
-0.00476907
0.00489732
-0.00613771
0.00556759
-0.00438523
-0.0117681
0.00274336
-0.000857158
4.22283e-05
-0.000317877
-0.000234633
-0.000310533
-0.000300918
-0.000326989
-0.00033175
-0.000342606
-0.000346663
-0.000350156
-0.000347668
-0.00034692
-0.000334757
-0.000321609
-0.000308455
-0.000288848
-0.000264282
-0.000233344
-0.00019781
-0.000160184
-0.0001158
-7.93106e-05
-1.69085e-05
3.36431e-05
0.000114343
0.00017688
0.000264501
0.000341049
0.000439462
0.000517428
0.000608738
0.000676771
0.000749426
0.000790521
0.000826993
0.000830024
0.000838862
0.000751319
0.00069162
0.000160227
0.000385163
-0.00202984
0.00351073
-0.0231391
0.0520852
0.0760095
-0.0214123
0.0108561
0.00582018
0.00935497
0.00534744
0.00507188
0.00437628
0.000532588
0.00448904
-0.00137003
0.00450837
-0.00311677
0.00450403
-0.00299342
0.0016403
-0.00257243
-0.00224647
-0.00331782
-0.00140559
0.00201391
0.00260445
0.00450559
0.00339344
0.0015818
-0.00670081
-0.00963295
-0.00849315
0.00196141
0.0132263
0.0108938
0.00171189
-0.010273
-0.0151916
0.00470783
0.0056136
0.00185546
0.00108625
0.000151856
-0.00292963
-0.00808078
0.0106086
-0.0133333
0.0171754
-0.00218566
0.0278701
-0.00769205
-0.00736965
-0.0198132
-0.00904322
0.000557694
0.0145094
0.00934505
0.00228102
-0.0120926
-0.0119943
-0.010348
0.0136304
0.00491302
0.0131329
-0.00802663
-0.00211922
-0.00748857
0.00847837
-0.000239372
0.00201106
-0.00586311
0.00551584
-0.00405565
0.00518896
-0.00503416
-0.0117398
0.00272229
-0.000856638
3.90771e-05
-0.000319464
-0.000235907
-0.000310494
-0.000301195
-0.000327518
-0.000333414
-0.000341284
-0.000346686
-0.00035338
-0.000346233
-0.000347576
-0.000337729
-0.000330961
-0.00031083
-0.000292889
-0.000270321
-0.000244679
-0.000209556
-0.000175492
-0.000135572
-9.91081e-05
-5.5733e-05
-8.93282e-06
4.75446e-05
9.14045e-05
0.000151012
0.000200133
0.000261876
0.000310198
0.000391907
0.000441625
0.000579836
0.00066261
0.000714528
0.00079063
0.000729682
0.000728542
0.000515816
0.000347068
-0.000907006
-0.00130744
-0.00350583
-0.00371376
0.038901
0.056103
0.0052722
-0.0144903
-0.00311598
-0.00225993
-0.0044056
0.0034427
-0.00372686
-0.000812917
-0.000404285
-0.00697331
0.00440432
-0.00384838
-0.000476304
-0.000559254
9.40257e-05
-0.00111746
-0.000941782
0.000170561
-0.000234667
0.000127934
-0.000578802
-0.000733208
-0.00171378
-0.00123583
0.00155853
0.0020939
0.00329316
-0.000180611
-0.00477598
-0.00683427
-0.000624635
0.00579928
0.0020921
0.0161284
0.00162807
-0.00328039
0.000657895
-0.0048002
0.00478437
0.00326159
0.0149024
-0.0286759
0.0143199
-0.0174351
0.00908427
-0.00216522
0.022179
0.0138423
0.0136633
0.00395572
-0.00858546
-0.0109098
-0.00333438
-0.000859375
0.0101782
0.00305752
-0.00561682
-0.00845656
-0.00704365
-0.00639341
0.0118828
-0.00110652
0.00503561
-0.00990051
0.00504476
-0.00380049
0.00494125
-0.00586175
0.00475397
-0.00497488
-0.0117264
0.00270674
-0.000857053
3.6605e-05
-0.000321076
-0.000237437
-0.000312441
-0.000303308
-0.000328207
-0.000336685
-0.000344848
-0.000346839
-0.000356762
-0.000347876
-0.000354866
-0.000341519
-0.000332087
-0.000314983
-0.000300258
-0.000275699
-0.000248263
-0.000213847
-0.000179251
-0.000140105
-9.51099e-05
-4.96156e-05
9.57694e-06
7.52562e-05
0.000140596
0.000225067
0.000299116
0.000396018
0.000474681
0.000570041
0.000633823
0.000711712
0.000750463
0.000776378
0.000803981
0.000750252
0.0005447
0.000231426
-0.000392696
-0.000677554
-0.000532507
-0.00280527
0.000226353
0.0213411
0.170607
-0.0196729
-0.0157739
-0.0120845
-0.0104892
-0.00335084
-0.000949366
-0.0013695
0.000307573
-0.000664966
-0.0028094
-0.000667978
-0.000846072
-0.00142103
0.000249378
-0.00195492
0.00141939
-0.00168423
-5.49109e-05
-0.00149917
-0.000686401
-0.00199589
-0.00105603
-0.000780695
4.46222e-05
-0.000111122
-0.000498589
-0.00114114
-0.00220223
0.00118946
-0.00148102
-0.00196822
-0.000602865
-0.0036584
-0.00236491
0.00278074
0.00228828
0.00190075
-0.00365022
0.00531927
-0.0187441
0.0119091
-0.0169412
0.0239283
-0.00561886
-0.0041298
-0.00314952
-0.017051
-0.0182094
-0.0114724
-0.0064942
0.00455006
0.00196265
0.00571709
-0.00159058
0.00130226
-0.005363
0.00476595
-0.00107058
0.00968301
-0.00164875
-0.00229009
-0.011901
0.00714289
-0.00179573
0.00473453
-0.00727477
0.004315
-0.00509449
0.00496143
-0.00604744
-0.0116982
0.00268735
-0.000856752
3.28342e-05
-0.000323286
-0.000238182
-0.000314376
-0.000301337
-0.00033029
-0.000337235
-0.000344623
-0.000348641
-0.000359441
-0.000349713
-0.000353502
-0.000343809
-0.000341547
-0.000321593
-0.000307508
-0.000285838
-0.000261839
-0.000231585
-0.000198745
-0.000164623
-0.000127819
-9.30807e-05
-5.09043e-05
-6.77842e-06
2.90325e-05
7.40253e-05
0.00010094
0.000135573
0.000168925
0.000196048
0.000213054
0.000226246
0.000228734
0.000165406
0.000149759
6.17499e-06
-2.17462e-05
-0.000370212
-0.000326197
-0.00150127
0.000853447
-0.00561393
0.0151998
-0.0240672
0.245082
-0.0599259
-0.00853839
-0.0199055
-0.0102582
-0.0126042
-0.00486957
-0.0105188
0.000621711
-0.00746106
-0.000654112
-0.00444201
-0.000887029
-0.00364553
-0.00121951
-0.00300155
-3.00681e-05
-0.00306986
-0.00170595
-0.000899558
-0.000517635
-0.000243931
-0.000648831
0.000364758
-0.00136998
-0.000283665
-0.00118399
-0.000270899
-0.00109864
0.000107783
-0.00403226
0.00161354
0.00108242
-0.00184609
0.0209295
-0.00993172
-0.00926413
0.00188826
-0.000517864
0.00165379
-0.00578499
0.000110914
-0.00177495
-0.010177
-0.00214062
-0.0102601
0.0174635
-0.000798232
0.0108209
0.0140812
0.00725379
0.00143786
-0.00708044
0.000925776
-0.00527011
0.00317629
0.000141736
-0.000574569
-0.00168094
-0.000190134
0.00101159
0.00178146
0.00273846
0.00320615
-0.00900505
0.00660256
-0.00381472
0.00663687
-0.00545333
0.0058786
-0.00505241
-0.0116836
0.00267172
-0.000857754
3.07434e-05
-0.00032517
-0.000239328
-0.000316546
-0.000302651
-0.000330334
-0.000339537
-0.000345904
-0.000352468
-0.000362212
-0.000355662
-0.000360087
-0.000351991
-0.000344886
-0.00032749
-0.000314409
-0.000293662
-0.000269659
-0.000241034
-0.000206598
-0.00016946
-0.00013018
-8.4596e-05
-3.35517e-05
2.73567e-05
8.56786e-05
0.000164179
0.000245527
0.000333925
0.000435141
0.00053567
0.000651489
0.000760715
0.000874331
0.000982493
0.000997445
0.00118038
0.00104233
0.00139444
0.00091953
0.00128779
-0.000534607
0.00158903
-0.00414242
0.0400686
0.0816901
0.032214
0.014433
0.0135647
-0.000126338
0.00867579
-0.00299454
0.00584953
-0.0074986
0.0063716
-0.00807325
0.00369238
-0.00533853
0.00187779
-0.00338421
0.000313348
-0.00336691
-0.000381531
-0.00181758
-0.000896635
-0.00123551
-0.00100646
-0.000931947
-0.00142364
7.07043e-05
-0.00128158
0.000375356
-0.00129534
-0.00029139
-0.00373539
0.00385658
-0.00319381
-0.00255982
0.00778046
0.00394478
-0.0185221
0.00414643
0.00970823
-0.00322883
-0.0173799
-0.00597944
-0.00299956
0.0158959
-0.0162811
0.0129589
-0.00917396
0.00540205
-0.00768149
-0.00596859
-0.00554212
-0.0127269
-0.000629716
-0.00298254
0.00441435
-0.000205727
0.000935842
-0.00329345
-0.00157138
-0.00702797
0.00760087
-0.0039261
0.000129902
-0.00914466
-0.00277947
0.00385968
0.00522999
-0.00716048
0.00538462
-0.00390497
0.0054847
-0.00447939
-0.0116577
0.00265475
-0.000857467
2.6213e-05
-0.000327346
-0.000241328
-0.000316658
-0.000305201
-0.000331288
-0.000341278
-0.000349185
-0.000353435
-0.000363927
-0.00035728
-0.000361211
-0.000356002
-0.000350714
-0.000335857
-0.000326582
-0.000307066
-0.000286822
-0.000262143
-0.000232451
-0.000202269
-0.000171198
-0.000138473
-0.000107209
-7.91477e-05
-4.23838e-05
-1.53005e-05
-4.77627e-06
6.50202e-07
5.13058e-06
-1.18711e-05
-3.66251e-05
-6.5654e-05
-0.000100819
-0.000175585
-0.000229727
-0.000377209
-0.000437291
-0.000433019
-0.00064424
0.00112083
-0.00256191
0.00980281
-0.0190096
0.104335
0.0534242
-0.0350472
0.0249784
-0.0170193
-0.0085004
-0.0100076
-0.0145936
-0.011681
-0.00256643
-0.00917999
0.00338223
-0.00925535
0.00626541
-0.006606
0.00116024
-0.00379341
0.000976659
-0.00351483
-7.07102e-05
-0.00202009
-0.0004988
6.67897e-05
0.000304267
0.000255281
-0.00147557
-0.00125255
-0.00271377
-0.00116226
-0.000780026
0.000450047
0.00152132
0.00217157
0.0102091
0.0024176
-0.0024724
-0.00353404
0.0102435
-0.00600545
-0.0125759
-0.00841039
0.0107892
0.0042898
0.00155856
-0.0161264
0.00790916
-0.00248106
-0.00484437
0.0100529
0.00257947
0.00988989
0.00538835
0.00814049
-0.000767172
0.00180811
-0.00117737
0.00100805
-0.00262108
0.00366773
-0.00663173
0.0122931
-0.012431
0.0107116
-0.0107132
0.0193054
-0.00839642
-0.000654008
-0.00444388
0.0041087
-0.00647691
0.00483515
-0.00609817
-0.011643
0.00264039
-0.000858962
2.43224e-05
-0.000329303
-0.000242763
-0.000318615
-0.000306071
-0.000333799
-0.000341319
-0.000351612
-0.000355025
-0.000368113
-0.000365932
-0.000366145
-0.000366255
-0.000359869
-0.000346091
-0.000333942
-0.000317263
-0.000298146
-0.000273039
-0.000243277
-0.000211002
-0.000176234
-0.000136889
-9.06401e-05
-3.63192e-05
2.45028e-05
8.74861e-05
0.000172427
0.000256743
0.00037339
0.000481748
0.000664408
0.000813079
0.00103694
0.001228
0.00154022
0.00193135
0.00250443
0.00285036
0.00295176
0.00476426
0.00200282
0.0141221
-0.00196001
0.0936409
0.0144035
0.0126991
0.00422646
0.0431331
-0.0163976
0.0162045
-0.0126491
0.0115018
-0.00985052
0.00815768
-0.00787272
0.00640722
-0.00647757
0.00164778
-0.00390253
-6.83957e-05
-0.00237612
-0.000447271
-0.000855419
0.00014627
0.000405902
0.00113363
0.000684631
-0.00158321
-0.00175094
-0.0025823
-0.00151453
-0.00358633
-8.96549e-05
-0.0062692
0.00870822
-0.00259464
0.000916597
0.0122658
-0.00491199
-0.00356322
-0.00100017
-0.00804475
-0.00412515
0.00425745
0.00125595
-0.0123508
-0.00243352
0.00150997
-0.00459418
0.0052522
-0.0148376
0.00447009
-0.009944
-0.00563967
-0.0104386
-0.00438226
-0.00641087
-0.00097122
-0.00142861
0.000996933
-0.00225326
0.00175443
-0.00552301
0.00593292
-0.00288224
0.000550318
-0.00344684
-0.00408343
-0.0127893
0.0191719
-0.00480064
0.00312489
-0.00755985
0.00577451
-0.00642079
-0.0116213
0.00262593
-0.000858652
2.02701e-05
-0.000332057
-0.000244501
-0.000319838
-0.000307942
-0.000336562
-0.000342312
-0.000354982
-0.000357804
-0.000372868
-0.000372866
-0.000371293
-0.000369566
-0.00036517
-0.000358153
-0.000347669
-0.000335096
-0.000318479
-0.000298398
-0.000276584
-0.000251228
-0.000226049
-0.000199755
-0.000173853
-0.000150559
-0.00013794
-0.000122188
-0.000120245
-0.000137541
-0.000162112
-0.000180372
-0.000298749
-0.000342425
-0.000524857
-0.00059789
-0.000746572
-0.000971796
-0.00120187
-0.00126752
-0.00164437
-0.00145306
-0.00271317
-0.00207505
0.00112529
0.0784166
0.00864014
0.0010391
-0.00301259
0.0215337
0.00391449
0.0172166
-0.0138781
0.0041098
-0.00723072
0.000581705
-0.0070725
0.000954276
-0.00565613
-0.00267132
-0.00340155
-0.00183418
-0.00202034
-0.00100885
-0.000912662
-0.000353553
0.000444383
5.06001e-05
-7.15699e-06
-0.000968882
-0.000671653
-0.00221606
-0.00251715
-0.00367779
-0.00263626
-0.00076644
0.00546395
-0.00271897
0.0159288
0.00174358
-0.0190702
-0.00204399
0.013491
0.0056539
0.00157779
-0.00386384
-0.00306386
0.00532229
0.00226807
0.009496
-0.00961667
0.00508476
-0.00137362
0.00527682
0.00138669
-0.000145753
0.00242795
0.00428137
0.000898971
0.00354599
-0.00248728
0.00159949
-0.00137827
0.00236621
0.000531603
-0.00491946
0.0064176
-0.00976098
0.00905199
0.000941544
0.00295011
0.00322368
-0.0134712
0.00995956
-0.00382126
0.00581418
-0.00532341
-0.0116077
0.00261393
-0.000860259
1.85402e-05
-0.000333566
-0.000245968
-0.000320231
-0.000311709
-0.000337163
-0.000344137
-0.000359648
-0.000362059
-0.000373679
-0.00037632
-0.0003762
-0.000379932
-0.000376011
-0.000369073
-0.000358315
-0.000347924
-0.000331951
-0.000313463
-0.000290765
-0.00026589
-0.000236566
-0.000204804
-0.000164502
-0.000118573
-7.13968e-05
-1.21528e-05
6.5998e-05
0.000148367
0.000261286
0.000411152
0.000541426
0.000788842
0.000957676
0.00132325
0.00161638
0.00174569
0.00249476
0.00161081
0.00377466
7.89679e-05
0.00969548
-0.0110152
0.0602746
0.0421158
0.011141
0.00908404
0.00536148
0.0157372
0.00830594
0.0270997
-0.0101255
0.0145354
-0.00906166
0.00656835
-0.00539917
0.00640624
-0.00762641
0.00308647
-0.00280464
-0.000911711
-0.00148577
-0.00211391
0.000407113
-0.000790071
0.00027959
-0.00152526
-0.00223086
-0.00300623
-0.00189681
-0.000918376
-0.00137676
-0.00123568
-0.00182252
0.00988767
0.00356977
0.00990108
0.00261994
-0.0178164
-0.00980114
0.0113306
0.00682987
-0.00252507
-0.0192118
-0.00107584
0.0031475
0.00469116
-0.0108791
-0.00133697
-0.00565625
-0.000718809
-0.00717758
-0.00535156
0.000751616
-0.00298728
-0.00137149
-0.000231706
-0.00398189
-0.00121075
-0.00254854
0.00114095
-0.00308071
0.00144316
-0.000336298
-0.00300353
0.000215889
-0.00154062
0.00260868
-0.00387952
-0.00182756
-0.00315614
-0.00130148
0.00703707
-0.00519515
0.00489989
-0.00453524
-0.0115897
0.00260218
-0.000860016
1.48108e-05
-0.000336091
-0.00024807
-0.00032093
-0.000314438
-0.000337889
-0.000346849
-0.00036084
-0.000366018
-0.000376585
-0.000386442
-0.000386665
-0.000385296
-0.000387238
-0.000384554
-0.000374559
-0.000368529
-0.00035761
-0.000344744
-0.000326239
-0.000313078
-0.000291246
-0.00027617
-0.000256206
-0.000240877
-0.000236702
-0.000235427
-0.000248188
-0.000280711
-0.000327077
-0.000394779
-0.000505287
-0.000613278
-0.0008486
-0.0010108
-0.00115815
-0.00151787
-0.00130477
-0.00228372
-0.0004513
-0.00486965
0.00664781
-0.0221864
0.101372
0.0199679
-0.00370211
-0.00575654
0.00242889
0.00333002
0.0152057
0.0065112
0.0265019
-0.0149033
0.0127903
-0.0145517
0.00680521
-0.0111558
0.00587167
-0.00638467
0.000108588
-0.00246517
0.0020647
-0.00247639
-0.000511182
-0.000232038
0.000262726
-0.000713184
0.00154583
0.00055682
0.00322817
0.000997988
0.00431992
-0.00324312
0.00733253
-0.00427498
0.00357965
0.0064562
-0.020617
-0.00585367
0.0100908
0.00874074
-0.00915135
-0.0122198
-0.00110517
0.0112241
0.00635632
-0.000401662
0.00394973
0.000626635
0.0081103
-0.00421653
0.0133542
0.000871109
0.0102244
0.00129312
0.00226473
0.00361
0.00152272
-0.000588805
-0.000792835
0.000922277
0.001333
0.000481407
-0.0019892
0.00271309
-0.00892655
0.0142967
-0.011652
0.00686684
-0.0072399
0.00757696
0.000608509
-0.000879045
-0.00645967
0.0064389
-0.00761577
-0.0115788
0.00259322
-0.000861256
1.35217e-05
-0.000337985
-0.000249175
-0.000322583
-0.000316507
-0.000341381
-0.000348564
-0.000365759
-0.000369887
-0.000381906
-0.000390706
-0.000392099
-0.000394783
-0.000396549
-0.000397786
-0.00038778
-0.000383347
-0.000375265
-0.000364981
-0.000347569
-0.000329847
-0.000312578
-0.000290605
-0.00026204
-0.000224558
-0.000187821
-0.000144043
-8.73821e-05
-8.28882e-06
8.45305e-05
0.000228326
0.000352935
0.00057967
0.000755728
0.00113201
0.00138698
0.00176478
0.00209516
0.00316133
0.00313218
0.00298017
0.0105637
-0.004112
0.0844833
0.00849904
-0.00287314
-0.00763695
-0.00978586
0.00486012
0.00276444
0.016563
0.00182038
0.0383051
-0.0221519
0.0312188
-0.0213922
0.0132738
-0.0101883
0.00268971
-0.00180374
0.000217865
0.000385998
-0.00195783
0.00305926
-0.00130073
0.00374685
0.00122837
0.00363938
0.000975257
0.000206786
-0.000406094
-0.0027969
0.000872609
0.00210003
-0.00357191
0.0183196
-0.00602741
-0.00683802
0.00332466
-0.000281673
-0.0115726
-0.0117696
-0.00633054
0.00469783
-0.00228934
-0.00605909
-0.0125665
-0.000718248
0.00119218
0.00294953
-0.0140932
-0.00295895
-0.00251644
-0.00315113
-0.00336422
-0.0023989
0.00133103
0.00126265
-0.000474066
0.00111418
-0.000331657
-0.00382088
0.000376866
-0.00118108
0.00308709
-0.00568615
0.00579907
-0.00848991
0.0125155
-0.0102494
0.00874833
-0.0120115
0.00691756
-0.00504508
0.00450061
-0.00667804
-0.0115634
0.00258413
-0.000860811
1.08216e-05
-0.000339885
-0.000250824
-0.000323804
-0.000318389
-0.000345548
-0.000347403
-0.000371178
-0.000374215
-0.000387319
-0.000398586
-0.000404141
-0.000405248
-0.000409665
-0.000417258
-0.000408033
-0.000405952
-0.000405606
-0.00040038
-0.000388974
-0.000376384
-0.000374292
-0.000367751
-0.000351019
-0.000349622
-0.000352055
-0.00036837
-0.000389673
-0.000421118
-0.000489089
-0.000612661
-0.000718788
-0.000914901
-0.0011398
-0.00136628
-0.00173637
-0.00277852
-0.00311031
-0.00361644
-0.00426781
-0.00594781
-0.0106342
0.0181557
0.0592475
0.0213012
0.00697261
0.000278555
-0.00902026
-0.00184968
0.00602263
-0.00305581
0.00026217
0.026244
0.00158292
0.0271146
-0.0105194
0.0114593
-0.00875009
0.00109658
-0.00141166
-0.00147497
0.0065884
-0.00343507
0.00727852
-0.00358854
0.00409444
-0.00182275
0.00379005
0.000606381
0.00734405
-0.00464648
0.0124789
-0.00163751
0.0123212
-0.00383078
0.00378315
-0.0084534
0.00258511
0.00792106
0.00142393
-0.00616207
0.00254019
0.00592434
0.00108387
0.00348407
0.00243866
0.00260135
0.00170778
0.00332082
-0.000262451
0.0082443
0.00118313
0.00613347
-0.00170698
0.00853855
-0.000451167
0.00415684
0.00158831
0.00247917
-0.000904512
0.00178706
0.000440912
0.00246665
-0.000733051
0.000537168
-0.000753397
-0.0010445
0.00485199
-0.00823465
-0.00178753
0.00614278
-0.00423933
0.00620713
-0.00331311
0.00584572
-0.00565934
-0.0115584
0.00257851
-0.000861562
9.46691e-06
-0.000342007
-0.000252082
-0.000325669
-0.000321033
-0.000347096
-0.00035278
-0.000373578
-0.000380911
-0.000391763
-0.000405349
-0.000411874
-0.000415505
-0.00042042
-0.000430017
-0.000427583
-0.00042355
-0.000425978
-0.000425177
-0.000416095
-0.000405618
-0.000399275
-0.000391039
-0.000375274
-0.000357002
-0.000331038
-0.000306495
-0.000268774
-0.000221723
-0.000137552
-4.76188e-05
8.77074e-05
0.000216933
0.000335404
0.000515308
0.000617829
0.000957467
0.000637337
0.00278928
-0.00159806
0.00963361
-0.0180744
0.08115
0.0401542
-0.00288194
0.000502412
-0.00962823
-0.00686122
0.00129293
0.0046847
0.00201866
-0.0121697
0.0119957
0.0096024
0.0247333
-0.011661
0.0171389
-0.00732016
-0.00145117
0.00518537
-0.00509636
0.0121795
-0.00799722
0.0137248
-0.00375607
0.0104578
0.00110727
0.0139504
-0.000531441
0.00768716
0.00263524
0.00733702
-0.00341844
0.00632644
0.0019129
0.00245276
-0.000119481
0.00248573
-0.00261408
0.00536798
0.00207173
0.007007
0.00659151
0.00443022
-0.00203226
-0.00216169
0.000335845
-0.000440803
1.31958e-05
-0.00829278
0.00213465
-0.00301835
0.000637792
-0.00597272
0.00152299
-0.00232996
-0.00133146
-0.00215498
-0.00691581
-0.00252467
-0.00295354
-0.00345737
-0.00066638
-0.00244625
0.00111821
0.000451702
-0.0023361
0.00244433
-0.00628955
0.00811591
-0.00333248
-0.00329531
0.00681584
-0.00596526
0.00482158
-0.00664833
-0.0115451
0.00257165
-0.000861
7.6857e-06
-0.000343751
-0.00025374
-0.000326318
-0.000324294
-0.000348828
-0.000355479
-0.000377636
-0.000385666
-0.000397974
-0.000413704
-0.000425511
-0.000427808
-0.000436468
-0.000450755
-0.000450936
-0.000450983
-0.000457491
-0.000465323
-0.000459551
-0.000461315
-0.000458934
-0.000471776
-0.000474084
-0.000466292
-0.000482006
-0.000501567
-0.00054506
-0.000602468
-0.00065702
-0.000783425
-0.000907456
-0.00109138
-0.00128584
-0.00138706
-0.00172692
-0.00148837
-0.00195344
-0.000871386
-0.00241049
0.00551436
-0.0135796
0.0920704
0.0159829
-0.00176595
-0.00162933
-0.00376117
-0.00247591
0.00310788
0.00308501
-0.000552143
-0.00924519
0.00376891
0.00968581
0.0138978
0.00420503
0.0216799
-0.00908412
-0.00616402
0.0184928
-0.00513572
0.0171412
-0.00500184
0.0169623
-0.00266355
0.0113404
0.000758993
0.00326023
-0.00158114
0.00617722
0.000480843
0.00140324
0.000743923
0.00275963
0.00220095
0.00163717
0.0011312
0.00346845
0.00118091
0.0026519
0.00290363
-0.000628467
0.00124558
0.00181351
0.000736666
-0.000426001
3.51713e-05
0.00148755
0.00299002
0.00393301
0.000776494
0.00332368
0.000974152
0.000763964
0.00169649
-0.000238585
0.000290563
0.0015483
0.00108571
0.00370805
0.00483791
0.00095838
0.00180627
-0.00116473