/*--------------------------------*- C++ -*----------------------------------*\
| =========                 |                                                 |
| \\      /  F ield         | OpenFOAM: The Open Source CFD Toolbox           |
|  \\    /   O peration     | Version:  2.2.x                                 |
|   \\  /    A nd           | Web:      www.OpenFOAM.org                      |
|    \\/     M anipulation  |                                                 |
\*---------------------------------------------------------------------------*/
FoamFile
{
    version     2.0;
    format      ascii;
    class       volScalarField;
    location    "1.6";
    object      T;
}
// * * * * * * * * * * * * * * * * * * * * * * * * * * * * * * * * * * * * * //

dimensions      [0 0 0 1 0 0 0];

internalField   nonuniform List<scalar> 
14161
(
0.965648
0.972819
0.970628
0.970744
0.970077
0.969453
0.968692
0.96788
0.96705
0.96623
0.965352
0.964516
0.963718
0.962917
0.962116
0.961398
0.960727
0.960139
0.959649
0.959198
0.958783
0.958527
0.958364
0.958356
0.958398
0.95853
0.958749
0.959077
0.95951
0.960075
0.960787
0.961441
0.962161
0.963023
0.964214
0.965515
0.966725
0.968057
0.969217
0.970413
0.971663
0.9726
0.971991
0.969797
0.96188
0.950244
0.94533
1.4087
2.48431
2.48852
2.49072
2.48765
2.4971
2.49464
2.49606
2.4922
2.4893
2.48852
2.48425
2.47767
2.46675
2.46004
2.45161
2.44273
2.43324
2.42815
2.42291
2.41744
2.41227
2.40587
2.40047
2.39527
2.39105
2.38605
2.37972
2.37292
2.36624
2.36304
2.36781
2.38031
2.39743
2.41456
2.43831
2.4584
2.47447
2.48679
2.50288
2.51476
2.51708
2.51626
2.51005
2.50527
2.51054
2.53558
2.5679
2.60793
2.65578
2.71614
2.76972
2.82093
2.868
2.9016
2.93207
2.95644
2.97668
2.99484
3.0114
3.02609
3.03995
3.05269
3.06575
3.07768
3.08914
3.09291
3.11069
3.12126
3.12827
3.1276
3.13829
0.965696
0.972878
0.970664
0.970768
0.970086
0.969442
0.96871
0.967909
0.967072
0.966212
0.965326
0.96452
0.963747
0.962961
0.96209
0.961351
0.960702
0.960171
0.959699
0.959265
0.958827
0.958518
0.958334
0.958337
0.958389
0.958522
0.95875
0.959093
0.959534
0.960107
0.960816
0.96155
0.962265
0.963122
0.964269
0.96547
0.966571
0.967637
0.968387
0.969482
0.970093
0.969469
0.967046
0.960648
0.948936
0.926671
0.969937
2.03454
2.91584
2.94524
2.93145
2.9131
2.90348
2.88348
2.86949
2.85366
2.83758
2.82209
2.80306
2.78248
2.76044
2.74358
2.72598
2.70899
2.69172
2.67981
2.67116
2.66685
2.66433
2.66202
2.65266
2.64066
2.62925
2.62029
2.61479
2.61336
2.62357
2.62216
2.60088
2.58647
2.60461
2.64355
2.69647
2.72552
2.74661
2.74545
2.73844
2.75353
2.78079
2.8119
2.8491
2.89894
2.93382
2.96614
2.99808
3.01988
3.03693
3.05879
3.07541
3.0852
3.09035
3.08784
3.0872
3.08517
3.0849
3.08544
3.08805
3.08977
3.09295
3.0961
3.09922
3.09946
3.10257
3.10315
3.1163
3.12418
3.12857
3.1274
3.13747
0.965753
0.972887
0.970689
0.970796
0.970121
0.969491
0.968722
0.967907
0.967075
0.966261
0.96538
0.964558
0.963764
0.962984
0.962115
0.961372
0.960714
0.960147
0.959689
0.959282
0.958835
0.958531
0.958338
0.958331
0.958368
0.958485
0.958691
0.959006
0.959412
0.959945
0.960588
0.96132
0.961991
0.962865
0.964017
0.965433
0.966887
0.968417
0.969997
0.972052
0.974555
0.978372
0.982765
0.989675
0.996635
1.02083
1.04877
2.55781
3.02292
3.00546
3.01288
2.98332
2.97197
2.94527
2.92781
2.90588
2.88653
2.86337
2.83797
2.81334
2.78905
2.76816
2.75079
2.73483
2.71859
2.70472
2.69563
2.68208
2.66317
2.65257
2.64981
2.64767
2.64392
2.63779
2.62773
2.59982
2.58318
2.5866
2.61863
2.6724
2.71103
2.71555
2.68921
2.69194
2.73703
2.81539
2.91198
3.01151
3.07323
3.13091
3.1427
3.17631
3.18719
3.21832
3.23785
3.25186
3.25859
3.26033
3.25631
3.24654
3.23621
3.22613
3.22368
3.21273
3.20403
3.19162
3.17906
3.17101
3.1623
3.15275
3.14436
3.13359
3.12606
3.11853
3.12426
3.12854
3.12884
3.12539
3.1363
0.965794
0.972896
0.9707
0.970806
0.970132
0.969499
0.968728
0.967915
0.967089
0.966275
0.965399
0.964555
0.963732
0.962913
0.962155
0.961467
0.96078
0.960179
0.959646
0.959182
0.958779
0.958524
0.958346
0.958329
0.958365
0.958503
0.958736
0.959103
0.959527
0.960033
0.960705
0.961483
0.962223
0.963095
0.964159
0.965246
0.966268
0.967352
0.968177
0.969248
0.970617
0.971981
0.973261
0.975642
0.980172
0.986935
0.989423
2.6881
3.02456
3.02216
3.03275
3.00592
2.99403
2.96432
2.94562
2.92221
2.9005
2.87365
2.84768
2.82293
2.79974
2.77399
2.75307
2.73639
2.71508
2.69976
2.69259
2.6878
2.68676
2.68676
2.68044
2.66392
2.63821
2.62999
2.62831
2.63566
2.6486
2.65302
2.63634
2.62899
2.65591
2.70178
2.81348
2.88405
2.92394
2.93052
2.95528
2.98311
3.04083
3.10331
3.16262
3.2054
3.23086
3.24431
3.25278
3.26404
3.27377
3.28396
3.29297
3.2976
3.29686
3.29084
3.28014
3.27279
3.26672
3.25756
3.24363
3.22733
3.21093
3.19736
3.18143
3.16712
3.15405
3.14392
3.14034
3.1323
3.1278
3.1229
3.13522
0.965869
0.972933
0.970731
0.970836
0.97016
0.969525
0.968751
0.967932
0.967122
0.966307
0.965452
0.964598
0.963745
0.962909
0.96213
0.961442
0.960813
0.960195
0.959634
0.959161
0.958738
0.958449
0.95828
0.958269
0.958295
0.958385
0.958553
0.958825
0.959201
0.959698
0.960321
0.960913
0.961546
0.962371
0.963532
0.964823
0.966359
0.968177
0.9699
0.972217
0.975792
0.980366
0.986066
0.993494
1.00396
1.0101
0.981873
2.72683
3.03501
3.03314
3.04722
3.01165
2.99804
2.96603
2.94373
2.9132
2.8914
2.86111
2.83561
2.80622
2.78483
2.75493
2.73662
2.71985
2.70824
2.69309
2.67733
2.66142
2.64183
2.6293
2.62257
2.62296
2.62871
2.62701
2.61988
2.59305
2.56585
2.55691
2.57259
2.64482
2.70731
2.73518
2.74313
2.74855
2.80341
2.89728
2.98916
3.05014
3.1049
3.12786
3.14972
3.15621
3.18939
3.21541
3.25609
3.26884
3.27928
3.28126
3.28469
3.292
3.30088
3.30314
3.30313
3.29552
3.28762
3.27854
3.26783
3.25587
3.24031
3.2251
3.20767
3.19087
3.17321
3.15704
3.14565
3.13295
3.12911
3.12166
3.1344
0.965902
0.972948
0.970737
0.97084
0.970169
0.969535
0.968763
0.96795
0.96712
0.966297
0.965444
0.964584
0.963744
0.962921
0.962142
0.961427
0.960747
0.960145
0.959634
0.959155
0.958738
0.958417
0.958235
0.958219
0.958235
0.958369
0.958571
0.958883
0.959302
0.959861
0.960543
0.961173
0.961842
0.96263
0.963752
0.964716
0.965719
0.966626
0.967603
0.968824
0.970648
0.972476
0.975479
0.978745
0.987032
0.996877
0.984712
2.72282
3.05086
3.02865
3.05373
2.99639
2.98512
2.95218
2.9274
2.8861
2.86498
2.83156
2.80682
2.76955
2.75095
2.7192
2.70383
2.68175
2.66088
2.644
2.62831
2.61984
2.61158
2.61013
2.60524
2.5949
2.57344
2.55944
2.55256
2.55555
2.57714
2.58976
2.58089
2.53782
2.55363
2.62653
2.75659
2.82942
2.87982
2.90998
2.93978
2.93027
2.98261
3.01915
3.09527
3.14328
3.19522
3.21504
3.23628
3.24895
3.25849
3.27015
3.28459
3.29531
3.30258
3.30335
3.30001
3.29594
3.29365
3.28621
3.27936
3.26885
3.25549
3.24019
3.22002
3.1997
3.17947
3.16026
3.14784
3.13504
3.12779
3.12042
3.13528
0.965991
0.972986
0.970766
0.970867
0.970187
0.969559
0.968789
0.96799
0.967146
0.966288
0.965436
0.964606
0.96377
0.962959
0.962148
0.961405
0.960711
0.960103
0.959568
0.959114
0.958693
0.958333
0.958129
0.958058
0.958048
0.958114
0.958253
0.958467
0.95878
0.959194
0.959718
0.960309
0.960812
0.961502
0.962551
0.963703
0.964851
0.96597
0.967413
0.969307
0.972565
0.975983
0.980752
0.98702
0.997038
1.00774
1.0015
2.66596
3.05366
3.00699
3.03211
2.94995
2.92368
2.86809
2.8384
2.79155
2.77165
2.73426
2.71389
2.67643
2.65644
2.61831
2.60778
2.5762
2.57393
2.55455
2.54657
2.53547
2.51903
2.50297
2.49154
2.48873
2.49271
2.49759
2.49794
2.48837
2.45446
2.44308
2.45774
2.51448
2.57696
2.62509
2.66271
2.69164
2.74278
2.78264
2.84912
2.89295
2.94186
2.98033
3.01637
3.04954
3.09775
3.14986
3.20591
3.23855
3.26139
3.26847
3.27461
3.28053
3.28849
3.29509
3.30118
3.29831
3.29511
3.28767
3.28231
3.27462
3.26405
3.24905
3.22786
3.20677
3.18504
3.1635
3.14987
3.135
3.12612
3.12016
3.13722
0.966026
0.973
0.970773
0.970875
0.970195
0.969559
0.968785
0.96799
0.967139
0.966263
0.965432
0.964578
0.963732
0.962928
0.96214
0.961399
0.960689
0.960051
0.959501
0.959038
0.958622
0.958276
0.958052
0.957966
0.957988
0.958059
0.958249
0.958505
0.958847
0.959351
0.95996
0.960657
0.961261
0.961962
0.962892
0.963825
0.964713
0.965326
0.966017
0.966781
0.96719
0.967368
0.966827
0.965062
0.963848
0.949539
1.00381
2.11481
2.95389
2.9514
2.91614
2.82614
2.77634
2.73202
2.70059
2.66341
2.63613
2.60483
2.58915
2.54922
2.54738
2.51
2.51148
2.47816
2.47998
2.45213
2.45055
2.43696
2.43672
2.43346
2.42901
2.42388
2.41392
2.39847
2.38448
2.38028
2.39546
2.40488
2.42596
2.39906
2.44867
2.48162
2.59577
2.63336
2.70331
2.70028
2.74529
2.78638
2.82015
2.87909
2.89947
2.97722
3.03335
3.10168
3.14537
3.18945
3.22609
3.25209
3.2711
3.2833
3.28813
3.29017
3.28872
3.28729
3.29066
3.29009
3.28828
3.27915
3.2666
3.25299
3.23271
3.21179
3.18687
3.16464
3.14974
3.13204
3.12339
3.12202
3.13902
0.966112
0.973036
0.970799
0.970895
0.970215
0.969574
0.968793
0.968
0.967146
0.966269
0.965434
0.964573
0.963723
0.962905
0.962122
0.961346
0.96063
0.960021
0.959441
0.958945
0.958508
0.958144
0.957878
0.957755
0.957693
0.957677
0.957777
0.957949
0.95815
0.958427
0.958813
0.959262
0.959736
0.960186
0.96078
0.961705
0.96257
0.963291
0.963873
0.964485
0.964848
0.964828
0.963598
0.960751
0.952201
0.943409
0.945808
1.37788
2.58599
2.79605
2.65569
2.61128
2.58603
2.58076
2.54909
2.54924
2.50623
2.51539
2.482
2.46293
2.46807
2.43093
2.4328
2.4012
2.40806
2.38502
2.38474
2.37223
2.37521
2.36331
2.35925
2.35274
2.35037
2.35046
2.35007
2.34251
2.32911
2.31368
2.3334
2.32365
2.41551
2.4406
2.53265
2.53463
2.61661
2.60215
2.62669
2.68304
2.71151
2.75678
2.79038
2.86818
2.91324
2.97792
3.0609
3.13852
3.19548
3.23209
3.24901
3.26708
3.27439
3.28062
3.28539
3.28701
3.28736
3.28321
3.28329
3.27827
3.27216
3.25972
3.23811
3.21397
3.18726
3.1644
3.1474
3.12717
3.12336
3.12551
3.14274
0.966146
0.973047
0.970803
0.970898
0.970219
0.969573
0.968786
0.967992
0.967134
0.966258
0.965408
0.96455
0.963687
0.962861
0.962076
0.961302
0.960587
0.959939
0.959341
0.958826
0.958411
0.958023
0.957741
0.957599
0.957566
0.957564
0.957672
0.957873
0.958171
0.958594
0.959085
0.959625
0.960321
0.960997
0.961675
0.962395
0.963274
0.963984
0.964598
0.965085
0.965062
0.963995
0.962853
0.960805
0.957292
0.953474
0.954405
0.939453
1.93907
2.64719
2.56793
2.52268
2.49495
2.48328
2.45883
2.45986
2.43449
2.45455
2.4173
2.43525
2.3978
2.4134
2.3756
2.38388
2.35685
2.36519
2.34557
2.34583
2.33572
2.3358
2.33048
2.32818
2.32563
2.32275
2.31713
2.30699
2.29856
2.28572
2.31145
2.28913
2.3643
2.39831
2.51138
2.47442
2.52172
2.5678
2.56006
2.57968
2.60577
2.66877
2.70899
2.7638
2.81308
2.8735
2.95897
3.03397
3.12841
3.18829
3.22699
3.25561
3.26747
3.27396
3.2768
3.27839
3.27888
3.27812
3.28224
3.27939
3.27606
3.26106
3.24084
3.21619
3.18752
3.16252
3.14325
3.12725
3.1256
3.13034
3.14439
0.966221
0.973078
0.970827
0.970911
0.970227
0.969577
0.968782
0.967998
0.967134
0.966252
0.965401
0.964531
0.963659
0.962825
0.962041
0.961243
0.960509
0.959845
0.959235
0.958679
0.958226
0.957812
0.957482
0.957278
0.957189
0.957091
0.957044
0.957117
0.957245
0.957423
0.95763
0.957835
0.958148
0.958465
0.95873
0.95898
0.959232
0.959438
0.959534
0.959475
0.9591
0.958336
0.956956
0.955354
0.954288
0.95468
0.952471
1.09438
2.33908
2.64093
2.60343
2.55152
2.50797
2.48319
2.45904
2.45149
2.43261
2.44169
2.41688
2.43328
2.40136
2.41423
2.37752
2.38242
2.35591
2.36366
2.3457
2.34701
2.33907
2.34023
2.33449
2.33028
2.3255
2.3198
2.31675
2.30597
2.30063
2.27936
2.29807
2.28942
2.3688
2.44529
2.44372
2.47342
2.50522
2.53198
2.48816
2.50539
2.53342
2.57854
2.63631
2.65181
2.72362
2.78846
2.88064
2.94516
3.03724
3.11768
3.18804
3.23108
3.2523
3.26334
3.26972
3.27226
3.27134
3.26706
3.26798
3.26842
3.27397
3.26441
3.2478
3.21731
3.18679
3.16206
3.14279
3.12977
3.13035
3.13328
3.14607
0.966253
0.973086
0.970831
0.970914
0.970227
0.969574
0.968774
0.967983
0.967121
0.966229
0.965373
0.964496
0.963612
0.962763
0.961967
0.961159
0.960422
0.95974
0.959122
0.958531
0.958051
0.957626
0.957274
0.95704
0.956927
0.956868
0.956857
0.956971
0.957178
0.957472
0.957824
0.958319
0.95894
0.95961
0.960344
0.961056
0.961893
0.962868
0.963838
0.964862
0.965773
0.966588
0.966702
0.966656
0.964529
0.958736
0.98852
1.07893
2.33422
2.52175
2.59649
2.55611
2.55327
2.52066
2.51238
2.48866
2.48841
2.46306
2.47405
2.44407
2.45382
2.41565
2.41675
2.38483
2.38828
2.36599
2.37028
2.3572
2.35729
2.35037
2.34916
2.34381
2.34072
2.33504
2.32764
2.323
2.30414
2.30486
2.28288
2.35265
2.37936
2.48054
2.43349
2.51657
2.50363
2.47221
2.43538
2.49716
2.55355
2.53199
2.54642
2.5731
2.66161
2.72073
2.78763
2.85978
2.94469
3.0449
3.13659
3.19931
3.23531
3.25535
3.26362
3.26694
3.2658
3.2617
3.26101
3.26542
3.26692
3.2656
3.25078
3.2219
3.19026
3.1622
3.14282
3.13399
3.13559
3.13474
3.1471
0.966315
0.97311
0.970848
0.970918
0.970228
0.969572
0.968771
0.967971
0.9671
0.966207
0.965336
0.964466
0.96357
0.96271
0.961901
0.96107
0.960319
0.959612
0.958962
0.958333
0.957806
0.957341
0.956927
0.956617
0.956423
0.956272
0.956127
0.956036
0.956023
0.956043
0.956114
0.956132
0.956182
0.956208
0.956224
0.956222
0.956118
0.955987
0.955867
0.955469
0.955344
0.955508
0.956227
0.958862
0.95933
0.9593
1.04913
1.40682
2.37183
2.51851
2.67448
2.66855
2.65238
2.60827
2.58219
2.5558
2.52785
2.51922
2.48332
2.48124
2.45099
2.45366
2.41062
2.40805
2.37987
2.38303
2.36742
2.36898
2.36216
2.36272
2.35757
2.35346
2.34856
2.33943
2.3357
2.3228
2.31852
2.2937
2.3362
2.34119
2.47084
2.46683
2.50189
2.49068
2.47267
2.44256
2.47143
2.50624
2.49816
2.46939
2.50043
2.54442
2.60296
2.64567
2.69077
2.78247
2.87321
2.97702
3.07329
3.15538
3.20527
3.23477
3.24681
3.25437
3.25626
3.25459
3.25298
3.25773
3.25853
3.26341
3.25195
3.22984
3.1906
3.1673
3.14682
3.14097
3.13976
3.13473
3.14745
0.966343
0.973114
0.970847
0.970915
0.970221
0.969561
0.968756
0.967952
0.967077
0.96618
0.965295
0.964425
0.963509
0.962633
0.96181
0.960954
0.960178
0.959466
0.958798
0.958138
0.957578
0.957088
0.956644
0.956295
0.956049
0.955891
0.955795
0.955736
0.955816
0.956008
0.956246
0.956591
0.957098
0.957663
0.958399
0.959344
0.960482
0.961652
0.963252
0.965394
0.967933
0.971128
0.97421
0.980265
0.986251
0.98961
1.08818
2.02205
2.32055
2.41837
2.57867
2.57684
2.61937
2.55056
2.5472
2.49501
2.48857
2.4483
2.45976
2.42051
2.448
2.39664
2.40069
2.36704
2.37583
2.35078
2.35354
2.34587
2.34692
2.34502
2.34358
2.3365
2.33213
2.32553
2.32105
2.30784
2.29883
2.29396
2.30117
2.43026
2.49286
2.47972
2.48405
2.52657
2.46832
2.46785
2.48525
2.46061
2.4544
2.46252
2.49259
2.49729
2.50748
2.57203
2.6257
2.7075
2.7873
2.87993
2.98819
3.10008
3.17825
3.21789
3.23274
3.2456
3.25083
3.24989
3.24731
3.24326
3.24951
3.25034
3.25347
3.22971
3.19656
3.17676
3.15307
3.14842
3.14072
3.13514
3.14761
0.966387
0.973128
0.970855
0.970912
0.970214
0.969549
0.968743
0.967925
0.967056
0.966149
0.965248
0.964372
0.96344
0.962555
0.961705
0.960853
0.960039
0.959276
0.958571
0.957872
0.957272
0.956722
0.956222
0.955787
0.955427
0.955158
0.954925
0.954679
0.954509
0.954349
0.954203
0.954061
0.953838
0.95365
0.953347
0.952955
0.952485
0.951994
0.951275
0.95036
0.949274
0.948203
0.947064
0.944798
0.942299
0.945218
1.01666
2.13733
2.23628
2.29689
2.37298
2.44338
2.59974
2.52018
2.56422
2.49679
2.51702
2.45955
2.47306
2.43161
2.46916
2.41051
2.41413
2.3819
2.39377
2.36472
2.36786
2.35877
2.3598
2.35564
2.35347
2.34731
2.34113
2.33393
2.32146
2.31197
2.29931
2.2956
2.33534
2.49073
2.4775
2.44643
2.51933
2.53108
2.47277
2.43832
2.47557
2.48338
2.50717
2.48422
2.46981
2.47993
2.46996
2.51572
2.56809
2.63684
2.72117
2.80847
2.91834
3.03257
3.12272
3.19132
3.21743
3.23872
3.24814
3.24912
3.246
3.23644
3.24503
3.23853
3.2491
3.22551
3.2057
3.17856
3.15967
3.15465
3.1411
3.13532
3.14724
0.966406
0.973126
0.970851
0.970904
0.970202
0.969536
0.968731
0.967886
0.967025
0.966109
0.965186
0.964301
0.963369
0.962468
0.96159
0.960724
0.959871
0.959082
0.958349
0.957621
0.956972
0.956381
0.95586
0.955373
0.954964
0.954631
0.954386
0.954186
0.954066
0.954027
0.954149
0.95433
0.954667
0.955145
0.955702
0.956479
0.95745
0.958805
0.960516
0.962163
0.964496
0.965682
0.968493
0.968628
0.965488
1.01952
1.1036
2.20509
2.24977
2.27452
2.29723
2.33328
2.4817
2.50407
2.57695
2.51635
2.55749
2.49611
2.50563
2.46001
2.48139
2.43165
2.43366
2.40361
2.41176
2.38685
2.38706
2.37977
2.37932
2.37305
2.36632
2.36327
2.35896
2.35212
2.34414
2.32799
2.32505
2.33652
2.48291
2.5064
2.45389
2.52982
2.56833
2.49329
2.40268
2.41924
2.4703
2.48499
2.45264
2.44525
2.46206
2.49195
2.50944
2.5123
2.5448
2.58768
2.66759
2.75613
2.86563
2.97473
3.07485
3.16157
3.19991
3.22736
3.2433
3.24519
3.24085
3.22982
3.23354
3.23574
3.23689
3.22686
3.21192
3.18492
3.17045
3.15746
3.14002
3.13541
3.14744
0.966435
0.973132
0.970851
0.970896
0.970189
0.969517
0.968709
0.967856
0.966989
0.966067
0.965126
0.964221
0.963287
0.962352
0.961449
0.960576
0.959682
0.958848
0.958077
0.957297
0.956581
0.955924
0.955334
0.954759
0.954242
0.953797
0.953401
0.952989
0.952607
0.952244
0.951923
0.951571
0.951159
0.950711
0.950034
0.949328
0.948443
0.947343
0.946381
0.945105
0.944391
0.943141
0.944003
0.942501
0.937408
1.03183
1.71917
2.26192
2.25834
2.26937
2.27882
2.3245
2.34657
2.54136
2.51226
2.6134
2.55629
2.57401
2.50946
2.52229
2.46675
2.47943
2.43522
2.43792
2.4149
2.42319
2.39989
2.39567
2.3956
2.39414
2.39346
2.39065
2.38682
2.38002
2.3685
2.36065
2.35354
2.47783
2.53497
2.5198
2.52737
2.58476
2.5217
2.45425
2.4578
2.51685
2.52087
2.46644
2.41619
2.42866
2.45879
2.46305
2.46858
2.4634
2.50827
2.53824
2.60015
2.67617
2.78005
2.89726
3.01631
3.11916
3.17302
3.20602
3.22754
3.23569
3.23494
3.22777
3.22156
3.22805
3.2209
3.2283
3.21096
3.19524
3.1758
3.15849
3.13859
3.13507
3.1462
0.966443
0.973125
0.970841
0.970882
0.97017
0.969494
0.968678
0.967812
0.966938
0.966017
0.965064
0.964132
0.963194
0.962232
0.961306
0.960414
0.959486
0.958611
0.957802
0.956989
0.956204
0.955487
0.954855
0.954229
0.953632
0.953107
0.952685
0.952282
0.951913
0.951648
0.951483
0.951488
0.951514
0.951727
0.952034
0.952488
0.953187
0.95427
0.955355
0.956941
0.958811
0.962355
0.966028
0.970777
0.966736
1.07244
2.14105
2.28627
2.26798
2.25589
2.25964
2.27466
2.32322
2.33527
2.54104
2.49567
2.61283
2.53113
2.54808
2.46905
2.48796
2.4273
2.43458
2.40144
2.41655
2.39827
2.38937
2.38726
2.38894
2.39009
2.38817
2.38382
2.38257
2.38212
2.38925
2.39678
2.51779
2.61781
2.57122
2.59609
2.5879
2.51458
2.43822
2.4363
2.47831
2.49783
2.48486
2.45733
2.45973
2.47601
2.48302
2.47415
2.46412
2.47313
2.50605
2.54297
2.57503
2.6432
2.73125
2.84703
2.97321
3.08303
3.15438
3.19609
3.21787
3.22933
3.23004
3.22366
3.21576
3.21837
3.21796
3.22069
3.20974
3.20034
3.17884
3.16358
3.13832
3.13461
3.14479
0.96646
0.973121
0.970833
0.970867
0.97015
0.969467
0.968644
0.967774
0.966876
0.965963
0.964992
0.964037
0.963093
0.962092
0.961132
0.960217
0.959253
0.958323
0.957462
0.956609
0.955736
0.954944
0.95424
0.953533
0.952787
0.95213
0.951564
0.950997
0.950376
0.949745
0.949144
0.948619
0.948024
0.947305
0.946273
0.945043
0.94376
0.942273
0.940077
0.936435
0.933844
0.931175
0.923643
0.913186
0.927507
0.97772
2.19227
2.27214
2.2747
2.26562
2.25243
2.26892
2.27888
2.26206
2.35661
2.36564
2.54342
2.48431
2.56153
2.44932
2.49958
2.41156
2.43779
2.39415
2.41723
2.39776
2.39407
2.38805
2.39783
2.40822
2.4165
2.41267
2.45753
2.51482
2.59761
2.70587
2.71322
2.7869
2.68027
2.65521
2.63291
2.54954
2.50403
2.51024
2.50169
2.47438
2.43973
2.441
2.45429
2.45644
2.44608
2.43304
2.4412
2.4712
2.47699
2.50044
2.52676
2.58901
2.66571
2.77459
2.90098
3.03016
3.13276
3.18766
3.21032
3.22295
3.22444
3.21946
3.21379
3.20659
3.21778
3.20497
3.20823
3.19948
3.18525
3.16667
3.13726
3.13373
3.14238
0.966447
0.973103
0.970814
0.970844
0.970122
0.969435
0.968605
0.967722
0.966816
0.965894
0.964913
0.963934
0.962982
0.961948
0.960956
0.960014
0.95902
0.958042
0.957123
0.956233
0.95529
0.954414
0.953633
0.952874
0.952049
0.951303
0.95063
0.95006
0.949457
0.948817
0.948353
0.947951
0.947835
0.947665
0.947505
0.947393
0.947508
0.947748
0.947939
0.948671
0.949454
0.951758
0.950718
0.944635
1.01636
1.25398
2.33086
2.32497
2.31079
2.29426
2.28864
2.28939
2.28309
2.26007
2.25353
2.28339
2.43962
2.41752
2.54885
2.44446
2.53485
2.40566
2.44036
2.40861
2.43009
2.43482
2.43316
2.4461
2.51798
2.58485
2.64431
2.71229
2.79364
2.85456
2.90433
2.96313
2.95413
2.93126
2.87085
2.81239
2.71587
2.62656
2.58459
2.57636
2.54686
2.51256
2.48409
2.48528
2.48951
2.47656
2.46067
2.45712
2.46504
2.48129
2.48542
2.49596
2.52299
2.56876
2.63473
2.73214
2.85262
2.98325
3.09597
3.1724
3.2016
3.22024
3.22053
3.21726
3.20966
3.19922
3.20532
3.19924
3.20485
3.19375
3.18996
3.1689
3.13388
3.13189
3.14022
0.966455
0.973091
0.970796
0.970821
0.970093
0.969399
0.968563
0.967671
0.96675
0.965825
0.964823
0.963828
0.962855
0.961789
0.960755
0.95978
0.958752
0.957705
0.95672
0.955779
0.954763
0.953793
0.952909
0.952058
0.951117
0.950206
0.949353
0.948666
0.947889
0.946932
0.946001
0.94508
0.944297
0.943469
0.942413
0.940774
0.939231
0.937852
0.936356
0.935431
0.934707
0.936194
0.937939
0.933568
1.04037
1.98578
2.31814
2.3115
2.29724
2.28155
2.27882
2.28045
2.2751
2.25177
2.23224
2.24693
2.32904
2.3002
2.52323
2.43498
2.58079
2.39811
2.48271
2.51186
2.59437
2.64512
2.73136
2.77684
2.84544
2.92495
2.97905
3.02303
3.03737
3.05143
3.04566
3.03988
3.01664
2.99605
2.96681
2.92583
2.85794
2.79371
2.74688
2.68784
2.60561
2.53102
2.50442
2.49989
2.48567
2.46859
2.45413
2.45379
2.4595
2.45586
2.46224
2.46838
2.49424
2.52846
2.58586
2.67366
2.79081
2.92431
3.05003
3.14646
3.18572
3.20751
3.21188
3.2112
3.20463
3.19818
3.19434
3.20253
3.18933
3.19157
3.18775
3.17076
3.13264
3.13022
3.13791
0.966418
0.973062
0.970768
0.970791
0.97006
0.96936
0.968515
0.967619
0.966675
0.965748
0.964722
0.963705
0.962714
0.961622
0.960554
0.959528
0.958487
0.957369
0.956311
0.95532
0.954259
0.953195
0.952199
0.951278
0.95027
0.949228
0.948284
0.947457
0.946669
0.945744
0.944779
0.944088
0.94342
0.943237
0.942819
0.942409
0.941909
0.941827
0.941846
0.941818
0.941653
0.940933
0.938497
0.939403
1.02907
2.21536
2.28687
2.27255
2.26484
2.26805
2.27867
2.2809
2.25983
2.22071
2.22459
2.27589
2.30623
2.25835
2.39459
2.54715
2.65558
2.62477
2.77415
2.83445
2.91671
2.99007
3.03142
3.06509
3.06971
3.07849
3.0917
3.10876
3.10842
3.10313
3.08272
3.06701
3.04682
3.03007
3.01225
2.98729
2.95899
2.91901
2.8538
2.76082
2.68342
2.63123
2.59144
2.56245
2.52443
2.50242
2.48942
2.48382
2.47933
2.47357
2.47856
2.47706
2.49551
2.5235
2.56552
2.63164
2.73024
2.86199
2.99538
3.11151
3.16484
3.19135
3.20113
3.20395
3.20183
3.19321
3.19039
3.18663
3.18061
3.18389
3.18051
3.17383
3.13225
3.12769
3.13326
0.966412
0.973041
0.970742
0.97076
0.970023
0.969317
0.968463
0.967561
0.966601
0.96566
0.964618
0.963571
0.962561
0.961449
0.960331
0.959252
0.958181
0.956988
0.955855
0.954801
0.953681
0.952498
0.95138
0.950378
0.949277
0.948042
0.946941
0.945909
0.945014
0.943903
0.942499
0.941256
0.939959
0.938904
0.937581
0.93567
0.93289
0.929848
0.92755
0.924957
0.922496
0.918507
0.911161
0.972143
1.14211
2.24697
2.27001
2.26542
2.26605
2.27874
2.28466
2.27595
2.25276
2.24541
2.26848
2.31576
2.33448
2.32116
2.53319
2.81667
2.85166
2.96993
2.99011
3.03075
3.04059
3.06991
3.0866
3.1008
3.10199
3.10279
3.09454
3.10377
3.10278
3.10171
3.08776
3.07499
3.06069
3.04635
3.03109
3.01503
2.99777
2.97511
2.94043
2.88036
2.81083
2.7617
2.67879
2.58484
2.53167
2.51001
2.49979
2.48763
2.47486
2.46403
2.46467
2.46831
2.47463
2.49733
2.53982
2.60447
2.6969
2.8186
2.95281
3.07621
3.14604
3.17772
3.19427
3.19904
3.19785
3.1861
3.18716
3.1738
3.18271
3.16721
3.17583
3.16991
3.13059
3.1245
3.12821
0.966358
0.973
0.970702
0.97072
0.96998
0.969266
0.968404
0.967497
0.966517
0.96556
0.964511
0.963433
0.962378
0.961278
0.9601
0.958963
0.957862
0.956619
0.955415
0.954276
0.953122
0.951814
0.950593
0.949478
0.948337
0.946951
0.945719
0.944503
0.943611
0.94251
0.941029
0.939837
0.938843
0.938116
0.937983
0.937687
0.937788
0.938211
0.93897
0.940293
0.942888
0.946857
0.946956
1.05859
1.90093
2.24132
2.24932
2.2573
2.27179
2.28409
2.28618
2.26984
2.2602
2.27409
2.33691
2.40309
2.42459
2.57798
2.91653
3.04318
3.05736
3.06617
3.07072
3.06889
3.07569
3.07188
3.06816
3.07366
3.07191
3.08494
3.08393
3.09251
3.09067
3.09259
3.08463
3.07677
3.06674
3.05511
3.04212
3.02885
3.01453
2.99951
2.97909
2.94792
2.90259
2.83238
2.74834
2.66843
2.60753
2.5687
2.54595
2.51865
2.49891
2.48963
2.48133
2.48039
2.48105
2.49465
2.51862
2.56702
2.64686
2.75846
2.89732
3.03491
3.12577
3.16388
3.18625
3.19244
3.19112
3.18381
3.17698
3.17224
3.16949
3.15524
3.16932
3.15939
3.13249
3.11996
3.12224
0.966329
0.972967
0.970664
0.970679
0.969932
0.969212
0.968343
0.967427
0.966432
0.96545
0.964397
0.963292
0.962197
0.961086
0.959851
0.958658
0.957512
0.956223
0.954927
0.953697
0.952486
0.951065
0.949727
0.948482
0.94724
0.945754
0.944319
0.942926
0.94187
0.940599
0.939026
0.937292
0.935755
0.933999
0.932581
0.930683
0.928091
0.923215
0.919176
0.914751
0.904271
0.894642
0.907449
0.990483
2.13964
2.24281
2.24359
2.2508
2.26723
2.28339
2.28329
2.25933
2.25384
2.29568
2.39861
2.48892
2.61478
2.91003
3.07524
3.07452
3.07911
3.07054
3.06492
3.06791
3.06308
3.0686
3.06406
3.06348
3.06007
3.06573
3.0654
3.07513
3.07452
3.08181
3.07972
3.07523
3.06603
3.0575
3.04643
3.03699
3.02636
3.01437
3.00033
2.98106
2.95553
2.91074
2.84339
2.771
2.69382
2.62046
2.55905
2.52469
2.5063
2.49415
2.48322
2.47533
2.47364
2.4838
2.50608
2.54651
2.61444
2.71504
2.85352
2.99531
3.10341
3.14959
3.17582
3.18464
3.18521
3.17989
3.16735
3.16791
3.15746
3.15988
3.15078
3.15167
3.12958
3.11356
3.11561
0.966259
0.972914
0.970613
0.97063
0.969879
0.969154
0.968275
0.967353
0.966346
0.965331
0.964281
0.963139
0.962008
0.960885
0.959601
0.958344
0.957154
0.955837
0.954445
0.953109
0.951832
0.95037
0.948887
0.947479
0.946161
0.944654
0.943
0.9415
0.940155
0.938942
0.937397
0.935468
0.933972
0.932631
0.931517
0.930911
0.929655
0.929375
0.929263
0.930729
0.93214
0.928725
1.01269
1.32671
2.30876
2.28813
2.26931
2.26471
2.28261
2.29808
2.2977
2.26886
2.27536
2.36453
2.52583
2.6855
2.93743
3.07169
3.09047
3.07967
3.06289
3.04649
3.03959
3.03634
3.03664
3.04508
3.04679
3.04675
3.04503
3.04537
3.04525
3.05242
3.05547
3.06404
3.06629
3.06675
3.06076
3.05568
3.04661
3.03961
3.0311
3.02227
3.01204
2.99839
2.98091
2.95371
2.91478
2.85215
2.76295
2.67776
2.61114
2.56964
2.54395
2.52365
2.50493
2.49116
2.48612
2.48436
2.49778
2.52724
2.58498
2.67795
2.81345
2.95606
3.07479
3.13337
3.16252
3.17531
3.17726
3.17034
3.16415
3.15507
3.15912
3.14358
3.13929
3.14274
3.11987
3.10692
3.11194
0.966207
0.972867
0.970562
0.970577
0.969821
0.969089
0.9682
0.967275
0.966251
0.965207
0.964161
0.962977
0.961808
0.960666
0.959346
0.958021
0.956761
0.955421
0.95392
0.952478
0.951136
0.949623
0.947977
0.946411
0.94505
0.943476
0.941584
0.939932
0.938318
0.93716
0.935593
0.933318
0.93156
0.929932
0.928422
0.927746
0.926096
0.924732
0.921924
0.920229
0.918902
0.920725
1.02071
2.06836
2.2742
2.27581
2.26268
2.25744
2.2743
2.3005
2.31219
2.29032
2.32778
2.51638
2.7566
2.96968
3.07093
3.09857
3.09433
3.07457
3.06176
3.05264
3.03881
3.02968
3.02625
3.02853
3.02876
3.02911
3.0304
3.03118
3.03027
3.03572
3.03737
3.04256
3.04649
3.05425
3.05183
3.05232
3.04359
3.0387
3.03183
3.02547
3.0166
3.00696
2.99351
2.9749
2.94915
2.9086
2.84241
2.75944
2.68108
2.62035
2.56408
2.52606
2.50511
2.49147
2.48526
2.4873
2.49795
2.522
2.57174
2.65304
2.77574
2.91724
3.04226
3.11626
3.14958
3.16541
3.16862
3.16253
3.16038
3.14245
3.15508
3.12536
3.14591
3.12367
3.11216
3.09878
3.10534
0.966121
0.972802
0.9705
0.970518
0.969757
0.969021
0.96812
0.967191
0.966155
0.965084
0.964029
0.962818
0.961601
0.960423
0.959101
0.957711
0.956358
0.954999
0.95341
0.951866
0.950449
0.94889
0.947088
0.945398
0.943887
0.94229
0.940239
0.93841
0.9366
0.935315
0.933696
0.931576
0.929233
0.927194
0.925587
0.924285
0.922482
0.919799
0.917689
0.912642
0.903891
0.94138
1.08233
2.20974
2.27242
2.28258
2.26953
2.26848
2.28585
2.33104
2.36279
2.36795
2.49931
2.7926
3.01535
3.07639
3.08593
3.06997
3.06328
3.05191
3.04341
3.0376
3.02639
3.02248
3.01956
3.01676
3.01483
3.01495
3.01705
3.01991
3.01857
3.01963
3.02008
3.02289
3.02572
3.03339
3.03605
3.04084
3.03605
3.035
3.02934
3.02402
3.01788
3.01071
3.00088
2.98753
2.9687
2.94119
2.89928
2.83228
2.74616
2.66401
2.59987
2.55668
2.53196
2.51504
2.50201
2.49705
2.49716
2.51599
2.55579
2.62415
2.73172
2.87147
3.00615
3.09506
3.13462
3.15394
3.15965
3.15465
3.14901
3.13757
3.14115
3.13208
3.13055
3.10402
3.1086
3.08796
3.09661
0.966045
0.972741
0.970436
0.970456
0.969689
0.968947
0.968032
0.967105
0.966053
0.964951
0.963885
0.962664
0.961399
0.96016
0.958845
0.95737
0.955942
0.954542
0.952883
0.951247
0.949711
0.94812
0.946173
0.944374
0.942694
0.941015
0.939016
0.93689
0.934933
0.933228
0.93183
0.929962
0.927312
0.925513
0.924124
0.923184
0.923533
0.924023
0.926878
0.929869
0.931978
1.0301
1.7992
2.29021
2.28947
2.30276
2.28796
2.28649
2.30666
2.37815
2.45907
2.51933
2.81961
3.02624
3.07955
3.09063
3.0758
3.06436
3.04548
3.04153
3.0389
3.03305
3.02026
3.01571
3.01333
3.0102
3.00613
3.00418
3.00309
3.00598
3.00539
3.00721
3.00666
3.00749
3.00726
3.01475
3.01803
3.02606
3.02583
3.02805
3.02242
3.02041
3.01488
3.00932
3.00257
2.99361
2.97997
2.96013
2.93088
2.88547
2.81492
2.72875
2.65658
2.60043
2.55033
2.51912
2.50465
2.50187
2.50592
2.51875
2.54638
2.60151
2.69545
2.83001
2.96998
3.07392
3.11807
3.1402
3.14862
3.14489
3.139
3.13124
3.13074
3.12445
3.1119
3.09546
3.09817
3.07659
3.0883
0.96594
0.972664
0.970362
0.970386
0.969616
0.968871
0.967945
0.967013
0.965953
0.964825
0.963725
0.962518
0.961201
0.959894
0.958578
0.957043
0.955531
0.954071
0.952403
0.950654
0.948984
0.947333
0.945317
0.943363
0.941465
0.93979
0.937795
0.935403
0.93335
0.931365
0.930155
0.928384
0.92579
0.923634
0.92191
0.919831
0.918149
0.916273
0.913213
0.911136
0.920147
1.0066
2.16029
2.29713
2.30417
2.30857
2.28312
2.27331
2.32392
2.46062
2.58936
2.79321
3.02906
3.04925
3.05424
3.04713
3.03553
3.03089
3.02261
3.02217
3.02232
3.02199
3.00978
3.00448
3.00172
2.99924
2.9936
2.99223
2.99058
2.99493