/*--------------------------------*- C++ -*----------------------------------*\
| =========                 |                                                 |
| \\      /  F ield         | OpenFOAM: The Open Source CFD Toolbox           |
|  \\    /   O peration     | Version:  2.2.x                                 |
|   \\  /    A nd           | Web:      www.OpenFOAM.org                      |
|    \\/     M anipulation  |                                                 |
\*---------------------------------------------------------------------------*/
FoamFile
{
    version     2.0;
    format      ascii;
    class       volScalarField;
    location    "0.35";
    object      By;
}
// * * * * * * * * * * * * * * * * * * * * * * * * * * * * * * * * * * * * * //

dimensions      [1 0 -2 0 0 -1 0];

internalField   nonuniform List<scalar> 
14161
(
-3.36047e-12
2.49617e-13
-1.21329e-12
-1.67196e-12
-2.94714e-12
-4.79297e-12
-7.7641e-12
-1.23525e-11
-1.89946e-11
-2.90048e-11
-4.12349e-11
-5.58033e-11
-6.9819e-11
-7.31997e-11
-5.2866e-11
6.34551e-11
2.52241e-10
7.39833e-10
2.21912e-09
2.52234e-09
7.50742e-09
1.38491e-08
1.46225e-08
3.29595e-08
6.48272e-08
4.18073e-08
1.26921e-07
1.84768e-07
1.19142e-07
4.03614e-07
4.23547e-07
7.24933e-07
1.0144e-06
1.42835e-06
2.05069e-06
2.47112e-06
3.13697e-06
3.78904e-06
4.72728e-06
5.58317e-06
6.88649e-06
7.9029e-06
9.87562e-06
1.0681e-05
1.38487e-05
1.42098e-05
1.93557e-05
1.93423e-05
2.57213e-05
2.72275e-05
3.44392e-05
3.67672e-05
4.48064e-05
5.33204e-05
5.42309e-05
7.48042e-05
6.76549e-05
9.81352e-05
8.55353e-05
0.000121296
8.81261e-05
0.000122956
3.6981e-05
0.000132533
-0.000134752
0.00161973
0.000702982
-0.00727188
-0.0186707
-0.0284903
-0.0391516
-0.0429595
-0.0395571
-0.032743
-0.0251902
-0.0173231
-0.0114795
-0.00753228
-0.00515777
-0.00316045
-0.00209626
-0.000992276
0.000325079
0.00250759
0.00710505
0.014012
0.0224362
0.0327458
0.0433931
0.0525241
0.0566083
0.0498591
0.0407339
0.0337874
0.0286815
0.0249199
0.021937
0.0193966
0.0174984
0.0162128
0.0152169
0.0144101
0.0137958
0.0132674
0.0128188
0.0124006
0.0120482
0.0118528
0.0119024
0.0121754
0.0127152
0.0134874
0.0145202
0.0159588
0.0177686
0.0202534
0.0242198
0.0267298
0.0258164
-3.99002e-12
5.02456e-13
-2.71338e-13
8.28329e-14
9.75061e-15
2.53517e-13
9.27977e-13
2.77804e-12
6.59232e-12
1.58245e-11
3.38302e-11
7.24658e-11
1.48901e-10
3.03085e-10
5.9407e-10
1.16312e-09
2.16382e-09
3.78017e-09
7.9404e-09
1.0453e-08
2.08157e-08
4.03465e-08
4.47205e-08
8.98051e-08
1.66032e-07
1.41897e-07
3.72568e-07
5.28147e-07
3.65206e-07
1.19801e-06
1.13828e-06
1.93963e-06
2.83708e-06
3.91986e-06
5.68546e-06
6.76377e-06
8.63548e-06
1.02503e-05
1.27682e-05
1.51337e-05
1.86165e-05
2.15357e-05
2.69135e-05
2.93311e-05
3.80456e-05
3.90913e-05
5.32229e-05
5.29479e-05
7.21627e-05
7.40963e-05
9.69621e-05
9.89042e-05
0.000127236
0.000138793
0.000152676
0.000192423
0.00019043
0.000253983
0.000245496
0.000336529
0.000244988
0.000353109
7.38144e-05
0.000184921
-0.000136079
0.00203995
-0.000532118
-0.0164263
-0.0522849
-0.0915997
-0.119732
-0.121903
-0.102079
-0.0800166
-0.0612943
-0.0455863
-0.0332454
-0.0235699
-0.0162111
-0.00998982
-0.00604972
-0.0024037
0.000563123
0.00478627
0.0124148
0.0271314
0.0515192
0.0857975
0.126192
0.152916
0.155596
0.139209
0.119377
0.101739
0.087322
0.0761425
0.067132
0.0595041
0.0539257
0.0500038
0.0467847
0.0441358
0.0421562
0.040529
0.0391858
0.0379579
0.0369462
0.0363154
0.0362431
0.0367937
0.0381349
0.0401628
0.0429733
0.0470006
0.0519173
0.0588547
0.0642534
0.0681251
0.0670902
-7.1275e-12
1.1255e-12
-1.17535e-12
-1.4279e-12
-2.72329e-12
-4.26822e-12
-6.60214e-12
-9.73088e-12
-1.28521e-11
-1.58883e-11
-1.11242e-11
1.01659e-11
6.90989e-11
2.14316e-10
5.33599e-10
1.20725e-09
2.57114e-09
4.96216e-09
9.8727e-09
1.87275e-08
2.87382e-08
5.66598e-08
8.80278e-08
1.4797e-07
2.27777e-07
3.24023e-07
5.31079e-07
8.09877e-07
8.31884e-07
1.62085e-06
1.88985e-06
3.27927e-06
4.82596e-06
6.797e-06
9.20041e-06
1.18652e-05
1.4841e-05
1.7934e-05
2.18777e-05
2.67342e-05
3.14674e-05
3.88405e-05
4.45429e-05
5.42721e-05
6.06175e-05
7.4e-05
8.33519e-05
9.88808e-05
0.000115532
0.000132124
0.000156649
0.000170217
0.000212555
0.000225354
0.000278025
0.000312126
0.000362317
0.000409407
0.000440808
0.000526686
0.000436578
0.000575293
0.000248638
0.000164826
-0.00110905
-0.00334443
-0.0100363
-0.0415632
-0.105606
-0.168175
-0.204977
-0.196797
-0.158404
-0.11663
-0.08466
-0.0602007
-0.0428298
-0.0301864
-0.0204068
-0.0116479
-0.00478929
0.00151261
0.00887712
0.0189566
0.0381961
0.0694075
0.112677
0.170453
0.217295
0.23407
0.226838
0.201795
0.17692
0.155751
0.137921
0.123339
0.110469
0.0990942
0.0906072
0.0841414
0.0784571
0.073677
0.0700973
0.0671991
0.0648982
0.0628975
0.0613259
0.0603991
0.060503
0.0616046
0.0640806
0.0676751
0.0723929
0.0787572
0.0864472
0.0966891
0.102663
0.107961
0.108226
-8.57146e-12
1.25225e-12
-9.16274e-13
-1.00824e-12
-2.10031e-12
-3.0084e-12
-3.89231e-12
-3.56133e-12
-6.58178e-13
1.2625e-11
4.30975e-11
1.18996e-10
2.84481e-10
6.29741e-10
1.32101e-09
2.61332e-09
5.05975e-09
9.43935e-09
1.5892e-08
3.0538e-08
4.98181e-08
7.74942e-08
1.35387e-07
2.24523e-07
3.20563e-07
4.96916e-07
7.49e-07
1.0768e-06
1.55003e-06
2.18962e-06
2.41926e-06
4.92104e-06
7.11335e-06
9.39378e-06
1.27833e-05
1.65629e-05
2.11157e-05
2.51846e-05
3.00739e-05
3.673e-05
4.3589e-05
5.34334e-05
6.27938e-05
7.49043e-05
8.57956e-05
0.000102418
0.000114717
0.000139733
0.000154188
0.000193457
0.000208157
0.00025942
0.000286445
0.000340866
0.000385465
0.000438822
0.000504403
0.00055449
0.000630965
0.000709218
0.000669208
0.000709945
0.000435566
-0.000206636
-0.00388212
-0.0110404
-0.0352858
-0.086092
-0.182478
-0.261889
-0.290971
-0.268557
-0.213968
-0.155133
-0.109751
-0.0757942
-0.0500098
-0.0315661
-0.0169187
-0.00498929
0.00495477
0.0141941
0.0264544
0.0470049
0.080758
0.134131
0.207231
0.266753
0.302515
0.309169
0.288993
0.255333
0.224624
0.199774
0.179783
0.163908
0.149177
0.135973
0.126164
0.118171
0.11066
0.104268
0.0993683
0.0953174
0.0920774
0.0892704
0.0870971
0.0857778
0.0858821
0.087293
0.0906306
0.0955553
0.102076
0.110306
0.119721
0.1321
0.138485
0.144558
0.14595
-1.06258e-11
1.22683e-12
-1.96043e-12
-2.95102e-12
-5.51255e-12
-8.80986e-12
-1.38783e-11
-2.05995e-11
-2.81935e-11
-3.40087e-11
-2.60576e-11
1.68777e-11
1.46162e-10
4.53824e-10
1.12537e-09
2.44949e-09
5.06001e-09
1.01385e-08
1.84515e-08
3.36632e-08
6.16919e-08
1.05035e-07
1.66974e-07
2.62323e-07
4.57752e-07
6.5938e-07
9.8408e-07
1.32167e-06
2.04782e-06
3.04821e-06
2.83788e-06
6.71851e-06
9.45408e-06
1.18518e-05
1.64083e-05
2.30016e-05
2.81045e-05
3.40217e-05
4.03522e-05
4.89161e-05
6.03569e-05
7.06617e-05
8.74563e-05
9.68684e-05
0.000120394
0.000130996
0.000161009
0.00017868
0.000215272
0.000247625
0.000286043
0.000337364
0.000376746
0.000452127
0.000498405
0.0006049
0.00065835
0.000780598
0.000843111
0.000980687
0.000965883
0.000975533
0.000835094
-0.00102131
-0.00771809
-0.026797
-0.0822463
-0.171369
-0.281387
-0.350642
-0.352188
-0.309145
-0.242168
-0.174358
-0.121882
-0.0814542
-0.0500895
-0.0236064
-0.00340717
0.0125098
0.0260457
0.0437977
0.0705351
0.111065
0.173603
0.245344
0.307207
0.344692
0.361133
0.351978
0.327184
0.294166
0.263261
0.237504
0.216248
0.198757
0.182564
0.168865
0.158867
0.149774
0.140886
0.133362
0.127472
0.122531
0.118662
0.115371
0.112904
0.111473
0.111645
0.113312
0.117406
0.123475
0.131335
0.140852
0.151078
0.164908
0.171804
0.178514
0.180841
-1.21379e-11
7.1833e-13
-2.82586e-12
-4.62763e-12
-8.67248e-12
-1.39386e-11
-2.15409e-11
-3.13337e-11
-4.19288e-11
-4.72677e-11
-3.56791e-11
2.73552e-11
2.13401e-10
6.54791e-10
1.62221e-09
3.59427e-09
7.23086e-09
1.41326e-08
2.6029e-08
4.6319e-08
7.63249e-08
1.35e-07
2.29308e-07
3.32554e-07
5.24625e-07
8.62196e-07
1.25469e-06
1.76605e-06
2.39075e-06
3.8921e-06
4.26094e-06
7.76992e-06
1.10398e-05
1.49548e-05
2.03749e-05
2.63051e-05
3.4601e-05
4.27188e-05
5.00969e-05
6.09976e-05
7.29455e-05
8.74989e-05
0.000103239
0.000120474
0.000142328
0.000162038
0.000193152
0.000217691
0.000263387
0.000296154
0.000358974
0.000398395
0.000478726
0.000540854
0.000630931
0.0007316
0.000820452
0.000976668
0.00106356
0.00128981
0.00137036
0.00143734
0.00114004
-0.0022798
-0.013063
-0.0473082
-0.141574
-0.302338
-0.416902
-0.457818
-0.418157
-0.338565
-0.24931
-0.176082
-0.11934
-0.0723901
-0.0343006
-0.00230712
0.0230425
0.0453491
0.0710712
0.105312
0.15523
0.222398
0.292397
0.349211
0.384269
0.401898
0.400072
0.382946
0.35515
0.323179
0.29373
0.268882
0.248036
0.229546
0.212369
0.19877
0.188741
0.178859
0.169301
0.161362
0.15504
0.149487
0.144912
0.140864
0.137898
0.136365
0.136787
0.138896
0.143675
0.150636
0.159734
0.170257
0.180381
0.194947
0.202577
0.20959
0.212671
-1.36045e-11
4.2593e-13
-4.00104e-12
-6.70502e-12
-1.22463e-11
-2.02497e-11
-3.25116e-11
-5.01365e-11
-7.40469e-11
-9.75933e-11
-1.11784e-10
-8.64038e-11
4.75867e-11
4.33291e-10
1.32141e-09
3.26064e-09
6.99595e-09
1.42436e-08
2.71315e-08
5.07881e-08
9.01611e-08
1.48256e-07
2.50352e-07
4.4007e-07
6.12259e-07
9.61631e-07
1.54534e-06
2.23348e-06
2.89405e-06
4.40145e-06
6.21562e-06
7.81127e-06
1.24121e-05
1.9104e-05
2.39719e-05
3.21214e-05
3.96847e-05
5.05957e-05
6.20113e-05
7.39874e-05
8.92282e-05
0.00010674
0.000125652
0.000147813
0.000170556
0.0001966
0.000229491
0.000265791
0.000306371
0.000364024
0.000419627
0.000483854
0.00056346
0.000641116
0.000762033
0.000848797
0.00101482
0.00114107
0.0013552
0.00158147
0.00174817
0.00217802
0.00113507
-0.00380444
-0.0198739
-0.0730113
-0.217919
-0.440942
-0.559075
-0.560908
-0.488811
-0.371493
-0.25628
-0.169876
-0.102615
-0.0485831
-0.000285184
0.0391984
0.0759492
0.111738
0.155338
0.212919
0.27525
0.341389
0.390747
0.420964
0.436133
0.437542
0.425495
0.404099
0.375974
0.346061
0.318926
0.295386
0.274969
0.255913
0.239165
0.22671
0.216473
0.205606
0.195607
0.187527
0.18118
0.175486
0.170732
0.166378
0.163147
0.161387
0.161732
0.163915
0.169073
0.176703
0.186701
0.197827
0.207759
0.222524
0.230746
0.238062
0.241731
-1.46244e-11
-3.39761e-13
-5.59495e-12
-9.77069e-12
-1.78243e-11
-2.92643e-11
-4.67057e-11
-7.21103e-11
-1.02539e-10
-1.39979e-10
-1.61e-10
-1.31361e-10
3.32213e-11
5.09255e-10
1.65284e-09
4.07691e-09
8.88394e-09
1.76798e-08
3.39576e-08
6.0806e-08
1.07184e-07
1.88991e-07
2.84542e-07
4.85664e-07
8.02453e-07
1.10711e-06
1.6928e-06
2.69786e-06
3.58675e-06
5.06758e-06
7.16318e-06
9.66275e-06
1.40488e-05
2.06131e-05
2.87113e-05
3.47052e-05
4.58198e-05
5.61706e-05
7.07193e-05
8.49078e-05
0.000100951
0.000119913
0.000142511
0.000164461
0.000194856
0.000218572
0.000260933
0.000295022
0.000347713
0.000404704
0.000475432
0.000542939
0.000625613
0.00072968
0.000846723
0.000962075
0.00114233
0.00129329
0.00160571
0.0017453
0.00221995
0.00211868
-5.06451e-05
-0.00777906
-0.0326019
-0.11087
-0.311293
-0.571812
-0.664326
-0.643675
-0.552935
-0.405655
-0.259399
-0.154128
-0.072953
-0.00176552
0.0568441
0.111136
0.162485
0.218752
0.274057
0.336115
0.388841
0.427974
0.454633
0.468733
0.471342
0.462055
0.444727
0.42088
0.392364
0.364668
0.340166
0.318477
0.298876
0.28042
0.265048
0.25324
0.242248
0.230933
0.221248
0.21328
0.206845
0.200867
0.195723
0.191043
0.187728
0.185955
0.186295
0.188501
0.193946
0.201896
0.212129
0.22356
0.233299
0.24791
0.256452
0.263897
0.267996
-1.58609e-11
-9.80231e-13
-6.82161e-12
-1.17812e-11
-2.15067e-11
-3.57571e-11
-5.78225e-11
-9.02595e-11
-1.38255e-10
-1.91742e-10
-2.46434e-10
-2.54944e-10
-1.32421e-10
2.91957e-10
1.36664e-09
3.73366e-09
8.62535e-09
1.7818e-08
3.47256e-08
6.58576e-08
1.12045e-07
2.04567e-07
3.39863e-07
5.13869e-07
8.60933e-07
1.3883e-06
1.88369e-06
2.85514e-06
4.42722e-06
5.71538e-06
8.45492e-06
1.08929e-05
1.54369e-05
2.21175e-05
3.10937e-05
4.04865e-05
4.83407e-05
6.54266e-05
7.7867e-05
9.73067e-05
0.00011502
0.000136111
0.00016012
0.000187372
0.000218751
0.000247918
0.0002916
0.000332288
0.000388574
0.000450256
0.000525767
0.000597026
0.00068769
0.000807263
0.000911707
0.00107827
0.00121482
0.00149713
0.00162893
0.00195957
0.00209586
0.00112177
-0.00229738
-0.0138458
-0.0495829
-0.154974
-0.412173
-0.682659
-0.730166
-0.701254
-0.606349
-0.447489
-0.268478
-0.124671
-0.0128741
0.0754325
0.154737
0.224525
0.28121
0.33866
0.389793
0.43089
0.46293
0.485732
0.498318
0.501904
0.494954
0.480881
0.460731
0.435281
0.407716
0.382176
0.359188
0.338467
0.319445
0.302238
0.288629
0.277002
0.26545
0.254333
0.245312
0.2374
0.23099
0.224888
0.219592
0.214737
0.21145
0.209661
0.210002
0.212169
0.21771
0.225748
0.235797
0.247356
0.256986
0.271195
0.279914
0.287482
0.291866
-1.66986e-11
-1.91879e-12
-8.84407e-12
-1.57537e-11
-2.81598e-11
-4.69213e-11
-7.58701e-11
-1.1851e-10
-1.72322e-10
-2.463e-10
-3.14616e-10
-3.42206e-10
-2.22397e-10
2.71466e-10
1.57121e-09
4.35909e-09
1.01305e-08
2.11696e-08
3.99512e-08
7.68339e-08
1.307e-07
2.24971e-07
3.81404e-07
6.19305e-07
9.19522e-07
1.509e-06
2.24683e-06
3.23051e-06
4.62788e-06
6.9325e-06
9.15873e-06
1.27333e-05
1.74938e-05
2.32448e-05
3.26417e-05
4.32383e-05
5.43623e-05
6.71447e-05
8.44512e-05
0.000103563
0.000122896
0.000147621
0.000171711
0.0001999
0.000232663
0.000264444
0.000311975
0.000356303
0.000414003
0.000474981
0.000553834
0.000633402
0.000731458
0.000830997
0.000972203
0.00109869
0.00128953
0.00144418
0.00169409
0.00189732
0.00150807
2.70554e-05
-0.00498763
-0.0210946
-0.0704966
-0.210952
-0.517759
-0.756044
-0.76775
-0.732531
-0.632984
-0.466494
-0.25234
-0.0610301
0.0786126
0.185257
0.268083
0.337305
0.391026
0.433566
0.46796
0.495164
0.514601
0.525493
0.529892
0.525057
0.513249
0.496202
0.474541
0.448572
0.422496
0.399002
0.377666
0.358068
0.340189
0.324617
0.312036
0.299623
0.287648
0.27701
0.268409
0.260525
0.254247
0.24805
0.242709
0.237901
0.234782
0.232947
0.233182
0.235201
0.240561
0.248371
0.257991
0.269438
0.278942
0.292514
0.301239
0.308761
0.31329
-1.78629e-11
-2.8369e-12
-1.01893e-11
-1.79996e-11
-3.18863e-11
-5.38429e-11
-8.75624e-11
-1.37879e-10
-2.13499e-10
-3.00588e-10
-3.99344e-10
-4.58305e-10
-3.74195e-10
5.49093e-11
1.27014e-09
4.13081e-09
9.72497e-09
2.13751e-08
4.12973e-08
7.73217e-08
1.41324e-07
2.41162e-07
3.96104e-07
6.6454e-07
1.05005e-06
1.55314e-06
2.4418e-06
3.64304e-06
5.08375e-06
7.17777e-06
1.06639e-05
1.35282e-05
1.90923e-05
2.59835e-05
3.32586e-05
4.46427e-05
5.88244e-05
7.35532e-05
8.78182e-05
0.000107992
0.000132855
0.000157609
0.000183309
0.00021227
0.000246107
0.000284003
0.000327885
0.000376167
0.000434479
0.00049541
0.000568401
0.000656421
0.000750135
0.000858865
0.00097477
0.00111627
0.00126123
0.00145042
0.00161764
0.00154042
0.00103782
-0.00102065
-0.00805091
-0.0303696
-0.0997548
-0.289851
-0.611627
-0.788945
-0.782954
-0.73386
-0.617165
-0.423769
-0.175703
0.0386399
0.188485
0.294405
0.371245
0.428147
0.469142
0.499915
0.522966
0.539967
0.551177
0.556171
0.553878
0.544655
0.530425
0.511798
0.488647
0.4626
0.43751
0.414896
0.394398
0.375704
0.359372
0.345332
0.332972
0.320057
0.308518
0.298669
0.290419
0.282556
0.276347
0.27002
0.264655
0.25994
0.256979
0.255132
0.255286
0.257126
0.262139
0.269572
0.278663
0.289842
0.299213
0.312092
0.320745
0.328193
0.332778
-1.86493e-11
-3.79948e-12
-1.20394e-11
-2.16589e-11
-3.88838e-11
-6.54502e-11
-1.06123e-10
-1.67671e-10
-2.47932e-10
-3.61039e-10
-4.80791e-10
-5.6652e-10
-4.96351e-10
-7.28382e-12
1.35643e-09
4.56617e-09
1.11038e-08
2.3336e-08
4.73571e-08
8.5624e-08
1.52449e-07
2.69349e-07
4.34408e-07
7.05378e-07
1.13748e-06
1.75885e-06
2.48158e-06
3.99481e-06
5.50151e-06
7.82536e-06
1.10185e-05
1.52716e-05
2.0107e-05
2.70915e-05
3.54301e-05
4.60454e-05
6.02927e-05
7.46391e-05
9.18445e-05
0.000111111
0.000133031
0.000161348
0.000190389
0.000219082
0.000251342
0.000293532
0.000326835
0.000378927
0.00043462
0.000501613
0.000566508
0.000642338
0.000729521
0.000833173
0.00093444
0.00106171
0.00118488
0.00135932
0.00146394
0.00127589
0.000338155
-0.00285915
-0.0132801
-0.0449501
-0.139915
-0.384358
-0.696335
-0.795063
-0.776173
-0.702394
-0.553708
-0.319105
-0.0506988
0.155448
0.289998
0.379374
0.442609
0.489387
0.523811
0.547497
0.563727
0.573682
0.579848
0.580267
0.573699
0.562051
0.546582
0.52679
0.503204
0.47778
0.45398
0.432207
0.412454
0.394557
0.379323
0.365756
0.353024
0.340093
0.329427
0.320006
0.311765
0.303906
0.297866
0.29147
0.286285
0.281624
0.278691
0.276696
0.276667
0.278165
0.282659
0.289504
0.297983
0.308755
0.317945
0.330051
0.338471
0.34571
0.350229
-1.96944e-11
-4.8268e-12
-1.41463e-11
-2.50273e-11
-4.48755e-11
-7.32892e-11
-1.20582e-10
-1.88116e-10
-2.90619e-10
-4.16267e-10
-5.60137e-10
-6.73009e-10
-6.38714e-10
-2.03481e-10
1.13802e-09
4.20549e-09
1.10605e-08
2.35465e-08
4.6686e-08
9.06668e-08
1.54572e-07
2.79234e-07
4.51939e-07
7.58937e-07
1.14328e-06
1.84505e-06
2.75499e-06
3.93725e-06
5.89783e-06
8.28533e-06
1.1484e-05
1.57162e-05
2.13172e-05
2.80851e-05
3.66213e-05
4.72412e-05
6.00404e-05
7.53173e-05
9.31112e-05
0.000115468
0.000135639
0.000162356
0.000188711
0.000222485
0.000243732
0.000291747
0.000336023
0.000379618
0.000417178
0.000485435
0.000563041
0.00062852
0.000688017
0.000782301
0.000885334
0.000982887
0.0010393
0.00114265
0.00119454
0.00077221
-0.000767534
-0.00563376
-0.0206661
-0.0651927
-0.191064
-0.486835
-0.757669
-0.785531
-0.746874
-0.636376
-0.440643
-0.161832
0.0925183
0.262795
0.374599
0.448698
0.499038
0.535345
0.562427
0.581806
0.594887
0.601551
0.603878
0.600945
0.592563
0.580189
0.563925
0.543452
0.519379
0.493911
0.470335
0.448895
0.42986
0.412963
0.398614
0.385097
0.37225
0.359821
0.349915
0.340521
0.332169
0.324277
0.318302
0.311803
0.306835
0.302201
0.299331
0.297204
0.296994
0.298163
0.302116
0.308171
0.315997
0.326304
0.335293
0.346667
0.354819
0.361799
0.36625
-2.04577e-11
-5.99409e-12
-1.57838e-11
-2.81409e-11
-4.96531e-11
-8.32882e-11
-1.37272e-10
-2.16736e-10
-3.25381e-10
-4.72747e-10
-6.4109e-10
-7.78038e-10
-7.57326e-10
-2.97504e-10
1.17333e-09
4.63616e-09
1.16128e-08
2.6057e-08
5.00768e-08
9.52545e-08
1.70311e-07
2.875e-07
4.83445e-07
7.70068e-07
1.24829e-06
1.84087e-06
2.84131e-06
4.22757e-06
5.87099e-06
8.50495e-06
1.18727e-05
1.59611e-05
2.15978e-05
2.84498e-05
3.6853e-05
4.74265e-05
5.91647e-05
7.40026e-05
8.95765e-05
0.000112599
0.000133861
0.000153782
0.000181135
0.000222536
0.00024465
0.000279499
0.000312875
0.000373576
0.000414582
0.000452403
0.00050912
0.000602844
0.000653253
0.000731256
0.00078513
0.000931836
0.000949673
0.00104479
0.00105878
0.000425964
-0.00176951
-0.00871886
-0.0300766
-0.0952801
-0.272399
-0.597062
-0.774217
-0.759474
-0.681842
-0.522465
-0.271431
0.00871277
0.214088
0.347469
0.437669
0.499425
0.541918
0.572083
0.594304
0.610006
0.620274
0.625566
0.625073
0.620141
0.610654
0.59802
0.58141
0.561004
0.537048
0.511911
0.48835
0.467079
0.448454
0.432108
0.41782
0.403976
0.391258
0.379518
0.370097
0.360664
0.352439
0.344608
0.338677
0.332059
0.327197
0.322395
0.319415
0.316984
0.316513
0.317279
0.320571
0.325762
0.332869
0.342623
0.35138
0.361993
0.369775
0.376377
0.380736
-2.13835e-11
-7.1847e-12
-1.80001e-11
-3.15714e-11
-5.59536e-11
-9.40886e-11
-1.49022e-10
-2.40129e-10
-3.63632e-10
-5.279e-10
-7.15601e-10
-8.7485e-10
-8.72405e-10
-4.29991e-10
9.76984e-10
4.4507e-09
1.15515e-08
2.55049e-08
5.18788e-08
9.41598e-08
1.72844e-07
2.95736e-07
4.86808e-07
8.04203e-07
1.22083e-06
1.9469e-06
2.81773e-06
4.22966e-06
5.96473e-06
8.57353e-06
1.15564e-05
1.59549e-05
2.11868e-05
2.78291e-05
3.64032e-05
4.50229e-05
5.83164e-05
7.15057e-05
8.796e-05
0.000102378
0.000125676
0.000152805
0.000174059
0.000192473
0.000229928
0.000279489
0.000294648
0.000334775
0.000388131
0.000454827
0.000473515
0.000546339
0.000613304
0.000712977
0.000725408
0.000846611
0.000905317
0.00101048
0.000834959
-0.000200004
-0.00352344
-0.0141394
-0.0458293
-0.139669
-0.377964
-0.67194
-0.747317
-0.705936
-0.58234
-0.366679
-0.0792196
0.159462
0.315215
0.418502
0.48993
0.539503
0.574728
0.600132
0.618995
0.632501
0.641483
0.646375
0.645077
0.639203
0.629608
0.616828
0.600082
0.579823
0.556147
0.53084
0.507028
0.485975
0.467711
0.451638
0.437044
0.422966
0.410444
0.39905
0.389529
0.379854
0.371681
0.36388
0.357973
0.351341
0.346606
0.341681
0.338616
0.33592
0.335235
0.335509
0.338073
0.3424
0.348729
0.357869
0.366402
0.376307
0.383757
0.390026
0.394313
-2.21216e-11
-8.38867e-12
-1.98148e-11
-3.43659e-11
-6.06803e-11
-1.02843e-10
-1.65539e-10
-2.61279e-10
-3.97718e-10
-5.75924e-10
-7.83916e-10
-9.63717e-10
-9.7529e-10
-5.12903e-10
1.01254e-09
4.64595e-09
1.23751e-08
2.66475e-08
5.34056e-08
1.01119e-07
1.7386e-07
3.05423e-07
4.95582e-07
8.0152e-07
1.25206e-06
1.89277e-06
2.8536e-06
4.09036e-06
5.93334e-06
8.22877e-06
1.13022e-05
1.54126e-05
2.01257e-05
2.69188e-05
3.36177e-05
4.41226e-05
5.35615e-05
6.76025e-05
8.09397e-05
9.9707e-05
0.000114876
0.000137339
0.000164469
0.000189111
0.000199964
0.000238477
0.000289632
0.000316718
0.000334647
0.000397822
0.00045915
0.000504397
0.000535195
0.000641956
0.00066477
0.000771146
0.000759724
0.000937647
0.000536232
-0.00116242
-0.00638247
-0.022343
-0.0699756
-0.204917
-0.496434
-0.701416
-0.692627
-0.608413
-0.433444
-0.16403
0.0981364
0.274982
0.392952
0.474431
0.531713
0.572653
0.602416
0.624244
0.640419
0.652044
0.659981
0.664553
0.663302
0.657387
0.64827
0.635787
0.619471
0.599528
0.576151
0.550702
0.526624
0.505507
0.48721
0.471004
0.45604
0.44199
0.429788
0.418688
0.409074
0.399393
0.39124
0.383347
0.377276
0.370523
0.365676
0.360463
0.357205
0.35419
0.353186
0.352908
0.354759
0.358238
0.363731
0.372132
0.380387
0.389567
0.396642
0.402536
0.406759
-2.29789e-11
-9.60749e-12
-2.20262e-11
-3.85737e-11
-6.73401e-11
-1.11236e-10
-1.8159e-10
-2.84278e-10
-4.30043e-10
-6.23162e-10
-8.46361e-10
-1.04051e-09
-1.0628e-09
-6.03084e-10
9.14671e-10
4.50939e-09
1.2083e-08
2.70781e-08
5.26775e-08
9.96246e-08
1.77962e-07
2.98852e-07
4.96177e-07
7.91274e-07
1.21943e-06
1.86726e-06
2.72344e-06
3.99953e-06
5.60888e-06
7.8544e-06
1.0752e-05
1.43147e-05
1.91548e-05
2.45213e-05
3.19296e-05
3.9709e-05
4.99552e-05
6.1157e-05
7.39397e-05
8.90508e-05
0.000107085
0.000124798
0.000140348
0.000167983
0.000193006
0.000217058
0.000240406
0.000292081
0.000308666
0.000346328
0.000398564
0.000465702
0.000487837
0.000543779
0.000593515
0.000693844
0.000681325
0.000838673
0.000280523
-0.00209001
-0.00974028
-0.0329049
-0.103396
-0.292738
-0.576913
-0.66607
-0.622823
-0.483008
-0.242809
0.0319157
0.233348
0.365562
0.455606
0.519207
0.565361
0.59978
0.6255
0.644762
0.659118
0.669556
0.676972
0.681478
0.680653
0.675177
0.66679
0.654895
0.63921
0.619737
0.596684
0.571219
0.547098
0.525847
0.507252
0.490449
0.475036
0.460913
0.448749
0.437518
0.42768
0.417995
0.409849
0.401907
0.395737
0.388977
0.384032
0.378614
0.375169
0.371794
0.370368
0.369565
0.370715
0.373373
0.37799
0.385571
0.393522
0.402111
0.408886
0.414499
0.418623
-2.37113e-11
-1.07722e-11
-2.38824e-11
-4.09806e-11
-7.12961e-11
-1.19283e-10
-1.95072e-10
-3.02446e-10
-4.60387e-10
-6.62674e-10
-8.97703e-10
-1.10386e-09
-1.12946e-09
-6.64007e-10
9.24796e-10
4.73727e-09
1.25091e-08
2.74924e-08
5.49423e-08
1.00383e-07
1.76445e-07
3.0021e-07
4.857e-07
7.72572e-07
1.18544e-06
1.78454e-06
2.62376e-06
3.76477e-06
5.30036e-06
7.36802e-06
9.88569e-06
1.33587e-05
1.72662e-05
2.26346e-05
2.84242e-05
3.5899e-05
4.41961e-05
5.44756e-05
6.57744e-05
7.69117e-05
9.14943e-05
0.000111077
0.00012923
0.000135869
0.000155588
0.000195626
0.000224339
0.000227371
0.000258802
0.000309693
0.000352842
0.000386172
0.000438842
0.000496193
0.00055686
0.000619045
0.000636348
0.00060136
-0.000589726
-0.0044339
-0.0162197
-0.0515069
-0.154368
-0.398485
-0.598229
-0.595281
-0.504227
-0.306303
-0.0365721
0.187047
0.334067
0.434683
0.505485
0.556435
0.594379
0.623352
0.645601
0.662671
0.675696
0.685246
0.692362
0.697073
0.697105
0.692338
0.684637
0.673491
0.658615
0.639938
0.617514
0.592313
0.568
0.546407
0.527426
0.510031
0.494362
0.480249
0.468088
0.456627
0.44661
0.436784
0.428412
0.42025
0.413859
0.406978
0.401812
0.396172
0.392411
0.388664
0.386839
0.385541
0.385994
0.387866
0.391584
0.398237
0.40581
0.413836
0.42029
0.425588
0.429564
-2.45358e-11
-1.19639e-11
-2.59354e-11
-4.50766e-11
-7.83572e-11
-1.28719e-10
-2.06715e-10
-3.23294e-10
-4.85515e-10
-6.99403e-10
-9.44027e-10
-1.15606e-09
-1.18074e-09
-6.95846e-10
8.69125e-10
4.65382e-09
1.25118e-08
2.72599e-08
5.3791e-08
9.99867e-08
1.74108e-07
2.92514e-07
4.73605e-07
7.44957e-07
1.13577e-06
1.69951e-06
2.46269e-06
3.52393e-06
4.91218e-06
6.71835e-06
9.06301e-06
1.19323e-05
1.55636e-05
1.98748e-05
2.50476e-05
3.13037e-05
3.80173e-05
4.66992e-05
5.54487e-05
6.62578e-05
7.54732e-05
9.18322e-05
0.000107502
0.000118601
0.000122765
0.000156996
0.000190762
0.000190291
0.000198389
0.000251115
0.000301968
0.000291798
0.000338133
0.0003567
0.000448284
0.000430181
0.000594418
0.000343132
-0.00155287
-0.00743884
-0.0250675
-0.0793604
-0.229676
-0.466753
-0.552372
-0.505199
-0.350199
-0.0984278
0.144761
0.305134
0.413678
0.489753
0.545161
0.586701
0.61872
0.643707
0.663302
0.678725
0.690793
0.699884
0.706719
0.711648
0.712561
0.708499
0.70155
0.691358
0.677452
0.65983
0.638372
0.613964
0.589271
0.56729
0.547776
0.529822
0.513912
0.499474
0.486967
0.475129
0.464988
0.454982
0.446442
0.438097
0.431531
0.42453
0.419083
0.413142
0.408968
0.404839
0.402603
0.400772
0.400568
0.40173
0.404563
0.410346
0.417489
0.425073
0.431281
0.436298
0.440003
-2.52811e-11
-1.30234e-11
-2.75972e-11
-4.70715e-11
-8.12418e-11
-1.35201e-10
-2.17764e-10
-3.39156e-10
-5.10291e-10
-7.30092e-10
-9.79171e-10
-1.19409e-09
-1.21975e-09
-7.21513e-10
9.12996e-10
4.76898e-09
1.27097e-08
2.77875e-08
5.41299e-08
9.85466e-08
1.7097e-07
2.84545e-07
4.5601e-07
7.12677e-07
1.0783e-06
1.59479e-06
2.30198e-06
3.25474e-06
4.47936e-06
6.10942e-06
8.07822e-06
1.06146e-05
1.35416e-05
1.72407e-05
2.14305e-05
2.629e-05
3.18935e-05
3.8388e-05
4.51489e-05
5.23397e-05
6.20674e-05
7.41325e-05
7.99339e-05
8.31129e-05
0.00010153
0.000130751
0.000138746
0.000127239
0.000149498
0.000195807
0.000233537
0.000229931
0.000260179
0.000289051
0.000310353
0.000307774
0.000324392
-0.000336082
-0.00329349
-0.0122607
-0.0390161
-0.117398
-0.310021
-0.480337
-0.472439
-0.365438
-0.150619
0.0950909
0.273804
0.392174
0.474427
0.533603
0.57792
0.612345
0.639628
0.661449
0.678923
0.693012
0.704317
0.713227
0.719921
0.725086
0.726797
0.723528
0.717451
0.70833
0.69547
0.679054
0.658688
0.635543
0.610778
0.588288
0.568114
0.549614
0.533383
0.518531
0.505622
0.493437
0.48311
0.472786
0.464054
0.455474
0.448719
0.441541
0.435757
0.429524
0.424981
0.420482
0.417801
0.415442
0.414606
0.415119
0.417058
0.421968
0.428572
0.435675
0.441575
0.446219
0.449624
-2.60831e-11
-1.40811e-11
-2.95621e-11
-5.07992e-11
-8.76863e-11
-1.43878e-10
-2.2893e-10
-3.56083e-10
-5.31172e-10
-7.56426e-10
-1.01239e-09
-1.22627e-09
-1.24277e-09
-7.38781e-10
9.22524e-10
4.79266e-09
1.26382e-08
2.7392e-08
5.34052e-08
9.72015e-08
1.67259e-07
2.76435e-07
4.4042e-07
6.80152e-07
1.01982e-06
1.49369e-06
2.12838e-06
2.97316e-06
4.05764e-06
5.43313e-06
7.13802e-06
9.1933e-06
1.16266e-05
1.45954e-05
1.76961e-05
2.16862e-05
2.55829e-05
3.05031e-05
3.45626e-05
4.02113e-05
4.73632e-05
5.52995e-05
5.32939e-05
5.59685e-05
7.65937e-05
9.78487e-05
8.22354e-05
6.67104e-05
9.62989e-05
0.000127393
0.000130398
8.88919e-05
0.000113944
0.000145746
0.000100022
7.52887e-05
-6.58146e-05
-0.00152286
-0.00614525
-0.0196989
-0.0616817
-0.179931
-0.352974
-0.417132
-0.359237
-0.186134
0.0500733
0.24463
0.370734
0.458975
0.522244
0.569314
0.605611
0.634567
0.658029
0.677308
0.693104
0.70615
0.716867
0.725605
0.732268
0.737676
0.740096
0.73777
0.732653
0.724624
0.712839
0.697618
0.678497
0.656635
0.632235
0.609069
0.588219
0.569219
0.552548
0.537167
0.523804
0.511289
0.500716
0.490079
0.481164
0.472331
0.465379
0.457962
0.451778
0.445286
0.440376
0.435503
0.432314
0.429398
0.427978
0.427888
0.428992
0.43311
0.439181
0.445908
0.451523
0.455799
0.458837
-2.68138e-11
-1.50344e-11
-3.09953e-11
-5.26371e-11
-9.01971e-11
-1.48635e-10
-2.38724e-10
-3.68992e-10
-5.50163e-10
-7.8141e-10
-1.03641e-09
-1.25295e-09
-1.25954e-09
-7.33578e-10
9.33807e-10
4.86107e-09
1.27531e-08
2.73723e-08
5.27081e-08
9.48929e-08
1.61857e-07
2.6581e-07
4.19499e-07
6.43571e-07
9.57568e-07
1.38716e-06
1.95838e-06
2.71055e-06
3.64356e-06
4.82971e-06
6.23125e-06
7.94044e-06
9.82462e-06
1.21189e-05
1.4401e-05
1.73513e-05
1.98564e-05
2.31558e-05
2.5376e-05
2.89354e-05
3.30311e-05
3.82076e-05
3.13932e-05
3.17095e-05
4.84341e-05
6.56601e-05
3.58462e-05
2.21475e-05
4.91873e-05
7.59751e-05
3.91327e-05
2.61966e-05
-2.77969e-05
6.42694e-06
-0.000108681
-0.000103627
-0.000590308
-0.0028061
-0.00947908
-0.0292121
-0.0863524
-0.226033
-0.346247
-0.32941
-0.204312
0.0132397
0.217738
0.351486
0.444586
0.511427
0.560994
0.599101
0.629523
0.654312
0.67481
0.691997
0.706419
0.7186
0.72877
0.73727
0.743876
0.749431
0.752378
0.751099
0.747051
0.740178
0.729611
0.715682
0.697967
0.67749
0.653929
0.630287
0.608798
0.589344
0.572076
0.556089
0.542138
0.529183
0.518111
0.507091
0.497917
0.488777
0.481596
0.473866
0.467277
0.460597
0.45534
0.450113
0.446428
0.442972
0.441021
0.440244
0.440596
0.44389
0.449385
0.45566
0.460827
0.464624
0.467284
-2.75767e-11
-1.5984e-11
-3.275e-11
-5.57764e-11
-9.57223e-11
-1.56706e-10
-2.48263e-10
-3.8233e-10
-5.67462e-10
-8.00453e-10
-1.06496e-09
-1.27575e-09
-1.28286e-09
-7.38348e-10
9.52013e-10
4.83594e-09
1.26442e-08
2.70554e-08
5.19528e-08
9.32266e-08
1.58347e-07
2.57616e-07
4.03636e-07
6.12356e-07
9.01214e-07
1.29091e-06
1.79978e-06
2.45421e-06
3.26721e-06
4.24232e-06
5.41651e-06
6.78557e-06
8.21291e-06
9.991e-06
1.15294e-05
1.36675e-05
1.49124e-05
1.7333e-05
1.76475e-05
1.93402e-05
2.11917e-05
2.46816e-05
1.42081e-05
1.19949e-05
2.51103e-05
3.72554e-05
-1.46903e-07
-1.83551e-05
8.64102e-06
2.26437e-05
-3.32128e-05
-3.60177e-05
-7.91016e-05
-9.0122e-05
-0.000187591
-0.000198402
-0.00117947
-0.00445456
-0.0142496
-0.0441793
-0.128719
-0.233062
-0.270943
-0.199253
-0.0171081
0.185813
0.332154
0.430626
0.500941
0.552773
0.592636
0.624361
0.650296
0.671857
0.689945
0.705348
0.718498
0.729901
0.739625
0.747903
0.754482
0.760151
0.763553
0.763452
0.76045
0.754641
0.745342
0.73275
0.716495
0.697295
0.674888