/*--------------------------------*- C++ -*----------------------------------*\
| =========                 |                                                 |
| \\      /  F ield         | OpenFOAM: The Open Source CFD Toolbox           |
|  \\    /   O peration     | Version:  2.2.x                                 |
|   \\  /    A nd           | Web:      www.OpenFOAM.org                      |
|    \\/     M anipulation  |                                                 |
\*---------------------------------------------------------------------------*/
FoamFile
{
    version     2.0;
    format      ascii;
    class       volScalarField;
    location    "0.95";
    object      divBf;
}
// * * * * * * * * * * * * * * * * * * * * * * * * * * * * * * * * * * * * * //

dimensions      [1 -3 -2 0 0 -1 0];

internalField   nonuniform List<scalar> 
14161
(
403.757
350.915
306.101
262.873
221.773
182.576
145.314
110.006
76.7655
45.788
17.2798
-8.5479
-31.2462
-50.7286
-66.2704
-77.8305
-85.7281
-87.5488
-88.1472
-78.8139
-69.6499
-63.7774
-27.5338
-18.3936
-11.1647
57.9173
35.3984
75.8835
16.9824
38.6745
57.6116
-96.3853
-202.373
-196.179
-210.597
-303.208
-447.609
-634.032
-821.417
-1068.61
-1281.31
-1523.9
-1782.62
-2123.53
-2190.57
-30821.3
-32751
-34077.2
-35040.8
-35924.5
-31891.3
-8848.58
-20512.1
-18480.7
-29811.9
-32434.6
-34481.9
-31305.6
-34777.1
-32018.4
-31376.9
-29540.2
-28118.7
-26895.3
-24952.9
-22304.3
-19469.4
-18527.4
-16029.1
-12785.8
-12566.9
-9607.21
-7167.14
-6843.86
-4363.4
-456.917
-570.157
-92.179
3086.22
4446.32
5191.06
8160.85
8886.36
9747.57
11187.5
13307.5
13886.9
15472.6
13062.6
16774.9
18218.2
14805.8
16219
15737.3
17414.6
17100.9
16301.7
17629
20382.2
23807.8
23797.6
27830.3
308.757
-2218.76
-6181.87
-9027.53
-9964.36
-10506.4
-10939.4
-11055.2
-10936.8
-10726.6
-10173.7
-8166.06
-6205.65
-3081.64
2514.07
-3493.26
49445.9
156.039
104.63
60.3365
16.7809
-25.4273
-66.4776
-106.303
-144.865
-182.045
-217.655
-251.506
-283.384
-312.942
-340.039
-364.086
-385.186
-403.142
-417.086
-428.82
-435.293
-441.766
-444.688
-436.716
-442.513
-444.45
-426.867
-425.769
-464.696
-447.594
-532.268
-589.289
-675.927
-742.215
-835.663
-882.815
-977.381
-1111.2
-1299.47
-1520.03
-1747
-1976.53
-2181.88
-2423.55
-2688.09
-2822.62
-26943.5
-28867.2
-30089.4
-32431.3
-32249.4
-30318.5
347.636
-16314.5
-17093
-25886.6
-31059.6
-34542
-30166
-31682.4
-30375.1
-27376.2
-27375.5
-24031.1
-22864.3
-18828.9
-16806.5
-15434.2
-12820.7
-13342.5
-9680.37
-6219.45
-6152.09
-4552.17
-1262.58
-2003.78
1155.92
3668.34
4494.97
6827.19
7044.62
8070.15
10755
11716.5
13376.6
14335.1
15370.8
15743.2
16485.7
16840.2
18274.5
20190
21238.3
21815.5
21058.8
19790.6
19583.1
18641.3
16223.7
9264.7
5794.45
-5522.76
-13401.4
-15825.7
-15101.9
-14593.7
-14386.1
-14361.9
-14059.3
-13097.8
-12483.8
-12101
-11724.8
-11099.3
-9033.12
-7016.47
-4628.8
1557.62
-6067.77
40040.3
-86.9727
-135.475
-177.818
-220.25
-262.116
-303.548
-344.439
-384.71
-424.239
-462.861
-500.357
-536.52
-571.055
-603.808
-634.472
-662.725
-688.747
-711.981
-733.008
-751.517
-768.024
-782.596
-795.532
-808.92
-822.929
-834.321
-836.749
-915.115
-879.494
-987.447
-1093.39
-1097.95
-1225.55
-1373.71
-1451.44
-1523.89
-1644.2
-1761.68
-1983.34
-2188.2
-2420.93
-2563.76
-2807.34
-2913.51
-3118.66
-23212.7
-24681.8
-26118.8
-28683.2
-25420.5
-26094.4
13857.5
-10790.7
-22097.2
-29195
-31933.3
-36823.9
-32527.8
-32509.6
-31352.8
-29069.8
-25864.8
-23612.8
-22060.9
-19381.4
-16718.5
-16625.8
-10654.6
-10639.7
-9667.18
-5794.8
-5478.88
-3928.3
60.4817
-57.6088
973.452
4397.83
4344.49
5792.11
7866.88
9630.36
10537.2
10597.3
12470.8
14237.3
14650.3
16372.5
19017.1
18787.4
18599.1
19386.8
19543.3
20438.5
19589.5
20996.8
21281
18200.9
18771.7
20692.9
17707.5
6053.25
6500.51
-4818.63
-7966.83
-8580.08
-8496.79
-8182.42
-8340.17
-8689.39
-8875.06
-9005.94
-9064.58
-8517.9
-7141.07
-5286.29
-3762.36
2647.8
-5067.62
35141.6
-323.795
-368.057
-407.152
-447.185
-487.43
-527.967
-568.63
-609.305
-649.845
-690.103
-729.838
-768.829
-806.865
-843.702
-879.256
-913.027
-945.211
-975.83
-1003.7
-1032.9
-1057.44
-1079.98
-1113.62
-1129.54
-1154.14
-1193.06
-1203
-1299.57
-1261.87
-1377.6
-1534.62
-1521.07
-1644.8
-1767.36
-1916.37
-1979.14
-2096.61
-2180.95
-2285.99
-2474.27
-2712.07
-2867.62
-3058.59
-3144.26
-3247.96
-20347.1
-20774.8
-22896.4
-24880.2
-23860.1
-24597.3
21621.1
-13507.3
-15934.9
-32178.3
-33567.9
-36591.3
-34681.9
-32743.8
-30414.7
-27865.3
-23410.6
-22587.4
-19598.9
-17608.8
-14419.9
-13287.8
-10906.4
-7774.76
-7692.4
-4564.37
-2223.09
-1891.15
-718.812
2894.64
2702.25
4311.4
6858.98
6977.32
9128.06
11095.2
12166.2
12427.8
14611.6
17058.4
15898.1
17130.7
18914.2
19321.2
20950.7
21761.5
21459.3
22496.1
23597.7
22261
22183.6
21888.4
20493.7
18165.2
11873.5
7521.62
2942.55
-1079.89
-5035.36
-4699.24
-5751.98
-6812.1
-7709.34
-8019.87
-8069.47
-8018.23
-7968.4
-7237.6
-5951.17
-4258.56
-3252.95
2471.73
-4460.04
29693.3
-553.011
-591.854
-626.577
-663.112
-700.654
-739.212
-778.573
-818.578
-859.042
-899.796
-940.63
-981.285
-1021.61
-1061.26
-1100.32
-1138.29
-1175.15
-1211.68
-1245.21
-1282.09
-1313.18
-1344.07
-1390.89
-1410.58
-1442.54
-1506.54
-1527.02
-1582.17
-1656.48
-1728.28
-1809.17
-1946.3
-1983.12
-2084.9
-2202.22
-2339.59
-2438.71
-2533.14
-2545.77
-2581.17
-2705.24
-2935.29
-2994.57
-3032.49
-3007.29
-17445.4
-17859.8
-19251.7
-19271.9
-20224.3
-21006.9
13312.6
-10005.3
-19869.1
-36448.1
-37650
-38945.4
-37093.6
-34181.7
-29730.5
-28822.3
-24211.8
-21350
-17378.8
-14626.5
-13575.2
-10710.9
-9502.59
-7509.75
-5266.41
-2360.14
-1329.22
-317.298
2536.43
3173.41
5631.95
7134.51
6855.19
7723.31
11207.5
12168.9
13597.4
14861.5
15136.6
18870.2
16796.7
19916
21599.8
20736.7
21191.7
22892.8
25046.1
24003
26797.3
24616.9
29659.6
28579
24246.3
17840.5
10488.7
8489.55
3009.92
-2359.83
-3121.03
-3210.01
-4211.75
-5292.75
-5975.6
-6108.67
-6386.92
-6436.52
-6574.06
-5977.09
-5061.03
-3263.37
-2664.2
1880.53
-4000.06
24450.6
-773.271
-805.698
-835.107
-867.237
-901.189
-936.889
-974.075
-1012.54
-1052.05
-1092.42
-1133.42
-1174.8
-1216.42
-1257.93
-1299.42
-1340.47
-1380.88
-1421.76
-1460.36
-1502.41
-1540.15
-1578.7
-1629.95
-1661.7
-1698.13
-1773.67
-1802.38
-1845.54
-1985.28
-2004.45
-2056.98
-2239.01
-2383.77
-2343.57
-2435.71
-2554.24
-2701.05
-2782.78
-2848.18
-2777.16
-2567.66
-2739.91
-2877.85
-2769.53
-2495.94
-14084
-15368.7
-15727.6
-15622.1
-16137
-16732.2
-6931.29
-9279
-23655.4
-40284.5
-41422.7
-39791.1
-37274.4
-32248.8
-29012.8
-25094.5
-23549
-18094.1
-16444
-14846.5
-10288.8
-8162.77
-7406.82
-4264.25
-2798.28
-556.508
-1731.4
1828.55
3908.36
5102.38
6753.12
8752.07
9448.67
12060.4
12111.7
13164.6
14198.6
16197.7
18032.6
20030
20945.4
19527.9
21560.8
22792.9
25784.2
27982.5
26414.3
26077.7
34074.1
34737.1
37213.2
32129.5
22618.5
16143.6
10687.7
5752.37
1301.57
249.157
-1478.56
-2020.75
-3486.61
-4060.3
-4502.8
-4883.49
-5260.64
-5342.89
-5388.78
-4890.28
-4268.37
-2526.49
-2218.09
1397.38
-3631.67
20055.6
-983.313
-1008.52
-1031.88
-1058.88
-1088.55
-1120.72
-1155.05
-1191.29
-1229.17
-1268.46
-1308.93
-1350.32
-1392.47
-1435.03
-1478.07
-1521.37
-1564.45
-1608.49
-1651.47
-1696.39
-1741.1
-1785.74
-1835.97
-1885.22
-1928.19
-1993.4
-2051.52
-2098.74
-2217.35
-2297.01
-2310.7
-2412.91
-2626.9
-2685.76
-2627.41
-2693.77
-2803.08
-2973.74
-3023.02
-2930.7
-2741.83
-2269.3
-2202.72
-2227.79
-1837.61
-11162.1
-11880.7
-12775.4
-13955.4
-15155.6
-16533.1
-30936.7
-10950.1
-31077.2
-41618
-42114.3
-34913.3
-30483.7
-26657.2
-25653.8
-22555.6
-19432.6
-15435.6
-13762.8
-9704.06
-8329.34
-5886.71
-4070.37
-1619.96
974.626
-727.4
3607.59
4197.81
4670.14
7216.05
9375.53
10063.4
11712.8
13991.3
14984.3
15092.8
16172.5
19330.3
20178.1
20810
20809.7
23766.7
27474.4
28292.7
28344
31285.2
31494.7
39027.4
42538.3
48359.1
34379.5
25292.3
18184.1
12818.9
7358.32
3977.48
2269.33
185.243
-465.405
-1578.47
-2388.94
-2899.28
-3513.53
-3946.58
-4237.08
-4297.09
-4387.34
-4038.48
-3603.11
-2078.31
-2034.24
816.037
-3467.74
16128
-1181.96
-1199.37
-1216.12
-1237.49
-1262.37
-1290.5
-1321.48
-1355
-1390.75
-1428.44
-1467.84
-1508.68
-1550.78
-1593.81
-1637.69
-1682.54
-1727.66
-1773.89
-1820.61
-1867.09
-1918.29
-1967.45
-2014.55
-2080.21
-2127.42
-2180.66
-2271.36
-2317.8
-2380.26
-2516.24
-2588.21
-2623.22
-2698.09
-2891.13
-2970.2
-2896.9
-2844.53
-2899.09
-3065.63
-3084.75
-2954.36
-2538.3
-1812.65
-1368.89
-1007.14
-8478.05
-7920.13
-8225.24
-8696.51
-10068.5
-16764.7
-69143
-34087.9
-40206.3
-44277.5
-41754
-36588.7
-32461.7
-29579.5
-26476.6
-21205.4
-17800
-13872.9
-10555.6
-9247.91
-4921.93
-2906.98
-1055.53
-225.8
922.379
4976.46
5876.64
4354.36
8723.8
10072.4
10527.8
12749.6
15053.1
15335
16971.7
17771
18741.4
20968.5
21925.4
24240.8
27181.2
29292.9
28798
33781.3
34882.3
42825.5
44688.9
54704.8
45091
35838.6
26134.7
18809.8
13524.1
8832.08
5385.91
4536.76
1942.33
1184.04
65.2186
-672.64
-1435.09
-2114.41
-2751.6
-3049.64
-3346.4
-3399.43
-3557.2
-3263.14
-2982.94
-1742.04
-1858.97
483.586
-3343.86
13097.3
-1368.17
-1377.4
-1387.21
-1402.59
-1422.37
-1446.15
-1473.44
-1503.9
-1537.17
-1572.9
-1610.84
-1650.71
-1692.32
-1735.4
-1779.65
-1825.39
-1871.94
-1919.84
-1969.37
-2017.9
-2072.78
-2125.01
-2174.35
-2247.78
-2304.26
-2345.95
-2441.36
-2538.62
-2534.39
-2664.37
-2844.39
-2773.84
-2842.41
-2961.52
-3178.71
-3179.43
-2959.08
-2904.46
-2908.14
-2971.5
-3001.31
-2946.04
-2063.86
-1073.7
-344.412
-5862.15
-5584.4
-5296.78
-3917.41
-5657.88
-14317.7
-51820.5
-93493.8
-60597.7
-39625.8
-29332.4
-28453
-23448.2
-25313.5
-21866.1
-18578.7
-12660.9
-10961.2
-6878.11
-5176.52
-2509.31
1137.83
2691.43
4085
5608.87
6315.64
7127.74
7448.34
8456.99
12518.8
14289.6
14799.1
17175.1
18299.7
18766
19647.8
21170.7
25593.7
26583.9
28174
32248.1
34850.3
37489.6
46860.9
50038.6
56672
56585.1
46552.5
33226.1
24195
17957.8
13490.4
9658.81
6020.94
5536.58
3849.89
2412.03
1509.68
668.144
18.9062
-744.005
-1386.76
-1923.41
-2232.52
-2563.49
-2625.3
-2843.74
-2626.67
-2522.07
-1545.59
-1818.02
143.223
-3318.6
10581.7
-1540.97
-1541.86
-1544.59
-1553.85
-1568.35
-1587.61
-1611.05
-1638.25
-1668.81
-1702.36
-1738.59
-1777.2
-1817.98
-1860.76
-1905.07
-1951.24
-1998.74
-2047.79
-2099.24
-2149.92
-2206.52
-2262.11
-2317.48
-2385.69
-2452.24
-2501.28
-2586.29
-2691.1
-2710.4
-2801.79
-2948.06
-3005.67
-3013.08
-3052.37
-3185.4
-3301.06
-3224.99
-3035.25
-2908.01
-2888.24
-2756.83
-2641.87
-2558.59
-1489.36
-266.329
-3728.53
-3152.86
-2182.17
616.535
2879.4
1941.43
-34348.9
-157817
-117051
-27678.9
-14474.8
-12080.4
-9060.37
-12540.4
-12880.6
-12422.8
-8263.47
-6791.77
-1475.29
136.681
1037.44
3750.16
5329.96
6489.28
8214.68
10805.3
10260.2
11177.1
11154
14937.5
15923.3
16753.5
19199.5
19109.7
22259.6
26346.7
26893.4
29410
34729.8
36526
45063.4
49047.1
54479.4
61626.1
63829.5
49296.4
37597.5
30803.5
21133.8
16188.9
12485.7
9504.1
6021.86
5992.85
4746.31
3488.06
2447.92
1887.34
1192.63
547.085
-179.005
-726.848
-1219.34
-1535.28
-1886.35
-1942.59
-2160.57
-2118.92
-2049.1
-1342.24
-1746.38
-61.6208
-3283.82
8680.27
-1699.56
-1692.16
-1687.83
-1690.99
-1700.22
-1714.93
-1734.48
-1758.34
-1786.09
-1817.34
-1851.7
-1888.89
-1928.62
-1970.8
-2014.95
-2061.18
-2109.41
-2159.08
-2211.78
-2265
-2321.27
-2380.99
-2439.81
-2501.95
-2578.72
-2640.55
-2707.6
-2800.5
-2889.64
-2935.61
-2995.15
-3165.5
-3237.49
-3186.51
-3162.63
-3335.2
-3486.2
-3304.43
-3062.51
-2888.62
-2692.44
-2511.48
-2381.77
-2174.15
-979.072
-2504.47
-2347.79
-1779.61
-1757.76
-2973.79
-11817.8
-53942.2
-191795
-130533
-40682.3
-10689.3
-12036.9
-684.189
-5274.89
-4888.93
-7308.51
-6183.29
-2008.69
2105.59
4884.66
5275.66
6315.76
8352.3
9362.45
10734.3
14589.6
12807.1
14501.6
13806.6
15882.7
19081.3
18391.9
25103.8
26477.2
27369.2
34591.9
36068.1
40000
49024.2
54007.6
60292.9
66879.9
67245.2
51077.8
41881.1
33033.7
23655.4
18318.8
13854.3
10789.3
8692.83
5376.53
5816.43
4491.63
4101.92
2954.28
2509.29
2117.29
1604.76
989.216
370.881
-155.867
-651.981
-955
-1333.16
-1409.77
-1616.61
-1800.19
-1680.63
-1236.55
-1738.18
-264.731
-3272.59
7112.79
-1843.23
-1827.77
-1816.62
-1813.85
-1817.94
-1828.2
-1843.92
-1864.49
-1889.43
-1918.32
-1950.77
-1986.44
-2024.99
-2066.38
-2110.18
-2156.21
-2204.91
-2254.91
-2308.41
-2363.82
-2419.45
-2482.22
-2546.17
-2602.35
-2683.22
-2762.19
-2808.28
-2892.09
-3028.12
-3037.18
-3096.37
-3244.13
-3378.77
-3292.34
-3274.82
-3331.6
-3524.31
-3614.64
-3250.5
-2936.02
-2823.17
-2566.31
-2375.32
-2117.98
-1666.59
-1594.01
-1261.57
-505.938
-112.31
596.844
-5964.79
-77231.6
-155996
-72776.3
-61091.1
-27336.2
-12638.7
-2298.41
-4856
792.237
-843.455
-1525.9
949.271
5543.76
8183.54
8889.15
9150.37
9118.29
11519
12481.1
12756.1
15903
19423.6
17178.7
21782.5
26123
25504.7
32078.5
36647.3
40013.4
49410.7
53974.1
59946.2
67555.6
73542.5
62316.3
50970.9
44048.5
33500.4
25743.1
19191.7
14530.7
11468.3
9071.95
7140.26
4985.22
5065.16
3958.34
3663.53
3105.94
2772.64
2548.45
2201.44
1764.64
1299.98
803.466
264.489
-210.382
-458.966
-776.849
-913.4
-1167.5
-1531.12
-1362.21
-1193.45
-1770.08
-477.563
-3286.19
5806.53
-1971.42
-1948.34
-1930.72
-1922.34
-1921.54
-1927.56
-1939.61
-1957.01
-1979.23
-2005.8
-2036.34
-2070.48
-2107.81
-2148.25
-2191.58
-2237.27
-2286.06
-2336.48
-2390.16
-2446.82
-2503.01
-2567.2
-2631.91
-2692.79
-2766.47
-2851.94
-2908.03
-2982.67
-3095.88
-3166.06
-3206.27
-3285.37
-3411.44
-3472.28
-3439.4
-3448.68
-3457.35
-3581.7
-3568.47
-3226.61
-3008.68
-2840.83
-2481.18
-2207.12
-2031.09
-1884.62
-1230.04
-1427.72
-2592.91
-6586.83
-30846.2
-151280
-33928.5
-31086
-72595.1
-53724
-22282.6
-10704.1
-1734.27
1349.99
674.462
2758.16
4822.78
7476.31
8898.17
12694
15010.9
13193.2
15568.7
16946
17966
20897.8
24851.3
24629.4
31468.5
37359.6
40814.3
48519.7
54811.2
60807.9
69343.1
75120.4
70466.2
57085.8
47698.3
39768.4
32178.5
25763.3
19268.5
15051.4
11882.1
9165.96
7372.4
5445.54
4613.77
4081.48
3287.73
3048.21
2719.72
2589.06
2390.54
2438.99
2172.86
1864.2
1502.06
1069.7
595.546
169.435
-94.1432
-390.693
-552.909
-999.79
-1289.09
-1191.36
-1192.56
-1855.2
-722.456
-3306.36
4746.47
-2083.71
-2053.59
-2030.02
-2016.44
-2011.13
-2013.21
-2021.82
-2036.26
-2055.91
-2080.27
-2108.94
-2141.57
-2177.71
-2217.13
-2259.85
-2305.17
-2353.7
-2404.68
-2457.92
-2515.4
-2572.87
-2636.78
-2702.24
-2767.84
-2836.13
-2919.52
-2998.34
-3061.63
-3135.06
-3264.81
-3320.53
-3350.43
-3415.72
-3589.69
-3615.51
-3579.35
-3490.81
-3561.54
-3702.37
-3615.24
-3283.68
-3103.6
-2790.64
-2405.57
-2157.15
-1084
-769.489
-1017.58
-1226.47
-7914.83
-61066.8
-107594
-11824.2
-20741.1
-39486.2
-68873.3
-54272.7
-31518.5
-17708.2
-5101.9
-302.228
6307.38
9276.39
10542.5
15449.4
17386.1
17893.2
18016.3
21368.4
19855.4
25089.9
34229.1
36166.2
41813
50296.8
56922.8
63779.7
69941.7
78326.7
75578
62662.5
52261.8
45366.8
35209.1
30276.9
23402.8
18376
14946.2
11508.2
8870.14
7021.95
5660.86
4359.46
3789.61
3159.39
2692.19
2376.29
2252.11
2237.07
2257.34
2168.15
2256.6
2128.85
1910.21
1566.58
1206.92
854.031
475.661
177.21
-140.597
-389.425
-722.689
-1170.42
-1047.7
-1186.65
-1890.44
-906.59
-3272.09
3871.36
-2179.81
-2143.37
-2114.46
-2096.22
-2086.85
-2085.37
-2090.85
-2102.56
-2119.86
-2142.19
-2169.08
-2200.24
-2235.24
-2273.7
-2315.66
-2360.57
-2408.62
-2460.02
-2512.9
-2570.82
-2630.48
-2691.32
-2759.51
-2829.31
-2893.57
-2969.86
-3064.62
-3124.57
-3186.8
-3309.68
-3411.71
-3417.32
-3461.86
-3617.52
-3734.36
-3680.07
-3618.92
-3574.63
-3744.96
-3846.26
-3633.6
-3328.46
-3081.37
-2727.86
-2376.9
-544.646
-579.063
-1256.06
-3494.24
-13878.7
-103824
-57410.2
-6918.23
-8068.05
-17483.3
-32605.2
-61552.4
-66146.8
-35102.3
-21063.2
-2737.7
6554.97
12298.3
16037.3
19170
22441.9
28196.9
25434.7
32951.9
37049
40830.6
55005.2
61121.5
67295.7
74662.4
80470.5
75320.3
66459.5
53972.3
47057.5
38471.4
32132.1
26052.9
21019.1
16928.7
13930
10783.8
8615.32
6883.51
5384.76
4328.55
3451.77
3019.33
2467.78
2365.22
1857.79
1840.89
1818.56
1828.51
1810.63
1871.38
2044.65
2032.4
1854.16
1622.21
1316.5
1069.53
734.255
399.591
15.3408
-347.245
-360.405
-1042.22
-886.078
-1218.34
-1850.58
-998.466
-3222.13
3171.66
-2259.58
-2217.65
-2184.13
-2161.83
-2148.91
-2144.31
-2147.03
-2156.3
-2171.49
-2191.98
-2217.27
-2247.01
-2280.91
-2318.48
-2359.68
-2404.11
-2451.61
-2503.03
-2555.97
-2613.38
-2674.19
-2733.92
-2803.43
-2873.45
-2940.49
-3013.13
-3102.19
-3182.97
-3245.88
-3323.39
-3446.66
-3516.06
-3552.74
-3601.63
-3742.98
-3815.21
-3770.13
-3747.15
-3717.37
-3844.96
-3831.92
-3602.81
-3346.32
-3087.45
-2979.74
-221.115
-402.442
-1279.45
-4015.75
-28074.6
-128356
-9263.42
-158.347
-733.924
-5697.6
-12396.6
-25999.8
-47698.4
-62398.7
-38938.3
-12844.7
4234.77
21137.3
28382.4
32186.8
35255.6
42377.4
45413.4
54880.9
62244.2
71781.8
81086.5
85703.1
77910.6
64711
53091
47566.2
41101.8
31705.9
27467
22955.4
18274.3
14908.4
12759.7
9849.27
8036.38
6730.49
5367.99
4082.31
3218.49
2565.26
2066
1990.87
1766.27
1257.61
1233.97
1280.5
1426.58
1481.69
1516.8
1737.45
1970.16
1986.16
1860.17
1709.69
1478.16
1208.62
871.037
560.639
115.289
-171.567
-183.447
-802.941
-783.774
-1307.6
-1785.65
-1004.58
-3113.95
2650.52
-2323.01
-2276.52
-2239.16
-2213.48
-2197.56
-2190.31
-2190.69
-2197.87
-2211.18
-2230.06
-2253.95
-2282.41
-2315.23
-2351.97
-2392.43
-2436.41
-2483.27
-2534.36
-2587.72
-2644.02
-2705.43
-2766.33
-2832.98
-2904.23
-2974.86
-3046.73
-3125.72
-3216.69
-3291.08
-3357.23
-3451.29
-3575.53
-3624.29
-3651.51
-3714.05
-3871.78
-3922.9
-3888.31
-3838.66
-3822.13
-3880.51
-3803.9
-3607.84
-3333.53
-3092.78
759.358
699.606
489.804
-6348.73
-58931.9
-87307.7
-122.792
-861.251
-736.827
-2858.73
-4953.25
-10620.8
-22738.7
-33379.4
-44937.5
-40004.6
-965.294
32810
46356.4
55257.2
57925.6
70580.5
77838.4
85176.8
84881.9
77172.2
63895
53636.6
48298
39537.2
33041.1
28764.9
23543.8
18664.2
15504.2
13723.1
11129.1
8591.71
7479
6406.67
5071.95
4109.31
3374.18
2602.77
2243.5
1901.29
1858.09
1461.75
1182.19
899.649
942.925
914.035
970.199
1079.46
1176.89
1546.14
1814.34
1857.83
1850.95
1768.24
1562.23
1235.69
925.758
643.793
344.375
34.3626
-62.6276
-622.668
-704.566
-1245.32
-1723.76
-1031.95
-3016.34
2191.91
-2370.22
-2320.14
-2279.8
-2251.43
-2233.12
-2223.72
-2222.18
-2227.63
-2239.37
-2256.84
-2279.52
-2306.92
-2338.72
-2374.65
-2414.39
-2457.92
-2504.35
-2554.63
-2608.39
-2663.82
-2725.14
-2787.75
-2851.33
-2924.45
-2996.35
-3066.04
-3146.25
-3231.5
-3314.96
-3386.37
-3466.62
-3575.92
-3667.64
-3712.36
-3755.47
-3849.16
-3974.47
-4021.98
-3948.8
-3911.37
-3912.26
-3916.71
-3776.42
-3517.78
-3284.15
834.205
233.23
-2367.12
-15499.5
-112930
-42025.3
512.902
1501.33
854.968
1277.73
1926.3
-932.821
-5442.95
-5725.3
-6905.1
-763.404
23598.3
51738.2
69501.6
79987.6
93096.5
82974.5
76173.2
64067.9
52381.6
47788.7
38704.2
33167.4
29017.3
23883.1
19279.4
15585.2
13629
12127
9200.87
8052.31
7230.35
5903.32
5341.26
4467.09
3674.24
2876.5
1998.15
1553.67
1354.77
1192.03
1121.59
733.021
220.083
207.573
444.414
693.322
836.091
1031.86
1290.02
1664.91
1924.19
1965.84
1945.77
1816.9
1558.37
1294.6
1029.1
725.02
525.756
222.332
79.165
-566.072
-697.428
-1091.32
-1606.85
-1051.2
-2847.63
1795.28
-2401.47
-2348.83
-2306.34
-2276.04
-2255.95
-2244.92
-2241.89
-2246
-2256.49
-2272.78
-2294.42
-2320.92
-2351.88
-2387.03
-2426.06
-2469.07
-2515.21
-2564.71
-2618.34
-2673.42
-2733.95
-2797.05
-2860.26
-2931.61
-3005.66
-3077.99
-3151.83
-3238.28
-3322.25
-3404.05
-3481.69
-3573.68
-3667.83
-3750.45
-3810.66
-3866.42
-3955.45
-4051.86
-4078.68
-3996.52
-3986.4
-4003.65
-3896.93
-3759.46
-3528.11
992.493
204.236
-3733.19
-32472.8
-120395
-4726.75
3512.31
4016.96
3614.88
4607.15
5650.49
6610.26
4555.77
10012.3
15669.2
45640.7
79518.9
95001.4
80862.6
70339.6
58980.7
51572.8
43773.5
37640.3
32696.1
29497.5
23709.2
18565.2
16492.4
14997.4
12925.6
10932.4
9505.85
8455.07
7654.35
5705.98
4962.21
4110.92
3721.05
3142.58
2698.29
2246.5
2017.83
1730.12
1307.08
1353.1
789.375
516.363
365.02
495.299
389.614
295.218
268.959
522.685
838.223
1275.47
1578.17
1712.72
1803.83
1643.73
1517.62
1313.82
1087.17
795.606
646.338
342.568
393.141
-534.938
-589.782
-950.982
-1460.97
-1075.28
-2684.13
1420.07
-2417.16
-2362.96
-2319.21
-2287.69
-2266.46
-2254.33
-2250.25
-2253.36
-2262.93
-2278.33
-2299.09
-2324.83
-2355.1
-2389.61
-2427.95
-2470.31
-2516.23
-2565.07
-2618.28
-2673.27
-2732.54
-2795.71
-2859.45
-2927.84
-3003.21
-3076.28
-3148.99
-3233.61
-3319.78
-3399.91
-3481.99
-3572.34
-3667.31
-3756.08
-3834.37
-3903.8
-3961.56
-4049.24
-4086.41
-4071.69
-4048.77
-4021
-3888.74
-3667.78
-3128.43
2304.18
2099.67
-4298.37
-68548.1
-75061.5
2241.64
2004.89
4086.41
4760.69
5119.51
6138.45
10899.5
17234.7
37709.1
76393.3
129166
114545
69166
56165.5
44645.9
37530.5
31848.8
27400.5
23536
20536.6
18754.8
17697.9
13868.9
11922.8
10911.4
10013.5
8924.66
6976.54
6429.38
6174.25
5262.36
4636.18
4013.53
3683.17
3117.54
2548.13
2181.32
1895.68
1436.48
1057.52
809.776
466.782
363.101
365.386
377.83
226.377
163.473
314.374
572.831
912.511
1367.57
1623.34
1772.63
1797.55
1660.99
1581.35
1370.22
1193.69
903.717
764.476
349.907
464.566
-289.337
-521.562
-857.341
-1301.72
-1051.27
-2505.49
1114.19
-2417.78
-2363.03
-2318.87
-2286.85
-2265.09
-2252.39
-2247.69
-2250.16
-2259.11
-2273.9
-2294.01
-2319.09
-2348.78
-2382.76
-2420.61
-2462.18
-2507.79
-2556.13
-2608.67
-2663.78
-2721.44
-2784.7
-2848.8
-2914.78
-2989.42
-3063.76
-3136.44
-3216.84
-3307.86
-3390.53
-3470.95
-3559.28
-3655.03
-3742.71
-3825.91
-3904.95
-3979.39
-4052.03
-4093.06
-4089.36
-4093.98
-4041.47
-3969.05
-3909.63
-4068.05
1029.4
-1841.75
-22807.8
-135247
-14626.6
5982.63
7052.04
8101.94
8183.96
9382.24
12550.9
21366.9
43247.2
84551.9
147997
136230
81997
54899.5
39491.5
29491.7
23382.6
20283.9
18821.8
17320.6
16108.1
14401.1
14447.8
13312
11372
10391.2
8855.68
8383.85
7691.5
6589.38
6164.08
5327.21
4614.07
3964.65
3372.56
2942.67
2568.09
2320.4
1987.16
1730.82
1108.33
646.825
621.078
572.637
556.615
460.744
337.358
252.689
282.56
384.022
640.741
980.45
1273.02
1344.64
1444.24
1371.84
1429.34
1263.29
1214.14
944.76
823.403
608.518
422.105
-79.5508
-375.585
-730.319
-1130.02
-1028.53
-2287.67
874.287
-2403.96
-2349.62
-2305.87
-2274.05
-2252.33
-2239.56
-2234.68
-2236.88
-2245.47
-2259.89
-2279.6
-2304.19
-2333.37
-2366.87
-2404.35
-2445.35
-2490.34
-2538.33
-2589.96
-2645.21
-2701.57
-2764.29
-2828.58
-2892.85
-2965.62
-3040.82
-3113.42
-3191.63
-3282
-3366.65
-3444.33
-3530.63
-3631.65
-3726.01
-3814.66
-3894.93
-3969.48
-4016.99
-4056.05
-4094.02
-4105.63
-4019.51
-3892.71
-3605.5
-3515.64
2282.48
-4956.43
-54349
-97457.7
2298.26
5573.69
6738.38
7632.31
10071
13601.5
18566.5
42629.5
89888.7
150505
141909
87472.8
56385.2
39170.2
28682.7
22185.5
18220.2
15852.8
14929.4
13915.1
13434.7
12102.7
11803.5
10805.9
10666.7
10004.7
8745.65
8089.3
7662.68
6837.41
6420.99
5972.4
5234.4
4678.85
3977.61
3562.09
3035.53
2513.25
2033.95
1893.7
1201.02
798.952
837.264
706.872
614.874
464.165
317.705
264.164
340.387
530.859
806.984
1071.4
1407.26
1508.86
1574.13
1509.93
1583.72
1375.56
1340.12
996.238
963.813
739.06
436.399
-7.04575
-309.048
-621.361
-931.826
-1010.9
-2076.04
662.38
-2376.4
-2323.39
-2280.82
-2249.86
-2228.74
-2216.37
-2211.72
-2213.99
-2222.51
-2236.77
-2256.27
-2280.57
-2309.38
-2342.39
-2379.51
-2420.15
-2464.51
-2512.2
-2562.66
-2617.91
-2673.49
-2734.88
-2799.29
-2863.1
-2932.41
-3007.95
-3081.63
-3157.21
-3244.15
-3330.39
-3409.92
-3493.45
-3595.14
-3690.76
-3787.16
-3862.91
-3931.43
-3974.6
-4048.26
-4093.47
-4098.05
-4067.44
-3986.59
-4045.77
-4693.91
-666.103
-15639.8
-113490
-35933.1
5352.32
7818.85
7798.69
8524.32
13577.8
23235.1
39663.9
84025.8
158249
145770
90535.3
57901.2
39188.5
28010.9
21306.7
17369.2
15102.4
13608.9
12494.8
11513.7
10835
10397.3
10614.1
10094
10749.8
10167
9859.95
9641.66
8949.08
8205.81
7437.29
6533.61
5789.7
4988.45
4287.39
3805.87
3235.08
2629
2260.63
2067.46
1364.92
1022.28
1102.67
944.846
859.409
631.015
407.98
252.106
226.675
339.963
552.147
741.38
969.561
1027.99
1115.74
1144.52
1234.07
1119.43
1175.98
843.024
1062.22
830.604
544.387
143.764
-248.554
-501.966
-731.055
-972.74
-1815.81
458.175
-2335.93
-2285.07
-2244.39
-2214.9
-2194.91
-2183.36
-2179.3
-2181.98
-2190.71
-2205.01
-2224.46
-2248.64
-2277.22
-2309.91
-2346.53
-2386.91
-2430.68
-2478.13
-2527.74
-2581.94
-2638.14
-2696.79
-2761.45
-2825.08
-2891.88
-2965.66
-3041.39
-3114.86
-3195.88
-3282.33
-3364.87
-3447.67
-3547.12
-3646.53
-3740.51
-3813.2
-3884.96
-3956.01
-4031.77
-4064.51
-4109.84
-4132.55
-4077.13
-4359.88
-4958.7
-2893.94
-40337.8
-113275
-1725.55
5779.97
6837.64
9007.14
11690.9
20728
44195.8
88888
145565
140078
89055.2
56989.9
38449.9
27381
20704.1
16608.7
14201.5
12724.3
11764.2
10629.4
9867.7
9226.15
9109.19
9272.97
9569.76
10028
9518.24
9336.52
9498.21
8681.5
8353.4
7643.73
6825.49
6583.75
5792.4
4786.45
4316.64
3832.78
2974.36
2472.43
2254.49
1615.86
1229.01
1083.8
978.181
919.079
607.341
405.966
377.226
415.129
562.989
632.537
727.547
960.413
1135.44
1237.6
1283.2
1385.86
1308.36
1334.09
1016.56
1068.13
877.731
580.619
205.098
-193.236
-436.608
-610.24
-872.492
-1562.41
231.44
-2283.44
-2235.46
-2197.31
-2169.83
-2151.43
-2141.12
-2137.99
-2141.35
-2150.56
-2165.13
-2184.66
-2208.82
-2237.3
-2269.83
-2306.05
-2346.02
-2389.35
-2436.32
-2485.8
-2538.17
-2595.16
-2651.99
-2714.86
-2779.5
-2844.38
-2914.94
-2991.85
-3063.99
-3138.25
-3223.79
-3310.35
-3394.42
-3490.54
-3591.11
-3672.84
-3741.86
-3833.83
-3929.01
-3998.72
-4016.73
-4056.6
-3851.89
-3695.06
-3643.65
-4536.57
-7548.85
-88429.8
-53523.2
3885
4586.68
6589.28
11327.3
21465.2
41450
84069.2
155430
141264
88153.7
56785.4
38292.8
27199.9
20354.9
16088.3
13458
11941.6
10964.5
10365.2
9560.35
9239.01
8720.68
8581.7
8400.88
8622.56
8587.41
8469.07
8748.55
9002.25
8323.11
8249.75
8114.31
6894.74
6469.09
5789.21
4738.1
4135.03
3622.53
3002.43
2305.3
2192.11
1757.21
1542.81
1373.45
1340.45
1141.23
789.328
555.606
395.64
311.99
383.802
441.517
524.247
706.512
814.672
988.323
1026.38
1104.16
1061.16
1001.89
887.262
1071.84
924.771
734.41
319.248
-10.0313
-297.275
-513.524
-667.323
-1304.03
99.6722
-2219.86
-2175.43
-2140.36
-2115.36
-2098.98
-2090.27
-2088.37
-2092.65
-2102.55
-2117.6
-2137.39
-2161.63
-2190.06
-2222.49
-2258.52
-2298.04
-2341.04
-2387.24
-2436.6
-2488.09
-2544.23
-2601.11
-2660.86
-2726.85
-2789.66
-2858.63
-2932.27
-3004.07
-3075.43
-3157.91
-3246.49
-3333.04
-3418.93
-3512.7
-3591.96
-3677.13
-3761.12
-3869.83
-3975.16
-4109.67
-4014.55
-4060.39
-4442.47
-5418.19
-9020.02
-30062.7
-122900
-6905.77
5602.37
7932.45
10805.6
20418.9
46044.7
87555.3
144254
135528
86542.4
55521.7
37665.5
26850.6
20117.1
15855.7
13216.4
11535.5
10510.8
9799.33
9295.69
8794.93
8657.27
8242.05
8085.68
7653.02
7597.86
7321.41
7400.12
7689.64
7902.13
7757.96
7383.16
8064
6786.67
6264.89
5657.18
4891.3
4087.33
3467.28
2864.26
2242.13
1872.95
1631.02
1230.76
1155.52
1172.78
945.237
565.287
492.574
533.162
542.339
565.37
498.295
594.649
820.866
895.391
1088.41
1082.49
1163.72
1158.99
1181.54
1164.54
1277.67
1000.28
784.976
307.004
-2.63638
-282.025
-492.228
-611.364
-1016.13
-30.608
-2146.22
-2105.86
-2074.35
-2052.25
-2038.23
-2031.42
-2031.03
-2036.47
-2047.23
-2062.9
-2083.13
-2107.58
-2136.04
-2168.36
-2204.29
-2243.51
-2286.19
-2331.79
-2380.4
-2432.01
-2486.51
-2543.28
-2601.73
-2666.09
-2728.95
-2795.92
-2865.02
-2938.64
-3007.87
-3087.49
-3170.64
-3254.71
-3336.12
-3417.21
-3510.29
-3606.39
-3681.45
-3790.23
-3907.42
-3972.84
-3744.69
-3580.33
-3402.28
-4138.32
-11821.6
-72886.1
-69921.1
3531.29
6110.13
10365.3
22899.8
42069.6
88613.4
155627
134722
84578.6
54603.7
36822.3
26270.1
19664.2
15439.9
12737.2
11076.8
10011.6
9276.07
8714.46
8338.35
8087.29
8025.21
7700.44
7671.62
7234.43
6967.18
6709.82
6476.3
6716.84
6520.54
6919.2
6600.27
7292.75
6743.99
5621.09
5423.9
4666.12
3823.9
3073.76
2600.39
2171.07
1920.56
1578.88
1256.56
1212.42
1267.81
1034.03
711.891
522.453
391.956
286.796
246.341
295.448
462.111
644.177
686.936
874.338
860.027
918.403
906.251
921.109
867.617
993.034
837.558
868.226
544.357
219.781
-76.8605
-247.329
-523.489
-819.854
-144.395
-2063.55
-2027.69
-2000.12
-1981.26
-1969.89
-1965.23
-1966.58
-1973.38
-1985.16
-2001.58
-2022.34
-2047.13
-2075.74
-2108.02
-2143.77
-2182.82
-2225.18
-2270.37
-2318.29
-2369.81
-2422.85
-2479.07
-2537.18
-2598.57
-2662.87
-2727.28
-2792.86
-2865.26
-2936.56
-3012.67
-3086.85
-3161.5
-3243.57
-3320.98
-3421.81
-3507.07
-3591.46
-3676.55
-3762.36
-3897.14
-4046.48
-4477.55
-5412.92
-8496.42
-34549.1
-129927
-7386.9
7144.52
12624.4
22330.6
48718.6
92128.5
147870
126358
81604.8
52621.7
35551
25358.4
18996.3
14881.2
12256.9
10553.9
9504.24
8776.17
8253.49
7759.87
7508.16
7365.99
7300.83
7041.18
7016.5
6695.92
6370.94
6236.78
5838.68
5918.97
5606.7
5895.92
5758.32
5444.31
6430.87
5424.12
4993.45
4425.24
3752.62
2915.58
2488.57
2081.03
1639.67
1263.9
886.985
781.42
793.35
582.574
336.493
307.887
304.623
253.69
206.717
326.719
486.008
659.665
658.723
828.85
801.684
903.056
923.082
1051.56
1078.38
1139.3
1140.69
891.542
743.609
201.748
-21.1706
-171.994
-425.118
-656.742
-457.975
-1972.91
-1941.88
-1918.54
-1903.17
-1894.68
-1892.38
-1895.63
-1903.95
-1916.91
-1934.19
-1955.55
-1980.76
-2009.59
-2041.95
-2077.57
-2116.4
-2158.51
-2203.29
-2250.91
-2301.69
-2354.17
-2409.67
-2466.73
-2527.1
-2590.75
-2654.06
-2716.79
-2786.07
-2860.78
-2931.09
-2996.25
-3062.47
-3142.43
-3222.36
-3314.4
-3383.81
-3473.94
-3497.54
-3526.92
-3517.16
-3491.26
-3476.46
-3986.53
-12338.4
-80348.3
-74812.8
7115.94
13525.3
25653.5
50962.5
93541.7
156780
121675
77407.5
50188.3
33679.9
23854.6
17753.4
13831
11259.8
9607.44
8624.42
8084.37
7735.59
7405.59
7143.16
6952.08
6864
6747.64
6595.44
6490.35
6284.42
6000.21
5877.53
5453.78
5312.82
4926.18
4748.66
4736.27
4316.54
5642.43
4310.78
4216.28
4193.29
3283.45
2774.68
2312.7
1863.33
1217.52
977.686
802.226
757.95
819.813
705.736
481.35
273.851
45.7033
-4.42504
-110.497
16.9694
163.969
383.113
429.546
634.15
643.568
798.892
776.195
876.307
884.56
882.525
1022.08
676.031
792.504
438.097
307.046
67.2716
-240.995
-444.83
-519.447
-1875.38
-1849.39
-1830.48
-1818.78
-1813.35