/*--------------------------------*- C++ -*----------------------------------*\
| =========                 |                                                 |
| \\      /  F ield         | OpenFOAM: The Open Source CFD Toolbox           |
|  \\    /   O peration     | Version:  2.2.x                                 |
|   \\  /    A nd           | Web:      www.OpenFOAM.org                      |
|    \\/     M anipulation  |                                                 |
\*---------------------------------------------------------------------------*/
FoamFile
{
    version     2.0;
    format      ascii;
    class       volScalarField;
    location    "2.4";
    object      Bz;
}
// * * * * * * * * * * * * * * * * * * * * * * * * * * * * * * * * * * * * * //

dimensions      [1 0 -2 0 0 -1 0];

internalField   nonuniform List<scalar> 
14161
(
-7.23254e-15
3.73622e-14
2.02537e-13
-2.8494e-13
4.61426e-13
-8.42578e-13
6.94518e-13
-7.7696e-13
2.87968e-13
-3.27643e-13
-1.61839e-13
7.88853e-14
-1.70149e-13
9.18948e-14
2.02331e-14
-7.92162e-14
9.21417e-14
1.06271e-13
1.82563e-14
-1.69213e-13
-4.77482e-14
1.85221e-14
1.13244e-13
-5.96912e-14
8.44014e-14
-4.77778e-13
2.13696e-14
-2.06664e-12
7.01341e-12
-2.48549e-11
3.36743e-11
2.87535e-11
-4.15742e-11
-1.29245e-10
-2.00288e-09
3.75469e-09
-1.48156e-06
-5.31394e-06
-8.35885e-06
-6.20932e-06
-6.16298e-06
-5.26219e-06
-5.03757e-06
-5.05092e-06
-4.54456e-06
-4.05908e-06
-4.53009e-06
-3.43831e-06
-2.74994e-06
-3.39969e-06
-3.91235e-06
-3.31982e-06
-1.89246e-06
-1.02651e-06
-2.74497e-06
-3.56135e-06
-2.07709e-06
-3.25642e-06
7.83935e-07
7.04231e-06
3.1516e-06
-4.38906e-06
2.71836e-06
2.3455e-05
2.38953e-05
-1.14846e-06
-7.60464e-06
6.71374e-06
2.14194e-05
2.30715e-05
5.09664e-06
-3.37408e-06
-5.51332e-06
6.42978e-07
1.00826e-05
1.00525e-05
1.41996e-05
2.59522e-05
-2.55639e-05
-3.44512e-05
2.91226e-05
5.3872e-05
-1.03355e-05
-3.25537e-05
-8.43533e-06
2.42641e-05
1.7044e-05
4.71919e-06
-7.56255e-06
-8.98098e-06
-4.76878e-06
-1.73313e-06
8.8603e-07
1.03842e-06
-2.23483e-06
-9.54255e-07
3.61834e-06
6.14666e-06
5.49455e-06
3.91599e-06
-2.26245e-06
-4.56728e-06
-2.44151e-06
3.42263e-07
2.80511e-06
3.32056e-06
5.73328e-07
1.05493e-06
5.2457e-06
4.10784e-07
6.31003e-06
-1.95049e-06
1.2552e-05
-5.94985e-06
2.88971e-05
-1.2635e-05
3.74696e-05
-2.52577e-05
-5.47188e-05
1.32759e-13
1.90245e-13
3.12341e-13
-5.14505e-14
4.42378e-13
-1.67839e-13
2.52652e-13
-1.17558e-13
2.85875e-14
9.91184e-15
-9.06657e-14
6.61178e-14
-3.29602e-14
2.94299e-14
7.20197e-14
2.76743e-14
1.08962e-13
1.15269e-13
3.98116e-14
3.30576e-14
1.25276e-13
1.57318e-13
1.18725e-13
3.41515e-14
1.58314e-14
-8.15404e-14
2.56686e-13
-1.13593e-12
2.29192e-12
-6.2727e-12
1.66464e-11
-3.44882e-11
7.1523e-11
-4.75957e-11
8.86602e-10
-6.15147e-08
-6.0976e-07
-4.7984e-06
-6.22826e-06
-5.0654e-06
-4.46853e-06
-4.00744e-06
-3.98511e-06
-4.21448e-06
-1.32387e-06
-8.79492e-06
-1.6582e-05
2.21682e-05
1.63802e-05
-3.50348e-05
-4.57622e-05
3.8919e-06
3.97907e-05
3.35666e-05
-4.5947e-05
-5.69104e-05
2.59039e-05
-2.39232e-05
1.76274e-05
0.000251825
-3.28494e-05
-0.000444321
-6.3192e-05
0.000548708
0.000351561
-0.000363362
-0.000519816
0.000106235
0.00055731
0.000318165
-0.000198806
-0.000335978
-0.000257057
-1.6718e-05
0.000357279
0.000308026
-0.000894009
0.000101254
0.000892372
-0.000453596
-0.000327949
-1.67225e-05
0.000226792
0.000212282
2.6892e-05
-8.36851e-05
-0.00010417
-6.71838e-05
-2.88092e-05
2.64565e-06
6.1842e-06
-3.68719e-05
3.38873e-05
2.41042e-05
5.84168e-05
3.32069e-05
4.78744e-05
-4.30484e-05
5.31169e-05
-2.53514e-05
-0.000102967
3.12074e-05
-4.53033e-05
-0.000109226
-2.27271e-05
0.000162353
-0.000117409
-1.9109e-05
7.08814e-05
9.90186e-05
1.05554e-05
4.171e-05
-2.22343e-05
-2.79412e-05
-2.70084e-06
-2.45148e-05
-3.05497e-06
1.84247e-07
1.87242e-05
-8.32579e-15
-6.69754e-15
-8.69329e-15
-1.15606e-14
8.30835e-15
-3.96613e-14
9.77693e-15
-2.17896e-14
2.40161e-15
-4.26298e-15
6.28347e-15
-1.53367e-14
1.93928e-14
-1.45163e-14
-1.25054e-14
4.98918e-16
2.33006e-15
-6.15191e-14
7.01409e-14
-6.78443e-14
1.59461e-13
-4.00761e-13
2.45988e-13
9.50809e-14
-4.28419e-13
3.33375e-14
2.53729e-12
-1.38633e-11
2.86267e-11
-5.88929e-11
1.07592e-10
-1.46911e-10
1.54673e-10
-1.59382e-10
1.91529e-09
-4.67529e-08
-5.62686e-07
-4.05806e-06
-4.75144e-06
-4.77662e-06
-4.8684e-06
-5.15029e-06
-7.91002e-06
-7.89282e-08
3.86187e-06
-5.66141e-05
-9.27226e-06
0.000118399
2.01548e-06
-0.000164292
-0.000127178
9.36752e-05
0.00020843
3.76724e-05
-0.000263473
-0.000270263
9.95584e-05
0.000284537
0.000295267
0.000342577
-0.000439058
-0.00111894
0.000579762
0.00161751
-0.000422368
-0.00195154
-0.000243966
0.00198226
0.00148494
-0.000813138
-0.00176617
-0.000974435
0.000534913
0.00149397
0.000736679
-0.000912233
-0.00140308
-0.00016101
0.00135653
0.000428433
-0.000752635
-0.000498363
0.000277015
0.000371817
0.000256013
-5.32832e-05
-0.000283243
-0.000244255
-5.25087e-05
-3.50998e-05
7.24394e-05
0.000280885
-3.02788e-05
0.000229894
-0.000262921
7.9252e-06
2.39488e-06
0.000152444
-0.000233028
0.000149171
3.20161e-05
0.000165128
-3.94209e-05
-5.44277e-05
-0.000165998
1.43293e-05
0.000191383
-0.000166012
0.000111603
-1.01929e-05
-6.02662e-05
4.66506e-06
0.000111865
-1.10149e-05
3.26086e-05
9.00703e-05
0.000148535
0.000126391
0.000123416
1.31395e-14
9.73918e-15
-9.18278e-16
3.01705e-14
-4.04775e-14
1.28077e-13
-8.30308e-14
1.22101e-13
-7.61126e-14
1.27802e-13
-5.05548e-14
1.55487e-14
6.87005e-14
-8.17707e-14
6.18467e-14
-1.38791e-14
6.86091e-14
-1.20224e-13
1.24644e-13
8.35316e-14
5.17419e-14
-2.01813e-13
-1.62576e-13
-1.12383e-14
-8.6279e-14
6.68745e-13
-2.79848e-12
1.16366e-11
-1.59494e-11
2.14118e-11
-7.82078e-12
8.20552e-12
-3.55692e-10
7.92038e-10
-8.31942e-10
4.59559e-09
-7.43281e-07
-4.99788e-06
-5.18671e-06
-5.083e-06
-6.30418e-06
1.18817e-06
-1.66457e-05
-2.89206e-06
2.52932e-05
-8.22102e-05
-5.39688e-05
0.000129677
0.000136004
-0.00010403
-0.00030202
-0.000145477
0.000262425
0.000333415
-3.70353e-05
-0.000472833
-0.00012288
0.000331319
3.22591e-06
-3.06196e-05
0.000659355
0.000625121
-0.00077902
-0.00177227
-0.000584621
0.00154488
0.00202908
0.000492831
-0.00155651
-0.00157543
2.01713e-05
0.000996476
0.00112956
0.000138259
-0.0011065
-0.00128709
-0.000158158
0.00148375
0.000626956
-0.000903122
-0.000511875
0.000202127
0.000630651
0.000206116
-0.000273766
-0.000384811
-0.000177733
0.000143423
0.000210124
0.000111932
1.50956e-05
-0.000177259
-8.46041e-05
6.31305e-05
5.80881e-05
6.24434e-05
2.76071e-06
-4.08677e-05
3.02552e-05
0.000136886
-7.66786e-05
2.71119e-05
-0.000144712
4.22646e-05
-0.000106276
0.000127081
-8.99205e-05
1.58948e-05
1.69405e-05
-2.818e-05
1.31832e-05
4.1239e-05
-2.62589e-05
-8.97515e-05
-4.33173e-05
-7.13104e-05
-1.40691e-05
4.21535e-05
5.40413e-05
-4.22431e-14
-6.50602e-14
-9.10302e-14
2.75714e-14
-2.39456e-13
2.7845e-13
-3.22665e-13
2.6995e-13
-2.23059e-13
2.22159e-13
-1.24724e-13
1.39336e-14
2.14683e-14
-6.67564e-14
1.52682e-14
1.64423e-14
-1.04045e-13
-3.69938e-14
1.52881e-13
-4.29782e-14
1.02273e-13
-7.93837e-14
-2.92908e-13
1.26644e-13
-7.42142e-13
2.16862e-12
-8.85084e-12
1.66732e-11
1.9868e-11
-4.98852e-11
6.64609e-11
-1.3575e-10
1.04032e-10
4.92964e-10
-9.99891e-09
7.45858e-08
-5.12436e-07
-4.8022e-06
-7.49331e-06
1.2037e-06
-7.52567e-06
1.80812e-06
5.97641e-06
-3.57072e-05
2.94663e-05
-9.01639e-05
-0.000114026
2.49117e-05
0.000279062
0.000229081
-0.000272466
-0.000317762
-0.00010654
-9.58997e-05
8.52835e-05
0.00109807
0.00108329
-0.00150889
-0.00305524
-0.000313997
0.00337912
0.00369432
-0.000373893
-0.00431305
-0.00335629
0.00117951
0.00411493
0.00267196
-0.00162235
-0.00300318
-0.000831682
0.00129452
0.00100635
-0.000170287
-0.00170037
-0.000323898
0.000886114
0.00192848
-0.00111057
-0.00123204
0.000333947
0.00133088
0.000237604
-0.000359266
-0.000532961
-0.00022978
-0.000116853
-9.64962e-05
-0.000100313
0.00012511
0.000138191
-1.16681e-05
2.20792e-05
2.66102e-06
8.38586e-05
-2.00686e-05
-3.64067e-06
-6.69112e-05
9.99133e-05
1.95533e-05
-1.62777e-05
-2.98915e-05
-4.07703e-05
1.30748e-05
-3.72977e-05
4.6476e-05
-6.63533e-05
4.41156e-05
-3.12008e-05
1.52071e-05
-1.08704e-05
3.35663e-05
-6.74489e-05
-1.1445e-05
-6.89387e-05
-8.11784e-05
-0.000138501
-3.0182e-05
-1.4878e-05
-1.28391e-13
-1.25033e-13
-2.07954e-13
1.47234e-14
-2.26757e-13
-3.20675e-13
1.86626e-13
-4.12265e-13
-8.87277e-14
-4.15906e-14
-6.03423e-14
6.57394e-14
-1.61702e-13
2.87446e-14
-8.88597e-14
-4.54317e-14
-2.18796e-13
-1.86736e-13
-1.31069e-14
8.63246e-14
-1.68537e-13
-3.44251e-13
-3.79382e-13
-1.11567e-13
5.03382e-14
5.03127e-14
2.61287e-13
-6.59979e-13
1.01604e-12
7.33809e-13
-9.7754e-12
5.04108e-11
-1.71892e-10
2.04792e-10
3.01603e-09
-3.27651e-08
-9.22833e-07
-3.42836e-06
-3.18814e-05
7.62605e-05
-5.89161e-05
-0.000103683
0.000174599
8.9096e-05
-3.02402e-05
-0.000351327
-0.000139901
0.000211307
-4.89112e-05
-0.000152784
0.000344426
0.00113017
-0.000238225
-0.00231509
-0.00138673
0.002082
0.00303448
0.000666822
-0.0020981
-0.00317632
-0.00181773
0.00139209
0.00405302
0.00326358
-0.000397651
-0.00382792
-0.00376067
-0.000870647
0.0028191
0.00387681
0.00142578
-0.00196633
-0.00299119
-0.00206134
0.000606459
0.00317242
0.00222088
-0.00136247
-0.00289864
-0.000999689
0.00263846
0.00147757
-0.000772631
-0.0011846
-0.00028978
0.000324489
0.000101814
-0.000321621
-8.5703e-05
0.000236429
0.000231673
1.55469e-05
9.26394e-05
-1.91691e-06
6.58481e-05
-6.57677e-05
-2.68967e-06
-5.71009e-05
9.52335e-05
-3.07595e-06
1.66314e-05
-4.09192e-05
-7.987e-06
-5.20408e-06
-1.11009e-05
4.45379e-06
-3.0825e-05
3.74386e-05
-1.53325e-05
1.79053e-05
-1.11681e-05
1.2622e-05
-7.75878e-06
2.56511e-05
-1.82897e-06
2.83915e-08
-4.45098e-05
-7.68473e-05
-2.83349e-05
-9.84908e-14
-2.90363e-14
-5.48215e-15
-2.72311e-13
5.21635e-13
-1.19419e-12
9.3735e-13
-1.319e-12
-1.0261e-13
-2.89289e-13
-2.89807e-13
-1.88334e-13
-3.87835e-13
-8.76629e-14
-2.74701e-13
-2.05113e-13
-3.1529e-13
-4.89301e-13
-4.6899e-13
-3.05377e-13
-2.79448e-13
-6.52105e-13
-3.6483e-13
-8.02951e-13
8.88068e-14
-1.13981e-12
5.30168e-12
-1.87356e-11
5.08015e-11
-7.54761e-11
8.8279e-11
-1.45162e-10
2.57275e-10
-5.07956e-10
5.45835e-09
-4.77994e-08
-3.04484e-07
3.48e-06
-1.53245e-05
0.000170264
-0.000205172
-0.000158345
-0.000166167
0.000507244
0.00067424
-0.000683645
-0.00114411
0.000505257
0.0014514
-0.000101114
-0.00142388
-0.000190103
0.00108336
0.000396767
-0.000681163
-0.000472714
-5.17697e-05
2.56098e-05
0.000220774
0.000653611
0.000554509
-0.000108144
-0.000833237
-0.00113188
-0.000401363
0.000673105
0.00119248
0.00078257
-0.000115592
-0.0011803
-0.000927385
0.000124308
0.000890382
0.000712475
0.000265671
-0.000769284
-0.000881725
0.000528873
0.000858132
-4.05821e-05
-0.000395859
-0.000206761
9.55209e-05
0.000106903
4.15506e-05
-7.53509e-05
-0.00035328
-0.000125272
0.000272963
0.000100878
7.0151e-05
0.000103482
0.000177929
-5.90901e-05
-5.23844e-05
-7.77632e-05
1.56122e-05
-9.02562e-05
7.55571e-05
1.17303e-05
3.30208e-05
-5.78955e-05
2.50758e-05
-6.32883e-06
1.03809e-06
1.37793e-06
1.10798e-05
-8.91153e-07
-2.52592e-05
-5.69353e-06
-1.08301e-05
4.72641e-06
1.68847e-05
3.61735e-05
1.88049e-05
3.97001e-05
1.70523e-05
-3.24701e-05
-2.70267e-05
-8.18221e-13
-8.25735e-13
-7.12474e-13
-8.30068e-13
-8.88494e-13
-1.37922e-12
2.29841e-13
-2.02672e-12
6.16897e-13
-1.72128e-12
-2.95169e-13
-9.54836e-13
-1.01802e-12
-4.09199e-13
-1.04432e-12
-7.62415e-13
-1.17733e-12
5.99468e-13
-3.1151e-12
4.8645e-13
-2.21158e-12
5.22423e-13
2.3832e-12
-8.12432e-12
1.26352e-12
4.61032e-12
-8.95118e-12
-5.70569e-12
-1.39919e-11
1.97526e-10
-4.19074e-10
-6.73673e-10
3.07485e-09
-2.04314e-09
-8.46773e-09
-3.26768e-08
-6.5359e-07
-6.99973e-06
2.41716e-05
-0.000151422
-5.17036e-05
0.000167922
0.000322467
0.000174783
-0.000414445
-0.000542918
-0.00013252
0.000103611
0.000307338
0.000442352
0.000276334
-0.000304496
-0.000706737
-0.000191321
0.00040845
0.00042838
8.07451e-05
-0.000306303
-0.000269512
-8.22213e-05
0.000157443
0.000222627
0.000278948
0.000190971
-0.000235675
-0.000590376
-0.000608401
0.000150041
0.000788526
0.000874073
0.000191664
-0.000634556
-0.000899048
-0.000475544
0.000176803
0.000537039
0.00069678
0.000211872
-0.000361457
-0.000478034
-0.000219232
0.000101218
0.000198225
0.000110225
-2.66288e-06
-0.0001962
-3.41419e-05
0.000204597
-0.000148278
-0.000168395
0.000317078
0.000243176
-0.000107831
-0.000228848
-4.39344e-05
-2.71242e-05
-7.15286e-06
-9.28158e-05
5.70688e-05
1.49448e-05
7.54352e-06
-2.17303e-05
6.15012e-05
-5.20316e-05
-6.81471e-06
-2.60737e-05
-2.58044e-05
-1.91677e-05
3.60065e-05
3.65782e-05
1.68354e-05
-3.78959e-06
2.99152e-05
3.04236e-05
3.00995e-05
4.82564e-05
4.50018e-05
2.34358e-05
-7.81771e-06
-8.11156e-13
-7.53677e-13
-6.55775e-13
-1.05753e-12
-2.25876e-13
-2.20923e-12
5.41837e-13
-2.55909e-12
1.58234e-13
-1.70781e-12
-5.61262e-13
-8.87739e-13
-1.24439e-12
-7.46274e-13
-1.10306e-12
-1.24588e-12
-1.84591e-12
1.6303e-12
-5.98254e-12
4.28806e-12
-9.50388e-12
3.81272e-12
2.80781e-11
-4.94862e-11
-3.85613e-12
3.538e-11
5.35054e-12
-7.16649e-11
-2.28896e-10
9.22999e-10
-1.04212e-10
-6.56289e-09
2.31853e-08
6.79098e-09
-3.01734e-07
1.82154e-06
-2.74819e-06
3.46346e-07
8.48625e-05
-7.72727e-05
-0.000292838
3.64773e-05
0.000425807
0.000147509
-0.000126846
-0.000226232
-0.000191524
-0.000166863
6.69184e-05
0.000309829
0.000201365
-0.000141997
-0.000149813
9.94706e-05
0.000169909
-0.000132429
-0.000452772
-0.000271982
0.000288606
0.000605838
0.000190026
-0.000247707
-0.000215603
1.19235e-05
-5.67591e-05
-0.00022094
-0.000213676
7.17105e-05
0.000394049
0.000569106
0.000257421
-0.000234499
-0.000660791
-0.000653084
-8.22561e-05
4.56487e-05
0.000722672
0.00116453
-9.19983e-05
-0.000908441
-0.000866832
-6.08705e-05
0.000335103
0.000383105
0.000151913
-9.80034e-05
-1.26995e-05
-0.000156208
-0.000175185
0.000180741
0.000236989
-0.00020445
-0.000239882
4.31507e-06
0.000155665
-7.16579e-05
5.10902e-06
-0.000116185
6.19078e-05
3.58831e-05
-1.30686e-05
3.73417e-05
5.17229e-05
-6.1879e-05
-2.92107e-05
-4.7931e-05
7.33086e-05
5.95706e-05
2.04192e-06
-6.27504e-05
-3.21921e-05
-2.11583e-05
2.57511e-05
1.36388e-05
2.62675e-05
2.99337e-05
4.49713e-05
3.59994e-05
1.29237e-05
-6.80054e-13
-7.40997e-13
-9.07124e-13
-4.07412e-13
-1.27369e-12
3.9328e-13
-1.93603e-12
4.7018e-13
-1.7572e-12
-1.96969e-13
-1.34429e-12
-7.83653e-13
-9.65635e-13
-1.04853e-12
-8.74536e-13
-1.03283e-12
-8.74988e-13
-1.69091e-12
2.35468e-13
-2.67457e-12
1.31431e-12
-3.29902e-12
-7.88359e-12
1.14548e-11
-2.84109e-12
-8.92742e-12
2.62673e-13
2.71362e-11
-5.96217e-11
-1.1702e-11
7.45256e-11
6.63294e-11
-6.61846e-10
9.12902e-10
-4.10628e-09
-1.45861e-07
-1.10141e-06
-6.49004e-06
-1.05307e-05
-1.12451e-05
1.32511e-05
-2.59973e-05
-4.51774e-05
6.2244e-06
4.79662e-05
8.76734e-05
-0.000110788
-1.6535e-05
0.00024856
-7.06778e-05
-0.000275487
-0.000149445
0.000128928
0.000322116
0.000241345
-0.000243643
-0.000516834
-0.000279122
0.00066857
0.000632742
-0.000502681
-0.000551493
0.000256617
0.000429381
-5.61324e-05
-0.000389317
-0.000213769
0.000141816
0.000308826
0.00021638
-6.48017e-05
-0.000250721
-0.000266181
-0.000170894
0.000142206
0.000123307
0.000151664
0.000554635
-0.000138091
-0.000511512
-0.000391348
-5.23173e-05
0.000222454
0.000300818
0.000141892
-0.000168033
-0.000219336
-7.13512e-05
0.000113553
0.000158793
-0.000126821
-0.00014198
9.91042e-05
0.000207501
6.08625e-05
-0.000141165
-5.26174e-05
-0.000108717
0.000234748
-0.000203103
3.86788e-05
0.000179825
-6.80607e-05
-0.000138043
6.54668e-05
7.00673e-05
-2.06132e-05
-0.000126534
-3.74993e-05
4.02918e-05
5.75237e-05
2.6035e-06
1.44214e-05
-6.64066e-06
9.75508e-06
-8.17898e-07
2.72441e-05
3.21856e-05
2.74016e-05
-5.82997e-13
-6.03115e-13
-6.62211e-13
-5.19919e-13
-7.62274e-13
-1.46371e-13
-1.12462e-12
-1.8252e-13
-9.19992e-13
-6.41233e-13
-6.84014e-13
-9.6679e-13
-1.01426e-12
-8.19265e-13
-1.279e-12
-1.23811e-12
-1.49347e-12
-1.30818e-12
-1.67474e-12
-2.13077e-12
-1.91898e-12
-3.95424e-12
-3.58515e-14
-5.71935e-12
-3.15692e-12
-7.87036e-13
-3.91731e-12
-1.07422e-11
-1.4208e-12
6.08903e-12
-3.71696e-11
-2.23987e-11
3.3755e-10
-9.92696e-10
6.30492e-09
-1.30376e-07
-1.16429e-06
-6.75802e-06
5.18027e-06
-0.000108176
1.56436e-05
0.000284378
3.01912e-05
-0.000273802
-0.000172183
-1.98084e-05
-0.000116179
0.000256771
0.000633677
2.27853e-05
-0.000650096
-0.000373815
0.000228109
0.000243931
6.79542e-06
-0.000167982
2.08246e-05
0.000401892
0.000566273
-0.000307167
-0.00151637
-0.000866977
0.00142586
0.00152023
-0.000132574
-0.000950367
-0.000430375
7.80284e-05
0.000177958
-1.19095e-05
-9.7703e-05
0.000103648
0.000275853
0.000186573
-3.20467e-05
-0.000349756
-0.000523957
2.14555e-05
0.000529589
0.000208271
-0.000226671
-0.000279067
-6.22795e-05
0.000111404
5.27137e-05
6.94368e-05
5.55501e-05
-0.000201765
-8.37196e-05
6.2655e-05
8.03045e-05
0.000103722
0.000142539
1.85147e-05
-0.000173061
-0.000175209
-2.2865e-05
0.000109364
7.96797e-05
-8.4049e-05
0.000422709
-0.000236378
-0.000210239
0.000194505
0.000104557
-0.000123653
-8.80287e-05
2.35957e-05
0.00010545
1.55481e-05
-3.97803e-05
-2.99423e-05
5.1234e-08
-1.8108e-05
-8.11067e-06
-2.57657e-05
-1.86612e-06
9.1853e-06
2.51151e-05
-1.56622e-12
-1.57263e-12
-1.63884e-12
-1.77431e-12
-1.5027e-12
-2.06211e-12
-1.81647e-12
-2.2494e-12
-2.3663e-12
-2.29323e-12
-2.9855e-12
-2.84724e-12
-3.78028e-12
-3.5145e-12
-4.47704e-12
-4.2988e-12
-4.96137e-12
-4.65895e-12
-5.35604e-12
-5.1144e-12
-6.46714e-12
-5.51218e-12
-8.03468e-12
-6.66036e-12
-7.65128e-12
-8.83026e-12
-8.39371e-12
-9.12229e-12
-1.14416e-11
-1.13579e-11
1.36132e-11
-1.38494e-10
5.59601e-10
-1.95952e-09
1.01794e-08
-5.35175e-08
-7.6125e-07
-5.48879e-06
-5.11103e-06
-2.88174e-06
-3.5467e-05
6.30743e-06
3.89454e-05
7.1811e-05
7.62299e-05
-5.26805e-05
-0.00035801
-0.00011608
0.000444864
0.000261335
-0.00037146
-0.000290252
0.000241024
0.000386671
-2.42501e-05
-0.000388269
-0.000362473
0.00023933
0.00044719
2.21163e-05
-0.000322261
-8.68838e-05
0.000162376
0.000105583
-0.00013937
-0.000149858
-3.62439e-05
0.000127287
0.000171929
5.82675e-05
-9.2025e-05
-0.000140684
-6.04071e-05
-1.30348e-05
5.65419e-05
8.07476e-05
-0.000212429
-3.89731e-05
0.000316189
4.25456e-05
-0.000238783
-0.000240615
-4.17658e-05
5.48075e-05
0.000300423
0.00018302
-0.000439172
-0.000386153
0.000231133
0.000402261
8.76431e-05
-5.93914e-05
-9.53886e-05
-9.34721e-05
-0.000154241
-6.30057e-06
0.000150229
0.000152979
-4.30281e-05
-8.41233e-05
-0.000210329
-0.000344391
0.000338865
0.00025632
9.42305e-06
-0.000115963
-3.55653e-05
9.95705e-05
5.13284e-05
-0.000100825
-6.75482e-05
3.24541e-06
5.10106e-06
-1.73708e-05
-1.34819e-05
-2.55278e-05
-2.07321e-05
-5.53486e-06
1.47443e-05
-6.79996e-12
-7.00783e-12
-7.30225e-12
-6.89019e-12
-7.78042e-12
-6.53384e-12
-8.85809e-12
-6.87055e-12
-9.25267e-12
-8.07277e-12
-9.8685e-12
-8.92179e-12
-1.12515e-11
-8.7941e-12
-1.19008e-11
-1.08288e-11
-1.28592e-11
-1.20361e-11
-1.36867e-11
-1.42786e-11
-1.57576e-11
-1.52706e-11
-1.66967e-11
-1.61198e-11
-1.80533e-11
-1.74418e-11
-2.06768e-11
-1.74041e-11
-2.55891e-11
-1.80168e-11
-1.45277e-11
-3.73947e-11
-2.90872e-11
-4.86396e-10
-3.27888e-09
-3.88428e-08
-4.0945e-07
-3.93724e-06
-4.95735e-06
-2.98907e-06
1.25618e-05
-7.727e-06
-5.66637e-05
-4.14138e-05
7.83979e-05
0.000176015
4.40142e-05
-0.000372559
-0.000175057
0.000516739
0.000243172
-0.000575057
-0.000408674
0.00028385
0.000557884
0.000166696
-0.000310043
-0.000384534
-4.85744e-05
0.000163803
4.62864e-05
-2.72442e-05
8.13738e-05
0.000203072
3.03978e-05
-0.000188964
-0.000237577
-0.000100352
7.96038e-05
0.000185559
0.00013217
3.38336e-06
-8.24432e-05
-0.000124043
-6.95674e-05
2.29054e-05
-2.38977e-05
1.10737e-05
0.000134833
-6.75346e-06
-0.000154485
-0.000137791
-5.04191e-05
0.000145494
0.0002391
-0.000293489
-0.000384714
0.000119061
0.000473068
0.000184285
-0.000170238
-0.000258303
-0.000123314
-3.06035e-05
-3.78162e-05
0.000125076
2.75795e-05
-7.22374e-05
-0.000184349
5.30578e-05
0.000301664
0.000317669
0.000191323
0.000146855
-0.000154179
-0.000317703
8.24598e-05
0.000146319
-0.000105071
-0.000115066
5.7065e-05
8.24433e-05
2.20651e-05
-1.45009e-05
-1.98289e-05
-1.99285e-05
-2.35279e-05
-7.865e-06
3.32613e-06
-1.53634e-11
-1.5404e-11
-1.55462e-11
-1.58063e-11
-1.66765e-11
-1.52886e-11
-1.86489e-11
-1.54013e-11
-2.05318e-11
-1.58342e-11
-2.1873e-11
-1.68031e-11
-2.51358e-11
-1.75761e-11
-2.50159e-11
-2.17827e-11
-2.5104e-11
-2.4292e-11
-2.60835e-11
-2.63759e-11
-2.81034e-11
-2.67281e-11
-2.95011e-11
-2.87836e-11
-3.03134e-11
-3.19409e-11
-3.05893e-11
-3.16373e-11
-2.96708e-11
-3.56792e-11
-2.5754e-11
-6.50082e-11
1.90302e-10
-1.14563e-09
6.43736e-09
-1.77314e-08
-4.10704e-07
-2.80354e-06
-3.79073e-06
-4.19572e-06
-1.53213e-05
2.00375e-05
5.08098e-05
-7.04628e-05
-0.000105857
6.18645e-06
0.000164353
0.000124657
-0.000163449
-0.0003555
0.000313271
0.000543942
-0.000291919
-0.000580778
-0.000140215
0.000229426
0.000298662
0.000137116
-0.000105495
-0.000138753
3.54849e-05
5.23833e-05
-9.1135e-05
-0.000168805
-4.68079e-05
0.00012352
0.00016362
8.4947e-05
-4.0018e-05
-0.000116947
-0.000123046
-5.69793e-05
1.617e-05
5.05202e-05
5.90446e-05
3.34444e-05
-1.77139e-05
-3.20483e-05
7.65004e-06
-3.48699e-05
-9.47431e-05
-7.20948e-05
-1.12644e-06
0.000117452
-1.94721e-05
-0.000246293
-5.40177e-05
0.000278038
0.000304711
-0.000120532
-0.000366496
-0.000145925
4.16612e-05
0.000107822
0.000241827
9.16047e-05
-8.99808e-05
0.000161083
0.000223678
0.000188323
-6.12413e-05
-0.000369701
5.38032e-05
-6.32302e-05
-0.000637766
0.000128852
0.000507192
-9.63066e-05
-0.000250184
6.38386e-05
0.00015367
3.22965e-05
-3.17767e-05
-3.03088e-05
-2.12694e-05
-6.01018e-06
-1.30943e-05
-1.57445e-06
-2.41759e-06
-2.99822e-11
-3.05559e-11
-3.04237e-11
-3.13617e-11
-3.19887e-11
-2.98965e-11
-3.41676e-11
-3.04703e-11
-3.83386e-11
-2.93525e-11
-4.17654e-11
-2.72598e-11
-4.53847e-11
-2.90947e-11
-4.37032e-11
-3.54758e-11
-4.2282e-11
-3.90132e-11
-4.12274e-11
-4.22891e-11
-4.24381e-11
-4.05061e-11
-4.47392e-11
-3.90247e-11
-4.85835e-11
-4.29533e-11
-4.19481e-11
-5.01912e-11
-3.57943e-11
-4.56507e-11
-5.20967e-11
-5.04547e-11
-4.56945e-11
1.09561e-10
-5.86348e-11
-2.3024e-08
-4.24477e-07
-2.27036e-06
-3.89647e-06
-3.25719e-06
-2.09327e-06
-4.98529e-06
-1.28412e-05
4.744e-06
4.30143e-05
3.06486e-06
-9.97183e-05
-4.56905e-05
0.000132001
0.00011475
-0.00011314
-0.000218411
-0.000101265
0.000272917
0.000303386
-9.83355e-05
-0.000285749
-0.00014158
6.71885e-05
0.000153259
7.3505e-05
-0.000100231
-0.000122339
-7.37133e-07
9.8676e-05
6.56329e-05
-3.4907e-05
-8.54329e-05
-5.90298e-05
1.02081e-05
5.70646e-05
5.04555e-05
1.41856e-06
-4.11675e-05
-4.33977e-05
-2.34989e-05
-1.21847e-05
-1.00502e-05
1.9853e-06
-2.02688e-05
-5.92433e-05
-5.07737e-05
-2.76654e-06
4.84477e-05
-4.47036e-05
-0.000134071
2.62967e-05
0.000197208
8.20633e-05
-0.00017495
-0.000164625
4.18723e-05
0.000221667
0.000135742
-0.000131288
-0.000271654
-1.53053e-05
3.75208e-05
-0.000236086
-0.000357842
-0.000246509
-9.33552e-05
0.000308515
-0.000540435
-5.96221e-06
0.000751281
-0.000186744
-0.000525226
5.36018e-05
0.000292562
7.95875e-05
-7.60556e-05
-6.6467e-05
-2.68126e-05
-1.59394e-05
2.08126e-06
-2.71292e-06
4.49479e-06
-2.56613e-06
-5.04522e-11
-5.04212e-11
-4.92718e-11
-5.22421e-11
-5.11964e-11
-5.37292e-11
-5.14362e-11
-5.3504e-11
-5.43646e-11
-5.26123e-11
-5.81462e-11
-4.78938e-11
-6.2249e-11
-4.48572e-11
-6.31078e-11
-4.51806e-11
-6.08298e-11
-4.9659e-11
-5.62418e-11
-5.34357e-11
-5.25736e-11
-5.41474e-11
-4.81182e-11
-5.05906e-11
-5.46115e-11
-5.23769e-11
-4.30381e-11
-5.0161e-11
-4.91248e-11
-4.00951e-11
-4.48962e-11
-6.26244e-11
-1.73716e-11
-1.44801e-10
-8.57317e-10
-9.86912e-09
-1.29144e-07
-2.51345e-07
-3.14048e-06
-2.02205e-06
-3.52173e-06
-5.14513e-06
-5.57454e-07
2.31995e-06
-1.39852e-06
1.7504e-06
1.32424e-05
9.17385e-06
-2.39073e-05
-3.97194e-05
-9.45502e-06
2.70062e-05
2.02034e-05
-2.94853e-05
-5.61223e-05
-2.69062e-05
6.29203e-05
8.06782e-05
1.44118e-05
-4.54162e-05
-6.6456e-05
-4.12424e-05
1.72649e-05
2.27643e-05
-2.48867e-05
-5.02614e-05
-3.06111e-05
1.35422e-05
4.36543e-05
4.24461e-05
1.36111e-05
-2.97316e-05
-5.05438e-05
-3.30587e-05
-9.42001e-06
4.72781e-06
1.82928e-06
-1.62076e-05
-1.01255e-05
-1.54299e-05
-4.32027e-05
-2.35125e-05
-1.03515e-06
2.33929e-06
-4.45371e-05
-8.55474e-05
0.000173371
0.000265155
-0.000134869
-0.0006008
-0.000449072
4.35998e-05
7.84242e-05
-0.000157376
-0.000153536
0.000156578
8.28169e-05
5.14743e-07
-4.83892e-05
0.000173788
0.000269418
0.000218309
0.000235353
-0.000357047
0.000867257
8.06287e-05
-0.00066694
0.00015559
0.000512269
7.67278e-05
-0.000236064
-0.000196274
-5.36413e-05
1.57395e-05
2.74866e-06
7.14794e-06
5.6562e-06
8.6206e-06
-2.74396e-07
-7.69538e-11
-7.76131e-11
-7.65078e-11
-8.04951e-11
-7.52765e-11
-8.12602e-11
-6.98871e-11
-8.60355e-11
-6.21547e-11
-9.04198e-11
-5.06424e-11
-9.24488e-11
-4.94558e-11
-8.24956e-11
-5.8447e-11
-5.99768e-11
-7.12374e-11
-4.31205e-11
-7.4228e-11
-4.39612e-11
-6.01694e-11
-4.74034e-11
-4.88914e-11
-4.18569e-11
-4.76422e-11
-4.8072e-11
-2.36158e-11
-4.73051e-11
-4.47933e-11
9.91902e-12
-5.21278e-11
-1.17152e-10
1.42959e-10
-5.58221e-10
8.94696e-10
7.25258e-09
-2.49809e-07
5.4567e-07
-1.5e-06
5.77124e-07
-5.70454e-06
-1.06464e-05
-3.22501e-06
5.07446e-06
1.13116e-05
1.36309e-05
9.42488e-06
-5.15222e-07
-4.66638e-06
-1.00214e-05
-2.47509e-05
-3.98387e-05
-2.79884e-05
-7.66968e-06
2.02209e-05
3.20563e-05
2.51907e-05
1.32819e-05
6.08283e-06
-1.02912e-06
-1.17597e-05
-2.37211e-05
-4.14817e-05
-4.8286e-05
-3.6406e-05
-1.16029e-05
1.11569e-05
2.33478e-05
2.62131e-05
1.49029e-05
5.93666e-06
-9.72752e-06
-1.83352e-05
-1.9445e-05
-1.99388e-05
-1.3659e-05
-1.80945e-05
-1.90309e-05
-1.64957e-05
-1.19991e-05
-1.9769e-05
-2.57097e-05
9.54846e-06
3.9357e-05
-3.31036e-05
-0.000235684
-0.000173509
-2.55157e-05
9.30362e-05
0.000254739
0.000583048
0.000414652
0.000259942
0.000406339
0.000457635
6.1254e-05
-0.000156752
4.37996e-05
0.000141764
0.000291367
9.31651e-05
0.000262936
-1.16634e-05
4.33169e-05
0.000463352
-0.000413494
0.000123535
0.000476402
-2.37813e-05
-0.000424395
-0.000302944
-5.3126e-06
0.000123327
7.41849e-05
3.42422e-06
5.66847e-06
1.26968e-05
1.13498e-05
2.58807e-06
-9.18744e-11
-9.18231e-11
-9.05453e-11
-9.37316e-11
-8.5669e-11
-9.73601e-11
-7.96078e-11
-1.0158e-10
-6.43157e-11
-1.12627e-10
-3.47643e-11
-1.31018e-10
-1.11458e-11
-1.30929e-10
-1.7787e-11
-8.60119e-11
-5.75691e-11
-3.18044e-11
-8.622e-11
-1.78421e-11
-6.82562e-11
-2.71134e-11
-4.34463e-11
-2.56193e-11
-4.68871e-11
-4.70695e-11
4.60443e-11
-8.78085e-11
-5.16974e-11
1.58443e-10
-7.34001e-11
-2.25287e-10
5.99041e-10
-1.53838e-09
2.92812e-09
1.01905e-07
-6.26507e-07
5.62393e-06
2.59202e-06
1.41214e-06
-1.25128e-05
-1.86087e-05
-4.0893e-06
8.9542e-06
2.35135e-05
2.7112e-05
2.5241e-05
1.24111e-05
-9.85324e-07
-2.30925e-05
-4.41796e-05
-4.11489e-05
-3.66526e-05
-1.19112e-05
1.07227e-05
3.31818e-05
4.67396e-05
4.25141e-05
2.71948e-05
8.76453e-07
-2.6141e-05
-4.61694e-05
-5.86809e-05
-5.28422e-05
-4.04951e-05
-1.6618e-05
5.61371e-06
2.54041e-05
3.5036e-05
3.31409e-05
1.95836e-05
7.32988e-08
-2.25195e-05
-3.17591e-05
-3.84661e-05
-2.7377e-05
-2.39004e-05
-1.41514e-05
1.56331e-05
-3.94881e-05
6.00447e-05
3.55589e-05
-0.000182114
-2.27039e-05
0.000277294
0.000639654
0.000443149
7.32634e-05
-0.00012026
-0.00017107
-0.000397903
-0.00044147
-8.85305e-05
-3.15467e-07
-0.000425922
-0.000361427
-2.32002e-05
0.000182465
2.30967e-05
-0.000123972
-0.000381392
-3.11139e-05
-0.000252098
0.0004217
0.000282062
-3.27961e-05
0.000137191
-0.000258435
-0.000454884
-0.000207154
0.000212275
0.000334391
0.000165069
8.3778e-06
-2.62295e-05
2.6451e-06
1.40928e-05
1.07695e-05
4.44907e-06
-9.35243e-11
-9.40504e-11
-9.43138e-11
-9.67369e-11
-8.73451e-11
-1.00026e-10
-7.96616e-11
-1.00518e-10
-6.64138e-11
-1.00946e-10
-4.18634e-11
-1.22211e-10
2.11398e-13
-1.43994e-10
2.16398e-11
-1.23212e-10
-1.5371e-11
-5.69767e-11
-5.85013e-11
-2.37498e-11
-5.96629e-11
-2.86056e-11
-4.35424e-11
-9.98533e-13
-7.2375e-11
-2.08796e-11
6.29819e-11
-8.09911e-11
-2.30554e-10
6.16755e-10
-5.25939e-10
-1.0092e-09
2.33774e-09
-2.09201e-09
-3.66789e-09
4.70234e-07
-4.21817e-06
1.40728e-05
1.09993e-05
4.70014e-06
-1.90556e-05
-2.90257e-05
-9.41092e-06
1.04935e-05
3.01179e-05
4.12054e-05
4.32467e-05
2.86177e-05
6.22865e-06
-2.16067e-05
-4.57387e-05
-5.95598e-05
-4.89528e-05
-2.71393e-05
9.62272e-06
4.15986e-05
5.64893e-05
5.61953e-05
2.57835e-05
-1.94072e-06
-3.79397e-05
-6.2573e-05
-7.08684e-05
-6.70741e-05
-4.805e-05
-2.24749e-05
8.51682e-06
3.44431e-05
4.57783e-05
4.36085e-05
2.16856e-05
-3.00082e-06
-2.72142e-05
-4.09043e-05
-4.00652e-05
-3.26778e-05
-3.03948e-06
-4.4392e-06
1.45411e-05
0.00013175
-0.000150277
0.000130596
0.000668549
-0.000226765
-0.00115706
-0.00138685
-0.000756661
-0.000328318
-0.000370186
-0.000600144
-0.000193419
0.000254106
5.36475e-05
-0.000711776
-0.000481034
0.000112021
0.000355117
8.64024e-05
-0.000199527
-0.000267726
-0.000183275
2.05974e-05
-0.000160816
-7.64034e-05
-0.000565401
-0.000810022
-0.000786984
-0.000404081
9.14046e-05
0.000405852
0.000400524
9.40149e-05
-0.000128431
-0.000126185
-4.09998e-05
1.60482e-06
1.2794e-05
9.93183e-06
5.36555e-06
-7.38924e-11
-7.53392e-11
-7.90354e-11
-7.44622e-11
-6.82564e-11
-8.12176e-11
-5.11918e-11
-9.21319e-11
-3.16538e-11
-9.95793e-11
-6.23533e-12
-1.26905e-10
3.34424e-11
-1.53004e-10
7.2598e-11
-1.70214e-10
5.19364e-11
-1.17719e-10
-4.10983e-12
-5.16977e-11
-5.21863e-11
-2.11446e-11
-7.64529e-11
1.09185e-11
-9.18705e-11
-4.6433e-11
3.20761e-11
9.21443e-11
-6.36556e-10
4.63465e-10
7.67261e-10
-5.36467e-10
1.26349e-09
3.81765e-09
-5.2814e-08
1.92053e-06
-1.98611e-05
4.14449e-05
2.93743e-05
4.01779e-06
-4.27754e-05
-5.51094e-05
-2.13889e-05
1.44231e-05
4.476e-05
6.51949e-05
7.13744e-05
5.37037e-05
1.96016e-05
-2.28543e-05
-6.03318e-05
-7.79159e-05
-6.3351e-05
-3.20608e-05
1.04078e-05
4.43333e-05
6.05314e-05
5.4476e-05
2.35248e-05
-1.19939e-05
-5.0255e-05
-7.57898e-05
-8.29175e-05
-6.85077e-05
-4.26212e-05
-1.46026e-05
1.22077e-05
2.71928e-05
3.48256e-05
2.76238e-05
9.6415e-06
-1.22663e-05
-3.68132e-05
-4.06616e-05
-4.1607e-05
-8.13419e-06
-1.4287e-05
6.05216e-05