/*--------------------------------*- C++ -*----------------------------------*\
| =========                 |                                                 |
| \\      /  F ield         | OpenFOAM: The Open Source CFD Toolbox           |
|  \\    /   O peration     | Version:  2.2.x                                 |
|   \\  /    A nd           | Web:      www.OpenFOAM.org                      |
|    \\/     M anipulation  |                                                 |
\*---------------------------------------------------------------------------*/
FoamFile
{
    version     2.0;
    format      ascii;
    class       volScalarField;
    location    "0.3";
    object      p;
}
// * * * * * * * * * * * * * * * * * * * * * * * * * * * * * * * * * * * * * //

dimensions      [1 -1 -2 0 0 0 0];

internalField   nonuniform List<scalar> 
14161
(
0.199958
0.199964
0.199953
0.199941
0.199924
0.199901
0.19987
0.199832
0.199784
0.199726
0.199654
0.199569
0.199467
0.199348
0.199211
0.199055
0.198876
0.198681
0.198455
0.198225
0.197959
0.19768
0.197396
0.197071
0.196766
0.196425
0.196077
0.195752
0.195381
0.195023
0.194677
0.194327
0.194009
0.19366
0.19331
0.192978
0.192666
0.192424
0.192132
0.191807
0.191572
0.191362
0.191171
0.191056
0.190893
0.190659
0.190362
0.190147
0.189966
0.189821
0.189744
0.189742
0.189703
0.189625
0.18945
0.189366
0.189286
0.189213
0.189216
0.189423
0.189852
0.190357
0.190958
0.191574
0.19269
0.195513
0.200565
0.210172
0.206875
1.01983
1.78998
1.96877
1.78463
1.61184
1.47029
1.37958
1.30412
1.26768
1.25043
1.2821
1.3613
1.47421
1.58064
1.69894
1.75084
1.81928
1.86654
1.90686
1.93353
1.94696
1.95197
1.95505
1.97126
1.99206
2.00937
2.02475
2.03796
2.04772
2.05691
2.0647
2.07024
2.07342
2.07777
2.08369
2.0888
2.09554
2.10138
2.11008
2.11808
2.12341
2.12896
2.12844
2.1318
2.13197
2.13752
2.13993
2.14545
2.14771
2.15045
0.199958
0.199964
0.199953
0.199941
0.199923
0.199901
0.19987
0.199832
0.199784
0.199725
0.199653
0.199568
0.199466
0.199348
0.19921
0.199054
0.198877
0.198676
0.198463
0.198214
0.197964
0.197684
0.197378
0.19709
0.196753
0.196418
0.19609
0.19573
0.195386
0.195026
0.194666
0.194326
0.193995
0.193676
0.193311
0.192973
0.192656
0.192385
0.192127
0.191824
0.191559
0.191346
0.191165
0.191044
0.190907
0.190699
0.190377
0.190125
0.189935
0.189811
0.189765
0.189762
0.189699
0.189573
0.189358
0.189259
0.189232
0.189236
0.189321
0.189528
0.18958
0.189472
0.189177
0.189122
0.189487
0.190944
0.192719
0.193121
0.196818
0.64936
1.65005
1.72402
1.62508
1.54835
1.44046
1.37054
1.31068
1.27651
1.26091
1.28753
1.32776
1.40701
1.48246
1.57222
1.64804
1.72083
1.79617
1.85308
1.89632
1.92522
1.94153
1.95511
1.9752
2.00039
2.02013
2.0354
2.04839
2.05911
2.06966
2.07752
2.08301
2.08566
2.08911
2.09424
2.09866
2.10434
2.10822
2.11597
2.12262
2.12726
2.13143
2.13022
2.1324
2.13241
2.13716
2.13961
2.14472
2.14789
2.15098
0.199958
0.199964
0.199953
0.199941
0.199923
0.199901
0.19987
0.199832
0.199784
0.199725
0.199653
0.199568
0.199466
0.199348
0.19921
0.199054
0.198877
0.198677
0.198461
0.198218
0.197962
0.197687
0.197382
0.19709
0.196754
0.196423
0.196089
0.195732
0.195395
0.195027
0.194667
0.194323
0.193986
0.19367
0.193323
0.192979
0.192659
0.19237
0.192099
0.191815
0.191545
0.191323
0.191138
0.190985
0.190879
0.190702
0.190419
0.190142
0.189896
0.18971
0.189639
0.189626
0.18957
0.189479
0.189283
0.189144
0.189047
0.189015
0.189184
0.189661
0.190103
0.190369
0.190473
0.190665
0.190479
0.190899
0.192677
0.192837
0.186547
0.247942
1.43476
1.54765
1.4467
1.3795
1.29418
1.23098
1.17873
1.15507
1.15023
1.19968
1.23357
1.32276
1.37412
1.44516
1.5164
1.58835
1.68055
1.75339
1.81628
1.86487
1.90111
1.92799
1.95641
1.98861
2.01493
2.03336
2.04665
2.06019
2.07389
2.08315
2.09037
2.09314
2.09675
2.10141
2.1065
2.11194
2.11647
2.12258
2.1269
2.12987
2.13265
2.13077
2.1326
2.13231
2.13641
2.13894
2.143
2.14723
2.1509
0.199958
0.199964
0.199953
0.199941
0.199923
0.199901
0.19987
0.199832
0.199784
0.199725
0.199653
0.199568
0.199466
0.199347
0.199209
0.199054
0.198875
0.19868
0.198456
0.198223
0.197961
0.197681
0.197395
0.197069
0.196767
0.196424
0.196074
0.195736
0.195381
0.195032
0.194671
0.194309
0.193974
0.193662
0.193341
0.192976
0.192646
0.192352
0.192092
0.191843
0.191573
0.191322
0.19111
0.190924
0.190752
0.190632
0.190444
0.190212
0.189934
0.189715
0.189584
0.189504
0.189443
0.189413
0.189396
0.189377
0.189373
0.189381
0.189391
0.189348
0.189262
0.188875
0.188091
0.187134
0.186108
0.184449
0.181823
0.179248
0.187982
0.326789
1.34503
1.45641
1.45788
1.33021
1.28398
1.19584
1.16001
1.13044
1.12532
1.16699
1.19294
1.27675
1.32779
1.39464
1.47542
1.55564
1.64724
1.72397
1.79022
1.84232
1.87655
1.91108
1.94432
1.97291
2.00181
2.0224
2.04005
2.05589
2.07188
2.08391
2.09315
2.09764
2.10084
2.10523
2.11042
2.11628
2.12133
2.12696
2.13096
2.13336
2.13626
2.13378
2.1341
2.13332
2.13647
2.13878
2.14211
2.14655
2.15068
0.199958
0.199964
0.199953
0.199941
0.199923
0.199901
0.19987
0.199832
0.199784
0.199725
0.199653
0.199568
0.199465
0.199347
0.199209
0.199053
0.198875
0.198678
0.198459
0.198221
0.197963
0.197682
0.197391
0.197074
0.196766
0.196424
0.196074
0.195723
0.195384
0.195027
0.194656
0.194308
0.193985
0.193672
0.193321
0.192968
0.19264
0.192333
0.192064
0.19182
0.191562
0.191289
0.191066
0.190871
0.190702
0.190542
0.190404
0.190194
0.189941
0.189668
0.18947
0.189317
0.189205
0.189128
0.189089
0.189009
0.188879
0.188694
0.188574
0.18851
0.188569
0.188624
0.188614
0.188681
0.18887
0.18961
0.189776
0.188777
0.19389
0.519898
1.31076
1.43148
1.45786
1.36558
1.31013
1.20893
1.16641
1.14952
1.13633
1.19309
1.22068
1.30977
1.3872
1.45964
1.54696
1.61752
1.69178
1.75583
1.8078
1.84916
1.8775
1.91259
1.94055
1.96778
1.99369
2.01393
2.02916
2.04332
2.06105
2.07478
2.0862
2.09304
2.09835
2.10477
2.11303
2.12011
2.12686
2.13251
2.13742
2.13877
2.13963
2.13615
2.13468
2.13292
2.13412
2.1364
2.13931
2.14388
2.14885
0.199958
0.199964
0.199953
0.199941
0.199923
0.199901
0.19987
0.199832
0.199784
0.199725
0.199653
0.199567
0.199465
0.199347
0.199209
0.199053
0.198876
0.198678
0.19846
0.198221
0.197959
0.197692
0.197384
0.197085
0.196753
0.196434
0.196079
0.195724
0.19537
0.195019
0.194676
0.194301
0.193946
0.193617
0.193301
0.192996
0.192653
0.192308
0.192017
0.191767
0.191548
0.191329
0.191082
0.19085
0.190646
0.190457
0.190272
0.190094
0.189843
0.189551
0.189303
0.189136
0.189036
0.189027
0.189132
0.189281
0.189321
0.189272
0.189239
0.189079
0.188809
0.188415
0.187804
0.18703
0.185666
0.184386
0.181493
0.180798
0.201389
0.680875
1.22634
1.40879
1.4944
1.42765
1.33555
1.26062
1.21112
1.20573
1.19865
1.30055
1.35968
1.44966
1.51721
1.58352
1.66337
1.71858
1.7705
1.81273
1.84746
1.8737
1.89296
1.91902
1.94183
1.96358
1.98552
2.00286
2.01878
2.03536
2.05242
2.06821
2.08189
2.08995
2.09631
2.10289
2.11148
2.11731
2.12379
2.12791
2.13225
2.13389
2.13568
2.13353
2.13274
2.13092
2.13205
2.13458
2.13675
2.14138
2.14751
0.199958
0.199964
0.199953
0.199941
0.199923
0.1999
0.19987
0.199832
0.199783
0.199725
0.199653
0.199567
0.199465
0.199347
0.199209
0.199052
0.198875
0.198678
0.198459
0.19822
0.197962
0.197684
0.197391
0.197081
0.196758
0.19642
0.196079
0.195729
0.195372
0.195007
0.194652
0.194305
0.193946
0.193606
0.193277
0.192982
0.192662
0.192304
0.191989
0.191707
0.191467
0.191256
0.191055
0.190837
0.190597
0.190377
0.190166
0.189959
0.18974
0.18951
0.18927
0.189081
0.188918
0.188751
0.188608
0.188519
0.18841
0.188281
0.188133
0.187917
0.187644
0.187495
0.187228
0.187433
0.187611
0.18833
0.189018
0.188882
0.21115
0.866056
1.15687
1.30819
1.40653
1.42665
1.31783
1.31311
1.24295
1.3279
1.36793
1.47713
1.55056
1.60793
1.64624
1.68664
1.72877
1.76761
1.80556
1.84313
1.87957
1.89725
1.91442
1.93571
1.95482
1.97133
1.99151
2.00809
2.02321
2.03897
2.05308
2.06693
2.07844
2.08653
2.09369
2.10133
2.11072
2.11666
2.12395
2.12701
2.13138
2.13321
2.13478
2.13305
2.1317
2.12964
2.12964
2.13177
2.13235
2.13684
2.14439
0.199958
0.199964
0.199953
0.199941
0.199923
0.1999
0.19987
0.199832
0.199783
0.199725
0.199653
0.199567
0.199465
0.199346
0.199208
0.199052
0.198874
0.198677
0.198459
0.198219
0.197964
0.19768
0.197393
0.197079
0.196757
0.196414
0.196077
0.195722
0.195365
0.195003
0.194641
0.194303
0.193945
0.193579
0.19324
0.192924
0.192629
0.192318
0.19198
0.191691
0.19144
0.191208
0.190988
0.190776
0.190559
0.19031
0.190071
0.189836
0.189595
0.18934
0.189074
0.188863
0.188675
0.188519
0.188411
0.188444
0.188512
0.188573
0.188545
0.188485
0.188432
0.188312
0.188139
0.187741
0.187159
0.186033
0.184836
0.186951
0.239447
1.02774
1.14402
1.22306
1.3256
1.42933
1.41105
1.44269
1.40714
1.51634
1.59568
1.64834
1.677
1.70143
1.71428
1.74417
1.76688
1.80009
1.82789
1.85879
1.88977
1.90992
1.92857
1.94495
1.96166
1.97751
1.99588
2.01113
2.02561
2.03953
2.05191
2.06274
2.07109
2.07814
2.08602
2.09389
2.10392
2.11069
2.11965
2.12363
2.12957
2.13207
2.13388
2.13188
2.13027
2.12781
2.12695
2.12911
2.12826
2.1327
2.14167
0.199958
0.199964
0.199953
0.199941
0.199923
0.1999
0.19987
0.199832
0.199783
0.199725
0.199652
0.199567
0.199465
0.199346
0.199208
0.199052
0.198874
0.198677
0.198458
0.19822
0.19796
0.197684
0.197388
0.197079
0.196753
0.196417
0.196071
0.195718
0.19536
0.194995
0.194626
0.19428
0.193932
0.19357
0.193234
0.192899
0.192578
0.192284
0.191957
0.191653
0.191406
0.191158
0.190897
0.190638
0.190401
0.190164
0.189921
0.189709
0.189521
0.189354
0.189119
0.188788
0.188494
0.188237
0.187991
0.187818
0.187656
0.187493
0.187198
0.186863
0.186366
0.185646
0.185171
0.184836
0.185193
0.185365
0.187577
0.196856
0.311471
1.08027
1.14166
1.18174
1.26159
1.43262
1.52205
1.58802
1.63397
1.66619
1.68694
1.69829
1.71153
1.73149
1.74251
1.75733
1.77307
1.80128
1.83444
1.86916
1.89368
1.91448
1.93275
1.94812
1.96244
1.97522
1.99076
2.00711
2.02367
2.03898
2.05134
2.06083
2.06759
2.0737
2.08129
2.08892
2.0989
2.10519
2.11527
2.11947
2.12661
2.13013
2.13212
2.13018
2.1281
2.12502
2.12436
2.12602
2.12425
2.12839
2.13819
0.199958
0.199964
0.199953
0.199941
0.199923
0.1999
0.19987
0.199832
0.199783
0.199725
0.199652
0.199567
0.199464
0.199346
0.199208
0.199052
0.198874
0.198677
0.198457
0.19822
0.197959
0.197684
0.197387
0.197077
0.196751
0.196413
0.196061
0.195719
0.195355
0.194985
0.194617
0.194263
0.193926
0.193567
0.193196
0.192854
0.19252
0.192213
0.191918
0.191616
0.19131
0.191036
0.190792
0.190571
0.190364
0.19013
0.189865
0.189619
0.189359
0.189178
0.188886
0.188525
0.188124
0.187855
0.187691
0.187562
0.187452
0.187232
0.186941
0.186802
0.187093
0.187351
0.187583
0.187193
0.186393
0.182937
0.181692
0.194246
0.515296
1.08793
1.14501
1.17912
1.27467
1.47712
1.64171
1.71172
1.71808
1.71903
1.7259
1.72677
1.72644
1.73846
1.74867
1.76538
1.77412
1.79517
1.82666
1.8598
1.88704
1.90725
1.92818
1.94766
1.96456
1.97951
1.99509
2.00973
2.02357
2.03636
2.04834
2.0574
2.06464
2.07104
2.07861
2.08577
2.09497
2.10035
2.11077
2.11457
2.12286
2.12695
2.12928
2.12752
2.12508
2.12212
2.12055
2.12249
2.12018
2.12333
2.13391
0.199958
0.199964
0.199953
0.199941
0.199923
0.1999
0.19987
0.199832
0.199783
0.199724
0.199652
0.199567
0.199464
0.199346
0.199207
0.199051
0.198873
0.198676
0.198456
0.198218
0.197958
0.19768
0.197385
0.197073
0.196748
0.196409
0.196061
0.195706
0.195344
0.194978
0.19461
0.194246
0.193884
0.193528
0.193175
0.192844
0.192529
0.192195
0.191838
0.191518
0.191213
0.190942
0.190696
0.190511
0.190289
0.190018
0.189711
0.189437
0.18918
0.188955
0.188703
0.188339
0.1879
0.187533
0.187256
0.187069
0.187015
0.18676
0.186337
0.185694
0.184942
0.184025
0.183613
0.183074
0.183457
0.183385
0.185869
0.206561
0.786293
1.09602
1.14745
1.1911
1.32816
1.57745
1.73915
1.7531
1.75703
1.7444
1.73831
1.73662
1.73528
1.74515
1.75207
1.76361
1.76871
1.79205
1.82
1.8517
1.88125
1.90279
1.92354
1.94294
1.96091
1.97832
1.99494
2.01107
2.02477
2.03566
2.04548
2.05398
2.0603
2.067
2.07388
2.08045
2.08891
2.09406
2.10518
2.10976
2.11927
2.12365
2.12646
2.12463
2.1224
2.11908
2.11744
2.11958
2.11576
2.11878
2.12966
0.199958
0.199964
0.199953
0.199941
0.199923
0.1999
0.19987
0.199832
0.199783
0.199724
0.199652
0.199567
0.199464
0.199346
0.199207
0.199051
0.198873
0.198675
0.198456
0.198217
0.197958
0.197679
0.197383
0.197071
0.196744
0.196405
0.196058
0.195697
0.195339
0.194965
0.194592
0.194229
0.193855
0.193499
0.193157
0.192804
0.192478
0.192144
0.191774
0.191424
0.191107
0.190827
0.190586
0.190385
0.190173
0.189904
0.189594
0.189322
0.189058
0.188812
0.188546
0.188159
0.187773
0.187467
0.18717
0.186864
0.186658
0.186167
0.185763
0.185222
0.185133
0.185091
0.1851
0.184802
0.184111
0.182912
0.182697
0.222823
0.993935
1.12786
1.17405
1.22938
1.42052
1.68868
1.791
1.77101
1.76223
1.7517
1.74386
1.74034
1.738
1.74522
1.74737
1.75866
1.76791
1.7848
1.81474
1.84476
1.8771
1.90112
1.92133
1.93863
1.95649
1.97405
1.99081
2.00676
2.02098
2.03204
2.04188
2.0505
2.05631
2.06278
2.06961
2.07614
2.08464
2.09
2.10176
2.10656
2.11597
2.11954
2.12266
2.12068
2.11929
2.11663
2.11467
2.11526
2.11166
2.11402
2.12395
0.199958
0.199964
0.199953
0.199941
0.199923
0.1999
0.19987
0.199831
0.199783
0.199724
0.199652
0.199566
0.199464
0.199345
0.199207
0.19905
0.198872
0.198674
0.198455
0.198216
0.197955
0.197677
0.19738
0.197068
0.19674
0.1964
0.196049
0.19569
0.195324
0.194955
0.194581
0.194205
0.193831
0.193465
0.193121
0.192776
0.192407
0.192048
0.191698
0.191368
0.191064
0.190802
0.190548
0.190267
0.189993
0.18968
0.189372
0.18907
0.188772
0.188496
0.188178
0.187771
0.187382
0.187087
0.186793
0.18657
0.186195
0.185523
0.184765
0.184175
0.183876
0.183624
0.183309
0.183209
0.182167
0.182267
0.190513
0.327488
1.09886
1.16862
1.20753
1.31074
1.57389
1.76912
1.8083
1.77007
1.75809
1.75552
1.74606
1.73467
1.73264
1.7411
1.74701
1.75378
1.76026
1.77514
1.80185
1.82679
1.86448
1.89352
1.91748
1.93456
1.95306
1.97068
1.98518
2.00013
2.01496
2.02649
2.03648
2.0447
2.05124
2.057
2.06409
2.07082
2.07965
2.08573
2.09782
2.10276
2.11182
2.11441
2.1178
2.11567
2.11567
2.11423
2.11212
2.11259
2.10837
2.10859
2.118
0.199958
0.199964
0.199953
0.199941
0.199923
0.1999
0.19987
0.199831
0.199783
0.199724
0.199652
0.199566
0.199464
0.199345
0.199207
0.19905
0.198872
0.198674
0.198454
0.198215
0.197954
0.197676
0.197378
0.197065
0.196737
0.196396
0.196042
0.195683
0.19531
0.194946
0.19457
0.194184
0.193811
0.193446
0.193074
0.192715
0.192361
0.191995
0.191633
0.191278
0.190944
0.19064
0.190385
0.190113
0.189829
0.189507
0.189225
0.188953
0.188682
0.188447
0.188113
0.187689
0.187336
0.186989
0.186648
0.18633
0.185915
0.185544
0.185165
0.184988
0.18479
0.184521
0.183418
0.182282
0.17912
0.178939
0.198112
0.608381
1.14581
1.21398
1.26252
1.43076
1.69723
1.81424
1.81117
1.77121
1.75285
1.7425
1.743
1.73497
1.72683
1.73104
1.7424
1.74413
1.75754
1.76713
1.79319
1.81597
1.85637
1.88688
1.91071
1.92666
1.94572
1.96292
1.9774
1.99187
2.00751
2.01938
2.02905
2.0369
2.04453
2.05086
2.0586
2.06601
2.07478
2.08124
2.09322
2.09812
2.10663
2.10821
2.11222
2.11052
2.11182
2.11152
2.10999
2.10996
2.1039
2.10312
2.11193
0.199958
0.199964
0.199953
0.199941
0.199923
0.1999
0.19987
0.199831
0.199783
0.199724
0.199652
0.199566
0.199463
0.199345
0.199206
0.199049
0.198871
0.198673
0.198453
0.198213
0.197952
0.197673
0.197375
0.197061
0.196732
0.196389
0.196034
0.19567
0.195301
0.194927
0.194549
0.194164
0.193775
0.193402
0.193036
0.192662
0.192291
0.191935
0.191585
0.191255
0.190923
0.190577
0.190264
0.189966
0.189663
0.189328
0.189012
0.188699
0.188389
0.188063
0.187604
0.187142
0.186748
0.186443
0.186244
0.185976
0.185565
0.184925
0.184175
0.183581
0.183124
0.183228
0.183455
0.185022
0.184848
0.184107
0.205083
0.881698
1.20534
1.27146
1.35438
1.59734
1.78138
1.8204
1.8175
1.79594
1.75868
1.73999
1.73266
1.72582
1.72277
1.72293
1.73409
1.73488
1.75167
1.75832
1.78056
1.80523
1.8482
1.88154
1.90645
1.92151
1.93979
1.95579
1.96967
1.9832
1.99812
2.00988
2.01954
2.02717
2.03639
2.04402
2.05321
2.06178
2.07067
2.0772
2.08844
2.09277
2.10048
2.10102
2.10589
2.10511
2.10797
2.10925
2.10784
2.10596
2.09974
2.09779
2.10518
0.199958
0.199964
0.199953
0.199941
0.199923
0.1999
0.19987
0.199831
0.199783
0.199724
0.199652
0.199566
0.199463
0.199344
0.199206
0.199049
0.19887
0.198672
0.198452
0.198212
0.197951
0.197671
0.197372
0.197058
0.196727
0.196384
0.196028
0.195661
0.195292
0.194913
0.194528
0.19415
0.193758
0.193369
0.192991
0.192621
0.19224
0.19187
0.191506
0.191146
0.190796
0.190471
0.19016
0.189847
0.189498
0.18917
0.188852
0.18853
0.188228
0.187953
0.187623
0.187241
0.186883
0.186494
0.186023
0.185487
0.18486
0.184366
0.183893
0.183653
0.183518
0.183409
0.182868
0.181692
0.178971
0.179675
0.245083
1.0814
1.23722
1.32517
1.47636
1.74137
1.84244
1.82186
1.79701
1.78964
1.7582
1.73544
1.72394
1.72245
1.72039
1.71942
1.72105
1.72146
1.73787
1.74571
1.7649
1.79233
1.83398
1.8714
1.89786
1.91285
1.93165
1.94794
1.96122
1.97394
1.98779
1.99959
2.00975
2.01744
2.02805
2.03724
2.04793
2.05724
2.0662
2.07252
2.08244
2.08568
2.09264
2.0926
2.09912
2.10006
2.1042
2.10688
2.10535
2.1022
2.09517
2.09138
2.09879
0.199958
0.199964
0.199953
0.199941
0.199923
0.1999
0.19987
0.199831
0.199783
0.199724
0.199651
0.199566
0.199463
0.199344
0.199205
0.199048
0.19887
0.198671
0.19845
0.19821
0.197948
0.197668
0.197369
0.197054
0.196722
0.196377
0.196018
0.195651
0.195277
0.194898
0.194511
0.19412
0.193727
0.193334
0.192948
0.192571
0.192191
0.191819
0.191465
0.191103
0.190725
0.190374
0.190039
0.18974
0.189422
0.189058
0.188705
0.18835
0.187973
0.187581
0.187152
0.186684
0.186196
0.185797
0.185475
0.18519
0.184883
0.184557
0.184123
0.183412
0.181867
0.180138
0.179333
0.177868
0.178097
0.191431
0.384957
1.17287
1.27611
1.38437
1.63334
1.81503
1.8456
1.80811
1.78771
1.79242
1.77316
1.74195
1.72458
1.7211
1.71778
1.71401
1.712
1.71411
1.7266
1.73494
1.75007
1.78129
1.81739
1.85741
1.88493
1.90033
1.91998
1.93535
1.94728
1.96135
1.97427
1.98669
1.99872
2.00788
2.01985
2.03025
2.04243
2.05254
2.06107
2.06669
2.075
2.0773
2.08417
2.08449
2.09264
2.09511
2.10034
2.10388
2.10211
2.09854
2.09048
2.08555
2.09264
0.199958
0.199964
0.199953
0.199941
0.199923
0.1999
0.19987
0.199831
0.199783
0.199724
0.199651
0.199566
0.199463
0.199344
0.199205
0.199048
0.198869
0.19867
0.198449
0.198209
0.197947
0.197666
0.197366
0.197049
0.196717
0.196371
0.196012
0.195643
0.195264
0.194881
0.194494
0.194101
0.193704
0.193311
0.192909
0.192507
0.192125
0.191743
0.191382
0.191027
0.19068
0.190312
0.189936
0.189593
0.189276
0.188949
0.188598
0.188261
0.187911
0.18757
0.187149
0.186713
0.186282
0.18583
0.185286
0.184525
0.18378
0.183128
0.182916
0.182805
0.183041
0.1829
0.183554
0.182824
0.184463
0.208632
0.749246
1.20985
1.34267
1.49215
1.76787
1.84698
1.85027
1.80291
1.7784
1.77516
1.75864
1.73001
1.71372
1.714
1.71002
1.70708
1.70121
1.70695
1.71423
1.72446
1.73202
1.76412
1.79459
1.83796
1.86941
1.88855
1.9083
1.92241
1.93449
1.94863
1.96093
1.9733
1.98747
1.999
2.01184
2.0234
2.03686
2.04772
2.05554
2.06039
2.0672
2.06898
2.07592
2.07656
2.08614
2.08994
2.09612
2.1004
2.09859
2.0946
2.08596
2.08004
2.08653
0.199958
0.199964
0.199953
0.199941
0.199923
0.1999
0.19987
0.199831
0.199783
0.199724
0.199651
0.199565
0.199462
0.199343
0.199204
0.199047
0.198868
0.198669
0.198448
0.198207
0.197944
0.197663
0.197362
0.197045
0.196711
0.196363
0.196002
0.195632
0.195253
0.194868
0.194476
0.194078
0.193677
0.193279
0.192887
0.192492
0.192093
0.191705
0.191329
0.190944
0.190568
0.190209
0.189863
0.189501
0.189147
0.18879
0.188429
0.188037
0.18764
0.187262
0.186889
0.186473
0.186072
0.185695
0.185246
0.184705
0.18419
0.183655
0.183373
0.182947
0.182207
0.180853
0.179298
0.17705
0.177004
0.214042
1.02402
1.30839
1.4554
1.6821
1.82575
1.82746
1.81604
1.78785
1.76892
1.75803
1.74544
1.72662
1.71517
1.71319
1.7069
1.69986
1.69086
1.69784
1.69891
1.71047
1.71786
1.74493
1.77393
1.81637
1.85097
1.87446
1.89509
1.90846
1.92185
1.93621
1.94855
1.96112
1.97609
1.98991
2.00362
2.01618
2.03029
2.04165
2.04884
2.05282
2.05827
2.05989
2.06707
2.06829
2.07934
2.08426
2.09162
2.09638
2.09407
2.0897
2.08133
2.07466
2.081
0.199959
0.199964
0.199953
0.199942
0.199923
0.1999
0.19987
0.199831
0.199783
0.199724
0.199651
0.199565
0.199462
0.199343
0.199204
0.199046
0.198867
0.198668
0.198446
0.198205
0.197942
0.19766
0.197358
0.19704
0.196706
0.196359
0.195996
0.195622
0.195239
0.19485
0.194459
0.194065
0.193663
0.193257
0.192848
0.192445
0.192042
0.191646
0.191266
0.190896
0.19053
0.190174
0.189819
0.189462
0.189119
0.188774
0.188416
0.187999
0.187552
0.187064
0.186672
0.186281
0.185909
0.185543
0.185128
0.184547
0.183714
0.182785
0.181764
0.180496
0.178997
0.178277
0.177256
0.179732
0.19418
0.337149
1.21426
1.40026
1.5862
1.81665
1.85817
1.81817
1.79398
1.78109
1.76812
1.75013
1.72939
1.71594
1.70886
1.7053
1.69796
1.68593
1.67904
1.68666
1.6879
1.69643
1.7026
1.72393
1.75279
1.79168
1.82888
1.85821
1.8807
1.89512
1.90985
1.92441
1.93681
1.94973
1.965
1.97985
1.99431
2.0076
2.02203
2.03322
2.03998
2.04352
2.04829
2.05032
2.05803
2.05993
2.07234
2.0782
2.08676
2.09168
2.08907
2.0842
2.07695
2.06866
2.07559
0.199959
0.199964
0.199953
0.199942
0.199923
0.1999
0.19987
0.199831
0.199783
0.199724
0.199651
0.199565
0.199462
0.199342
0.199203
0.199046
0.198866
0.198667
0.198445
0.198203
0.197939
0.197657
0.197355
0.197036
0.1967
0.19635
0.195988
0.195615
0.195232
0.194843
0.194446
0.194043
0.193639
0.193237
0.192837
0.192434
0.192036
0.19164
0.191238
0.190827
0.190436
0.190041
0.189647
0.189289
0.189001
0.188719
0.1884
0.188011
0.187601
0.187149
0.186651
0.186131
0.185484
0.184843
0.184282
0.183879
0.183624
0.183616
0.183521
0.183409
0.182854
0.182697
0.181284
0.183101
0.199281
0.744632
1.31563
1.50887
1.74267
1.84559
1.84185
1.79749
1.77774
1.77332
1.76021
1.73484
1.71338
1.70424
1.70296
1.69646
1.68648
1.67376
1.67001
1.67701
1.67926
1.68029
1.68846
1.70312
1.73338
1.76464
1.8069
1.8411
1.86556
1.88142
1.89778
1.91302
1.92537
1.93846
1.95359
1.9685
1.98365
1.99735
2.01178
2.02259
2.02978
2.03381
2.03856
2.04132
2.04945
2.05192
2.06527
2.07158
2.08114
2.08597
2.08357
2.07833
2.07279
2.06315
2.07005
0.199959
0.199964
0.199953
0.199942
0.199923
0.1999
0.19987
0.199831
0.199783
0.199724
0.199651
0.199565
0.199462
0.199342
0.199203
0.199045
0.198865
0.198665
0.198443
0.198201
0.197937
0.197654
0.197351
0.197032
0.196696
0.196346
0.195982
0.195606
0.195219
0.194827
0.194433
0.194037
0.193634
0.193228
0.192815
0.192403
0.191998
0.1916
0.191218
0.190847
0.190483
0.190121
0.189752
0.18938
0.188986
0.188579
0.18817
0.187764
0.187326
0.186913
0.186536
0.186148
0.185726
0.185409
0.185165
0.184927
0.184639
0.184277
0.183727
0.182632
0.181086
0.179141
0.17684
0.177361
0.210536
1.11713
1.46099
1.65339
1.82855
1.85622
1.80934
1.77487
1.76558
1.76482
1.74957
1.72366
1.70427
1.70016
1.69543
1.68372
1.67248
1.6642
1.66591
1.66719
1.66946
1.66389
1.67629
1.68459
1.71289
1.7388
1.7839
1.82189
1.84992
1.86733
1.88626
1.90211
1.91451
1.92758
1.94232
1.95662
1.97198
1.98559
2.00001
2.01055
2.01875
2.02407
2.02926
2.03282
2.04099
2.04345
2.05761
2.06466
2.07496
2.07883
2.07741
2.07206
2.0687
2.05769
2.0647
0.199959
0.199964
0.199953
0.199942
0.199924
0.1999
0.19987
0.199831
0.199783
0.199723
0.199651
0.199564
0.199461
0.199341
0.199202
0.199044
0.198864
0.198664
0.198441
0.198199
0.197934
0.197651
0.197348
0.197028
0.19669
0.196339
0.195976
0.195602
0.195218
0.194826
0.194425
0.19402
0.193615
0.19321
0.192814
0.192418
0.192016
0.191622
0.191219
0.19079
0.190392
0.190004
0.189636
0.189299
0.188969
0.188641
0.188295
0.187967
0.187624
0.187291
0.186933
0.186502
0.185972
0.185223
0.184208
0.182723
0.181188
0.179941
0.179304
0.179499
0.180918
0.181802
0.184125
0.190625
0.400119
1.38261
1.58079
1.78502
1.85399
1.83847
1.79673
1.76143
1.74809
1.74906
1.73497
1.70928
1.69237
1.68853
1.67953
1.66965
1.65931
1.65447
1.6574
1.65339
1.65634
1.65075
1.66301
1.66815
1.69119
1.71793
1.75996
1.80173
1.83213
1.85249
1.87467
1.8909
1.90399
1.91718
1.93081
1.94374
1.95849
1.9722
1.9867
1.99754
2.00728
2.01413
2.01995
2.02433
2.0325
2.03523
2.05002
2.05741
2.06774
2.07062
2.07058
2.06613
2.06388
2.05241
2.05917
0.199959
0.199964
0.199954
0.199942
0.199924
0.199901
0.19987
0.199831
0.199783
0.199723
0.199651
0.199564
0.199461
0.199341
0.199201
0.199043
0.198862
0.198662
0.198439
0.198196
0.197931
0.197648
0.197344
0.197023
0.196686
0.196336
0.195971
0.195595
0.19521
0.194818
0.194421
0.194023
0.193621
0.193215
0.192802
0.192399
0.192004
0.191613
0.19123
0.19085
0.19047
0.190129
0.189802
0.1895
0.189173
0.188781
0.188305
0.18773
0.187096
0.18655
0.186081
0.185821
0.185792
0.185773
0.185889
0.185706
0.185556
0.185158
0.184803
0.184
0.183979
0.182175
0.183308
0.198274
0.897203
1.50686
1.71011
1.83366
1.82682
1.81829
1.78655
1.75135
1.73367
1.73515
1.72097
1.69537
1.67872
1.67372
1.66613
1.6575
1.64929
1.6453
1.64601
1.6409
1.64188
1.63987
1.64905
1.65532
1.6704
1.69983
1.73395
1.77895
1.8125
1.83766
1.86236
1.87946
1.89326
1.906
1.91831
1.93017
1.94412
1.95792
1.97251
1.98417
1.99557
2.00395
2.01078
2.01592
2.02438
2.02764
2.04251
2.04926
2.05954
2.06153
2.06283
2.059
2.059
2.04744
2.05302
0.199959
0.199964
0.199954
0.199942
0.199924
0.199901
0.19987
0.199831
0.199783
0.199723
0.19965
0.199564
0.19946
0.19934
0.1992
0.199042
0.198861
0.19866
0.198437
0.198194
0.197928
0.197644
0.19734
0.197019
0.196681
0.19633
0.195966
0.195594
0.19521
0.194819
0.19442
0.194018
0.193619
0.193223
0.192828
0.192433
0.192044
0.191659
0.191276
0.19087
0.190427
0.19
0.189625
0.189336
0.189067
0.188764
0.188496
0.18819
0.187857
0.187457
0.18699
0.186554
0.186101
0.185592
0.185001
0.184092
0.182563
0.180855
0.179385
0.178056
0.17645
0.176695
0.182924
0.261041
1.31121
1.65884
1.81763
1.84084
1.80142
1.78594
1.7699
1.73966
1.71724
1.71157
1.6996
1.67981
1.66625
1.66083
1.65457
1.64543
1.63635
1.63261
1.6307
1.62906
1.62667
1.62977
1.63301
1.64254
1.64953
1.67976
1.70842
1.75491
1.79123
1.82267
1.84888
1.8661
1.87994
1.89314
1.90482
1.91602
1.92914
1.94282
1.95772
1.9703
1.98349
1.9932
2.00164
2.00773
2.01663
2.02046
2.03444
2.03969
2.05009
2.05217
2.05442
2.05162
2.05382
2.04228
2.04675
0.199959
0.199964
0.199954
0.199942
0.199924
0.199901
0.19987
0.199832
0.199783
0.199723
0.19965
0.199564
0.19946
0.19934
0.1992
0.199041
0.19886
0.198659
0.198435
0.198191
0.197925
0.197641
0.197336
0.197016
0.196678
0.196327
0.195962
0.195588
0.195206
0.194818
0.194425
0.19403
0.193634
0.193238
0.192841
0.19243
0.192031
0.191661
0.191324
0.19098
0.190642
0.190285
0.189951
0.189626
0.189304
0.18895
0.188564
0.188153
0.187743
0.187218
0.186506
0.185907
0.185443
0.185323
0.185445
0.185674
0.185713
0.185881
0.185852
0.185635
0.183771
0.185271
0.189133
0.700969
1.54579
1.76441
1.83609
1.8151
1.7839
1.76011
1.74401
1.72462
1.70257
1.69172
1.67918
1.66424
1.65473
1.65072
1.64468
1.63252
1.62247
1.6194
1.61706
1.61646
1.61213
1.61822
1.61791
1.62949
1.63507
1.65699
1.68682
1.72744
1.76799
1.80472
1.8323
1.85012
1.86592
1.87994
1.89148
1.90189
1.91414
1.92741
1.94273
1.95637
1.97129
1.98235
1.99258
1.99971
2.00887
2.01257
2.02524
2.02893
2.04032
2.04281
2.0465
2.04416
2.04832
2.03687
2.0396
0.199959
0.199965
0.199954
0.199942
0.199924
0.199901
0.19987
0.199832
0.199783
0.199723
0.19965
0.199563
0.19946
0.199339
0.199199
0.199039
0.198858
0.198657
0.198433
0.198188
0.197922
0.197637
0.197333
0.197012
0.196674
0.196323
0.19596
0.195589
0.195208
0.194822
0.194431
0.194038
0.193645
0.193257
0.192874
0.192486
0.192099
0.191719
0.191359
0.191007
0.190653
0.190298
0.18996
0.189612
0.189263
0.188903
0.188604
0.188405
0.188209
0.187954
0.187572
0.187157
0.186574
0.18587
0.185194
0.184633
0.183827
0.18346
0.183268
0.183115
0.183304
0.184009
0.197597
1.23918
1.71665
1.82884
1.80787
1.77553
1.75993
1.73315
1.71608
1.70044
1.68993
1.67828
1.66552
1.65492
1.64637
1.64057
1.63033
1.61614
1.60755
1.60485
1.60193
1.59974
1.59766
1.60488
1.60652
1.61249
1.62218
1.63497
1.66748
1.69901
1.74359
1.7828
1.81362
1.83349
1.85179
1.86667
1.87814
1.88795
1.89915
1.9118
1.92767
1.94257
1.95937
1.97161
1.9836
1.99166
2.0004
2.00364
2.01532
2.01857
2.03087
2.03371
2.0388
2.03621
2.04228
2.0306
2.03323
0.199959
0.199965
0.199954
0.199942
0.199924
0.199901
0.19987
0.199832
0.199783
0.199723
0.19965
0.199563
0.199459
0.199338
0.199198
0.199038
0.198856
0.198655
0.19843
0.198185
0.197919
0.197634
0.197328
0.197007
0.19667
0.19632
0.195957
0.195586
0.195207
0.194823
0.194436
0.194049
0.193661
0.193276
0.192894
0.19252
0.192158
0.191793
0.191441
0.19111
0.190786
0.19046
0.190138
0.189828
0.189501
0.189082
0.188647
0.188294
0.188091
0.187904
0.187665
0.187357
0.187099
0.186734
0.186097
0.185439
0.184961
0.184375
0.184635
0.183573
0.186464
0.190394
0.490826
1.61038
1.80012
1.8209
1.79369
1.7494
1.72919
1.71643
1.69577
1.68008
1.67117
1.6596
1.64768
1.63742
1.62992
1.62174
1.61258
1.60096
1.59437
1.58995
1.58699
1.58429
1.58678
1.59151
1.59608
1.59466
1.60681
1.61312
1.64244
1.67244
1.71704
1.76011
1.79413
1.8164
1.83751
1.85314
1.86448
1.87386
1.88435
1.8965
1.91302
1.92929
1.94772
1.96105
1.97439
1.98275
1.99097
1.99396
2.00508
2.00865
2.02159
2.02452
2.03068
2.02856
2.03525
2.02479
2.02592
0.199959
0.199965
0.199954
0.199942
0.199924
0.199901
0.19987
0.199832
0.199783
0.199723
0.19965
0.199563
0.199459
0.199338
0.199197
0.199037
0.198855
0.198652
0.198427
0.198182
0.197915
0.197629
0.197324
0.197003
0.196666
0.196316
0.195955
0.195586
0.195208
0.194826
0.194442
0.194061
0.193683
0.193306
0.192927
0.19256
0.192202
0.191837
0.191459
0.191107
0.1908
0.190535
0.190317
0.190116
0.189902
0.189634
0.189294
0.188899
0.18854
0.188183
0.187815
0.187469
0.187088
0.186462
0.185744
0.184958
0.184578
0.18409
0.184632
0.18438
0.186487
0.203359
1.12793
1.73341
1.79833
1.78513
1.75123
1.71521
1.6914
1.68732
1.67528
1.66198
1.65094
1.64017
1.62737
1.61761
1.60971
1.6048
1.59611
1.58812
1.58445
1.57962
1.57704
1.57201
1.57511
1.57236
1.57881
1.57626
1.58821
1.59508
1.61791
1.64836
1.68945
1.73702
1.77352
1.79848
1.82218
1.83853
1.85026
1.85991
1.87017
1.88185
1.89896
1.9161
1.93584
1.9499
1.96358
1.97209
1.98046
1.9835
1.99477
1.99888
2.01226
2.01507
2.02271
2.02053
2.02777
2.01819
2.01889
0.199959