/*--------------------------------*- C++ -*----------------------------------*\
| =========                 |                                                 |
| \\      /  F ield         | OpenFOAM: The Open Source CFD Toolbox           |
|  \\    /   O peration     | Version:  2.2.x                                 |
|   \\  /    A nd           | Web:      www.OpenFOAM.org                      |
|    \\/     M anipulation  |                                                 |
\*---------------------------------------------------------------------------*/
FoamFile
{
    version     2.0;
    format      ascii;
    class       surfaceScalarField;
    location    "1.6";
    object      cfmax;
}
// * * * * * * * * * * * * * * * * * * * * * * * * * * * * * * * * * * * * * //

dimensions      [0 3 -1 0 0 0 0];

internalField   nonuniform List<scalar> 
28084
(
0.00103347
0.00102899
0.00102514
0.0010219
0.00101925
0.00101715
0.00101556
0.00101446
0.0010138
0.00101356
0.00101369
0.00101415
0.00101492
0.00101594
0.00101719
0.00101863
0.00102022
0.00102194
0.00102374
0.0010256
0.000877414
0.000770094
0.000769754
0.000770164
0.000770792
0.000771442
0.000771973
0.000772259
0.000772186
0.000771646
0.000770586
0.000768999
0.000766906
0.000764353
0.000761402
0.000758125
0.000754594
0.000750877
0.000747036
0.000743124
0.000739186
0.000735254
0.000731355
0.000727504
0.000723708
0.000730041
0.000736702
0.00074371
0.000751029
0.000758625
0.000766456
0.00077448
0.000782652
0.000790921
0.000799236
0.000807548
0.000815802
0.00082395
0.000831939
0.000839722
0.00084725
0.00085448
0.000861367
0.000867871
0.000873953
0.000879577
0.000884708
0.000889314
0.000893362
0.000896824
0.000899668
0.000901875
0.000903428
0.000904314
0.000904523
0.000904051
0.0009029
0.000901075
0.000898586
0.000895449
0.000891685
0.000887318
0.00088238
0.000876906
0.000870934
0.000864509
0.000857682
0.000850506
0.000843043
0.00083536
0.000827535
0.000819653
0.00081181
0.000804114
0.000796683
0.000789645
0.000783135
0.000777293
0.000772257
0.000768166
0.00076515
0.000763334
0.000762835
0.000763759
0.000766203
0.000770246
0.000775944
0.000783321
0.000792363
0.000803
0.000815098
0.000828443
0.000842729
0.000857547
0.000872389
0.00088667
0.000899793
0.000911319
0.00144695
0.00144445
0.00103834
0.00143891
0.00103701
0.00143036
0.00103628
0.00141888
0.00103613
0.00140457
0.00103652
0.00138752
0.00103742
0.00136789
0.00103881
0.00134583
0.00104065
0.00132151
0.0010429
0.00129529
0.00104552
0.00126748
0.00104847
0.00123793
0.00105172
0.00120683
0.00105522
0.0011744
0.00105893
0.00114085
0.00106282
0.00110637
0.00106683
0.00107116
0.00107094
0.00103541
0.0010751
0.000999315
0.00107929
0.0014998
0.00108347
0.00163146
0.000891715
0.00157859
0.000777341
0.00152424
0.00077211
0.00146848
0.00076928
0.00141059
0.000767735
0.00135051
0.000766985
0.00128935
0.000766675
0.00122796
0.000766641
0.00116676
0.000766851
0.00110716
0.000767323
0.00105031
0.000768041
0.00099596
0.000768929
0.000944175
0.000769898
0.000894887
0.000770851
0.000847957
0.00077169
0.000803227
0.000772339
0.000760553
0.000772742
0.000719817
0.000772867
0.000680926
0.000772697
0.000643809
0.000772232
0.000608408
0.000771475
0.000574675
0.000770438
0.000542563
0.000769131
0.000512027
0.000767562
0.000509467
0.000765735
0.000509568
0.000772712
0.000509802
0.000779905
0.000510156
0.000787268
0.000510631
0.000794748
0.000511227
0.000802297
0.000511947
0.000809867
0.000512791
0.00081741
0.00051376
0.00082488
0.000514854
0.000832232
0.000516075
0.000839422
0.000517422
0.000846409
0.000518896
0.000853153
0.0005205
0.000859618
0.000522236
0.00086577
0.000524106
0.000871579
0.000526112
0.000877018
0.00052826
0.000882066
0.000530553
0.0008867
0.000532993
0.000890902
0.000535581
0.000894653
0.000538316
0.000897939
0.000541194
0.000900741
0.000544206
0.000903045
0.000547339
0.000904831
0.000550573
0.000906079
0.000553884
0.000906767
0.000557242
0.000906866
0.000560619
0.000906341
0.000563988
0.000905164
0.000567323
0.000903309
0.000570607
0.000900759
0.000573829
0.000897507
0.000576987
0.000893561
0.000580084
0.00088894
0.000583135
0.000883678
0.000586156
0.000877819
0.000589171
0.000871417
0.000592205
0.000864533
0.000595284
0.00085723
0.000598437
0.000849578
0.000601691
0.000841647
0.000605073
0.000833506
0.000608611
0.000825229
0.000612328
0.000816887
0.000616246
0.000808552
0.000620384
0.000800296
0.000624756
0.000792194
0.000629372
0.000784318
0.000634236
0.000776742
0.000639346
0.00076954
0.000644694
0.000762789
0.000650265
0.00075656
0.000656038
0.000750928
0.000661982
0.000745961
0.000668061
0.000741723
0.00067423
0.000738272
0.000680439
0.00073566
0.000686638
0.000733929
0.000692783
0.000733121
0.000698851
0.000733275
0.000704854
0.000734445
0.000710857
0.000736706
0.000716981
0.000740167
0.000723398
0.000744971
0.000730306
0.000751287
0.000737882
0.000759273
0.000746244
0.000769029
0.00075544
0.000780548
0.000765485
0.000793686
0.000776433
0.000808201
0.000788425
0.000823837
0.000801702
0.000840445
0.000864055
0.000858107
0.00144822
0.00144528
0.00104484
0.00143931
0.00104663
0.00143035
0.00104898
0.00141848
0.00105187
0.00140379
0.00105526
0.0013864
0.00105914
0.00136751
0.00106347
0.00134639
0.00106821
0.00132293
0.00107333
0.00129731
0.00107879
0.00126971
0.00108454
0.00124035
0.00109054
0.00120941
0.00109674
0.00117711
0.00110311
0.00114365
0.0011096
0.00110924
0.00111616
0.00107407
0.00112276
0.00103835
0.00112935
0.00100224
0.0011359
0.0015125
0.00114237
0.00163041
0.000958545
0.00157761
0.000838922
0.00152332
0.000837397
0.00146762
0.000837183
0.00140978
0.000837397
0.00135035
0.000837806
0.00128983
0.000838302
0.00122841
0.000838813
0.00116717
0.000839278
0.00110713
0.000839656
0.00104978
0.000839906
0.000995483
0.000840005
0.000943748
0.000839941
0.000894512
0.000839718
0.000847645
0.000839361
0.000803612
0.000838891
0.000761335
0.00083832
0.000720811
0.000837652
0.00068203
0.000836877
0.00064497
0.000835983
0.000609604
0.000834956
0.000575898
0.000833781
0.000543814
0.000832449
0.000513307
0.000830952
0.000510586
0.000829288
0.000511067
0.000835826
0.000511606
0.000842576
0.000512217
0.000849488
0.000512902
0.000856521
0.000513659
0.000863631
0.000514486
0.000870772
0.000515381
0.000877898
0.000516346
0.000884966
0.000517382
0.000891931
0.00051849
0.000898748
0.000519674
0.000905376
0.000520941
0.000911773
0.000522296
0.000917899
0.000523746
0.000923714
0.0005253
0.000929183
0.000526967
0.000934267
0.000528754
0.000938928
0.000530942
0.000943133
0.00053334
0.000946849
0.000535852
0.000950046
0.000538476
0.000952695
0.000541209
0.000954771
0.000544049
0.000956248
0.000546991
0.000957104
0.000550167
0.000957318
0.000553615
0.000956872
0.00055711
0.000955747
0.000560623
0.00095393
0.000564125
0.000951411
0.000567591
0.00094818
0.000571003
0.000944235
0.000574348
0.000939579
0.000577623
0.000934222
0.000580834
0.000928182
0.00058399
0.000921482
0.000587413
0.000914155
0.000590984
0.000906241
0.000594576
0.000897785
0.000598193
0.00088884
0.000601843
0.000879466
0.000605538
0.000869727
0.000609296
0.000859699
0.000613139
0.000849462
0.000617094
0.000839109
0.000621192
0.000828736
0.000625463
0.000818446
0.000629938
0.000808347
0.00063464
0.000798542
0.000639586
0.000789134
0.000644782
0.000780218
0.000650222
0.000771881
0.000655891
0.000764198
0.000661757
0.000757234
0.000667778
0.000751044
0.000673901
0.000745665
0.000680061
0.000741126
0.000686196
0.000737442
0.000692251
0.000734627
0.0006982
0.000732696
0.000704061
0.000731687
0.000709914
0.000731668
0.000715896
0.000732751
0.000722188
0.000735093
0.000728975
0.000738873
0.000736409
0.000744262
0.000744579
0.000751379
0.000753529
0.000760259
0.000763297
0.000770864
0.000773954
0.000783112
0.000785607
0.000796921
0.000798402
0.000812228
0.000812576
0.000829059
0.000876182
0.000847675
0.00144723
0.00144388
0.00105298
0.0014375
0.00105784
0.00142816
0.00106322
0.00141756
0.00106911
0.00140475
0.00107547
0.00138914
0.00108228
0.00137083
0.00108951
0.00134999
0.00109712
0.00132678
0.00110507
0.00130137
0.00111333
0.00127395
0.00112183
0.00124473
0.00113055
0.00121392
0.00113943
0.0011817
0.00114842
0.0011483
0.00115748
0.00111392
0.00116655
0.00107875
0.00117561
0.001043
0.0011846
0.00100685
0.00119348
0.0015098
0.00120222
0.00162229
0.00102727
0.0015617
0.000900459
0.00150146
0.000902964
0.00144083
0.000905505
0.00138008
0.000907801
0.00131984
0.000909751
0.00126092
0.000911322
0.00120488
0.000912522
0.0011494
0.000913365
0.00109472
0.000913865
0.00104107
0.000914041
0.000989413
0.00091391
0.000940258
0.000913499
0.000892819
0.000912845
0.000847111
0.000911989
0.000803462
0.000910974
0.000761681
0.000909838
0.000721498
0.000908609
0.000682945
0.000907301
0.000646037
0.00090592
0.000610772
0.000904462
0.000577131
0.00090292
0.000545087
0.000901283
0.000514601
0.00089954
0.000512188
0.000897686
0.00051259
0.000903352
0.000513051
0.000909272
0.000513574
0.000915394
0.000514156
0.000921679
0.000514795
0.000928082
0.000515486
0.000934558
0.000516228
0.000941062
0.000517021
0.000947547
0.000517866
0.000953968
0.000518763
0.000960279
0.000519718
0.000966434
0.000520733
0.000972388
0.000521815
0.000978095
0.000522969
0.000983509
0.000524641
0.000988583
0.00052676
0.000993273
0.000528991
0.000997538
0.000531333
0.00100134
0.000533782
0.00100463
0.000536337
0.00100738
0.000538994
0.00100954
0.00054175
0.0010111
0.000544604
0.00101202
0.000547552
0.00101227
0.000550591
0.00101183
0.000553719
0.00101068
0.000556932
0.0010088
0.000560226
0.00100618
0.000563599
0.00100281
0.000567046
0.000998697
0.000570564
0.000993836
0.000574151
0.000988237
0.000577804
0.000981914
0.000581522
0.000974887
0.000585303
0.000967185
0.000589147
0.000958838
0.000593054
0.000949887
0.000597021
0.000940374
0.000601047
0.000930349
0.000605129
0.000919865
0.000609266
0.000908977
0.000613458
0.00089775
0.000617705
0.000886252
0.000622017
0.000874562
0.000626405
0.000862765
0.00063089
0.000850963
0.000635497
0.000839264
0.000640253
0.000827788
0.000645186
0.000816655
0.000650318
0.000805989
0.000655659
0.000795904
0.000661211
0.000786504
0.000666955
0.000777874
0.000672861
0.000770082
0.00067888
0.000763175
0.000684958
0.000757179
0.000691034
0.000752106
0.000697066
0.000747964
0.000703038
0.000744762
0.000708983
0.000742534
0.000714992
0.000741348
0.000721212
0.000741317
0.000727824
0.000742596
0.000734998
0.000745358
0.000742856
0.000749758
0.000751457
0.00075589
0.000760828
0.000763767
0.000771026
0.000773349
0.00078216
0.00078459
0.000794352
0.00079747
0.000807702
0.000811964
0.000822417
0.000828071
0.00088401
0.000846023
0.00144401
0.00144151
0.00106275
0.00143809
0.00107063
0.00143159
0.001079
0.00142207
0.00108783
0.00140959
0.00109711
0.00139428
0.00110681
0.00137625
0.0011169
0.00135566
0.00112734
0.00133266
0.00113808
0.00130744
0.00114909
0.00128018
0.00116032
0.00125108
0.00117171
0.00122034
0.00118322
0.00118818
0.00119479
0.0011548
0.00120639
0.0011204
0.00121795
0.00108519
0.00122942
0.00104936
0.00124078
0.0010131
0.00125196
0.00149547
0.00126292
0.00161301
0.00109029
0.00154819
0.000954963
0.00148558
0.000959277
0.00142366
0.000962636
0.001364
0.000965347
0.00130612
0.000967517
0.00124977
0.000969226
0.00119491
0.000970547
0.00114148
0.000971537
0.00108941
0.000972235
0.00103866
0.000972671
0.000989217
0.000972871
0.000941133
0.00097286
0.000894469
0.000972666
0.000849297
0.000972314
0.000805685
0.000971828
0.000763687
0.000971224
0.000723344
0.000970512
0.000684675
0.000969694
0.000647685
0.000968766
0.00061236
0.000967722
0.000578678
0.000966551
0.000546604
0.000965241
0.000516096
0.00096378
0.000513597
0.000962159
0.000513982
0.000967205
0.000514424
0.000972499
0.000514912
0.00097799
0.000515442
0.000983632
0.000516008
0.00098938
0.000516609
0.000995188
0.000517242
0.00100101
0.000517907
0.0010068
0.000518605
0.00101251
0.000519338
0.00101809
0.000520107
0.00102351
0.000520917
0.00102871
0.000521772
0.00103366
0.00052325
0.0010383
0.000525362
0.00104259
0.000527597
0.00104649
0.000529952
0.00104996
0.000532426
0.00105296
0.000535013
0.00105546
0.000537712
0.00105741
0.000540519
0.00105877
0.000543432
0.00105953
0.000546447
0.00105965
0.00054956
0.0010591
0.00055277
0.00105786
0.000556073
0.00105591
0.000559466
0.00105324
0.000562947
0.00104984
0.000566513
0.00104569
0.000570161
0.0010408
0.000573888
0.00103518
0.000577691
0.00102883
0.000581568
0.00102176
0.000585516
0.001014
0.000589532
0.00100557
0.000593613
0.000996503
0.000597755
0.000986831
0.000601956
0.000976596
0.000606209
0.000965842
0.000610512
0.000954619
0.000614857
0.000942981
0.000619242
0.000930985
0.000623664
0.000918698
0.000628123
0.000906189
0.000632626
0.000893543
0.000637184
0.000880849
0.000641817
0.000868212
0.000646548
0.000855745
0.000651404
0.000843569
0.00065641
0.00083181
0.000661588
0.000820589
0.000666949
0.000810021
0.000672493
0.000800204
0.000678206
0.000791221
0.000684059
0.000783132
0.000690013
0.000775977
0.000696027
0.000769777
0.000702067
0.000764546
0.000708125
0.000760298
0.000714229
0.000757062
0.000720462
0.000754896
0.000726956
0.0007539
0.000733879
0.00075421
0.000741391
0.000755987
0.00074961
0.000759376
0.00075859
0.000764468
0.000768361
0.000771277
0.000778995
0.000779771
0.000790623
0.000789925
0.000803365
0.000801743
0.000817276
0.000815198
0.000832516
0.000830218
0.000891315
0.000846951
0.00144709
0.00144715
0.00107416
0.00144408
0.00108501
0.00143792
0.0010963
0.00142871
0.00110804
0.00141655
0.00112019
0.00140151
0.00113272
0.00138374
0.00114562
0.00136337
0.00115883
0.00134057
0.00117232
0.0013155
0.00118604
0.00128837
0.00119994
0.00125935
0.00121397
0.00122867
0.00122807
0.00119652
0.00124218
0.00116312
0.00125627
0.00112866
0.00127027
0.00109336
0.00128413
0.00105741
0.00129781
0.001021
0.00131125
0.00146877
0.00132441
0.00161554
0.00113551
0.00155345
0.000994364
0.00149256
0.000999701
0.0014325
0.0010041
0.00137334
0.00100796
0.00131522
0.0010114
0.00125828
0.00101448
0.0012026
0.00101723
0.00114822
0.00101967
0.00109518
0.00102181
0.00104351
0.00102365
0.000993262
0.0010252
0.000944505
0.00102648
0.000897299
0.0010275
0.000851707
0.00102827
0.000807779
0.00102882
0.000765553
0.00102917
0.000725048
0.00102931
0.00068627
0.00102927
0.000649209
0.00102903
0.000613842
0.0010286
0.000580138
0.00102796
0.000548056
0.00102712
0.000517552
0.00102607
0.000514734
0.00102479
0.000515167
0.00102932
0.00051564
0.00103406
0.000516141
0.00103897
0.000516667
0.00104399
0.000517212
0.00104909
0.000517775
0.00105422
0.000518354
0.00105933
0.000518949
0.00106438
0.00051956
0.00106932
0.000520188
0.00107411
0.000520835
0.0010787
0.000521506
0.00108306
0.000522343
0.00108713
0.000524445
0.00109088
0.000526684
0.00109427
0.000529057
0.00109726
0.000531559
0.0010998
0.000534189
0.00110187
0.000536944
0.00110342
0.00053982
0.00110443
0.000542814
0.00110486
0.000545923
0.00110469
0.000549143
0.00110388
0.000552471
0.00110241
0.000555904
0.00110026
0.000559438
0.00109743
0.000563068
0.00109388
0.000566792
0.00108961
0.000570606
0.00108463
0.000574504
0.00107893
0.000578483
0.0010725
0.000582539
0.00106538
0.000586665
0.00105755
0.000590857
0.00104906
0.000595108
0.00103991
0.000599413
0.00103014
0.000603764
0.00101977
0.000608155
0.00100886
0.000612579
0.000997428
0.000617028
0.000985532
0.000621497
0.00097322
0.00062598
0.00096055
0.000630476
0.000947585
0.000634984
0.000934395
0.00063951
0.00092106
0.000644065
0.000907669
0.000648663
0.000894321
0.000653326
0.000881124
0.000658079
0.000868194
0.000662948
0.000855652
0.000667957
0.000843616
0.000673127
0.000832202
0.000678469
0.000821511
0.000683983
0.000811633
0.000689661
0.000802636
0.000695482
0.000794571
0.000701423
0.000787471
0.000707464
0.000781359
0.000713603
0.000776253
0.000719864
0.00077218
0.000726317
0.000769187
0.000733075
0.000767355
0.000740289
0.000766801
0.000748114
0.000767669
0.000756672
0.000770098
0.000766026
0.000774181
0.000776218
0.000779946
0.000787328
0.000787372
0.000799497
0.000796445
0.000812848
0.000807178
0.000827393
0.000819531
0.000843231
0.000833367
0.000899183
0.000848721
0.00145458
0.00145496
0.00108721
0.00145222
0.00110097
0.00144638
0.00111514
0.00143747
0.00112971
0.00142559
0.00114467
0.00141082
0.00115999
0.00139328
0.00117564
0.00137311
0.00119158
0.00135047
0.00120776
0.00132554
0.00122414
0.0012985
0.00124066
0.00126954
0.00125727
0.00123887
0.00127391
0.0012067
0.00129053
0.00117324
0.00130706
0.00113868
0.00132345
0.00110325
0.00133965
0.00106713
0.00135561
0.00103052
0.00137127
0.00146235
0.00138659
0.0016165
0.00118858
0.00155559
0.00104122
0.00149516
0.00104769
0.00143534
0.00105335
0.00137627
0.00105844
0.00131815
0.00106308
0.00126112
0.00106731
0.0012053
0.00107114
0.00115075
0.0010746
0.00109753
0.00107769
0.00104567
0.00108041
0.000995246
0.00108277
0.000946325
0.00108478
0.000898977
0.00108647
0.000853269
0.00108785
0.000809252
0.00108896
0.000766962
0.00108981
0.000726417
0.00109042
0.000687618
0.00109079
0.000650551
0.00109094
0.000615191
0.00109085
0.000581502
0.00109052
0.000549441
0.00108995
0.000518963
0.00108914
0.000515793
0.00108807
0.000516281
0.001092
0.000516785
0.00109612
0.0005173
0.00110037
0.000517822
0.00110473
0.000518347
0.00110913
0.000518874
0.00111354
0.000519401
0.00111791
0.000519928
0.0011222
0.000520455
0.00112636
0.000520986
0.00113035
0.000521521
0.00113412
0.000522066
0.00113764
0.000523873
0.00114085
0.000526095
0.00114373
0.000528462
0.00114623
0.000530971
0.00114831
0.000533619
0.00114994
0.000536405
0.00115108
0.000539324
0.0011517
0.000542375
0.00115176
0.000545554
0.00115123
0.000548858
0.0011501
0.000552283
0.00114832
0.000555825
0.00114589
0.000559481
0.00114279
0.000563246
0.00113899
0.000567115
0.0011345
0.000571084
0.00112929
0.000575148
0.00112338
0.0005793
0.00111677
0.000583535
0.00110945
0.000587846
0.00110145
0.000592225
0.00109277
0.000596664
0.00108343
0.000601154
0.00107347
0.000605685
0.0010629
0.000610247
0.00105175
0.000614829
0.00104007
0.000619422
0.00102789
0.000624015
0.00101525
0.000628601
0.0010022
0.000633173
0.000988809
0.00063773
0.000975125
0.000642271
0.000961224
0.000646802
0.000947183
0.000651334
0.000933091
0.000655883
0.000919045
0.000660469
0.000905149
0.000665117
0.000891516
0.000669853
0.000878261
0.000674707
0.000865499
0.000679701
0.000853341
0.000684856
0.000841889
0.000690187
0.000831232
0.000695698
0.000821445
0.000701388
0.000812584
0.00070725
0.000804691
0.000713279
0.000797795
0.000719479
0.000791919
0.000725874
0.000787086
0.000732521
0.000783336
0.000739521
0.000780732
0.000747009
0.000779372
0.000755135
0.000779382
0.000764026
0.000780895
0.000773763
0.000784009
0.000784399
0.000788765
0.000796024
0.000795157
0.000808783
0.000803177
0.000822802
0.000812839
0.000838065
0.000824095
0.000854598
0.000836751
0.0009079
0.000850725
0.00146423
0.00146492
0.00110193
0.00146248
0.00111852
0.00145693
0.0011355
0.00144831
0.00115285
0.00143669
0.00117056
0.00142216
0.0011886
0.00140483
0.00120695
0.00138484
0.00122555
0.00136235
0.00124437
0.00133752
0.00126335
0.00131055
0.00128244
0.00128162
0.00130158
0.00125093
0.00132071
0.0012187
0.00133977
0.00118514
0.00135869
0.00115045
0.00137743
0.00111484
0.00139592
0.0010785
0.00141411
0.00104165
0.00143195
0.0014688
0.00144938
0.00161637
0.00124375
0.00155637
0.00108991
0.0014964
0.00109741
0.00143689
0.00110421
0.00137805
0.00111041
0.00132008
0.00111611
0.00126314
0.00112135
0.00120733
0.00112616
0.00115274
0.00113053
0.00109943
0.00113448
0.00104746
0.00113799
0.000996925
0.00114108
0.000947897
0.00114377
0.000900456
0.00114607
0.000854675
0.00114802
0.000810606
0.00114963
0.000768284
0.00115094
0.000727725
0.00115197
0.000688926
0.00115271
0.000651872
0.00115319
0.000616532
0.0011534
0.000582869
0.00115335
0.000550839
0.00115302
0.000520394
0.00115241
0.000516782
0.00115153
0.000517305
0.00115483
0.000517825
0.0011583
0.000518339
0.00116188
0.000518842
0.00116555
0.000519333
0.00116924
0.000519809
0.00117292
0.00052027
0.00117654
0.000520715
0.00118006
0.000521147
0.00118344
0.000521567
0.00118662
0.000521978
0.00118957
0.000523632
0.00119225
0.000525818
0.00119462
0.00052816
0.00119663
0.000530655
0.00119825
0.000533301
0.00119943
0.000536095
0.00120015
0.000539036
0.00120037
0.000542121
0.00120006
0.000545346
0.00119919
0.00054871
0.00119772
0.000552208
0.00119563
0.000555836
0.00119291
0.000559591
0.00118952
0.000563468
0.00118546
0.000567462
0.00118071
0.000571567
0.00117527
0.000575779
0.00116912
0.000580089
0.00116227
0.00058449
0.00115472
0.000588976
0.00114648
0.000593536
0.00113757
0.000598162
0.00112799
0.000602842
0.00111777
0.000607564
0.00110694
0.000612316
0.00109551
0.000617085
0.00108353
0.000621856
0.00107103
0.000626617
0.00105803
0.000631355
0.0010446
0.00063606
0.00103077
0.000640723
0.00101661
0.000645342
0.00100216
0.000649917
0.000987508
0.000654453
0.000972726
0.000658962
0.000957901
0.00066346
0.000943131
0.000667969
0.000928518
0.000672515
0.000914171
0.000677126
0.000900203
0.000681831
0.000886724
0.000686662
0.000873842
0.000691645
0.000861657
0.000696804
0.000850259
0.000702157
0.000839721
0.000707719
0.000830106
0.000713497
0.000821459
0.000719499
0.000813815
0.000725736
0.000807198
0.000732236
0.00080163
0.000739049
0.000797143
0.000746263
0.000793786
0.000754006
0.00079164
0.000762421
0.000790816
0.000771645
0.000791438
0.000781772
0.000793609
0.000792872
0.000797385
0.00080504
0.000802769
0.000818427
0.000809763
0.000833163
0.000818377
0.000849216
0.000828558
0.000866534
0.000840074
0.000917476
0.000852723
0.00147602
0.00147699
0.00111832
0.00147483
0.00113767
0.00146956
0.00115738
0.0014612
0.00117744
0.00144983
0.00119783
0.00143551
0.00121853
0.00141838
0.00123951
0.00139855
0.00126071
0.00137618
0.0012821
0.00135143
0.00130363
0.00132449
0.00132522
0.00129555
0.00134683
0.00126482
0.00136839
0.0012325
0.00138984
0.0011988
0.00141111
0.00116393
0.00143214
0.00112809
0.00145287
0.00109151
0.00147324
0.00105436
0.00149319
0.00147399
0.00151268
0.00161642
0.00129918
0.00155714
0.0011387
0.00149762
0.00114715
0.00143844
0.001155
0.00137985
0.00116225
0.00132205
0.00116898
0.00126519
0.00117521
0.00120939
0.00118096
0.00115474
0.00118623
0.00110133
0.00119102
0.00104924
0.00119533
0.00099858
0.00119916
0.000949435
0.00120252
0.000901899
0.00120544
0.000856046
0.00120795
0.00081193
0.00121008
0.000769584
0.00121186
0.00072902
0.00121331
0.000690231
0.00121444
0.000653197
0.00121527
0.000617885
0.00121579
0.000584256
0.00121601
0.000552263
0.00121592
0.000521856
0.00121553
0.000517613
0.00121483
0.000518162
0.00121751
0.000518691
0.00122033
0.000519196
0.00122325
0.000519674
0.00122623
0.000520122
0.00122922
0.00052054
0.00123218
0.000520926
0.00123505
0.000521282
0.00123781
0.00052161
0.0012404
0.000521911
0.00124278
0.000523726
0.00124491
0.00052586
0.00124676
0.000528158
0.00124827
0.000530621
0.00124942
0.000533245
0.00125015
0.000536029
0.00125045
0.00053897
0.00125027
0.000542067
0.00124957
0.000545318
0.00124834
0.000548719
0.00124653
0.000552269
0.00124413
0.000555963
0.0012411
0.000559797
0.00123743
0.000563767
0.0012331
0.000567868
0.0012281
0.000572095
0.0012224
0.000576439
0.00121601
0.000580896
0.00120892
0.000585455
0.00120113
0.000590108
0.00119266
0.000594845
0.00118349
0.000599656
0.00117366
0.000604528
0.00116318
0.000609447
0.00115206
0.000614399
0.00114034
0.000619369
0.00112804
0.000624341
0.0011152
0.000629297
0.00110184
0.000634223
0.00108801
0.000639102
0.00107375
0.000643923
0.00105911
0.000648676
0.00104414
0.000653356
0.00102891
0.000657963
0.00101348
0.000662503
0.000997931
0.000666987
0.00098235
0.000671433
0.000966834
0.000675863
0.000951484
0.000680305
0.000936407
0.00068479
0.000921713
0.00068935
0.000907511
0.000694022
0.000893905
0.000698837
0.000880993
0.000703829
0.000868861
0.000709028
0.000857586
0.000714459
0.000847231
0.000720144
0.000837844
0.000726101
0.000829461
0.000732353
0.000822109
0.000738928
0.000815808
0.000745875
0.000810583
0.000753277
0.000806472
0.000761253
0.000803543
0.000769945
0.000801891
0.000779496
0.000801634
0.000790016
0.00080288
0.000801591
0.000805693
0.000814321
0.000810091
0.00082836
0.000816078
0.000843845
0.000823665
0.000860739
0.000832797
0.000878914
0.000843216
0.000927814
0.000854614
0.0014899
0.00149113
0.00113639
0.00148923
0.00115843
0.00148421
0.0011808
0.0014761
0.00120349
0.00146495
0.00122649
0.00145084
0.00124978
0.00143388
0.00127331
0.00141419
0.00129705
0.00139191
0.00132094
0.00136722
0.00134494
0.0013403
0.00136898
0.00131132
0.001393
0.00128051
0.00141692
0.00124806
0.00144069
0.00121418
0.00146424
0.0011791
0.0014875
0.001143
0.00151041
0.00110611
0.0015329
0.00106862
0.00155492
0.00147923
0.00157642
0.00161638
0.00135554
0.00155766
0.00118804
0.00149857
0.00119739
0.00143973
0.00120623
0.00138142
0.00121446
0.0013238
0.00122215
0.00126705
0.00122931
0.00121128
0.00123596
0.00115659
0.00124209
0.00110309
0.00124768
0.0010509
0.00125274
0.00100012
0.00125726
0.000950876
0.00126126
0.00090326
0.00126477
0.000857352
0.00126782
0.000813205
0.00127045
0.000770849
0.00127267
0.000730293
0.00127453
0.000691526
0.00127603
0.000654523
0.00127719
0.000619249
0.00127802
0.000585662
0.00127851
0.000553712
0.00127866
0.00052335
0.00127848
0.000518258
0.00127797
0.000518826
0.00128003
0.000519357
0.00128221
0.000519847
0.00128447
0.000520293
0.00128677
0.000520692
0.00128906
0.000521045
0.00129129
0.000521351
0.00129343
0.00052161
0.00129543
0.000522266
0.00129724
0.000524155
0.00129883
0.00052622
0.00130014
0.00052846
0.00130116
0.000530872
0.00130182
0.000533457
0.00130211
0.000536211
0.00130197
0.000539133
0.00130138
0.000542223
0.00130029
0.000545478
0.00129869
0.000548897
0.00129654
0.000552476
0.0012938
0.000556215
0.00129047
0.000560108
0.0012865
0.000564152
0.00128189
0.000568343
0.00127662
0.000572673
0.00127067
0.000577138
0.00126403
0.000581729
0.00125669
0.000586437
0.00124866
0.000591253
0.00123994
0.000596165
0.00123053
0.000601163
0.00122044
0.000606231
0.00120969
0.000611355
0.00119829
0.000616519
0.00118627
0.000621706
0.00117366
0.000626897
0.00116047
0.000632074
0.00114675
0.000637216
0.00113253
0.000642306
0.00111784
0.000647325
0.00110274
0.00065226
0.00108727
0.000657099
0.00107148
0.000661836
0.00105543
0.00066647
0.00103921
0.000671008
0.00102287
0.000675461
0.00100652
0.000679848
0.000990237
0.000684192
0.000974135
0.000688525
0.000958315
0.000692878
0.000942885
0.000697289
0.000927951
0.000701798
0.000913615
0.000706443
0.000899973
0.000711266
0.000887111
0.000716305
0.000875102
0.000721596
0.000864011
0.000727175
0.000853887
0.000733069
0.000844768
0.000739309
0.000836679
0.000745929
0.00082964
0.00075298
0.000823669
0.00076054
0.000818797
0.000768724
0.000815079
0.000777677
0.0008126
0.000787546
0.000811471
0.000798457
0.000811801
0.000810508
0.000813666
0.000823806
0.000817093
0.000838508
0.000822091
0.000854759
0.000828669
0.000872524
0.000836774
0.000891606
0.000846136
0.00093878
0.000856352
0.00150583
0.00150729
0.00115617
0.00150564
0.00118081
0.00150086
0.00120576
0.00149298
0.001231
0.00148204
0.00125653
0.00146811
0.00128232
0.0014513
0.00130833
0.00143173
0.00133453
0.00140953
0.00136085
0.00138487
0.00138725
0.00135793
0.00141366
0.0013289
0.00144001
0.00129797
0.00146624
0.00126536
0.00149227
0.00123127
0.00151803
0.00119593
0.00154346
0.00115953
0.00156848
0.0011223
0.00159303
0.00108442
0.00161706
0.00148402
0.00164051
0.00161602
0.00141314
0.00155776
0.00123813
0.00149906
0.00124839
0.00144057
0.00125818
0.00138254
0.00126735
0.00132514
0.00127595
0.00126853
0.00128399
0.00121282
0.00129148
0.00115813
0.00129841
0.00110459
0.00130475
0.00105233
0.00131051
0.00100148
0.00131567
0.000952173
0.00132026
0.00090451
0.0013243
0.000858575
0.00132784
0.000814423
0.00133091
0.00077208
0.00133355
0.00073155
0.00133578
0.00069282
0.00133762
0.000655861
0.00133909
0.000620635
0.0013402
0.000587096
0.00134094
0.000555196
0.00134131
0.000524883
0.00134133
0.000518709
0.00134098
0.00051929
0.00134242
0.000519816
0.00134396
0.000520283
0.00134556
0.000520689
0.00134718
0.000521032
0.00134877
0.000521312
0.00135028
0.00052153
0.00135168
0.000523123
0.00135292
0.000524919
0.00135396
0.000526901
0.00135475
0.000529067
0.00135526
0.000531414
0.00135544
0.000533942
0.00135527
0.00053665
0.00135469
0.000539536
0.00135368
0.0005426
0.00135221
0.00054584
0.00135023
0.000549256
0.00134772
0.000552846
0.00134465
0.000556608
0.00134099
0.00056054
0.00133673
0.000564638
0.00133183
0.000568898
0.00132628
0.000573315
0.00132006
0.000577882
0.00131316
0.000582593
0.00130558
0.000587439
0.0012973
0.000592409
0.00128833
0.000597492
0.00127867
0.000602674
0.00126832
0.000607942
0.0012573
0.000613279
0.00124563
0.000618666
0.00123332
0.000624086
0.00122039
0.000629517
0.00120687
0.000634937
0.00119279
0.000640325
0.00117818
0.000645658
0.00116308
0.000650915
0.00114753
0.000656076
0.00113157
0.000661123
0.00111525
0.000666046
0.00109863
0.000670836
0.00108176
0.000675492
0.00106471
0.00068002
0.00104758
0.000684434
0.00103043
0.000688752
0.00101338
0.000693001
0.000996509
0.000697213
0.000979934
0.000701425
0.000963757
0.000705676
0.000948084
0.000710011
0.000933013
0.000714476
0.000918638
0.000719118
0.000905042
0.000723986
0.000892301
0.000729125
0.000880474
0.000734578
0.000869614
0.000740386
0.000859757
0.000746587
0.000850928
0.000753222
0.000843144
0.000760344
0.00083642
0.000768031
0.000830778
0.000776398
0.000826265
0.00078559
0.000822956
0.000795764
0.000820959
0.000807056
0.000820382
0.000819577
0.00082131
0.000833441
0.000823779
0.000848805
0.000827801
0.000865822
0.000833386
0.000884468
0.000840484
0.000904485
0.000848822
0.000950227
0.000857918
0.00152375
0.00152543
0.00117768
0.001524
0.00120483
0.00151945
0.00123226
0.00151178
0.00125996
0.00150104
0.00128793
0.00148728
0.00131614
0.00147061
0.00134456
0.00145113
0.00137313
0.00142899
0.00140181
0.00140435
0.00143053
0.00137736
0.00145923
0.00134824
0.00148785
0.00131717
0.0015163
0.00128436
0.00154451
0.00125003
0.00157241
0.00121439
0.00159993
0.00117765
0.001627
0.00114003
0.00165355
0.00110172
0.00167952
0.00148894
0.00170485
0.00161603
0.00147069
0.00155821
0.00128782
0.0014999
0.00129895
0.00144174