/*--------------------------------*- C++ -*----------------------------------*\
| =========                 |                                                 |
| \\      /  F ield         | OpenFOAM: The Open Source CFD Toolbox           |
|  \\    /   O peration     | Version:  2.2.x                                 |
|   \\  /    A nd           | Web:      www.OpenFOAM.org                      |
|    \\/     M anipulation  |                                                 |
\*---------------------------------------------------------------------------*/
FoamFile
{
    version     2.0;
    format      ascii;
    class       surfaceScalarField;
    location    "1";
    object      phi;
}
// * * * * * * * * * * * * * * * * * * * * * * * * * * * * * * * * * * * * * //

dimensions      [1 0 -1 0 0 0 0];

internalField   nonuniform List<scalar> 
28084
(
0.00174119
0.00173364
0.00172716
0.00172171
0.00171724
0.0017137
0.00171103
0.00170917
0.00170807
0.00170766
0.00170788
0.00170867
0.00170996
0.00171169
0.0017138
0.00171622
0.0017189
0.00172179
0.00172482
0.00172796
0.00173114
0.00173433
0.00173749
0.00174057
0.00174355
0.00174639
0.00174907
0.00175155
0.00175382
0.00175585
0.00175764
0.00175915
0.00176039
0.00176133
0.00176197
0.00176229
0.00176229
0.00176197
0.00176131
0.00176031
0.00175896
0.00175724
0.00175484
0.00175375
0.0017437
0.00175824
0.00177247
0.00177706
0.00177911
0.00178727
0.00180115
0.00181481
0.00182671
0.00183376
0.00183529
0.00183246
0.00183642
0.00184794
0.00185881
0.00186674
0.00186716
0.00186067
0.00184889
0.00184454
0.00184843
0.00185066
0.00184879
0.00183882
0.00181802
0.00179588
0.00178374
0.00177762
0.00176815
0.00175196
0.00172826
0.00169353
0.00166574
0.00164793
0.00162918
0.00160605
0.00157653
0.00153479
0.00149675
0.00146931
0.00144258
0.00141254
0.00137726
0.00133188
0.00129059
0.00125829
0.00122673
0.00119225
0.00115302
0.0011082
0.00107017
0.00103804
0.00100535
0.00097015
0.00092959
0.000890748
0.000858111
0.000826768
0.000793932
0.000757111
0.000719762
0.000686845
0.000654341
0.000619308
0.000579542
0.000536986
0.000492963
0.000446423
0.000394295
0.000335671
0.000275848
0.000215234
0.000150324
7.86201e-05
8.66109e-06
7.54863e-06
0.00174939
6.47668e-06
0.00174716
5.44921e-06
0.00174594
4.47006e-06
0.00174568
3.54277e-06
0.00174633
2.67052e-06
0.00174786
1.85605e-06
0.0017502
1.10164e-06
0.0017533
4.09011e-07
0.00175709
-2.20687e-07
0.00176151
-7.86861e-07
0.00176649
-1.2895e-06
0.00177197
-1.72913e-06
0.00177786
-2.10681e-06
0.00178412
-2.42407e-06
0.00179066
-2.68288e-06
0.00179743
-2.88556e-06
0.00180435
-3.03476e-06
0.00181137
-3.13337e-06
0.00181842
-3.18447e-06
0.00182546
-3.19125e-06
0.00183243
-3.15699e-06
0.00183929
-3.08497e-06
0.00184598
-2.97845e-06
0.00185247
-2.84059e-06
0.00185872
-2.67445e-06
0.0018647
-2.48295e-06
0.00187039
-2.26884e-06
0.00187574
-2.03466e-06
0.00188075
-1.78276e-06
0.00188539
-1.5153e-06
0.00188965
-1.23418e-06
0.0018935
-9.41099e-07
0.00189695
-6.37555e-07
0.00189998
-3.24805e-07
0.00190257
-3.92174e-09
0.00190474
3.24238e-07
0.00190646
6.59001e-07
0.00190773
9.99915e-07
0.00190855
1.34724e-06
0.00190892
1.70548e-06
0.00190884
2.29935e-06
0.00190827
5.58756e-07
0.00190682
9.11044e-06
0.00190599
-1.41183e-05
0.00189268
-1.00491e-05
0.0019029
-9.23168e-06
0.00191457
-9.00643e-06
0.00191629
-8.87802e-06
0.00191526
-8.79946e-06
0.00192082
-8.66454e-06
0.00193252
-8.39512e-06
0.00194394
-7.92906e-06
0.00195342
-7.26058e-06
0.00195762
-6.42069e-06
0.00195592
-5.61768e-06
0.00194952
-4.80263e-06
0.00195049
-3.93608e-06
0.00195962
-2.95334e-06
0.00196807
-1.77588e-06
0.00197343
-4.30094e-07
0.00197088
1.0376e-06
0.00196112
2.49205e-06
0.00194582
3.94055e-06
0.00193846
5.39931e-06
0.00193986
6.92472e-06
0.00193961
8.55271e-06
0.0019351
1.02754e-05
0.00192224
1.19959e-05
0.0018981
1.36713e-05
0.00187279
1.53248e-05
0.00185801
1.6958e-05
0.00184957
1.8592e-05
0.00183768
2.02225e-05
0.00181886
2.18225e-05
0.00179234
2.33781e-05
0.00175454
2.4896e-05
0.00172399
2.63613e-05
0.00170381
2.77715e-05
0.00168273
2.91208e-05
0.00165721
3.03756e-05
0.00162517
3.15616e-05
0.0015807
3.26926e-05
0.0015401
3.36808e-05
0.00151043
3.45432e-05
0.00148162
3.52749e-05
0.00144957
3.5864e-05
0.00141222
3.64089e-05
0.00136474
3.68763e-05
0.00132135
3.71322e-05
0.00128705
3.7211e-05
0.00125363
3.71442e-05
0.00121743
3.70171e-05
0.00117651
3.69852e-05
0.00113007
3.68843e-05
0.00109027
3.65781e-05
0.00105636
3.61038e-05
0.00102198
3.55606e-05
0.000985126
3.51199e-05
0.000943067
3.48175e-05
0.000902658
3.45379e-05
0.000868387
3.42506e-05
0.000835413
3.40824e-05
0.000800957
3.41054e-05
0.000762576
3.44008e-05
0.000723815
3.50379e-05
0.000689538
3.61541e-05
0.000655687
3.8004e-05
0.00061924
4.07157e-05
0.000578401
4.4116e-05
0.000535133
4.84908e-05
0.000491516
5.32467e-05
0.000446279
5.65185e-05
0.000396554
5.89097e-05
0.000340411
6.16603e-05
0.000281041
6.57051e-05
0.000219467
7.07024e-05
0.000153618
7.87262e-05
8.04023e-05
1.19281e-05
9.77838e-06
0.00176035
7.7027e-06
0.00176337
5.71085e-06
0.00176733
3.81222e-06
0.00177219
2.01555e-06
0.00177791
3.28676e-07
0.00178445
-1.24153e-06
0.00179175
-2.68939e-06
0.00179974
-4.01043e-06
0.00180837
-5.20151e-06
0.00181756
-6.26081e-06
0.00182725
-7.1878e-06
0.00183736
-7.98325e-06
0.00184782
-8.6491e-06
0.00185855
-9.1884e-06
0.00186948
-9.60519e-06
0.00188053
-9.90436e-06
0.00189165
-1.00915e-05
0.00190276
-1.01728e-05
0.00191379
-1.01549e-05
0.0019247
-1.00447e-05
0.00193541
-9.84932e-06
0.00194589
-9.57582e-06
0.00195608
-9.2313e-06
0.00196594
-8.82267e-06
0.00197543
-8.35657e-06
0.00198452
-7.83937e-06
0.00199318
-7.27704e-06
0.00200138
-6.67513e-06
0.00200909
-6.03876e-06
0.00201631
-5.37258e-06
0.00202301
-4.68076e-06
0.00202919
-3.96698e-06
0.00203482
-3.23445e-06
0.00203991
-2.4859e-06
0.00204444
-1.72362e-06
0.00204842
-9.49448e-07
0.00205184
-1.64809e-07
0.00205469
6.29343e-07
0.00205698
1.43359e-06
0.0020587
2.25823e-06
0.00205986
3.63914e-06
0.00206044
8.13928e-07
0.00206013
2.13845e-05
0.00206022
-2.38944e-05
0.00204773
-1.71346e-05
0.00205539
-1.59944e-05
0.00206433
-1.56001e-05
0.00206266
-1.52489e-05
0.00205819
-1.49546e-05
0.002061
-1.45925e-05
0.00207054
-1.39954e-05
0.00207978
-1.30528e-05
0.00208691
-1.17582e-05
0.00208837
-1.01193e-05
0.00208352
-8.43921e-06
0.00207362
-6.7158e-06
0.00207165
-4.93416e-06
0.00207843
-2.96107e-06
0.00208456
-6.4272e-07
0.00208744
1.98454e-06
0.00208196
4.89215e-06
0.00206897
7.85341e-06
0.00205013
1.08263e-05
0.00203973
1.37624e-05
0.00203864
1.67934e-05
0.0020359
1.99853e-05
0.00202881
2.33254e-05
0.00201304
2.67278e-05
0.0019856
3.00927e-05
0.0019571
3.34081e-05
0.00193966
3.66482e-05
0.00192879
3.98767e-05
0.00191438
4.30818e-05
0.00189284
4.62071e-05
0.00186338
4.93228e-05
0.00182238
5.23897e-05
0.00178895
5.53251e-05
0.00176618
5.81193e-05
0.00174253
6.07597e-05
0.00171438
6.31886e-05
0.00167962
6.54794e-05
0.0016322
6.76702e-05
0.00158892
6.9606e-05
0.00155687
7.12593e-05
0.00152577
7.26556e-05
0.00149144
7.37636e-05
0.00145183
7.47528e-05
0.00140209
7.5605e-05
0.00135647
7.61333e-05
0.00132003
7.63221e-05
0.00128459
7.62027e-05
0.00124646
7.58694e-05
0.0012037
7.56515e-05
0.00115555
7.53532e-05
0.00111388
7.47164e-05
0.00107803
7.37848e-05
0.00104177
7.27307e-05
0.00100304
7.19125e-05
0.000959395
7.12989e-05
0.000917319
7.06738e-05
0.000881168
7.00531e-05
0.000846269
6.96557e-05
0.000809842
6.96453e-05
0.000769571
7.02363e-05
0.000728943
7.146e-05
0.000692755
7.36816e-05
0.000657053
7.71819e-05
0.000618905
8.19018e-05
0.000576659
8.79731e-05
0.00053235
9.55261e-05
0.000488584
0.000103795
0.00044323
0.000110901
0.000393799
0.000117405
0.000338349
0.000123953
0.000280094
0.000132727
0.000218976
0.000143099
0.000153228
0.00015894
8.00695e-05
9.87125e-06
6.75719e-06
0.00177405
3.74382e-06
0.00178225
8.48654e-07
0.00179132
-1.91163e-06
0.00180123
-4.52152e-06
0.00181195
-6.96697e-06
0.00182343
-9.23574e-06
0.00183562
-1.13175e-05
0.00184844
-1.32041e-05
0.00186184
-1.48895e-05
0.00187575
-1.63702e-05
0.00189008
-1.76445e-05
0.00190477
-1.87131e-05
0.00191973
-1.95789e-05
0.00193488
-2.02462e-05
0.00195014
-2.07213e-05
0.00196544
-2.1012e-05
0.00198069
-2.11271e-05
0.00199584
-2.10764e-05
0.00201081
-2.08707e-05
0.00202552
-2.05211e-05
0.00203994
-2.00389e-05
0.00205399
-1.94358e-05
0.00206764
-1.87232e-05
0.00208082
-1.79122e-05
0.00209351
-1.70137e-05
0.00210567
-1.60379e-05
0.00211726
-1.49946e-05
0.00212827
-1.38928e-05
0.00213866
-1.27407e-05
0.00214842
-1.15459e-05
0.00215754
-1.03151e-05
0.002166
-9.05429e-06
0.00217379
-7.76862e-06
0.00218091
-6.46247e-06
0.00218736
-5.13952e-06
0.00219313
-3.80269e-06
0.00219822
-2.45425e-06
0.00220263
-1.09572e-06
0.00220637
2.73262e-07
0.00220943
1.66307e-06
0.00221182
3.83863e-06
0.00221353
1.04249e-07
0.00221436
3.2736e-05
0.0022154
-3.10975e-05
0.00220583
-2.11142e-05
0.0022135
-1.97873e-05
0.00222192
-1.94282e-05
0.00221798
-1.89501e-05
0.00221063
-1.84553e-05
0.00221089
-1.7841e-05
0.00221831
-1.69143e-05
0.0022254
-1.54977e-05
0.00223024
-1.35614e-05
0.00222909
-1.11263e-05
0.0022213
-8.52975e-06
0.00220808
-5.81356e-06
0.00220313
-3.09243e-06
0.0022074
-1.06645e-07
0.00221116
3.34541e-06
0.00221162
7.25934e-06
0.00220332
1.15927e-05
0.00218715
1.60837e-05
0.00216486
2.0613e-05
0.00215139
2.50392e-05
0.00214773
2.95543e-05
0.00214248
3.42846e-05
0.00213281
3.92139e-05
0.00211419
4.42613e-05
0.0020836
4.93118e-05
0.00205212
5.42903e-05
0.00203199
5.91333e-05
0.00201858
6.39359e-05
0.00200157
6.87083e-05
0.00197729
7.33603e-05
0.00194488
7.80366e-05
0.00190084
8.26858e-05
0.00186451
8.70955e-05
0.00183902
9.12446e-05
0.00181272
9.51075e-05
0.00178195
9.85999e-05
0.00174455
0.000101911
0.00169441
0.000105114
0.00164854
0.000107983
0.00161392
0.00011042
0.00158035
0.000112384
0.00154361
0.000113851
0.00150161
0.000115153
0.00144967
0.000116352
0.00140182
0.000117178
0.00136298
0.0001175
0.00132513
0.000117289
0.00128469
0.000116661
0.00123971
0.000116103
0.00118959
0.00011552
0.00114588
0.000114609
0.00110769
0.000113351
0.00106911
0.000111832
0.00102811
0.000110512
0.00098243
0.000109526
0.000938351
0.000108616
0.00089999
0.000107728
0.000862825
0.000107112
0.000824167
0.000107115
0.00078182
0.00010796
0.00073923
0.000109726
0.000700904
0.000112841
0.00066306
0.000117708
0.00062289
0.000124162
0.000578753
0.000132437
0.000533374
0.000142467
0.00048889
0.000153751
0.000442838
0.000164533
0.000392972
0.000174956
0.000337627
0.000185702
0.00027989
0.000199743
0.000219235
0.000216006
0.000153725
0.000238417
8.04229e-05
2.56937e-06
-1.43874e-06
0.00179051
-5.32607e-06
0.0018038
-9.06565e-06
0.0018179
-1.26318e-05
0.00183278
-1.60005e-05
0.00184842
-1.91502e-05
0.00186477
-2.2062e-05
0.00188176
-2.47196e-05
0.00189935
-2.71103e-05
0.00191745
-2.92245e-05
0.001936
-3.1056e-05
0.00195492
-3.26019e-05
0.00197411
-3.38625e-05
0.00199351
-3.48411e-05
0.00201301
-3.55437e-05
0.00203254
-3.59789e-05
0.00205202
-3.61575e-05
0.00207136
-3.60918e-05
0.00209048
-3.5796e-05
0.00210932
-3.52851e-05
0.0021278
-3.4575e-05
0.00214586
-3.3682e-05
0.00216344
-3.26226e-05
0.00218049
-3.14132e-05
0.00219695
-3.00698e-05
0.0022128
-2.8608e-05
0.00222798
-2.70424e-05
0.00224247
-2.53869e-05
0.00225623
-2.36545e-05
0.00226926
-2.18571e-05
0.00228153
-2.00053e-05
0.00229303
-1.81089e-05
0.00230374
-1.61762e-05
0.00231366
-1.42148e-05
0.00232278
-1.22307e-05
0.00233111
-1.02293e-05
0.00233865
-8.21463e-06
0.00234539
-6.18987e-06
0.00235133
-4.15721e-06
0.00235649
-2.11696e-06
0.00236087
-6.24478e-08
0.00236447
2.88807e-06
0.00236729
-1.59909e-06
0.0023692
4.10561e-05
0.00237061
-3.82713e-05
0.00236137
-2.41659e-05
0.00236704
-2.17122e-05
0.00237341
-2.10054e-05
0.00236668
-2.02351e-05
0.00235613
-1.9449e-05
0.00235373
-1.85316e-05
0.00235906
-1.72137e-05
0.00236406
-1.52887e-05
0.00236671
-1.27118e-05
0.00236306
-9.44714e-06
0.00235238
-5.93695e-06
0.0023361
-2.23547e-06
0.0023286
1.53838e-06
0.00233096
5.56708e-06
0.00233283
1.0216e-05
0.00233129
1.54492e-05
0.00232065
2.11982e-05
0.00230179
2.71465e-05
0.00227661
3.31684e-05
0.00226062
3.91031e-05
0.002255
4.51417e-05
0.00224788
5.14277e-05
0.00223626
5.79398e-05
0.00221544
6.4575e-05
0.00218235
7.12834e-05
0.00214846
7.79368e-05
0.00212608
8.44135e-05
0.00211069
9.08444e-05
0.0020918
9.71819e-05
0.00206554
0.000103384
0.00203095
0.000109581
0.0019848
0.000115744
0.00194637
0.000121635
0.00191863
0.00012712
0.00189008
0.000132134
0.00185711
0.000136598
0.00181753
0.000140833
0.00176533
0.000145017
0.00171728
0.000148828
0.00168011
0.000152067
0.00164392
0.000154561
0.0016047
0.000156314
0.00156033
0.000157843
0.00150643
0.000159324
0.00145653
0.000160417
0.00141514
0.000160849
0.00137458
0.000160551
0.00133141
0.000159689
0.00128381
0.000158794
0.00123138
0.000157897
0.00118544
0.000156676
0.00114463
0.000155082
0.00110328
0.000153236
0.00105969
0.000151302
0.0010115
0.000149878
0.000965257
0.000148653
0.000924375
0.000147525
0.000884521
0.00014675
0.00084324
0.000146728
0.000798526
0.000147765
0.00075394
0.000150006
0.000713389
0.000153907
0.000673333
0.000159925
0.000631193
0.000167862
0.000585272
0.000177941
0.000538981
0.00019001
0.000493807
0.000203865
0.000447164
0.000217858
0.000396852
0.000232135
0.000341708
0.000247267
0.00028414
0.00026648
0.000223566
0.000289035
0.000157338
0.000318303
8.21551e-05
-9.88994e-06
-1.47245e-05
0.00180973
-1.94246e-05
0.00182801
-2.3952e-05
0.00184705
-2.82702e-05
0.00186682
-3.23454e-05
0.00188729
-3.61469e-05
0.00190842
-3.96477e-05
0.00193014
-4.28248e-05
0.00195241
-4.56597e-05
0.00197514
-4.81385e-05
0.00199825
-5.02519e-05
0.00202167
-5.19951e-05
0.0020453
-5.33677e-05
0.00206906
-5.43735e-05
0.00209285
-5.50202e-05
0.00211658
-5.53186e-05
0.00214017
-5.52829e-05
0.00216352
-5.49294e-05
0.00218656
-5.42767e-05
0.00220921
-5.33447e-05
0.00223139
-5.21548e-05
0.00225303
-5.07285e-05
0.00227408
-4.90879e-05
0.00229448
-4.72549e-05
0.00231417
-4.52509e-05
0.00233311
-4.30966e-05
0.00235126
-4.08116e-05
0.00236859
-3.84147e-05
0.00238508
-3.59229e-05
0.0024007
-3.33522e-05
0.00241543
-3.0717e-05
0.00242927
-2.80299e-05
0.00244219
-2.53025e-05
0.00245421
-2.25444e-05
0.0024653
-1.97639e-05
0.00247548
-1.69679e-05
0.00248475
-1.41618e-05
0.00249311
-1.13498e-05
0.00250057
-8.53487e-06
0.00250713
-5.7179e-06
0.0025128
-2.89535e-06
0.00251759
8.61523e-07
0.0025215
-3.72946e-06
0.00252448
4.89367e-05
0.00252599
-4.34569e-05
0.00251591
-2.47105e-05
0.00251792
-2.1174e-05
0.00252132
-2.00567e-05
0.00251158
-1.89547e-05
0.00249769
-1.79027e-05
0.00249227
-1.67089e-05
0.00249481
-1.50464e-05
0.00249697
-1.26569e-05
0.00249666
-9.44348e-06
0.00248981
-5.33548e-06
0.00247564
-8.53365e-07
0.00245591
3.84794e-06
0.00244516
8.63605e-06
0.00244428
1.37054e-05
0.00244262
1.94883e-05
0.00243735
2.59617e-05
0.00242319
3.30616e-05
0.00240074
4.04785e-05
0.00237271
4.79861e-05
0.0023539
5.54683e-05
0.00234526
6.30233e-05
0.00233493
7.08328e-05
0.00231975
7.88975e-05
0.00229594
8.70729e-05
0.00225969
9.53534e-05
0.00222384
0.000103703
0.00219935
0.000111852
0.00218113
0.000119889
0.00215929
0.000127767
0.00212993
0.000135523
0.00209225
0.000143233
0.00204418
0.000150885
0.00200435
0.00015835
0.00197471
0.000165254
0.00194382
0.000171446
0.0019081
0.000176937
0.00186606
0.000182015
0.00181196
0.000187108
0.00176309
0.000191948
0.0017251
0.000196011
0.0016875
0.000199116
0.00164638
0.000201361
0.00160018
0.00020306
0.00154469
0.000204662
0.00149418
0.00020597
0.00145227
0.000206551
0.0014108
0.000206262
0.00136641
0.000205254
0.00131715
0.00020411
0.00126414
0.000202913
0.00121794
0.000201323
0.001176
0.000199278
0.00113342
0.000196991
0.00108842
0.000194689
0.00103887
0.00019276
0.000991791
0.000191131
0.000949652
0.000189739
0.000908217
0.0001888
0.000865042
0.000188664
0.000818313
0.000189799
0.000772025
0.000192338
0.000729303
0.000196779
0.000686985
0.000203698
0.000642902
0.000212815
0.000595314
0.000224331
0.00054838
0.000238068
0.000502533
0.000254166
0.000455342
0.000271155
0.00040425
0.000289283
0.000348912
0.000308859
0.000290845
0.00033363
0.000229282
0.000363756
0.000161294
0.000400336
8.37938e-05
-2.74098e-05
-3.30063e-05
0.00183173
-3.84606e-05
0.00185491
-4.37216e-05
0.00187878
-4.87404e-05
0.00190333
-5.34718e-05
0.00192854
-5.78744e-05
0.00195435
-6.19121e-05
0.00198072
-6.55539e-05
0.00200758
-6.87748e-05
0.00203484
-7.15556e-05
0.00206244
-7.38833e-05
0.00209027
-7.57509e-05
0.00211826
-7.71572e-05
0.00214629
-7.81063e-05
0.00217429
-7.86072e-05
0.00220214
-7.86736e-05
0.00222976
-7.83231e-05
0.00225706
-7.75763e-05
0.00228394
-7.64567e-05
0.00231033
-7.49898e-05
0.00233614
-7.32024e-05
0.0023613
-7.11222e-05
0.00238575
-6.87774e-05
0.00240943
-6.61959e-05
0.00243229
-6.3405e-05
0.00245427
-6.04311e-05
0.00247534
-5.72994e-05
0.00249547
-5.40336e-05
0.00251462
-5.06558e-05
0.00253278
-4.7186e-05
0.00254993
-4.36428e-05
0.00256606
-4.00423e-05
0.00258116
-3.6399e-05
0.00259522
-3.27253e-05
0.00260825
-2.90318e-05
0.00262025
-2.5327e-05
0.00263121
-2.1618e-05
0.00264116
-1.79098e-05
0.0026501
-1.42062e-05
0.00265803
-1.05089e-05
0.00266497
-6.81771e-06
0.00267093
-2.23831e-06
0.00267591
-6.00446e-06
0.00267997
5.75123e-05
0.00268152
-4.51136e-05
0.00267208
-2.18698e-05
0.00267164
-1.76922e-05
0.00267248
-1.62907e-05
0.00265993
-1.47888e-05
0.00264294
-1.3377e-05
0.00263441
-1.18096e-05
0.00263386
-9.71542e-06
0.00263301
-6.78205e-06
0.00262967
-2.87845e-06
0.00261992
2.0117e-06
0.00260277
7.47922e-06
0.00258058
1.33315e-05
0.00256704
1.92229e-05
0.002563
2.54442e-05
0.00255809
3.23242e-05
0.00254959
3.9908e-05
0.00253244
4.8164e-05
0.00250692
5.68317e-05
0.00247689
6.59025e-05
0.00245575
7.49534e-05
0.00244404
8.39461e-05
0.00243042
9.31338e-05
0.00241155
0.000102632
0.00238469
0.000112248
0.00234529
0.000122067
0.00230743
0.000132134
0.00228044
0.00014198
0.00225864
0.000151528
0.00223306
0.000160876
0.0022
0.000169936
0.00215831
0.000179145
0.00210808
0.000188356
0.00206618
0.00019722
0.00203364
0.000205363
0.00199952
0.000212709
0.00196003
0.000219024
0.00191395
0.000224999
0.00185781
0.000230905
0.00180803
0.000236521
0.00176835
0.000241313
0.00172845
0.000245004
0.00168438
0.000247464
0.00163479
0.000249297
0.00157783
0.000251103
0.00152746
0.000252654
0.00148477
0.000253352
0.0014419
0.00025308
0.0013958
0.000251791
0.00134428
0.000250284
0.00129054
0.000248803
0.00124468
0.000247062
0.00120216
0.000244793
0.00115874
0.000242019
0.00111247
0.000239219
0.00106163
0.000236955
0.00101404
0.00023509
0.000970984
0.000233625
0.000928364
0.000232742
0.000883938
0.000232678
0.000835803
0.000233962
0.000789164
0.000236822
0.000745809
0.000241599
0.000702605
0.000248949
0.000657448
0.000258761
0.000608946
0.00027137
0.000561435
0.000286557
0.000514673
0.000304931
0.000466298
0.00032515
0.000413678
0.000347156
0.000357154
0.000371329
0.000297576
0.000402095
0.00023435
0.000440636
0.000164183
0.00048456
8.44282e-05
-4.98839e-05
-5.61806e-05
0.00185652
-6.23335e-05
0.00188448
-6.82765e-05
0.00191308
-7.39469e-05
0.00194231
-7.92862e-05
0.00197215
-8.42414e-05
0.00200255
-8.87658e-05
0.00203345
-9.28193e-05
0.0020648
-9.63695e-05
0.0020965
-9.93914e-05
0.00212848
-0.000101868
0.00216065
-0.000103789
0.00219289
-0.000105152
0.00222512
-0.000105962
0.00225723
-0.000106229
0.00228913
-0.00010597
0.0023207
-0.000105206
0.00235185
-0.000103962
0.0023825
-0.000102267
0.00241254
-0.000100153
0.00244191
-9.76531e-05
0.00247052
-9.48006e-05
0.0024983
-9.16307e-05
0.00252519
-8.81779e-05
0.00255114
-8.4476e-05
0.0025761
-8.05577e-05
0.00260003
-7.64541e-05
0.00262289
-7.21944e-05
0.00264465
-6.7806e-05
0.0026653
-6.33138e-05
0.00268481
-5.87403e-05
0.00270319
-5.41058e-05
0.00272041
-4.94279e-05
0.00273648
-4.47221e-05
0.0027514
-4.00011e-05
0.00276517
-3.52757e-05
0.00277781
-3.05542e-05
0.00278931
-2.5843e-05
0.00279969
-2.11465e-05
0.00280897
-1.64674e-05
0.00281715
-1.18103e-05
0.00282425
-6.4118e-06
0.00283028
-8.3432e-06
0.00283535
6.52902e-05
0.00283698
-4.44773e-05
0.00282903
-1.62891e-05
0.00282688
-1.11793e-05
0.00282558
-9.57777e-06
0.00281105
-7.8218e-06
0.00279194
-5.99166e-06
0.00278113
-3.9288e-06
0.002778
-1.28681e-06
0.00277446
2.23017e-06
0.00276834
6.78185e-06
0.00275595
1.24113e-05
0.00273623
1.8646e-05
0.00271228
2.54448e-05
0.0026969
3.25743e-05
0.00269053
4.0014e-05
0.00268284
4.81264e-05
0.00267117
5.68668e-05
0.00265107
6.6318e-05
0.00262265
7.60955e-05
0.00259117
8.65827e-05
0.00256841
9.72389e-05
0.0025541
0.000107855
0.00253723
0.000118562
0.00251445
0.000129426
0.00248387
0.000140546
0.00244142
0.000151823
0.00240168
0.000163646
0.0023726
0.000175288
0.00234677
0.000186477
0.00231717
0.000197255
0.00227947
0.000207575
0.00223271
0.000218066
0.00218023
0.000228702
0.00213668
0.000239048
0.00210079
0.000248456
0.00206268
0.000256711
0.00201862
0.000263725
0.00196748
0.000270428
0.00190893
0.000277091
0.00185802
0.00028336
0.00181548
0.000288647
0.00177201
0.000292572
0.00172398
0.00029505
0.00166967
0.000297119
0.00161044
0.000299224
0.00155969
0.00030087
0.00151504
0.000301478
0.00146927
0.000300821
0.00142035
0.000298835
0.00136499
0.000297015
0.00131038
0.000295484
0.0012644
0.000293681
0.00122064
0.000291233
0.00117525
0.000288044
0.00112664
0.000284744
0.00107426
0.000282168
0.00102703
0.000280182
0.000983882
0.000278674
0.000940644
0.000277732
0.00089539
0.000277505
0.000846225
0.000278871
0.000799868
0.000281987
0.000756374
0.000287245
0.000712679
0.000295151
0.000666503
0.000305711
0.000617092
0.000319264
0.000569129
0.000336044
0.000521756
0.000356957
0.00047235
0.000380641
0.000418652
0.000406684
0.000361425
0.00043555
0.000301298
0.00047246
0.000236989
0.000519624
0.000164901
0.000569517
8.33406e-05
-7.71956e-05
-8.41346e-05
0.00188413
-9.09334e-05
0.00191674
-9.75096e-05
0.00194995
-0.000103785
0.00198374
-0.000109686
0.0020181
-0.000115148
0.00205297
-0.00012011
0.00208831
-0.000124525
0.00212404
-0.000128349
0.00216007
-0.000131553
0.00219634
-0.000134114
0.00223272
-0.000136019
0.00226913
-0.000137264
0.00230545
-0.000137854
0.00234159
-0.000137801
0.00237742
-0.000137125
0.00241285
-0.00013585
0.00244777
-0.000134008
0.00248209
-0.000131633
0.00251571
-0.000128762
0.00254855
-0.000125435
0.00258052
-0.000121694
0.00261156
-0.000117581
0.00264159
-0.000113136
0.00267056
-0.000108402
0.00269843
-0.000103417
0.00272514
-9.82185e-05
0.00275066
-9.28425e-05
0.00277498
-8.73216e-05
0.00279805
-8.16859e-05
0.00281987
-7.59627e-05
0.00284044
-7.01761e-05
0.00285973
-6.43475e-05
0.00287776
-5.84954e-05
0.00289453
-5.26351e-05
0.00291003
-4.67794e-05
0.00292429
-4.09385e-05
0.00293731
-3.51197e-05
0.00294911
-2.93283e-05
0.0029597
-2.35682e-05
0.00296909
-1.78483e-05
0.00297731
-1.15964e-05
0.00298435
-1.07797e-05
0.00299037
7.14343e-05
0.00299222
-4.2472e-05
0.00298539
-8.63588e-06
0.0029812
-2.2275e-06
0.00297672
-5.38287e-07
0.00295994
1.45087e-06
0.00293903
3.7581e-06
0.0029265
6.39653e-06
0.00292036
9.66866e-06
0.00291329
1.38931e-05
0.00290345
1.91541e-05
0.00288792
2.5235e-05
0.00286411
3.20471e-05
0.00283958
3.98645e-05
0.00282405
4.82619e-05
0.0028156
5.70287e-05
0.00280432
6.65074e-05
0.00278801
7.66845e-05
0.00276477
8.70205e-05
0.00273173
9.79236e-05
0.00270002
0.00010983
0.00267835
0.000122204
0.00266188
0.000134654
0.00264149
0.000147209
0.00261358
0.000159637
0.00257804
0.000171936
0.00253275
0.00018477
0.00249356
0.000198401
0.00246508
0.00021198
0.00243606
0.000225118
0.00240283
0.000237548
0.00236128
0.000249006
0.00230859
0.000260601
0.002256
0.000272448
0.00221385
0.00028419
0.00217576
0.00029485
0.00213444
0.000304132
0.00208638
0.000311725
0.00202944
0.000319104
0.00196834
0.000326518
0.00191675
0.000333427
0.00187086
0.000339017
0.00182294
0.000342997
0.00177025
0.000345455
0.00171006
0.000347685
0.00164829
0.000349837
0.00159597
0.000351307
0.00154793
0.000351488
0.00149813
0.000350212
0.00144555
0.000347697
0.00138546
0.000345728
0.0013297
0.000344021
0.00128242
0.000341921
0.00123629
0.000338882
0.00118798
0.000334674
0.0011356
0.000330791
0.00108184
0.000327955
0.00103501
0.00032589
0.000990989
0.000324341
0.000946351
0.000323058
0.000898925
0.000322676
0.000848684
0.00032411
0.00080329
0.000327586
0.000760022
0.000333447
0.000715657
0.000341999
0.000668125
0.000353363
0.000617886
0.000368011
0.000569854
0.000386507
0.000522019
0.000409856
0.000471694
0.000436672
0.000416975
0.000466787
0.000359217
0.000501153
0.000299011
0.000544527
0.000234197
0.000600601
0.000160975
0.000653301
8.00284e-05
-0.000109218
-0.000116745
0.00191458
-0.00012414
0.00195171
-0.000131304
0.0019894
-0.00013814
0.00202763
-0.00014456
0.00206637
-0.000150483
0.0021056
-0.000155838
0.00214525
-0.000160564
0.00218524
-0.000164611
0.0022255
-0.000167939
0.00226593
-0.000170522
0.00230643
-0.000172343
0.00234689
-0.000173396
0.0023872
-0.000173688
0.00242725
-0.000173231
0.00246692
-0.000172048
0.00250611
-0.000170169
0.0025447
-0.000167629
0.0025826
-0.000164469
0.0026197
-0.000160733
0.00265592
-0.00015647
0.00269116
-0.000151727
0.00272536
-0.000146554
0.00275845
-0.000141
0.00279037
-0.000135114
0.00282106
-0.000128943
0.00285048
-0.00012253
0.0028786
-0.000115918
0.00290539
-0.000109146
0.00293083
-0.000102248
0.0029549
-9.52584e-05
0.00297759
-8.82046e-05
0.00299891
-8.11119e-05
0.00301884
-7.40021e-05
0.0030374
-6.68934e-05
0.00305459
-5.98007e-05
0.00307043
-5.27358e-05
0.00308493
-4.57076e-05
0.0030981
-3.8722e-05
0.00310997
-3.17837e-05
0.00312054
-2.49055e-05
0.00312984
-1.77312e-05
0.00313788
-1.34338e-05
0.0031448
7.63355e-05
0.00314715
-3.87879e-05
0.00314136
1.55699e-06
0.00313472
9.35829e-06
0.00312613
1.11639e-05
0.00310656
1.34906e-05
0.00308472
1.61926e-05
0.0030712
1.94403e-05
0.00306191
2.3325e-05
0.0030512
2.81472e-05
0.00303673
3.41397e-05
0.00301762
4.07681e-05
0.00298945
4.82944e-05
0.00296496
5.71669e-05
0.00295087
6.66212e-05
0.00293926
7.66756e-05
0.00292429
8.73237e-05
0.00290193
9.84651e-05
0.00287343
0.000110037
0.00283649
0.00012239
0.002805
0.00013608
0.0027843
0.000150002
0.00276348
0.000164099
0.00273887
0.000178299
0.00270509
0.000191933
0.00266176
0.00020573
0.00261509
0.000220524
0.00257812
0.000236024
0.00254898
0.000251324
0.00251702
0.000265923
0.00247877
0.000279569
0.00243366
0.000292262
0.00237634
0.000305449
0.00232447
0.000319083
0.00228427
0.000332224
0.0022441
0.000344164
0.00220034
0.000354479
0.00214899
0.000362852
0.00208722
0.000371192
0.00202587
0.000379637
0.00197607
0.000387275
0.00192859
0.000393334
0.00187827
0.0003973
0.00182187
0.000399568
0.00175658
0.000401889
0.00169285
0.000403831
0.00163896
0.000404831
0.00158719
0.000404383
0.00153328
0.000402264
0.00147553
0.000399621
0.00141184
0.000397389
0.00135499
0.000395093
0.0013054
0.000392112
0.00125602
0.00038807
0.00120442
0.000382913
0.00114781
0.000378605
0.00109294
0.000375355
0.00104528
0.000372697
0.000999614
0.000370542
0.000952701
0.000368504
0.000902037
0.000368195
0.000851053
0.00036995
0.000805598
0.000373819
0.000761524
0.000380182
0.000715642
0.000389192
0.000666252
0.000401607
0.000615524
0.000417627
0.000567041
0.000437892
0.000518347
0.000463465
0.000466741
0.00049312
0.00041104
0.000527114
0.000352924
0.000567283
0.00029275
0.000617695
0.00022734
0.000680955
0.000153804
0.000733934
7.58543e-05
-0.000145815
-0.000153878
0.0019479
-0.000161824
0.00198942
-0.000169532
0.00203144
-0.000176888
0.00207396
-0.000183786
0.00211697
-0.000190129
0.00216041
-0.000195832
0.00220424
-0.000200823
0.00224837
-0.00020504
0.00229273
-0.000208438
0.0023372
-0.000210982
0.00238169
-0.000212654
0.00242609
-0.000213445
0.00247027
-0.000213362
0.00251412
-0.000212419
0.00255752
-0.000210642
0.00260036
-0.000208065
0.00264251
-0.00020473
0.00268388
-0.000200684
0.00272436
-0.00019598
0.00276386
-0.000190671
0.00280228
-0.000184815
0.00283956
-0.000178469
0.00287561
-0.000171692
0.00291038
-0.000164538
0.00294382
-0.000157064
0.00297587
-0.00014932
0.00300651
-0.000141355
0.0030357
-0.000133215
0.00306343
-0.000124942
0.00308968
-0.000116571
0.00311444
-0.000108138
0.00313771
-9.96711e-05
0.00315949
-9.11953e-05
0.00317979
-8.2732e-05
0.00319862
-7.42985e-05
0.00321599
-6.59083e-05
0.00323192
-5.75715e-05
0.00324643
-4.92952e-05
0.00325953
-4.10845e-05
0.00327125
-3.29557e-05
0.0032816
-2.47791e-05
0.0032906
-1.65759e-05
0.0032984
8.00819e-05
0.00330162
-3.29484e-05
0.00329779
1.45966e-05
0.00328887
2.3936e-05
0.00327635
2.59572e-05
0.00325391
2.83775e-05
0.00323229
3.14002e-05
0.00321822
3.50411e-05
0.00320536
3.95314e-05
0.00319121
4.50098e-05
0.00317187
5.1509e-05
0.00314623
5.89702e-05
0.00311632
6.75338e-05
0.00309325
7.74689e-05
0.00307888
8.79642e-05
0.00306339
9.91415e-05
0.00304357
0.00011102
0.00301576
0.000123215
0.00297991
0.000136313
0.00294164
0.000150562
0.00291193
0.000165775
0.00288998
0.000181127
0.00286545
0.000196532
0.00283489
0.000211967
0.00279723
0.00022705
0.00274767
0.000242799
0.00270191
0.000259402
0.00266733
0.000276339
0.00263618
0.000292827
0.00260134
0.000308712
0.00255811
0.000323038
0.00250524
0.000337453
0.00244622
0.000352391
0.00239708
0.000367771
0.00235686
0.000382256
0.00231451
0.000395264
0.002266
0.000406064
0.00221038
0.000415298
0.0021434
0.000424985
0.00208377
0.000434789
0.00203519
0.000443386
0.00198625
0.00045011
0.00193276
0.000454516
0.00187369
0.000457075
0.00180442
0.000459595
0.00174122
0.000461569
0.00168744
0.000462153
0.00163392
0.000460927
0.0015769
0.000457851
0.00151456
0.000454747
0.00144809
0.000452021
0.00139022
0.000448783
0.00133777
0.000444609
0.00128435
0.000439434
0.00122906
0.000433749
0.00116819
0.000428944
0.00111202
0.000424836
0.00106255
0.000421037
0.00101406
0.000417772
0.000964364
0.000415335
0.000910421
0.000415198
0.000858591
0.000417127
0.000811952
0.000421116
0.000765933
0.000427687
0.000717752
0.000437343
0.000666079
0.000450919
0.00061472
0.00046829
0.00056475
0.000490177
0.000514258
0.000517694
0.000460435
0.000550131
0.000403338
0.000587856
0.000344976
0.000633762
0.00028475
0.000690906
0.00021907
0.000758388
0.00014592
0.000810517
7.17241e-05
-0.000186837
-0.00019539
0.00198413
-0.000203844
0.00202987
-0.000212057
0.00207607
-0.000219894
0.00212275
-0.000227231
0.00216987
-0.000233956
0.00221739