/*--------------------------------*- C++ -*----------------------------------*\
| =========                 |                                                 |
| \\      /  F ield         | OpenFOAM: The Open Source CFD Toolbox           |
|  \\    /   O peration     | Version:  2.2.x                                 |
|   \\  /    A nd           | Web:      www.OpenFOAM.org                      |
|    \\/     M anipulation  |                                                 |
\*---------------------------------------------------------------------------*/
FoamFile
{
    version     2.0;
    format      ascii;
    class       volScalarField;
    location    "0.35";
    object      Bz;
}
// * * * * * * * * * * * * * * * * * * * * * * * * * * * * * * * * * * * * * //

dimensions      [1 0 -2 0 0 -1 0];

internalField   nonuniform List<scalar> 
14161
(
-2.11936e-21
-2.47878e-21
-1.42049e-21
-2.7604e-21
4.76793e-22
-5.06049e-21
-8.38267e-21
2.32681e-20
-1.03e-19
3.89117e-19
-9.98805e-19
1.10088e-18
7.37472e-19
-9.0476e-19
-8.99817e-19
4.90038e-19
1.23634e-18
-4.19749e-20
-1.69827e-18
-2.02256e-18
-2.88528e-19
3.38699e-18
2.36906e-18
-4.3285e-19
-3.27712e-18
-1.42641e-18
-4.68369e-18
2.81548e-18
4.31671e-18
-1.68428e-18
1.61692e-17
-1.99114e-17
3.17372e-17
-8.7501e-17
1.77091e-16
-3.82852e-16
5.87662e-16
-7.29404e-16
8.50375e-16
-9.65613e-16
1.11392e-15
-1.12937e-15
4.09119e-16
-7.38951e-18
1.36091e-15
-3.59911e-15
2.12334e-16
1.27938e-14
-3.56666e-16
-3.92434e-14
4.02191e-14
2.64104e-14
-8.28083e-14
2.43508e-14
2.00307e-13
-1.42115e-13
-3.0887e-13
1.86938e-13
1.68027e-13
-2.79798e-15
-1.40323e-13
1.96873e-14
1.05927e-13
3.05739e-14
-6.90179e-14
-8.23232e-14
-4.8171e-14
5.55022e-14
1.54447e-15
1.18979e-13
4.00151e-14
-5.73466e-13
-2.41638e-14
7.29436e-13
4.41345e-13
-4.18584e-13
-5.0914e-13
-1.80659e-13
1.90176e-13
2.87092e-13
1.61816e-13
-5.94335e-14
-1.93965e-13
-1.06223e-13
4.34176e-15
1.15629e-13
7.60936e-14
2.88338e-14
-6.85272e-14
-6.24988e-14
4.39308e-14
4.12101e-15
-3.46568e-14
3.04101e-14
8.20666e-14
-4.51063e-14
-9.44184e-14
3.47781e-14
7.17421e-14
1.24566e-14
-1.29503e-14
-2.53576e-14
-3.12838e-14
-9.06875e-15
1.21103e-14
8.52218e-15
-8.76982e-16
-1.46695e-15
2.94866e-15
1.86612e-15
-3.0538e-15
-5.45572e-16
5.69636e-15
5.47124e-15
1.38375e-15
-8.12217e-16
-5.41275e-16
-9.75841e-17
-1.49276e-17
-3.20127e-20
-5.23185e-20
-1.35247e-20
-6.70028e-21
1.53283e-19
-2.66142e-20
-6.90857e-19
9.48347e-19
-1.72009e-17
1.05525e-16
-2.86922e-16
2.38749e-16
1.51536e-16
-1.57392e-16
-9.89822e-17
2.59732e-17
7.27862e-17
-5.08284e-17
1.72056e-16
-2.65009e-16
-7.49098e-17
1.57963e-16
1.94967e-16
1.80264e-18
-2.41804e-16
3.02747e-16
-1.28591e-15
1.33034e-15
-4.58923e-16
-4.47403e-16
8.7457e-16
8.73538e-17
-1.47599e-16
1.47834e-16
-6.28767e-16
-1.77691e-17
5.54912e-16
-1.69807e-15
1.47391e-15
-9.80365e-16
7.70542e-16
8.88261e-16
-1.0896e-16
-5.77797e-15
1.19205e-14
-3.06389e-15
-2.89597e-14
3.56448e-14
5.2164e-14
-1.75642e-13
-1.82834e-14
5.67676e-13
-4.99081e-13
-5.23371e-13
1.4267e-12
-3.08953e-13
-2.56197e-12
-1.10448e-13
2.6071e-12
1.87224e-13
-1.41614e-12
2.71775e-14
1.08867e-12
2.82347e-14
-5.26914e-13
-3.94501e-13
-3.31385e-15
4.86031e-13
-1.3885e-14
-2.28946e-14
7.19226e-13
-1.61251e-12
3.42089e-13
2.00164e-12
6.23666e-14
-1.51602e-12
-8.36501e-13
2.02699e-13
7.82559e-13
2.67049e-13
-1.58291e-13
-2.94351e-13
-5.9832e-14
1.62393e-13
7.83834e-14
-9.24135e-14
7.68671e-14
1.5837e-13
-1.62655e-13
-1.52183e-13
6.43274e-14
2.34529e-13
3.31531e-16
-1.92932e-13
-4.37189e-14
1.08641e-13
9.79272e-14
5.7238e-15
-3.05904e-14
-2.90392e-14
-3.75228e-14
2.17786e-15
5.47807e-14
3.50223e-14
-7.77716e-16
1.75879e-15
1.68244e-15
-1.63525e-14
-2.383e-14
-1.37633e-14
-3.73825e-15
-7.30174e-16
-1.04471e-15
-1.455e-15
-1.29505e-15
-6.47005e-16
-1.40871e-16
-1.76917e-17
-3.38725e-18
9.82423e-20
5.26254e-20
1.66828e-19
2.77197e-20
7.15862e-18
4.88702e-18
-2.0297e-17
-5.37206e-18
1.06203e-17
5.88913e-18
8.17664e-19
2.65405e-17
-6.72254e-17
6.37594e-18
3.32708e-17
1.36425e-17
2.31813e-17
-8.59606e-17
7.01256e-18
8.30516e-17
2.28767e-19
-1.55375e-17
-2.3337e-17
-2.09065e-17
-1.21088e-17
4.82258e-17
-9.23726e-17
1.20908e-16
6.63022e-17
-9.52339e-17
-2.44769e-17
1.58858e-17
1.54716e-16
-9.57008e-17
-1.53952e-16
-3.48018e-16
1.0601e-15
-2.11572e-15
5.24679e-15
-8.7082e-15
9.49586e-15
-9.89705e-15
1.62013e-14
-2.46679e-14
-1.79873e-14
1.29833e-13
-1.69046e-13
-3.44288e-13
1.08558e-12
-4.57226e-13
-1.13432e-12
8.95223e-13
1.07947e-12
-1.03706e-12
-8.22091e-13
1.18365e-12
1.87748e-12
-3.32921e-12
-3.14392e-12
3.67924e-12
2.38689e-12
-1.29825e-12
-1.66068e-12
4.30442e-13
8.27726e-13
2.27785e-13
-2.17103e-13
-4.14585e-13
6.94643e-14
1.09535e-13
1.41108e-13
2.49613e-13
-5.55814e-13
5.42022e-14
5.65046e-13
9.22508e-14
-4.74717e-13
-3.06021e-13
2.98845e-13
3.13042e-13
-1.77075e-13
-2.28221e-13
1.12308e-13
-1.05096e-13
2.58791e-14
5.54559e-13
-3.06585e-13
-4.61376e-13
2.93716e-13
2.42403e-13
-5.56531e-15
-1.52756e-13
-7.13343e-14
9.3238e-14
1.07597e-13
6.97998e-15
-7.78071e-14
-9.53338e-14
-4.70839e-14
-1.99888e-15
1.37745e-14
2.51403e-14
9.72802e-15
-1.74696e-14
-1.60413e-14
-5.69836e-15
-1.13393e-14
-1.40117e-14
-4.03701e-15
3.61758e-15
9.55322e-16
-4.39577e-15
-4.68758e-15
-1.75338e-15
-1.55848e-16
1.75115e-16
1.23181e-16
2.72214e-17
4.83675e-18
-2.21731e-19
1.11035e-19
-2.59644e-19
-3.72372e-19
-6.2115e-19
-5.20055e-19
-1.84695e-20
-2.05452e-20
-1.64187e-18
2.9662e-17
-1.85684e-16
4.30868e-16
-3.00612e-16
-1.32202e-16
1.18527e-16
1.3134e-16
2.05893e-17
-1.1773e-16
-1.55065e-16
1.87228e-17
1.91706e-16
1.1632e-16
-5.82799e-17
-1.20592e-16
-1.05308e-16
4.74251e-16
-1.31731e-15
2.96215e-16
4.23146e-15
-3.46476e-15
-5.14618e-15
4.28064e-15
6.09862e-15
-1.96322e-18
-5.84262e-15
-4.85855e-15
9.38528e-16
2.34589e-15
6.06797e-15
-4.00893e-15
6.6062e-15
-1.09166e-14
8.97343e-15
2.58225e-14
-2.10315e-13
6.38113e-13
1.73492e-13
-2.12764e-12
2.21358e-12
5.57487e-13
-3.63924e-12
1.36214e-12
3.33236e-12
-1.52272e-12
-4.12772e-12
4.12856e-12
4.813e-12
-4.51663e-12
-3.41952e-12
1.75974e-12
2.93532e-12
-1.86038e-12
-1.95938e-12
6.14885e-13
8.50806e-13
3.92114e-13
-4.86353e-14
-3.7001e-13
-1.54322e-14
1.02465e-13
-1.3726e-13
9.65127e-14
2.27754e-13
-2.37533e-13
-1.63034e-13
7.71083e-14
2.97415e-14
4.57558e-14
-2.63997e-14
-6.45559e-14
4.84789e-14
-1.64501e-14
-4.40731e-14
2.17919e-14
1.21769e-13
6.97205e-14
-1.82449e-13
-1.13665e-13
1.80476e-13
8.80172e-14
-8.2474e-14
-1.14952e-13
4.57282e-14
1.2796e-13
1.76249e-14
-8.82774e-14
-1.01717e-13
-7.6976e-14
-2.02253e-14
3.31783e-14
3.03482e-14
-2.77815e-15
-2.20417e-14
-1.85285e-14
-1.1491e-14
-1.06824e-14
-7.80832e-15
3.30386e-15
1.18587e-14
8.74236e-15
6.06853e-16
-4.10668e-15
-2.95121e-15
-5.9618e-17
7.6779e-16
4.86292e-16
1.91888e-16
3.39684e-17
3.81536e-18
-8.52356e-19
-3.11584e-19
-8.90016e-19
-8.0008e-19
-8.68091e-20
-6.24199e-19
-3.19784e-18
-3.52339e-19
2.43804e-18
-1.44971e-17
8.37725e-17
-1.73577e-16
1.15803e-16
5.15342e-17
-4.40308e-17
-4.62943e-17
-5.19901e-17
2.24531e-16
-2.96285e-16
1.58562e-16
1.21166e-16
-1.16827e-16
-8.06524e-17
2.03822e-17
5.79774e-17
7.02597e-17
1.83243e-17
-9.47417e-17
-6.95443e-17
-5.57129e-18
2.38694e-17
-1.41395e-17
5.69784e-18
1.53603e-16
3.64057e-17
2.5509e-16
-6.10881e-16
6.48258e-16
-1.06811e-15
1.10453e-15
-1.23656e-15
1.38933e-15
-2.32568e-15
3.29099e-15
2.52384e-15
-2.13099e-14
2.08706e-14
3.35949e-14
-1.02362e-13
2.38623e-14
1.50567e-13
-1.12366e-13
-8.28659e-14
-1.23694e-14
3.22529e-13
-2.68057e-13
-4.85701e-13
5.59997e-13
5.32147e-13
-3.70238e-13
-4.82056e-13
2.11655e-13
3.56686e-13
-3.99449e-14
-1.40266e-13
-1.09306e-13
-4.01643e-14
4.71833e-14
-1.77018e-15
1.39693e-14
2.08866e-14
-1.6147e-13
1.04634e-13
6.87386e-14
-5.62467e-14
1.82879e-14
-3.76326e-15
2.55776e-14
-1.32685e-14
-6.94026e-14
1.19262e-13
-1.67176e-14
-1.05493e-13
6.29445e-14
8.86055e-14
-5.02625e-14
-1.13928e-13
2.18551e-14
9.35904e-14
8.75567e-15
-7.26475e-14
-3.44868e-14
6.32213e-14
3.02034e-14
-4.80831e-14
-5.39264e-14
-6.88831e-14
-5.63602e-14
2.10228e-14
5.45631e-14
7.21334e-15
-2.13375e-14
-1.00002e-14
-5.89309e-16
-8.52275e-15
-1.16878e-14
1.69117e-15
1.54627e-14
1.71787e-14
8.23435e-15
2.25474e-16
-2.39942e-15
-8.3944e-16
1.00607e-15
1.10097e-15
5.5463e-16
2.1415e-16
4.95778e-17
1.22604e-17
-8.37798e-19
-6.51963e-19
-1.10649e-18
-2.04103e-19
-2.77528e-19
-2.44163e-18
-1.98459e-18
-1.39017e-18
3.70038e-18
-3.91913e-17
1.56001e-16
-2.36482e-16
2.6581e-17
1.606e-16
-5.69838e-18
-5.67659e-17
-6.74258e-17
1.28451e-16
-1.35874e-16
1.01949e-16
4.61449e-17
-7.94042e-17
-5.0075e-17
2.36443e-17
4.21501e-17
3.72743e-17
1.34491e-17
-3.54306e-17
-5.15995e-17
-6.66731e-17
-3.503e-17
4.42433e-17
8.79498e-17
6.08245e-17
5.52597e-17
2.20963e-17
-5.20916e-18
-3.26207e-17
-6.95852e-17
-7.648e-17
-7.87796e-17
1.93675e-18
-9.60029e-17
-1.98399e-16
5.21427e-16
1.96412e-16
-2.11268e-15
5.14401e-16
3.35505e-15
2.03529e-18
-4.752e-15
1.51588e-15
5.94098e-15
-1.8429e-15
-2.44153e-14
3.90656e-14
9.25723e-15
-2.29076e-14
-2.63256e-14
1.08834e-14
1.74006e-14
-4.99279e-16
-9.45401e-15
-9.27543e-16
5.11214e-15
5.3904e-15
2.71826e-15
-3.86694e-15
-6.91161e-15
-8.72251e-15
5.15472e-14
-5.02721e-14
-5.82151e-15
3.78454e-16
-3.55459e-14
4.14121e-14
-1.45175e-14
2.39547e-14
-5.84149e-15
-6.15803e-14
1.61592e-13
-9.07215e-14
-9.99744e-14
1.38368e-13
2.46366e-14
-9.4947e-14
-2.60291e-14
4.43877e-14
2.95268e-14
-5.2452e-15
-1.98629e-14
-3.37779e-15
8.51246e-15
-1.05352e-14
-5.48933e-15
-2.07049e-14
-5.67112e-14
-1.68828e-14
4.3414e-14
2.94128e-14
-1.08306e-14
-7.16132e-15
9.62091e-15
3.69607e-15
-1.10665e-14
-6.41998e-15
1.2214e-14
2.15943e-14
1.62723e-14
5.61759e-15
3.15807e-17
-5.82028e-16
6.8043e-16
1.3797e-15
1.02026e-15
4.81793e-16
1.95325e-16
5.47905e-17
1.34943e-17
1.48738e-18
-9.77906e-20
1.7133e-18
1.69714e-18
1.36557e-18
2.68048e-18
1.01071e-18
-1.03714e-18
-2.52661e-18
8.52286e-18
-4.47692e-17
8.89588e-17
-5.4389e-17
-3.74184e-17
2.55227e-17
2.56932e-17
3.41227e-18
-3.18208e-17
1.33368e-17
-2.06593e-17
3.41602e-17
1.57382e-17
-1.21271e-17
-2.16809e-17
-1.4303e-17
2.66042e-19
1.03759e-17
1.79409e-17
1.19351e-17
8.08217e-18
-6.28598e-18
-1.67857e-17
-2.01543e-17
-1.37645e-17
-4.71913e-18
6.33777e-18
1.05942e-17
1.76718e-17
1.39671e-17
1.46187e-17
8.3215e-18
5.8654e-19
-5.17185e-18
5.10123e-19
-3.01941e-17
2.61767e-18
7.90698e-17
-6.37227e-17
-1.44383e-16
-1.79287e-17
1.39915e-16
-8.97751e-17
-1.97999e-16
3.91029e-16
1.15321e-16
-8.52986e-16
-2.77147e-16
1.47664e-15
8.28327e-16
-1.14142e-15
-8.34407e-16
2.9226e-16
3.95581e-16
3.26246e-16
2.2875e-16
1.62336e-16
1.27936e-16
-2.9646e-17
-3.48017e-15
1.28417e-14
-1.02093e-15
-4.17519e-14
2.27897e-14
2.16852e-14
-9.48135e-15
2.17592e-14
-5.21474e-14
2.57283e-14
2.12498e-14
-3.86615e-14
9.91711e-14
-9.35519e-14
-7.76035e-14
1.32468e-13
-4.61961e-15
-6.94729e-14
1.87859e-14
2.03278e-14
-1.10296e-14
4.23416e-15
8.56269e-15
-3.72036e-15
-1.50193e-14
-7.16148e-15
1.42737e-14
-1.11957e-14
-4.2288e-14
-3.37854e-16
3.60641e-14
1.06222e-14
-1.17055e-14
5.56907e-15
1.40924e-14
-2.25926e-15
-1.07784e-14
2.99017e-15
1.87814e-14
1.99864e-14
1.06349e-14
2.63387e-15
2.90982e-16
6.15633e-16
1.22752e-15
1.18871e-15
7.08449e-16
3.4322e-16
1.62352e-16
5.14184e-17
1.89233e-17
1.71905e-18
-6.28872e-19
2.49132e-18
1.41663e-18
2.43183e-18
7.39897e-18
2.964e-18
-3.11417e-19
-2.23078e-18
3.28291e-18
-2.82875e-17
5.96654e-17
-3.96288e-17
-3.15147e-17
2.60515e-17
1.69256e-17
-3.63521e-18
-5.84682e-18
-1.46995e-17
6.89347e-18
1.78127e-17
1.10735e-18
-1.0371e-17
-9.20645e-18
-2.94233e-18
2.47841e-18
6.64764e-18
7.6145e-18
4.75045e-18
-1.63029e-18
-3.31881e-18
-6.2533e-18
-8.79825e-18
-3.20508e-18
3.29284e-18
6.58598e-18
7.3509e-18
5.36628e-18
4.12778e-18
3.27679e-18
3.49968e-18
1.12312e-18
-3.74749e-19
-1.07664e-18
-4.1357e-18
-7.53425e-18
-1.28052e-17
-2.4527e-19
6.94859e-19
-1.43338e-17
-9.25131e-18
5.87601e-18
1.15145e-17
-4.92814e-18
-1.01658e-17
6.08682e-17
-4.186e-18
-7.50722e-17
-2.62368e-17
3.00633e-17
2.60869e-17
1.31222e-17
3.55399e-18
3.45327e-17
4.42355e-17
4.13133e-17
-6.16251e-17
-1.88433e-16
-1.13542e-15
4.25259e-16
1.36242e-14
-3.32008e-14
2.0633e-14
5.22942e-15
-9.26277e-15
2.86878e-14
-6.00112e-14
4.91992e-14
1.53041e-14
-4.6726e-14
6.69266e-14
-8.38349e-14
-2.99382e-14
1.2079e-13
-3.74075e-14
-4.00399e-14
4.21432e-14
-1.45354e-14
-1.88926e-14
1.9699e-14
1.03102e-14
-1.1533e-14
-2.25085e-14
4.38965e-15
2.67624e-14
-1.86842e-14
-3.87361e-14
1.53964e-14
2.9895e-14
-4.41237e-15
-5.47202e-15
1.42256e-14
7.14314e-15
-7.78343e-15
-5.50018e-15
1.07762e-14
1.95537e-14
1.42366e-14
4.98337e-15
6.80096e-16
5.88912e-16
1.1073e-15
1.12085e-15
7.54926e-16
3.5454e-16
2.05144e-16
1.295e-16
4.50894e-17
1.56838e-18
1.42135e-18
7.20277e-19
1.93237e-18
4.97257e-19
9.93127e-19
2.42747e-18
1.01128e-18
1.25362e-19
-2.56775e-19
-1.5746e-18
5.75809e-18
-1.60226e-17
1.68989e-17
4.67791e-19
-8.22483e-18
-1.57879e-18
3.29611e-18
2.70313e-18
7.30366e-19
-2.19721e-18
-6.7211e-18
1.65884e-18
4.55229e-18
3.57235e-18
8.12564e-19
-1.72252e-18
-2.65033e-18
-2.16051e-18
-1.52379e-19
7.40378e-19
2.28471e-18
2.25011e-18
1.72457e-18
5.00386e-19
-6.24948e-19
-1.54185e-18
-1.36473e-18
-9.40573e-19
-4.8819e-19
1.11181e-19
1.99941e-19
4.61363e-19
5.10055e-19
4.10432e-19
3.60882e-19
4.7629e-19
4.85705e-19
8.6807e-19
7.73014e-19
5.75225e-19
-1.86001e-19
-1.23561e-18
-8.15585e-19
3.96662e-20
-3.43632e-20
-1.39104e-18
-1.98239e-18
8.65962e-19
1.97533e-18
-5.80542e-19
-1.32303e-18
-1.56487e-18
3.73008e-18
7.91226e-18
9.306e-18
3.57982e-18
1.79962e-17
-3.88331e-17
1.90474e-16
-8.3794e-16
1.19796e-15
-6.18414e-15
1.37942e-14
-6.27341e-15
-2.49862e-15
1.41058e-14
-3.28393e-14
4.18918e-14
-2.63934e-14
-3.97567e-14
4.78535e-14
-2.16321e-14
2.9953e-14
3.43396e-14
-7.39488e-14
1.05055e-14
3.1595e-14
-1.69503e-14
-2.59907e-15
1.03379e-14
3.51002e-15
-1.07918e-14
-1.21237e-14
1.76505e-14
1.42587e-14
-2.77905e-14
-1.72294e-14
2.45403e-14
1.33579e-14
-8.42778e-15
4.04215e-15
1.15257e-14
-1.79649e-16
-6.72058e-15
1.48963e-15
1.38999e-14
1.57346e-14
7.69647e-15
9.69312e-16
-2.18227e-16
7.13701e-16
1.00694e-15
6.49315e-16
2.57707e-16
6.82553e-17
1.00104e-16
1.01372e-16
5.15721e-17
1.37798e-17
8.29843e-20
1.53125e-19
4.52759e-19
-1.52716e-19
-2.02107e-19
-3.32223e-19
2.71304e-20
2.3484e-19
2.86548e-19
4.32866e-19
-4.94471e-19
2.04885e-18
-1.35118e-18
-3.47174e-19
1.04691e-18
5.11204e-19
7.91133e-20
-2.34338e-19
2.953e-19
2.62627e-19
3.28588e-19
1.38835e-19
-7.4476e-20
-2.79071e-20
1.93459e-19
3.83741e-19
4.70021e-19
4.31657e-19
2.9267e-19
1.63768e-19
-9.47901e-20
-1.96807e-19
-4.07973e-20
1.0615e-19
2.23545e-19
3.81848e-19
3.71044e-19
4.1773e-19
4.01509e-19
3.9463e-19
4.29317e-19
2.86517e-19
1.66163e-19
2.31762e-20
-1.60597e-19
-2.01407e-19
-2.3839e-19
-1.56649e-19
-5.30173e-20
1.39618e-19
1.77738e-19
2.815e-19
4.60605e-19
5.93887e-19
5.28921e-19
4.18383e-19
9.1136e-20
-1.51145e-19
-1.32294e-19
2.23643e-19
1.89513e-19
6.0198e-20
3.32923e-19
6.8666e-19
7.7568e-19
2.73099e-20
7.44564e-19
-8.24467e-19
-5.5487e-17
3.54013e-16
-2.53917e-15
1.07153e-14
-1.86928e-14
8.39242e-15
4.34322e-14
-4.26444e-14
-4.21605e-14
5.30037e-14
-2.48501e-14
1.36974e-14
2.57115e-14
-1.42053e-14
7.22075e-15
-1.68265e-14
-2.68949e-14
3.14223e-14
5.82819e-15
-1.24634e-14
1.72948e-15
3.08857e-15
3.28897e-15
-8.4553e-15
-4.55319e-15
1.70974e-14
2.30542e-15
-2.48148e-14
-3.2124e-15
2.16883e-14
2.71794e-15
-5.86402e-15
7.16027e-15
6.45822e-15
-3.01687e-15
-3.99185e-15
5.40779e-15
1.33227e-14
1.04002e-14
2.52252e-15
-1.30089e-15
-5.61523e-16
5.56402e-16
5.368e-16
6.95286e-17
-1.60633e-16
-1.28668e-16
3.95185e-17
7.68754e-17
3.91595e-17
6.43793e-18
2.49456e-19
2.01989e-19
3.69225e-19
2.4019e-19
4.20612e-20
-4.23116e-20
1.82519e-19
3.14907e-19
3.41083e-19
2.72405e-19
2.75096e-19
3.82097e-19
-4.55184e-19
1.02936e-18
3.1886e-19
-2.30973e-19
2.87433e-20
3.13088e-19
4.01371e-19
3.00706e-19
2.08599e-19
-9.83251e-20
1.51074e-19
3.01871e-19
4.07479e-19
3.70137e-19
2.57693e-19
1.75915e-19
8.4775e-20
1.7342e-19
2.02643e-19
2.77285e-19
3.29981e-19
3.17022e-19
2.93016e-19
2.10657e-19
9.09561e-20
-1.19949e-20
-1.48424e-20
2.89874e-20
8.94743e-20
1.66506e-19
2.39604e-19
2.79329e-19
2.93508e-19
3.39461e-19
3.66015e-19
3.80212e-19
3.99758e-19
3.47834e-19
3.04415e-19
2.58611e-19
2.01649e-19
1.64595e-19
8.09645e-20
1.94591e-20
-1.70712e-20
-1.59546e-20
4.37599e-20
5.35906e-20
4.36873e-20
1.29964e-19
3.04967e-19
3.92063e-19
3.52737e-19
1.06403e-18
-4.55307e-19
-1.18664e-19
-9.3177e-18
6.7911e-16
-5.68049e-15
2.02091e-14
1.03438e-14
-5.05852e-14
-1.55867e-15
8.01273e-15
3.83363e-14
-4.19033e-16
-2.38654e-14
9.30683e-15
-4.87797e-15
-9.26375e-15
7.64483e-15
-1.17661e-14
1.96523e-14
1.18751e-14
-2.16154e-14
3.16241e-15
4.12714e-15
-4.75554e-15
5.58372e-15
-6.71182e-15
-1.32108e-15
1.39914e-14
-3.25949e-15
-1.86777e-14
5.44251e-15
1.56828e-14
-3.40056e-15
-1.81938e-15
7.65842e-15
2.43586e-15
-3.70213e-15
-1.38119e-15
7.19547e-15
1.08486e-14
5.5678e-15
-6.74035e-16
-2.17464e-15
-6.89174e-16
1.84766e-16
-5.90388e-17
-4.30034e-16
-4.54717e-16
-2.26526e-16
7.6353e-18
6.24665e-17
2.96471e-17
6.57109e-19
1.8684e-19
2.27413e-19
1.49839e-19
2.47018e-19
2.85454e-19
2.9934e-19
2.86469e-19
2.22098e-19
2.1867e-19
2.45596e-19
2.76037e-19
9.49521e-20
6.17543e-19
-8.44953e-20
1.38506e-19
4.00667e-19
3.71497e-19
2.21581e-19
1.69895e-19
2.05837e-19
2.49922e-19
3.4885e-19
3.39244e-19
2.55593e-19
2.09664e-19
2.05802e-19
2.02844e-19
2.34995e-19
2.98201e-19
2.88854e-19
2.86568e-19
2.45331e-19
2.17529e-19
2.30022e-19
2.0541e-19
2.25107e-19
2.28392e-19
2.35188e-19
2.50381e-19
2.65549e-19
2.43872e-19
2.47364e-19
2.19019e-19
2.17997e-19
2.10394e-19
1.97938e-19
1.78154e-19
1.75416e-19
1.61351e-19
1.77337e-19
1.95225e-19
2.28224e-19
2.30036e-19
2.42466e-19
2.51253e-19
2.59061e-19
2.47943e-19
2.3712e-19
2.12415e-19
2.18987e-19
2.18468e-19
1.95008e-19
1.86523e-19
1.96137e-19
3.72405e-19
1.05346e-18
3.52788e-18
1.00935e-18
-4.63947e-18
-2.30145e-16
7.77623e-16
4.76228e-15
-4.2464e-14
2.301e-14
3.68617e-14
-1.0942e-14
-5.66546e-15
-1.64841e-14
-2.43589e-15
7.05213e-15
6.23597e-16
5.85483e-15
2.24197e-15
-8.49712e-16
1.07194e-14
-1.74928e-14
-6.05842e-15
1.59043e-14
-9.44825e-15
-2.59432e-15
9.13383e-15
-6.9282e-15
2.45846e-15
8.6692e-15
-7.74215e-15
-1.05374e-14
1.01201e-14
7.61332e-15
-4.5867e-15
2.2651e-15
5.61429e-15
-1.9121e-16
-3.04958e-15
8.18921e-16
7.59231e-15
7.661e-15
1.79029e-15
-2.40439e-15
-2.37064e-15
-8.50499e-16
-3.04123e-16
-6.07758e-16
-7.78344e-16
-6.08617e-16
-2.57851e-16
-5.60908e-18
4.67434e-17
1.94052e-17
-6.36657e-18
4.02887e-19
3.55737e-19
3.93277e-19
3.57285e-19
3.48347e-19
3.24544e-19
3.27007e-19
3.22576e-19
3.26329e-19
3.16594e-19
3.14823e-19
3.53434e-19
2.40543e-19
3.96983e-19
3.48802e-19
2.89453e-19
2.86351e-19
3.17746e-19
3.36561e-19
3.32181e-19
3.20752e-19
2.8737e-19
2.72935e-19
3.04998e-19
2.89471e-19
3.17986e-19
2.7251e-19
2.89656e-19
2.72475e-19
2.66651e-19
2.67416e-19
2.76223e-19
2.73602e-19
2.82215e-19
2.66316e-19
2.55272e-19
2.42621e-19
2.3329e-19
2.23316e-19
2.25792e-19
2.26299e-19
2.31549e-19
2.3401e-19
2.41559e-19
2.40413e-19
2.44348e-19
2.45598e-19
2.46598e-19
2.33566e-19
2.30203e-19
2.3179e-19
2.38496e-19
2.18839e-19
2.04261e-19
2.24536e-19
2.11639e-19
2.12049e-19
1.6772e-19
1.53644e-19
1.59805e-19
1.96225e-19
2.15101e-19
1.97242e-19
2.15909e-19
5.69357e-19
-1.10093e-19
5.23697e-18
5.30168e-18
-4.4715e-17
1.29116e-16
1.15627e-15
-1.29143e-14
3.38908e-15
3.46591e-14
-1.56006e-14
-2.40733e-14
7.88214e-15
1.57806e-15
5.307e-15
6.39488e-15
2.49943e-15
3.33875e-16
-7.53319e-15
1.10272e-15
-2.38269e-16
-1.31042e-14
1.2813e-14
5.12822e-15
-1.54288e-14
4.27745e-15
6.23129e-15
-7.21044e-15
4.28851e-15
4.66078e-15
-9.08223e-15
-4.14687e-15
9.87695e-15
1.44403e-15
-3.09095e-15
4.27327e-15
3.29771e-15
-1.2377e-15
-2.07099e-15
2.0378e-15
6.68362e-15
4.6015e-15
-6.06382e-16
-3.01007e-15
-2.31687e-15
-1.06862e-15
-7.58376e-16
-9.9552e-16
-9.63954e-16
-6.41608e-16
-2.42856e-16
-4.71537e-18
3.78585e-17
1.67983e-17
9.28153e-19
2.9863e-19
3.19767e-19
3.51181e-19
3.55453e-19
3.51903e-19
3.54621e-19
3.08535e-19
3.66956e-19
3.83022e-19
3.67381e-19
3.65637e-19
3.60538e-19
3.57589e-19
4.00382e-19
3.77719e-19
3.71397e-19
3.55413e-19
3.45654e-19
3.49135e-19
3.3224e-19
3.30131e-19
2.98447e-19
3.13185e-19
3.17728e-19
3.18892e-19
3.03874e-19
2.99784e-19
2.91645e-19
2.8852e-19
2.77921e-19
2.66998e-19
2.58361e-19
2.49326e-19
2.49908e-19
2.63183e-19
2.58419e-19
2.50822e-19
2.38553e-19
2.35005e-19
2.3149e-19
2.42071e-19
2.50188e-19
2.53063e-19
2.60751e-19
2.23604e-19
2.32155e-19
2.49528e-19
2.29071e-19
1.78505e-19
1.38031e-19
2.02358e-19
2.34058e-19
1.85214e-19
1.78508e-19
2.39676e-19
2.99367e-19
2.717e-19
1.76853e-19
-3.36072e-20
5.53634e-20
2.06272e-19
2.67089e-19
2.46733e-19
2.23684e-19
1.13797e-18
2.41956e-18
7.40176e-18
9.1222e-18
-6.97045e-17
6.58883e-16
-1.92117e-15
-3.54239e-15
1.81634e-14
-4.82397e-15
-2.52096e-14
4.54944e-15
1.60747e-14
7.29185e-16
2.9648e-16
9.4308e-16
-4.10021e-15
-5.10095e-15
-6.09198e-15
7.5845e-15
-1.29522e-15
-4.42819e-15
1.10635e-14
-6.87536e-15
-8.11639e-15
1.06587e-14
1.03954e-15
-6.92848e-15
5.4795e-15
1.32741e-15
-7.61332e-15
2.28532e-16
6.87482e-15
-1.66365e-15
-5.28008e-16
4.29175e-15
1.45158e-15
-1.47081e-15
-1.18603e-15
2.71137e-15
5.61937e-15
2.32331e-15
-1.92579e-15
-3.08977e-15
-2.17789e-15
-1.26562e-15
-1.12651e-15
-1.22915e-15
-1.00598e-15
-5.83141e-16
-1.95779e-16
-1.14456e-17
2.27113e-17
9.30504e-18
-3.19642e-18
4.635e-19
4.60055e-19
3.84423e-19
3.92213e-19
3.94422e-19
4.01946e-19
4.24603e-19
4.40966e-19
3.80537e-19
3.81254e-19
3.97602e-19
3.92855e-19
3.94913e-19
3.79423e-19
3.73821e-19
3.76354e-19
3.84439e-19
3.59091e-19
3.36362e-19
2.97882e-19
3.72007e-19
3.09732e-19
3.12214e-19
3.55733e-19
3.33099e-19
3.07842e-19
2.78204e-19
2.73991e-19
3.13449e-19
3.07203e-19
2.5019e-19
2.12574e-19
2.02326e-19
2.54256e-19
2.82093e-19
2.94139e-19
2.24403e-19
2.04288e-19
1.79236e-19
1.73309e-19
1.797e-19
2.10558e-19
2.48147e-19
2.94259e-19
2.66228e-19
1.55912e-19
3.67589e-19
3.71371e-19
-1.77261e-20
-2.97619e-19
4.85843e-20
3.39587e-19
2.19187e-19
7.03739e-20
3.82954e-19
7.23349e-19
6.02075e-19
2.30032e-19
-7.2146e-19
-5.13682e-19
1.85716e-19
5.3656e-19
5.72267e-19
4.23921e-19
6.55423e-19
5.41531e-18
5.61994e-18
3.29753e-18
7.55554e-17
5.84267e-16
-4.11246e-15
8.07855e-15
5.11579e-15
-1.82328e-14
-4.6196e-15
1.37027e-14
7.37913e-15
-2.70094e-15
-1.81354e-15
-3.05304e-15
-3.3142e-15
-1.77569e-15
1.22113e-15
8.66008e-15
-6.12497e-15
-1.29308e-15
6.4067e-15
-7.02383e-15
7.23526e-17
8.72474e-15
-3.85521e-15
-4.0645e-15
5.7277e-15
-1.169e-15
-5.14557e-15
2.56562e-15
3.46774e-15
-2.54966e-15
1.54427e-15
3.25225e-15
3.00612e-16
-1.27112e-15
-4.72201e-16
2.93115e-15
4.19342e-15
5.0527e-16
-2.49248e-15
-2.82633e-15
-2.02431e-15
-1.42141e-15
-1.32527e-15
-1.27718e-15
-9.19255e-16
-4.70341e-16
-1.42119e-16
-8.77654e-18
5.443e-18
2.87e-18
-5.65004e-18
3.88794e-19
3.91463e-19
3.70672e-19
3.88324e-19
3.97588e-19
4.02024e-19
4.32466e-19
4.42426e-19
4.23104e-19
4.14846e-19
3.27771e-19
3.67602e-19
4.1292e-19
3.30289e-19
3.63513e-19
3.50762e-19
3.3808e-19
2.97178e-19
3.16949e-19
2.38e-19
4.44785e-19
1.80127e-19
3.21649e-19
3.36904e-19
2.30079e-19
2.8159e-19
1.98439e-19
2.47587e-19
2.27348e-19
3.19778e-19
2.80471e-19
1.63725e-19
1.00261e-19
1.28574e-19
2.45979e-19
3.42517e-19
3.45668e-19
2.00117e-19
8.42668e-20
2.23751e-21
5.67868e-20
-2.38782e-21
1.3356e-19
5.90562e-19
6.63231e-19
-7.86694e-20
5.68749e-19
1.27851e-18
-2.43028e-19
-1.51566e-18
-7.27874e-19
2.01566e-19
-2.51098e-19
-4.77067e-19
1.37815e-18
2.69221e-18
2.08491e-18
-4.42794e-20
-1.87175e-18
-2.80461e-18
-4.57671e-19
1.5758e-18
1.86264e-18
1.41646e-18
-1.0571e-18
8.06778e-18
4.31292e-18
-1.34488e-17
3.76387e-16
-5.71898e-16
-1.37146e-15
9.76109e-15
-7.02344e-15
-1.04825e-14
6.94866e-15
8.25854e-15
-1.27467e-15
-4.38303e-15
-2.12813e-15
-1.48227e-15
5.61405e-16
1.77106e-15
2.76676e-15
2.95701e-15
-7.52451e-15
2.34788e-15
3.85646e-15
-4.85564e-15
2.78048e-15
4.0084e-15
-4.73458e-15
-7.25981e-16
4.0874e-15
-2.47598e-15
-2.23638e-15
2.96133e-15
7.6877e-16
-1.90454e-15
2.54188e-15
1.87645e-15
-2.37943e-16
-1.02077e-15
9.28143e-18
2.79568e-15
2.86243e-15
-6.1305e-16
-2.56386e-15
-2.50936e-15
-1.93096e-15
-1.53725e-15
-1.40467e-15
-1.21835e-15
-7.81091e-16
-3.42851e-16
-9.32398e-17
-1.0752e-17
1.00374e-19
4.06159e-18
-8.04141e-18
4.60306e-19
4.83282e-19
4.74076e-19
4.07065e-19
3.68942e-19
3.59886e-19
3.78938e-19
3.74837e-19
3.70369e-19
3.71286e-19
3.6852e-19
3.62396e-19
3.53573e-19
3.40821e-19
3.02874e-19
3.02701e-19
2.96687e-19
3.07597e-19
3.30535e-19
1.49998e-19
4.07988e-19
5.68388e-20
3.43621e-19
2.71822e-19
-3.8659e-20
5.69597e-19
-1.17115e-19
4.96307e-19
-2.3431e-19
4.98175e-19
4.94903e-19
1.62296e-19
-1.9237e-19
-2.64948e-19
-5.23654e-20
7.13491e-19
1.11013e-18
3.2351e-19
-2.04236e-19
-5.12976e-19
-5.94137e-19
-5.53333e-19
-1.77351e-19
6.23666e-19
1.58323e-18
-3.73837e-19
-1.08947e-19
5.4008e-18
1.77038e-18
-5.42742e-18
-3.82073e-18
6.43269e-19
-3.76303e-18
-5.65127e-18
3.70059e-18
1.0852e-17
9.02944e-18
2.86292e-18
-7.97672e-18
-1.03073e-17
-3.11619e-18
2.553e-18
5.67371e-18
6.0813e-18
-4.55613e-18
5.50682e-18
8.99207e-18
5.78568e-17
4.15941e-16
-2.01629e-15
3.31123e-15
3.19168e-15
-8.82914e-15
-3.45105e-16
8.35364e-15
5.6536e-16
-5.01982e-15
-2.52777e-15
4.88564e-16
1.10429e-15
2.52553e-15
7.01478e-16
2.22843e-16
-7.62792e-16
-5.7086e-15
4.99139e-15
1.70039e-15
-3.79395e-15
2.62203e-15
9.70365e-16
-3.32008e-15
8.94092e-16
2.2312e-15
-2.52069e-15
-3.99784e-16
2.3337e-15
-7.10874e-16
-5.92684e-16
2.50774e-15
7.05937e-16
-3.60162e-16
-7.45187e-16
4.01757e-16
2.41778e-15
1.67343e-15
-1.18041e-15
-2.30383e-15
-2.16654e-15
-1.83218e-15
-1.54578e-15
-1.32764e-15
-1.05514e-15
-5.88806e-16
-2.19922e-16
-5.24519e-17
-5.31479e-18
-7.02382e-19
1.42185e-17
1.04215e-17
3.98264e-19
3.96127e-19
4.2774e-19
3.92399e-19
4.36421e-19
4.00875e-19
4.19565e-19
3.92769e-19
3.35267e-19
3.26875e-19
3.52488e-19
3.15593e-19
2.8609e-19
3.01788e-19
2.74674e-19
2.66771e-19
2.58648e-19
2.62057e-19
2.7793e-19
1.06095e-19
5.1812e-19
-1.7159e-19
4.35325e-19
3.80917e-19
-5.62106e-19
1.52042e-18
-1.62223e-18
2.27575e-18
-1.83876e-18
7.81353e-19
3.52232e-19
1.02014e-18
-7.95725e-19
-3.41042e-19
6.12243e-19
-4.21126e-19
3.92392e-19
1.08564e-18
7.58736e-19
-4.83088e-19
-4.74986e-19
2.78558e-19
-1.79082e-18
-1.68491e-18
2.74462e-18
-8.22731e-18
-7.46031e-18
3.39944e-17
1.78029e-17
-1.45714e-17
-1.63734e-17
-7.53669e-18
-1.23958e-17
-2.18176e-17
6.20289e-18
3.66188e-17
3.36231e-17
1.19799e-17
-2.31914e-17
-4.02863e-17
-1.86777e-17
6.51503e-18
1.99237e-17
3.10212e-17
-1.16152e-17
1.76208e-18
-4.39561e-18
2.70501e-16
-4.17267e-16
-1.28831e-15
5.63142e-15
-1.75546e-15
-6.86246e-15
2.10896e-15
5.93072e-15
-2.17413e-15
-4.41492e-15
6.39345e-16
2.03696e-15
1.48219e-15
1.20939e-15
-1.17411e-15
-3.53878e-16
-8.9229e-16
-2.45782e-15
4.81867e-15
-6.89998e-16
-2.57038e-15
1.93545e-15
-1.68036e-16
-1.65197e-15
1.07965e-15
8.93205e-16
-1.93525e-15
6.05748e-16
1.2914e-15
-1.14802e-15
5.81901e-16
1.83112e-15
-2.62656e-17
-2.74107e-16
-5.34562e-16
6.14427e-16
1.90742e-15
8.20068e-16
-1.35117e-15
-1.9686e-15
-1.89074e-15
-1.72601e-15
-1.4668e-15
-1.18482e-15
-8.50651e-16
-4.09133e-16
-1.2487e-16
-3.2323e-17
-1.98916e-17
-5.79844e-18
1.47823e-18
2.25496e-17
4.24292e-19
4.24953e-19
3.76381e-19
3.56397e-19
3.95307e-19
3.95623e-19
3.62536e-19
3.3041e-19
2.88669e-19
3.2214e-19
3.12272e-19
2.96596e-19
3.09548e-19
2.68853e-19
2.40097e-19
2.32005e-19
2.30515e-19
1.90711e-19
1.9966e-19
7.46331e-20
2.7157e-19
2.54123e-20
1.3727e-19
4.28639e-19
-6.11621e-19
1.63222e-18
-2.6288e-18
4.14518e-18
-3.76476e-18
2.30495e-18
-3.74544e-18
1.12583e-17
-1.24415e-17
-2.06662e-18
1.30107e-17
3.08923e-19
-9.97569e-18
-5.03042e-18
1.10104e-17
-3.10915e-19
-5.67693e-18
1.34894e-17
1.5276e-17
-1.59222e-17
-1.88914e-17
-1.68558e-17
-3.63594e-17
5.02539e-17
1.03338e-16
-4.29496e-20
-2.69441e-17
-4.62578e-17
-6.00533e-17
-8.83113e-17
-1.48952e-17
1.04199e-16
1.3947e-16
6.03957e-17
-5.83665e-17
-1.20884e-16
-5.88705e-17
-8.16956e-18
3.57815e-17
1.04902e-16
-1.18144e-18
5.88987e-18
3.8602e-17
3.09155e-16
-2.20076e-15
3.80784e-15
1.73719e-15
-5.81787e-15
-2.7902e-15
4.14793e-15
3.4399e-15
-2.58446e-15
-2.50807e-15
1.18781e-15
1.66285e-15
4.08327e-16
-2.25582e-16
-1.64992e-15
3.31475e-16
-5.26821e-16
-6.52185e-16
3.49751e-15
-1.96751e-15
-1.47179e-15
1.52285e-15
-4.38599e-16
-7.27695e-16
8.43146e-16
2.56224e-16
-1.34216e-15
9.1746e-16
4.34504e-16
-8.99786e-16
1.14512e-15
8.90171e-16
-2.70803e-16
-1.11321e-16
-3.60515e-16
7.42976e-16
1.3737e-15
2.21604e-16
-1.27777e-15
-1.6142e-15
-1.67208e-15
-1.60826e-15
-1.33524e-15
-9.90771e-16
-6.44291e-16
-2.59812e-16
-6.75016e-17
-3.37284e-17
-3.64204e-17
-2.86546e-17
-2.0891e-17
-1.18727e-17
4.01716e-19
3.89825e-19
4.39638e-19
3.97581e-19
3.6718e-19
3.65115e-19
2.83862e-19
2.42826e-19
2.4416e-19
2.98383e-19
2.97414e-19
2.87523e-19
2.16939e-19
2.50075e-19
2.31948e-19
1.60368e-19
2.13155e-19
9.90405e-20
1.17328e-19
5.94587e-20
1.34378e-19
4.2953e-20
5.77953e-20
3.75364e-19
-7.75777e-19
1.9535e-18
-3.76227e-18
6.43532e-18
-7.35191e-18
7.44503e-18
-1.83045e-17
4.12856e-17
-3.25193e-17
-3.7438e-17
4.96348e-17
7.56739e-17
-8.08377e-17
-7.11017e-17
5.16442e-17
6.70529e-17
-1.28384e-16
1.26311e-17
1.69656e-16
3.77238e-17
-6.59778e-17
-1.728e-16
-2.38632e-16
6.9109e-17
3.75229e-16
2.39261e-16
-2.50796e-17
-2.28841e-16
-2.05719e-16
-1.46509e-16
7.55697e-18
1.20743e-16
1.89483e-16
2.11106e-16
3.26703e-18
-1.72004e-16
-1.52417e-16
-5.87955e-17
4.85517e-17
2.22029e-16
4.26739e-17
-1.05188e-17
1.62427e-16
-1.12131e-15
1.57294e-15
1.89173e-15
-3.71953e-15
-1.95889e-15
2.73188e-15
2.65046e-15
-4.62977e-16
-2.15664e-15
-3.44017e-16
1.56926e-15
9.6219e-16
-1.43547e-16
-5.6777e-16
-7.928e-16
1.03897e-15
-5.858e-16
2.76986e-16
1.79008e-15
-2.10859e-15
-2.13035e-16
1.08116e-15
-5.13986e-16
-2.39585e-16
6.39749e-16
-1.32162e-17
-9.37427e-16
8.50475e-16
-9.6764e-17
-3.85467e-16
1.1834e-15
1.44022e-16
-2.12383e-16
1.17671e-17
-2.3329e-16
7.57954e-16
9.04226e-16
-1.39275e-16
-1.07212e-15
-1.31325e-15
-1.4963e-15
-1.45004e-15
-1.15796e-15