/*--------------------------------*- C++ -*----------------------------------*\
| =========                 |                                                 |
| \\      /  F ield         | OpenFOAM: The Open Source CFD Toolbox           |
|  \\    /   O peration     | Version:  2.2.x                                 |
|   \\  /    A nd           | Web:      www.OpenFOAM.org                      |
|    \\/     M anipulation  |                                                 |
\*---------------------------------------------------------------------------*/
FoamFile
{
    version     2.0;
    format      ascii;
    class       surfaceScalarField;
    location    "0.35";
    object      phi;
}
// * * * * * * * * * * * * * * * * * * * * * * * * * * * * * * * * * * * * * //

dimensions      [1 0 -1 0 0 0 0];

internalField   nonuniform List<scalar> 
28084
(
0.000745473
0.000741144
0.000739438
0.000737751
0.00073633
0.00073465
0.000733111
0.000732329
0.000732156
0.000732184
0.000732176
0.00073257
0.000733013
0.000733465
0.000734427
0.000735414
0.000736719
0.0007381
0.000739355
0.000740637
0.000741883
0.000743195
0.00074455
0.000745967
0.000747327
0.000748644
0.000749686
0.000750741
0.00075179
0.000752747
0.000753668
0.000754533
0.000755295
0.000755691
0.000755736
0.000755929
0.000755988
0.000755957
0.000755849
0.00075563
0.000755065
0.000754169
0.00075317
0.000752046
0.000750484
0.000759721
0.000769435
0.000779592
0.000790113
0.000800969
0.000812085
0.000823559
0.000834453
0.000844643
0.000854621
0.000865447
0.000876351
0.000887144
0.000897751
0.000907739
0.00091718
0.000926386
0.000935137
0.000943218
0.000949375
0.000954579
0.000813001
0.000693273
0.000740073
0.000879289
0.0009769
0.00103419
0.00107902
0.00110702
0.00112475
0.00113833
0.00115484
0.00117225
0.0011812
0.00118456
0.00118508
0.00118646
0.00118457
0.00118246
0.00118096
0.0011721
0.00115312
0.00111783
0.00106206
0.000986684
0.0009104
0.000845513
0.00080814
0.000779308
0.000748995
0.000718145
0.000688977
0.000661721
0.000630699
0.0006033
0.000582954
0.000565403
0.000548305
0.000531987
0.000513457
0.000493378
0.000467974
0.000439924
0.000406446
0.000370235
0.000327699
0.000284252
0.000234753
0.00018835
0.000136863
9.74068e-05
5.41419e-05
2.50929e-05
4.08531e-06
4.12123e-06
0.000743387
1.69571e-06
0.000746447
1.90638e-06
0.000746736
1.72001e-06
0.000746052
1.93025e-06
0.000743866
1.35612e-06
0.00074211
9.16851e-07
0.000742484
6.26917e-07
0.000743981
2.35434e-07
0.00074641
1.49269e-07
0.000749973
-5.94289e-07
0.00075442
-7.72886e-07
0.000758521
-7.69773e-07
0.00076194
-1.12797e-06
0.000765383
-1.11127e-06
0.000768368
-1.37621e-06
0.000770899
-1.3603e-06
0.000773222
-1.18431e-06
0.000775162
-1.15388e-06
0.00077714
-1.11818e-06
0.000779551
-1.24884e-06
0.000782338
-1.33078e-06
0.000785139
-1.37946e-06
0.000787841
-1.20598e-06
0.000790439
-1.22308e-06
0.00079324
-1.14486e-06
0.000795986
-1.11468e-06
0.000798639
-1.00522e-06
0.000801085
-8.94891e-07
0.000803353
-7.78706e-07
0.000805434
-6.46418e-07
0.000807362
-5.16654e-07
0.000809081
-4.00162e-07
0.00081061
-3.03365e-07
0.000811919
-2.05795e-07
0.000812997
-2.2855e-08
0.000813918
1.6409e-07
0.000814691
3.39457e-07
0.000815223
4.88016e-07
0.000815572
6.32162e-07
0.000815869
7.53922e-07
0.000816077
8.55044e-07
0.000816184
1.00652e-06
0.000816223
1.15287e-06
0.000815934
-9.32651e-06
0.000814717
-9.67158e-06
0.000822558
-9.99312e-06
0.000831495
-1.02813e-05
0.000840832
-1.04558e-05
0.000850414
-1.06395e-05
0.000860196
-1.08079e-05
0.000870171
-1.0854e-05
0.000880146
-1.09299e-05
0.000889991
-1.09513e-05
0.000899438
-1.09767e-05
0.000908369
-1.07951e-05
0.00091664
-1.05225e-05
0.000924688
-1.0365e-05
0.00093312
-1.00466e-05
0.000941416
-9.70831e-06
0.000949503
-9.43134e-06
0.000957166
-8.77561e-06
0.000963823
-8.34627e-06
0.000969239
-6.48005e-06
0.00097457
-2.03091e-06
0.000978647
6.20445e-05
0.000988686
9.50807e-05
0.000971733
-6.52088e-05
0.000866873
-0.000136654
0.000947378
-0.000110997
0.00102358
-6.75971e-05
0.00108184
-4.59023e-05
0.00112178
-2.78667e-05
0.00115376
-1.46245e-05
0.00117913
-7.11927e-06
0.00118857
-8.33479e-06
0.00118983
-8.31389e-06
0.00118252
-6.34068e-06
0.00117455
-6.7448e-06
0.00116483
-5.38614e-06
0.0011531
-4.95642e-06
0.00113811
-3.38682e-06
0.0011211
-1.15569e-06
0.00109617
3.946e-06
0.00106512
9.38058e-06
0.00103408
1.91023e-05
0.000993066
3.32567e-05
0.000948331
4.87994e-05
0.000903361
6.65465e-05
0.000861388
6.6707e-05
0.000827295
5.29464e-05
0.000791906
4.39699e-05
0.000753165
3.31276e-05
0.000716638
2.96645e-05
0.000681981
3.05953e-05
0.000655409
3.23054e-05
0.000635417
2.96747e-05
0.000615871
2.43003e-05
0.000593036
1.80946e-05
0.000566537
1.92294e-05
0.000534049
2.26331e-05
0.00049789
2.51007e-05
0.00046555
2.40509e-05
0.000438075
2.46881e-05
0.000412059
2.42742e-05
0.000386849
2.58698e-05
0.000362059
2.48329e-05
0.000333596
2.79336e-05
0.000303
3.08166e-05
0.000269892
3.95054e-05
0.00023901
4.26952e-05
0.000209414
5.02734e-05
0.000182941
5.04308e-05
0.00015715
5.61169e-05
0.000137489
4.47062e-05
0.000114177
4.57837e-05
8.77572e-05
2.94836e-05
5.85822e-05
1.97462e-05
3.11434e-05
1.18664e-05
9.1441e-07
0.000767404
1.3552e-06
0.000759896
2.42959e-06
0.000759333
3.77678e-06
0.000762819
3.46828e-06
0.000770368
1.03107e-06
0.000777921
-5.96401e-07
0.000782938
-1.83406e-06
0.000786234
-3.24572e-06
0.000788393
-4.25599e-06
0.000789053
-4.98244e-06
0.000788985
-4.43865e-06
0.000789902
-3.8688e-06
0.00079202
-3.86133e-06
0.000795498
-3.45023e-06
0.00079996
-3.48162e-06
0.000805328
-3.07005e-06
0.000811233
-2.9536e-06
0.00081782
-3.18082e-06
0.000824478
-3.61626e-06
0.00083061
-3.95527e-06
0.00083588
-4.19758e-06
0.000840771
-4.39922e-06
0.000845734
-4.31972e-06
0.000849946
-4.27782e-06
0.000853563
-4.12691e-06
0.000857039
-3.84183e-06
0.000860438
-3.50177e-06
0.000863725
-3.1171e-06
0.000866951
-2.76867e-06
0.000870143
-2.40178e-06
0.000873077
-2.04865e-06
0.000875828
-1.68533e-06
0.000878441
-1.36231e-06
0.000880708
-1.02738e-06
0.000882736
-6.45958e-07
0.000884483
-2.55739e-07
0.000885939
1.191e-07
0.000886837
4.54643e-07
0.000887849
7.7354e-07
0.000888724
1.10069e-06
0.000889489
1.39978e-06
0.000890114
1.75008e-06
0.000890216
2.10338e-06
0.000889791
-1.78979e-05
0.000888605
-1.85196e-05
0.000896682
-1.90641e-05
0.00090552
-1.94745e-05
0.000914741
-1.98036e-05
0.000924349
-2.00972e-05
0.000934342
-2.02528e-05
0.000944651
-2.03471e-05
0.00095526
-2.03208e-05
0.000966118
-2.02298e-05
0.000977745
-2.00281e-05
0.000988639
-1.9621e-05
0.000998076
-1.9059e-05
0.00100755
-1.84872e-05
0.00101752
-1.77608e-05
0.00102766
-1.70105e-05
0.00103787
-1.60957e-05
0.00104895
-1.45497e-05
0.00105966
-1.31346e-05
0.00107124
-1.02455e-05
0.00108215
-8.40102e-06
0.00109381
3.71617e-05
0.00110902
0.000132675
0.00115067
-0.000154239
0.00118651
-0.00021101
0.00127063
-0.000163329
0.00130564
-0.000108092
0.00132027
-6.89394e-05
0.0013404
-4.61041e-05
0.00135479
-2.11415e-05
0.00137955
-7.07843e-06
0.00139843
1.00257e-06
0.00139281
3.29874e-06
0.00136845
5.46454e-06
0.00132877
4.93503e-06
0.00128344
9.42223e-06
0.00123177
1.18573e-05
0.00119436
1.67475e-05
0.00116712
2.67264e-05
0.00114021
3.45882e-05
0.00110309
4.78853e-05
0.00105296
5.96524e-05
0.000994934
7.42523e-05
0.000943304
9.3826e-05
0.000912927
0.000105503
0.00089003
0.000102162
0.000860854
8.71696e-05
0.000830889
7.44115e-05
0.000794685
6.25094e-05
0.00075506
5.71214e-05
0.000712197
5.76749e-05
0.000684733
5.84127e-05
0.000667248
5.50897e-05
0.000647969
4.82894e-05
0.000621803
4.43127e-05
0.000584848
5.05467e-05
0.000540753
5.56754e-05
0.000496383
5.74758e-05
0.000460526
5.57758e-05
0.000429165
5.58848e-05
0.000398672
5.33427e-05
0.000368024
5.46593e-05
0.000337455
5.22846e-05
0.000303904
5.61253e-05
0.000269838
5.82738e-05
0.000234681
6.65515e-05
0.000201946
6.77192e-05
0.000170079
7.62865e-05
0.000142664
7.32794e-05
0.000117009
8.40595e-05
9.71738e-05
7.52064e-05
7.92379e-05
7.70818e-05
6.2141e-05
5.57798e-05
4.37764e-05
4.63476e-05
2.32127e-05
-1.50011e-06
8.68436e-06
0.000741227
1.97468e-06
0.000754794
-8.25464e-07
0.000761774
-3.69342e-06
0.000764821
-4.13483e-06
0.00076364
-3.73429e-06
0.000763273
-3.52508e-06
0.00076682
-3.89677e-06
0.000772449
-4.12325e-06
0.000779856
-4.13625e-06
0.000789385
-5.06866e-06
0.000800574
-6.3287e-06
0.000811823
-7.90579e-06
0.000821627
-8.66589e-06
0.000829267
-9.25492e-06
0.000835912
-9.81922e-06
0.00084179
-1.03181e-05
0.000846672
-1.04278e-05
0.000850702
-9.91416e-06
0.000854711
-9.31434e-06
0.000858859
-8.8291e-06
0.000863643
-8.49407e-06
0.000869379
-8.15673e-06
0.000875087
-7.51748e-06
0.000880505
-7.22759e-06
0.000886236
-6.88569e-06
0.000891882
-6.49924e-06
0.000897393
-6.10875e-06
0.000902787
-5.69782e-06
0.000907877
-5.26131e-06
0.000912519
-4.80584e-06
0.000916728
-4.37574e-06
0.000920593
-3.86003e-06
0.000924071
-3.3887e-06
0.000927085
-2.85203e-06
0.000929801
-2.28822e-06
0.000932217
-1.72404e-06
0.000934311
-1.17272e-06
0.000936166
-5.62202e-07
0.000937624
4.63037e-08
0.000938881
6.57218e-07
0.000940015
1.26683e-06
0.000940973
1.84707e-06
0.000941714
2.42834e-06
0.000941899
-2.62478e-05
0.000941568
-2.73575e-05
0.000949345
-2.83356e-05
0.00095724
-2.91012e-05
0.000965203
-2.97541e-05
0.000973197
-3.02714e-05
0.000981299
-3.05934e-05
0.000989342
-3.08759e-05
0.000997528
-3.09978e-05
0.00100559
-3.0912e-05
0.00101338
-3.07059e-05
0.00102054
-3.03407e-05
0.00102683
-2.97615e-05
0.00103274
-2.91201e-05
0.00103909
-2.83973e-05
0.00104514
-2.74818e-05
0.00105054
-2.64788e-05
0.00105536
-2.54037e-05
0.00105931
-2.42802e-05
0.00106192
-2.24473e-05
0.00106547
-2.26373e-05
0.00106969
-1.71464e-05
0.00107551
1.39919e-05
0.00113192
-0.000252935
0.00128149
-0.000255927
0.00141142
-0.000183027
0.00144229
-0.000119229
0.00144666
-6.41099e-05
0.00143608
-3.99542e-05
0.00142011
-1.14167e-05
0.00142031
1.09432e-05
0.00142372
2.3081e-05
0.00140416
3.19532e-05
0.00135405
4.00283e-05
0.00128473
3.77057e-05
0.00121965
4.09585e-05
0.00116344
4.52721e-05
0.00111597
5.56255e-05
0.00108203
7.24487e-05
0.00105519
8.38066e-05
0.00102177
9.45488e-05
0.000981807
0.000102098
0.000941525
0.000112535
0.000911219
0.00012774
0.000892592
0.000133498
0.000878586
0.000127838
0.000856556
0.000112107
0.000831132
9.91804e-05
0.000801713
9.35417e-05
0.000768031
9.52794e-05
0.000727557
9.18368e-05
0.000689747
8.75792e-05
0.000661745
8.30132e-05
0.000635261
8.00744e-05
0.000606408
7.98444e-05
0.000574814
8.58317e-05
0.000538907
9.07488e-05
0.000497997
9.39402e-05
0.000459663
9.25833e-05
0.000426333
9.25318e-05
0.000396665
8.77706e-05
0.000366927
8.84473e-05
0.000335807
8.36984e-05
0.000300758
8.81592e-05
0.000263903
8.86449e-05
0.000227642
9.55705e-05
0.000194694
9.24841e-05
0.000163868
0.000101296
0.000137024
9.54708e-05
0.000112414
0.000105565
9.20045e-05
9.59497e-05
7.24415e-05
9.74496e-05
5.45793e-05
7.54231e-05
3.76644e-05
6.64039e-05
1.98804e-05
1.33878e-05
-6.15373e-06
0.000792527
-5.41179e-06
0.000785507
-4.10524e-06
0.000787475
-2.4136e-06
0.000796026
-2.88156e-06
0.00081057
-6.72597e-06
0.000825026
-9.08759e-06
0.00083428
-1.12901e-05
0.000841481
-1.36542e-05
0.000846571
-1.56405e-05
0.0008489
-1.663e-05
0.000850149
-1.64244e-05
0.000853102
-1.56253e-05
0.000858015
-1.51791e-05
0.00086474
-1.49668e-05
0.000872647
-1.43542e-05
0.000881718
-1.37131e-05
0.000891857
-1.33767e-05
0.000902936
-1.34146e-05
0.00091419
-1.37099e-05
0.00092457
-1.41686e-05
0.000934179
-1.41505e-05
0.000943065
-1.41399e-05
0.00095091
-1.39578e-05
0.000957739
-1.35777e-05
0.000963787
-1.30235e-05
0.000969508
-1.23374e-05
0.000975001
-1.15116e-05
0.000980345
-1.06621e-05
0.000985539
-9.75936e-06
0.000990551
-8.82887e-06
0.000995384
-7.92743e-06
0.000999977
-6.97976e-06
0.00100417
-6.06944e-06
0.00100805
-5.14936e-06
0.0010117
-4.20794e-06
0.00101493
-3.31775e-06
0.00101793
-2.42164e-06
0.00102058
-1.54451e-06
0.00102276
-6.74604e-07
0.00102485
1.88204e-07
0.00102677
9.99268e-07
0.00102846
1.86207e-06
0.00102943
2.70295e-06
0.00102973
-3.41087e-05
0.00102956
-3.5229e-05
0.00103574
-3.61891e-05
0.00104255
-3.69556e-05
0.00105041
-3.75969e-05
0.00105867
-3.80772e-05
0.00106728
-3.83648e-05
0.00107626
-3.8508e-05
0.00108553
-3.84203e-05
0.00109512
-3.80567e-05
0.0011056
-3.74919e-05
0.00111411
-3.68193e-05
0.00112198
-3.59639e-05
0.00113065
-3.48812e-05
0.00113964
-3.35716e-05
0.00114894
-3.19886e-05
0.00115721
-3.02171e-05
0.00116563
-2.84926e-05
0.00117444
-2.63707e-05
0.00118247
-2.48639e-05
0.00119005
-2.80192e-05
0.0011981
-6.86369e-05
0.00120991
-0.000298583
0.00125943
-0.000317706
0.00138706
-0.000283898
0.00148738
-0.000189172
0.00151088
-0.000117237
0.00153354
-5.16333e-05
0.00154039
-1.49657e-05
0.00154157
2.11974e-05
0.00154892
4.93253e-05
0.00155798
6.60255e-05
0.00154891
8.09955e-05
0.00152233
9.06867e-05
0.00147564
8.78949e-05
0.00140217
8.55421e-05
0.00131823
8.48601e-05
0.00123033
9.4485e-05
0.00118689
0.000108042
0.00115555
0.000116387
0.0011145
0.000121936
0.00106681
0.000128769
0.00101555
0.000140034
0.000971306
0.000152133
0.000937554
0.000158178
0.000908433
0.000152445
0.000876175
0.000139081
0.000840127
0.000128097
0.000802725
0.000125783
0.000760182
0.000125076
0.000708982
0.000124407
0.000664574
0.000122522
0.000631997
0.00012016
0.000604247
0.00011728
0.000576887
0.000114986
0.000547257
0.000117639
0.000513384
0.000121825
0.000474683
0.000125949
0.000438909
0.000125194
0.000408206
0.000126257
0.000382375
0.000121995
0.000356268
0.000124429
0.000330007
0.000119393
0.000302197
0.000122432
0.000273569
0.000118505
0.000241892
0.000123204
0.000210297
0.000116784
0.000178648
0.000126095
0.000150138
0.000118539
0.000123505
0.000127078
0.000100342
0.000116259
7.79727e-05
0.000116346
5.72312e-05
9.26164e-05
3.82302e-05
8.36931e-05
1.97079e-05
-1.62822e-05
2.7805e-06
0.000744821
-6.24441e-06
0.000767301
-1.17138e-05
0.000780049
-1.66886e-05
0.000786812
-1.79984e-05
0.000788117
-1.70246e-05
0.000790977
-1.68942e-05
0.000798516
-1.72353e-05
0.000808188
-1.73607e-05
0.000820313
-1.73963e-05
0.000835201
-1.82236e-05
0.00085162
-2.0253e-05
0.000867125
-2.21176e-05
0.000880699
-2.33488e-05
0.000892371
-2.45654e-05
0.000902806
-2.52358e-05
0.000911972
-2.56726e-05
0.000919899
-2.5821e-05
0.000926737
-2.49831e-05
0.000933196
-2.3875e-05
0.000939982
-2.26984e-05
0.000948231
-2.17071e-05
0.00095681
-2.07159e-05
0.000965511
-1.96329e-05
0.000973896
-1.87043e-05
0.000982476
-1.776e-05
0.000991135
-1.68365e-05
0.000999614
-1.5886e-05
0.00100764
-1.49353e-05
0.00101509
-1.39328e-05
0.00102199
-1.29217e-05
0.00102844
-1.18771e-05
0.00103443
-1.07857e-05
0.00104001
-9.6914e-06
0.00104488
-8.56042e-06
0.00104913
-7.40069e-06
0.00105293
-6.23327e-06
0.00105619
-5.0244e-06
0.00105885
-3.81493e-06
0.00106148
-2.56546e-06
0.00106389
-1.3369e-06
0.00106596
-9.5027e-08
0.00106774
1.14535e-06
0.00106904
2.37206e-06
0.00106994
-4.08391e-05
0.00107041
-4.25127e-05
0.00107779
-4.40198e-05
0.00108527
-4.52413e-05
0.00109292
-4.62006e-05
0.00110022
-4.68722e-05
0.00110695
-4.73426e-05
0.0011141
-4.76407e-05
0.00112128
-4.77035e-05
0.00112826
-4.73961e-05
0.00113483
-4.69165e-05
0.00114059
-4.61041e-05
0.00114551
-4.50377e-05
0.00115047
-4.37875e-05
0.00115582
-4.23107e-05
0.00116055
-4.06493e-05
0.00116482
-3.88068e-05
0.00116968
-3.69167e-05
0.00117403
-3.44439e-05
0.00117724
-3.34041e-05
0.00117889
-4.06401e-05
0.00117929
-0.000116236
0.0011876
-0.000536787
0.00124602
-0.000429011
0.00129017
-0.000328026
0.00138522
-0.000218739
0.00146954
-0.000125464
0.00153474
-5.51056e-05
0.00154435
-6.00771e-06
0.00153988
3.6878e-05
0.00153349
7.5466e-05
0.00152393
0.000102809
0.00152332
0.000124035
0.00151345
0.000142803
0.00148513
0.000153465
0.00142977
0.000152977
0.00136047
0.000145197
0.00127832
0.000140662
0.00119483
0.000151199
0.00113646
0.000159779
0.00108918
0.000163354
0.00104729
0.000168641
0.00100826
0.000184677
0.000973558
0.000194871
0.000939936
0.000198168
0.000901196
0.000193296
0.000860117
0.00018222
0.000820172
0.000174094
0.000782301
0.000166792
0.000741776
0.000158871
0.000695804
0.000156511
0.000651942
0.000157924
0.000614041
0.000155666
0.000579238
0.000150867
0.000546319
0.000146905
0.000512805
0.000148443
0.000476861
0.000150127
0.000439615
0.000152401
0.000404427
0.000150409
0.0003733
0.000154581
0.000348017
0.000151585
0.000324424
0.000156028
0.00030221
0.00014989
0.000279412
0.000153023
0.000254015
0.000145925
0.000226601
0.000150467
0.000198072
0.000142145
0.000170145
0.000152397
0.000144449
0.000143627
0.000121707
0.000150547
0.000101308
0.000138293
8.10464e-05
0.000136697
6.15901e-05
0.000110506
4.12699e-05
0.000101581
2.09998e-05
4.76554e-06
-2.20064e-05
0.000821712
-2.03946e-05
0.000815818
-1.91094e-05
0.000821076
-1.78691e-05
0.000833709
-1.85436e-05
0.000853062
-2.29414e-05
0.000872218
-2.58661e-05
0.000885387
-2.8525e-05
0.000896542
-3.15252e-05
0.000905111
-3.40971e-05
0.000910886
-3.56087e-05
0.000915375
-3.55004e-05
0.000920621
-3.47428e-05
0.000928059
-3.4059e-05
0.000937871
-3.35757e-05
0.000948963
-3.28355e-05
0.000961521
-3.17871e-05
0.000974796
-3.0953e-05
0.000989191
-3.06167e-05
0.00100398
-3.06218e-05
0.00101824
-3.04886e-05
0.00103146
-2.99855e-05
0.00104311
-2.94119e-05
0.00105368
-2.87884e-05
0.00106315
-2.78157e-05
0.00107175
-2.66769e-05
0.00107979
-2.53956e-05
0.00108743
-2.3969e-05
0.00109475
-2.24263e-05
0.00110174
-2.08255e-05
0.00110837
-1.91707e-05
0.00111465
-1.74803e-05
0.00112063
-1.57988e-05
0.00112635
-1.41128e-05
0.00113177
-1.24446e-05
0.00113674
-1.07364e-05
0.00114112
-9.08926e-06
0.00114538
-7.44946e-06
0.00114942
-5.85463e-06
0.00115317
-4.25772e-06
0.0011566
-2.74244e-06
0.00115977
-1.20433e-06
0.0011624
3.41033e-07
0.00116401
1.79574e-06
0.0011649
-4.83327e-05
0.00116524
-4.99111e-05
0.00117029
-5.12647e-05
0.00117633
-5.23666e-05
0.00118274
-5.31555e-05
0.00118894
-5.37458e-05
0.00119539
-5.41017e-05
0.00120262
-5.42035e-05
0.00121019
-5.40165e-05
0.00121843
-5.33748e-05
0.00122576
-5.24604e-05
0.00123167
-5.13717e-05
0.00123816
-5.00128e-05
0.00124499
-4.84195e-05
0.00125196
-4.66309e-05
0.00125908
-4.45439e-05
0.00126594
-4.22678e-05
0.00127252
-3.98904e-05
0.0012805
-3.68454e-05
0.00128552
-3.61846e-05
0.00128768
-5.04956e-05
0.00128964
-0.000187715
0.00130543
-0.000655225
0.0014147
-0.000548431
0.00143298
-0.000388747
0.0015058
-0.000269053
0.00160307
-0.000154661
0.00163639
-6.83138e-05
0.00164658
-6.38147e-06
0.00165466
4.8654e-05
0.00164608
8.16447e-05
0.00162454
0.000129398
0.00158559
0.000171833
0.00154704
0.00020976
0.00151287
0.000232157
0.00147315
0.000242238
0.00141624
0.000228196
0.00134668
0.000205448
0.00126451
0.000202185
0.0011881
0.000201221
0.00113979
0.000200935
0.00109696
0.000209797
0.00105631
0.00022832
0.00101808
0.000235803
0.000975378
0.000235134
0.000925863
0.000231508
0.000873344
0.00022401
0.000822498
0.000219874
0.000781727
0.000211771
0.000744789
0.000198552
0.000709208
0.000193751
0.000672023
0.000196043
0.000630058
0.000192367
0.000584274
0.000185556
0.000545007
0.000181104
0.000509238
0.000181355
0.000473373
0.000178375
0.000435917
0.000177607
0.000394987
0.000173359
0.00035715
0.000179562
0.000326429
0.000177223
0.000301267
0.000182285
0.000279851
0.000176363
0.000258768
0.000179465
0.000236672
0.000171322
0.000213769
0.000175679
0.000189682
0.000166542
0.000165553
0.000175222
0.000142116
0.000165978
0.000120377
0.000171943
0.000100742
0.000158207
8.16998e-05
0.000157407
6.31178e-05
0.000129523
4.35118e-05
0.000121
2.26689e-05
-4.00285e-05
-1.30409e-05
0.000753983
-2.34204e-05
0.000783458
-3.05169e-05
0.000802228
-3.67033e-05
0.000813262
-3.91382e-05
0.000820135
-3.81284e-05
0.000827966
-3.85136e-05
0.00083923
-3.88631e-05
0.000852705
-3.90041e-05
0.000868496
-3.90475e-05
0.000886721
-3.97931e-05
0.00090633
-4.15974e-05
0.000925582
-4.3656e-05
0.000942933
-4.50162e-05
0.000958592
-4.62854e-05
0.000972995
-4.66307e-05
0.000985955
-4.68822e-05
0.000997951
-4.69176e-05
0.00100876
-4.58176e-05
0.0010188
-4.42811e-05
0.00102903
-4.22991e-05
0.00104053
-4.06462e-05
0.001052
-3.8814e-05
0.00106339
-3.71712e-05
0.00107487
-3.5491e-05
0.0010863
-3.37317e-05
0.00109766
-3.19634e-05
0.00110885
-3.01949e-05
0.00111959
-2.84091e-05
0.00112965
-2.66493e-05
0.00113899
-2.48122e-05
0.00114766
-2.29064e-05
0.00115569
-2.10566e-05
0.00116318
-1.90847e-05
0.00116981
-1.70926e-05
0.00117573
-1.5176e-05
0.00118113
-1.31615e-05
0.0011859
-1.11603e-05
0.00119014
-9.17589e-06
0.00119408
-7.16582e-06
0.00119761
-5.18425e-06
0.0012008
-3.18385e-06
0.0012036
-1.19256e-06
0.00120566
8.44962e-07
0.00120714
-5.36115e-05
0.00120831
-5.56491e-05
0.0012146
-5.73872e-05
0.00122095
-5.88168e-05
0.00122727
-6.00036e-05
0.00123349
-6.08457e-05
0.00123971
-6.13545e-05
0.00124616
-6.1562e-05
0.00125276
-6.13341e-05
0.0012591
-6.07259e-05
0.00126443
-5.9846e-05
0.00126847
-5.85956e-05
0.00127138
-5.71192e-05
0.00127538
-5.53595e-05
0.00127985
-5.32257e-05
0.00128407
-5.06785e-05
0.00128809
-4.77745e-05
0.0012922
-4.4463e-05
0.0012963
-4.0877e-05
0.0012995
-4.06511e-05
0.00130212
-6.65472e-05
0.00130641
-0.000345391
0.00133163
-0.000676479
0.00135221
-0.000606715
0.00138292
-0.000461195
0.00145513
-0.000303072
0.00155962
-0.000176474
0.00162608
-7.51591e-05
0.00165702
1.02758e-06
0.00166782
5.95488e-05
0.00166702
0.000117618
0.00166243
0.000178343
0.00163375
0.000221606
0.00159083
0.000269575
0.00152549
0.000300589
0.00146829
0.000308607
0.00140937
0.0002951
0.00133926
0.000277291
0.00125774
0.000267151
0.00118369
0.000260895
0.00113166
0.000255752
0.0010844
0.000256729
0.00103448
0.000269669
0.00098161
0.000278574
0.000933323
0.000279503
0.000887888
0.00027553
0.000843017
0.000269565
0.000799879
0.000268184
0.000758317
0.000260064
0.000717869
0.000244118
0.000678109
0.000237331
0.000636368
0.000236992
0.000592187
0.000229251
0.000549875
0.00022197
0.000511005
0.000217507
0.0004731
0.000216856
0.000435595
0.000211343
0.000399248
0.000208702
0.000365658
0.000201431
0.000335419
0.000205945
0.000308455
0.000201657
0.000284186
0.000205672
0.000262506
0.00019889
0.000241835
0.000201616
0.000221369
0.000193515
0.000200683
0.000197963
0.000179279
0.000189011
0.000157346
0.000196277
0.000135485
0.000186488
0.000114739
0.000191575
9.56746e-05
0.000176514
7.72977e-05
0.000176482
5.9157e-05
0.00014852
4.03711e-05
0.000141473
2.07818e-05
-1.2742e-05
-4.5123e-05
0.00085158
-4.38509e-05
0.000848628
-4.19664e-05
0.000856045
-4.22044e-05
0.000871809
-4.33054e-05
0.000892927
-4.74427e-05
0.000913631
-5.09598e-05
0.000930076
-5.37363e-05
0.000944865
-5.66605e-05
0.00095725
-5.93578e-05
0.000967153
-6.12616e-05
0.000976171
-6.154e-05
0.00098589
-6.08892e-05
0.00099679
-6.01583e-05
0.00100971
-5.95388e-05
0.00102443
-5.83412e-05
0.00103949
-5.69673e-05
0.00105559
-5.57251e-05
0.00107249
-5.47351e-05
0.00108944
-5.38402e-05
0.00110607
-5.27915e-05
0.00112147
-5.16643e-05
0.00113498
-5.01752e-05
0.00114792
-4.86823e-05
0.0011601
-4.695e-05
0.00117135
-4.49985e-05
0.00118186
-4.28776e-05
0.00119176
-4.05981e-05
0.00120111
-3.81858e-05
0.00121006
-3.57149e-05
0.00121865
-3.31783e-05
0.00122685
-3.056e-05
0.00123455
-2.80147e-05
0.00124172
-2.53511e-05
0.0012483
-2.27048e-05
0.00125433
-2.01464e-05
0.00125945
-1.74928e-05
0.0012644
-1.4989e-05
0.00126955
-1.24903e-05
0.00127425
-1.0011e-05
0.00127861
-7.59577e-06
0.00128263
-5.1783e-06
0.00128617
-2.7341e-06
0.00128873
-3.5084e-07
0.00129051
-5.99981e-05
0.00129162
-6.1967e-05
0.00129567
-6.36422e-05
0.00130081
-6.49585e-05
0.00130615
-6.60121e-05
0.00131166
-6.67486e-05
0.00131759
-6.71331e-05
0.00132388
-6.71961e-05
0.0013304
-6.67656e-05
0.00133692
-6.58118e-05
0.00134169
-6.45509e-05
0.00134485
-6.30068e-05
0.00134969
-6.11267e-05
0.00135482
-5.89011e-05
0.00136002
-5.63074e-05
0.00136521
-5.35113e-05
0.00137065
-5.0449e-05
0.00137563
-4.70878e-05
0.00138091
-4.41031e-05
0.0013833
-4.5714e-05
0.00138229
-9.35507e-05
0.00138619
-0.000460605
0.00143308
-0.000701866
0.00144785
-0.000672098
0.00144468
-0.00055696
0.00146354
-0.000374319
0.00151024
-0.000208541
0.00158176
-7.09792e-05
0.00163213
2.52241e-05
0.00164212
9.0969e-05
0.00164274
0.000163296
0.00161321
0.000221476
0.00158038
0.000274532
0.00151762
0.000317842
0.00145565
0.000354284
0.0013973
0.000370034
0.00135555
0.000367918
0.00130226
0.00035203
0.00123885
0.000334144
0.00117198
0.000318808
0.00110391
0.000309155
0.00104052
0.000306464
0.000984125
0.00031408
0.000934706
0.000320306
0.000890103
0.000321323
0.000848784
0.000318026
0.000809097
0.000312348
0.00077091
0.000310078
0.00073136
0.00030185
0.000690332
0.000287122
0.000650572
0.000282096
0.000612055
0.000277564
0.000570422
0.00026489
0.000530252
0.000257375
0.000490808
0.000252074
0.000450893
0.000248491
0.000413479
0.000238074
0.000379709
0.000234489
0.000349016
0.000228066
0.000320105
0.000231808
0.000292965
0.000225477
0.000268114
0.000228048
0.000245811
0.00021977
0.000225325
0.000222394
0.000206351
0.000214012
0.000187733
0.000218524
0.000168609
0.000209848
0.000148654
0.00021596
0.00012854
0.000205589
0.000109034
0.000209842
9.05008e-05
0.000193834
7.27193e-05
0.000194247
5.52172e-05
0.000166235
3.73949e-05
0.000160241
1.91718e-05
-6.93897e-05
-3.89094e-05
0.000771313
-4.90466e-05
0.000804417
-5.6645e-05
0.000828776
-6.30925e-05
0.000846146
-6.67158e-05
0.000859633
-6.63506e-05
0.000874058
-6.75223e-05
0.000890491
-6.82331e-05
0.000908105
-6.85539e-05
0.000927461
-6.87214e-05
0.000948622
-6.93499e-05
0.00097087
-7.07129e-05
0.000993295
-7.22999e-05
0.00101476
-7.3745e-05
0.00103419
-7.41603e-05
0.0010524
-7.44818e-05
0.00106961
-7.43084e-05
0.0010854
-7.37503e-05
0.00110023
-7.21377e-05
0.00111424
-6.99327e-05
0.0011282
-6.75146e-05
0.00114232
-6.52031e-05
0.00115665
-6.26019e-05
0.00117094
-6.00097e-05
0.00118499
-5.73416e-05
0.00119877
-5.45676e-05
0.00121224
-5.17852e-05
0.00122539
-4.89649e-05
0.00123815
-4.61227e-05
0.00125037
-4.32527e-05
0.00126192
-4.04115e-05
0.00127269
-3.74777e-05
0.00128268
-3.4464e-05
0.00129173
-3.13558e-05
0.00130023
-2.83613e-05
0.00130797
-2.53383e-05
0.00131476
-2.24043e-05
0.00132125
-1.94668e-05
0.0013275
-1.65151e-05
0.00133299
-1.35908e-05
0.00133794
-1.06947e-05
0.00134244
-7.81223e-06
0.00134639
-4.85774e-06
0.0013493
-2.0001e-06
0.00135114
-6.47675e-05
0.00135264
-6.71426e-05
0.00135745
-6.90346e-05
0.00136251
-7.05211e-05
0.0013675
-7.15626e-05
0.00137174
-7.2293e-05
0.00137645
-7.26793e-05
0.00138159
-7.27302e-05
0.00138687
-7.22421e-05
0.00139198
-7.1388e-05
0.00139632
-6.99669e-05
0.00139902
-6.81784e-05
0.00139983
-6.60948e-05
0.00140342
-6.37015e-05
0.00140718
-6.09258e-05
0.00141088
-5.77528e-05
0.00141449
-5.40164e-05
0.00141809
-4.95302e-05
0.00141977
-4.58139e-05
0.00141924
-4.98952e-05
0.00141682
-0.000138565
0.00142107
-0.000573187
0.00145091
-0.000719958
0.00148828
-0.000706743
0.00147919
-0.000630525
0.00148794
-0.000456515
0.00152113
-0.000251563
0.00158802
-6.59632e-05
0.00163349
4.04151e-05
0.00163088
0.000135507
0.0015891
0.000202615
0.00154002
0.000278284
0.00147247
0.000321845
0.00140551
0.000366319
0.00134134
0.000398394
0.00128363
0.000423747
0.00123521
0.000430314
0.00119645
0.000422277
0.00116299
0.000405362
0.00112569
0.00037912
0.00108018
0.000360284
0.00103145
0.0003539
0.000984586
0.000357637
0.000942197
0.000360369
0.000900265
0.000361499
0.000858755
0.000359291
0.000816975
0.000354916
0.00077481
0.000351471
0.000731216
0.000339665
0.000692293
0.000323753
0.000656204
0.000321772
0.000619981
0.00031537
0.000578143
0.000299669
0.000534586
0.000292887
0.000491176
0.000286175
0.000449486
0.000278747
0.000412936
0.000265706
0.00038048
0.000261549
0.000349796
0.000255192
0.000318706
0.000257229
0.00028883
0.000248742
0.000261762
0.000249878
0.00023734
0.000239847
0.000215542
0.000242107
0.000195682
0.000233047
0.000176772
0.000237443
0.000158154
0.000228923
0.000138823
0.00023434
0.000119913
0.000223751
0.000101419
0.000227177
8.34389e-05
0.000210342
6.65539e-05
0.000211051
5.0079e-05
0.000182834
3.36259e-05
0.000177658
1.71616e-05
-3.91748e-05
-7.54924e-05
0.000880905
-7.53561e-05
0.000882601
-7.38748e-05
0.000891816
-7.48865e-05
0.000909051
-7.67327e-05
0.000930219
-8.03755e-05
0.000951122
-8.35836e-05
0.000969962
-8.63904e-05
0.00098809
-8.9052e-05
0.00100418
-9.15439e-05
0.00101895
-9.35062e-05
0.00103346
-9.40315e-05
0.00104799
-9.33627e-05
0.00106333
-9.27856e-05
0.00107998
-9.18638e-05
0.00109739
-9.07174e-05
0.00111485
-8.90644e-05
0.00113284
-8.67485e-05
0.00115191
-8.4687e-05
0.00117089
-8.27612e-05
0.00118941
-8.10179e-05
0.00120686
-7.88588e-05
0.00122353
-7.62946e-05
0.00123922
-7.36387e-05
0.00125398
-7.07508e-05
0.00126773
-6.76699e-05
0.00128075
-6.44843e-05
0.00129316
-6.11468e-05
0.001305
-5.7695e-05
0.00131626
-5.41177e-05
0.00132688
-5.05831e-05
0.00133691
-4.68075e-05
0.0013463
-4.3026e-05
0.00135499
-3.91812e-05
0.00136327
-3.55374e-05
0.00137104
-3.20802e-05
0.00137819
-2.88134e-05
0.00138444
-2.50445e-05
0.00138944
-2.13639e-05
0.00139469
-1.77936e-05
0.00139999
-1.42177e-05
0.00140491
-1.06913e-05
0.00140892
-7.17183e-06
0.00141213
-3.71709e-06
0.00141517
-6.9291e-05
0.00141807
-7.17547e-05
0.00142308
-7.38456e-05
0.00142822
-7.54183e-05
0.00143245
-7.63573e-05
0.00143475
-7.69117e-05
0.00143824
-7.71019e-05
0.00144293
-7.69514e-05
0.00144784
-7.62327e-05
0.00145295
-7.52993e-05
0.00145857
-7.36423e-05
0.00146255
-7.15211e-05
0.00146385
-6.90306e-05
0.00146672
-6.61671e-05
0.00147003
-6.28808e-05
0.00147373
-5.91944e-05
0.00147778
-5.50063e-05
0.00148217
-5.00486e-05
0.00148359
-4.72097e-05
0.00147984
-5.43203e-05
0.00147739
-0.000193768
0.00148689
-0.000669409
0.00153578
-0.000736939
0.00153748
-0.00073043
0.00153739
-0.000678566
0.00153603
-0.000543847
0.0015442
-0.000307698
0.0015712
-6.75347e-05
0.00157414
8.69382e-05
0.00153229
0.000192593
0.00145049
0.000268638
0.00138357
0.000337023
0.00132697
0.000380388
0.00127151
0.000419853
0.00121425
0.000443184
0.00116794
0.000461887
0.00113011
0.000470328
0.00109958
0.000463582
0.00107288
0.000444147
0.00104322
0.000420676
0.00101014
0.000406727
0.000968371
0.00040127
0.000925434
0.000402565
0.000885736
0.000402683
0.000846126
0.000403089
0.000804264
0.000400411
0.000761815
0.000396792
0.000720448
0.000389882
0.00068266
0.000373891
0.000651645