/*--------------------------------*- C++ -*----------------------------------*\
| =========                 |                                                 |
| \\      /  F ield         | OpenFOAM: The Open Source CFD Toolbox           |
|  \\    /   O peration     | Version:  2.2.x                                 |
|   \\  /    A nd           | Web:      www.OpenFOAM.org                      |
|    \\/     M anipulation  |                                                 |
\*---------------------------------------------------------------------------*/
FoamFile
{
    version     2.0;
    format      ascii;
    class       volScalarField;
    location    "0.95";
    object      Bx;
}
// * * * * * * * * * * * * * * * * * * * * * * * * * * * * * * * * * * * * * //

dimensions      [1 0 -2 0 0 -1 0];

internalField   nonuniform List<scalar> 
14161
(
1.00619
1.00322
1.00404
1.00396
1.00415
1.00432
1.00452
1.00474
1.00499
1.00524
1.00551
1.00578
1.00607
1.00635
1.00664
1.00692
1.0072
1.00746
1.00772
1.00796
1.00818
1.00838
1.00857
1.00872
1.00885
1.00895
1.00903
1.00907
1.00909
1.00907
1.00902
1.00895
1.00884
1.0087
1.00856
1.00841
1.00817
1.00784
1.00754
1.00725
1.00677
1.00634
1.00573
1.0055
1.00502
1.00518
1.00485
1.00751
1.00735
1.02341
1.01173
1.18091
1.25626
1.25232
1.24669
1.24952
1.24747
1.25316
1.25476
1.25655
1.25524
1.25266
1.25005
1.24987
1.24801
1.24524
1.24137
1.23815
1.23467
1.23351
1.23377
1.23418
1.23384
1.23364
1.2321
1.23005
1.23035
1.23055
1.2271
1.2313
1.23883
1.22011
1.12292
0.960247
0.784727
0.617508
0.478384
0.388503
0.320671
0.25844
0.215077
0.190634
0.173486
0.167931
0.171405
0.181624
0.192533
0.207512
0.217572
0.226621
0.233028
0.238481
0.241782
0.244562
0.245582
0.245005
0.242329
0.239661
0.229708
0.225357
0.204297
0.199912
0.168539
0.16624
0.123203
0.122903
0.0655473
0.0716198
-0.00532667
1.00619
1.00321
1.00404
1.00396
1.00415
1.00431
1.00452
1.00474
1.00499
1.00524
1.00551
1.00578
1.00607
1.00635
1.00664
1.00692
1.0072
1.00746
1.00772
1.00796
1.00819
1.00838
1.00857
1.00871
1.00884
1.00894
1.00902
1.00907
1.00909
1.00907
1.00903
1.00895
1.00884
1.0087
1.00856
1.00842
1.00821
1.00794
1.00767
1.00741
1.00709
1.00677
1.00645
1.00629
1.00601
1.00629
1.00611
1.00849
1.00764
1.01481
1.00432
1.01331
0.971084
0.997197
1.00824
1.03071
1.04532
1.06818
1.08982
1.10959
1.1288
1.14701
1.1641
1.18205
1.19101
1.20112
1.20941
1.21749
1.22308
1.2273
1.2307
1.23438
1.23557
1.2331
1.23543
1.23163
1.194
1.1561
1.15733
1.14725
1.04785
0.938722
0.895646
0.791641
0.683285
0.589836
0.4979
0.408804
0.328468
0.28865
0.260861
0.234764
0.220992
0.209536
0.200926
0.198509
0.194391
0.194287
0.196471
0.20041
0.205291
0.209915
0.214066
0.217778
0.21988
0.221995
0.220887
0.220826
0.213997
0.213509
0.197845
0.196943
0.168926
0.166732
0.127716
0.126895
0.0738002
0.0746552
0.00099394
1.00619
1.00321
1.00404
1.00396
1.00414
1.00431
1.00452
1.00474
1.00499
1.00524
1.00551
1.00578
1.00607
1.00635
1.00664
1.00692
1.0072
1.00747
1.00773
1.00796
1.00819
1.00838
1.00858
1.00873
1.00887
1.00896
1.00903
1.00907
1.0091
1.00909
1.00905
1.00898
1.00888
1.00876
1.00862
1.00845
1.0082
1.00786
1.00752
1.00719
1.00667
1.00595
1.00523
1.0045
1.00333
1.00171
0.999641
0.995556
0.992111
0.979927
0.975797
0.900956
0.803165
0.853638
0.871796
0.930506
0.958468
0.99723
1.03298
1.06381
1.09409
1.1203
1.14498
1.1684
1.18041
1.19248
1.20224
1.21151
1.21893
1.22333
1.2305
1.23782
1.24947
1.24987
1.22267
1.18702
1.19858
1.18377
1.09205
0.959616
0.933885
0.890019
0.765885
0.703101
0.680459
0.602341
0.519238
0.446055
0.377362
0.326628
0.294721
0.266644
0.249013
0.240167
0.234752
0.231545
0.23013
0.232351
0.235873
0.24187
0.246041
0.25077
0.254912
0.258746
0.261127
0.261919
0.259858
0.258429
0.247106
0.242736
0.220388
0.21378
0.180542
0.174877
0.133684
0.129662
0.0771298
0.0746515
0.00340583
1.00618
1.00321
1.00404
1.00396
1.00414
1.00431
1.00452
1.00474
1.00499
1.00524
1.00551
1.00579
1.00607
1.00635
1.00664
1.00692
1.0072
1.00746
1.00773
1.00797
1.00819
1.0084
1.00858
1.00874
1.00888
1.00898
1.00906
1.0091
1.00911
1.00909
1.00905
1.00897
1.00887
1.00874
1.00862
1.0085
1.00833
1.00814
1.00792
1.0077
1.00739
1.00715
1.00693
1.00671
1.00645
1.00603
1.00538
1.0048
1.00359
0.999375
0.99308
0.901331
0.769294
0.791346
0.811187
0.883812
0.930682
0.982118
1.02598
1.06319
1.10433
1.13456
1.16537
1.18144
1.19443
1.2067
1.21631
1.22356
1.22897
1.23465
1.24175
1.24893
1.24676
1.22623
1.22765
1.24637
1.19796
1.10094
1.07842
1.06581
0.945201
0.841615
0.825018
0.789454
0.710611
0.663267
0.612378
0.522242
0.45388
0.393147
0.345261
0.30851
0.284659
0.269732
0.262731
0.261658
0.261073
0.264087
0.266607
0.269103
0.271681
0.274495
0.276849
0.27888
0.278304
0.27964
0.275663
0.27281
0.260257
0.254671
0.231852
0.224567
0.189421
0.182062
0.137179
0.132286
0.078666
0.0752506
0.0107169
1.00618
1.00321
1.00403
1.00396
1.00414
1.0043
1.00452
1.00474
1.00498
1.00524
1.00551
1.00579
1.00607
1.00635
1.00664
1.00693
1.0072
1.00747
1.00773
1.00798
1.0082
1.00841
1.00859
1.00875
1.00888
1.009
1.00909
1.00913
1.00916
1.00916
1.00913
1.00908
1.00899
1.00888
1.00875
1.00859
1.00834
1.00801
1.00767
1.00729
1.00674
1.00604
1.00523
1.00418
1.00253
1.00062
0.998324
0.994342
0.990868
0.976434
0.982096
0.891739
0.759575
0.841198
0.870205
0.956553
1.00477
1.06437
1.09904
1.13741
1.16855
1.19101
1.21583
1.2224
1.23786
1.24515
1.25003
1.25525
1.26034
1.2656
1.26772
1.26813
1.26247
1.26976
1.27674
1.2408
1.20451
1.21605
1.16832
1.06938
1.01817
0.977892
0.911068
0.867805
0.826233
0.780294
0.707623
0.644365
0.567452
0.480561
0.410628
0.361623
0.325535
0.307389
0.29692
0.293109
0.294376
0.295012
0.297054
0.299762
0.301025
0.303449
0.302894
0.303558
0.301913
0.300243
0.294162
0.290117
0.274847
0.268504
0.241347
0.230558
0.192114
0.181784
0.134492
0.127764
0.0712497
0.0716041
0.0124738
1.00617
1.00321
1.00403
1.00396
1.00414
1.0043
1.00452
1.00474
1.00498
1.00524
1.0055
1.00578
1.00607
1.00636
1.00665
1.00693
1.00721
1.00748
1.00774
1.00799
1.00821
1.00842
1.0086
1.00877
1.00891
1.00902
1.00909
1.00915
1.00918
1.00917
1.00914
1.00908
1.00899
1.00887
1.00876
1.00864
1.0085
1.00837
1.00824
1.0081
1.0079
1.00769
1.00762
1.00765
1.00744
1.00718
1.00674
1.00667
1.00519
1.00532
1.00564
1.00268
0.93086
0.960693
1.0261
1.09005
1.13557
1.17894
1.19822
1.2286
1.24436
1.26386
1.27433
1.27786
1.28848
1.28999
1.29432
1.29561
1.29957
1.3003
1.30138
1.30033
1.30163
1.30393
1.29095
1.29237
1.28419
1.25227
1.20136
1.18205
1.12227
1.07892
1.02711
0.988247
0.938623
0.884779
0.836661
0.772375
0.672364
0.58364
0.495071
0.422467
0.377363
0.346206
0.330762
0.322729
0.319578
0.318482
0.318581
0.318149
0.317456
0.317785
0.315952
0.31367
0.311136
0.307564
0.298269
0.292732
0.276312
0.266974
0.238177
0.227604
0.188869
0.178662
0.130386
0.123381
0.0696759
0.0696248
0.0174942
1.00616
1.00321
1.00403
1.00396
1.00414
1.0043
1.00452
1.00474
1.00498
1.00524
1.00551
1.00579
1.00607
1.00636
1.00665
1.00694
1.00722
1.00749
1.00774
1.008
1.00823
1.00845
1.00863
1.0088
1.00894
1.00906
1.00915
1.00922
1.00926
1.00929
1.00928
1.00925
1.00918
1.0091
1.009
1.00886
1.00866
1.00846
1.00821
1.0079
1.00745
1.00693
1.00631
1.00587
1.00518
1.00495
1.00448
1.00533
1.0042
1.01261
0.993299
1.07368
1.12745
1.11693
1.20165
1.22406
1.24681
1.27518
1.28144
1.31077
1.31164
1.33183
1.32145
1.33664
1.32716
1.33443
1.33494
1.33557
1.33474
1.3339
1.33331
1.33199
1.33032
1.33112
1.3272
1.33299
1.30853
1.30057
1.25532
1.23329
1.17414
1.14722
1.10854
1.06754
1.02673
0.985099
0.935173
0.880318
0.812137
0.71419
0.603235
0.512845
0.438185
0.392478
0.363081
0.347753
0.341764
0.340293
0.33809
0.3383
0.337357
0.334296
0.327726
0.324916
0.318933
0.310779
0.298135
0.288327
0.267381
0.258207
0.226478
0.218022
0.178614
0.170035
0.123521
0.118016
0.0673402
0.0676197
0.0223648
1.00616
1.00321
1.00403
1.00396
1.00414
1.0043
1.00452
1.00474
1.00499
1.00524
1.00551
1.00579
1.00608
1.00637
1.00665
1.00693
1.00722
1.0075
1.00776
1.00801
1.00824
1.00846
1.00865
1.00883
1.00898
1.0091
1.00918
1.00925
1.00928
1.0093
1.00928
1.00925
1.00918
1.00909
1.00899
1.0089
1.00877
1.00866
1.00856
1.00848
1.00848
1.00853
1.00884
1.00924
1.00919
1.00946
1.0093
1.01094
1.01187
1.02094
1.0221
1.11329
1.29999
1.33777
1.35405
1.34167
1.33856
1.34129
1.34154
1.35623
1.3475
1.36288
1.34826
1.36263
1.35241
1.3597
1.35906
1.35998
1.35753
1.35781
1.35385
1.35449
1.34951
1.35562
1.34538
1.35276
1.32883
1.32105
1.26992
1.25066
1.21668
1.18698
1.15448
1.11348
1.0844
1.04543
1.00772
0.966267
0.91118
0.834242
0.742409
0.621188
0.510114
0.441043
0.398269
0.375574
0.365939
0.362046
0.358817
0.354363
0.349356
0.34226
0.337266
0.32667
0.311846
0.298143
0.284345
0.277464
0.253567
0.247428
0.218836
0.210607
0.171391
0.165027
0.118514
0.115159
0.0678669
0.0679274
0.0268665
1.00614
1.00321
1.00402
1.00396
1.00414
1.0043
1.00452
1.00474
1.00499
1.00524
1.00552
1.00579
1.00608
1.00637
1.00666
1.00695
1.00723
1.00752
1.00778
1.00803
1.00827
1.0085
1.00869
1.00887
1.00902
1.00916
1.00926
1.00935
1.00941
1.00945
1.00948
1.00949
1.00947
1.00944
1.00938
1.00931
1.00918
1.00905
1.00891
1.00879
1.00863
1.00845
1.00824
1.00821
1.00825
1.00878
1.00947
1.01084
1.01124
1.01285
1.02096
1.03076
1.21793
1.36561
1.35051
1.36152
1.35526
1.36319
1.35553
1.36824
1.35541
1.37106
1.35669
1.37013
1.35979
1.36596
1.36254
1.3643
1.36168
1.36158
1.35852
1.35968
1.35471
1.35974
1.35259
1.35847
1.3175
1.29756
1.26749
1.23189
1.20729
1.18576
1.16327
1.13209
1.10609
1.07225
1.0419
1.00984
0.969713
0.916412
0.855274
0.750129
0.621213
0.516601
0.443924
0.407987
0.38968
0.382224
0.375607
0.37003
0.363699
0.357744
0.34922
0.333134
0.318444
0.310671
0.290968
0.278191
0.256947
0.248878
0.218305
0.210718
0.171416
0.164796
0.119658
0.116852
0.0718614
0.0717839
0.0329339
1.00614
1.00321
1.00402
1.00396
1.00414
1.0043
1.00452
1.00474
1.00499
1.00525
1.00552
1.0058
1.00609
1.00638
1.00667
1.00696
1.00725
1.00753
1.0078
1.00806
1.00829
1.00853
1.00872
1.00892
1.00907
1.00921
1.00932
1.0094
1.00946
1.0095
1.00951
1.00949
1.00946
1.00941
1.00934
1.00925
1.00916
1.00905
1.00894
1.00887
1.00883
1.00886
1.00877
1.00884
1.0087
1.00883
1.00876
1.00907
1.00817
1.01111
1.00573
1.05375
1.12701
1.23777
1.27585
1.32235
1.31821
1.33587
1.33165
1.34787
1.34203
1.35342
1.35021
1.3567
1.35357
1.3552
1.35421
1.35371
1.35417
1.35179
1.35284
1.34782
1.35017
1.33769
1.34825
1.31327
1.31617
1.26799
1.24987
1.21355
1.20044
1.17934
1.15486
1.13657
1.11301
1.09179
1.07139
1.04838
1.01687
0.979416
0.934141
0.869275
0.753718
0.621232
0.509919
0.449278
0.421581
0.409823
0.397482
0.389988
0.382913
0.371437
0.352749
0.34039
0.328473
0.309957
0.288828
0.276015
0.254534
0.246178
0.218091
0.211352
0.174527
0.169323
0.125037
0.122642
0.0784505
0.0786289
0.0400842
1.00613
1.00321
1.00402
1.00395
1.00414
1.0043
1.00452
1.00474
1.00499
1.00525
1.00552
1.0058
1.00609
1.00638
1.00668
1.00697
1.00726
1.00755
1.00782
1.00808
1.00833
1.00857
1.00877
1.00897
1.00914
1.00929
1.00943
1.00953
1.00963
1.0097
1.00976
1.0098
1.00984
1.00986
1.00989
1.0099
1.00989
1.00987
1.00989
1.00996
1.00995
1.00985
1.00983
1.00994
1.01008
1.01039
1.0104
1.011
1.0099
1.01639
1.00337
1.08966
1.07147
1.12333
1.19589
1.23862
1.28007
1.29188
1.31371
1.31377
1.33465
1.32662
1.34388
1.33518
1.34654
1.34615
1.3458
1.34656
1.34471
1.34664
1.34456
1.34812
1.34149
1.344
1.32194
1.31953
1.26633
1.25854
1.20852
1.21067
1.18035
1.16653
1.14503
1.13374
1.12037
1.10774
1.0879
1.06899
1.04849
1.01943
0.987679
0.939094
0.867437
0.744169
0.613755
0.516853
0.465351
0.445663
0.42914
0.418464
0.397765
0.381281
0.371271
0.352729
0.33241
0.313449
0.295466
0.279701
0.258427
0.249097
0.221361
0.215059
0.1822
0.176209
0.133804
0.130522
0.0865612
0.0866419
0.048376
1.00612
1.00321
1.00402
1.00395
1.00414
1.0043
1.00452
1.00475
1.00499
1.00525
1.00553
1.00581
1.0061
1.00639
1.00669
1.00699
1.00728
1.00757
1.00784
1.00811
1.00837
1.00861
1.00883
1.00903
1.00921
1.00937
1.0095
1.00962
1.00971
1.00978
1.00982
1.00985
1.00984
1.00982
1.00979
1.00974
1.00965
1.0095
1.0094
1.00933
1.00919
1.00898
1.00877
1.00861
1.00838
1.00815
1.00736
1.00633
1.00323
1.00624
0.994647
1.05041
1.07048
1.08336
1.14594
1.17913
1.27474
1.28001
1.32187
1.3186
1.34213
1.32546
1.34425
1.33157
1.34413
1.33839
1.34262
1.33915
1.34098
1.33884
1.33991
1.33586
1.33625
1.33345
1.31521
1.27293
1.24453
1.2024
1.20241
1.16646
1.15923
1.13816
1.13695
1.12401
1.11186
1.10116
1.09329
1.08016
1.06627
1.04885
1.02635
0.997061
0.947464
0.868672
0.737829
0.60957
0.532738
0.498726
0.468709
0.444285
0.42894
0.408994
0.386872
0.361028
0.341469
0.320186
0.300637
0.283568
0.261272
0.25167
0.227928
0.2215
0.189583
0.18322
0.143398
0.138454
0.0959524
0.0956661
0.0570791
1.00611
1.00321
1.00402
1.00395
1.00414
1.0043
1.00452
1.00475
1.00499
1.00525
1.00553
1.00582
1.00611
1.00641
1.00671
1.007
1.0073
1.00759
1.00788
1.00815
1.00842
1.00866
1.00889
1.00911
1.00931
1.00948
1.00964
1.00978
1.00991
1.01002
1.01012
1.01021
1.01029
1.01037
1.01047
1.01059
1.01067
1.01077
1.01091
1.01101
1.01115
1.01139
1.01173
1.01194
1.01219
1.01241
1.01292
1.01367
1.01721
1.01816
1.03962
1.09328
1.10368
1.10127
1.12497
1.16392
1.23214
1.25854
1.31387
1.30331
1.33782
1.32047
1.34158
1.32813
1.33929
1.33185
1.33662
1.33241
1.33274
1.32961
1.32976
1.32753
1.32311
1.32053
1.28446
1.24368
1.20733
1.18032
1.16322
1.14302
1.13989
1.12673
1.11897
1.10817
1.10299
1.10018
1.09522
1.09114
1.08221
1.06921
1.05208
1.03301
1.00039
0.946805
0.853344
0.738486
0.619702
0.564165
0.520759
0.488441
0.458636
0.425645
0.398437
0.37175
0.349321
0.326204
0.304296
0.284092
0.263712
0.253937
0.230415
0.223081
0.196413
0.191083
0.15295
0.148212
0.106287
0.105778
0.0671637
1.0061
1.00321
1.00402
1.00395
1.00414
1.00431
1.00452
1.00475
1.005
1.00526
1.00554
1.00582
1.00612
1.00642
1.00672
1.00702
1.00732
1.00762
1.00791
1.00819
1.00846
1.00872
1.00896
1.00918
1.0094
1.00958
1.00975
1.0099
1.01004
1.01015
1.01024
1.01031
1.01035
1.01038
1.0104
1.01039
1.01032
1.01024
1.01019
1.00998
1.00974
1.00948
1.00939
1.00911
1.00899
1.00843
1.00851
1.00656
1.01168
0.993884
1.08383
1.05201
1.06546
1.07398
1.08223
1.12806
1.14267
1.2493
1.2482
1.31949
1.31454
1.34279
1.32974
1.34153
1.3338
1.33685
1.33262
1.33397
1.33146
1.3328
1.32958
1.32351
1.32189
1.2809
1.24995
1.18523
1.17753
1.13871
1.12943
1.12081
1.10821
1.10003
1.09873
1.09484
1.09562
1.09547
1.09254
1.08964
1.08587
1.08049
1.06745
1.05854
1.03348
0.997799
0.926585
0.82648
0.713332
0.629497
0.569325
0.521679
0.483827
0.448375
0.419112
0.388986
0.363553
0.338526
0.315305
0.293401
0.269635
0.25724
0.233972
0.228046
0.202973
0.196277
0.163228
0.15811
0.116379
0.11535
0.0766204
1.00609
1.00322
1.00402
1.00396
1.00414
1.00431
1.00452
1.00475
1.005
1.00526
1.00554
1.00583
1.00613
1.00643
1.00674
1.00705
1.00735
1.00765
1.00795
1.00824
1.00852
1.00879
1.00905
1.00928
1.00951
1.00973
1.00992
1.0101
1.01027
1.01043
1.01058
1.01071
1.01084
1.01097
1.01115
1.01133
1.01151
1.01173
1.01194
1.01213
1.01238
1.01264
1.01295
1.01311
1.01336
1.01332
1.01385
1.01275
1.01861
1.00188
1.07121
1.03828
1.04698
1.05777
1.06736
1.08614
1.09008
1.18092
1.19642
1.29087
1.27285
1.32613
1.30839
1.32389
1.31806
1.31819
1.31564
1.31341
1.31361
1.30676
1.30425
1.27832
1.25103
1.16608
1.15498
1.0977
1.10185
1.07664
1.07806
1.07282
1.07222
1.07207
1.07448
1.07649
1.07962
1.08178
1.08352
1.08261
1.08193
1.07845
1.06784
1.06035
1.03942
1.01677
0.959631
0.871685
0.781305
0.682627
0.616672
0.561974
0.516764
0.475306
0.438031
0.401843
0.367003
0.337262
0.310336
0.287921
0.265231
0.252932
0.234518
0.227412
0.206454
0.201944
0.172573
0.166803
0.128181
0.126498
0.0881324
1.00609
1.00322
1.00402
1.00396
1.00414
1.00431
1.00453
1.00476
1.00501
1.00527
1.00555
1.00584
1.00614
1.00645
1.00676
1.00707
1.00738
1.00769
1.00799
1.00829
1.00858
1.00885
1.00913
1.00938
1.00962
1.00985
1.01006
1.01026
1.01043
1.0106
1.01074
1.01088
1.01099
1.01107
1.01115
1.0112
1.01126
1.01125
1.01119
1.01103
1.01099
1.01087
1.0108
1.01051
1.01018
1.00976
1.0098
1.00877
1.01469
1.00092
1.05432
1.05632
1.06058
1.06482
1.06576
1.07116
1.08298
1.12722
1.13554
1.24543
1.23933
1.31422
1.28996
1.31402
1.30866
1.30321
1.30041
1.28401
1.26394
1.21833
1.18116
1.08815
1.04133
0.942896
0.951366
0.941934
0.956295
0.968481
0.983682
0.997108
1.01114
1.02272
1.03182
1.03951
1.04737
1.05448
1.05881
1.06087
1.06203
1.05775
1.04769
1.03944
1.01982
0.999986
0.951866
0.882601
0.803722
0.702454
0.626357
0.568124
0.519304
0.477528
0.435825
0.401323
0.366996
0.33894
0.312648
0.292627
0.269904
0.257401
0.238208
0.231116
0.213443
0.208328
0.181654
0.176837
0.139161
0.136892
0.0989626
1.00608
1.00322
1.00401
1.00396
1.00414
1.00431
1.00453
1.00476
1.00501
1.00528
1.00556
1.00585
1.00615
1.00646
1.00678
1.0071
1.00741
1.00773
1.00804
1.00835
1.00865
1.00894
1.00923
1.0095
1.00976
1.01002
1.01026
1.01049
1.0107
1.01091
1.01112
1.01132
1.01151
1.01171
1.0119
1.01212
1.0124
1.0127
1.01296
1.01333
1.01393
1.01451
1.0147
1.015
1.01549
1.01669
1.01845
1.0225
1.02173
1.03741
1.07532
1.08184
1.08323
1.08444
1.07905
1.06578
1.07153
1.10116
1.15458
1.1363
1.25099
1.25211
1.28463
1.26256
1.25688
1.20302
1.16294
1.08409
1.0142
0.902618
0.819823
0.741408
0.713227
0.69052
0.704441
0.719884
0.751721
0.79075
0.826001
0.859608
0.890304
0.917175
0.939499
0.96041
0.97872
0.994092
1.00318
1.00992
1.01145
1.00682
1.00076
0.988092
0.972126
0.950023
0.915603
0.873735
0.810228
0.718567
0.645125
0.58646
0.532046
0.486858
0.443227
0.407927
0.373046
0.345151
0.316409
0.294127
0.270343
0.255942
0.237628
0.23017
0.214861
0.211546
0.189969
0.184905
0.150517
0.147877
0.111595
1.00607
1.00322
1.00402
1.00396
1.00415
1.00431
1.00453
1.00476
1.00502
1.00529
1.00557
1.00586
1.00617
1.00648
1.0068
1.00712
1.00745
1.00777
1.00809
1.00841
1.00872
1.00903
1.00932
1.00961
1.00989
1.01017
1.01043
1.01067
1.0109
1.01113
1.01134
1.01154
1.01172
1.01189
1.01204
1.01219
1.0123
1.01241
1.01246
1.0125
1.0125
1.01254
1.01237
1.01249
1.01231
1.01309
1.01197
1.01739
0.996827
1.08533
1.03834
1.05607
1.06023
1.06002
1.05617
1.05798
1.08212
1.10685
1.10446
1.10079
1.17895
1.18426
1.18951
1.11391
1.02413
0.91985
0.818809
0.744209
0.676243
0.632018
0.585251
0.562961
0.546579
0.538626
0.539178
0.550873
0.568846
0.59471
0.625516
0.656344
0.69205
0.73023
0.766794
0.801333
0.829424
0.857745
0.877472
0.894807
0.905878
0.909156
0.906982
0.894445
0.887861
0.86735
0.854911
0.817348
0.768244
0.696845
0.62646
0.568637
0.521598
0.480496
0.443909
0.409017
0.375546
0.345356
0.318747
0.296006
0.274641
0.258851
0.241084
0.232639
0.220858
0.21613
0.198831
0.193204
0.161944
0.15862
0.123934
1.00607
1.00322
1.00402
1.00396
1.00415
1.00432
1.00454
1.00477
1.00503
1.00529
1.00558
1.00588
1.00619
1.0065
1.00683
1.00716
1.00749
1.00782
1.00815
1.00848
1.0088
1.00913
1.00944
1.00976
1.01006
1.01036
1.01065
1.01093
1.01121
1.01147
1.01174
1.012
1.01226
1.01251
1.01277
1.01305
1.01335
1.01365
1.01398
1.01443
1.01483
1.01521
1.01534
1.01552
1.01556
1.01606
1.01523
1.01967
1.00023
1.05766
1.043
1.04629
1.05369
1.0508
1.04713
1.04792
1.06668
1.0802
1.06165
1.03337
1.0685
1.05082
0.92449
0.84187
0.772571
0.714167
0.667376
0.616669
0.577379
0.543285
0.511843
0.496036
0.488171
0.475969
0.474069
0.473227
0.47591
0.482952
0.492642
0.505281
0.526877
0.549135
0.572133
0.600265
0.625713
0.656622
0.683242
0.709615
0.730468
0.750981
0.761018
0.772939
0.772694
0.772921
0.772776
0.746228
0.716161
0.651154
0.602662
0.556894
0.510206
0.477987
0.43916
0.41073
0.376275
0.350552
0.321153
0.29922
0.277187
0.26124
0.244465
0.234085
0.223148
0.219573
0.206323
0.202803
0.173026
0.170151
0.137384
1.00606
1.00322
1.00402
1.00396
1.00415
1.00432
1.00454
1.00477
1.00503
1.0053
1.00559
1.00589
1.0062
1.00652
1.00685
1.00719
1.00753
1.00786
1.00821
1.00855
1.00889
1.00922
1.00956
1.00989
1.01021
1.01052
1.01084
1.01114
1.01144
1.01173
1.01201
1.01229
1.01256
1.01282
1.01306
1.01329
1.01347
1.01363
1.01382
1.01399
1.01412
1.01408
1.01385
1.0137
1.0138
1.01425
1.01467
1.0169
1.00982
1.05338
1.06936
1.06663
1.0671
1.05478
1.04923
1.05374
1.07399
1.07159
1.01196
0.964858
0.931554
0.795398
0.718537
0.6971
0.652077
0.630386
0.60031
0.580857
0.5595
0.541259
0.513061
0.491933
0.476679
0.47212
0.468788
0.45949
0.451647
0.45631
0.454663
0.454518
0.458775
0.466457
0.474713
0.489333
0.50343
0.523682
0.543186
0.566211
0.587876
0.612019
0.634605
0.657455
0.679514
0.695505
0.701476
0.695607
0.664567
0.622849
0.576648
0.53683
0.498641
0.465165
0.432771
0.404603
0.374876
0.348557
0.320445
0.298386
0.276551
0.261136
0.245278
0.234871
0.226552
0.222035
0.215011
0.211087
0.183564
0.181441
0.150694
1.00606
1.00322
1.00402
1.00396
1.00415
1.00432
1.00455
1.00478
1.00504
1.00531
1.0056
1.00591
1.00622
1.00654
1.00688
1.00722
1.00757
1.00792
1.00827
1.00863
1.00898
1.00933
1.00969
1.01004
1.01039
1.01074
1.01109
1.01143
1.01177
1.0121
1.01243
1.01275
1.01309
1.01341
1.01375
1.01408
1.01439
1.01464
1.01506
1.01565
1.01619
1.01636
1.01675
1.01721
1.0185
1.01945
1.02515
1.01384
1.06976
1.06646
1.07829
1.07892
1.07565
1.06152
1.05528
1.06277
1.07602
1.04501
0.967178
0.902354
0.788832
0.705129
0.672747
0.643004
0.619914
0.602464
0.588519
0.574678
0.563336
0.551939
0.541301
0.525587
0.505827
0.489423
0.477475
0.471694
0.461946
0.449177
0.446574
0.449952
0.446892
0.449171
0.451652
0.458216
0.465177
0.477928
0.489276
0.506672
0.523261
0.546659
0.569139
0.595076
0.621567
0.641112
0.653871
0.649724
0.625385
0.595351
0.557166
0.523479
0.4918
0.4583
0.429763
0.401648
0.375253
0.348648
0.324234
0.300547
0.279761
0.262888
0.249412
0.239114
0.230418
0.226348
0.22257
0.219694
0.196322
0.194261
0.165092
1.00606
1.00323
1.00402
1.00397
1.00416
1.00433
1.00455
1.00478
1.00505
1.00532
1.00561
1.00592
1.00624
1.00657
1.00691
1.00726
1.00761
1.00797
1.00834
1.00871
1.00908
1.00945
1.00982
1.01019
1.01056
1.01093
1.01129
1.01166
1.01202
1.01238
1.01272
1.01308
1.01344
1.0138
1.01415
1.01446
1.01474
1.01494
1.01526
1.01559
1.01595
1.01595
1.01592
1.01568
1.01641
1.01491
1.0211
0.998341
1.07302
1.03547
1.04567
1.05618
1.05712
1.04514
1.03918
1.04946
1.05558
0.98714
0.887085
0.800412
0.702894
0.674822
0.650141
0.636628
0.62317
0.6141
0.598189
0.591509
0.578727
0.57226
0.563166
0.554347
0.544036
0.530386
0.517067
0.49761
0.484985
0.474113
0.463446
0.456583
0.452718
0.452206
0.452711
0.456893
0.460197
0.467671
0.474257
0.486966
0.499087
0.520105
0.539594
0.564147
0.587778
0.605967
0.619185
0.617816
0.60211
0.571052
0.542129
0.511873
0.479811
0.45232
0.423315
0.399049
0.371813
0.349267
0.323083
0.302233
0.281669
0.265245
0.252412
0.241562
0.233364
0.23055
0.228257
0.228918
0.207604
0.206543
0.179285
1.00606
1.00323
1.00402
1.00397
1.00416
1.00433
1.00456
1.00479
1.00505
1.00533
1.00563
1.00593
1.00626
1.0066
1.00694
1.0073
1.00767
1.00803
1.00841
1.00879
1.00918
1.00956
1.00996
1.01036
1.01075
1.01115
1.01155
1.01196
1.01237
1.01277
1.01317
1.01356
1.01396
1.01434
1.01471
1.01508
1.01539
1.01562
1.01582
1.01609
1.01635
1.01651
1.01646
1.01659
1.01724
1.01823
1.02188
1.0121
1.05396
1.061
1.06156
1.06535
1.0605
1.04313
1.03984
1.05392
1.02046
0.899425
0.811502
0.723323
0.680904
0.665157
0.648652
0.636288
0.62853
0.623881
0.612013
0.605866
0.595656
0.587655
0.580138
0.572697
0.56719
0.557562
0.550968
0.539578
0.525085
0.512142
0.496447
0.485371
0.47445
0.468572
0.465761
0.466575
0.467823
0.472417
0.47721
0.487846
0.499503
0.515023
0.529277
0.548388
0.567184
0.582341
0.592823
0.592764
0.580993
0.557609
0.530502
0.502107
0.473933
0.44784
0.420562
0.397642
0.372069
0.350841
0.324358
0.305128
0.284733
0.268864
0.255664
0.24561
0.238662
0.234905
0.234788
0.238355
0.220412
0.219775
0.194139
1.00606
1.00323
1.00402
1.00397
1.00416
1.00434
1.00456
1.0048
1.00506
1.00534
1.00564
1.00595
1.00628
1.00662
1.00697
1.00734
1.00771
1.00809
1.00848
1.00888
1.00928
1.00968
1.01009
1.01051
1.01093
1.01134
1.01176
1.01219
1.01261
1.01303
1.01344
1.01384
1.01425
1.01466
1.01507
1.01548
1.01591
1.01631
1.01673
1.01735
1.01795
1.01849
1.01872
1.01958
1.01976
1.0248
1.0157
1.07099
1.06217
1.07391
1.07501
1.07758
1.07323
1.05223
1.0401
1.03907
0.935259
0.808328
0.757157
0.701549
0.677086
0.666404
0.661957
0.649438
0.640777
0.634813
0.628724
0.620718
0.61415
0.60552
0.600818
0.591988
0.58835
0.579836
0.57646
0.570099
0.558876
0.550116
0.535211
0.523295
0.508949
0.49796
0.49074
0.487023
0.48499
0.486724
0.488889
0.495813
0.504
0.515311
0.527001
0.541369
0.555654
0.566831
0.574691
0.573455
0.562258
0.543227
0.516035
0.493692
0.469281
0.444905
0.420842
0.396671
0.374386
0.35125
0.330146
0.30889
0.289931
0.273449
0.260172
0.250458
0.243845
0.240087
0.241914
0.246512
0.232092
0.232183
0.208832
1.00606
1.00323
1.00403
1.00398
1.00417
1.00434
1.00457
1.0048
1.00507
1.00535
1.00566
1.00597
1.0063
1.00665
1.00701
1.00738
1.00776
1.00816
1.00855
1.00897
1.00939
1.00981
1.01024
1.01068
1.01113
1.01158
1.01203
1.0125
1.01299
1.01347
1.01394
1.01438
1.0148
1.01522
1.01566
1.01606
1.01637
1.01658
1.01671
1.01684
1.01672
1.01645
1.01546
1.01517
1.01317
1.01844
1.00106
1.06526
1.04267
1.04384
1.04956
1.06221
1.05811
1.01972
1.00226
0.95369
0.832176
0.733834
0.71988
0.691924
0.671917
0.665732
0.663334
0.656882
0.650073
0.644068
0.639946
0.632692
0.62812
0.620072
0.616385
0.607761
0.604334
0.596167
0.592315
0.588386
0.581813
0.575214
0.564662
0.554378
0.54204
0.529116
0.51829
0.510307
0.505988
0.504441
0.505623
0.50694
0.51012
0.516274
0.525595
0.536773
0.547611
0.555675
0.560897
0.559331
0.550178
0.533085
0.512099
0.488251
0.465903
0.442372
0.418616
0.3959
0.374032
0.351995
0.331621
0.311075
0.293519
0.276858
0.264525
0.255143
0.248717
0.24615
0.249377
0.255553
0.244635
0.245872
0.224232
1.00607
1.00324
1.00403
1.00398
1.00417
1.00434
1.00457
1.00481
1.00508
1.00536
1.00567
1.00598
1.00633
1.00668
1.00704
1.00742
1.00781
1.00822
1.00863
1.00905
1.00949
1.00993
1.01038
1.01084
1.0113
1.01177
1.01223
1.01271
1.01319
1.01365
1.0141
1.01454
1.01493
1.0153
1.01567
1.01604
1.01643
1.01677
1.01719
1.01782
1.01889
1.01986
1.02012
1.02053
1.02261
1.02568
1.03195
1.07082
1.06836
1.05801
1.06075
1.07747
1.06349
1.00642
0.959128
0.872262
0.775744
0.721722
0.708525
0.700921
0.685279
0.67553
0.67314
0.669608
0.663108
0.65569
0.65318
0.645925
0.6425
0.635185
0.632216
0.624199
0.620066
0.613666
0.607927
0.604117
0.599008
0.595023
0.587014
0.57916
0.568541
0.557295
0.545412
0.535512
0.527658
0.522956
0.519891
0.520876
0.521369
0.525263
0.529657
0.537217
0.544995
0.550099
0.552579
0.550575
0.541582
0.525595
0.508736
0.485287
0.464884
0.442943
0.420559
0.399899
0.377715
0.358077
0.336332
0.317864
0.299663
0.283505
0.271047
0.261043
0.255963
0.253176
0.257263
0.264592
0.256511
0.259334
0.239079
1.00607
1.00324
1.00403
1.00398
1.00417
1.00435
1.00458
1.00482
1.00509
1.00537
1.00568
1.00601
1.00635
1.00671
1.00708
1.00746
1.00787
1.00828
1.00871
1.00914
1.0096
1.01006
1.01053
1.011
1.0115
1.012
1.01251
1.01302
1.01354
1.0141
1.01463
1.01515
1.01565
1.01614
1.0167
1.01726
1.01779
1.0181
1.01842
1.01864
1.01917
1.01916
1.01935
1.0176
1.02267
1.00808
1.10032
1.04523
1.06186
1.05273
1.05591
1.06418
1.0409
0.947197
0.876722
0.784501
0.759299
0.725831
0.71125
0.704125
0.702071
0.692286
0.686993
0.681368
0.677809
0.669706
0.667446
0.660271
0.656952
0.650283
0.647024
0.640586
0.634067
0.629399
0.622523
0.619292
0.613281
0.611085
0.604663
0.598745
0.589597
0.580816
0.568486
0.557889
0.546106
0.539916
0.535325
0.53282
0.531946
0.533705
0.534232
0.537626
0.542825
0.547446
0.547894
0.545735
0.536483
0.522414
0.50351
0.481758
0.462337
0.440945
0.420816
0.400279
0.379606
0.360093
0.339557
0.321328
0.303624
0.287697
0.275444
0.266098
0.262734
0.258746
0.266288
0.273789
0.26979
0.273193
0.254593
1.00608
1.00324
1.00404
1.00399
1.00418
1.00435
1.00458
1.00483
1.0051
1.00539
1.0057
1.00602
1.00637
1.00673
1.00711
1.0075
1.00792
1.00834
1.00878
1.00923
1.0097
1.01018
1.01066
1.01116
1.01167
1.01219
1.0127
1.0132
1.0137
1.0142
1.01469
1.01515
1.01554
1.01586
1.01614
1.0164
1.01666
1.01688
1.0169
1.01705
1.01737
1.01786
1.01782
1.01639
1.01649
1.00623
1.05303
1.06545
1.06311
1.05549
1.03543
1.05122
0.985824
0.883918
0.790449
0.748926
0.732985
0.72947
0.711072
0.708157
0.706303
0.697586
0.692543
0.686144
0.684313
0.676856
0.674852
0.668615
0.664864
0.659342
0.654728
0.65126
0.644642
0.641659
0.635136
0.632429
0.626281
0.624119
0.619613
0.615148
0.607776
0.59978
0.589896
0.579622
0.56695
0.558245
0.551271
0.547713
0.543515
0.542853
0.541869
0.543188
0.544459
0.54629
0.546241
0.543546
0.534907
0.522515
0.503472
0.484869
0.464836
0.44465
0.425738
0.404893
0.386528
0.366605
0.348012
0.328713
0.311811
0.296092
0.283847
0.274336
0.271029
0.268116
0.275703
0.283863
0.282422
0.286805
0.269614
1.00609
1.00325
1.00404
1.00399
1.00418
1.00436
1.00459
1.00484
1.00511
1.0054
1.00571
1.00604
1.00639
1.00676
1.00715
1.00755
1.00797
1.0084
1.00886
1.00932
1.0098
1.0103
1.01081
1.01132
1.01186
1.01241
1.01296
1.01351
1.01405
1.01464
1.01523
1.01586
1.01648
1.01715
1.01781
1.01851
1.01939
1.02043
1.0211
1.0219
1.02261
1.02425
1.026
1.03184
1.02436
1.07929
1.07752
1.08329
1.08549
1.07713
1.04168
1.00508
0.907338
0.824466
0.781562
0.754693
0.740008
0.737968
0.728631
0.719236
0.716923
0.712109
0.70731
0.701159
0.698813
0.692602
0.688431
0.683921
0.677233
0.67382
0.667123
0.664741
0.658618
0.656024
0.649618
0.64748
0.641129
0.637856
0.633776
0.62992
0.624804
0.616875
0.610124
0.598715
0.588422
0.575119
0.565894
0.559346
0.555094
0.552096
0.55009
0.549015
0.548656
0.548024
0.546043
0.542942
0.533959
0.522411
0.504553
0.486123
0.466912
0.447687
0.428502
0.408862
0.390114
0.370346
0.352412
0.333496
0.316988
0.301729
0.289756
0.280326
0.277761
0.276142
0.283941
0.294297
0.295505
0.301132
0.285226
1.0061
1.00325
1.00405
1.004
1.00419
1.00437
1.0046
1.00484
1.00512
1.00541
1.00572
1.00606
1.00641
1.00678
1.00718
1.00759
1.00802
1.00846
1.00893
1.0094
1.0099
1.01041
1.01093
1.01146
1.01201
1.01257
1.01313
1.01367
1.0142
1.01471
1.01522
1.01572
1.01618
1.0166
1.01688
1.01708
1.01723
1.01737
1.01751
1.01736
1.01675
1.01627
1.01552
1.01992
1.00858
1.05996
1.07133
1.05974
1.06142
1.04737
0.996151
0.90218
0.804779
0.771936
0.75545
0.739561
0.732191
0.730027
0.730845
0.722699
0.718293