/*--------------------------------*- C++ -*----------------------------------*\
| =========                 |                                                 |
| \\      /  F ield         | OpenFOAM: The Open Source CFD Toolbox           |
|  \\    /   O peration     | Version:  2.2.x                                 |
|   \\  /    A nd           | Web:      www.OpenFOAM.org                      |
|    \\/     M anipulation  |                                                 |
\*---------------------------------------------------------------------------*/
FoamFile
{
    version     2.0;
    format      ascii;
    class       volScalarField;
    location    "0.95";
    object      pB;
}
// * * * * * * * * * * * * * * * * * * * * * * * * * * * * * * * * * * * * * //

dimensions      [1 1 -3 0 0 -1 0];

internalField   nonuniform List<scalar> 
14161
(
-0.00617236
0.00143038
-0.000490277
-1.36484e-05
-0.000287364
-0.000238909
-0.000318185
-0.000318405
-0.00036948
-0.000382501
-0.000410343
-0.000431414
-0.000459627
-0.000458046
-0.000484848
-0.000500731
-0.000495019
-0.000497189
-0.000497156
-0.000490783
-0.000476666
-0.000455294
-0.000438643
-0.000404788
-0.000366398
-0.000326102
-0.000277604
-0.000220848
-0.000165225
-0.000103685
-1.94075e-05
5.50241e-05
0.000178141
0.000260445
0.00035304
0.00040597
0.000550185
0.000776772
0.000947294
0.00101062
0.00135208
0.00162606
0.00176506
0.00221495
0.001721
0.0027601
0.000666728
0.00450788
-0.0073114
0.0153672
-0.0580029
0.196603
0.00851081
-0.0320533
0.00126967
-0.0156409
0.00606721
-0.00622624
0.000535868
-0.00238346
0.00130079
-0.00128516
0.00178406
-0.0025472
-0.00215745
-0.00159372
0.00160672
0.0026682
-0.000473154
-0.00119449
-0.00131382
0.00030003
0.000599423
-0.000499478
-0.000796873
0.000632783
-0.00143578
0.00124461
0.00369565
0.0065235
-0.00317666
-0.0213483
-0.00386771
0.0179065
-0.00579531
0.00819612
0.00529214
0.00616862
0.00202135
-0.00163762
0.00155965
0.000999945
-0.000879769
-0.000348864
-0.000769801
0.000324802
-0.000321389
0.000388159
-0.000381335
-0.000113311
-0.000969248
0.000549514
-0.0011248
0.000799254
-0.000768584
0.000125934
-0.000827325
0.000771495
-0.00170266
0.001511
-0.0036129
0.00360583
-0.00601343
0.00697008
-0.0104635
0.0106208
-0.0137135
0.0137647
-0.014772
-0.00617815
0.00143576
-0.00049162
-1.4135e-05
-0.000287615
-0.000239026
-0.000316477
-0.000322061
-0.000365471
-0.00038853
-0.000403644
-0.000434886
-0.000459448
-0.000458423
-0.000486004
-0.00050091
-0.000494268
-0.000497958
-0.000500048
-0.000489522
-0.000476195
-0.000454226
-0.000432284
-0.000405157
-0.000373454
-0.000321351
-0.00026963
-0.000214865
-0.000160598
-9.4833e-05
-8.89019e-06
6.0086e-05
0.000180766
0.000262598
0.000337486
0.000392358
0.000483248
0.000670577
0.000785047
0.000897731
0.00101565
0.00123791
0.0011507
0.00139596
0.00114123
0.00124224
-0.000299548
0.000205208
-0.00728317
0.0068303
-0.037054
0.0444484
0.0322452
0.00151899
0.0194704
-0.00582222
0.0139418
-0.00377704
0.00228182
0.000848428
0.00549949
-0.000775695
0.00124485
-0.000272685
0.000528178
0.00121528
0.000963653
-0.00102927
-0.00174483
-0.00262855
-0.000920725
0.00451296
0.00176892
0.00465456
-0.00549223
-0.0177777
0.0150597
0.0373684
0.00100805
-0.0555093
0.00390009
0.0609502
-0.0121972
-0.0148429
0.0177546
0.0066423
-0.0101236
-0.000430418
-0.0037771
0.0008265
0.000597299
-0.00217864
0.000625151
-0.00119177
-0.000565018
0.000300918
-0.000382503
0.000538836
-0.00102996
0.00060907
-0.00168744
0.000992464
-0.000691238
0.000558302
-0.00119042
0.00123178
-0.00108022
0.000973975
-0.00191249
0.00126185
-0.00297051
0.00380272
-0.00634234
0.00664298
-0.010593
0.00978438
-0.0145427
0.0137038
-0.0161586
-0.00617409
0.00143295
-0.000491653
-1.4486e-05
-0.000287911
-0.000239319
-0.00031702
-0.000321816
-0.000364749
-0.000390086
-0.000403268
-0.000433882
-0.000458156
-0.000460889
-0.000482268
-0.000500404
-0.000496138
-0.000499203
-0.000499598
-0.000492898
-0.000479875
-0.000455443
-0.000441772
-0.000409151
-0.000374366
-0.000330765
-0.000276002
-0.000222569
-0.000165092
-0.000117328
-3.1631e-05
3.62426e-05
0.000159997
0.000239586
0.000348389
0.000418253
0.000592552
0.000868585
0.00107339
0.0012317
0.00158831
0.00219428
0.00270999
0.0030996
0.00389126
0.00564198
0.00724967
0.00969466
0.0151529
0.0113244
0.0469676
-0.00257344
0.0793857
-0.0146932
0.0196174
-0.0144842
0.0108657
-0.00373516
-0.00155185
-0.00272468
0.00228634
-0.00750961
0.00194573
-0.00192996
-0.00203477
-0.00262461
-0.00141272
-0.00201245
-0.000649668
0.00201388
0.00346321
-0.000962404
-0.0125564
-0.0161517
0.0105671
0.0373941
-0.0166486
-0.0669991
-0.0101896
0.0918933
0.0123526
-0.0688026
0.0292534
0.0286217
-0.0219452
-0.00280429
0.00886449
0.00161451
4.98715e-05
0.00243597
0.000337397
0.0020749
-0.00204462
0.00226557
-0.00052001
-0.000285148
-6.38866e-05
0.00054222
-0.00106793
0.00020826
7.28447e-05
9.22241e-05
-0.000966883
0.000673483
-0.00143396
-3.56634e-05
-0.000561984
-7.79183e-06
-0.000754337
0.00201982
-0.00371839
0.00301105
-0.00774926
0.00635995
-0.0103584
0.0105233
-0.0132054
0.0142461
-0.0169539
-0.00617241
0.00143063
-0.000492277
-1.55172e-05
-0.000288379
-0.000239271
-0.000317197
-0.000321545
-0.00036844
-0.000381259
-0.000414122
-0.000432878
-0.000453849
-0.000471661
-0.000478073
-0.000500579
-0.000498568
-0.000497027
-0.000502272
-0.000492337
-0.000479957
-0.000457032
-0.000441029
-0.000409576
-0.000373699
-0.000326947
-0.000279703
-0.000221835
-0.000164852
-9.65929e-05
-1.83268e-05
5.47713e-05
0.000169542
0.000237497
0.000314545
0.00033676
0.000401733
0.000480223
0.000578851
0.000695036
0.0008414
0.00100044
0.000885941
0.00101081
0.000937959
0.00137512
0.000384475
0.00200767
-0.00229892
0.00497847
-0.00188021
0.00754817
0.0462728
-0.0124349
0.0122952
-0.00536944
0.0079295
0.00183744
0.00182099
0.000562273
0.00281917
-0.00308671
0.00532501
-0.00253801
-0.000501418
-0.000588294
1.7286e-05
-6.14005e-05
0.000396683
0.00393685
-0.000548201
-0.00586536
-0.00414579
0.0267343
0.0106154
-0.04431
-0.0156571
0.0735683
0.0273847
-0.0672543
-0.00404009
0.0491036
0.00793867
-0.0345578
0.0210673
0.00591674
-0.0236352
0.0102086
-0.00181317
0.000843138
0.000123884
-0.00136538
0.000314616
-0.000913351
0.00028234
-0.000123
-0.00127074
0.00110417
-0.0018147
0.000269706
-0.000371155
8.31481e-05
-0.00229734
0.000416394
0.000211718
0.000531962
-0.000741397
0.000718008
-0.00173809
0.00194711
-0.00337447
0.00383833
-0.00612422
0.00782762
-0.00908158
0.0104811
-0.0119204
0.0113236
-0.0132164
-0.00616348
0.00142341
-0.000491793
-1.62846e-05
-0.000288545
-0.000239758
-0.00031599
-0.000323867
-0.000366021
-0.000387515
-0.00041115
-0.000431977
-0.000453824
-0.00047023
-0.000483456
-0.00050007
-0.000499706
-0.000501429
-0.000499524
-0.000495975
-0.000484363
-0.000464137
-0.000442921
-0.000411387
-0.000378481
-0.000342677
-0.000297667
-0.000245305
-0.000180085
-0.000139096
-6.03948e-05
5.61081e-07
0.000114481
0.000190815
0.00028542
0.000376133
0.000601965
0.000855776
0.00109657
0.00129259
0.0016723
0.00230661
0.00287393
0.00362459
0.00510761
0.00696527
0.00907334
0.0111596
0.0192467
0.00906272
0.0570152
-0.0342892
0.087886
-0.0118444
0.0119763
-0.0086369
0.00644951
-0.00132011
0.000290298
-0.00523739
9.259e-05
-0.00567234
0.00346505
-0.00447588
-0.00244186
-0.00160339
0.000118558
0.000935442
6.27627e-05
-0.00220868
-0.00226354
-0.000417756
0.00774804
-0.00224322
-0.0175245
0.0174011
0.0370922
-0.0248353
-0.0327733
0.0288565
0.010163
-0.0237586
-0.00241472
0.0104817
0.00344508
-0.0175466
0.015743
0.00279652
-0.0138073
0.00407897
0.00355549
-0.000217839
-0.000290226
0.000720531
0.000322941
-0.000559694
-0.000381628
-0.000250403
0.000135718
0.000502619
-0.000354395
-0.000190917
-0.00143446
0.000330671
-0.000433334
0.00228718
-0.00339903
0.0013063
-0.00154045
0.000698435
-0.00342867
0.00359061
-0.0067837
0.00530792
-0.011634
0.00957178
-0.0139387
0.0143215
-0.0135812
-0.00615895
0.00141823
-0.000491835
-1.7821e-05
-0.000289221
-0.000239721
-0.000316069
-0.000325486
-0.000364236
-0.000387904
-0.000408994
-0.000434078
-0.000455808
-0.000469073
-0.000482913
-0.000494903
-0.00050806
-0.000502273
-0.000504701
-0.000497853
-0.000483464
-0.000465464
-0.000444425
-0.000418872
-0.00038639
-0.000340392
-0.000281926
-0.000225087
-0.000164371
-0.000117447
-3.97164e-05
2.63274e-05
0.000131089
0.000201064
0.00027297
0.000311081
0.000347915
0.000379319
0.000412523
0.000435311
0.00048386
0.000565143
0.000384924
0.000319724
0.000350414
0.000439843
-0.000168005
0.00054725
-0.000972888
0.00213917
-0.00323413
0.0338395
0.0585546
-0.00367833
-0.00432499
0.0159114
-0.00344944
0.0066967
-0.00180143
-0.000502686
0.00079332
-0.00313917
0.00636511
-0.00281902
-0.0011022
0.000984422
0.000795022
0.000844808
-0.00123871
-0.00080862
0.000345158
0.00355122
-0.00198619
-0.00139945
0.00509924
0.00686718
-0.00114991
-0.00624961
0.0102159
0.0017824
0.00199612
0.00301149
0.000173348
-0.00829532
0.00304189
0.00155605
0.000167518
-0.0111368
0.0176894
-0.000461423
-0.00263183
0.00170428
-0.00176267
0.00162162
-0.00268021
0.00200132
-0.00230742
0.00149913
-0.00238893
0.000346174
-0.00198823
0.000592402
-0.000616478
0.00373572
-0.00186655
-0.00067444
0.000245996
0.00141453
-0.00129796
0.00152892
-0.00409395
0.00250458
-0.00651635
0.00646248
-0.00868631
0.00942014
-0.0120302
0.0121406
-0.0142021
-0.00614631
0.0014079
-0.000491287
-1.88308e-05
-0.000289513
-0.000240332
-0.000315568
-0.000328239
-0.00036403
-0.000386935
-0.000418446
-0.000430152
-0.000456714
-0.000477462
-0.000486367
-0.000495413
-0.000510135
-0.00050627
-0.000503037
-0.000501892
-0.000490008
-0.000475149
-0.000451929
-0.000430351
-0.000390716
-0.000351503
-0.000304654
-0.000266433
-0.000212505
-0.000168453
-0.000114549
-5.57818e-05
2.7689e-05
9.94502e-05
0.000185479
0.000287873
0.00047178
0.000603914
0.000828947
0.00103495
0.001363
0.00189559
0.00212867
0.00275476
0.0025056
0.00373373
0.00244529
0.00497024
-0.000866314
0.012496
-0.0270447
0.101438
0.0375648
-0.0206293
-0.0169619
0.000263806
-0.00273018
0.00706137
-0.00407841
0.00274329
-0.00399762
0.00040414
-0.00513236
0.000355285
-0.00384745
-0.000893535
-0.00167492
-0.00227427
-0.000760927
-0.00132294
-0.000637487
-0.000487353
-0.00120527
0.00320932
-0.00645906
-0.00564205
0.00319971
0.00337643
-0.00146531
0.00257564
-0.00191088
-0.0030295
-0.000788943
0.00171495
0.00698209
0.0028442
-0.00854904
-0.00254519
-0.0122656
-0.0008082
0.00704136
-0.00239023
0.0010859
0.00109482
0.00134232
-0.00198694
0.000573382
0.000253837
9.02697e-05
-0.000344822
-0.00171016
-0.000113778
0.0026886
-0.000276055
-0.00239397
-0.00101778
-0.000502226
0.000674575
-0.00255689
0.00194953
-0.00282121
0.00456131
-0.00653011
0.00636614
-0.00974125
0.0091757
-0.0108514
0.0100613
-0.01168
-0.00613978
0.00140101
-0.000491196
-2.06178e-05
-0.000290276
-0.000240798
-0.000316235
-0.00032788
-0.000366955
-0.000383018
-0.000417097
-0.000430586
-0.000455316
-0.000478619
-0.000486349
-0.000491289
-0.000513617
-0.000508702
-0.000505771
-0.000505752
-0.000493551
-0.00048018
-0.000456897
-0.000433428
-0.000397475
-0.000360985
-0.000309585
-0.000254372
-0.00019579
-0.000137155
-6.9552e-05
-1.64445e-05
7.54758e-05
0.000135385
0.000215451
0.000268751
0.000325398
0.000334575
0.000318444
0.000324118
0.000227807
8.05849e-05
-0.000588857
-0.000672513
-0.00126778
-0.000456271
-0.00174124
-4.75509e-05
-0.00595163
0.000315993
-0.0286057
0.0956388
0.0702752
0.0235867
-0.0320758
-0.00962804
-0.0167791
0.00351391
-0.00842471
0.00344903
-0.00436932
-0.000129031
-0.00264783
0.00108776
-0.00284484
-0.00201132
0.000756527
-0.000780976
-0.00130412
-0.00186895
-0.00064321
-4.1352e-05
-0.00151051
-0.00184323
-0.0068392
-0.00144337
0.0137381
-0.00475985
-0.00750066
0.00296243
0.00542781
-0.000961373
-0.00124265
-0.00582985
-0.0113814
0.00564844
-0.00256882
0.00704556
-0.0019573
0.0146227
-0.00597997
-0.00348588
0.000271629
-0.00144551
-0.00194033
9.28348e-05
-0.00115293
-0.00219424
-0.000723605
0.000313939
0.000530757
0.0019955
-0.00399836
-0.00290733
-0.00189724
0.00691556
-0.00154536
-0.000652749
-0.00155924
0.00393455
-0.00417833
0.00233749
-0.00592155
0.00590072
-0.00835449
0.00850612
-0.0106328
0.0101446
-0.0108286
-0.00612545
0.00139001
-0.000490925
-2.19011e-05
-0.000290771
-0.000240993
-0.000316604
-0.000328533
-0.00036599
-0.000385394
-0.000420061
-0.000431201
-0.000454965
-0.000479782
-0.00048936
-0.000496623
-0.000515477
-0.000521307
-0.00050662
-0.000511219
-0.000502192
-0.000490664
-0.000465452
-0.000444861
-0.00041489
-0.000381427
-0.000343288
-0.000298508
-0.000256657
-0.000216506
-0.000180014
-0.000136395
-7.67382e-05
-3.19357e-05
3.69836e-05
9.69118e-05
0.000217566
0.00032814
0.000412455
0.000481451
0.000585002
0.000854572
0.000902608
0.00121273
0.000969479
0.000596142
-0.00111239
-0.000868366
-0.00345012
-0.00275314
0.00643092
0.00871681
0.19763
-0.0562537
0.00255706
-0.0134024
-0.00273982
-0.00749777
-0.00647336
0.0016918
-0.00488048
0.000365586
-0.00650601
0.00176847
-0.00702053
-0.00168084
-0.00104892
-0.000886228
0.000728181
-0.000930198
0.000669313
-0.00260267
-0.00243263
-0.00594057
-0.00323274
-0.00340895
0.0105431
-0.00482566
0.0155263
-0.00604245
-0.0139714
-0.00168403
-0.00133003
0.00510286
-0.00261482
0.00594926
-0.00785153
-0.0067223
-0.00797636
0.000871293
-0.00180736
-0.00554486
0.00630753
0.00294948
-0.000718379
0.00155325
-0.00356062
0.00480555
-0.00387715
0.00238057
-0.00124678
0.000833585
-0.00639337
0.0051382
0.00287119
-0.000576196
-0.00601881
0.00312365
-0.00182863
0.000441057
-0.0037309
0.00483044
-0.00560106
0.00517773
-0.00852804
0.00807253
-0.00989919
0.00972391
-0.0102557
-0.00611752
0.00138211
-0.000490903
-2.37228e-05
-0.000291756
-0.000241744
-0.000316952
-0.000330678
-0.000366936
-0.000385313
-0.000421931
-0.000431879
-0.000459176
-0.000480867
-0.000492617
-0.000497869
-0.000516034
-0.000523272
-0.000512195
-0.000515462
-0.000508354
-0.000497175
-0.000474624
-0.000455446
-0.00042315
-0.00038652
-0.000342811
-0.000292162
-0.000239472
-0.000185147
-0.000125087
-6.29591e-05
3.27558e-06
6.98762e-05
0.000155403
0.00021636
0.000269409
0.000336892
0.000380046
0.000359456
0.000272829
0.00024366
0.000113578
0.000254873
-5.56837e-05
0.000408216
-0.000383979
0.00121687
-0.00118155
0.00523932
-0.00263267
0.0627248
0.0804651
0.0301568
0.00502655
0.000722403
0.00243628
-0.00797824
0.00472621
-0.00133991
0.00230538
-0.0100179
0.00164976
-0.00769606
-0.00183157
-0.0053575
-0.000291395
-0.00224837
-0.000657688
-0.000525863
-0.00177115
-2.70686e-05
-0.00177633
0.000150298
0.00644622
0.00525015
0.00107767
0.00531568
-0.00563035
-0.0128614
0.0060522
0.0108137
-0.00693524
-0.00680165
-0.000499337
-0.00351205
-0.00115551
-0.00138825
0.00212279
0.00383742
8.33502e-05
-0.00299606
0.00641586
0.00164815
-0.000407644
0.000652352
-0.00240097
0.000790012
-0.00195226
0.00294722
-0.00593631
-0.00286407
0.00555103
0.00211934
-0.00671347
-0.000894641
-0.000704621
0.0026334
-0.00384045
0.0025366
-0.00258796
0.00158933
-0.00558776
0.00485848
-0.00749714
0.00672871
-0.0089718
0.00932268
-0.0100627
-0.00610297
0.00137186
-0.000490822
-2.51325e-05
-0.000292562
-0.000242424
-0.000317577
-0.000331282
-0.000367502
-0.000384625
-0.000423748
-0.000433203
-0.000459914
-0.000481847
-0.000501172
-0.000494964
-0.000524133
-0.00052927
-0.000523644
-0.000520878
-0.000520469
-0.000509704
-0.000488627
-0.00047002
-0.000447854
-0.000417433
-0.000385027
-0.000349951
-0.000312597
-0.000287263
-0.00025595
-0.000237591
-0.000209521
-0.000188544
-0.000171382
-0.000149789
-0.000123202
-9.85638e-05
-0.000113611
-0.000172519
-0.000204663
-6.99466e-05
-1.88515e-06
-6.94505e-05
-0.000351373
-0.000320048
-0.00120825
-0.000340073
-0.00365876
0.00406855
-0.0198156
0.0923345
0.0570717
-0.0328374
0.047405
-0.0354364
0.0102867
-0.0207649
0.00128145
-0.0162234
0.00320217
-0.0110842
0.00295122
-0.00474038
-0.0034698
0.00233445
-0.00246293
0.000976927
-0.000117013
-0.00047327
-0.00139022
-0.00189444
-0.00272769
0.000775623
-0.00104701
0.000879486
0.00306435
-0.00265283
-0.00607489
0.00501778
0.00582454
-0.00820518
-0.0066165
-0.00100487
0.00438042
-0.0024576
0.0001973
-0.00271853
0.00212784
0.000428094
-0.00159577
-0.00454696
0.00254453
0.00146345
0.000464045
-8.60161e-05
0.00247608
0.000414104
-0.00102987
-0.00684283
0.00322572
0.00679859
-0.00367593
-0.00271183
-0.0015951
0.00435253
-0.0014671
0.00197663
-0.00302707
0.00275751
-0.00406531
0.00241014
-0.00370644
0.00363964
-0.0067571
0.00657115
-0.00808098
0.00752007
-0.00894588
-0.00609415
0.00136367
-0.000490991
-2.68114e-05
-0.000293716
-0.000243543
-0.000317022
-0.000333439
-0.000367995
-0.000386038
-0.000423652
-0.000436345
-0.000460033
-0.000483968
-0.000501058
-0.000505288
-0.000522395
-0.000534319
-0.000529444
-0.00052548
-0.000527107
-0.000517454
-0.000502025
-0.000479291
-0.000458636
-0.000427765
-0.000392755
-0.000349737
-0.000299044
-0.000251859
-0.000204891
-0.000150589
-8.142e-05
3.37136e-06
8.03966e-05
0.000148341
0.000249433
0.000378489
0.000507187
0.000507541
0.000556513
0.000666741
0.000910346
0.000860036
0.00090924
0.000946157
0.00216699
0.00331732
0.00497487
0.0128001
0.00530317
0.0802115
0.0258011
0.0055094
0.0294298
0.00793211
0.0234186
-0.0147196
0.0124143
-0.00847999
0.00775594
-0.00750157
0.00291449
-0.00651387
-0.0016754
-0.00131899
-0.000789261
-0.00220088
-0.00248034
-0.00252361
-0.00261294
-0.000111903
-0.00498084
-0.000294534
0.00387964
0.00391863
0.00554917
-0.00428241
0.00462925
-0.00332782
-0.0141079
-0.00422966
-0.000559522
0.00546894
-0.00129642
-0.00514534
-0.00598895
-0.00192896
-0.00438671
-0.0005518
-0.00535768
0.00209441
-0.00529047
0.00911185
-0.00167516
0.00292509
-0.00477248
-0.0035236
-8.28145e-05
0.00469327
-0.00143818
-0.00456386
-0.00435608
0.00507883
-3.85177e-05
0.00245859
-0.00441028
0.00190018
-0.00197019
0.00208407
-0.00291262
0.00381806
-0.00429485
0.00413469
-0.00532056
0.00532874
-0.00772447
0.00698137
-0.00837828
-0.00608058
0.00135476
-0.000490994
-2.82918e-05
-0.000294674
-0.000244553
-0.000318339
-0.000334299
-0.000368907
-0.000387798
-0.00042366
-0.000444189
-0.000456225
-0.000489989
-0.000505175
-0.000509572
-0.000525223
-0.000540851
-0.000545288
-0.000533274
-0.000541741
-0.000534075
-0.00052297
-0.000501202
-0.000487697
-0.000467611
-0.000439575
-0.000416427
-0.000387582
-0.000367304
-0.000353842
-0.000345738
-0.000331294
-0.000339678
-0.000376591
-0.000432185
-0.000471757
-0.000509963
-0.000615543
-0.000657831
-0.000757299
-0.000950112
-0.0012238
-0.00143677
-0.00142409
-0.00164754
-0.00214156
-0.00320557
-0.00473805
-0.0106124
0.0207045
0.0524754
0.00884543
-0.003822
0.0118071
0.011327
0.0217126
-0.0108683
0.00743396
-0.00383778
0.00180509
-0.00625706
-0.000693026
-0.004859
-0.00370403
-8.74336e-05
-0.00102465
0.000897946
-0.000622161
0.00133893
-0.00192352
0.00341776
-0.00250922
0.00401391
0.00534552
-0.00846982
0.0124333
-0.00549649
-0.0171052
-0.00659388
0.00515294
0.00405299
0.0017524
-0.00536534
-0.00648851
-0.00287651
-0.00323629
-0.000105297
-7.61362e-05
0.00172339
-0.00384188
0.00383799
-0.00766168
0.00824795
-0.00358111
0.00834571
-0.00188325
0.00664884
-0.00113704
-0.00210585
-0.00721167
0.00384174
-0.000244699
0.00241025
-0.00412806
0.00206049
-0.00346378
0.0036764
-0.00403499
0.00232343
-0.00229871
0.000803644
-0.00304518
0.0024371
-0.0056611
0.0042594
-0.00660325
0.00617589
-0.00766544
-0.00607124
0.00134702
-0.000491298
-2.98116e-05
-0.000295827
-0.000245539
-0.00031908
-0.000333828
-0.00037118
-0.000387904
-0.000424507
-0.000445303
-0.000463369
-0.00048925
-0.000508992
-0.000521195
-0.00052888
-0.000544473
-0.000552425
-0.000544377
-0.000548769
-0.000545555
-0.000537921
-0.000517729
-0.00050179
-0.000484179
-0.000458003
-0.000423049
-0.000385148
-0.000343554
-0.00030486
-0.000253255
-0.000189877
-0.000124671
-4.19173e-05
4.46337e-05
0.000171002
0.000262588
0.000342596
0.000594894
0.000931884
0.000997595
0.00126725
0.0010001
0.00167703
0.000742235
0.00401067
-0.000700152
0.0129424
-0.0164748
0.0919593
0.0279626
0.00242641
0.00234047
-0.0045049
0.0177995
0.00724093
0.0322437
-0.0175018
0.0163813
-0.017416
0.00923854
-0.0049027
-0.00357169
0.00045738
-0.00118742
-0.00183433
0.00148743
-0.000765223
-0.000385572
0.000383212
-0.00040757
0.00215008
-0.00314173
0.0067104
-0.00734952
0.00265791
-0.0114946
-0.00791797
0.00301124
0.00380363
-0.00508808
-0.00604367
-0.00307811
-0.00267333
-1.55831e-05
0.000134004
0.0015428
-0.0025937
-0.000179693
-0.00317227
0.00375515
-0.00792832
0.00360345
-0.00435584
0.0134549
-0.00194341
0.000853821
-0.00510369
0.00177849
0.000910513
0.00173462
-0.00466802
0.000925184
-0.00289295
0.00214653
-0.00145178
0.00232709
-0.00293725
0.0025644
-0.00373803
0.00303156
-0.00229294
0.00118749
-0.00321808
0.00412022
-0.00533405
0.00533558
-0.00691943
-0.00605951
0.0013394
-0.000491272
-3.12011e-05
-0.000297012
-0.000246697
-0.000320578
-0.000333284
-0.000374644
-0.000388095
-0.0004263
-0.000448695
-0.000466304
-0.000489241
-0.000513898
-0.000524841
-0.000533938
-0.000553753
-0.000566753
-0.000561576
-0.000563773
-0.000567913
-0.000563894
-0.000546005
-0.000536214
-0.000529468
-0.000521528
-0.000487238
-0.000483128
-0.000469927
-0.000462918
-0.000463808
-0.000464356
-0.000468398
-0.000549155
-0.000662513
-0.000728597
-0.000869988
-0.000990358
-0.00111276
-0.00125023
-0.001525
-0.00155425
-0.00185299
-0.00137469
-0.00216845
-0.00111251
-0.00444749
0.00317244
-0.0172322
0.0934011
0.0186297
0.000578172
-0.0054939
-0.00911836
0.00317295
0.0137114
0.0224676
0.00761781
0.0273071
-0.0140401
0.00406614
-0.0094496
-0.00582476
-0.000410791
0.000416807
-0.00110312
0.00225915
-0.00367833
0.00640417
-0.000661307
0.010972
0.000659347
0.0102831
0.00294018
0.00020328
-0.00102715
0.00208873
0.00210665
0.00233845
-0.00158531
-0.000485122
-0.00105694
-0.000899434
0.000395158
0.000787196
0.000542562
0.000436546
-0.00281261
-0.00418637
-0.00236542
-0.00318568
-0.000288192
-0.0029
0.00596821
0.00966023
-0.00558312
0.00721415
0.00232055
0.00427954
-0.000130049
0.00168799
-0.000684961
0.00192692
-0.00205216
0.00223499
-0.00323152
0.00187146
-0.00225113
0.00270679
-0.00183644
0.00214749
-0.00368561
0.00338173
-0.0036373
0.00269052
-0.00585599
0.00493047
-0.00614328
-0.00605042
0.00133268
-0.000491676
-3.25759e-05
-0.000298164
-0.000247982
-0.000321644
-0.000333648
-0.000375224
-0.000391031
-0.000424934
-0.000451544
-0.000472264
-0.000490492
-0.000518233
-0.000532475
-0.000544491
-0.000555948
-0.000574403
-0.000573039
-0.000572364
-0.00058015
-0.000580669
-0.000567452
-0.000558377
-0.000549363
-0.000535891
-0.000516593
-0.000478665
-0.000451659
-0.000417247
-0.00039002
-0.000352434
-0.000302527
-0.000221267
-0.000147287
-6.21209e-05
5.27679e-05
0.00016313
0.000417427
0.000622939
0.00070515
0.000804381
0.00112512
0.00150729
0.00185348
0.00251481
0.00171898
0.00831924
-0.00751044
0.0846736
0.0128245
-0.00202278
-0.00618044
-0.00509768
0.00483767
-0.000786712
0.00369447
0.0105133
0.0271014
-0.00625733
0.0141739
-0.00457239
-0.00410941
0.00573634
0.000987407
-0.00109222
0.00832305
-0.00316854
0.013167
0.00119245
0.00723419
0.00724045
-0.00645594
0.00670306
-0.00334011
-0.0040808
0.000824338
0.00334978
-0.0015338
-0.000254095
0.00113634
0.000937096
-0.000234045
-0.000303166
0.00234939
-0.000206823
-0.000610249
-0.00179997
-0.00344781
0.00299948
-0.00349206
0.00720512
-0.00754662
0.0087727
0.00115279
0.00370943
0.00335376
-0.00784556
-0.00132848
-0.00784256
0.00338064
-0.00437753
0.00344891
-0.0033838
0.00234094
-0.00388275
0.00292704
-0.00222016
0.00180435
-0.00256147
0.00135257
-0.00108941
0.000790869
-0.00295516
0.00235357
-0.00291412
0.00357969
-0.00523055
-0.00603997
0.00132648
-0.000491467
-3.38081e-05
-0.000299389
-0.00024897
-0.000323636
-0.000332469
-0.000377305
-0.000395145
-0.00042413
-0.000456763
-0.00047659
-0.000494267
-0.000521117
-0.000545795
-0.000549698
-0.000567407
-0.000589879
-0.000592724
-0.000596701
-0.000603065
-0.000613454
-0.000604561
-0.000601014
-0.000598025
-0.00060167
-0.000606028
-0.000577331
-0.000581802
-0.00059262
-0.000598887
-0.000620471
-0.000656853
-0.000710034
-0.000763801
-0.000942736
-0.00106266
-0.00118339
-0.00142152
-0.00205161
-0.00225095
-0.00256721
-0.00239797
-0.00259332
-0.00340981
-0.00579918
-0.0065463
-0.0125166
0.0276991
0.0591813
0.0127213
-0.000499256
-0.00986952
-0.00458549
0.00985164
0.0173711
-0.0148525
-0.00558969
0.0172152
0.0240438
-0.00879046
-0.00219163
0.0121108
-0.0150182
0.0331486
-0.00587652
0.0115627
-0.00493244
0.00735733
-0.00042221
0.00194123
0.000812135
0.00253003
0.00409449
0.00126331
0.00307016
0.00631091
0.00160935
0.00164181
0.00111721
0.00207278
0.00211033
0.00120466
-5.07016e-05
0.00351498
0.00127051
0.00396974
0.00346645
0.00494118
0.00353499
-0.00123961
0.0150111
0.00252814
0.0131482
0.00489991
0.00526034
-0.00112022
0.00895282
0.00203399
0.0062983
-0.00274987
-0.000671308
-0.000420548
-0.000111037
0.00301678
-0.00113433
0.00267303
-0.00402736
0.00310269
-0.00291987
0.00232091
-0.00225479
0.000499564
-0.000998603
0.00133176
-0.00388658
0.00210604
-0.00422029
-0.00603196
0.00132113
-0.000491968
-3.49361e-05
-0.000300479
-0.000249801
-0.00032541
-0.000332624
-0.000378759
-0.000396602
-0.000427557
-0.00045712
-0.000482646
-0.000496349
-0.000527013
-0.000552362
-0.000559835
-0.000575348
-0.000599108
-0.000605412
-0.000611148
-0.000617371
-0.000630347
-0.000632042
-0.000623819
-0.000622746
-0.000625503
-0.000619633
-0.000607153
-0.000586501
-0.000578001
-0.000559933
-0.000535629
-0.000510716
-0.000462991
-0.000411811
-0.0003582
-0.00024294
-0.000123638
-5.20917e-05
0.000104183
0.000213127
0.000374248
0.000765203
-0.000129004
0.00186529
-0.00291882
0.00901738
-0.0178492
0.0908257
0.0400565
-0.0149495
-0.00841632
-0.00259997
0.0111313
0.00884664
-0.0128111
-0.0383985
-0.00489625
0.0271531
0.00115033
0.000415612
0.020036
0.0125582
0.00225256
0.0149159
-0.0033415
0.00583057
0.00887104
0.00147788
-0.000981553
0.00309465
0.00383434
0.00567769
0.00531291
0.00130533
0.00291022
0.00540156
0.00345346
0.00574726
0.00717427
0.009071
0.00806404
0.00724645
0.00698838
0.0101177
0.00649448
0.00682471
0.00709783
0.00641844
0.00119395
0.012307
-0.00529663
0.0131861
0.00179228
0.00318236
-0.000734528
0.00971372
-0.00979868
0.00618871
-0.0105546
0.00743027
-0.00436448
0.00510344
-0.00337371
-1.16373e-05
-0.00211822
0.00115735
-0.000763452
0.00171343
-0.00223828
0.00137674
-0.00256014
0.00265295
-0.00215221
0.000903163
-0.00295822
0.00313929
-0.00380069
-0.00602315
0.00131638
-0.000491623
-3.597e-05
-0.000301642
-0.000250645
-0.000327771
-0.000331487
-0.000381134
-0.000400493
-0.000428001
-0.000459163
-0.000491065
-0.000499235
-0.00053438
-0.000562471
-0.000571042
-0.000587556
-0.000607903
-0.000631795
-0.000635292
-0.000644315
-0.000665783
-0.000678328
-0.000672378
-0.000681954
-0.000699297
-0.000709692
-0.000725822
-0.000716728
-0.000733815
-0.000760574
-0.00078223
-0.000809953
-0.000864761
-0.000949029
-0.0010249
-0.00121086
-0.00128308
-0.00152743
-0.00190271
-0.00177384
-0.00215223
-0.00144435
-0.00209498
-0.000936305
-0.00396315
0.00375046
-0.0109492
0.0910922
0.0232959
-0.0143346
-0.00891258
0.00062879
0.0137635
0.00904053
-0.0147473
-0.0256264
-0.00203024
0.0494681
-0.00586088
0.000918914
0.0196452
-0.00214492
0.00517258
0.00341404
-0.00250345
-0.0029709
0.00133238
0.00433939
-0.000879161
-2.85942e-05
-0.0053189
-1.61007e-06
0.00209325
0.00129866
0.00097845
9.92994e-05
0.000218225
0.00455525
0.000454219
0.00199088
0.00278907
0.00308512
0.00320573
0.00593166
0.00433556
0.00902575
0.00776578
0.00918636
0.00605142
0.00892244
0.00402494
0.003933
0.00343827
0.00461598
0.00553643
0.0034413
0.00180169
0.00323086
0.000941091
0.0025938
-0.000861902
0.00339814
-0.00301311
0.00495018
-0.00235022
0.00292518
-0.00230505
0.000842193
-0.000379416
0.000841225
-3.87667e-05
-0.000152275
-0.000873963
0.000568166
-0.00167788
0.00152771
-0.00293611
-0.00601666
0.00131268
-0.000491937
-3.67568e-05
-0.000302672
-0.000251447
-0.000328923
-0.000332836
-0.00038113
-0.000403461
-0.000430275
-0.00046066
-0.000493913
-0.0005067
-0.000537579
-0.000567253
-0.000582612
-0.000597623
-0.000623663
-0.000646348
-0.000652892
-0.000664681
-0.000686105
-0.000698628
-0.000708657
-0.00070522
-0.000721332
-0.000732523
-0.000744102
-0.00074479
-0.000736931
-0.000743589
-0.000748638
-0.000748608
-0.000750397
-0.000742681
-0.000652788
-0.000601153
-0.000448797
-0.00046143
-0.00028505
-0.000225279
0.000409709
0.000462005
0.000695036
0.000450135
-0.000531808
0.00363985
7.58193e-05
0.0780388
0.011321
-0.00847351
-0.00808436
0.00665661
0.0132621
0.00374568
-0.018404
-0.0291871
0.0276302
0.0418844
-0.0136412
0.0101789
0.0100152
-0.00597876
-0.000891842
0.00239666
0.000401504
-0.000669524
-0.00202092
-0.00172766
-0.000705372
0.00517778
0.00494965
-0.000836055
-0.00247283
0.00705413
0.00666896
-0.00182756
-0.000165873
0.002781
0.00150718
0.00128916
0.00195029
0.00166352
0.00230641
0.00228678
0.00151961
0.000512671
0.000679592
-0.000569031
0.000248572
-0.000503766
0.000622246
0.00207083
0.00208993
0.00133172
0.000164012
-0.00264574
0.00535667
-0.00919029
0.00573294
-0.00500478
0.00318369
-0.003355
0.000807068
4.77831e-05
-0.00239166
0.00281488
-0.00332191
0.00355637
-0.0035095
0.00180104
-0.001737
0.000762309
-0.000449956
0.000166409
-0.00147018
0.000607638
-0.00190768
-0.00600927
0.00130919
-0.00049144
-3.74951e-05
-0.00030368
-0.000252007
-0.0003298
-0.00033514
-0.000381483
-0.00040813
-0.000434109
-0.000462014
-0.000501403
-0.000513972
-0.000543971
-0.000573302
-0.000604119
-0.000607908
-0.000638496
-0.00066797
-0.000679956
-0.00069502
-0.000722315
-0.00074681
-0.00076923
-0.000773718
-0.000805135
-0.000831639
-0.000869324
-0.000887305
-0.000901434
-0.000915858
-0.000971062
-0.000992854
-0.00106484
-0.00112203
-0.00115268
-0.00115751
-0.00132164
-0.00181043
-0.00179755
-0.00191407
-0.00178145
-0.00231604
-0.00245844
-0.00562792
-0.00112106
-0.0188375
0.059098
0.0490662
0.0108997
0.00302184
-0.00128487
0.0130332
0.0145593
0.000340332
-0.0258218
-0.0104404
0.0448783
0.0120568
-0.000348009
0.0114858
-0.00725463
0.00284665
0.000584912
-0.000524733
-0.00199539
0.00271521
0.000733385
0.000841883
-0.0015186
-0.00155445
0.00102041
0.00261077
0.0014248
-0.00196898