/*--------------------------------*- C++ -*----------------------------------*\
| =========                 |                                                 |
| \\      /  F ield         | OpenFOAM: The Open Source CFD Toolbox           |
|  \\    /   O peration     | Version:  2.2.x                                 |
|   \\  /    A nd           | Web:      www.OpenFOAM.org                      |
|    \\/     M anipulation  |                                                 |
\*---------------------------------------------------------------------------*/
FoamFile
{
    version     2.0;
    format      ascii;
    class       surfaceScalarField;
    location    "2.65";
    object      cfmax;
}
// * * * * * * * * * * * * * * * * * * * * * * * * * * * * * * * * * * * * * //

dimensions      [0 3 -1 0 0 0 0];

internalField   nonuniform List<scalar> 
28084
(
0.00124884
0.00124249
0.00123794
0.00123415
0.00123112
0.00122876
0.00122705
0.00122596
0.00122543
0.00122539
0.00122582
0.00122667
0.0012279
0.00122944
0.00123122
0.00123322
0.0012354
0.00123779
0.00124018
0.00124257
0.00124494
0.00124728
0.0012496
0.00125191
0.00125401
0.00125601
0.00125782
0.00125939
0.00126076
0.00126187
0.00126268
0.00126311
0.00126341
0.00126346
0.00126332
0.00126278
0.0012617
0.00126037
0.0012589
0.00125704
0.00125521
0.00125279
0.00125021
0.00114139
0.00079451
0.000780342
0.000796715
0.000815859
0.000836025
0.000855284
0.000873312
0.000891576
0.000910923
0.000928984
0.000947833
0.000966233
0.000983381
0.000999405
0.00101436
0.00102827
0.00104137
0.00105335
0.0010646
0.00107487
0.00108474
0.00109338
0.00110155
0.00110867
0.00111553
0.00112127
0.00112647
0.00113078
0.00113499
0.00113838
0.00114106
0.00114294
0.00114372
0.00114358
0.00114307
0.00114154
0.00113922
0.0011366
0.00113315
0.00112912
0.00112525
0.00112059
0.00111527
0.00110961
0.00110355
0.00109822
0.00109208
0.00108584
0.00108054
0.00107427
0.00106813
0.00106529
0.00106071
0.0010569
0.00105702
0.00106054
0.00106819
0.0010843
0.00111209
0.001149
0.001177
0.00119112
0.00120866
0.00123019
0.00126581
0.00127454
0.00120205
0.00117552
0.00112057
0.00108551
0.00105391
0.00102364
0.000992464
0.000946995
0.00289665
0.00289061
0.00125473
0.00288028
0.00125219
0.00286373
0.00125141
0.00284131
0.00125133
0.00281326
0.00125195
0.00277971
0.00125326
0.00274102
0.00125518
0.0026974
0.00125762
0.00264924
0.00126058
0.00259706
0.00126403
0.00254139
0.00126791
0.00248223
0.00127211
0.00242
0.00127666
0.00235507
0.00128146
0.00228789
0.00128644
0.00221887
0.00129157
0.00214839
0.00129682
0.00207679
0.00130219
0.00200445
0.00130748
0.00193168
0.00131269
0.0018589
0.00131779
0.00178636
0.00132277
0.00171439
0.00132763
0.00164321
0.00133239
0.00157304
0.00133686
0.00150402
0.00134109
0.00143637
0.00134508
0.00137026
0.0013487
0.00130579
0.00135201
0.00124307
0.00135499
0.00118225
0.00135752
0.00112341
0.0013596
0.00106658
0.00136143
0.00101181
0.00136297
0.000959025
0.00136416
0.000908263
0.00136492
0.0008599
0.00136492
0.000813603
0.0013647
0.000769393
0.00136424
0.000727186
0.00136342
0.000686748
0.00136246
0.000648549
0.00136088
0.000600984
0.00135902
0.000574855
0.00126217
0.000588844
0.000869548
0.000592964
0.000852224
0.000598877
0.000869298
0.000601285
0.000886068
0.000606587
0.000903007
0.000609679
0.000921256
0.000612767
0.000939479
0.000615565
0.000957534
0.000618
0.00097567
0.000620346
0.000993425
0.000622463
0.00101133
0.000623934
0.00102815
0.00062536
0.00104415
0.000626806
0.00105904
0.000628577
0.00107339
0.000630554
0.00108647
0.0006329
0.00109954
0.000635169
0.00111134
0.000637612
0.00112285
0.000639926
0.00113331
0.000642159
0.00114283
0.000644452
0.00115157
0.00064663
0.00115908
0.000648864
0.00116544
0.000651268
0.0011711
0.000653919
0.00117651
0.000656505
0.00118041
0.000659627
0.00118364
0.000662721
0.00118679
0.000665771
0.00118888
0.000669069
0.00119041
0.000672292
0.00119102
0.00067551
0.00119042
0.000679349
0.00118914
0.000683551
0.001188
0.000688141
0.00118529
0.000693095
0.00118199
0.000697838
0.00117893
0.000702771
0.00117431
0.000707969
0.00116952
0.000714031
0.00116505
0.000720114
0.00115983
0.00072625
0.00115401
0.000732576
0.0011473
0.000738966
0.00114042
0.000745714
0.00113427
0.000752339
0.00112721
0.000759224
0.0011202
0.000766245
0.00111387
0.000773102
0.00110685
0.00077993
0.00110007
0.000786886
0.00109717
0.000793972
0.00109135
0.000800826
0.00108734
0.000810564
0.00108733
0.000820245
0.00109062
0.000829654
0.00109556
0.000839969
0.00111384
0.000852133
0.0011392
0.00086336
0.00117086
0.000875418
0.00119972
0.000886936
0.00121366
0.00090138
0.00123213
0.000913818
0.00125298
0.000926107
0.00125903
0.000906062
0.00118721
0.000875766
0.00111853
0.000892168
0.00105456
0.000865091
0.00100097
0.000854273
0.000968629
0.00084227
0.000948025
0.000845437
0.000935542
0.00085598
0.000920506
0.000894895
0.000910577
0.0028978
0.00289132
0.0012626
0.00288055
0.00126381
0.00286357
0.00126674
0.00284077
0.00127034
0.00281236
0.00127462
0.00277846
0.00127949
0.00274053
0.00128494
0.00269785
0.00129094
0.00265056
0.00129741
0.00259898
0.00130427
0.00254354
0.00131149
0.00248455
0.00131907
0.00242247
0.00132691
0.00235767
0.00133493
0.00229059
0.00134308
0.00222164
0.00135131
0.00215121
0.00135958
0.00207964
0.00136789
0.00200729
0.00137606
0.0019345
0.00138406
0.00186166
0.00139186
0.00178907
0.00139945
0.00171702
0.00140684
0.00164575
0.00141403
0.00157546
0.00142083
0.00150634
0.0014273
0.00143854
0.00143341
0.00137229
0.00143907
0.00130769
0.00144432
0.0012448
0.00144913
0.00118381
0.00145339
0.00112481
0.0014571
0.00106782
0.00146048
0.00101287
0.00146345
0.000959895
0.00146602
0.000908916
0.00146798
0.00086009
0.00146917
0.000813348
0.00147004
0.000769199
0.0014706
0.000727194
0.00147079
0.000686986
0.00147078
0.000649067
0.00147011
0.000609944
0.0014689
0.000576162
0.00137576
0.000600721
0.000940637
0.000605227
0.000924906
0.000611401
0.000943314
0.000613593
0.000959125
0.000614281
0.000977239
0.000615537
0.000997148
0.000617562
0.00101457
0.000620426
0.00103298
0.000622912
0.00105089
0.000625312
0.00106849
0.000627456
0.00108583
0.000628927
0.00110224
0.000630284
0.00111827
0.000631695
0.00113273
0.000633357
0.00114636
0.000635212
0.00115839
0.000637393
0.00117023
0.000639484
0.00118106
0.00064172
0.00119162
0.000643728
0.00120096
0.00064564
0.00120981
0.000647716
0.00121745
0.00064965
0.00122407
0.000651489
0.00122976
0.000653514
0.00123474
0.000655778
0.00123958
0.000657987
0.00124273
0.000660717
0.00124509
0.00066341
0.0012475
0.000666073
0.00124866
0.000669042
0.00124898
0.000671891
0.00124876
0.000676201
0.00124735
0.000680789
0.00124472
0.000685633
0.00124215
0.000690601
0.00123838
0.000695775
0.00123414
0.000700986
0.00122937
0.000706076
0.00122391
0.000710883
0.00121804
0.000716479
0.00121202
0.000722332
0.00120557
0.000727732
0.00119868
0.000733225
0.00119089
0.000738623
0.00118271
0.000744359
0.00117527
0.000749919
0.00116703
0.000755906
0.00115874
0.000762109
0.0011513
0.000768278
0.00114329
0.000774437
0.0011356
0.000780348
0.00113196
0.000787017
0.00112511
0.000792904
0.00112006
0.000801466
0.00111954
0.000810796
0.00112076
0.000820789
0.00112728
0.000830747
0.001145
0.000841241
0.00116523
0.00085276
0.00119723
0.000867216
0.00122178
0.000881555
0.00123148
0.000896965
0.00124269
0.000897345
0.00124048
0.000891564
0.00117362
0.000848813
0.0011011
0.00086493
0.00102855
0.00088171
0.000966448
0.000870582
0.000926411
0.000866323
0.000900808
0.000864095
0.000889341
0.000880979
0.000884425
0.000892537
0.000876876
0.000968626
0.00087256
0.00289669
0.0028898
0.00127243
0.00287863
0.00127735
0.00286126
0.00128394
0.00283973
0.00129117
0.00281322
0.001299
0.00278111
0.00130746
0.00274376
0.00131644
0.00270136
0.00132587
0.00265434
0.00133575
0.00260297
0.00134603
0.0025477
0.00135664
0.00248887
0.00136748
0.00242692
0.00137854
0.00236221
0.00138977
0.00229519
0.00140104
0.00222628
0.00141233
0.00215585
0.0014236
0.00208425
0.00143482
0.00201185
0.00144583
0.00193898
0.00145658
0.00186604
0.00146705
0.00179334
0.00147723
0.00172117
0.00148711
0.00164973
0.0014967
0.00157927
0.00150581
0.00150997
0.00151446
0.001442
0.00152272
0.00137554
0.0015304
0.00131071
0.00153755
0.00124763
0.00154419
0.00118639
0.00155021
0.00112716
0.00155553
0.00106998
0.00156042
0.00101478
0.00156478
0.000961552
0.00156872
0.000910334
0.00157189
0.000861264
0.00157432
0.000814311
0.00157618
0.000769429
0.00157777
0.000726838
0.00157898
0.0006871
0.00157984
0.000649851
0.00158062
0.000619161
0.00158114
0.000577356
0.00157411
0.00060987
0.00103554
0.000617035
0.00101177
0.000622159
0.00102812
0.0006233
0.00104067
0.000624295
0.00105619
0.000625892
0.00107311
0.000627877
0.00109142
0.000629158
0.00110817
0.000630285
0.00112477
0.000632131
0.0011415
0.000633071
0.0011573
0.000633527
0.00117304
0.000634158
0.00118795
0.000634764
0.00120224
0.000635618
0.00121506
0.000636724
0.00122666
0.000638303
0.00123751
0.000639792
0.00124799
0.000641398
0.00125711
0.000642708
0.00126597
0.000643824
0.00127328
0.000644998
0.00127998
0.000646278
0.00128547
0.000647839
0.00129018
0.000649553
0.00129445
0.000651828
0.00129827
0.000653826
0.00130013
0.00065606
0.00130154
0.00065868
0.00130291
0.000660805
0.00130286
0.000663239
0.00130198
0.000665785
0.00130052
0.000670463
0.00129793
0.000675489
0.0012944
0.000680576
0.00129074
0.000686134
0.00128604
0.000691925
0.00128113
0.000697443
0.00127557
0.000703136
0.00126907
0.000708377
0.00126216
0.000714276
0.00125552
0.000720747
0.00124786
0.000726908
0.00124
0.000733061
0.00123174
0.000738833
0.00122287
0.000744928
0.0012147
0.000750763
0.00120568
0.000757055
0.00119679
0.000763261
0.00118868
0.000769448
0.00117968
0.000775227
0.00117135
0.000780219
0.00116699
0.000786742
0.00115924
0.000792169
0.00115344
0.000800049
0.00115263
0.000809963
0.00115362
0.000820136
0.00116075
0.000829301
0.00117723
0.000839523
0.00119595
0.000852604
0.00122826
0.000868523
0.00124407
0.000883148
0.00125088
0.000891461
0.00123895
0.000879235
0.00115932
0.000828631
0.00107598
0.000887494
0.000993939
0.000912091
0.000948066
0.000920942
0.000917016
0.000898124
0.000898037
0.000888332
0.000876443
0.000883997
0.000869502
0.000907888
0.000870715
0.000916293
0.000867267
0.00100352
0.000863562
0.00289337
0.00288734
0.00128423
0.00287914
0.00129278
0.00286465
0.00130299
0.00284419
0.00131379
0.00281799
0.0013252
0.00278619
0.0013371
0.00274911
0.0013495
0.00270696
0.0013624
0.00266017
0.00137569
0.00260899
0.00138927
0.00255388
0.00140314
0.00249517
0.00141727
0.00243331
0.00143155
0.00236865
0.00144589
0.00230165
0.00146026
0.00223273
0.00147456
0.00216226
0.00148877
0.00209059
0.00150287
0.00201808
0.00151668
0.00194508
0.00153017
0.00187201
0.00154328
0.00179915
0.00155601
0.00172677
0.00156834
0.00165515
0.00158028
0.00158444
0.00159167
0.00151492
0.00160253
0.00144669
0.00161285
0.00137998
0.00162251
0.0013149
0.00163159
0.00125154
0.00164002
0.00119002
0.00164774
0.00113053
0.00165469
0.00107302
0.00166112
0.00101759
0.00166688
0.000964073
0.00167211
0.000912583
0.00167653
0.000863197
0.00168017
0.000815955
0.00168312
0.000770761
0.00168565
0.000727556
0.0016876
0.000686483
0.0016894
0.000649145
0.00169116
0.000619331
0.0016926
0.000593612
0.00168941
0.000625343
0.00111259
0.000627923
0.00108161
0.000630648
0.00109565
0.000632323
0.00111032
0.000633648
0.00112564
0.000636213
0.00114208
0.000636897
0.00115753
0.000638605
0.00117405
0.000639701
0.00119092
0.00064176
0.00120769
0.000642701
0.00122312
0.000642977
0.00123859
0.000643284
0.00125328
0.000643439
0.00126759
0.000643801
0.00127973
0.000644672
0.00129093
0.00064601
0.00130082
0.000647245
0.00131086
0.000648538
0.00131915
0.000649559
0.00132736
0.0006502
0.00133394
0.000651094
0.00134036
0.000652189
0.00134458
0.000653401
0.00134832
0.00065468
0.0013519
0.000656664
0.00135451
0.000658514
0.00135568
0.000660349
0.00135624
0.000662672
0.00135661
0.000664389
0.00135537
0.00066638
0.00135357
0.000669748
0.00135087
0.000675238
0.00134721
0.000680596
0.00134268
0.00068581
0.00133775
0.000691668
0.00133207
0.000697808
0.00132621
0.000703483
0.00131933
0.000709515
0.00131216
0.000715001
0.00130422
0.000720836
0.00129668
0.000727463
0.00128787
0.00073382
0.0012791
0.000740128
0.00126978
0.000745983
0.00126009
0.000752203
0.00125109
0.000758091
0.00124125
0.000764401
0.00123187
0.000770535
0.00122294
0.000776664
0.00121338
0.000782176
0.00120431
0.000786138
0.00119954
0.000792412
0.00119107
0.000797599
0.00118485
0.000804161
0.00118511
0.000814435
0.00118885
0.00082561
0.00119509
0.000833831
0.0012108
0.000843633
0.00123143
0.000862579
0.00126556
0.000873088
0.00126796
0.000878799
0.00125201
0.000864743
0.00115975
0.000847664
0.00106054
0.000899828
0.000973007
0.000922611
0.000925186
0.000935568
0.000899253
0.000940243
0.000881487
0.000927737
0.00087469
0.000911995
0.000868607
0.00090177
0.000862973
0.000928851
0.000869448
0.000933982
0.000870378
0.00102521
0.000870744
0.00289643
0.00289293
0.00129802
0.00288508
0.00131016
0.00287093
0.0013239
0.0028508
0.00133819
0.00282492
0.00135303
0.0027934
0.00136841
0.00275658
0.00138425
0.00271466
0.00140047
0.00266805
0.00141705
0.00261704
0.00143396
0.00256206
0.0014511
0.00250344
0.00146839
0.00244163
0.00148579
0.00237698
0.00150326
0.00230996
0.00152066
0.00224099
0.00153793
0.00217044
0.00155503
0.00209865
0.00157194
0.002026
0.00158853
0.00195284
0.00160471
0.00187956
0.00162041
0.00180647
0.00163566
0.00173384
0.00165041
0.00166196
0.00166466
0.00159096
0.00167829
0.00152114
0.00169133
0.00145264
0.00170367
0.00138563
0.00171534
0.00132021
0.00172632
0.00125653
0.00173652
0.00119469
0.00174601
0.00113487
0.00175454
0.001077
0.00176249
0.00102118
0.00176969
0.000967365
0.00177607
0.000915593
0.00178167
0.000865913
0.00178646
0.00081825
0.00179048
0.000772625
0.00179389
0.000729051
0.00179637
0.000687629
0.00179769
0.000648155
0.00179896
0.000611517
0.0017997
0.000616547
0.00174689
0.000639247
0.00117192
0.000638548
0.00114292
0.000641819
0.00115773
0.00064326
0.00117441
0.000644823
0.00119054
0.00064739
0.00120807
0.00064783
0.00122576
0.000650957
0.00124408
0.000651204
0.0012628
0.00065388
0.00127994
0.000654866
0.00129612
0.000655313
0.00131219
0.00065554
0.00132726
0.000655447
0.00134235
0.000655515
0.00135449
0.000656228
0.00136498
0.000657368
0.0013742
0.000658446
0.00138367
0.00065947
0.00139126
0.000660208
0.00139909
0.000660407
0.0014046
0.000661035
0.00141045
0.000661802
0.00141344
0.000662674
0.0014161
0.000663697
0.00141948
0.000665177
0.00142016
0.000666813
0.00142027
0.000668099
0.0014198
0.000670125
0.00141835
0.000671603
0.00141655
0.000673944
0.00141337
0.000679474
0.00140938
0.000685396
0.00140443
0.000691216
0.00139884
0.000696694
0.00139263
0.000702786
0.00138572
0.000709436
0.00137872
0.000715545
0.00137081
0.000721823
0.00136266
0.000727716
0.00135382
0.000733781
0.00134534
0.000740623
0.00133564
0.000747399
0.00132601
0.00075406
0.0013161
0.000760251
0.00130551
0.000766742
0.00129558
0.00077292
0.00128516
0.000779377
0.00127498
0.000785749
0.00126589
0.000791801
0.0012556
0.00079708
0.00124595
0.000800672
0.00124102
0.000806759
0.00123249
0.000811679
0.0012259
0.000815516
0.00122851
0.000826596
0.0012328
0.000836621
0.00124027
0.000847112
0.00125382
0.000860746
0.00128975
0.000867115
0.00128973
0.0008762
0.00128648
0.000850015
0.00118043
0.000867809
0.00107051
0.000916439
0.0009872
0.000936063
0.000939692
0.000948573
0.000906835
0.000956135
0.000880469
0.000955577
0.000864116
0.000944198
0.000858574
0.000937287
0.000857693
0.000919437
0.000859254
0.000948896
0.000867613
0.000951031
0.000874322
0.0010486
0.000877137
0.00290391
0.00290074
0.00131379
0.00289321
0.00132943
0.00287936
0.00134664
0.00285955
0.00136437
0.00283397
0.00138264
0.00280272
0.00140135
0.00276611
0.00142049
0.00272441
0.00144005
0.00267798
0.00145993
0.00262711
0.00148003
0.00257221
0.00150032
0.00251365
0.00152078
0.00245188
0.00154129
0.00238721
0.00156176
0.00232013
0.00158216
0.00225106
0.00160235
0.00218037
0.0016223
0.00210843
0.00164196
0.00203559
0.00166128
0.0019622
0.00168008
0.00188868
0.00169836
0.00181532
0.00171609
0.00174238
0.00173321
0.00167017
0.0017497
0.00159885
0.00176557
0.00152868
0.00178072
0.00145985
0.00179508
0.00139245
0.00180872
0.00132667
0.00182155
0.00126264
0.00183355
0.00120041
0.00184471
0.0011402
0.00185494
0.00108195
0.00186432
0.00102569
0.00187296
0.000971475
0.00188068
0.000919363
0.00188754
0.000869268
0.00189342
0.000821145
0.00189843
0.000775083
0.00190268
0.000731076
0.00190583
0.000689223
0.0019077
0.000648703
0.00190945
0.000612303
0.00191002
0.000625179
0.00184849
0.000645112
0.00124455
0.000645573
0.00120787
0.000649528
0.00122403
0.00065289
0.00124299
0.000656669
0.00126216
0.000660494
0.00128232
0.000662414
0.00130452
0.000666418
0.00132402
0.000667921
0.00134045
0.000671309
0.00135993
0.000673193
0.00137624
0.000675003
0.00139306
0.000674377
0.00140587
0.000672784
0.00141896
0.000671696
0.00143061
0.000672102
0.00144061
0.000673175
0.00144904
0.000674034
0.00145789
0.0006746
0.00146467
0.00067466
0.00147092
0.000674068
0.00147551
0.000673926
0.0014805
0.000674238
0.0014824
0.000674867
0.00148399
0.000675367
0.00148666
0.000676403
0.00148594
0.000677949
0.00148477
0.000678489
0.00148331
0.000679636
0.00148027
0.00068127
0.00147769
0.000686516
0.00147302
0.000692479
0.00146775
0.000699021
0.00146193
0.000705091
0.00145552
0.000710706
0.00144792
0.000717337
0.00144019
0.000724001
0.00143236
0.000730534
0.00142328
0.000737495
0.00141434
0.000743929
0.00140506
0.000750326
0.00139621
0.000757686
0.00138583
0.000764722
0.00137608
0.000771117
0.00136546
0.000776942
0.00135409
0.000782933
0.00134331
0.000788753
0.00133277
0.000794658
0.00132223
0.000800744
0.00131299
0.000806433
0.00130303
0.000811362
0.00129301
0.000814399
0.00128829
0.00082027
0.00128015
0.000825071
0.00127386
0.000827229
0.00127893
0.000839324
0.00128269
0.000846903
0.00129167
0.000856262
0.00131297
0.000862634
0.00131371
0.000867568
0.0013078
0.000844169
0.00120632
0.000894659
0.00109043
0.000937476
0.0010052
0.000965806
0.000958886
0.000979862
0.000925613
0.000979162
0.000900864
0.000973319
0.000878562
0.00096758
0.000864321
0.000957134
0.000854939
0.000954018
0.000854582
0.000935746
0.00085816
0.000965748
0.000867701
0.000966939
0.000876716
0.00106992
0.000880858
0.00291362
0.00291075
0.00133157
0.00290353
0.00135062
0.00288997
0.00137123
0.00287045
0.00139232
0.00284508
0.0014139
0.0028141
0.00143591
0.00277774
0.00145834
0.00273622
0.0014811
0.00268991
0.00150415
0.00263916
0.00152743
0.00258435
0.00155087
0.00252583
0.00157438
0.00246402
0.00159791
0.00239932
0.00162137
0.00233214
0.0016447
0.00226292
0.00166774
0.00219206
0.00169048
0.00211991
0.00171284
0.00204685
0.00173481
0.00197318
0.00175621
0.00189936
0.00177704
0.00182566
0.00179718
0.00175237
0.00181664
0.00167977
0.00183535
0.00160808
0.00185335
0.00153749
0.00187057
0.00146823
0.00188698
0.00140047
0.00190251
0.00133429
0.00191717
0.00126981
0.00193099
0.00120715
0.00194383
0.00114649
0.00195573
0.00108781
0.00196657
0.00103113
0.00197661
0.000976474
0.00198569
0.000923874
0.00199375
0.000873348
0.0020008
0.00082473
0.00200695
0.000778162
0.00201174
0.000733538
0.00201482
0.000690965
0.00201544
0.000649865
0.00201506
0.000612022
0.00201137
0.000622223
0.00177958
0.000656293
0.00128094
0.000662488
0.00125939
0.000670692
0.00128175
0.000675279
0.00130776
0.000680213
0.00133183
0.000684358
0.00135497
0.000686519
0.00137962
0.000689935
0.00139741
0.000688578
0.00141598
0.000689258
0.00143568
0.000689319
0.00145294
0.000688838
0.00146825
0.000686729
0.00148203
0.000684573
0.00149582
0.000683645
0.00150905
0.000683857
0.00151958
0.000684198
0.00152767
0.000684415
0.00153538
0.000684402
0.00154315
0.000683887
0.00154836
0.000682837
0.00155281
0.000682105
0.00155821
0.00068186
0.00155891
0.000681559
0.0015596
0.000681811
0.00156141
0.000681959
0.00156066
0.000682503
0.00155807
0.00068286
0.00155517
0.0006833
0.00155158
0.000687299
0.00154693
0.000693605
0.00154128
0.000700454
0.00153521
0.000706741
0.00152747
0.000713163
0.00151873
0.000719857
0.00150983
0.000726397
0.00150078
0.000734467
0.00149173
0.000741719
0.00148245
0.000748503
0.00147224
0.000755742
0.00146204
0.000762493
0.00145209
0.000770191
0.00144137
0.000777827
0.00143192
0.000784685
0.0014213
0.000790834
0.00140955
0.00079687
0.00139848
0.000803148
0.0013883
0.000809084
0.00137781
0.000815067
0.00136813
0.000821137
0.00135821
0.000826051
0.0013477
0.000828043
0.00134193
0.000833385
0.00133333
0.000837032
0.00132589
0.000834528
0.00132826
0.000840462
0.0013268
0.000849244
0.00133379
0.000858062
0.00133255
0.000853459
0.00132441
0.000861817
0.00122509
0.000911237
0.00112325
0.000962918
0.00104575
0.000988585
0.000996277
0.000997341
0.000963247
0.0010074
0.000931706
0.00100476
0.000905003
0.00099093
0.000887036
0.000980931
0.000871314
0.000968684
0.000858538
0.000967894
0.000856306
0.000951875
0.000860182
0.000981321
0.000870096
0.000983305
0.000879938
0.00108978
0.000885354
0.00292551
0.00292292
0.00135136
0.00291598
0.00137375
0.0029027
0.00139767
0.00288346
0.00142202
0.00285837
0.00144683
0.0028276
0.00147208
0.00279139
0.0014977
0.00275005
0.0015236
0.00270388
0.00154978
0.00265321
0.00157615
0.00259842
0.00160262
0.00253992
0.00162914
0.00247807
0.00165563
0.00241329
0.00168198
0.00234597
0.00170818
0.00227657
0.00173403
0.00220549
0.00175949
0.00213308
0.0017845
0.00205974
0.00180902
0.00198576
0.00183299
0.00191159
0.0018563
0.00183751
0.00187883
0.0017638
0.00190056
0.00169076
0.00192146
0.00161864
0.00194155
0.0015476
0.00196081
0.00147786
0.00197918
0.00140965
0.00199662
0.001343
0.00201308
0.00127806
0.00202859
0.00121497
0.00204319
0.00115378
0.00205672
0.00109459
0.00206923
0.0010374
0.0020806
0.000982289
0.00209102
0.000929238
0.00210053
0.000878263
0.00210897
0.000829137
0.00211654
0.000781989
0.00212289
0.00073659
0.00212781
0.000693407
0.00213091
0.00065202
0.00213095
0.000611038
0.0021304
0.00061618
0.00196639
0.000658592
0.00136004
0.000672662
0.00133737
0.000684544
0.0013689
0.000690795
0.00139836
0.000696061
0.00142625
0.000700432
0.0014521
0.000701943
0.00148114
0.000705041
0.00150158
0.000704005
0.00151779
0.000703674
0.00153892
0.00070214
0.00155415
0.000699905
0.00156954
0.000697098
0.00158348
0.000693604
0.0015953
0.000690977
0.00160932
0.00069093
0.00161901
0.000690937
0.00162644
0.000690129
0.00163296
0.000689992
0.00164133
0.000688788
0.00164523
0.000687173
0.00164817
0.000685853
0.00165503
0.000685213
0.00165594
0.000684642
0.00165623
0.000683976
0.00165576
0.000683608
0.00165376
0.00068401
0.00165071
0.000683549
0.00164723
0.000686256
0.00164297
0.000692602
0.00163732
0.000699427
0.00163017
0.000706671
0.00162317
0.000713662
0.0016148
0.000720568
0.00160496
0.000727392
0.00159394
0.000734586
0.00158286
0.000742736
0.00157203
0.000750293
0.00156162
0.000757697
0.00155043
0.000765043
0.00153921
0.000771902
0.0015269
0.000779849
0.00151458
0.000787543
0.0015032
0.000794464
0.00149092
0.000800579
0.00147769
0.000806565
0.00146438
0.000812733
0.00145284
0.000818489
0.00144055
0.000824257
0.00142875
0.000829975
0.00141629
0.000834296
0.00140276
0.000835961
0.00139212
0.000840224
0.00138066
0.00084295
0.00136918
0.00084059
0.00136697
0.000845404
0.00135948
0.000855258
0.00135374
0.000850355
0.00133298
0.000861386
0.00124109
0.000904353
0.00114426
0.000973762
0.00105638
0.00101017
0.00101676
0.00102961
0.000986486
0.00103548
0.000963022
0.00103631
0.000938864
0.0010272
0.000917426
0.00100707
0.000899279
0.00099577
0.000882125
0.000981861
0.000867571
0.0009822
0.000861908
0.000968251
0.000864718
0.00099726
0.000874253
0.000999682
0.000884047
0.00110779
0.000890137
0.00293955
0.00293722
0.00137319
0.00293056
0.00139881
0.00291755
0.00142593
0.00289855
0.00145349
0.0028737
0.00148148
0.00284313
0.00150983
0.00280713
0.00153851
0.00276592
0.00156752
0.00271983
0.00159675
0.00266922
0.00162612
0.00261445
0.00165555
0.00255591
0.00168499
0.00249399
0.00171436
0.00242909
0.00174355
0.0023616
0.00177254
0.00229199
0.00180112
0.00222063
0.00182925
0.00214792
0.00185683
0.00207425
0.00188385
0.00199994
0.00191029
0.00192535
0.00193604
0.00185084
0.00196091
0.00177667
0.00198487
0.00170313
0.00200793
0.0016305
0.00203006
0.00155897
0.00205126
0.00148873
0.00207154
0.00141996
0.00209086
0.0013528
0.00210915
0.00128736
0.00212636
0.00122375
0.00214259
0.00116205
0.00215771
0.00110232
0.00217178
0.00104459
0.00218484
0.000988979
0.00219669
0.000935415
0.00220754
0.000883947
0.00221749
0.000834438
0.00222641
0.000786979
0.00223428
0.000741231
0.00224095
0.000697581
0.00224614
0.000655071
0.00224958
0.000601941
0.00225133
0.000578626
0.00216811
0.000678737
0.00145016
0.000708263
0.00145317
0.000721119
0.00149428
0.000722309
0.00151651
0.000723623
0.00154791
0.000724574
0.0015725
0.000724532
0.0016035
0.00072614
0.00162372
0.000721364
0.00163494
0.000718773
0.00165523
0.000714437
0.00166915
0.000708497
0.00168148
0.000705186
0.00168339
0.000700807
0.00168945
0.000696391
0.00170637
0.000695716
0.00170921
0.000693857
0.00171409
0.00069173
0.00172322
0.000691605
0.00173212
0.000688808
0.00173735
0.000686928
0.00174237
0.000686653
0.00174919
0.000685264
0.00174944
0.000682304
0.00174851
0.000681473
0.00174733
0.000681262
0.00174515
0.000681052
0.0017408
0.000681231
0.00173676
0.000688726
0.00173224
0.00069571
0.0017251
0.000703206
0.00171708
0.000711342
0.00170918
0.000719258
0.00170016
0.000726445
0.0016889
0.000733587
0.00167716
0.000741107
0.00166514
0.000749034
0.00165338
0.000757196
0.00164223
0.000765155
0.00163007
0.000773093
0.00161855
0.000779996
0.00160482
0.000788422
0.00159099
0.000796727
0.00157761
0.000803957
0.00156323
0.000810233
0.00154806
0.00081626
0.00153353
0.000822373
0.00151894
0.000828054
0.00150383
0.000833379
0.00148811
0.00083821
0.00147271
0.0008416
0.00145728
0.000841068
0.00143947
0.000843593
0.00142601
0.000843334
0.00141215
0.000839356
0.00139655
0.000841121
0.00138408
0.000836961
0.00134043
0.000852967
0.00125088
0.000906084
0.00116577
0.000981098
0.00109149
0.00102627
0.00104939
0.00104109
0.00101956
0.00105516
0.000991689
0.00106297
0.000965631
0.00106086
0.000945903
0.00104657
0.000925884
0.00102347
0.000906548
0.00101147
0.000888227
0.000995874
0.000873628
0.000996242
0.000865687
0.000984317
0.000867725
0.00101248
0.000876936
0.00101536
0.000887516
0.0011251
0.000893997
0.00295573
0.00295364
0.00139708
0.00294721
0.00142583
0.00293446
0.00145607
0.00291569
0.00148671
0.00289103
0.00151774
0.00286066
0.00154914
0.00282485
0.00158086
0.00278375
0.00161282
0.00273777
0.00164497
0.00268719
0.00167728
0.00263239
0.00170962
0.00257379
0.00174189
0.00251176
0.00177405
0.00244672
0.00180599
0.00237903
0.00183768
0.00230915
0.00186894
0.00223748
0.00189965
0.00216444
0.00192975
0.00209037
0.00195921
0.00201568
0.00198801
0.00194065
0.00201616
0.00186565
0.00204331
0.00179097
0.00206946
0.00171687
0.00209459
0.00164368
0.00211875
0.00157158
0.00214186
0.00150077
0.00216398
0.00143145
0.00218508
0.00136373
0.0022052
0.00129769
0.00222416
0.0012335
0.00224195
0.00117124
0.00225866
0.00111098
0.00227428
0.00105276
0.00228884
0.000996576
0.00230238
0.000942479
0.00231491
0.000890513
0.00232665
0.00084064
0.00233762
0.000792937
0.00234802
0.00074698
0.0023578
0.000703323
0.00236813
0.000661171
0.00237809
0.000617792
0.00238747
0.000589904
0.00239035
0.000701217
0.00169596
0.000740311
0.00163539
0.000757516
0.00166486
0.00076027
0.00168348
0.000756639
0.00170119
0.000750537
0.00171185
0.000748607
0.00173728
0.000745773
0.00175042
0.000737785
0.00175146
0.00073288
0.00176312
0.000725221
0.00176867
0.000722022
0.00179101
0.000715544
0.00179448
0.000705509
0.00178789
0.000704058
0.00180148
0.00070252
0.00180697
0.000698923
0.00182024
0.000696681
0.00182763
0.000695362
0.00183368
0.000691996
0.00183673
0.000690335
0.00183704
0.000688552
0.00184111
0.000686257
0.00183852
0.00068303
0.00183398
0.000682187
0.00183382
0.000680816
0.0018301
0.000679967
0.00182423
0.000685134
0.00181832
0.000693427
0.0018119
0.000701268
0.00180355
0.000709127
0.00179415
0.000717725
0.00178502
0.000725946
0.00177443
0.000733264
0.00176218
0.000741683
0.00174867
0.000749563
0.00173545
0.00075788
0.00172266
0.000766675
0.00170963
0.000774116
0.00169535
0.000782039
0.00168322
0.000789022
0.00166677
0.000796653
0.00165245
0.000804695
0.00163796
0.000810479
0.00161957
0.000816286
0.00160203
0.000821701
0.00158547
0.000826683
0.00156769
0.000831174
0.00154972
0.000835175
0.00153166
0.000839341
0.00151241
0.000840979
0.00149482
0.000839599
0.00147354
0.000841065
0.00145343
0.000838325
0.00143222
0.00082868
0.00139553
0.000818651
0.00133558
0.00083486
0.00125536
0.000893863
0.00116231
0.000959823
0.00108257
0.00102198
0.00105076
0.0010567
0.00102794
0.00107422
0.00100823
0.00108592
0.000987468
0.00108701
0.000969008
0.00107862
0.000953006
0.0010636
0.000934616
0.00103772
0.000915333
0.00102556
0.000896538
0.00101002
0.000881336
0.00101041
0.000871697
0.00100015
0.000872548
0.00102753
0.000881189
0.00103112
0.000891528
0.00114172
0.000898171
0.00297399
0.00297213
0.00142306
0.00296592
0.00145482
0.00295337
0.00148807
0.00293485
0.00152167
0.0029104
0.00155567
0.00288021
0.00159001
0.0028445
0.00162463
0.00280353
0.00165948
0.00275762
0.0016945
0.00270706
0.00172962
0.00265223
0.00176474
0.00259353
0.00179976
0.00253137
0.00183463
0.00246614
0.00186925
0.00239822
0.00190354
0.00232804
0.00193739
0.00225602
0.00197061
0.00218258
0.00200315
0.00210809
0.00203497
0.00203296
0.00206604
0.00195743
0.00209654
0.0018819
0.00212589
0.00180666
0.00215419
0.00173199
0.00218137
0.00165816
0.00220748
0.00158544
0.00223248
0.00151399
0.00225636
0.00144403
0.00227918
0.00137575
0.00230091
0.0013091
0.00232171
0.00124427
0.00234118
0.00118138
0.00235946
0.0011205
0.00237656
0.00106168
0.00239259
0.00100494
0.00240766
0.000950359
0.00242177
0.000897915
0.00243499
0.000847652
0.00244764
0.000799359
0.00245985
0.000753067
0.00247142
0.0007095
0.00248282
0.000666988
0.00249698
0.000631682
0.00250377
0.000717224
0.00250627
0.000808243
0.00209845
0.00080028
0.00186437
0.000787582
0.00183576
0.000796935
0.00183656