/*--------------------------------*- C++ -*----------------------------------*\
| =========                 |                                                 |
| \\      /  F ield         | OpenFOAM: The Open Source CFD Toolbox           |
|  \\    /   O peration     | Version:  2.2.x                                 |
|   \\  /    A nd           | Web:      www.OpenFOAM.org                      |
|    \\/     M anipulation  |                                                 |
\*---------------------------------------------------------------------------*/
FoamFile
{
    version     2.0;
    format      ascii;
    class       surfaceScalarField;
    location    "0.95";
    object      phi;
}
// * * * * * * * * * * * * * * * * * * * * * * * * * * * * * * * * * * * * * //

dimensions      [1 0 -1 0 0 0 0];

internalField   nonuniform List<scalar> 
28084
(
0.00174119
0.00173364
0.00172716
0.00172171
0.00171724
0.0017137
0.00171103
0.00170917
0.00170807
0.00170766
0.00170788
0.00170867
0.00170996
0.00171169
0.0017138
0.00171622
0.0017189
0.00172179
0.00172482
0.00172796
0.00173114
0.00173433
0.00173749
0.00174057
0.00174355
0.00174639
0.00174907
0.00175155
0.00175382
0.00175585
0.00175764
0.00175915
0.00176039
0.00176133
0.00176197
0.00176229
0.00176229
0.00176197
0.00176131
0.00176031
0.00175896
0.00175724
0.00175498
0.0017517
0.00174143
0.00175467
0.00176582
0.0017739
0.00177987
0.00178793
0.00179802
0.0018081
0.00181746
0.00182466
0.0018284
0.00183091
0.00183718
0.00184575
0.00185246
0.00185637
0.00185665
0.00185121
0.00184572
0.00184577
0.00184687
0.00184528
0.00183827
0.00182553
0.00180835
0.00179545
0.00178754
0.00177742
0.00176241
0.00174177
0.00171311
0.0016872
0.00166773
0.00164732
0.00162298
0.00159368
0.00155582
0.00152103
0.00149354
0.00146563
0.00143391
0.00139738
0.00135446
0.00131658
0.00128438
0.00125148
0.00121563
0.00117434
0.00113248
0.00109775
0.00106497
0.00103075
0.000993497
0.000951986
0.000914696
0.000881202
0.000847465
0.000811579
0.000771974
0.0007336
0.000697231
0.000660462
0.000620958
0.000577353
0.000535141
0.000495273
0.000454306
0.000409377
0.000364023
0.000317094
0.000267052
0.000210662
0.000146411
7.7473e-05
8.66109e-06
7.54863e-06
0.00174939
6.47668e-06
0.00174716
5.44921e-06
0.00174594
4.47006e-06
0.00174568
3.54277e-06
0.00174633
2.67052e-06
0.00174786
1.85605e-06
0.0017502
1.10164e-06
0.0017533
4.09011e-07
0.00175709
-2.20687e-07
0.00176151
-7.86861e-07
0.00176649
-1.2895e-06
0.00177197
-1.72913e-06
0.00177786
-2.10681e-06
0.00178412
-2.42407e-06
0.00179066
-2.68288e-06
0.00179743
-2.88556e-06
0.00180435
-3.03476e-06
0.00181137
-3.13337e-06
0.00181842
-3.18447e-06
0.00182546
-3.19125e-06
0.00183243
-3.15699e-06
0.00183929
-3.08497e-06
0.00184598
-2.97845e-06
0.00185247
-2.84059e-06
0.00185872
-2.67445e-06
0.0018647
-2.48295e-06
0.00187039
-2.26884e-06
0.00187574
-2.03466e-06
0.00188075
-1.78276e-06
0.00188539
-1.5153e-06
0.00188965
-1.23418e-06
0.0018935
-9.41099e-07
0.00189695
-6.37555e-07
0.00189998
-3.24805e-07
0.00190257
-3.92174e-09
0.00190474
3.24238e-07
0.00190646
6.58999e-07
0.00190773
9.99889e-07
0.00190855
1.34688e-06
0.00190892
1.70368e-06
0.00190884
2.12947e-06
0.00190827
2.53183e-06
0.00190703
8.49155e-06
0.00190422
-1.47708e-05
0.00189073
-9.5912e-06
0.00189865
-8.45981e-06
0.00190652
-8.39825e-06
0.001912
-8.40846e-06
0.00191556
-8.33939e-06
0.00192142
-8.16896e-06
0.00192921
-7.89353e-06
0.00193684
-7.51016e-06
0.00194357
-6.98026e-06
0.00194799
-6.36105e-06
0.00194857
-5.59463e-06
0.0019483
-4.67686e-06
0.0019521
-3.69591e-06
0.00195796
-2.64873e-06
0.00196182
-1.52595e-06
0.00196268
-3.11655e-07
0.0019599
9.71983e-07
0.00195106
2.32777e-06
0.00194262
3.8165e-06
0.00194025
5.37383e-06
0.00193862
6.99863e-06
0.00193422
8.65361e-06
0.00192416
1.02765e-05
0.00190807
1.1907e-05
0.00188777
1.36331e-05
0.00187234
1.54096e-05
0.00186197
1.71938e-05
0.00184925
1.89788e-05
0.00183139
2.0694e-05
0.00180767
2.23095e-05
0.00177589
2.38879e-05
0.00174742
2.54415e-05
0.00172575
2.69487e-05
0.00170312
2.83759e-05
0.00167642
2.96674e-05
0.00164454
3.08386e-05
0.00160391
3.19221e-05
0.0015666
3.28917e-05
0.00153691
3.38143e-05
0.00150693
3.46936e-05
0.0014732
3.55094e-05
0.00143462
3.62745e-05
0.00138954
3.68142e-05
0.00134949
3.70215e-05
0.00131535
3.69821e-05
0.00128062
3.67638e-05
0.00124295
3.65942e-05
0.00119996
3.65546e-05
0.00115621
3.64711e-05
0.00111949
3.63424e-05
0.00108483
3.62007e-05
0.00104889
3.61218e-05
0.00101006
3.60734e-05
0.000967228
3.61326e-05
0.000928918
3.61938e-05
0.000894355
3.62558e-05
0.000859469
3.65564e-05
0.000822604
3.69553e-05
0.00078198
3.75947e-05
0.00074353
3.86228e-05
0.000707578
3.98591e-05
0.000671188
4.09643e-05
0.000632371
4.15674e-05
0.000589357
4.19201e-05
0.000547507
4.21668e-05
0.000507843
4.29299e-05
0.000466937
4.48787e-05
0.000422346
4.76079e-05
0.000376414
5.12551e-05
0.000328975
5.59335e-05
0.000278403
6.21104e-05
0.000220909
6.8827e-05
0.000154596
7.82685e-05
8.21119e-05
1.19281e-05
9.77838e-06
0.00176035
7.7027e-06
0.00176337
5.71085e-06
0.00176733
3.81222e-06
0.00177219
2.01555e-06
0.00177791
3.28676e-07
0.00178445
-1.24153e-06
0.00179175
-2.68939e-06
0.00179974
-4.01043e-06
0.00180837
-5.20151e-06
0.00181756
-6.26081e-06
0.00182725
-7.1878e-06
0.00183736
-7.98325e-06
0.00184782
-8.6491e-06
0.00185855
-9.1884e-06
0.00186948
-9.60519e-06
0.00188053
-9.90436e-06
0.00189165
-1.00915e-05
0.00190276
-1.01728e-05
0.00191379
-1.01549e-05
0.0019247
-1.00447e-05
0.00193541
-9.84932e-06
0.00194589
-9.57582e-06
0.00195608
-9.2313e-06
0.00196594
-8.82267e-06
0.00197543
-8.35657e-06
0.00198452
-7.83937e-06
0.00199318
-7.27704e-06
0.00200138
-6.67513e-06
0.00200909
-6.03876e-06
0.00201631
-5.37258e-06
0.00202301
-4.68076e-06
0.00202919
-3.96698e-06
0.00203482
-3.23445e-06
0.00203991
-2.4859e-06
0.00204444
-1.72362e-06
0.00204842
-9.49448e-07
0.00205184
-1.64812e-07
0.00205469
6.29297e-07
0.00205698
1.4329e-06
0.0020587
2.255e-06
0.00205986
3.22777e-06
0.00206044
4.53652e-06
0.00206028
2.00557e-05
0.00205822
-2.43534e-05
0.00204512
-1.5874e-05
0.00205027
-1.4465e-05
0.00205535
-1.45088e-05
0.00205795
-1.44719e-05
0.00205891
-1.42095e-05
0.00206239
-1.3779e-05
0.00206776
-1.31659e-05
0.00207284
-1.23599e-05
0.00207683
-1.1245e-05
0.00207846
-9.93622e-06
0.00207597
-8.35378e-06
0.00207308
-6.50434e-06
0.00207451
-4.52692e-06
0.00207764
-2.40775e-06
0.00207868
-1.34596e-07
0.00207643
2.32e-06
0.00207058
4.88479e-06
0.00205842
7.65342e-06
0.0020472
1.06183e-05
0.00204243
1.36759e-05
0.00203801
1.68592e-05
0.00203078
2.01367e-05
0.00201761
2.33835e-05
0.00199816
2.666e-05
0.00197484
3.01181e-05
0.001957
3.36419e-05
0.00194416
3.71632e-05
0.00192876
4.06639e-05
0.00190794
4.40455e-05
0.00188106
4.72461e-05
0.0018462
5.03998e-05
0.00181522
5.34839e-05
0.0017913
5.64207e-05
0.00176631
5.91728e-05
0.00173706
6.16525e-05
0.00170243
6.39164e-05
0.00165895
6.60566e-05
0.00161906
6.80489e-05
0.00158704
6.99124e-05
0.00155481
7.16295e-05
0.00151885
7.31359e-05
0.00147796
7.44616e-05
0.00143053
7.54238e-05
0.00138817
7.58527e-05
0.0013519
7.5864e-05
0.00131509
7.55228e-05
0.00127534
7.51519e-05
0.00123039
7.49323e-05
0.00118449
7.46725e-05
0.00114545
7.43563e-05
0.00110857
7.40304e-05
0.00107058
7.37547e-05
0.00102989
7.35701e-05
0.000985502
7.34927e-05
0.000946002
7.3394e-05
0.00091024
7.33265e-05
0.000874095
7.35042e-05
0.00083621
7.41309e-05
0.000794541
7.53463e-05
0.000755768
7.70325e-05
0.000719742
7.89714e-05
0.000683268
8.09537e-05
0.000644481
8.26015e-05
0.000601628
8.37825e-05
0.000560586
8.44981e-05
0.000521168
8.60124e-05
0.000480378
8.96753e-05
0.00043592
9.54555e-05
0.000388511
0.000103172
0.000339312
0.00011325
0.000286736
0.000126571
0.000227819
0.000140958
0.000160182
0.000161167
8.45064e-05
9.87125e-06
6.75719e-06
0.00177405
3.74382e-06
0.00178225
8.48654e-07
0.00179132
-1.91163e-06
0.00180123
-4.52152e-06
0.00181195
-6.96697e-06
0.00182343
-9.23574e-06
0.00183562
-1.13175e-05
0.00184844
-1.32041e-05
0.00186184
-1.48895e-05
0.00187575
-1.63702e-05
0.00189008
-1.76445e-05
0.00190477
-1.87131e-05
0.00191973
-1.95789e-05
0.00193488
-2.02462e-05
0.00195014
-2.07213e-05
0.00196544
-2.1012e-05
0.00198069
-2.11271e-05
0.00199584
-2.10764e-05
0.00201081
-2.08707e-05
0.00202552
-2.05211e-05
0.00203994
-2.00389e-05
0.00205399
-1.94358e-05
0.00206764
-1.87232e-05
0.00208082
-1.79122e-05
0.00209351
-1.70137e-05
0.00210567
-1.60379e-05
0.00211726
-1.49946e-05
0.00212827
-1.38928e-05
0.00213866
-1.27407e-05
0.00214842
-1.15459e-05
0.00215754
-1.03151e-05
0.002166
-9.05429e-06
0.00217379
-7.76862e-06
0.00218091
-6.46247e-06
0.00218736
-5.13952e-06
0.00219313
-3.80269e-06
0.00219822
-2.45425e-06
0.00220263
-1.09577e-06
0.00220637
2.72594e-07
0.00220943
1.66248e-06
0.00221182
3.24305e-06
0.00221352
5.76388e-06
0.00221443
3.10656e-05
0.00221375
-3.13651e-05
0.00220419
-1.93799e-05
0.00221001
-1.7753e-05
0.00221416
-1.80203e-05
0.0022146
-1.79869e-05
0.00221308
-1.75275e-05
0.00221416
-1.68072e-05
0.00221698
-1.58148e-05
0.00221939
-1.44928e-05
0.00222047
-1.28065e-05
0.00221922
-1.07741e-05
0.00221357
-8.35407e-06
0.0022081
-5.54654e-06
0.00220727
-2.53148e-06
0.00220775
6.82293e-07
0.00220612
4.1452e-06
0.00220073
7.8779e-06
0.00219171
1.17414e-05
0.00217635
1.58984e-05
0.00216255
2.03311e-05
0.00215562
2.48854e-05
0.00214852
2.95984e-05
0.00213837
3.44779e-05
0.00212201
3.9335e-05
0.00209909
4.42559e-05
0.00207302
4.94288e-05
0.00205316
5.46973e-05
0.00203794
5.993e-05
0.00201985
6.51119e-05
0.001996
7.01011e-05
0.00196589
7.48694e-05
0.00192814
7.95873e-05
0.00189488
8.41844e-05
0.0018687
8.85071e-05
0.00184128
9.25157e-05
0.00180936
9.60995e-05
0.00177182
9.93917e-05
0.00172557
0.000102609
0.00168329
0.00010567
0.00164893
0.00010847
0.00161425
0.000110954
0.00157582
0.000112998
0.00153235
0.00011472
0.00148249
0.000116057
0.00143785
0.000116818
0.00139919
0.000116951
0.00135998
0.000116523
0.00131783
0.000115898
0.00127058
0.000115421
0.00122229
0.000114931
0.00118064
0.000114366
0.00114118
0.000113773
0.00110073
0.000113161
0.00105775
0.000112637
0.00101147
0.000112167
0.000970411
0.000111644
0.000933114
0.00011121
0.000895491
0.00011118
0.000856285
0.000111953
0.000813575
0.000113556
0.000774346
0.000115541
0.000738037
0.000117797
0.00070136
0.000120313
0.000662313
0.000122997
0.000619522
0.000125328
0.000578538
0.000127076
0.000538447
0.000129865
0.000496452
0.000135502
0.000450334
0.000144407
0.000401415
0.000156658
0.000350401
0.000172575
0.00029577
0.000193214
0.000235394
0.000215867
0.000166406
0.000245971
8.83963e-05
2.56937e-06
-1.43874e-06
0.00179051
-5.32607e-06
0.0018038
-9.06565e-06
0.0018179
-1.26318e-05
0.00183278
-1.60005e-05
0.00184842
-1.91502e-05
0.00186477
-2.2062e-05
0.00188176
-2.47196e-05
0.00189935
-2.71103e-05
0.00191745
-2.92245e-05
0.001936
-3.1056e-05
0.00195492
-3.26019e-05
0.00197411
-3.38625e-05
0.00199351
-3.48411e-05
0.00201301
-3.55437e-05
0.00203254
-3.59789e-05
0.00205202
-3.61575e-05
0.00207136
-3.60918e-05
0.00209048
-3.5796e-05
0.00210932
-3.52851e-05
0.0021278
-3.4575e-05
0.00214586
-3.3682e-05
0.00216344
-3.26226e-05
0.00218049
-3.14132e-05
0.00219695
-3.00698e-05
0.0022128
-2.8608e-05
0.00222798
-2.70424e-05
0.00224247
-2.53869e-05
0.00225623
-2.36545e-05
0.00226926
-2.18571e-05
0.00228153
-2.00053e-05
0.00229303
-1.81089e-05
0.00230374
-1.61762e-05
0.00231366
-1.42148e-05
0.00232278
-1.22307e-05
0.00233111
-1.02293e-05
0.00233865
-8.21463e-06
0.00234539
-6.18987e-06
0.00235133
-4.15724e-06
0.00235649
-2.11746e-06
0.00236087
-6.05623e-08
0.00236447
2.18103e-06
0.00236728
5.57778e-06
0.00236921
3.83194e-05
0.00236949
-3.90708e-05
0.00236073
-2.20761e-05
0.00236525
-1.90089e-05
0.00236723
-1.90008e-05
0.0023654
-1.88372e-05
0.00236184
-1.82195e-05
0.00236103
-1.72027e-05
0.00236183
-1.57536e-05
0.00236214
-1.38876e-05
0.00236071
-1.15637e-05
0.00235692
-8.84232e-06
0.00234823
-5.60116e-06
0.00234076
-1.86247e-06
0.00233817
2.18197e-06
0.00233643
6.5781e-06
0.00233259
1.1294e-05
0.00232441
1.63247e-05
0.00231229
2.1459e-05
0.00229385
2.69378e-05
0.00227822
3.28247e-05
0.00226983
3.89024e-05
0.00226059
4.51852e-05
0.00224771
5.16538e-05
0.00222857
5.80357e-05
0.00220204
6.46035e-05
0.00217373
7.14868e-05
0.00215258
7.84591e-05
0.00213552
8.54203e-05
0.0021152
9.22604e-05
0.00208872
9.87863e-05
0.00205533
0.0001051
0.00201506
0.00011139
0.00198024
0.000117507
0.00195234
0.000123235
0.00192282
0.000128455
0.00188844
0.00013309
0.00184813
0.000137375
0.00179935
0.000141638
0.00175514
0.000145805
0.00171866
0.000149583
0.00168167
0.00015278
0.00164078
0.000155297
0.00159483
0.000157322
0.00154277
0.000159012
0.00149616
0.000160143
0.001455
0.000160486
0.00141317
0.000160056
0.00136845
0.000159195
0.00131879
0.000158405
0.00126821
0.000157645
0.00122393
0.000156723
0.00118163
0.000155708
0.00113835
0.00015459
0.00109269
0.000153518
0.00104427
0.000152467
0.00100138
0.000151304
0.000962113
0.000150258
0.000922562
0.000149851
0.000881493
0.000150526
0.000837507
0.00015223
0.000797283
0.000154181
0.000759691
0.000156517
0.000721766
0.000159584
0.000681235
0.000163448
0.000637305
0.000167327
0.000595052
0.00017105
0.000553301
0.000175654
0.00050912
0.000183199
0.000460391
0.000194953
0.000408703
0.000211724
0.000355124
0.000233432
0.000298224
0.000261624
0.000235364
0.000293158
0.000163944
0.00033459
8.3387e-05
-9.88994e-06
-1.47245e-05
0.00180973
-1.94246e-05
0.00182801
-2.3952e-05
0.00184705
-2.82702e-05
0.00186682
-3.23454e-05
0.00188729
-3.61469e-05
0.00190842
-3.96477e-05
0.00193014
-4.28248e-05
0.00195241
-4.56597e-05
0.00197514
-4.81385e-05
0.00199825
-5.02519e-05
0.00202167
-5.19951e-05
0.0020453
-5.33677e-05
0.00206906
-5.43735e-05
0.00209285
-5.50202e-05
0.00211658
-5.53186e-05
0.00214017
-5.52829e-05
0.00216352
-5.49294e-05
0.00218656
-5.42767e-05
0.00220921
-5.33447e-05
0.00223139
-5.21548e-05
0.00225303
-5.07285e-05
0.00227408
-4.90879e-05
0.00229448
-4.72549e-05
0.00231417
-4.52509e-05
0.00233311
-4.30966e-05
0.00235126
-4.08116e-05
0.00236859
-3.84147e-05
0.00238508
-3.59229e-05
0.0024007
-3.33522e-05
0.00241543
-3.0717e-05
0.00242927
-2.80299e-05
0.00244219
-2.53025e-05
0.00245421
-2.25444e-05
0.0024653
-1.97639e-05
0.00247548
-1.69679e-05
0.00248475
-1.41618e-05
0.00249311
-1.13498e-05
0.00250057
-8.53488e-06
0.00250713
-5.71823e-06
0.0025128
-2.89201e-06
0.00251759
9.9303e-08
0.00252149
4.39425e-06
0.00252442
4.45417e-05
0.00252518
-4.54387e-05
0.00251592
-2.27106e-05
0.00251695
-1.82268e-05
0.002516
-1.7878e-05
0.00251084
-1.74726e-05
0.0025045
-1.66429e-05
0.00250123
-1.53175e-05
0.00249907
-1.34477e-05
0.00249626
-1.10395e-05
0.00249099
-8.00024e-06
0.00248292
-4.53958e-06
0.00247065
-4.60233e-07
0.00246069
4.23523e-06
0.00245562
9.33985e-06
0.0024503
1.49167e-05
0.00244268
2.08607e-05
0.00243033
2.71464e-05
0.00241353
3.3579e-05
0.00239195
4.04944e-05
0.00237478
4.78084e-05
0.00236401
5.53466e-05
0.00235149
6.31261e-05
0.00233462
7.11508e-05
0.00231195
7.91253e-05
0.00228127
8.731e-05
0.00225107
9.59495e-05
0.00222875
0.000104589
0.00220887
0.00011316
0.00218575
0.000121552
0.00215589
0.000129617
0.00211859
0.000137496
0.00207646
0.000145479
0.0020409
0.000153212
0.00201105
0.000160328
0.00197893
0.000166644
0.00194139
0.000172309
0.00189751
0.000177628
0.00184703
0.000183
0.00180253
0.000188344
0.00176481
0.000193151
0.00172597
0.000196992
0.00168268
0.00019989
0.0016337
0.00020222
0.0015804
0.000204225
0.00153426
0.000205842
0.00149287
0.000206536
0.00145006
0.000206242
0.00140386
0.000205192
0.00135201
0.000204101
0.00130049
0.000203014
0.00125556
0.00020173
0.00121235
0.000200154
0.00116784
0.000198332
0.00112037
0.000196519
0.00107031
0.000194684
0.00102588
0.000192707
0.000984675
0.000190955
0.000943137
0.000190009
0.000899709
0.000190517
0.000853475
0.000192121
0.00081103
0.000193978
0.000770826
0.000196461
0.000730318
0.00020023
0.00068734
0.000205342
0.000641964
0.000210987
0.000598962
0.000216955
0.000555975
0.000223897
0.00051024
0.000233796
0.000460577
0.000248313
0.000408411
0.000269127
0.000354185
0.000296392
0.000296835
0.000332109
0.000232906
0.000373227
0.000160586
0.000418428
8.15079e-05
-2.74098e-05
-3.30063e-05
0.00183173
-3.84606e-05
0.00185491
-4.37216e-05
0.00187878
-4.87404e-05
0.00190333
-5.34718e-05
0.00192854
-5.78744e-05
0.00195435
-6.19121e-05
0.00198072
-6.55539e-05
0.00200758
-6.87748e-05
0.00203484
-7.15556e-05
0.00206244
-7.38833e-05
0.00209027
-7.57509e-05
0.00211826
-7.71572e-05
0.00214629
-7.81063e-05
0.00217429
-7.86072e-05
0.00220214
-7.86736e-05
0.00222976
-7.83231e-05
0.00225706
-7.75763e-05
0.00228394
-7.64567e-05
0.00231033
-7.49898e-05
0.00233614
-7.32024e-05
0.0023613
-7.11222e-05
0.00238575
-6.87774e-05
0.00240943
-6.61959e-05
0.00243229
-6.3405e-05
0.00245427
-6.04311e-05
0.00247534
-5.72994e-05
0.00249547
-5.40336e-05
0.00251462
-5.06558e-05
0.00253278
-4.7186e-05
0.00254993
-4.36428e-05
0.00256606
-4.00423e-05
0.00258116
-3.6399e-05
0.00259522
-3.27253e-05
0.00260825
-2.90318e-05
0.00262025
-2.5327e-05
0.00263121
-2.1618e-05
0.00264116
-1.79098e-05
0.0026501
-1.42062e-05
0.00265803
-1.0509e-05
0.00266497
-6.81192e-06
0.00267093
-2.98935e-06
0.0026759
2.70045e-06
0.00267983
5.1145e-05
0.00268121
-4.84949e-05
0.00267178
-2.04215e-05
0.00266948
-1.45951e-05
0.00266519
-1.38658e-05
0.00265657
-1.30628e-05
0.00264769
-1.19146e-05
0.00264247
-1.02351e-05
0.00263774
-7.89353e-06
0.00263224
-4.85304e-06
0.00262385
-1.1154e-06
0.00261193
3.19646e-06
0.00259705
8.23898e-06
0.00258559
1.39108e-05
0.00257857
2.00284e-05
0.00257041
2.66424e-05
0.00255955
3.37233e-05
0.00254382
4.1166e-05
0.00252276
4.88351e-05
0.0024986
5.71831e-05
0.00248029
6.59645e-05
0.00246687
7.49782e-05
0.00245078
8.4203e-05
0.00242978
9.35391e-05
0.00240332
0.000103009
0.00236902
0.000112775
0.00233677
0.000123095
0.00231299
0.000133444
0.00228959
0.000143625
0.00226297
0.000153379
0.00222922
0.000162853
0.00218734
0.000172274
0.00214318
0.000181821
0.00210625
0.000191128
0.0020733
0.000199691
0.00203751
0.000207153
0.00199611
0.000213566
0.0019473
0.000219888
0.00189445
0.000226367
0.00184886
0.000232617
0.00180871
0.000238107
0.00176677
0.000242487
0.00172027
0.000245667
0.00166694
0.0002484
0.00161222
0.000250844
0.00156603
0.000252711
0.00152299
0.000253568
0.00147818
0.000253245
0.00142997
0.000251902
0.00137535
0.000250706
0.00132329
0.000249606
0.00127783
0.000248165
0.00123343
0.000246207
0.00118719
0.000243677
0.00113741
0.000241094
0.00108586
0.000238563
0.00104042
0.000236039
0.000997595
0.000233861
0.000954216
0.000232688
0.000908651
0.000232959
0.00086113
0.000234157
0.000817798
0.000235751
0.000776433
0.000238409
0.000734523
0.000242648
0.000689836
0.000248829
0.000643997
0.000255831
0.00060065
0.000263558
0.000556859
0.000272699
0.000509734
0.000285173
0.000458805
0.00030284
0.00040588
0.000327674
0.000350896
0.000359911
0.000292891
0.000402697
0.000227597
0.000452315
0.000154782
0.000500275
7.77122e-05
-4.98839e-05
-5.61806e-05
0.00185652
-6.23335e-05
0.00188448
-6.82765e-05
0.00191308
-7.39469e-05
0.00194231
-7.92862e-05
0.00197215
-8.42414e-05
0.00200255
-8.87658e-05
0.00203345
-9.28193e-05
0.0020648
-9.63695e-05
0.0020965
-9.93914e-05
0.00212848
-0.000101868
0.00216065
-0.000103789
0.00219289
-0.000105152
0.00222512
-0.000105962
0.00225723
-0.000106229
0.00228913
-0.00010597
0.0023207
-0.000105206
0.00235185
-0.000103962
0.0023825
-0.000102267
0.00241254
-0.000100153
0.00244191
-9.76531e-05
0.00247052
-9.48006e-05
0.0024983
-9.16307e-05
0.00252519
-8.81779e-05
0.00255114
-8.4476e-05
0.0025761
-8.05577e-05
0.00260003
-7.64541e-05
0.00262289
-7.21944e-05
0.00264465
-6.7806e-05
0.0026653
-6.33138e-05
0.00268481
-5.87403e-05
0.00270319
-5.41058e-05
0.00272041
-4.94279e-05
0.00273648
-4.47221e-05
0.0027514
-4.00011e-05
0.00276517
-3.52757e-05
0.00277781
-3.05542e-05
0.00278931
-2.5843e-05
0.00279969
-2.11464e-05
0.00280897
-1.6467e-05
0.00281715
-1.18011e-05
0.00282425
-7.08063e-06
0.00283027
3.8354e-07
0.00283518
5.78454e-05
0.00283739
-4.8407e-05
0.00282981
-1.48367e-05
0.00282615
-8.02604e-06
0.00281998
-7.08086e-06
0.00280862
-6.07345e-06
0.00279771
-4.66881e-06
0.00279066
-2.58623e-06
0.00278367
3.25649e-07
0.00277537
3.98104e-06
0.00276391
8.4193e-06
0.00274825
1.35307e-05
0.00273114
1.95455e-05
0.00271856
2.62578e-05
0.00270946
3.34386e-05
0.00269836
4.13006e-05
0.00268415
4.95779e-05
0.00266499
5.82083e-05
0.00264001
6.71599e-05
0.00261394
7.69591e-05
0.00259519
8.71791e-05
0.00257929
9.76652e-05
0.00256014
0.000108401
0.00253475
0.000119122
0.00250366
0.000129988
0.00246636
0.000141323
0.00243303
0.000153282
0.00240786
0.000165283
0.00238149
0.000177132
0.00235028
0.000188575
0.0023126
0.000199372
0.0022654
0.000210203
0.00222002
0.000221305
0.00218265
0.00023205
0.00214635
0.000242039
0.00210706
0.000250968
0.00206135
0.00025819
0.00200694
0.000265153
0.001952
0.000272371
0.00190555
0.000279373
0.00186213
0.000285563
0.00181619
0.000290261
0.00176587
0.000293546
0.0017074
0.000296671
0.0016507
0.000299392
0.00160295
0.000301319
0.00155696
0.00030209
0.00150878
0.000301421
0.00145704
0.000299982
0.00139932
0.000298855
0.00134651
0.000297803
0.0012998
0.000296149
0.00125327
0.000293755
0.00120455
0.000290368
0.00115158
0.000287079
0.00109881
0.000284015
0.00105264
0.000281148
0.00100845
0.000278718
0.000963103
0.000276913
0.000915001
0.00027655
0.000866144
0.000277216
0.000821887
0.000278572
0.000779271
0.000281417
0.000736
0.000286208
0.000689486
0.000293339
0.00064318
0.00030146
0.000599218
0.000310828
0.000554602
0.000322183
0.000506257
0.00033755
0.000454273
0.000358528
0.000400542
0.000387383
0.000344819
0.000424513
0.000286202
0.000473746
0.000220293
0.00052937
0.000148243
0.000578247
7.39434e-05
-7.71956e-05
-8.41346e-05
0.00188413
-9.09334e-05
0.00191674
-9.75096e-05
0.00194995
-0.000103785
0.00198374
-0.000109686
0.0020181
-0.000115148
0.00205297
-0.00012011
0.00208831
-0.000124525
0.00212404
-0.000128349
0.00216007
-0.000131553
0.00219634
-0.000134114
0.00223272
-0.000136019
0.00226913
-0.000137264
0.00230545
-0.000137854
0.00234159
-0.000137801
0.00237742
-0.000137125
0.00241285
-0.00013585
0.00244777
-0.000134008
0.00248209
-0.000131633
0.00251571
-0.000128762
0.00254855
-0.000125435
0.00258052
-0.000121694
0.00261156
-0.000117581
0.00264159
-0.000113136
0.00267056
-0.000108402
0.00269843
-0.000103417
0.00272514
-9.82185e-05
0.00275066
-9.28425e-05
0.00277498
-8.73216e-05
0.00279805
-8.16859e-05
0.00281987
-7.59627e-05
0.00284044
-7.01761e-05
0.00285973
-6.43475e-05
0.00287776
-5.84954e-05
0.00289453
-5.26351e-05
0.00291003
-4.67794e-05
0.00292429
-4.09385e-05
0.00293731
-3.51197e-05
0.00294911
-2.93283e-05
0.0029597
-2.35674e-05
0.00296909
-1.78374e-05
0.0029773
-1.21555e-05
0.00298434
-2.77547e-06
0.00299019
6.26348e-05
0.00299324
-4.71475e-05
0.0029875
-7.54666e-06
0.00298232
7.15199e-07
0.00297383
2.07224e-06
0.00295958
3.37634e-06
0.00294678
5.07527e-06
0.00293798
7.61099e-06
0.00292883
1.10914e-05
0.00291735
1.54675e-05
0.00290288
2.05202e-05
0.00288257
2.64836e-05
0.00286375
3.34335e-05
0.00285083
4.11236e-05
0.00283963
4.95809e-05
0.00282605
5.86898e-05
0.0028078
6.82069e-05
0.00278534
7.78759e-05
0.00275563
8.82017e-05
0.00272912
9.94564e-05
0.00271148
0.000111151
0.00269348
0.000123334
0.00267169
0.000135696
0.00264247
0.00014766
0.00260568
0.000159958
0.00256588
0.000172937
0.00253411
0.000186501
0.00250885
0.000200152
0.00248053
0.000213788
0.0024456
0.000226832
0.00240359
0.000239143
0.00235243
0.000251314
0.00230674
0.000263962
0.00227023
0.000276141
0.00223255
0.000287409
0.00219009
0.0002978
0.00214085
0.000306116
0.00208091
0.000313842
0.00202397
0.000321892
0.00197689
0.000329455
0.00193047
0.000336231
0.00188064
0.000341046
0.00182612
0.000344653
0.00176212
0.000348004
0.00170259
0.000350798
0.00165209
0.000352559
0.00160221
0.000353036
0.00154949
0.000352056
0.00149247
0.000350664
0.00143144
0.000349495
0.00137731
0.000348195
0.00132819
0.000345978
0.00127841
0.000342736
0.00122681
0.000338566
0.00116996
0.000334797
0.00111616
0.000331321
0.00106879
0.000328018
0.00102256
0.000325027
0.000974937
0.000322506
0.000923946
0.000321478
0.000873969
0.000321613
0.00082879
0.000322709
0.000784718
0.000325543
0.000739867
0.00033084
0.000691424
0.000338705
0.000644118
0.000347852
0.00059892
0.000358839
0.000552957
0.000372498
0.000502956
0.000390849
0.000449475
0.000415177
0.000394247
0.000447773
0.000337193
0.000489708
0.00027746
0.000544362
0.000211789
0.000603579
0.000142042
0.000652546
7.07409e-05
-0.000109218
-0.000116745
0.00191458
-0.00012414
0.00195171
-0.000131304
0.0019894
-0.00013814
0.00202763
-0.00014456
0.00206637
-0.000150483
0.0021056
-0.000155838
0.00214525
-0.000160564
0.00218524
-0.000164611
0.0022255
-0.000167939
0.00226593
-0.000170522
0.00230643
-0.000172343
0.00234689
-0.000173396
0.0023872
-0.000173688
0.00242725
-0.000173231
0.00246692
-0.000172048
0.00250611
-0.000170169
0.0025447
-0.000167629
0.0025826
-0.000164469
0.0026197
-0.000160733
0.00265592
-0.00015647
0.00269116
-0.000151727
0.00272536
-0.000146554
0.00275845
-0.000141
0.00279037
-0.000135114
0.00282106
-0.000128943
0.00285048
-0.00012253
0.0028786
-0.000115918
0.00290539
-0.000109146
0.00293083
-0.000102248
0.0029549
-9.52584e-05
0.00297759
-8.82046e-05
0.00299891
-8.11119e-05
0.00301884
-7.40021e-05
0.0030374
-6.68934e-05
0.00305459
-5.98007e-05
0.00307043
-5.27358e-05
0.00308493
-4.57076e-05
0.0030981
-3.87219e-05
0.00310997
-3.17827e-05
0.00312054
-2.48943e-05
0.00312984
-1.81667e-05
0.00313787
-6.79094e-06
0.00314461
6.55189e-05
0.0031484
-4.45893e-05
0.00314377
1.81927e-06
0.00313665
1.17419e-05
0.00312523
1.36283e-05
0.00310795
1.53422e-05
0.00309328
1.73811e-05
0.00308222
2.03977e-05
0.00307022
2.44335e-05
0.00305502
2.94066e-05
0.00303601
3.51942e-05
0.0030125
4.20874e-05
0.00299238
4.99656e-05
0.00297847
5.86465e-05
0.00296427
6.82231e-05
0.0029474
7.83985e-05
0.00292499
8.89192e-05
0.00289711
9.98393e-05
0.00286455
0.000111791
0.00283854
0.00012444
0.00281965
0.000137588
0.00279828
0.000151196
0.00277176
0.000164939
0.0027385
0.000178271
0.00269568
0.000192232
0.00265409
0.000207007
0.00262209
0.00022212
0.00259315
0.000237348
0.00256078
0.000252433
0.00252092
0.000266773
0.00247265
0.000280786
0.00241885
0.000294924
0.00237274
0.00030917
0.00233423
0.00032288
0.00229373
0.000335511
0.00224768
0.000346737
0.00219472
0.00035649
0.00213185
0.000365864
0.00207457
0.00037494
0.00202661
0.000383281
0.00197844
0.000390339
0.00192632
0.000395407
0.00186865
0.000399554
0.00180267
0.000403319
0.00174293
0.000406137
0.00169156
0.0004076
0.00164013
0.00040751
0.00158546
0.000406121
0.00152525
0.000404672
0.0014627
0.000403222
0.00140815
0.000401248
0.00135715
0.000398218
0.00130507
0.000393857
0.0012505
0.00038916
0.00119125
0.000384905
0.00113746
0.00038088
0.00108896
0.000376774
0.00104055
0.000372835
0.000990538
0.000369586
0.000936872
0.000367968
0.000885919
0.000367584
0.000839279
0.000368314
0.000793127
0.000370982
0.000745712
0.000376741
0.000694681
0.000385369
0.000645169
0.000395652
0.000597538
0.000408441
0.00054891
0.000424475
0.000496295
0.000445686
0.000440895
0.00047304
0.000384746
0.000509036
0.000327689
0.000555023
0.000268258
0.000612887
0.000204564
0.000674812
0.000137647
0.00072357
6.88493e-05
-0.000145815
-0.000153878
0.0019479
-0.000161824
0.00198942
-0.000169532
0.00203144
-0.000176888
0.00207396
-0.000183786
0.00211697
-0.000190129
0.00216041
-0.000195832
0.00220424
-0.000200823
0.00224837
-0.00020504
0.00229273
-0.000208438
0.0023372
-0.000210982
0.00238169
-0.000212654
0.00242609
-0.000213445
0.00247027
-0.000213362
0.00251412
-0.000212419
0.00255752
-0.000210642
0.00260036
-0.000208065
0.00264251
-0.00020473
0.00268388
-0.000200684
0.00272436
-0.00019598
0.00276386
-0.000190671
0.00280228
-0.000184815
0.00283956
-0.000178469
0.00287561
-0.000171692
0.00291038
-0.000164538
0.00294382
-0.000157064
0.00297587
-0.00014932
0.00300651
-0.000141355
0.0030357
-0.000133215
0.00306343
-0.000124942
0.00308968
-0.000116571
0.00311444
-0.000108138
0.00313771
-9.96711e-05
0.00315949
-9.11953e-05
0.00317979
-8.2732e-05
0.00319862
-7.42985e-05
0.00321599
-6.59083e-05
0.00323192
-5.75715e-05
0.00324643
-4.92951e-05
0.00325953
-4.10833e-05
0.00327125
-3.29437e-05
0.0032816
-2.50772e-05
0.00329059
-1.15611e-05
0.00329821
6.72507e-05
0.0033028
-4.02894e-05
0.00329978
1.35709e-05
0.00329048
2.53812e-05
0.00327583
2.80106e-05
0.00325552
3.01076e-05
0.00323936
3.25015e-05
0.00322592
3.59323e-05
0.00321074
4.06133e-05
0.00319193
4.62567e-05
0.0031676
5.29287e-05
0.00314203
6.07097e-05
0.00312143
6.95061e-05
0.0031061
7.89895e-05
0.00308924
8.9404e-05
0.0030687
0.000100701
0.00304261
0.000112525
0.0030089
0.000125143
0.00297476
0.00013862
0.00294887
0.000152578
0.00292746
0.000167047
0.00290259
0.000181874
0.00287091
0.000197092
0.00283241
0.000212411
0.00278575
0.000228347
0.00274376
0.000244908
0.00271145
0.000261352
0.00267892
0.000277781
0.00264269
0.000293969
0.00259887
0.000309642
0.00254505
0.000325599
0.00249051
0.000341705
0.00244488
0.000357508
0.00240412
0.000372222
0.00236017
0.000385701
0.00231
0.000397755
0.00225179
0.000408988
0.00218809
0.000419939
0.00213181
0.000430238
0.00208217
0.000439096
0.00203115
0.000446229
0.00197552
0.000451506
0.00191339
0.000456047
0.00184632
0.000460091
0.00178683
0.000463051
0.00173335
0.000464437
0.00167901
0.000463922
0.00162147
0.000462215
0.00155753
0.000460626
0.00149424
0.000458796
0.00143915
0.000456135
0.00138638
0.000452297
0.0013323
0.000447172
0.00127474
0.000441908
0.00121458
0.000437102
0.0011615
0.000432339
0.00111176
0.000427366
0.00106168
0.000422392
0.00100906
0.000418566
0.000952918
0.000416499
0.000900225
0.000415593
0.000850858
0.000415954
0.000801615
0.000418666
0.000750137
0.000424961
0.000695367
0.000434477
0.000643336
0.000446128
0.000593115
0.000460723
0.000541986
0.000478648
0.000488204
0.000501668
0.000432963
0.000530765
0.00037774
0.000569468
0.000321767
0.000618554
0.00026269
0.000679328
0.000200186
0.000743614
0.000134941
0.000792361
6.78991e-05
-0.000186837
-0.00019539
0.00198413
-0.000203844
0.00202987
-0.000212057
0.00207607
-0.000219894
0.00212275
-0.000227231
0.00216987
-0.000233956