/*--------------------------------*- C++ -*----------------------------------*\
| =========                 |                                                 |
| \\      /  F ield         | OpenFOAM: The Open Source CFD Toolbox           |
|  \\    /   O peration     | Version:  2.2.x                                 |
|   \\  /    A nd           | Web:      www.OpenFOAM.org                      |
|    \\/     M anipulation  |                                                 |
\*---------------------------------------------------------------------------*/
FoamFile
{
    version     2.0;
    format      ascii;
    class       volScalarField;
    location    "0.95";
    object      T;
}
// * * * * * * * * * * * * * * * * * * * * * * * * * * * * * * * * * * * * * //

dimensions      [0 0 0 1 0 0 0];

internalField   nonuniform List<scalar> 
14161
(
1
1
1
1
1
1
1
1
1
1
1
1
1
1
1
1
1
1
1
1
1
1
1
1
1
1
1
1
1
1
1
1
1
1
1
1
1
1
1
1.00001
1.00013
1.00233
1.05187
2.07618
7.84267
11.182
12.1699
12.3708
12.4193
12.4394
12.4574
12.4777
12.4967
12.5134
12.5283
12.54
12.5506
12.5673
12.5886
12.6076
12.6241
12.6387
12.6486
12.6581
12.6755
12.6976
12.715
12.7294
12.7396
12.7445
12.7545
12.7732
12.7917
12.8067
12.8184
12.8228
12.8322
12.8503
12.8717
12.8891
12.9027
12.9081
12.9181
12.9356
12.9548
12.9701
12.981
12.9853
12.9962
13.0144
13.0326
13.0468
13.0545
13.0617
13.0759
13.0937
13.1086
13.1191
13.1254
13.1367
13.1522
13.167
13.1785
13.1874
13.2002
13.2167
13.2328
13.2451
13.253
13.2621
13.269
13.2721
13.2726
13.2781
13.2868
13.2941
13.2992
13.3034
13.3084
1
1
1
1
1
1
1
1
1
1
1
1
1
1
1
1
1
1
1
1
1
1
1
1
1
1
1
1
1
1
1
1
1
1
1
1
1
1
1
1.00001
1.00012
1.00231
1.05149
2.07194
7.83617
11.1833
12.1771
12.3789
12.4274
12.4475
12.4656
12.4856
12.5042
12.5207
12.5354
12.5468
12.5575
12.5747
12.5959
12.6146
12.6308
12.6452
12.6549
12.6646
12.6824
12.7044
12.7216
12.7357
12.7456
12.7506
12.7607
12.7797
12.7981
12.813
12.8245
12.8285
12.838
12.8563
12.8777
12.8951
12.9085
12.9137
12.9235
12.9408
12.96
12.9754
12.9862
12.9906
13.0011
13.0189
13.0367
13.0507
13.0586
13.0659
13.0799
13.0974
13.1118
13.122
13.1283
13.1396
13.1549
13.1689
13.1797
13.1877
13.2003
13.2168
13.2324
13.244
13.2514
13.2599
13.2667
13.2704
13.2711
13.2759
13.2845
13.2927
13.2985
13.3026
13.3069
1
1
1
1
1
1
1
1
1
1
1
1
1
1
1
1
1
1
1
1
1
1
1
1
1
1
1
1
1
1
1
1
1
1
1
1
1
1
1
1.00001
1.00012
1.00224
1.04977
2.0437
7.79746
11.1721
12.1747
12.3777
12.4264
12.4469
12.4656
12.4855
12.5039
12.5202
12.5348
12.546
12.5572
12.5748
12.5958
12.6143
12.6303
12.6446
12.6541
12.6642
12.6825
12.7044
12.7214
12.7354
12.745
12.7502
12.7606
12.7799
12.7982
12.8131
12.8244
12.8285
12.8381
12.8566
12.8781
12.8955
12.9088
12.914
12.9238
12.9411
12.9604
12.9759
12.9868
12.9913
13.0017
13.0192
13.0368
13.0507
13.059
13.0665
13.0805
13.0978
13.1121
13.1222
13.1287
13.1402
13.1552
13.1688
13.1788
13.1861
13.1987
13.2153
13.2305
13.2414
13.2485
13.2566
13.2631
13.267
13.2688
13.2727
13.2803
13.2888
13.2949
13.2987
13.3011
1
1
1
1
1
1
1
1
1
1
1
1
1
1
1
1
1
1
1
1
1
1
1
1
1
1
1
1
1
1
1
1
1
1
1
1
1
1
1
1.00001
1.00012
1.00212
1.04689
1.99565
7.7326
11.1507
12.164
12.3684
12.4172
12.4385
12.4579
12.4778
12.4962
12.5126
12.5273
12.5386
12.5505
12.5688
12.5898
12.6078
12.6238
12.638
12.6473
12.6581
12.6771
12.6987
12.7154
12.7293
12.7385
12.7441
12.7552
12.7749
12.7929
12.8077
12.8188
12.8231
12.833
12.8519
12.8732
12.8906
12.9039
12.9093
12.9193
12.9368
12.9562
12.9717
12.9827
12.9876
12.9982
13.0156
13.0331
13.047
13.0558
13.0638
13.0779
13.0951
13.1094
13.1194
13.1262
13.1379
13.1527
13.1657
13.1753
13.1824
13.1952
13.2118
13.2266
13.2369
13.244
13.2517
13.2576
13.2613
13.2641
13.2685
13.276
13.2846
13.2909
13.2948
13.297
1
1
1
1
1
1
1
1
1
1
1
1
1
1
1
1
1
1
1
1
1
1
1
1
1
1
1
1
1
1
1
1
1
1
1
1
1
1
1
1.00001
1.00011
1.00199
1.04375
1.9428
7.65928
11.13
12.1576
12.3642
12.413
12.4344
12.4541
12.4738
12.4919
12.5082
12.5226
12.5338
12.5463
12.5653
12.586
12.6037
12.6197
12.6334
12.642
12.6538
12.6738
12.6951
12.7116
12.7252
12.7334
12.7391
12.7515
12.7718
12.7893
12.8037
12.8142
12.8186
12.8288
12.8483
12.8692
12.8864
12.8994
12.9046
12.9148
12.9321
12.951
12.9662
12.9768
12.9818
12.9923
13.0093
13.0262
13.0398
13.0487
13.0574
13.0715
13.0885
13.1028
13.1131
13.1204
13.1324
13.1469
13.1596
13.1689
13.1764
13.1898
13.2063
13.2207
13.2308
13.2383
13.2457
13.2513
13.2551
13.2585
13.2639
13.2718
13.2799
13.285
13.2874
13.2876
1
1
1
1
1
1
1
1
1
1
1
1
1
1
1
1
1
1
1
1
1
1
1
1
1
1
1
1
1
1
1
1
1
1
1
1
1
1
1
1.00001
1.0001
1.00184
1.04023
1.88136
7.56782
11.1066
12.1543
12.3639
12.4132
12.4357
12.4564
12.4759
12.494
12.51
12.5238
12.5352
12.5492
12.5691
12.5892
12.6064
12.6218
12.6347
12.6434
12.656
12.6767
12.6968
12.7126
12.7255
12.7328
12.7391
12.7528
12.7727
12.7889
12.8023
12.8116
12.8168
12.8277
12.8475
12.8669
12.8828
12.8947
12.9006
12.9119
12.9301
12.9482
12.9625
12.9719
12.9772
12.9883
13.0059
13.0221
13.0349
13.0425
13.0512
13.0661
13.0835
13.098
13.108
13.1156
13.1276
13.142
13.1546
13.1638
13.1718
13.1854
13.2014
13.2149
13.2244
13.2322
13.2395
13.2448
13.2485
13.2521
13.2581
13.2664
13.274
13.2777
13.2785
13.2783
1
1
1
1
1
1
1
1
1
1
1
1
1
1
1
1
1
1
1
1
1
1
1
1
1
1
1
1
1
1
1
1
1
1
1
1
1
1
1
1.00001
1.00009
1.00167
1.03592
1.80304
7.44315
11.0734
12.1482
12.3626
12.4129
12.4361
12.4571
12.4764
12.494
12.5097
12.5225
12.5336
12.5487
12.5691
12.5885
12.605
12.6198
12.6316
12.6405
12.6548
12.6764
12.6955
12.711
12.7235
12.7298
12.7375
12.7533
12.7732
12.7888
12.8016
12.8099
12.8161
12.8291
12.8501
12.8688
12.8842
12.8949
12.9018
12.9148
12.935
12.9527
12.9663
12.9741
12.9803
12.9925
13.0096
13.0241
13.0353
13.0411
13.0499
13.0653
13.0823
13.0961
13.105
13.1125
13.1248
13.139
13.1512
13.1598
13.1682
13.1819
13.1972
13.2099
13.2183
13.2263
13.2334
13.2383
13.2417
13.2452
13.2518
13.2603
13.2668
13.269
13.2682
13.2669
1
1
1
1
1
1
1
1
1
1
1
1
1
1
1
1
1
1
1
1
1
1
1
1
1
1
1
1
1
1
1
1
1
1
1
1
1
1
1
1
1.00008
1.00145
1.03078
1.70584
7.27496
11.027
12.136
12.3563
12.4073
12.4315
12.4528
12.4718
12.4887
12.5039
12.5161
12.5275
12.5442
12.5649
12.5832
12.599
12.6132
12.6237
12.6331
12.65
12.6718
12.6895
12.7042
12.7159
12.7218
12.7317
12.7496
12.7689
12.784
12.7963
12.8025
12.8102
12.826
12.8477
12.8656
12.8805
12.8895
12.8977
12.9131
12.9346
12.9525
12.9659
12.9728
12.9805
12.9946
13.012
13.0262
13.0363
13.0411
13.0511
13.067
13.083
13.0959
13.1035
13.1114
13.124
13.1376
13.149
13.1566
13.1652
13.179
13.1938
13.2054
13.2127
13.2204
13.2269
13.2316
13.235
13.2383
13.2449
13.2525
13.2574
13.2584
13.2568
13.254
1
1
1
1
1
1
1
1
1
1
1
1
1
1
1
1
1
1
1
1
1
1
1
1
1
1
1
1
1
1
1
1
1
1
1
1
1
1
1
1
1.00007
1.00122
1.02525
1.5959
7.06386
10.9695
12.1215
12.3493
12.4019
12.4275
12.4489
12.4677
12.4839
12.4984
12.5096
12.5217
12.5402
12.5606
12.5777
12.5929
12.6062
12.6142
12.625
12.644
12.6652
12.6816
12.6954
12.7048
12.7107
12.722
12.7422
12.7604
12.775
12.786
12.7895
12.7986
12.8166
12.838
12.8554
12.8697
12.8762
12.8862
12.9035
12.9249
12.9428
12.9572
12.9631
12.9729
12.989
13.007
13.0217
13.0316
13.0379
13.0495
13.0666
13.0823
13.0941
13.1006
13.1096
13.1226
13.1356
13.1461
13.1528
13.162
13.1761
13.1904
13.2011
13.2074
13.2141
13.2199
13.2245
13.228
13.2313
13.2373
13.2436
13.2463
13.2458
13.2442
13.2398
1
1
1
1
1
1
1
1
1
1
1
1
1
1
1
1
1
1
1
1
1
1
1
1
1
1
1
1
1
1
1
1
1
1
1
1
1
1
1
1
1.00006
1.00098
1.01957
1.47639
6.80407
10.8996
12.1047
12.342
12.3973
12.4245
12.4463
12.4647
12.4807
12.494
12.505
12.5187
12.5384
12.558
12.5746
12.5893
12.6011
12.6089
12.6208
12.6416
12.6616
12.6777
12.6914
12.6986
12.7053
12.7192
12.7405
12.7581
12.7725
12.7819
12.7862
12.7955
12.8144
12.8345
12.8513
12.8641
12.8691
12.8795
12.8977
12.919
12.937
12.9505
12.9563
12.967
12.9843
13.0022
13.0165
13.0257
13.0334
13.0472
13.0648
13.0796
13.0898
13.0953
13.105
13.1185
13.1311
13.1407
13.147
13.1575
13.1724
13.1866
13.1968
13.2025
13.2079
13.2127
13.217
13.2204
13.2236
13.2286
13.233
13.2336
13.2319
13.2302
13.2244
1
1
1
1
1
1
1
1
1
1
1
1
1
1
1
1
1
1
1
1
1
1
1
1
1
1
1
1
1
1
1
1
1
1
1
1
1
1
1
1
1.00004
1.00073
1.01383
1.3481
6.48076
10.8122
12.0834
12.3336
12.3923
12.4214
12.4436
12.4613
12.4766
12.4886
12.4995
12.5152
12.5359
12.5551
12.5711
12.5851
12.5949
12.6028
12.6176
12.6395
12.6582
12.6741
12.6866
12.6921
12.7006
12.7177
12.7393
12.7561
12.7698
12.7777
12.7834
12.795
12.8153
12.8332
12.848
12.8582
12.864
12.8748
12.8945
12.9144
12.9306
12.942
12.949
12.9608
12.9791
12.9963
13.0102
13.0187
13.0278
13.0433
13.0608
13.0745
13.0831
13.0887
13.0986
13.1118
13.1236
13.1323
13.1388
13.1509
13.1669
13.1813
13.1912
13.1963
13.2008
13.2047
13.2083
13.2113
13.2143
13.2181
13.2206
13.2199
13.217
13.2145
13.208
1
1
1
1
1
1
1
1
1
1
1
1
1
1
1
1
1
1
1
1
1
1
1
1
1
1
1
1
1
1
1
1
1
1
1
1
1
1
1
1
1.00003
1.00049
1.00831
1.21586
6.07987
10.7025
12.0556
12.322
12.3851
12.4158
12.4373
12.454
12.4689
12.4804
12.4918
12.5103
12.5309
12.5479
12.5629
12.5767
12.5859
12.5959
12.6141
12.6344
12.6505
12.6649
12.676
12.6826
12.6944
12.714
12.7324
12.7475
12.7603
12.7669
12.7753
12.7908
12.8099
12.8248
12.8372
12.8447
12.852
12.8661
12.8862
12.9035
12.918
12.9274
12.9361
12.9509
12.9696
12.9859
12.9991
13.0066
13.0176
13.0343
13.051
13.0639
13.0711
13.0778
13.0885
13.1011
13.1121
13.1204
13.1282
13.1417
13.1587
13.1734
13.1831
13.1886
13.1926
13.1958
13.1984
13.2007
13.2036
13.2066
13.207
13.2054
13.2006
13.1972
13.1897
1
1
1
1
1
1
1
1
1
1
1
1
1
1
1
1
1
1
1
1
1
1
1
1
1
1
1
1
1
1
1
1
1
1
1
1
1
1
1
1
1.00002
1.00026
1.00331
1.08879
5.59062
10.5672
12.0208
12.3076
12.3769
12.4087
12.4285
12.4439
12.4564
12.468
12.4839
12.5041
12.522
12.5371
12.5506
12.561
12.5703
12.5862
12.6072
12.6237
12.6383
12.6498
12.6574
12.6675
12.686
12.7057
12.7217
12.7353
12.7435
12.7512
12.7647
12.7838
12.8005
12.8144
12.8235
12.8284
12.8385
12.8568
12.8762
12.8925
12.9047
12.9106
12.922
12.9394
12.9578
12.9733
12.9847
12.9915
13.0038
13.0215
13.0379
13.0506
13.0573
13.0656
13.0779
13.0908
13.1014
13.1094
13.1185
13.1334
13.1502
13.1639
13.1726
13.179
13.1832
13.1864
13.1878
13.1891
13.1918
13.1938
13.1927
13.1897
13.1826
13.1784
13.1702
1
1
1
1
1
1
1
1
1
1
1
1
1
1
1
1
1
1
1
1
1
1
1
1
1
1
1
1
1
1
1
1
1
1
1
1
1
1
1
1
1.00001
1.00005
0.998968
0.977116
5.00255
10.4013
11.9773
12.2923
12.3712
12.4037
12.4216
12.4348
12.4471
12.463
12.4839
12.5029
12.5186
12.5321
12.542
12.5501
12.5648
12.5862
12.6042
12.6192
12.6308
12.6374
12.6459
12.6628
12.6843
12.7015
12.7152
12.7256
12.7325
12.7435
12.7623
12.7812
12.7955
12.8064
12.811
12.8179
12.8321
12.8518
12.8682
12.8818
12.89
12.8977
12.9117
12.9308
12.9477
12.9613
12.9692
12.9774
12.9916
13.01
13.026
13.038
13.0444
13.0541
13.0673
13.0801
13.0902
13.0975
13.1087
13.1248
13.1408
13.1532
13.1611
13.1681
13.1726
13.1756
13.176
13.1769
13.1787
13.1791
13.1768
13.1722
13.1636
13.1584
13.1479
1
1
1
1
1
1
1
1
1
1
1
1
1
1
1
1
1
1
1
1
1
1
1
1
1
1
1
1
1
1
1
1
1
1
1
1
1
1
1
1
1.00002
1.00002
0.99681
0.894026
4.29938
10.2001
11.9292
12.2825
12.3717
12.4043
12.4184
12.4278
12.4403
12.4602
12.4803
12.4959
12.5099
12.5209
12.5259
12.5356
12.5561
12.5776
12.5935
12.6071
12.6128
12.6181
12.6303
12.6542
12.6754
12.6931
12.7056
12.7092
12.7177
12.7353
12.7594
12.778
12.7914
12.7946
12.799
12.8097
12.8303
12.8491
12.8636
12.8727
12.8788
12.8904
12.9095
12.9281
12.9426
12.9518
12.9568
12.9683
12.986
13.0032
13.0169
13.0255
13.0332
13.0451
13.0588
13.0704
13.0785
13.0858
13.0992
13.1158
13.1302
13.1405
13.1486
13.1556
13.1606
13.1632
13.1629
13.1634
13.1645
13.1629
13.1594
13.1532
13.143
13.1368
13.1238
1
1
1
1
1
1
1
1
1
1
1
1
1
1
1
1
1
1
1
1
1
1
1
1
1
1
1
1
1
1
1
1
1
1
1
1
1
1
1
1.00002
1.00033
1.00392
1.01893
0.820789
3.43444
9.94602
11.874
12.2706
12.3677
12.3943
12.4035
12.4099
12.4233
12.4445
12.4623
12.4765
12.4885
12.4968
12.5012
12.5128
12.5364
12.5565
12.5723
12.5854
12.5878
12.5941
12.6099
12.6373
12.6589
12.6768
12.687
12.6892
12.7001
12.7217
12.7459
12.7646
12.7772
12.7767
12.7828
12.7981
12.8215
12.8407
12.8559
12.8607
12.8691
12.8847
12.9069
12.9254
12.9383
12.9425
12.9501
12.9645
12.9833
12.9989
13.0095
13.0143
13.0245
13.0386
13.0516
13.0611
13.0658
13.0747
13.0895
13.1053
13.1181
13.1262
13.1346
13.1417
13.1466
13.1484
13.1476
13.1481
13.1483
13.1448
13.14
13.1324
13.1207
13.1135
13.0991
1
1
1
1
1
1
1
1
1
1
1
1
1
1
1
1
1
1
1
1
1
1
1
1
1
1
1
1
1
1
1
1
1
1
1
1
1
1
1
1.00001
1.00013
1.00201
0.987937
0.730761
2.36551
9.62755
11.8034
12.2456
12.3436
12.3667
12.3742
12.3817
12.3954
12.4131
12.4299
12.4447
12.4578
12.4666
12.474
12.4871
12.5076
12.5263
12.5421
12.5556
12.5617
12.5698
12.585
12.6085
12.6299
12.6482
12.6605
12.6664
12.6788
12.6996
12.7212
12.7397
12.7524
12.7535
12.7634
12.7832
12.8057
12.8249
12.8392
12.8438
12.856
12.8764
12.8995
12.918
12.9294
12.9343
12.9441
12.9617
12.98
12.9939
13.0004
13.0065
13.018
13.0323
13.0438
13.0499
13.0534
13.0636
13.0791
13.0934
13.1037
13.1112
13.1194
13.1268
13.1309
13.132
13.1316
13.1322
13.1307
13.1252
13.119
13.1103
13.0973
13.0888
13.0725
1
1
1
1
1
1
1
1
1
1
1
1
1
1
1
1
1
1
1
1
1
1
1
1
1
1
1
1
1
1
1
1
1
1
1
1
1
1
1
1.00006
1.00088
1.00461
0.990401
0.788815
1.24925
9.34929
11.6573
12.1949
12.3019
12.3327
12.3508
12.3661
12.3801
12.3931
12.4056
12.4199
12.4379
12.4548
12.469
12.4813
12.4909
12.5005
12.5156
12.5332
12.5472
12.5597
12.5713
12.5814
12.5956
12.6122
12.6285
12.6437
12.6597
12.6775
12.6933
12.7077
12.7203
12.7269
12.7393
12.7588
12.7795
12.7979
12.8117
12.8198
12.8367
12.861
12.8838
12.9025
12.9127
12.921
12.9347
12.9548
12.9726
12.9846
12.9887
12.9976
13.0112
13.025
13.0341
13.0368
13.0419
13.0533
13.0677
13.0796
13.0878
13.096
13.1044
13.1112
13.1147
13.1146
13.1148
13.1149
13.1116
13.1039
13.0966
13.0864
13.0722
13.0628
13.0455
1
1
1
1
1
1
1
1
1
1
1
1
1
1
1
1
1
1
1
1
1
1
1
1
1
1
1
1
1
1
1
1
1
1
1
1
1
1
1
1.00003
1.00051
1.00249
0.990334
0.858674
1.17003
8.96203
11.4303
12.1163
12.2602
12.3051
12.3315
12.3503
12.3653
12.3794
12.3951
12.4133
12.4311
12.4459
12.4588
12.4683
12.4763
12.4892
12.5065
12.5219
12.5347
12.5452
12.5525
12.5611
12.5759
12.5942
12.6102
12.6249
12.637
12.6482
12.6623
12.678
12.6922
12.7057
12.7195
12.7333
12.748
12.7633
12.7773
12.7915
12.8122
12.8366
12.8596
12.8786
12.8886
12.9016
12.9202
12.9407
12.9576
12.9682
12.9754
12.9871
13.0028
13.0156
13.0224
13.0241
13.0311
13.0432
13.0556
13.065
13.0713
13.0801
13.0888
13.0951
13.0968
13.0966
13.0973
13.0957
13.091
13.0812
13.0726
13.0608
13.0456
13.0356
13.0162
1
1
1
1
1
1
1
1
1
1
1
1
1
1
1
1
1
1
1
1
1
1
1
1
1
1
1
1
1
1
1
1
1
1
1
1
1
1
1
1
1.00001
1.00009
1.00063
1.01332
1.44765
8.24357
11.2192
12.0856
12.2643
12.3195
12.3481
12.3643
12.3763
12.3882
12.406
12.426
12.4419
12.4552
12.466
12.4728
12.481
12.4964
12.514
12.5274
12.5387
12.5467
12.5518
12.5611
12.5774
12.5948
12.6092
12.6205
12.6264
12.633
12.6468
12.6639
12.6766
12.6873
12.6956
12.7036
12.7152
12.7306
12.7489
12.7688
12.7889
12.8078
12.8265
12.8431
12.8582
12.8766
12.8981
12.9187
12.9362
12.9462
12.9578
12.9739
12.9905
13.0026
13.0075
13.0112
13.0194
13.0312
13.0411
13.0483
13.0549
13.0636
13.0723
13.0775
13.0777
13.078
13.0785
13.0744
13.0686
13.058
13.0476
13.0336
13.0173
13.0064
12.9858
1
1
1
1
1
1
1
1
1
1
1
1
1
1
1
1
1
1
1
1
1
1
1
1
1
1
1
1
1
1
1
1
1
1
1
1
1
1
1
1
1
1.00004
1.0005
1.0087
1.29499
7.08651
10.9438
12.0405
12.2572
12.3179
12.3425
12.3542
12.3633
12.3761
12.3946
12.4127
12.4272
12.4395
12.4488
12.4556
12.4666
12.485
12.5023
12.5159
12.5276
12.535
12.5424
12.5569
12.5765
12.5923
12.6057
12.6154
12.6212
12.6303
12.6465
12.6621
12.6736
12.6803
12.6806
12.6843
12.6972
12.7141
12.7296
12.7446
12.7589
12.7729
12.7886
12.8069
12.8282
12.8507
12.8714
12.8899
12.9051
12.9187
12.9353
12.9554
12.9725
12.9846
12.9898
12.9967
13.0063
13.0168
13.0247
13.0301
13.0376
13.0469
13.055
13.0577
13.0581
13.0583
13.0575
13.0512
13.0446
13.0337
13.0215
13.0043
12.9869
12.9752
12.9534
1
1
1
1
1
1
1
1
1
1
1
1
1
1
1
1
1
1
1
1
1
1
1
1
1
1
1
1
1
1
1
1
1
1
1
1
1
1
1
0.999999
1
1.00002
1.00024
0.997415
1.00308
5.61559
10.551
11.9434
12.2169
12.2856
12.3082
12.3208
12.3331
12.3502
12.3672
12.3812
12.3942
12.4063
12.4136
12.4225
12.4382
12.4579
12.474
12.4886
12.5003
12.5077
12.5187
12.5372
12.5578
12.5744
12.5889
12.5975
12.6068
12.6213
12.6403
12.6553
12.6665
12.6714
12.6734
12.6803
12.6941
12.7076
12.7183
12.7264
12.7317
12.7435
12.7626
12.7838
12.8037
12.8211
12.8367
12.8511
12.8666
12.8854
12.9077
12.9298
12.9485
12.9598
12.9694
12.9794
12.9905
12.9995
13.0056
13.0108
13.0193
13.0291
13.0358
13.0367
13.0375
13.0371
13.0349
13.0266
13.0193
13.0075
12.9939
12.9731
12.9546
12.942
12.9193
1
1
1
1
1
1
1
1
1
1
1
1
1
1
1
1
1
1
1
1
1
1
1
1
1
1
1
1
1
1
1
1
1
1
1
1
1
1
1
1
1.00004
1.00025
1.00381
1.01445
0.807819
3.78391
10.0439
11.8243
12.1765
12.253
12.2736
12.2864
12.2994
12.3141
12.3282
12.341
12.353
12.3636
12.3724
12.3848
12.4032
12.4201
12.4353
12.45
12.4615
12.4726
12.487
12.507
12.5258
12.5431
12.5582
12.5685
12.5824
12.6018
12.6222
12.6382
12.6504
12.6565
12.6634
12.6755
12.6893
12.6998
12.7072
12.7098
12.7158
12.7304
12.7492
12.7657
12.7797
12.7899
12.7993
12.8133
12.8336
12.8571
12.8801
12.8995
12.9151
12.9288
12.943
12.9577
12.9706
12.9791
12.9837
12.9908
13.0003
13.0095
13.0138
13.0146
13.0158
13.014
13.0108
13.0007
12.9922
12.9789
12.9641
12.9403
12.921
12.9072
12.8826
1
1
1
1
1
1
1
1
1
1
1
1
1
1
1
1
1
1
1
1
1
1
1
1
1
1
1
1
1
1
1
1
1
1
1
1
1
1
1
1
0.999995
0.999892
0.998626
0.986435
0.77959
1.40695
9.42233
11.7061
12.1444
12.2322
12.255
12.2696
12.2814
12.292
12.3023
12.3131
12.3259
12.3386
12.3508
12.3625
12.3733
12.3837
12.395
12.4078
12.422
12.4374
12.4532
12.4689
12.4845
12.4984
12.5117
12.527
12.545
12.567
12.5886
12.6079
12.6215
12.6328
12.6457
12.6623
12.6758
12.6857
12.6913
12.6957
12.706
12.7224
12.7378
12.7493
12.7561
12.7614
12.7727
12.7907
12.8105
12.83
12.847
12.8601
12.8747
12.8921
12.9115
12.9306
12.9454
12.9531
12.9602
12.9691
12.9799
12.9872
12.9899
12.9914
12.9929
12.9891
12.9848
12.9732
12.9631
12.9478
12.9323
12.9058
12.8859
12.8708
12.8436
1
1
1
1
1
1
1
1
1
1
1
1
1
1
1
1
1
1
1
1
1
1
1
1
1
1
1
1
1
1
1
1
1
1
1
1
1
1
1
1
0.999997
0.999891
0.99913
0.992971
0.854511
0.793516
8.78785
11.3549
12.0087
12.1523
12.2023
12.2308
12.2495
12.2634
12.2753
12.2881
12.3025
12.3154
12.3269
12.3372
12.3454
12.3533
12.3647
12.379
12.3934
12.4066
12.4188
12.4295
12.4403
12.4533
12.4702
12.4889
12.5073
12.5259
12.544
12.5604
12.5779
12.5957
12.6166
12.6363
12.652
12.6625
12.6698
12.6797
12.6953
12.7111
12.7235
12.7317
12.7356
12.7439
12.759
12.7755
12.7903
12.8018
12.8092
12.8215
12.8399
12.8616
12.8834
12.9007
12.9117
12.9215
12.933
12.9456
12.9566
12.9613
12.9644
12.9667
12.9679
12.9622
12.9565
12.944
12.932
12.9146
12.8983
12.869
12.8488
12.8325
12.8025
1
1
1
1
1
1
1
1
1
1
1
1
1
1
1
1
1
1
1
1
1
1
1
1
1
1
1
1
1
1
1
1
1
1
1
1
1
1
1
1
1
1
1.00001
1.00015
1.00315
1.2198
7.52422
11.0033
11.9503
12.1488
12.2042
12.2301
12.2446
12.255
12.2656
12.28
12.2957
12.3088
12.3201
12.3303
12.3381
12.3463
12.3594
12.3742
12.3863
12.397
12.4059
12.4111
12.417
12.428
12.443
12.4572
12.472
12.4866
12.4994
12.5144
12.5343
12.5578
12.58
12.6
12.6163
12.6282
12.6413
12.6586
12.6778
12.6937
12.7056
12.7121
12.72
12.7336
12.7491
12.7609
12.7684
12.7714
12.7798
12.7959
12.8157
12.8354
12.8514
12.8614
12.8716
12.8861
12.9024
12.919
12.9285
12.9314
12.9371
12.9398
12.9405
12.9326
12.9256
12.9128
12.8992
12.8793
12.8614
12.8299
12.8095
12.792
12.7592
1
1
1
1
1
1
1
1
1
1
1
1
1
1
1
1
1
1
1
1
1
1
1
1
1
1
1
1
1
1
1
1
1
1
1
1
1
1
1
1
1
1
0.999996
0.999876
0.991748
0.942043
5.48657
10.4441
11.8413
12.1101
12.1732
12.1972
12.2105
12.222
12.2342
12.25
12.2668
12.2808
12.293
12.304
12.3129
12.3233
12.3382
12.3533
12.3661
12.3774
12.3862
12.3926
12.4005
12.4133
12.4267
12.4387
12.45
12.4586
12.4693
12.4829
12.5019
12.5227
12.543
12.5612
12.5741
12.5894
12.6082
12.63
12.6501
12.6674
12.6786
12.6897
12.7044
12.7216
12.735
12.7429
12.7451
12.7494
12.762
12.7788
12.7945
12.8061
12.8123
12.8214
12.836
12.8553
12.874
12.8869
12.8926
12.8987
12.9073
12.9103
12.9097
12.9003
12.8926
12.8793
12.8648
12.8424
12.8221
12.789
12.7682
12.7497
12.714
1
1
1
1
1
1
1
1
1
1
1
1
1
1
1
1
1
1
1
1
1
1
1
1
1
1
1
1
1
1
1
1
1
1
1
1
1
1
1
1
1
1
1.00004
1.00152
0.981524
0.722502
2.50912
9.61494
11.6577
12.0477
12.131
12.1524
12.1649
12.1767
12.1905
12.2057
12.2213
12.2362
12.2494
12.2611
12.272
12.2857
12.3016
12.3155
12.3278
12.3392
12.3481
12.3576
12.3706
12.3842
12.3955
12.4061
12.4156
12.4241
12.4351
12.4513
12.4703
12.4895
12.5077
12.5219
12.5373
12.5548
12.5761
12.597
12.6163
12.6328
12.6457
12.663
12.6843
12.7029
12.7157
12.7217
12.7254
12.7347
12.749
12.7617
12.7692
12.7714
12.777
12.7905
12.8093
12.8274
12.8394
12.8455
12.8537
12.8639
12.8752
12.8775
12.8749
12.8656
12.858
12.8432
12.8283
12.8035
12.7803
12.7466
12.7255
12.706
12.6667
1
1
1
1
1
1
1
1
1
1
1
1
1
1
1
1
1
1
1
1
1
1
1
1
1
1
1
1
1
1
1
1
1
1
1
1
1
1
1
1
1
0.999999
0.999937
0.999973
0.995115
0.868454
0.77616
8.58826
11.2549
11.8863
12.0235
12.0691
12.0939
12.1131
12.1315
12.1505
12.17
12.1887
12.2052
12.22
12.234
12.251
12.2692
12.2843
12.2973
12.3085
12.3174
12.3278
12.3416
12.3544
12.3649
12.3741
12.3812
12.3896
12.4026
12.4196
12.4366
12.4539
12.4704
12.4847
12.5019
12.5218
12.5433
12.5634
12.5815
12.5948
12.6118
12.6335
12.6577
12.677
12.6904
12.6974
12.707
12.7209
12.7331
12.7393
12.7397
12.7413
12.7516
12.7679
12.7837
12.793
12.797
12.8052
12.8186
12.8323
12.8416
12.8394
12.8365
12.8291
12.8214
12.804
12.7896
12.7626
12.7368
12.7027
12.6814
12.6608
12.6178
1
1
1
1
1
1
1
1
1
1
1
1
1
1
1
1
1
1
1
1
1
1
1
1
1
1
1
1
1
1
1
1
1
1
1
1
1
1
1
1
1
1
0.999999
0.99999
1.00002
0.998311
1.09009
6.8113
10.7714
11.7791
11.9883
12.0481
12.0737
12.0896
12.1032
12.1162
12.1298
12.1449
12.1613
12.1783
12.1959
12.2147
12.2337
12.2501
12.2646
12.2776
12.2892
12.3023
12.316
12.3271
12.3361
12.3438
12.3502
12.3591
12.3733
12.3885
12.4032
12.418
12.4323
12.4477
12.4663
12.4878
12.5087
12.5276
12.5424
12.5578
12.5761
12.5997
12.6246
12.6455
12.6586
12.672
12.6878
12.7031
12.7124
12.7149
12.714
12.7195
12.7313
12.7435
12.7504
12.7522
12.7591
12.7728
12.7888
12.798
12.8007
12.7969
12.7976
12.7901
12.7831
12.7622
12.7484
12.7199
12.6919
12.6576
12.6358
12.6142
12.5672
1
1
1
1
1
1
1
1
1
1
1
1
1
1
1
1
1
1
1
1
1
1
1
1
1
1
1
1
1
1
1
1
1
1
1
1
1
1
1
1
1
0.999999
0.999987
0.999927
1.00032
0.992932
0.838162
3.74179
9.91976
11.6312
11.9479
12.0106
12.0295
12.0424
12.0549
12.0676
12.0812
12.096
12.1119
12.129
12.1474
12.1664
12.1853
12.2038
12.2215
12.2382
12.2541
12.2698
12.2854
12.2986
12.3093
12.3178
12.3249
12.3333
12.3452
12.3576
12.3703
12.3838
12.397
12.413
12.4334
12.4548
12.474
12.4907
12.5036
12.5192
12.5384
12.5611
12.585
12.6071
12.623
12.6421
12.6622
12.6783
12.6877
12.6896
12.693
12.7008
12.7092
12.7129
12.7129
12.7173
12.7297
12.745
12.7551
12.7558
12.7564
12.7572
12.7605
12.75
12.7415
12.7182
12.7045
12.6752
12.646
12.6113
12.5887
12.566
12.5155
1
1
1
1
1
1
1
1
1
1
1
1
1
1
1
1
1
1
1
1
1
1
1
1
1
1
1
1
1
1
1
1
1
1
1
1
1
1
1
1
1
1
0.999999
0.999987
0.999739
0.992574
0.857266
0.566974
8.70648
11.3135
11.8492
11.956
11.9853
12.0005
12.0137
12.0272
12.0415
12.0556
12.0692
12.0837
12.0999
12.1171
12.1345
12.1521
12.1697
12.1864
12.2035
12.2213
12.2388
12.2552
12.27
12.2828
12.2937
12.3045
12.3158
12.3269
12.3386
12.3512
12.3645
12.3813
12.4017
12.4222
12.4407
12.4561
12.4693
12.4841
12.5025
12.5227
12.544
12.5648
12.584
12.6073
12.6298
12.6477
12.6582
12.6649
12.6726
12.6799
12.6826
12.6811
12.6811
12.6903
12.7037
12.7125
12.7149
12.7134
12.7181
12.7196
12.723
12.7069
12.6963
12.6733
12.6594
12.6287
12.5985
12.5637
12.5405
12.5168
12.4622
1
1
1
1
1
1
1
1
1
1
1
1
1
1
1
1
1
1
1
1
1
1
1
1
1
1
1
1
1
1
1
1
1
1
1
1
1
1
1
1
1
1
1
1
1.00001
0.999952
0.995796
1.04446
6.90286
10.7665
11.7079
11.8933
11.9462
11.969
11.9839
11.9977
12.0111
12.0226
12.0331
12.0443
12.0557
12.0673
12.0804
12.0951
12.1107
12.1274
12.1454
12.1649
12.1856
12.2063
12.2249
12.2417
12.2562
12.2697
12.2813
12.2919
12.3026
12.3142
12.3284
12.3462
12.3656
12.3854
12.4044
12.4206
12.4354
12.45
12.4668
12.4851
12.5044
12.5238
12.5442
12.5672
12.5909
12.6115
12.6257
12.6381
12.649
12.6549
12.6552
12.6527
12.6556
12.6655
12.6734
12.6751
12.6763
12.6776
12.683
12.6811
12.6795
12.6613
12.6525
12.6269
12.6122
12.5808
12.5498
12.5154
12.4911
12.4664
12.408
1
1
1
1
1
1
1
1
1
1
1
1
1
1
1
1
1
1
1
1
1
1
1
1
1
1
1
1
1
1
1
1
1
1
1
1
1
1
1
1
1
1
1
1.00002
1.00012
1.00143
0.999841
0.836829
3.38147
9.73157
11.4889
11.8277
11.904
11.9312
11.9473
11.9623
11.9765
11.9887
12.0005
12.0125
12.0249
12.0369
12.0494
12.0622
12.0754
12.0902
12.1065
12.1245
12.144
12.1637
12.1828
12.2016
12.2194
12.2356
12.2495
12.2611
12.271
12.2811
12.295
12.3119
12.3298
12.3487
12.3679
12.3846
12.4012
12.417
12.4329
12.4494
12.4668
12.4844
12.5032
12.5244
12.5478
12.5704
12.5898
12.6069
12.6198
12.6269
12.6278
12.628
12.6314
12.6372
12.6395
12.6393
12.6427
12.6444
12.6477
12.6396
12.6331
12.6169
12.609
12.58
12.5634
12.5319
12.5004
12.466
12.4403
12.4146
12.352
1
1
1
1
1
1
1
1
1
1
1
1
1
1
1
1
1
1
1
1
1
1
1
1
1
1
1
1
1
1
1
1
1
1
1
1
1
1
1
1
1
1
1
1
1.00001
1.00002
0.998417
0.948283
0.760741
8.1942
11.0347
11.6839
11.8196
11.8621
11.8825
11.8998
11.9164
11.9329
11.9481
11.9643
11.9801
11.9938
12.0074
12.02
12.0328
12.0469
12.0624
12.0792
12.0971
12.1159
12.1352
12.1555
12.1762
12.1946
12.212
12.2268
12.239
12.2491
12.2612
12.2759
12.2922
12.3103
12.3285
12.3466
12.3652
12.3833
12.3996
12.4152
12.4299
12.4445
12.4618
12.4819
12.5044
12.5281
12.5503
12.5692
12.5845
12.5949
12.6002
12.6034
12.6051
12.6058
12.6062
12.6074
12.6108
12.6094
12.6086
12.5981
12.5903
12.5716
12.5633
12.5327
12.5143
12.4815
12.4494
12.415
12.3886
12.3622
12.2957
1
1
1
1
1
1
1
1
1
1
1
1
1
1
1
1
1
1
1
1
1
1
1
1
1
1
1
1
1
1
1
1
1
1
1
1
1
1
1
1
1
1
1
1
1.00001
0.999979
0.99971
0.991961
0.903776
5.38051
10.3062
11.5115
11.7549
11.8144
11.8335
11.8469
11.8631
11.8786
11.894
11.9112
11.9284
11.9436
11.959
11.973
11.9865
12.0008
12.0164
12.0332
12.0507
12.0688
12.088
12.1088
12.1312
12.1513
12.1705
12.1885
12.2048
12.2179
12.2297
12.2423
12.2559
12.2716
12.2896
12.3088
12.3289
12.3486
12.366
12.3811
12.3931
12.406
12.4217
12.4407
12.4621
12.485
12.5063
12.5256
12.544
12.5592
12.5695
12.5757
12.5759
12.574
12.5751
12.5761
12.578
12.5722
12.5681
12.5574
12.5481
12.5252
12.5152
12.4863
12.4661
12.4298
12.3964
12.362
12.3353
12.3084
12.2375
1
1
1
1
1
1
1
1
1
1
1
1
1
1
1
1
1
1
1
1
1
1
1
1
1
1
1
1
1
1
1
1
1
1
1
1
1
1
1
1
1
1
1
1
0.999995
0.999884
0.998517
0.986466
0.803835
1.15345
8.85159
11.2619
11.6953
11.7741
11.793
11.8052
11.819
11.8309
11.8414
11.8555
11.8718
11.8872
11.9014
11.916
11.9306
11.9459
11.9621
11.979
11.9964
12.0151
12.0355
12.0567
12.0798
12.1023
12.1222
12.143
12.1636
12.1806
12.1957
12.208
12.2191
12.2324
12.2494
12.2687
12.2891
12.3095
12.3284
12.3439
12.3577
12.3701
12.3843
12.4014
12.4204
12.4396
12.4579
12.4796
12.501
12.5197
12.5342
12.5423
12.543
12.5424
12.5445
12.544
12.5426
12.5345
12.5295
12.516
12.5046
12.4772
12.4664
12.4397
12.4168
12.3764
12.3425
12.3084
12.2816
12.2542
12.1798
1
1
1
1
1
1
1
1
1
1
1
1
1
1
1
1
1
1
1
1
1
1
1
1
1
1
1
1
1
1
1
1
1
1
1
1
1
1
1
1
1
1
1
1
1
1.00003
0.999946
0.999627
0.989003
0.889712
6.55667
10.5785
11.5015
11.698
11.7476
11.7675
11.7795
11.7877
11.7927
11.8
11.8097
11.8209
11.8328
11.8459
11.8601
11.8755
11.8924
11.9109
11.931
11.9532
11.976
11.9992
12.0222
12.0452
12.0674
12.091
12.1146
12.1352
12.1538
12.169
12.1821
12.1936
12.2091
12.2276
12.2477
12.2681
12.2872
12.3049
12.3215
12.3351
12.3484
12.3627
12.3775
12.3931
12.4126
12.4349
12.4575
12.4794
12.4946
12.5019
12.5069
12.5094
12.5138
12.5097
12.5057
12.4955
12.4908
12.4745
12.4587
12.429
12.4188
12.3915
12.3657
12.3227
12.2879
12.2528
12.2247
12.1976
12.1188
1
1
1
1
1
1
1
1
1
1
1
1
1
1
1
1
1
1
1
1
1
1
1
1
1
1
1
1
1
1
1
1
1
1
1
1
1
1
1
1
1
1
1
1
1
1.00002
1.00028
1.00327
1.01306
0.840067
2.61823
9.32273
11.2296
11.5973
11.6869
11.7191
11.7356
11.7484
11.7576
11.766
11.7765
11.7873
11.7974
11.8072
11.8176
11.8291
11.8425
11.8585
11.8767
11.8963
11.9165
11.9381
11.9606
11.9837
12.0071
12.032
12.058
12.0818
12.1026
12.1221
12.1389
12.1525
12.1672
12.1846
12.2035
12.2229
12.2427
12.2635
12.283
12.2994
12.3129
12.3236
12.3346
12.3502
12.3695
12.3913
12.4144
12.4354
12.4483
12.4591
12.469
12.4745
12.4798
12.473
12.4681
12.4556
12.4511
12.4318
12.4117
12.3814
12.3705
12.3404
12.313
12.269
12.2335
12.1973
12.1675
12.1414
12.0585
1
1
1
1
1
1
1
1
1
1
1
1
1
1
1
1
1
1
1
1
1
1
1
1
1
1
1
1
1
1
1
1
1
1
1
1
1
1
1
1
1
1
1
1
1
1
0.999984
1.00006
0.999778
0.984211
0.848051
6.86637
10.5839
11.4038
11.5893
11.64
11.6642
11.6851
11.7009
11.7145
11.7272
11.7391
11.7501
11.7609
11.7721
11.7835
11.7958
11.8102
11.8264
11.844
11.8631
11.8836
11.9049
11.9268
11.9498
11.9731
11.9982
12.0229
12.0453
12.0686
12.0896
12.1072
12.1239
12.1403
12.1571
12.1764
12.1975
12.2197
12.2415
12.261
12.2754
12.2853
12.295
12.309
12.3273
12.3487
12.3688
12.3852
12.4
12.4152
12.4288
12.4361
12.4405
12.434
12.4298
12.4148
12.4088
12.387
12.3654
12.3342
12.3213
12.2887
12.2597
12.214
12.1765
12.1386
12.1075
12.0815
11.9934
1
1
1
1
1
1
1
1
1
1
1
1
1
1
1
1
1
1
1
1
1
1
1
1
1
1
1
1
1
1
1
1
1
1
1
1
1
1
1
1
1
1
1
1
1
1
0.999986
0.999891
0.999527
0.990837
0.837424
3.09798
9.45125
11.1612
11.487
11.5606
11.5949
11.6217
11.6427
11.6589
11.6738
11.6883
11.7015
11.7141
11.7266
11.7389
11.7518
11.766
11.7806
11.7962
11.8133
11.8318
11.8511
11.8714
11.8931
11.9155
11.9391
11.9634
11.9877
12.0133
12.0373
12.0587
12.0774
12.0932
12.1099
12.1294
12.1508
12.1739
12.1974
12.2189
12.235
12.2477
12.2569
12.2695
12.2863
12.305
12.3192
12.3351
12.3519
12.3699
12.3869
12.3931
12.397
12.3926
12.3905
12.3729
12.3643
12.3407
12.319
12.2865
12.2709
12.2363
12.2049
12.158
12.1193
12.0803
12.0484
12.0214
11.9299
1
1
1
1
1
1
1
1
1
1
1
1
1
1
1
1
1
1
1
1
1
1
1
1
1
1
1
1
1
1
1
1
1
1
1
1
1
1
1
1
1
1
1
1
1
1
1
1.00002
0.999936
0.999409
0.98301
0.832452
6.80481
10.4993
11.2904
11.4709
11.5226
11.5487
11.573
11.5918
11.6088
11.6265
11.6431
11.659
11.6743
11.6892
11.704
11.7187
11.7339
11.7499
11.7663
11.783
11.8001
11.8186
11.8388
11.8602
11.8826
11.9062
11.9305
11.957
11.9826
12.0065
12.0268
12.0449
12.0623
12.0818
12.1034
12.127
12.1507
12.1717
12.1925
12.2085
12.2198
12.2314
12.2451
12.2586