/*--------------------------------*- C++ -*----------------------------------*\
| =========                 |                                                 |
| \\      /  F ield         | OpenFOAM: The Open Source CFD Toolbox           |
|  \\    /   O peration     | Version:  2.2.x                                 |
|   \\  /    A nd           | Web:      www.OpenFOAM.org                      |
|    \\/     M anipulation  |                                                 |
\*---------------------------------------------------------------------------*/
FoamFile
{
    version     2.0;
    format      ascii;
    class       volScalarField;
    location    "1.5";
    object      Ma;
}
// * * * * * * * * * * * * * * * * * * * * * * * * * * * * * * * * * * * * * //

dimensions      [0 0 0 0 0 0 0];

internalField   nonuniform List<scalar> 
14161
(
2.60922
2.60809
2.60867
2.6092
2.60997
2.61082
2.61197
2.61323
2.6145
2.61622
2.61797
2.61966
2.62163
2.62407
2.62618
2.62812
2.63073
2.63397
2.63592
2.63745
2.64023
2.64437
2.64654
2.64757
2.64818
2.65095
2.65445
2.65614
2.657
2.65689
2.65689
2.65732
2.65811
2.65776
2.65705
2.6556
2.65323
2.65007
2.64178
2.63418
2.62539
2.61561
2.60505
2.59322
2.58227
2.56266
2.56003
2.49317
0.789862
0.532207
0.504718
0.505548
0.52361
0.540375
0.570484
0.596183
0.625397
0.653248
0.681427
0.709092
0.734721
0.760364
0.784305
0.807523
0.828823
0.848974
0.86739
0.883172
0.89674
0.908201
0.917541
0.925104
0.931155
0.935046
0.937575
0.939114
0.936246
0.947838
0.951176
0.953311
0.965935
0.970862
0.97505
0.978154
0.975916
0.98888
0.993011
0.996949
0.999014
0.995834
1.00968
1.0144
1.01716
1.03057
1.03737
1.04903
1.06121
1.07055
1.08688
1.09915
1.10636
1.102
1.09571
1.00318
0.849806
0.695432
0.560461
0.458099
0.382789
0.32495
0.278595
0.239614
0.204652
0.172036
0.140471
0.109707
0.080449
0.0510711
0.0312068
2.60921
2.60809
2.60867
2.6092
2.60997
2.61082
2.61198
2.61322
2.61453
2.61622
2.61796
2.61966
2.62165
2.62407
2.62617
2.62814
2.63077
2.63394
2.6359
2.63749
2.64033
2.64442
2.64649
2.64744
2.64825
2.65108
2.65457
2.6562
2.65691
2.65683
2.65709
2.65756
2.65835
2.65792
2.65717
2.65554
2.65298
2.64987
2.64204
2.63543
2.62778
2.61864
2.60854
2.59561
2.58515
2.56445
2.55764
2.4532
0.786278
0.530681
0.501858
0.503243
0.525561
0.543234
0.573221
0.598489
0.626759
0.652742
0.679386
0.705801
0.731066
0.756892
0.781216
0.804922
0.826977
0.847238
0.866231
0.882972
0.897052
0.908939
0.918674
0.926266
0.932735
0.937929
0.94154
0.943839
0.941092
0.952792
0.955741
0.9577
0.970375
0.9751
0.978727
0.981108
0.979194
0.992639
0.996984
1.00089
1.00273
1.00009
1.01398
1.01806
1.02117
1.03474
1.04199
1.05386
1.06519
1.07356
1.08811
1.09568
1.10014
1.07671
1.04381
0.913638
0.755939
0.610022
0.492217
0.408189
0.34595
0.29634
0.255581
0.220356
0.188871
0.159843
0.133152
0.10658
0.0838209
0.0607431
0.055783
2.60922
2.60809
2.60866
2.60919
2.60997
2.61083
2.61197
2.61323
2.61454
2.61622
2.61796
2.61967
2.62167
2.62402
2.62616
2.6282
2.63085
2.63382
2.63581
2.63763
2.64048
2.6442
2.64635
2.6474
2.64851
2.65132
2.65454
2.6559
2.65678
2.65716
2.6575
2.65812
2.65882
2.65843
2.65773
2.65658
2.65458
2.6519
2.6447
2.63822
2.63078
2.62173
2.61157
2.59816
2.58698
2.56778
2.55379
2.42879
0.782701
0.523804
0.501331
0.500239
0.528397
0.548548
0.581371
0.608197
0.637219
0.664293
0.690584
0.717616
0.742817
0.768836
0.792688
0.815809
0.837675
0.857084
0.875871
0.892452
0.906291
0.917819
0.927241
0.934466
0.940971
0.946295
0.949881
0.95253
0.949997
0.96162
0.964382
0.966561
0.978496
0.98292
0.986288
0.988513
0.98693
0.999375
1.00388
1.00783
1.0097
1.00795
1.02071
1.02487
1.02905
1.04063
1.04829
1.05974
1.06912
1.07549
1.08575
1.08294
1.07826
1.02958
0.941027
0.792857
0.654954
0.535073
0.446045
0.378679
0.324771
0.280175
0.242523
0.210461
0.182885
0.157325
0.135745
0.113502
0.0977956
0.0810411
0.0845793
2.60919
2.60809
2.60866
2.60918
2.60994
2.61086
2.61195
2.61322
2.61458
2.61621
2.61793
2.6197
2.62172
2.62395
2.62615
2.62829
2.63088
2.6336
2.63577
2.63783
2.64061
2.64385
2.6461
2.64762
2.64907
2.65159
2.65407
2.65535
2.65652
2.65769
2.6585
2.65921
2.65959
2.65938
2.65852
2.65776
2.65629
2.65391
2.64797
2.64227
2.63545
2.62733
2.61735
2.60353
2.59009
2.56695
2.55337
2.44088
0.79798
0.522648
0.501667
0.502922
0.538024
0.561852
0.596705
0.627197
0.657908
0.688249
0.714826
0.743318
0.768406
0.794503
0.817984
0.839797
0.86124
0.879324
0.897012
0.912562
0.925947
0.93651
0.945173
0.951786
0.957729
0.962615
0.96618
0.968777
0.966716
0.97766
0.980294
0.982665
0.993768
0.99778
1.00066
1.00311
1.0015
1.01245
1.01719
1.02086
1.02265
1.0218
1.03294
1.03784
1.04277
1.05124
1.05917
1.067
1.07315
1.07401
1.07766
1.05236
1.01757
0.91817
0.771157
0.640739
0.537859
0.472802
0.41136
0.356684
0.309356
0.269811
0.236669
0.207424
0.18265
0.160126
0.143346
0.125126
0.115598
0.103176
0.110572
2.60918
2.60808
2.60865
2.60918
2.60993
2.61088
2.61194
2.61318
2.6146
2.61619
2.61787
2.61971
2.62175
2.62384
2.6261
2.6284
2.63084
2.63334
2.63575
2.63814
2.64063
2.64337
2.64583
2.64816
2.64984
2.6518
2.65336
2.65478
2.65662
2.65856
2.65979
2.66057
2.66078
2.66065
2.66018
2.65947
2.6586
2.65713
2.65316
2.64857
2.64384
2.63829
2.62952
2.61881
2.60651
2.58847
2.57351
2.49331
0.845014
0.528853
0.504368
0.5217
0.561
0.593011
0.628965
0.662642
0.693904
0.726134
0.75205
0.781205
0.804885
0.831678
0.855659
0.875868
0.897411
0.914601
0.931644
0.946116
0.959043
0.968741
0.976461
0.98225
0.987047
0.991121
0.993931
0.995429
0.993301
1.0031
1.0058
1.00808
1.01704
1.02062
1.0226
1.02527
1.02385
1.03232
1.03753
1.04075
1.04219
1.04163
1.05087
1.0556
1.05957
1.06568
1.07107
1.07384
1.07928
1.06144
1.05109
0.99273
0.893594
0.758332
0.621344
0.529079
0.477361
0.43348
0.388573
0.342916
0.301218
0.265739
0.235587
0.20948
0.188009
0.168064
0.155203
0.140084
0.134845
0.125222
0.134618
2.60916
2.60808
2.60864
2.60915
2.60991
2.61088
2.6119
2.61314
2.61462
2.61616
2.61779
2.61974
2.62173
2.62374
2.62607
2.62849
2.63077
2.63298
2.63577
2.63851
2.64069
2.64286
2.64549
2.64867
2.65064
2.65221
2.6531
2.6542
2.65717
2.65968
2.66096
2.66173
2.66224
2.66231
2.66214
2.66186
2.66162
2.66107
2.66018
2.65759
2.65502
2.65105
2.64439
2.63681
2.6247
2.60979
2.59086
2.50115
0.947615
0.546941
0.509515
0.564388
0.597622
0.646245
0.682591
0.719433
0.7499
0.782983
0.809484
0.840108
0.860071
0.889184
0.910715
0.929622
0.950867
0.965676
0.982504
0.994401
1.00696
1.01539
1.02178
1.0263
1.02959
1.0328
1.0343
1.03481
1.03265
1.03958
1.04253
1.04441
1.05027
1.05326
1.05438
1.05713
1.05605
1.062
1.06675
1.06894
1.06938
1.06763
1.07269
1.07728
1.0762
1.07774
1.08397
1.07101
1.06851
1.02342
0.974251
0.86571
0.727194
0.607296
0.516755
0.475905
0.448539
0.412252
0.374983
0.333778
0.296581
0.264818
0.237978
0.214409
0.195759
0.178263
0.16875
0.156132
0.154005
0.146562
0.157129
2.60914
2.60805
2.60863
2.60914
2.6099
2.61087
2.61188
2.61311
2.61461
2.61611
2.61775
2.61975
2.6217
2.62363
2.62605
2.62855
2.63067
2.63269
2.63578
2.63878
2.64074
2.64248
2.64506
2.64889
2.65125
2.65266
2.65326
2.65394
2.65769
2.66069
2.66206
2.66299
2.66374
2.66427
2.66433
2.66462
2.66512
2.66639
2.66852
2.66947
2.67029
2.67023
2.66931
2.66761
2.66497
2.66197
2.66554
2.56676
1.17639
0.572691
0.528952
0.626883
0.669713
0.729103
0.766969
0.803676
0.825052
0.858406
0.879458
0.908683
0.922726
0.951714
0.967358
0.987463
1.00546
1.01686
1.03303
1.04069
1.05435
1.06075
1.06597
1.06926
1.0712
1.07354
1.07408
1.07373
1.07113
1.07555
1.07859
1.0796
1.08307
1.08601
1.08653
1.08825
1.08708
1.09068
1.09332
1.09401
1.09232
1.08862
1.08864
1.09469
1.08433
1.07728
1.08336
1.04452
1.0174
0.93642
0.823722
0.698989
0.583855
0.511845
0.476781
0.455116
0.432155
0.402046
0.366786
0.329074
0.295532
0.267022
0.24292
0.22189
0.20598
0.190532
0.183413
0.172677
0.172671
0.167008
0.178244
2.60911
2.60803
2.6086
2.60912
2.60989
2.61086
2.61185
2.61309
2.6146
2.61605
2.6177
2.61975
2.62164
2.62353
2.62605
2.62858
2.63057
2.63248
2.63575
2.63891
2.6408
2.64228
2.64484
2.64896
2.65151
2.65296
2.65351
2.65413
2.65808
2.6616
2.66316
2.66439
2.66553
2.66649
2.66684
2.66754
2.6688
2.67131
2.67635
2.68045
2.68464
2.68882
2.69353
2.70004
2.70783
2.72428
2.75175
2.66174
1.71806
0.639826
0.565597
0.726895
0.773968
0.83088
0.863225
0.891226
0.894312
0.935441
0.938595
0.968939
0.977745
1.00093
1.01468
1.03179
1.04832
1.05202
1.07161
1.07746
1.08794
1.09339
1.09778
1.10042
1.10145
1.10273
1.10266
1.10172
1.09908
1.10163
1.10428
1.10445
1.10619
1.10868
1.10881
1.10879
1.10654
1.10672
1.10861
1.10556
1.10173
1.09962
1.09273
1.09505
1.07241
1.05371
1.04666
0.967975
0.892881
0.778494
0.657606
0.559124
0.503124
0.479099
0.463082
0.447922
0.424019
0.396948
0.362459
0.327661
0.296456
0.270512
0.248837
0.230271
0.216984
0.203536
0.198313
0.189117
0.190743
0.186577
0.198055
2.60908
2.60802
2.60858
2.60911
2.60986
2.61083
2.61183
2.61305
2.61456
2.61601
2.61768
2.61971
2.62157
2.62345
2.62606
2.62853
2.63045
2.63241
2.63579
2.63887
2.64071
2.64225
2.6449
2.64909
2.65156
2.65307
2.65372
2.65467
2.65847
2.6622
2.66423
2.66576
2.66727
2.66876
2.66944
2.67072
2.67302
2.67658
2.68358
2.68979
2.69752
2.7066
2.71845
2.73633
2.75845
2.80688
2.85789
2.92798
2.71138
0.909501
0.655811
0.823845
0.872233
0.910311
0.936036
0.952553
0.952593
0.988756
0.982139
1.01133
1.02143
1.03719
1.05263
1.05783
1.08061
1.08257
1.09986
1.10763
1.11207
1.11777
1.12179
1.12346
1.12356
1.12363
1.12204
1.12086
1.11874
1.11942
1.12117
1.12048
1.12051
1.12174
1.12045
1.1202
1.11517
1.11236
1.11426
1.10527
1.09757
1.09851
1.07617
1.06793
1.03137
0.981956
0.938985
0.824057
0.711355
0.612169
0.529745
0.49244
0.477531
0.468612
0.459182
0.44259
0.421336
0.393918
0.361142
0.32866
0.300426
0.276625
0.25683
0.240167
0.228922
0.217075
0.213227
0.20527
0.208118
0.205251
0.216624
2.60904
2.60798
2.60856
2.60907
2.60983
2.61078
2.61181
2.61304
2.61453
2.61596
2.61766
2.61966
2.62149
2.62339
2.62605
2.62842
2.63037
2.63242
2.6358
2.6387
2.64061
2.64239
2.64519
2.64913
2.65154
2.65316
2.65409
2.65555
2.65902
2.66269
2.6651
2.66709
2.66884
2.67076
2.6721
2.67413
2.67685
2.68341
2.68923
2.69569
2.70263
2.71029
2.72131
2.73442
2.7496
2.76569
2.77329
2.74985
2.53759
1.38743
0.753255
0.854823
0.904696
0.936808
0.965958
0.983094
0.992724
1.01682
1.01361
1.03652
1.05255
1.0526
1.07832
1.07665
1.10449
1.10972
1.11869
1.12855
1.13258
1.13668
1.14034
1.14122
1.13968
1.13831
1.13534
1.13356
1.13159
1.13023
1.13159
1.12874
1.12724
1.12712
1.12329
1.12367
1.11482
1.1075
1.10986
1.08975
1.07638
1.07354
1.02575
0.989564
0.93204
0.843187
0.753841
0.649068
0.555762
0.500782
0.48033
0.474752
0.471122
0.467155
0.456631
0.440291
0.419426
0.392211
0.360842
0.329859
0.303913
0.282353
0.264613
0.249949
0.240758
0.230477
0.22783
0.220977
0.224737
0.222998
0.234015
2.609
2.60796
2.60852
2.60905
2.60979
2.6107
2.6118
2.613
2.61445
2.61592
2.61766
2.61955
2.62141
2.6234
2.62589
2.62826
2.63035
2.63255
2.63553
2.6384
2.64065
2.64265
2.64539
2.64876
2.65124
2.65332
2.65485
2.65681
2.65989
2.6631
2.66576
2.6682
2.67043
2.67264
2.67456
2.67798
2.68278
2.68919
2.69499
2.70213
2.70901
2.71705
2.72832
2.74289
2.76211
2.78774
2.80829
2.8378
2.45021
1.77068
0.881486
0.860718
0.91705
0.931509
0.968233
0.986019
1.00396
1.01677
1.03421
1.04242
1.06328
1.05925
1.09296
1.09745
1.10947
1.1252
1.12831
1.14161
1.14344
1.14785
1.15088
1.15136
1.14796
1.14567
1.142
1.13999
1.13627
1.13344
1.13524
1.12976
1.12691
1.12579
1.11695
1.11565
1.10154
1.08723
1.0832
1.04581
1.01319
0.993729
0.913155
0.837645
0.76154
0.662887
0.576507
0.511233
0.479313
0.472582
0.469107
0.470176
0.469824
0.464981
0.454006
0.439337
0.418225
0.392023
0.362522
0.333829
0.309728
0.289698
0.27343
0.260336
0.252807
0.243862
0.242149
0.236256
0.240624
0.239806
0.250303
2.60895
2.60791
2.60848
2.609
2.60978
2.61064
2.61175
2.61298
2.61433
2.6159
2.61761
2.61939
2.62133
2.6234
2.62565
2.62808
2.63039
2.63255
2.63511
2.63815
2.6407
2.64304
2.64546
2.64805
2.65077
2.65358
2.65603
2.65829
2.66113
2.66346
2.66587
2.66838
2.67108
2.674
2.67717
2.68185
2.68678
2.69189
2.69727
2.70316
2.70777
2.71298
2.72133
2.72781
2.74228
2.7471
2.73887
2.64117
2.08982
1.43262
1.12234
0.957858
0.89363
0.929589
0.944472
0.973745
0.995831
1.00267
1.03382
1.04023
1.0561
1.07097
1.08292
1.10395
1.10807
1.12746
1.13121
1.14063
1.14376
1.14775
1.14896
1.14945
1.14547
1.14339
1.13977
1.13808
1.13287
1.12847
1.12979
1.11917
1.11254
1.1099
1.09084
1.08093
1.05983
1.02731
1.00188
0.947294
0.885464
0.830085
0.736027
0.647711
0.576023
0.510825
0.474728
0.468342
0.461454
0.467077
0.470809
0.471272
0.469818
0.463051
0.452988
0.437564
0.416868
0.391253
0.363141
0.337066
0.315313
0.297194
0.282495
0.270885
0.264846
0.257035
0.255996
0.250968
0.255754
0.255724
0.265581
2.6089
2.60786
2.60845
2.60895
2.60973
2.61057
2.61169
2.61292
2.6142
2.61589
2.61751
2.61921
2.62132
2.62336
2.62539
2.62791
2.63042
2.63253
2.63474
2.63776
2.64083
2.64336
2.64548
2.6476
2.64995
2.65399
2.657
2.65969
2.66209
2.66411
2.66553
2.66808
2.67089
2.67592
2.68014
2.68431
2.68865
2.6929
2.69726
2.70194
2.70587
2.70961
2.7163
2.72275
2.74331
2.75619
2.74934
2.72924
1.57851
1.28511
1.21994
1.15504
0.969741
0.943705
0.935262
0.962681
0.989911
0.992904
1.02054
1.03197
1.04275
1.06665
1.06819
1.09885
1.10228
1.11819
1.12694
1.13119
1.13493
1.14107
1.13991
1.13863
1.13412
1.13117
1.1258
1.12378
1.11473
1.10619
1.10699
1.08478
1.0694
1.0641
1.02365
0.991606
0.962835
0.900304
0.839721
0.777026
0.69536
0.622264
0.554606
0.495935
0.46787
0.461369
0.451301
0.45971
0.465791
0.470575
0.471583
0.471461
0.467932
0.461407
0.451231
0.436226
0.416352
0.391882
0.36549
0.341121
0.32089
0.30434
0.291183
0.281101
0.276538
0.269805
0.269328
0.265079
0.270141
0.270768
0.27991
2.60884
2.60781
2.60839
2.6089
2.60967
2.61051
2.61165
2.61285
2.61411
2.61584
2.61742
2.61904
2.62134
2.62327
2.62511
2.62783
2.63039
2.63239
2.63452
2.63745
2.64085
2.64347
2.6456
2.64733
2.64936
2.65401
2.65759
2.66041
2.66269
2.66474
2.66566
2.66755
2.67135
2.67749
2.68166
2.68534
2.68888
2.69224
2.69545
2.69884
2.70125
2.70331
2.70639
2.7074
2.71241
2.70923
2.6004
2.48381
1.3789
1.2566
1.24773
1.21764
1.08925
1.02424
0.934616
0.93914
0.966217
0.969478
0.99954
1.0081
1.02789
1.05129
1.05378
1.08545
1.08803
1.10333
1.11392
1.11467
1.11835
1.1256
1.12166
1.11818
1.11074
1.10679
1.09346
1.08869
1.07284
1.05361
1.0459
1.00642
0.972662
0.951931
0.887622
0.827773
0.781679
0.705442
0.633998
0.575685
0.517935
0.47488
0.456081
0.450788
0.442335
0.452363
0.458837
0.465453
0.468883
0.471798
0.472575
0.47119
0.466875
0.46025
0.449648
0.434892
0.41586
0.392912
0.368712
0.346678
0.328187
0.31298
0.300995
0.292006
0.288393
0.282387
0.28227
0.278643
0.283785
0.284993
0.293451
2.60878
2.60776
2.60834
2.60884
2.60961
2.61045
2.61156
2.61276
2.61404
2.61574
2.61732
2.61896
2.62123
2.62313
2.62493
2.62776
2.63022
2.63224
2.63442
2.63724
2.64075
2.64354
2.64569
2.64721
2.64916
2.65399
2.6579
2.66072
2.66307
2.665
2.66583
2.66753
2.67191
2.67825
2.68229
2.68555
2.68857
2.69132
2.69364
2.69577
2.69667
2.69803
2.69974
2.70105
2.70177
2.69695
2.54431
1.91463
1.19451
1.20706
1.21993
1.21786
1.15998
1.11645
0.975915
0.937814
0.922001
0.939083
0.973828
0.973555
1.01211
1.03097
1.0425
1.06544
1.07313
1.08739
1.09772
1.09481
1.09814
1.09933
1.0878
1.08321
1.06483
1.05707
1.02796
1.00773
0.989758
0.947576
0.911771
0.864366
0.806959
0.756322
0.690587
0.624238
0.570359
0.520574
0.47658
0.451058
0.4399
0.439205
0.432887
0.446674
0.452957
0.459948
0.463916
0.468551
0.471238
0.472648
0.472557
0.470112
0.466129
0.45901
0.448453
0.43405
0.415599
0.393672
0.371162
0.351074
0.334277
0.320548
0.309944
0.302239
0.299668
0.294452
0.294737
0.291686
0.296837
0.298493
0.306183
2.60871
2.6077
2.60827
2.60878
2.60952
2.61039
2.61146
2.61266
2.61399
2.61557
2.61718
2.61896
2.621
2.62297
2.62493
2.62743
2.62988
2.63219
2.63432
2.6369
2.64057
2.64363
2.64573
2.64718
2.64901
2.65416
2.65815
2.66103
2.66333
2.66497
2.66609
2.66809
2.67267
2.67857
2.68238
2.68537
2.68811
2.69035
2.69221
2.6936
2.69435
2.69668
2.69936
2.70746
2.71469
2.71461
2.66697
1.43123
1.17884
1.18125
1.19914
1.20692
1.20532
1.1862
1.07939
1.0326
0.91725
0.942285
0.946128
0.955077
0.989638
0.999553
1.03479
1.03975
1.05438
1.06485
1.0673
1.05879
1.05799
1.04113
1.02575
1.01457
0.977805
0.955248
0.910764
0.86634
0.838202
0.771967
0.713019
0.664433
0.605198
0.55117
0.510166
0.469274
0.442492
0.433267
0.428684
0.427615
0.424382
0.438473
0.44458
0.452838
0.458734
0.464672
0.468435
0.471519
0.472893
0.473357
0.472153
0.469818
0.465154
0.457848
0.447487
0.433881
0.417006
0.397175
0.376429
0.35762
0.341993
0.329256
0.319642
0.312834
0.310853
0.306244
0.306879
0.304295
0.309339
0.311297
0.318294
2.60864
2.60764
2.60819
2.60871
2.60944
2.61033
2.61135
2.61253
2.61393
2.61536
2.61703
2.61889
2.6207
2.62277
2.62492
2.62707
2.62945
2.63216
2.63428
2.63651
2.64033
2.64336
2.64558
2.64719
2.6492
2.65432
2.65805
2.66084
2.66321
2.66504
2.66673
2.6694
2.67357
2.6781
2.68152
2.68468
2.6873
2.68937
2.69087
2.69179
2.69268
2.69332
2.69386
2.69454
2.69845
2.62041
2.44736
1.31118
1.17411
1.16875
1.17829
1.17871
1.19516
1.17997
1.14358
1.10648
0.983242
0.94377
0.893581
0.955414
0.939753
0.97897
1.00176
1.01353
1.00436
1.031
1.00901
0.99456
0.984125
0.948383
0.913227
0.886894
0.83303
0.78472
0.732598
0.677007
0.629651
0.574918
0.52745
0.491427
0.46068
0.437203
0.429755
0.423268
0.420917
0.415177
0.423388
0.434217
0.437518
0.445196
0.451199
0.458696
0.464148
0.468703
0.471441
0.472944
0.47351
0.473147
0.471889
0.469269
0.464535
0.457312
0.447095
0.433735
0.417584
0.399332
0.3806
0.363495
0.349264
0.337669
0.329117
0.323125
0.321671
0.317636
0.318652
0.316501
0.321411
0.323556
0.329797
2.60855
2.60758
2.60812
2.60862
2.60936
2.61024
2.61121
2.61244
2.61383
2.61517
2.61697
2.61874
2.62037
2.62274
2.62486
2.62665
2.6292
2.63201
2.63418
2.63632
2.64004
2.64269
2.64519
2.64743
2.65005
2.654
2.65703
2.66
2.66292
2.66564
2.66834
2.67108
2.67414
2.67672
2.67951
2.68217
2.68614
2.68854
2.69025
2.69157
2.69204
2.69144
2.68919
2.68483
2.67776
2.54866
1.93721
1.18634
1.15051
1.15091
1.15063
1.15065
1.16005
1.16602
1.17367
1.1327
1.0826
0.985457
0.910237
0.91
0.885184
0.946065
0.954923
0.95683
0.942335
0.939933
0.911096
0.877255
0.84214
0.799897
0.745205
0.696091
0.642979
0.591641
0.545174
0.503368
0.471776
0.44793
0.431931
0.425979
0.422058
0.417796
0.414036
0.417276
0.425944
0.427977
0.4328
0.440156
0.445505
0.45239
0.457971
0.463871
0.468405
0.471784
0.473519
0.474365
0.474263
0.473375
0.471848
0.468814
0.463984
0.456891
0.447407
0.435356
0.420647
0.403784
0.386357
0.370313
0.357093
0.3464
0.338743
0.33341
0.332313
0.328794
0.330132
0.328295
0.33295
0.335234
0.340985
2.60848
2.60751
2.60805
2.60854
2.60927
2.61012
2.61107
2.61233
2.61366
2.61499
2.61684
2.61851
2.62011
2.62261
2.62462
2.62639
2.62903
2.63165
2.63404
2.6364
2.63931
2.6417
2.64484
2.64778
2.65077
2.65321
2.65564
2.65836
2.66298
2.66635
2.66958
2.67232
2.67462
2.67578
2.67766
2.67955
2.6848
2.68852
2.69108
2.69311
2.69456
2.69587
2.69612
2.69477
2.6902
2.57201
1.51004
1.12158
1.12212
1.12923
1.13334
1.1385
1.14674
1.15382
1.16428
1.14301
1.11355
1.03368
0.971357
0.825134
0.862747
0.846292
0.89573
0.846288
0.827615
0.792807
0.765613
0.712358
0.657875
0.616194
0.56224
0.518926
0.48337
0.456215
0.437586
0.426179
0.422126
0.419144
0.416965
0.412216
0.41733
0.423793
0.427221
0.428591
0.433732
0.435871
0.441528
0.44738
0.452722
0.458406
0.463158
0.467555
0.470944
0.473151
0.474388
0.474713
0.474351
0.473509
0.471876
0.468871
0.464161
0.45717
0.447914
0.43648
0.423079
0.408047
0.392403
0.377747
0.365564
0.355696
0.348677
0.343747
0.342878
0.33974
0.341315
0.339743
0.344168
0.346614
0.351764
2.60839
2.60742
2.60795
2.60844
2.60916
2.61
2.61095
2.6122
2.61347
2.61485
2.61662
2.61825
2.61999
2.62224
2.62428
2.62626
2.62862
2.631
2.63387
2.63645
2.63847
2.64062
2.64472
2.64827
2.65108
2.65276
2.65448
2.65723
2.66309
2.66683
2.66976
2.67235
2.67441
2.6753
2.67695
2.67862
2.68415
2.68867
2.69187
2.69438
2.69743
2.70127
2.70649
2.71425
2.68474
2.57457
1.32186
1.11785
1.11204
1.1157
1.12027
1.12684
1.13148
1.14296
1.1496
1.14864
1.11068
1.07478
0.933083
0.794082
0.773406
0.725969
0.760351
0.697827
0.664273
0.62186
0.578479
0.538532
0.497899
0.471262
0.447268
0.431936
0.423358
0.419083
0.416175
0.412086
0.413069
0.418279
0.424249
0.426741
0.425476
0.430199
0.433335
0.437255
0.442024
0.44492
0.449577
0.454285
0.458716
0.46321
0.467004
0.470569
0.473278
0.474935
0.475619
0.47559
0.474972
0.473852
0.472034
0.468988
0.464454
0.457971
0.449433
0.438763
0.426339
0.412686
0.398534
0.385268
0.374101
0.365089
0.358511
0.353902
0.353274
0.350509
0.352256
0.350933
0.355018
0.357423
0.362026
2.60829
2.60734
2.60787
2.60833
2.60904
2.60988
2.61082
2.61201
2.61326
2.6147
2.61634
2.61796
2.61985
2.62179
2.62392
2.62616
2.62808
2.63038
2.63388
2.63628
2.63785
2.63987
2.64464
2.64839
2.65086
2.65224
2.65394
2.65701
2.66314
2.66697
2.66971
2.67189
2.67405
2.67505
2.67705
2.67935
2.68337
2.68755
2.69062
2.69292
2.69564
2.69747
2.69731
2.70278
2.59803
2.30592
1.2164
1.11297
1.10817
1.10629
1.10489
1.10753
1.10863
1.11357
1.11405
1.1125
1.05997
1.00927
0.84932
0.698516
0.630861
0.588523
0.581141
0.52878
0.509744
0.477955
0.456968
0.442374
0.429086
0.424646
0.419694
0.41753
0.411799
0.414959
0.420008
0.422311
0.426505
0.425911
0.430259
0.434652
0.435795
0.439791
0.443148
0.445371
0.449781
0.452454
0.456686
0.460816
0.464605
0.468286
0.471197
0.473547
0.47529
0.476363
0.476799
0.476663
0.475851
0.474542
0.4726
0.469561
0.465127
0.458945
0.450976
0.441165
0.429837
0.417596
0.404904
0.393077
0.382928
0.374858
0.368517
0.364103
0.363534
0.361042
0.362803
0.361781
0.365583
0.367956
0.371978
2.60818
2.60724
2.60776
2.60822
2.60891
2.60976
2.61067
2.61178
2.61307
2.6145
2.61596
2.6178
2.61961
2.6213
2.62377
2.62586
2.62757
2.62998
2.63366
2.63574
2.63734
2.63954
2.64456
2.64764
2.65016
2.65177
2.65389
2.65748
2.66271
2.66603
2.66887
2.67128
2.67376
2.67579
2.67762
2.68013
2.68282
2.68552
2.68801
2.68991
2.6916
2.6909
2.68631
2.68066
2.5237
1.79793
1.0972
1.09531
1.102
1.10474
1.10453
1.10236
1.10101
1.0976
1.07988
1.06307
0.97632
0.866098
0.707729
0.54951
0.479629
0.453238
0.442615
0.432183
0.428716
0.422935
0.420678
0.418269
0.41717
0.413996
0.418849
0.423761
0.426406
0.42582
0.429619
0.430221
0.435105
0.436774
0.439008
0.442861
0.444063
0.447946
0.451258
0.454062
0.457692
0.460719
0.464046
0.467259
0.469997
0.472386
0.474377
0.475992
0.477711
0.478629
0.478796
0.478313
0.477178
0.475503
0.473279
0.470202
0.46597
0.460223
0.452883
0.44394
0.433738
0.422869
0.411582
0.401106
0.391975
0.38484
0.378603
0.374288
0.373612
0.371333
0.373102
0.372644
0.376065
0.378089
0.381326
2.60809
2.60713
2.60765
2.6081
2.60875
2.60959
2.61051
2.61155
2.61291
2.61424
2.61565
2.61757
2.61922
2.62091
2.6235
2.62534
2.62712
2.62984
2.63284
2.63499
2.63709
2.6398
2.64348
2.64604
2.64902
2.65177
2.65449
2.65761
2.66083
2.66354
2.66786
2.67114
2.67406
2.67686
2.67913
2.68124
2.68272
2.68426
2.68664
2.68966
2.69634
2.70321
2.70761
2.70779
2.59987
1.38377
1.0925
1.09285
1.09762
1.09918
1.09729
1.09227
1.08939
1.06745
1.02268
0.981482
0.847801
0.679766
0.526809
0.418435
0.390532
0.39414
0.400773
0.405981
0.410708
0.413121
0.415848
0.420729
0.425012
0.429184
0.42828
0.431715
0.435547
0.437092
0.440704
0.441735
0.445158
0.447093
0.449575
0.452681
0.453808
0.456784
0.459333
0.46206
0.464746
0.467587
0.47003
0.472568
0.475104
0.477467
0.479478
0.48036
0.481621
0.481981
0.481671
0.481097
0.479853
0.477913
0.475391
0.472121
0.467804
0.462178
0.455186
0.446978
0.437857
0.42828
0.418302
0.409018
0.400901
0.394647
0.388647
0.384654
0.383631
0.381489
0.383079
0.383171
0.386135
0.387772
0.390502
2.60797
2.60702
2.60753
2.60797
2.60859
2.60942
2.61031
2.61132
2.61268
2.61396
2.6154
2.6172
2.61879
2.62063
2.6229
2.62474
2.62675
2.62933
2.63166
2.63409
2.6369
2.63975
2.64191
2.6441
2.64823
2.65187
2.65513
2.65732
2.65925
2.6612
2.66656
2.67117
2.67454
2.67733
2.67971
2.68177
2.68342
2.6846
2.6868
2.68884
2.69418
2.69771
2.70226
2.62634
2.42584
1.2572
1.10706
1.09732
1.09556
1.09452
1.08899
1.08091
1.07443
1.02572
0.937051
0.844574
0.665438
0.50246
0.398145
0.36724
0.377221
0.384498
0.396618
0.405853
0.414215
0.421379
0.426615
0.430348
0.433678
0.438527
0.442712
0.445187
0.448937
0.450909
0.454012
0.454558
0.456153
0.457551
0.458815
0.461187
0.461895
0.464124
0.465864
0.468888
0.471465
0.474919
0.477484
0.479726
0.481546
0.482463
0.483957
0.483821
0.48507
0.485903
0.48574
0.484807
0.482997
0.480432
0.477375
0.473793
0.469442
0.464077
0.45767
0.450355
0.442294
0.433875
0.425065
0.416973
0.409783
0.404235
0.39866
0.395276
0.393491
0.391352
0.392652
0.393425
0.396181
0.397487
0.399522
2.60783
2.60691
2.60739
2.60782
2.60842
2.60923
2.61012
2.61113
2.61236
2.61367
2.61513
2.61671
2.61836
2.62032
2.62216
2.62408
2.62644
2.62854
2.63052
2.63345
2.63683
2.63913
2.64063
2.64263
2.64781
2.65191
2.65479
2.65668
2.65823
2.66007
2.66642
2.67114
2.67444
2.67733
2.67985
2.68205
2.68426
2.68524
2.68711
2.68847
2.68934
2.68587
2.67994
2.54331
1.89039
1.1382
1.1037
1.1009
1.09771
1.09233
1.07817
1.05688
1.03385
0.932284
0.815022
0.643542
0.486041
0.391381
0.362989
0.377228
0.387877
0.403375
0.414467
0.422801
0.429087
0.434428
0.439875
0.444768
0.448563
0.452247
0.455832
0.458568
0.461301
0.462697
0.464886
0.465779
0.466091
0.467482
0.468659
0.471148
0.472242
0.474091
0.474861
0.477278
0.47879
0.481632
0.483712
0.485554
0.48743
0.488793
0.490684
0.49067
0.491398
0.491165
0.489839
0.488885
0.487175
0.484905
0.481744
0.477836
0.473184
0.46774
0.461506
0.454631
0.447266
0.439723
0.431918
0.424981
0.418566
0.413637
0.408564
0.405879
0.403278
0.401241
0.402398
0.403769
0.406085
0.406806
0.408195
2.60769
2.60678
2.60726
2.60767
2.60825
2.609
2.60991
2.61088
2.61199
2.61333
2.6148
2.61621
2.61792
2.61982
2.62148
2.62354
2.62595
2.62761
2.62951
2.63314
2.63619
2.63809
2.63971
2.64198
2.64739
2.65077
2.65345
2.65566
2.6576
2.66051
2.6662
2.67014
2.67364
2.67682
2.67992
2.68271
2.68544
2.6883
2.69104
2.69392
2.70065
2.70639
2.70328
2.58043
1.43447
1.10995
1.10212
1.09886
1.09648
1.08512
1.06263
1.00641
0.950435
0.77335
0.637372
0.466351
0.39008
0.367055
0.384248
0.394471
0.410391
0.422343
0.432491
0.440593
0.44726
0.452696
0.45679
0.460487
0.463208
0.46515
0.467407
0.469717
0.472417
0.474264
0.476758
0.479073
0.479369
0.480016
0.479636
0.480643
0.481205
0.482608
0.482722
0.484739
0.486161
0.489397
0.492017
0.49371
0.495046
0.494621
0.495845
0.495699
0.496581
0.497131
0.496552
0.495587
0.493359
0.489751
0.485529
0.481097
0.476239
0.470934
0.465142
0.459059
0.452613
0.446027
0.439176
0.433212
0.427491
0.422904
0.418244
0.415988
0.413121
0.411245
0.412032
0.413613
0.415578
0.416045
0.417078
2.60755
2.60664
2.60709
2.60748
2.60807
2.60877
2.60966
2.61059
2.61167
2.613
2.61438
2.61574
2.61743
2.61917
2.62084
2.62309
2.62504
2.62679
2.62889
2.63233
2.63462
2.63682
2.63907
2.64205
2.64577
2.64837
2.65153
2.65466
2.6577
2.661
2.66461
2.66791
2.67168
2.67628
2.68013
2.68373
2.68689
2.68981
2.69289
2.69501
2.69621
2.70071
2.60849
2.38822
1.2559
1.11599
1.1049
1.09572
1.08627
1.05636
1.02457
0.906807
0.809885
0.595058
0.458317
0.393977
0.375081
0.395347
0.40538
0.421236
0.433554
0.443807
0.451722
0.458196
0.463652
0.468348
0.472156
0.475323
0.477605
0.478788
0.480042
0.481444
0.48352
0.485194
0.487208
0.489855
0.49105
0.491783
0.491422
0.492048
0.492964
0.494365
0.494075
0.495038
0.494661
0.496029
0.497742
0.499876
0.501903
0.50266
0.504189
0.504396
0.504715
0.504149
0.501739
0.500264
0.498338
0.495575
0.491945
0.487466
0.482315
0.476774
0.470918
0.465038
0.458962
0.452893
0.446691
0.441432
0.436386
0.432147
0.427774
0.42575
0.42283
0.421538
0.421951
0.423545
0.425029
0.42531
0.425642
2.60739
2.6065
2.60693
2.60729
2.60785
2.60851
2.60938
2.61028
2.61133
2.61257
2.61393
2.61528
2.61681
2.61848
2.62029
2.62232
2.62397
2.62596
2.62849
2.63091
2.63281
2.63536
2.63866
2.64154
2.64346
2.64576
2.64995
2.65415
2.65799
2.66043
2.66294
2.66571
2.66984
2.67534
2.67977
2.68286
2.6851
2.68641
2.6865
2.68517
2.67891
2.66827
2.51706
1.7609
1.11159
1.10293
1.09884
1.08302
1.06331
0.996008
0.933242
0.744241
0.60113
0.445566
0.396658
0.38127
0.40414
0.415084
0.430926
0.443397
0.454008
0.462449
0.468977
0.47434
0.478852
0.482799
0.48613
0.488948
0.491091
0.492543
0.493372
0.493666
0.494783
0.495958
0.49764
0.499765
0.501883
0.502605
0.503363
0.502199
0.502196
0.502944
0.5029
0.503727
0.503496
0.505367
0.507175
0.50891
0.510432
0.510157
0.509974
0.509526
0.509531
0.510494
0.509745
0.508646
0.506528
0.503048
0.498554
0.493185
0.487181
0.481291
0.475461
0.470268
0.464774
0.459515
0.454113
0.449591
0.445259
0.441188
0.437043
0.435174
0.432481
0.431891
0.431704
0.432897
0.433935
0.43416
0.434426
2.60722
2.60634
2.60675
2.6071
2.60763
2.60827
2.60906
2.60997
2.61094
2.61211
2.61344
2.61476
2.61613
2.61774
2.61974
2.6213
2.62284
2.62527
2.62761
2.62921
2.63116
2.63465
2.63792
2.63996
2.64158
2.6438
2.64906
2.65329
2.65647
2.65867
2.66147
2.66426
2.67025
2.6749
2.67872
2.68152
2.68451
2.68862
2.69309
2.70057
2.70931
2.69375
2.61668
1.34218
1.10073
1.09262
1.08666
1.05957
1.01986
0.885548
0.779265
0.566171
0.441245
0.397292
0.390396
0.411988
0.424583
0.439499
0.451933
0.462666
0.471437
0.478391
0.483989
0.488689
0.492636
0.495945
0.49881
0.501084
0.502942
0.50424
0.505581
0.505716
0.506101
0.506526
0.507755
0.509274
0.511679
0.512237
0.514284
0.514377
0.514482
0.51502
0.515283
0.515769
0.514292
0.513652
0.513831
0.514601
0.516402
0.51716
0.518624
0.518846
0.518663
0.519482
0.517367
0.514246
0.511615
0.508352
0.504335
0.49974
0.494422
0.48867
0.482863
0.477759
0.47242
0.467525
0.462532
0.458368
0.454406
0.450498
0.446497
0.444566
0.441996
0.441918
0.441564
0.442629
0.443278
0.443396
0.443138
2.60704
2.60617
2.60655
2.60688
2.60738
2.60798
2.60875
2.60962
2.6105
2.61165
2.61292
2.61415
2.61542
2.61713
2.61888
2.62028
2.62191
2.62445
2.62615
2.62775
2.63
2.63353
2.63587
2.63772
2.63996
2.64313
2.64762
2.65061
2.65317
2.65629
2.66013
2.66509
2.66951
2.67301
2.67499
2.67793
2.67997
2.68541
2.68616
2.683
2.67414
2.53316
2.1213
1.18172
1.09578
1.08215