/*--------------------------------*- C++ -*----------------------------------*\
| =========                 |                                                 |
| \\      /  F ield         | OpenFOAM: The Open Source CFD Toolbox           |
|  \\    /   O peration     | Version:  2.2.x                                 |
|   \\  /    A nd           | Web:      www.OpenFOAM.org                      |
|    \\/     M anipulation  |                                                 |
\*---------------------------------------------------------------------------*/
FoamFile
{
    version     2.0;
    format      ascii;
    class       volVectorField;
    location    "2.6";
    object      U;
}
// * * * * * * * * * * * * * * * * * * * * * * * * * * * * * * * * * * * * * //

dimensions      [0 1 -1 0 0 0 0];

internalField   nonuniform List<vector> 
14161
(
(3.5 -3.25321e-16 -2.15614e-24)
(3.5 -5.18853e-16 -7.41306e-24)
(3.5 -1.32984e-15 2.13126e-23)
(3.5 -7.76911e-16 1.71797e-23)
(3.5 -4.93331e-15 4.33051e-23)
(3.5 -3.50592e-15 -7.30724e-23)
(3.5 -4.66441e-15 8.39381e-23)
(3.5 -5.2924e-15 1.86596e-23)
(3.5 -4.60718e-15 7.56155e-23)
(3.5 -2.65351e-15 4.28244e-24)
(3.5 6.14327e-16 2.0548e-24)
(3.5 1.3051e-15 2.93002e-23)
(3.5 9.21767e-16 -3.83026e-23)
(3.5 -6.36122e-18 6.98981e-23)
(3.5 -5.8465e-16 -5.355e-23)
(3.5 -2.11089e-16 -6.59699e-23)
(3.5 -3.14536e-16 -8.73799e-23)
(3.5 2.25963e-15 -1.16291e-22)
(3.5 4.33604e-15 -1.05378e-22)
(3.5 4.07841e-15 -1.48556e-22)
(3.5 3.36159e-15 -1.42808e-22)
(3.5 2.51116e-15 -1.1687e-22)
(3.5 1.58867e-15 -1.55373e-22)
(3.5 9.81498e-17 -1.66318e-22)
(3.5 -2.91045e-15 -2.08233e-22)
(3.5 -4.65296e-15 -1.64704e-22)
(3.5 -5.11456e-15 -1.82151e-22)
(3.5 -4.94973e-15 -1.86744e-22)
(3.5 -3.24681e-15 -1.97786e-22)
(3.5 -3.40746e-15 -2.31254e-22)
(3.5 -2.57577e-15 -2.11581e-22)
(3.5 -1.88322e-15 -2.22087e-22)
(3.5 -5.87428e-16 -2.26104e-22)
(3.5 4.33965e-15 -2.28156e-22)
(3.5 6.21292e-14 -2.28994e-22)
(3.5 8.23297e-13 -2.36504e-22)
(3.5 1.06879e-11 -2.40508e-22)
(3.5 1.32932e-10 -2.46797e-22)
(3.5 1.54297e-09 -2.5224e-22)
(3.49997 1.55521e-08 -2.53445e-22)
(3.49953 1.02411e-07 -2.56869e-22)
(3.49218 -1.18244e-06 -2.57991e-22)
(3.36366 -1.02001e-05 -2.71542e-22)
(2.4201 0.00114734 -3.75183e-22)
(1.3358 0.00188153 -6.05531e-22)
(1.01796 0.00315641 1.27993e-21)
(0.945309 0.00385332 9.28271e-22)
(0.923551 0.00406869 2.05953e-21)
(0.91334 0.0041435 6.3527e-21)
(0.904872 0.00417639 4.09173e-21)
(0.896256 0.00422087 6.29784e-21)
(0.886583 0.00425787 7.37837e-21)
(0.876224 0.00426971 9.58527e-21)
(0.866531 0.00426996 9.2645e-21)
(0.857799 0.0043066 8.07653e-21)
(0.850001 0.00438757 7.94345e-21)
(0.842024 0.00449344 7.4701e-21)
(0.833324 0.00460456 7.673e-21)
(0.823449 0.00469548 6.62067e-21)
(0.812802 0.00471732 6.98167e-21)
(0.802975 0.00471368 5.36254e-21)
(0.794446 0.00475215 7.31838e-21)
(0.787013 0.0048367 2.23573e-21)
(0.779013 0.00494362 2.7505e-21)
(0.769839 0.00505913 3.5415e-21)
(0.75906 0.0051357 2.40673e-22)
(0.748269 0.00515618 4.68755e-22)
(0.738611 0.00517256 -1.66877e-22)
(0.73052 0.00521942 1.55214e-21)
(0.722897 0.00529345 -4.98709e-22)
(0.714329 0.00538122 1.76448e-22)
(0.703897 0.00546713 -2.04395e-22)
(0.692314 0.00549768 4.01234e-21)
(0.681684 0.00551363 -1.49936e-21)
(0.672578 0.00554671 2.09573e-21)
(0.664609 0.00560242 3.4695e-22)
(0.656048 0.00566957 1.7126e-22)
(0.645741 0.00573453 6.40475e-22)
(0.633721 0.00576386 -2.88789e-22)
(0.622275 0.00576975 1.37937e-21)
(0.612295 0.00579037 2.31792e-21)
(0.60359 0.00582848 3.89923e-22)
(0.59444 0.00587253 -1.37398e-22)
(0.583511 0.00591907 1.40729e-21)
(0.570911 0.0059448 -1.74359e-22)
(0.558847 0.00596458 -2.95342e-22)
(0.548215 0.0059898 -2.17103e-21)
(0.538531 0.0060208 -9.74372e-21)
(0.528213 0.00605761 1.52788e-20)
(0.515886 0.00609255 -4.67595e-20)
(0.502535 0.0061159 8.20978e-20)
(0.489911 0.00614806 -1.26103e-19)
(0.478609 0.0061874 1.40402e-19)
(0.467491 0.00623573 -1.22094e-19)
(0.455107 0.00628752 5.07427e-20)
(0.44096 0.00633278 3.42692e-20)
(0.426825 0.00639129 -2.58468e-20)
(0.413636 0.00646403 -3.6172e-19)
(0.401022 0.00654684 1.46545e-18)
(0.387575 0.00663869 -3.57999e-18)
(0.372327 0.00674065 6.13676e-18)
(0.35675 0.00685328 -7.23699e-18)
(0.341758 0.00698186 4.69821e-18)
(0.327246 0.00712971 2.16969e-18)
(0.311881 0.00730502 -1.50817e-17)
(0.29488 0.00750305 4.565e-17)
(0.277492 0.00771777 -1.16674e-16)
(0.26048 0.00795878 2.30299e-16)
(0.243533 0.00823783 -3.19273e-16)
(0.225341 0.00856791 2.70271e-16)
(0.205807 0.00895624 -7.62725e-17)
(0.185851 0.00939525 -2.18745e-16)
(0.165946 0.00990381 8.58717e-16)
(0.145312 0.0104893 -1.95486e-15)
(0.122862 0.011235 1.72326e-15)
(0.0990397 0.0121482 1.59732e-15)
(0.0741797 0.0133961 6.27283e-16)
(0.0474046 0.0144196 3.27569e-15)
(0.0210203 0.0210792 5.94165e-15)
(3.5 7.54611e-16 -1.49925e-24)
(3.5 -1.19388e-15 1.0663e-22)
(3.5 -1.77411e-15 1.06216e-22)
(3.5 -1.36783e-15 6.88665e-24)
(3.5 -4.53155e-15 1.55835e-23)
(3.5 -3.33694e-15 1.46776e-23)
(3.5 -5.99884e-15 1.09918e-23)
(3.5 -5.16997e-15 -1.7425e-23)
(3.5 -6.56918e-15 5.41229e-23)
(3.5 -3.94225e-15 -3.23743e-24)
(3.5 -8.87336e-16 3.45606e-23)
(3.5 7.93569e-19 -2.36974e-23)
(3.5 3.63592e-16 6.74363e-23)
(3.5 -2.14879e-15 -6.4643e-23)
(3.5 -3.07908e-15 -1.75948e-22)
(3.5 -3.86124e-15 -1.17159e-22)
(3.5 -3.50135e-15 -1.06102e-22)
(3.5 -1.90372e-15 -1.82552e-22)
(3.5 1.54118e-15 -1.37893e-22)
(3.5 1.74996e-15 -1.97373e-22)
(3.5 3.88247e-15 -1.51561e-22)
(3.5 4.91751e-15 -1.95233e-22)
(3.5 3.11171e-15 -2.48175e-22)
(3.5 1.56856e-15 -2.53358e-22)
(3.5 -2.68381e-15 -1.9962e-22)
(3.5 -6.16998e-15 -1.28179e-22)
(3.5 -6.1653e-15 -2.47079e-22)
(3.5 -5.53577e-15 -2.63524e-22)
(3.5 -6.31431e-15 -3.37351e-22)
(3.5 -5.48009e-15 -2.63824e-22)
(3.5 -4.04911e-15 -3.31792e-22)
(3.5 -3.13978e-15 -2.84626e-22)
(3.5 -9.37135e-16 -2.71735e-22)
(3.5 1.35212e-14 -2.81182e-22)
(3.5 2.12666e-13 -2.77163e-22)
(3.5 3.05622e-12 -2.63918e-22)
(3.5 4.34839e-11 -2.83088e-22)
(3.5 6.16774e-10 -2.75188e-22)
(3.5 8.68299e-09 -2.75527e-22)
(3.49997 1.18243e-07 -2.68088e-22)
(3.49954 1.40063e-06 -2.77716e-22)
(3.49218 -9.03183e-06 -2.69612e-22)
(3.36377 0.000683402 -2.79024e-22)
(2.42052 0.00624211 -3.63766e-22)
(1.33422 0.00820338 -2.58461e-22)
(1.01439 0.00979825 -1.38376e-21)
(0.941051 0.0104529 1.67869e-21)
(0.919287 0.0107959 6.69688e-21)
(0.909306 0.011178 -3.58702e-21)
(0.901061 0.0114382 7.73e-22)
(0.892567 0.0116469 -2.20592e-22)
(0.882902 0.0118171 -1.69234e-21)
(0.872545 0.0119629 -8.26129e-21)
(0.8629 0.0121239 -2.48833e-21)
(0.854245 0.0123587 -6.20714e-21)
(0.846504 0.012614 2.69501e-21)
(0.838499 0.0128544 2.85536e-21)
(0.829739 0.0130731 2.59323e-21)
(0.81972 0.0132366 1.17803e-21)
(0.808986 0.0133641 -6.05752e-21)
(0.799185 0.0135052 -1.45066e-21)
(0.790717 0.0137233 -6.27032e-21)
(0.783327 0.0139628 -7.1154e-21)
(0.775309 0.0141946 4.23066e-21)
(0.766043 0.014404 -1.04462e-20)
(0.755135 0.0145579 2.42207e-21)
(0.744311 0.014685 -1.07727e-21)
(0.734672 0.014846 4.38413e-21)
(0.726651 0.0150444 -1.96103e-21)
(0.719037 0.0152398 -1.73972e-21)
(0.710443 0.0154195 -3.69404e-21)
(0.699892 0.015572 -1.50548e-21)
(0.688249 0.0156824 -1.96698e-21)
(0.677646 0.0158085 -1.28294e-21)
(0.66859 0.0159674 -1.12045e-21)
(0.660652 0.0161217 7.65627e-22)
(0.652074 0.0162625 -3.1147e-22)
(0.641687 0.0163808 1.33263e-21)
(0.629615 0.0164636 -1.38549e-21)
(0.618186 0.0165504 3.53056e-21)
(0.608264 0.016662 2.15469e-21)
(0.599584 0.0167723 -8.24986e-22)
(0.590437 0.0168741 1.38762e-21)
(0.579464 0.0169676 1.83476e-20)
(0.566854 0.0170476 -1.99628e-20)
(0.554819 0.0171483 2.56567e-20)
(0.544231 0.0172512 3.13775e-21)
(0.534575 0.0173426 -4.8204e-20)
(0.524266 0.0174243 1.10379e-19)
(0.511913 0.0175128 -1.85149e-19)
(0.498592 0.0176198 4.31263e-19)
(0.486012 0.0177587 -8.49093e-19)
(0.474742 0.017898 1.21972e-18)
(0.463639 0.0180322 -1.28694e-18)
(0.451241 0.0181658 1.20077e-18)
(0.437121 0.0183229 -1.57297e-18)
(0.423029 0.018537 3.85843e-18)
(0.40988 0.0187757 -1.24932e-17)
(0.397279 0.0190158 3.57689e-17)
(0.38382 0.0192816 -8.56386e-17)
(0.36857 0.0195959 1.58076e-16)
(0.353004 0.0199579 -2.10046e-16)
(0.338033 0.0203692 1.7523e-16)
(0.323536 0.0208232 -4.27488e-17)
(0.308181 0.0213461 5.41736e-17)
(0.291193 0.0219681 -1.00455e-15)
(0.273842 0.0226621 3.77546e-15)
(0.256914 0.0234262 -7.09861e-15)
(0.240065 0.0243017 7.62289e-15)
(0.221947 0.0253357 -6.42615e-15)
(0.202452 0.0265593 1.04124e-14)
(0.1825 0.0279413 -8.46225e-15)
(0.162564 0.0295251 -3.69e-14)
(0.141884 0.0313215 1.15735e-13)
(0.11931 0.0335848 -7.49696e-14)
(0.0952693 0.0362721 -2.07212e-13)
(0.0702549 0.0399597 6.57427e-14)
(0.0430815 0.0430549 2.57178e-13)
(0.0167265 0.0520597 -2.03258e-13)
(3.5 7.28048e-16 4.40143e-23)
(3.5 2.91624e-16 -6.71605e-23)
(3.5 4.20303e-16 -5.20315e-23)
(3.5 1.17194e-15 -1.66186e-23)
(3.5 1.56056e-15 2.93168e-23)
(3.5 -9.1658e-16 6.84467e-24)
(3.5 -2.57892e-15 -5.99974e-24)
(3.5 -1.80356e-15 -2.32819e-23)
(3.5 -3.93773e-15 6.16408e-23)
(3.5 -2.95046e-15 -2.75043e-24)
(3.5 -5.59658e-16 1.60684e-22)
(3.5 4.1695e-16 -1.40112e-22)
(3.5 -1.42558e-15 -1.18544e-22)
(3.5 -1.51767e-15 -1.1972e-22)
(3.5 -4.06718e-15 5.17121e-23)
(3.5 -5.37534e-15 -1.479e-23)
(3.5 -3.98688e-15 -1.92326e-23)
(3.5 -4.14714e-15 -7.91974e-23)
(3.5 -4.94048e-15 -5.26443e-23)
(3.5 -4.66458e-15 -9.91695e-23)
(3.5 -1.46495e-15 -1.67217e-22)
(3.5 4.12958e-15 -4.47704e-22)
(3.5 6.13482e-15 -1.54844e-22)
(3.5 3.53956e-15 -2.71886e-22)
(3.5 -4.22423e-16 -5.03997e-22)
(3.5 -3.45475e-15 -3.80237e-22)
(3.5 -5.3065e-15 -3.98098e-22)
(3.5 -7.15735e-15 -4.42605e-22)
(3.5 -7.98024e-15 -4.17155e-22)
(3.5 -9.56975e-15 -2.58983e-22)
(3.5 -7.04852e-15 -2.93375e-22)
(3.5 -5.2124e-15 -2.57617e-22)
(3.5 -2.08783e-15 -2.76461e-22)
(3.5 2.54903e-14 -2.23402e-22)
(3.5 4.14393e-13 -2.50648e-22)
(3.5 6.37076e-12 -2.25305e-22)
(3.5 9.7995e-11 -2.25844e-22)
(3.5 1.50405e-09 -2.28882e-22)
(3.5 2.29303e-08 -2.29365e-22)
(3.49997 3.42132e-07 -2.28913e-22)
(3.49955 4.54266e-06 -2.2729e-22)
(3.49241 -1.39707e-05 -2.09831e-22)
(3.36596 0.00218945 -2.28657e-22)
(2.42702 0.0151451 -2.94783e-22)
(1.33611 0.0174843 -3.31808e-22)
(1.01421 0.01921 4.85643e-21)
(0.940128 0.0196818 5.78797e-21)
(0.918246 0.0199159 1.3948e-20)
(0.908288 0.0203197 9.17592e-21)
(0.900025 0.0206415 1.55404e-20)
(0.891481 0.0209349 3.59501e-21)
(0.881704 0.0212196 9.74914e-21)
(0.871312 0.0214738 1.05583e-20)
(0.861713 0.0217416 1.69753e-21)
(0.853149 0.0220978 1.42846e-20)
(0.845441 0.0224807 -7.22188e-21)
(0.837379 0.0228414 1.04374e-21)
(0.828537 0.0231792 -1.10814e-20)
(0.818391 0.0234831 -9.66295e-21)
(0.807634 0.0237198 3.80826e-21)
(0.79789 0.0239833 -1.96341e-20)
(0.789542 0.0243394 -3.11302e-21)
(0.782189 0.0247042 4.90738e-21)
(0.774138 0.0250395 -1.31324e-20)
(0.764766 0.0253652 -1.28745e-20)
(0.753761 0.02564 -9.54304e-21)
(0.742936 0.0258603 -9.26582e-21)
(0.733351 0.0261205 -3.86282e-21)
(0.725419 0.0264363 1.35674e-21)
(0.717795 0.0267363 4.85852e-21)
(0.709143 0.027012 9.31109e-22)
(0.69846 0.0272642 2.16385e-21)
(0.686773 0.0274407 1.09848e-20)
(0.676217 0.0276297 7.09145e-21)
(0.667227 0.0278637 -1.08021e-21)
(0.659308 0.0281058 1.62267e-20)
(0.650679 0.0283147 1.90544e-21)
(0.640177 0.0285085 5.2569e-21)
(0.628044 0.0286415 -3.45509e-21)
(0.616629 0.0287603 8.59074e-21)
(0.60677 0.0289181 7.36057e-21)
(0.598098 0.0290821 4.39469e-22)
(0.588902 0.0292296 -1.96501e-20)
(0.577829 0.0293758 7.91605e-20)
(0.565166 0.0294812 -1.25703e-19)
(0.553137 0.0295949 1.28422e-19)
(0.542574 0.0297394 -4.68593e-21)
(0.532893 0.0298797 -2.45784e-19)
(0.522502 0.0299955 3.62164e-19)
(0.510035 0.0301269 -2.89538e-19)
(0.496693 0.0302521 6.97421e-19)
(0.484143 0.0304503 -2.86873e-18)
(0.472883 0.0306762 5.31435e-18)
(0.461725 0.0308944 -5.53441e-18)
(0.449223 0.0311069 6.74264e-18)
(0.435065 0.0313444 -1.67248e-17)
(0.420974 0.0316577 4.56259e-17)
(0.407825 0.0320327 -1.2667e-16)
(0.395154 0.0324263 3.46823e-16)
(0.381573 0.0328557 -8.78612e-16)
(0.366224 0.0333633 1.81365e-15)
(0.35058 0.033949 -2.756e-15)
(0.335542 0.0346153 2.25938e-15)
(0.320943 0.0353404 2.63932e-15)
(0.305443 0.0361712 -1.65378e-14)
(0.2883 0.0371521 3.8893e-14)
(0.270802 0.0382982 -5.1591e-14)
(0.253718 0.0395589 2.77581e-14)
(0.23675 0.0409449 1.20587e-14)
(0.218563 0.042563 5.98681e-14)
(0.19901 0.0445218 -3.11344e-13)
(0.179008 0.0467795 3.02501e-13)
(0.159061 0.0494308 6.13915e-13)
(0.13846 0.0524556 -1.85382e-12)
(0.116157 0.0562483 7.89958e-13)
(0.0925351 0.0606779 5.41175e-12)
(0.0683273 0.0667463 -1.52909e-13)
(0.0421346 0.0720763 -6.55638e-12)
(0.0170843 0.0826345 -9.95307e-12)
(3.5 1.28826e-15 -5.84377e-23)
(3.5 4.56415e-15 1.32889e-23)
(3.5 3.90168e-15 1.04873e-22)
(3.5 3.49821e-15 1.34633e-22)
(3.5 2.62006e-15 -7.3587e-23)
(3.5 1.49982e-15 -1.10682e-22)
(3.5 -3.79668e-16 -6.39339e-23)
(3.5 -2.87156e-16 -1.01144e-22)
(3.5 1.24267e-15 -6.86052e-23)
(3.5 7.14853e-16 -7.18135e-23)
(3.5 1.44732e-15 -2.38321e-22)
(3.5 2.02498e-15 -2.77251e-22)
(3.5 -1.94961e-15 -2.40031e-22)
(3.5 -2.29392e-15 -2.68115e-22)
(3.5 -4.71706e-15 -8.84921e-25)
(3.5 -6.29402e-15 2.97073e-23)
(3.5 -3.08062e-15 -4.85943e-23)
(3.5 -1.31718e-15 1.93298e-23)
(3.5 -1.96516e-15 -6.7113e-22)
(3.5 -1.75451e-15 -7.31384e-23)
(3.5 -7.98612e-16 -6.4927e-23)
(3.5 4.40353e-16 1.37816e-22)
(3.5 3.44853e-15 -2.67136e-23)
(3.5 8.60308e-15 1.56072e-22)
(3.5 4.0157e-15 1.55661e-22)
(3.5 -6.78687e-17 -1.84923e-22)
(3.5 -4.39657e-15 1.27062e-23)
(3.5 -6.1025e-15 1.3123e-22)
(3.5 -4.74697e-15 2.10891e-22)
(3.5 -8.44304e-15 -1.15697e-22)
(3.5 -8.94724e-15 -5.58172e-23)
(3.5 -7.1361e-15 -4.89612e-23)
(3.5 -2.49453e-15 -5.26269e-23)
(3.5 3.48062e-14 -5.51701e-23)
(3.5 5.93604e-13 -2.29548e-23)
(3.5 9.26133e-12 -2.48118e-23)
(3.5 1.43785e-10 -4.4565e-23)
(3.5 2.23099e-09 -1.1609e-23)
(3.5 3.45295e-08 -1.59824e-23)
(3.49997 5.23413e-07 -3.03671e-23)
(3.49958 6.99062e-06 -3.6776e-23)
(3.49287 -2.65936e-05 -4.84788e-23)
(3.37033 0.00362094 6.58341e-24)
(2.44021 0.0226302 -2.19881e-22)
(1.34187 0.025821 -3.87812e-22)
(1.01801 0.0281155 -5.83352e-21)
(0.94335 0.0286758 -2.20929e-21)
(0.921341 0.0289364 -9.4595e-21)
(0.911238 0.0294916 -2.41246e-20)
(0.902743 0.029999 -3.96976e-21)
(0.89396 0.0304757 -2.40237e-20)
(0.883931 0.0309109 -1.08889e-21)
(0.873466 0.0312933 -2.18125e-20)
(0.863861 0.031702 1.58517e-21)
(0.855397 0.032211 -1.45341e-20)
(0.847731 0.0327227 8.32737e-21)
(0.83964 0.0331969 1.49475e-20)
(0.830712 0.0336396 1.67513e-20)
(0.82046 0.0340158 1.83502e-20)
(0.809759 0.0343682 1.9422e-20)
(0.800146 0.0347994 2.11992e-20)
(0.791989 0.0353135 3.60154e-20)
(0.784677 0.035799 1.66295e-20)
(0.776581 0.0362343 3.68837e-20)
(0.767085 0.0366243 2.92602e-20)
(0.756009 0.0369542 3.05898e-20)
(0.745251 0.0372801 3.15162e-20)
(0.73582 0.0377004 1.20184e-20)
(0.728034 0.0381535 2.78282e-20)
(0.720402 0.0385536 -2.67535e-21)
(0.71165 0.0389117 2.95106e-21)
(0.700806 0.0392069 -2.54913e-21)
(0.689127 0.0394411 1.07778e-20)
(0.678697 0.0397314 4.34774e-21)
(0.669851 0.0400764 -2.41892e-22)
(0.661962 0.0403977 5.41357e-21)
(0.653267 0.0406689 9.33149e-22)
(0.642595 0.0408964 -5.56871e-21)
(0.630433 0.041057 2.81013e-20)
(0.619099 0.0412588 -4.13267e-20)
(0.60936 0.0415015 4.57181e-20)
(0.60069 0.0417247 3.77671e-21)
(0.591406 0.041916 -2.39109e-19)
(0.58017 0.0420871 8.22218e-19)
(0.567463 0.0422248 -1.57683e-18)
(0.55547 0.0424112 1.51124e-18)
(0.544949 0.0426243 7.35449e-19)
(0.535188 0.042816 -4.88233e-18)
(0.524651 0.043004 7.42756e-18)
(0.512013 0.0431683 -3.12524e-18)
(0.498639 0.0433202 -1.04063e-18)
(0.486121 0.0435861 -1.56308e-17)
(0.474835 0.0438929 4.33267e-17)
(0.46353 0.0442056 -2.80648e-17)
(0.450778 0.0445232 -3.16056e-17)
(0.436454 0.0448717 3.18726e-17)
(0.422247 0.0452964 4.36566e-17)
(0.408994 0.0458075 -3.9032e-17)
(0.396121 0.0463625 -2.34183e-16)
(0.382253 0.0469576 9.18791e-16)
(0.366648 0.0476562 -2.0476e-15)
(0.350778 0.0484802 3.39409e-15)
(0.335531 0.0494009 -2.66527e-15)
(0.320694 0.0503947 -6.85359e-15)
(0.304936 0.0515281 3.76942e-14)
(0.287563 0.0528747 -8.48225e-14)
(0.269847 0.0544636 6.38254e-14)
(0.252511 0.0562094 1.37268e-13)
(0.235282 0.0581113 -2.83833e-13)
(0.216885 0.0603112 -4.42567e-13)
(0.197191 0.062983 1.97674e-12)
(0.177096 0.0660627 -1.20824e-12)
(0.157122 0.0696645 -4.00896e-12)
(0.136536 0.0737548 8.72628e-12)
(0.114436 0.0788835 -1.50222e-12)
(0.091171 0.0847889 -3.1091e-11)
(0.0678151 0.0928629 -2.28537e-11)
(0.0427669 0.100191 -3.67361e-12)
(0.0187356 0.111121 7.21819e-12)
(3.5 1.42346e-15 -3.60821e-23)
(3.5 5.69416e-15 1.43057e-22)
(3.5 8.34183e-15 -9.35054e-23)
(3.5 5.67256e-15 1.68241e-22)
(3.5 4.03285e-15 1.31588e-22)
(3.5 3.43206e-15 3.57552e-22)
(3.5 2.3834e-15 6.99383e-23)
(3.5 1.70867e-15 -2.48017e-22)
(3.5 2.30634e-15 2.4531e-23)
(3.5 -2.56366e-17 -1.3219e-22)
(3.5 -5.97505e-18 -7.42362e-22)
(3.5 1.80754e-15 1.92493e-22)
(3.5 -9.7946e-16 -9.64375e-23)
(3.5 -2.0982e-15 -1.13187e-22)
(3.5 -2.22852e-15 -5.08007e-22)
(3.5 -2.81487e-15 -4.93981e-22)
(3.5 -6.17808e-15 -6.69335e-23)
(3.5 -2.5895e-15 -6.7374e-24)
(3.5 -7.58011e-16 2.34618e-22)
(3.5 7.0886e-16 -7.24154e-22)
(3.5 1.36984e-15 -6.27174e-22)
(3.5 1.44255e-15 -4.22427e-22)
(3.5 5.06705e-15 -5.97609e-22)
(3.5 2.93768e-15 -7.01593e-22)
(3.5 -9.55236e-16 -3.26172e-22)
(3.5 -3.52103e-15 -4.6239e-23)
(3.5 -4.81053e-15 -1.90179e-22)
(3.5 -4.01493e-15 -3.68206e-22)
(3.5 -5.07399e-15 -2.95344e-22)
(3.5 -8.83027e-15 4.39943e-22)
(3.5 -1.13333e-14 3.07645e-22)
(3.5 -1.09763e-14 2.2187e-22)
(3.5 -6.74794e-15 2.57538e-22)
(3.5 3.6937e-14 1.30328e-22)
(3.5 6.63719e-13 9.13006e-23)
(3.5 1.02922e-11 2.34405e-22)
(3.5 1.58642e-10 2.07897e-22)
(3.5 2.44325e-09 1.67064e-22)
(3.5 3.7499e-08 2.25725e-22)
(3.49998 5.6222e-07 2.01526e-22)
(3.49961 7.27117e-06 1.81478e-22)
(3.49341 -4.25134e-05 2.0678e-22)
(3.37552 0.00414493 2.57078e-22)
(2.45623 0.0277641 -1.13842e-21)
(1.34798 0.0329811 -1.8567e-21)
(1.02082 0.0367273 5.10059e-21)
(0.945308 0.0378603 -4.16994e-22)
(0.923404 0.038422 2.1059e-20)
(0.913533 0.0391606 -2.0065e-21)
(0.905186 0.0397506 -2.44698e-21)
(0.896489 0.0403031 -3.0676e-24)
(0.886477 0.04081 4.30061e-21)
(0.87613 0.0412573 2.15493e-20)
(0.866678 0.0417324 7.17346e-21)
(0.858448 0.042305 9.09487e-21)
(0.850966 0.0428853 7.25754e-22)
(0.843001 0.0434588 -2.83324e-21)
(0.834093 0.0440281 5.2446e-21)
(0.823733 0.0445284 6.74025e-21)
(0.813076 0.0449595 3.97863e-21)
(0.803586 0.0454623 -8.44092e-21)
(0.795666 0.0460715 6.1489e-21)
(0.788506 0.0466652 -1.09789e-21)
(0.780426 0.0472325 -7.352e-21)
(0.770808 0.0477535 -1.1017e-21)
(0.759644 0.0481624 -9.87208e-21)
(0.749005 0.0485418 -1.60184e-21)
(0.739819 0.0490158 -8.32887e-21)
(0.732299 0.0495457 8.45179e-21)
(0.724742 0.0500448 -6.80639e-21)
(0.715936 0.050513 1.06414e-20)
(0.704917 0.0508899 6.79041e-23)
(0.693331 0.0511476 -4.06547e-21)
(0.683104 0.0514531 2.71156e-20)
(0.674561 0.051836 -6.19499e-21)
(0.666759 0.0522238 9.81379e-21)
(0.658087 0.0525746 -2.45461e-20)
(0.647275 0.0528699 1.21544e-20)
(0.635133 0.0530321 4.54369e-20)
(0.623995 0.0532346 -7.54352e-20)
(0.614514 0.0534907 6.67399e-20)
(0.60594 0.0537711 6.46791e-20)
(0.596636 0.0540392 -7.53968e-19)
(0.585264 0.054265 2.61913e-18)
(0.572603 0.054398 -4.95806e-18)
(0.560768 0.0545869 3.47012e-18)
(0.550412 0.0548413 9.16317e-18)
(0.540603 0.0551336 -3.68385e-17)
(0.529933 0.0554293 6.30451e-17)
(0.517148 0.0556791 -3.44525e-17)
(0.503805 0.0558803 -3.56996e-17)
(0.491357 0.0561878 -3.56846e-17)
(0.480056 0.0566044 2.70515e-16)
(0.468534 0.0571174 -1.62308e-16)
(0.455411 0.0576899 -8.67915e-16)
(0.440799 0.058285 2.06752e-15)
(0.426393 0.0589258 -1.88547e-15)
(0.413017 0.0596322 -3.49027e-16)
(0.399916 0.0604234 3.29685e-15)
(0.385641 0.0613251 -2.08874e-15)
(0.369634 0.0623507 -3.10313e-15)
(0.353421 0.0635112 8.03211e-17)
(0.337874 0.0647562 1.94114e-14)
(0.322705 0.0660526 -4.17254e-14)
(0.306622 0.0674838 -3.73271e-14)
(0.288983 0.0691865 3.46029e-13)
(0.271008 0.0712076 -2.79495e-13)
(0.253381 0.0734215 -1.08004e-12)
(0.235848 0.0758376 1.74281e-12)
(0.217196 0.0786207 2.86478e-12)
(0.197345 0.0819724 -7.85855e-12)
(0.177164 0.0858022 -1.29474e-12)
(0.157184 0.0902841 1.52715e-11)
(0.136619 0.0953507 -1.52382e-11)
(0.114735 0.101684 -1.80176e-12)
(0.0917594 0.108868 7.33288e-11)
(0.0690946 0.118588 1.12543e-10)
(0.0448382 0.127779 9.94918e-11)
(0.0213368 0.138715 8.64143e-11)
(3.5 -5.35221e-16 1.25761e-22)
(3.5 3.05172e-15 1.97596e-23)
(3.5 1.00686e-14 1.24194e-22)
(3.5 1.04558e-14 -1.10967e-22)
(3.5 7.32208e-15 -4.15267e-22)
(3.5 4.04878e-15 -1.15516e-21)
(3.5 3.81599e-15 -9.57962e-22)
(3.5 6.51116e-15 1.77477e-23)
(3.5 4.05884e-15 -7.87743e-22)
(3.5 2.31124e-15 -9.41848e-22)
(3.5 1.46399e-15 2.97193e-22)
(3.5 -1.14828e-15 -9.16494e-22)
(3.5 -7.82076e-16 -1.19611e-21)
(3.5 1.09269e-15 -4.12122e-22)
(3.5 4.04673e-15 -6.57787e-22)
(3.5 4.22952e-15 -2.79361e-22)
(3.5 -3.67303e-15 -2.14124e-21)
(3.5 -8.85488e-15 2.28656e-22)
(3.5 -8.33298e-15 -6.25141e-22)
(3.5 -5.97627e-15 -8.63932e-22)
(3.5 -4.14687e-15 -7.04751e-22)
(3.5 -1.21302e-16 -7.94659e-22)
(3.5 3.51793e-15 -5.60772e-22)
(3.5 3.95486e-15 -5.87393e-22)
(3.5 2.95373e-15 9.13541e-23)
(3.5 3.31719e-15 5.03767e-22)
(3.5 3.56883e-15 4.94495e-22)
(3.5 3.5369e-15 4.04385e-22)
(3.5 -6.88835e-16 3.12881e-22)
(3.5 -5.16781e-15 1.6822e-22)
(3.5 -6.53864e-15 2.86075e-22)
(3.5 -6.00756e-15 2.28527e-22)
(3.5 -3.3753e-15 2.90847e-22)
(3.5 3.79066e-14 2.83077e-22)
(3.5 6.87759e-13 3.17468e-22)
(3.5 1.06855e-11 3.30949e-22)
(3.5 1.64704e-10 3.33501e-22)
(3.5 2.54005e-09 3.31379e-22)
(3.5 3.91071e-08 2.95556e-22)
(3.49998 5.87562e-07 2.59173e-22)
(3.49965 7.41722e-06 2.37726e-22)
(3.49397 -6.28215e-05 2.17451e-22)
(3.38127 0.00484861 5.27898e-22)
(2.47515 0.0338116 1.52736e-21)
(1.3543 0.041014 3.91525e-21)
(1.02213 0.0460516 -9.6362e-21)
(0.945036 0.0477274 1.13091e-21)
(0.923004 0.0485954 -1.57943e-21)
(0.913106 0.0495486 3.16813e-20)
(0.904615 0.0502177 1.44184e-20)
(0.895562 0.0508401 4.19033e-20)
(0.885173 0.0514256 -1.39764e-20)
(0.874765 0.0519681 2.68422e-20)
(0.865244 0.0525843 -7.54921e-21)
(0.85702 0.0532967 -2.9607e-21)
(0.849374 0.0539788 -8.55729e-21)
(0.841071 0.0546289 -1.59174e-20)
(0.831726 0.0552562 -1.76825e-20)
(0.820947 0.0558216 -1.06352e-20)
(0.810285 0.0563623 -1.69372e-21)
(0.800809 0.0569969 2.81551e-21)
(0.792977 0.0577054 -2.86012e-20)
(0.785632 0.0583423 -1.69251e-20)
(0.777298 0.0589352 -1.31985e-20)
(0.767377 0.0595094 -1.86114e-20)
(0.756105 0.0599911 -2.05198e-20)
(0.745615 0.0604915 -1.19789e-20)
(0.736641 0.0611017 -2.49498e-20)
(0.729266 0.0617259 7.35909e-21)
(0.721605 0.0622726 -2.70673e-20)
(0.7126 0.0627701 3.23568e-21)
(0.701364 0.0631848 -5.68006e-21)
(0.689957 0.0635422 -3.64099e-20)
(0.67997 0.0639759 -3.03198e-21)
(0.671749 0.0644634 -1.00122e-20)
(0.664041 0.0649178 3.07225e-21)
(0.655302 0.0653199 -3.9764e-21)
(0.644254 0.0656511 -2.96579e-20)
(0.632209 0.0658745 5.06165e-20)
(0.621421 0.0661597 -1.84698e-19)
(0.612311 0.0665222 1.77698e-19)
(0.603976 0.0669058 3.43273e-19)
(0.594773 0.0672532 -2.88457e-18)
(0.583253 0.0675448 1.0441e-17)
(0.570743 0.0677078 -2.07201e-17)
(0.559324 0.0679542 7.94632e-18)
(0.549511 0.0682819 8.91815e-17)
(0.540137 0.0686648 -3.42276e-16)
(0.529633 0.069038 6.48805e-16)
(0.516863 0.0693717 -1.43659e-16)
(0.50383 0.0696202 -2.41739e-15)
(0.491862 0.0699494 5.86626e-15)
(0.481158 0.0703521 -5.40373e-15)
(0.470154 0.0708626 -3.03047e-15)
(0.457323 0.0715029 1.73958e-14)
(0.443019 0.0721964 -2.64963e-14)
(0.429001 0.0729905 1.49192e-14)
(0.416041 0.0738418 2.32963e-14)
(0.403265 0.0747949 -6.26809e-14)
(0.389193 0.0759157 3.83716e-14)
(0.373379 0.0772049 7.49222e-14)
(0.357337 0.0786782 -1.84748e-13)
(0.341876 0.080303 5.46675e-14)
(0.326609 0.0820262 6.45015e-13)
(0.31022 0.083928 -9.29743e-13)
(0.29225 0.0860868 -2.2249e-12)
(0.273933 0.0885661 3.89857e-12)
(0.255977 0.0912528 6.06036e-12)
(0.238096 0.0941758 -1.10327e-11)
(0.219142 0.0975217 -1.66434e-11)
(0.199095 0.10151 2.28041e-11)
(0.17879 0.106022 3.13179e-11)
(0.15878 0.111297 -2.46472e-11)
(0.138242 0.117216 -8.69637e-12)
(0.11662 0.124642 -3.58746e-12)
(0.0939925 0.133034 -8.77033e-11)
(0.0718709 0.144187 -1.65595e-10)
(0.048222 0.155182 -1.42727e-10)
(0.0248301 0.166035 -1.10779e-10)
(3.5 -6.97753e-16 3.6181e-22)
(3.5 1.20231e-15 3.03636e-22)
(3.5 3.02627e-15 4.36151e-24)
(3.5 3.98063e-15 -2.03284e-22)
(3.5 2.64646e-15 4.86226e-22)
(3.5 1.25412e-15 9.43417e-22)
(3.5 4.39398e-15 -4.57561e-22)
(3.5 6.12577e-15 1.06971e-21)
(3.5 5.88192e-15 -1.29685e-22)
(3.5 5.21389e-15 -1.78829e-22)
(3.5 2.31799e-15 -2.36796e-22)
(3.5 -5.87766e-16 3.85347e-22)
(3.5 3.15985e-15 1.03829e-21)
(3.5 7.70702e-15 -4.9543e-22)
(3.5 1.02171e-14 -1.14095e-21)
(3.5 4.62794e-15 -5.98782e-22)
(3.5 3.21318e-16 1.35165e-22)
(3.5 -7.33246e-15 9.99536e-23)
(3.5 -9.50571e-15 1.17902e-22)
(3.5 -9.54544e-15 1.24534e-21)
(3.5 -5.62346e-15 1.15943e-21)
(3.5 -3.34208e-15 1.0471e-21)
(3.5 5.95162e-16 1.05673e-21)
(3.5 3.7668e-15 1.17319e-21)
(3.5 6.55204e-15 6.55769e-22)
(3.5 8.60841e-15 4.71456e-22)
(3.5 6.07795e-15 2.31919e-22)
(3.5 2.86547e-15 6.15132e-22)
(3.5 1.27754e-15 5.92888e-22)
(3.5 4.67353e-16 3.46591e-22)
(3.5 6.53152e-17 5.88585e-22)
(3.5 -2.50761e-16 7.81626e-22)
(3.5 2.65048e-15 8.94712e-22)
(3.5 4.89154e-14 9.18937e-22)
(3.5 7.69006e-13 9.29371e-22)
(3.5 1.19268e-11 9.97953e-22)
(3.5 1.84734e-10 1.06381e-21)
(3.5 2.86696e-09 1.12498e-21)
(3.5 4.44792e-08 1.21306e-21)
(3.49998 6.71936e-07 1.29623e-21)
(3.49969 8.28381e-06 1.28338e-21)
(3.49464 -8.57325e-05 1.206e-21)
(3.38824 0.00601974 1.23425e-21)
(2.49942 0.0418772 1.4058e-21)
(1.36207 0.0511079 1.11779e-21)
(1.02288 0.056952 1.14993e-21)
(0.943608 0.0586632 -3.55751e-21)
(0.921255 0.0597146 -2.90798e-20)
(0.911318 0.0607023 -2.36345e-20)
(0.902762 0.0613729 -4.4262e-20)
(0.89353 0.0620515 -3.63058e-20)
(0.883027 0.0627473 -4.40464e-20)
(0.872738 0.063455 -4.16738e-20)
(0.863395 0.0642485 -2.28227e-20)
(0.855402 0.0651074 -1.69574e-20)
(0.847836 0.0658925 -4.24154e-20)
(0.839554 0.066647 -5.57276e-21)
(0.830182 0.0673888 -6.73019e-21)
(0.819426 0.0680669 -1.88371e-20)
(0.808956 0.0687563 -1.36789e-20)
(0.799703 0.0695613 -2.15024e-20)
(0.79205 0.0703859 -3.81909e-21)
(0.78461 0.0711024 1.69255e-20)
(0.776122 0.0717745 6.33458e-21)
(0.765921 0.0724051 2.85877e-20)
(0.754576 0.0729642 1.7462e-20)
(0.744206 0.0736017 1.56022e-20)
(0.735375 0.0743269 1.59646e-20)
(0.72796 0.0749766 8.97799e-21)
(0.720076 0.0755275 1.24372e-20)
(0.710715 0.0760433 -1.7883e-21)
(0.699227 0.0764891 1.55794e-20)
(0.687844 0.0769331 -2.10609e-20)
(0.677932 0.0774497 5.19434e-21)
(0.66978 0.0779399 -1.41831e-21)
(0.661912 0.0783543 2.13738e-21)
(0.652851 0.0787259 -3.49662e-21)
(0.641428 0.0790448 3.53338e-20)
(0.629358 0.0793106 -9.66284e-20)
(0.618646 0.0796532 2.10599e-19)
(0.609683 0.0799881 -2.4118e-19)
(0.601271 0.0802933 -2.89998e-19)
(0.591814 0.0805791 3.41597e-18)
(0.57997 0.0808315 -1.54784e-17)
(0.567505 0.0810309 3.82949e-17)
(0.556308 0.0813151 -2.18491e-17)
(0.546767 0.0816102 -1.88391e-16)
(0.53747 0.0819284 7.86511e-16)
(0.526835 0.0822676 -1.28795e-15)
(0.514016 0.082606 -9.28568e-16)
(0.501192 0.082978 8.23919e-15)
(0.489601 0.0834491 -1.42503e-14)
(0.479222 0.0839787 5.64424e-15)
(0.46845 0.0846179 2.23991e-14)
(0.455733 0.085401 -6.11922e-14)
(0.441773 0.0862317 9.27595e-14)
(0.428326 0.0872022 -6.92835e-14)
(0.416028 0.0882867 -1.05802e-13)
(0.403794 0.0894911 4.12713e-13)
(0.390114 0.0908578 -4.1769e-13)
(0.374761 0.0923855 -2.66593e-13)
(0.359238 0.0941272 1.40242e-12)
(0.344323 0.0960845 -2.10217e-12)
(0.329468 0.098238 -2.54789e-12)
(0.313352 0.100647 1.075e-11)
(0.295708 0.103324 8.49825e-12)
(0.277655 0.106304 -3.33215e-11)
(0.259807 0.109588 -3.10869e-11)
(0.2417 0.113182 6.22138e-11)
(0.22234 0.11714 9.36484e-11)
(0.202016 0.121717 -3.88656e-11)
(0.181569 0.126819 -1.59179e-10)
(0.161493 0.132787 -7.17401e-11)
(0.140893 0.13944 3.91293e-11)
(0.11946 0.147837 5.12194e-11)
(0.0971945 0.157367 4.15104e-11)
(0.0754423 0.169861 1.98285e-11)
(0.0526032 0.182721 -2.88381e-11)
(0.0289827 0.193402 -5.42253e-11)
(3.5 6.44532e-16 -6.47735e-22)
(3.5 -2.11809e-15 -6.63601e-22)
(3.5 -3.89952e-15 -5.56155e-22)
(3.5 -2.66042e-15 -7.71921e-22)
(3.5 7.90499e-16 -1.16922e-21)
(3.5 5.06717e-15 -6.04545e-22)
(3.5 6.76338e-15 2.43166e-22)
(3.5 5.75959e-15 -6.68038e-22)
(3.5 5.99598e-15 -2.46222e-22)
(3.5 5.02321e-15 -3.76223e-22)
(3.5 2.32207e-15 -4.02668e-23)
(3.5 2.04755e-15 1.43766e-22)
(3.5 4.97835e-15 1.26079e-21)
(3.5 6.11326e-15 2.79593e-21)
(3.5 4.19688e-15 2.98878e-21)
(3.5 1.36462e-15 2.36882e-21)
(3.5 -1.71442e-15 3.41915e-21)
(3.5 -4.23298e-15 1.64315e-21)
(3.5 -4.42051e-15 2.23644e-21)
(3.5 -3.48995e-15 3.13326e-21)
(3.5 -2.77692e-15 2.33924e-21)
(3.5 -5.43663e-15 1.70432e-21)
(3.5 -4.38222e-15 1.49995e-21)
(3.5 3.66039e-16 1.27907e-21)
(3.5 6.51186e-15 2.51361e-21)
(3.5 6.94021e-15 2.13758e-21)
(3.5 5.74876e-15 1.90379e-21)
(3.5 2.38648e-15 1.88403e-21)
(3.5 -4.60074e-17 1.99867e-21)
(3.5 -3.02855e-16 2.12216e-21)
(3.5 -4.28876e-16 1.91722e-21)
(3.5 -1.65382e-15 1.9036e-21)
(3.5 5.18094e-16 1.8082e-21)
(3.5 5.63194e-14 1.94037e-21)
(3.5 9.20592e-13 1.71431e-21)
(3.5 1.41659e-11 1.61955e-21)
(3.5 2.17471e-10 1.5939e-21)
(3.5 3.34294e-09 1.46434e-21)
(3.5 5.1743e-08 1.45915e-21)
(3.49998 7.82509e-07 1.51237e-21)
(3.49974 9.30048e-06 1.50674e-21)
(3.49553 -0.000112992 1.50782e-21)
(3.39766 0.00757725 1.22343e-21)
(2.53393 0.0513423 1.93886e-21)
(1.37422 0.0626752 1.93329e-21)
(1.02638 0.0690504 -5.91234e-21)
(0.944931 0.0708627 -1.66794e-20)
(0.922339 0.0720727 2.0691e-20)
(0.912304 0.0730832 -4.5711e-20)
(0.903613 0.0737568 8.80512e-21)
(0.894167 0.0744528 -2.97224e-21)
(0.883638 0.0751798 1.42116e-20)
(0.873548 0.0759629 1.32823e-20)
(0.864396 0.0768806 2.34875e-20)
(0.856596 0.077834 -1.00907e-20)
(0.849012 0.0786989 4.36444e-20)
(0.84064 0.0795144 2.24832e-21)
(0.831166 0.0802928 1.66277e-20)
(0.820464 0.08106 -1.5191e-20)
(0.81027 0.0818669 1.1725e-20)
(0.801324 0.0827909 -3.65376e-21)
(0.793893 0.0837057 -1.18543e-20)
(0.78639 0.0845004 -2.72823e-20)
(0.77777 0.0852445 1.35167e-20)
(0.767364 0.0859407 1.89996e-20)