/*--------------------------------*- C++ -*----------------------------------*\
| =========                 |                                                 |
| \\      /  F ield         | OpenFOAM: The Open Source CFD Toolbox           |
|  \\    /   O peration     | Version:  2.2.x                                 |
|   \\  /    A nd           | Web:      www.OpenFOAM.org                      |
|    \\/     M anipulation  |                                                 |
\*---------------------------------------------------------------------------*/
FoamFile
{
    version     2.0;
    format      ascii;
    class       volVectorField;
    location    "0.55";
    object      U;
}
// * * * * * * * * * * * * * * * * * * * * * * * * * * * * * * * * * * * * * //

dimensions      [0 1 -1 0 0 0 0];

internalField   nonuniform List<vector> 
14161
(
(1.50002 1.28507e-08 2.19954e-22)
(1.50002 -7.11123e-09 -1.43776e-21)
(1.50002 -1.18709e-09 -1.485e-21)
(1.50003 5.29018e-10 -2.24026e-21)
(1.50005 4.72147e-09 -1.33567e-21)
(1.50007 7.45011e-09 -3.78731e-21)
(1.5001 1.17825e-08 -5.51989e-22)
(1.50014 1.62943e-08 -2.01962e-21)
(1.5002 2.21515e-08 -6.4294e-22)
(1.50028 2.99065e-08 -1.38316e-21)
(1.50039 3.85192e-08 -1.5258e-21)
(1.50054 5.09126e-08 -5.94936e-22)
(1.50073 6.40736e-08 -1.75652e-21)
(1.50098 7.78143e-08 -1.02319e-22)
(1.50129 1.07319e-07 -8.23433e-22)
(1.50167 1.11837e-07 -5.56114e-22)
(1.50214 8.82367e-08 -1.3892e-21)
(1.50271 3.39036e-07 -1.83728e-21)
(1.50339 -1.43823e-07 -2.45713e-21)
(1.50417 3.28192e-07 -3.28772e-21)
(1.50508 6.03952e-07 -5.23437e-21)
(1.50611 -7.24847e-07 -4.92348e-21)
(1.50725 8.20666e-07 -6.94765e-21)
(1.50853 8.88012e-07 -7.49995e-21)
(1.5099 2.4064e-07 -9.69793e-21)
(1.51139 -2.01137e-06 -9.71972e-21)
(1.51296 -1.04035e-06 -1.14376e-20)
(1.51461 8.91329e-07 -1.25314e-20)
(1.51638 3.39772e-06 -1.31879e-20)
(1.51802 -3.16592e-06 -1.42957e-20)
(1.51969 -1.27765e-06 -1.48596e-20)
(1.52157 6.50832e-06 -1.53774e-20)
(1.52326 -5.86949e-06 -1.6295e-20)
(1.52479 -8.85297e-06 -1.68377e-20)
(1.52664 7.19465e-07 -1.72748e-20)
(1.52816 -1.98073e-05 -1.76025e-20)
(1.52955 -6.67587e-06 -1.80867e-20)
(1.53088 2.50492e-05 -1.86556e-20)
(1.53219 3.32834e-05 -1.87855e-20)
(1.53319 1.9797e-05 -1.93871e-20)
(1.53409 -1.58001e-05 -1.99952e-20)
(1.53492 -3.12904e-05 -1.9467e-20)
(1.53578 -1.62565e-05 -2.131e-20)
(1.53648 1.01279e-05 -1.86793e-20)
(1.53679 8.81343e-05 -2.50164e-20)
(1.53697 9.93412e-05 -8.40948e-21)
(1.53712 0.000150518 -5.03965e-20)
(1.53682 0.000225597 5.98485e-20)
(1.53596 0.000352581 -2.25961e-19)
(1.53488 0.000634609 7.65961e-19)
(1.53222 0.00125777 -2.35599e-18)
(1.52414 0.00233282 5.8246e-18)
(1.51817 0.00765625 -3.88631e-17)
(1.41118 0.0517856 1.13858e-15)
(0.570541 0.0896296 -5.72757e-15)
(0.336258 0.0580504 1.03132e-14)
(0.271726 5.38167e-06 -2.60807e-15)
(0.288356 -0.0483704 -1.10127e-14)
(0.348713 -0.0709965 2.65789e-14)
(0.412641 -0.0685128 -5.06105e-14)
(0.471741 -0.058967 -6.15201e-14)
(0.521986 -0.0448027 2.50893e-13)
(0.563656 -0.035674 -1.78868e-13)
(0.604005 -0.0304706 -5.13712e-13)
(0.637241 -0.0215162 6.08981e-13)
(0.664139 -0.0158567 1.01995e-12)
(0.684783 -0.0110998 -1.45704e-12)
(0.70084 -0.00855573 -1.09739e-12)
(0.712954 -0.00656756 1.42245e-12)
(0.722368 -0.00517652 1.27787e-12)
(0.729767 -0.00442225 -6.33238e-13)
(0.735766 -0.00383245 -1.31488e-12)
(0.740851 -0.0040419 -3.07674e-13)
(0.745699 -0.004859 7.7209e-13)
(0.752661 -0.00567002 7.02539e-13)
(0.760136 -0.0050893 6.59125e-15)
(0.763943 -0.00241135 -3.46162e-13)
(0.764967 0.00287401 -2.59711e-13)
(0.752314 0.0126518 -5.42535e-14)
(0.719653 0.0252502 1.19392e-13)
(0.664994 0.0359405 9.04678e-14)
(0.581271 0.0388315 -6.88532e-14)
(0.492988 0.0410108 -6.6038e-14)
(0.413806 0.03973 3.96571e-14)
(0.353794 0.0311061 3.97651e-14)
(0.311967 0.0239261 -9.58999e-16)
(0.286338 0.016642 -1.16064e-14)
(0.270773 0.0120329 -6.33993e-15)
(0.262705 0.00826251 -1.55177e-15)
(0.255889 0.0068803 1.47807e-15)
(0.248333 0.00690352 2.48737e-15)
(0.239432 0.0071279 1.67651e-15)
(0.229648 0.00815324 3.87701e-16)
(0.219375 0.00817627 -8.81639e-17)
(0.209175 0.00886873 -4.10405e-17)
(0.198853 0.00928305 -5.15595e-17)
(0.188004 0.0090331 -9.02665e-17)
(0.176888 0.00890754 3.5913e-16)
(0.166602 0.00861313 7.63898e-16)
(0.156969 0.0079643 4.00318e-16)
(0.147734 0.00714186 -2.40449e-16)
(0.138831 0.00627546 -4.94769e-16)
(0.130445 0.00580725 -3.5124e-16)
(0.121826 0.00560502 -1.7239e-16)
(0.11219 0.00650195 -6.23674e-17)
(0.10173 0.00640227 1.2881e-17)
(0.0926725 0.00612315 4.78519e-17)
(0.0847772 0.00567021 5.24677e-17)
(0.0771088 0.00610609 3.12759e-17)
(0.0689268 0.00589272 9.12462e-18)
(0.0612909 0.00587085 -8.94958e-18)
(0.0532686 0.00555715 -8.86836e-18)
(0.0456869 0.00554618 -5.07434e-18)
(0.038092 0.00547999 -6.07535e-18)
(0.0304451 0.00611678 -2.20803e-18)
(0.0226578 0.00556255 6.16383e-18)
(0.0153879 0.00536392 4.34228e-18)
(0.00894494 0.00366084 3.89653e-18)
(0.0029267 0.00346513 1.20651e-18)
(1.50002 1.00306e-08 -1.88188e-22)
(1.50002 -7.04646e-09 2.88261e-21)
(1.50002 -3.88215e-09 5.52199e-21)
(1.50003 -9.62469e-10 3.98295e-21)
(1.50005 2.86076e-09 4.05124e-21)
(1.50007 5.41451e-09 4.89678e-21)
(1.5001 8.9169e-09 4.77548e-21)
(1.50014 1.24108e-08 4.25479e-21)
(1.5002 1.70614e-08 5.64804e-21)
(1.50028 2.30305e-08 4.33429e-21)
(1.5004 3.08213e-08 5.01157e-21)
(1.50054 4.03583e-08 3.47492e-21)
(1.50073 5.20852e-08 6.10967e-21)
(1.50098 7.12625e-08 2.98232e-21)
(1.50129 7.22302e-08 2.14189e-21)
(1.50167 1.65741e-07 2.25032e-21)
(1.50215 -5.96692e-09 6.14916e-21)
(1.50271 4.48012e-07 4.7294e-21)
(1.50339 1.60679e-08 1.05396e-20)
(1.50418 2.46022e-07 1.24001e-20)
(1.50509 7.33658e-07 1.80706e-20)
(1.50611 4.12284e-07 2.27437e-20)
(1.50727 8.32695e-07 2.9252e-20)
(1.50853 8.19478e-07 3.64754e-20)
(1.50991 1.75287e-06 4.41398e-20)
(1.5114 -2.11735e-06 4.59239e-20)
(1.51296 -8.9298e-07 5.53044e-20)
(1.51461 -6.64199e-07 6.37588e-20)
(1.51638 1.24537e-05 6.71922e-20)
(1.51802 9.61162e-06 7.21653e-20)
(1.51979 -3.5665e-06 7.48585e-20)
(1.52163 -8.9753e-08 7.74282e-20)
(1.52333 -1.41578e-06 8.16877e-20)
(1.52485 -2.00715e-06 8.47402e-20)
(1.52663 1.52729e-05 8.82834e-20)
(1.52819 5.56089e-06 9.08006e-20)
(1.52953 -1.08989e-05 9.38782e-20)
(1.53072 9.48258e-06 9.57183e-20)
(1.53206 2.169e-05 9.76873e-20)
(1.53338 1.5658e-05 9.88998e-20)
(1.53443 -2.38523e-05 1.00505e-19)
(1.53535 -3.46658e-05 1.02225e-19)
(1.53607 -6.92153e-05 1.0535e-19)
(1.53656 -5.6994e-05 1.02468e-19)
(1.53692 -1.43211e-06 1.08141e-19)
(1.53728 1.36158e-05 1.07486e-19)
(1.53765 5.84459e-05 1.02632e-19)
(1.53805 0.000114665 1.14245e-19)
(1.53835 0.000259405 8.8983e-20)
(1.53793 0.000503578 1.32465e-19)
(1.53773 0.00109935 -3.58704e-19)
(1.53451 0.00317202 -1.11036e-18)
(1.53661 0.0138363 -1.31104e-16)
(1.47958 0.137252 -8.94742e-16)
(0.667269 0.255067 -3.42777e-16)
(0.458503 0.120105 -5.53365e-15)
(0.402165 0.00588429 5.82538e-14)
(0.404052 -0.0488278 -1.32882e-13)
(0.448787 -0.072971 1.37704e-13)
(0.488963 -0.073235 2.80242e-13)
(0.527317 -0.0665135 -6.07399e-13)
(0.562673 -0.0489528 -9.05723e-13)
(0.59813 -0.0426426 2.33643e-12)
(0.62944 -0.0359211 6.51537e-13)
(0.654329 -0.0239242 -3.57917e-12)
(0.678184 -0.0179695 -8.5662e-13)
(0.697329 -0.0130537 4.47547e-12)
(0.71279 -0.0107725 1.01019e-12)
(0.723134 -0.00726365 -4.55958e-12)
(0.731306 -0.00454361 -9.96777e-13)
(0.737955 -0.00481179 3.53324e-12)
(0.744204 -0.00544006 1.20172e-12)
(0.749662 -0.0053207 -2.0683e-12)
(0.754147 -0.00560845 -9.09038e-13)
(0.757588 -0.00542823 5.74449e-13)
(0.758415 -0.00476233 5.98398e-13)
(0.755101 -0.00223293 2.30768e-13)
(0.749385 0.00321734 -2.2841e-13)
(0.744941 0.0146147 -3.68211e-13)
(0.728251 0.033514 -1.9499e-13)
(0.701508 0.062854 1.16367e-13)
(0.65021 0.0961015 1.62338e-13)
(0.579275 0.107258 -4.16349e-14)
(0.50775 0.096646 -6.81274e-14)
(0.442912 0.0684551 -3.20037e-14)
(0.383521 0.0458362 -3.35488e-14)
(0.342619 0.0293443 -3.84046e-15)
(0.315391 0.0187173 1.64705e-15)
(0.298773 0.0118932 -4.75308e-15)
(0.285719 0.00908576 1.09528e-15)
(0.273246 0.00906445 6.86898e-15)
(0.260376 0.00982948 6.30451e-15)
(0.247581 0.0123259 5.36088e-15)
(0.234178 0.0130852 3.57577e-15)
(0.222316 0.0144673 -9.2073e-17)
(0.211201 0.0154369 -1.08817e-15)
(0.20024 0.0148654 1.60667e-15)
(0.189092 0.0143977 3.78985e-15)
(0.178707 0.0135379 2.71883e-15)
(0.168603 0.0126417 3.02719e-16)
(0.158452 0.0116837 -9.88751e-16)
(0.148508 0.0101544 -7.33523e-16)
(0.139237 0.00972856 -2.3308e-17)
(0.129968 0.0101344 2.31453e-16)
(0.120602 0.0130538 1.22393e-16)
(0.110409 0.0121781 1.93375e-18)
(0.101499 0.0112128 -2.71473e-17)
(0.0933155 0.00986978 -2.05455e-17)
(0.0852959 0.0110885 -6.8022e-18)
(0.0770439 0.00979353 6.71146e-18)
(0.0689401 0.010275 1.61998e-17)
(0.0605871 0.00949709 1.8311e-17)
(0.0526451 0.0106069 1.78441e-17)
(0.0446414 0.0107115 1.32403e-17)
(0.0371761 0.01316 9.17534e-18)
(0.0294213 0.0113046 8.28761e-18)
(0.0215644 0.0127247 8.3102e-18)
(0.0134073 0.0102452 5.15618e-18)
(0.00462966 0.0114859 8.23473e-18)
(1.50002 1.44333e-08 2.25305e-21)
(1.50002 -8.76353e-09 -6.3108e-22)
(1.50002 -7.50172e-09 -5.9576e-22)
(1.50003 -3.93748e-09 -2.11924e-22)
(1.50005 3.33477e-09 2.07992e-21)
(1.50007 9.53142e-09 1.91295e-21)
(1.5001 1.70655e-08 2.94169e-21)
(1.50014 2.54821e-08 1.60379e-21)
(1.5002 3.54917e-08 4.47665e-21)
(1.50028 5.01577e-08 5.98731e-22)
(1.5004 6.59864e-08 7.21244e-21)
(1.50054 9.26532e-08 -4.59129e-23)
(1.50073 1.16181e-07 1.63467e-22)
(1.50098 1.66047e-07 -8.72265e-22)
(1.50129 1.94552e-07 1.29661e-21)
(1.50168 3.18401e-07 -3.52166e-21)
(1.50215 1.57266e-07 -3.72126e-21)
(1.50272 8.34252e-07 -1.26254e-20)
(1.50339 8.56801e-08 -1.22071e-20)
(1.50418 6.91574e-07 -2.1397e-20)
(1.50509 1.11493e-06 -2.81252e-20)
(1.50612 6.0484e-07 -4.261e-20)
(1.50727 2.64361e-06 -4.8312e-20)
(1.50854 -6.21783e-07 -5.72822e-20)
(1.50991 4.82926e-06 -7.40165e-20)
(1.51141 -1.96839e-06 -7.42726e-20)
(1.51295 -2.38341e-06 -8.67061e-20)
(1.51461 3.77632e-06 -1.00362e-19)
(1.51635 8.95644e-06 -1.03637e-19)
(1.51802 6.47728e-06 -1.0228e-19)
(1.5198 -6.02108e-06 -1.09654e-19)
(1.52162 7.2833e-06 -1.11754e-19)
(1.52334 3.25879e-05 -1.17602e-19)
(1.52493 9.33954e-07 -1.21049e-19)
(1.52658 -6.08516e-06 -1.25364e-19)
(1.52824 2.33789e-05 -1.27263e-19)
(1.52963 3.71641e-05 -1.30241e-19)
(1.53089 8.82387e-06 -1.32712e-19)
(1.53218 -1.13079e-06 -1.34311e-19)
(1.53343 -1.13929e-05 -1.33613e-19)
(1.53438 -1.2044e-05 -1.37922e-19)
(1.53517 -1.19993e-06 -1.38328e-19)
(1.53583 -1.76597e-05 -1.41286e-19)
(1.53624 -2.78779e-06 -1.41863e-19)
(1.53652 4.43177e-05 -1.45667e-19)
(1.5368 5.04988e-05 -1.48539e-19)
(1.53704 6.5543e-05 -1.28331e-19)
(1.53735 0.000177459 -1.62092e-19)
(1.53711 0.000406462 -1.48629e-19)
(1.53697 0.00067322 -2.22435e-19)
(1.53601 0.00129918 1.95698e-19)
(1.53654 0.00363063 -2.99978e-18)
(1.53592 0.0158209 -9.18562e-18)
(1.54211 0.144322 -1.67472e-16)
(0.891358 0.416807 2.87644e-15)
(0.596703 0.189046 -5.74227e-14)
(0.530383 -0.00390652 1.71823e-13)
(0.536082 -0.114495 -1.67702e-14)
(0.589084 -0.12967 -5.33193e-13)
(0.627009 -0.122601 2.16511e-13)
(0.657511 -0.107022 2.35329e-12)
(0.679596 -0.0822972 -3.54592e-12)
(0.714295 -0.0704713 -3.02128e-12)
(0.738607 -0.0583808 7.58422e-12)
(0.757657 -0.0421385 5.52366e-12)
(0.782781 -0.0346941 -1.49671e-11)
(0.798204 -0.0238077 -4.73452e-12)
(0.812404 -0.0167356 1.62416e-11)
(0.820611 -0.0107356 3.06457e-12)
(0.826818 -0.00744932 -9.45343e-12)
(0.832511 -0.0065821 -4.84602e-12)
(0.83589 -0.00717679 1.49875e-12)
(0.839221 -0.00802377 4.21632e-12)
(0.842265 -0.00774436 2.38847e-12)
(0.843925 -0.00685884 -1.1282e-12)
(0.845014 -0.00431034 -1.60071e-12)
(0.840728 0.00127935 -9.9758e-13)
(0.832957 0.0103457 2.83482e-13)
(0.806519 0.0182153 7.14436e-13)
(0.782174 0.0430497 4.64663e-13)
(0.753279 0.0925372 -2.08238e-13)
(0.72421 0.138975 -2.82474e-13)
(0.682474 0.165663 4.15183e-14)
(0.638311 0.168999 1.39601e-13)
(0.5918 0.150607 8.12203e-14)
(0.521644 0.124196 5.6715e-14)
(0.453415 0.0824619 9.49001e-14)
(0.397011 0.0587263 2.86284e-14)
(0.363382 0.0401585 2.0596e-15)
(0.337757 0.0336094 6.4277e-15)
(0.31603 0.0316798 -6.36731e-15)
(0.295796 0.0307372 -1.39127e-14)
(0.276545 0.0319365 -9.73699e-15)
(0.258742 0.0326207 -5.21783e-15)
(0.243056 0.0327805 1.52988e-15)
(0.228944 0.0330654 6.36643e-15)
(0.216022 0.0317538 2.17835e-15)
(0.203193 0.0296455 -4.17636e-15)
(0.191255 0.027715 -4.2055e-15)
(0.179644 0.025775 -7.60822e-16)
(0.168118 0.0237611 1.10185e-15)
(0.15745 0.0204218 8.36059e-16)
(0.147555 0.0187458 1.48257e-16)
(0.138163 0.0182153 -1.44114e-16)
(0.129381 0.0213797 -1.52635e-16)
(0.119692 0.0202233 -5.57504e-17)
(0.110142 0.0196504 5.98748e-17)
(0.100855 0.0179658 8.29945e-17)
(0.0916667 0.0199026 2.2448e-17)
(0.082078 0.0186132 -3.72886e-17)
(0.0724805 0.0195906 -5.85601e-17)
(0.0627165 0.0183107 -4.90548e-17)
(0.0534686 0.0199783 -2.42586e-17)
(0.0444126 0.0195757 -1.13248e-17)
(0.036603 0.0228399 -1.2397e-18)
(0.0287261 0.020148 3.84907e-18)
(0.0209912 0.0226643 7.13039e-18)
(0.0132893 0.0191668 5.4152e-18)
(0.0049909 0.0211591 3.29494e-18)
(1.50002 1.99469e-08 -1.39233e-21)
(1.50002 -1.15039e-08 -2.04903e-21)
(1.50002 -1.04205e-08 -6.25328e-22)
(1.50003 -4.07949e-09 -1.0853e-21)
(1.50005 5.57135e-09 -4.65332e-21)
(1.50007 1.28802e-08 -9.58836e-21)
(1.5001 2.18613e-08 -1.02902e-20)
(1.50014 3.15855e-08 -1.09157e-20)
(1.5002 4.38569e-08 -1.10217e-20)
(1.50029 6.05889e-08 -1.1485e-20)
(1.5004 8.04978e-08 -1.23091e-20)
(1.50054 1.10228e-07 -1.64406e-20)
(1.50074 1.4128e-07 -1.4873e-20)
(1.50098 1.88861e-07 -1.65651e-20)
(1.50129 2.51774e-07 -1.14479e-20)
(1.50168 3.17008e-07 -4.20738e-21)
(1.50215 3.26051e-07 -1.0849e-20)
(1.50272 6.85016e-07 2.32623e-21)
(1.5034 4.96259e-07 -1.5153e-20)
(1.50419 3.34538e-07 3.28846e-21)
(1.5051 1.92651e-06 5.27086e-21)
(1.50613 3.40435e-07 1.82524e-20)
(1.50728 1.242e-06 2.21761e-20)
(1.50856 1.04921e-06 2.92607e-20)
(1.50994 4.46103e-06 4.10135e-20)
(1.51143 -5.57197e-07 3.66511e-20)
(1.513 -1.23508e-06 4.55703e-20)
(1.51464 3.69638e-06 6.19709e-20)
(1.51636 -8.63409e-06 6.62211e-20)
(1.51818 -2.21172e-07 6.29774e-20)
(1.51987 -3.30843e-06 6.56219e-20)
(1.52152 -2.55972e-06 6.79934e-20)
(1.52327 9.17788e-06 7.29618e-20)
(1.52506 7.68696e-06 7.49246e-20)
(1.52678 -1.2886e-05 7.7276e-20)
(1.52839 -1.39133e-05 7.98896e-20)
(1.52985 1.06211e-05 8.21943e-20)
(1.53116 2.50092e-05 8.4042e-20)
(1.53248 1.51497e-05 8.57924e-20)
(1.53371 -2.29597e-05 8.53069e-20)
(1.53468 -3.30801e-05 9.01124e-20)
(1.53556 -3.12551e-05 8.7555e-20)
(1.53637 -5.57082e-05 8.81224e-20)
(1.53711 -5.27871e-05 9.21354e-20)
(1.53773 -1.74095e-05 9.09986e-20)
(1.53838 2.22477e-05 9.67814e-20)
(1.53911 2.24753e-05 1.14763e-19)
(1.54044 6.12631e-05 7.79228e-20)
(1.54201 0.00011265 2.36029e-19)
(1.54402 0.000271101 -4.07978e-20)
(1.54698 0.000437776 9.51172e-20)
(1.5566 0.00157307 -1.4931e-18)
(1.55875 0.0131026 -2.66518e-17)
(1.56743 0.118839 -1.29974e-16)
(1.30429 0.410443 4.36719e-16)
(0.753344 0.231116 3.61252e-15)
(0.711949 -0.0337985 -4.23522e-14)
(0.735697 -0.137105 -3.23617e-15)
(0.769276 -0.159752 1.35769e-13)
(0.788913 -0.155459 -3.68039e-14)
(0.801339 -0.135246 -7.6464e-13)
(0.808624 -0.110069 8.86683e-13)
(0.833388 -0.0930762 1.64836e-12)
(0.832098 -0.0729419 -2.94299e-12)
(0.854565 -0.0568329 -1.75179e-12)
(0.866357 -0.0424169 4.86292e-12)
(0.868595 -0.0317961 1.52264e-12)
(0.883295 -0.0225551 -5.79701e-12)
(0.887694 -0.0149212 -1.03977e-12)
(0.895058 -0.00958574 3.67412e-12)
(0.897146 -0.00735343 1.11959e-12)
(0.898939 -0.00723078 -5.44424e-13)
(0.899849 -0.00765709 -7.83824e-13)
(0.900815 -0.00748564 -5.4251e-13)
(0.902972 -0.00655238 -1.76086e-14)
(0.903357 -0.0034221 1.73232e-13)
(0.903142 0.00286256 1.92307e-13)
(0.899997 0.0123226 9.86117e-14)
(0.88464 0.0308718 3.52973e-14)
(0.852314 0.0576423 -2.58279e-14)
(0.824909 0.105127 -1.64119e-13)
(0.801011 0.153354 6.74425e-14)
(0.782802 0.185566 1.96967e-13)
(0.760239 0.195196 8.70893e-14)
(0.742698 0.179753 1.28509e-14)
(0.690463 0.167581 -2.70742e-15)
(0.636938 0.130006 -1.29674e-14)
(0.565185 0.0900716 -1.89366e-14)
(0.502868 0.0611207 3.17302e-14)
(0.452731 0.0500847 4.57581e-14)
(0.411182 0.0491164 3.18129e-14)
(0.375052 0.0488181 1.31906e-14)
(0.342236 0.0483119 -2.83449e-15)
(0.313269 0.0477593 -8.57712e-15)
(0.288803 0.0467259 -3.54375e-15)
(0.267378 0.0454081 -1.596e-15)
(0.248114 0.0448904 -5.64395e-15)
(0.229709 0.0435081 -6.49627e-15)
(0.212668 0.0414725 -2.1285e-15)
(0.19704 0.0389509 1.41983e-15)
(0.182091 0.0361245 1.70419e-15)
(0.168879 0.0309753 5.1728e-16)
(0.156447 0.0290139 -3.61016e-16)
(0.145378 0.0279276 -5.90588e-16)
(0.13542 0.0314841 -4.27727e-16)
(0.124903 0.030991 -1.88573e-16)
(0.114622 0.0307427 -2.62197e-17)
(0.10517 0.0281594 -1.03821e-17)
(0.0958827 0.0300439 -3.2653e-17)
(0.0864382 0.0286543 -3.44526e-17)
(0.0769788 0.029998 -1.38505e-17)
(0.0673148 0.028078 1.01825e-18)
(0.057903 0.0301308 -5.89125e-19)
(0.0485145 0.0286766 -4.52861e-18)
(0.040418 0.0323902 -5.21011e-18)
(0.0321285 0.0289604 -2.19748e-18)
(0.0240061 0.0323855 3.12344e-18)
(0.0156451 0.02822 1.69971e-18)
(0.00661572 0.0315799 2.00954e-18)
(1.50002 2.50665e-08 -6.44051e-21)
(1.50002 -1.20738e-08 3.58713e-21)
(1.50002 -1.36486e-08 -7.544e-21)
(1.50003 -7.5305e-09 1.09101e-21)
(1.50005 3.28578e-09 1.1814e-21)
(1.50007 1.24884e-08 1.24723e-20)
(1.5001 2.32933e-08 1.58061e-20)
(1.50014 3.55584e-08 9.82864e-21)
(1.5002 4.98935e-08 1.43983e-20)
(1.50029 7.11632e-08 2.72681e-20)
(1.5004 9.36931e-08 2.5769e-21)
(1.50054 1.34744e-07 2.64595e-20)
(1.50074 1.64766e-07 2.75843e-20)
(1.50098 2.47259e-07 2.97519e-20)
(1.50129 2.91184e-07 2.97652e-20)
(1.50168 4.17698e-07 2.03232e-20)
(1.50215 4.7949e-07 4.21951e-20)
(1.50272 7.18377e-07 3.58953e-20)
(1.5034 9.23221e-07 5.48475e-20)
(1.50419 4.1448e-07 4.37427e-20)
(1.5051 2.10922e-06 4.48441e-20)
(1.50614 1.5484e-06 5.02683e-20)
(1.5073 -2.98367e-07 4.95581e-20)
(1.50857 4.00325e-06 4.89222e-20)
(1.50997 1.00239e-06 5.03706e-20)
(1.51144 -2.64254e-07 5.86619e-20)
(1.51304 1.75288e-06 6.05597e-20)
(1.51474 2.89464e-06 5.43713e-20)
(1.51634 -5.54103e-06 5.7492e-20)
(1.51814 4.70956e-06 6.32254e-20)
(1.51997 1.44868e-06 6.38436e-20)
(1.52168 4.97475e-06 6.37128e-20)
(1.52342 1.74924e-06 6.60208e-20)
(1.52524 1.11812e-05 6.42819e-20)
(1.5269 -2.17659e-05 6.2848e-20)
(1.52835 -2.34888e-05 6.4417e-20)
(1.52986 2.43059e-05 6.26969e-20)
(1.53124 1.42812e-05 6.25579e-20)
(1.53259 9.24151e-06 6.27078e-20)
(1.53377 -2.49171e-05 6.19999e-20)
(1.53468 -3.35115e-05 6.29441e-20)
(1.53548 -4.6024e-05 6.30361e-20)
(1.53618 -8.30819e-05 6.48793e-20)
(1.53666 -5.61337e-05 6.35584e-20)
(1.53704 -3.02334e-05 6.32712e-20)
(1.53748 -5.34661e-05 6.40843e-20)
(1.53804 -0.000105172 6.21607e-20)
(1.53872 -0.000196958 6.36599e-20)
(1.53893 -0.000327558 4.61517e-20)
(1.53915 -0.000431641 7.44327e-20)
(1.53923 -0.000885293 -1.34335e-19)
(1.54025 -0.000668448 -1.33424e-18)
(1.5401 0.00487401 -4.77955e-18)
(1.54535 0.0531626 -1.44089e-16)
(1.46861 0.235592 -2.80233e-17)
(1.01676 0.133471 -5.93335e-16)
(0.824288 -0.0256476 -3.15866e-16)
(0.816756 -0.115415 3.17882e-16)
(0.855165 -0.143877 -2.58068e-15)
(0.865507 -0.146915 5.13461e-15)
(0.872739 -0.136098 8.63597e-15)
(0.878826 -0.116086 -1.13709e-13)
(0.892475 -0.0935 2.3937e-13)
(0.884971 -0.0742224 2.61775e-14)
(0.908126 -0.0581314 -1.09112e-12)
(0.907675 -0.0441304 1.71017e-12)
(0.924331 -0.0317187 4.03488e-13)
(0.924633 -0.0228596 -3.46333e-12)
(0.936978 -0.0166872 1.11167e-12)
(0.938011 -0.0116885 2.85474e-12)
(0.940807 -0.00896854 -3.66378e-13)
(0.941304 -0.00847501 -2.04216e-12)
(0.94196 -0.00875946 -3.18246e-13)
(0.942399 -0.00855359 4.13987e-13)
(0.942202 -0.00746686 6.17433e-13)
(0.941946 -0.0045625 3.18119e-13)
(0.942884 0.00173228 -7.63457e-14)
(0.930653 0.0157325 -2.81361e-13)
(0.923943 0.0383733 -1.92035e-13)
(0.886966 0.0783035 4.11593e-14)
(0.860403 0.128124 3.7521e-13)
(0.844237 0.178117 1.05705e-13)
(0.832809 0.207217 -2.23332e-13)
(0.82665 0.22087 -1.08936e-13)
(0.807704 0.216955 -1.68307e-14)
(0.775133 0.207425 5.08227e-14)
(0.736731 0.179185 4.16437e-14)
(0.672728 0.146631 8.65006e-15)
(0.610812 0.11084 2.92661e-14)
(0.550792 0.0935369 2.87809e-14)
(0.501446 0.0847127 -9.87561e-15)
(0.460041 0.0778091 -2.08185e-14)
(0.42157 0.0731705 -1.17473e-14)
(0.384701 0.0665389 -3.54798e-15)
(0.352988 0.0643205 8.56897e-15)
(0.325985 0.0636145 9.15894e-15)
(0.300609 0.0620258 -3.78876e-15)
(0.276739 0.0589902 -9.44912e-15)
(0.253188 0.0562275 -3.55239e-15)
(0.231056 0.0538041 2.31046e-15)
(0.209235 0.0511913 2.5298e-15)
(0.189609 0.0454248 1.74425e-16)
(0.172777 0.0420088 -9.99144e-16)
(0.159148 0.0392917 -8.2524e-16)
(0.147324 0.0420022 -3.82842e-16)
(0.136091 0.0406852 -1.40717e-16)
(0.12522 0.0395638 -5.90355e-17)
(0.115472 0.035542 -6.18043e-17)
(0.10572 0.0374584 -4.81302e-17)
(0.0961831 0.036336 -1.50907e-17)
(0.0869364 0.0382619 2.28351e-17)
(0.0773354 0.0365117 3.22482e-17)
(0.0678141 0.0395105 2.33428e-17)
(0.0576434 0.0378029 8.0976e-18)
(0.0484091 0.0422007 -2.65661e-18)
(0.038361 0.0386724 -3.4426e-18)
(0.0288023 0.0432577 -3.81712e-19)
(0.0187798 0.0388943 -2.65049e-19)
(0.00862793 0.0436899 -1.66145e-18)
(1.50002 3.14339e-08 4.84485e-21)
(1.50002 -1.40148e-08 1.25525e-22)
(1.50002 -1.64166e-08 7.16668e-21)
(1.50003 -7.87954e-09 2.73133e-21)
(1.50005 6.13467e-09 -3.51982e-21)
(1.50007 1.74101e-08 -2.29175e-20)
(1.5001 3.06488e-08 -2.83267e-20)
(1.50014 4.55348e-08 -1.2843e-20)
(1.5002 6.38626e-08 -3.16398e-20)
(1.50029 8.95572e-08 -4.27375e-20)
(1.5004 1.19137e-07 -2.01479e-20)
(1.50055 1.67714e-07 -3.76876e-20)
(1.50074 2.12288e-07 -6.29613e-20)
(1.50098 2.98004e-07 -3.75431e-20)
(1.5013 3.88775e-07 -5.67944e-20)
(1.50168 4.75869e-07 -2.75481e-20)
(1.50216 6.517e-07 -7.64519e-20)
(1.50273 9.31877e-07 -4.70351e-20)
(1.50341 7.91447e-07 -6.00763e-20)
(1.50421 1.51292e-06 -6.9496e-20)
(1.50512 1.12509e-06 -7.1104e-20)
(1.50616 2.63414e-06 -7.49956e-20)
(1.50732 -4.46945e-07 -7.04336e-20)
(1.5086 4.33367e-06 -7.19233e-20)
(1.51 1.81289e-06 -7.09219e-20)
(1.51149 -2.0111e-06 -6.79791e-20)
(1.51308 4.45128e-07 -6.9459e-20)
(1.5148 1.04571e-06 -6.80527e-20)
(1.51644 2.96419e-06 -6.6131e-20)
(1.51824 6.39703e-06 -6.28438e-20)
(1.52009 8.49182e-06 -6.09436e-20)
(1.52178 -9.68427e-06 -6.39744e-20)
(1.5235 -1.16089e-05 -6.38175e-20)
(1.52546 -1.57129e-06 -6.52773e-20)
(1.52718 -2.85305e-05 -6.9792e-20)
(1.52867 2.67347e-06 -5.8444e-20)
(1.52996 2.1655e-05 -5.60463e-20)
(1.53145 -2.27214e-06 -5.12617e-20)
(1.53301 -6.01702e-05 -5.43216e-20)
(1.53427 -5.20802e-05 -4.94537e-20)
(1.53533 -2.76443e-05 -5.44461e-20)
(1.5363 -5.68878e-05 -5.49586e-20)
(1.53714 -8.76706e-05 -5.50931e-20)
(1.53785 -8.64848e-05 -5.01388e-20)
(1.5385 -7.9011e-05 -5.256e-20)
(1.53921 -4.37337e-05 -6.28815e-20)
(1.54031 -0.000105173 -4.51754e-20)
(1.54147 -0.000171943 -7.96369e-20)
(1.54252 -0.000261367 -4.48776e-21)
(1.54389 -0.000307174 -8.97176e-20)
(1.54555 -0.000575252 -1.90228e-19)
(1.54903 -0.000746393 9.22866e-19)
(1.55049 0.000512041 -5.95609e-18)
(1.55482 0.00330316 5.02696e-17)
(1.49125 -0.0174129 -6.64874e-16)
(0.839015 -0.0778939 9.44011e-16)
(0.722476 -0.0813551 -7.27541e-16)
(0.767159 -0.120853 -3.4616e-15)
(0.79566 -0.148391 2.7233e-15)
(0.812021 -0.151184 9.95518e-15)
(0.82758 -0.141215 -5.66122e-14)
(0.840194 -0.120511 1.12862e-13)
(0.849942 -0.0975379 2.9229e-13)
(0.849157 -0.0762737 -9.00328e-13)
(0.871755 -0.0603676 3.09222e-13)
(0.874362 -0.04558 1.28443e-12)
(0.890804 -0.0326183 -1.48763e-12)
(0.892402 -0.0234942 -1.4949e-12)
(0.904365 -0.0174018 3.02788e-12)
(0.904678 -0.0125276 1.64481e-13)
(0.907637 -0.00929894 -1.66763e-12)
(0.908673 -0.0089871 -9.38631e-13)
(0.909545 -0.00909018 6.33565e-13)
(0.909772 -0.00868506 8.49177e-13)
(0.910548 -0.00705908 4.65241e-13)
(0.91163 -0.00361148 -6.1853e-14)
(0.909997 0.00340322 -2.81196e-13)
(0.912114 0.0188232 -1.982e-13)
(0.889968 0.0453812 -1.2826e-14)
(0.876222 0.0885655 1.16394e-13)
(0.845767 0.141111 9.097e-14)
(0.848849 0.185268 -2.23859e-13)
(0.825245 0.211969 -2.21941e-13)
(0.832516 0.231427 -4.21763e-14)
(0.809534 0.241823 5.32235e-14)
(0.775829 0.246571 7.36309e-14)
(0.730028 0.233038 4.23047e-14)
(0.668707 0.21055 8.84152e-15)
(0.613091 0.176364 2.65996e-14)
(0.55631 0.156333 2.56594e-15)
(0.507361 0.139468 -4.25146e-14)
(0.466749 0.126801 -2.55624e-14)
(0.431651 0.119592 -1.73186e-15)
(0.400199 0.108683 4.39516e-15)
(0.369654 0.0998771 1.34951e-14)
(0.341596 0.0939462 1.38762e-14)
(0.316717 0.0893458 -7.26035e-16)
(0.293664 0.0850297 -1.09229e-14)
(0.272097 0.0800133 -5.59637e-15)
(0.251982 0.0752938 2.97433e-15)
(0.232064 0.0704749 3.28629e-15)
(0.213608 0.061146 3.8555e-17)
(0.195307 0.0548813 -1.16528e-15)
(0.179641 0.0505405 -7.39019e-16)
(0.165182 0.0529506 -3.42208e-16)
(0.151306 0.0529377 -1.75285e-16)
(0.137623 0.051672 -6.79859e-17)
(0.125911 0.0465651 -1.24089e-17)
(0.114567 0.0480816 1.66191e-18)
(0.104523 0.0465628 1.61524e-18)
(0.0949963 0.0488285 7.29355e-18)
(0.0851584 0.0473301 8.78932e-18)
(0.0754841 0.0511108 1.36036e-17)
(0.0647973 0.0493889 1.11231e-17)
(0.0549083 0.0542384 4.16268e-18)
(0.04393 0.0503978 2.6527e-18)
(0.0335166 0.0558689 3.25761e-18)
(0.0222471 0.0515541 2.98724e-18)
(0.0114104 0.0576694 3.86448e-18)
(1.50002 3.42151e-08 9.49133e-21)
(1.50002 -1.28916e-08 1.94242e-20)
(1.50002 -1.80505e-08 2.88471e-20)
(1.50003 -1.14108e-08 2.44343e-20)
(1.50005 2.3718e-09 4.48264e-20)
(1.50007 1.42916e-08 6.98743e-20)
(1.5001 2.80166e-08 4.6168e-20)
(1.50014 4.37276e-08 7.58149e-20)
(1.5002 6.18027e-08 6.26199e-20)
(1.50029 8.88776e-08 6.41005e-20)
(1.5004 1.17161e-07 6.37508e-20)
(1.50055 1.70249e-07 6.26877e-20)
(1.50074 2.09319e-07 9.02148e-20)
(1.50099 3.14998e-07 6.05259e-20)
(1.5013 3.74045e-07 4.23469e-20)
(1.50169 5.22399e-07 3.43348e-20)
(1.50216 7.03982e-07 5.69357e-20)
(1.50274 7.76775e-07 5.75279e-20)
(1.50342 1.20751e-06 5.10543e-20)
(1.50421 1.44995e-06 7.43319e-20)
(1.50513 1.30055e-06 7.81252e-20)
(1.50617 3.8375e-06 9.23056e-20)
(1.50734 6.59001e-08 9.64251e-20)
(1.50863 4.2782e-06 1.10209e-19)
(1.51003 2.6531e-06 1.01316e-19)
(1.51154 1.17947e-06 1.10347e-19)
(1.51313 5.76042e-07 1.19427e-19)
(1.51483 -9.92861e-07 1.13051e-19)
(1.51655 6.7916e-06 1.23509e-19)
(1.51831 7.16671e-06 1.20841e-19)
(1.5202 1.95656e-05 1.23356e-19)
(1.522 1.8777e-07 1.28331e-19)
(1.52364 -2.66057e-05 1.33503e-19)
(1.52546 -2.16326e-05 1.4052e-19)
(1.5272 8.89306e-06 1.47622e-19)
(1.52883 9.77223e-05 1.44219e-19)
(1.53036 7.62239e-05 1.43656e-19)
(1.53198 7.77691e-09 1.46189e-19)
(1.53327 -8.08335e-05 1.48739e-19)
(1.53439 -4.59076e-05 1.52827e-19)
(1.53538 -3.27632e-05 1.57289e-19)
(1.53638 -5.42053e-05 1.58148e-19)
(1.53706 -7.8679e-05 1.65306e-19)
(1.53752 -9.2954e-05 1.60318e-19)
(1.53787 -0.000113177 1.72066e-19)
(1.53836 -0.000172826 1.86284e-19)
(1.53903 -0.000270344 1.89541e-19)
(1.53923 -0.000433101 1.94559e-19)
(1.53907 -0.00057835 1.83666e-19)
(1.53862 -0.000843296 2.1205e-19)
(1.53791 -0.00120867 1.54483e-19)
(1.53593 -0.00195671 3.23096e-19)
(1.53248 -0.00447855 4.43501e-20)
(1.52626 -0.0195348 5.7581e-18)
(1.35975 -0.147085 2.6067e-16)
(0.621938 -0.150166 -1.89356e-16)
(0.611404 -0.118995 3.79672e-15)
(0.682419 -0.127765 2.748e-15)
(0.734634 -0.150704 -4.37959e-14)
(0.773297 -0.157952 4.73844e-14)
(0.801193 -0.148745 -1.08345e-14)
(0.819275 -0.127997 -1.38367e-13)
(0.830764 -0.102771 3.61162e-13)
(0.850179 -0.0851659 2.20947e-14)
(0.853612 -0.0653186 -1.09615e-12)
(0.876024 -0.0498849 1.39736e-12)
(0.878239 -0.0354873 6.59471e-13)
(0.895196 -0.0268556 -2.88382e-12)
(0.898689 -0.0189551 3.16561e-13)
(0.900309 -0.0137524 2.59305e-12)
(0.90299 -0.0106302 -5.44819e-13)
(0.905541 -0.00895547 -1.25858e-12)
(0.906941 -0.00881157 -3.62345e-13)
(0.908362 -0.0086073 6.54856e-13)
(0.908899 -0.00831665 4.62018e-13)
(0.910839 -0.00474901 1.60114e-13)
(0.908566 0.00271074 -1.84546e-13)
(0.907928 0.021419 -2.89776e-13)
(0.8857 0.060107 -2.05525e-13)
(0.876393 0.114337 7.09137e-14)
(0.82719 0.165983 1.66257e-13)
(0.832991 0.210613 -3.30007e-14)
(0.796651 0.237999 -6.91357e-14)
(0.775521 0.253828 2.76896e-15)
(0.740368 0.268885 5.38883e-14)
(0.693407 0.270876 5.25286e-14)
(0.642757 0.257955 1.19779e-14)
(0.591365 0.241444 1.30332e-14)
(0.54637 0.215951 2.0719e-14)
(0.501328 0.198909 -3.64484e-14)
(0.462675 0.178779 -5.62697e-14)
(0.429297 0.161005 -1.90349e-14)
(0.400939 0.151537 1.09664e-14)
(0.376629 0.139832 1.30277e-14)
(0.353986 0.130154 1.52406e-14)
(0.332169 0.121516 1.38375e-14)
(0.311339 0.115083 -5.00357e-15)
(0.290754 0.109954 -1.51077e-14)
(0.272202 0.102353 -4.5959e-15)
(0.255798 0.0953673 4.74178e-15)
(0.239354 0.0900269 2.69736e-15)
(0.2244 0.0799592 -9.36696e-16)
(0.207827 0.0723678 -1.26257e-15)
(0.192968 0.0662424 -4.06802e-16)
(0.178389 0.0668642 -7.77365e-17)
(0.164606 0.0663353 -3.87012e-17)
(0.150416 0.0639388 1.87147e-17)
(0.137902 0.0570354 5.02697e-17)
(0.124981 0.0574092 2.61476e-17)
(0.1141 0.0552498 -1.11715e-17)
(0.103895 0.0578474 -2.83427e-17)
(0.0935707 0.056705 -2.65571e-17)
(0.0837833 0.0612044 -1.10972e-17)
(0.072684 0.060544 1.08285e-18)
(0.0623208 0.0664482 4.56616e-18)
(0.0496155 0.0635364 3.01589e-18)
(0.0376126 0.0699158 2.90357e-18)
(0.024782 0.0656147 -1.60143e-18)
(0.0131246 0.0726392 -1.47438e-18)
(1.50002 3.96352e-08 -8.79386e-21)
(1.50002 -1.35647e-08 -3.79142e-20)
(1.50002 -1.96977e-08 -4.24069e-20)
(1.50003 -1.1582e-08 -7.7146e-20)
(1.50005 5.084e-09 -9.81099e-20)
(1.50007 1.96506e-08 -1.20586e-19)
(1.5001 3.64459e-08 -1.01207e-19)
(1.50014 5.55679e-08 -1.41839e-19)
(1.5002 7.90324e-08 -1.46198e-19)
(1.50029 1.11606e-07 -1.63011e-19)
(1.5004 1.51017e-07 -1.69281e-19)
(1.50055 2.11868e-07 -1.86287e-19)
(1.50074 2.75681e-07 -1.88091e-19)
(1.50099 3.91847e-07 -1.70434e-19)
(1.5013 4.88517e-07 -1.4334e-19)
(1.50169 6.81498e-07 -1.80168e-19)
(1.50217 8.92451e-07 -1.50294e-19)
(1.50275 1.05683e-06 -1.85251e-19)
(1.50343 1.48639e-06 -1.94353e-19)
(1.50423 1.89528e-06 -1.70875e-19)
(1.50515 1.60642e-06 -1.74612e-19)
(1.5062 3.311e-06 -2.06346e-19)
(1.50737 9.70978e-07 -1.86174e-19)
(1.50867 4.53561e-06 -2.02913e-19)