/*--------------------------------*- C++ -*----------------------------------*\
| =========                 |                                                 |
| \\      /  F ield         | OpenFOAM: The Open Source CFD Toolbox           |
|  \\    /   O peration     | Version:  2.2.x                                 |
|   \\  /    A nd           | Web:      www.OpenFOAM.org                      |
|    \\/     M anipulation  |                                                 |
\*---------------------------------------------------------------------------*/
FoamFile
{
    version     2.0;
    format      ascii;
    class       volScalarField;
    location    "0.25";
    object      rho;
}
// * * * * * * * * * * * * * * * * * * * * * * * * * * * * * * * * * * * * * //

dimensions      [1 -3 0 0 0 0 0];

internalField   nonuniform List<scalar> 
14161
(
1
1
1
1
1
1
1
1
1
1
1
1
1
1
0.999999
0.999999
0.999998
0.999997
0.999994
0.99999
0.999985
0.999976
0.999963
0.999945
0.99992
0.999885
0.999838
0.999778
0.999699
0.999601
0.99948
0.999332
0.999156
0.998951
0.99871
0.998439
0.998137
0.997784
0.997428
0.997028
0.996542
0.996116
0.995665
0.995065
0.994537
0.994094
0.993403
0.992657
0.992062
0.991316
0.990297
0.989448
0.988665
0.987457
0.986244
0.985265
0.984032
0.982405
0.980996
0.97975
0.978032
0.976164
0.974291
0.972607
0.971084
0.968936
0.966887
0.965016
0.963306
0.960551
0.956396
0.953351
1.53175
2.78219
2.72275
2.57882
2.50515
2.50137
2.46351
2.40889
2.36726
2.35875
2.36552
2.38425
2.40443
2.40489
2.42179
2.4715
2.56135
2.66679
2.77464
2.84315
2.87495
2.90326
2.94311
2.97884
3.00259
3.02044
3.03641
3.05067
3.06387
3.07797
3.08671
3.09096
3.09789
3.11271
3.12639
3.13708
3.13744
3.12678
3.10598
3.08751
3.06982
3.05697
3.03941
3.01817
2.97483
2.88259
2.68004
1
1
1
1
1
1
1
1
1
1
1
1
1
1
0.999999
0.999999
0.999998
0.999997
0.999994
0.99999
0.999985
0.999976
0.999963
0.999945
0.99992
0.999885
0.999838
0.999777
0.999699
0.999601
0.999479
0.999332
0.999157
0.998948
0.998713
0.998438
0.998128
0.997797
0.997411
0.997017
0.996598
0.99607
0.995608
0.995194
0.994589
0.993949
0.993444
0.992805
0.991927
0.991206
0.990505
0.989454
0.988401
0.987575
0.986486
0.985053
0.983877
0.982659
0.980971
0.979339
0.978
0.976593
0.974514
0.972628
0.97096
0.96889
0.967028
0.964949
0.963573
0.960079
0.959289
0.945971
1.62005
2.6606
2.71257
2.6013
2.50584
2.48572
2.43094
2.37384
2.35045
2.34673
2.37218
2.40834
2.45634
2.50811
2.57432
2.64237
2.71058
2.79342
2.85146
2.88518
2.90758
2.93415
2.96296
2.99055
3.01105
3.02693
3.04127
3.05471
3.06771
3.08116
3.08868
3.09387
3.1021
3.11792
3.1323
3.14211
3.14177
3.13057
3.11021
3.09157
3.07384
3.06039
3.04255
3.02193
2.98089
2.89802
2.69589
1
1
1
1
1
1
1
1
1
1
1
1
1
1
0.999999
0.999999
0.999998
0.999997
0.999994
0.99999
0.999985
0.999976
0.999963
0.999945
0.99992
0.999885
0.999838
0.999777
0.999699
0.999601
0.999479
0.999332
0.999156
0.998949
0.998711
0.998439
0.998127
0.997795
0.997421
0.996984
0.996605
0.996124
0.995554
0.995123
0.99466
0.993966
0.993341
0.99284
0.99202
0.991119
0.990434
0.989544
0.988363
0.987432
0.98654
0.985121
0.983734
0.98254
0.981086
0.979441
0.977906
0.976176
0.974499
0.972739
0.970673
0.96843
0.966837
0.965428
0.964736
0.961815
0.964642
0.952708
1.76382
2.67103
2.7785
2.63866
2.48866
2.47603
2.44834
2.38961
2.35302
2.34613
2.396
2.47132
2.5748
2.69081
2.74507
2.78816
2.83255
2.86761
2.89205
2.91616
2.93763
2.95653
2.97601
2.99534
3.0103
3.02429
3.03549
3.0445
3.05341
3.06263
3.06851
3.07409
3.08434
3.10225
3.11718
3.12659
3.1257
3.11431
3.09598
3.07925
3.06316
3.04844
3.03045
3.00945
2.97034
2.89438
2.69583
1
1
1
1
1
1
1
1
1
1
1
1
1
1
0.999999
0.999999
0.999998
0.999997
0.999994
0.99999
0.999985
0.999976
0.999963
0.999945
0.999919
0.999885
0.999838
0.999777
0.999699
0.9996
0.999479
0.999331
0.999155
0.998949
0.998708
0.998437
0.998132
0.997787
0.997413
0.997011
0.996569
0.996101
0.995615
0.995112
0.994577
0.993995
0.993387
0.992789
0.991994
0.991134
0.990398
0.989505
0.988365
0.987403
0.986509
0.985197
0.983705
0.982171
0.980789
0.979681
0.978056
0.975974
0.974427
0.972889
0.970902
0.968585
0.967083
0.965925
0.965189
0.961684
0.966295
0.954026
1.78013
2.70817
2.77882
2.65685
2.5473
2.52601
2.53237
2.50922
2.47833
2.47594
2.53773
2.6174
2.71137
2.76968
2.79625
2.82809
2.86515
2.89255
2.91062
2.93165
2.95443
2.97273
2.98783
3.00268
3.01805
3.03239
3.04229
3.04814
3.05123
3.05101
3.04768
3.04732
3.05495
3.07183
3.09222
3.10637
3.10715
3.09762
3.08284
3.06737
3.05097
3.03356
3.01474
2.99275
2.95488
2.88066
2.68666
1
1
1
1
1
1
1
1
1
1
1
1
1
1
0.999999
0.999999
0.999998
0.999997
0.999994
0.99999
0.999985
0.999976
0.999963
0.999945
0.999919
0.999884
0.999838
0.999777
0.999699
0.9996
0.999478
0.999331
0.999155
0.998947
0.998708
0.998434
0.99813
0.997787
0.997402
0.997023
0.996566
0.996058
0.995656
0.995138
0.994492
0.993979
0.993476
0.992677
0.991872
0.991272
0.990503
0.989336
0.988278
0.987428
0.986344
0.984975
0.983771
0.982382
0.980672
0.979301
0.978002
0.975828
0.973724
0.972151
0.970543
0.968029
0.965653
0.963681
0.961505
0.955414
0.957799
0.946563
1.71106
2.66759
2.71328
2.65142
2.64433
2.60573
2.60031
2.59898
2.61889
2.65218
2.68737
2.75288
2.81482
2.83438
2.83879
2.8527
2.87402
2.89379
2.91165
2.93367
2.95743
2.9788
2.99356
3.00696
3.02349
3.03914
3.04743
3.05091
3.04943
3.04345
3.03779
3.03629
3.04176
3.05401
3.06851
3.0848
3.08939
3.08431
3.0738
3.05991
3.04356
3.02423
3.00504
2.98099
2.94126
2.86425
2.67647
1
1
1
1
1
1
1
1
1
1
1
1
1
1
0.999999
0.999999
0.999998
0.999997
0.999994
0.99999
0.999985
0.999976
0.999963
0.999945
0.999919
0.999884
0.999838
0.999776
0.999698
0.999599
0.999477
0.99933
0.999153
0.998946
0.998707
0.998433
0.998125
0.997785
0.997408
0.996999
0.996564
0.996093
0.9956
0.995095
0.994544
0.993949
0.993399
0.992742
0.991874
0.991086
0.990408
0.989477
0.988205
0.986983
0.985987
0.985181
0.983849
0.982184
0.980762
0.979207
0.977503
0.975783
0.973624
0.971746
0.970308
0.968621
0.966526
0.964242
0.962175
0.958016
0.962398
0.96474
1.68675
2.4617
2.52361
2.53016
2.58175
2.60324
2.59833
2.64126
2.69953
2.75475
2.77089
2.80706
2.8441
2.86708
2.88316
2.89615
2.90295
2.90433
2.90861
2.92482
2.94587
2.97084
2.98892
3.00291
3.02215
3.03995
3.05087
3.05411
3.05039
3.04177
3.03601
3.03334
3.03516
3.04303
3.05304
3.06724
3.0757
3.07327
3.06581
3.05263
3.0367
3.01442
2.9939
2.96756
2.92454
2.8423
2.66312
1
1
1
1
1
1
1
1
1
1
1
1
1
1
0.999999
0.999999
0.999998
0.999997
0.999994
0.99999
0.999985
0.999976
0.999963
0.999945
0.999919
0.999884
0.999837
0.999776
0.999698
0.999599
0.999477
0.999329
0.999152
0.998944
0.998704
0.99843
0.998121
0.997777
0.997405
0.996991
0.996548
0.996085
0.995591
0.99507
0.994537
0.993961
0.99333
0.99265
0.991956
0.991107
0.990121
0.989234
0.98844
0.987236
0.985891
0.984881
0.983675
0.981929
0.980488
0.979121
0.977134
0.975252
0.973548
0.971245
0.969057
0.967171
0.964958
0.961307
0.957504
0.953243
0.956406
1.00965
1.86501
2.28425
2.395
2.45954
2.52855
2.58524
2.61049
2.65087
2.70949
2.79123
2.83652
2.86515
2.89929
2.93104
2.95331
2.96153
2.9532
2.93472
2.93007
2.93801
2.95254
2.96481
2.97742
2.9941
3.01722
3.03603
3.04781
3.05343
3.05331
3.04767
3.04237
3.03706
3.03345
3.03385
3.03873
3.04865
3.05901
3.05995
3.05577
3.04389
3.02946
3.00706
2.9865
2.95754
2.911
2.82553
2.64779
1
1
1
1
1
1
1
1
1
1
1
1
1
1
0.999999
0.999999
0.999998
0.999997
0.999994
0.99999
0.999985
0.999976
0.999963
0.999945
0.999919
0.999884
0.999837
0.999776
0.999697
0.999598
0.999476
0.999327
0.99915
0.998942
0.998701
0.998426
0.998116
0.997773
0.997395
0.996984
0.996541
0.996072
0.995576
0.995052
0.994506
0.99396
0.993288
0.99257
0.991957
0.991112
0.9901
0.989286
0.988424
0.98718
0.985742
0.984464
0.983354
0.981922
0.980109
0.978643
0.97717
0.975232
0.973108
0.970592
0.968506
0.966937
0.965647
0.963359
0.959757
0.960005
0.958403
1.18694
2.0853
2.26233
2.3372
2.46286
2.59524
2.60442
2.62696
2.67476
2.72962
2.7837
2.81756
2.83793
2.87171
2.91142
2.94246
2.9575
2.95673
2.94867
2.94851
2.95229
2.95954
2.96473
2.96998
2.98343
3.00466
3.02454
3.03995
3.05012
3.05422
3.05199
3.04821
3.04097
3.03405
3.03119
3.03416
3.04086
3.04803
3.04666
3.04329
3.03243
3.02144
3.00042
2.97979
2.94872
2.89867
2.80662
2.63553
1
1
1
1
1
1
1
1
1
1
1
1
1
1
0.999999
0.999999
0.999998
0.999996
0.999994
0.99999
0.999984
0.999976
0.999963
0.999944
0.999919
0.999884
0.999837
0.999775
0.999696
0.999597
0.999474
0.999325
0.999147
0.998938
0.998697
0.99842
0.99811
0.997763
0.997385
0.996973
0.996524
0.99605
0.995558
0.994997
0.994489
0.99398
0.993227
0.992503
0.991901
0.991017
0.989986
0.989214
0.988262
0.986913
0.985788
0.984593
0.982998
0.981595
0.980107
0.978109
0.976455
0.975172
0.973172
0.969603
0.96689
0.964771
0.962965
0.960539
0.954721
0.956164
0.955559
1.42461
2.17933
2.27512
2.34533
2.51791
2.66981
2.71798
2.70275
2.71105
2.7271
2.75929
2.79224
2.81576
2.84997
2.895
2.9291
2.94572
2.95395
2.96267
2.96977
2.97067
2.97194
2.9709
2.97173
2.9846
2.99893
3.01291
3.02607
3.03898
3.04741
3.04979
3.04904
3.04488
3.03824
3.03248
3.03075
3.03347
3.03599
3.03385
3.03023
3.0205
3.01274
2.99199
2.97173
2.93815
2.88486
2.78508
2.62252
1
1
1
1
1
1
1
1
1
1
1
1
1
1
0.999999
0.999999
0.999998
0.999996
0.999994
0.99999
0.999984
0.999976
0.999963
0.999944
0.999918
0.999883
0.999836
0.999774
0.999695
0.999596
0.999472
0.999323
0.999144
0.998935
0.998691
0.998414
0.998103
0.997754
0.997372
0.996959
0.996514
0.996037
0.995532
0.995005
0.994461
0.993867
0.993219
0.992519
0.991761
0.990952
0.989919
0.988934
0.988108
0.986883
0.985479
0.984372
0.98302
0.981259
0.979639
0.977721
0.975828
0.974397
0.972644
0.969334
0.96649
0.964484
0.962614
0.961143
0.956491
0.959526
0.963873
1.63153
2.24543
2.3231
2.37563
2.59032
2.75321
2.76836
2.7579
2.75328
2.75159
2.76413
2.78714
2.81486
2.84274
2.87667
2.9091
2.93216
2.94904
2.96618
2.97791
2.98282
2.9854
2.98294
2.98096
2.98912
2.99497
3.00003
3.0073
3.02261
3.03743
3.04612
3.04791
3.04569
3.03967
3.03229
3.02738
3.02594
3.02265
3.01786
3.01493
3.0075
3.00243
2.9821
2.96237
2.92598
2.86978
2.76205
2.61223
1
1
1
1
1
1
1
1
1
1
1
1
1
1
0.999999
0.999999
0.999998
0.999996
0.999994
0.99999
0.999984
0.999976
0.999963
0.999944
0.999918
0.999883
0.999836
0.999774
0.999694
0.999594
0.99947
0.99932
0.999141
0.99893
0.998686
0.998407
0.998094
0.997745
0.997359
0.996939
0.996496
0.996015
0.995487
0.994997
0.99446
0.993762
0.993161
0.992572
0.99167
0.990773
0.990018
0.988991
0.987767
0.986741
0.985432
0.98395
0.982745
0.981146
0.97917
0.977393
0.975422
0.973377
0.971475
0.968875
0.966068
0.963417
0.960164
0.957816
0.953359
0.955372
0.993143
1.87254
2.24815
2.3632
2.44979
2.69198
2.80359
2.78989
2.79752
2.7914
2.78258
2.77929
2.7945
2.81447
2.83691
2.86449
2.88966
2.91613
2.94357
2.96714
2.98353
2.99125
2.9963
2.99456
2.9905
2.99335
2.99282
2.99215
2.99388
3.00529
3.02424
3.03886
3.04498
3.0447
3.04009
3.03299
3.02659
3.02173
3.01419
3.00666
3.00468
2.99997
2.99583
2.97339
2.95384
2.91533
2.85487
2.73745
2.60301
1
1
1
1
1
1
1
1
1
1
1
1
1
1
0.999999
0.999999
0.999998
0.999996
0.999994
0.99999
0.999984
0.999975
0.999962
0.999944
0.999918
0.999882
0.999835
0.999773
0.999693
0.999592
0.999468
0.999317
0.999137
0.998925
0.998679
0.998399
0.998083
0.997731
0.997344
0.996922
0.996468
0.995987
0.995474
0.994933
0.994378
0.993775
0.993114
0.992406
0.991608
0.990696
0.989826
0.988902
0.987638
0.986458
0.985289
0.983709
0.982272
0.980703
0.978644
0.976973
0.97541
0.972891
0.969758
0.967186
0.964948
0.962999
0.960095
0.957507
0.954287
0.95072
1.14201
2.11568
2.26547
2.34972
2.5114
2.77254
2.84943
2.81693
2.81431
2.80987
2.79979
2.7988
2.8053
2.81459
2.82913
2.85108
2.87816
2.90287
2.93378
2.96027
2.97758
2.99137
3.00116
3.00618
3.00384
3.00295
2.99722
2.99249
2.99189
2.9989
3.01321
3.02898
3.03917
3.04028
3.03753
3.03112
3.0236
3.01594
3.00512
2.99647
2.99509
2.9934
2.98947
2.96617
2.9445
2.9041
2.83999
2.71359
2.59585
1
1
1
1
1
1
1
1
1
1
1
1
1
1
0.999999
0.999999
0.999998
0.999996
0.999994
0.99999
0.999984
0.999975
0.999962
0.999944
0.999918
0.999882
0.999834
0.999772
0.999691
0.99959
0.999465
0.999314
0.999132
0.998919
0.998672
0.99839
0.998071
0.997717
0.997327
0.996904
0.996443
0.995956
0.995445
0.994898
0.99432
0.993749
0.993087
0.992314
0.9915
0.990641
0.989686
0.988687
0.987522
0.98621
0.985018
0.983487
0.981905
0.980339
0.97825
0.976432
0.974997
0.972833
0.969354
0.966507
0.963978
0.961356
0.958127
0.953758
0.954888
0.947402
1.36266
2.25675
2.32722
2.39771
2.59944
2.81806
2.86228
2.83264
2.82035
2.81936
2.80957
2.80564
2.80578
2.81219
2.82383
2.84554
2.87319
2.89767
2.92427
2.94614
2.96128
2.97699
2.98881
2.99756
3.00135
3.004
3.00104
2.99453
2.99072
2.99261
3.00152
3.01536
3.0284
3.03183
3.03142
3.02604
3.01795
3.00846
2.99693
2.98928
2.98849
2.98764
2.98252
2.95791
2.9352
2.89411
2.82664
2.69237
2.58964
1
1
1
1
1
1
1
1
1
1
1
1
1
1
0.999999
0.999999
0.999998
0.999996
0.999994
0.99999
0.999984
0.999975
0.999962
0.999943
0.999917
0.999881
0.999833
0.99977
0.99969
0.999588
0.999462
0.99931
0.999127
0.998912
0.998664
0.998379
0.998058
0.9977
0.997308
0.996878
0.996416
0.995921
0.995402
0.994852
0.994278
0.99366
0.992987
0.992242
0.99143
0.990532
0.98954
0.988547
0.987347
0.985926
0.984777
0.983339
0.981425
0.979859
0.97816
0.975978
0.973947
0.971614
0.968511
0.965884
0.963424
0.959672
0.955868
0.949445
0.952383
0.952919
1.60338
2.29302
2.42289
2.49971
2.71598
2.85989
2.87134
2.8376
2.81088
2.80948
2.8091
2.80208
2.80124
2.80575
2.82216
2.84152
2.86424
2.88535
2.90344
2.91922
2.93526
2.95706
2.9762
2.98954
2.99969
3.00199
2.99785
2.99161
2.98772
2.98886
2.99627
3.00841
3.01812
3.02196
3.02197
3.01747
3.01055
3.001
2.99052
2.9843
2.98284
2.98134
2.97467
2.94872
2.9248
2.88316
2.81488
2.67407
2.58307
1
1
1
1
1
1
1
1
1
1
1
1
1
1
0.999999
0.999999
0.999998
0.999996
0.999994
0.99999
0.999984
0.999975
0.999962
0.999943
0.999917
0.999881
0.999832
0.999769
0.999688
0.999585
0.999459
0.999305
0.999121
0.998905
0.998654
0.998367
0.998044
0.997684
0.997286
0.996854
0.996387
0.995889
0.99536
0.994809
0.994231
0.993604
0.992911
0.992157
0.991331
0.990428
0.989434
0.988349
0.987169
0.985816
0.984507
0.983107
0.981133
0.979336
0.977971
0.976288
0.973227
0.970048
0.967535
0.965492
0.962583
0.958454
0.95596
0.950371
0.952504
0.981467
1.89611
2.29746
2.45939
2.65795
2.81924
2.85846
2.8659
2.83754
2.79811
2.79722
2.79845
2.79317
2.7881
2.79957
2.81418
2.83124
2.85168
2.86925
2.88409
2.89768
2.91736
2.94107
2.96375
2.97977
2.99192
2.99459
2.9927
2.98901
2.98612
2.98711
2.99301
3.00126
3.00664
3.009
3.00972
3.00745
3.00266
2.99398
2.98595
2.98051
2.97726
2.97422
2.96554
2.9382
2.91409
2.87316
2.80423
2.65674
2.57717
1
1
1
1
1
1
1
1
1
1
1
1
1
1
0.999999
0.999999
0.999998
0.999996
0.999994
0.99999
0.999984
0.999975
0.999962
0.999943
0.999916
0.99988
0.999831
0.999767
0.999686
0.999582
0.999455
0.9993
0.999115
0.998896
0.998644
0.998354
0.998028
0.997664
0.997263
0.996826
0.996356
0.995852
0.995316
0.994756
0.994173
0.993539
0.992838
0.992066
0.99122
0.990305
0.98932
0.988189
0.986984
0.985757
0.984189
0.982692
0.981108
0.978982
0.977211
0.975709
0.97296
0.969505
0.966828
0.964635
0.961856
0.957928
0.9544
0.950439
0.948254
1.14261
2.17003
2.36329
2.49805
2.76388
2.86657
2.84015
2.84951
2.83809
2.79689
2.78469
2.78473
2.78127
2.7824
2.79092
2.8007
2.81458
2.83225
2.84802
2.86336
2.88012
2.90183
2.92636
2.94893
2.96497
2.97715
2.98186
2.98464
2.98479
2.98456
2.98568
2.9892
2.99266
2.99246
2.99187
2.99564
2.9976
2.99532
2.9882
2.98267
2.97727
2.97137
2.96581
2.95455
2.92661
2.90367
2.86469
2.79434
2.64259
2.57147
1
1
1
1
1
1
1
1
1
1
1
1
1
1
0.999999
0.999999
0.999998
0.999996
0.999994
0.99999
0.999984
0.999975
0.999962
0.999942
0.999916
0.999879
0.99983
0.999766
0.999683
0.999579
0.999451
0.999294
0.999107
0.998887
0.998632
0.99834
0.998011
0.997644
0.99724
0.996798
0.996321
0.995813
0.995277
0.994709
0.994117
0.993477
0.992766
0.991988
0.991125
0.990189
0.989197
0.988055
0.986803
0.985605
0.984013
0.982385
0.980948
0.978824
0.976762
0.975112
0.97259
0.969546
0.967148
0.964894
0.961025
0.956886
0.950969
0.952366
0.945439
1.40795
2.27581
2.4642
2.62133
2.8342
2.89428
2.84662
2.83763
2.83507
2.80378
2.77642
2.77253
2.77357
2.77981
2.78402
2.78885
2.79859
2.81528
2.83218
2.84836
2.86774
2.88911
2.91127
2.93088
2.9456
2.95952
2.96861
2.9774
2.9834
2.98662
2.98679
2.98427
2.98067
2.97719
2.97696
2.9826
2.98766
2.98744
2.98216
2.97886
2.97322
2.96497
2.95603
2.94238
2.91521
2.89471
2.85722
2.78397
2.62935
2.56523
1
1
1
1
1
1
1
1
1
1
1
1
1
1
0.999999
0.999999
0.999998
0.999996
0.999994
0.99999
0.999984
0.999975
0.999961
0.999942
0.999915
0.999878
0.999829
0.999764
0.999681
0.999576
0.999446
0.999288
0.999099
0.998877
0.99862
0.998325
0.997992
0.997622
0.997214
0.996769
0.996285
0.995772
0.99523
0.99466
0.994058
0.993411
0.992689
0.991904
0.991035
0.990094
0.989054
0.987924
0.986671
0.985323
0.983802
0.982151
0.980693
0.978688
0.976381
0.974539
0.972349
0.969092
0.966107
0.963591
0.960265
0.955665
0.948147
0.951733
0.961394
1.73019
2.36339
2.56387
2.73646
2.88987
2.89263
2.84089
2.82571
2.82553
2.80184
2.77279
2.76679
2.7737
2.77282
2.77442
2.77446
2.78487
2.79999
2.81782
2.83442
2.85492
2.87485
2.89498
2.91306
2.9294
2.94663
2.96057
2.9732
2.98179
2.98519
2.98117
2.97235
2.96563
2.9629
2.96582
2.97294
2.97842
2.97905
2.97556
2.97416
2.96743
2.95719
2.94473
2.92934
2.9051
2.88583
2.85038
2.77337
2.61741
2.55811
1
1
1
1
1
1
1
1
1
1
1
1
1
1
0.999999
0.999999
0.999998
0.999996
0.999994
0.99999
0.999984
0.999975
0.999961
0.999942
0.999914
0.999877
0.999827
0.999762
0.999678
0.999572
0.999441
0.999281
0.999091
0.998866
0.998606
0.998309
0.997973
0.997598
0.997186
0.996737
0.996251
0.995731
0.995183
0.994609
0.994008
0.993349
0.992618
0.991818
0.990956
0.989996
0.988941
0.987798
0.986558
0.9852
0.983715
0.98209
0.980335
0.978478
0.976425
0.974082
0.971651
0.968924
0.96586
0.963513
0.960815
0.957621
0.95353
0.951552
1.0811
2.11021
2.44654
2.67244
2.84939
2.87012
2.86037
2.82954
2.80965
2.81016
2.79326
2.76739
2.76366
2.76938
2.76433
2.75844
2.76009
2.77218
2.7854
2.80501
2.822
2.8421
2.86076
2.87905
2.89538
2.91295
2.93312
2.95229
2.9682
2.97617
2.97616
2.96829
2.95877
2.95433
2.95499
2.96017
2.96629
2.96916
2.96978
2.9681
2.96795
2.96024
2.94846
2.93378
2.91807
2.89739
2.87821
2.84192
2.76101
2.60547
2.54928
1
1
1
1
1
1
1
1
1
1
1
1
1
1
0.999999
0.999999
0.999998
0.999996
0.999994
0.99999
0.999984
0.999974
0.999961
0.999941
0.999914
0.999876
0.999826
0.999759
0.999675
0.999567
0.999435
0.999274
0.999081
0.998855
0.998592
0.998291
0.997952
0.997573
0.997157
0.996704
0.996215
0.995689
0.995132
0.994554
0.993954
0.99329
0.992547
0.991743
0.990868
0.989903
0.988838
0.987681
0.986433
0.985063
0.983521
0.981859
0.980151
0.978492
0.976348
0.973954
0.971421
0.968518
0.965824
0.962997
0.959233
0.95354
0.953915
0.944999
1.32422
2.32741
2.56572
2.82208
2.892
2.85683
2.83566
2.83252
2.80733
2.78667
2.77136
2.75995
2.76038
2.75487
2.75007
2.74506
2.74972
2.76148
2.76991
2.78883
2.80627
2.82554
2.84272
2.85975
2.87594
2.89622
2.91938
2.94084
2.95581
2.96109
2.95978
2.95421
2.94984
2.94891
2.95113
2.95549
2.95833
2.95809
2.95953
2.95974
2.95985
2.95096
2.93798
2.92303
2.90905
2.88995
2.87027
2.83228
2.74983
2.59374
2.53931
1
1
1
1
1
1
1
1
1
1
1
1
1
1
0.999999
0.999999
0.999998
0.999996
0.999994
0.99999
0.999984
0.999974
0.99996
0.99994
0.999913
0.999875
0.999824
0.999757
0.999671
0.999563
0.999429
0.999266
0.999071
0.998842
0.998576
0.998272
0.997929
0.997547
0.997125
0.996667
0.996176
0.995647
0.995082
0.994496
0.993896
0.99323
0.992477
0.991665
0.990777
0.989804
0.988727
0.987474
0.986322
0.985099
0.9833
0.981687
0.980329
0.978252
0.975828
0.973954
0.971624
0.968584
0.965829
0.963137
0.960587
0.956195
0.957919
0.959924
1.72085
2.47772
2.68447
2.85263
2.91685
2.86271
2.82268
2.82167
2.8
2.7679
2.75408
2.75107
2.74915
2.74226
2.73146
2.73364
2.73725
2.74634
2.75329
2.77084
2.78702
2.80601
2.82116
2.83812
2.85643
2.88013
2.90543
2.92511
2.9368
2.9404
2.94104
2.94128
2.94303
2.94559
2.94756
2.94856
2.9476
2.94654
2.94982
2.95133
2.95086
2.93993
2.92772
2.9135
2.90153
2.88373
2.86224
2.82157
2.73748
2.58079
2.52761
1
1
1
1
1
1
1
1
1
1
1
1
1
1
0.999999
0.999999
0.999998
0.999996
0.999994
0.99999
0.999983
0.999974
0.99996
0.99994
0.999912
0.999873
0.999822
0.999754
0.999667
0.999558
0.999422
0.999257
0.99906
0.998828
0.998559
0.998251
0.997905
0.997519
0.997093
0.996629
0.996131
0.995599
0.995033
0.99444
0.993825
0.993158
0.992409
0.991584
0.990684
0.989728
0.988647
0.987348
0.986207
0.984968
0.983138
0.98152
0.980189
0.97817
0.975835
0.974027
0.971698
0.968635
0.966037
0.963246
0.959116
0.954968
0.94885
1.06331
2.09274
2.65734
2.84748
2.87193
2.87592
2.82959
2.78984
2.79302
2.78274
2.75862
2.74388
2.74369
2.73461
2.72601
2.71467
2.72167
2.72374
2.72994
2.73557
2.75361
2.76723
2.78597
2.80103
2.81853
2.83934
2.86419
2.8889
2.90569
2.91558
2.92082
2.92623
2.93227
2.93758
2.94067
2.93998
2.93815
2.93582
2.9369
2.94037
2.94134
2.93883
2.92721
2.9176
2.9055
2.89429
2.87776
2.85404
2.81081
2.72467
2.56712
2.51752
1
1
1
1
1
1
1
1
1
1
1
1
1
1
0.999999
0.999999
0.999998
0.999996
0.999994
0.99999
0.999983
0.999974
0.99996
0.999939
0.999911
0.999872
0.99982
0.999751
0.999663
0.999552
0.999415
0.999248
0.999048
0.998813
0.99854
0.998229
0.997877
0.997486
0.997057
0.996588
0.996082
0.995544
0.994978
0.994382
0.993756
0.993084
0.992332
0.991505
0.990604
0.989618
0.988552
0.987387
0.986105
0.984734
0.983234
0.981579
0.97988
0.978049
0.97583
0.973865
0.971474
0.968468
0.965987
0.964339
0.96084
0.961487
0.953683
1.3363
2.41338
2.74741
2.8868
2.86301
2.84874
2.80591
2.76801
2.76639
2.76336
2.74423
2.72917
2.72959
2.71818
2.70611
2.70183
2.70777
2.70797
2.71143
2.7182
2.73573
2.74692
2.7657
2.78108
2.80016
2.82293
2.84803
2.87209
2.88634
2.89537
2.90293
2.9135
2.92376
2.93139
2.93317
2.93
2.92732
2.92583
2.92898
2.93228
2.93035
2.92532
2.91522
2.9087
2.89887
2.88738
2.87125
2.84536
2.79904
2.71032
2.55187
2.50794
1
1
1
1
1
1
1
1
1
1
1
1
1
1
0.999999
0.999999
0.999998
0.999996
0.999994
0.99999
0.999983
0.999973
0.999959
0.999939
0.99991
0.99987
0.999818
0.999748
0.999659
0.999546
0.999407
0.999237
0.999035
0.998796
0.998519
0.998204
0.997848
0.997451
0.997015
0.996542
0.996031
0.995485
0.994912
0.99431
0.993681
0.992996
0.992237
0.991407
0.990499
0.989504
0.988424
0.987272
0.985996
0.984507
0.98308
0.981609
0.97957
0.977724
0.976223
0.974142
0.971145
0.968237
0.965442
0.96385
0.958566
0.957977
0.979106
1.8253
2.63251
2.83634
2.85674
2.82857
2.82611
2.78886
2.74853
2.74211
2.74387
2.73075
2.71293
2.71169
2.70437
2.69281
2.69094
2.69187
2.68918
2.69341
2.69795
2.71507
2.72686
2.74614
2.76223
2.78254
2.80503
2.82911
2.85185
2.86605
2.87706
2.8879
2.90244
2.91459
2.92228
2.92271
2.9191
2.9175
2.91782
2.92092
2.92205
2.91712
2.9109
2.90363
2.90053
2.89239
2.88003
2.8631
2.83514
2.78708
2.6956
2.53617
2.50131
1
1
1
1
1
1
1
1
1
1
1
1
1
1
0.999999
0.999999
0.999998
0.999996
0.999994
0.999989
0.999983
0.999973
0.999959
0.999938
0.999909
0.999869
0.999815
0.999745
0.999654
0.99954
0.999398
0.999226
0.99902
0.998778
0.998497
0.998176
0.997815
0.997412
0.996969
0.996488
0.995972
0.99542
0.994838
0.994228
0.993594
0.992898
0.992129
0.991305
0.990379
0.989361
0.988283
0.987112
0.98584
0.984335
0.982757
0.981457
0.979768
0.977576
0.97592
0.974148
0.970955
0.968101
0.966133
0.964306
0.96095
0.953072
1.13844
2.25544
2.78709
2.87251
2.8135
2.78522
2.79316
2.7646
2.72427
2.71747
2.72119
2.71152
2.69283
2.69089
2.68684
2.67932
2.67527
2.67283
2.66964
2.67514
2.67471
2.69068
2.70445
2.72467
2.74212
2.76375
2.78509
2.80817
2.83004
2.84572
2.86118
2.8758
2.89205
2.90295
2.90923
2.90976
2.90829
2.90899
2.91057
2.91131
2.90914
2.90363
2.8981
2.89309
2.89324
2.88559
2.87195
2.85356
2.8247
2.77456
2.67941
2.52125
2.49518
1
1
1
1
1
1
1
1
1
1
1
1
1
1
0.999999
0.999999
0.999998
0.999996
0.999994
0.999989
0.999983
0.999973
0.999958
0.999937
0.999908
0.999867
0.999813
0.999741
0.999649
0.999533
0.999389
0.999214
0.999004
0.998758
0.998472
0.998145
0.997777
0.997368
0.996918
0.996428
0.995901
0.995343
0.994752
0.994133
0.993489
0.992786
0.992002
0.991154
0.990228
0.989203
0.988087
0.986854
0.985687
0.984206
0.98249
0.981153
0.979555
0.977339
0.975563
0.973635
0.970733
0.967355
0.965495
0.962674
0.963214
0.951604
1.54415
2.60353
2.80535
2.83051
2.78503
2.75446
2.75896
2.74023
2.70456
2.69444
2.69547
2.6862
2.66986
2.66636
2.66567
2.66411
2.65952
2.65269
2.65039
2.65543
2.65308
2.66818
2.68237
2.70415
2.72416
2.74602
2.7652
2.78624
2.80718
2.82566
2.84644
2.86405
2.87943
2.8882
2.89336
2.89556
2.89798
2.90057
2.90168
2.89967
2.8954
2.89032
2.88683
2.88379
2.88514
2.87721
2.86174
2.84126
2.81259
2.76226
2.66281
2.5084
2.49142
1
1
1
1
1
1
1
1
1
1
1
1
1
1
0.999999
0.999999
0.999998
0.999996
0.999994
0.999989
0.999983
0.999973
0.999958
0.999937
0.999907
0.999865
0.99981
0.999737
0.999644
0.999525
0.999379
0.9992
0.998987
0.998736
0.998444
0.998112
0.997736
0.997319
0.99686
0.996362
0.995825
0.995254
0.994651
0.994021
0.993366
0.992654
0.991858
0.990981
0.990037
0.989008
0.987896
0.986661
0.985365
0.984024
0.982263
0.980644
0.979311
0.977242
0.974827
0.972973
0.970971
0.967694
0.966139
0.963675
0.961588
1.003
2.06144
2.77448
2.82319
2.80321
2.75302
2.72729
2.73012
2.71834
2.69589
2.67951
2.67315
2.66048
2.64542
2.64269
2.64551
2.64522
2.64092
2.63439
2.63129
2.63512
2.63327
2.64816
2.66184
2.68438
2.70737
2.72855
2.74472
2.76353
2.78487
2.80688
2.83232
2.85016
2.86386
2.87124
2.87706
2.88192
2.88755
2.89061
2.89061
2.88692
2.88229
2.87827
2.87711
2.87584
2.87593
2.86653
2.85066
2.82952
2.80145
2.75103
2.64502
2.49711
2.48719
1
1
1
1
1
1
1
1
1
1
1
1
1
1
0.999999
0.999999
0.999998
0.999996
0.999993
0.999989
0.999982
0.999972
0.999957
0.999936
0.999905
0.999864
0.999807
0.999733
0.999638
0.999518
0.999368
0.999186
0.998968
0.998712
0.998414
0.998074
0.997691
0.997264
0.996795
0.996286
0.995738
0.995153
0.994536
0.993892
0.993222
0.992493
0.991681
0.99079
0.989813
0.988761
0.987643
0.986358
0.985021
0.98375
0.981959
0.980234
0.978869
0.977083
0.974914
0.97317
0.971031
0.968243
0.964889
0.963231
0.954407
1.30835
2.57409
2.77557
2.76802
2.75526
2.72237
2.70136
2.7078
2.70093
2.6826
2.65824
2.65046
2.64027
2.62734
2.62427
2.62817
2.62449
2.61701
2.61257
2.61097
2.61631
2.61596
2.63082
2.64422
2.66579
2.68723
2.70651
2.72208
2.74049
2.76401
2.78977
2.81754
2.83388
2.84571
2.85321
2.86148
2.8691
2.87658
2.87932
2.87849
2.87398
2.86986
2.86733
2.86822
2.86757
2.86386
2.8522
2.83765
2.81703
2.79024
2.73974
2.62899
2.48802
2.48388
1
1
1
1
1
1
1
1
1
1
1
1
1
1
0.999999
0.999999
0.999998
0.999996
0.999993
0.999989
0.999982
0.999972
0.999957
0.999935
0.999904
0.999862
0.999805
0.999729
0.999632
0.999509
0.999357
0.999171
0.998949
0.998687
0.998382
0.998034
0.997641
0.997205
0.996723
0.9962
0.995638
0.995039
0.994405
0.993745
0.993055
0.992305
0.991471
0.990557
0.989522
0.988495
0.987335
0.985923
0.984721
0.983395
0.981597
0.97999
0.978437
0.976223
0.973687
0.971688
0.969352
0.967875
0.965279
0.964876
0.970936
1.84679
2.69265
2.78107
2.72952
2.72107
2.69611
2.67271
2.67503
2.66681
2.64621
2.62925
2.62765
2.62428
2.61676
2.61358
2.60885
2.59981
2.5901
2.59112
2.59072
2.59724
2.59953
2.61331
2.6238
2.64266
2.66125
2.68015
2.69932
2.71809
2.74447
2.77323
2.80079
2.81503
2.82615
2.83501
2.84642
2.85637
2.86506
2.86666
2.86587
2.86144
2.85841
2.85772
2.85919
2.85686
2.84952
2.83717
2.82502
2.80599
2.77989
2.72921
2.61341
2.47906
2.47897
1
1
1
1
1
1
1
1
1
1
1
1
1
1
0.999999
0.999999
0.999998
0.999996
0.999993
0.999989
0.999982
0.999972
0.999956
0.999934
0.999903
0.99986
0.999802
0.999725
0.999626
0.999501
0.999345
0.999155
0.998928
0.998659
0.998348
0.997991
0.997588
0.997139
0.996645
0.996107
0.995529
0.994911
0.99426
0.993576
0.992867
0.992096
0.991224
0.990281
0.989256
0.988152
0.986943
0.985618
0.984191
0.982667
0.980993
0.979172
0.977332
0.975612
0.973849
0.972055
0.97025
0.967448
0.964641
0.954967
1.19172
2.37481
2.69497
2.73036
2.70564
2.69811
2.67982
2.65722
2.64762
2.63494
2.61342
2.60382
2.60656
2.60848
2.60207
2.59277
2.58338
2.5757
2.56892
2.57184
2.57174
2.5773
2.57981
2.59087
2.59971
2.61681
2.63674
2.65529
2.67793
2.69723
2.72431
2.75347
2.7806
2.79494
2.80702
2.81767
2.83145
2.8428
2.85256
2.8532
2.85299
2.85003
2.84807
2.84766
2.84729
2.84333
2.83395
2.82216
2.81238
2.79506
2.76972
2.71878
2.59954
2.47012
2.47593
1
1
1
1
1
1
1
1
1
1
1
1
1
1
0.999999
0.999999
0.999998
0.999996
0.999993
0.999989
0.999982
0.999972
0.999956
0.999934
0.999902
0.999858
0.999799
0.999721
0.99962
0.999492
0.999333
0.999139
0.998906
0.998631
0.998311
0.997945
0.997531
0.997069
0.996561
0.996006
0.995411
0.994773
0.9941
0.993391
0.992663
0.991861
0.990961
0.989969
0.988902
0.987749
0.986484
0.985112
0.983646
0.982113
0.980465
0.978704
0.976812
0.974567
0.97212
0.969306
0.966739
0.962318
0.962103
0.956444
1.65465
2.55167
2.67376
2.69609
2.67001
2.64958
2.638
2.62066
2.61111
2.60303
2.59126
2.5884
2.59139
2.58638
2.57538
2.5638
2.5595
2.55564
2.55346
2.55576
2.55434
2.55469
2.55688
2.56555
2.57657
2.59069
2.61337
2.63372
2.65758
2.67567
2.70052
2.72998
2.75874
2.7757
2.78971
2.80185
2.81673
2.82808
2.83812
2.83878
2.83976
2.83872
2.83722
2.83479
2.83281
2.82903
2.81934
2.80877
2.80064
2.78513
2.75974
2.70909
2.58548
2.46113
2.47141
1
1
1
1
1
1
1
1
1
1
1
1
1
1
0.999999
0.999999
0.999998
0.999996
0.999993
0.999989
0.999982
0.999971
0.999956
0.999933
0.999901
0.999856
0.999796
0.999717
0.999614
0.999483
0.999321
0.999123
0.998884
0.998602
0.998274
0.997898
0.997472
0.996997
0.996472
0.995902
0.995283
0.994627
0.993928
0.993199
0.992439
0.991603
0.990666
0.989641
0.988539
0.987328
0.98602
0.984607
0.983071
0.9814
0.979524
0.977508
0.975436
0.973304
0.971407
0.969302
0.96782
0.966252
0.96062
1.0503
2.12588
2.60904
2.66784
2.65306
2.6293
2.61562
2.60924
2.59024
2.5795
2.57331
2.57219
2.57278
2.56674
2.55617
2.54455
2.53995
2.54084
2.54065
2.53913
2.53776
2.53326
2.53129
2.53466
2.53937
2.5532
2.56682
2.59125
2.61237
2.6351
2.65149
2.67533
2.70546
2.73618
2.75795
2.77412
2.78696
2.80143
2.81237
2.82248
2.82414
2.82673
2.82675
2.8246
2.81995
2.81734
2.81461
2.80624
2.79679
2.78901