/*--------------------------------*- C++ -*----------------------------------*\
| =========                 |                                                 |
| \\      /  F ield         | OpenFOAM: The Open Source CFD Toolbox           |
|  \\    /   O peration     | Version:  2.2.x                                 |
|   \\  /    A nd           | Web:      www.OpenFOAM.org                      |
|    \\/     M anipulation  |                                                 |
\*---------------------------------------------------------------------------*/
FoamFile
{
    version     2.0;
    format      ascii;
    class       volScalarField;
    location    "1.8";
    object      p;
}
// * * * * * * * * * * * * * * * * * * * * * * * * * * * * * * * * * * * * * //

dimensions      [1 -1 -2 0 0 0 0];

internalField   nonuniform List<scalar> 
14161
(
0.198074
0.198293
0.198207
0.198143
0.198043
0.197916
0.197783
0.197624
0.197428
0.197244
0.197028
0.196759
0.196575
0.196353
0.195973
0.195745
0.195578
0.195212
0.194834
0.194659
0.19451
0.194106
0.193695
0.193473
0.193374
0.193349
0.193117
0.192722
0.192623
0.192598
0.192643
0.192881
0.193121
0.193405
0.193739
0.194287
0.194896
0.195481
0.196046
0.197179
0.199339
0.201527
0.203781
0.205875
0.207869
0.205687
0.677529
1.53296
1.6473
1.66836
1.64174
1.62322
1.58096
1.54702
1.50743
1.47048
1.43531
1.39851
1.36485
1.33184
1.29882
1.26828
1.23937
1.21209
1.18729
1.16597
1.14805
1.13371
1.12279
1.11472
1.10856
1.1046
1.1019
1.09999
1.0981
1.09691
1.09753
1.08447
1.08152
1.08097
1.0694
1.06514
1.06181
1.05887
1.05786
1.04482
1.04153
1.03982
1.04018
1.03
1.02643
1.01753
1.01223
1.00903
1.00903
0.993559
0.98631
0.979278
0.973247
0.956268
0.947949
0.934031
0.92953
0.921764
0.944742
0.98004
1.13974
1.33413
1.53264
1.68984
1.79517
1.86297
1.91255
1.94761
1.9744
1.99435
2.00949
2.01727
2.02822
0.198072
0.198293
0.198207
0.198143
0.198043
0.197916
0.197782
0.197622
0.197429
0.197245
0.197024
0.196769
0.196578
0.196339
0.195978
0.19576
0.195562
0.195184
0.194861
0.194684
0.194493
0.194078
0.19368
0.193477
0.193407
0.193338
0.193086
0.192722
0.192611
0.19258
0.192616
0.192868
0.193097
0.193363
0.193741
0.194248
0.194812
0.195532
0.196138
0.197211
0.198837
0.201043
0.203188
0.205317
0.207776
0.208203
0.692842
1.53544
1.65769
1.67126
1.64289
1.62184
1.57855
1.54419
1.50648
1.47036
1.43574
1.3996
1.36529
1.33196
1.29834
1.26729
1.23798
1.21045
1.18586
1.16457
1.1463
1.13193
1.12131
1.11296
1.10674
1.10202
1.09817
1.09539
1.0936
1.09262
1.09287
1.07989
1.07733
1.07671
1.06532
1.0614
1.05861
1.05621
1.05502
1.04168
1.03856
1.03712
1.03717
1.02677
1.02334
1.01444
1.00913
1.00618
1.00599
0.99015
0.982848
0.975435
0.969089
0.95388
0.946562
0.936204
0.938265
0.938675
0.988365
1.0746
1.27425
1.47374
1.64768
1.76662
1.84246
1.89339
1.93167
1.95974
1.98139
1.99665
2.00885
2.01338
2.02697
0.198074
0.198293
0.198207
0.198142
0.198043
0.197918
0.19778
0.19762
0.197432
0.197241
0.197017
0.19678
0.19657
0.196323
0.196001
0.195768
0.195539
0.195179
0.194909
0.194688
0.194456
0.194043
0.1937
0.193522
0.193411
0.193294
0.19305
0.192725
0.192612
0.19256
0.192581
0.192801
0.193005
0.19327
0.193614
0.194038
0.194578
0.195232
0.195792
0.196854
0.198633
0.200518
0.202556
0.204734
0.207536
0.20633
0.697947
1.52542
1.66539
1.66937
1.63957
1.61636
1.56855
1.53154
1.49427
1.45641
1.4215
1.3861
1.35148
1.31807
1.28408
1.25416
1.22593
1.19969
1.17651
1.15576
1.13802
1.12424
1.11444
1.10693
1.10066
1.09543
1.09127
1.08884
1.08739
1.0865
1.08703
1.07443
1.07209
1.07088
1.06071
1.05675
1.05436
1.05204
1.05098
1.03787
1.03475
1.03325
1.0328
1.02286
1.01934
1.0109
1.00556
1.00264
1.00228
0.986125
0.979105
0.971873
0.966231
0.953368
0.950578
0.942854
0.963054
0.980228
1.06783
1.21428
1.40549
1.58257
1.70968
1.79796
1.85942
1.90202
1.93594
1.95905
1.97781
1.99068
2.00181
2.00414
2.01947
0.198075
0.198293
0.198208
0.198142
0.198044
0.197921
0.197778
0.197619
0.197437
0.197239
0.197014
0.1968
0.196559
0.196311
0.196034
0.195768
0.195494
0.195193
0.194966
0.19468
0.194397
0.194027
0.193768
0.193582
0.193376
0.193206
0.192973
0.192733
0.192619
0.192549
0.192569
0.192717
0.192863
0.193084
0.19333
0.193708
0.194202
0.194829
0.195484
0.196446
0.197711
0.199273
0.201095
0.203496
0.206035
0.207553
0.691504
1.51101
1.66184
1.66241
1.62611
1.59816
1.54851
1.50883
1.4717
1.43167
1.39639
1.36088
1.32381
1.2905
1.25673
1.22857
1.20275
1.17758
1.15622
1.13633
1.12
1.10713
1.09864
1.09259
1.08712
1.0823
1.07817
1.07572
1.07459
1.07388
1.07503
1.06334
1.0612
1.05976
1.05083
1.04725
1.04524
1.04304
1.04258
1.02992
1.02696
1.02536
1.02455
1.01532
1.01171
1.00408
0.998647
0.995754
0.99487
0.979388
0.973402
0.969344
0.965654
0.954628
0.964938
0.965625
1.01758
1.08855
1.24787
1.4285
1.58476
1.68122
1.75698
1.82001
1.87127
1.90851
1.93741
1.95627
1.9723
1.98245
1.99207
1.99284
2.01022
0.198078
0.198295
0.198209
0.198143
0.198046
0.197924
0.197777
0.19762
0.197443
0.197236
0.197017
0.196816
0.196555
0.196299
0.196065
0.195771
0.195449
0.19521
0.195009
0.19468
0.194326
0.194028
0.193846
0.193643
0.193303
0.193075
0.192878
0.192763
0.192657
0.192553
0.192515
0.192572
0.192638
0.192747
0.19293
0.193289
0.193706
0.194219
0.19485
0.19548
0.196414
0.19754
0.199031
0.201135
0.203234
0.208206
0.644611
1.48022
1.65255
1.65177
1.60151
1.56839
1.51629
1.47506
1.43693
1.39646
1.3604
1.32704
1.28849
1.25741
1.22398
1.19806
1.17359
1.14972
1.13014
1.11077
1.09665
1.08423
1.07613
1.0709
1.06658
1.06263
1.05924
1.05742
1.05689
1.05651
1.05885
1.04859
1.04682
1.04541
1.03777
1.03465
1.03277
1.0307
1.03043
1.01906
1.01619
1.01449
1.01344
1.00496
1.00135
0.994448
0.989353
0.987312
0.987213
0.974073
0.9702
0.971961
0.971034
0.962052
1.00185
1.02471
1.13067
1.27799
1.4474
1.59986
1.67983
1.72885
1.78214
1.82959
1.87634
1.90805
1.93408
1.95027
1.9642
1.97218
1.98021
1.98053
1.9999
0.198081
0.198297
0.198211
0.198144
0.198047
0.197927
0.197777
0.197622
0.19745
0.197232
0.197021
0.196829
0.196547
0.196287
0.196085
0.195784
0.195419
0.195216
0.195044
0.194692
0.19428
0.194037
0.193897
0.193694
0.193242
0.192973
0.192811
0.192752
0.192686
0.19257
0.192368
0.192331
0.19233
0.192383
0.192494
0.192771
0.193095
0.193453
0.193822
0.19423
0.194716
0.195309
0.196072
0.197312
0.198536
0.209748
0.547528
1.4332
1.64495
1.62879
1.564
1.51728
1.46615
1.4209
1.38176
1.34241
1.30795
1.2782
1.24245
1.2163
1.18522
1.16284
1.13654
1.1165
1.09921
1.07972
1.06841
1.0565
1.04843
1.04369
1.04002
1.037
1.03464
1.0336
1.03353
1.03336
1.03605
1.02793
1.02579
1.02413
1.01865
1.01576
1.01392
1.01224
1.01214
1.00296
0.99991
0.998096
0.997185
0.990218
0.987584
0.981883
0.978719
0.978788
0.982451
0.975833
0.96915
0.984012
0.993847
0.994361
1.0784
1.15894
1.32464
1.4865
1.62326
1.6872
1.72055
1.75399
1.79243
1.83283
1.87417
1.90339
1.92776
1.94195
1.95411
1.96058
1.96764
1.96793
1.98854
0.198086
0.198299
0.198213
0.198147
0.198049
0.19793
0.19778
0.197625
0.197457
0.197229
0.197024
0.196841
0.196547
0.196287
0.196099
0.195791
0.195409
0.195221
0.195061
0.1947
0.194255
0.194033
0.193906
0.193715
0.193223
0.192927
0.192759
0.192702
0.192674
0.192559
0.192188
0.192066
0.192
0.191998
0.19205
0.192226
0.192418
0.192556
0.192643
0.192693
0.19265
0.19259
0.192532
0.192532
0.192056
0.200979
0.396663
1.34439
1.6348
1.58723
1.51106
1.44467
1.38952
1.35256
1.31854
1.28718
1.25611
1.22809
1.19649
1.17611
1.14459
1.13029
1.09668
1.08553
1.0662
1.05044
1.04186
1.02763
1.02186
1.0165
1.0138
1.01172
1.01043
1.00997
1.01028
1.01073
1.0125
1.0074
1.00484
1.00246
0.999224
0.996242
0.994893
0.993547
0.993535
0.987104
0.984024
0.982809
0.982529
0.978046
0.976889
0.97382
0.975196
0.975707
0.983969
0.987743
0.978873
1.01701
1.04775
1.08169
1.22664
1.37239
1.52625
1.64494
1.69408
1.71771
1.73673
1.76605
1.79667
1.83549
1.87019
1.89726
1.91963
1.93212
1.94274
1.94817
1.95496
1.95547
1.97577
0.198091
0.198302
0.198216
0.19815
0.198052
0.197933
0.197784
0.197628
0.197463
0.197231
0.197032
0.196844
0.196547
0.196299
0.196099
0.195782
0.195425
0.195238
0.195057
0.194679
0.194242
0.194054
0.193912
0.193694
0.193197
0.192893
0.192695
0.19265
0.192633
0.192474
0.192039
0.19184
0.191697
0.191602
0.191563
0.191587
0.191567
0.191448
0.191225
0.1908
0.190249
0.189666
0.188805
0.187745
0.184825
0.18755
0.212957
1.18048
1.64441
1.53294
1.44373
1.35955
1.30554
1.27981
1.24981
1.23168
1.19961
1.17914
1.1498
1.14184
1.10359
1.10149
1.06223
1.05683
1.03832
1.02517
1.02033
1.0042
1.00147
0.994068
0.992621
0.991308
0.990616
0.990423
0.99126
0.991828
0.992728
0.990082
0.987795
0.984019
0.982474
0.980056
0.978773
0.9781
0.979253
0.975298
0.972998
0.973667
0.973371
0.973429
0.974852
0.971505
0.979867
0.982587
0.996735
1.01494
1.01784
1.08781
1.15947
1.26876
1.43044
1.57207
1.66467
1.69997
1.71462
1.72559
1.74442
1.76876
1.79805
1.83347
1.86432
1.88943
1.90987
1.92117
1.93038
1.93515
1.94186
1.94285
1.96254
0.198096
0.198306
0.198221
0.198155
0.198056
0.197937
0.19779
0.197632
0.197466
0.197236
0.197041
0.196844
0.196554
0.196319
0.196086
0.195759
0.195462
0.195261
0.195026
0.194631
0.194281
0.194094
0.193898
0.193622
0.19316
0.192875
0.19271
0.192621
0.192546
0.192314
0.191901
0.19166
0.191418
0.191221
0.191053
0.190859
0.190681
0.190308
0.189751
0.18893
0.188028
0.187173
0.18584
0.184679
0.181489
0.179339
0.184652
0.869959
1.65741
1.48097
1.37757
1.29468
1.24194
1.21152
1.19112
1.18775
1.14614
1.14497
1.10873
1.11476
1.07035
1.07182
1.03985
1.02951
1.01897
1.00189
0.999769
0.985121
0.983554
0.975432
0.974631
0.974103
0.973668
0.974765
0.975917
0.976515
0.977578
0.97648
0.974949
0.970035
0.970027
0.968866
0.966806
0.968257
0.969854
0.968402
0.967571
0.971334
0.968275
0.975626
0.981439
0.977708
0.999609
1.00919
1.02788
1.07702
1.11932
1.23572
1.36038
1.48856
1.61499
1.68337
1.70569
1.71196
1.71692
1.72779
1.74731
1.76895
1.79899
1.83014
1.85864
1.88143
1.89985
1.90998
1.9178
1.92223
1.92915
1.93062
1.94888
0.198103
0.19831
0.198226
0.198161
0.19806
0.197941
0.197797
0.197636
0.197466
0.19725
0.197048
0.196838
0.196575
0.196335
0.196069
0.195768
0.195524
0.195264
0.194977
0.194624
0.194368
0.194149
0.193852
0.193498
0.193152
0.192935
0.192767
0.192576
0.19235
0.192037
0.191709
0.19147
0.191223
0.190872
0.190494
0.190081
0.189694
0.189101
0.188317
0.187359
0.18621
0.185064
0.184034
0.18282
0.180254
0.178712
0.18839
0.468186
1.5087
1.41789
1.35044
1.26114
1.20815
1.16411
1.15098
1.1489
1.10917
1.12242
1.0855
1.08709
1.05427
1.04594
1.02805
1.01037
1.00375
0.984837
0.983269
0.973189
0.970342
0.962123
0.961297
0.961175
0.960975
0.963108
0.964039
0.964813
0.966474
0.966773
0.965747
0.96093
0.963343
0.96384
0.960674
0.964855
0.967905
0.965481
0.96976
0.977018
0.971042
0.988854
1.00066
0.99827
1.04287
1.07674
1.11407
1.2169
1.31721
1.44287
1.56421
1.66294
1.70141
1.71123
1.71179
1.71105
1.71546
1.72845
1.74412
1.76696
1.79658
1.82563
1.85187
1.87282
1.88937
1.89848
1.90464
1.90881
1.91599
1.91798
1.93503
0.19811
0.198316
0.198232
0.198166
0.198064
0.197945
0.197805
0.197644
0.197468
0.197267
0.197059
0.196835
0.196604
0.196358
0.19605
0.19579
0.195582
0.195274
0.194923
0.194642
0.194463
0.194205
0.193762
0.193417
0.193164
0.193028
0.192815
0.192486
0.192088
0.191762
0.191494
0.191304
0.191046
0.190693
0.19007
0.189524
0.188915
0.188224
0.187468
0.186604
0.185621
0.184721
0.183847
0.182996
0.181333
0.182269
0.197559
0.449194
1.07335
1.29487
1.32061
1.24358
1.20914
1.15469
1.1358
1.12425
1.09283
1.1044
1.07712
1.06459
1.0511
1.02476
1.02141
0.989312
0.990193
0.976263
0.969127
0.961901
0.958728
0.950775
0.950659
0.951115
0.951718
0.955074
0.956145
0.956917
0.960792
0.961592
0.960949
0.957448
0.961778
0.96349
0.959001
0.967103
0.973703
0.969821
0.983118
0.994178
0.99094
1.02662
1.05383
1.06745
1.1482
1.22272
1.29288
1.42523
1.53713
1.6371
1.69522
1.71406
1.71704
1.71067
1.70707
1.70803
1.71556
1.72682
1.743
1.76627
1.79387
1.82076
1.84462
1.8639
1.87877
1.88704
1.89193
1.89605
1.90336
1.90584
1.92152
0.198118
0.198322
0.198238
0.198172
0.19807
0.197951
0.197815
0.197654
0.19747
0.197284
0.197074
0.196831
0.196627
0.196381
0.196038
0.195808
0.195619
0.195295
0.194892
0.194658
0.194506
0.194242
0.193726
0.193366
0.19317
0.193041
0.192844
0.192349
0.191923
0.191592
0.191329
0.191164
0.190865
0.190494
0.189696
0.189037
0.188336
0.187611
0.186822
0.185906
0.184907
0.183805
0.182276
0.180446
0.17567
0.176776
0.19029
0.440795
0.847622
1.02702
1.22011
1.23321
1.22225
1.16705
1.13769
1.12542
1.09727
1.09418
1.07918
1.05494
1.05534
1.00621
1.01683
0.985527
0.977619
0.970036
0.962095
0.956561
0.953921
0.94687
0.947429
0.948471
0.949698
0.953406
0.954396
0.954218
0.960733
0.961912
0.961943
0.959211
0.967656
0.971994
0.966403
0.984749
0.996519
0.993216
1.02285
1.04692
1.05615
1.11712
1.17294
1.22384
1.33352
1.43671
1.52567
1.62987
1.69871
1.71905
1.72501
1.71653
1.70797
1.70413
1.70356
1.70686
1.7149
1.72512
1.74251
1.76466
1.79094
1.81568
1.83709
1.85465
1.86803
1.87563
1.87966
1.88363
1.89092
1.89378
1.90777
0.198127
0.198329
0.198245
0.198179
0.198079
0.19796
0.197825
0.197664
0.197477
0.197299
0.197086
0.196836
0.196643
0.196395
0.19604
0.195831
0.195646
0.195296
0.194885
0.194686
0.194521
0.194238
0.193703
0.193358
0.193191
0.193042
0.192806
0.192225
0.191825
0.191495
0.191257
0.191059
0.190727
0.190187
0.189448
0.188815
0.188201
0.187606
0.186994
0.18633
0.185782
0.185324
0.185334
0.185517
0.187658
0.204661
0.330934
0.704939
0.793416
0.883351
1.08656
1.20663
1.24475
1.1985
1.167
1.15382
1.11635
1.10396
1.09374
1.05943
1.0627
1.00681
1.015
0.99001
0.977734
0.970041
0.964022
0.957807
0.954592
0.949738
0.951072
0.952513
0.953129
0.957394
0.958975
0.957138
0.968395
0.971751
0.973547
0.971111
0.988949
0.999066
0.995167
1.03011
1.05397
1.06369
1.11472
1.16376
1.20771
1.28928
1.37906
1.46295
1.55424
1.64228
1.70146
1.72443
1.73474
1.72608
1.71389
1.70611
1.70223
1.7004
1.70128
1.70661
1.71303
1.72461
1.74159
1.7623
1.78656
1.80927
1.82883
1.84492
1.857
1.86392
1.8674
1.87138
1.87876
1.88195
1.89456
0.198136
0.198337
0.198253
0.198187
0.19809
0.197969
0.197834
0.197673
0.19749
0.197311
0.197096
0.196852
0.196649
0.196395
0.196067
0.195857
0.195644
0.195266
0.194925
0.194726
0.194509
0.194179
0.193704
0.193426
0.19323
0.192996
0.192665
0.192145
0.191804
0.191499
0.191262
0.190928
0.190513
0.189821
0.189267
0.188775
0.188272
0.187682
0.187148
0.186611
0.186108
0.185647
0.185194
0.184446
0.185135
0.200197
0.554756
0.827444
0.831539
0.831463
0.925908
1.02837
1.21995
1.21137
1.19943
1.18981
1.14552
1.12673
1.11186
1.07321
1.07409
1.01995
1.02229
0.998565
0.986621
0.976285
0.974064
0.965608
0.963214
0.95997
0.963139
0.965436
0.963981
0.972685
0.975467
0.971163
0.992674
1.00094
1.00777
1.00899
1.04452
1.0683
1.07768
1.13509
1.18087
1.22191
1.29075
1.37058
1.44329
1.51676
1.59924
1.67027
1.71518
1.73415
1.74147
1.73409
1.7212
1.71151
1.70557
1.69999
1.6976
1.69722
1.70016
1.70506
1.71276
1.7252
1.74164
1.76132
1.78344
1.80338
1.82075
1.83518
1.84603
1.85238
1.85549
1.85944
1.86677
1.87007
1.88118
0.198147
0.198345
0.198261
0.198197
0.198101
0.19798
0.197843
0.197686
0.197507
0.197323
0.197108
0.196881
0.196657
0.196393
0.196117
0.195879
0.195622
0.195282
0.195021
0.194771
0.19447
0.194116
0.193787
0.19354
0.193241
0.192884
0.192481
0.192124
0.191851
0.191594
0.191233
0.190735
0.190167
0.18967
0.189268
0.188988
0.188598
0.188115
0.187507
0.187145
0.186858
0.186633
0.186543
0.18623
0.193395
0.224792
0.704772
0.848238
0.847459
0.831278
0.869061
0.918677
1.09827
1.19783
1.24139
1.21568
1.18254
1.16307
1.12179
1.09122
1.08751
1.0367
1.03392
1.00942
0.997619
0.987971
0.989685
0.978214
0.979493
0.979941
0.985197
0.991089
0.988394
1.0083
1.01609
1.01135
1.05229
1.07313
1.0913
1.10666
1.16621
1.2122
1.25051
1.3241
1.39373
1.45989
1.52161
1.59417
1.65643
1.70249
1.73271
1.74171
1.74738
1.74008
1.72621
1.71697
1.71063
1.70322
1.69797
1.695
1.69415
1.6956
1.69939
1.70443
1.71301
1.72487
1.74005
1.75804
1.77821
1.79644
1.81224
1.82517
1.83501
1.84081
1.84377
1.84792
1.85516
1.85865
1.86867
0.198158
0.198355
0.198272
0.198206
0.198111
0.197992
0.197854
0.197702
0.197526
0.197336
0.197128
0.196909
0.19667
0.196413
0.196182
0.195913
0.195598
0.195335
0.195126
0.194815
0.194416
0.194092
0.193891
0.193646
0.193237
0.192777
0.192389
0.192125
0.191925
0.191642
0.191198
0.190546
0.190037
0.189653
0.189364
0.189209
0.188911
0.188589
0.188016
0.187691
0.187541
0.187672
0.188132
0.18906
0.206484
0.3472
0.823322
0.88091
0.873135
0.868587
0.869713
0.900265
0.962661
1.09336
1.20251
1.23595
1.22655
1.21819
1.13115
1.12375
1.08648
1.05976
1.04632
1.02654
1.01307
1.00918
1.01531
0.999862
1.01187
1.01866
1.02204
1.04146
1.04763
1.07901
1.10263
1.1099
1.17384
1.21528
1.25112
1.29956
1.37188
1.43601
1.49304
1.55352
1.61135
1.66949
1.70855
1.73499
1.74428
1.74845
1.75197
1.74078
1.73074
1.72187
1.7154
1.70736
1.70078
1.69586
1.69277
1.69171
1.69239
1.69474
1.69829
1.7042
1.71307
1.72472
1.73936
1.75598
1.77364
1.78952
1.80364
1.81511
1.82407
1.82944
1.83236
1.83661
1.84364
1.84702
1.85597
0.19817
0.198365
0.198283
0.198217
0.198122
0.198007
0.197868
0.197719
0.197544
0.197354
0.19715
0.196937
0.196681
0.196438
0.196231
0.195936
0.195585
0.195376
0.195193
0.194831
0.194372
0.194097
0.19393
0.193699
0.193201
0.192727
0.192394
0.192154
0.191924
0.191619
0.19104
0.190499
0.190069
0.189762
0.189551
0.18938
0.189127
0.188877
0.188319
0.187873
0.187427
0.187218
0.187407
0.188109
0.210111
0.520705
0.92004
0.91419
0.897269
0.886894
0.875496
0.885338
0.894162
0.967102
1.05637
1.22507
1.24291
1.25009
1.14634
1.16479
1.079
1.0793
1.06614
1.04934
1.03663
1.04789
1.05412
1.03759
1.07092
1.08792
1.0935
1.14034
1.16973
1.21133
1.26006
1.29831
1.36973
1.42803
1.48125
1.53461
1.59338
1.64517
1.69071
1.71985
1.73656
1.74606
1.75225
1.75694
1.74892
1.73931
1.7335
1.72552
1.71956
1.71119
1.70455
1.69853
1.69382
1.69082
1.68961
1.68997
1.69156
1.694
1.6978
1.70399
1.71249
1.72336
1.73666
1.75158
1.76806
1.78217
1.79494
1.80511
1.81329
1.81813
1.82092
1.82538
1.83232
1.83589
1.84421
0.198183
0.198376
0.198295
0.19823
0.198135
0.198023
0.197883
0.197736
0.197564
0.197373
0.197173
0.196968
0.196689
0.196474
0.196272
0.19594
0.195609
0.195427
0.195222
0.194824
0.194398
0.194129
0.193942
0.193682
0.193172
0.192778
0.192468
0.192184
0.191859
0.191451
0.190953
0.19057
0.190247
0.190028
0.189796
0.189528
0.189234
0.188901
0.188264
0.18786
0.187373
0.186654
0.186088
0.188144
0.209145
0.712094
0.94029
0.94208
0.927599
0.917817
0.896819
0.893155
0.888018
0.907286
0.952453
1.1119
1.21143
1.26428
1.18986
1.20797
1.09876
1.10441
1.11033
1.09325
1.08226
1.11443
1.12839
1.12588
1.18308
1.2179
1.24067
1.3107
1.36782
1.41639
1.47593
1.52704
1.58349
1.63256
1.67788
1.71019
1.72906
1.73999
1.74724
1.75278
1.75535
1.74997
1.74341
1.7395
1.73382
1.72759
1.72274
1.7148
1.70874
1.70199
1.69648
1.6921
1.68918
1.68783
1.68795
1.68928
1.69099
1.69357
1.69745
1.7034
1.71128
1.72131
1.73329
1.74659
1.76143
1.77408
1.78577
1.79482
1.80227
1.80662
1.80968
1.81446
1.82127
1.82491
1.83232
0.198196
0.198388
0.198308
0.198245
0.19815
0.198038
0.197903
0.197753
0.197588
0.197393
0.197199
0.196994
0.196717
0.196518
0.196303
0.195939
0.195673
0.195458
0.195222
0.194833
0.194503
0.194198
0.193905
0.193592
0.193214
0.192939
0.19262
0.192163
0.191724
0.191308
0.190962
0.19069
0.190539
0.190304
0.190019
0.189677
0.189259
0.188912
0.188688
0.188532
0.188474
0.188434
0.187686
0.198597
0.269967
0.811183
0.944581
0.949132
0.943816
0.940257
0.922745
0.914878
0.904757
0.901496
0.923462
1.00833
1.1389
1.23442
1.24223
1.26365
1.15844
1.15461
1.17942
1.18552
1.17236
1.23187
1.26482
1.28851
1.35708
1.41224
1.46051
1.51615
1.57563
1.6224
1.66739
1.70176
1.72109
1.73403
1.74302
1.74917
1.75225
1.75279
1.74799
1.74256
1.73906
1.73635
1.7314
1.72899
1.72218
1.71661
1.71156
1.70528
1.69998
1.69475
1.69066
1.68795
1.68654
1.68616
1.68695
1.68841
1.69039
1.69292
1.69706
1.70267
1.70988
1.71885
1.72964
1.74147
1.75461
1.76597
1.77671
1.78483
1.7915
1.79549
1.7986
1.80346
1.81029
1.81411
1.82105
0.198211
0.198401
0.198322
0.19826
0.198165
0.198055
0.197925
0.197772
0.197613
0.197417
0.197226
0.197012
0.196764
0.196554
0.196315
0.195997
0.195757
0.19549
0.195202
0.194912
0.194645
0.194266
0.19387
0.19352
0.193277
0.193067
0.192778
0.192137
0.191645
0.191264
0.190983
0.190818
0.190697
0.190464
0.190095
0.189648
0.189387
0.189252
0.189257
0.189401
0.189792
0.190492
0.192069
0.2108
0.432291
0.915071
0.951203
0.951807
0.954042
0.953915
0.950052
0.944832
0.935374
0.925865
0.924776
0.964893
1.07145
1.17039
1.30747
1.30091
1.28227
1.23794
1.30202
1.32992
1.34126
1.4088
1.45585
1.4988
1.55738
1.6094
1.65471
1.68847
1.71406
1.72935
1.73843
1.74456
1.74794
1.74839
1.74906
1.7441
1.74132
1.73902
1.73515
1.73301
1.7279
1.72544
1.71966
1.71629
1.71083
1.70625
1.70192
1.69719
1.69311
1.68928
1.68652
1.68493
1.68443
1.68485
1.686
1.68754
1.68952
1.69199
1.69575
1.7008
1.70767
1.71595
1.72564
1.73609
1.74748
1.75753
1.7673
1.77457
1.78051
1.78419
1.78742
1.79242
1.79946
1.80361
1.8098
0.198227
0.198415
0.198337
0.198277
0.198182
0.198077
0.197949
0.197793
0.197636
0.197449
0.197259
0.197037
0.196824
0.196596
0.196319
0.196077
0.195839
0.195503
0.195198
0.195002
0.194769
0.194298
0.193832
0.193516
0.19333
0.193123
0.192832
0.192137
0.191666
0.191314
0.191059
0.190897
0.190726
0.190467
0.190003
0.189767
0.189636
0.189588
0.189554
0.189556
0.189481
0.189619
0.190179
0.20962
0.622778
0.982954
0.983847
0.975721
0.970349
0.965088
0.960758
0.956428
0.949974
0.945554
0.948031
0.96878
1.07928
1.16681
1.36911
1.39876
1.41626
1.40871
1.47539
1.50544
1.54869
1.59275
1.63535
1.67315
1.69876
1.71794
1.73039
1.73817
1.74388
1.74677
1.74813
1.74282
1.73967
1.73676
1.73541
1.73449
1.73101
1.72914
1.7235
1.72021
1.71584
1.71288
1.70862
1.70543
1.70062
1.69685
1.69343
1.68982
1.68672
1.68428
1.68286
1.68225
1.68246
1.68312
1.68431
1.6859
1.6881
1.69073
1.69444
1.69923
1.70552
1.71297
1.7215
1.73049
1.74007
1.74877
1.75758
1.76417
1.76981
1.77343
1.77666
1.78151
1.78873
1.79314
1.79907
0.198243
0.198431
0.198354
0.198295
0.198202
0.198099
0.19797
0.197822
0.197661
0.197487
0.197288
0.197071
0.196878
0.196623
0.196354
0.196158
0.195898
0.195496
0.19525
0.195074
0.194835
0.194304
0.193881
0.193572
0.193346
0.193129
0.192776
0.192237
0.191822
0.19145
0.191145
0.190882
0.19063
0.190317
0.190076
0.189914
0.189793
0.189713
0.189516
0.189321
0.188876
0.188491
0.193185
0.22452
0.765295
0.990156
0.996196
0.9932
0.988951
0.984519
0.979624
0.977777
0.977642
0.976349
1.00409
1.02652
1.18778
1.29728
1.50157
1.56024
1.58229
1.60118
1.64333
1.66203
1.68963
1.70441
1.71743
1.72799
1.73373
1.73916
1.74118
1.74126
1.73683
1.73487
1.73432
1.73245
1.72964
1.72736
1.72421
1.72239
1.71836
1.71633
1.71222
1.70924
1.70497
1.70211
1.69809
1.69479
1.69081
1.68757
1.68506
1.68278
1.6812
1.6801
1.67968
1.67945
1.67987
1.68077
1.68227
1.68424
1.68662
1.68931
1.69277
1.69715
1.70258
1.70891
1.71618
1.72395
1.73184
1.73933
1.74713
1.75333
1.75892
1.7627
1.76607
1.77068
1.77821
1.78312
1.78854
0.198261
0.198447
0.198372
0.198315
0.198225
0.198122
0.197994
0.197853
0.19769
0.197529
0.197315
0.197121
0.196933
0.196639
0.196421
0.196221
0.195921
0.195569
0.195334
0.195118
0.194844
0.194376
0.194024
0.193679
0.193364
0.193037
0.192752
0.192432
0.192105
0.191651
0.191169
0.190818
0.190518
0.190291
0.190142
0.190038
0.189998
0.189877
0.189695
0.189549
0.189384
0.188863
0.202159
0.304242
0.869776
0.987066
0.991562
0.993538
0.994642
0.995278
0.993663
0.998624
1.00806
1.01752
1.08411
1.13252
1.35238
1.50032
1.65524
1.70504
1.7162
1.72045
1.7223
1.7251
1.72756
1.73003
1.73112
1.73307
1.72915
1.72815
1.72733
1.72645
1.72617
1.72309
1.72176
1.71979
1.71733
1.71566
1.71256
1.71098
1.70702
1.70464
1.7005
1.69763
1.69376
1.69104
1.68776
1.68502
1.68244
1.67992
1.678
1.67637
1.67519
1.67436
1.67487
1.67547
1.67671
1.67811
1.67985
1.68211
1.68466
1.68748
1.6908
1.69484
1.69967
1.70522
1.71142
1.71789
1.72415
1.7303
1.73673
1.74254
1.7481
1.75214
1.7558
1.76021
1.76777
1.77294
1.77808
0.198281
0.198465
0.198391
0.198336
0.198251
0.198145
0.198026
0.197886
0.197726
0.197565
0.197357
0.197172
0.196969
0.196702
0.196496
0.196267
0.195954
0.195697
0.195446
0.195146
0.19484
0.194527
0.194223
0.193748
0.193347
0.192991
0.192741
0.192562
0.192291
0.191777
0.191177
0.190808
0.190542
0.190348
0.190203
0.190118
0.19011
0.190033
0.190002
0.190159
0.190621
0.191826
0.211319
0.479757
0.955339
0.983404
0.984868
0.987539
0.991162
0.999153
1.00155
1.02088
1.05158
1.08279
1.22183
1.32286
1.56219
1.70177
1.76801
1.77065
1.75844
1.75008
1.74287
1.7353
1.72978
1.72421
1.71998
1.7182
1.7174
1.71456
1.71334
1.71153
1.71002
1.70884
1.70632
1.70611
1.70375
1.70299
1.7001
1.69866
1.6953
1.69342
1.69035
1.68825
1.68513
1.68266
1.67978
1.67659
1.67363
1.6706
1.66857
1.66751
1.66806
1.6685
1.67028
1.67108
1.6724
1.67374
1.67564
1.67816
1.68105
1.68419
1.68763
1.69137
1.69558
1.70029
1.70541
1.71062
1.71555
1.7204
1.72587
1.73139
1.73711
1.74149
1.74549
1.7499
1.75738
1.76283
1.76784
0.198301
0.198484
0.198412
0.198358
0.198277
0.198173
0.198059
0.197918
0.197768
0.197601
0.197414
0.197227
0.197003
0.196794
0.196578
0.19629
0.196041
0.195823
0.195527
0.195151
0.194893
0.194675
0.194381
0.193796
0.193359
0.193029
0.192811
0.192644
0.192348
0.191855
0.191243
0.190872
0.190607
0.190389
0.190204
0.190017
0.189921
0.189772
0.189539
0.188956
0.18861
0.189338
0.209169
0.670098
0.995602
0.998276
0.994237
0.991836
0.995512
1.00874
1.0134
1.04864
1.12943
1.1973
1.41303
1.57057
1.73385
1.78922
1.79067
1.77017
1.75906
1.74402
1.73278
1.72379
1.71679
1.71192
1.70734
1.70332
1.70041
1.69771
1.69501
1.69334
1.69237
1.69217
1.69112
1.69233
1.69132
1.69134
1.68939
1.6884
1.68568
1.68403
1.6811
1.67868
1.6758
1.67276
1.6701
1.66693
1.66439
1.66194
1.66059
1.65976
1.6606
1.66042
1.66222
1.66334
1.66542
1.66751
1.67036
1.67345
1.67652
1.67954
1.68288
1.68644
1.6904
1.69477
1.69932
1.70371
1.70743
1.71106
1.71552
1.72054
1.72582
1.7304
1.73484
1.73964
1.74705
1.75278
1.75702
0.198323
0.198504
0.198435
0.198383
0.198306
0.198206
0.198093
0.197957
0.197814
0.197641
0.197474
0.197276
0.197058
0.19688
0.196641
0.196343
0.196157
0.19594
0.195556
0.195214
0.195016
0.194788
0.194468
0.193857
0.193482
0.193168
0.19288
0.192636
0.192337
0.191908
0.191502
0.191013
0.190656
0.190353
0.190077
0.18985
0.189636
0.189425
0.189205
0.188903
0.188457
0.197619
0.246287
0.798703
0.983406
0.994588
0.99641
0.997467
1.00518
1.03092
1.04468
1.11311
1.2679
1.39198
1.62203
1.74916
1.7936
1.79107
1.76786
1.75561
1.74
1.72795
1.71717
1.70815
1.70086
1.69479
1.68972
1.68527
1.68184
1.67935
1.67726
1.67609
1.67519
1.67643
1.67629
1.67791
1.6772
1.67679
1.6753
1.67473
1.67296
1.6719
1.67061
1.66874
1.66729
1.66422
1.66207
1.65858
1.65569
1.65245
1.65042
1.64956
1.65212
1.65299
1.65568
1.6574
1.65985
1.66199
1.66437
1.66722
1.67076
1.67478
1.67866
1.68209
1.68557
1.68924
1.69294
1.69623
1.69887
1.70168
1.70528
1.7097
1.71463
1.71927
1.72434
1.72977
1.737
1.74265
1.74686
0.198347
0.198526
0.19846
0.198411
0.198336
0.198242
0.198128
0.198004
0.197858
0.197693
0.197537
0.197324
0.19714
0.196962
0.196682
0.19645
0.196259
0.196012
0.19563
0.195377
0.195144
0.194858
0.194485
0.194041
0.193695
0.193318
0.192953
0.192584
0.192292
0.191999
0.191659
0.191215
0.1907
0.1903
0.18996
0.189695
0.189496
0.189366
0.189304
0.18954
0.190588
0.209604
0.396522
0.909687
0.975696
0.985388
0.994486
1.0015
1.02466
1.07961
1.12059
1.2596
1.46266
1.62868
1.76224
1.79111
1.78045
1.76417
1.74886
1.73436
1.72107
1.70954
1.69971
1.69153
1.68469
1.67899
1.67438
1.67066
1.66735
1.66449
1.66179
1.65967
1.65784
1.65768
1.65789
1.6592
1.66057
1.66206
1.66234
1.6627
1.66238
1.66159
1.66132
1.65915
1.65762
1.65427
1.65197
1.64821
1.64562
1.64298
1.64122
1.64034
1.64259
1.64269
1.6445
1.64681
1.64925
1.65255
1.65623
1.66016
1.66391
1.66744
1.67088
1.67433
1.67776
1.68138
1.68496
1.68789
1.69
1.69224
1.69493
1.69902
1.70356
1.70796
1.7131
1.71925
1.7266
1.73259
1.73599
0.198373
0.19855
0.198486
0.19844
0.198369
0.198279
0.198167
0.198053
0.197906
0.197751
0.197594
0.1974
0.197224
0.197023
0.196772
0.19658
0.19635
0.196051
0.19579
0.195565
0.195271
0.194893
0.194586
0.194295
0.193938
0.193421
0.192967
0.192589
0.192326
0.192074
0.191726
0.191256
0.1907
0.190268
0.189915
0.189553
0.189115
0.188558
0.187844
0.187405
0.187933
0.210435
0.61119
0.979333
0.989297
0.992964
1.00763
1.02248
1.05402
1.17636
1.27691
1.48075
1.65921
1.76792
1.78751
1.77039
1.7571
1.73914
1.72468
1.71138
1.6997
1.68981
1.68169
1.67508
1.6695
1.66449
1.66001
1.65607
1.65236
1.64914
1.64615
1.64368
1.6418
1.64132
1.64145
1.64234
1.64449
1.64597
1.64653
1.64674
1.64671
1.64668
1.64744
1.64721
1.64755
1.64579
1.64439
1.64059
1.63792
1.63478
1.63274
1.63172
1.63422
1.63471
1.63667
1.63983
1.64251
1.64645
1.65009
1.65379
1.6574
1.6611
1.66483
1.66841
1.67166
1.67496
1.67788
1.67993
1.6812
1.68266
1.68439
1.6878
1.69211
1.69657
1.70211
1.7091
1.71654
1.72227
1.72565
0.198401
0.198575
0.198515
0.198472
0.198405
0.198318
0.198213
0.198103
0.197963
0.197814
0.197653
0.197494
0.197307
0.197083
0.196904
0.196709
0.196413
0.196159
0.195974
0.195725
0.195337
0.195005
0.194789
0.194506
0.194101
0.193529
0.193108
0.192752
0.192436
0.192112
0.191681
0.191158
0.190716
0.190306
0.18988
0.189309
0.188565
0.187617
0.186573
0.185683
0.194629
0.238384
0.787301
0.980353
0.992781
1.00205
1.0244
1.07858
1.13426
1.32597
1.50235
1.68259
1.77127
1.78184
1.75996
1.74709
1.7291
1.71507
1.70239
1.69127
1.6816
1.67335
1.66649
1.66089
1.65606
1.65142
1.64711
1.64306
1.63932
1.63576
1.63276
1.63022
1.62796
1.62646
1.62583
1.62566
1.6274
1.62953
1.63238
1.63378
1.6349
1.63575
1.63681
1.63704
1.63695
1.63475
1.63302
1.62897
1.62622
1.6235
1.62174
1.62069
1.62299
1.62327
1.62505
1.62825
1.63109
1.6352
1.63957
1.64376
1.64769
1.65143
1.65516
1.65866
1.66196
1.66529
1.6683
1.67024
1.67132
1.67227
1.67366
1.67699
1.68099
1.68556
1.69071
1.69741
1.70469
1.7112
1.71344
0.19843
0.198604
0.198546
0.198506
0.198444
0.19836
0.198261
0.198155
0.198029
0.197877
0.197729
0.197588
0.197377
0.197186
0.19703
0.196812
0.196517
0.196329
0.196134
0.19583
0.195472
0.195239
0.194994
0.194681