/*--------------------------------*- C++ -*----------------------------------*\
| =========                 |                                                 |
| \\      /  F ield         | OpenFOAM: The Open Source CFD Toolbox           |
|  \\    /   O peration     | Version:  2.2.x                                 |
|   \\  /    A nd           | Web:      www.OpenFOAM.org                      |
|    \\/     M anipulation  |                                                 |
\*---------------------------------------------------------------------------*/
FoamFile
{
    version     2.0;
    format      ascii;
    class       volScalarField;
    location    "0.05";
    object      p;
}
// * * * * * * * * * * * * * * * * * * * * * * * * * * * * * * * * * * * * * //

dimensions      [1 -1 -2 0 0 0 0];

internalField   nonuniform List<scalar> 
1024
(
0.1
0.1
0.1
0.1
0.1
0.1
0.1
0.1
0.1
0.1
0.1
0.1
0.1
0.1
0.1
0.1
0.1
0.1
0.1
0.1
0.1
0.1
0.1
0.1
0.1
0.1
0.1
0.1
0.1
0.1
0.1
0.1
0.1
0.1
0.1
0.1
0.1
0.1
0.1
0.1
0.1
0.1
0.1
0.1
0.1
0.1
0.1
0.1
0.1
0.1
0.1
0.1
0.1
0.1
0.1
0.1
0.1
0.1
0.1
0.1
0.1
0.1
0.1
0.1
0.1
0.1
0.1
0.1
0.1
0.1
0.1
0.1
0.1
0.1
0.1
0.1
0.1
0.1
0.1
0.1
0.1
0.1
0.1
0.1
0.1
0.1
0.1
0.1
0.1
0.1
0.1
0.1
0.1
0.1
0.1
0.1
0.1
0.1
0.1
0.1
0.1
0.1
0.1
0.1
0.1
0.1
0.1
0.1
0.1
0.1
0.1
0.1
0.1
0.1
0.1
0.1
0.1
0.1
0.1
0.1
0.1
0.1
0.1
0.1
0.1
0.1
0.1
0.1
0.1
0.1
0.1
0.1
0.1
0.1
0.1
0.1
0.1
0.1
0.1
0.1
0.1
0.1
0.1
0.1
0.1
0.1
0.1
0.1
0.1
0.1
0.1
0.1
0.1
0.1
0.1
0.1
0.1
0.1
0.1
0.1
0.1
0.1
0.1
0.1
0.1
0.1
0.1
0.1
0.1
0.1
0.1
0.1
0.1
0.1
0.1
0.1
0.1
0.1
0.1
0.1
0.1
0.1
0.1
0.1
0.1
0.1
0.1
0.1
0.1
0.1
0.1
0.1
0.1
0.1
0.1
0.1
0.1
0.1
0.1
0.1
0.1
0.1
0.1
0.1
0.1
0.1
0.1
0.1
0.1
0.1
0.1
0.1
0.1
0.1
0.1
0.1
0.1
0.1
0.1
0.1
0.1
0.1
0.1
0.1
0.1
0.1
0.1
0.1
0.1
0.1
0.1
0.1
0.1
0.1
0.1
0.1
0.1
0.1
0.1
0.1
0.1
0.1
0.1
0.1
0.1
0.1
0.1
0.1
0.1
0.1
0.1
0.1
0.1
0.1
0.1
0.1
0.1
0.1
0.1
0.1
0.1
0.1
0.1
0.1
0.1
0.1
0.1
0.1
0.1
0.1
0.1
0.1
0.1
0.1
0.1
0.1
0.1
0.1
0.1
0.1
0.1
0.1
0.1
0.1
0.1
0.1
0.1
0.1
0.1
0.1
0.1
0.1
0.1
0.1
0.1
0.1
0.1
0.1
0.1
0.1
0.1
0.1
0.1
0.1
0.0999999
0.0999999
0.0999998
0.0999996
0.0999993
0.0999989
0.0999981
0.0999968
0.0999947
0.0999912
0.0999859
0.0999775
0.0999648
0.0999458
0.099918
0.0998779
0.0998215
0.0997439
0.0996396
0.0995025
0.0993269
0.0991073
0.0988394
0.09852
0.0981476
0.0977217
0.0972408
0.0967017
0.0961702
0.0956692
0.0951847
0.0947094
0.0942453
0.0937832
0.093327
0.0928725
0.0924254
0.0919808
0.0915475
0.091115
0.0907056
0.0902977
0.0899242
0.0895633
0.0892257
0.0889321
0.0886436
0.0884142
0.0882067
0.0880123
0.0878883
0.0877706
0.0876709
0.0876215
0.0875728
0.0875398
0.087535
0.0875276
0.0875207
0.0875241
0.0875354
0.0875603
0.0876109
0.0877037
0.0878535
0.0880073
0.0881148
0.0882113
0.0882597
0.0882991
0.0883326
0.0883429
0.0883465
0.0883542
0.088359
0.0883585
0.0883573
0.088358
0.0883591
0.0883592
0.0883591
0.0883593
0.0883598
0.0883599
0.088359
0.0883564
0.0883504
0.0883379
0.0883143
0.0882726
0.0882118
0.0881604
0.0881259
0.0881016
0.0880912
0.0880851
0.0880845
0.0880863
0.0880958
0.0881201
0.0881653
0.0882071
0.0882355
0.0882522
0.0882612
0.0882647
0.0882649
0.0882626
0.0882532
0.0882306
0.0882013
0.0881799
0.0881694
0.0881621
0.0881609
0.0881609
0.0881638
0.0881736
0.0881942
0.0882129
0.0882242
0.088229
0.0882312
0.0882306
0.0882254
0.0882106
0.0881815
0.0881529
0.0881303
0.0881174
0.088118
0.0881424
0.0882695
0.0887146
0.0902378
0.0956665
0.114392
0.171622
0.301233
0.42506
0.482686
0.502182
0.508679
0.510902
0.511561
0.51171
0.511794
0.511803
0.511812
0.511771
0.511677
0.511626
0.511565
0.511482
0.51138
0.511181
0.511
0.510854
0.51078
0.510746
0.510767
0.510804
0.5109
0.511051
0.511189
0.511286
0.511318
0.51128
0.51116
0.510975
0.510777
0.510619
0.510522
0.510497
0.510564
0.5107
0.510749
0.510641
0.510356
0.509966
0.509611
0.509397
0.509356
0.509471
0.50964
0.509722
0.509628
0.509425
0.509239
0.509175
0.509181
0.509451
0.509773
0.50984
0.50961
0.509275
0.50878
0.508423
0.50825
0.508431
0.50899
0.509187
0.509113
0.508324
0.507434
0.50808
0.510034
0.513837
0.519738
0.526776
0.535453
0.544304
0.554019
0.567022
0.583953
0.603464
0.624903
0.646393
0.665278
0.687993
0.706938
0.741484
0.759639
0.706964
0.61098
0.533681
0.498391
0.483699
0.478316
0.477309
0.477455
0.477555
0.477395
0.476809
0.47521
0.472171
0.467875
0.464694
0.463696
0.4637
0.464223
0.466
0.469082
0.473263
0.478988
0.485544
0.49268
0.500435
0.508301
0.51635
0.524495
0.532654
0.540853
0.549112
0.55744
0.565867
0.574398
0.583008
0.591741
0.600598
0.609532
0.618581
0.62776
0.637027
0.646392
0.655889
0.665488
0.675175
0.684999
0.694933
0.704954
0.715117
0.725391
0.735755
0.74627
0.756885
0.767606
0.778481
0.789442
0.800543
0.811774
0.823104
0.834601
0.846182
0.857934
0.86979
0.881797
0.893979
0.906176
0.917962
0.929295
0.940086
0.950202
0.959495
0.967825
0.975085
0.98122
0.986234
0.990193
0.993211
0.995432
0.997011
0.998097
0.998819
0.999286
0.999578
0.999757
0.999863
0.999924
0.999959
0.999978
0.999989
0.999994
0.999997
0.999999
0.999999
1
1
1
1
1
1
1
1
1
1
1
1
1
1
1
1
1
1
1
1
1
1
1
1
1
1
1
1
1
1
1
1
1
1
1
1
1
1
1
1
1
1
1
1
1
1
1
1
1
1
1
1
1
1
1
1
1
1
1
1
1
1
1
1
1
1
1
1
1
1
1
1
1
1
1
1
1
1
1
1
1
1
1
1
1
1
1
1
1
1
1
1
1
1
1
1
1
1
1
1
1
1
1
1
1
1
1
1
1
1
1
1
1
1
1
1
1
1
1
1
1
1
1
1
1
1
1
1
1
1
1
1
1
1
1
1
1
1
1
1
1
1
1
1
1
1
1
1
1
1
1
1
1
1
1
1
1
1
1
1
1
1
1
1
1
1
1
1
1
1
1
1
1
1
1
1
1
1
1
1
1
1
1
1
1
1
1
1
1
1
1
1
1
1
1
1
1
1
1
1
1
1
1
1
1
1
1
1
1
1
1
1
1
1
1
1
1
1
1
1
1
1
1
1
1
1
1
1
1
1
1
1
1
1
1
1
1
1
1
1
1
1
1
1
1
1
1
1
1
1
1
1
1
1
1
1
1
1
1
1
1
1
1
1
1
1
1
1
1
1
1
1
1
1
1
1
1
1
1
1
1
1
1
1
1
1
1
1
1
1
1
1
1
1
1
1
1
1
1
1
1
1
1
1
1
1
1
1
1
1
1
1
1
1
1
1
1
1
1
1
1
1
1
1
1
1
1
1
1
1
1
1
1
1
1
1
1
1
1
1
1
1
1
1
1
1
1
1
1
1
1
1
1
1
1
1
1
1
1
1
1
1
1
1
1
1
1
1
1
1
1
1
1
1
1
1
1
1
1
1
1
1
1
1
1
1
1
1
1
1
1
1
1
1
1
1
1
1
1
1
1
1
1
1
)
;

boundaryField
{
    front-back
    {
        type            empty;
    }
    inlet-outlet
    {
        type            zeroGradient;
    }
    top-down
    {
        type            empty;
    }
}


// ************************************************************************* //
