/*--------------------------------*- C++ -*----------------------------------*\
| =========                 |                                                 |
| \\      /  F ield         | OpenFOAM: The Open Source CFD Toolbox           |
|  \\    /   O peration     | Version:  2.2.x                                 |
|   \\  /    A nd           | Web:      www.OpenFOAM.org                      |
|    \\/     M anipulation  |                                                 |
\*---------------------------------------------------------------------------*/
FoamFile
{
    version     2.0;
    format      ascii;
    class       volScalarField;
    location    "3.14";
    object      p;
}
// * * * * * * * * * * * * * * * * * * * * * * * * * * * * * * * * * * * * * //

dimensions      [1 -1 -2 0 0 0 0];

internalField   nonuniform List<scalar> 
40000
(
2.2054
2.19922
2.19201
2.17937
2.15738
2.13759
2.1127
2.08235
2.03796
2.00536
1.97422
1.94639
1.92614
1.90757
1.89752
1.89826
1.91093
1.92679
1.94674
1.9803
2.01177
2.05053
2.10423
2.16023
2.22468
2.29027
2.33356
2.36215
2.37006
2.36882
2.35189
2.31061
2.26202
2.21843
2.1862
2.15986
2.13864
2.12147
2.11235
2.09794
2.08536
2.09582
2.08612
2.08678
2.06698
2.064
2.06395
2.08078
2.10014
2.11394
2.10786
2.11318
2.1561
2.20967
2.25451
2.28147
2.33414
2.38851
2.4317
2.47527
2.54067
2.5586
2.60911
2.64764
2.65733
2.65703
2.72098
2.77732
2.92588
3.04931
3.00465
2.67919
2.09767
1.5425
1.35426
1.24005
1.15061
1.09523
1.03875
0.972348
0.91572
0.88623
0.875742
0.862669
0.857537
0.850661
0.843634
0.82929
0.831377
0.847155
0.845634
0.794058
0.782622
0.790883
0.808064
0.925832
0.839701
0.943707
1.28439
1.68048
1.47451
1.07265
0.801328
0.753442
0.820206
0.830444
0.835657
0.808582
0.797179
0.846258
0.872032
0.859341
0.851999
0.863984
0.879038
0.879902
0.887891
0.901524
0.923897
0.981754
1.03965
1.09787
1.18103
1.28484
1.41264
1.60992
2.07964
2.82204
3.18349
3.17872
3.10587
2.96806
2.84904
2.70384
2.70575
2.66242
2.59437
2.61584
2.604
2.54312
2.49358
2.45121
2.3843
2.34252
2.31211
2.28436
2.22952
2.20776
2.18394
2.1917
2.20038
2.18533
2.17203
2.18471
2.18145
2.17533
2.17777
2.1776
2.1869
2.20223
2.20882
2.21339
2.23066
2.23578
2.25175
2.28123
2.30656
2.3474
2.37172
2.37778
2.36368
2.34947
2.30665
2.26739
2.19372
2.12809
2.07556
2.01795
1.98137
1.94291
1.91788
1.88463
1.86275
1.84432
1.83941
1.84495
1.85852
1.88089
1.9116
1.9502
1.98815
2.02787
2.07205
2.10524
2.12967
2.15267
2.17539
2.18377
2.19678
2.20538
2.21339
2.20888
2.20363
2.18658
2.1671
2.13764
2.11865
2.09455
2.0536
2.02798
1.9973
1.97938
1.96012
1.95376
1.94406
1.95554
1.96976
1.98805
2.0083
2.0471
2.07811
2.10881
2.15595
2.20401
2.25437
2.29924
2.32191
2.33314
2.32295
2.30118
2.25369
2.20011
2.13838
2.10093
2.07403
2.05576
2.03231
2.0196
2.01646
2.00792
1.99882
1.99887
1.99135
1.98061
1.96781
1.95754
1.95751
1.97847
2.00632
2.03577
2.07999
2.10434
2.13407
2.18699
2.23328
2.26439
2.33123
2.38914
2.43495
2.47802
2.55147
2.59904
2.60108
2.61287
2.60917
2.63461
2.67702
2.74836
2.77706
2.73524
2.37951
1.90135
1.53217
1.36864
1.22491
1.15601
1.04053
1.00682
0.965818
0.926953
0.889366
0.854047
0.845394
0.833853
0.838119
0.834576
0.836569
0.819733
0.814692
0.831829
0.823137
0.787727
0.755732
0.772234
0.81202
0.920274
0.937564
1.16576
1.60913
1.57041
1.22239
0.895944
0.747115
0.800372
0.805371
0.851575
0.848976
0.839393
0.836835
0.873819
0.893612
0.886654
0.882865
0.887309
0.901119
0.911712
0.924597
0.935379
0.974749
1.03723
1.12028
1.18506
1.2992
1.44583
1.61078
1.99642
2.70101
3.25399
3.31853
3.23581
3.1442
2.96439
2.88042
2.7507
2.69005
2.69717
2.62761
2.6441
2.58582
2.55808
2.52661
2.48639
2.41345
2.36431
2.3452
2.34026
2.32991
2.31303
2.31526
2.29214
2.31023
2.30599
2.28729
2.27966
2.28628
2.29434
2.28571
2.29862
2.3008
2.30783
2.30197
2.30168
2.29078
2.30567
2.3117
2.31187
2.31346
2.31433
2.31326
2.29075
2.28483
2.25506
2.22171
2.18714
2.11849
2.06588
2.0039
1.96401
1.92902
1.89096
1.85394
1.82679
1.8069
1.79443
1.7913
1.79997
1.82266
1.85661
1.89215
1.93634
1.98127
2.0225
2.06417
2.10747
2.12997
2.15816
2.1812
2.19454
2.20483
2.21354
2.22882
2.22268
2.21481
2.19691
2.1768
2.14466
2.12258
2.09881
2.0584
2.04627
2.02236
2.00562
1.99593
1.98996
1.9918
2.00138
2.01451
2.0284
2.0526
2.07383
2.10471
2.13092
2.1585
2.20568
2.2481
2.27067
2.27786
2.25549
2.23675
2.1899
2.13231
2.0677
2.02767
1.99567
1.98479
1.97004
1.95856
1.95048
1.95144
1.93842
1.9252
1.90421
1.89084
1.87648
1.88013
1.88634
1.89965
1.92216
1.96224
2.00096
2.04525
2.08555
2.10628
2.15835
2.20903
2.27297
2.31563
2.36821
2.44407
2.5314
2.58688
2.61586
2.60362
2.5869
2.55423
2.49838
2.51273
2.5223
2.40293
2.1413
1.75148
1.43434
1.29569
1.18903
1.10074
1.07034
0.992758
0.959232
0.920461
0.872059
0.842041
0.822191
0.821541
0.810096
0.813351
0.80944
0.810329
0.780266
0.770884
0.794569
0.790466
0.763553
0.720964
0.721161
0.777388
0.904935
1.08692
1.44744
1.64099
1.24323
1.02945
0.933768
0.826768
0.810474
0.849009
0.868756
0.881678
0.868543
0.871326
0.902439
0.914862
0.909668
0.906548
0.911831
0.924518
0.94229
0.962324
0.983247
1.027
1.10986
1.20256
1.29817
1.40172
1.61238
1.95078
2.67646
3.19592
3.33951
3.34365
3.26602
3.15597
2.98936
2.83503
2.77248
2.73109
2.74453
2.6778
2.68846
2.67361
2.61315
2.56471
2.54454
2.53177
2.47117
2.44347
2.43256
2.42929
2.44739
2.44372
2.42378
2.41039
2.40514
2.41524
2.38391
2.38385
2.3981
2.39896
2.39893
2.40508
2.38065
2.38202
2.34841
2.31138
2.29397
2.26002
2.25286
2.25123
2.25027
2.22954
2.2347
2.23419
2.20139
2.17524
2.12428
2.06128
2.00684
1.94558
1.91104
1.87016
1.83327
1.79676
1.76977
1.74943
1.74318
1.74422
1.76024
1.79208
1.83039
1.87543
1.93196
1.97708
2.03167
2.07497
2.12028
2.14692
2.17395
2.20199
2.22255
2.22776
2.23133
2.24922
2.24188
2.23044
2.21002
2.18167
2.14971
2.12682
2.10376
2.0679
2.05193
2.03477
2.023
2.01747
2.00958
2.01714
2.02513
2.03399
2.04636
2.06183
2.07533
2.09489
2.12483
2.14842
2.18392
2.21192
2.20232
2.19342
2.16637
2.12521
2.06971
2.0209
1.97576
1.94334
1.92295
1.91501
1.91262
1.90557
1.88833
1.8693
1.8517
1.83384
1.81604
1.7953
1.80647
1.8079
1.82847
1.86444
1.904
1.93144
1.95994
1.99276
2.05488
2.10323
2.14284
2.1785
2.2628
2.34029
2.40306
2.51431
2.57157
2.56407
2.5315
2.49343
2.44645
2.39868
2.34959
2.25941
2.03853
1.69539
1.53017
1.35232
1.16648
1.10243
1.08154
1.03373
0.979909
0.919352
0.886249
0.864381
0.836238
0.81127
0.776719
0.782767
0.779988
0.792935
0.789728
0.782318
0.752152
0.742136
0.760221
0.782769
0.761188
0.749822
0.692188
0.847555
1.04352
1.39493
1.7082
1.33471
1.10229
0.973159
0.938419
0.856919
0.833088
0.856452
0.895143
0.894219
0.893415
0.89576
0.915629
0.929017
0.928682
0.933724
0.934146
0.958266
0.980071
1.00286
1.02816
1.07359
1.17388
1.26606
1.40347
1.53139
1.74113
2.26407
2.96891
3.30873
3.34533
3.31801
3.25515
3.16708
2.98784
2.81231
2.7675
2.71706
2.80006
2.7851
2.72108
2.73177
2.74219
2.64596
2.64523
2.63266
2.62254
2.56259
2.55244
2.54324
2.53108
2.52381
2.53414
2.49863
2.49095
2.51563
2.52455
2.51118
2.48023
2.47675
2.46184
2.41779
2.37465
2.31463
2.26095
2.22573
2.19312
2.15523
2.15772
2.15978
2.15618
2.15949
2.16873
2.15172
2.13705
2.11198
2.0612
2.0016
1.94263
1.89697
1.86137
1.81976
1.79156
1.7526
1.72557
1.71568
1.70663
1.7179
1.7353
1.77714
1.82853
1.87617
1.9308
1.99206
2.05236
2.10021
2.13958
2.17226
2.20525
2.2393
2.24847
2.25636
2.25551
2.28017
2.26449
2.24994
2.2213
2.1892
2.1594
2.13285
2.11083
2.08324
2.06618
2.04855
2.0352
2.03136
2.02864
2.03089
2.03262
2.03828
2.04363
2.05151
2.0704
2.08167
2.09631
2.1222
2.12589
2.1253
2.112
2.0818
2.05307
2.00815
1.95634
1.91747
1.89216
1.8741
1.85521
1.84293
1.83254
1.81941
1.79554
1.77311
1.75747
1.74499
1.72763
1.7295
1.73829
1.76395
1.79116
1.82879
1.87245
1.90982
1.94685
1.97887
2.01433
2.07831
2.12123
2.15942
2.26913
2.37997
2.47255
2.50734
2.48131
2.46203
2.42435
2.34752
2.23842
2.09763
1.91581
1.72184
1.4586
1.28337
1.19401
1.08955
1.02169
0.994939
0.983511
0.949634
0.900916
0.867732
0.826427
0.812549
0.780947
0.782767
0.765533
0.75978
0.758181
0.763913
0.780916
0.764312
0.728029
0.740417
0.757473
0.784166
0.791899
0.772006
0.744809
0.992796
1.33194
1.67969
1.50665
1.0923
0.827525
0.964674
0.846379
0.869524
0.828866
0.871939
0.898067
0.914024
0.909957
0.929074
0.934311
0.948854
0.950809
0.960496
0.963465
0.986103
1.01837
1.045
1.07044
1.12867
1.23359
1.36272
1.51909
1.71688
2.07204
2.63505
3.17722
3.25649
3.24325
3.25483
3.21633
3.16182
2.97826
2.78747
2.72182
2.70238
2.73599
2.78912
2.80147
2.82977
2.82953
2.8033
2.741
2.72231
2.6891
2.67046
2.65621
2.63313
2.61084
2.56935
2.54787
2.55278
2.5706
2.56669
2.55131
2.56527
2.53753
2.45677
2.37414
2.29696
2.24816
2.16543
2.13804
2.09378
2.06414
2.06811
2.07104
2.07975
2.10071
2.11523
2.11559
2.11215
2.10882
2.07977
2.02805
1.96861
1.91464
1.87693
1.83891
1.80325
1.76766
1.73147
1.70511
1.69658
1.68693
1.69857
1.72651
1.78021
1.82279
1.88591
1.94386
2.01382
2.06791
2.12623
2.17522
2.2096
2.2473
2.27584
2.28938
2.29385
2.28815
2.32068
2.29897
2.27608
2.24092
2.20814
2.17144
2.14372
2.11817
2.09146
2.07196
2.05292
2.03705
2.02849
2.02773
2.02356
2.01259
2.02058
2.02228
2.00738
2.01507
2.02382
2.02379
2.03977
2.03766
2.02577
2.00647
1.98463
1.94918
1.90377
1.85439
1.81824
1.80643
1.8003
1.7884
1.76653
1.7363
1.72122
1.69383
1.67845
1.66589
1.66026
1.66315
1.6752
1.69797
1.72064
1.75377
1.79206
1.84563
1.88749
1.91971
1.94616
1.97974
2.06362
2.13041
2.21447
2.33337
2.40619
2.41758
2.41501
2.3862
2.3138
2.23524
2.08593
1.88952
1.63894
1.46987
1.33527
1.21032
1.12682
1.06928
0.989338
0.91504
0.901834
0.896648
0.883809
0.828317
0.808043
0.775104
0.764397
0.753965
0.757873
0.757713
0.740762
0.740243
0.751519
0.769441
0.774083
0.726051
0.703624
0.725431
0.752548
0.825219
0.776154
0.813248
1.09314
1.58951
1.65751
1.10349
0.912091
0.819955
0.927292
0.880685
0.855509
0.870893
0.887604
0.916603
0.924123
0.941351
0.952971
0.970062
0.968422
0.977652
0.985656
0.999907
1.01589
1.05402
1.08996
1.13467
1.20396
1.32918
1.49969
1.71739
1.93147
2.36964
2.94802
3.18788
3.22848
3.1864
3.20692
3.16912
3.12392
3.03864
2.80347
2.68883
2.67167
2.68317
2.73061
2.77609
2.84389
2.85352
2.81485
2.82228
2.77409
2.75764
2.73716
2.71843
2.6794
2.64018
2.616
2.57788
2.54501
2.53779
2.52436
2.54683
2.54719
2.48188
2.36714
2.25973
2.18295
2.12752
2.10352
2.06286
2.02459
2.01636
2.02262
2.00665
2.03752
2.06586
2.08963
2.09768
2.1056
2.09869
2.06543
2.01025
1.9502
1.90236
1.86195
1.82487
1.78519
1.7458
1.71055
1.6866
1.67259
1.67958
1.69216
1.73096
1.77138
1.82154
1.89174
1.95786
2.02812
2.09682
2.15769
2.21305
2.24672
2.28446
2.31561
2.33546
2.34491
2.33607
2.37239
2.34464
2.30869
2.27096
2.23427
2.19479
2.15356
2.12436
2.09017
2.0739
2.04768
2.03567
2.0201
2.01576
2.00353
1.98682
1.96964
1.97153
1.962
1.95881
1.97009
1.97029
1.97487
1.96666
1.95173
1.92149
1.8851
1.83881
1.79419
1.76164
1.72831
1.71232
1.70387
1.69029
1.66692
1.64616
1.61941
1.60611
1.59296
1.59288
1.59791
1.61163
1.62854
1.65808
1.69605
1.73457
1.7696
1.80736
1.84571
1.89195
1.9287
1.98085
2.07025
2.18101
2.27885
2.31423
2.32628
2.33489
2.28634
2.21507
2.10591
1.916
1.7219
1.5125
1.32006
1.24464
1.15927
1.07167
1.01515
0.967683
0.924385
0.88216
0.859124
0.822761
0.804425
0.777143
0.762424
0.745841
0.72678
0.723839
0.73402
0.738881
0.731022
0.706347
0.719598
0.737187
0.740016
0.701526
0.665963
0.68245
0.715607
0.783338
0.765424
0.989521
1.39651
1.66973
1.40708
1.09638
0.807754
0.914281
0.922306
0.956116
0.862741
0.907252
0.91609
0.959006
0.959951
0.973994
0.976941
0.990009
0.997202
1.00401
1.01706
1.03332
1.06007
1.10304
1.15105
1.21806
1.30462
1.43859
1.60063
1.82225
2.16824
2.58229
3.00905
3.13152
3.12826
3.14335
3.16954
3.14131
3.09137
3.08593
2.89036
2.68629
2.60523
2.6247
2.69399
2.76547
2.75587
2.826
2.83675
2.82713
2.80371
2.76931
2.70253
2.63514
2.59276
2.52207
2.46698
2.41426
2.38937
2.40342
2.43654
2.47363
2.49971
2.43209
2.30344
2.1653
2.08018
2.04647
2.03113
1.99266
1.99459
1.98613
1.99067
2.00348
2.03593
2.07275
2.09171
2.10598
2.11084
2.09815
2.06349
2.00044
1.93524
1.89122
1.84916
1.81248
1.77708
1.72822
1.69526
1.6705
1.6589
1.67045
1.68057
1.72005
1.76059
1.82946
1.8976
1.98218
2.05452
2.13269
2.18825
2.24477
2.28933
2.33149
2.3599
2.37235
2.39598
2.39281
2.43255
2.40411
2.36005
2.31083
2.26267
2.21815
2.17158
2.12815
2.08185
2.05052
2.02449
2.00908
1.99
1.97253
1.95861
1.94532
1.92395
1.92965
1.92346
1.91744
1.92779
1.92833
1.91776
1.90225
1.88125
1.84454
1.80039
1.74063
1.7011
1.68068
1.65306
1.62746
1.60051
1.58485
1.57466
1.55357
1.53725
1.53662
1.5426
1.54488
1.5592
1.57463
1.59658
1.62811
1.66999
1.69911
1.72919
1.76703
1.81723
1.88279
1.93061
2.00434
2.12585
2.22163
2.23957
2.26333
2.24759
2.20534
2.1274
1.9884
1.80982
1.60474
1.46961
1.30836
1.15961
1.0973
1.01382
0.959527
0.933397
0.899113
0.875998
0.848381
0.820049
0.784637
0.763091
0.745285
0.731961
0.718945
0.701751
0.703028
0.717548
0.712016
0.708629
0.682601
0.689252
0.721634
0.726403
0.705424
0.638212
0.693324
0.778089
0.882192
1.01349
1.28157
1.66209
1.43207
1.18683
1.04292
0.812964
0.949951
0.928922
0.969194
0.912635
0.932837
0.948281
0.979818
0.994184
1.00373
1.00694
1.01144
1.02107
1.03676
1.05209
1.07513
1.11168
1.16138
1.2134
1.27653
1.36885
1.50184
1.71414
1.9643
2.31596
2.77594
2.99166
3.07218
3.08936
3.08997
3.11029
3.11696
3.05123
3.03148
3.02481
2.70654
2.58327
2.54769
2.59809
2.70205
2.73521
2.7213
2.75318
2.76034
2.73313
2.66773
2.5718
2.48825
2.39687
2.32951
2.26173
2.22917
2.21921
2.2549
2.30373
2.41802
2.48494
2.41746
2.2329
2.06225
2.00892
2.00704
1.98621
1.97505
1.95553
1.96135
1.96004
1.99398
2.03241
2.06184
2.08082
2.09938
2.10181
2.08297
2.04003
1.97492
1.91791
1.87172
1.82997
1.79034
1.75348
1.71023
1.67313
1.65516
1.64239
1.64905
1.67044
1.70925
1.76007
1.84076
1.91286
2.0132
2.08582
2.16056
2.21631
2.28354
2.33054
2.36559
2.39241
2.43954
2.44812
2.45262
2.50814
2.47068
2.41895
2.35978
2.30624
2.24774
2.18744
2.13409
2.07934
2.03751
2.00452
1.98297
1.96326
1.94201
1.92553
1.91548
1.8989
1.89626
1.90074
1.89482
1.89637
1.89216
1.87428
1.85982
1.82132
1.778
1.71841
1.65526
1.6101
1.5872
1.56058
1.53949
1.51384
1.50059
1.48983
1.47994
1.47705
1.4853
1.49335
1.4986
1.5093
1.53087
1.56288
1.59538
1.63354
1.6749
1.72059
1.75595
1.79573
1.87328
1.97482
2.08053
2.14639
2.16568
2.18742
2.1634
2.11955
2.04653
1.88735
1.73169
1.5756
1.41075
1.30416
1.17395
1.05572
0.981424
0.913692
0.871552
0.852525
0.835172
0.817835
0.789838
0.766233
0.739053
0.725576
0.705777
0.708325
0.703819
0.684582
0.681907
0.710753
0.699544
0.700982
0.667172
0.665317
0.707541
0.721382
0.711155
0.70638
0.672248
0.873261
1.03219
1.23625
1.61748
1.45824
1.19246
1.05828
0.963598
0.889141
0.87707
0.945308
0.908676
0.951302
0.933637
0.983031
1.00225
1.02424
1.02671
1.03729
1.03352
1.05119
1.07169
1.09131
1.12265
1.16308
1.21481
1.26986
1.33992
1.4589
1.62097
1.84431
2.15612
2.52673
2.84291
2.99305
3.04552
3.07213
3.06477
3.04897
3.10089
3.03809
3.01389
3.0594
2.86173
2.55046
2.52186
2.54494
2.59322
2.6893
2.71489
2.71573
2.68924
2.62721
2.52329
2.38236
2.28405
2.19453
2.12709
2.10651
2.07262
2.08117
2.12988
2.28384
2.44376
2.51641
2.46422
2.23267
2.05385
2.00217
1.98072
1.96001
1.94349
1.93822
1.93931
1.94773
1.9836
2.02702
2.06494
2.08214
2.09619
2.09009
2.07313
2.02028
1.95656
1.90602
1.85807
1.81785
1.78085
1.74734
1.70031
1.66737
1.63987
1.62609
1.62948
1.65888
1.69639
1.77572
1.84395
1.94112
2.02006
2.11222
2.18501
2.26152
2.31792
2.35693
2.39573
2.44108
2.48404
2.50498
2.52552
2.58648
2.55334
2.49912
2.43495
2.35842
2.28252
2.21468
2.145
2.08334
2.02618
1.99163
1.96423
1.94533
1.92154
1.90093
1.88514
1.87997
1.87291
1.88245
1.87618
1.88116
1.8704
1.84698
1.7958
1.74812
1.68127
1.61653
1.56028
1.51513
1.49381
1.47864
1.46584
1.44896
1.44457
1.43965
1.43276
1.43336
1.44007
1.44483
1.45592
1.47899
1.50379
1.54299
1.58484
1.62774
1.65691
1.69618
1.74485
1.8177
1.92196
2.02764
2.07178
2.08807
2.10432
2.08876
2.04169
1.95104
1.80772
1.66123
1.55501
1.41835
1.29983
1.19082
1.06318
0.974859
0.906585
0.851287
0.809672
0.784257
0.756783
0.743821
0.724959
0.707458
0.689582
0.689022
0.678421
0.682179
0.674469
0.670296
0.659247
0.686206
0.68985
0.686412
0.663477
0.643174
0.692915
0.733007
0.740283
0.687876
0.709873
0.831732
1.10593
1.48248
1.59343
1.18775
1.00782
1.04116
0.889475
0.925978
0.889374
0.953335
0.928286
0.971568
0.960888
1.00396
1.03019
1.05079
1.05035
1.05874
1.06434
1.08622
1.11062
1.14054
1.17054
1.21109
1.2764
1.3464
1.4443
1.56116
1.74106
1.97673
2.28467
2.62241
2.87221
2.98342
3.04148
3.03217
3.03404
3.01796
3.06817
3.08152
2.98145
3.00237
3.0602
2.67882
2.56808
2.61009
2.62004
2.63329
2.68422
2.65031
2.60793
2.49225
2.36614
2.20639
2.12178
2.04236
1.99643
1.97338
1.97174
2.04042
2.14831
2.31631
2.48271
2.58989
2.54752
2.26638
2.05803
1.9797
1.9749
1.94598
1.93507
1.92715
1.9292
1.94686
1.98162
2.01003
2.0374
2.05022
2.05853
2.06283
2.04749
2.00462
1.94903
1.90186
1.86128
1.82346
1.79402
1.76555
1.71554
1.6742
1.64121
1.63352
1.62917
1.65684
1.7056
1.7716
1.84084
1.9471
2.03952
2.1393
2.21912
2.28894
2.33533
2.38851
2.43307
2.48617
2.51205
2.55039
2.59833
2.67244
2.63414
2.58711
2.5141
2.42772
2.34176
2.25418
2.16977
2.09892
2.03121
1.98627
1.95341
1.9332
1.90787
1.87913
1.85856
1.8635
1.86238
1.86676
1.87266
1.85353
1.81514
1.77968
1.72265
1.65136
1.57462
1.51983
1.47554
1.43351
1.41773
1.40213
1.39614
1.39499
1.39456
1.39088
1.38947
1.39312
1.39888
1.41356
1.43706
1.46484
1.49327
1.52226
1.55794
1.59451
1.6407
1.70845
1.7793
1.88138
1.97078
2.01174
2.03371
2.03404
2.01708
1.96854
1.86396
1.73767
1.60853
1.52285
1.43343
1.30698
1.19012
1.07091
0.971259
0.90198
0.838478
0.802868
0.774905
0.743363
0.707178
0.698995
0.688112
0.671416
0.650033
0.655243
0.658776
0.661246
0.65036
0.655425
0.63718
0.651258
0.666819
0.667838
0.639611
0.603467
0.636288
0.690293
0.718508
0.687965
0.665725
1.02332
1.38747
1.6264
1.22719
1.03103
0.932757
1.02896
0.918715
0.936758
0.944317
0.971745
0.969067
0.988023
1.00961
1.03746
1.07239
1.07635
1.08261
1.08546
1.09627
1.12387
1.1588
1.20288
1.22987
1.29107
1.34879
1.44237
1.52453
1.66348
1.81916
2.08083
2.43153
2.70964
2.89574
2.98898
3.0079
3.00111
2.99937
2.9954
3.0013
3.08702
2.9818
2.90447
2.97473
2.97387
2.64452
2.68749
2.62637
2.61031
2.64516
2.58467
2.49881
2.35473
2.20967
2.05183
1.96399
1.92197
1.89283
1.90207
1.94877
2.04994
2.17585
2.34635
2.54241
2.64872
2.62073
2.31072
2.07849
1.98089
1.97408
1.94067
1.9288
1.92132
1.92036
1.93283
1.96314
2.00712
2.03494
2.05027
2.06395
2.06991
2.05263
2.01052
1.95698
1.91363
1.87761
1.84445
1.82199
1.7829
1.73293
1.6873
1.65056
1.64372
1.63763
1.65465
1.70555
1.76021
1.8546
1.95052
2.06171
2.15371
2.23649
2.30176
2.36054
2.41341
2.45631
2.49612
2.54561
2.61424
2.66573
2.75257
2.73035
2.68752
2.60818
2.5188
2.41558
2.30809
2.20416
2.11559
2.03804
1.9888
1.94721
1.92093
1.89585
1.86574
1.84226
1.83022
1.83051
1.82765
1.81715
1.78224
1.74938
1.68716
1.61964
1.52914
1.45747
1.4138
1.38898
1.36413
1.3466
1.33427
1.33213
1.33856
1.33974
1.33963
1.3417
1.34731
1.36016
1.37742
1.40661
1.43575
1.47457
1.50843
1.5623
1.60776
1.65454
1.73859
1.8318
1.90535
1.93338
1.95903
1.95707
1.93753
1.88559
1.78486
1.6655
1.56469
1.47529
1.39617
1.31205
1.18156
1.04866
0.944458
0.875042
0.819523
0.773155
0.752944
0.734368
0.718658
0.687278
0.672385
0.662903
0.661598
0.640296
0.629439
0.633183
0.653072
0.633234
0.640475
0.625626
0.626405
0.646539
0.659026
0.632264
0.580447
0.644117
0.688083
0.773343
0.763513
0.983554
1.27466
1.60044
1.41941
1.19809
0.924732
1.01795
0.969943
0.988854
0.939543
0.981346
0.96979
1.0077
1.00939
1.04203
1.07159
1.09706
1.10061
1.11024
1.11476
1.13947
1.17249
1.21606
1.25998
1.30048
1.35966
1.41809
1.49815
1.58193
1.74301
1.95847
2.19626
2.47851
2.76688
2.8839
2.95706
2.97318
2.97004
2.96461
2.97151
2.9684
3.05106
3.05496
2.83026
2.8596
3.01186
2.92352
2.65809
2.56911
2.49747
2.52704
2.48943
2.39594
2.22353
2.06476
1.96175
1.88683
1.88179
1.86309
1.90739
1.97596
2.06121
2.22462
2.39122
2.59355
2.6855
2.64582
2.33975
2.08335
1.98908
1.95092
1.93705
1.91289
1.90387
1.90057
1.91791
1.95301
2.00724
2.03172
2.05547
2.0658
2.07607
2.06483
2.02729
1.98041
1.9374
1.89709
1.86541
1.83049
1.8014
1.75238
1.69819
1.66197
1.63821
1.63289
1.6534
1.69739
1.75674
1.85441
1.94969
2.05575
2.14767
2.23889
2.31537
2.3757
2.42042
2.46064
2.50508
2.58204
2.64193
2.71133
2.82305
2.81491
2.7779
2.72157
2.61446
2.49588
2.38088
2.25313
2.14264
2.04291
1.98563
1.94067
1.90796
1.87623
1.84386
1.81961
1.80007
1.78622
1.76656
1.73307
1.70378
1.65747
1.59437
1.50407
1.42828
1.36406
1.32775
1.31484
1.30813
1.29536
1.28709
1.28861
1.28843
1.28595
1.29148
1.30547
1.3227
1.33995
1.36401
1.40067
1.43805
1.47922
1.51547
1.56965
1.62449
1.70092
1.79447
1.85316
1.87987
1.89218
1.88713
1.8691
1.80819
1.72384
1.61989
1.54174
1.46254
1.38197
1.29427
1.18119
1.04626
0.923798
0.840255
0.786242
0.750322
0.721281
0.703485
0.686598
0.679141
0.662059
0.647706
0.639379
0.643119
0.631536
0.619565
0.614639
0.633758
0.631367
0.622599
0.614631
0.605355
0.639679
0.664809
0.641339
0.608406
0.666683
0.765761
0.874089
0.9706
1.20466
1.55486
1.48355
1.19283
1.09443
0.924996
0.996581
0.954675
0.98249
0.959708
0.991624
0.99376
1.0252
1.04909
1.07589
1.11543
1.11901
1.13025
1.13839
1.15946
1.19222
1.22775
1.2742
1.30827
1.35972
1.41246
1.49271
1.55922
1.67924
1.83518
2.0691
2.32077
2.53934
2.77264
2.87794
2.94497
2.95011
2.9529
2.93786
2.9297
2.94022
2.99715
3.07097
2.96471
2.79556
2.78902
3.02062
2.85565
2.62372
2.46379
2.45165
2.41968
2.29917
2.18721
2.0323
1.93786
1.89019
1.87247
1.89012
1.92862
2.0236
2.11125
2.27955
2.4551
2.62357
2.68179
2.61162
2.33034
2.09391
1.99526
1.94634
1.92802
1.90685
1.90257
1.89943
1.91782
1.95985
2.01181
2.03994
2.06521
2.0756
2.08665
2.07734
2.04143
1.99521
1.95402
1.92731
1.8988
1.86726
1.82697
1.77238
1.71721
1.66609
1.64202
1.6365
1.65747
1.69832
1.7631
1.83977
1.94118
2.04883
2.14837
2.24191
2.31337
2.3626
2.41534
2.46956
2.52955
2.58152
2.65693
2.75955
2.83671
2.89676
2.89771
2.82279
2.72432
2.59121
2.45144
2.31781
2.16984
2.05217
1.96753
1.91408
1.87317
1.8344
1.78951
1.76368
1.74762
1.71921
1.69426
1.66137
1.62411
1.56945
1.48224
1.4083
1.33982
1.28807
1.25788
1.24646
1.24301
1.24355
1.24511
1.24848
1.24855
1.25238
1.2699
1.29475
1.31784
1.33155
1.35468
1.3858
1.43494
1.48311
1.53625
1.60365
1.68622
1.74984
1.7864
1.81822
1.8296
1.81511
1.78619
1.73097
1.64244
1.55967
1.48881
1.43962
1.3682
1.28008
1.18231
1.04419
0.916294
0.822393
0.769013
0.728263
0.700966
0.678032
0.665268
0.651626
0.638898
0.627931
0.623192
0.615725
0.617455
0.614195
0.609202
0.602626
0.613847
0.627321
0.612084
0.603715
0.594308
0.633412
0.652679
0.642198
0.61867
0.675618
0.774983
0.883719
1.07139
1.46356
1.49557
1.24848
1.14502
0.998682
0.979624
0.953437
0.994722
0.961642
0.996778
0.999435
1.03321
1.05163
1.08904
1.11238
1.14041
1.15547
1.17026
1.17977
1.20837
1.24426
1.28111
1.31701
1.37622
1.43425
1.48541
1.56264
1.64185
1.76948
1.90972
2.09425
2.39125
2.61361
2.76612
2.86444
2.93685
2.94527
2.93625
2.92855
2.90621
2.91094
2.9345
3.00064
3.02897
2.88213
2.77865
2.72976
2.96526
2.7255
2.53531
2.41756
2.42259
2.26017
2.18002
2.04655
1.92331
1.91607
1.88933
1.91344
1.95869
2.06787
2.1981
2.34824
2.51946
2.61115
2.64611
2.5338
2.29157
2.11028
2.02967
1.97101
1.95193
1.91396
1.90306
1.88973
1.90755
1.96309
2.01282
2.05508
2.0799
2.10254
2.10829
2.10309
2.06593
2.02393
1.98489
1.9507
1.92552
1.89824
1.86846
1.79979
1.72885
1.68087
1.65436
1.64198
1.66244
1.70011
1.76021
1.83434
1.9416
2.04326
2.14923
2.22848
2.30171
2.35635
2.41879
2.47095
2.51903
2.589
2.68651
2.77941
2.86256
2.9383
2.99513
2.94404
2.84176
2.69674
2.53265
2.36917
2.207
2.06409
1.95946
1.88008
1.82437
1.77802
1.73272
1.70583
1.68013
1.66075
1.62524
1.59525
1.54727
1.47534
1.38449
1.30483
1.24703
1.21822
1.20593
1.20011
1.19604
1.19829
1.20156
1.21198
1.22349
1.23715
1.25154
1.27205
1.30184
1.33168
1.36288
1.40826
1.47084
1.516
1.5789
1.65945
1.71577
1.73753
1.76333
1.76984
1.76488
1.72941
1.65898
1.58446
1.51633
1.44257
1.39351
1.34546
1.2775
1.18433
1.05617
0.922026
0.821744
0.758402
0.722644
0.691472
0.670413
0.647637
0.635686
0.623501
0.619619
0.607216
0.600033
0.595646
0.600072
0.602092
0.598309
0.590019
0.598947
0.611153
0.613458
0.586271
0.574933
0.605472
0.636217
0.625236
0.6077
0.659195
0.850171
1.02813
1.32114
1.54889
1.23377
1.11581
1.12582
0.937629
1.01015
0.951719
1.00215
0.979231
1.01788
1.02609
1.06481
1.08358
1.12561
1.1533
1.17497
1.19186
1.20471
1.2277
1.25723
1.30121
1.34189
1.38688
1.4417
1.50538
1.56562
1.63269
1.72081
1.84599
2.01103
2.18246
2.40643
2.62584
2.7418
2.85871
2.90676
2.91324
2.90932
2.90816
2.91417
2.89456
2.90464
2.92447
3.00097
2.95883
2.72327
2.64589
2.71741
2.88811
2.63246
2.48159
2.41635
2.25586
2.15063
2.08055
1.96686
1.95276
1.92911
1.97107
2.03165
2.12632
2.27933
2.42554
2.55577
2.57609
2.5765
2.42396
2.25088
2.14292
2.07052
2.033
1.98348
1.95022
1.91613
1.90323
1.91682
1.97855
2.03471
2.09149
2.11036
2.1394
2.13616
2.13134
2.09539
2.05594
2.01704
1.98621
1.96567
1.94283
1.90036
1.82233
1.75413
1.69484
1.66876
1.65224
1.66119
1.70349
1.75734
1.83165
1.92424
2.0374
2.13261
2.22083
2.29355
2.3503
2.40388
2.45619
2.5205
2.5975
2.67492
2.77598
2.86805
2.95322
3.04478
3.04592
2.95414
2.80841
2.61709
2.43345
2.24118
2.07024
1.94939
1.84572
1.78296
1.73593
1.68908
1.65114
1.61622
1.60503
1.5668
1.54397
1.48311
1.40876
1.32067
1.23227
1.19004
1.17411
1.1674
1.16584
1.16704
1.1692
1.18068
1.19552
1.21124
1.22431
1.23958
1.26382
1.29907
1.33727
1.37492
1.42373
1.49481
1.56083
1.62739
1.66907
1.68966
1.70979
1.71323
1.70174
1.67384
1.61222
1.53034
1.4731
1.42203
1.35896
1.3024
1.24286
1.16673
1.05942
0.922696
0.810904
0.747616
0.708642
0.686481
0.662731
0.643875
0.625716
0.614337
0.604961
0.597811
0.587446
0.581546
0.581414
0.586326
0.587295
0.585567
0.579225
0.581068
0.586847
0.595882
0.565099
0.556757
0.578742
0.638548
0.667036
0.717216
0.81398
0.997798
1.32338
1.53197
1.27665
1.11476
1.02913
1.08546
0.976142
0.995874
0.984829
1.00647
1.02184
1.04063
1.06415
1.09772
1.12627
1.1642
1.197
1.21342
1.23135
1.24658
1.28025
1.31988
1.35301
1.40224
1.44933
1.50909
1.56204
1.63893
1.70758
1.7801
1.89451
2.07159
2.25572
2.43752
2.58884
2.75366
2.83422
2.87806
2.87855
2.89705
2.90039
2.88444
2.86905
2.86672
2.90021
2.94782
2.99748
2.80961
2.58797
2.52003
2.71096
2.83585
2.55083
2.41816
2.30254
2.12739
2.13904
2.03039
1.99571
2.00471
2.0279
2.11326
2.1854
2.34999
2.46688
2.54415
2.52094
2.43706
2.32534
2.22291
2.178
2.12001
2.10961
2.05442
2.0035
1.94772
1.92509
1.92796
2.00354
2.06906
2.12619
2.14134
2.16894
2.16055
2.16068
2.13491
2.09059
2.05417
2.02461
1.99711
1.9737
1.93459
1.85401
1.77622
1.71176
1.6739
1.65475
1.66502
1.69734
1.74726
1.81777
1.91587
2.01946
2.11814
2.20583
2.2791
2.33696
2.38678
2.44419
2.51879
2.58837
2.66625
2.78067
2.85598
2.94735
3.04314
3.10835
3.0538
2.91618
2.69897
2.4892
2.26531
2.08147
1.91325
1.81445
1.73158
1.68451
1.63256
1.60432
1.56333
1.54674
1.51052
1.49365
1.4321
1.34865
1.24384
1.18088
1.14814
1.13523
1.13118
1.13474
1.14034
1.14886
1.15783
1.17083
1.19026
1.21381
1.23505
1.2594
1.30237
1.35404
1.40819
1.46966
1.53094
1.58586
1.62001
1.63694
1.6578
1.65911
1.6377
1.59834
1.55381
1.49161
1.43125
1.38029
1.33182
1.27972
1.22215
1.15297
1.0492
0.92637
0.813075
0.739047
0.697909
0.669514
0.65139
0.635462
0.623969
0.61038
0.601067
0.591852
0.588646
0.584129
0.573571
0.574115
0.578245
0.576031
0.569258
0.559442
0.55709
0.570287
0.587746
0.577888
0.559067
0.631645
0.709153
0.787017
0.834543
0.974349
1.25051
1.46385
1.3801
1.1689
0.984314
1.07525
0.995167
1.03367
0.980664
1.03442
1.01477
1.05697
1.06356
1.10007
1.13147
1.16917
1.20748
1.24263
1.26512
1.28022
1.30208
1.33536
1.38024
1.41423
1.4543
1.51426
1.57532
1.59225
1.68432
1.78171
1.8645
1.96333
2.11574
2.2793
2.44986
2.58276
2.73717
2.80216
2.85567
2.86624
2.88894
2.88158
2.85941
2.84122
2.83055
2.85664
2.89797
2.94886
2.94882
2.64441
2.47172
2.42353
2.63448
2.76106
2.47859
2.3948
2.20993
2.16995
2.13891
2.06461
2.09956
2.11833
2.19357
2.29583
2.42674
2.52457
2.52185
2.48414
2.31765
2.28459
2.19548
2.20769
2.16964
2.16831
2.1402
2.08568
2.00709
1.96809
1.96319
2.03158
2.10661
2.14539
2.17528
2.19189
2.20411
2.20375
2.17906
2.13246
2.09992
2.06426
2.03964
2.01595
1.9628
1.89133
1.79663
1.72933
1.67825
1.66054
1.66389
1.68179
1.73686
1.80352
1.89485
2.0013
2.09778
2.18993
2.26542
2.32596
2.38534
2.44013
2.49588
2.56539
2.65635
2.75982
2.83369
2.92482
3.01279
3.12481
3.13915
3.02715
2.81229
2.54234
2.29446
2.08113
1.9048
1.78908
1.69419
1.64499
1.59845
1.5631
1.52537
1.50303
1.49805
1.44108
1.37759
1.2932
1.19197
1.13366
1.10695
1.09771
1.09673
1.10442
1.11708
1.12647
1.13698
1.15523
1.18017
1.20532
1.2303
1.26844
1.3214
1.38345
1.45267
1.50433
1.54409
1.57032
1.59419
1.60353
1.6055
1.58825
1.55044
1.49051
1.43213
1.38629
1.34437
1.30096
1.26081
1.20617
1.14006
1.04766
0.927577
0.801656
0.730033
0.690549
0.661885
0.63939
0.622403
0.606993
0.599484
0.591881
0.584147
0.578042
0.579767
0.577689
0.56899
0.559194
0.563835
0.56269
0.556963
0.545906
0.547834
0.570455
0.594791
0.591943
0.586464
0.633147
0.742635
0.810883
0.883886
1.10452
1.43484
1.40486
1.21777
1.08568
0.995213
1.05179
0.998798
1.0276
1.01089
1.04162
1.04859
1.07655
1.10207
1.13552
1.17902
1.21416
1.25568
1.28823
1.31787
1.33165
1.36095
1.39136
1.43765
1.48509
1.51327
1.56731
1.63643
1.68577
1.74683
1.82904
1.93597
2.02002
2.15373
2.29932
2.45335
2.58379
2.7073
2.7802
2.83455
2.8549
2.87127
2.86668
2.85041
2.80679
2.79821
2.79936
2.83344
2.87571
2.93292
2.81857
2.59261
2.36787
2.29547
2.52095
2.69755
2.54084
2.35833
2.25149
2.26996
2.16446
2.19953
2.23014
2.28323
2.38735
2.47234
2.51654
2.46575
2.40053
2.26618
2.22533
2.21288
2.21557
2.2306
2.22406
2.24269
2.18677
2.10781
2.01994
2.009
2.056
2.14022
2.16586
2.21565
2.22956
2.25541
2.24931
2.22265
2.17982
2.13626
2.10107
2.0795
2.05445
2.00563
1.92763
1.83072
1.75581
1.70186
1.66668
1.65462
1.68964
1.73109
1.7868
1.8726
1.98587
2.08101
2.16419
2.23824
2.31214
2.37418
2.42441
2.48739
2.5558
2.63765
2.73833
2.80312
2.89232
2.99178
3.10648
3.18718
3.13435
2.92257
2.61404