/*--------------------------------*- C++ -*----------------------------------*\
| =========                 |                                                 |
| \\      /  F ield         | OpenFOAM: The Open Source CFD Toolbox           |
|  \\    /   O peration     | Version:  2.2.x                                 |
|   \\  /    A nd           | Web:      www.OpenFOAM.org                      |
|    \\/     M anipulation  |                                                 |
\*---------------------------------------------------------------------------*/
FoamFile
{
    version     2.0;
    format      ascii;
    class       surfaceScalarField;
    location    "3.14";
    object      phi;
}
// * * * * * * * * * * * * * * * * * * * * * * * * * * * * * * * * * * * * * //

dimensions      [1 0 -1 0 0 0 0];

internalField   nonuniform List<scalar> 
79600
(
-0.0016427
0.00394927
-0.00118534
0.00715701
-0.000674775
0.00999956
-0.00019839
0.0128363
0.000571166
0.0151857
0.00116738
0.0162248
0.00172861
0.0176266
0.0024458
0.0194724
0.00289131
0.0210142
0.00300554
0.0226886
0.0029801
0.0241939
0.00279159
0.0261746
0.00261269
0.0279747
0.00252678
0.0304583
0.00243116
0.0327572
0.00254252
0.0354437
0.00268948
0.0379873
0.00319111
0.0401922
0.00391486
0.0426374
0.0046267
0.0449161
0.00528326
0.0472775
0.00601541
0.0493068
0.00663994
0.0510051
0.00706613
0.0533765
0.00745287
0.0554141
0.00717057
0.0576072
0.00600525
0.0594062
0.00416084
0.060771
0.00138376
0.0620106
-0.00193506
0.062312
-0.00529536
0.0619861
-0.00750516
0.0608064
-0.00891712
0.059157
-0.00925904
0.0584396
-0.00914394
0.0578629
-0.00877493
0.0575957
-0.00829331
0.0572398
-0.00759261
0.0572554
-0.00701033
0.0572114
-0.00671603
0.0571631
-0.0065435
0.0574282
-0.00643411
0.0574047
-0.00631386
0.0573419
-0.00594058
0.0572972
-0.00557215
0.0566731
-0.00476001
0.0563772
-0.00412953
0.0564029
-0.00372195
0.0564564
-0.00342638
0.0564676
-0.0026548
0.0562363
-0.0017552
0.0556452
-0.00115199
0.0547977
-0.00113047
0.0541924
-0.00138995
0.0542645
-0.00137252
0.054317
-0.00172914
0.0543607
-0.0029649
0.0542066
-0.00339979
0.0544967
-0.00385979
0.0543329
-0.00492095
0.0541495
-0.00639542
0.0540448
-0.0070348
0.0532663
-0.00805016
0.0520429
-0.00992964
0.0519266
-0.0115675
0.0534404
-0.0129732
0.0553818
-0.0138384
0.0596654
-0.0149087
0.0625429
-0.0143574
0.0634272
-0.0119048
0.0598054
-0.00896319
0.0527676
-0.00790215
0.0425518
-0.00879062
0.0367759
-0.0093226
0.0305638
-0.0106253
0.0284654
-0.0113552
0.02759
-0.0116978
0.0255362
-0.012083
0.0232922
-0.0125913
0.0206665
-0.0129785
0.0189391
-0.0129346
0.0179302
-0.0123486
0.0171524
-0.0120082
0.0162815
-0.0118383
0.0159689
-0.0117376
0.0158314
-0.0115135
0.015798
-0.010888
0.015357
-0.00972626
0.0147138
-0.00927489
0.0136841
-0.00907585
0.0130066
-0.00829913
0.0125254
-0.00569717
0.0112262
-0.00375246
0.00867805
-0.00447232
0.00693774
-0.00475276
0.00805562
-0.00189201
0.00598246
-0.00077112
0.0052472
-0.000393875
0.00289124
-0.000210814
0.00337762
0.00132246
0.00224973
0.00239878
-0.00101596
0.000513383
-0.00180702
-0.00021032
-0.0017525
0.00230303
-0.00335742
0.00551092
-0.0065129
0.00562011
-0.00827804
0.00466559
-0.00794687
0.00551025
-0.00885901
0.00825504
-0.0109337
0.00927222
-0.0123203
0.00954996
-0.0128123
0.0100364
-0.0134983
0.010546
-0.0139888
0.0111185
-0.0141416
0.0113488
-0.0145797
0.0114618
-0.0146629
0.0116276
-0.0149095
0.0120834
-0.0155223
0.0122692
-0.0164801
0.0120641
-0.0176653
0.0114779
-0.019629
0.0107436
-0.0221001
0.00992282
-0.0252561
0.00891009
-0.0256598
0.00749789
-0.026376
0.00483407
-0.0274773
0.000877428
-0.0305093
-0.00275082
-0.0397414
-0.00319697
-0.0483844
-0.00243695
-0.0564963
-0.00174694
-0.061368
-0.00154537
-0.0622477
-0.000557982
-0.0624494
-0.000293683
-0.0583227
-0.000380049
-0.0544237
-0.00142683
-0.0518959
-0.00159632
-0.0509861
-0.0025955
-0.0507527
-0.00334164
-0.0511106
-0.00332079
-0.0509994
-0.00336468
-0.0518535
-0.0046001
-0.0515708
-0.00440426
-0.0513413
-0.00376341
-0.0515494
-0.00340741
-0.0519052
-0.00319766
-0.0524646
-0.00301142
-0.0530796
-0.00214677
-0.0541898
-0.00118271
-0.0552788
-0.000207279
-0.0565799
0.000528659
-0.0576815
0.00141744
-0.0581637
0.00194949
-0.0581128
0.0023229
-0.0581931
0.00269978
-0.0584033
0.00271279
-0.0583787
0.00272116
-0.0583352
0.00306561
-0.058174
0.00337251
-0.0582846
0.00371756
-0.0581508
0.00430782
-0.0581849
0.00450019
-0.0578982
0.00467607
-0.0577186
0.00464745
-0.0572397
0.00375178
-0.056665
0.00167592
-0.056204
-0.0015809
-0.0561434
-0.00571707
-0.0559512
-0.00957789
-0.0560822
-0.0126704
-0.0562915
-0.0152384
-0.0555556
-0.0171798
-0.0552367
-0.0184741
-0.0542997
-0.0186665
-0.053255
-0.0181265
-0.0514532
-0.016664
-0.0493927
-0.0153943
-0.0477197
-0.0140915
-0.045705
-0.0126876
-0.0439885
-0.0114164
-0.0419595
-0.00991479
-0.0398319
-0.00890001
-0.0372545
-0.00811039
-0.0346871
-0.00765559
-0.0319513
-0.00739386
-0.0292489
-0.00741006
-0.0269266
-0.00765559
-0.0245275
-0.00770812
-0.022704
-0.00781811
-0.0210902
-0.00777683
-0.0198767
-0.00744286
-0.0188512
-0.00682463
-0.0179385
-0.00605339
-0.0169482
-0.0052416
-0.0148634
-0.00428826
-0.0138662
-0.0035712
-0.012569
-0.00269975
-0.0105947
-0.00178423
-0.00738686
-0.00148619
-0.00373238
5.62684e-05
-0.00470514
0.00583446
-0.00439454
0.00878331
-0.00385023
0.0114177
-0.00294794
0.0139254
-0.00196873
0.0162636
-0.00160514
0.0179041
-0.00142549
0.0196051
-0.00125718
0.0214161
-0.00139261
0.0233642
-0.00155124
0.0253639
-0.00204376
0.0272017
-0.00250442
0.0291929
-0.00321909
0.0313277
-0.00351783
0.0335534
-0.00373393
0.0358343
-0.00384848
0.0384685
-0.00387721
0.0409518
-0.00374646
0.0431385
-0.0034484
0.045463
-0.00331085
0.0477543
-0.00312068
0.0500068
-0.0029696
0.0520943
-0.00286789
0.0540886
-0.00313809
0.0569249
-0.00401097
0.0592731
-0.0053065
0.0612941
-0.00702679
0.0627418
-0.00884041
0.0635544
-0.0103072
0.0635501
-0.0116402
0.0627021
-0.0124502
0.0613341
-0.0129936
0.0595902
-0.0131715
0.0584152
-0.012816
0.0575595
-0.0124221
0.0571419
-0.0118572
0.0572341
-0.0114106
0.0572521
-0.0108434
0.057405
-0.0104865
0.0576985
-0.0102089
0.0576699
-0.00997771
0.0575079
-0.00971037
0.0572169
-0.00931874
0.0566569
-0.00843015
0.0563838
-0.00773882
0.0558738
-0.00713778
0.0557797
-0.00653999
0.0559672
-0.00610977
0.0561283
-0.0059177
0.0562846
-0.00597963
0.0565174
-0.00590898
0.0565062
-0.00586374
0.0564047
-0.00609438
0.056158
-0.00695237
0.0561111
-0.00803573
0.0563637
-0.00885423
0.0566927
-0.0100496
0.0567878
-0.0110801
0.0565103
-0.0123211
0.0566319
-0.0143301
0.056699
-0.0163341
0.0561057
-0.0181789
0.0553335
-0.0199393
0.0542326
-0.0229321
0.0547558
-0.0267504
0.0567752
-0.0295645
0.058849
-0.0299936
0.0608244
-0.0290466
0.0609254
-0.026772
0.0591646
-0.0215688
0.0519712
-0.016235
0.043952
-0.0146425
0.0374785
-0.0131207
0.0334048
-0.0123851
0.0307068
-0.0128793
0.0286896
-0.0134611
0.0274082
-0.0132301
0.0249866
-0.0131809
0.022674
-0.0132148
0.0202146
-0.0133425
0.019036
-0.0131999
0.0180128
-0.0128251
0.0173342
-0.0124722
0.0166127
-0.012304
0.0164549
-0.0120681
0.0163989
-0.0116968
0.016265
-0.0107083
0.01565
-0.00939158
0.0148951
-0.00900407
0.0138674
-0.00902259
0.0131678
-0.00854567
0.0132407
-0.00531758
0.0118972
-0.00334527
0.00943231
-0.0037965
0.00731126
-0.00448569
0.00784537
-0.00323782
0.00723747
-0.00111477
0.00629983
-0.00145591
0.00607663
-0.00223021
0.00461736
-0.00171289
0.00512726
-0.000165331
-0.000719202
-0.000337892
0.000983293
-0.000451591
-0.00154348
0.00190402
-0.00249134
0.0052555
-0.00557536
0.00581668
-0.00726486
0.00537872
-0.00787485
0.00607715
-0.00875869
0.00825347
-0.0106492
0.00918699
-0.0118439
0.00955913
-0.0123676
0.0100116
-0.01298
0.0103478
-0.0133967
0.0105559
-0.0136144
0.0109624
-0.0138608
0.0111717
-0.0142545
0.0112455
-0.0144776
0.0117152
-0.0154563
0.0116805
-0.0163739
0.0110696
-0.0180024
0.00989087
-0.0202758
0.00887755
-0.0224634
0.00769153
-0.0246329
0.0056103
-0.0249703
0.00296921
-0.0231445
-0.00168862
-0.0254316
-0.00977047
-0.0265729
-0.0152908
-0.0364254
-0.0167858
-0.0468527
-0.0165998
-0.055899
-0.015864
-0.0611331
-0.0150117
-0.0627679
-0.014386
-0.0624628
-0.0122333
-0.0597579
-0.0114166
-0.054731
-0.0121645
-0.0518699
-0.01236
-0.050352
-0.0107452
-0.0509913
-0.0101643
-0.0512008
-0.00995467
-0.050653
-0.00937577
-0.0512902
-0.00933939
-0.0514279
-0.0089869
-0.051567
-0.00859135
-0.0515268
-0.00699536
-0.0519408
-0.00602683
-0.052999
-0.00544943
-0.0543603
-0.00461841
-0.0560877
-0.00355833
-0.0571938
-0.00256623
-0.0582973
-0.00205902
-0.0589067
-0.0017126
-0.0595231
-0.00127979
-0.059225
-0.000773054
-0.0591343
-0.000485914
-0.0591154
0.000166786
-0.0593727
0.000220233
-0.0589666
0.000319635
-0.058699
0.000412167
-0.0584099
0.000293765
-0.057766
-0.000140343
-0.0570173
-0.0010076
-0.0560736
-0.003158
-0.0547343
-0.00613132
-0.0536728
-0.00973705
-0.0526264
-0.0133744
-0.0522981
-0.0171519
-0.0524076
-0.0205489
-0.0525836
-0.0234466
-0.0528637
-0.0260164
-0.0528929
-0.0275974
-0.0523512
-0.0284308
-0.0521274
-0.0283894
-0.0513593
-0.0274373
-0.0503866
-0.0254186
-0.0487955
-0.0232201
-0.0470564
-0.0213537
-0.0454903
-0.0195055
-0.0436542
-0.0178107
-0.0421453
-0.0160165
-0.0401333
-0.0143708
-0.0379295
-0.013089
-0.0353781
-0.0122661
-0.0323765
-0.0117875
-0.0294806
-0.011671
-0.026728
-0.0116407
-0.0244324
-0.0117905
-0.0221331
-0.0119635
-0.0204172
-0.0121671
-0.018991
-0.0121068
-0.0181745
-0.0119476
-0.0173139
-0.0116536
-0.0167482
-0.0113174
-0.0154591
-0.0108937
-0.0135698
-0.0102998
-0.0126299
-0.00933155
-0.0117728
-0.00778961
-0.0102198
-0.00609833
-0.00722693
-0.00503312
-0.00282636
0.00166733
-0.00697161
0.0070888
-0.00632974
0.0100304
-0.0057704
0.0127478
-0.00514424
0.0153168
-0.00462846
0.0177377
-0.00484148
0.0202374
-0.00528408
0.022202
-0.00562515
0.0239957
-0.00609836
0.0262336
-0.00679797
0.028371
-0.00757514
0.0303868
-0.00851413
0.0327033
-0.00946463
0.0349454
-0.0102423
0.0371144
-0.0106876
0.0392525
-0.0111091
0.0417261
-0.0112672
0.0439779
-0.0114199
0.0461458
-0.0116444
0.0485516
-0.0119365
0.0509592
-0.0124027
0.0530079
-0.0126081
0.0552028
-0.0129716
0.0576472
-0.0133483
0.060058
-0.013816
0.0622803
-0.0143352
0.0634206
-0.01454
0.0638831
-0.0148
0.0636066
-0.0152473
0.0627723
-0.0158555
0.0615382
-0.016267
0.0600101
-0.0165206
0.0586922
-0.0164194
0.0578542
-0.0161323
0.0574806
-0.0159671
0.0574938
-0.0156475
0.0580311
-0.015086
0.0582783
-0.0146565
0.0581099
-0.0142277
0.0579531
-0.0136634
0.0575123
-0.0128865
0.0569854
-0.0120506
0.0563887
-0.0112127
0.0558711
-0.0103849
0.0556095
-0.00981775
0.0555669
-0.00969864
0.0557714
-0.0095093
0.0562977
-0.00938722
0.0570299
-0.00936647
0.0574472
-0.00980708
0.0577245
-0.0106862
0.0580136
-0.0112244
0.0584539
-0.011763
0.0585467
-0.0120906
0.0582106
-0.0131575
0.0583323
-0.0148865
0.0588527
-0.016629
0.0595284
-0.0190941
0.0598526
-0.021684
0.06032
-0.0244411
0.0601005
-0.027885
0.0598673
-0.0309145
0.059248
-0.0344783
0.0579374
-0.0378571
0.0571001
-0.0394966
0.0567511
-0.0398307
0.0577513
-0.0377881
0.0574695
-0.0330332
0.0544998
-0.0269673
0.0484205
-0.0213333
0.0426866
-0.0180899
0.0366599
-0.0161682
0.0330796
-0.0157028
0.0310348
-0.0151173
0.0299593
-0.0148863
0.0278197
-0.0145744
0.0265704
-0.0141315
0.0242466
-0.0139234
0.0218109
-0.014121
0.0198358
-0.0141396
0.0188509
-0.0137036
0.018044
-0.0129852
0.0177489
-0.0126505
0.0169715
-0.0126041
0.0171212
-0.0123809
0.0167891
-0.0119641
0.0169376
-0.0107527
0.0160407
-0.00905793
0.0155192
-0.00853881
0.0143278
-0.00879206
0.013823
-0.00842244
0.0136742
-0.00530767
0.0125945
-0.00356582
0.0101559
-0.00364842
0.00888937
-0.00447212
0.00794887
-0.00488809
0.0110102
-0.00265459
0.00824068
-0.0019352
0.00725465
-0.00243625
0.00592981
-0.0012641
0.00622603
-0.000222866
-0.000195579
-0.00057361
0.000395511
0.000176648
-0.00108461
0.00185277
-0.00250872
0.00503891
-0.0052721
0.0057877
-0.0073513
0.00567991
-0.00799258
0.00648156
-0.00875285
0.00846319
-0.010514
0.00915839
-0.0116692
0.00944917
-0.0120282
0.00981184
-0.0126127
0.010146
-0.0127726
0.0103333
-0.0132254
0.0105899
-0.013477
0.0108119
-0.0137863
0.0109251
-0.014228
0.0111986
-0.0154543
0.0109725
-0.0167455
0.0100762
-0.0180018
0.00866429
-0.0198865
0.00711041
-0.0220184
0.00504789
-0.0227621
0.00167029
-0.0223871
-0.00647865
-0.0177319
-0.0152533
-0.0166318
-0.0224576
-0.020356
-0.0264864
-0.0314532
-0.0279806
-0.0446188
-0.0282901
-0.0546032
-0.0283553
-0.0602737
-0.0278921
-0.0622051
-0.0269658
-0.0616199
-0.0250709
-0.0607468
-0.0223286
-0.0565674
-0.0206049
-0.0536704
-0.0200336
-0.051796
-0.0177252
-0.0520442
-0.0160928
-0.0529353
-0.0154286
-0.0519621
-0.0138814
-0.052222
-0.0126908
-0.0524447
-0.0121522
-0.0528939
-0.0113551
-0.0529222
-0.00994022
-0.053138
-0.00857919
-0.0541359
-0.00757302
-0.0556357
-0.00716419
-0.0570429
-0.00665859
-0.0583733
-0.00620335
-0.0594742
-0.00559008
-0.0600543
-0.00521282
-0.0608986
-0.0044147
-0.0613666
-0.00374211
-0.0609643
-0.00345232
-0.0598648
-0.00331071
-0.0594202
-0.00330749
-0.0579549
-0.004315
-0.0570987
-0.00625933
-0.0555704
-0.00905601
-0.0539684
-0.0123876
-0.0522898
-0.0157275
-0.0509695
-0.018755
-0.0498767
-0.0218645
-0.0495415
-0.0248357
-0.0489629
-0.0277191
-0.0490554
-0.0305686
-0.0490347
-0.0333139
-0.0493197
-0.0349324
-0.0497918
-0.0358176
-0.0501031
-0.036213
-0.0500949
-0.0360047
-0.0500512
-0.0349122
-0.0494544
-0.0328741
-0.0486337
-0.0300185
-0.0472945
-0.0276342
-0.0457579
-0.025317
-0.0442537
-0.0231025
-0.0425964
-0.0212816
-0.0410295
-0.0192769
-0.0388632
-0.0173458
-0.0363617
-0.0163456
-0.0333221
-0.0158292
-0.0301106
-0.0153785
-0.0269824
-0.0154782
-0.0242235
-0.0157093
-0.0217047
-0.016249
-0.0198336
-0.0166532
-0.0182005
-0.0169867
-0.0170456
-0.0171846
-0.0165948
-0.0173248
-0.0159172
-0.0170434
-0.015852
-0.0165714
-0.0142973
-0.0159476
-0.0126226
-0.0151151
-0.0116408
-0.0138108
-0.0114166
-0.0114216
-0.0108646
-0.0094221
-0.00747497
-0.00813688
-0.00210776
0.00298329
-0.00979001
0.00788161
-0.00878167
0.0108207
-0.00792198
0.0137381
-0.00750055
0.0168566
-0.00754924
0.0197936
-0.00794682
0.0228271
-0.00883516
0.0253357
-0.00975481
0.0273201
-0.0105992
0.0295425
-0.0116046
0.0318064
-0.0127176
0.0339972
-0.0138273
0.0362661
-0.0146119
0.0384607
-0.0154205
0.0405497
-0.0162633
0.0427287
-0.0170715
0.0451142
-0.0178313
0.0473557
-0.018484
0.0493602
-0.018994
0.0514779
-0.0191699
0.0537585
-0.0193847
0.0558226
-0.0192424
0.0579895
-0.0188376
0.0602991
-0.0182566
0.0618714
-0.0178504
0.0632574
-0.0177079
0.0635519
-0.0177818
0.0634336
-0.018025
0.0627817
-0.0185134
0.0616967
-0.0192877
0.060134
-0.0199828
0.0589524
-0.0201245
0.0584801
-0.0199941
0.0582507
-0.0199177
0.0580946
-0.019622
0.0582002
-0.0192491
0.0582738
-0.0182677
0.058143
-0.0173192
0.0576137
-0.0165281
0.0570668
-0.0155051
0.0564703
-0.0144348
0.0560012
-0.0135948
0.0555732
-0.012839
0.0554332
-0.0123677
0.0553888
-0.0123194
0.0557117
-0.0123835
0.0564054
-0.012762
0.0574135
-0.0135002
0.0587691
-0.0137923
0.0594064
-0.0140328
0.0596045
-0.0144149
0.0596023
-0.0151916
0.0596499
-0.0160409
0.0601944
-0.0169055
0.0602033
-0.0186791
0.0608569
-0.0216725
0.0620922
-0.0247836
0.0638536
-0.0284325
0.0646095
-0.032227
0.0650227
-0.0353375
0.0639934
-0.0380143
0.0621956
-0.0399586
0.0598971
-0.0415521
0.0578986
-0.0424167
0.0558304
-0.0422353
0.0539799
-0.0403357
0.0520788
-0.0363308
0.0492689
-0.0295381
0.0439361
-0.0241326
0.0386939
-0.0207822
0.0351987
-0.0191026
0.0324266
-0.0176931
0.030306
-0.0171161
0.0288307
-0.0163249
0.0283916
-0.0162362
0.0267056
-0.0158343
0.024861
-0.0147871
0.0226857
-0.0144685
0.0204841
-0.0145855
0.0191664
-0.0146465
0.0188172
-0.0140297
0.0181175
-0.0132974
0.0179385
-0.0128367
0.0173016
-0.0125254
0.0174757
-0.0124012
0.0171377
-0.0120224
0.0172338
-0.0106126
0.0168273
-0.00886214
0.0160876
-0.00828192
0.0143326
-0.00872337
0.0137976
-0.00828116
0.0136441
-0.00525807
0.0124986
-0.00347318
0.0102416
-0.00385874
0.00904492
-0.00465088
0.00821334
-0.00521569
0.0107536
-0.0045138
0.00954319
-0.00419648
0.00752479
-0.00391671
0.0077346
-0.00176435
0.00394234
0.000293863
0.00154718
0.000657135
-0.00211872
0.000362012
-0.00127245
0.00218915
-0.00312643
0.00506619
-0.00541139
0.00592705
-0.00742351
0.0060647
-0.00817695
0.00670442
-0.0091292
0.00848903
-0.01044
0.00901042
-0.0114899
0.00918721
-0.0116765
0.00931044
-0.0120467
0.00969794
-0.0122006
0.00993622
-0.0127279
0.0101694
-0.0129924
0.0103832
-0.0134595
0.0104551
-0.0140497
0.0107801
-0.0152693
0.0103811
-0.016631
0.00905725
-0.0175092
0.00733029
-0.0186538
0.00541759
-0.0201564
0.00215714
-0.0200475
-0.00382467
-0.0168476
-0.0137712
-0.0108609
-0.0243395
-0.00767475
-0.0305354
-0.0141548
-0.0339378
-0.0268078
-0.0360895
-0.0412589
-0.0375865
-0.0522192
-0.0382473
-0.0588314
-0.0380437
-0.0607296
-0.0373909
-0.0606173
-0.0363815
-0.0610614
-0.0338794
-0.0596408
-0.0301697
-0.0579796
-0.0269958
-0.0551484
-0.023636
-0.0548703
-0.0211639
-0.055599
-0.0193138
-0.0548746
-0.0176848
-0.0540951
-0.0156379
-0.0536981
-0.0145696
-0.0539318
-0.0138596
-0.0541499
-0.0130132
-0.0545974
-0.0123766
-0.0552458
-0.0120408
-0.0561576
-0.011723
-0.0570128
-0.0114139
-0.0582424
-0.0112782
-0.0598107
-0.0103034
-0.0611468
-0.00919004
-0.0619058
-0.00871798
-0.0621535
-0.00834783
-0.0616176
-0.00897838
-0.0592105
-0.0111921
-0.0570227
-0.0148863
-0.0540091
-0.0186236
-0.0520328
-0.0223758
-0.0502144
-0.0258533
-0.0490011
-0.0287444
-0.0479637
-0.0310549
-0.046976
-0.033012
-0.0458218
-0.03486
-0.0457013
-0.0365261
-0.0456988
-0.0382976
-0.0462915
-0.0403805
-0.0468144
-0.0412283
-0.0478496
-0.0415722
-0.0483047
-0.0419918
-0.0489643
-0.0419049
-0.0491361
-0.0409217
-0.0490962
-0.0391539
-0.0486892
-0.0367041
-0.0477658
-0.033552
-0.0463091
-0.0308911
-0.0449166
-0.028365
-0.0432989
-0.0260207
-0.0416994
-0.0238762
-0.040013
-0.0217183
-0.0376152
-0.0198484
-0.0348114
-0.0187662
-0.0312502
-0.0184986
-0.0275844
-0.0183989
-0.0242219
-0.0186907
-0.021541
-0.0194428
-0.019146
-0.020251
-0.0174101
-0.0210606
-0.0160426
-0.0218878
-0.0151436
-0.0225337
-0.0147184
-0.0226905
-0.0146052
-0.0224524
-0.0146255
-0.021635
-0.0136016
-0.0203722
-0.0121809
-0.0189647
-0.0115387
-0.0170296
-0.0118234
-0.014619
-0.0115405
-0.0127886
-0.00748891
-0.0117225
-0.00127389
0.00395472
-0.0120994
0.00868141
-0.0113003
0.0117835
-0.0105106
0.0148651
-0.0104553
0.0187932
-0.0112361
0.0226617
-0.0121543
0.0260349
-0.0131117
0.028704
-0.0143986
0.0309477
-0.0156935
0.033193
-0.0167878
0.0353541
-0.0178737
0.0376262
-0.0189599
0.0397642
-0.0199326
0.0419521
-0.0208795
0.0441332
-0.0218371
0.0460933
-0.0225854
0.0480626
-0.022869
0.050359
-0.0230124
0.0522661
-0.0231113
0.0539408
-0.0229639
0.0560262
-0.0225438
0.0578869
-0.0218832
0.0595755
-0.0209408
0.0613008
-0.020144
0.0622584
-0.0196324
0.0628117
-0.0195565
0.0629062
-0.0197285
0.0626105
-0.0203639
0.0618171
-0.0212807
0.0607485
-0.0221949
0.0593196
-0.0230193
0.0584164
-0.0233337
0.0582535
-0.0232281
0.0582173
-0.0226256
0.0580544
-0.0217986
0.057693
-0.0208103
0.0572537
-0.0197997
0.0568851
-0.0184685
0.0562774
-0.017328
0.0556414
-0.0162753
0.0553057
-0.0155672
0.0551528
-0.0148845
0.0550621
-0.014444
0.0552294
-0.0143746
0.0555945
-0.0146018
0.0564588
-0.015114
0.057777
-0.0159539
0.0589716
-0.0166276
0.0601489
-0.0169786
0.0607867
-0.0171409
0.0609554
-0.0174372
0.060838
-0.0184823
0.060637
-0.0203162
0.0617773
-0.0219311
0.0630948
-0.0245133
0.0648523
-0.0286415
0.0669562
-0.03244
0.0685454
-0.0357928
0.0684109
-0.0375789
0.0666439
-0.0388649
0.0646673
-0.039746
0.0615761
-0.0405153
0.0586637
-0.0408578
0.0553348
-0.0405494
0.0518013
-0.0391804
0.0480688
-0.0360503
0.0446226
-0.0316376
0.040239
-0.0268877
0.0373189
-0.0230137
0.0340795
-0.0212223
0.0316183
-0.0193783
0.0300988
-0.0178458
0.0284708
-0.0176075
0.0268986
-0.0173749
0.0259353
-0.0169709
0.0248654
-0.0161922
0.0227376
-0.0152469
0.0211319
-0.0148853
0.0198625
-0.0149875
0.0190875
-0.0150222
0.0186959
-0.0145713
0.0185956
-0.0136611
0.0185025
-0.0127894
0.0179956
-0.0123889
0.0177759
-0.0123866
0.0172868
-0.012094
0.0173668
-0.0109898
0.0170808
-0.00843103
0.0160649
-0.00765568
0.013898
-0.00850542
0.0128753
-0.00829308
0.0135365
-0.00556295
0.0123729
-0.00347507
0.0105173
-0.00342638
0.00925742
-0.0044118
0.0101874
-0.00435809
0.0106108
-0.00482297
0.0113293
-0.00545427
0.00844921
-0.00402799
0.00932047
-0.00117608
0.00225902
0.00101502
0.0011363
0.00149127
-0.00170288
0.00129883
-0.0016623
0.00278998
-0.00333322
0.00533259
-0.00573445
0.00600404
-0.00696969
0.00631162
-0.00786661
0.00715536
-0.00918246
0.00838418
-0.0101863
0.00879085
-0.0107883
0.0088475
-0.0111012
0.0090012
-0.0113198
0.00931599
-0.0116692
0.009556
-0.0120598
0.00974167
-0.0124952
0.0098978
-0.0129851
0.00994057
-0.0138037
0.0100693
-0.0146955
0.00950679
-0.0159113
0.00779818
-0.016948
0.00552139
-0.0182965
0.00257192
-0.019294
-0.00163581
-0.0167012
-0.00983079
-0.0108867
-0.0220123
0.00027589
-0.0294284
-0.000242427
-0.0344512
-0.00812824
-0.0373371
-0.0230447
-0.0408413
-0.0370629
-0.0433717
-0.0488774
-0.0446387
-0.0563814
-0.0449843
-0.0590687
-0.0451119
-0.0602411
-0.0451793
-0.0610703
-0.0436744
-0.0619033
-0.0396889
-0.0622254
-0.0343639
-0.0600257
-0.0303814
-0.0584904
-0.0261061
-0.0582496
-0.0243528
-0.0572871
-0.023005
-0.0556789
-0.0214774
-0.0547272
-0.0199843
-0.0548035
-0.0190937
-0.0547551
-0.0190571
-0.0545316
-0.0195889
-0.0550496
-0.0202526
-0.0557145
-0.0203993
-0.0569895
-0.0199681
-0.0581419
-0.0196415
-0.0596652
-0.0198036
-0.0608787
-0.0198732
-0.0608644
-0.0202193
-0.0607829
-0.0211964
-0.0595086
-0.0241115
-0.0558256
-0.0278047
-0.0528637
-0.0321651
-0.0492245
-0.0357903
-0.0470434
-0.0384447
-0.0453425
-0.0405082
-0.044152
-0.0416812
-0.0434557
-0.0425942
-0.0431256
-0.0430247
-0.0429628
-0.0433948
-0.0432964
-0.0440817
-0.0440658
-0.0451652
-0.0448299
-0.04588
-0.0458264
-0.0463504
-0.0469855
-0.0465459
-0.0476941
-0.0462646
-0.0483058
-0.0453331
-0.0484836
-0.0440878
-0.048416
-0.0419388
-0.0480634
-0.0388326
-0.0470153
-0.0356913
-0.0455689
-0.0327171
-0.0442019
-0.0302653
-0.0425409
-0.0279812
-0.0408979
-0.0257972
-0.0389672
-0.0236609
-0.0363045
-0.0220763
-0.0330067
-0.0213653
-0.0289587
-0.0213302
-0.0249997
-0.0217176
-0.0214511
-0.0222529
-0.0187071
-0.0236242
-0.0163916
-0.0245204
-0.0151018
-0.0255418
-0.0140185
-0.0260789
-0.0135835
-0.0265675
-0.0131257
-0.0264791
-0.013524
-0.0258411
-0.013513
-0.0250847
-0.0130636
-0.0237955
-0.0119973
-0.0219878
-0.0119504
-0.0198276
-0.0125424
-0.0176473
-0.0118979
-0.0158167
-0.00752518
-0.0143531
-0.000926465
0.00460612
-0.0146197
0.00948124
-0.0139711
0.012888
-0.0134465
0.0162417
-0.0138628
0.0212002
-0.0148245
0.0256873
-0.015835
0.0291945
-0.0168225
0.0320029
-0.0179654
0.034395
-0.0192818
0.0369168
-0.0205916
0.0389328
-0.0215674
0.040979
-0.0225407
0.0433216
-0.0235173
0.0453467
-0.0245564
0.0474789
-0.0251052
0.0492487
-0.0254115
0.0507862
-0.0256226
0.0524713
-0.0254921
0.0542501
-0.0251214
0.0557275
-0.024739
0.0573524
-0.0240386
0.0590441
-0.0230898
0.06035
-0.0221746
0.0613792
-0.0216673
0.0621729
-0.0214085
0.0625265
-0.0214113
0.0624296
-0.0217996
0.0619893
-0.0228185
0.0609143
-0.0238366
0.0597572
-0.0245332
0.0589426
-0.0248721
0.0581252
-0.0248496
0.0576157
-0.0244379
0.0573909
-0.0237393
0.0571874
-0.0226365
0.0566235
-0.0213486
0.0559455
-0.0201645
0.0553247
-0.0189137
0.0550462
-0.0179291
0.0547525
-0.0172358
0.0546504
-0.0166982
0.0547788
-0.0163959
0.0549946
-0.016262
0.0554912
-0.0165439
0.0563482
-0.0173355
0.0579639
-0.0179102
0.0593069
-0.018258
0.0602301
-0.0187844
0.0608956
-0.019236
0.0615374
-0.0198059
0.0617428
-0.0202987
0.0619151
-0.0216266
0.0626149
-0.0245371
0.0648101
-0.0278452
0.0678026
-0.0315181
0.069714
-0.0344412
0.0709943
-0.0360346
0.0706165
-0.037152
0.0690725
-0.0375727
0.0662431
-0.037917
0.0631723
-0.038355
0.0592863
-0.0381167
0.0551425
-0.0370434
0.0509262
-0.0354045
0.0455969
-0.0336659
0.041667
-0.0305538
0.0385348
-0.028317
0.0354012
-0.0253455
0.0334217
-0.0223177
0.0314526
-0.0210376
0.0297387
-0.0199052
0.0285053
-0.0185832
0.027164
-0.0174552
0.0254648
-0.0173715
0.0239498
-0.0167776
0.0227626
-0.0165645
0.0213257
-0.0157069
0.0204849
-0.0154262
0.0197885
-0.0153365
0.0192056
-0.015248
0.0190442
-0.0150199
0.0189959
-0.0142541
0.019064
-0.0130832
0.0186565
-0.0121343
0.0184157
-0.0122641
0.0177072
-0.0120224
0.0175199
-0.0108098
0.0170581
-0.00832321
0.0161122
-0.00701394
0.0137872
-0.00794714
0.0130299
-0.00848223
0.0141973
-0.00636053
0.0141974
-0.00501455
0.0139892
-0.00616453
0.0128235
-0.00753459
0.0154217
-0.00659461
0.0125293
-0.00446517
0.0113824
-0.00572746
0.0101819
-0.00434716
0.00914207
-3.13163e-05
0.00481874
0.000656651
0.000176031
0.00108004
0.00079187
0.00192285
-0.0017028
0.00365995
-0.00331985
0.00492275
-0.00555911
0.00578841
-0.00616678
0.0064429
-0.00776687
0.0075025
-0.0088082
0.00820903
-0.00973594
0.00840703
-0.010028
0.00853905
-0.0104194
0.00872923
-0.0107157
0.00892326
-0.0111472
0.00905494
-0.0115016
0.00925947
-0.0121053
0.00945016
-0.0126794
0.00947591
-0.0135851
0.00919432
-0.0146589
0.00823303
-0.0156162
0.00621716
-0.0169051
0.00349143
-0.0177126
-9.54383e-05
-0.017576
-0.00535485
-0.0115883
-0.0158865
-0.00272506
-0.025483
0.00937508
-0.0312027
0.00543094
-0.0335499
-0.00469098
-0.0372679
-0.0184575
-0.0416783
-0.0310742
-0.0454805
-0.0432458
-0.0482408
-0.0523624
-0.0497447
-0.057079
-0.0506997
-0.0597602
-0.051548
-0.0606147
-0.050949
-0.0630629
-0.0491232
-0.0637672
-0.0461645
-0.0630289
-0.0433947
-0.0618465
-0.0397107
-0.0612026
-0.0358362
-0.0597821
-0.0333495
-0.0582718
-0.0316022
-0.0567422
-0.0303478
-0.0560613
-0.0302607
-0.054924
-0.03075
-0.0542832
-0.0310747
-0.054382
-0.0313031
-0.0550686
-0.0321292
-0.056034
-0.0335381
-0.0565995
-0.0349324
-0.0569192
-0.0362819
-0.0578287
-0.0368338
-0.0583467
-0.0371545
-0.0581274
-0.0378699
-0.0566111
-0.0397447
-0.0528439
-0.042984
-0.0483811
-0.0463332
-0.0440508
-0.0485321
-0.0419709
-0.0488114
-0.0414802
-0.0485983
-0.0410172
-0.0486035
-0.041097
-0.0484491
-0.0411224
-0.0481017
-0.0417262
-0.0479501
-0.0423398
-0.0480426
-0.0435418
-0.0484463
-0.0440414
-0.0490664
-0.0455717
-0.0495591
-0.0467381
-0.0495009
-0.0474806
-0.0490814
-0.0478421
-0.04801
-0.0480484
-0.0466034
-0.047945
-0.0441876
-0.047512
-0.0408314
-0.0461915
-0.0377496
-0.0446989
-0.0349632
-0.0432574
-0.0324261
-0.0418363
-0.0300411
-0.040156
-0.0277989
-0.0380177
-0.025925
-0.03498
-0.0245923
-0.0311601
-0.0242212
-0.0266179
-0.0243926
-0.022354
-0.0249006
-0.0188559
-0.0256946
-0.015988
-0.0266922
-0.0139701
-0.0278528
-0.0125248
-0.0287928
-0.0119563
-0.0293423
-0.01185
-0.0295569
-0.0121491
-0.0293747
-0.0125756
-0.0287153
-0.0130206
-0.0277146
-0.0127837
-0.0263818
-0.0119134
-0.0244843
-0.0122567
-0.0226073
-0.0129434
-0.0209075
-0.0121815
-0.0190014
-0.00749023
-0.0171653
-0.00102356
0.00490838
-0.0173315
0.0106558
-0.0169908
0.0143556
-0.0169075
0.0180333
-0.0172302
0.0234855
-0.0178203
0.0283028
-0.0188334
0.0321628
-0.0198714
0.0351863
-0.0211096
0.037793
-0.0222064
0.0402048
-0.0234646
0.0424043
-0.0245438
0.044289
-0.0252977
0.046527
-0.0261117
0.0484519
-0.0268014
0.0500725
-0.0271972
0.0516813
-0.0270809
0.0529129
-0.0269826
0.0540077
-0.0267895
0.0557488
-0.0262864
0.0572962
-0.0257894
0.0585551
-0.0250765
0.0601849
-0.0242648
0.0612713
-0.0236687
0.0620306
-0.0233106
0.0626981
-0.0232451
0.0627363
-0.0236705
0.0624909
-0.0244388
0.0617935
-0.025677
0.060373
-0.0264579
0.0591721
-0.0266091
0.0584019
-0.0261144
0.0575196
-0.0255388
0.0566463
-0.0248405
0.0561928
-0.023911
0.0558635
-0.0226386
0.055479
-0.0214821
0.0548319
-0.0203831
0.0544832
-0.0193873
0.0544356
-0.0187399
0.0544207
-0.0183518
0.0545837
-0.0179486
0.0549468
-0.0177444
0.0554941
-0.0179414
0.0563502
-0.0187929
0.0577641
-0.0192887
0.05922
-0.0195121
0.0603943
-0.0199461
0.0611524
-0.0206072
0.0615045
-0.0214076
0.0622719
-0.0221997
0.0631631
-0.023327
0.0644758
-0.0259161
0.0660876
-0.0300949
0.0694766
-0.032586
0.071872
-0.034558
0.0725278
-0.0354251
0.0719119
-0.0358178
0.0707335
-0.0359496
0.0681062
-0.0359574
0.0645945
-0.0352162
0.0600357
-0.0343645
0.0549118
-0.0331478
0.0497165
-0.0313536
0.0455664
-0.029958
0.0409096
-0.0280386
0.0369881
-0.0264055
0.0340325
-0.0254038
0.0318931
-0.0236898
0.0304816
-0.022101
0.0291812
-0.0212208
0.028212
-0.0203234
0.0270443
-0.0191082
0.0258753
-0.0182508
0.0243007
-0.0180091
0.0228434
-0.017323
0.0217505
-0.0169948
0.0209524
-0.016317
0.0203081
-0.0156054
0.0201452
-0.0155493
0.0194066
-0.0154313
0.0196833
-0.0150749
0.0193667
-0.0143696
0.0195798
-0.0130319
0.0190361
-0.0120771
0.0187096
-0.0120512
0.0180307
-0.0119356
0.0178518
-0.0110468
0.017705
-0.00811894
0.0167727
-0.00705147
0.014976
-0.00810527
0.0139354
-0.00881509
0.0153709
-0.00808431
0.0164061
-0.00663268
0.016121
-0.00724265
0.0155705
-0.00800656
0.017249
-0.00734154
0.0138035
-0.00692953
0.0104841
-0.0066564
0.0130779
-0.00461306
0.0071266
-0.000297355
0.00534132
0.000891135
0.000306721
0.00118806
0.000831965
0.00219809
-0.00173845
0.00391641
-0.00360985
0.00515912
-0.00506264
0.00600275
-0.00624647
0.00660541
-0.0075549
0.0075295
-0.00861818
0.00793456
-0.00910699
0.00803994
-0.00963538
0.00815114
-0.00990223
0.00842318
-0.0103568
0.0084893
-0.0106109
0.00868038
-0.0112237
0.00886214
-0.0119085
0.00883363
-0.0127316
0.00864039
-0.0134536
0.00807195
-0.0145002
0.00677666
-0.0150566
0.00488586
-0.0160538
0.00209375
-0.0155507
-0.00268197
-0.0141746
-0.00939566
-0.00634659
-0.0187399
0.00757934
-0.0241086
0.0140928
-0.0269668
0.00806063
-0.0271739
-0.00373294
-0.0299441
-0.0145324
-0.0359938
-0.0236442
-0.0428302
-0.0345907
-0.0480467
-0.0459903
-0.052735
-0.0529536
-0.0551239
-0.0577603
-0.0565574
-0.0591616
-0.0561612
-0.062359
-0.0561866
-0.0634013
-0.0556398
-0.0640898
-0.0529832
-0.0631544
-0.0504865
-0.0628258
-0.0469342
-0.0623046
-0.0443746
-0.0601459
-0.0428541
-0.058021
-0.0430942
-0.0555274
-0.0437909
-0.054008
-0.0447491
-0.0531646
-0.0459113
-0.0528283
-0.0477003
-0.0526095
-0.0494312
-0.0526656
-0.050835
-0.0533596
-0.0515542
-0.0539633
-0.0518269
-0.0545399
-0.051973
-0.0548158