/*--------------------------------*- C++ -*----------------------------------*\
| =========                 |                                                 |
| \\      /  F ield         | OpenFOAM: The Open Source CFD Toolbox           |
|  \\    /   O peration     | Version:  2.2.x                                 |
|   \\  /    A nd           | Web:      www.OpenFOAM.org                      |
|    \\/     M anipulation  |                                                 |
\*---------------------------------------------------------------------------*/
FoamFile
{
    version     2.0;
    format      ascii;
    class       volScalarField;
    location    "3.14";
    object      rho;
}
// * * * * * * * * * * * * * * * * * * * * * * * * * * * * * * * * * * * * * //

dimensions      [1 -3 0 0 0 0 0];

internalField   nonuniform List<scalar> 
40000
(
3.08279
3.06306
3.03904
3.0121
2.98168
2.94586
2.90895
2.86985
2.82866
2.80521
2.77988
2.75948
2.73824
2.72205
2.71473
2.71459
2.71703
2.72853
2.74334
2.76388
2.79189
2.81704
2.85397
2.89187
2.92706
2.96886
2.99675
3.00619
3.01245
3.01377
2.99876
2.96982
2.92622
2.89969
2.87429
2.85465
2.83339
2.82078
2.80856
2.80045
2.79345
2.78768
2.77947
2.77447
2.75827
2.75484
2.75705
2.76454
2.77014
2.77666
2.77898
2.78731
2.80736
2.84247
2.87482
2.90717
2.95397
2.99247
3.02503
3.05564
3.10714
3.13402
3.16333
3.1726
3.1798
3.16523
3.16827
3.19774
3.28223
3.34436
3.28323
3.03798
2.61154
2.15619
1.9453
1.83382
1.74975
1.69378
1.63204
1.58442
1.55803
1.54939
1.55962
1.58076
1.61589
1.66194
1.7004
1.72414
1.7393
1.76363
1.76774
1.75194
1.73545
1.76469
1.76415
1.79619
1.87932
1.9157
2.19763
2.46462
2.33008
1.98161
1.89103
1.77404
1.76464
1.78953
1.77568
1.77268
1.75799
1.78247
1.77297
1.75475
1.72278
1.68634
1.64923
1.60964
1.58459
1.56282
1.5693
1.5911
1.63726
1.69943
1.77873
1.86025
1.96252
2.16132
2.56636
3.11696
3.40675
3.41908
3.3621
3.29603
3.2597
3.22801
3.22641
3.20702
3.18408
3.17974
3.15081
3.11544
3.07518
3.04238
2.99087
2.96035
2.93185
2.90245
2.8738
2.85486
2.84612
2.84892
2.84872
2.84238
2.83862
2.83943
2.84256
2.84891
2.85072
2.85747
2.87089
2.88022
2.88869
2.89213
2.8974
2.90454
2.90797
2.92835
2.95219
2.97829
3.00058
3.01574
3.01577
3.0207
3.00161
2.9832
2.94415
2.8889
2.83858
2.79912
2.75871
2.73599
2.70325
2.68058
2.66872
2.65418
2.65445
2.66235
2.67527
2.69873
2.72466
2.76134
2.79816
2.83865
2.88706
2.93309
2.96475
2.99214
3.02186
3.0465
3.06961
3.09122
3.07675
3.05442
3.02801
2.99677
2.96268
2.92501
2.89574
2.8687
2.83957
2.82994
2.81418
2.79436
2.7759
2.76263
2.76
2.76376
2.77279
2.77755
2.79653
2.81658
2.84029
2.85645
2.87807
2.91147
2.9463
2.97549
2.9939
3.00187
2.99498
2.97683
2.93815
2.89527
2.84966
2.81476
2.78683
2.76183
2.74059
2.73579
2.73438
2.72663
2.71978
2.70964
2.69599
2.68398
2.67446
2.67179
2.67371
2.68019
2.6993
2.72005
2.74135
2.75788
2.78299
2.8298
2.87047
2.90442
2.94132
2.97758
3.01469
3.06252
3.11535
3.13448
3.13034
3.13129
3.1318
3.13953
3.15921
3.19498
3.16956
3.08037
2.84954
2.47374
2.15063
1.92129
1.82062
1.74525
1.66752
1.61946
1.57743
1.54781
1.53799
1.54369
1.5638
1.59069
1.62774
1.67338
1.70592
1.72018
1.72747
1.74811
1.7491
1.73023
1.71095
1.72776
1.76225
1.86523
1.93463
2.10929
2.37713
2.3463
2.17788
1.95726
1.80267
1.7674
1.7717
1.80212
1.79852
1.79161
1.78445
1.79285
1.78475
1.75848
1.72059
1.67833
1.63267
1.60855
1.58874
1.5809
1.60065
1.63962
1.70356
1.78147
1.86401
1.98398
2.12944
2.51307
3.08219
3.45398
3.51483
3.45548
3.37547
3.31646
3.29133
3.25597
3.23154
3.21885
3.19018
3.18031
3.1555
3.12314
3.09424
3.06346
3.03125
2.99831
2.97249
2.96151
2.94707
2.94036
2.939
2.94106
2.93719
2.93275
2.92075
2.92277
2.93371
2.94212
2.94779
2.95333
2.95733
2.95833
2.95217
2.94047
2.93496
2.94067
2.94409
2.95596
2.96878
2.98527
2.99994
3.00399
2.99775
2.97701
2.95001
2.91262
2.85571
2.80578
2.75956
2.72473
2.69837
2.67141
2.64845
2.62961
2.61727
2.614
2.61694
2.62542
2.64676
2.67827
2.71739
2.76353
2.81192
2.86362
2.91439
2.95616
2.98264
3.01115
3.03858
3.06276
3.07431
3.0796
3.07231
3.04358
3.01105
2.97818
2.9503
2.91941
2.89357
2.86855
2.84881
2.84166
2.82842
2.81052
2.79982
2.78721
2.78012
2.78262
2.79153
2.79883
2.81327
2.82511
2.84446
2.86059
2.88086
2.91553
2.94563
2.96883
2.97724
2.96672
2.94175
2.90146
2.85362
2.80267
2.76407
2.7313
2.71012
2.69758
2.69364
2.68993
2.68296
2.66775
2.64965
2.63063
2.61298
2.60486
2.60081
2.6018
2.60555
2.62598
2.65555
2.68256
2.71665
2.74929
2.77729
2.81519
2.85222
2.89134
2.93047
2.97353
3.03172
3.07965
3.11016
3.13428
3.14413
3.14883
3.11265
3.05451
3.02219
2.97616
2.85587
2.64755
2.3192
2.03242
1.89387
1.785
1.70562
1.65839
1.60297
1.56828
1.54233
1.52319
1.52691
1.5391
1.56925
1.60345
1.64406
1.67675
1.6999
1.70054
1.70643
1.72082
1.72772
1.71307
1.70544
1.70081
1.77077
1.88892
2.03623
2.30528
2.39287
2.22552
1.9681
1.94998
1.72571
1.81109
1.79484
1.82652
1.81349
1.81451
1.79687
1.80745
1.78951
1.75856
1.70839
1.66613
1.63247
1.61247
1.60856
1.61183
1.64213
1.69776
1.77352
1.86589
1.96238
2.13027
2.42266
2.98459
3.41605
3.54215
3.54141
3.46482
3.36932
3.31628
3.27467
3.26315
3.23498
3.23314
3.21992
3.20779
3.19149
3.16324
3.13264
3.11633
3.09769
3.0709
3.04363
3.03383
3.03333
3.03633
3.03945
3.0333
3.02134
3.02617
3.02483
3.02424
3.01561
3.02353
3.0108
3.00912
2.99971
2.992
2.98074
2.97387
2.94988
2.9557
2.94819
2.95884
2.962
2.95715
2.94426
2.92999
2.91485
2.89377
2.87131
2.83636
2.78797
2.74518
2.70548
2.67861
2.65298
2.63055
2.60689
2.58983
2.58348
2.5781
2.58823
2.60212
2.63641
2.67563
2.72294
2.78072
2.84174
2.90441
2.94379
2.97663
2.99491
3.02258
3.05317
3.07438
3.07957
3.08224
3.05664
3.02845
3.00308
2.97883
2.95001
2.92479
2.90398
2.88652
2.86433
2.85127
2.83436
2.82257
2.8114
2.80479
2.80244
2.80131
2.80361
2.81018
2.81874
2.82789
2.83967
2.85556
2.8798
2.90979
2.93366
2.93243
2.91438
2.88593
2.84899
2.80559
2.76323
2.72359
2.6954
2.67735
2.66756
2.66518
2.65442
2.63648
2.61259
2.58681
2.56308
2.54673
2.53703
2.53611
2.53586
2.54213
2.56782
2.60313
2.63036
2.65633
2.69137
2.73345
2.76417
2.78769
2.82066
2.8802
2.93647
2.98778
3.05268
3.09737
3.12047
3.11225
3.06781
3.01191
2.93793
2.86849
2.75827
2.57665
2.332
2.13675
1.93379
1.78378
1.72254
1.68006
1.62655
1.58569
1.54182
1.52142
1.51164
1.51238
1.52214
1.53939
1.57363
1.60871
1.64076
1.6756
1.67901
1.68652
1.68613
1.69803
1.70631
1.68529
1.69996
1.71506
1.84629
1.95346
2.24622
2.42448
2.25606
2.04191
1.9192
1.83982
1.82931
1.83148
1.81056
1.83761
1.82958
1.82209
1.81272
1.81186
1.78856
1.7432
1.69873
1.65807
1.63457
1.62439
1.63322
1.64884
1.68758
1.75823
1.84125
1.95308
2.08388
2.2787
2.75396
3.27354
3.52365
3.5423
3.509
3.45477
3.37309
3.29805
3.25168
3.23697
3.23941
3.26215
3.26242
3.23707
3.249
3.23734
3.20372
3.17788
3.16483
3.14836
3.1255
3.10872
3.10174
3.09494
3.0952
3.09979
3.09493
3.09283
3.10696
3.10411
3.08426
3.06694
3.05298
3.04071
3.02317
2.99628
2.97869
2.94647
2.93355
2.90544
2.87038
2.8577
2.8569
2.85211
2.85168
2.85491
2.84943
2.8413
2.82178
2.79145
2.74556
2.70649
2.67571
2.65048
2.62735
2.60439
2.58107
2.55926
2.55648
2.55698
2.57182
2.59155
2.63578
2.68503
2.74394
2.80852
2.87669
2.93569
2.96982
2.99494
3.01268
3.03989
3.07873
3.08746
3.09177
3.08612
3.06254
3.03546
3.01118
2.98694
2.96193
2.94103
2.92364
2.90833
2.88605
2.8666
2.84541
2.82865
2.81768
2.81036
2.80596
2.80404
2.8026
2.8055
2.8116
2.82215
2.83173
2.84704
2.86685
2.87475
2.86895
2.85009
2.81919
2.78652
2.75289
2.7088
2.67598
2.65897
2.6445
2.62921
2.61551
2.59951
2.57789
2.5469
2.5207
2.50048
2.4854
2.47531
2.47187
2.47365
2.48355
2.50933
2.54401
2.5809
2.614
2.64223
2.66279
2.68093
2.71997
2.75548
2.80769
2.88311
2.95091
3.01879
3.05328
3.04714
3.02472
2.97373
2.88868
2.77826
2.64048
2.49684
2.31321
2.10286
1.92454
1.80956
1.70958
1.63997
1.613
1.59534
1.55776
1.5305
1.50189
1.48485
1.4875
1.50302
1.52684
1.5561
1.58015
1.61782
1.63922
1.6705
1.67659
1.66173
1.6717
1.68357
1.70587
1.69992
1.71059
1.75176
1.94201
2.18068
2.39642
2.34608
2.1297
1.95926
1.86581
1.85997
1.8584
1.81835
1.82711
1.85176
1.84666
1.83739
1.82737
1.80854
1.77443
1.7307
1.69488
1.661
1.64361
1.64873
1.66356
1.68786
1.73681
1.81598
1.92827
2.06772
2.23978
2.5427
3.04348
3.4428
3.51613
3.50867
3.47323
3.41514
3.35366
3.26968
3.22205
3.21117
3.2382
3.27019
3.2744
3.2654
3.27328
3.28337
3.26187
3.23573
3.21304
3.19685
3.17613
3.16223
3.1524
3.14354
3.13025
3.12899
3.12943
3.13558
3.14045
3.13718
3.12947
3.11889
3.06518
3.03572
2.99175
2.9599
2.90045
2.86092
2.81382
2.78843
2.77926
2.7785
2.78798
2.80158
2.81257
2.81683
2.81729
2.81608
2.79795
2.76304
2.72042
2.68587
2.66062
2.63702
2.61349
2.58673
2.56476
2.54852
2.54654
2.54858
2.56303
2.5955
2.64647
2.70153
2.76717
2.83253
2.90064
2.9502
2.98885
3.01889
3.04128
3.07318
3.10039
3.10602
3.10783
3.09558
3.08365
3.05973
3.03624
3.0139
2.99175
2.97109
2.95318
2.92725
2.89759
2.87271
2.84966
2.83096
2.82072
2.8131
2.80604
2.79722
2.79949
2.79884
2.79376
2.7979
2.8007
2.80329
2.80813
2.79834
2.78024
2.75405
2.72688
2.69586
2.65747
2.62061
2.5953
2.58236
2.57089
2.55613
2.52907
2.5013
2.47464
2.44534
2.42811
2.41615
2.41085
2.40941
2.41375
2.42293
2.45117
2.48259
2.51532
2.5539
2.5803
2.5987
2.60747
2.63567
2.70085
2.75613
2.82471
2.9044
2.95865
2.97933
2.96922
2.93201
2.85832
2.76254
2.62712
2.4606
2.2641
2.10623
1.95504
1.8224
1.71741
1.65266
1.60123
1.55169
1.52571
1.52118
1.49877
1.47922
1.4704
1.46904
1.4796
1.50364
1.53664
1.57059
1.58586
1.61458
1.63113
1.66421
1.6669
1.64773
1.63375
1.65946
1.68983
1.72572
1.74751
1.83851
2.04482
2.34814
2.38006
2.17054
1.9795
1.86379
1.8827
1.83644
1.85148
1.83928
1.86594
1.86528
1.86267
1.85008
1.83857
1.80729
1.76161
1.72269
1.69357
1.67258
1.66402
1.67391
1.70162
1.74475
1.80531
1.90513
2.03611
2.20345
2.42353
2.81667
3.27014
3.49207
3.51716
3.49089
3.45385
3.38206
3.331
3.27698
3.21709
3.18578
3.19935
3.22157
3.24722
3.27339
3.30365
3.29742
3.29978
3.29182
3.26978
3.24082
3.22169
3.20338
3.18806
3.17002
3.16121
3.13947
3.13215
3.13196
3.13683
3.14137
3.14988
3.12641
3.04687
2.95081
2.87488
2.82452
2.79344
2.75939
2.73753
2.7286
2.72674
2.72416
2.74764
2.77003
2.79096
2.8028
2.80989
2.80881
2.78882
2.7502
2.70886
2.67721
2.65097
2.62669
2.60338
2.57651
2.55286
2.53924
2.53715
2.54575
2.56216
2.60152
2.64755
2.70857
2.77703
2.84843
2.91695
2.96889
3.01064
3.04704
3.07342
3.10662
3.12601
3.13064
3.13404
3.11796
3.12338
3.10349
3.07801
3.05943
3.02899
2.99864
2.96713
2.93423
2.90234
2.87617
2.85214
2.83457
2.82171
2.81168
2.79948
2.78346
2.77333
2.76954
2.76168
2.75778
2.75706
2.75201
2.74454
2.73172
2.71384
2.68453
2.65287
2.61358
2.57559
2.54595
2.51487
2.49204
2.47504
2.45571
2.42985
2.40553
2.38198
2.36614
2.35473
2.3493
2.34989
2.35478
2.3671
2.39221
2.42329
2.45531
2.48145
2.50407
2.52307
2.54567
2.58155
2.62701
2.70156
2.77674
2.84732
2.88714
2.89927
2.88556
2.83018
2.75175
2.64129
2.49004
2.32181
2.13964
1.96245
1.85216
1.75124
1.66782
1.60689
1.56161
1.53378
1.50009
1.4773
1.46478
1.45298
1.44522
1.45591
1.46379
1.48313
1.50947
1.54461
1.57647
1.59608
1.60982
1.62194
1.64614
1.64996
1.63002
1.62004
1.64426
1.67853
1.72275
1.79388
1.9446
2.23188
2.36821
2.32369
2.03889
1.91904
1.87987
1.90471
1.90974
1.85941
1.86955
1.86695
1.89153
1.87632
1.86808
1.83827
1.7994
1.7537
1.72066
1.69886
1.69399
1.69504
1.71766
1.75296
1.80868
1.88156
1.9844
2.12437
2.3202
2.61647
3.03116
3.34716
3.48185
3.48385
3.46737
3.42925
3.36402
3.30322
3.29008
3.23396
3.18075
3.16805
3.199
3.24891
3.28144
3.28796
3.31376
3.31779
3.31513
3.29317
3.26988
3.23373
3.21079
3.17018
3.12805
3.08645
3.0606
3.04117
3.05611
3.0749
3.10947
3.12962
3.07086
2.9451
2.83735
2.78001
2.74426
2.72951
2.70671
2.6986
2.69043
2.69169
2.70232
2.73094
2.76104
2.78349
2.80004
2.81108
2.80723
2.7864
2.7426
2.70018
2.66908
2.64238
2.61836
2.59587
2.56733
2.54513
2.53324
2.53052
2.54227
2.55906
2.59806
2.64354
2.71188
2.78395
2.86683
2.93725
2.99564
3.03253
3.06958
3.10216
3.13489
3.14741
3.15076
3.15987
3.15304
3.17753
3.16092
3.1391
3.10899
3.06423
3.02455
2.98403
2.94361
2.90201
2.87084
2.84661
2.82688
2.80913
2.79148
2.77356
2.75452
2.73857
2.73578
2.72726
2.72362
2.72035
2.71566
2.70329
2.68765
2.66793
2.63988
2.59709
2.54234
2.49848
2.46595
2.43187
2.39854
2.37402
2.35612
2.34059
2.32092
2.30677
2.30147
2.29825
2.29569
2.30231
2.313
2.33055
2.35873
2.38906
2.41241
2.42845
2.44914
2.47931
2.52487
2.5749
2.63807
2.72286
2.79103
2.81702
2.82759
2.80503
2.74968
2.66093
2.54239
2.3875
2.21489
2.0726
1.91658
1.78101
1.68762
1.61355
1.56052
1.53041
1.50619
1.48799
1.46415
1.44398
1.43324
1.43412
1.43553
1.45476
1.47144
1.48776
1.52199
1.54455
1.5741
1.58648
1.59112
1.60476
1.6268
1.63122
1.62087
1.60379
1.64408
1.71485
1.79339
1.92155
2.17642
2.35043
2.29801
2.14015
2.03709
1.83162
1.92626
1.88327
1.91459
1.87762
1.88822
1.89592
1.90477
1.89617
1.87844
1.83681
1.78678
1.75129
1.72863
1.72059
1.72065
1.73504
1.76714
1.80866
1.8626
1.94521
2.05797
2.23016
2.4478
2.76365
3.15085
3.36867
3.45539
3.46462
3.42486
3.39601
3.34328
3.28236
3.25483
3.2393
3.17421
3.15713
3.15821
3.18892
3.24812
3.26372
3.26614
3.28912
3.2967
3.28155
3.23253
3.16493
3.09044
3.02227
2.96587
2.92633
2.9028
2.89706
2.92075
2.97846
3.05113
3.09939
3.04878
2.8992
2.77643
2.72323
2.70787
2.695
2.67781
2.66706
2.66509
2.67143
2.69814
2.7342
2.76433
2.78452
2.80425
2.81447
2.80727
2.78091
2.7359
2.69738
2.6645
2.6356
2.60893
2.58523
2.55616
2.53062
2.51925
2.51752
2.52351
2.54725
2.58916
2.64706
2.72065
2.80393
2.89293
2.96386
3.01691
3.05293
3.09398
3.12588
3.15503
3.16976
3.18819
3.19065
3.19618
3.25095
3.2325
3.21311
3.15548
3.1064
3.05448
3.00312
2.95382
2.90543
2.86628
2.83641
2.81231
2.79155
2.76915
2.74727
2.72825
2.70931
2.70312
2.70047
2.69548
2.69412
2.68931
2.67866
2.66297
2.63089
2.58301
2.52035
2.45878
2.40948
2.37438
2.34201
2.31242
2.29057
2.27493
2.26328
2.2509
2.24335
2.24101
2.24221
2.24564
2.25191
2.26964
2.29498
2.3199
2.34066
2.36275
2.38754
2.41794
2.45841
2.52309
2.59281
2.6677
2.72246
2.74407
2.75583
2.72779
2.66878
2.58218
2.45028
2.30754
2.16286
2.02248
1.89751
1.76832
1.65971
1.58467
1.52367
1.49012
1.47271
1.46012
1.44529
1.43298
1.41819
1.41826
1.42176
1.43765
1.45901
1.48712
1.49378
1.52237
1.54754
1.57179
1.57678
1.57166
1.57697
1.61093
1.62198
1.61962
1.62447
1.65807
1.77325
1.89623
2.11884
2.34743
2.32273
2.18104
2.02571
1.94354
1.88954
1.89815
1.90331
1.88438
1.91029
1.89439
1.9065
1.91318
1.90608
1.87592
1.82764
1.77939
1.75287
1.74555
1.75121
1.75905
1.78073
1.81329
1.86307
1.9265
2.01692
2.14719
2.33033
2.5962
2.92246
3.21846
3.38039
3.43013
3.41367
3.36656
3.33947
3.33188
3.26949
3.23222
3.2405
3.17336
3.12195
3.14145
3.16377
3.20399
3.24033
3.24739
3.25503
3.23497
3.18282
3.10201
3.00327
2.93278
2.85978
2.81643
2.79027
2.7792
2.78539
2.82752
2.92709
3.05992
3.10491
3.06426
2.88756
2.75119
2.70027
2.68185
2.6764
2.65806
2.64878
2.65388
2.66596
2.69397
2.73604
2.76602
2.7837
2.80359
2.80881
2.80204
2.76852
2.72333
2.68758
2.65479
2.62541
2.6014
2.57592
2.54864
2.52004
2.50767
2.50222
2.50727
2.53693
2.58215
2.64943
2.72573
2.82091
2.90581
2.98467
3.03764
3.08239
3.11182
3.13559
3.16687
3.19611
3.21931
3.23292
3.25144
3.32412
3.31011
3.27988
3.22334
3.15463
3.09138
3.03033
2.96761
2.91183
2.86084
2.82433
2.79618
2.77288
2.74473
2.71949
2.69971
2.68624
2.68002
2.68425
2.68204
2.68463
2.67772
2.65655
2.61146
2.55263
2.48423
2.41724
2.35828
2.31074
2.27961
2.25433
2.23474
2.21921
2.20829
2.19902
2.19108
2.18741
2.18684
2.18893
2.1959
2.20961
2.22324
2.24859
2.27031
2.29622
2.32583
2.36352
2.41303
2.47015
2.54346
2.61349
2.65427
2.67151
2.67711
2.65666
2.59933
2.50437
2.37444
2.23853
2.12136
2.00425
1.88391
1.76934
1.65945
1.57773
1.52055
1.47355
1.44128
1.4218
1.41054
1.40421
1.40137
1.39424
1.4046
1.41918
1.4416
1.46
1.48952
1.49883
1.51787
1.54251
1.56354
1.56416
1.55786
1.5586
1.59332
1.62834
1.62968
1.65074
1.68782
1.79068
2.00832
2.25994
2.33512
2.231
2.03104
1.9914
1.89853
1.9371
1.90111
1.91786
1.90149
1.91989
1.92521
1.9282
1.92939
1.91098
1.86756
1.82461
1.7851
1.7732
1.77713
1.78475
1.80316
1.82901
1.87309
1.93204
2.00212
2.09564
2.23301
2.43165
2.71683
3.01836
3.24363
3.36904
3.39685
3.3452
3.31403
3.30295
3.32207
3.29162
3.23427
3.20614
3.20004
3.1331
3.1435
3.18663
3.21272
3.23973
3.23901
3.22381
3.17552
3.08438
2.98222
2.87068
2.80257
2.74201
2.70421
2.69175
2.6907
2.7449
2.81616
2.94944
3.07611
3.14
3.10681
2.90775
2.74778
2.67772
2.67391
2.65354
2.64376
2.63695
2.64501
2.66209
2.69802
2.73815
2.76854
2.78339
2.79837
2.80221
2.79212
2.75788
2.71533
2.67886
2.64854
2.61954
2.5998
2.57973
2.54717
2.51639
2.49947
2.4995
2.50394
2.53018
2.58551
2.6453
2.72827
2.82793
2.92547
3.00529
3.06118
3.09985
3.12236
3.14814
3.17824
3.21369
3.24244
3.27748
3.31118
3.39333
3.39249
3.34582
3.28589
3.21412
3.14025
3.06733
2.99199
2.92336
2.86284
2.81706
2.78459
2.76185
2.7347
2.69997
2.67817
2.67144
2.66484
2.66264
2.668
2.65794
2.62079
2.57926
2.51549
2.43794
2.3631
2.30318
2.25413
2.21198
2.18817
2.16903
2.15772
2.14973
2.14135
2.13455
2.13047
2.12851
2.13002
2.13307
2.13826
2.15338
2.17081
2.19264
2.22382
2.26524
2.31334
2.37028
2.42535
2.49512
2.55881
2.59277
2.61255
2.6108
2.58548
2.53008
2.42874
2.30465
2.17742
2.08479
1.98908
1.8773
1.76777
1.66153
1.57904
1.51313
1.46867
1.43858
1.41658
1.39625
1.38481
1.38664
1.39106
1.3892
1.40047
1.41812
1.44789
1.46602
1.48977
1.49915
1.50691
1.52909
1.55079
1.55238
1.54507
1.53602
1.58057
1.61138
1.63731
1.64101
1.71597
1.93328
2.21983
2.33875
2.21295
2.09202
1.98839
1.94522
1.93325
1.9186
1.9246
1.93427
1.9307
1.93661
1.93769
1.9393
1.94047
1.90871
1.86388
1.82543
1.79811
1.79891
1.80893
1.82735
1.85179
1.89205
1.93592
1.99484
2.06444
2.16786
2.31802
2.5378
2.83016
3.07595
3.2495
3.34483
3.33769
3.29093
3.27157
3.26928
3.28618
3.3104
3.24528
3.19731
3.18299
3.15518
3.118
3.19747
3.20002
3.22914
3.21547
3.15973
3.0877
2.9854
2.87979
2.76669
2.69748
2.65465
2.62546
2.64427
2.66486
2.75369
2.84768
2.97384
3.1223
3.18853
3.16483
2.94284
2.75318
2.66903
2.66353
2.64032
2.63569
2.63119
2.63771
2.65279
2.68798
2.728
2.75569
2.77227
2.79062
2.79887
2.78902
2.75735
2.71352
2.67898
2.65213
2.62745
2.60995
2.58702
2.55473
2.52204
2.50419
2.49774
2.501
2.52657
2.57952
2.63868
2.7291
2.83336
2.93612
3.01445
3.07229
3.10432
3.13024
3.15474
3.17925
3.21918
3.26606
3.32324
3.37445
3.45987
3.47032
3.42381
3.36403
3.29048
3.2068
3.11359
3.02124
2.93784
2.86798
2.81868
2.77932
2.75185
2.72465
2.68773
2.65647
2.64127
2.63149
2.62598
2.61033
2.57248
2.52619
2.4635
2.39026
2.30647
2.2381
2.19071
2.15675
2.12575
2.10234
2.08619
2.07903
2.07421
2.06819
2.06537
2.06324
2.06171
2.06345
2.0707
2.08494
2.10308
2.13641
2.1704
2.2202
2.26824
2.31815
2.38195
2.44257
2.49496
2.5252
2.54285
2.53933
2.5139
2.45519
2.35904
2.23375
2.13478
2.04684
1.97141
1.88274
1.77244
1.66171
1.56787
1.50586
1.45704
1.42582
1.41304
1.40299
1.39181
1.37925
1.38149
1.39198
1.40151
1.40848
1.42127
1.44758
1.46763
1.48475
1.49777
1.49767
1.5115
1.53561
1.53873
1.5419
1.53056
1.57425
1.61842
1.65819
1.72624
1.85841
2.12943
2.30896
2.30464
2.13989
2.00285
1.9603
1.94896
1.95704
1.93442
1.94254
1.94456
1.95634
1.94858
1.95926
1.95972
1.94765
1.90867
1.86726
1.84114
1.83044
1.83689
1.85268
1.8779
1.90534
1.9454
1.98773
2.04541
2.11932
2.24922
2.41424
2.61967
2.88127
3.11091
3.23785
3.29527
3.27311
3.25219
3.237
3.24074
3.25781
3.29954
3.28731
3.18977
3.16322
3.17153
3.14063
3.15315
3.16902
3.1759
3.17559
3.11398
3.0394
2.89972
2.77795
2.67663
2.61532
2.61364
2.60117
2.63886
2.68998
2.76606
2.88109
3.0191
3.15939
3.21897
3.19046
2.96326
2.76324
2.67755
2.64853
2.63826
2.62713
2.62152
2.62269
2.64194
2.6821
2.73209
2.7567
2.77922
2.79485
2.80308
2.79549
2.76312
2.72131
2.68992
2.66088
2.63864
2.62196
2.60255
2.57029
2.53644
2.51015
2.49852
2.49724
2.52478
2.57265
2.63969
2.73026
2.83278
2.9357
3.01437
3.07478
3.10806
3.12869
3.14663
3.17203
3.21737
3.2849
3.35393
3.42138
3.51254
3.53669
3.50664
3.4512
3.36545
3.27759
3.1775
3.06592
2.96128
2.87111
2.81465
2.77191
2.73694
2.70237
2.66541
2.63043
2.60276
2.58647
2.55617
2.51426
2.47003
2.41413
2.34622
2.26639
2.18534
2.11912
2.07969
2.0582
2.04102
2.02322
2.0098
2.00203
1.99889
1.99428
1.99473
1.99859
2.00447
2.01026
2.0271
2.05399
2.08506
2.12376
2.16652
2.2206
2.27188
2.33001
2.39411
2.44396
2.47069
2.47999
2.4733
2.44698
2.38291
2.28856
2.18074
2.09363
2.0212
1.95017
1.87837
1.78394
1.67137
1.56483
1.49047
1.44344
1.41654
1.40078
1.39085
1.38879
1.38865
1.3838
1.38395
1.39742
1.41351
1.42612
1.42802
1.44908
1.47013
1.4851
1.48643
1.49358
1.49674
1.52186
1.53601
1.53675
1.53658
1.57835
1.65258
1.72629
1.8646
2.06263
2.26018
2.27356
2.19301
2.07794
1.942
1.97526
1.93358
1.96898
1.93709
1.9658
1.95384
1.96499
1.97021
1.97501
1.97083
1.94168
1.90564
1.87202
1.8645
1.86721
1.87362
1.88945
1.91279
1.95562
1.99651
2.05038
2.10949
2.19496
2.31291
2.49811
2.72152
2.92146
3.10297
3.20717
3.24495
3.22631
3.21902
3.21512
3.21748
3.23359
3.2822
3.30421
3.23864
3.14718
3.11788
3.13539
3.12119
3.13897
3.12821
3.1529
3.07261
2.97546
2.85326
2.73978
2.65529
2.61141
2.60591
2.61123
2.65136
2.72711
2.80542
2.92017
3.06002
3.18099
3.21392
3.16071
2.95505
2.76745
2.68868
2.6495
2.63889
2.62099
2.61657
2.61817
2.63718
2.68322
2.73653
2.76231
2.78879
2.79853
2.80878
2.79953
2.77044
2.73271
2.70617
2.68503
2.66795
2.64613
2.62356
2.59327
2.55195
2.51838
2.50294
2.50246
2.52565
2.57028
2.63767
2.71798
2.82418
2.92994
3.01525
3.07023
3.10016
3.11301
3.13438
3.16155
3.2138
3.28355
3.37907
3.46482
3.5493
3.5949
3.61366
3.53833
3.45707
3.35502
3.23756
3.11447
2.98554
2.87671
2.80046
2.74783
2.70613
2.66387
2.61368
2.5795
2.54883
2.51361
2.46497
2.42181
2.36857
2.30972
2.2293
2.14706
2.07097
2.01749
1.98391
1.96729
1.9573
1.95051
1.94549
1.9445
1.94438
1.943
1.94751
1.95587
1.96814
1.98117
2.00304
2.03495
2.07827
2.12293
2.17382
2.23339
2.29235
2.34567
2.38362
2.40904
2.41898
2.40705
2.3737
2.31516
2.22129
2.13214
2.0642
2.00809
1.95056
1.87914
1.80331
1.69701
1.5773
1.49099
1.44296
1.41251
1.39417
1.38462
1.3788
1.37516
1.37864
1.38446
1.39138
1.40332
1.41915
1.43493
1.43375
1.44813
1.46493
1.48136
1.47596
1.4812
1.48273
1.51683
1.53765
1.54101
1.55057
1.59445
1.67353
1.79571
1.99035
2.21382
2.2761
2.23437
2.07929
2.0225
1.95292
1.96617
1.96509
1.95772
1.96332
1.97166
1.97352
1.98531
1.99351
1.99143
1.98276
1.94662
1.91579
1.89055
1.89335
1.9069
1.92046
1.94105
1.96598
2.01122
2.05829
2.11304
2.17201
2.26366
2.38524
2.54931
2.76513
2.94463
3.09105
3.16895
3.20776
3.20326
3.20074
3.20405
3.20136
3.21678
3.25976
3.29763
3.28992
3.17939
3.12388
3.07064
3.08959
3.07212
3.08783
3.13202
3.08264
2.9578
2.86726
2.74618
2.677
2.63876
2.62507
2.6386
2.67464
2.76101
2.85529
2.97729
3.09846
3.16637
3.18118
3.09832
2.92834
2.78047
2.71302
2.66348
2.65093
2.62681
2.62533
2.61971
2.64225
2.69666
2.74241
2.77614
2.80138
2.81463
2.8289
2.81842
2.78811
2.75444
2.72793
2.70427
2.69385
2.6811
2.66064
2.61635
2.56493
2.52971
2.51205
2.50785
2.52722
2.57235
2.62955
2.71601
2.82204
2.93059
3.01331
3.06503
3.09152
3.10418
3.12574
3.15218
3.19971
3.28777
3.3976
3.48851
3.5739
3.64382
3.69594
3.62804
3.55424
3.43621
3.30733
3.1634
3.02098
2.88863
2.7916
2.71217
2.65589
2.60289
2.54753
2.5066
2.47541
2.42825
2.38474
2.33365
2.2836
2.21328
2.12594
2.03772
1.97559
1.94081
1.92037
1.90949
1.90385
1.90104
1.90074
1.90257
1.90558
1.90793
1.91397
1.92576
1.94693
1.97317
2.00203
2.04371
2.09114
2.13573
2.19211
2.25326
2.29967
2.3299
2.35465
2.36045
2.35146
2.31483
2.24466
2.1636
2.08652
2.02279
1.98293
1.94136
1.89291
1.81956
1.7215
1.60418
1.5037
1.44892
1.41927
1.40124
1.3857
1.3773
1.37437
1.3756
1.38085
1.38725
1.39437
1.40472
1.41592
1.43232
1.43349
1.44183
1.45445
1.47071
1.46937
1.46995
1.47522
1.50976
1.5331
1.53763
1.5577
1.62924
1.76891
1.9245
2.16456
2.28179
2.19906
2.12391
2.05585
1.95533
1.98478
1.9603
1.97466
1.96691
1.97663
1.99171
1.99557
2.00143
2.00974
2.00557
1.98981
1.96186
1.93615
1.91871
1.92764
1.94287
1.96949
1.99305
2.02182
2.06929
2.11438
2.16469
2.23073
2.32822
2.44951
2.60383
2.78072
2.9466
3.06021
3.13724
3.17272
3.17143
3.1781
3.1902
3.19694
3.20598
3.23853
3.28704
3.30446
3.2375
3.09592
3.0443
3.03914
3.03814
3.05876
3.06987
3.08184
2.95957
2.8966
2.79874
2.70665
2.66627
2.65156
2.68462
2.73017
2.8123
2.91967
3.03017
3.11853
3.14106
3.12116
3.01431
2.89464
2.80303
2.74994
2.71769
2.68667
2.65773
2.63573
2.62797
2.64775
2.70423
2.75552
2.80102
2.81503
2.83819
2.84303
2.83735
2.81014
2.77706
2.75086
2.73473
2.72507
2.71342
2.69143
2.63768
2.58287
2.54189
2.51852
2.51337
2.5261
2.56771
2.62487
2.70367
2.80503
2.91439
2.9984
3.05228
3.08448
3.0949
3.1115
3.13678
3.19013
3.28452
3.3948
3.49977
3.59252
3.66853
3.72805
3.71691
3.64227
3.52368
3.37231
3.21042
3.0458
2.89299
2.7774
2.67654
2.60447
2.54236
2.48826
2.4463
2.39794
2.36242
2.32517
2.28263
2.22133
2.14758
2.05572
1.96579
1.91614
1.89132
1.87857
1.87379
1.8692
1.8679
1.86901
1.87277
1.87879
1.88569
1.89751
1.91729
1.9443
1.97604
2.00651
2.04742
2.10106
2.15391
2.20693
2.24871
2.27961
2.29947
2.30483
2.29117
2.25879
2.19191
2.11622
2.05861
2.01188
1.96675
1.93038
1.88875
1.8352
1.74871
1.63256
1.5213
1.4577
1.42674
1.40937
1.39607
1.38484
1.37631
1.37481
1.3789
1.38735
1.39022
1.39329
1.40591
1.41475
1.42729
1.42725
1.42992
1.44024
1.45809
1.4623
1.46013
1.47194
1.50589
1.53426
1.55061
1.59264
1.70529
1.89122
2.12742
2.24956
2.17837
2.12809
2.03618
2.02982
1.9755
1.98908
1.97922
1.98773
1.98794
1.99927
2.00929
2.01935
2.02351
2.02945
2.02231
2.00178
1.98015
1.96383
1.96041
1.97547
1.98912
2.01627
2.04429
2.08246
2.1222
2.1675
2.22785
2.28961
2.3813
2.50554
2.65026
2.80214
2.92412
3.04324
3.10579
3.13978
3.1433
3.15825
3.1724
3.17784
3.18801
3.21177
3.28037
3.29874
3.29135
3.15877
3.03687
2.98845
3.01158
3.00723
2.99561
3.02485
2.98888
2.89064
2.87499
2.7815
2.7418
2.73611
2.7537
2.81509
2.88061
2.98512
3.07441
3.12077
3.10288
3.02965
2.9489
2.87238
2.83416
2.78928
2.77933
2.73751
2.70479
2.66462
2.64907
2.66059
2.725
2.78085
2.82832
2.8365
2.8624
2.86157
2.85763
2.83862
2.80666
2.78444
2.76911
2.75408
2.74432
2.71746
2.66177
2.59847
2.55212
2.51984
2.51152
2.52287
2.5588
2.61151
2.68292
2.78453
2.88998
2.97755
3.03695
3.07044
3.08916
3.10224
3.126
3.18288
3.27731
3.39676
3.50821
3.58801
3.66571
3.72622
3.76588
3.72097
3.60044
3.43586
3.25292
3.0638
2.89708
2.75375
2.64394
2.55932
2.50147
2.44845
2.39967
2.35925
2.32665
2.28724
2.25244
2.1882
2.10047
2.0018
1.92288
1.88236
1.86291
1.85185
1.84806
1.84601
1.84561
1.84824
1.85344
1.86341
1.87879
1.89629
1.91837
1.94803
1.98723
2.02275
2.06759
2.11733
2.16472
2.19868
2.22408
2.24559
2.2488
2.23263
2.19373
2.14099
2.0814
2.0325
1.99508
1.96824
1.93256
1.89712
1.84621
1.76734
1.65948
1.54268
1.47204
1.43371
1.414
1.40149
1.3932
1.39016
1.38479
1.38455
1.388
1.39812
1.40296
1.39753
1.40533
1.41431
1.42254
1.41943
1.41788
1.42536
1.44476
1.45683
1.46038
1.46865
1.51018
1.56042
1.61327
1.69298
1.85867
2.05333
2.18577
2.21391
2.1142
2.06255
2.02006
2.00604
2.00304
1.99188
2.00291
1.99229
2.01368
2.01229
2.03152
2.03546
2.0479
2.04873
2.04129
2.027
2.00998
1.99988
2.00343
2.0152
2.0313
2.06406
2.09936
2.13625
2.15957
2.21159
2.28311
2.34936
2.41716
2.53987
2.67217
2.80306
2.90917
3.02075
3.0759
3.11488
3.12211
3.13689
3.14321
3.14912
3.15953
3.18023
3.24608
3.29486
3.29805
3.26436
3.05878
2.95675
2.94842
2.96245
3.00063
2.97299
3.01706
2.94442
2.92803
2.85503
2.82293
2.82185
2.82241
2.8922
2.9636
3.05135
3.11738
3.10726
3.06291
2.95259
2.91004
2.85076
2.86606
2.82987
2.83558
2.81359
2.77504
2.70926
2.67982
2.68341
2.74305
2.80484
2.84063
2.85853
2.88025
2.88729
2.88955
2.87186
2.83879
2.81951
2.79936
2.78483
2.7746
2.73993
2.68318
2.61112
2.55458
2.51785
2.50364
2.51436
2.53986
2.59352
2.66071
2.7502
2.85457
2.94387
3.00785
3.04966
3.0743
3.09233
3.11537
3.16809
3.2665
3.39384
3.50593
3.57538
3.65041
3.71489
3.77159
3.78882
3.68309
3.51524
3.30009
3.08591
2.89463
2.73637
2.61554
2.52719
2.46673
2.41843
2.37313
2.33628
2.30075
2.2831
2.22446
2.16061
2.06689
1.96191
1.89461
1.85952
1.84291
1.83607
1.83425
1.83654
1.83852
1.84188
1.85134
1.86556
1.88222
1.90209
1.93018
1.96679
2.00685
2.04964
2.09168
2.12747
2.15332
2.17716
2.19221
2.19586
2.18033
2.14043
2.08669
2.04344
2.00854
1.97775
1.95768
1.93901
1.90347
1.86113
1.79029
1.68575
1.56008
1.48569
1.44626
1.42211
1.4064
1.39666
1.39134
1.39155
1.39053
1.38947
1.39049
1.39756
1.40413
1.40018
1.4023
1.41024
1.41679
1.40733
1.41035
1.42106
1.44541
1.46407
1.46881
1.47868
1.52041
1.5995
1.68079
1.79506
1.9657
2.16425
2.19225
2.15444
2.07519
2.01931
2.02217
1.99067
2.01904
1.99641
2.01968
2.01557
2.03037
2.03656
2.05141
2.06062
2.07151
2.07396
2.07157
2.06228
2.04033
2.03985
2.04259
2.06079
2.08814
2.12103
2.14429
2.18219
2.22465
2.26986
2.32822
2.40834
2.47495
2.56931
2.67973
2.80038
2.90185
2.99645
3.05051
3.09358
3.10723
3.11636
3.12592
3.13332
3.13425
3.15877
3.20355
3.26859
3.29575
3.30227
3.17639
3.00753
2.90741
2.88277
2.90724
2.96535
2.98362
2.96725
2.96945
2.97958
2.90728
2.91664
2.91324
2.97002
3.04434
3.10104
3.12906
3.08516
3.01786
2.91969
2.87971
2.86801
2.87257
2.87448
2.87905
2.88989
2.85841
2.79235
2.72856
2.72403
2.76457
2.83287
2.85502
2.89425
2.90334
2.92005
2.92342
2.90692
2.87672
2.85211
2.82959
2.81646
2.80145
2.76468
2.7032
2.62796
2.56484
2.52049
2.49521
2.49204
2.51778
2.56387
2.62549
2.71248
2.8174
2.90297
2.96691
3.01014
3.04432
3.07381
3.09896
3.15432
3.25343
3.3808
3.49597
3.55089
3.62522
3.6988
3.7656
3.82753
3.76903
3.59308
3.35214
3.11127
2.9015
2.72284
2.59993
2.5054
2.44446
2.39503
2.35485
2.3201
2.28269
2.27098
2.2166
2.14021
2.03793
1.93046
1.87407
1.84813
1.83541
1.83163
1.83177
1.83649
1.84219
1.84731
1.85428
1.87102
1.89547
1.92665
1.95701
1.99524
2.03668
2.0746
2.10038
2.1161
2.13542
2.14483
2.14286
2.12534
2.09604
2.05445
2.01824
1.9869
1.96903
1.94562
1.93282
1.91054
1.87047
1.8094
1.71361
1.58058
1.49466
1.45192
1.42785
1.41312
1.40111
1.39269
1.38844
1.3878
1.38777
1.38563
1.38606
1.39317
1.40103
1.39362
1.39195
1.40118
1.4123
1.41118
1.41221
1.41588
1.44638
1.46838
1.47662
1.48843
1.5292
1.613
1.7571
1.93193
2.12972
2.16457
2.15799
2.08867
2.05935
2.02043
2.03469