/*--------------------------------*- C++ -*----------------------------------*\
| =========                 |                                                 |
| \\      /  F ield         | OpenFOAM: The Open Source CFD Toolbox           |
|  \\    /   O peration     | Version:  2.2.x                                 |
|   \\  /    A nd           | Web:      www.OpenFOAM.org                      |
|    \\/     M anipulation  |                                                 |
\*---------------------------------------------------------------------------*/
FoamFile
{
    version     2.0;
    format      ascii;
    class       surfaceScalarField;
    location    "0.2";
    object      phi;
}
// * * * * * * * * * * * * * * * * * * * * * * * * * * * * * * * * * * * * * //

dimensions      [1 0 -1 0 0 0 0];

internalField   nonuniform List<scalar> 
1023
(
0
0
0
0
0
0
0
0
0
0
0
0
0
0
0
0
-6.00211e-17
-7.80274e-16
-2.58091e-15
-8.10284e-15
-2.47887e-14
-7.6827e-14
-2.37083e-13
-7.31957e-13
-2.26099e-12
-6.98837e-12
-2.15985e-11
-6.67544e-11
-2.06319e-10
-6.37678e-10
-1.9709e-09
-6.09154e-09
-1.88274e-08
-5.81908e-08
-1.79854e-07
-5.55885e-07
-1.71811e-06
-5.31029e-06
-1.64128e-05
-5.07269e-05
-0.000156772
-0.000484416
-0.00149596
-0.0046114
-0.014135
-0.0426161
-0.122982
-0.317955
-0.508441
-0.61121
-0.660377
-0.682488
-0.692172
-0.696356
-0.698134
-0.698894
-0.699216
-0.699378
-0.699463
-0.699477
-0.699496
-0.69951
-0.699517
-0.699518
-0.699516
-0.699511
-0.699498
-0.699481
-0.699475
-0.699475
-0.69948
-0.69949
-0.699503
-0.699513
-0.699518
-0.699519
-0.699515
-0.69951
-0.699501
-0.699486
-0.69947
-0.699461
-0.699457
-0.699459
-0.699467
-0.699476
-0.699483
-0.699486
-0.699486
-0.699487
-0.699486
-0.699482
-0.699473
-0.699466
-0.699462
-0.699462
-0.699465
-0.69947
-0.699476
-0.699476
-0.699474
-0.69947
-0.699463
-0.699456
-0.699447
-0.699438
-0.699435
-0.699435
-0.699438
-0.699447
-0.69946
-0.699474
-0.699485
-0.699494
-0.6995
-0.699503
-0.699503
-0.699502
-0.699501
-0.699501
-0.699502
-0.699504
-0.699509
-0.699514
-0.699518
-0.699518
-0.699517
-0.699513
-0.699507
-0.699501
-0.699495
-0.699493
-0.699493
-0.699496
-0.6995
-0.699507
-0.699514
-0.69952
-0.699523
-0.699523
-0.69952
-0.699515
-0.699507
-0.699497
-0.699487
-0.699479
-0.699472
-0.699467
-0.699465
-0.699464
-0.699464
-0.699463
-0.699461
-0.699459
-0.699456
-0.699454
-0.699454
-0.699455
-0.699457
-0.69946
-0.699464
-0.699467
-0.699468
-0.699467
-0.699461
-0.699451
-0.699434
-0.699412
-0.699391
-0.699373
-0.699361
-0.699353
-0.699349
-0.699348
-0.69935
-0.699352
-0.699355
-0.69936
-0.699366
-0.699374
-0.699387
-0.699401
-0.699412
-0.699423
-0.699434
-0.699443
-0.699451
-0.699458
-0.699464
-0.699469
-0.699471
-0.699471
-0.699471
-0.699472
-0.699475
-0.699481
-0.69949
-0.6995
-0.69951
-0.699518
-0.699524
-0.699527
-0.699528
-0.699525
-0.699518
-0.699504
-0.699484
-0.699457
-0.699426
-0.699402
-0.699386
-0.699375
-0.699369
-0.699366
-0.699366
-0.699367
-0.699369
-0.699373
-0.699381
-0.699395
-0.699412
-0.699426
-0.699439
-0.69945
-0.69946
-0.699467
-0.699473
-0.699477
-0.69948
-0.69948
-0.69948
-0.69948
-0.699481
-0.699485
-0.699491
-0.699501
-0.699514
-0.69953
-0.699544
-0.699557
-0.699567
-0.699574
-0.699578
-0.69958
-0.69958
-0.699579
-0.699579
-0.699578
-0.699578
-0.699576
-0.69957
-0.69956
-0.699544
-0.699519
-0.69949
-0.699465
-0.699444
-0.699428
-0.699416
-0.69941
-0.699407
-0.699407
-0.699408
-0.699412
-0.699417
-0.699421
-0.699422
-0.699422
-0.699421
-0.69942
-0.69942
-0.699421
-0.699426
-0.699436
-0.699454
-0.69948
-0.699511
-0.699537
-0.699556
-0.699568
-0.699574
-0.699574
-0.699568
-0.699553
-0.69953
-0.699503
-0.699478
-0.699456
-0.699438
-0.699421
-0.699403
-0.699383
-0.699365
-0.699352
-0.69935
-0.699366
-0.699394
-0.699437
-0.699514
-0.699654
-0.699805
-0.699842
-0.699818
-0.699822
-0.699781
-0.699818
-0.69978
-0.699857
-0.699924
-0.699978
-0.700225
-0.700307
-0.700506
-0.700595
-0.700665
-0.700759
-0.700811
-0.701185
-0.701736
-0.702749
-0.704275
-0.706697
-0.711449
-0.720451
-0.737268
-0.764764
-0.790434
-0.809353
-0.821646
-0.830279
-0.836584
-0.839621
-0.842168
-0.845048
-0.845888
-0.845848
-0.846422
-0.84727
-0.847424
-0.847152
-0.847127
-0.847481
-0.847704
-0.847703
-0.847605
-0.847607
-0.847687
-0.847742
-0.84774
-0.847719
-0.847722
-0.847741
-0.847758
-0.847762
-0.847744
-0.847724
-0.847718
-0.847717
-0.847716
-0.847707
-0.847697
-0.847679
-0.84765
-0.847606
-0.847556
-0.847505
-0.84745
-0.847393
-0.847338
-0.847287
-0.847232
-0.847164
-0.847085
-0.846988
-0.846871
-0.846733
-0.846556
-0.846333
-0.846136
-0.845994
-0.845913
-0.845881
-0.845883
-0.845915
-0.846025
-0.846317
-0.846909
-0.847975
-0.84972
-0.852417
-0.856401
-0.862086
-0.869883
-0.880253
-0.891665
-0.901624
-0.910079
-0.917085
-0.922761
-0.927275
-0.930793
-0.933488
-0.935521
-0.937041
-0.938157
-0.938962
-0.939525
-0.939902
-0.940139
-0.940265
-0.940298
-0.940263
-0.94019
-0.940103
-0.939992
-0.939863
-0.939717
-0.939565
-0.939435
-0.939352
-0.939302
-0.939263
-0.939262
-0.939291
-0.939302
-0.939289
-0.93925
-0.939197
-0.939174
-0.939158
-0.939161
-0.939258
-0.93939
-0.939535
-0.939661
-0.939734
-0.939763
-0.939825
-0.939973
-0.940031
-0.940018
-0.940024
-0.940058
-0.940203
-0.940581
-0.940774
-0.940717
-0.94013
-0.939488
-0.93941
-0.94008
-0.940774
-0.940543
-0.939208
-0.937352
-0.934905
-0.935198
-0.932382
-0.922886
-0.916967
-0.910959
-0.907006
-0.907045
-0.90636
-0.903967
-0.902894
-0.903173
-0.904027
-0.904406
-0.904059
-0.903336
-0.902718
-0.902501
-0.902447
-0.902473
-0.903072
-0.904071
-0.90469
-0.90493
-0.903053
-0.90149
-0.900984
-0.902508
-0.903228
-0.903052
-0.903314
-0.903374
-0.903329
-0.903186
-0.903012
-0.902906
-0.902877
-0.902896
-0.902932
-0.902957
-0.902955
-0.902937
-0.902914
-0.902899
-0.902892
-0.902888
-0.902893
-0.902905
-0.902923
-0.902954
-0.902999
-0.903058
-0.903098
-0.903111
-0.903111
-0.903105
-0.903084
-0.903059
-0.903013
-0.902936
-0.902872
-0.902841
-0.902831
-0.902829
-0.902833
-0.902844
-0.902866
-0.902901
-0.90294
-0.902961
-0.902969
-0.90297
-0.902969
-0.902966
-0.902958
-0.90295
-0.902948
-0.902949
-0.902953
-0.90296
-0.902972
-0.902992
-0.903007
-0.90301
-0.90301
-0.903005
-0.902991
-0.902975
-0.902958
-0.902931
-0.902892
-0.902861
-0.90285
-0.902848
-0.902849
-0.902858
-0.902869
-0.902884
-0.90291
-0.902948
-0.902977
-0.902988
-0.902992
-0.902993
-0.902989
-0.902983
-0.902973
-0.902956
-0.902931
-0.902914
-0.902906
-0.902904
-0.902903
-0.902905
-0.902909
-0.902914
-0.902916
-0.902916
-0.902914
-0.90291
-0.902905
-0.902899
-0.902896
-0.902896
-0.902897
-0.902902
-0.902909
-0.902916
-0.902929
-0.902944
-0.902959
-0.902966
-0.90297
-0.90297
-0.902969
-0.902969
-0.902967
-0.902964
-0.902959
-0.902953
-0.902945
-0.902935
-0.902921
-0.902903
-0.902887
-0.902876
-0.902871
-0.902869
-0.902869
-0.902874
-0.902885
-0.902896
-0.902911
-0.902933
-0.902959
-0.902976
-0.902984
-0.902986
-0.902985
-0.902983
-0.902979
-0.902975
-0.902968
-0.902959
-0.90295
-0.902946
-0.902945
-0.902946
-0.902948
-0.90295
-0.902952
-0.902954
-0.902959
-0.902965
-0.902969
-0.90297
-0.902971
-0.90297
-0.902969
-0.902966
-0.902962
-0.902957
-0.902952
-0.902949
-0.902948
-0.90295
-0.902953
-0.902958
-0.902964
-0.90297
-0.902977
-0.902986
-0.902991
-0.902992
-0.902991
-0.902988
-0.902985
-0.90298
-0.902975
-0.902968
-0.902959
-0.902949
-0.902935
-0.902919
-0.9029
-0.902878
-0.902851
-0.902819
-0.902796
-0.902781
-0.902772
-0.902768
-0.902767
-0.902768
-0.902771
-0.902773
-0.902776
-0.902778
-0.902778
-0.902776
-0.90277
-0.902762
-0.902755
-0.902749
-0.902747
-0.902748
-0.902753
-0.902756
-0.902756
-0.902753
-0.902748
-0.902745
-0.902745
-0.902752
-0.902764
-0.902773
-0.902761
-0.902727
-0.902708
-0.902695
-0.902653
-0.902745
-0.903091
-0.903008
-0.902325
-0.902763
-0.904581
-0.901229
-0.899437
-0.908319
-0.925031
-0.952576
-1.03374
-1.21625
-1.2846
-1.29462
-1.29583
-1.29598
-1.296
-1.296
-1.296
-1.296
-1.296
-1.296
-1.296
-1.296
-1.296
-1.296
-1.296
-1.296
-1.296
-1.296
-1.296
-1.296
-1.296
-1.296
-1.296
-1.296
-1.296
-1.296
-1.296
-1.296
-1.296
-1.296
-1.296
-1.296
-1.296
-1.296
-1.296
-1.296
-1.296
-1.296
-1.296
-1.296
-1.296
-1.296
-1.296
-1.296
-1.296
-1.296
-1.296
-1.296
-1.296
-1.296
-1.296
-1.296
-1.296
-1.296
-1.296
-1.296
-1.296
-1.296
-1.296
-1.296
-1.296
-1.296
-1.296
-1.296
-1.296
-1.296
-1.296
-1.296
-1.296
-1.296
-1.296
-1.296
-1.296
-1.296
-1.296
-1.296
-1.296
-1.296
-1.296
-1.296
-1.296
-1.296
-1.296
-1.296
-1.296
-1.296
-1.296
-1.296
-1.296
-1.296
-1.296
-1.296
-1.296
-1.296
-1.296
-1.296
-1.296
-1.296
-1.296
-1.296
-1.296
-1.296
-1.296
-1.296
-1.296
-1.296
-1.296
-1.296
-1.296
-1.296
-1.296
-1.296
-1.296
-1.296
-1.296
-1.296
-1.296
-1.296
-1.296
-1.296
-1.296
-1.296
-1.296
-1.296
-1.296
-1.296
-1.296
-1.296
-1.296
-1.296
-1.296
-1.296
-1.296
-1.296
-1.296
-1.296
-1.296
-1.296
-1.296
-1.296
-1.296
-1.296
-1.296
-1.296
-1.296
-1.296
-1.296
-1.296
-1.296
-1.296
-1.296
-1.296
-1.296
-1.296
-1.296
-1.296
-1.296
-1.296
-1.296
-1.296
-1.296
-1.296
-1.296
-1.296
-1.296
-1.296
-1.296
-1.296
-1.296
-1.296
-1.296
-1.296
-1.296
-1.296
-1.296
-1.296
-1.296
-1.296
-1.296
-1.296
-1.296
-1.296
-1.296
-1.296
-1.296
-1.296
-1.296
-1.296
-1.296
-1.296
-1.296
-1.296
-1.296
-1.296
-1.296
-1.296
-1.296
-1.296
-1.296
-1.296
-1.296
-1.296
-1.296
-1.296
-1.296
-1.296
-1.296
-1.296
-1.296
-1.296
-1.296
-1.296
-1.296
-1.296
-1.296
-1.296
-1.296
-1.296
-1.296
-1.296
-1.296
-1.296
-1.296
-1.296
-1.296
-1.296
-1.296
-1.296
-1.296
-1.296
-1.296
-1.296
-1.296
-1.296
-1.296
-1.296
-1.296
-1.296
-1.296
-1.296
-1.296
-1.296
-1.296
-1.296
-1.296
-1.296
-1.296
-1.296
-1.296
-1.296
-1.296
-1.296
-1.296
-1.296
-1.296
-1.296
-1.296
-1.296
-1.296
-1.296
-1.296
-1.296
-1.296
-1.296
-1.296
-1.296
-1.296
-1.296
-1.296
-1.296
-1.296
-1.296
-1.296
-1.296
-1.296
-1.296
-1.296
-1.296
-1.296
-1.296
-1.296
-1.296
-1.296
-1.296
-1.296
-1.296
-1.296
-1.296
-1.296
-1.296
-1.296
-1.296
-1.296
-1.296
-1.296
-1.296
-1.296
-1.296
-1.296
-1.296
-1.296
-1.296
-1.296
-1.296
-1.296
-1.296
-1.296
-1.296
-1.296
-1.296
-1.296
-1.296
-1.296
-1.296
)
;

boundaryField
{
    front-back
    {
        type            empty;
        value           nonuniform 0();
    }
    inlet-outlet
    {
        type            calculated;
        value           nonuniform List<scalar> 2(-1.296 0);
    }
    top-down
    {
        type            empty;
        value           nonuniform 0();
    }
}


// ************************************************************************* //
