/*--------------------------------*- C++ -*----------------------------------*\
| =========                 |                                                 |
| \\      /  F ield         | OpenFOAM: The Open Source CFD Toolbox           |
|  \\    /   O peration     | Version:  2.2.x                                 |
|   \\  /    A nd           | Web:      www.OpenFOAM.org                      |
|    \\/     M anipulation  |                                                 |
\*---------------------------------------------------------------------------*/
FoamFile
{
    version     2.0;
    format      ascii;
    class       surfaceScalarField;
    location    "0.1";
    object      phi;
}
// * * * * * * * * * * * * * * * * * * * * * * * * * * * * * * * * * * * * * //

dimensions      [1 0 -1 0 0 0 0];

internalField   nonuniform List<scalar> 
28084
(
0.000746224
0.000742988
0.000740213
0.000737877
0.000735962
0.000734443
0.000733299
0.000732503
0.000732031
0.000731856
0.00073195
0.000732288
0.00073284
0.000733581
0.000734484
0.000735523
0.000736673
0.00073791
0.00073921
0.000740553
0.000741918
0.000743286
0.000744639
0.000745961
0.000747237
0.000748455
0.000749601
0.000750665
0.000751637
0.000752509
0.000753273
0.000753923
0.000754452
0.000754855
0.000755128
0.000755267
0.000755269
0.00075513
0.000754848
0.000754419
0.000753842
0.000753114
0.000752233
0.000751195
0.00075
0.00075924
0.000768832
0.000778732
0.000788896
0.00079928
0.000809837
0.000820521
0.000831284
0.00084208
0.000852859
0.000863573
0.000874173
0.000884611
0.000894837
0.000904803
0.000914462
0.000923767
0.000932672
0.000941132
0.000949106
0.000956551
0.000963431
0.000969709
0.000975352
0.000980333
0.000984624
0.000988204
0.000991058
0.000993172
0.00099454
0.000995159
0.000995035
0.000994178
0.000992604
0.000990337
0.000987405
0.000983845
0.0009797
0.000975021
0.000969866
0.000964304
0.000958403
0.000952273
0.000945919
0.000939303
0.000932054
0.000920963
0.000891734
0.000804175
0.000704046
0.000667101
0.000628126
0.000579531
0.000533978
0.000495404
0.000461015
0.000432065
0.000407842
0.000386765
0.000366951
0.000347105
0.000326566
0.00030476
0.000281265
0.000257982
0.000234752
0.000210733
0.000185606
0.000159451
0.000131221
0.000101459
6.92369e-05
3.76306e-05
3.7119e-06
3.23513e-06
0.00074974
2.77572e-06
0.000748785
2.33538e-06
0.000748259
1.91574e-06
0.000748147
1.51833e-06
0.000748429
1.14451e-06
0.000749083
7.95451e-07
0.000750087
4.72133e-07
0.000751415
1.7529e-07
0.000753039
-9.458e-08
0.000754933
-3.37226e-07
0.000757068
-5.52641e-07
0.000759414
-7.41055e-07
0.000761942
-9.02918e-07
0.000764622
-1.03889e-06
0.000767426
-1.14981e-06
0.000770325
-1.23667e-06
0.000773292
-1.30061e-06
0.0007763
-1.34287e-06
0.000779324
-1.36477e-06
0.000782341
-1.36768e-06
0.000785328
-1.353e-06
0.000788266
-1.32213e-06
0.000791134
-1.27648e-06
0.000793916
-1.21739e-06
0.000796595
-1.14619e-06
0.000799159
-1.06412e-06
0.000801594
-9.72359e-07
0.00080389
-8.71996e-07
0.000806036
-7.64042e-07
0.000808025
-6.49412e-07
0.000809849
-5.28932e-07
0.000811502
-4.03328e-07
0.000812979
-2.73238e-07
0.000814276
-1.39202e-07
0.000815389
-1.68076e-09
0.000816315
1.38959e-07
0.000817052
2.82427e-07
0.000817598
4.28513e-07
0.000817951
5.77075e-07
0.00081811
7.28041e-07
0.000818073
8.81404e-07
0.00081784
1.03721e-06
0.000817409
1.19557e-06
0.000816778
-9.2401e-06
0.000815947
-9.59168e-06
0.00082469
-9.90005e-06
0.00083376
-1.01643e-05
0.000843115
-1.03835e-05
0.00085271
-1.0557e-05
0.0008625
-1.06839e-05
0.000872441
-1.07635e-05
0.000882485
-1.07953e-05
0.000892587
-1.07788e-05
0.000902698
-1.07137e-05
0.000912771
-1.05998e-05
0.000922759
-1.0437e-05
0.000932612
-1.02255e-05
0.000942283
-9.96566e-06
0.000951725
-9.65808e-06
0.000960889
-9.30358e-06
0.000969729
-8.90327e-06
0.0009782
-8.45853e-06
0.000986256
-7.97103e-06
0.000993855
-7.44276e-06
0.00100095
-6.87604e-06
0.00100752
-6.27353e-06
0.0010135
-5.63822e-06
0.00101888
-4.97347e-06
0.00102361
-4.283e-06
0.00102768
-3.57085e-06
0.00103105
-2.84146e-06
0.00103371
-2.09958e-06
0.00103564
-1.35029e-06
0.00103683
-5.99008e-07
0.00103728
1.48675e-07
0.00103698
8.86706e-07
0.00103594
1.60894e-06
0.00103417
2.30864e-06
0.00103169
2.97991e-06
0.00102852
3.61518e-06
0.00102469
4.20929e-06
0.00102024
4.7528e-06
0.00101522
5.24277e-06
0.00100967
5.66783e-06
0.00100366
6.02603e-06
0.000997245
6.30706e-06
0.000990503
6.49961e-06
0.000983544
6.61579e-06
0.000976361
6.6528e-06
0.000968916
6.64699e-06
0.000960737
6.5246e-06
0.000948163
6.73584e-06
0.000915471
9.85128e-06
0.000819955
2.02563e-05
0.000711373
3.52665e-05
0.000666747
4.40875e-05
0.000627302
4.38702e-05
0.000583115
3.76278e-05
0.000539685
3.17468e-05
0.000501001
2.71095e-05
0.000467216
2.42146e-05
0.000438479
2.21492e-05
0.000413618
2.12219e-05
0.000391775
2.15599e-05
0.000371176
2.2399e-05
0.000350333
2.25919e-05
0.000327755
2.19604e-05
0.000303976
2.13705e-05
0.000280848
2.19083e-05
0.00025833
2.28291e-05
0.000235205
2.48766e-05
0.000210889
2.68326e-05
0.000185045
2.93592e-05
0.000158227
2.94029e-05
0.000129108
3.12392e-05
9.92715e-05
3.04636e-05
6.78429e-05
3.68476e-05
3.65962e-05
5.11203e-06
4.19073e-06
0.000754435
3.30116e-06
0.00075573
2.44751e-06
0.000757426
1.63381e-06
0.00075951
8.63806e-07
0.000761963
1.40861e-07
0.000764765
-5.32086e-07
0.000767892
-1.15259e-06
0.000771318
-1.71876e-06
0.000775016
-2.22922e-06
0.000778956
-2.6832e-06
0.000783108
-3.08049e-06
0.00078744
-3.42139e-06
0.000791922
-3.70676e-06
0.00079652
-3.93789e-06
0.000801204
-4.11651e-06
0.000805943
-4.24472e-06
0.000810708
-4.32493e-06
0.000815468
-4.35978e-06
0.000820197
-4.35211e-06
0.00082487
-4.30488e-06
0.000829463
-4.22114e-06
0.000833953
-4.10392e-06
0.00083832
-3.95627e-06
0.000842545
-3.78114e-06
0.000846613
-3.58139e-06
0.000850509
-3.35973e-06
0.000854219
-3.11873e-06
0.000857733
-2.86077e-06
0.00086104
-2.58804e-06
0.000864134
-2.30254e-06
0.000867006
-2.00604e-06
0.000869651
-1.70014e-06
0.000872066
-1.38619e-06
0.000874246
-1.06539e-06
0.00087619
-7.38695e-07
0.000877894
-4.06907e-07
0.000879358
-7.0635e-08
0.000880581
2.69676e-07
0.000881562
6.13741e-07
0.000882301
9.61423e-07
0.000882799
1.31272e-06
0.000883054
1.66777e-06
0.000883067
2.02681e-06
0.000882838
-1.7983e-05
0.000882367
-1.8662e-05
0.000890605
-1.92547e-05
0.000899147
-1.97592e-05
0.000907948
-2.0174e-05
0.000916966
-2.04975e-05
0.000926156
-2.07282e-05
0.000935472
-2.08648e-05
0.000944869
-2.09063e-05
0.0009543
-2.08518e-05
0.000963719
-2.07008e-05
0.000973078
-2.04527e-05
0.000982331
-2.01078e-05
0.000991429
-1.96663e-05
0.00100033
-1.91291e-05
0.00100897
-1.84974e-05
0.00101733
-1.7773e-05
0.00102534
-1.6958e-05
0.00103297
-1.60553e-05
0.00104017
-1.50684e-05
0.0010469
-1.40011e-05
0.00105312
-1.28581e-05
0.00105879
-1.16449e-05
0.00106387
-1.03674e-05
0.00106834
-9.03235e-06
0.00107216
-7.64714e-06
0.0010753
-6.21991e-06
0.00107775
-4.75947e-06
0.00107948
-3.27526e-06
0.00108047
-1.77747e-06
0.00108073
-2.76784e-07
0.00108025
1.21536e-06
0.00107902
2.68716e-06
0.00107705
4.12648e-06
0.00107436
5.52018e-06
0.00107096
6.8561e-06
0.00106688
8.11949e-06
0.00106215
9.29906e-06
0.00105681
1.03777e-05
0.0010509
1.13478e-05
0.00104447
1.21893e-05
0.00103759
1.28954e-05
0.00103031
1.34454e-05
0.00102272
1.38266e-05
0.00101492
1.40505e-05
0.00100689
1.41649e-05
0.000998569
1.43404e-05
0.000989361
1.47311e-05
0.000975129
1.75094e-05
0.000938046
2.6696e-05
0.000834938
4.83391e-05
0.000721748
7.27234e-05
0.000670914
8.51372e-05
0.000631065
8.56933e-05
0.000588202
7.48718e-05
0.000544986
6.35629e-05
0.000505965
5.46753e-05
0.000472296
4.92311e-05
0.000443511
4.51793e-05
0.000418093
4.34111e-05
0.000395365
4.32706e-05
0.000373689
4.42825e-05
0.000351273
4.51215e-05
0.000326455
4.5022e-05
0.000301338
4.45096e-05
0.000277998
4.52928e-05
0.000255854
4.70861e-05
0.000233449
5.05647e-05
0.000210108
5.40091e-05
0.000184729
5.76461e-05
0.000156003
5.78099e-05
0.00012583
6.20397e-05
9.65391e-05
6.12869e-05
6.62159e-05
7.29565e-05
3.54254e-05
4.23053e-06
2.89594e-06
0.000760308
1.6045e-06
0.000763821
3.63709e-07
0.000767708
-8.19269e-07
0.000771957
-1.93779e-06
0.000776551
-2.98585e-06
0.000781471
-3.95817e-06
0.000786692
-4.85036e-06
0.000792189
-5.6589e-06
0.000797933
-6.38124e-06
0.000803893
-7.01579e-06
0.000810036
-7.56192e-06
0.00081633
-8.01992e-06
0.000822741
-8.39094e-06
0.000829233
-8.67693e-06
0.000835774
-8.88057e-06
0.00084233
-9.00514e-06
0.000848869
-9.05446e-06
0.00085536
-9.03276e-06
0.000861774
-8.9446e-06
0.000868082
-8.79475e-06
0.00087426
-8.58811e-06
0.000880283
-8.32963e-06
0.00088613
-8.02421e-06
0.000891781
-7.67665e-06
0.00089722
-7.29157e-06
0.00090243
-6.87338e-06
0.000907399
-6.42625e-06
0.000912115
-5.95404e-06
0.000916569
-5.46029e-06
0.000920753
-4.94823e-06
0.00092466
-4.42076e-06
0.000928285
-3.88041e-06
0.000931625
-3.32941e-06
0.000934678
-2.76963e-06
0.00093744
-2.20265e-06
0.000939912
-1.62973e-06
0.000942094
-1.05182e-06
0.000943985
-4.69642e-07
0.000945586
1.16386e-07
0.000946898
7.06063e-07
0.000947922
1.29942e-06
0.000948659
1.89669e-06
0.000949111
2.4983e-06
0.000949279
-2.62213e-05
0.000949162
-2.72035e-05
0.000956889
-2.80562e-05
0.000964895
-2.8777e-05
0.000973136
-2.93635e-05
0.00098157
-2.98135e-05
0.000990152
-3.01249e-05
0.000998836
-3.02959e-05
0.00100758
-3.0325e-05
0.00101633
-3.02109e-05
0.00102505
-2.9953e-05
0.00103369
-2.95508e-05
0.0010422
-2.90044e-05
0.00105054
-2.83145e-05
0.00105865
-2.74824e-05
0.0010665
-2.65101e-05
0.00107404
-2.54003e-05
0.00108122
-2.41563e-05
0.001088
-2.27825e-05
0.00109434
-2.1284e-05
0.00110019
-1.96669e-05
0.00110552
-1.79383e-05
0.00111029
-1.61061e-05
0.00111447
-1.41795e-05
0.00111801
-1.21684e-05
0.00112091
-1.00842e-05
0.00112312
-7.93878e-06
0.00112464
-5.74549e-06
0.00112543
-3.51845e-06
0.00112549
-1.27286e-06
0.00112481
9.75282e-07
0.00112338
3.20904e-06
0.00112122
5.41081e-06
0.00111832
7.56228e-06
0.0011147
9.64411e-06
0.00111037
1.16379e-05
0.00110537
1.35216e-05
0.00109973
1.52792e-05
0.00109349
1.68848e-05
0.00108668
1.83261e-05
0.00107937
1.95741e-05
0.0010716
2.06173e-05
0.00106345
2.14275e-05
0.00105499
2.19982e-05
0.00104635
2.23297e-05
0.00103748
2.25804e-05
0.0010283
2.30363e-05
0.00101816
2.46899e-05
0.00100247
3.16975e-05
0.000962543
4.83502e-05
0.000856609
8.09602e-05
0.000747514
0.000111611
0.0006926
0.000126873
0.000650078
0.000127033
0.000606456
0.00011198
0.000562097
9.62678e-05
0.000520136
8.3888e-05
0.000484274
7.53078e-05
0.000453972
6.913e-05
0.000426764
6.58435e-05
0.00040208
6.48213e-05
0.000378408
6.59447e-05
0.000353666
6.74139e-05
0.00032624
6.83946e-05
0.000299684
6.86817e-05
0.000275692
7.00354e-05
0.00025348
7.26206e-05
0.000231436
7.6883e-05
0.000208566
8.08871e-05
0.000182435
8.47713e-05
0.000151421
8.56712e-05
0.000121638
9.20467e-05
9.36201e-05
9.23717e-05
6.45758e-05
0.000107993
3.44737e-05
1.10116e-06
-6.16603e-07
0.000767362
-2.2826e-06
0.000773056
-3.88528e-06
0.000779098
-5.41361e-06
0.000785478
-6.85736e-06
0.00079218
-8.20725e-06
0.000799185
-9.45512e-06
0.000806469
-1.05941e-05
0.000814006
-1.16187e-05
0.000821766
-1.25248e-05
0.000829715
-1.33097e-05
0.000837821
-1.39723e-05
0.000846048
-1.45125e-05
0.000854359
-1.49319e-05
0.000862719
-1.5233e-05
0.00087109
-1.54195e-05
0.000879437
-1.54961e-05
0.000887725
-1.54679e-05
0.000895922
-1.53411e-05
0.000903995
-1.51222e-05
0.000911915
-1.48178e-05
0.000919655
-1.44351e-05
0.000927189
-1.39811e-05
0.000934495
-1.34628e-05
0.000941552
-1.28871e-05
0.000948341
-1.22606e-05
0.000954847
-1.15896e-05
0.000961056
-1.08801e-05
0.000966958
-1.01377e-05
0.000972541
-9.36732e-06
0.000977799
-8.5737e-06
0.000982725
-7.76094e-06
0.000987316
-6.93267e-06
0.000991568
-6.09205e-06
0.000995479
-5.24175e-06
0.000999049
-4.38399e-06
0.00100228
-3.52056e-06
0.00100517
-2.6528e-06
0.00100771
-1.78169e-06
0.00100993
-9.07823e-07
0.0010118
-3.14364e-08
0.00101334
8.47543e-07
0.00101456
1.72948e-06
0.00101544
2.61503e-06
0.001016
-3.39483e-05
0.00101623
-3.52092e-05
0.00102344
-3.62977e-05
0.0010309
-3.72107e-05
0.00103858
-3.79451e-05
0.00104642
-3.8498e-05
0.00105439
-3.8867e-05
0.00106244
-3.90496e-05
0.00107052
-3.90442e-05
0.00107859
-3.88491e-05
0.0010866
-3.84635e-05
0.00109452
-3.78869e-05
0.00110228
-3.71198e-05
0.00110985
-3.61631e-05
0.00111718
-3.50187e-05
0.00112422
-3.36893e-05
0.00113094
-3.21786e-05
0.00113728
-3.04913e-05
0.0011432
-2.86332e-05
0.00114867
-2.66112e-05
0.00115364
-2.44335e-05
0.00115808
-2.21096e-05
0.00116194
-1.96503e-05
0.0011652
-1.70676e-05
0.00116783
-1.43749e-05
0.0011698
-1.15871e-05
0.00117108
-8.72049e-06
0.00117165
-5.7925e-06
0.0011715
-2.822e-06
0.00117062
1.70844e-07
0.00116899
3.16482e-06
0.00116662
6.13735e-06
0.00116351
9.06519e-06
0.00115967
1.19239e-05
0.00115512
1.46881e-05
0.00114986
1.73334e-05
0.00114394
1.98308e-05
0.00113738
2.21584e-05
0.00113022
2.42828e-05
0.00112251
2.61867e-05
0.0011143
2.78305e-05
0.00110565
2.92018e-05
0.00109661
3.02652e-05
0.00108728
3.10101e-05
0.0010778
3.14382e-05
0.00106808
3.17463e-05
0.00105798
3.21694e-05
0.00104672
3.39213e-05
0.00102905
4.3819e-05
0.000983874
6.69929e-05
0.000870648
0.000115206
0.00076112
0.0001533
0.000703802
0.000170231
0.0006609
0.000168972
0.000618556
0.000151582
0.000574666
0.000131866
0.000532291
0.000115687
0.0004953
0.000103442
0.000463169
9.48122e-05
0.000434017
8.95967e-05
0.000407101
8.75222e-05
0.000381363
8.83381e-05
0.000354631
9.04765e-05
0.000325848
9.24282e-05
0.000299126
9.35079e-05
0.000274898
9.59716e-05
0.000252465
9.90277e-05
0.000230023
0.000103599
0.0002062
0.000106957
0.000177997
0.00011146
0.000146265
0.00011326
0.000117564
0.000121117
9.12981e-05
0.000123232
6.34778e-05
0.000141312
3.33062e-05
-4.23855e-06
-6.31051e-06
0.0007756
-8.32484e-06
0.000783435
-1.02651e-05
0.000791593
-1.21158e-05
0.000800066
-1.38623e-05
0.000808839
-1.54915e-05
0.000817893
-1.69919e-05
0.000827205
-1.83535e-05
0.000836747
-1.95684e-05
0.000846488
-2.06308e-05
0.000856394
-2.15365e-05
0.00086643
-2.22836e-05
0.000876558
-2.28719e-05
0.000886739
-2.33029e-05
0.000896934
-2.35801e-05
0.000907106
-2.3708e-05
0.000917214
-2.36927e-05
0.000927224
-2.35412e-05
0.000937098
-2.32614e-05
0.000946804
-2.2862e-05
0.00095631
-2.2352e-05
0.000965586
-2.17408e-05
0.000974606
-2.10377e-05
0.000983347
-2.02521e-05
0.000991785
-1.93932e-05
0.000999903
-1.847e-05
0.00100768
-1.74907e-05
0.00101511
-1.64634e-05
0.00102218
-1.53955e-05
0.00102887
-1.42938e-05
0.00103519
-1.31644e-05
0.00104111
-1.20128e-05
0.00104665
-1.08439e-05
0.0010518
-9.66187e-06
0.00105656
-8.47023e-06
0.00106092
-7.27194e-06
0.00106489
-6.06934e-06
0.00106848
-4.86422e-06
0.00107167
-3.65782e-06
0.00107448
-2.45089e-06
0.00107691
-1.24374e-06
0.00107897
-3.62125e-08
0.00108065
1.17222e-06
0.00108195
2.38247e-06
0.00108289
-4.11583e-05
0.00108347
-4.26733e-05
0.00109016
-4.39732e-05
0.00109708
-4.50542e-05
0.00110418
-4.59125e-05
0.00111143
-4.65449e-05
0.00111878
-4.69483e-05
0.00112618
-4.71201e-05
0.0011336
-4.70579e-05
0.00114098
-4.67603e-05
0.00114828
-4.62262e-05
0.00115546
-4.54554e-05
0.00116247
-4.44483e-05
0.00116927
-4.32065e-05
0.00117581
-4.17323e-05
0.00118204
-4.00294e-05
0.00118793
-3.81025e-05
0.00119343
-3.59576e-05
0.00119849
-3.3602e-05
0.00120309
-3.10445e-05
0.00120717
-2.82955e-05
0.00121071
-2.53669e-05
0.00121367
-2.22721e-05
0.00121601
-1.90262e-05
0.00121771
-1.56462e-05
0.00121874
-1.21505e-05
0.00121909
-8.55939e-06
0.00121871
-4.89477e-06
0.00121762
-1.18005e-06
0.00121579
2.55959e-06
0.00121321
6.29779e-06
0.00120989
1.00065e-05
0.00120584
1.36566e-05
0.00120105
1.72181e-05
0.00119556
2.06592e-05
0.00118936
2.39495e-05
0.00118251
2.70538e-05
0.00117502
2.99433e-05
0.00116695
3.25794e-05
0.00115833
3.49375e-05
0.00114922
3.69688e-05
0.00113967
3.86576e-05
0.00112975
3.99686e-05
0.00111956
4.08774e-05
0.00110922
4.141e-05
0.00109863
4.17683e-05
0.00108759
4.24249e-05
0.0010755
4.37842e-05
0.00105925
5.85701e-05
0.000999445
8.98501e-05
0.000878783
0.000149959
0.000769327
0.000192553
0.000711745
0.000211615
0.000666683
0.000210502
0.000623197
0.000191793
0.000578803
0.000168696
0.000535846
0.000149584
0.000497669
0.000134248
0.00046446
0.000123328
0.000434825
0.000116059
0.000407198
0.000112061
0.000380525
0.000111777
0.000353232
0.000114131
0.000324797
0.000116966
0.000297854
0.000119066
0.00027323
0.000122184
0.000249961
0.000125623
0.000226131
0.000130067
0.000200584
0.00013295
0.000170398
0.00013858
0.000139676
0.000140888
0.000112512
0.00014971
8.78786e-05
0.000153662
6.14379e-05
0.000172741
3.11857e-05
-1.17471e-05
-1.41455e-05
0.000785028
-1.64831e-05
0.00079496
-1.87378e-05
0.000805191
-2.08888e-05
0.000815714
-2.29165e-05
0.000826517
-2.48033e-05
0.000837581
-2.65337e-05
0.000848881
-2.80945e-05
0.000860389
-2.94749e-05
0.000872075
-3.06667e-05
0.000883901
-3.16643e-05
0.000895831
-3.24647e-05
0.000907824
-3.30674e-05
0.00091984
-3.34741e-05
0.000931838
-3.36888e-05
0.000943776
-3.37173e-05
0.000955614
-3.3567e-05
0.000967312
-3.3247e-05
0.000978833
-3.27672e-05
0.000990141
-3.21385e-05
0.0010012
-3.13724e-05
0.00101199
-3.0481e-05
0.00102247
-2.9476e-05
0.00103261
-2.83697e-05
0.00104241
-2.71736e-05
0.00105183
-2.5899e-05
0.00106086
-2.45569e-05
0.00106949
-2.31573e-05
0.00107769
-2.17096e-05
0.00108548
-2.02226e-05
0.00109283
-1.8704e-05
0.00109974
-1.7161e-05
0.00110621
-1.55996e-05
0.00111224
-1.40251e-05
0.00111782
-1.24422e-05
0.00112296
-1.08544e-05
0.00112766
-9.26485e-06
0.00113193
-7.67564e-06
0.00113576
-6.08838e-06
0.00113916
-4.50397e-06
0.00114213
-2.92275e-06
0.00114468
-1.34449e-06
0.00114682
2.31544e-07
0.00114855
1.80654e-06
0.00114986
-4.7846e-05
0.00115078
-4.95907e-05
0.00115694
-5.10775e-05
0.0011633
-5.23023e-05
0.00116983
-5.32608e-05
0.00117648
-5.39491e-05
0.00118321
-5.43639e-05
0.00118996
-5.45021e-05
0.00119671
-5.43613e-05
0.0012034
-5.39398e-05
0.00120999
-5.32365e-05
0.00121643
-5.22514e-05
0.00122269
-5.09852e-05
0.00122871
-4.944e-05
0.00123445
-4.76188e-05
0.00123987
-4.5526e-05
0.00124493
-4.31676e-05
0.00124958
-4.05508e-05
0.00125379
-3.76847e-05
0.0012575
-3.45799e-05
0.0012607
-3.12488e-05
0.00126334
-2.77059e-05
0.00126538
-2.39673e-05
0.00126681
-2.00514e-05
0.00126758
-1.59782e-05
0.00126767
-1.17701e-05
0.00126707
-7.4513e-06
0.00126576
-3.04801e-06
0.00126371
1.41173e-06
0.00126093
5.89782e-06
0.0012574
1.03787e-05
0.00125313
1.4821e-05
0.00124812
1.919e-05
0.00124239
2.34497e-05
0.00123595
2.75625e-05
0.00122882
3.14913e-05
0.00122103
3.5196e-05
0.00121262
3.86396e-05
0.00120362
4.17796e-05
0.00119408
4.45839e-05
0.00118407
4.69978e-05
0.00117362
4.90043e-05
0.00116282
5.05497e-05
0.00115179
5.16014e-05
0.00114059
5.2287e-05
0.00112909
5.29252e-05
0.00111726
5.55749e-05
0.00110492
5.78184e-05
0.00108875
7.66157e-05
0.00102428
0.000121795
0.000883748
0.000188376
0.000783387
0.000232676
0.00072881
0.000253275
0.000681799
0.000252123
0.000636547
0.00023216
0.000590491
0.000205971
0.000545548
0.000184108
0.000504549
0.000165609
0.000468892
0.000152275
0.00043737
0.000143682
0.00040757
0.000137779
0.000378436
0.000136717
0.000350377
0.000138902
0.000322735
0.000142449
0.000295474
0.000144984
0.000269854
0.000148311
0.000245127
0.000151546
0.000219877
0.000156088
0.000192807
0.000159385
0.000162355
0.000166025
0.000133691
0.000169566
0.000108134
0.000177811
8.39957e-05
0.000182311
5.81479e-05
0.000201086
2.87166e-05
-2.13788e-05
-2.40774e-05
0.000795653
-2.67144e-05
0.000807633
-2.92614e-05
0.00081989
-3.16915e-05
0.000832419
-3.39798e-05
0.000845207
-3.61035e-05
0.000858235
-3.80425e-05
0.000871481
-3.97797e-05
0.000884914
-4.13012e-05
0.000898502
-4.25963e-05
0.000912208
-4.36576e-05
0.000925991
-4.44808e-05
0.000939811
-4.5065e-05
0.000953624
-4.54121e-05
0.000967386
-4.55266e-05
0.000981054
-4.54156e-05
0.000994585
-4.50881e-05
0.00100794
-4.45551e-05
0.00102107
-4.38289e-05
0.00103395
-4.29229e-05
0.00104653
-4.18513e-05
0.00105879
-4.06288e-05
0.0010707
-3.92703e-05
0.00108223
-3.77905e-05
0.00109335
-3.6204e-05
0.00110404
-3.45247e-05
0.0011143
-3.2766e-05
0.00112409
-3.09405e-05
0.00113342
-2.90597e-05
0.00114227
-2.71345e-05
0.00115063
-2.51744e-05
0.00115851
-2.31882e-05
0.00116589
-2.11834e-05
0.00117278
-1.91666e-05
0.00117917
-1.71433e-05
0.00118507
-1.51181e-05
0.00119049
-1.30946e-05
0.00119542
-1.10756e-05
0.00119987
-9.06274e-06
0.00120384
-7.05729e-06
0.00120735
-5.05956e-06
0.00121039
-3.06921e-06
0.00121298
-1.0853e-06
0.00121511
8.93691e-07
0.0012168
-5.40074e-05
0.00121804
-5.5957e-05
0.00122367
-5.76064e-05
0.00122948
-5.89508e-05
0.00123543
-5.99856e-05
0.00124148
-6.07064e-05
0.00124758
-6.11096e-05
0.00125368
-6.11918e-05
0.00125976
-6.09504e-05
0.00126575
-6.03837e-05
0.00127162
-5.94907e-05
0.00127733
-5.82714e-05
0.00128283
-5.67272e-05
0.00128807
-5.48604e-05
0.00129301
-5.26749e-05
0.00129762
-5.01761e-05
0.00130184
-4.7371e-05
0.00130565
-4.42683e-05
0.00130899
-4.08786e-05
0.00131183
-3.72145e-05
0.00131414
-3.32907e-05
0.00131587
-2.9124e-05
0.00131701
-2.47335e-05
0.00131751
-2.01404e-05
0.00131735
-1.53683e-05
0.00131651
-1.04433e-05
0.00131496
-5.39346e-06
0.0013127
-2.49415e-07
0.0013097
4.95623e-06
0.00130597
1.01885e-05
0.00130149
1.54108e-05
0.00129626
2.05842e-05
0.0012903
2.56686e-05
0.00128362
3.0622e-05
0.00127623
3.54015e-05
0.00126816
3.99629e-05
0.00125943
4.42612e-05
0.00125009
4.82522e-05
0.00124017
5.18877e-05
0.00122972
5.51307e-05
0.00121879
5.79203e-05
0.00120746
6.02346e-05
0.00119576
6.19989e-05
0.00118385
6.32053e-05
0.00117172
6.40544e-05
0.00115935
6.49947e-05
0.00114668
6.86123e-05
0.001133
7.94347e-05
0.0011127
9.46028e-05
0.00104853
0.000150896
0.000896796
0.00022801
0.000796579
0.000276343
0.000742682
0.000297847
0.000697094
0.000295555
0.000651953
0.000273929
0.000604675
0.000244733
0.000557822
0.000219468
0.000514021
0.000198307
0.000475195
0.000182748
0.000440591
0.00017285
0.000407928
0.000166389
0.000375872
0.000164155
0.00034614
0.000165632
0.000319549
0.000168695
0.000293092
0.000170818
0.00026627
0.000173665
0.000239915
0.000176723
0.000213314
0.00018182
0.000184907
0.000186108
0.000155421
0.000194008
0.000128979
0.000198183
0.000104281
0.000205322
7.94608e-05
0.00020892
5.37716e-05
0.000227163
2.62483e-05
-3.30838e-05
-3.60577e-05
0.000807485
-3.89715e-05
0.000821461
-4.17898e-05
0.000835692
-4.44792e-05
0.000850176
-4.70084e-05
0.000864899
-4.9349e-05
0.000879845
-5.14759e-05
0.000894989
-5.33677e-05
0.000910301
-5.50069e-05
0.000925746
-5.63799e-05
0.000941287
-5.74773e-05
0.000956881
-5.82936e-05
0.000972484
-5.88272e-05
0.000988052
-5.90801e-05
0.00100354
-5.90575e-05
0.00101889
-5.87677e-05
0.00103408
-5.82215e-05
0.00104905
-5.7432e-05
0.00106375
-5.6414e-05
0.00107816
-5.51836e-05
0.00109224
-5.37579e-05
0.00110594
-5.21546e-05
0.00111924
-5.03917e-05
0.00113211
-4.8487e-05
0.00114453
-4.64579e-05
0.00115647
-4.43214e-05
0.00116792
-4.20936e-05
0.00117886
-3.97897e-05
0.00118928
-3.74236e-05
0.00119916
-3.50083e-05
0.00120852
-3.25554e-05
0.00121733
-3.00755e-05
0.0012256
-2.75775e-05
0.00123333
-2.50694e-05
0.00124051
-2.25579e-05
0.00124716
-2.00483e-05
0.00125327
-1.75451e-05
0.00125885
-1.50513e-05
0.0012639
-1.25692e-05
0.00126844
-1.01002e-05
0.00127247
-7.64442e-06
0.00127599
-5.20158e-06
0.00127901
-2.77042e-06
0.00128154
-3.49073e-07
0.00128359
-5.96389e-05
0.00128515
-6.17689e-05
0.00129025
-6.35565e-05
0.00129551
-6.49965e-05
0.00130087
-6.60838e-05
0.00130631
-6.68138e-05
0.00131178
-6.71824e-05
0.00131724
-6.71862e-05
0.00132264
-6.68225e-05
0.00132794
-6.60894e-05
0.00133309
-6.49862e-05
0.00133806
-6.35132e-05
0.00134279
-6.1672e-05
0.00134725
-5.94657e-05
0.0013514
-5.68989e-05
0.00135519
-5.39779e-05
0.00135858
-5.07109e-05
0.00136154
-4.71082e-05
0.00136402
-4.31821e-05
0.00136598
-3.8947e-05
0.0013674
-3.44198e-05
0.00136823
-2.96199e-05
0.00136845
-2.45692e-05
0.00136803
-1.9292e-05
0.00136694
-1.38153e-05
0.00136516
-8.16874e-06
0.00136267
-2.3846e-06
0.00135946
3.50233e-06
0.00135552
9.45482e-06
0.00135083
1.54331e-05
0.00134539
2.13955e-05
0.00133922
2.72977e-05
0.00133231
3.30942e-05
0.00132467
3.87372e-05
0.00131634
4.4178e-05
0.00130732
4.93666e-05
0.00129766
5.42517e-05
0.00128738
5.87835e-05
0.00127654
6.2908e-05
0.00126517
6.65799e-05
0.00125333
6.9742e-05
0.00124111
7.2341e-05
0.00122852
7.43305e-05
0.00121571
7.56866e-05
0.00120267
7.66924e-05
0.00118936
7.78579e-05
0.00117568
8.25104e-05
0.00116023
9.65324e-05
0.0011344
0.000118544
0.00105336
0.000177834
0.000896427
0.000267839
0.000801359
0.000320227
0.000746002
0.000343062
0.000700588
0.000339921
0.000656101
0.000316747
0.000609148
0.000285227
0.000562202
0.000256477
0.00051742
0.000232805
0.000477028
0.000215162
0.000440719
0.000203449
0.000406797
0.000196236
0.000373485
0.000193395
0.000342473
0.000193835
0.000315312
0.000195646
0.000289095
0.000196872
0.00026212
0.000199052
0.000234423
0.000201888
0.000206227
0.000207933
0.000177926
0.000212917
0.000150233
0.000221388
0.0001249
0.000225442
0.000100008
0.000231436
7.4551e-05
0.000234657
4.92945e-05
0.000252749
2.4125e-05
-4.68079e-05
-5.00336e-05
0.000820535
-5.3203e-05
0.000836449
-5.6273e-05
0.000852599
-5.92028e-05
0.000868983
-6.19543e-05
0.000885589
-6.44928e-05
0.0009024
-6.67879e-05
0.000919391
-6.88132e-05
0.000936531
-7.05474e-05
0.000953785
-7.19738e-05
0.000971112
-7.30807e-05
0.000988469
-7.38611e-05
0.00100581
-7.43128e-05
0.00102309
-7.44377e-05
0.00104025
-7.42418e-05
0.00105725
-7.37349e-05
0.00107405
-7.29294e-05
0.00109059
-7.18409e-05
0.00110683
-7.04866e-05
0.00112273
-6.88857e-05
0.00113825
-6.70584e-05
0.00115336
-6.50257e-05
0.00116801
-6.28087e-05
0.00118219
-6.04286e-05
0.00119587
-5.7906e-05
0.00120903
-5.52611e-05
0.00122164
-5.25128e-05
0.00123369
-4.96791e-05
0.00124517
-4.67767e-05
0.00125607
-4.38207e-05
0.00126639
-4.0825e-05
0.00127611
-3.7802e-05
0.00128525
-3.47622e-05
0.00129379
-3.17152e-05
0.00130174
-2.86686e-05
0.00130911
-2.56289e-05
0.0013159
-2.26011e-05
0.00132211
-1.9589e-05
0.00132776
-1.65951e-05
0.00133284
-1.36209e-05
0.00133737
-1.06667e-05
0.00134136
-7.73199e-06
0.00134481
-4.81523e-06
0.00134773
-1.91415e-06
0.00135012
-6.47381e-05
0.001352
-6.70239e-05
0.00135657
-6.89254e-05
0.00136126
-7.0437e-05
0.00136605
-7.15531e-05
0.00137088
-7.22691e-05
0.00137572
-7.25804e-05
0.00138052
-7.24836e-05
0.00138525
-7.19759e-05
0.00138985
-7.10555e-05
0.00139428
-6.97219e-05
0.00139851
-6.79755e-05
0.00140248
-6.58187e-05
0.00140617
-6.3255e-05
0.00140952
-6.02899e-05
0.00141249
-5.69308e-05
0.00141505
-5.31871e-05
0.00141716
-4.90705e-05
0.00141877
-4.4595e-05
0.00141986
-3.97772e-05
0.00142039
-3.46362e-05
0.00142032
-2.91938e-05
0.00141963
-2.34747e-05
0.00141829
-1.75064e-05
0.00141627
-1.13193e-05
0.00141356
-4.94674e-06
0.00141013
1.57508e-06
0.00140597
8.20705e-06
0.00140108
1.49074e-05
0.00139544
2.16316e-05
0.00138905
2.83328e-05
0.00138192
3.49618e-05
0.00137406
4.1467e-05
0.00136548
4.77957e-05
0.0013562
5.38928e-05
0.00134624
5.97029e-05
0.00133564
6.51688e-05
0.00132444
7.02339e-05
0.00131267
7.48398e-05
0.00130038
7.89292e-05
0.00128763
8.24566e-05
0.00127449
8.53329e-05
0.00126102
8.75436e-05
0.00124731
8.90678e-05
0.00123337
9.02386e-05
0.00121914
9.15845e-05
0.00120429
9.64819e-05
0.00118613
0.000111217
0.00114997
0.000146259
0.00103883
0.000220915
0.000878018
0.000312048
0.000796263
0.000364169
0.000743084
0.000388116
0.000697546
0.000385252
0.000653934
0.000360807
0.000609233
0.000327019
0.00056368
0.000294654
0.000518921
0.000268317
0.00047796
0.000248318
0.000440459
0.000235093
0.000405241
0.000226616
0.000370499
0.000222653
0.000337808
0.00022192
0.000309785
0.000223115
0.000283223
0.000223805
0.000255878
0.000225421
0.000226838
0.000227899
0.000198423
0.000234212
0.000171561
0.000239523
0.000145586
0.000247582
0.000120339
0.000250301
9.49746e-05
0.000255937
6.95056e-05
0.000259773
4.55278e-05
0.000277788
2.2246e-05
-6.24921e-05
-6.59478e-05
0.000834816
-6.93531e-05
0.000852607
-7.26565e-05
0.000870615
-7.58091e-05
0.00088884
-7.87653e-05
0.000907271
-8.14839e-05
0.000925891
-8.39282e-05
0.000944674
-8.60669e-05
0.000963588
-8.78744e-05
0.000982597
-8.93305e-05
0.00100166
-9.0421e-05
0.00102073
-9.11374e-05
0.00103975
-9.14766e-05
0.00105869
-9.14407e-05
0.00107748
-9.10365e-05
0.00109608
-9.02749e-05
0.00111444
-8.91707e-05
0.00113251
-8.77415e-05
0.00115024
-8.60076e-05
0.00116758
-8.39913e-05
0.00118451
-8.17161e-05
0.00120098
-7.92063e-05
0.00121695
-7.64868e-05
0.0012324
-7.35821e-05
0.00124731
-7.05164e-05
0.00126164
-6.7313e-05
0.00127537
-6.39942e-05
0.0012885
-6.05808e-05
0.00130102
-5.70923e-05
0.0013129
-5.35464e-05
0.00132415
-4.99592e-05
0.00133476
-4.63449e-05
0.00134473
-4.27162e-05
0.00135407
-3.90837e-05
0.00136277
-3.54566e-05
0.00137084
-3.18422e-05
0.00137828
-2.82464e-05
0.00138511
-2.46735e-05
0.00139133
-2.11264e-05
0.00139694
-1.76068e-05
0.00140196
-1.41149e-05
0.0014064
-1.065e-05
0.00141026
-7.21043e-06
0.00141356
-3.79334e-06
0.00141629
-6.93033e-05
0.00141848
-7.17204e-05
0.00142251
-7.37117e-05
0.00142664
-7.52709e-05
0.00143085
-7.63925e-05
0.00143507
-7.70713e-05
0.00143928
-7.73028e-05
0.00144343
-7.70834e-05
0.00144748
-7.64102e-05
0.00145138
-7.52818e-05
0.0014551
-7.36975e-05
0.00145859
-7.16586e-05
0.0014618
-6.91675e-05
0.00146471
-6.62288e-05
0.00146726
-6.28487e-05
0.00146942
-5.90356e-05
0.00147115
-5.48004e-05
0.00147241
-5.01562e-05
0.00147317
-4.51188e-05
0.00147338
-3.97067e-05
0.00147302
-3.39414e-05
0.00147206
-2.78472e-05
0.00147046
-2.14516e-05
0.0014682
-1.47853e-05
0.00146526
-7.88212e-06
0.00146161
-7.78998e-07
0.00145725
6.48383e-06
0.00145215
1.38631e-05
0.0014463
2.13123e-05
0.00143972
2.87824e-05
0.00143238
3.62214e-05
0.00142431
4.35748e-05
0.0014155
5.07858e-05
0.00140597
5.77961e-05
0.00139575
6.45448e-05
0.00138485
7.09709e-05
0.00137332
7.70113e-05
0.00136118
8.26034e-05
0.00134849
8.76828e-05
0.00133529
9.21838e-05
0.00132163
9.60533e-05
0.00130757
9.92108e-05
0.0012932
0.000101642
0.00127861
0.000103341
0.00126379
0.000104697
0.0012486
0.00010627
0.0012323
0.000111858
0.0012101
0.000129866
0.00116017
0.000175566
0.00102448
0.000272912
0.000867381
0.00035996
0.000789225
0.000408574
0.000737056
0.000432438