/*--------------------------------*- C++ -*----------------------------------*\
| =========                 |                                                 |
| \\      /  F ield         | OpenFOAM: The Open Source CFD Toolbox           |
|  \\    /   O peration     | Version:  2.2.x                                 |
|   \\  /    A nd           | Web:      www.OpenFOAM.org                      |
|    \\/     M anipulation  |                                                 |
\*---------------------------------------------------------------------------*/
FoamFile
{
    version     2.0;
    format      ascii;
    class       volScalarField;
    location    "0.15";
    object      pB;
}
// * * * * * * * * * * * * * * * * * * * * * * * * * * * * * * * * * * * * * //

dimensions      [1 1 -3 0 0 -1 0];

internalField   nonuniform List<scalar> 
14161
(
-1.23939e-15
1.01834e-16
-5.58943e-16
-1.28863e-15
-4.61216e-15
-1.47789e-14
-4.67596e-14
-1.45802e-13
-4.3889e-13
-1.27058e-12
-3.52026e-12
-9.32666e-12
-2.36221e-11
-5.71871e-11
-1.32401e-10
-2.93506e-10
-6.23988e-10
-1.27463e-09
-2.50756e-09
-4.76272e-09
-8.75562e-09
-1.56174e-08
-2.709e-08
-4.57779e-08
-7.55042e-08
-1.21646e-07
-1.91668e-07
-2.957e-07
-4.46212e-07
-6.60435e-07
-9.58365e-07
-1.35925e-06
-1.90758e-06
-2.58447e-06
-3.52937e-06
-4.56461e-06
-6.11279e-06
-7.56762e-06
-9.92555e-06
-1.18537e-05
-1.51763e-05
-1.76484e-05
-2.19858e-05
-2.51011e-05
-3.03946e-05
-3.44268e-05
-4.0838e-05
-4.69161e-05
-5.44809e-05
-6.36533e-05
-7.25202e-05
-8.59473e-05
-9.64436e-05
-0.000115175
-0.000128144
-0.000153355
-0.000171041
-0.000199659
-0.000231555
-0.000260315
-0.000308183
-0.00034327
-0.000401998
-0.000454315
-0.000520469
-0.000598491
-0.000675979
-0.000783125
-0.000876199
-0.00101201
-0.00113003
-0.00130946
-0.00146565
-0.00169341
-0.00187506
-0.00211664
-0.00231987
-0.00255
-0.00281325
-0.00309221
-0.00358254
-0.00398926
-0.00477688
-0.0047707
-0.00496778
-0.0038903
-0.00363288
-0.00133916
0.000383835
0.0155482
0.00148889
0.0064595
-0.00658496
0.00154326
-0.000533712
0.000274048
0.000876728
0.00114245
0.000948765
0.00120105
0.00168776
0.000742101
0.00102653
0.000736683
0.000787414
0.000542411
0.000487468
-0.000571947
-0.000816796
-0.00221902
-0.00260002
-0.00366805
-0.00335133
-0.0038347
-0.00231436
0.000294943
-0.0172435
0.019866
-0.0752746
-1.51782e-15
-8.3707e-17
-3.07519e-16
-1.30145e-15
-4.78774e-15
-1.47363e-14
-4.6696e-14
-1.46759e-13
-4.40763e-13
-1.27664e-12
-3.53552e-12
-9.35872e-12
-2.36668e-11
-5.72237e-11
-1.32444e-10
-2.93514e-10
-6.23694e-10
-1.27355e-09
-2.50458e-09
-4.75552e-09
-8.74013e-09
-1.55872e-08
-2.70322e-08
-4.56797e-08
-7.53086e-08
-1.21372e-07
-1.91141e-07
-2.94866e-07
-4.45261e-07
-6.58211e-07
-9.56144e-07
-1.35526e-06
-1.89781e-06
-2.58645e-06
-3.50592e-06
-4.60351e-06
-6.05055e-06
-7.64174e-06
-9.79594e-06
-1.19452e-05
-1.50219e-05
-1.77469e-05
-2.18341e-05
-2.52462e-05
-3.02414e-05
-3.45686e-05
-4.07023e-05
-4.6811e-05
-5.44079e-05
-6.32043e-05
-7.266e-05
-8.50708e-05
-9.6596e-05
-0.000114588
-0.000128322
-0.000152334
-0.000171287
-0.000200557
-0.000228286
-0.000262694
-0.000304513
-0.000343299
-0.00040142
-0.000452411
-0.000521629
-0.000599902
-0.000676439
-0.000781964
-0.000874187
-0.00101118
-0.00113138
-0.00130811
-0.0014603
-0.00168126
-0.00187313
-0.00212278
-0.00232738
-0.00260383
-0.00286863
-0.00324697
-0.00368407
-0.0040163
-0.00448407
-0.00448129
-0.00460558
-0.00351132
-0.00368039
-0.00113471
-0.00303608
0.0172486
0.00112711
-0.00179113
-0.00130078
-8.05886e-05
0.00105425
0.00132359
0.00314591
0.00396769
0.00420357
0.00384104
0.00426198
0.00456701
0.0042376
0.00411122
0.00447747
0.00477552
0.00545776
0.00515584
0.00527624
0.00458888
0.00490278
0.00405999
0.00434381
0.00335047
0.00321337
0.00495824
-0.013089
0.0170474
-0.069613
-1.86209e-15
1.78004e-16
-5.56441e-16
-1.17954e-15
-5.28906e-15
-1.44449e-14
-4.65867e-14
-1.44656e-13
-4.38405e-13
-1.26822e-12
-3.51179e-12
-9.29954e-12
-2.35447e-11
-5.69748e-11
-1.31811e-10
-2.91977e-10
-6.20316e-10
-1.2664e-09
-2.48987e-09
-4.72631e-09
-8.68364e-09
-1.54812e-08
-2.68353e-08
-4.53474e-08
-7.47303e-08
-1.20406e-07
-1.89791e-07
-2.92085e-07
-4.42595e-07
-6.51767e-07
-9.49364e-07
-1.3447e-06
-1.88065e-06
-2.5778e-06
-3.45767e-06
-4.59477e-06
-5.93758e-06
-7.65021e-06
-9.59592e-06
-1.20236e-05
-1.46595e-05
-1.78755e-05
-2.13858e-05
-2.52644e-05
-2.97865e-05
-3.44053e-05
-4.04201e-05
-4.62815e-05
-5.46141e-05
-6.21518e-05
-7.31275e-05
-8.3524e-05
-9.72177e-05
-0.000112317
-0.000128607
-0.000150343
-0.000170418
-0.000200085
-0.000225829
-0.00026295
-0.000300267
-0.000342854
-0.000398408
-0.000450538
-0.000518875
-0.000594587
-0.000671462
-0.000776784
-0.000870392
-0.0010085
-0.00112737
-0.00130472
-0.00146017
-0.0016865
-0.00187339
-0.00213361
-0.00235643
-0.00265504
-0.00294848
-0.00336328
-0.00375766
-0.00410096
-0.00449274
-0.0045232
-0.00501608
-0.00411106
-0.0051683
-0.00201146
-0.0056027
0.0311429
-0.00723922
0.00677403
-0.00175248
0.00804001
0.00493922
0.00389053
0.00324164
0.000836146
-0.00141385
-0.00146399
-0.00173792
-0.00183884
-0.000891292
-0.000566113
-0.000564336
-0.00100483
-0.00106636
-0.00155294
-0.00131455
-0.0013043
-0.000462168
-0.000583705
8.97676e-05
-0.000329163
-0.000427559
0.00215043
-0.0147383
0.0151374
-0.0663547
-2.10317e-15
-4.20691e-16
-5.49396e-16
-9.94017e-16
-4.01916e-15
-1.45109e-14
-4.64894e-14
-1.45296e-13
-4.37542e-13
-1.26552e-12
-3.50362e-12
-9.27261e-12
-2.3455e-11
-5.66962e-11
-1.31137e-10
-2.90363e-10
-6.16473e-10
-1.25747e-09
-2.47024e-09
-4.68538e-09
-8.60209e-09
-1.53261e-08
-2.65588e-08
-4.48275e-08
-7.39345e-08
-1.18856e-07
-1.87661e-07
-2.88662e-07
-4.36422e-07
-6.45938e-07
-9.34463e-07
-1.33501e-06
-1.85173e-06
-2.55575e-06
-3.40256e-06
-4.56736e-06
-5.82406e-06
-7.66252e-06
-9.38027e-06
-1.20551e-05
-1.43421e-05
-1.7889e-05
-2.08794e-05
-2.52783e-05
-2.91181e-05
-3.43674e-05
-3.95904e-05
-4.61262e-05
-5.36801e-05
-6.17123e-05
-7.23128e-05
-8.24345e-05
-9.69878e-05
-0.000109626
-0.000129312
-0.00014641
-0.000170039
-0.000196194
-0.000223476
-0.000260969
-0.000293603
-0.000345508
-0.000385765
-0.000451594
-0.000510937
-0.000584249
-0.000671826
-0.000768462
-0.000868409
-0.00100397
-0.00112501
-0.00130105
-0.00145189
-0.00166905
-0.00185799
-0.00213117
-0.00237527
-0.00273911
-0.0030629
-0.00358068
-0.00396609
-0.00440039
-0.0046058
-0.00488002
-0.00528011
-0.00538004
-0.00765558
-0.00636471
-0.014904
0.0462318
-0.013978
0.00603594
-0.00312747
0.00180837
0.00122209
0.000591198
0.00379392
0.00384084
0.00404097
0.00298606
0.00223741
0.00171156
0.00135555
0.00108833
0.000911533
0.000847071
0.000922378
0.000592172
0.000601295
-0.000122502
-0.000621544
-0.0015454
-0.00114143
-0.00112336
-0.00104675
0.000155893
-0.0110825
0.0130596
-0.0626865
-2.41644e-15
4.05747e-16
-5.41836e-16
-9.91847e-16
-4.51819e-15
-1.40311e-14
-4.61671e-14
-1.43921e-13
-4.34178e-13
-1.25491e-12
-3.47187e-12
-9.18486e-12
-2.32256e-11
-5.61433e-11
-1.2971e-10
-2.86961e-10
-6.08804e-10
-1.24108e-09
-2.43638e-09
-4.61751e-09
-8.47136e-09
-1.50781e-08
-2.61152e-08
-4.40442e-08
-7.25672e-08
-1.16873e-07
-1.83571e-07
-2.8442e-07
-4.26022e-07
-6.36573e-07
-9.12704e-07
-1.31451e-06
-1.80862e-06
-2.51428e-06
-3.33231e-06
-4.48517e-06
-5.71807e-06
-7.51963e-06
-9.18393e-06
-1.18571e-05
-1.40053e-05
-1.76517e-05
-2.04263e-05
-2.49631e-05
-2.85507e-05
-3.3939e-05
-3.88467e-05
-4.55217e-05
-5.25919e-05
-6.08168e-05
-7.09535e-05
-8.10632e-05
-9.52822e-05
-0.000107962
-0.000127092
-0.000143846
-0.000167997
-0.000191979
-0.000220874
-0.000255644
-0.000289937
-0.000340286
-0.000379396
-0.000448255
-0.00050095
-0.00058045
-0.000661031
-0.000759084
-0.000856578
-0.000992303
-0.00111325
-0.00129166
-0.00144262
-0.00166682
-0.00185555
-0.00213904
-0.0023879
-0.00279415
-0.0031043
-0.00366525
-0.00397141
-0.00458592
-0.00471492
-0.00548814
-0.00597674
-0.0075234
-0.00914282
-0.00685237
-0.0151401
0.0722045
-0.0175291
0.0154216
-0.00618617
-0.00112099
-0.00232913
-0.00396236
-0.00165209
-0.00187882
-0.00202135
-0.00189514
-0.000613918
7.38855e-05
0.000283911
0.000737328
0.000813032
0.000674795
0.000640485
0.000326416
0.000172414
0.000135122
3.6539e-05
0.000286047
-0.000107124
0.000542804
-0.000730682
-0.000228681
-0.0100714
0.00976868
-0.0576708
-1.90056e-15
3.76714e-17
-2.18489e-16
-1.01886e-15
-4.3799e-15
-1.4085e-14
-4.58786e-14
-1.43016e-13
-4.3098e-13
-1.24598e-12
-3.44522e-12
-9.10747e-12
-2.3007e-11
-5.55331e-11
-1.28225e-10
-2.83425e-10
-6.00576e-10
-1.22243e-09
-2.39621e-09
-4.53478e-09
-8.30758e-09
-1.47725e-08
-2.55365e-08
-4.30949e-08
-7.07565e-08
-1.14215e-07
-1.7903e-07
-2.76832e-07
-4.17076e-07
-6.17002e-07
-8.95625e-07
-1.2722e-06
-1.77675e-06
-2.43928e-06
-3.27031e-06
-4.35773e-06
-5.62074e-06
-7.28033e-06
-9.07495e-06
-1.15061e-05
-1.38009e-05
-1.72217e-05
-2.00392e-05
-2.44842e-05
-2.78414e-05
-3.34287e-05
-3.77683e-05
-4.49722e-05
-5.11361e-05
-6.00408e-05
-6.9183e-05
-7.97471e-05
-9.31092e-05
-0.000105867
-0.000124464
-0.000140922
-0.000164346
-0.000188136
-0.000215839
-0.000250068
-0.000283853
-0.000331477
-0.000372476
-0.000438248
-0.000491669
-0.000567903
-0.00064925
-0.000742876
-0.000843602
-0.000978174
-0.00109955
-0.00127494
-0.00142342
-0.00164641
-0.00183654
-0.00214287
-0.00241071
-0.0028697
-0.00325591
-0.00382438
-0.00418176
-0.00455274
-0.00474472
-0.00589339
-0.00629061
-0.00943539
-0.0101019
-0.015032
-0.00963048
0.0647369
-0.0220771
0.00224382
-0.00952668
0.00188233
0.00271659
0.00107238
0.00387955
0.00262872
0.00371955
0.00406225
0.00341922
0.00286011
0.00221459
0.00140351
0.000784785
0.000817263
0.000631186
0.000562651
0.000273482
0.000421739
-0.000564275
5.88511e-05
-0.00125011
3.25082e-05
-0.00209369
-0.0009872
-0.0113042
0.00862105
-0.0518338
-1.79363e-15
1.31561e-16
-3.48281e-16
-9.13313e-16
-4.53941e-15
-1.38654e-14
-4.52742e-14
-1.41288e-13
-4.25454e-13
-1.22884e-12
-3.3949e-12
-8.96709e-12
-2.26314e-11
-5.45938e-11
-1.25878e-10
-2.77792e-10
-5.8779e-10
-1.19498e-09
-2.33892e-09
-4.42003e-09
-8.08319e-09
-1.4353e-08
-2.4776e-08
-4.17229e-08
-6.86211e-08
-1.10049e-07
-1.73873e-07
-2.65966e-07
-4.0477e-07
-5.93426e-07
-8.68448e-07
-1.22573e-06
-1.72349e-06
-2.35008e-06
-3.17635e-06
-4.19343e-06
-5.47265e-06
-6.99848e-06
-8.8757e-06
-1.09966e-05
-1.35486e-05
-1.64532e-05
-1.96384e-05
-2.34584e-05
-2.7227e-05
-3.21867e-05
-3.67992e-05
-4.34841e-05
-4.94454e-05
-5.86093e-05
-6.61548e-05
-7.87504e-05
-8.84384e-05
-0.000104939
-0.000118875
-0.000137885
-0.000159733
-0.000182249
-0.000211021
-0.000242969
-0.000277092
-0.000321539
-0.000364214
-0.000423366
-0.000477746
-0.00055604
-0.000627156
-0.000730498
-0.000821573
-0.000957131
-0.00107383
-0.00125123
-0.00140173
-0.00163202
-0.00182349
-0.00212221
-0.00236819
-0.00277516
-0.00308648
-0.00363059
-0.00401531
-0.00472409
-0.00528752
-0.00634057
-0.00693617
-0.00882043
-0.00475422
-0.0194154
0.0459202
0.0169076
0.0047748
0.00353138
-0.00128847
-0.00343824
-0.00113561
-0.00209406
-0.00117212
-0.00185026
4.24199e-05
-0.000305088
0.000200939
0.000261843
7.9721e-06
0.000308266
0.000278486
0.000244474
0.000109247
0.000204388
-0.00057052
-8.04596e-05
-0.00118546
0.000369349
-0.00208464
0.000473971
-0.00246463
-0.000309582
-0.00991665
0.00584832
-0.0435685
-1.61036e-15
4.94444e-17
-1.91954e-16
-9.09476e-16
-4.40395e-15
-1.39196e-14
-4.45413e-14
-1.39619e-13
-4.20223e-13
-1.2123e-12
-3.34626e-12
-8.82916e-12
-2.22561e-11
-5.35944e-11
-1.23397e-10
-2.71883e-10
-5.74193e-10
-1.16439e-09
-2.27347e-09
-4.28544e-09
-7.81992e-09
-1.38469e-08
-2.38823e-08
-4.00644e-08
-6.59227e-08
-1.05481e-07
-1.66231e-07
-2.55369e-07
-3.85502e-07
-5.70113e-07
-8.27091e-07
-1.1749e-06
-1.64818e-06
-2.23984e-06
-3.05949e-06
-3.98126e-06
-5.30583e-06
-6.62978e-06
-8.62418e-06
-1.04236e-05
-1.31965e-05
-1.55679e-05
-1.91633e-05
-2.22229e-05
-2.65158e-05
-3.06651e-05
-3.56626e-05
-4.14847e-05
-4.79538e-05
-5.58717e-05
-6.41773e-05
-7.51931e-05
-8.55046e-05
-0.000100787
-0.000113458
-0.00013433
-0.000150746
-0.000178446
-0.000200316
-0.00023483
-0.000267205
-0.000306845
-0.000355702
-0.000402475
-0.000466721
-0.00053295
-0.000607346
-0.000704277
-0.00079327
-0.000926012
-0.00103973
-0.00121502
-0.00136119
-0.00158376
-0.0017713
-0.0020625
-0.00231461
-0.00271483
-0.00305106
-0.00354253
-0.00395752
-0.00451653
-0.00507872
-0.00596278
-0.00626362
-0.00947651
-0.00280746
-0.0265095
0.0686895
-0.0173452
-0.000108242
-0.00226489
0.000138112
-0.00287545
0.000209417
0.00301606
-0.000288327
-0.000441277
0.000615341
-0.000331224
-7.98441e-05
-9.09172e-05
-7.13502e-05
0.000106402
-8.196e-05
0.00017583
-4.01701e-05
0.00028196
-0.000395195
0.000500257
-0.00109268
0.00129177
-0.00222305
0.00110754
-0.00301798
-0.000153115
-0.00896654
0.00359647
-0.0371538
-1.5112e-15
1.04962e-16
-1.85471e-16
-8.54667e-16
-4.33964e-15
-1.36124e-14
-4.38068e-14
-1.36917e-13
-4.11926e-13
-1.1876e-12
-3.27395e-12
-8.62608e-12
-2.17102e-11
-5.22005e-11
-1.19929e-10
-2.63658e-10
-5.55399e-10
-1.12382e-09
-2.18866e-09
-4.114e-09
-7.4865e-09
-1.32198e-08
-2.27223e-08
-3.8107e-08
-6.23294e-08
-1.00179e-07
-1.56512e-07
-2.42159e-07
-3.62833e-07
-5.39931e-07
-7.79118e-07
-1.11348e-06
-1.55344e-06
-2.13006e-06
-2.8839e-06
-3.78962e-06
-5.00391e-06
-6.30495e-06
-8.15451e-06
-9.9042e-06
-1.25174e-05
-1.47964e-05
-1.82436e-05
-2.11305e-05
-2.52387e-05
-2.9292e-05
-3.37579e-05
-3.98196e-05
-4.5415e-05
-5.35552e-05
-6.09702e-05
-7.16993e-05
-8.16715e-05
-9.54696e-05
-0.000109164
-0.000126897
-0.000144781
-0.00016882
-0.000190826
-0.000223774
-0.000251992
-0.000295747
-0.000333167
-0.000389898
-0.000439213
-0.000512872
-0.000577218
-0.000673804
-0.000758488
-0.000884998
-0.000995953
-0.00116143
-0.00130725
-0.00152508
-0.00171734
-0.00199923
-0.00225098
-0.00260426
-0.00292892
-0.0033468
-0.00380164
-0.00432154
-0.00518483
-0.00598763
-0.00690762
-0.00941873
-0.00710105
-0.0120438
0.0419998
-0.0305798
0.00348191
-0.00863901
0.00141301
-0.00217605
-0.000771027
0.000755946
-0.00158416
-0.00203109
0.00019359
-0.000381843
0.000158661
7.22573e-05
4.89137e-05
0.000114716
0.000104844
0.000403203
-0.0001858
0.000279818
-0.000633021
0.000228733
-0.00175617
0.00104862
-0.00328138
0.000806308
-0.00425461
8.06065e-05
-0.00837323
0.00261613
-0.0305528
-1.35884e-15
3.6672e-17
-2.50501e-16
-8.49504e-16
-4.16551e-15
-1.33924e-14
-4.29413e-14
-1.34326e-13
-4.03939e-13
-1.16266e-12
-3.20113e-12
-8.42027e-12
-2.11541e-11
-5.07457e-11
-1.16322e-10
-2.55003e-10
-5.35536e-10
-1.07934e-09
-2.09369e-09
-3.91978e-09
-7.10219e-09
-1.24995e-08
-2.13895e-08
-3.57822e-08
-5.83452e-08
-9.34331e-08
-1.46207e-07
-2.24684e-07
-3.38497e-07
-5.00548e-07
-7.25169e-07
-1.03576e-06
-1.43919e-06
-1.99332e-06
-2.65681e-06
-3.57363e-06
-4.59151e-06
-5.99058e-06
-7.48018e-06
-9.41506e-06
-1.1596e-05
-1.39506e-05
-1.70617e-05
-1.98171e-05
-2.38854e-05
-2.73083e-05
-3.20173e-05
-3.72533e-05
-4.27263e-05
-5.02939e-05
-5.71267e-05
-6.77074e-05
-7.60908e-05
-9.07812e-05
-0.00010202
-0.00011884
-0.000137496
-0.000156222
-0.000182961
-0.000207398
-0.000240248
-0.000276551
-0.000315118
-0.000366724
-0.000414106
-0.000483863
-0.000544498
-0.000636635
-0.000716483
-0.000837094
-0.000943126
-0.00110166
-0.00124155
-0.001445
-0.00162775
-0.00188414
-0.00212666
-0.00246378
-0.00280945
-0.00323353
-0.00374118
-0.00415438
-0.00504663
-0.00522812
-0.00604171
-0.00337268
-0.0135052
0.0518656
0.0116056
-0.0191596
-0.00162641
-0.00780708
0.000391948
-0.00250557
-0.00121093
0.000218342
-0.00096297
-0.00211429
0.000698721
7.75992e-05
0.00062714
0.000437151
-0.000147033
-0.000364847
-0.000675292
-0.000242805
-0.000649894
7.92935e-05
-0.000757688
0.00020342
-0.00181235
0.00119085
-0.00341835
0.00114141
-0.00458369
0.000805307
-0.00802194
0.00198173
-0.0250892
-1.28038e-15
7.36507e-17
-4.61553e-16
-7.31505e-16
-3.96091e-15
-1.31558e-14
-4.18355e-14
-1.30751e-13
-3.93004e-13
-1.12941e-12
-3.10432e-12
-8.14864e-12
-2.04218e-11
-4.88604e-11
-1.1165e-10
-2.43893e-10
-5.10118e-10
-1.02418e-09
-1.97772e-09
-3.68512e-09
-6.64446e-09
-1.16313e-08
-1.98287e-08
-3.2959e-08
-5.37199e-08
-8.5385e-08
-1.33987e-07
-2.04522e-07
-3.09652e-07
-4.54778e-07
-6.64522e-07
-9.39285e-07
-1.32466e-06
-1.8059e-06
-2.45431e-06
-3.24733e-06
-4.24107e-06
-5.48287e-06
-6.86881e-06
-8.72086e-06
-1.05434e-05
-1.30441e-05
-1.55059e-05
-1.85234e-05
-2.17507e-05
-2.53974e-05
-2.97178e-05
-3.41115e-05
-4.01822e-05
-4.59606e-05
-5.35379e-05
-6.21157e-05
-7.08977e-05
-8.35004e-05
-9.40898e-05
-0.000110997
-0.000125262
-0.00014726
-0.000166321
-0.000195062
-0.000219948
-0.000257754
-0.000290447
-0.000340107
-0.000382915
-0.000448453
-0.000503968
-0.000590657
-0.000663159
-0.000777692
-0.000873113
-0.00102145
-0.0011471
-0.00133852
-0.00150893
-0.00176547
-0.00200432
-0.00234441
-0.00266815
-0.00307078
-0.00345057
-0.00379742
-0.00411239
-0.00372457
-0.00461813
0.0026918
-0.0199898
0.0819462
-0.00674499
0.00986785
-0.00674899
-0.00293756
-0.00301368
-0.00200634
-0.00157101
-0.00129444
-0.000276755
-0.00256618
-0.000626532
-0.000830588
-0.000783246
-0.000808114
-0.000586949
-0.000341346
-0.000104413
5.03899e-05
-0.000603758
-7.92872e-05
-0.00110708
2.48322e-05
-0.00208274
0.00101897
-0.00368776
0.001086
-0.00457537
0.00046008
-0.00740088
0.00139515
-0.0204175
-1.08523e-15
-1.22893e-16
-3.18918e-16
-6.87795e-16
-4.00394e-15
-1.27656e-14
-4.06683e-14
-1.27196e-13
-3.81578e-13
-1.09536e-12
-3.00407e-12
-7.86909e-12
-1.9666e-11
-4.68977e-11
-1.06732e-10
-2.32168e-10
-4.83293e-10
-9.64353e-10
-1.85056e-09
-3.42411e-09
-6.13322e-09
-1.06574e-08
-1.80601e-08
-2.98282e-08
-4.83273e-08
-7.66195e-08
-1.19407e-07
-1.82742e-07
-2.74449e-07
-4.05953e-07
-5.87691e-07
-8.40399e-07
-1.17226e-06
-1.62141e-06
-2.18103e-06
-2.92067e-06
-3.79116e-06
-4.93242e-06
-6.17761e-06
-7.86337e-06
-9.49312e-06
-1.18587e-05
-1.38977e-05
-1.6983e-05
-1.93692e-05
-2.35026e-05
-2.63927e-05
-3.16556e-05
-3.58963e-05
-4.21167e-05
-4.8734e-05
-5.59485e-05
-6.54975e-05
-7.45901e-05
-8.69249e-05
-9.99539e-05
-0.000114685
-0.000133376
-0.000151445
-0.000177091
-0.000199959
-0.000234301
-0.000264026
-0.000309074
-0.000348471
-0.000407448
-0.000459758
-0.00053719
-0.000605998
-0.000707568
-0.000798116
-0.000932472
-0.00105286
-0.00123337
-0.00139234
-0.00163369
-0.00183868
-0.0021572
-0.00239736
-0.00278565
-0.00306798
-0.00343118
-0.00379458
-0.00372002
-0.00629049
-0.00148537
-0.0227934
0.0693796
-0.0535898
0.0140655
-0.0121027
-0.000903511
-0.00426303
-0.00189852
-0.00179084
-0.00170414
0.000186802
-0.00271404
-0.000314749
-0.00064176
-0.000249649
-0.000147326
-0.000176295
-0.00010859
-0.000188315
6.14151e-07
-0.000607148
-3.96454e-05
-0.00102238
0.00012173
-0.00191546
0.000873326
-0.00351408
0.000990183
-0.00405003
9.33866e-06
-0.00624583
0.000916833
-0.0162195
-9.63141e-16
-7.92071e-17
-2.92119e-16
-7.4147e-16
-3.77474e-15
-1.24968e-14
-3.92924e-14
-1.22708e-13
-3.68656e-13
-1.05364e-12
-2.88197e-12
-7.52432e-12
-1.87384e-11
-4.45021e-11
-1.00854e-10
-2.18103e-10
-4.50977e-10
-8.93719e-10
-1.70177e-09
-3.12227e-09
-5.54187e-09
-9.54611e-09
-1.60143e-08
-2.6277e-08
-4.21362e-08
-6.66231e-08
-1.02944e-07
-1.5764e-07
-2.35395e-07
-3.49405e-07
-5.03971e-07
-7.24094e-07
-1.00885e-06
-1.40042e-06
-1.88703e-06
-2.5279e-06
-3.304e-06
-4.27094e-06
-5.43496e-06
-6.8014e-06
-8.41776e-06
-1.0278e-05
-1.23538e-05
-1.4808e-05
-1.72444e-05
-2.06153e-05
-2.34229e-05
-2.79426e-05
-3.15609e-05
-3.76249e-05
-4.25052e-05
-5.0334e-05
-5.7016e-05
-6.71861e-05
-7.60793e-05
-8.94829e-05
-0.000101049
-0.000118719
-0.000133881
-0.000157119
-0.000176957
-0.000207722
-0.000233588
-0.000274419
-0.000308398
-0.000361928
-0.000407092
-0.000477017
-0.000537457
-0.000629949
-0.000710701
-0.000834203
-0.000940539
-0.00110394
-0.0012413
-0.00145862
-0.00163328
-0.00193151
-0.0021471
-0.00256127
-0.00280577
-0.00360496
-0.00414956
-0.00543882
-0.00609184
-0.0110648
0.0113845
0.0167328
-0.03571
0.00833878
-0.0113176
-0.00030527
-0.00395127
-0.00288283
-0.00201557
-0.00215218
-0.000498183
-0.00262172
-0.000559012
-0.000895457
-0.000423577
-0.000389502
-0.000345516
-0.000193899
-0.000346656
-0.000237234
-0.000743745
-0.000242368
-0.00108085
4.38947e-05
-0.00184834
0.000490577
-0.00335187
0.000544817
-0.00355615
-0.000623907
-0.00562417
5.55811e-05
-0.0123439
-9.08762e-16
-2.5138e-16
-2.43135e-16
-7.31075e-16
-3.77826e-15
-1.17603e-14
-3.80053e-14
-1.18104e-13
-3.53058e-13
-1.00997e-12
-2.75506e-12
-7.16859e-12
-1.77786e-11
-4.20149e-11
-9.45908e-11
-2.03214e-10
-4.16937e-10
-8.18264e-10
-1.54102e-09
-2.79419e-09
-4.89458e-09
-8.32583e-09
-1.37812e-08
-2.23235e-08
-3.54322e-08
-5.53468e-08
-8.52433e-08
-1.29025e-07
-1.93701e-07
-2.84028e-07
-4.15306e-07
-5.88472e-07
-8.36678e-07
-1.14218e-06
-1.57866e-06
-2.07247e-06
-2.79e-06
-3.52138e-06
-4.63282e-06
-5.63189e-06
-7.23184e-06
-8.55272e-06
-1.06967e-05
-1.23923e-05
-1.50142e-05
-1.74434e-05
-2.02567e-05
-2.3774e-05
-2.73368e-05
-3.21472e-05
-3.67881e-05
-4.31782e-05
-4.92141e-05
-5.77717e-05
-6.55507e-05
-7.7005e-05
-8.70609e-05
-0.000102235
-0.000115389
-0.000135284
-0.000152696
-0.000178698
-0.000201746
-0.000235902
-0.000266074
-0.000311479
-0.000350807
-0.000411738
-0.000463477
-0.00054544
-0.000613945
-0.00072331
-0.00081383
-0.000959519
-0.00108011
-0.00127665
-0.00143991
-0.00171603
-0.00194544
-0.00236959
-0.00269674
-0.00314741
-0.00303141
-0.00332404
0.00335229
-0.0139645
0.0992947
-0.00439803
0.00786942
-0.014047
-0.00401371
-0.00351349
-0.00403085
-0.0029533
-0.00223261
-0.00203711
-0.00120613
-0.00235822
-0.000843543
-0.000954733
-0.000680503
-0.000243368
-0.000170296
-4.75111e-05
-0.00030199
-0.000197509
-0.000696222
-0.000277521
-0.00102182
6.24035e-06
-0.00169193
0.000223157
-0.00275782
-0.000245823
-0.00242912
-0.001505
-0.00361619
-0.0012106
-0.00788846
-8.30724e-16
-2.37675e-16
-8.69584e-17
-7.01546e-16
-3.42253e-15
-1.14749e-14
-3.63941e-14
-1.1273e-13
-3.37375e-13
-9.59033e-13
-2.60622e-12
-6.75269e-12
-1.66592e-11
-3.91183e-11
-8.74801e-11
-1.86174e-10
-3.77762e-10
-7.32344e-10
-1.35927e-09
-2.42607e-09
-4.17105e-09
-6.96382e-09
-1.13034e-08
-1.79366e-08
-2.79615e-08
-4.29752e-08
-6.53534e-08
-9.81686e-08
-1.46319e-07
-2.15015e-07
-3.12901e-07
-4.48801e-07
-6.33607e-07
-8.83698e-07
-1.20418e-06
-1.63026e-06
-2.14533e-06
-2.81703e-06
-3.59608e-06
-4.55459e-06
-5.69067e-06
-6.95313e-06
-8.54002e-06
-1.01314e-05
-1.21317e-05
-1.42723e-05
-1.6568e-05
-1.95335e-05
-2.23486e-05
-2.65108e-05
-3.01177e-05
-3.56687e-05
-4.03988e-05
-4.77216e-05
-5.39551e-05
-6.35856e-05
-7.18145e-05
-8.44462e-05
-9.52752e-05
-0.000111845
-0.000126114
-0.000147839
-0.000166723
-0.0001952
-0.000220279
-0.000257792
-0.000291164
-0.000341094
-0.000385582
-0.000452624
-0.000512122
-0.000603222
-0.000683377
-0.000808271
-0.000917227
-0.0010885
-0.0012396
-0.00146696
-0.00167366
-0.00195716
-0.00208404
-0.00227625
-0.00188486
-0.00408689
-0.000143919
-0.0215524
0.0603869
-0.0608123
0.0133341
-0.00965223
-0.00129739
-0.00606919
-0.00241749
-0.0032157
-0.00228539
-0.00236819
-0.00193886
-0.0018406
-0.000634452
-0.000721353
-0.000593496
-0.000259141
-0.000194018
-0.000106421
-0.00035152
-0.000219144
-0.00062054
-0.000229905
-0.000785119
-3.664e-05
-0.00130425
-0.000341344
-0.00206898
-0.00137902
-0.00193567
-0.00227924
-0.00255485
-0.002415
-0.00420804
-7.84199e-16
-2.47375e-16
1.07684e-17
-7.56487e-16
-3.21841e-15
-1.09836e-14
-3.47543e-14
-1.07341e-13
-3.19175e-13
-9.06841e-13
-2.45435e-12
-6.32595e-12
-1.55089e-11
-3.61489e-11
-8.00117e-11
-1.6838e-10
-3.36973e-10
-6.41932e-10
-1.16693e-09
-2.03247e-09
-3.40399e-09
-5.50297e-09
-8.62672e-09
-1.32419e-08
-1.99879e-08
-2.98858e-08
-4.41491e-08
-6.52388e-08
-9.57457e-08
-1.40606e-07
-2.04248e-07
-2.96272e-07
-4.21863e-07
-5.96284e-07
-8.23008e-07
-1.1302e-06
-1.50289e-06
-2.00879e-06
-2.56588e-06
-3.33782e-06
-4.11878e-06
-5.21739e-06
-6.28195e-06
-7.70725e-06
-9.02624e-06
-1.10098e-05
-1.25635e-05
-1.5037e-05
-1.71853e-05
-2.04656e-05
-2.33196e-05
-2.76623e-05
-3.14226e-05
-3.71442e-05
-4.20818e-05
-4.9599e-05
-5.6086e-05
-6.59711e-05
-7.44763e-05
-8.74752e-05
-9.86047e-05
-0.000115727
-0.000130318
-0.000152936
-0.000172194
-0.000202195
-0.00022793
-0.000267944
-0.000302593
-0.000356615
-0.0004039
-0.000478097
-0.000544009
-0.000644441
-0.000736635
-0.000871503
-0.00100281
-0.00117762
-0.00135271
-0.00157268
-0.00212157
-0.00274237
-0.00442856
-0.00478871
-0.0117854
0.027483
0.0111521
-0.022275
0.00314002
-0.00996807
-0.000436106
-0.0046349
-0.00317189
-0.00286962
-0.00269723
-0.0018925
-0.00216303
-0.00161066
-0.001039
-0.000966517
-0.000624718
-0.000332334
-0.000294894
-0.00031318
-0.000625447
-0.000514129
-0.000909349
-0.000541513
-0.00100329
-0.000469882
-0.00130761
-0.000754937
-0.00166534
-0.0018326
-0.00102769
-0.00308439
-0.00092456
-0.00305568
-0.000504958
-7.40806e-16
5.48935e-17
-1.91014e-16
-5.01081e-16
-2.99384e-15
-1.04584e-14
-3.29898e-14
-1.01269e-13
-3.00436e-13
-8.47601e-13
-2.28219e-12
-5.84312e-12
-1.42108e-11
-3.279e-11
-7.17289e-11
-1.48608e-10
-2.9146e-10
-5.42094e-10
-9.54097e-10
-1.60226e-09
-2.5502e-09
-3.91557e-09
-5.77565e-09
-8.12112e-09
-1.12089e-08
-1.53315e-08
-2.0987e-08
-2.92736e-08
-4.14916e-08
-5.99215e-08
-8.93975e-08
-1.31923e-07
-1.96771e-07
-2.87759e-07
-4.19087e-07
-5.90213e-07
-8.30201e-07
-1.12396e-06
-1.52012e-06
-1.97942e-06
-2.58018e-06
-3.24953e-06
-4.09188e-06
-5.01705e-06
-5.98154e-06
-7.46881e-06
-8.4726e-06
-1.03343e-05
-1.17816e-05
-1.42129e-05
-1.62e-05
-1.93967e-05
-2.20656e-05
-2.62527e-05
-2.98018e-05
-3.52934e-05
-3.99749e-05
-4.71892e-05
-5.33299e-05
-6.27872e-05
-7.0917e-05
-8.32345e-05
-9.40698e-05
-0.000110102
-0.000124643
-0.000145716
-0.000165402
-0.000193515
-0.000220233
-0.000258667
-0.000295626
-0.000349885
-0.000400728
-0.00047713
-0.000545648
-0.000655042
-0.000758794
-0.000945353
-0.00116329
-0.00143498
-0.00163212
-0.000939695
-0.000795812
0.0067338
-0.0114408
0.0861945
-0.0295204
0.012437
-0.0138906
-0.00108317
-0.00525592
-0.00314885
-0.00315007
-0.00230615
-0.00219743
-0.00238728
-0.00193015
-0.00143167
-0.00118299
-0.00110869
-0.000568964
-0.000406366
-0.000288258
-0.000227489
-0.000427276
-0.000260684
-0.000601756
-0.000241204
-0.000751198
-0.000368941
-0.000959665
-0.00100041
-0.00126468
-0.00227218
-0.000657831
-0.0036189
0.000143178
-0.00348579
0.00260857
-7.70434e-16
1.47876e-16
3.19159e-17
-6.36466e-16
-2.82207e-15
-9.78986e-15
-3.08999e-14
-9.48085e-14
-2.80482e-13
-7.87503e-13
-2.10843e-12
-5.35698e-12
-1.29051e-11
-2.94093e-11
-6.33165e-11
-1.28335e-10
-2.45091e-10
-4.38623e-10
-7.35053e-10
-1.14782e-09
-1.69769e-09
-2.22116e-09
-2.6763e-09
-2.8671e-09
-2.39466e-09
-8.58935e-10
2.16264e-09
6.97083e-09
1.3571e-08
2.2001e-08
2.82798e-08
3.46773e-08
3.45805e-08
2.2773e-08
6.95188e-10
-5.46542e-08
-1.27716e-07
-2.57428e-07
-4.08528e-07
-6.5868e-07
-9.22811e-07
-1.30651e-06
-1.76704e-06
-2.27017e-06
-2.93457e-06
-3.72628e-06
-4.40841e-06
-5.45715e-06
-6.40414e-06
-7.84244e-06
-9.11123e-06
-1.10561e-05
-1.27566e-05
-1.5342e-05
-1.76451e-05
-2.10041e-05
-2.41071e-05
-2.85198e-05
-3.25882e-05
-3.83947e-05
-4.37487e-05
-5.13491e-05
-5.83215e-05
-6.8301e-05
-7.7528e-05
-9.07759e-05
-0.000103194
-0.000121281
-0.000138187
-0.000163479
-0.000187168
-0.000223503
-0.000255542
-0.000306707
-0.000353809
-0.0004423
-0.0005087
-0.000599984
-0.000632543
-0.000781384
-0.000935331
-0.00185034
-0.00433806
-0.00527821
-0.00937565
0.0200774
-0.0453112
0.0118752
-0.00977893
-0.000337
-0.00429627
-0.00255231
-0.00333124
-0.00230136
-0.00250012
-0.00210314
-0.00211185
-0.00153568
-0.00135421
-0.00110564
-0.000484187
-0.000420231
-0.000344613
-0.000407486
-0.000605526
-0.000557498
-0.000893552
-0.000582052
-0.00104368
-0.000828571
-0.00104381
-0.00137702
-0.00114312
-0.0024249
-0.000274851
-0.00373039
0.0008884
-0.00344664
0.00494024
-7.45285e-16
2.51602e-16
-1.53203e-17
-4.60989e-16
-2.65141e-15
-9.1783e-15
-2.90271e-14
-8.80671e-14
-2.58998e-13
-7.22587e-13
-1.91696e-12
-4.82306e-12
-1.1466e-11
-2.57048e-11
-5.40927e-11
-1.06425e-10
-1.94358e-10
-3.25598e-10
-4.96902e-10
-6.60424e-10
-7.3461e-10
-5.47144e-10
3.58043e-10
2.44067e-09
6.84348e-09
1.46584e-08
2.72832e-08
4.64416e-08
7.36241e-08
1.10135e-07
1.5771e-07
2.14659e-07
2.81755e-07
3.5864e-07
4.31162e-07
5.22106e-07
5.74479e-07
6.60895e-07
6.88156e-07
7.19845e-07
7.06004e-07
6.6503e-07
5.6003e-07
4.10737e-07
2.18654e-07
-1.30119e-07
-3.23301e-07
-6.76204e-07
-1.08863e-06
-1.54227e-06
-2.21661e-06
-2.81375e-06
-3.78366e-06
-4.60479e-06
-5.93998e-06
-7.1227e-06
-8.81145e-06
-1.05815e-05
-1.26019e-05
-1.52069e-05
-1.76429e-05
-2.13017e-05
-2.41618e-05
-2.91691e-05
-3.29085e-05
-3.93547e-05
-4.47462e-05
-5.3161e-05
-6.115e-05
-7.25584e-05
-8.49476e-05
-0.00010037
-0.00011732
-0.00013598
-0.000161068
-0.000199089
-0.000246769
-0.000326054
-0.000478757
-0.000886638
-0.000764579
-0.000864272
0.00322344
-0.0056731
0.067548
-0.0127976
0.00655275
-0.0104571
-0.00188806
-0.00276586
-0.00295143
-0.00319336
-0.00294291
-0.00211791
-0.00265255
-0.00196407
-0.0023268
-0.00194739
-0.00135092
-0.00105582
-0.000408998
-0.000408465
-0.000393602
-0.000361435
-0.000500947
-0.000439687
-0.0006501
-0.000448927
-0.000766458
-0.000688571
-0.000738143
-0.00133826
-0.000822031
-0.0021549
-0.00024179
-0.00319955
0.00135797
-0.00261746
0.0064915
-5.39725e-16
2.19519e-16
1.54379e-16
-4.55728e-16
-2.36917e-15
-8.26443e-15
-2.65754e-14
-8.12151e-14
-2.36989e-13
-6.56579e-13
-1.72732e-12
-4.29239e-12
-1.00501e-11
-2.20126e-11
-4.48914e-11
-8.43876e-11
-1.42014e-10
-2.12662e-10
-2.496e-10
-2.08551e-10
1.24437e-10
1.08031e-09
3.40466e-09
7.93512e-09
1.61158e-08
2.98784e-08
5.14449e-08
8.3929e-08
1.30339e-07
1.93639e-07
2.79061e-07
3.83652e-07
5.22377e-07
6.71951e-07
8.72327e-07
1.05849e-06
1.31971e-06
1.52808e-06
1.8334e-06
2.05107e-06
2.36966e-06
2.57291e-06
2.88174e-06
3.02424e-06
3.33473e-06
3.31425e-06
3.78123e-06
3.841e-06
4.26667e-06
4.32733e-06
4.7565e-06
4.75777e-06
5.22131e-06
5.18002e-06
5.63885e-06
5.51238e-06
5.99302e-06
5.84705e-06
6.24924e-06
6.12353e-06
6.41601e-06
6.53003e-06
6.55811e-06
7.37759e-06
6.86582e-06
8.37462e-06
7.68588e-06
9.39261e-06
8.46943e-06
1.02236e-05
1.03364e-05
1.36221e-05
1.64189e-05
1.65458e-05
1.07565e-05
-7.32437e-06
-4.62763e-06
3.39577e-05
0.000110422
0.000118509