/*--------------------------------*- C++ -*----------------------------------*\
| =========                 |                                                 |
| \\      /  F ield         | OpenFOAM: The Open Source CFD Toolbox           |
|  \\    /   O peration     | Version:  2.2.x                                 |
|   \\  /    A nd           | Web:      www.OpenFOAM.org                      |
|    \\/     M anipulation  |                                                 |
\*---------------------------------------------------------------------------*/
FoamFile
{
    version     2.0;
    format      ascii;
    class       volScalarField;
    location    "0.15";
    object      T;
}
// * * * * * * * * * * * * * * * * * * * * * * * * * * * * * * * * * * * * * //

dimensions      [0 0 0 1 0 0 0];

internalField   nonuniform List<scalar> 
14161
(
1
1
1
1
1
1
1
1
1
1
1
1
1
1
1
1
1
1
1
1
1
1
1
1
0.999999
0.999999
0.999998
0.999997
0.999996
0.999994
0.999991
0.999988
0.999983
0.999977
0.999968
0.999958
0.999945
0.99993
0.99991
0.999889
0.999862
0.999833
0.999798
0.999761
0.999718
0.999671
0.999614
0.99955
0.999474
0.999388
0.999287
0.99917
0.999036
0.998878
0.998702
0.998487
0.998257
0.997972
0.997659
0.997296
0.996865
0.996392
0.99582
0.995194
0.994459
0.993621
0.992665
0.991561
0.990319
0.98888
0.987268
0.985381
0.983259
0.980829
0.978134
0.975125
0.971827
0.968174
0.964092
0.959485
0.953997
0.947649
0.940756
0.933971
0.928158
0.924095
0.921585
0.921128
1.43331
3.12145
3.35397
3.30248
3.3109
3.31516
3.33837
3.35469
3.37798
3.39898
3.40565
3.40747
3.41011
3.41932
3.43024
3.44426
3.45918
3.46938
3.47589
3.47522
3.47221
3.47312
3.48034
3.49484
3.50908
3.52893
3.55252
3.57546
3.61804
3.67357
3.95486
1
1
1
1
1
1
1
1
1
1
1
1
1
1
1
1
1
1
1
1
1
1
1
1
0.999999
0.999999
0.999998
0.999997
0.999996
0.999994
0.999991
0.999988
0.999983
0.999977
0.999968
0.999958
0.999945
0.99993
0.999911
0.999889
0.999862
0.999833
0.999799
0.999761
0.999718
0.999671
0.999615
0.999551
0.999476
0.99939
0.999289
0.999173
0.999039
0.998882
0.998706
0.998493
0.99826
0.997978
0.997666
0.997296
0.996877
0.996401
0.995834
0.995209
0.994466
0.993629
0.992675
0.991574
0.990339
0.988897
0.987282
0.985404
0.983306
0.980869
0.978158
0.975123
0.9718
0.968004
0.963814
0.95888
0.953401
0.947336
0.941116
0.934981
0.928863
0.925482
0.921666
0.919721
1.47388
3.14593
3.35623
3.31624
3.32761
3.33528
3.35844
3.38644
3.41779
3.4446
3.45891
3.47397
3.49154
3.51227
3.53597
3.56226
3.58857
3.61257
3.63011
3.64135
3.65039
3.65998
3.6669
3.67445
3.67509
3.67249
3.66719
3.6622
3.69849
3.74499
4.04874
1
1
1
1
1
1
1
1
1
1
1
1
1
1
1
1
1
1
1
1
1
1
1
1
0.999999
0.999999
0.999998
0.999997
0.999996
0.999994
0.999992
0.999988
0.999983
0.999977
0.999969
0.999958
0.999946
0.99993
0.999912
0.999889
0.999864
0.999834
0.999801
0.999763
0.999721
0.999674
0.999618
0.999555
0.999479
0.999395
0.999293
0.99918
0.999044
0.998891
0.998713
0.998506
0.998271
0.997992
0.997683
0.997313
0.996902
0.996423
0.995863
0.99524
0.994503
0.993674
0.992727
0.99163
0.990396
0.988958
0.98735
0.985471
0.983361
0.980927
0.978224
0.975144
0.971741
0.967865
0.963494
0.958415
0.952748
0.946658
0.940451
0.933531
0.927157
0.920584
0.914409
0.911804
1.52484
3.15993
3.35875
3.31622
3.31522
3.33985
3.35923
3.38475
3.41825
3.44379
3.4653
3.47983
3.49363
3.51426
3.53904
3.56431
3.58879
3.61208
3.63101
3.64552
3.66044
3.67804
3.69408
3.71246
3.72684
3.73802
3.75185
3.74043
3.7747
3.81027
4.14938
1
1
1
1
1
1
1
1
1
1
1
1
1
1
1
1
1
1
1
1
1
1
1
1
0.999999
0.999999
0.999998
0.999997
0.999996
0.999994
0.999992
0.999988
0.999983
0.999977
0.999969
0.999959
0.999947
0.999931
0.999913
0.99989
0.999866
0.999836
0.999804
0.999765
0.999725
0.999677
0.999623
0.999559
0.999486
0.999401
0.999302
0.999189
0.999055
0.998906
0.998725
0.998527
0.998289
0.99802
0.99771
0.997351
0.996942
0.996461
0.995928
0.995284
0.994578
0.993755
0.992799
0.991715
0.990481
0.989053
0.987445
0.985578
0.983489
0.981077
0.978384
0.97526
0.971765
0.967671
0.963058
0.957626
0.951616
0.945285
0.938958
0.931147
0.923933
0.912664
0.901533
0.881018
1.48738
3.11888
3.29919
3.25968
3.23907
3.26222
3.28388
3.31161
3.35462
3.39393
3.42366
3.44502
3.46607
3.49083
3.51725
3.54416
3.56915
3.59178
3.60989
3.62341
3.63838
3.65617
3.67698
3.70306
3.72538
3.74458
3.76784
3.7778
3.85923
3.90573
4.28668
1
1
1
1
1
1
1
1
1
1
1
1
1
1
1
1
1
1
1
1
1
1
1
1
0.999999
0.999999
0.999998
0.999997
0.999996
0.999994
0.999992
0.999988
0.999984
0.999977
0.99997
0.99996
0.999948
0.999932
0.999915
0.999893
0.999868
0.999839
0.999807
0.999769
0.99973
0.999682
0.99963
0.999567
0.999495
0.999411
0.999314
0.999203
0.999072
0.998925
0.998748
0.998553
0.998318
0.998057
0.997748
0.997397
0.996991
0.996522
0.995994
0.995359
0.994668
0.993842
0.992913
0.99184
0.990626
0.989212
0.987616
0.985756
0.983671
0.981254
0.978555
0.975406
0.971852
0.967657
0.962916
0.957438
0.951278
0.944684
0.937769
0.928972
0.919143
0.90348
0.893148
0.86574
1.65979
3.16401
3.25261
3.26337
3.20064
3.225
3.23985
3.25932
3.29765
3.33608
3.37139
3.39876
3.42293
3.45081
3.47906
3.50547
3.5311
3.55496
3.57384
3.58684
3.59822
3.61433
3.63634
3.66596
3.69918
3.7311
3.76079
3.77741
3.86687
3.93864
4.34389
1
1
1
1
1
1
1
1
1
1
1
1
1
1
1
1
1
1
1
1
1
1
1
1
0.999999
0.999999
0.999998
0.999998
0.999996
0.999994
0.999992
0.999989
0.999984
0.999978
0.99997
0.999961
0.999949
0.999934
0.999916
0.999895
0.999871
0.999843
0.999811
0.999775
0.999736
0.999689
0.999639
0.999576
0.999507
0.999424
0.99933
0.99922
0.999094
0.998949
0.998777
0.998586
0.998357
0.998101
0.997802
0.997458
0.997063
0.996606
0.996087
0.995467
0.994788
0.99398
0.993067
0.992019
0.990815
0.989419
0.987841
0.986009
0.983954
0.981561
0.978872
0.975673
0.972042
0.967647
0.962613
0.956931
0.950656
0.944287
0.936953
0.927578
0.915612
0.896025
0.875997
0.84146
1.58807
3.14935
3.13859
3.20469
3.15655
3.18833
3.20719
3.2359
3.27099
3.30262
3.34022
3.37011
3.39155
3.41592
3.43894
3.46202
3.4866
3.50878
3.52919
3.54639
3.56556
3.58844
3.61322
3.64321
3.67518
3.71342
3.74934
3.77393
3.87487
3.96593
4.39133
1
1
1
1
1
1
1
1
1
1
1
1
1
1
1
1
1
1
1
1
1
1
1
1
0.999999
0.999999
0.999998
0.999998
0.999996
0.999995
0.999992
0.999989
0.999985
0.999979
0.999971
0.999962
0.99995
0.999936
0.999919
0.999899
0.999875
0.999848
0.999817
0.999782
0.999744
0.9997
0.999649
0.99959
0.999522
0.999443
0.999352
0.999245
0.999125
0.998979
0.998819
0.998628
0.998409
0.998161
0.997868
0.997534
0.997151
0.996705
0.996201
0.995612
0.994947
0.994164
0.99328
0.992242
0.991072
0.989702
0.988161
0.986352
0.984316
0.981935
0.979257
0.97612
0.972576
0.968402
0.963669
0.958141
0.951834
0.944473
0.935905
0.925673
0.913181
0.897774
0.881164
0.887029
1.91844
3.16589
3.1509
3.22149
3.18038
3.19965
3.21236
3.23537
3.26115
3.29103
3.32494
3.35216
3.37467
3.39843
3.42051
3.44041
3.45946
3.47656
3.49372
3.51128
3.53336
3.56023
3.58736
3.61833
3.64911
3.69052
3.73252
3.76849
3.87167
3.97103
4.40393
1
1
1
1
1
1
1
1
1
1
1
1
1
1
1
1
1
1
1
1
1
1
1
1
0.999999
0.999999
0.999999
0.999998
0.999997
0.999995
0.999993
0.999989
0.999985
0.99998
0.999973
0.999964
0.999952
0.999939
0.999922
0.999904
0.99988
0.999855
0.999824
0.999792
0.999754
0.999712
0.999664
0.999607
0.999542
0.999466
0.999378
0.999276
0.999159
0.999023
0.998868
0.998685
0.998479
0.998232
0.997961
0.997632
0.997269
0.996842
0.996349
0.995795
0.995133
0.994392
0.993531
0.992537
0.991406
0.990079
0.988579
0.986819
0.984837
0.982522
0.979913
0.976842
0.973356
0.96923
0.964553
0.959158
0.953062
0.946041
0.937732
0.928268
0.916116
0.904672
0.879535
0.906366
2.20953
3.16115
3.19863
3.25697
3.24075
3.23805
3.25397
3.27263
3.2858
3.31998
3.34636
3.36807
3.39036
3.41277
3.43349
3.45085
3.46573
3.47919
3.49097
3.50528
3.52737
3.55458
3.58164
3.6114
3.63853
3.67677
3.71624
3.76212
3.86803
3.98236
4.41475
1
1
1
1
1
1
1
1
1
1
1
1
1
1
1
1
1
1
1
1
1
1
1
1
0.999999
0.999999
0.999999
0.999998
0.999997
0.999995
0.999993
0.99999
0.999986
0.999981
0.999974
0.999966
0.999955
0.999942
0.999927
0.999909
0.999887
0.999863
0.999834
0.999803
0.999766
0.999727
0.999681
0.999627
0.999566
0.999493
0.999411
0.999313
0.999203
0.999072
0.998924
0.998752
0.998554
0.998325
0.998065
0.997758
0.997413
0.997003
0.996543
0.995998
0.995385
0.994665
0.993854
0.992899
0.99182
0.990552
0.989117
0.987432
0.985523
0.983276
0.980732
0.977748
0.974371
0.970434
0.965977
0.960818
0.954876
0.948049
0.939388
0.929586
0.915832
0.906529
0.873665
0.962908
2.47816
3.1841
3.25024
3.27821
3.27932
3.26961
3.28464
3.29677
3.31137
3.33958
3.36213
3.3831
3.4049
3.42516
3.44468
3.46087
3.47482
3.48718
3.49763
3.51159
3.53201
3.55648
3.58165
3.61
3.63499
3.66985
3.70392
3.75704
3.86618
3.99543
4.42132
1
1
1
1
1
1
1
1
1
1
1
1
1
1
1
1
1
1
1
1
1
1
1
1
0.999999
0.999999
0.999999
0.999998
0.999997
0.999996
0.999994
0.999991
0.999987
0.999982
0.999976
0.999968
0.999959
0.999946
0.999932
0.999915
0.999895
0.999872
0.999845
0.999816
0.999782
0.999745
0.999701
0.999651
0.999594
0.999526
0.999448
0.999358
0.999255
0.999131
0.998996
0.998832
0.998647
0.998437
0.998184
0.997905
0.99757
0.997193
0.996756
0.99625
0.995673
0.994997
0.994231
0.99333
0.992311
0.99111
0.989751
0.988148
0.986337
0.984209
0.981803
0.978986
0.975786
0.972005
0.967674
0.962595
0.9568
0.950013
0.942122
0.934104
0.922392
0.916148
0.919355
1.34927
2.85102
3.18045
3.28994
3.29712
3.29893
3.29102
3.30322
3.30844
3.32665
3.35218
3.37492
3.39584
3.41497
3.43312
3.45126
3.4675
3.48215
3.49519
3.50592
3.51935
3.53802
3.55933
3.58307
3.60987
3.63491
3.67038
3.70385
3.76032
3.8701
4.01261
4.42725
1
1
1
1
1
1
1
1
1
1
1
1
1
1
1
1
1
1
1
1
1
1
1
1
1
0.999999
0.999999
0.999998
0.999997
0.999996
0.999994
0.999992
0.999988
0.999984
0.999978
0.999971
0.999962
0.999951
0.999938
0.999922
0.999904
0.999882
0.999858
0.999831
0.9998
0.999766
0.999726
0.99968
0.999625
0.999565
0.999492
0.999409
0.999314
0.999202
0.999077
0.998926
0.998759
0.998558
0.998333
0.998067
0.997768
0.997415
0.997016
0.996547
0.996015
0.99539
0.994682
0.993848
0.992903
0.991788
0.990527
0.989043
0.987363
0.985383
0.983133
0.980453
0.977403
0.973773
0.969661
0.964852
0.959605
0.953603
0.947289
0.941489
0.937664
0.928805
0.967056
1.80524
3.08643
3.19701
3.32365
3.34506
3.31316
3.31189
3.31442
3.31899
3.33855
3.358
3.38557
3.40686
3.42668
3.44598
3.46295
3.47839
3.49237
3.50439
3.51447
3.52676
3.54355
3.56341
3.58538
3.61055
3.63618
3.67162
3.70715
3.76576
3.87829
4.03376
4.43724
1
1
1
1
1
1
1
1
1
1
1
1
1
1
1
1
1
1
1
1
1
1
1
1
1
0.999999
0.999999
0.999998
0.999998
0.999996
0.999995
0.999993
0.99999
0.999986
0.999981
0.999974
0.999966
0.999956
0.999945
0.99993
0.999914
0.999895
0.999873
0.999848
0.999821
0.999789
0.999754
0.999711
0.999664
0.999607
0.999543
0.999469
0.999381
0.999283
0.999165
0.999033
0.998879
0.998701
0.998497
0.998259
0.997987
0.997668
0.997307
0.996882
0.9964
0.995833
0.995188
0.994431
0.993569
0.992558
0.991405
0.990047
0.988497
0.986664
0.984578
0.982106
0.979297
0.975992
0.972281
0.967956
0.963199
0.957507
0.952084
0.943421
0.939057
0.911026
0.968326
2.24045
3.16908
3.25024
3.33047
3.36634
3.32944
3.32542
3.32225
3.32766
3.34674
3.36494
3.39129
3.41141
3.43008
3.44974
3.46674
3.48327
3.49806
3.5114
3.52249
3.53485
3.55045
3.56867
3.58952
3.61318
3.63964
3.67454
3.71333
3.77287
3.88908
4.05753
4.44544
1
1
1
1
1
1
1
1
1
1
1
1
1
1
1
1
1
1
1
1
1
1
1
1
1
0.999999
0.999999
0.999999
0.999998
0.999997
0.999996
0.999994
0.999991
0.999988
0.999983
0.999978
0.999971
0.999963
0.999952
0.99994
0.999926
0.999909
0.99989
0.999868
0.999843
0.999816
0.999785
0.999748
0.999707
0.999657
0.999601
0.999534
0.99946
0.99937
0.99927
0.999152
0.999018
0.99886
0.998682
0.998472
0.998234
0.997953
0.997636
0.99726
0.996836
0.996334
0.995765
0.995092
0.994328
0.993423
0.992393
0.991172
0.989782
0.988139
0.986267
0.984053
0.981531
0.978531
0.975121
0.971101
0.966552
0.960301
0.953182
0.942024
0.932646
0.907766
1.10021
2.67366
3.19767
3.32276
3.36079
3.36541
3.3396
3.3309
3.33045
3.33635
3.35484
3.37501
3.40063
3.42267
3.43967
3.45868
3.47523
3.49226
3.50747
3.5211
3.53242
3.54472
3.55841
3.57551
3.59569
3.61803
3.64536
3.67902
3.72082
3.77941
3.90151
4.08642
4.4569
1
1
1
1
1
1
1
1
1
1
1
1
1
1
1
1
1
1
1
1
1
1
1
1
1
0.999999
0.999999
0.999999
0.999998
0.999997
0.999996
0.999995
0.999993
0.99999
0.999987
0.999982
0.999976
0.999969
0.999961
0.999951
0.999938
0.999925
0.999908
0.99989
0.999868
0.999846
0.999819
0.999788
0.999753
0.999711
0.999663
0.999607
0.999543
0.999468
0.999383
0.999282
0.999169
0.999034
0.998882
0.998703
0.9985
0.998261
0.997989
0.99767
0.997305
0.996877
0.996388
0.99581
0.995151
0.994369
0.993477
0.992418
0.991208
0.98977
0.988125
0.98616
0.983901
0.981178
0.978017
0.974141
0.969586
0.964674
0.960139
0.957589
0.954758
1.00608
1.75949
3.08916
3.2392
3.35572
3.40098
3.35622
3.34764
3.33629
3.33466
3.3399
3.35626
3.37636
3.40077
3.42458
3.44179
3.46148
3.47701
3.49412
3.5096
3.52408
3.53749
3.5518
3.56651
3.58314
3.60324
3.62449
3.65321
3.68521
3.72936
3.78802
3.91779
4.11429
4.46501
1
1
1
1
1
1
1
1
1
1
1
1
1
1
1
1
1
1
1
1
1
1
1
1
1
1
0.999999
0.999999
0.999999
0.999998
0.999997
0.999996
0.999995
0.999993
0.99999
0.999986
0.999982
0.999977
0.99997
0.999962
0.999952
0.999941
0.999928
0.999914
0.999896
0.999878
0.999857
0.999832
0.999803
0.999769
0.999731
0.999686
0.999634
0.999573
0.999505
0.999423
0.999331
0.999222
0.999098
0.998953
0.998787
0.998592
0.99837
0.998107
0.997808
0.997455
0.997051
0.996574
0.996025
0.995376
0.994628
0.99374
0.992713
0.991489
0.990071
0.988375
0.986407
0.984071
0.981313
0.978247
0.974696
0.971738
0.966743
0.962998
0.938053
0.985443
2.31369
3.22622
3.31282
3.38275
3.40587
3.35944
3.35084
3.34011
3.33813
3.34867
3.36468
3.38428
3.40711
3.42941
3.44581
3.46522
3.48022
3.49707
3.51219
3.52702
3.54095
3.55557
3.57124
3.58814
3.60969
3.63128
3.66148
3.69232
3.73942
3.79844
3.93633
4.14621
4.47156
1
1
1
1
1
1
1
1
1
1
1
1
1
1
1
1
1
1
1
1
1
1
1
1
1
1
1
0.999999
0.999999
0.999999
0.999998
0.999998
0.999997
0.999995
0.999994
0.999991
0.999988
0.999984
0.99998
0.999974
0.999967
0.999959
0.99995
0.999939
0.999926
0.999912
0.999897
0.999878
0.999857
0.999831
0.999803
0.999769
0.99973
0.999684
0.999632
0.999571
0.999501
0.999418
0.999324
0.999213
0.999086
0.998937
0.998766
0.998565
0.998333
0.99806
0.997745
0.997372
0.996941
0.996429
0.995835
0.995124
0.994297
0.993307
0.992154
0.990768
0.989139
0.987226
0.984989
0.982236
0.978139
0.972797
0.963433
0.953918
0.942679
1.17943
2.82126
3.2753
3.38717
3.41336
3.39023
3.36836
3.34971
3.34205
3.33796
3.34589
3.36208
3.38263
3.40572
3.42749
3.44444
3.46438
3.48092
3.49821
3.51342
3.52911
3.54449
3.55989
3.57646
3.59368
3.61566
3.63785
3.66995
3.70117
3.75101
3.81036
3.95802
4.17539
4.47477
1
1
1
1
1
1
1
1
1
1
1
1
1
1
1
1
1
1
1
1
1
1
1
1
1
1
1
1
1
0.999999
0.999999
0.999999
0.999999
0.999998
0.999997
0.999996
0.999995
0.999993
0.99999
0.999987
0.999983
0.999978
0.999972
0.999965
0.999957
0.999948
0.999938
0.999926
0.999913
0.999896
0.999877
0.999855
0.999829
0.999798
0.999763
0.999722
0.999674
0.999618
0.999554
0.999477
0.999389
0.999285
0.999166
0.999024
0.99886
0.998666
0.998441
0.998174
0.997862
0.99749
0.997053
0.996528
0.995908
0.995165
0.994292
0.993219
0.991946
0.99028
0.988178
0.985595
0.983359
0.982045
0.985641
0.984663
1.03662
2.01989
3.21571
3.3301
3.41116
3.42864
3.38044
3.36604
3.3517
3.34835
3.34417
3.35222
3.36736
3.38678
3.40811
3.42928
3.44418
3.46337
3.48023
3.49738
3.51245
3.5288
3.54547
3.5621
3.57952
3.59732
3.62028
3.64337
3.6774
3.7109
3.76322
3.82398
3.98253
4.20589
4.47416
1
1
1
1
1
1
1
1
1
1
1
1
1
1
1
1
1
1
1
1
1
1
1
1
1
1
1
1
1
1
1
1
1
1
1
1
1
1
1
1
0.999999
0.999998
0.999995
0.999993
0.999989
0.999985
0.999981
0.999975
0.999969
0.999962
0.999953
0.999942
0.999929
0.999913
0.999895
0.999873
0.999848
0.999817
0.999782
0.999739
0.999689
0.99963
0.999559
0.999477
0.999379
0.999264
0.999125
0.998963
0.998766
0.998534
0.998249
0.997915
0.997508
0.997017
0.996414
0.995655
0.994726
0.993755
0.992636
0.99097
0.988904
0.98275
0.976324
0.952933
0.962205
2.60877
3.3219
3.40481
3.4354
3.41092
3.37729
3.36087
3.34846
3.34447
3.3398
3.34864
3.36368
3.38531
3.40788
3.43096
3.44492
3.464
3.48068
3.49755
3.51226
3.52875
3.54624
3.56377
3.58214
3.60064
3.62399
3.64872
3.68432
3.72093
3.77575
3.83889
4.00649
4.23332
4.46905
1
1
1
1
1
1
1
1
1
1
1
1
1
1
1
1
1
1
1
1
1
1
1
1
1
1
1
1
1
1
1
1
1
1
1.00001
1.00001
1.00001
1.00001
1.00001
1.00001
1.00002
1.00002
1.00002
1.00002
1.00002
1.00002
1.00002
1.00002
1.00003
1.00003
1.00003
1.00003
1.00003
1.00003
1.00002
1.00002
1.00002
1.00001
1
0.999993
0.999978
0.999961
0.999938
0.999911
0.999876
0.999832
0.99978
0.999713
0.999629
0.999525
0.999396
0.999238
0.999044
0.998811
0.99851
0.99811
0.997599
0.996884
0.995673
0.99392
0.992459
0.993341
0.995005
1.03172
1.69563
3.17089
3.36305
3.44003
3.43765
3.39805
3.37828
3.35988
3.34788
3.34608
3.34128
3.34914
3.36188
3.38297
3.40383
3.42712
3.44136
3.4603
3.47697
3.49463
3.51031
3.5276
3.54594
3.56438
3.58388
3.60322
3.6276
3.65373
3.69113
3.73031
3.78701
3.85385
4.03042
4.26101
4.45993
1
1
1
1
1
1
1
1
1
1
1
1
1
1
1
1
1
1
1
1
1
1
1
1
1
1
1
1
1
1
1
1
1.00001
1.00001
1.00001
1.00001
1.00002
1.00002
1.00002
1.00003
1.00003
1.00004
1.00004
1.00005
1.00005
1.00006
1.00006
1.00007
1.00008
1.00009
1.0001
1.00011
1.00012
1.00013
1.00015
1.00016
1.00018
1.00019
1.00021
1.00023
1.00025
1.00027
1.00029
1.00031
1.00033
1.00036
1.00037
1.00041
1.00042
1.00044
1.00045
1.00047
1.00048
1.00047
1.00044
1.00031
1.00023
1.00024
1.00023
1.00021
0.998556
0.997169
0.982337
1.00492
2.54368
3.32963
3.44472
3.44834
3.42495
3.39374
3.37204
3.35383
3.34307
3.34249
3.34126
3.35074
3.36339
3.38496
3.40294
3.42573
3.44017
3.45891
3.47499
3.49288
3.50887
3.52634
3.54493
3.56369
3.58412
3.60459
3.63021
3.65821
3.69712
3.73891
3.79692
3.86817
4.0552
4.28348
4.4478
1
1
1
1
1
1
1
1
1
1
1
1
1
1
1
1
1
1
1
1
1
1
1
1
1
1
1
1
1
1
1
1.00001
1.00001
1.00001
1.00001
1.00002
1.00002
1.00003
1.00003
1.00004
1.00005
1.00006
1.00006
1.00007
1.00008
1.00009
1.0001
1.00012
1.00013
1.00015
1.00017
1.00019
1.00021
1.00024
1.00026
1.0003
1.00033
1.00037
1.00041
1.00045
1.0005
1.00056
1.00061
1.00068
1.00075
1.00083
1.00092
1.00101
1.00113
1.00125
1.00139
1.00154
1.00174
1.00193
1.00216
1.00245
1.00263
1.00279
1.00272
1.00294
1.00396
1.00539
1.02149
1.49686
3.13477
3.39087
3.47092
3.445
3.41374
3.38847
3.36458
3.34895
3.33835
3.33725
3.33484
3.34442
3.35725
3.37917
3.39706
3.42067
3.43569
3.45496
3.47102
3.48948
3.50614
3.52415
3.54319
3.56239
3.58404
3.60591
3.63341
3.6632
3.70353
3.74703
3.80644
3.88101
4.07918
4.30375
4.43391
1
1
1
1
1
1
1
1
1
1
1
1
1
1
1
1
1
1
1
1
1
1
1
1
1
1
1
1
1
1
1
1.00001
1.00001
1.00001
1.00002
1.00002
1.00003
1.00004
1.00004
1.00005
1.00006
1.00007
1.00008
1.0001
1.00011
1.00013
1.00014
1.00016
1.00018
1.00021
1.00023
1.00026
1.0003
1.00033
1.00037
1.00042
1.00047
1.00052
1.00058
1.00065
1.00072
1.0008
1.0009
1.001
1.00111
1.00123
1.00138
1.00154
1.00172
1.00194
1.00218
1.00247
1.00277
1.00314
1.00352
1.00411
1.00486
1.00552
1.00639
1.00633
1.00721
1.00261
1.03018
2.43213
3.36873
3.48759
3.4549
3.43726
3.39775
3.37555
3.35579
3.34537
3.33738
3.33478
3.33204
3.3414
3.35492
3.37693
3.39514
3.41812
3.43244
3.45146
3.46741
3.48626
3.50331
3.52185
3.54125
3.5608
3.58359
3.6068
3.63588
3.66721
3.7087
3.75425
3.81455
3.89467
4.1031
4.32197
4.41675
1
1
1
1
1
1
1
1
1
1
1
1
1
1
1
1
1
1
1
1
1
1
1
1
1
1
1
1
1
1
1.00001
1.00001
1.00001
1.00002
1.00002
1.00003
1.00003
1.00004
1.00005
1.00006
1.00008
1.00009
1.0001
1.00012
1.00014
1.00016
1.00018
1.0002
1.00023
1.00026
1.00029
1.00033
1.00037
1.00042
1.00047
1.00053
1.00059
1.00066
1.00074
1.00082
1.00092
1.00102
1.00114
1.00127
1.00141
1.00158
1.00176
1.00197
1.0022
1.00247
1.00279
1.00317
1.00362
1.00413
1.00469
1.00529
1.00604
1.00695
1.00854
1.01061
1.01301
1.01844
1.31165
3.06914
3.41909
3.48081
3.44489
3.41547
3.38512
3.36466
3.34985
3.33979
3.33227
3.32953
3.32684
3.33601
3.34975
3.37199
3.39097
3.41405
3.428
3.44705
3.46332
3.4825
3.49962
3.51873
3.53883
3.55893
3.58329
3.6083
3.63925
3.67211
3.71427
3.76112
3.82291
3.9076
4.12534
4.34044
4.39742
1
1
1
1
1
1
1
1
1
1
1
1
1
1
1
1
1
1
1
1
1
1
1
1
1
1
1
1
1
1
1.00001
1.00001
1.00001
1.00002
1.00002
1.00003
1.00004
1.00005
1.00006
1.00007
1.00009
1.0001
1.00012
1.00014
1.00016
1.00018
1.00021
1.00024
1.00027
1.00031
1.00035
1.00039
1.00044
1.0005
1.00056
1.00063
1.0007
1.00078
1.00087
1.00097
1.00108
1.00121
1.00134
1.00149
1.00166
1.00185
1.00206
1.0023
1.00257
1.00287
1.00323
1.00363
1.00415
1.00479
1.00556
1.00639
1.00714
1.00809
1.0089
1.01065
1.01228
1.02924
2.26264
3.38017
3.50397
3.44947
3.42983
3.39255
3.36954
3.35207
3.33867
3.3314
3.32436
3.32238
3.32007
3.32977
3.34393
3.36595
3.38551
3.40884
3.42272
3.44225
3.45932
3.47906
3.49617
3.51626
3.53719
3.55787
3.58358
3.61013
3.64217
3.67598
3.71913
3.76713
3.83117
3.9186
4.1476
4.35788
4.37629
1
1
1
1
1
1
1
1
1
1
1
1
1
1
1
1
1
1
1
1
1
1
1
1
1
1
1
1
1
1.00001
1.00001
1.00001
1.00001
1.00002
1.00003
1.00003
1.00004
1.00006
1.00007
1.00008
1.0001
1.00012
1.00014
1.00016
1.00018
1.00021
1.00024
1.00027
1.00031
1.00035
1.00039
1.00045
1.0005
1.00056
1.00063
1.00071
1.0008
1.00089
1.00099
1.0011
1.00123
1.00136
1.00151
1.00168
1.00186
1.00206
1.00229
1.00254
1.00283
1.00316
1.00353
1.00396
1.00444
1.00504
1.00581
1.0069
1.0083
1.00958
1.01082
1.0112
1.01241
1.12353
2.95418
3.44615
3.47854
3.43652
3.40659
3.37882
3.35548
3.3415
3.32736
3.32241
3.31751
3.31692
3.31498
3.3241
3.33773
3.35896
3.37928
3.40302
3.41699
3.43685
3.45432
3.47426
3.4918
3.51282
3.53486
3.55665
3.58395
3.61213
3.64558
3.68077
3.72458
3.7735
3.8387
3.92934
4.16967
4.3731
4.35537
1
1
1
1
1
1
1
1
1
1
1
1
1
1
1
1
1
1
1
1
1
1
1
1
1
1
1
1
1
1.00001
1.00001
1.00001
1.00002
1.00002
1.00003
1.00004
1.00005
1.00006
1.00008
1.00009
1.00011
1.00013
1.00015
1.00018
1.0002
1.00023
1.00026
1.0003
1.00034
1.00039
1.00044
1.00049
1.00056
1.00063
1.0007
1.00079
1.00088
1.00098
1.0011
1.00122
1.00135
1.0015
1.00166
1.00183
1.00202
1.00223
1.00246
1.00272
1.003
1.00332
1.00369
1.00414
1.00467
1.00523
1.00584
1.00658
1.00769
1.00919
1.01271
1.0148
1.01886
1.98022
3.3529
3.48512
3.43263
3.41368
3.3882
3.36543
3.34272
3.32878
3.31444
3.31073
3.30638
3.30723
3.3057
3.31513
3.32875
3.34983
3.37113
3.39562
3.41029
3.43098
3.44906
3.46959
3.48776
3.50982
3.53316
3.556
3.58461
3.61426
3.64851
3.68444
3.72861
3.7787
3.84545
3.94011
4.19284
4.38645
4.33201
1
1
1
1
1
1
1
1
1
1
1
1
1
1
1
1
1
1
1
1
1
1
1
1
1
1
1
1
1
1.00001
1.00001
1.00001
1.00002
1.00002
1.00003
1.00004
1.00005
1.00007
1.00008
1.0001
1.00012
1.00014
1.00016
1.00019
1.00022
1.00025
1.00028
1.00032
1.00037
1.00042
1.00047
1.00054
1.00061
1.00068
1.00077
1.00086
1.00096
1.00107
1.00119
1.00132
1.00146
1.00162
1.00179
1.00197
1.00216
1.00238
1.00261
1.00286
1.00313
1.00343
1.00376
1.00414
1.00461
1.00518
1.00583
1.00652
1.00703
1.00768
1.00827
1.01088
1.01399
2.82438
3.41536
3.45716
3.41387
3.39371
3.36986
3.34701
3.33135
3.31934
3.30638
3.301
3.29596
3.29721
3.29618
3.30584
3.31992
3.3405
3.36263
3.3875
3.40278
3.42408
3.44283
3.46371
3.48269
3.50583
3.53036
3.55421
3.58453
3.61572
3.65139
3.68872
3.73339
3.78422
3.85212
3.9504
4.21591
4.39889
4.31021
1
1
1
1
1
1
1
1
1
1
1
1
1
1
1
1
1
1
1
1
1
1
1
1
1
1
1
1
1
1.00001
1.00001
1.00001
1.00002
1.00003
1.00003
1.00004
1.00006
1.00007
1.00009
1.0001
1.00013
1.00015
1.00017
1.0002
1.00023
1.00027
1.0003
1.00035
1.00039
1.00045
1.00051
1.00058
1.00065
1.00073
1.00082
1.00092
1.00103
1.00115
1.00128
1.00142
1.00157
1.00173
1.00191
1.0021
1.0023
1.00252
1.00275
1.00298
1.00324
1.00352
1.00382
1.00415
1.00453
1.00495
1.00538
1.00608
1.00695
1.0087
1.00995
1.01249
1.68003
3.24757
3.4449
3.41269
3.39337
3.36873
3.34418
3.32735
3.31536
3.30459
3.29309
3.2889
3.2846
3.28587
3.28508
3.29495
3.30896
3.32935
3.35225
3.37752
3.39394
3.41636
3.4359
3.45755
3.4777
3.50222
3.52792
3.55322
3.58484
3.61694
3.65366
3.69131
3.73674
3.78874
3.8583
3.96146
4.23855
4.40956
4.29155
1
1
1
1
1
1
1
1
1
1
1
1
1
1
1
1
1
1
1
1
1
1
1
1
1
1
1
1
1
1.00001
1.00001
1.00001
1.00002
1.00003
1.00003
1.00005
1.00006
1.00007
1.00009
1.00011
1.00013
1.00016
1.00018
1.00021
1.00024
1.00028
1.00032
1.00036
1.00042
1.00047
1.00054
1.00061
1.00069
1.00078
1.00087
1.00098
1.0011
1.00122
1.00136
1.00151
1.00168
1.00185
1.00204
1.00223
1.00244
1.00266
1.00289
1.00314
1.00337
1.00362
1.00389
1.00416
1.00444
1.00478
1.00522
1.00577
1.00625
1.00607
1.00748
0.99375
2.60317
3.3794
3.43517
3.3887
3.36963
3.34478
3.32378
3.31331
3.30003
3.28895
3.28007
3.27827
3.27424
3.27386
3.27336
3.28326
3.29727
3.31778
3.34127
3.3674
3.38508
3.40795
3.42811
3.4501
3.4716
3.49717
3.5242
3.5513
3.58455
3.61788
3.65632
3.69469
3.74088
3.79358
3.86431
3.97191
4.25831
4.41977
4.27141
1
1
1
1
1
1
1
1
1
1
1
1
1
1
1
1
1
1
1
1
1
1
1
1
1
1
1
1
1
1.00001
1.00001
1.00001
1.00002
1.00003
1.00004
1.00005
1.00006
1.00007
1.00009
1.00011
1.00014
1.00016
1.00019
1.00022
1.00025
1.00029
1.00033
1.00038
1.00043
1.00049
1.00056
1.00064
1.00072
1.00082
1.00092
1.00104
1.00116
1.0013
1.00145
1.00161
1.00179
1.00197
1.00217
1.00239
1.00261
1.00283
1.00307
1.0033
1.00354
1.0038
1.00406
1.00429
1.00444
1.00458
1.00472
1.00468
1.00502
1.00508
1.00929
1.41421
3.06928
3.40103
3.38176
3.3621
3.33971
3.32334
3.30672
3.29642
3.28004
3.27154
3.26618
3.26445
3.26264
3.26187
3.26126
3.27016
3.28456
3.30469
3.32888
3.35622
3.37489
3.3989
3.41955
3.44224
3.46509
3.49219
3.52062
3.55027
3.58483
3.61867
3.65819
3.69657
3.74355
3.79719
3.86977
3.98396
4.28018
4.42878
4.25387
1
1
1
1
1
1
1
1
1
1
1
1
1
1
1
1
1
1
1
1
1
1
1
1
1
1
1
1
1
1.00001
1.00001
1.00001
1.00002
1.00003
1.00004
1.00005
1.00006
1.00008
1.00009
1.00011
1.00014
1.00016
1.00019
1.00022
1.00026
1.0003
1.00034
1.00039
1.00045
1.00051
1.00058
1.00066
1.00075
1.00085
1.00097
1.00109
1.00122
1.00137
1.00153
1.00171
1.0019
1.0021
1.00232
1.00255
1.0028
1.00305
1.0033
1.00357
1.00381
1.00405
1.00424
1.00444
1.00465
1.00485
1.00505
1.00519
1.0048
1.00577
0.991127
2.27848
3.31273
3.3827
3.34819
3.33202
3.3152
3.30469
3.29374
3.27952
3.26368
3.25548
3.2498
3.24796
3.24779
3.24894
3.24919
3.25748
3.27153
3.29104
3.31532
3.34475
3.36495
3.38963
3.4113
3.43453
3.45857
3.48623
3.51623
3.54794
3.58384
3.61898
3.6601
3.69947
3.74743
3.80134
3.87554
3.9951
4.29543
4.43694
4.23175
1
1
1
1
1
1
1
1
1
1
1
1
1
1
1
1
1
1
1
1
1
1
1
1
1
1
1
1
1
1.00001
1.00001
1.00001
1.00002
1.00003
1.00004
1.00005
1.00006
1.00007
1.00009
1.00011
1.00014
1.00016
1.00019
1.00023
1.00026
1.0003
1.00035
1.0004
1.00046
1.00052
1.0006
1.00068
1.00078
1.00088
1.001
1.00113
1.00128
1.00144
1.00162
1.00181
1.00202
1.00224
1.00248
1.00274
1.00301
1.00329
1.00358
1.00387
1.00415
1.00444
1.00471
1.00486
1.00499
1.00502
1.00488
1.00486
1.00376
1.00821
1.15746
2.82581
3.3323
3.3324
3.3129
3.29845
3.2921
3.28278
3.27379
3.26004
3.24863
3.24039
3.23541
3.2324
3.23136
3.23399
3.23581
3.24405
3.25815
3.27648
3.30167
3.33235
3.35301
3.37988
3.40187
3.42645
3.45203
3.48132
3.51261
3.54652
3.58367
3.61915
3.66121
3.70063
3.7492
3.80403
3.88039
4.00762
4.31645
4.44439
4.21304
1
1
1
1
1
1
1
1
1
1
1
1
1
1
1
1
1
1
1
1
1
1
1
1
1
1
1
1
1
1.00001
1.00001
1.00001
1.00002
1.00003
1.00003
1.00005
1.00006
1.00007
1.00009
1.00011
1.00014
1.00016
1.00019
1.00022
1.00026
1.0003
1.00035
1.0004
1.00046
1.00053
1.00061
1.0007
1.0008
1.00091
1.00103
1.00117
1.00133
1.0015
1.00169
1.0019
1.00213
1.00238
1.00265
1.00294
1.00324
1.00357
1.0039
1.00424
1.00459
1.00491
1.00521
1.00547
1.00569
1.006
1.00633
1.00657
1.00639
0.998593
1.87737
3.16477
3.30813
3.29395
3.27766
3.26931
3.2681
3.26003
3.25146
3.24048
3.23321
3.22401
3.21971
3.21727
3.21683
3.21872
3.22128
3.2293
3.24314
3.26108
3.28744
3.31851
3.34156
3.36867
3.39276
3.41838
3.44511
3.47574
3.50796
3.54415
3.58195
3.61836
3.6615
3.70289
3.75283
3.80772
3.88628
4.01779
4.33077
4.4501
4.18761
1
1
1
1
1
1
1
1
1
1
1
1
1
1
1
1
1
1
1
1
1
1
1
1
1
1
1
1
1
1.00001
1.00001
1.00001
1.00002
1.00003
1.00003
1.00004
1.00006
1.00007
1.00009
1.00011
1.00013
1.00016
1.00019
1.00022
1.00026
1.00029
1.00034
1.0004
1.00046
1.00053
1.00061
1.0007
1.0008
1.00092
1.00105
1.0012
1.00136
1.00155
1.00175
1.00198
1.00223
1.00251
1.00281
1.00313
1.00348
1.00385
1.00425
1.00465
1.00506
1.00548
1.00585
1.00621
1.00632
1.00631
1.00605
1.00434
1.00584
0.981842
2.52469
3.21442
3.27176
3.26069
3.24685
3.24308
3.23858
3.23459
3.23033
3.22226
3.21589
3.208
3.20344
3.20076
3.20141
3.20202
3.20598
3.21429
3.2276
3.24633
3.27362
3.30564
3.3305
3.35874
3.38384
3.41012
3.43902
3.47003
3.50478
3.54164
3.58112
3.61737
3.66147
3.70262
3.75304
3.80951
3.89083
4.03041
4.35228
4.45578
4.16817
1
1
1
1
1
1
1
1
1
1
1
1
1
1
1
1
1
1
1
1
1
1
1
1
1
1
1
1
1
1.00001
1.00001
1.00001
1.00002
1.00002
1.00003
1.00004
1.00005
1.00007
1.00009
1.00011
1.00013
1.00015
1.00018
1.00021
1.00025
1.00029
1.00034
1.00039
1.00045
1.00052
1.00061
1.0007
1.00081
1.00092
1.00106
1.00121
1.00139
1.00158
1.0018
1.00204
1.00231
1.00262
1.00294
1.00331
1.0037
1.00414
1.0046
1.00506
1.00553
1.006
1.00643
1.0069
1.00745
1.00793
1.0093
1.01142
1.01546
1.43049
2.91093
3.23568
3.23246
3.22231
3.21824
3.21494
3.21026
3.20912
3.20697
3.20248
3.19689
3.19077
3.18659
3.18504
3.18704
3.1861
3.19099
3.19859
3.21103
3.22964
3.2581
3.29109
3.31712
3.34746
3.37326
3.40266
3.4313
3.46498
3.49913
3.53861
3.57845
3.61605
3.66115
3.70417
3.75546
3.81214
3.8952
4.03975
4.36314
4.45892
4.14591
1
1
1
1
1
1
1
1
1
1
1
1
1
1
1
1
1
1
1
1
1
1
1
1
1
1
1
1
1
1.00001
1.00001
1.00001
1.00002
1.00002
1.00003
1.00004
1.00005
1.00006
1.00008
1.0001
1.00012
1.00015
1.00017
1.0002
1.00024
1.00028
1.00032
1.00038
1.00044
1.00051
1.00059
1.00069
1.00079
1.00091
1.00106
1.00121
1.00139
1.00159
1.00182
1.00208
1.00237
1.00269
1.00305
1.00346
1.00389
1.00437
1.00488
1.00541
1.00597
1.0066
1.0073
1.00804
1.00872
1.00911
1.00856
1.00803
0.994859
2.05126
3.09829
3.20599
3.19879
3.19132
3.18596
3.18467
3.18512
3.18576
3.18258
3.17947
3.17504
3.17239
3.17049
3.16937
3.17219
3.17099
3.17558
3.18338
3.19433
3.21397
3.24386
3.27651
3.30672
3.33534
3.36533
3.3935
3.42515
3.45843
3.49598
3.53454
3.57635
3.61351
3.65893
3.70265
3.75438
3.8125
3.89932
4.05275
4.38087
4.46263
4.12828
1
1
1
1
1
1
1
1
1
1
1
1
1
1
1
1