/*--------------------------------*- C++ -*----------------------------------*\
| =========                 |                                                 |
| \\      /  F ield         | OpenFOAM: The Open Source CFD Toolbox           |
|  \\    /   O peration     | Version:  2.2.x                                 |
|   \\  /    A nd           | Web:      www.OpenFOAM.org                      |
|    \\/     M anipulation  |                                                 |
\*---------------------------------------------------------------------------*/
FoamFile
{
    version     2.0;
    format      ascii;
    class       volScalarField;
    location    "0.07";
    object      By;
}
// * * * * * * * * * * * * * * * * * * * * * * * * * * * * * * * * * * * * * //

dimensions      [1 0 -2 0 0 -1 0];

internalField   nonuniform List<scalar> 
1024
(
-1
-1
-1
-1
-1
-1
-1
-1
-1
-1
-1
-1
-1
-1
-1
-1
-1
-1
-1
-1
-1
-1
-1
-1
-1
-1
-1
-1
-1
-1
-1
-1
-1
-1
-1
-1
-1
-1
-1
-1
-1
-1
-1
-1
-1
-1
-1
-1
-1
-1
-1
-1
-1
-1
-1
-1
-1
-1
-1
-1
-1
-1
-1
-1
-1
-1
-1
-1
-1
-1
-1
-1
-1
-1
-1
-1
-1
-1
-1
-1
-1
-1
-1
-1
-1
-1
-1
-1
-1
-1
-1
-1
-1
-1
-1
-1
-1
-1
-1
-1
-1
-1
-1
-1
-1
-1
-1
-1
-1
-1
-1
-1
-1
-1
-1
-1
-1
-1
-1
-1
-1
-1
-1
-1
-1
-1
-1
-1
-1
-1
-1
-1
-1
-1
-1
-1
-1
-1
-1
-1
-1
-1
-1
-1
-1
-1
-1
-1
-1
-1
-1
-1
-1
-1
-1
-1
-1
-1
-1
-1
-1
-1
-1
-1
-1
-1
-1
-1
-1
-1
-1
-1
-1
-1
-1
-1
-1
-1
-1
-1
-1
-1
-1
-1
-1
-1
-1
-1
-1
-1
-1
-1
-1
-1
-1
-1
-1
-1
-1
-1
-1
-1
-1
-1
-1
-1
-1
-1
-1
-1
-1
-1
-1
-1
-1
-1
-1
-1
-1
-1
-1
-1
-0.999999
-0.999999
-0.999999
-0.999998
-0.999996
-0.999994
-0.999991
-0.999986
-0.999979
-0.999967
-0.999951
-0.999926
-0.99989
-0.999838
-0.999764
-0.999661
-0.999518
-0.999322
-0.999058
-0.998709
-0.998252
-0.997664
-0.996922
-0.995999
-0.994871
-0.993519
-0.991927
-0.990087
-0.988001
-0.985681
-0.983152
-0.980449
-0.977649
-0.974915
-0.972157
-0.969433
-0.9667
-0.963981
-0.961238
-0.958506
-0.955756
-0.952997
-0.950169
-0.947279
-0.944161
-0.940868
-0.937428
-0.934716
-0.931633
-0.929337
-0.926808
-0.924628
-0.922102
-0.919589
-0.916856
-0.914086
-0.911001
-0.907947
-0.905492
-0.902953
-0.900976
-0.898935
-0.896902
-0.894973
-0.893026
-0.89165
-0.889953
-0.889131
-0.887939
-0.887509
-0.886721
-0.886389
-0.885856
-0.885509
-0.885268
-0.885114
-0.885025
-0.884955
-0.885017
-0.885087
-0.885422
-0.885658
-0.886154
-0.886383
-0.886803
-0.887001
-0.887321
-0.887487
-0.88772
-0.887849
-0.888036
-0.888147
-0.888297
-0.888397
-0.88853
-0.888624
-0.888735
-0.888808
-0.888865
-0.888911
-0.888966
-0.888976
-0.889002
-0.889006
-0.889016
-0.889006
-0.889003
-0.888986
-0.888975
-0.888942
-0.888933
-0.888906
-0.888901
-0.888884
-0.888884
-0.888875
-0.888876
-0.888871
-0.888865
-0.888845
-0.888816
-0.888748
-0.888676
-0.888559
-0.88848
-0.888412
-0.888338
-0.888299
-0.88825
-0.888244
-0.888232
-0.888237
-0.888251
-0.888295
-0.888341
-0.88838
-0.888391
-0.888412
-0.888422
-0.888432
-0.888419
-0.888381
-0.888308
-0.888221
-0.888114
-0.888072
-0.888001
-0.887975
-0.887938
-0.88794
-0.887933
-0.887957
-0.887986
-0.888013
-0.888025
-0.888042
-0.888044
-0.888049
-0.888032
-0.88797
-0.887926
-0.887855
-0.887798
-0.887755
-0.887716
-0.887698
-0.887682
-0.887684
-0.887676
-0.887704
-0.887727
-0.887749
-0.887758
-0.887771
-0.887766
-0.887753
-0.887709
-0.887665
-0.887585
-0.887546
-0.887505
-0.887475
-0.88746
-0.887457
-0.887454
-0.88747
-0.887477
-0.887514
-0.887534
-0.887525
-0.887113
-0.88392
-0.855107
-0.706674
-0.566179
-0.581189
-0.530771
-0.536577
-0.536528
-0.535769
-0.537735
-0.537259
-0.537178
-0.537071
-0.537068
-0.537212
-0.53722
-0.53714
-0.537095
-0.537052
-0.537038
-0.53705
-0.537025
-0.537036
-0.537082
-0.537116
-0.537153
-0.537156
-0.537152
-0.537126
-0.537082
-0.537023
-0.536987
-0.536982
-0.53699
-0.537018
-0.537062
-0.537114
-0.537164
-0.537194
-0.537211
-0.537206
-0.537182
-0.537112
-0.537028
-0.536997
-0.536967
-0.536953
-0.536985
-0.537012
-0.537086
-0.537134
-0.537158
-0.53716
-0.53712
-0.537049
-0.536976
-0.536939
-0.536963
-0.537079
-0.537247
-0.537389
-0.537465
-0.537448
-0.537312
-0.537193
-0.537154
-0.537207
-0.537384
-0.537561
-0.537632
-0.537539
-0.537315
-0.537164
-0.53714
-0.537262
-0.537649
-0.537933
-0.538017
-0.53793
-0.537465
-0.537154
-0.537055
-0.537131
-0.537678
-0.538391
-0.53873
-0.538717
-0.538016
-0.537216
-0.536864
-0.536804
-0.537389
-0.538666
-0.539582
-0.539936
-0.539174
-0.537727
-0.535749
-0.533913
-0.533641
-0.534079
-0.533554
-0.530142
-0.521819
-0.511353
-0.502213
-0.492891
-0.482003
-0.470314
-0.457855
-0.441385
-0.426419
-0.410017
-0.386001
-0.356962
-0.331183
-0.303092
-0.27035
-0.192365
0.0173569
0.331887
0.491243
0.525132
0.532027
0.533379
0.533624
0.533676
0.533686
0.533727
0.533753
0.533726
0.53365
0.533598
0.53355
0.533274
0.532951
0.532383
0.531633
0.530731
0.529293
0.528364
0.527995
0.528065
0.528172
0.528395
0.52955
0.531034
0.532285
0.534775
0.538133
0.541192
0.545009
0.549867
0.554521
0.559604
0.565343
0.57088
0.576732
0.582759
0.588836
0.594948
0.601193
0.607384
0.613568
0.619808
0.626127
0.632379
0.638702
0.644976
0.651243
0.657608
0.663893
0.670318
0.676695
0.683108
0.689479
0.695889
0.702253
0.708687
0.715088
0.72156
0.727999
0.734502
0.74097
0.747509
0.754021
0.760593
0.767141
0.773737
0.780316
0.786936
0.793547
0.800194
0.806833
0.813491
0.820145
0.826809
0.833472
0.840159
0.84684
0.853563
0.860277
0.86703
0.873778
0.88054
0.8873
0.894053
0.900793
0.907508
0.91418
0.920769
0.927265
0.933657
0.939925
0.946045
0.951983
0.957702
0.96316
0.968311
0.97311
0.977516
0.981493
0.985019
0.988082
0.990688
0.992858
0.994624
0.996028
0.99712
0.99795
0.998567
0.999016
0.999336
0.999559
0.999712
0.999815
0.999883
0.999927
0.999955
0.999973
0.999984
0.99999
0.999994
0.999997
0.999998
0.999999
0.999999
1
1
1
1
1
1
1
1
1
1
1
1
1
1
1
1
1
1
1
1
1
1
1
1
1
1
1
1
1
1
1
1
1
1
1
1
1
1
1
1
1
1
1
1
1
1
1
1
1
1
1
1
1
1
1
1
1
1
1
1
1
1
1
1
1
1
1
1
1
1
1
1
1
1
1
1
1
1
1
1
1
1
1
1
1
1
1
1
1
1
1
1
1
1
1
1
1
1
1
1
1
1
1
1
1
1
1
1
1
1
1
1
1
1
1
1
1
1
1
1
1
1
1
1
1
1
1
1
1
1
1
1
1
1
1
1
1
1
1
1
1
1
1
1
1
1
1
1
1
1
1
1
1
1
1
1
1
1
1
1
1
1
1
1
1
1
1
1
1
1
1
1
1
1
1
1
1
1
1
1
1
1
1
1
1
1
1
1
1
1
1
1
1
1
1
1
1
1
1
1
1
1
1
1
1
1
1
1
1
1
1
1
1
1
1
1
1
1
1
1
1
1
1
1
1
1
1
1
1
1
1
1
1
1
1
1
1
1
1
1
1
1
1
1
1
1
1
1
1
1
1
1
1
1
1
1
1
1
1
1
1
1
1
1
1
1
1
1
1
1
1
1
1
1
1
1
1
1
1
1
1
1
1
1
1
1
1
1
1
1
1
1
1
1
1
1
1
1
1
1
1
1
1
1
1
1
1
1
1
1
1
1
1
1
1
1
1
1
1
1
1
1
1
1
1
1
1
1
1
1
1
1
1
1
1
1
1
1
1
1
1
1
1
1
1
1
1
1
1
1
1
1
1
1
1
1
1
1
1
1
1
1
1
1
)
;

boundaryField
{
    front-back
    {
        type            empty;
    }
    inlet-outlet
    {
        type            zeroGradient;
    }
    top-down
    {
        type            empty;
    }
}


// ************************************************************************* //
