/*--------------------------------*- C++ -*----------------------------------*\
| =========                 |                                                 |
| \\      /  F ield         | OpenFOAM: The Open Source CFD Toolbox           |
|  \\    /   O peration     | Version:  2.2.x                                 |
|   \\  /    A nd           | Web:      www.OpenFOAM.org                      |
|    \\/     M anipulation  |                                                 |
\*---------------------------------------------------------------------------*/
FoamFile
{
    version     2.0;
    format      ascii;
    class       volScalarField;
    location    "1.85";
    object      p;
}
// * * * * * * * * * * * * * * * * * * * * * * * * * * * * * * * * * * * * * //

dimensions      [1 -1 -2 0 0 0 0];

internalField   nonuniform List<scalar> 
14161
(
0.19212
0.192752
0.192425
0.192065
0.191603
0.191042
0.190443
0.189741
0.18893
0.188124
0.187284
0.186257
0.185326
0.184414
0.183332
0.182381
0.181483
0.180584
0.179748
0.179009
0.178414
0.177912
0.177555
0.177152
0.176878
0.176856
0.176924
0.177079
0.177314
0.177663
0.178097
0.178816
0.179587
0.18007
0.180108
0.178611
0.172862
0.159216
0.144944
0.488809
1.35783
1.19894
1.1529
1.15335
1.16097
1.16141
1.15844
1.15776
1.15636
1.15183
1.14684
1.14036
1.13525
1.12916
1.12156
1.11258
1.10436
1.09634
1.08906
1.08175
1.07453
1.06716
1.06021
1.05395
1.04837
1.04431
1.04106
1.03918
1.03933
1.04125
1.04429
1.04804
1.05385
1.06055
1.06791
1.07651
1.08646
1.09973
1.11779
1.13331
1.14717
1.15851
1.16774
1.17644
1.18657
1.1939
1.19871
1.20237
1.20681
1.21402
1.22287
1.23336
1.24012
1.24409
1.24971
1.25049
1.25096
1.25551
1.26776
1.28792
1.31211
1.34338
1.3779
1.42005
1.46751
1.52019
1.57757
1.63487
1.69025
1.74413
1.79243
1.83888
1.87975
1.92063
1.95194
1.97901
1.99876
2.0069
2.02044
0.192107
0.192741
0.192415
0.192054
0.191594
0.191036
0.190425
0.189724
0.188918
0.188108
0.187263
0.186241
0.185306
0.184389
0.18332
0.18237
0.181458
0.180561
0.17973
0.178984
0.178375
0.177873
0.177512
0.177106
0.176833
0.176801
0.176859
0.177003
0.177225
0.17755
0.177972
0.178655
0.179468
0.180007
0.180343
0.179665
0.177865
0.172721
0.185099
0.876086
1.42312
1.44018
1.44224
1.44869
1.45287
1.44323
1.4265
1.41222
1.39739
1.37944
1.36253
1.34545
1.32982
1.31351
1.29755
1.28095
1.26526
1.2511
1.23671
1.2234
1.21075
1.19872
1.1871
1.17681
1.16733
1.15952
1.15296
1.1474
1.14308
1.14027
1.13775
1.13561
1.13463
1.13608
1.13989
1.1434
1.14947
1.1663
1.19092
1.20458
1.21796
1.23689
1.2529
1.25989
1.26428
1.28048
1.29188
1.28722
1.30379
1.34864
1.38056
1.42005
1.4621
1.4948
1.51866
1.53906
1.55987
1.58604
1.61132
1.63322
1.65605
1.68141
1.70509
1.72361
1.74605
1.77304
1.79635
1.82255
1.84811
1.87356
1.89813
1.92341
1.94722
1.97062
1.98888
2.00067
2.01015
2.01627
2.02719
0.192104
0.192735
0.192407
0.192041
0.191585
0.191037
0.190414
0.189723
0.188921
0.188103
0.187245
0.186238
0.185298
0.184374
0.183333
0.182367
0.181448
0.180545
0.179719
0.178961
0.178334
0.177835
0.177475
0.177082
0.17682
0.176787
0.176861
0.177027
0.177269
0.177626
0.178075
0.178909
0.179841
0.180775
0.181989
0.183902
0.187732
0.194704
0.257639
1.19792
1.55916
1.62191
1.63056
1.61468
1.60081
1.57751
1.54623
1.51806
1.49167
1.46349
1.43511
1.40732
1.38133
1.35664
1.33317
1.30963
1.28678
1.26638
1.24725
1.2312
1.21651
1.20447
1.19331
1.18305
1.17434
1.16742
1.16178
1.15645
1.15232
1.14951
1.14784
1.14834
1.15045
1.15102
1.1535
1.16347
1.17708
1.18962
1.19928
1.22919
1.25734
1.25931
1.27037
1.31151
1.33013
1.32556
1.36195
1.44153
1.46799
1.51976
1.64303
1.71358
1.74847
1.78778
1.82407
1.83995
1.85553
1.86759
1.87762
1.89
1.89932
1.90409
1.91138
1.91821
1.92495
1.92909
1.93486
1.9407
1.94573
1.95029
1.95622
1.96287
1.97042
1.98331
1.99243
2.00048
2.00268
2.00956
2.02029
0.192094
0.192724
0.192398
0.192034
0.191568
0.191011
0.190404
0.189707
0.188915
0.18807
0.187206
0.18623
0.185274
0.184339
0.183318
0.182329
0.181402
0.18051
0.179678
0.17892
0.17828
0.177778
0.177397
0.176995
0.176706
0.176649
0.176687
0.176821
0.177025
0.177336
0.177748
0.178365
0.179345
0.180346
0.181797
0.183782
0.187232
0.189538
0.339257
1.34054
1.64175
1.71888
1.71442
1.66916
1.63836
1.61458
1.57464
1.54087
1.51171
1.48022
1.44799
1.41781
1.39011
1.3615
1.33573
1.30931
1.28452
1.26092
1.2415
1.22454
1.2095
1.19472
1.18146
1.16959
1.15876
1.14976
1.14164
1.13553
1.13099
1.12693
1.12421
1.12345
1.12399
1.1271
1.13085
1.13642
1.14554
1.17222
1.19784
1.21273
1.23235
1.27222
1.29535
1.29236
1.32825
1.41914
1.44999
1.44392
1.57235
1.67299
1.67278
1.74556
1.82995
1.85805
1.87526
1.89463
1.91381
1.92519
1.93294
1.93856
1.94628
1.94856
1.94966
1.95252
1.95747
1.95824
1.9639
1.9687
1.97143
1.97441
1.9766
1.97745
1.97954
1.98371
1.98842
1.99368
1.99694
1.99732
2.0063
0.192093
0.192719
0.192392
0.192029
0.191567
0.191019
0.190389
0.189687
0.188907
0.188056
0.187188
0.186253
0.185262
0.184282
0.183311
0.182315
0.181359
0.18049
0.17966
0.178892
0.178217
0.177711
0.177334
0.176928
0.176646
0.176601
0.17665
0.176807
0.177053
0.177385
0.177832
0.17854
0.179676
0.181138
0.18335
0.187502
0.197366
0.204974
0.379959
1.40056
1.66447
1.71013
1.69177
1.6546
1.62081
1.59228
1.55703
1.51946
1.48482
1.44954
1.41528
1.38196
1.35124
1.32241
1.29529
1.27312
1.25157
1.23282
1.217
1.20071
1.18724
1.17463
1.16436
1.15503
1.14596
1.13983
1.1346
1.12993
1.12647
1.1239
1.12161
1.12027
1.12008
1.12184
1.12275
1.12992
1.13458
1.15032
1.16497
1.18452
1.20644
1.22377
1.24323
1.27895
1.32443
1.35198
1.39457
1.49573
1.52716
1.55161
1.67202
1.73843
1.76154
1.82828
1.88143
1.90547
1.91644
1.92874
1.94263
1.9509
1.95329
1.95147
1.95752
1.96075
1.95977
1.96198
1.96694
1.9684
1.97231
1.97605
1.97763
1.9778
1.97795
1.9823
1.98602
1.99176
1.99449
1.99616
2.00194
0.192086
0.19271
0.192382
0.192015
0.191551
0.191006
0.190361
0.189655
0.188902
0.188033
0.187141
0.186239
0.185223
0.184229
0.183263
0.182272
0.181303
0.180413
0.17958
0.178823
0.178123
0.17761
0.177227
0.17681
0.176459
0.176369
0.17637
0.176477
0.176659
0.176908
0.177249
0.177839
0.178656
0.179627
0.18083
0.182926
0.188119
0.193519
0.338096
1.28678
1.60437
1.66976
1.6282
1.5904
1.5484
1.51454
1.47246
1.43592
1.40125
1.37251
1.34349
1.32167
1.30145
1.2845
1.26399
1.25162
1.2365
1.22609
1.21241
1.20214
1.18952
1.18001
1.16996
1.16202
1.15455
1.14858
1.14328
1.13867
1.13459
1.13143
1.12879
1.12686
1.12534
1.12461
1.12776
1.12842
1.13694
1.14069
1.15997
1.17372
1.19098
1.20762
1.22479
1.24923
1.2688
1.31341
1.36118
1.40094
1.4245
1.50037
1.54988
1.60398
1.70268
1.76695
1.81877
1.86438
1.8978
1.9208
1.93236
1.93845
1.94919
1.957
1.95671
1.95389
1.95998
1.96294
1.9651
1.96872
1.97467
1.97876
1.98053
1.97958
1.97888
1.98363
1.9855
1.99064
1.99394
1.99503
2.00074
0.192085
0.192705
0.192375
0.192008
0.191542
0.190995
0.190347
0.189634
0.188894
0.18801
0.187109
0.186219
0.185199
0.184198
0.183239
0.182236
0.181243
0.180353
0.179512
0.178741
0.178039
0.177511
0.177123
0.176703
0.17634
0.176246
0.17626
0.176378
0.176559
0.176811
0.177142
0.177602
0.178236
0.178768
0.179407
0.180741
0.184004
0.190086
0.223633
1.10998
1.48292
1.54266
1.48293
1.44459
1.41018
1.38539
1.359
1.33636
1.31254
1.2983
1.28103
1.27011
1.25428
1.24875
1.23202
1.22726
1.21197
1.20759
1.19144
1.18609
1.1716
1.16588
1.15515
1.15039
1.14305
1.14004
1.13454
1.13216
1.12739
1.12541
1.12288
1.12144
1.11914
1.11929
1.11705
1.1198
1.11887
1.13333
1.13946
1.16169
1.17377
1.18942
1.20165
1.22251
1.24268
1.28929
1.31158
1.36467
1.36393
1.40561
1.45381
1.50667
1.5687
1.63387
1.72758
1.79887
1.85168
1.8861
1.91109
1.92831
1.93888
1.94267
1.94737
1.94897
1.94741
1.94705
1.95402
1.95851
1.96632
1.97389
1.97939
1.97853
1.97817
1.98309
1.98488
1.99051
1.99369
1.99541
1.99939
0.192079
0.192697
0.192365
0.191994
0.191524
0.190977
0.190324
0.18961
0.188874
0.187971
0.187073
0.186191
0.18514
0.184139
0.183182
0.182156
0.181161
0.180265
0.179416
0.178622
0.177906
0.177355
0.176946
0.176504
0.176086
0.175914
0.17587
0.175927
0.176049
0.176238
0.176513
0.1769
0.177352
0.177669
0.177339
0.176126
0.172039
0.160722
0.156109
0.665403
1.30541
1.28606
1.25136
1.23462
1.2298
1.23504
1.23624
1.24126
1.23508
1.24877
1.23828
1.24815
1.23225
1.23192
1.21637
1.21397
1.19796
1.19413
1.17845
1.17403
1.16019
1.15534
1.14551
1.1414
1.13451
1.1317
1.12628
1.12429
1.12018
1.11838
1.11553
1.1142
1.11128
1.1105
1.10921
1.11296
1.11028
1.12509
1.13043
1.1549
1.1663
1.18469
1.1964
1.21715
1.23748
1.27353
1.29687
1.32839
1.33985
1.34797
1.38519
1.41984
1.47266
1.53119
1.60635
1.68891
1.77238
1.83925
1.87891
1.90124
1.91885
1.93014
1.9384
1.93901
1.93672
1.93565
1.9372
1.94591
1.95824
1.96779
1.97766
1.97866
1.97865
1.98297
1.98535
1.99134
1.99415
1.9957
1.99905
0.192078
0.192692
0.192358
0.191985
0.191512
0.190963
0.190309
0.189588
0.188855
0.187941
0.187039
0.186159
0.185102
0.184089
0.183136
0.182102
0.181093
0.18019
0.179327
0.178506
0.177781
0.177212
0.176769
0.176336
0.175898
0.175711
0.175647
0.175683
0.175785
0.175916
0.176043
0.176095
0.175891
0.175412
0.174091
0.17095
0.163025
0.155492
0.151513
0.251628
1.2147
1.24591
1.17958
1.20616
1.20357
1.21456
1.22061
1.23136
1.23299
1.24401
1.23474
1.2344
1.22139
1.2171
1.2037
1.19926
1.1843
1.17924
1.16372
1.15779
1.14473
1.13879
1.12902
1.12446
1.11832
1.11556
1.11118
1.10928
1.10595
1.10471
1.10279
1.10254
1.10037
1.10157
1.10081
1.1052
1.10224
1.11749
1.12318
1.14955
1.16144
1.18106
1.19237
1.21704
1.24228
1.27662
1.32088
1.32638
1.34074
1.32894
1.34067
1.36459
1.40461
1.45003
1.5127
1.59124
1.67937
1.76351
1.83233
1.87391
1.90233
1.91617
1.92846
1.93186
1.93037
1.92429
1.92174
1.92821
1.93945
1.95227
1.96793
1.97416
1.97778
1.9823
1.98612
1.99226
1.99444
1.99529
1.99821
0.192073
0.192684
0.192348
0.191971
0.191494
0.190943
0.190287
0.18956
0.188824
0.18791
0.186997
0.186108
0.185052
0.18402
0.183055
0.182015
0.18099
0.180069
0.179189
0.178326
0.177612
0.176994
0.176516
0.176045
0.175572
0.175277
0.175155
0.175119
0.175178
0.175304
0.17554
0.175868
0.176202
0.176497
0.176518
0.175936
0.174604
0.173187
0.179606
0.50019
1.45551
1.3235
1.26374
1.24351
1.24065
1.24296
1.25082
1.25548
1.25702
1.26089
1.25028
1.24689
1.23406
1.22827
1.21217
1.20485
1.1889
1.1803
1.16324
1.15342
1.14055
1.13351
1.12373
1.11936
1.1128
1.11028
1.10529
1.10309
1.09967
1.09843
1.09666
1.0965
1.09499
1.09643
1.09509
1.0993
1.09517
1.10876
1.11276
1.14409
1.1623
1.18408
1.20243
1.23264
1.2625
1.32317
1.32576
1.35067
1.3322
1.34031
1.32444
1.33197
1.36169
1.39845
1.44747
1.51111
1.5912
1.68459
1.77394
1.83731
1.87812
1.90122
1.91839
1.92518
1.92571
1.92008
1.91226
1.91417
1.91978
1.93528
1.95515
1.96826
1.97456
1.98017
1.98643
1.99218
1.99463
1.99427
1.9974
0.192071
0.192679
0.19234
0.191961
0.191482
0.190926
0.190269
0.189532
0.18879
0.187884
0.186956
0.186048
0.185016
0.183956
0.182968
0.181938
0.180881
0.179952
0.179056
0.178163
0.17744
0.176794
0.176272
0.17577
0.175291
0.174954
0.1748
0.174723
0.174734
0.17476
0.174782
0.174781
0.174697
0.174485
0.174181
0.173829
0.173802
0.17619
0.190192
0.85399
1.48921
1.52177
1.45156
1.40478
1.38024
1.35825
1.34719
1.33482
1.32365
1.30437
1.29184
1.27214
1.26092
1.25005
1.22904
1.21643
1.19815
1.18645
1.16807
1.15861
1.14339
1.13612
1.12461
1.1199
1.11275
1.10961
1.1045
1.10208
1.09851
1.09661
1.09499
1.09422
1.0935
1.09461
1.09302
1.09643
1.09122
1.102
1.10153
1.13222
1.15688
1.17919
1.22117
1.25687
1.32002
1.33619
1.37135
1.352
1.35792
1.33313
1.33897
1.32276
1.3406
1.36898
1.40736
1.45986
1.52915
1.61606
1.71298
1.79773
1.85776
1.88837
1.90896
1.91873
1.9209
1.91622
1.90645
1.90215
1.90198
1.91389
1.92983
1.95288
1.96569
1.97627
1.98456
1.99001
1.99387
1.99228
1.99676
0.192065
0.192671
0.19233
0.191946
0.191464
0.190904
0.190248
0.189501
0.188743
0.187864
0.186909
0.185967
0.184974
0.183876
0.182863
0.181842
0.180751
0.1798
0.178875
0.177953
0.177205
0.176517
0.175937
0.175371
0.174844
0.174434
0.174175
0.174058
0.174044
0.174124
0.174333
0.174768
0.175429
0.176369
0.177938
0.180364
0.184546
0.192261
0.205376
1.03377
1.51651
1.5657
1.51629
1.46711
1.43548
1.40534
1.38533
1.36675
1.34964
1.32792
1.3118
1.28664
1.27175
1.25583
1.23886
1.22002
1.2025
1.18814
1.16836
1.1593
1.14284
1.13636
1.12251
1.11761
1.10939
1.10531
1.09938
1.09587
1.093
1.09002
1.08759
1.08578
1.08532
1.08569
1.08617
1.08756
1.08902
1.08815
1.11144
1.12101
1.16431
1.18404
1.24996
1.28741
1.35545
1.35676
1.38905
1.37655
1.38335
1.35951
1.35136
1.34816
1.34334
1.35785
1.38363
1.42211
1.47922
1.55537
1.64878
1.74653
1.82908
1.8745
1.90072
1.91472
1.91894
1.91435
1.90624
1.89509
1.89048
1.8956
1.90921
1.93063
1.95214
1.97003
1.98158
1.98672
1.99312
1.98925
1.99503
0.192062
0.192665
0.192321
0.191934
0.191448
0.190881
0.190227
0.18948
0.188685
0.18784
0.186858
0.18589
0.18491
0.183803
0.182755
0.181725
0.180629
0.179634
0.178684
0.17775
0.176947
0.176239
0.175613
0.17499
0.174435
0.173982
0.173653
0.173482
0.173389
0.173323
0.173333
0.17346
0.17355
0.173803
0.174346
0.175713
0.17744
0.181037
0.189882
0.992891
1.52126
1.56473
1.52252
1.47839
1.44588
1.41686
1.39606
1.37809
1.35964
1.33283
1.31947
1.29086
1.27606
1.24699
1.23143
1.20975
1.19727
1.17517
1.16129
1.15198
1.13314
1.1272
1.11173
1.10644
1.09776
1.09319
1.08708
1.0835
1.08109
1.07867
1.07543
1.07334
1.07305
1.06998
1.07078
1.06674
1.07118
1.06169
1.09034
1.09956
1.16058
1.18838
1.26373
1.28735
1.3379
1.33476
1.36881
1.36703
1.38624
1.38219
1.38127
1.36133
1.37271
1.36834
1.38811
1.41521
1.45492
1.51534
1.59632
1.69072
1.78417
1.84614
1.87864
1.8988
1.9095
1.90797
1.90265
1.889
1.87989
1.88014
1.88847
1.90597
1.93132
1.95422
1.97194
1.98229
1.99239
1.9868
1.99335
0.192055
0.192656
0.19231
0.191918
0.191427
0.190852
0.190201
0.189449
0.188632
0.187798
0.186796
0.185805
0.184826
0.183712
0.182627
0.181584
0.180483
0.179411
0.178454
0.177508
0.176611
0.17586
0.175179
0.174478
0.173838
0.173339
0.172943
0.172662
0.172535
0.172508
0.172658
0.173036
0.17367
0.174579
0.175828
0.177567
0.178486
0.181287
0.187963
0.875821
1.5024
1.52506
1.48047
1.43643
1.40347
1.37432
1.35315
1.33511
1.32024
1.29447
1.28406
1.25555
1.24649
1.20822
1.19129
1.16892
1.1566
1.12927
1.12644
1.10029
1.09059
1.08329
1.06612
1.05998
1.05213
1.04927
1.04422
1.04284
1.04259
1.04272
1.04221
1.04345
1.04293
1.04286
1.0446
1.03962
1.04532
1.03215
1.0655
1.07838
1.15442
1.19091
1.27095
1.27838
1.31677
1.30867
1.34546
1.35036
1.36462
1.36911
1.38934
1.38491
1.3705
1.37844
1.38266
1.41067
1.44322
1.49338
1.55751
1.64296
1.74217
1.82517
1.86868
1.89212
1.90663
1.90705
1.90259
1.88937
1.87248
1.86738
1.86991
1.88414
1.9087
1.93606
1.96185
1.97622
1.98909
1.98417
1.99269
0.19205
0.192649
0.1923
0.191903
0.191408
0.190822
0.190173
0.189414
0.188579
0.187748
0.186744
0.185722
0.184735
0.183627
0.182487
0.181435
0.180341
0.179179
0.178201
0.177263
0.176272
0.175463
0.174736
0.174
0.173246
0.172693
0.172258
0.171896
0.171627
0.171486
0.171423
0.171451
0.171442
0.171476
0.171321
0.171339
0.170573
0.170637
0.184393
0.782445
1.43898
1.46287
1.41203
1.36308
1.3278
1.3012
1.28239
1.26664
1.25542
1.22804
1.21964
1.19155
1.18597
1.14843
1.13383
1.11531
1.10608
1.08188
1.07635
1.05386
1.05171
1.03541
1.03389
1.02068
1.02052
1.01254
1.01162
1.0094
1.00874
1.00918
1.01
1.01183
1.01321
1.01471
1.01509
1.01327
1.01525
1.0041
1.03724
1.05205
1.14325
1.19685
1.24222
1.25588
1.27526
1.27359
1.30924
1.32449
1.33994
1.34427
1.36455
1.37464
1.38034
1.37015
1.37271
1.39092
1.42403
1.46352
1.51796
1.5946
1.68996
1.78897
1.85582
1.88543
1.90366
1.90522
1.90179
1.89086
1.87334
1.86268
1.85556
1.86702
1.88269
1.91572
1.94531
1.96562
1.98441
1.98142
1.99224
0.192041
0.192638
0.192287
0.191886
0.191384
0.190788
0.190141
0.189375
0.188526
0.187687
0.186685
0.185631
0.184626
0.183524
0.182321
0.181255
0.180164
0.178917
0.177905
0.176952
0.175915
0.174972
0.174203
0.17342
0.172529
0.17181
0.171278
0.170851
0.170556
0.170423
0.170323
0.170418
0.17071
0.171279
0.171877
0.1725
0.172664
0.172649
0.195138
0.832121
1.40064
1.42267
1.36847
1.31097
1.27635
1.25332
1.23673
1.22572
1.21807
1.19058
1.18359
1.15341
1.14756
1.11325
1.10702
1.09901
1.07197
1.06439
1.03375
1.03014
1.02681
1.00847
1.00588
0.993588
0.993999
0.985473
0.985743
0.982516
0.98208
0.982677
0.983652
0.986059
0.988905
0.991448
0.992549
0.993022
0.985358
1.00141
1.00944
1.09459
1.16821
1.21407
1.22894
1.21486
1.25858
1.27416
1.27443
1.28615
1.31208
1.31682
1.33071
1.33581
1.35828
1.36316
1.37061
1.38333
1.4103
1.43977
1.48506
1.54725
1.63689
1.7395
1.82545
1.86548
1.89064
1.8964
1.89628
1.88596
1.87196
1.85617
1.8454
1.84978
1.85965
1.89431
1.92709
1.95529
1.9777
1.97679
1.99102
0.192033
0.192628
0.192274
0.191868
0.191361
0.190755
0.190105
0.189337
0.18847
0.18761
0.186629
0.185531
0.184501
0.183414
0.182157
0.181058
0.179959
0.178673
0.177569
0.176581
0.175554
0.174471
0.173591
0.172819
0.171935
0.170974
0.170298
0.169799
0.169416
0.169166
0.168839
0.168693
0.168757
0.169111
0.169826
0.171458
0.174131
0.178293
0.205654
0.91659
1.36901
1.39157
1.35105
1.29469
1.26853
1.23477
1.22072
1.20308
1.1984
1.16898
1.16469
1.13103
1.1246
1.0927
1.10103
1.07402
1.07662
1.03077
1.02432
1.02285
1.00517
1.00414
0.989969
0.988736
0.981998
0.98005
0.976684
0.974994
0.973981
0.974136
0.974429
0.975972
0.977639
0.979766
0.977346
0.974511
0.971286
0.985592
1.03673
1.13219
1.2066
1.22639
1.24296
1.21986
1.21063
1.24189
1.25017
1.25033
1.27495
1.2835
1.29955
1.30665
1.32509
1.33362
1.34909
1.35434
1.38145
1.41042
1.45318
1.51198
1.59597
1.70124
1.79853
1.84911
1.87896
1.88981
1.89246
1.8841
1.87236
1.85215
1.83819
1.83443
1.84278
1.86963
1.90369
1.93952
1.96737
1.96979
1.98729
0.192021
0.192616
0.192258
0.191848
0.191335
0.190723
0.190059
0.189298
0.188415
0.187526
0.186566
0.185424
0.184367
0.183283
0.181984
0.18083
0.179713
0.178444
0.177205
0.176169
0.175137
0.173926
0.172909
0.172093
0.171208
0.170089
0.169157
0.168498
0.167988
0.167678
0.167294
0.166908
0.166909
0.167153
0.16788
0.169317
0.171893
0.175298
0.202638
0.914909
1.30284
1.32183
1.30103
1.25537
1.24147
1.203
1.19335
1.17059
1.16786
1.13621
1.13596
1.10138
1.09945
1.06834
1.08668
1.05542
1.063
1.00929
1.01391
0.995023
1.00063
0.986809
0.982622
0.976923
0.976469
0.972278
0.970346
0.969259
0.968945
0.969529
0.969542
0.970234
0.972292
0.974801
0.974054
0.97319
0.974114
1.02031
1.12619
1.22004
1.22653
1.20826
1.2395
1.2353
1.20374
1.19281
1.20809
1.22418
1.23104
1.25691
1.27456
1.28787
1.31249
1.32977
1.34118
1.34566
1.35956
1.38584
1.42612
1.4834
1.56313
1.66346
1.76903
1.83303
1.86686
1.88374
1.88819
1.88202
1.8709
1.85007
1.83338
1.82427
1.83018
1.84404
1.8795
1.92086
1.95459
1.9626
1.98304
0.192009
0.192603
0.192242
0.191826
0.191309
0.190692
0.190007
0.189258
0.188356
0.18744
0.186489
0.18532
0.184216
0.183118
0.181829
0.180579
0.17942
0.178188
0.17681
0.175687
0.174627
0.173402
0.172187
0.171202
0.17037
0.169321
0.16802
0.167147
0.166471
0.165961
0.165599
0.165009
0.164507
0.164473
0.164782
0.165508
0.167603
0.169868
0.198185
0.847389
1.16549
1.20156
1.20506
1.18755
1.1966
1.16034
1.15555
1.1238
1.13034
1.09822
1.11195
1.07584
1.08157
1.04451
1.06304
1.03466
1.04298
0.992557
0.989187
0.970476
0.978451
0.967453
0.961742
0.957431
0.958839
0.955838
0.954342
0.954825
0.958494
0.960868
0.959845
0.964781
0.972075
0.97585
0.978276
0.994844
1.02055
1.13632
1.23083
1.2593
1.25366
1.20898
1.19211
1.21395
1.21729
1.19522
1.19042
1.19287
1.20151
1.21745
1.24233
1.26227
1.29097
1.31247
1.31942
1.33167
1.35039
1.37459
1.41031
1.45883
1.52817
1.62399
1.73721
1.8143
1.85357
1.87413
1.88086
1.87786
1.86719
1.8492
1.82823
1.81812
1.81584
1.8246
1.8568
1.90077
1.9415
1.95537
1.97629
0.191993
0.192588
0.192222
0.191802
0.19128
0.19066
0.189952
0.189209
0.188292
0.187342
0.186385
0.185226
0.184056
0.182927
0.181674
0.180313
0.179113
0.17789
0.176414
0.175166
0.174055
0.172851
0.171419
0.170265
0.169383
0.168337
0.166869
0.165652
0.164768
0.163993
0.163553
0.162816
0.161152
0.159458
0.157236
0.153051
0.147174
0.14627
0.167007
0.770558
1.02052
1.07697
1.10007
1.13876
1.12744
1.14109
1.11074
1.11579
1.08955
1.10674
1.07748
1.09734
1.05391
1.0563
1.02392
1.04591
1.00578
1.00225
0.958884
0.975365
0.959793
0.959758
0.945806
0.945413
0.948103
0.948876
0.94486
0.947024
0.950746
0.954919
0.953137
0.968608
0.993976
1.00772
1.05004
1.1478
1.26819
1.34385
1.34014
1.28015
1.27324
1.23939
1.19077
1.16954
1.17301
1.18166
1.18317
1.19031
1.19765
1.19853
1.21978
1.23833
1.2638
1.28839
1.30313
1.31758
1.33616
1.36078
1.39229
1.43424
1.49587
1.58671
1.70518
1.79499
1.84093
1.86383
1.87238
1.87055
1.86141
1.84714
1.82431
1.81281
1.80232
1.81181
1.83421
1.88093
1.92787
1.94719
1.96831
0.191977
0.192572
0.192201
0.191775
0.19125
0.190624
0.189897
0.189151
0.188232
0.187243
0.186263
0.185134
0.183888
0.182722
0.181492
0.180026
0.178764
0.177518
0.176031
0.174612
0.173422
0.172206
0.170645
0.169305
0.168187
0.167194
0.165858
0.164103
0.16291
0.161953
0.16128
0.160784
0.159764
0.158356
0.15811
0.158065
0.158498
0.17239
0.279232
0.914407
1.01636
1.04918
1.07184
1.10296
1.10584
1.12344
1.10888
1.12766
1.10501
1.12172
1.09258
1.10733
1.06169
1.0637
1.022
1.04533
0.998966
0.997159
0.950208
0.970592
0.953861
0.95266
0.937686
0.938863
0.943705
0.944771
0.937366
0.947321
0.96409
0.978894
0.990234
1.06829
1.16553
1.26443
1.38226
1.45771
1.50724
1.5014
1.44976
1.37894
1.31151
1.26624
1.23379
1.19756
1.1688
1.1635
1.15925
1.16168
1.16879
1.18134
1.20035
1.22636
1.2538
1.28067
1.29649
1.3107
1.32628
1.34854
1.37724
1.41653
1.47461
1.56078
1.67341
1.77374
1.82509
1.84999
1.86144
1.86169
1.85442
1.84226
1.82219
1.80502
1.79468
1.7979
1.81283
1.86032
1.91103
1.93747
1.95981
0.191957
0.192553
0.192178
0.191747
0.191215
0.190585
0.18984
0.18908
0.188176
0.187141
0.186128
0.185027
0.183707
0.182505
0.181272
0.179749
0.178381
0.177097
0.175646
0.174031
0.172686
0.171429
0.169927
0.168293
0.16691
0.165942
0.164623
0.16263
0.161012
0.159791
0.158704
0.15826
0.15725
0.155168
0.154459
0.154015
0.154307
0.1724
0.485836
0.965078
0.978298
0.982202
0.994002
1.0169
1.02701
1.06547
1.07511
1.11486
1.10123
1.12732
1.09499
1.11332
1.06598
1.07747
1.0219
1.03946
1.00005
0.98986
0.956396
0.972663
0.958974
0.956166
0.943985
0.954574
0.970136
0.980822
0.980778
1.05894
1.13799
1.23394
1.32993
1.43957
1.54016
1.63461
1.66724
1.65415
1.6121
1.57268
1.52956
1.47139
1.39404
1.32739
1.26757
1.24203
1.22572
1.20662
1.1881
1.18047
1.17342
1.16983
1.18149
1.20179
1.23122
1.26286
1.28465
1.29909
1.31475
1.33601
1.36248
1.40115
1.45737
1.54029
1.65073
1.75661
1.81401
1.84008
1.85336
1.85504
1.84882
1.83687
1.8209
1.79707
1.78906
1.78071
1.79583
1.83944
1.89244
1.92599
1.95104
0.191935
0.192532
0.192153
0.191717
0.191177
0.190544
0.189788
0.188999
0.188115
0.187034
0.185988
0.184895
0.183529
0.182259
0.181
0.179497
0.177985
0.176637
0.175207
0.173425
0.171918
0.170591
0.16913
0.167217
0.16566
0.164394
0.16315
0.161401
0.159071
0.1575
0.156269
0.155471
0.155086
0.154272
0.153684
0.154446
0.15576
0.180619
0.670295
0.954242
0.948789
0.941492
0.940325
0.949225
0.956646
0.990257
1.00247
1.05971
1.06452
1.10731
1.08391
1.11232
1.05959
1.07651
1.00899
1.04047
0.981733
0.998242
0.946898
0.984851
0.971524
0.997247
0.981896
1.07267
1.14897
1.23811
1.32062
1.4348
1.53977
1.6422
1.69105
1.70025
1.70721
1.71748
1.70209
1.68055
1.64731
1.60957
1.57827
1.53583
1.4825
1.43231
1.36512
1.29022
1.23626
1.21008
1.18977
1.17732
1.17693
1.18502
1.18856
1.20158
1.22308
1.2523
1.27554
1.2936
1.31145
1.33246
1.35723
1.39103
1.44086
1.5191
1.62693
1.73639
1.80136
1.82927
1.84432
1.84735
1.84243
1.83078
1.817
1.79054
1.78017
1.7685
1.78289
1.81713
1.87449
1.91171
1.93747
0.19191
0.192509
0.192125
0.191685
0.191133
0.190499
0.189736
0.188915
0.188041
0.186929
0.185835
0.184731
0.18337
0.182007
0.180698
0.179239
0.177576
0.176131
0.174674
0.172875
0.171141
0.169654
0.16816
0.166248
0.164376
0.162737
0.161598
0.159921
0.157278
0.155239
0.153608
0.152131
0.151428
0.150054
0.147019
0.145322
0.145039
0.174873
0.753385
0.927522
0.925615
0.923591
0.917191
0.916061
0.915428
0.922291
0.922482
0.948184
0.949155
1.00268
0.999202
1.0572
1.01858
1.06484
0.995313
1.05034
0.993593
1.03155
1.00216
1.09854
1.14251
1.24123
1.32215
1.43899
1.5488
1.63879
1.68976
1.70328
1.71649
1.73626
1.73501
1.71901
1.699
1.69314
1.68462
1.67713
1.66134
1.639
1.61404
1.58326
1.54576
1.49983
1.43686
1.36384
1.30314
1.26646
1.2359
1.21036
1.18643
1.17937
1.18304
1.19117
1.20753
1.2302
1.25434
1.27685
1.298
1.32035
1.34543
1.37854
1.4261
1.49984
1.60472
1.71526
1.78761
1.8172
1.83355
1.83789
1.83418
1.82345
1.80994
1.78686
1.76646
1.76221
1.76625
1.7958
1.85768
1.89763
1.92395
0.191882
0.192483
0.192095
0.191649
0.191086
0.190451
0.189681
0.188825
0.187945
0.186837
0.185676
0.184537
0.183216
0.181744
0.180379
0.178937
0.177155
0.175571
0.174084
0.172336
0.17033
0.168624
0.167116
0.165289
0.163014
0.161149
0.159696
0.158068
0.155807
0.152925
0.150865
0.148986
0.147376
0.146033
0.141998
0.13866
0.144739
0.191438
0.789349
0.908128
0.921567
0.923238
0.918862
0.912047
0.904821
0.898336
0.893519
0.892274
0.889582
0.91164
0.909325
0.983125
0.988983
1.06637
1.0253
1.12791
1.16675
1.25462
1.34006
1.44656
1.54342
1.62068
1.66914
1.68668
1.70989
1.73163
1.73762
1.72316
1.70288
1.70043
1.69861
1.69375
1.68759
1.68037
1.67388
1.66834
1.66221
1.65239
1.63748
1.61548
1.58956
1.55556
1.51039
1.4441
1.36841
1.29537
1.24377
1.21646
1.20649
1.20204
1.20299
1.2065
1.21408
1.22594
1.24475
1.26693
1.28909
1.31178
1.33698
1.36828
1.41326
1.48275
1.58378
1.69491
1.77302
1.80456
1.82166
1.82711
1.82523
1.81593
1.80314
1.78279
1.75766
1.75259
1.74876
1.77678
1.83906
1.88388
1.91293
0.191851
0.192454
0.192063
0.191611
0.191036
0.190398
0.189623
0.188733
0.187832
0.186755
0.185522
0.18433
0.183039
0.181472
0.180037
0.178575
0.176767
0.175023
0.173447
0.171734
0.169521
0.167626
0.165965
0.164167
0.161708
0.159578
0.157642
0.156221
0.154034
0.150466
0.147861
0.145373
0.142905
0.14099
0.137623
0.135809
0.151917
0.337827
0.867987
0.884756
0.894759
0.898994
0.897087
0.893946
0.888267
0.878928
0.869165
0.859589
0.855481
0.853803
0.880763
0.893795
1.04221
1.12141
1.28401
1.37349
1.50377
1.58043
1.62242
1.66465
1.67452
1.69535
1.70023
1.70092
1.69844
1.69406
1.69789
1.69222
1.68433
1.68178
1.68129
1.67868
1.67497
1.67124
1.6676
1.66358
1.65831
1.65256
1.64521
1.63324
1.61608
1.59265
1.56043
1.51422
1.44564
1.36715
1.3038
1.26351
1.24066
1.22339
1.2058
1.2029
1.20662
1.21846
1.23612
1.25567
1.27578
1.29874
1.32449
1.35607
1.39909
1.46524
1.5629
1.67326
1.75634
1.79038
1.80832
1.81502
1.81506
1.80711
1.79618
1.77535
1.75252
1.73364
1.73784
1.75595
1.81636
1.86874
1.90432
0.191817
0.192422
0.192028
0.191569
0.190985
0.190336
0.189561
0.188651
0.187708
0.186658
0.185362
0.184122
0.182831
0.181205
0.179669
0.17817
0.176395
0.174463
0.172755
0.171
0.168814
0.166629
0.16471
0.162858
0.160518
0.157953
0.155715
0.154121
0.151912
0.148596
0.145297
0.142986
0.141
0.139331
0.139149
0.142727
0.166758
0.623043
0.851794
0.865249
0.869465
0.872555
0.872003
0.871359
0.869904
0.866543
0.863251
0.861774
0.867014
0.88044
0.931863
1.01673
1.25026
1.44846
1.5752
1.62807
1.64429
1.65825
1.66195
1.67313
1.67087
1.67268
1.66488
1.66073
1.65797
1.65727
1.6553
1.65972
1.66207
1.66092
1.66052
1.66022
1.66032
1.6598
1.6584
1.65583
1.65309
1.64904
1.64453
1.63771
1.62844
1.61381
1.59253
1.55983
1.51193
1.44124
1.36408
1.30037
1.25893
1.23391
1.22071
1.21583
1.2182
1.22401
1.2333
1.24734
1.26645
1.2875
1.31254
1.34341
1.38566
1.44904
1.54327
1.65292
1.73952
1.77655
1.79541
1.80297
1.80477
1.7977
1.78672
1.7672
1.74447
1.72224
1.72822
1.7329
1.79525
1.85183
1.89294
0.19178
0.192387
0.19199
0.191525
0.190935
0.190264
0.189495
0.188565
0.187585
0.18654
0.185205
0.1839
0.182585
0.180963
0.179308
0.177733
0.175993
0.17389
0.172008
0.170238
0.168098
0.165625
0.163463
0.161547
0.159231
0.156288
0.153872
0.151837
0.149829
0.146673
0.142252
0.139091
0.135654
0.130605
0.126656
0.131481
0.1711
0.71648
0.846732
0.861166
0.862905
0.862251
0.861922
0.861211
0.861077
0.861387
0.864091
0.8733
0.896904
0.953254
1.07883
1.32718
1.55715
1.66759
1.67464
1.67033
1.6661
1.65642
1.64929
1.64239
1.63814
1.6328
1.62903
1.62377
1.62068
1.62131
1.61933
1.62595
1.63384
1.63702
1.63979
1.6411
1.64245
1.64316
1.64429
1.64418
1.64374
1.64218
1.64011
1.63715
1.63135
1.62279
1.60905
1.58782
1.55382
1.50593
1.43419
1.35956
1.30269
1.26653
1.24423
1.23106
1.2241
1.2246
1.2307
1.24208
1.25811
1.27765
1.30136
1.33133
1.37257
1.43323
1.52388
1.63301
1.72247
1.76254
1.78241
1.79089
1.79406
1.78791
1.77663
1.75917
1.73376
1.71611
1.71107
1.71259
1.77408
1.83442
1.88058
0.191739
0.19235
0.191949
0.191478
0.190884
0.190188
0.189424
0.188477
0.187453
0.186399
0.185062
0.183672
0.182319
0.180722
0.178943
0.177282
0.175538
0.173328
0.171297
0.169432
0.16732
0.16461
0.162292
0.160212
0.157904
0.154611
0.151998
0.149543
0.147924
0.145163
0.14034
0.137435
0.135773
0.134703
0.134856
0.154013
0.338018
0.845943
0.85109
0.857371
0.860219
0.859812
0.858856
0.857612
0.857974
0.861507
0.874696
0.907104
0.977775
1.13085
1.39581
1.63057
1.68955
1.68738
1.6684
1.65298
1.63748
1.63376
1.6254
1.61664
1.61207
1.60762
1.60053
1.59622
1.59328
1.59167
1.59359
1.59541
1.59877
1.60267
1.60753
1.6098
1.61294
1.61575
1.62086
1.62314
1.62696
1.63006
1.63212
1.63141
1.6284
1.62368
1.61547
1.602
1.58041
1.54615
1.49535
1.42325
1.35171
1.29829
1.26269
1.24292
1.23292
1.23283
1.23592
1.24299
1.25324
1.26951
1.29165
1.32025
1.35894
1.41665
1.50449
1.61322
1.705
1.74788
1.76916
1.77882
1.78302
1.77778
1.7666
1.74992
1.72416
1.70259
1.69559
1.69475
1.7531
1.81321
1.8669
0.191695
0.192309
0.191905
0.191428
0.190828
0.19011
0.189343
0.188389
0.187318
0.18624
0.184926
0.183456
0.182033
0.180461
0.178569
0.176817
0.175025
0.172797
0.170604
0.168614
0.166474
0.16361
0.161086
0.158885
0.156558
0.153067
0.150001
0.147266
0.145632
0.143053
0.139581
0.134814
0.131903
0.130608
0.133195
0.160015
0.634875
0.867792
0.869932
0.866083
0.861912
0.860487
0.861813
0.864978
0.871712
0.885639
0.925756
1.01165
1.18768
1.45687
1.66751
1.6997
1.68766
1.66104
1.6387
1.62462
1.61795
1.60706
1.5995
1.59796
1.59251
1.58491
1.58042
1.57641
1.5711
1.57095