/*--------------------------------*- C++ -*----------------------------------*\
| =========                 |                                                 |
| \\      /  F ield         | OpenFOAM: The Open Source CFD Toolbox           |
|  \\    /   O peration     | Version:  2.2.x                                 |
|   \\  /    A nd           | Web:      www.OpenFOAM.org                      |
|    \\/     M anipulation  |                                                 |
\*---------------------------------------------------------------------------*/
FoamFile
{
    version     2.0;
    format      ascii;
    class       volScalarField;
    location    "2.15";
    object      rho;
}
// * * * * * * * * * * * * * * * * * * * * * * * * * * * * * * * * * * * * * //

dimensions      [1 -3 0 0 0 0 0];

internalField   nonuniform List<scalar> 
14161
(
0.998069
0.998101
0.998114
0.998137
0.998174
0.998232
0.998317
0.998439
0.998603
0.99882
0.9991
0.999455
0.999896
1.00043
1.00108
1.00185
1.00274
1.00378
1.00497
1.0063
1.00778
1.00942
1.01123
1.01326
1.01546
1.01776
1.02015
1.02258
1.0251
1.0278
1.03071
1.0338
1.03698
1.0403
1.04411
1.05001
1.06524
1.12141
1.4265
2.03349
2.45361
2.56816
2.57287
2.54783
2.51812
2.49455
2.47809
2.4667
2.45778
2.45022
2.44391
2.43723
2.43166
2.42586
2.41911
2.41354
2.40838
2.40296
2.39877
2.39459
2.3904
2.38756
2.38376
2.3793
2.37595
2.37291
2.37005
2.36856
2.36483
2.35916
2.35399
2.34938
2.34518
2.34136
2.3334
2.32387
2.31584
2.30888
2.30352
2.29491
2.28276
2.27092
2.26041
2.25019
2.24003
2.22993
2.21845
2.20627
2.19423
2.18228
2.17103
2.16087
2.15182
2.14083
2.12769
2.11521
2.10464
2.09721
2.09326
2.09403
2.09829
2.10448
2.11778
2.14705
2.2031
2.29629
2.43677
2.63335
2.84861
3.01493
3.12261
3.19562
3.24891
3.28425
3.29894
3.3026
3.30087
3.29494
3.30391
0.998067
0.9981
0.998113
0.998135
0.998172
0.99823
0.998315
0.998436
0.9986
0.998816
0.999096
0.99945
0.999889
1.00043
1.00108
1.00184
1.00273
1.00378
1.00497
1.00629
1.00778
1.00943
1.01123
1.01325
1.01544
1.01774
1.02013
1.02256
1.0251
1.02779
1.0307
1.03376
1.03693
1.04024
1.04405
1.04988
1.06449
1.1186
1.4215
2.02725
2.4523
2.5685
2.57485
2.55238
2.52446
2.5011
2.48442
2.47228
2.46272
2.45426
2.4475
2.44055
2.43415
2.42786
2.42093
2.41499
2.40966
2.40385
2.39902
2.39469
2.39057
2.38776
2.38395
2.37941
2.37589
2.37273
2.36967
2.36788
2.36411
2.35839
2.35297
2.34808
2.34353
2.33951
2.33167
2.32221
2.31397
2.30663
2.3007
2.29206
2.28008
2.26823
2.25772
2.24731
2.23688
2.22656
2.21483
2.20261
2.19064
2.17855
2.16691
2.15657
2.14691
2.13643
2.12554
2.11505
2.10633
2.10086
2.09846
2.10058
2.10938
2.12373
2.14916
2.19497
2.2724
2.38969
2.54923
2.73723
2.9115
3.03906
3.13174
3.20165
3.25306
3.28623
3.29774
3.30087
3.29979
3.29004
3.30698
0.998063
0.998096
0.99811
0.998133
0.998169
0.998227
0.998313
0.998433
0.998596
0.998812
0.999091
0.999444
0.999882
1.00042
1.00107
1.00183
1.00273
1.00377
1.00495
1.00628
1.00777
1.00942
1.01123
1.01324
1.01541
1.0177
1.02009
1.02255
1.0251
1.0278
1.03065
1.03365
1.0368
1.0401
1.0439
1.04959
1.06386
1.11689
1.41992
2.02724
2.45761
2.57691
2.58722
2.56675
2.54073
2.51683
2.49876
2.48439
2.47294
2.46277
2.45449
2.44651
2.43867
2.4314
2.42376
2.417
2.41109
2.40467
2.39918
2.39462
2.39033
2.38728
2.38355
2.37904
2.37536
2.372
2.36856
2.36619
2.36241
2.35672
2.35109
2.34594
2.34088
2.33666
2.32933
2.32014
2.3116
2.30364
2.29651
2.28857
2.27728
2.26524
2.25447
2.24344
2.23215
2.22097
2.2087
2.19641
2.18405
2.17152
2.15999
2.15014
2.14121
2.13328
2.12563
2.11849
2.11425
2.113
2.11486
2.12328
2.14141
2.17129
2.21833
2.29137
2.40168
2.54454
2.69928
2.82818
2.92689
3.01552
3.09595
3.16588
3.22332
3.26218
3.28361
3.29031
3.29157
3.2795
3.30196
0.998056
0.99809
0.998104
0.998126
0.998163
0.998221
0.998306
0.998425
0.998587
0.998802
0.99908
0.999431
0.999866
1.00041
1.00105
1.00181
1.00271
1.00374
1.00492
1.00625
1.00775
1.00941
1.01122
1.0132
1.01535
1.01762
1.02002
1.02252
1.02509
1.02777
1.03055
1.03347
1.03653
1.03981
1.04359
1.04924
1.0632
1.11535
1.41661
2.02375
2.45854
2.58264
2.59748
2.57955
2.55524
2.53114
2.51169
2.49538
2.48189
2.47003
2.45994
2.45086
2.44172
2.43346
2.42516
2.41754
2.41115
2.40435
2.39824
2.3934
2.38884
2.38545
2.38194
2.37757
2.37373
2.37028
2.36649
2.36342
2.35977
2.35431
2.34869
2.34321
2.33742
2.33244
2.32558
2.31669
2.30787
2.29926
2.29069
2.28259
2.27197
2.25991
2.2486
2.2365
2.22401
2.21135
2.19823
2.18563
2.17406
2.1634
2.15479
2.14684
2.13912
2.13307
2.13007
2.12929
2.13146
2.13821
2.15171
2.17632
2.21666
2.27822
2.36912
2.49285
2.63375
2.76462
2.86316
2.92906
2.97371
3.02712
3.08541
3.14217
3.19261
3.23446
3.26298
3.27519
3.27935
3.26591
3.29217
0.998047
0.998081
0.998094
0.998116
0.998153
0.99821
0.998294
0.998412
0.998573
0.998786
0.999062
0.999412
0.999846
1.00038
1.00102
1.00178
1.00267
1.0037
1.00488
1.00621
1.00772
1.00939
1.01119
1.01313
1.01524
1.01751
1.01993
1.02247
1.02508
1.02774
1.03041
1.03319
1.03613
1.03932
1.04308
1.04862
1.06234
1.11394
1.41461
2.02321
2.46225
2.58728
2.60515
2.5901
2.5662
2.54193
2.52127
2.50346
2.48816
2.47502
2.46354
2.45368
2.44397
2.43492
2.4265
2.41842
2.41173
2.40462
2.39776
2.3924
2.38736
2.38314
2.37955
2.37528
2.37119
2.36776
2.36359
2.3593
2.35515
2.34982
2.34442
2.33909
2.33264
2.32628
2.31918
2.31043
2.30184
2.29263
2.28233
2.27223
2.26124
2.24986
2.23809
2.22394
2.20976
2.19705
2.18491
2.17473
2.16708
2.15975
2.1533
2.14707
2.14247
2.14057
2.14289
2.15139
2.16637
2.18949
2.22485
2.27816
2.35677
2.46517
2.59416
2.71978
2.81868
2.89063
2.93493
2.97031
3.00368
3.03984
3.07975
3.12173
3.16676
3.20685
3.2401
3.2567
3.26352
3.25111
3.27916
0.998035
0.998069
0.998082
0.998103
0.998139
0.998195
0.998277
0.998394
0.998552
0.998762
0.999035
0.999382
0.999813
1.00034
1.00098
1.00174
1.00261
1.00364
1.00481
1.00613
1.00766
1.00934
1.01114
1.01304
1.01511
1.01735
1.01979
1.02238
1.02502
1.02766
1.03024
1.03285
1.03562
1.03868
1.04236
1.04779
1.06157
1.11329
1.4159
2.02704
2.46517
2.58927
2.60977
2.59813
2.57576
2.55275
2.53257
2.51458
2.49847
2.48431
2.47168
2.46033
2.44963
2.43916
2.42989
2.42112
2.41298
2.40531
2.398
2.39189
2.38623
2.38071
2.37593
2.3713
2.36668
2.36278
2.35805
2.35278
2.34786
2.34247
2.33737
2.33177
2.32412
2.31588
2.30778
2.2997
2.29248
2.28179
2.26891
2.25683
2.24541
2.23439
2.22143
2.20735
2.1949
2.18553
2.17732
2.17009
2.16495
2.1605
2.15735
2.15588
2.15673
2.16189
2.17495
2.19871
2.23425
2.28473
2.35649
2.45505
2.57469
2.6956
2.79607
2.86694
2.91053
2.94055
2.96525
2.99005
3.0156
3.04234
3.07278
3.10577
3.14442
3.18378
3.21795
3.23603
3.24557
3.23666
3.26384
0.998021
0.998054
0.998065
0.998086
0.99812
0.998174
0.998255
0.998368
0.998524
0.99873
0.998999
0.999341
0.999768
1.00029
1.00092
1.00167
1.00255
1.00356
1.00471
1.00603
1.00757
1.00926
1.01104
1.01291
1.01493
1.01714
1.0196
1.02224
1.02491
1.02752
1.02999
1.03243
1.03502
1.03793
1.04148
1.04691
1.06126
1.11458
1.42068
2.03169
2.4619
2.58547
2.60805
2.5993
2.57991
2.56026
2.54271
2.52591
2.50988
2.49514
2.48161
2.46871
2.45629
2.44443
2.43339
2.42327
2.41339
2.4044
2.39643
2.38911
2.38283
2.37645
2.37058
2.3657
2.36022
2.35534
2.34979
2.34363
2.33802
2.3323
2.32708
2.32033
2.31136
2.30226
2.29404
2.28724
2.27788
2.26419
2.25013
2.23851
2.22819
2.21824
2.20738
2.1975
2.18917
2.18204
2.17599
2.17167
2.16988
2.16984
2.17233
2.17912
2.19116
2.2111
2.24306
2.2914
2.35965
2.45117
2.56141
2.67378
2.77088
2.84292
2.88946
2.91839
2.93885
2.95658
2.97468
2.99536
3.01785
3.04069
3.06501
3.09221
3.12633
3.16291
3.19745
3.21641
3.22833
3.22298
3.24692
0.998005
0.998037
0.998046
0.998065
0.998097
0.998149
0.998226
0.998336
0.998488
0.998689
0.998952
0.999288
0.999707
1.00022
1.00084
1.00158
1.00246
1.00346
1.00459
1.0059
1.00744
1.00912
1.01089
1.01272
1.01471
1.01689
1.01937
1.02204
1.02472
1.02731
1.02963
1.03196
1.03446
1.03725
1.04069
1.04625
1.06158
1.11834
1.43151
2.04309
2.46337
2.58483
2.60944
2.60372
2.58732
2.56982
2.55303
2.53666
2.52057
2.50507
2.49021
2.47578
2.46155
2.44814
2.43542
2.42372
2.4126
2.4022
2.39336
2.38498
2.37761
2.37026
2.36338
2.35764
2.35154
2.3459
2.34014
2.33314
2.32629
2.31957
2.31274
2.30559
2.29678
2.28716
2.27741
2.26799
2.25836
2.24644
2.23435
2.22459
2.21689
2.21012
2.20219
2.19481
2.1889
2.18477
2.18316
2.18311
2.18601
2.19439
2.20907
2.23133
2.26302
2.30795
2.37136
2.45637
2.55859
2.66222
2.75354
2.82225
2.86842
2.89842
2.91926
2.93385
2.94709
2.96133
2.97821
2.99644
3.01506
3.03514
3.05577
3.08031
3.11045
3.14313
3.17756
3.19895
3.21293
3.21023
3.23013
0.997987
0.998018
0.998025
0.998042
0.998071
0.998119
0.998192
0.998297
0.998443
0.998638
0.998894
0.99922
0.999629
1.00013
1.00074
1.00148
1.00234
1.00332
1.00444
1.00575
1.00728
1.00894
1.01069
1.01252
1.0145
1.01666
1.0191
1.02175
1.02443
1.02698
1.02927
1.0316
1.03405
1.03673
1.04006
1.04573
1.06201
1.12248
1.44559
2.058
2.46648
2.58427
2.60994
2.60638
2.59219
2.57603
2.55965
2.54328
2.52715
2.5113
2.49564
2.48013
2.46511
2.45078
2.43706
2.42424
2.41226
2.40106
2.39138
2.38227
2.37359
2.36483
2.35646
2.34902
2.34195
2.33538
2.32903
2.32222
2.31518
2.30681
2.29755
2.28825
2.27927
2.26957
2.25912
2.24893
2.23989
2.23251
2.2252
2.21861
2.21273
2.20787
2.2026
2.19919
2.19844
2.19947
2.20357
2.21241
2.22691
2.24985
2.28413
2.33103
2.39414
2.47481
2.56905
2.66345
2.74737
2.81039
2.85315
2.88109
2.9004
2.91466
2.92748
2.93913
2.94938
2.96107
2.97606
2.99199
3.00836
3.02721
3.04658
3.06909
3.0952
3.12429
3.15841
3.18276
3.19893
3.19862
3.21608
0.997966
0.997997
0.998001
0.998015
0.998041
0.998085
0.998152
0.998251
0.998389
0.998577
0.998825
0.999142
0.999541
1.00003
1.00063
1.00136
1.0022
1.00316
1.00426
1.00557
1.00707
1.0087
1.01043
1.01226
1.01424
1.01639
1.01878
1.02138
1.02402
1.02658
1.02896
1.03135
1.03378
1.03637
1.0396
1.0454
1.06302
1.12846
1.46153
2.07124
2.46491
2.57859
2.60432
2.60193
2.59119
2.57647
2.55976
2.54212
2.52436
2.50721
2.49047
2.47472
2.45997
2.44568
2.43162
2.41848
2.40631
2.39504
2.38482
2.37485
2.36529
2.35625
2.34791
2.34007
2.33162
2.32346
2.31613
2.30891
2.30208
2.29156
2.27926
2.26892
2.25969
2.25158
2.24351
2.23685
2.23117
2.22691
2.22337
2.2199
2.21653
2.21511
2.21489
2.21664
2.22274
2.23424
2.25145
2.27583
2.31003
2.3567
2.42145
2.50139
2.5897
2.67609
2.75204
2.80867
2.84641
2.87154
2.88842
2.89994
2.9099
2.91919
2.92764
2.93626
2.94639
2.95844
2.97118
2.98456
3.00004
3.01783
3.03619
3.05624
3.07927
3.10662
3.14073
3.16717
3.18564
3.18839
3.20572
0.997943
0.997972
0.997974
0.997985
0.998007
0.998046
0.998108
0.998199
0.99833
0.998508
0.998744
0.999048
0.999434
0.999911
1.00049
1.0012
1.00202
1.00297
1.00406
1.00534
1.0068
1.00839
1.01009
1.01194
1.01396
1.01611
1.01842
1.02091
1.02349
1.02611
1.02876
1.03127
1.03365
1.03609
1.03924
1.04529
1.06458
1.13641
1.48205
2.08996
2.46629
2.57334
2.59732
2.59522
2.58552
2.57181
2.55516
2.53957
2.52284
2.50524
2.488
2.47182
2.45628
2.44118
2.42651
2.41239
2.39957
2.38757
2.3766
2.36592
2.35581
2.34636
2.33711
2.3284
2.31858
2.30839
2.29916
2.29058
2.28315
2.27237
2.26083
2.25199
2.2455
2.2418
2.23803
2.23389
2.23084
2.22927
2.22939
2.2312
2.23394
2.23774
2.24505
2.25787
2.27756
2.30618
2.34452
2.39446
2.45881
2.53631
2.61889
2.69693
2.76359
2.81405
2.847
2.86839
2.88237
2.89203
2.89962
2.90565
2.91046
2.91597
2.92329
2.93174
2.9419
2.95297
2.96407
2.97641
2.99112
3.00778
3.02475
3.0427
3.06439
3.09098
3.12492
3.15292
3.17347
3.17902
3.19698
0.997916
0.997944
0.997943
0.997951
0.997969
0.998002
0.998058
0.998141
0.998262
0.998429
0.998652
0.998942
0.999311
0.999769
1.00033
1.00101
1.00182
1.00275
1.00383
1.00508
1.00647
1.00801
1.0097
1.0116
1.01369
1.01583
1.018
1.02034
1.02285
1.02565
1.02867
1.03136
1.03359
1.0359
1.03895
1.04526
1.06633
1.1447
1.50451
2.11215
2.47191
2.573
2.59403
2.59076
2.57951
2.56472
2.54706
2.53233
2.51603
2.49739
2.47866
2.46185
2.44626
2.43103
2.41554
2.40074
2.38683
2.37412
2.3627
2.35123
2.34012
2.3294
2.31953
2.31027
2.30032
2.28883
2.27767
2.26807
2.26044
2.25308
2.24793
2.24428
2.24147
2.24025
2.23992
2.23969
2.23991
2.2431
2.25004
2.26007
2.27219
2.28818
2.31084
2.34219
2.38341
2.43851
2.50569
2.58092
2.65618
2.7264
2.78336
2.82535
2.85242
2.87031
2.88113
2.88807
2.89406
2.89884
2.90088
2.90283
2.90591
2.91101
2.91751
2.92578
2.93543
2.94547
2.95575
2.96784
2.98174
2.9972
3.01286
3.02946
3.05052
3.07626
3.10981
3.13873
3.16148
3.16958
3.18821
0.997886
0.997913
0.997909
0.997913
0.997926
0.997953
0.998001
0.998075
0.998184
0.998339
0.998548
0.998822
0.999173
0.999609
1.00015
1.00081
1.00158
1.00251
1.00357
1.00477
1.0061
1.0076
1.00925
1.0112
1.01337
1.01552
1.01755
1.01971
1.02214
1.02519
1.02859
1.03144
1.03367
1.03589
1.03886
1.04543
1.06846
1.15408
1.52694
2.13086
2.47102
2.56701
2.58467
2.57921
2.56652
2.55093
2.53395
2.51876
2.50337
2.48445
2.46394
2.44567
2.43003
2.41447
2.39781
2.38189
2.36761
2.35442
2.34147
2.32943
2.31748
2.30627
2.2947
2.28298
2.27217
2.26229
2.25423
2.24881
2.24441
2.24241
2.24159
2.24263
2.24494
2.24725
2.25108
2.25766
2.26685
2.27903
2.29558
2.31861
2.34881
2.38656
2.43443
2.49344
2.56146
2.63263
2.70145
2.76235
2.80998
2.84285
2.86382
2.8774
2.8852
2.88934
2.89212
2.89405
2.89564
2.8971
2.89782
2.8978
2.90011
2.90523
2.91149
2.91882
2.92741
2.93658
2.94705
2.95912
2.97239
2.98674
3.00076
3.0157
3.03639
3.06161
3.09499
3.12454
3.14928
3.15979
3.17927
0.997853
0.997878
0.99787
0.997869
0.997878
0.997898
0.997938
0.998002
0.9981
0.998238
0.998428
0.998686
0.999014
0.999425
0.999939
1.00057
1.0013
1.00221
1.00327
1.00443
1.0057
1.00712
1.00873
1.01073
1.01298
1.01513
1.01703
1.01904
1.02138
1.02462
1.02835
1.03142
1.0339
1.03613
1.03903
1.0459
1.07086
1.16355
1.5491
2.14966
2.47094
2.5593
2.57265
2.56417
2.54835
2.53097
2.5131
2.49608
2.47914
2.4602
2.43925
2.41964
2.40268
2.38663
2.37107
2.3553
2.34032
2.32547
2.31254
2.2992
2.28558
2.27291
2.26049
2.25089
2.24254
2.23699
2.23532
2.23749
2.23962
2.24054
2.24294
2.24866
2.25805
2.26983
2.28319
2.30029
2.32256
2.35161
2.38816
2.43383
2.49042
2.55496
2.62326
2.69007
2.75117
2.80067
2.83947
2.8646
2.88018
2.88909
2.89442
2.89669
2.89642
2.89495
2.89328
2.89309
2.89364
2.89311
2.89287
2.89243
2.89465
2.89895
2.90439
2.91059
2.91835
2.92756
2.93821
2.9499
2.9623
2.97542
2.98765
3.00098
3.0219
3.04671
3.08037
3.11071
3.13685
3.14979
3.16997
0.997815
0.997839
0.997827
0.99782
0.997823
0.997837
0.997867
0.99792
0.998004
0.998126
0.998299
0.998533
0.998835
0.999226
0.999708
1.00029
1.00098
1.00186
1.00292
1.00404
1.00523
1.00657
1.00814
1.01017
1.01249
1.01463
1.01641
1.01829
1.02058
1.02384
1.02785
1.03124
1.03401
1.03656
1.03962
1.04694
1.07383
1.17299
1.56968
2.16597
2.4697
2.54982
2.55758
2.54457
2.52416
2.50274
2.48322
2.46615
2.44867
2.43029
2.41004
2.38969
2.37248
2.35533
2.33763
2.32149
2.30523
2.28981
2.27385
2.25926
2.24675
2.23651
2.22997
2.22515
2.2239
2.22415
2.22711
2.23401
2.24164
2.2494
2.26015
2.27498
2.29487
2.31991
2.35085
2.38917
2.4352
2.49027
2.55237
2.61989
2.68604
2.74738
2.79914
2.84077
2.86928
2.88702
2.89832
2.90403
2.90624
2.90631
2.90619
2.90415
2.89898
2.89421
2.89227
2.89155
2.89
2.88766
2.88767
2.88809
2.88948
2.89228
2.89647
2.90196
2.90942
2.91852
2.92879
2.93985
2.95129
2.96316
2.97392
2.98626
3.00745
3.03177
3.06589
3.09709
3.12432
3.13934
3.15983
0.997774
0.997798
0.997781
0.997765
0.997761
0.997768
0.997787
0.997827
0.997895
0.998
0.998151
0.998359
0.99864
0.999007
0.999446
0.99997
1.00062
1.00145
1.0025
1.00361
1.00471
1.00596
1.00747
1.00948
1.01187
1.01403
1.0158
1.01755
1.01974
1.02281
1.02697
1.03075
1.03388
1.03692
1.04055
1.04869
1.0778
1.18389
1.58958
2.17591
2.46148
2.53512
2.53836
2.52168
2.49822
2.47398
2.45347
2.4372
2.41964
2.40136
2.38177
2.36153
2.3422
2.32338
2.30396
2.28328
2.26269
2.24394
2.23021
2.21904
2.21298
2.20998
2.21138
2.21413
2.21691
2.2223
2.23159
2.24483
2.26209
2.28401
2.31067
2.34202
2.37985
2.42661
2.48545
2.55282
2.62279
2.68817
2.7497
2.80298
2.84443
2.87581
2.89596
2.90895
2.91618
2.9197
2.92049
2.91895
2.9172
2.91451
2.91014
2.90415
2.89824
2.89357
2.89104
2.88837
2.88474
2.88239
2.883
2.88397
2.8841
2.88581
2.88899
2.89381
2.90077
2.90942
2.91903
2.9291
2.93916
2.94985
2.96025
2.97215
2.99314
3.01677
3.05125
3.08366
3.11175
3.1283
3.14927
0.99773
0.997753
0.997731
0.997706
0.997692
0.997689
0.997698
0.997724
0.997774
0.997857
0.997984
0.998162
0.998421
0.998756
0.999147
0.999621
1.00023
1.001
1.002
1.0031
1.00415
1.00532
1.00676
1.00866
1.01107
1.01331
1.01517
1.01682
1.01885
1.02163
1.02561
1.02981
1.03347
1.03702
1.04143
1.05077
1.08261
1.19644
1.60964
2.18148
2.44588
2.51005
2.50911
2.48956
2.46476
2.43975
2.41938
2.40349
2.38616
2.36691
2.34687
2.32421
2.30194
2.27789
2.25421
2.23211
2.21477
2.20227
2.19471
2.19079
2.19155
2.19582
2.20435
2.21579
2.22779
2.24221
2.26072
2.28612
2.32076
2.36555
2.41808
2.47825
2.54442
2.61695
2.68861
2.75495
2.81095
2.85214
2.88484
2.90571
2.91889
2.92738
2.93171
2.93348
2.93343
2.93156
2.92852
2.92563
2.92132
2.91663
2.91071
2.90392
2.89776
2.89311
2.88899
2.88425
2.87977
2.87792
2.87835
2.87913
2.87866
2.8796
2.88199
2.88615
2.89239
2.90022
2.90862
2.91728
2.92628
2.93634
2.94696
2.95834
2.97859
3.00186
3.03641
3.06998
3.09897
3.11712
3.13819
0.99768
0.997703
0.997678
0.997645
0.997616
0.997601
0.997599
0.99761
0.997639
0.997698
0.997797
0.997944
0.998173
0.99847
0.998822
0.99925
0.999793
1.0005
1.00143
1.00251
1.00352
1.00461
1.00595
1.0077
1.01005
1.01242
1.01439
1.016
1.0179
1.02047
1.02392
1.02826
1.03261
1.03684
1.04203
1.05282
1.08821
1.21176
1.6321
2.17935
2.41841
2.47645
2.47317
2.45282
2.43035
2.40662
2.3859
2.3683
2.34974
2.32935
2.30634
2.28005
2.25071
2.22288
2.19886
2.18271
2.17863
2.18093
2.1815
2.17989
2.18418
2.19698
2.21889
2.24627
2.27503
2.3061
2.34274
2.39151
2.45705
2.53422
2.61315
2.68557
2.75361
2.81353
2.85968
2.89571
2.91737
2.92952
2.93758
2.9422
2.94396
2.94423
2.94385
2.942
2.93861
2.9354
2.93122
2.92701
2.92261
2.91674
2.90973
2.90351
2.89749
2.89192
2.88626
2.88058
2.87612
2.87383
2.8736
2.87372
2.8727
2.87336
2.87557
2.87901
2.88433
2.89064
2.89741
2.90497
2.91353
2.92325
2.93396
2.94427
2.9638
2.98764
3.02158
3.05564
3.08585
3.10582
3.12709
0.997626
0.997648
0.99762
0.997581
0.997538
0.997505
0.997486
0.997481
0.997492
0.997525
0.997593
0.997704
0.997891
0.998149
0.998459
0.998831
0.999308
0.999934
1.00077
1.00179
1.00282
1.00381
1.00503
1.0066
1.00883
1.01129
1.01339
1.01508
1.01684
1.01919
1.02228
1.02622
1.03096
1.03604
1.04213
1.05457
1.09414
1.23073
1.65836
2.17326
2.38731
2.44117
2.43813
2.4191
2.39955
2.37681
2.35369
2.33187
2.30955
2.28375
2.25219
2.21794
2.18961
2.17363
2.1639
2.15696
2.16199
2.17569
2.1851
2.19289
2.20564
2.23441
2.28002
2.33212
2.38624
2.44685
2.51668
2.59711
2.67863
2.75365
2.81599
2.86269
2.90058
2.92529
2.93983
2.94912
2.95308
2.95376
2.95356
2.95312
2.95179
2.95023
2.9467
2.94361
2.94003
2.93473
2.93142
2.92805
2.92217
2.91599
2.90922
2.90308
2.89676
2.88997
2.8834
2.87767
2.87311
2.8699
2.8688
2.868
2.8665
2.86729
2.86948
2.87202
2.87579
2.88031
2.88592
2.89297
2.90122
2.9102
2.92018
2.92971
2.94938
2.97429
3.00675
3.04048
3.07223
3.09436
3.11535
0.997566
0.997587
0.997556
0.99751
0.997458
0.997409
0.997364
0.997333
0.997324
0.997334
0.997369
0.997441
0.997578
0.99779
0.998054
0.99837
0.998773
0.999311
1.00003
1.00097
1.002
1.00294
1.00402
1.00543
1.00739
1.00987
1.01214
1.01402
1.01563
1.01772
1.02054
1.02413
1.02867
1.0342
1.04137
1.05594
1.10054
1.25311
1.68759
2.16598
2.35247
2.40084
2.39834
2.38044
2.3603
2.33553
2.30928
2.28085
2.24816
2.21216
2.1791
2.1565
2.14371
2.14691
2.15271
2.15541
2.16686
2.195
2.22871
2.25857
2.29426
2.34926
2.42628
2.51339
2.59975
2.67884
2.75278
2.81664
2.86689
2.90687
2.93133
2.94621
2.95669
2.96199
2.96346
2.96398
2.96304
2.96105
2.95901
2.95567
2.95207
2.94945
2.94578
2.94161
2.93869
2.93526
2.93049
2.92681
2.92196
2.91481
2.90854
2.90235
2.89561
2.88796
2.88092
2.87494
2.86972
2.86552
2.86387
2.86231
2.86071
2.86138
2.86308
2.86453
2.86655
2.86978
2.87469
2.88129
2.88884
2.8964
2.90538
2.91531
2.93543
2.96077
2.99176
3.0255
3.05876
3.0821
3.10259
0.9975
0.997519
0.997485
0.997432
0.997369
0.997308
0.997241
0.997177
0.997133
0.997117
0.997122
0.997155
0.997239
0.997392
0.997599
0.997858
0.998195
0.998642
0.999241
1.00005
1.00101
1.00196
1.00294
1.00417
1.00584
1.00817
1.01059
1.01263
1.01427
1.01616
1.0187
1.02197
1.02614
1.03158
1.03957
1.05697
1.10918
1.28199
1.72714
2.16115
2.30974
2.34822
2.34436
2.32657
2.30352
2.27238
2.23539
2.19766
2.16323
2.13753
2.12402
2.12738
2.13028
2.14347
2.16678
2.19531
2.22986
2.27967
2.34601
2.41708
2.49622
2.58685
2.67731
2.7595
2.8265
2.87451
2.91204
2.93673
2.95225
2.96234
2.96786
2.97034
2.97153
2.97127
2.97058
2.96745
2.96328
2.95974
2.95733
2.95457
2.95084
2.9473
2.9438
2.93994
2.93695
2.93384
2.92995
2.92564
2.92053
2.91426
2.90757
2.90097
2.89422
2.88599
2.87861
2.87204
2.86584
2.86057
2.85846
2.85641
2.85474
2.85487
2.85562
2.85605
2.857
2.85936
2.86349
2.86928
2.87584
2.88223
2.89104
2.90179
2.92154
2.94608
2.97635
3.01113
3.04533
3.06901
3.08878
0.997427
0.997445
0.997407
0.997346
0.997271
0.997194
0.997119
0.997021
0.99693
0.996873
0.996845
0.99684
0.996869
0.996957
0.997093
0.997282
0.997544
0.9979
0.99838
0.999036
0.999874
1.00081
1.00171
1.00277
1.00417
1.00619
1.00862
1.0108
1.01262
1.01431
1.01658
1.0196
1.02343
1.02853
1.03697
1.05785
1.1227
1.34263
1.79953
2.15003
2.24926
2.27196
2.26236
2.23984
2.20743
2.16939
2.135
2.10967
2.0962
2.09768
2.10688
2.12801
2.15557
2.19372
2.25114
2.3177
2.3971
2.487
2.58539
2.67689
2.76293
2.83169
2.88177
2.92167
2.94518
2.95753
2.96571
2.97078
2.97375
2.97576
2.97614
2.97526
2.97296
2.97038
2.96744
2.9643
2.96124
2.95773
2.95485
2.95143
2.94736
2.94376
2.94054
2.93749
2.93425
2.93114
2.92797
2.92355
2.91829
2.91282
2.90601
2.89921
2.8924
2.88385
2.87622
2.86909
2.862
2.85546
2.85243
2.84974
2.84772
2.84746
2.84758
2.84727
2.84771
2.84904
2.85187
2.85652
2.86237
2.86848
2.87724
2.8884
2.90728
2.93086
2.96116
2.9971
3.0319
3.05552
3.07422
0.997348
0.997364
0.997323
0.997254
0.997163
0.997067
0.996978
0.99686
0.996727
0.996616
0.996538
0.996487
0.996464
0.99648
0.996535
0.996643
0.996819
0.997082
0.997445
0.997938
0.998608
0.999438
1.00032
1.00124
1.00241
1.004
1.00624
1.00854
1.01048
1.01209
1.01409
1.0168
1.02036
1.02526
1.03437
1.05935
1.14017
1.41405
1.86978
2.13067
2.18254
2.18453
2.16321
2.12828
2.09207
2.06755
2.05691
2.05751
2.06741
2.08865
2.12744
2.1793
2.24898
2.34073
2.44978
2.56359
2.66685
2.7604
2.83063
2.88134
2.92057
2.94397
2.95713
2.96599
2.97126
2.97403
2.97543
2.97553
2.97472
2.97309
2.97158
2.97025
2.96849
2.96645
2.96356
2.95935
2.95635
2.95346
2.95076
2.94708
2.94322
2.93966
2.93686
2.93448
2.93069
2.92766
2.92483
2.92023
2.91527
2.91042
2.90367
2.89691
2.89005
2.88143
2.87353
2.86603
2.85828
2.8506
2.84635
2.84277
2.84001
2.83945
2.83895
2.83808
2.838
2.83844
2.84003
2.8436
2.84885
2.85479
2.86329
2.87457
2.89275
2.91606
2.9463
2.98273
3.01807
3.04169
3.0592
0.997262
0.997277
0.997232
0.997154
0.997047
0.996928
0.996818
0.99669
0.996519
0.996352
0.996218
0.996107
0.996009
0.995947
0.99593
0.995949
0.996016
0.996172
0.996419
0.996753
0.997228
0.997883
0.998679
0.999526
1.0005
1.00174
1.00359
1.0058
1.0078
1.0094
1.01112
1.01347
1.01668
1.02147
1.03145
1.06055
1.15699
1.47187
1.90676
2.09901
2.12331
2.10492
2.06846
2.03315
2.01366
2.00712
2.01345
2.03157
2.0681
2.12613
2.21131
2.33143
2.4735
2.61065
2.72856
2.81346
2.87054
2.9107
2.93413
2.94683
2.95618
2.96216
2.96589
2.96818
2.96931
2.96983
2.96913
2.96798
2.96703
2.96578
2.96423
2.96298
2.96115
2.95878
2.95639
2.95225
2.94888
2.94634
2.94429
2.94115
2.93776
2.93463
2.93203
2.9296
2.92631
2.92332
2.92022
2.91605
2.91149
2.90679
2.90051
2.89397
2.88715
2.87886
2.87049
2.86255
2.85416
2.84558
2.8403
2.83589
2.83217
2.83076
2.82934
2.82796
2.82773
2.82771
2.82857
2.83087
2.83499
2.84037
2.84877
2.8605
2.87858
2.902
2.93169
2.96813
3.00404
3.02763
3.04359
0.99717
0.997183
0.997133
0.997046
0.996924
0.996781
0.996637
0.996498
0.996298
0.996074
0.99588
0.995714
0.995534
0.995368
0.995248
0.995178
0.995147
0.99517
0.995268
0.995452
0.995739
0.996179
0.996788
0.997557
0.998371
0.99934
1.00069
1.00263
1.00455
1.00611
1.0076
1.00955
1.01236
1.01709
1.02826
1.06218
1.17559
1.5176
1.91793
2.05828
2.06265
2.03189
1.99602
1.97808
1.97533
1.98099
2.00541
2.05508
2.13319
2.25799
2.43029
2.61115
2.75582
2.84204
2.89379
2.92102
2.93246
2.94
2.94515
2.94897
2.9528
2.95558
2.95626
2.95663
2.95698
2.95711
2.95673
2.95592
2.95499
2.95427
2.95331
2.95244
2.95105
2.94862
2.94628
2.94318
2.94013
2.93807
2.93688
2.93456
2.93176
2.92897
2.92628
2.92368
2.92107
2.91814
2.91499
2.91137
2.90709
2.90243
2.89688
2.89065
2.88385
2.87619
2.86742
2.85892
2.84983
2.84038
2.83391
2.82851
2.82375
2.82124
2.81893
2.81724
2.81698
2.8167
2.8171
2.81814
2.82112
2.82593
2.83441
2.84667
2.86452
2.8872
2.91663
2.95348
2.98985
3.01305
3.02762
0.99707
0.997082
0.997026
0.996932
0.996794
0.996623
0.996444
0.996279
0.996058
0.995781
0.995515
0.995286
0.995051
0.994772
0.99452
0.994331
0.994181
0.994053
0.99399
0.994002
0.994105
0.994325
0.994683
0.995288
0.995962
0.996661
0.997585
0.999061
1.00072
1.00217
1.00344
1.00493
1.00724
1.012
1.02476
1.06451
1.19742
1.55492
1.91061
2.00478
1.99825
1.97554
1.95926
1.96032
1.97051
2.00097
2.06023
2.16655
2.33814
2.54783
2.73471
2.85024
2.90622
2.92838
2.93308
2.93453
2.93414
2.93455
2.93541
2.93601
2.93676
2.93778
2.9384
2.93905
2.93962
2.94004
2.94027
2.94035
2.94012
2.94004
2.93983
2.93948
2.93849
2.93651
2.93433
2.93235
2.93037
2.92917
2.92854
2.92687
2.92473
2.92239
2.91949
2.91715
2.91517
2.91224
2.90924
2.90615
2.90211
2.89762
2.89271
2.88674
2.8801
2.87314
2.86418
2.85505
2.84527
2.83493
2.8271
2.82038
2.8144
2.81093
2.80806
2.80611
2.80533
2.80467
2.80517
2.80533
2.80745
2.81147
2.81981
2.8321
2.84954
2.87147
2.90212
2.9396
2.9758
2.998
3.01118
0.996962
0.996974
0.99691
0.996809
0.996655
0.996457
0.996239
0.996036
0.9958
0.995469
0.995122
0.994814
0.994527
0.99416
0.993765
0.993424
0.99314
0.992847
0.992552
0.992352
0.992281
0.992296
0.992399
0.992766
0.993209
0.993607
0.994135
0.995072
0.996331
0.997517
0.998524
0.99954
1.00134
1.0062
1.02108
1.06916
1.22728
1.57862
1.87226
1.93699
1.94011
1.94508
1.95141
1.97493
2.01576
2.09132
2.22662
2.43057
2.65957
2.83609
2.91969
2.94521
2.94601
2.94184
2.93573
2.93085
2.92662
2.92318
2.92075
2.91888
2.91757
2.91701
2.91698
2.9173
2.91788
2.91902
2.92051
2.92188
2.92272
2.92333
2.92366
2.92372
2.92351
2.92278
2.92172
2.92082
2.91984
2.91906
2.91873
2.91756
2.916
2.91406
2.91132
2.9095
2.90787
2.90513
2.90246
2.89973
2.89599
2.89193
2.88773
2.88192
2.87565
2.8692
2.8602
2.85061
2.84031
2.82927
2.82021
2.81211
2.80476
2.80035
2.79697
2.79457
2.79296
2.79192
2.79248
2.79232
2.7942
2.79754
2.80542
2.81714
2.83438
2.85614
2.88788
2.92575
2.9614
2.98266
2.99472
0.996847
0.996858
0.996786
0.996675
0.996509
0.996283
0.996026
0.995768
0.995511
0.995141
0.994708
0.994301
0.993941
0.993525
0.99299
0.992467
0.992014
0.991587
0.991053
0.990539
0.990194
0.990019
0.989985
0.990061
0.990096
0.990072
0.990155
0.99055
0.991329
0.992127
0.992724
0.993314
0.994809
0.999905
1.01736
1.0742
1.25667
1.58347
1.80334
1.86877
1.90519
1.94106
1.98109
2.04201
2.14365
2.30545
2.53878
2.76749
2.90633
2.95762
2.97044
2.96316
2.95082
2.94127
2.9323
2.92476
2.91851
2.91341
2.90906
2.90506
2.90136
2.8983
2.89621
2.89527
2.89511
2.89586
2.89768
2.90001
2.90214
2.90393
2.90531
2.90643
2.90735
2.90785
2.90816
2.90818
2.90803
2.9076
2.90708
2.90603
2.90502
2.90376
2.90164
2.90025
2.89875
2.89652
2.8944
2.89219
2.88897
2.88548
2.88184
2.87633
2.87039
2.86422
2.85533
2.8455
2.83491
2.82333
2.81328
2.80397
2.79522
2.78981
2.78572
2.78284
2.78052
2.77918
2.77932
2.77894
2.78069
2.78331
2.79074
2.80188
2.81939
2.84176
2.87396
2.91209
2.94671
2.96714
2.97785
0.996723
0.996733
0.996653
0.996529
0.996353
0.996103
0.995804
0.995489
0.995189
0.994796
0.994278
0.993756
0.993291
0.992825
0.992183
0.991466
0.990804
0.990202
0.989484
0.988651
0.987946
0.987507
0.987281
0.987032
0.986576
0.98583
0.985393
0.98533
0.985522
0.985839
0.986096
0.986567
0.988248
0.994043
1.01474
1.07895
1.27384
1.56783
1.73991
1.82936
1.90262
1.97554
2.06873
2.20261
2.39886
2.64742
2.86145
2.96484
2.99415
2.9894
2.97722
2.96349
2.95084
2.9399
2.93046
2.92242
2.91538
2.90907
2.90316
2.89731
2.8914
2.88583
2.88113
2.87772
2.87579
2.87531
2.87578
2.87746
2.87987
2.88235
2.88479
2.88725
2.88955
2.89149
2.89307
2.89404
2.89438
2.89419
2.89394
2.89334
2.89258
2.89174
2.8903
2.88919
2.88805
2.88635
2.88488
2.88362
2.88118
2.87829
2.87506
2.86996
2.86432
2.85832
2.8496
2.83973
2.82902
2.81706
2.80615
2.79576
2.78561
2.77906
2.77402
2.77042
2.76765
2.76626
2.76577
2.76533
2.7668
2.76911
2.77616
2.78681
2.80464
2.8275
2.85958
2.89781
2.9315
2.95137
2.96081
0.996591
0.9966
0.996512
0.99637
0.996185
0.995913
0.995572
0.995198
0.994842
0.994427
0.993832
0.993186
0.992592
0.992035
0.991337
0.990426
0.989515
0.988697
0.987855
0.986715
0.985583
0.984787
0.984253
0.98365
0.982772
0.98102
0.979549
0.978949
0.978687
0.978683
0.978856
0.979489
0.981698
0.989165
1.01418
1.08808
1.28588
1.5319
1.69414
1.82829
1.95583
2.08829
2.25689
2.49491
2.75069
2.93297
3.00284
3.0177
3.00776
2.99071
2.97653
2.96283
2.95072
2.94013
2.93081
2.92253
2.91495
2.90774
2.90075
2.89372
2.88633
2.87885
2.87192
2.86603
2.86156
2.85895
2.85802
2.85831
2.85938
2.86095
2.86305
2.86586
2.86944
2.87288
2.87589
2.87812
2.87937
2.87997
2.8802
2.88026
2.87999
2.87947
2.87817
2.87665
2.87604
2.8749
2.87394
2.87352
2.87199
2.86996
2.86714
2.86266
2.8574
2.85158
2.84311
2.83336
2.8227
2.81039
2.79845
2.78693
2.77545
2.76804
2.76206
2.75752
2.75423
2.75278
2.75176
2.75133
2.75213
2.7544
2.76128
2.77159
2.78979
2.81313
2.84522
2.88363
2.91614
2.9355
2.94313
0.99645
0.996458
0.996362
0.996202
0.996001
0.995712
0.995331
0.994899
0.994467
0.994017
0.993372
0.9926
0.991849
0.991179
0.990416
0.989334
0.988158
0.98708
0.986052
0.984698
0.983122
0.981822
0.980846
0.979894
0.978756
0.976358
0.97322
0.971289
0.970619
0.970493
0.970734
0.971761
0.974961
0.985814
1.017
1.1102
1.30536
1.5058
1.70699
1.89798
2.0854
2.29921
2.57308
2.83822
2.99005
3.03587