/*--------------------------------*- C++ -*----------------------------------*\
| =========                 |                                                 |
| \\      /  F ield         | OpenFOAM: The Open Source CFD Toolbox           |
|  \\    /   O peration     | Version:  2.2.x                                 |
|   \\  /    A nd           | Web:      www.OpenFOAM.org                      |
|    \\/     M anipulation  |                                                 |
\*---------------------------------------------------------------------------*/
FoamFile
{
    version     2.0;
    format      ascii;
    class       volScalarField;
    location    "1.05";
    object      divBf;
}
// * * * * * * * * * * * * * * * * * * * * * * * * * * * * * * * * * * * * * //

dimensions      [1 -3 -2 0 0 -1 0];

internalField   nonuniform List<scalar> 
14161
(
-31526
26623.5
5453.89
-4283.23
-12664.7
-18189.6
-8827.91
-2251.39
4079.43
6673.06
7247.48
4371.32
1058.97
-3888.12
-10108.6
-16204.3
-11004.7
-3763.28
927.082
2057.84
5816.61
11408.4
6406.07
2157.28
-210.752
-5821.42
-7749.46
-2303.36
-823.909
4350.76
4452.36
5021.36
5912.65
8522.05
9211.27
8680.01
8456.02
11372.1
1508.26
-51607.5
-45860.5
-522.867
-14732.5
-7668.47
-289.095
-24477.1
-20712.5
-18625.4
-14805.9
-15535.2
-18495.6
-22693.7
-23978.7
-16957
-18466.9
-15196.1
-13416
-14405.6
-12761.5
-11357
-10754.6
-7338.21
-6747.15
-4830.35
-4610.65
-4186.05
-6951.2
-10397.6
-6899.32
-6803.81
2262.91
9751.93
14867.8
19715.1
22714.2
23423
21352.8
17732.5
14824.7
13947.9
11928.5
8314.27
5786.07
5050.41
5570.47
5642.63
4523.94
3390.07
2679.36
2849.01
2573.37
2922.28
3566
3965.77
4062.65
3776.69
3453.95
2944.98
3231.38
2808.43
1859.47
1057.04
-43.9057
-623.703
-1419.12
-2043.2
-2727.71
-3922.23
-4504.62
-5796.91
-6808.95
-7851.56
-8161.28
-8331.43
-5329.28
-8907.41
10764.6
-13381.3
23688.4
12864
-84918.2
-28393.6
-1385.87
14666.5
42613.6
50392.6
14132.2
-1531.23
-14966.7
-34678.7
-46516.7
-23348
-2789.58
7213.61
23828.1
33792.1
12380.2
-479.223
-10236.2
-22025.9
-38298.7
-32053.9
-10987.5
375.016
10010.5
19357.5
10833.9
2528.82
-2569.81
-10523.3
-13890.4
-13823.3
-8884.62
-5256.37
-2703.71
-1567.53
85.8116
-10043.9
13476.1
42442.4
27550
22142
17069.7
15729.8
-3741.71
-12521
-16360.7
-18920.5
-20189.2
-20207.9
-19348.9
-18915.2
-22959.3
-24023.6
-25715.3
-24471.9
-25366
-26430.2
-25446.8
-24831.6
-24576.7
-21235.2
-20843.8
-13007.1
-15184.9
-12295.6
-4122.3
545.471
9097.96
13539.2
10807
12279.9
50519.3
33833.6
31008.2
28942
28117.8
24379.2
21391.5
19919.6
16545.3
13720
12283.5
11299.5
10562.6
9571.06
8637.27
6598.38
4876.96
2905.79
4191.45
3538.19
3458.7
3070.73
2631.21
2617.52
2156.04
2512.25
2162.07
1551.18
939.194
447.032
-307.879
-49.6389
-1397.75
-1721.79
-2760.91
-2947.3
-3512.07
-3579.14
-3873.96
-3725.02
-4897.07
-1691.59
-6657.72
8945.04
-12067.8
21989.8
-99543.3
148454
44591.5
1599.57
-30020.1
-72540.6
-80812.6
-29109.7
-616.628
22946
48024.9
61615.4
26632.4
356.683
-18687.7
-43159.9
-63403.1
-30991.6
-3684.21
10252.5
29814.6
51030.5
41828.6
11708.4
-2884.42
-16312.8
-29304.3
-24915.5
-6339.64
369.301
10422.4
17093.1
20636.9
14670.3
9816.68
6325.78
5319.95
5923.07
4558.53
-61565.6
-91740.9
-32408
-15578.8
-8154.77
-6477.32
-22102.9
-17351.3
-15383.6
-12709.9
-12157.1
-12396
-13548.6
-13958.9
-13150.4
-13735.2
-13314.8
-12304.1
-12710.4
-11948.7
-12904.6
-11189.1
-10765.7
-9500.01
-9562.6
-8686.09
-6598.84
-6463.72
1684.24
7510.39
12263.8
16412.2
18999.8
16602.4
23824.5
21306
30033.5
31485.3
34393.3
31433.3
26640.1
23214.9
21571.6
18788.9
13651.6
10434.8
7879.55
7048.99
5566.27
4998.4
5254.77
5037.9
3902.14
3764.69
3542.89
2941.56
2879.17
2342.4
2318.85
2299.26
2292.45
1735.33
1568.19
627.382
598.319
-331.278
-288.632
-1029.63
-1623.38
-2060.12
-2905.98
-3428.33
-4152.22
-4270.31
-4890.61
-2533.79
-7713.74
10958.8
-11729.3
19219.3
68379
-179399
-61258.3
-4127.67
27124.9
85910.9
94481.8
27492.9
-2250.7
-27331.1
-55082.6
-82147.2
-47197.4
-6148.7
11201.5
47140.3
71277.3
30051.1
990.35
-15540.3
-37504.7
-64227.3
-60298.6
-22298.4
278.709
18924
36144
31157.1
9615
-222.006
-12801.5
-21442.1
-21306.5
-13387.8
-4724.56
-794.098
3069.3
4682.84
-5465.73
25378.2
56337.8
23150.6
19841.9
9193.31
8762.81
-9124.83
-14669.6
-17065.4
-20237
-19606.5
-19974
-19280.8
-18477.5
-17838.3
-18926.7
-18476.6
-17292
-16710
-16666.1
-16454.3
-16581.8
-16181.1
-14253.5
-8406.74
-5604.78
-714.417
1492.81
2573.25
16893.8
18868.6
26285
22909.7
20793.7
21161.2
20406.1
35708.3
31651.5
48390.7
43747.7
40714.9
32337.1
27925.8
25977.7
21622.1
16034.5
14105.4
12381.8
9549.4
7161.78
5233.39
4369.2
3509.88
3644.38
3042.09
2928.93
2174.56
2379.6
2355.85
2657.91
2505.28
1876.26
1671.16
1042.06
589.371
185.108
-402.981
-895.371
-1571.59
-2190.5
-3015.6
-3836.49
-4302.8
-4257.44
-5668.38
549.448
-7364.7
10663.8
-10973.6
16212.1
-145962
211414
65235.7
3853.62
-31159.6
-92719.3
-117418
-45395.9
-2524.36
24202.4
60068.6
87790.3
42248.2
2763.84
-18073.4
-51608.4
-85617.1
-52950.5
-8039.58
8484.87
34537.8
63280
58278
19381.6
-2999.05
-20554.7
-38742.9
-42336.5
-19235
-1611.6
7476.02
13845.5
21220
13513.6
5593.84
-2082.92
-4279.72
-4875.45
-7718.52
-43765.4
-46225.9
-19494.4
-11662.6
-5616.16
-7305.19
-15841.4
-17278
-13766.3
-15477.8
-13800.7
-14426.1
-14568.5
-13717.3
-13662.5
-15224
-15100
-15648.3
-16236.3
-17196
-17961.8
-16863.9
-16305.7
-10639.9
-7617.72
-6376.96
-4846.43
-6181.59
10452.3
8143.13
15727.8
9550.1
8404.4
7337.54
8084.76
18781.3
31470.5
35128.2
39958.2
33779.5
35002.5
31573.3
28885.6
28776.9
23322.2
19438
15521.4
12082.8
8823.64
5881.81
3893.07
2741.13
2117.49
1131.33
2210.61
2263.42
2518.16
2843.82
2690.73
2933.37
2780.47
2122.02
1910.82
1168.83
836.489
247.359
-313.677
-993.958
-1606.55
-2051.26
-2762.21
-3217.13
-3907.35
-3370.13
-5216.5
323.029
-7392.22
9094.29
-9702.07
13095
106062
-225488
-85641.9
-9047.68
25905.4
100763
119111
38397.1
-300.958
-28402.4
-60173.7
-92269.8
-65160.5
-11045.8
8654.57
50270.2
85568.7
47223.9
4612.25
-11990.9
-36551.8
-65786.5
-74053.4
-31201.9
-2271.95
17276
36500.8
49781.4
25201.1
3608.99
-9345.54
-17696.1
-20856.9
-11166.5
-5212.8
-354.332
3171.18
5425.45
-835.97
9024.04
20009.1
147.925
-1272.19
-40.8624
-2163.08
-10891.9
-13605.1
-16591
-18267.9
-18562.2
-18215
-17399.5
-16369
-16267.4
-15524.2
-14164
-14599.6
-14572.3
-13336.2
-13175.7
-10974.5
-8992.65
-9106.79
-8672.54
-5239.27
-3512.44
6343.75
9544.05
15209.2
27750.6
26377.2
21542
19741.6
19124.8
24287.2
24667.2
29067.7
34806.2
35900.2
43599.2
46069.6
39692.8
40881
36979.6
32143.7
24923.1
18986.4
15900.9
10036.1
6751.6
4274.03
3016.61
2725.94
2432.38
2663.12
2422.5
2314.02
2584.28
2855.18
2664.28
2068.12
1794.39
1278.87
914.889
498.071
52.4858
-471.158
-1013.21
-1394.16
-2199.98
-2746.81
-3618.19
-2648.15
-5226.81
2006.6
-7185.34
7277.7
-8152.01
10573.2
-175139
241379
78710.9
7140.87
-24460.1
-94785.5
-137264
-59915
-6069.8
19359.3
60094.7
91617.8
56870.6
6135.67
-12928.6
-49925
-85163.3
-73217.5
-17978.4
2672.14
28357.6
59722.6
67449.2
28162.8
-409.637
-17597.2
-36962.7
-57135.1
-44204
-11510.2
-1565.19
15587.7
23235.6
13154.6
6254.91
668.677
-1051.16
-5235.13
-12678.4
9596.36
-29539
-4364.13
-6444.95
-5967.53
-13914.8
-21538.1
-22119.7
-22668.3
-21286.5
-17928.6
-16564.1
-12683.4
-12282
-10322.1
-10146.5
-10449.2
-10068.4
-10014.2
-10356.7
-10410.8
-10722
-10438.4
-9576.78
-7843.88
-6652.07
-7593.84
2709.76
740.003
14671.6
24378.5
27352.4
23566.7
24739.6
18402.5
21350.5
19598.7
22805.7
27397.2
29146.8
32721.1
40506.5
46825.1
42574
47381.2
38992.9
31199.5
22816.3
18409.3
12277
7991.88
4991.42
3261.98
2980.04
2911.69
3437.39
3136.94
2568.94
2570.54
2826.66
2936.3
2541.98
2365.42
1738.04
1268.02
828.277
395.424
-162.62
-657.174
-864.326
-1744.82
-2174.28
-3316.12
-1831.89
-4700.89
2065.7
-7504.65
6010.56
-7130.46
8055.62
130416
-243665
-100690
-15057
17921.8
100458
131606
49971.9
1827.68
-25858.7
-57123.4
-85856.7
-78675.3
-17638.9
6026.6
45361.3
82573.6
64016.2
10023
-6220.18
-32005.5
-57255.1
-77696
-40809.7
-5965.23
11609.1
35299.5
59991.5
51744.6
21222.4
-392.581
-9844.18
-17241.8
-20988.2
-18376.1
-14549.3
-10276.8
-4387.93
-2438.99
-9525.03
-27728.9
-11146
-15778.9
-15203.9
-16343.8
-21770.8
-17806.9
-14993
-11616.2
-12211.8
-14427.9
-15359.4
-13613.8
-13195.7
-13371.1
-13002.4
-13839.4
-14446.6
-15337.3
-14017
-12739.1
-11472.5
-9120.49
-4935.12
-3081.82
1079.94
3847.78
13400.9
20466.3
20938
30615.1
26890.1
23670.2
24469
14820.1
20317.1
19758.2
23636.6
26205.4
32483.9
40293.8
43610.3
46001.9
51125.3
48900
44546.5
40575.9
34231.9
23471
16394.5
10582
7459.97
5683.95
4984.4
4566.22
4030.16
3978.94
3431.28
3428.27
3152.4
2814.87
2276.88
1707.05
1243.87
739.74
249.412
-283.275
-837.958
-1086.11
-1596.67
-1998.98
-2778.41
-1346.46
-5452.33
2009
-6738.17
4930.38
-6431.65
6004.83
-191198
252631
85156.8
8683.78
-20015.1
-84252.7
-145749
-74643.9
-9956.73
15332
58321.9
85801.4
69092.3
10584.3
-9473.01
-45261
-79692.9
-89137.8
-30091.2
-382.145
22719.1
52599.8
74269.2
37322.6
2535.36
-14171
-36862.1
-66210.6
-66930.5
-30311.9
-4680.81
13661.3
24710.1
28803
22635.3
13064.9
7712.83
-1737.19
3054.08
-32356.8
3079.46
18269.3
-306.647
-1029.81
-7211.29
-16959.3
-15751.8
-16871.8
-19557
-17439.5
-15945.4
-13658.8
-11815.8
-10479
-11412.3
-12713.2
-13193.6
-12940.2
-9805.35
-8231.93
-7634.62
-6908.58
-1863.65
-1991.08
3453.02
2977.81
5570.02
16651.7
24396.6
25571.7
30590.6
34808.2
34548.5
32131.1
28703
31828.7
28229.6
27038.2
35416.9
31856.3
32830
32181.4
35505.4
43007.2
49633.7
57491.7
45723.9
40677.6
24625.8
20021.4
13198.9
10556.8
8305.18
6705.37
5980.52
5255.38
5213.09
4789.12
4114.44
4062.93
3641.77
3291.38
2498.36
1975.42
1395.88
864.024
550.63
-173.911
-373.255
-1266.76
-1222.73
-2340.25
-1213.85
-3836.16
1716.33
-7575.8
3899.95
-5459.31
3744.52
147705
-247966
-110043
-16231.6
18104.1
87841.4
135110
60358.3
4425.09
-21833.9
-54516.9
-79758.5
-90601.9
-19997.8
5015.36
43389.7
81272.6
76540.5
15722.9
-5534.7
-30329
-52905.8
-73700.8
-50557
-8863.86
6646.92
39399.9
69033.8
67048.5
27090.2
-2303.07
-16022.8
-27082
-29867.8
-21269.1
-10781.5
-3536.69
382.028
11546.2
-74823.8
-38621.8
-31055.8
-21365.8
-17438.3
-9374.51
-16191.2
-18073.4
-17197.6
-18414.7
-20476.6
-22620.5
-22221.3
-22704.9
-18163.5
-20568
-20144.5
-17999.5
-17880.4
-16736.7
-15110.9
-13094.5
-9481.2
-6919.61
-3280.11
-2632.54
2339.02
5488.94
16334.5
26187
25322.6
36854.9
29327.5
38310.9
38159.1
34932.2
34773
32008.5
37058.6
40512.4
31783.4
25773.7
27795
29857.2
34053.7
35707.7
37051.3
45676.6
46934.9
49074.2
41905.6
29076.1
22719.3
17088.9
14610.4
11807.3
10426.6
9504.2
8341.75
6798.6
5676.78
5186.05
4312.26
3359.11
2473.52
1925.88
1085.25
744.891
-603.477
-410.994
-1432.84
-1266.21
-2286.6
-1286.51
-4552.17
519.945
-7560.39
2681.44
-5647
1975.46
-198289
258435
87857.1
7372.28
-23064.8
-76353.2
-132432
-91642
-13099.8
14163.8
58163.8
81878.7
84127.4
14241.7
-9137.05
-42429.8
-80063.2
-106595
-39387
-1418.17
24319.9
57107.1
75377.7
43647.7
3203.91
-13419.8
-44531.9
-82748.1
-90240.7
-37741.2
-4643.23
21144.3
37230.8
33777.9
17179.7
690.513
-4555.03
-13115.2
-17016.1
3333.84
20934.5
12032.5
-8151
-20397.8
-31486.8
-35173.1
-36145.9
-34587.8
-29953.2
-25679.4
-21160.3
-20258.9
-17982
-20353
-17327.2
-11533.3
-13044.1
-12253.6
-11151.4
-8356.12
-3330.92
415.806
4317.45
9976.45
10771.4
14074.2
16894.9
17335.3
22915.8
27303.7
29492.8
29922.3
32602.9
29085.4
26370.8
23356.5
22687.5
17342.6
26874.8
32267.1
33112.7
30466.6
30301.3
35020.7
33716.1
30675.9
29648
28510.1
36589.7
29420.4
32466.1
28084.6
24571.2
22657.4
21688.6
19576.7
18241
15364.7
13199.2
11343
9396.9
8187.11
6347.38
4391.71
4382.02
4358.87
2764.07
1323.03
675.782
-513.206
-117.871
-1548.96
-1697.49
-3158.64
-444.049
-5325.7
1978.55
-3925.52
521.377
164904
-250802
-115042
-15230
26352
75884.3
134376
72604.4
5439.61
-20897
-53968.7
-73423.6
-102765
-25803.5
4080.68
45071.6
91374.2
92228.2
20306.3
-7600.68
-34411.3
-57308
-74709.4
-58688
-11130.1
8252.16
50769.4
86814.7
79519.3
24548.9
-6567.61
-27679.6
-45000.2
-37330.5
-24126.3
-13724.4
-11970.6
-12567.9
-13462.4
-41396.9
-61895.7
-70715.7
-69496.7
-64554
-53660.5
-54416.4
-55311.8
-57149.1
-59154.3
-53296.5
-48569.1
-43728.5
-31895.3
-27164.3
-21893
-20123.9
-17075.4
-13076.7
-9619.3
-2409.23
436.132
2379.02
6665.19
8324.64
13957.3
24059.4
34982.4
16964.2
24525.4
26114.9
21897.3
35920.9
33914
30660.2
26545.3
23188.5
19834.9
18808.2
12402.1
20735.5
19109
25544.2
30296.2
33315.4
30545.8
25960.1
24540.4
20308
28094.6
20395.1
31029.8
29086.7
27517.6
26765.5
24942.7
21686.2
21028.4
18880.4
15681.5
11297.8
11113.8
9042.8
7556.04
5270.22
4022.96
3535.24
3018.49
3379.65
-77.6407
-806.029
-405.394
-1537.29
-1145.13
-2177.96
-1984.24
-3319.27
-999.068
-3971.54
-1348.38
-199228
261998
93891.4
6577.14
-25752.5
-69590.7
-126243
-102501
-13252.6
18414.7
54872.1
74243.9
104747
20355.6
-9387.8
-44007.5
-85968.9
-128914
-43894
-855.997
38432
64417.7
70294.7
46785.5
3993.41
-14508.3
-54882.9
-96231.1
-112691
-48597.1
-1104
35420.8
44737.8
25542.6
6533.02
-5577.51
-12937.6
-20424.3
-19427.4
-20456.3
-39387.3
2986.93
-46932.1
-46489.9
-60635.3
-52282.8
-43595.5
-38404.6
-32890
-30784.9
-30734.6
-31747.3
-33760.4
-31267.3
-30590.3
-26677.2
-18406.8
-13598.9
-8390.58
-808.619
5211.78
4272.35
8083.95
11232.1
16313.5
11183.8
33524.4
26211.9
29423.5
27705
22616.8
31292.1
22563.2
19172.1
15599.5
14743.2
11175.3
8097.74
5817.37
9816.51
18012.6
22404.9
23622.6
20701.3
17482.2
13639.3
11275.6
10046
14306.5
11856.2
22344.4
22932
24533
25267.2
22888.1
19470.8
17685.3
15307.7
16938.1
15625.1
11905.1
9698.85
8229.68
5882.64
5582.49
3895.37
3197.65
3109.32
217.449
817.091
-161.084
-1037.95
-1525.26
-992.314
-3663.57
2193.72
-5917.45
-390.187
-3455.53
190686
-250067
-113977
-13383.8
29539.7
66456.7
126523
87012.6
6273.12
-22386.1
-52712.4
-59974.2
-98495
-34997.6
1058.91
39208
83954.6
112068
30966.1
-6489.73
-37875.4
-69232.2
-72346.7
-49923.3
-12828.8
3364.27
42822.6
83682.3
99280
38592.5
-4010.44
-31263.2
-47432.7
-46334.8
-26867.8
-12998.1
-8355.32
1555.11
-4603.38
-90084.3
-108042
-138466
-47683.5
-5656.35
23038.7
20695.6
23483.5
23052.3
15380.7
7202.51
4438.74
-4146.39
-7952.95
-13249.6
-11648.2
-7657.3
-2004.81
94.8119
2102.82
3441.87
4157.84
7916.16
11408.7
17729
22265.1
20930.1
25410.8
46646.7
46261.3
30538.5
28031.9
15363.6
11457
13956.8
10093.7
8620.37
4184.09
-2720.02
-9942.25
-13433.9
-8115.37
-4527.78
-1625.35
507.609
-426.837
-62.2035
425.257
6690.5
12828.9
11351.5
20636.6
20947.7
23099.1
23912.7
24250.3
22011
18993.9
15141
11346.7
9375.12
9406.03
8865.15
7659.67
6172.56
5554.03
5425.59
3023.29
2796.11
1107.97
1271.55
598.747
59.3656
-391.187
-1130.39
-2563.79
1485.74
-6775.15
1112.54
-7592.5
-196178
256980
98468.5
5860.88
-31423.3
-61935.7
-108288
-89774
-11760.2
15780.6
43648.9
54916.5
85300.1
25671.9
-5804.71
-34263.2
-65315.4
-107701
-51637.4
-2728.69
28703.1
53198.8
61119.4
42439.8
10684.6
-7705.27
-31849.5
-57031.8
-72398.6
-36892.3
-5909.22
11581.3
29110.8
39900.9
31055.4
18428.6
10161.9
964.168
-8500.18
-71324.1
-191241
-161994
-54110.2
-21321
-23763.6
-21959.1
-6294.79
7126.22
15556.1
20638.2
13709.7
11742.7
6111.99
2047.8
377.771
818.446
2081.31
10275.3
21797.6
35236.5
35329.2
45088.8
48589.1
59790.6
92661.3
102836
82637
38240.1
5992.49
-5399.69
-9662.51
-14513.5
-10296
-9532.58
-7981.1
-9553.85
-12716.9
-14402.7
-12473.7
-12740.2
-17904.4
-21838.9
-25312.9
-24869.9
-17411.5
-12637.4
-7342.34
4356.66
8669.14
11593.2
15841.4
15632.7
15792.8
13096.2
13448.3
12818.1
12451.9
11682.3
10911.1
10134.4
9154.57
7477.38
6182.6
4407.07
6556.51
3764.8
2411.35
1454.59
1049.8
1741.45
553.757
335.572
-788.228
-442.006
-2690.36
-397.865
-4794.64
-1244.89
-6564.75
221938
-218229
-97123.4
-12644.9
15461.2
47395.3
87940.2
69208.7
4646.11
-18985.5
-44584.9
-45926.9
-56852.5
-23680.5
-877.803
18593.6
45388.9
86565.7
38067
-1986.65
-23384.9
-48214.3
-60460.4
-48788.8
-21165
-4052.76
8225.32
27956.6
30526.4
13456.8
-6538.03
-20151.1
-29853.1
-34657.5
-27304.4
-15259
-12892.6
-9516.14
-35011.9
-139463
-152917
-123240
-124675
-99980
-68894
-34590.6
-16919.3
2254.87
3616.88
9120.31
16075.6
17364.2
13991.7
16660
17579.1
25146.6
36458.1
50589.2
53297.4
59915.8
84107.5
105606
112718
123165
94172.3
63508.1
38620
11428.2
-5287.65
-15166.1
-20570.7
-21499.5
-21378.1
-22410.2
-22608.2
-22689
-19876.8
-18138.4
-19459.1
-19291.9
-20282.7
-20886.2
-19841.8
-17043.7
-13146.6
-6808
-3948.59
2305.77
3715.69
8893.48
11878.6
17712.9
19701.4
19790.2
19518
16303.7
14996.5
12450
9576.58
5968.46
4503.1
4002.12
4490.29
5949.83
7530.15
3044.93
3855.24
1773.45
1956.1
1869.06
1039.38
554.796
-340.318
-316.175
-2550.61
-1020.66
-4080.96
-2019.5
-5428.63
-157854
193381
64456.3
2407.41
-20937.9
-39912.2
-59756.6
-45631.5
-7224.96
5881.87
22974.4
29028.1
36372.6
11883.1
-3620.39
-15624.7
-26571.4
-42767.3
-37755.6
-5933.6
5323.3
25540.8
41033.3
40540
18415.3
298.461
-5925.64
-11185.9
-7009.59
-5870.3
-3319.97
5373.37
8789.66
17274.4
17972.7
10509.7
2633.84
-5592
-24230.2
-40652.8
-72425.8
-46867.4
-30596.4
-44590.2
-37586.8
-25868
-13147.6
4701.43
19759.2
20619.4
31503.6
32578.1
31044.8
41889.8
50610.8
65764.5
86699.5
118607
125629
123452
102027
84307.3
65755.1
50698.7
40983.3
35290.4
28659.8
16335.8
7876.33
1714.77
-2418.31
-3483.9
-8349.21
-10953.1
-9861.65
-7893.88
-6898.23
-5972.84
-8852.63
-8239.25
-10461.7
-8007.68
-9691.03
-8790.99
-9592.19
-9421.04
-9090.57
-8003.94
-4525.79
674.927
5699.75
9082.25
10519.4
11971.3
9423.98
8794.33
5565.78
5149.36
2862.66
3509.08
3789.5
3604.14
4478.96
5470.06
5377.93
2854.38
2248.74
1195.68
1642.81
1624.95
902.457
442.64
-357.043
-625.663
-2129.54
-1360.92
-3615.78
-2094.21
-4561.59
178110
-153335
-52822.8
-7721.87
4657.93
16158.2
32274.8
26467.5
321.409
-8796.04
-20403
-24674
-20488.2
-8108.06
-1459.07
4586.42
11737.6
24176.5
24540.4
-121.478
-8389.49
-19185
-28452.5
-30073.3
-15677.3
-3623.28
285.299
6741.51
10307.4
10391.1
5363.59
-1180.17
-3580.61
-4419.8
-2034.66
2249.12
3895.56
-2490.81
-40222.4
-112960
-25775.5
-14253.1
-24980.8
-51757.2
-63091.4
-33428.5
4025.45
680.495
22713.2
35539.6
39872.8
50819.7
57100.3
78641.5
94674.7
108365
94254.3
85668.8
70732.4
72220.7
65496.8
57092.2
45660.5
26357
17293.9
14629.4
12941.5
10913.2
7978.09
7286.78
4757.52
1462.26
-2328.76
-3824.98
-3788.25
-2382.53
-708.013
-137.653
-2753.09
-267.406
-1496.35
-1372.34
-1526.79
-2256
-2450.59
-3069.12
-3304.15
-4161.03
-2533.43
209.298
4401.66
5522.85
7009.92
6952.44
5535.14
4673.93
5060.7
4966.61
3357.89
3337.04
3421.26
4917.63
6520.45
7700.18
3582.22
3555.68
2006.34
1043.77
2129.56
1091.76
952.16
275.754
-267.251
-417.936
-1846.97
-1502.96
-3228.21
-1982.19
-4059.08
-64810
85727.4
22995.7
-752.287
-11608.8
-16908
-23416.7
-13967.9
-3224.41
2096.13
5136.83
7868.31
7112.62
1291.32
-2796.89
-5545.46
-8690.84
-11714.5
-9558.08
-3877.89
-623.586
5242.36
11084.3
13300.5
5346.2
-1008.53
-3864.45
-7062.36
-8672.1
-8542.31
-8204.16
-5778.89
-209.558
-1582.56
893.896
-4360.12
-13315.8
-44406.4
-112130
-43079.1
6037.52
869.393
12632.2
-4171.06
-5829.75
-3514.95
-7859.94
31077.7
43476.4
54189.1
74596.7
87807.3
100799
110542
89457
85434.3
75644.5
55643
47354.7
43097.1
39600
38933.3
34887.2
23041.7
13034
5380.93
1374.97
2256.73
3695.53
4454.35
4760.95
3064.83
3487.61
2126.13
1029.22
1117
377.09
937.096
1852.99
2501.68
2473.53
1958.83
1063.15
-58.2796
-1162.84
-1318.59
-1650.82
-1822.04
-1062.73
-670.046
2253.41
4914.74
7029.13
6740.6
7419.28
5698.89
4110.49
2187.1
3185.16
2934.49
3005.96
5263.6
6283.69
3877.49
3106.7
2159.32
1308.96
1292.95
1728.16
1146.69
804.17
209.562
-356.392
-488.147
-1719.7
-1608.59
-2834.71
-1913.29
-3745.65
89141.2
-72647.9
-20289.2
-4219.62
-89.8202
3544.65
6190.77
3194.58
-1795.87
-4547.53
-6281.86
-8707.55
-7635.73
-3045.24
-1529.74
-338.715
972.778
2883.32
4442.52
67.5894
-3550.67
-5350.95
-8440.37
-8592.4
-4841.36
-2512.46
585.992
2401.96
4144.54
8210.95
9836.89
13108
8785.13
5847.6
494.908
-3569.38
-7488.75
-13796.6
-30117.5
-14102.7
8483.02
38897.3
71037.7
80164.3
85459.2
82491
69052.2
62180.5
66547.9
74250.5
78130.6
69565.9
67744.2
55645.5
46425
33611.9
24421.7
15199
14149.1
9020.95
10732.9
11942.7
10671.9
7028.49
3235.63
1782.07
-1788.05
-1288.22
1643.83
2705.39
1742.33
515.642
701.108
1109.84
-410.505
-849.115
-2555.06
-3133.46
-1908.58
-2737.82
-2154.16
-1839.92
-2179.45
-3133.75
-2376.66
-2815.03
-2400.9
-2035.17
-209.237
2942.6
3466.92
5570.25
7083.57
5897.53
6382.64
6194.57
6386.01
5435.91
5111.55
4863.7
6001.44
6557.62
5528.59
2879.94
2420.14
1109.56
1258.04
2195.42
1377.44
1404.74
464.055
141.889
-416.409
-515.243
-1559.3
-1670.66
-2484.98
-1950.13
-3609.54
2930.94
17164.5
1245.29
-3839.42
-6346.42
-8109.86
-8580.31
-4625.43
-2254.3
-701.753
-92.1373
-153.072
-1182.56
-1764.57
-2395.04
-3037.06
-3497.62
-3526.3
-2791.09
-2437.45
-1321.47
-485.618
183.93
141.386
-1218.36
-2277.97
-3318.08
-3605.28
-3330.46
-3362.27
-3288.94
-1138.63
-901.219
4037.55
3682.98
-1360.99
-28059.8
-68982.7
-2161.41
119578
105636
121933
136061
122403
100940
83509.9
70914.3
62724.7
66424.8
61052.1
59717.3
56324.7
47182.7
39777.9
31435.9
19247.9
6766.82
-4283.68
-10593.7
-10825.5
-6530.74
1389.63
1568.18
2299.26
285.731
-1759.45
-6436.63
-8087.29
-7964.21
-6437.68
-4902.43
-3470.53
-1697.65
-197.005
1327.59
1115.21
1600.13
-487.351
610.791
12.7258
573.199
160.367
-206.509
-1136.97
-997.317
-1076.33
-571.35
760.297
2027.79
3815.17
5290.45
7896.76
7582.98
6415.9
6081.72
4865.63
4303.34
3874.47
3500.41
4400.67
6137.21
5944.08
2893.55
2086.47
887.239
1394.06
1831.88
1485.42
1581.52
918.051
487.157
181.212
-354.179
-429.014
-1385.87
-1616.96
-2159.8
-2002.32
-3393.36
36968.7
-23471.7
-9453.25
-3247.58
-1938.45
-1177.57
-1652.85
-2145.63
-2470.86
-2485.47
-2795.11
-3367.36
-3523.55
-2384.92
-2108.18
-1785.03
-1340.02
-1122.23
-1294.18
-1334.86
-1837.15
-2212.19
-3130.99
-3335.42
-2367.81
-1297.21
-778.2
-318.682
1076.58
1249.66
1977.93
2528.26
3414.64
2387.04
501.621
-1953.49
-25573.8
-25380.9
39062.6
77322.6
69691.1
62441.6
41672.8
27674.9
21592.9
22188.5
28672.1
34782.2
39234.5
37626.1
38863.5
35632.1
29202.7
18659.9
11743.3
5022.66
266.528
-6716.3
-11805.7
-17765.1
-20027.8
-18405.3
-14290.3
-10839
-9376.38
-8671.23
-7572.18
-9175.39
-10995.3
-10146.2
-8265.45
-4873.41
-1357.05
1406.38
2856.24
3359.62
4238.84
3378.68
2525.1
1283.06
1363.74
915.285
498.792
384.319
870.627
1156.13
1403.18
2319.05
4188.65
6173.1
7525.3
9350.71
7891.43
6425.75
4872.09
4426.2
3663.68
3529.48
3941.9
5495.31
5837.08
4138.25
3042.25
1883.21
827.7
1238.47
1827.74
1519.49
1455.7
798.738
489.792
219.553
-280.235
-393.73
-1290.6
-1497.54
-2091.49
-2016.56
-3153.16
17535.2
-1999.07
-2687.55
-5846.93
-4432.19
-4150.71
-4139.94
-2919.33
-2327.34
-1698.81
-1623.18
-1960.85
-2126.59
-2195.04
-2424.58
-2469.32
-2397.04
-2179.45
-2080.64
-2078.09
-1608.63
-1839.43
-1567.73
-2181.19
-2787.62
-3335.9
-3546.43
-3689.72
-4320.55
-5002.29
-5301.16
-5595.95
-4850.26
-4434.65
-6902.09
-11170.4
-8786.72
75478
70191.2
61907.9
62567.8
44909.9
27744.3
6490.77
4339.25
6071.01
4803.04
2036.67
484.588
1345.26
2455.54
5270.79
15119.2
15886.1
9174.25
4137.86
-3830.34
-7378.45
-9740.16
-12764.3
-18345.5
-24711.5
-26263.8
-22496.3
-19290.4
-14847.2
-10307.2
-6307.57
-4531.93
-2770.5
-661.333
1764.83
4747.05
7460.25
9802.04
9009.36
10795.8
9023.74
9188.86
7046.25
5317.02
4171.58
3771.69
3296.38
4315.32
4244.22
4355.7
4639.13
5843.52
6877.31
8730.65
7078.21
6261.68
5051.31
4339.25
3496.52
2861.76
2845.5
3362.79
6166.11
5518.59
3798.31
3077.66
1698.58
1634.89
2329.16
2018.71
1437.62
1262.93
698.77
642.897
267.293
-195.867
-383.852
-1187.18
-1471.81
-1946.27
-1877.14
-2814.01
19850.3
-9193.04
-5172.3
-3508.54
-2888.97
-2345.23
-2484.75
-2654.74
-2296.21
-2248.54
-2226.44
-2180.22
-2420.29
-2317.24
-2209.95
-1963.57
-1904.24
-1948.14
-1893.15
-1732.03
-1776.36
-2074.73
-2000.06
-2275.77
-2513.67
-2385.19
-2130.49
-2090.76
-2074.2
-2086.06
-1525.89
-1363.69
-635.53
399.016
4600.26
839.537
51444
54659.3
41439.6
33537
31471.1
12303.4
-4130.7
2251.02
17469.6
17008.9
10952.5
-11821.8
-35300
-42715.3
-33276.5
-14639
-4653.66
-1323.86
-3766.28
-61.4447
3445.57
3628.78
801.807
-2997.29
-5461.02
-11298.4
-14495.1
-13944.6
-10289.5
-7882.53
-4760.61
-3526.8
-978.718
353.945
2732.4
4043.6
6614.82
6305.65
9058.8
8015.59
9527.4
8676.18
10310.9
8513.9
7852.44
5816.25
5191.12
4312.22
5608.83
5540.28
6886.68
7406.86
8239.89
8516.57
8112.91
6581.8
5476.84
4593.96
4279.81
4205.18
4131.79
4301.4
6104.55
6414.16
4807.3
4288.18
2577.14
1363.87
2441.25
2522.95
1836.98
1670.13
977.698
789.905
672.022
316.001
-170.855
-403.773
-1167.85
-1344.48
-1889.35
-1662.65
-2429.93
14920.5
-4365.36
-4482.35
-4066.83
-3335.3
-3202.72
-2920.52
-2364.61
-2171.75
-2065.27
-1941.45
-2038.78
-2068.11
-2133.19
-2174.75
-2134.92
-2087.56
-2044.11
-2065.97
-1874.2
-1806.12
-1918.22
-2003.77
-2472.21
-3101.66
-3701.64
-4930.35
-6540.83
-9144.42
-13428.7
-19255.6
-28333.8
-39025.6
-58125.8
-46205.7
25249.3
46701
26016.1
11812.9
6972.89
9483.73
15141.3
14998.1
31091.4
31629.1
23998.2
14791.8
4211.71
-7712.15
-19682.6
-47528.2
-65167.9
-68401.6
-55510.4
-35189.9
-19669.7
-11302.4
-12825.7
-16216.3
-18133
-21226.8
-17919.1
-9730.13
-1478.9
5747.99
8735.34
8118.75
8198.99
9046.66
8802.72
9332.17
8110.82
9035.32
8742.89
11024.9
9176.96
11970.7
10312.3
11672.8
9940.11
9981.2
7942.29
6906.48
5574.02
6222
6321.64
6905.16
6940.91
7305.98
6929.16
6842.66
5902.47
4951.86
4199.86
4226.1
3982.2
3959.41
4500.02
6530.05
6050.28
4811.43
3599.78
1675.26
2180
2735.08
2336.65
1530.45
1377.13
398.829
884.116
449.247
323.352
-203.665
-433.91
-1038.41
-1200.4
-1791.15
-1441.06
-2177.54
12479.7
-4339.78
-3691.96
-2940.65
-3378.41
-2965.21
-2389.18
-2282.2
-2445.05
-2223.47
-2042.93
-1981.23
-1926.66
-1993.2
-2075.98
-1987.6
-1964.25
-1892.21
-1848.95
-1970.02
-1933.36
-1910.72
-2061.25
-2122.86
-2279.39
-2509.44
-2391.27
-2030.76
-1519.94
-370.368
1879.49
5489.28
10046.9
13440.7
-2563.16
-45100.8
-24561.7
-2249.73
29193.5
41435.7
51332.2
66244.6
88496
90774.5
88491.3
51612.5
27782.9
6317.64
-4755.56
-15794.2
-23527
-23987.9
-32367.9
-40216.4
-43650.8
-49792.5
-50781.3
-45958.4
-38010.7
-37187.2
-30617.4
-24008.9
-11689.6
-3461.18
2746.75
9252.8
14186.8
17621.2
18472.8
17962.7
16356.7
15597
16410.6
14060.1
15753.5
12930.4
13128.4
11350.6
11413.4
10451.6
10969.9
10366.9
9405.51
7884.62
7034.53
6881.01
7059.88
7170.14
7351.73
6887.06
6746.85
5883.16
4843.85
4798.33
4625.63
4418.93
4401.93
6223.54
7228.78
5000.59
4306.06
2863.8
1347.5
2634.56
2633.85
2178.36
1241.37
1107.55
283.869
1098.98
584.723
464.492
-25.8583
-388.402
-850.453
-1021.47
-1594.31
-1149.89
-1846.74
9472.08
-3120.55
-2969.56
-3010.53
-3105.38
-2915.92
-2311.68
-2268.93
-2124.54
-1988.38
-2043.01
-2036.13
-1970.05
-1881.54
-1910.98
-1920.1
-1900.56
-1863.23
-1878.96
-1816.6
-1909.53
-2018.34
-2032.13
-2138.35
-2423.65
-2804.89
-3355.09
-3907.57
-5039.89
-6438.48
-8618.88
-11675.3
-15931.7
-16719.4
-23499.1
-19673.8
4428.9
11781.1
32021.2
39492.5
27865.3
41728.6
40422.7
47027.2
59747.5
65980.6
60367
57625.9
51740.5
48249.2
45232.8
30730.3
19003.7
13590.3
5977.23
3384.86
417.12
-5612.16
-4528.73
748.964
6134.86
8503.94
9074.49
9214.99
8528.47
8707.37
10996.6
13907.6
15390.1
16380.3
15735.3
17815.8
16750.5
15642.9
13630.1
12340.4
12650.8
10567
10571.6
9742.95
10683.3
10833.2
9434.58
8845.25
7040.23
6697.5
6465.18
6529.02
6557.1
5980.09
5521.02
5288.74
4792.33
4651.51
4318.47
4054.44
4337.45
6261.34
4914.86
4453.41
3585.24
1747.8
1731.67
2617.82
2627.73
1761.68
991.13
896.089
910.327
1206.92
870.654
572.805
12.1104
-423.036
-641.802
-960.514
-1389.12
-900.789
-1590.96
7770.47
-2969.65
-2655.32
-2391.79
-2452.18
-2818.63
-2480.89
-2254.99
-2115.33
-2137.35
-2076.65
-2006.45
-1959.77
-1828.95
-1687
-1796.45
-1828.25
-1842.3
-1652.51
-1751.82
-1868.03
-1938.18
-1875.15
-1787.38
-1823.23
-1609.77
-1336.04
-734.735
987.219
3433.57
7447.37
14189.7
23864.2
36655.8
47153.8
31560.5
-16541.6
-58577.6
-59906.1
-24954.5
-39905.7
-59263.1
-80859.7
-89607.3
-104361
-57395.6
-20578.8
3722.47
17986
23435.5
32176.3
42121.8
47139.7
48813.2
52374.4
56926.1
70747.9
77135
78781
68791.4
55582
38186.5
26405.4
21805.3
21734.9
17190.6
12863.4
8429.73
7564.78
6664.55
8309
11672.8
11584.7
16684.7
17148.9
21010.4
14447.5
13211.7
10730.8
10072.8
9625.95
10289.5
9822.03
9480.58
8447.74
7255.71
6549.83
6209.32
5773.23
5151.09
4882.98
5685.36
4819.06
4896.67
4378.41
3897.96
4823.52
5482.17
4279.82
3183.16
2818.9
1054.98
2225.33
2571.39
2656.71
1448.91
1048.06
993.713
1559.89
1516.58
1056.14
556.126
91.1689
-311.313
-418.719
-811.631
-1091.35
-575.634
-1373.08
6174.14
-2569.27
-2237.74
-2322.22
-2221.41
-2272.19
-2275.27
-2163.27
-2031.53
-1921.3
-2003.48
-1896.29
-1886.1
-1855.75
-1786.39
-1675.3
-1659.41
-1716.52
-1798.73
-1785.31
-1688.9
-1724.08
-1718.58
-1727.51
-1750.1
-1674.96
-1710.33
-2046
-2692.86
-3064.45
-3832.85
-5882.17
-10067.8
-15499.9
-27526
-37243.8
-41652.4
-38072.8
-47301.7
-60955.1
-53469.8
-52267.9
-26553.6
-16565.9
-37019.8
-13149.1
-13492.7
6590.4
19992
27263.1
33129.1
38237.2
36123.1
37547.6
45309.3
54321.2
61298.6
67157.9
89209.7
70586.8
90056.9
79005.3
66684.5
48055.9
37399.9
24944.8
14791.5
8333.7
4596.19
3295.68
3449.59
5785.6
7333.45
10047.1
11484.5
14139.8
19446.3
19288.8
15420.8
13732.9
12282
11910.4
10565.2
9190.83
8169.74
7340.01
6313.31
5548.69
5574.02
4982.1
4489.63
5189.93
4547.9
5228.55
4160.01
3594
5014.58
3903.97
3850.07
2835.91
1966.14
1200.35
2740.23
2775.1
3027.8
1300.42
1039.3
1519.01
1835.98
1359.06
1016.97
513.152
53.623
-325.134
-306.68
-704.407
-868.211
-431.355
-1075.15
5034.64
-2320.91
-2018.76
-2091.06
-1955.33
-2048.86
-2074.93
-2148
-1989.97
-1934.13
-2102.56
-1924.05
-1877.05
-1810.05
-1626.8
-1623.41
-1589.4
-1561.64
-1701.31
-1750.65
-1631.37
-1565.27
-1595.35
-1623.37
-1523.96
-1472.43
-1515.96
-1452.14
-1825.27
-2350.46
-2969.72
-3579.69
-4750.39
-7123.99
-11334.5
-20083.5
-35759.7
-43046.7
-43936.5
-43565.4
-52599.6
-65389.6
-70556.3
-70689.5
-33563.6
-13823
-16235
419.338
14195.7
21612.7
19456.9
24127.9
39122.4
36370.4
44202.1
50945.1
51227
56776.1
64574.4
55641
73380.2
69403.9
73455.7
68353
53941.1
42612.6
31167.7
19853.8