/*--------------------------------*- C++ -*----------------------------------*\
| =========                 |                                                 |
| \\      /  F ield         | OpenFOAM: The Open Source CFD Toolbox           |
|  \\    /   O peration     | Version:  2.2.x                                 |
|   \\  /    A nd           | Web:      www.OpenFOAM.org                      |
|    \\/     M anipulation  |                                                 |
\*---------------------------------------------------------------------------*/
FoamFile
{
    version     2.0;
    format      ascii;
    class       volScalarField;
    location    "0.8";
    object      pB;
}
// * * * * * * * * * * * * * * * * * * * * * * * * * * * * * * * * * * * * * //

dimensions      [1 1 -3 0 0 -1 0];

internalField   nonuniform List<scalar> 
14161
(
-0.00258664
0.00416457
0.000144202
-0.000344334
-0.00188074
-0.00217841
-0.00139353
-0.000310446
0.000935836
0.00134107
0.00193462
0.00211807
0.00133001
-0.000506389
-0.00113478
-0.00189845
-0.00309489
-0.00320408
-0.00235613
-0.00140646
0.000599962
0.000627886
0.00114125
0.0018264
0.00221605
0.00151802
0.000600126
-0.000142194
-0.00158431
-0.00154672
-0.00189545
-0.00256872
-0.00271476
-0.00203623
-0.00187319
-0.00142074
-0.00114511
0.000102562
0.000454534
0.000762916
0.00158273
0.00156692
0.0011698
0.00163538
0.00114617
0.00048929
-0.00338398
-0.00981424
0.0381318
0.0366807
0.0137337
0.0116843
0.00257929
0.00464241
0.00110464
0.00158954
0.000629215
-0.001292
-0.000287756
-0.00147816
-0.000416487
-0.00175723
-0.000906032
-0.00181861
-0.00134771
0.000176379
-0.00130188
-0.00059114
1.44047e-05
-0.000827393
-0.00125265
-0.00152813
-0.00160878
-0.00211386
-0.00436535
-0.0013773
-0.00484373
-0.00249928
-0.00426854
-0.000871858
0.000358939
0.0110184
0.00520083
0.0101148
0.000728032
0.00109453
-0.000420085
-4.26373e-05
-0.000128522
-0.000319936
-0.000352626
-0.000498523
-0.000527731
-0.000370318
-0.000335379
-0.00030744
-0.00042476
-0.000161998
-0.000467155
-0.000106176
-0.000547585
-0.00010733
-0.000532229
3.28103e-05
-0.000574543
0.000162481
-0.000637287
0.00016302
-0.000726351
0.000448796
-0.00135916
0.00122314
-0.00274575
0.00250574
-0.0049396
0.00486847
-0.0076342
0.00766554
-0.00879793
0.00740259
-0.0120919
-0.000820095
0.0020516
0.00477776
0.00650645
0.00396275
-0.000166241
-0.00252295
-0.00445454
-0.00689953
-0.00791863
-0.00287983
0.000496361
0.0022564
0.00397587
0.00710599
0.00833449
0.00515524
0.000195101
-0.00238465
-0.00471455
-0.00666923
-0.00829285
-0.00980715
-0.0077442
-0.00480071
-0.00126978
0.00052609
0.0021473
0.00371613
0.00509434
0.00577894
0.00539321
0.00471343
0.00357696
0.00226216
0.00119192
0.000441018
0.000130845
9.22049e-05
0.000540678
0.00167996
0.00330898
0.0027986
0.00308523
0.0104302
0.0195885
0.0336404
0.00148593
0.00570499
-0.00288913
-0.00383266
0.00445457
-0.000575225
0.000334898
0.000804368
-0.000497215
-0.00128172
-0.00203497
3.40401e-06
-0.00109911
-0.00114983
-0.000623454
-0.0010737
0.000204997
0.0013357
0.00114895
0.0014224
0.00111795
0.00154148
0.00279137
0.0021748
0.00209523
0.00157708
0.00500723
0.000671746
0.00424888
-0.000825393
0.00227479
-0.00158953
0.00579246
-0.0189414
0.00651394
-0.000192458
0.00215878
0.000435716
0.000910543
0.000477419
0.00029212
0.000153435
6.80899e-05
3.04329e-05
-0.000249534
-0.00028263
-0.000282163
-0.000318619
-5.8537e-05
-0.000452159
-1.70726e-05
-0.000462542
-3.22451e-05
-0.000394299
2.59296e-05
-0.000548657
0.000124901
-0.000655973
0.000165167
-0.000733272
0.000475079
-0.00133239
0.00125627
-0.00276885
0.00258987
-0.00490305
0.00492792
-0.00745136
0.00756532
-0.00854989
-0.0118136
0.0196959
0.00119423
-0.00299819
-0.00737718
-0.0108954
-0.00679905
0.000162618
0.00340065
0.00649658
0.0107804
0.0125076
0.00475682
-0.000952865
-0.00456638
-0.00747333
-0.0119407
-0.0148937
-0.00977507
-0.00229447
0.0022563
0.00575325
0.00851001
0.0114403
0.0138723
0.0116006
0.00645813
0.000777001
-0.00210157
-0.00556316
-0.00815659
-0.0098064
-0.0107069
-0.0103877
-0.0086554
-0.00608204
-0.00358834
-0.0014323
0.000311516
0.00165445
0.00261965
0.00333814
0.00371967
0.00434751
0.00504747
0.00602704
0.000406281
0.0257939
-0.00989058
0.0559721
-0.00228099
0.0176122
-0.00201792
0.0060003
0.00148661
-0.001753
-0.000449145
-0.00108231
-0.00151258
-0.00248587
-0.00225809
-0.00257331
-0.00159704
-0.000981718
-0.00216359
-0.000859731
-0.00240549
-0.00333302
-0.00213357
-0.00321814
-0.00181929
-0.00191266
-0.00152955
-0.000295079
0.000651311
0.0027735
-0.00141114
0.00444194
-0.00201354
0.00483426
-0.00368071
0.00702006
-0.00122421
0.00592716
-0.00373954
0.00282663
-0.00123196
6.14154e-05
-0.000152229
-0.00016282
-0.000139849
-0.000487395
-0.000495811
-0.000624283
-0.000547223
-0.000591841
-0.000725688
-0.000367077
-0.000629159
-0.000161098
-0.000545881
1.92795e-05
-0.000525414
5.97237e-05
-0.000493055
0.000157763
-0.000583419
0.000294169
-0.000780111
0.000544744
-0.00140613
0.00137422
-0.00285537
0.00265408
-0.00518917
0.00493924
-0.0076898
0.00749718
-0.00848139
0.0170689
-0.0279357
-0.00118151
0.00346261
0.00978486
0.0145357
0.00971266
-0.000640488
-0.00405164
-0.00929363
-0.0147242
-0.0173853
-0.00729897
0.00126288
0.00438148
0.00903902
0.01478
0.0192066
0.0129215
0.00243918
-0.00321561
-0.00926707
-0.0131172
-0.016888
-0.0204057
-0.0178458
-0.0108662
-0.00370732
0.0014826
0.00507111
0.00838577
0.0111245
0.0129785
0.0131528
0.0112663
0.00854165
0.0055428
0.00291014
0.000646366
-0.000564351
-0.00103982
-0.00171016
-0.00140872
-0.000631905
-0.000115675
0.00274643
0.00162336
0.0236398
-0.00195731
0.0446588
-0.000563542
-0.00260105
-0.00625102
-0.000477108
0.0014135
-0.00173052
0.000965368
-0.000581404
0.00167839
0.000851259
0.000597132
0.00144339
-0.000885177
0.0011107
0.000448393
0.000593843
7.44402e-05
0.00015789
0.000891554
-0.000112272
9.8924e-05
-8.30072e-05
0.000667944
-0.000186683
0.000237681
0.000572871
-0.00104254
0.00233149
-0.00216612
0.00404964
-0.00173414
0.00479944
-0.00621629
0.00139095
-0.00126866
-0.00109578
0.00165784
0.00189677
0.00129752
0.000509022
0.000286959
0.000160519
-5.10037e-05
1.83476e-05
-0.000242434
-0.000163177
-0.000403867
-0.000130071
-0.000337068
-0.000110178
-0.000383989
-5.15859e-05
-0.000505082
8.12545e-05
-0.000651837
0.000204702
-0.000679211
0.000350118
-0.000892948
0.000682507
-0.0014823
0.0013869
-0.00290962
0.00287711
-0.00501977
0.00521338
-0.00722059
0.00728422
-0.0080945
-0.0205028
0.0337429
0.00142034
-0.00369575
-0.0117221
-0.017485
-0.0121457
0.000307437
0.00412083
0.010322
0.0165569
0.0210566
0.00944483
-0.00164748
-0.00508316
-0.0115141
-0.0180572
-0.0234579
-0.0171083
-0.0055457
0.0028584
0.00831167
0.0131304
0.0176619
0.0223888
0.0209434
0.0127632
0.00429758
-0.00227477
-0.00665195
-0.0110619
-0.0147107
-0.0167103
-0.01681
-0.0146375
-0.0113117
-0.00768494
-0.00355045
-0.000867395
0.00092775
0.00269422
0.00415104
0.00528977
0.00604072
0.00648499
0.00622347
0.00486958
0.00711153
0.0250123
0.0597679
0.00410727
0.00328205
0.0020891
-0.00271581
-0.00105901
-0.00466649
-9.33815e-05
-0.00226118
-4.57619e-05
-0.00164785
-0.00438015
0.000549947
-0.00150225
-0.00176175
-0.00039242
-0.00158787
-0.00160323
-0.00131147
-0.000986391
-0.00107431
1.42638e-06
-0.000810017
-0.000479464
-0.000144937
0.000473681
0.000250173
0.00212548
0.00196147
0.000469575
0.00327203
0.000726806
0.00533494
0.000494098
-0.000918955
0.00190013
-0.00358675
0.000411762
-0.00164812
0.00139823
7.99991e-05
0.000745068
-0.000251816
-0.000375954
-0.000805117
-0.000561708
-0.000820186
-0.000621686
-0.000602645
-0.00086819
-0.000342292
-0.000773223
-0.00011627
-0.000626083
9.16069e-05
-0.000562481
0.000321287
-0.000708591
0.000407489
-0.000998675
0.000787889
-0.00157617
0.00152988
-0.00309586
0.00295269
-0.0054164
0.00513289
-0.00755539
0.00715766
-0.0080571
0.0263169
-0.0401955
-0.00257259
0.0038347
0.0125985
0.0193163
0.0145435
0.000400938
-0.00428258
-0.0115512
-0.0183873
-0.0239637
-0.0120132
0.000339018
0.00431654
0.0113749
0.0181246
0.0248711
0.0194321
0.00652386
-0.00302328
-0.00916753
-0.0156581
-0.0210261
-0.0257099
-0.0254552
-0.0172575
-0.00816621
0.000295481
0.0038903
0.00948794
0.0138313
0.0162815
0.0176456
0.0159796
0.0131667
0.00954227
0.00563622
0.00251401
5.69418e-05
-0.00131051
-0.00328315
-0.00474367
-0.00601673
-0.00674533
-0.00759174
-0.00155061
-0.0260121
0.088498
0.0424858
-0.0373048
-0.0147217
-0.00769925
-0.00429817
-5.12245e-05
-0.00262141
0.000173063
-0.00272372
0.000515975
-0.00103956
-0.000945045
-0.00067089
-0.00136721
0.00128855
-0.000569041
-0.000759195
-7.89434e-05
-0.000375839
-4.64034e-05
-0.0002248
0.000152749
-0.000611493
-0.000527727
-0.00115524
-0.000115965
-0.00207201
-0.000828257
0.00302527
-0.00297072
0.000425703
-0.00207434
5.34689e-05
-0.00292425
-0.00268278
6.71602e-05
-0.00138466
-0.000270826
0.00435046
0.000327225
-3.52857e-05
0.00049996
0.000533101
6.43482e-05
4.74238e-05
7.71741e-07
0.000118867
0.000116024
0.000362987
4.62987e-05
0.000283153
-0.000112461
4.60322e-05
-0.000632811
0.000197971
-0.000717108
0.000336809
-0.000688819
0.00052646
-0.00101965
0.000950493
-0.0016948
0.00151159
-0.00306274
0.00300857
-0.00481646
0.00518673
-0.00697267
0.00663245
-0.00775975
-0.0279109
0.0426209
0.00326293
-0.0037121
-0.0132166
-0.0201638
-0.016025
-0.00152621
0.00384337
0.0108808
0.0178189
0.0248921
0.0136996
0.000298546
-0.00411103
-0.011864
-0.0190629
-0.0258658
-0.0223546
-0.00973028
0.00143326
0.00651529
0.0137049
0.0190358
0.0236738
0.0254814
0.0180344
0.00920613
0.000111586
-0.00386782
-0.00997539
-0.0146046
-0.0175951
-0.0193209
-0.0180807
-0.015264
-0.0115237
-0.00764745
-0.00387305
-0.000937509
0.000758522
0.00260055
0.00374544
0.0035679
0.00315827
8.03519e-05
-4.9029e-05
-0.0184832
0.0923807
0.0382324
0.0136631
0.00222028
0.00449422
-0.00663859
-0.000992069
-0.006149
0.00215196
-0.0037912
-0.00113009
-0.00183289
-0.00101865
-0.00145862
-0.00152161
-0.00132863
-0.000870576
-0.00117085
-0.000928189
-0.000973228
-0.00123243
-0.000531119
-0.00157252
-0.00064961
-0.00126675
-0.000142763
-0.00118674
0.000376048
5.21349e-05
-0.00141873
0.00233345
-0.000859066
-0.000727086
0.000348673
0.00198037
-0.00247154
-0.00093747
0.00349121
-0.00653661
0.00480449
-0.00255527
0.00194937
0.00420418
0.00119904
0.000602755
-0.00145319
-0.000671513
-0.00120801
-0.00125525
-0.000885361
-0.00136508
-0.000847773
-0.00104756
-9.42061e-05
-0.000520519
0.000203352
-0.000647991
0.000395038
-0.000887519
0.000525449
-0.00121778
0.00113617
-0.00171018
0.0018965
-0.00323434
0.00318858
-0.00516355
0.00487073
-0.00660668
0.00627967
-0.0077747
0.0329972
-0.0468969
-0.00462278
0.00326759
0.0123485
0.0195337
0.0171461
0.0027383
-0.00318053
-0.0102992
-0.0176743
-0.0250156
-0.015544
-0.00254851
0.00280335
0.00971723
0.0165109
0.0236042
0.0219294
0.0100857
-0.000759242
-0.005947
-0.0134597
-0.018895
-0.0239249
-0.0271299
-0.0209471
-0.0126578
-0.00422198
0.00153824
0.00615875
0.0113758
0.0147505
0.0171244
0.0172421
0.0152165
0.0124528
0.00896508
0.00555897
0.00283489
0.000148766
-0.00129445
-0.00304589
-0.00380445
-0.00375378
-0.00168878
0.00252282
0.00521031
0.0517119
0.087986
-0.0508214
-0.0214324
-0.0140147
-0.00857257
-0.00462726
-0.00649675
-0.000785995
-0.00365243
-0.000860668
-0.00129309
-0.000410094
-0.00115871
-0.000936845
-0.000820017
-0.000694931
-0.000711585
-0.000773275
-0.000387978
-0.000330029
-0.000181614
-0.001011
7.5582e-05
-0.00115044
-0.000312282
-0.000588632
-0.00134735
0.00144857
-0.00160698
0.00134501
-0.00237216
-0.000955272
-0.00533029
-0.00173131
-0.00562433
-0.00368042
0.00264844
-0.00588917
0.00488357
-0.00410875
0.00387901
0.00381235
0.00261215
0.00232592
0.00117879
4.40067e-05
-7.70877e-06
3.46205e-05
0.000940352
0.000808741
0.0011602
0.000207796
0.000168061
-0.000940681
0.000271748
-0.000997505
0.000709598
-0.000551304
0.00103941
-0.00111519
0.00124747
-0.00195198
0.00185396
-0.00310851
0.00320076
-0.00457074
0.00484071
-0.0065165
0.00592821
-0.00725242
-0.0331296
0.0457861
0.00569804
-0.00273079
-0.0115606
-0.0185587
-0.0172861
-0.00412758
0.00242157
0.00854879
0.0154793
0.0228017
0.0157635
0.00377567
-0.00241556
-0.00875485
-0.0154583
-0.0218706
-0.0227049
-0.012179
-0.00165516
0.00290067
0.00980588
0.0150509
0.0190959
0.0230741
0.0193191
0.012377
0.00481242
-0.00129223
-0.00514878
-0.0105103
-0.0140503
-0.0165786
-0.0173673
-0.0160134
-0.0139514
-0.0106304
-0.0075208
-0.00436374
-0.00141279
0.00039436
0.0027071
0.00513002
0.00652863
0.00768632
0.00770475
0.0069887
0.0531711
0.106216
-0.0287721
0.00080285
0.000773417
-0.00334106
-0.00168472
6.18898e-05
-0.00414383
0.00184107
-0.0053972
-0.00058526
-0.00313619
-0.000341112
-0.00215217
-0.000274406
-0.00130842
-0.00150433
-0.000966084
-0.000530185
-0.00108737
-0.00111402
-0.000779545
-0.000693414
-0.000821939
0.000194989
-0.00151214
0.000139703
-0.00169977
0.000180098
0.000892737
0.00683878
-1.02877e-05
-0.00335321
0.0026966
-0.00450981
-0.00548508
0.00112497
-0.00690074
0.00115101
-0.00358612
0.00151684
0.00407168
0.00318947
0.00141761
0.000751572
0.000920653
0.000306938
0.000117237
-0.00142849
-0.000996565
-0.000431992
-0.000757369
-0.000356734
-0.000284085
0.000432376
-0.000770623
0.000506584
-0.0013869
0.000400468
-0.00162561
0.00129845
-0.00196022
0.00199289
-0.00331892
0.00297104
-0.00439121
0.00434997
-0.00551885
0.00513077
-0.0068892
0.0352465
-0.0463428
-0.00642889
0.00182237
0.00965539
0.0160389
0.0165113
0.00503319
-0.00154035
-0.00703145
-0.0137866
-0.0204693
-0.0162477
-0.0056138
0.00101934
0.0057616
0.0118564
0.0171166
0.0191675
0.0108941
0.00222691
-0.00242228
-0.0081396
-0.013312
-0.0175348
-0.0214185
-0.0199865
-0.0144661
-0.00796015
-0.00169906
0.00137612
0.0062698
0.00990328
0.012376
0.0138445
0.0140206
0.0126613
0.010767
0.00808811
0.00555013
0.00285525
0.000624279
-0.00124907
-0.00315348
-0.00428335
-0.00297947
2.13106e-05
0.0041929
0.0424323
0.0667773
-0.00888031
0.000669184
-0.00243736
-0.00605411
-0.00664464
-0.00227203
-0.00871634
0.00122772
-0.0056108
-0.00243185
-0.00229424
-0.00168882
-0.00188057
-0.00196976
-0.000668809
-0.0013759
-0.000260384
-0.00109291
-0.000552238
-0.000686921
-0.000653097
5.55361e-05
-0.000294334
-0.000609994
-9.5827e-05
-0.00127537
0.00019678
0.00463268
-0.00435938
0.00452993
-0.011171
0.000215072
0.00120944
-0.00619211
-0.00570339
-2.43547e-06
-0.00539521
0.00372527
-0.00323768
0.00246477
0.00445074
0.00355662
0.0052885
0.00228203
-0.000891682
0.000778458
-0.000609513
0.00154372
0.00112504
0.000961526
0.000192897
0.000967869
-0.000605573
0.000872137
-0.00134876
0.000551226
-0.000696179
0.00119012
-0.00129782
0.00157338
-0.00204263
0.00216048
-0.00314172
0.00312808
-0.00415661
0.00390331
-0.00530069
0.00490667
-0.00516628
-0.0341929
0.0423766
0.00767223
-0.00114921
-0.00813862
-0.0141535
-0.0152983
-0.00581781
0.000770456
0.00504286
0.0109079
0.0167858
0.0144538
0.00583539
-0.000579555
-0.00437353
-0.00990228
-0.0146784
-0.0179195
-0.0115185
-0.00452286
0.000299247
0.00438181
0.00885008
0.0121423
0.015501
0.0156854
0.0118284
0.00682101
0.00180032
-0.00146248
-0.00486295
-0.0087436
-0.0111758
-0.0129163
-0.0136003
-0.0129893
-0.0118333
-0.010087
-0.0079444
-0.00552857
-0.00391076
-0.00153279
-0.000758101
0.00093862
-0.000231986
-2.29671e-05
-0.0146336
0.102335
0.0368351
0.00498988
-0.00630059
-0.00472716
-0.00349317
-0.00480333
0.00012568
-0.00863067
0.00580024
-0.00589123
-0.000232537
-0.00215544
-0.00108902
-0.00161647
-0.00101323
-0.000547116
-0.000828634
-0.000269162
-0.00101622
-0.000182008
-0.000775168
-0.000381066
-0.000101702
-2.60415e-05
0.0001449
0.000400697
-0.00184246
0.00425928
3.85718e-05
-0.00360944
0.00313992
-0.00508803
0.000795496
-0.00134852
-0.000251176
-0.00576206
0.000798247
-0.00650819
0.00464952
-0.00371103
0.00603168
0.00286983
0.00466344
0.00608667
0.00215717
0.00201642
0.000116655
-0.000689476
-0.00016013
7.1088e-05
-4.27365e-05
-0.000143125
9.56798e-05
-0.000216619
0.000714311
-0.000714532
0.000294485
-0.00122223
0.000793185
-0.00151249
0.00144918
-0.00209367
0.00178511
-0.00229325
0.00227186
-0.00328396
0.00352382
-0.00412567
0.00371176
-0.00484612
0.0321889
-0.0393486
-0.00730422
0.000429075
0.00613968
0.0113641
0.0129458
0.0056972
3.2231e-05
-0.00359658
-0.00858998
-0.0136492
-0.0135531
-0.00667456
-0.000762944
0.00209212
0.00644206
0.00998782
0.0129895
0.00872289
0.00353339
-0.000256028
-0.00343547
-0.00724969
-0.0102753
-0.0130718
-0.0146408
-0.0122141
-0.00860324
-0.00472879
-0.00103381
0.00114781
0.00442307
0.00668432
0.00848089
0.00935236
0.00979675
0.00902096
0.00759556
0.0058852
0.00373956
0.00175783
-0.000189448
-0.00172839
-0.00256299
-0.00371761
0.000409984
0.00167431
0.0552621
0.0187872
0.016898
0.0124774
0.0162788
-0.011364
0.00280288
-0.0078844
-0.00539649
-0.00697698
-0.000825299
-0.00475955
-0.00158227
-0.00217494
-0.00211803
-0.00208928
-0.00133099
-0.00152131
-0.00139294
-0.000732411
-0.000226371
7.03841e-06
-0.000519966
0.000678944
-0.000519511
-3.87173e-05
0.000916363
0.000211612
0.00749782
-0.00247374
-0.00130844
-0.00480475
-0.00398863
0.00132288
-0.00634722
-0.000314686
-0.00744139
0.00367759
-0.000345597
0.00805109
0.00137006
0.014345
0.00561832
0.00686507
0.00423224
0.00214073
0.00132304
0.00113189
0.00137578
1.26569e-05
0.000633382
0.000282147
0.000377171
0.000695061
-4.6517e-06
0.000880204
-0.000593506
0.000815531
-0.000938636
0.00106715
-0.0014022
0.00174592
-0.00205771
0.00192894
-0.00289863
0.00232456
-0.00341318
0.00295251
-0.00443134
0.00459475
-0.00500482
-0.0300408
0.0340153
0.0080027
-5.79891e-06
-0.00468393
-0.00888233
-0.0112176
-0.00579045
-0.000595877
0.0020226
0.00612016
0.00998301
0.0105658
0.00558925
0.000870699
-0.00139744
-0.00486542
-0.00820097
-0.0108586
-0.00870819
-0.00504134
-0.00128413
0.000569292
0.00345722
0.00579478
0.00778444
0.00926993
0.00810532
0.00572126
0.00290474
0.000480516
-0.00175963
-0.00377781
-0.0061438
-0.00777505
-0.0089335
-0.00964668
-0.00945847
-0.00871439
-0.00771884
-0.0066094
-0.00519434
-0.00421585
-0.00291967
-0.0027396
0.000881239
-0.0109452
0.0528591
0.0253874
0.0117516
0.00249296
0.00703839
0.0214019
-0.00878873
0.00576507
-0.0087615
0.000318845
-0.0029437
0.00203985
-0.00284661
-0.00197053
-0.002202
-0.00126705
-7.30401e-05
-0.000681767
0.000137371
-0.00027369
6.44767e-05
0.000120086
5.77761e-05
-0.00101972
-0.000519074
-0.00120467
-3.90077e-05
0.00462822
0.00522294
0.0102939
-0.000549215
0.00577393
0.0043281
0.00655907
0.00497477
0.00380747
0.0109826
0.00968203
0.0136837
0.00781045
0.0109221
0.00422395
0.00845236
0.000212591
0.00477773
0.000644007
0.000652773
0.000545155
0.000514355
0.000578245
0.00073102
0.000248399
0.000128412
-0.000270352
-0.000140602
-0.000476024
0.000380068
-0.000595342
0.000856735
-0.00089022
0.00138339
-0.00122548
0.00128267
-0.0013911
0.00186581
-0.00186343
0.00226723
-0.00258421
0.00278545
-0.00312997
0.00313219
-0.00296326
0.0250597
-0.0288072
-0.00683647
-0.000503182
0.00327258
0.00655727
0.00841465
0.00480563
0.000970933
-0.00129382
-0.00423054
-0.00743168
-0.00894464
-0.00551467
-0.00181701
5.56798e-05
0.00243202
0.0046393
0.0067072
0.00535496
0.00290035
0.000718534
-0.00135806
-0.00299207
-0.00498722
-0.00672881
-0.00807918
-0.0081022
-0.00675185
-0.00474872
-0.00280462
-0.000862472
0.000388107
0.0021384
0.00343624
0.00434872
0.00499333
0.00476278
0.00408835
0.00296944
0.00165752
0.000504214
-0.000919857
-0.00183488
-0.00298789
-0.000160307
-0.00949181
0.0746129
0.00606788
0.00137227
0.00499571
0.013476
0.0209301
0.000283324
0.0153149
-0.0085237
-0.00104835
-0.00854122
-0.00100766
-0.00592578
-0.00197301
-0.00234995
-0.0014912
-0.00019285
-0.00215884
-0.000239258
-0.00362732
-0.000551814
-0.002305
0.0008824
-0.000438096
0.00840559
0.00640253
0.0110141
0.0120919
0.00534478
0.00733653
0.00282494
0.00396857
0.0048804
0.00591794
0.00515656
0.00675369
0.00762758
0.00813329
0.00568665
0.00526577
0.00764215
0.00621021
0.00406743
0.00359854
0.00515752
0.00316286
0.00446268
0.00180986
0.00131071
0.00091481
0.000306703
0.000246769
0.000604571
-0.00047868
0.000117605
-9.10148e-06
0.000588253
-0.000415574
0.000637661
-0.00114087
0.00102826
-0.00128488
0.00139566
-0.00149254
0.00100532
-0.00129638
0.00133076
-0.00171512
0.00236516
-0.00239519
0.00193614
-0.00254925
-0.0222414
0.0235621
0.0065999
0.000781613
-0.00212951
-0.00481251
-0.00677791
-0.00446738
-0.00121
0.000334583
0.00261362
0.00472033
0.0060512
0.00387114
0.00129841
-0.000239681
-0.00192672
-0.00375385
-0.00524671
-0.00533802
-0.00379848
-0.00214034
-0.000630853
0.000318946
0.00175603
0.00271693
0.00360584
0.00391563
0.00307673
0.00188297
0.000687832
-0.000354789
-0.00185996
-0.00293562
-0.00402413
-0.00492011
-0.00555204
-0.00591069
-0.005708
-0.00516548
-0.00428881
-0.00303465
-0.00236664
-0.00134052
-0.00104167
0.00157217
0.00229736
0.0698826
0.00608999
-0.00352229
-0.00824226
-0.00383314
0.00236537
0.0101132
0.0172102
-0.00672466
0.00757279
-0.00712503
0.00231109
-0.00272733
-0.000624228
-0.000688175
-0.00187553
0.00209489
-0.00368886
0.00420531
-0.00262911
0.0131793
0.00212574
0.0204732
0.00779857
0.00893576
0.00835127
0.002674
0.0037201
0.00084382
0.00788675
0.000906376
0.00662212
0.00792043
0.00613935
0.00618101
0.00887392
0.00677151
0.0039398
0.0028816
0.00219482
0.00186683
8.36163e-05
0.00245422
0.00138171
0.00218212
0.0018056
0.00014573
0.000394284
-0.000251623
0.000428401
0.000698894
3.2482e-05
0.000990527
-0.000520436
-3.86856e-05
-4.70134e-05
0.000503639
-0.000404786
0.000806477
-0.000628108
0.00120361
-0.00109067
0.0014959
-0.0017306
0.00169818
-0.00199742
0.00157199
-0.00206331
0.00225879
-0.0024421
0.00264495
-0.0030396
0.0165869
-0.0181289
-0.00525512
-0.000876821
0.00143244
0.00331611
0.00462087
0.00324254
0.00106245
-0.00025017
-0.00164682
-0.00334278
-0.00460973
-0.00355304
-0.00192478
-0.000536304
0.000356147
0.00152498
0.00243454
0.0023972
0.00143795
0.000530858
-0.000419341
-0.00145739
-0.00226995
-0.00315774
-0.00386675
-0.00442447
-0.00420202
-0.00358092
-0.00273284
-0.00193851
-0.00113562
-0.000339222
0.000237377
0.000818881
0.00117209
0.00135974
0.00124075
0.000647941
0.000488848
-0.0012288
-0.00146456
-0.00173496
-0.00156822
-0.00689504
0.0273786
0.0373808
0.00932706
0.00268945
0.00290481
0.0066902
-0.00170372
0.00219532
0.0193117
-0.00352791
0.0124052
-0.00778487
0.000283526
-0.000629798
-0.00364126
0.00484006
-0.00452826
0.00769529
0.000275287
0.0202832
0.00541308
0.00861746
0.00904649
0.00492452
-0.00439585
0.00576413
0.00115922
-0.00115631
0.00138791
-0.000319242
0.00146709
-0.000590285
0.000327305
-0.000423875
-0.000527304
-0.00137679
-0.00112627
-0.000155212
-0.000390229
-0.00024173
6.36508e-05
0.000239842
0.00159441
0.00107261
0.00108735
0.0010021
0.00147354
0.000754922
0.00157402
0.000396828
0.00113487
0.000807561
0.000469987
0.000452964
0.000213406
-0.00030596
0.000169148
0.000554486
-0.000510151
0.000665801
-0.000720921
0.000886992
-0.000602758
0.00076528
-0.000698565
0.000892951
-0.00114191
0.00110789
-0.00124621
0.00157688
-0.00164343
0.00203299
-0.00217532
-0.0138657
0.0139949
0.00439394
0.00088524
-0.000773989
-0.00226417
-0.0034185
-0.00277774
-0.00123131
-0.00024294
0.000690653
0.00172812
0.00261844
0.0019496
0.000870875
0.000138733
-0.000834562
-0.00143192
-0.00230376
-0.00269548
-0.00234863
-0.00180228
-0.00121075
-0.000689404
-0.000146504
0.000271974
0.000626887
0.000866137
0.000698811
0.000446564
6.35938e-05
-0.000530406
-0.00108029
-0.00171225
-0.0022312
-0.00269942
-0.00310935
-0.00343128
-0.00362229
-0.00363533
-0.00360115
-0.00361081
-0.00470738
-0.006086
-0.00217891
-0.0166562
0.0703911
0.0329787
-0.00980342
-0.00874353
-0.0158952
-0.0161841
-0.00901073
-0.00546912
-0.00359402
0.00286249
0.0169375
-0.00162527
0.00463366
0.00865974
-0.00139937
0.0164036
0.0102247
0.00911752
0.00611438
0.00231035
-0.000649338
0.00511135
-0.0096785
0.00402734
-0.00370809
-0.000969239
-0.00174814
-0.00302883
-0.00252002
-0.00188872
-0.00197582
-0.00231292
-0.000633859
-0.00123253
-2.24528e-05
-0.000108123
-1.68248e-05
0.00089696
0.000638418
0.000192921
0.000319831
0.000197589
0.00121213
0.00109322
0.000540246
0.000520649
0.000482563
0.000628945
0.000602727
0.000575458
0.000397768
0.000225129
0.000350223
5.88337e-05
0.000435461
-0.000384615
0.000313732
0.000149738
-0.000235339
0.000728893
-0.000638806
0.00105501
-0.000901591
0.000964554
-0.000661958
0.000317088
-0.000428921
0.000645856
-0.000598264
0.000798053
-0.00105879
0.00172062
-0.00160861
0.00930045
-0.00974239
-0.0033336
-0.000785003
0.000499986
0.00143231
0.00212427
0.00175645
0.000714066
0.000153434
-0.000624928
-0.00128555
-0.00184859
-0.00193854
-0.00131981
-0.000724572
-0.000287436
5.69405e-05
0.000419773
0.000541296
0.000289953
-3.18587e-05
-0.000443477
-0.000914579
-0.00137476
-0.00171895
-0.0021342
-0.00235846
-0.00251501
-0.00241247
-0.00224663
-0.00197568
-0.00171828
-0.00147294
-0.0012661
-0.00112002
-0.000997939
-0.00100271
-0.00122415
-0.00134218
-0.00144911
-0.00139304
-8.53688e-05
-0.000931271
0.00331253
-0.0165413
0.0742151
0.0243847
-0.00396382
-0.00149423
-0.00367082
-0.00135748
0.000105767
0.00358906
-0.00100703
0.00443005
0.00421325
0.00821139
0.00529006
0.00589335
0.0101165
0.00837549
-0.00429802
0.00785929
-0.00800279
0.00389258
-0.00289878
-0.0029225
0.000448971
-0.00487486
-0.000979935
-0.00445934
-0.0014689
-0.00340585
-0.00227799
-0.00165514
-0.00123805
-0.00134707
-0.000930491
-0.00130472
-0.000313428
-0.000981989
-0.000150401
-0.00131012
-0.00109027
-0.000772571
-0.00031707
1.58364e-05
0.000439298
0.000724298
-1.75268e-05
0.000798336
0.000785897
0.000748858
0.000314683
0.000186688
0.000275418
0.000189019
0.000528287
0.00018783
0.000430094
-0.000157299
-0.000112689
0.000417768
-3.01087e-05
0.000450247
-0.000296033
0.000670898
-0.000845298
0.00114367
-0.00153611
0.00124338
-0.00107693
0.000787564
-0.000859123
0.000682085
-0.000746499
0.00136477
-0.00131666
-0.0073531
0.00712648
0.00241318
0.000615203
-0.000244796
-0.000931983
-0.00144931
-0.00145409
-0.000869154
-0.000366795
-1.61849e-05
0.000394861
0.000751837
0.00061902
0.000374974
-4.42306e-05
-0.000377126
-0.000801455
-0.00109379
-0.00126582
-0.00142366
-0.00130777
-0.00113304
-0.000993697
-0.000849091
-0.000664829
-0.000597786
-0.000558913
-0.000554225
-0.000608729
-0.0007058
-0.00088007
-0.00117165
-0.00134338
-0.00156043
-0.00161544
-0.00173452
-0.0017549
-0.00170867
-0.00164098
-0.00135438
-0.00123077
-0.000423583
-0.000659201
0.00399044
-0.0104595
0.0627455
0.0228759
-0.00661781
-0.00467939
-0.00261957
-0.003265
-0.00191854
0.000731276
0.00377747
0.00547551
0.0170812
0.00502701
0.0043342
0.00943083
-0.00959888
0.0113386
-0.0046211
0.000532816
0.00112842
-0.00161909
-0.00164695
-0.00163788
-0.00305857
-0.000253454
-0.00266562
-0.00112227
-0.00114811
-0.00163006
-0.00106815
-0.000981548
-0.00112677
-0.000695359
-0.000441936
-0.00060049
-0.000660472
-0.000891867
-0.000188127
-0.000330402
5.16362e-05
-0.000131202
-0.000507433
0.000420803
-4.28676e-05
0.000626025
-0.000353779
1.40182e-06
-3.44831e-05
-0.000249122
-0.000212575
-2.98162e-05
8.0878e-05
0.000449555
0.000125571
0.000349784
-3.57276e-05
0.000230219
-5.70993e-05
0.000424355
-0.000562944
0.000834003
-0.000237602
0.000455712
-0.000230699
0.000374253
-0.000370467
0.000811665
-0.000886689
0.000595775
-0.000247445
0.000247497
-0.000429446
0.000867513
-0.00103027
0.00438014
-0.00440611
-0.00176945
-0.000543178
0.000114951
0.000524561
0.000807886
0.000738103
0.000354979
0.000150089
-0.000303892
-0.000498404
-0.000689214
-0.00094522
-0.000801653
-0.00062072
-0.000508241
-0.000370789
-0.000323068
-0.000304547
-0.000364561
-0.000486283
-0.000731986
-0.000895721
-0.00109583
-0.00127203
-0.00146603
-0.00166196
-0.00180438
-0.00181773
-0.00181249
-0.00176918
-0.00167018
-0.00159883
-0.0015205
-0.00143245
-0.00128215
-0.00107644
-0.000782328
-0.00061217
-0.000255945
-8.83657e-05
0.000265864
0.000102943
0.00271231
-0.00536221
0.0608927
0.0169724
-0.00582462
0.000547163
-0.00404127
0.000512851
0.000193817
0.00283711
0.00263701
0.00612053
0.0145845
0.00448161
0.00435626
-2.5821e-05
-0.00240224
-0.000453791
-0.00104755
-0.000814061
-0.000555172
-0.00178496
-0.000141988
-0.00227552
-0.000376898
-0.00157284
-3.52169e-05
-4.7654e-05
-0.00275017
0.000167815
-0.00083748
-0.00122309
-0.0011905
-0.000691417
-0.00185039
-0.00118188
-0.00131696
-0.00174084
-0.00106436
-0.000840494
-0.00100091
-0.000178827
-0.000478589
0.000189099
-0.000792575
0.000422761
-0.000349475
0.000110898
-8.50264e-05
6.37588e-05
0.000244013
0.000203229
0.000683192
4.27138e-05
6.00793e-05
0.000341839
-4.90699e-05
0.00043173
-0.00027372
0.000451269
-0.000339384
0.000743575
-0.000554601
0.000780643
-0.000747071
0.000419172
-7.24583e-05
0.000107857
3.97931e-05
-0.000130292
0.000144882
-0.000130927
-4.16089e-05
0.000547347
-0.000801247
-0.00339215
0.00312088
0.00114121
0.000294261
-8.67995e-05
-0.000356754
-0.000535
-0.000659804
-0.00050061
-0.000344045
-0.000124295
-9.13962e-05
1.09139e-05
2.34342e-05
-5.68612e-05
-0.000233061
-0.000378409
-0.000542136
-0.000707129
-0.000886396
-0.000938482
-0.000984596
-0.0010128
-0.00105633
-0.00102858
-0.00103978
-0.000940651
-0.00109033
-0.00109842
-0.00113562
-0.00118554
-0.00118216
-0.00128651
-0.00133934
-0.00138203
-0.00136817
-0.00131904
-0.00125961
-0.00117179
-0.00119797
-0.00102162
-0.000723953
-0.000437585
7.45949e-05
0.00156209
0.00384108
0.0526585
0.0170855
-0.000298792
-0.000100806
0.00203369
-0.00128972
0.00132759
0.00467409
0.0081641
0.00854353
0.011696
0.000482252
0.000450847
0.000335183
-0.00117479
-0.00140592
-0.000190194
-0.00206805
-0.00145942
0.000125771
-0.000872106
-0.00142247
-0.000789814
-0.000967902
-0.000547979
-0.00225267
0.000405822
-0.000575242
-0.00185797
-0.000408574
-0.000245464
-0.000923438
-0.000518284
-0.000258724
-0.000517388
-0.0011135
-0.00058509
-0.000662401
-0.000647345
-0.000463928
-0.000649138
-4.72817e-05
-0.000338726
-4.1751e-05
-0.000144039
0.000284744
-0.00010548
0.000277653
7.94762e-05
0.000246519
0.000131056
-3.93783e-05
8.61105e-05
0.000482221
-0.00036348
0.000161793
-0.000207048
0.000659493
-0.000282532
0.00064356
-0.000316923
0.000413292
-0.00073184
0.000929937
-0.000545196
0.00049176
-0.000370882
0.000156602
0.000254771
-0.000391368
0.000224412