/*--------------------------------*- C++ -*----------------------------------*\
| =========                 |                                                 |
| \\      /  F ield         | OpenFOAM: The Open Source CFD Toolbox           |
|  \\    /   O peration     | Version:  2.2.x                                 |
|   \\  /    A nd           | Web:      www.OpenFOAM.org                      |
|    \\/     M anipulation  |                                                 |
\*---------------------------------------------------------------------------*/
FoamFile
{
    version     2.0;
    format      ascii;
    class       volScalarField;
    location    "3";
    object      Ma;
}
// * * * * * * * * * * * * * * * * * * * * * * * * * * * * * * * * * * * * * //

dimensions      [0 0 0 0 0 0 0];

internalField   nonuniform List<scalar> 
14161
(
6.06218
6.06218
6.06218
6.06218
6.06218
6.06218
6.06218
6.06218
6.06218
6.06218
6.06218
6.06218
6.06218
6.06218
6.06218
6.06218
6.06218
6.06218
6.06218
6.06218
6.06218
6.06218
6.06218
6.06218
6.06218
6.06218
6.06218
6.06218
6.06218
6.06218
6.06218
6.06218
6.06218
6.06218
6.06218
6.06218
6.06218
6.06218
6.06218
6.06203
6.05968
6.01879
5.2477
1.70254
0.70712
0.507124
0.46632
0.455366
0.449049
0.44359
0.43865
0.433962
0.429675
0.42546
0.421004
0.416074
0.410712
0.405701
0.401174
0.397174
0.393122
0.388627
0.38343
0.378001
0.373072
0.368727
0.364829
0.360674
0.355828
0.350192
0.344801
0.340029
0.33592
0.33183
0.327204
0.321536
0.315789
0.310623
0.306172
0.301879
0.297136
0.291327
0.285305
0.27982
0.275031
0.270358
0.265152
0.258906
0.252653
0.246899
0.241719
0.236434
0.230335
0.22357
0.217019
0.211015
0.205202
0.198887
0.191721
0.18451
0.17765
0.171028
0.164009
0.156175
0.148191
0.14042
0.132793
0.124703
0.115918
0.106941
0.0980211
0.0889841
0.079304
0.0690191
0.0584098
0.0474758
0.0359684
0.0235871
0.0140931
6.06218
6.06218
6.06218
6.06218
6.06218
6.06218
6.06218
6.06218
6.06218
6.06218
6.06218
6.06218
6.06218
6.06218
6.06218
6.06218
6.06218
6.06218
6.06218
6.06218
6.06218
6.06218
6.06218
6.06218
6.06218
6.06218
6.06218
6.06218
6.06218
6.06218
6.06218
6.06218
6.06218
6.06218
6.06218
6.06218
6.06218
6.06218
6.06218
6.06203
6.05968
6.01875
5.24527
1.7029
0.70622
0.505216
0.464119
0.453164
0.446922
0.441558
0.436703
0.432081
0.427847
0.423646
0.419192
0.414232
0.408844
0.403842
0.399337
0.395351
0.391285
0.386762
0.381511
0.376074
0.37115
0.366821
0.362931
0.358766
0.353889
0.348225
0.342833
0.338078
0.333981
0.329892
0.325254
0.319565
0.313826
0.308671
0.304232
0.29995
0.295202
0.289392
0.283388
0.27792
0.273139
0.268475
0.263272
0.257056
0.250836
0.245101
0.239921
0.234641
0.228563
0.221843
0.215328
0.209333
0.203514
0.197202
0.190074
0.182901
0.176069
0.169461
0.162454
0.154656
0.146725
0.139025
0.131461
0.123425
0.114748
0.105914
0.0972033
0.0883254
0.0788107
0.0688338
0.0587122
0.0485619
0.0385893
0.0289817
0.0259815
6.06218
6.06218
6.06218
6.06218
6.06218
6.06218
6.06218
6.06218
6.06218
6.06218
6.06218
6.06218
6.06218
6.06218
6.06218
6.06218
6.06218
6.06218
6.06218
6.06218
6.06218
6.06218
6.06218
6.06218
6.06218
6.06218
6.06218
6.06218
6.06218
6.06218
6.06218
6.06218
6.06218
6.06218
6.06218
6.06218
6.06218
6.06218
6.06218
6.06203
6.05976
6.0205
5.27285
1.71281
0.70762
0.505221
0.463806
0.452744
0.446446
0.441077
0.436236
0.431638
0.427418
0.423203
0.418726
0.413725
0.408332
0.403346
0.398879
0.394915
0.390834
0.386276
0.380986
0.37556
0.370655
0.366361
0.362474
0.358291
0.353373
0.34769
0.34231
0.337579
0.333494
0.329393
0.324727
0.319011
0.313286
0.308143
0.303713
0.299426
0.294656
0.288827
0.282831
0.27737
0.272586
0.267907
0.262679
0.25646
0.250245
0.244512
0.239314
0.234011
0.22792
0.221228
0.214741
0.208746
0.202897
0.196547
0.189427
0.182267
0.17544
0.168801
0.161744
0.153942
0.14603
0.138371
0.13082
0.122784
0.11419
0.105532
0.0971168
0.0885609
0.0794689
0.0701858
0.0612161
0.0527768
0.0455922
0.0396838
0.040127
6.06218
6.06218
6.06218
6.06218
6.06218
6.06218
6.06218
6.06218
6.06218
6.06218
6.06218
6.06218
6.06218
6.06218
6.06218
6.06218
6.06218
6.06218
6.06218
6.06218
6.06218
6.06218
6.06218
6.06218
6.06218
6.06218
6.06218
6.06218
6.06218
6.06218
6.06218
6.06218
6.06218
6.06218
6.06218
6.06218
6.06218
6.06218
6.06218
6.06203
6.05997
6.02421
5.33325
1.7332
0.71157
0.507447
0.465748
0.454546
0.448096
0.442619
0.4377
0.433065
0.428814
0.424557
0.42005
0.415012
0.409629
0.404689
0.400283
0.396355
0.392259
0.387669
0.382352
0.376973
0.372121
0.367888
0.364009
0.359802
0.354834
0.349152
0.34382
0.339142
0.335092
0.330976
0.326265
0.320524
0.314839
0.309738
0.305329
0.301032
0.296221
0.290365
0.284401
0.278958
0.274169
0.26945
0.264166
0.257934
0.251727
0.246005
0.240778
0.235415
0.229265
0.222568
0.216077
0.210057
0.204123
0.197665
0.19049
0.183296
0.176427
0.169708
0.162558
0.154719
0.146808
0.139186
0.131658
0.123635
0.115157
0.106721
0.0986306
0.0904721
0.0819816
0.0736152
0.0660378
0.0594105
0.0548138
0.0517793
0.053669
6.06218
6.06218
6.06218
6.06218
6.06218
6.06218
6.06218
6.06218
6.06218
6.06218
6.06218
6.06218
6.06218
6.06218
6.06218
6.06218
6.06218
6.06218
6.06218
6.06218
6.06218
6.06218
6.06218
6.06218
6.06218
6.06218
6.06218
6.06218
6.06218
6.06218
6.06218
6.06218
6.06218
6.06218
6.06218
6.06218
6.06218
6.06218
6.06218
6.06205
6.06017
6.02835
5.40323
1.75807
0.715813
0.509194
0.4671
0.455872
0.44944
0.444045
0.439219
0.434689
0.430523
0.426334
0.421891
0.416858
0.411509
0.406636
0.402294
0.398425
0.394354
0.389759
0.38441
0.379087
0.374305
0.370176
0.366354
0.362155
0.357148
0.351488
0.346239
0.341662
0.337698
0.333611
0.328877
0.323148
0.317539
0.312533
0.308204
0.303931
0.299119
0.293267
0.28739
0.282025
0.277286
0.272551
0.267233
0.261019
0.25487
0.249203
0.243973
0.238542
0.23231
0.225589
0.219065
0.213006
0.206974
0.20037
0.193111
0.185858
0.178946
0.17214
0.164871
0.156996
0.149111
0.141556
0.13408
0.126129
0.117824
0.109651
0.101929
0.0942526
0.0864968
0.07914
0.0729468
0.0679449
0.0653792
0.0644304
0.0669042
6.06218
6.06218
6.06218
6.06218
6.06218
6.06218
6.06218
6.06218
6.06218
6.06218
6.06218
6.06218
6.06218
6.06218
6.06218
6.06218
6.06218
6.06218
6.06218
6.06218
6.06218
6.06218
6.06218
6.06218
6.06218
6.06218
6.06218
6.06218
6.06218
6.06218
6.06218
6.06218
6.06218
6.06218
6.06218
6.06218
6.06218
6.06218
6.06218
6.06208
6.06039
6.03263
5.47942
1.78796
0.720242
0.510132
0.467413
0.455958
0.449361
0.443923
0.439077
0.43454
0.430329
0.42603
0.421409
0.416158
0.41077
0.405889
0.401545
0.397575
0.393367
0.388615
0.383169
0.377907
0.373184
0.36914
0.365279
0.361004
0.355888
0.350268
0.345141
0.340695
0.336794
0.332698
0.327883
0.322162
0.316675
0.311851
0.307686
0.303462
0.298608
0.292765
0.287029
0.281886
0.277372
0.272788
0.267492
0.261352
0.255389
0.250008
0.245051
0.239835
0.233704
0.227174
0.220917
0.21516
0.209367
0.202894
0.195782
0.188729
0.182073
0.17546
0.168296
0.160532
0.152753
0.145275
0.137847
0.129993
0.121875
0.113976
0.106611
0.0994516
0.0924902
0.0861337
0.0812306
0.0776584
0.0767114
0.0774111
0.0800391
6.06218
6.06218
6.06218
6.06218
6.06218
6.06218
6.06218
6.06218
6.06218
6.06218
6.06218
6.06218
6.06218
6.06218
6.06218
6.06218
6.06218
6.06218
6.06218
6.06218
6.06218
6.06218
6.06218
6.06218
6.06218
6.06218
6.06218
6.06218
6.06218
6.06218
6.06218
6.06218
6.06218
6.06218
6.06218
6.06218
6.06218
6.06218
6.06218
6.06208
6.06064
6.03763
5.57232
1.82732
0.725758
0.510867
0.467139
0.455377
0.448653
0.443226
0.438426
0.433977
0.429808
0.425528
0.420919
0.415682
0.410445
0.405692
0.401499
0.397575
0.393342
0.388533
0.383082
0.37788
0.373227
0.369213
0.365274
0.36089
0.35562
0.350015
0.344948
0.340528
0.336568
0.332354
0.327355
0.321573
0.316119
0.311343
0.307166
0.302876
0.297844
0.291931
0.286251
0.281219
0.276779
0.272203
0.266803
0.260694
0.254888
0.249722
0.244908
0.239781
0.233684
0.227323
0.221351
0.215935
0.210452
0.20423
0.197417
0.190712
0.184433
0.178179
0.171326
0.163905
0.156514
0.149455
0.142419
0.134914
0.127126
0.11955
0.112529
0.105886
0.0996959
0.0942574
0.0904852
0.0881625
0.0885104
0.090631
0.0931896
6.06218
6.06218
6.06218
6.06218
6.06218
6.06218
6.06218
6.06218
6.06218
6.06218
6.06218
6.06218
6.06218
6.06218
6.06218
6.06218
6.06218
6.06218
6.06218
6.06218
6.06218
6.06218
6.06218
6.06218
6.06218
6.06218
6.06218
6.06218
6.06218
6.06218
6.06218
6.06218
6.06218
6.06218
6.06218
6.06218
6.06218
6.06218
6.06218
6.06208
6.06094
6.04428
5.70416
1.88609
0.734388
0.513303
0.468414
0.456331
0.449506
0.444111
0.439371
0.435001
0.430844
0.426548
0.421908
0.416683
0.411601
0.406981
0.402924
0.39903
0.394771
0.389924
0.384532
0.379466
0.374949
0.371011
0.367028
0.362545
0.357178
0.351658
0.346683
0.342332
0.338306
0.333968
0.328784
0.322974
0.317579
0.312846
0.308604
0.304189
0.298976
0.292996
0.287331
0.282328
0.277813
0.273121
0.267556
0.261388
0.255578
0.250424
0.245548
0.240297
0.234082
0.227751
0.221868
0.216544
0.211131
0.204943
0.198297
0.191893
0.185991
0.180108
0.173613
0.16662
0.159718
0.153195
0.146721
0.139828
0.132739
0.125866
0.119495
0.11347
0.107953
0.103284
0.100463
0.0992228
0.100699
0.104002
0.106411
6.06218
6.06218
6.06218
6.06218
6.06218
6.06218
6.06218
6.06218
6.06218
6.06218
6.06218
6.06218
6.06218
6.06218
6.06218
6.06218
6.06218
6.06218
6.06218
6.06218
6.06218
6.06218
6.06218
6.06218
6.06218
6.06218
6.06218
6.06218
6.06218
6.06218
6.06218
6.06218
6.06218
6.06218
6.06218
6.06218
6.06218
6.06218
6.06218
6.06213
6.06132
6.05183
5.86652
1.9665
0.746061
0.517142
0.470983
0.458656
0.451804
0.446526
0.441903
0.437644
0.433526
0.429227
0.424517
0.419273
0.414291
0.409808
0.405878
0.401981
0.397679
0.392739
0.387401
0.3825
0.378156
0.374333
0.37035
0.365798
0.360351
0.354988
0.350169
0.345981
0.341983
0.337605
0.332278
0.32651
0.321237
0.31662
0.312388
0.307884
0.302529
0.296523
0.290891
0.285917
0.28131
0.27644
0.270662
0.264358
0.258417
0.253089
0.247946
0.242378
0.235923
0.229512
0.223575
0.218144
0.212608
0.206322
0.19975
0.193487
0.187753
0.182015
0.1757
0.169047
0.16262
0.156645
0.150718
0.144443
0.138125
0.132119
0.126686
0.121603
0.116967
0.113084
0.111072
0.110766
0.113262
0.117433
0.119711
6.06218
6.06218
6.06218
6.06218
6.06218
6.06218
6.06218
6.06218
6.06218
6.06218
6.06218
6.06218
6.06218
6.06218
6.06218
6.06218
6.06218
6.06218
6.06218
6.06218
6.06218
6.06218
6.06218
6.06218
6.06218
6.06218
6.06218
6.06218
6.06218
6.06218
6.06218
6.06218
6.06218
6.06218
6.06218
6.06218
6.06218
6.06218
6.06218
6.06213
6.06169
6.05866
6.02983
2.06477
0.758832
0.520263
0.47227
0.45947
0.452535
0.44732
0.442748
0.438492
0.434294
0.429897
0.425064
0.419872
0.415027
0.410607
0.406645
0.402625
0.398222
0.393207
0.387993
0.383219
0.378923
0.375032
0.370939
0.366295
0.360941
0.355743
0.351033
0.346884
0.342817
0.338374
0.333075
0.327484
0.322378
0.317845
0.313607
0.309093
0.303744
0.297915
0.292491
0.287666
0.283148
0.27835
0.272655
0.266605
0.260946
0.25585
0.250859
0.245353
0.238998
0.232665
0.226731
0.221147
0.215398
0.208947
0.202366
0.196157
0.190436
0.184689
0.178429
0.172043
0.165993
0.160414
0.154887
0.149109
0.143526
0.138421
0.133957
0.129805
0.126195
0.12333
0.122156
0.122746
0.12612
0.130927
0.133088
6.06218
6.06218
6.06218
6.06218
6.06218
6.06218
6.06218
6.06218
6.06218
6.06218
6.06218
6.06218
6.06218
6.06218
6.06218
6.06218
6.06218
6.06218
6.06218
6.06218
6.06218
6.06218
6.06218
6.06218
6.06218
6.06218
6.06218
6.06218
6.06218
6.06218
6.06218
6.06218
6.06218
6.06218
6.06218
6.06218
6.06218
6.06218
6.06218
6.06218
6.06222
6.06759
6.21491
2.2047
0.776241
0.524959
0.474474
0.461068
0.454123
0.449078
0.444717
0.440535
0.436346
0.432004
0.427143
0.422091
0.417465
0.413251
0.409269
0.405109
0.400611
0.395592
0.390546
0.385914
0.381756
0.377756
0.373449
0.368631
0.363357
0.358343
0.35376
0.34962
0.345348
0.340618
0.335242
0.329856
0.324869
0.320359
0.315932
0.31115
0.30563
0.299952
0.294685
0.289907
0.285254
0.280252
0.274474
0.268616
0.263161
0.258183
0.253203
0.2477
0.241547
0.235509
0.229885
0.224494
0.218809
0.212438
0.206001
0.199912
0.19417
0.188349
0.182105
0.175957
0.170272
0.165014
0.159766
0.154415
0.149492
0.145231
0.141589
0.138249
0.135624
0.133818
0.133559
0.135097
0.13921
0.144507
0.146506
6.06218
6.06218
6.06218
6.06218
6.06218
6.06218
6.06218
6.06218
6.06218
6.06218
6.06218
6.06218
6.06218
6.06218
6.06218
6.06218
6.06218
6.06218
6.06218
6.06218
6.06218
6.06218
6.06218
6.06218
6.06218
6.06218
6.06218
6.06218
6.06218
6.06218
6.06218
6.06218
6.06218
6.06218
6.06218
6.06218
6.06218
6.06218
6.06218
6.06213
6.06203
6.0721
6.38208
2.39261
0.797658
0.530703
0.477149
0.462842
0.456028
0.451312
0.447105
0.442936
0.438598
0.433897
0.429041
0.424483
0.420228
0.416288
0.412239
0.407846
0.402994
0.398096
0.393551
0.389385
0.385515
0.381421
0.376765
0.371632
0.366695
0.362104
0.357948
0.353855
0.349398
0.344241
0.338812
0.333722
0.329015
0.324606
0.319982
0.314766
0.309016
0.303454
0.298303
0.29353
0.288629
0.283206
0.277267
0.271524
0.266237
0.261274
0.256159
0.250416
0.244346
0.238561
0.233251
0.227985
0.222299
0.216073
0.20993
0.204197
0.198654
0.192857
0.186695
0.180759
0.175404
0.170383
0.165333
0.160385
0.156056
0.152508
0.149516
0.146897
0.145215
0.144445
0.145121
0.147634
0.152523
0.158167
0.159971
6.06218
6.06218
6.06218
6.06218
6.06218
6.06218
6.06218
6.06218
6.06218
6.06218
6.06218
6.06218
6.06218
6.06218
6.06218
6.06218
6.06218
6.06218
6.06218
6.06218
6.06218
6.06218
6.06218
6.06218
6.06218
6.06218
6.06218
6.06218
6.06218
6.06218
6.06218
6.06218
6.06218
6.06218
6.06218
6.06218
6.06218
6.06218
6.06213
6.06122
6.04825
5.99571
6.57054
2.65333
0.822797
0.536353
0.478828
0.463492
0.456898
0.452473
0.448374
0.444216
0.439702
0.434917
0.430397
0.42623
0.422434
0.418564
0.414331
0.409603
0.404676
0.400123
0.396024
0.392334
0.388434
0.383911
0.378757
0.373747
0.369152
0.365101
0.361275
0.357045
0.35201
0.346545
0.341406
0.336769
0.33261
0.328311
0.323374
0.317674
0.312035
0.306847
0.302193
0.297558
0.292436
0.286528
0.28057
0.275031
0.270045
0.26507
0.259618
0.253541
0.247549
0.242038
0.23691
0.231627
0.225709
0.219541
0.213666
0.208288
0.20295
0.197193
0.191249
0.185674
0.180697
0.175936
0.171127
0.16664
0.162925
0.159993
0.157612
0.155739
0.155011
0.155217
0.156837
0.160294
0.166028
0.171909
0.173481
6.06218
6.06218
6.06218
6.06218
6.06218
6.06218
6.06218
6.06218
6.06218
6.06218
6.06218
6.06218
6.06218
6.06218
6.06218
6.06218
6.06218
6.06218
6.06218
6.06218
6.06218
6.06218
6.06218
6.06218
6.06218
6.06218
6.06218
6.06218
6.06218
6.06218
6.06218
6.06218
6.06218
6.06218
6.06218
6.06218
6.06218
6.06218
6.06215
6.0617
6.05299
6.04163
6.8798
3.05561
0.856186
0.544741
0.482374
0.466563
0.460613
0.456606
0.452706
0.448435
0.44372
0.439151
0.434908
0.43117
0.427509
0.42343
0.418759
0.413629
0.408824
0.404529
0.4009
0.39728
0.393103
0.387999
0.382544
0.377595
0.373326
0.369731
0.365949
0.361435
0.355776
0.350162
0.345227
0.341013
0.337132
0.332816
0.327352
0.321324
0.315767
0.310961
0.306627
0.30203
0.296497
0.290262
0.284343
0.279106
0.274278
0.269222
0.263329
0.257015
0.251084
0.2458
0.240735
0.235296
0.229174
0.223136
0.217611
0.212535
0.207352
0.201643
0.195999
0.190876
0.186303
0.181853
0.177394
0.173436
0.170327
0.167939
0.166156
0.165024
0.165178
0.16626
0.168721
0.173123
0.179675
0.185737
0.187145
6.06218
6.06218
6.06218
6.06218
6.06218
6.06218
6.06218
6.06218
6.06218
6.06218
6.06218
6.06218
6.06218
6.06218
6.06218
6.06218
6.06218
6.06218
6.06218
6.06218
6.06218
6.06218
6.06218
6.06218
6.06218
6.06218
6.06218
6.06218
6.06218
6.06218
6.06218
6.06218
6.06218
6.06218
6.06218
6.06218
6.06218
6.06218
6.06222
6.06291
6.07121
6.15928
7.11975
3.6604
0.901738
0.559554
0.489236
0.47323
0.468035
0.464183
0.460265
0.455558
0.450739
0.446333
0.442381
0.43881
0.43506
0.430823
0.42575
0.420343
0.41561
0.411614
0.408202
0.404513
0.400141
0.39461
0.388917
0.384003
0.379909
0.376334
0.37244
0.367579
0.361454
0.355696
0.350765
0.346631
0.342689
0.338257
0.332334
0.326082
0.320587
0.31595
0.311657
0.306995
0.301068
0.294669
0.288875
0.283836
0.279055
0.273887
0.267665
0.261345
0.255601
0.250495
0.245449
0.239802
0.233638
0.227797
0.222591
0.217708
0.212552
0.206963
0.201658
0.196965
0.192742
0.188552
0.184466
0.180998
0.178412
0.176472
0.175239
0.174777
0.175644
0.177513
0.180741
0.186095
0.193361
0.199584
0.200846
6.06218
6.06218
6.06218
6.06218
6.06218
6.06218
6.06218
6.06218
6.06218
6.06218
6.06218
6.06218
6.06218
6.06218
6.06218
6.06218
6.06218
6.06218
6.06218
6.06218
6.06218
6.06218
6.06218
6.06218
6.06218
6.06218
6.06218
6.06218
6.06218
6.06218
6.06218
6.06218
6.06218
6.06218
6.06218
6.06218
6.06218
6.06218
6.06218
6.06215
6.06413
6.1154
6.82385
4.91842
0.966197
0.579349
0.497378
0.479674
0.474715
0.470976
0.466978
0.461983
0.457034
0.452714
0.448927
0.445384
0.441596
0.437372
0.432397
0.427328
0.422804
0.418836
0.415326
0.411669
0.407456
0.402266
0.396923
0.392171
0.387956
0.384167
0.380229
0.375471
0.36943
0.363715
0.358787
0.354412
0.350008
0.345134
0.33893
0.332549
0.32695
0.322186
0.317606
0.312642
0.306464
0.30011
0.294438
0.289457
0.284636
0.279275
0.272923
0.266741
0.261222
0.256219
0.251137
0.245292
0.239185
0.233584
0.228613
0.2238
0.218578
0.213131
0.208131
0.203794
0.199823
0.195826
0.192112
0.189096
0.186959
0.18539
0.184675
0.184784
0.186277
0.188836
0.192868
0.199177
0.20696
0.213335
0.214452
6.06218
6.06218
6.06218
6.06218
6.06218
6.06218
6.06218
6.06218
6.06218
6.06218
6.06218
6.06218
6.06218
6.06218
6.06218
6.06218
6.06218
6.06218
6.06218
6.06218
6.06218
6.06218
6.06218
6.06218
6.06218
6.06218
6.06218
6.06218
6.06218
6.06218
6.06218
6.06218
6.06218
6.06218
6.06218
6.06218
6.06218
6.06218
6.06207
6.06034
6.05249
6.08341
6.64628
5.46968
1.05268
0.600439
0.504628
0.48331
0.475874
0.47166
0.468006
0.464326
0.460344
0.455595
0.450789
0.446432
0.442524
0.439209
0.435864
0.432111
0.427677
0.423054
0.41878
0.414929
0.411547
0.408074
0.4041
0.399499
0.395003
0.390629
0.38638
0.382133
0.377552
0.372534
0.36755
0.362882
0.358179
0.353029
0.347024
0.340938
0.335291
0.33
0.324763
0.319238
0.312852
0.306569
0.300879
0.295774
0.290709
0.285017
0.278657
0.272654
0.267262
0.262232
0.257005
0.251024
0.245081
0.239703
0.234852
0.230028
0.224755
0.219533
0.214889
0.210881
0.207116
0.203335
0.200039
0.197473
0.195792
0.194544
0.194344
0.194981
0.197013
0.200288
0.205087
0.21234
0.220408
0.226956
0.227966
6.06218
6.06218
6.06218
6.06218
6.06218
6.06218
6.06218
6.06218
6.06218
6.06218
6.06218
6.06218
6.06218
6.06218
6.06218
6.06218
6.06218
6.06218
6.06218
6.06218
6.06218
6.06218
6.06218
6.06218
6.06218
6.06218
6.06218
6.06218
6.06218
6.06218
6.06218
6.06218
6.06218
6.06218
6.06218
6.06218
6.06218
6.06218
6.06222
6.0621
6.06216
6.06675
6.19579
4.72715
1.14766
0.625267
0.50777
0.481668
0.472544
0.468072
0.464544
0.460945
0.457013
0.452355
0.447712
0.443687
0.440309
0.437411
0.434307
0.430679
0.42634
0.421976
0.418235
0.415084
0.412399
0.409476
0.405853
0.401508
0.397293
0.393498
0.390114
0.386986
0.38352
0.37929
0.374492
0.369668
0.364944
0.360283
0.355506
0.350349
0.344864
0.339219
0.33338
0.32726
0.320714
0.314374
0.308439
0.302861
0.297245
0.291135
0.2848
0.278893
0.273497
0.26831
0.262811
0.256803
0.251075
0.24593
0.241163
0.236302
0.23108
0.226173
0.221924
0.218177
0.214573
0.211056
0.208215
0.206087
0.204839
0.203933
0.204191
0.205422
0.207879
0.21197
0.217418
0.225568
0.233767
0.240484
0.241468
6.06218
6.06218
6.06218
6.06218
6.06218
6.06218
6.06218
6.06218
6.06218
6.06218
6.06218
6.06218
6.06218
6.06218
6.06218
6.06218
6.06218
6.06218
6.06218
6.06218
6.06218
6.06218
6.06218
6.06218
6.06218
6.06218
6.06218
6.06218
6.06218
6.06218
6.06218
6.06218
6.06218
6.06218
6.06218
6.06218
6.06218
6.06218
6.06218
6.06218
6.06191
6.05787
5.97596
4.57456
1.31367
0.658468
0.514112
0.482948
0.472539
0.467563
0.463652
0.459818
0.455682
0.450927
0.44638
0.442419
0.439127
0.436098
0.432784
0.428956
0.42454
0.420441
0.416925
0.414105
0.411406
0.408335
0.404575
0.400349
0.396554
0.39341
0.390929
0.388394
0.385319
0.381313
0.376976
0.373028
0.369495
0.366224
0.362601
0.358164
0.352875
0.347306
0.341674
0.335961
0.330127
0.324159
0.317917
0.311453
0.304941
0.298374
0.291997
0.28602
0.280433
0.274892
0.269025
0.263086
0.257599
0.252616
0.247839
0.242867
0.23781
0.23323
0.22932
0.225753
0.222272
0.219091
0.216715
0.214995
0.214119
0.213641
0.2143
0.216209
0.218982
0.223928
0.229908
0.238889
0.247148
0.254
0.254998
6.06218
6.06218
6.06218
6.06218
6.06218
6.06218
6.06218
6.06218
6.06218
6.06218
6.06218
6.06218
6.06218
6.06218
6.06218
6.06218
6.06218
6.06218
6.06218
6.06218
6.06218
6.06218
6.06218
6.06218
6.06218
6.06218
6.06218
6.06218
6.06218
6.06218
6.06218
6.06218
6.06218
6.06218
6.06218
6.06218
6.06218
6.06218
6.06218
6.06218
6.06203
6.05997
6.02221
5.11041
1.5588
0.705614
0.528324
0.491397
0.479585
0.473745
0.469069
0.464603
0.459911
0.454982
0.450469
0.446442
0.442945
0.439489
0.435725
0.431512
0.426983
0.422883
0.419326
0.416311
0.413253
0.40981
0.405704
0.401498
0.397853
0.394835
0.392207
0.389338
0.385883
0.381725
0.37785
0.374611
0.372043
0.369507
0.366376
0.362214
0.357367
0.352675
0.348332
0.344079
0.339448
0.333975
0.327686
0.320937
0.314042
0.30728
0.300769
0.294556
0.288474
0.282298
0.276099
0.270256
0.264888
0.259889
0.254945
0.249854
0.24503
0.240776
0.237081
0.233604
0.230288
0.22748
0.225577
0.224225
0.223683
0.223723
0.224728
0.227372
0.23038
0.236143
0.242607
0.252317
0.260638
0.267591
0.268653
6.06218
6.06218
6.06218
6.06218
6.06218
6.06218
6.06218
6.06218
6.06218
6.06218
6.06218
6.06218
6.06218
6.06218
6.06218
6.06218
6.06218
6.06218
6.06218
6.06218
6.06218
6.06218
6.06218
6.06218
6.06218
6.06218
6.06218
6.06218
6.06218
6.06218
6.06218
6.06218
6.06218
6.06218
6.06218
6.06218
6.06218
6.06218
6.06218
6.06218
6.06205
6.06103
6.05871
5.90501
1.92228
0.763153
0.544878
0.501122
0.489093
0.483519
0.478915
0.474303
0.469371
0.464616
0.460214
0.456232
0.452452
0.448494
0.444207
0.439519
0.434909
0.430677
0.426858
0.423356
0.419667
0.415598
0.411019
0.40667
0.402825
0.39952
0.396335
0.39288
0.388776
0.384465
0.380685
0.377502
0.374779
0.371892
0.368426
0.364152
0.360091
0.35661
0.353584
0.350426
0.346469
0.341343
0.335375
0.32926
0.323298
0.317321
0.311222
0.304684
0.297691
0.290829
0.284383
0.278498
0.27307
0.267831
0.262555
0.257438
0.252861
0.248868
0.245269
0.241822
0.238762
0.236321
0.234861
0.233807
0.233588
0.234215
0.235477
0.238868
0.24208
0.248572
0.255546
0.265842
0.274273
0.281314
0.282445
6.06218
6.06218
6.06218
6.06218
6.06218
6.06218
6.06218
6.06218
6.06218
6.06218
6.06218
6.06218
6.06218
6.06218
6.06218
6.06218
6.06218
6.06218
6.06218
6.06218
6.06218
6.06218
6.06218
6.06218
6.06218
6.06218
6.06218
6.06218
6.06218
6.06218
6.06218
6.06218
6.06218
6.06218
6.06218
6.06218
6.06218
6.06218
6.06218
6.0621
6.06093
6.04833
6.00272
6.50502
2.57532
0.839386
0.564303
0.51234
0.500516
0.495609
0.491495
0.487148
0.482702
0.478397
0.47425
0.470198
0.466016
0.46158
0.456918
0.452139
0.447607
0.443297
0.439114
0.4348
0.430203
0.425335
0.420391
0.415767
0.411513
0.407541
0.40352
0.399306
0.394666
0.390228
0.386272
0.382858
0.379575
0.376017
0.371828
0.367529
0.363778
0.360654
0.357932
0.354845
0.350876
0.345968
0.34107
0.336518
0.332068
0.327269
0.321595
0.314885
0.307547
0.300412
0.293916
0.287908
0.282179
0.276446
0.270848
0.265764
0.261375
0.257484
0.253849
0.25044
0.247695
0.245609
0.244491
0.243712
0.243752
0.24507
0.2465
0.250553
0.254049
0.261154
0.268701
0.279468
0.288026
0.295156
0.296377
6.06218
6.06218
6.06218
6.06218
6.06218
6.06218
6.06218
6.06218
6.06218
6.06218
6.06218
6.06218
6.06218
6.06218
6.06218
6.06218
6.06218
6.06218
6.06218
6.06218
6.06218
6.06218
6.06218
6.06218
6.06218
6.06218
6.06218
6.06218
6.06218
6.06218
6.06218
6.06218
6.06218
6.06218
6.06218
6.06218
6.06218
6.06218
6.06218
6.06218
6.06237
6.06597
6.11381
6.87535
4.47089
0.945717
0.587694
0.523046
0.509524
0.504472
0.500416
0.496595
0.49275
0.489014
0.485252
0.481279
0.477026
0.472576
0.468222
0.464067
0.460141
0.45627
0.452121
0.447574
0.442632
0.437638
0.432848
0.428247
0.423742
0.419076
0.414096
0.408755
0.403502
0.39864
0.394227
0.390208
0.386176
0.381863
0.377243
0.372987
0.369263
0.366068
0.36283
0.359141
0.354714
0.350374
0.346579
0.3432
0.339721
0.335477
0.330024
0.323512
0.316883
0.310595
0.304538
0.298554
0.292255
0.285835
0.279978
0.274967
0.270635
0.266659
0.262885
0.259573
0.257142
0.255365
0.254394
0.253972
0.254191
0.256227
0.257787
0.262356
0.266233
0.273894
0.282019
0.293165
0.301827
0.309045
0.310414
6.06218
6.06218
6.06218
6.06218
6.06218
6.06218
6.06218
6.06218
6.06218
6.06218
6.06218
6.06218
6.06218
6.06218
6.06218
6.06218
6.06218
6.06218
6.06218
6.06218
6.06218
6.06218
6.06218
6.06218
6.06218
6.06218
6.06218
6.06218
6.06218
6.06218
6.06218
6.06218
6.06218
6.06218
6.06218
6.06218
6.06218
6.06218
6.06218
6.06207
6.06082
6.05453
6.06577
6.39333
5.62872
1.1133
0.626777
0.53496
0.515071
0.507149
0.502092
0.498186
0.494537
0.490953
0.487303
0.483405
0.47951
0.475866
0.472463
0.469244
0.465929
0.46235
0.45838
0.45425
0.450225
0.446328
0.442576
0.438738
0.434498
0.429813
0.424697
0.419486
0.414444
0.409554
0.40472
0.399814
0.39473
0.389527
0.384596
0.380169
0.376264
0.372587
0.368721
0.36434
0.359854
0.355903
0.352579
0.349575
0.34615
0.341783
0.336443
0.331069
0.326008
0.320969
0.315585
0.309515
0.302627
0.295857
0.289965
0.284972
0.28052
0.276272
0.27238
0.26919
0.267046
0.265459
0.264525
0.264494
0.264911
0.267584
0.269295
0.274275
0.278591
0.286795
0.295454
0.306886
0.315648
0.322947
0.324518
6.06218
6.06218
6.06218
6.06218
6.06218
6.06218
6.06218
6.06218
6.06218
6.06218
6.06218
6.06218
6.06218
6.06218
6.06218
6.06218
6.06218
6.06218
6.06218
6.06218
6.06218
6.06218
6.06218
6.06218
6.06218
6.06218
6.06218
6.06218
6.06218
6.06218
6.06218
6.06218
6.06218
6.06218
6.06218
6.06218
6.06218
6.06218
6.06218
6.06218
6.06213
6.06194
6.06052
6.03366
5.1821
1.36621
0.679608
0.543775
0.516008
0.507012
0.502569
0.499355
0.496365
0.49335
0.490111
0.486566
0.483119
0.479889
0.476887
0.473919
0.47073
0.46722
0.463384
0.459662
0.456134
0.452823
0.449547
0.445928
0.441818
0.437293
0.432852
0.42853
0.424322
0.42011
0.415485
0.410325
0.404637
0.398957
0.39376
0.388991
0.384593
0.380227
0.375568
0.37076
0.366394
0.362614
0.359336
0.355964
0.35201
0.347379
0.342868
0.33883
0.334967
0.330796
0.325774
0.319559
0.312721
0.30635
0.300817
0.295817
0.291071
0.286388
0.282414
0.279373
0.277405
0.275836
0.27492
0.275308
0.275922
0.279123
0.281002
0.286365
0.291097
0.299849
0.308996
0.3206
0.329474
0.336846
0.338617
6.06218
6.06218
6.06218
6.06218
6.06218
6.06218
6.06218
6.06218
6.06218
6.06218
6.06218
6.06218
6.06218
6.06218
6.06218
6.06218
6.06218
6.06218
6.06218
6.06218
6.06218
6.06218
6.06218
6.06218
6.06218
6.06218
6.06218
6.06218
6.06218
6.06218
6.06218
6.06218
6.06218
6.06218
6.06218
6.06218
6.06218
6.06218
6.06218
6.06218
6.06218
6.06218
6.06258
6.08753
6.05855
1.83525
0.763008
0.565952
0.52796
0.51708
0.512217
0.508697
0.505424
0.502108
0.498592
0.494897
0.491356
0.488014
0.484843
0.481663
0.478283
0.474645
0.470813
0.467182
0.46378
0.460583
0.457268
0.453613
0.449482
0.445233
0.441177
0.437264
0.433442
0.429404
0.424891
0.419734
0.414377
0.409145
0.404087
0.399186
0.394266
0.389084
0.383672
0.378623
0.374188
0.370351
0.366624
0.362577
0.358032
0.353649
0.349886
0.34662
0.343348
0.339382
0.334286
0.328378
0.322631
0.31736
0.312303
0.307264
0.301921
0.296908
0.292992
0.29008
0.288129
0.286478
0.285556
0.286423
0.287192
0.290809
0.292896
0.298649
0.303754
0.313033
0.322629
0.334343
0.343323
0.350781
0.35275
6.06218
6.06218
6.06218
6.06218
6.06218
6.06218
6.06218
6.06218
6.06218
6.06218
6.06218
6.06218
6.06218
6.06218
6.06218
6.06218
6.06218
6.06218
6.06218
6.06218
6.06218
6.06218
6.06218
6.06218
6.06218
6.06218
6.06218
6.06218
6.06218
6.06218
6.06218
6.06218
6.06218
6.06218
6.06218
6.06218
6.06218
6.06218
6.06218
6.06218
6.06218
6.06197
6.05721
6.1208
7.06118
3.01559
0.879938
0.597247
0.546068
0.533289
0.527833
0.523871
0.520074
0.516176
0.512151
0.508232
0.504452
0.50078
0.497133
0.493412
0.489588
0.485631
0.481695
0.477951
0.474348
0.470759
0.466994
0.462997
0.458756
0.454612
0.450612
0.446699
0.44276
0.438552
0.433922
0.428961
0.424002
0.419152
0.414327
0.409414
0.404214
0.398482
0.392768
0.387663
0.383139
0.378944
0.374648
0.369908
0.365174
0.361097
0.357722
0.354649
0.351212
0.346929
0.34205
0.337329
0.332995
0.328635
0.323943
0.318529
0.312789
0.307843
0.304171
0.301369
0.299167
0.297434
0.29652
0.297869
0.298739
0.302656
0.304984
0.311147
0.316584
0.326355
0.336363
0.348129
0.357189
0.364742
0.366897
6.06218
6.06218
6.06218
6.06218
6.06218
6.06218
6.06218
6.06218
6.06218
6.06218
6.06218
6.06218
6.06218
6.06218
6.06218
6.06218
6.06218
6.06218
6.06218
6.06218
6.06218
6.06218
6.06218
6.06218
6.06218
6.06218
6.06218
6.06218
6.06218
6.06218
6.06218
6.06218
6.06218
6.06218
6.06218
6.06218
6.06218
6.06218
6.06218
6.06218
6.06218
6.06223
6.06312
6.08573
6.47598
9.15492
1.06146
0.633457
0.558108
0.542946
0.538159
0.534415
0.530775
0.527146
0.523491
0.519917
0.516405
0.512909
0.509316
0.505557
0.50165
0.497786
0.494022
0.4904
0.486776
0.482983
0.478987
0.474768
0.470527
0.466417
0.46241
0.45838
0.45412
0.449522
0.444575
0.43961
0.434776
0.429918
0.424974
0.419783
0.414193
0.408229
0.402545
0.397345
0.392542
0.387864
0.382978
0.377848
0.373213
0.369301
0.365932
0.362523
0.358569
0.354206
0.350175
0.346694
0.343248
0.33942
0.334678
0.329051
0.323691
0.319292
0.315953
0.313071
0.310425
0.308724
0.307879
0.309635
0.310557
0.314701
0.317287
0.323863
0.329607
0.339833
0.350211
0.361986
0.371129
0.378824
0.381196
6.06218
6.06218
6.06218
6.06218
6.06218
6.06218
6.06218
6.06218
6.06218
6.06218
6.06218
6.06218
6.06218
6.06218
6.06218
6.06218
6.06218
6.06218
6.06218
6.06218
6.06218
6.06218
6.06218
6.06218
6.06218
6.06218
6.06218
6.06218
6.06218
6.06218
6.06218
6.06218
6.06218
6.06218
6.06218
6.06218
6.06218
6.06218
6.06218
6.06218
6.06218
6.06218
6.06218
6.0615
6.04746
5.38072
1.34896
0.687866
0.5682
0.544709
0.538028
0.534498
0.531681
0.529018
0.526349
0.523625
0.520796
0.51781
0.514697
0.511476
0.508244
0.505048
0.501858
0.498609
0.495204
0.491617
0.487858
0.484093
0.480408
0.476747
0.473035
0.469085