/*--------------------------------*- C++ -*----------------------------------*\
| =========                 |                                                 |
| \\      /  F ield         | OpenFOAM: The Open Source CFD Toolbox           |
|  \\    /   O peration     | Version:  2.2.x                                 |
|   \\  /    A nd           | Web:      www.OpenFOAM.org                      |
|    \\/     M anipulation  |                                                 |
\*---------------------------------------------------------------------------*/
FoamFile
{
    version     2.0;
    format      ascii;
    class       volScalarField;
    location    "0.7";
    object      pB;
}
// * * * * * * * * * * * * * * * * * * * * * * * * * * * * * * * * * * * * * //

dimensions      [1 1 -3 0 0 -1 0];

internalField   nonuniform List<scalar> 
14161
(
-0.00334557
0.000741999
-0.000301956
-5.1151e-05
-0.000258286
-0.000236966
-0.000308882
-0.000324645
-0.000373848
-0.000401654
-0.000433298
-0.000474
-0.000499266
-0.000525276
-0.000559756
-0.000580125
-0.000601286
-0.000611057
-0.000640891
-0.000635243
-0.000642729
-0.000638838
-0.000635396
-0.000617341
-0.000596721
-0.000568709
-0.000533549
-0.000491723
-0.000435178
-0.000364768
-0.000279588
-0.000201943
-8.17666e-05
3.64557e-05
0.000155524
0.000342775
0.000465724
0.000592856
0.000688172
0.000774306
0.000916
0.00122413
0.00153491
0.00182174
0.00204737
0.00228663
0.00259092
0.00306054
0.00309589
0.00326022
0.00343356
0.00154882
0.00172086
-0.000446725
0.0844067
0.0221485
0.00208782
0.00105886
-0.00107419
0.00351067
-0.000527487
-0.00243273
0.00142133
1.62491e-05
-0.00222149
0.000828408
0.00268589
-0.00339348
-0.00975552
-0.00247604
0.0192775
-0.00316504
-0.0273441
0.00796727
0.0298092
-0.021743
-0.000559115
0.0277339
-0.0269983
0.0124886
-0.00125798
-0.012403
0.0184924
0.000958232
-0.018193
0.0143905
0.00454433
-0.00722053
-0.00176103
0.00571991
0.00510606
0.000266606
-0.00349985
-0.00200583
-0.000607294
0.00306534
-0.000436876
0.00077888
-0.00114281
0.00052855
-0.001131
0.00102972
-0.00143176
0.000940713
-0.00119695
0.000772598
-0.00160771
0.000852976
-0.00195034
0.00205228
-0.00255134
0.00333038
-0.00550169
0.00539594
-0.00867156
0.00825113
-0.0110062
0.0107243
-0.011564
-0.00334897
0.000745007
-0.000302574
-5.14066e-05
-0.000258717
-0.000236766
-0.00030889
-0.000325057
-0.000374883
-0.000396957
-0.0004416
-0.000466589
-0.000508046
-0.000519031
-0.000559333
-0.000581891
-0.000598842
-0.000613786
-0.000635385
-0.00064148
-0.00064402
-0.00063991
-0.00063823
-0.000618285
-0.000597461
-0.000571144
-0.000538001
-0.000495204
-0.000436676
-0.000369661
-0.000286839
-0.000205596
-9.823e-05
2.18694e-05
0.000143495
0.000339516
0.000482087
0.000672623
0.000842073
0.00101073
0.00123323
0.00151553
0.0018986
0.0023634
0.00257767
0.00284935
0.00313008
0.00349629
0.00308804
0.00434893
0.00218452
0.00565817
-0.00468258
0.0197727
0.0447356
0.0237076
0.00873609
-0.00330857
-0.00293804
-0.00194152
-0.00311963
-0.00344979
-0.002218
0.00653054
0.00101687
-0.00046398
-0.0017708
0.00401954
0.0101081
0.00141065
-0.017818
-0.000998394
0.0306913
0.00355501
-0.0224706
0.00543616
0.0175065
-0.0371105
0.0210582
0.00160882
-0.00985244
0.00219382
0.00498117
0.000282774
-0.00254087
-0.00962635
0.0065591
0.00156022
-0.00823755
-0.00195503
-0.000903298
0.00233223
-5.76095e-06
-0.000197971
-0.00101377
0.000149684
-0.00109239
0.0015445
-0.00143501
0.00108485
-0.00112612
0.000838343
-0.00149736
0.0010256
-0.00100348
0.00090304
-0.00134227
0.00151599
-0.0022516
0.00133881
-0.00364789
0.00219021
-0.00512944
0.00522789
-0.00800279
0.00852724
-0.0100411
0.0110777
-0.0121747
-0.0033468
0.000743431
-0.000302302
-5.18451e-05
-0.000258831
-0.000237224
-0.000308824
-0.000324834
-0.00037523
-0.000398603
-0.000440022
-0.000467189
-0.000501635
-0.000528479
-0.000555572
-0.000584272
-0.000600861
-0.000613379
-0.000640447
-0.000639183
-0.000642818
-0.00064084
-0.000637371
-0.000617405
-0.000598431
-0.000569571
-0.000536717
-0.000491944
-0.000437442
-0.000365686
-0.000281569
-0.000202553
-8.28636e-05
4.15357e-05
0.000143067
0.000309671
0.00039582
0.000481511
0.000511102
0.000506066
0.000533094
0.000688019
0.000872475
0.00110876
0.00119976
0.00164101
0.00199115
0.00269921
0.00328244
0.00432675
0.00615416
0.00927319
0.0080017
0.03891
0.014598
0.0485569
-0.0171575
0.00537363
0.00548809
0.00485939
0.000847101
0.00255253
-0.0012563
-0.00556316
-0.00410993
-0.00330896
-0.00434531
-0.00315287
-0.000624059
-0.00410365
-0.00604256
-0.00115498
0.00845735
-0.0167754
-0.00298729
0.0130513
-0.00269596
-0.012076
0.0210748
-0.0134398
-0.000180589
0.00121075
-0.0101733
-0.00795739
0.0110171
-0.00664968
-0.010062
0.00642567
0.000467498
0.000626125
-0.00544033
-0.00267957
0.00104053
0.00337605
-0.00139608
-0.00136964
-0.00193439
-0.000918523
-0.0012603
0.00124654
-0.00213808
0.000357182
-0.00143448
0.00102848
-0.00123793
0.00107817
-0.00146234
0.0012491
-0.00153503
0.00157155
-0.00319143
0.00321732
-0.00566483
0.00486298
-0.00773949
0.0056233
-0.0119549
0.0110124
-0.0103771
-0.00334599
0.00074217
-0.00030286
-5.22124e-05
-0.000259089
-0.000237354
-0.000308874
-0.000325808
-0.000374178
-0.000401012
-0.000435236
-0.00047711
-0.000492743
-0.000533841
-0.000553025
-0.00058237
-0.000598846
-0.000616441
-0.000637232
-0.000638895
-0.000647863
-0.000641106
-0.000639985
-0.000623473
-0.000603188
-0.000576457
-0.000545354
-0.0005046
-0.000451639
-0.000386613
-0.000311049
-0.000222059
-0.000141175
-1.67858e-05
0.000104894
0.000294282
0.000476771
0.000724056
0.000840284
0.00110831
0.00146742
0.00194843
0.00220728
0.002471
0.00273682
0.0031017
0.00375108
0.00434615
0.00532576
0.00695411
0.00685913
0.0157013
0.0045018
0.0581553
-0.0126879
0.0448337
-0.0107356
-0.003328
0.00490203
-0.000337699
0.000902913
-0.00332913
0.000388718
-0.000821091
-0.00235577
0.00176803
-0.00102119
0.00117305
-0.00218442
0.002325
0.00371517
0.000742855
-9.09493e-05
0.00332496
0.00237724
-0.00488934
0.00146692
-0.00764543
0.000671006
0.000621687
0.00669882
-0.0112477
0.00924696
0.00301838
0.00244149
0.0105448
-0.00790792
0.00444955
0.00593398
0.00524513
-0.00119399
0.000453308
0.000647282
0.000280261
0.000151901
0.000218236
-0.00254453
-0.000131638
-0.00101805
0.000337395
-0.00157492
0.000750304
-0.0013345
0.00126476
-0.00230383
0.000894794
-0.00151157
0.00173967
-0.00251386
0.00149456
-0.0027639
0.0021686
-0.00368185
0.00564874
-0.00689771
0.0107626
-0.00771475
0.0091731
-0.0125723
-0.00334126
0.000738487
-0.000302908
-5.28015e-05
-0.000259165
-0.000237583
-0.000308264
-0.000326621
-0.000372378
-0.000403576
-0.000435417
-0.000468909
-0.000508588
-0.000525106
-0.000558954
-0.000587943
-0.000597295
-0.000621481
-0.000633978
-0.000647215
-0.00064764
-0.00064264
-0.00063554
-0.000622768
-0.000603134
-0.000575128
-0.000543517
-0.000500877
-0.000450596
-0.000381037
-0.000298247
-0.000208815
-0.000116852
2.15736e-05
0.000103796
0.000228959
0.000251469
0.000224771
0.000167959
0.000161882
0.000114002
0.00011079
1.81521e-05
0.000212077
0.000374047
0.0008538
0.000832425
0.00133779
0.000849325
0.00185754
0.00104086
0.0055227
-0.00397843
0.0476527
0.0307406
0.0668714
-0.0150252
-0.00468816
0.000792951
0.000113622
0.000435537
-0.00209982
0.00142874
-0.00126406
-0.00330633
-0.000691693
-0.00335435
0.000502348
-0.00137063
-0.00173077
0.00250525
-0.00164836
0.00274878
-0.00188019
0.00446625
0.000741865
0.00423539
-0.00577294
0.00585001
0.00309016
0.00728066
-0.0105046
-0.0058431
0.00871757
-0.00574558
-0.00176541
0.00411712
0.000412718
-0.00120752
-0.00253326
0.00234109
0.00225485
0.000361068
0.00113588
0.0001775
0.000811105
0.00115579
0.00126648
-0.000949345
-0.000287362
-0.000816426
0.000867605
-0.00211964
0.00124851
-0.00200291
0.00169955
-0.00239048
0.0010822
-0.00116485
0.00239781
-0.00319915
0.00231465
-0.00549599
0.00406964
-0.00686722
0.00669556
-0.0112758
0.0117727
-0.0108857
-0.0033389
0.000735788
-0.000303369
-5.31582e-05
-0.000259487
-0.000237357
-0.000308835
-0.000327068
-0.000373342
-0.000400039
-0.000440137
-0.000469476
-0.000502242
-0.0005259
-0.000559581
-0.000581886
-0.000601965
-0.0006227
-0.000632134
-0.000649205
-0.000652517
-0.00064991
-0.000643132
-0.000631828
-0.000615154
-0.000591565
-0.000560757
-0.000525152
-0.00047584
-0.000416792
-0.000351166
-0.000267396
-0.000196085
-8.0081e-05
2.45998e-05
0.00021779
0.00034117
0.000519736
0.000753692
0.00113839
0.00153293
0.00197982
0.00219886
0.00247445
0.00259573
0.00299653
0.00359415
0.00413658
0.00478551
0.00441876
0.00506874
0.00318203
0.0081166
-0.031132
0.0973066
0.0496906
-0.0214675
-0.023355
0.0111338
-0.00111842
0.00751363
-0.00343121
0.00648029
-0.00232306
-0.00174439
0.000273434
0.000322081
-0.000866175
-0.0018991
0.000997374
-0.00153852
0.00275293
-0.00190663
0.00579961
-0.00484247
0.00121192
-0.00218561
-0.00623588
0.00502564
-0.00748092
0.00372175
-0.0109999
-0.00389258
0.00746049
0.0103261
-0.0177498
0.00379051
0.00153584
-0.0021082
-0.0039832
-0.002691
-0.000385195
-0.004745
-0.0011485
-0.000617731
0.000785381
-0.000952894
0.00205526
-0.00108307
-4.06321e-05
-0.000463711
0.00176889
-0.00124267
-0.00013583
-0.00172997
0.00205938
-0.00230711
0.00107015
-0.00302837
0.00165227
-0.00240294
0.00329601
-0.00482737
0.0030557
-0.0104875
0.00425429
-0.0106569
0.00720694
-0.012507
-0.00333217
0.000730632
-0.000303473
-5.41803e-05
-0.000259635
-0.000237524
-0.000308869
-0.000326719
-0.000374252
-0.000400946
-0.000440646
-0.000471405
-0.000500923
-0.000533743
-0.000559202
-0.000583302
-0.000608867
-0.000623242
-0.000636147
-0.000647871
-0.000653811
-0.000652787
-0.000640207
-0.000632569
-0.000611088
-0.000588376
-0.000559093
-0.000524001
-0.000477429
-0.000411866
-0.000332119
-0.000245851
-0.000150685
-5.58823e-05
1.65466e-05
5.59845e-05
3.99187e-05
-4.05897e-05
-0.000105371
-0.000184973
-0.000313991
-0.000598925
-0.000693226
-0.000712605
-0.000585094
-0.000605202
-0.00131903
-0.0021027
-0.00282758
-0.00621275
-0.0036351
-0.0196008
0.00410807
-0.0596154
0.193712
0.0055536
0.00277515
-0.040304
-0.0133206
-0.01351
-0.0112007
-0.00269264
-0.00959558
-0.00124544
-0.0048925
-0.00328416
-0.0047041
-0.00194881
-0.00181352
-0.00482703
0.000367225
-0.00347606
0.000804147
-0.0010493
-0.00103173
-0.001158
0.00446026
-0.00406917
0.00656326
-0.0034211
0.0102449
-0.00757239
0.00375561
-0.00440368
0.0128829
-0.00693051
-0.000752332
0.00222126
0.00251154
-0.000835106
0.00691289
0.000578647
-0.000504296
0.00136779
-0.00309877
-0.000412627
-0.00135997
-0.000610464
-0.00300822
0.00270921
-0.00257384
0.00158796
-0.00375549
0.00226813
-0.000603282
0.00159947
-0.00250026
0.00239416
-0.00200658
0.00216831
-0.00352578
0.0028456
-0.00365446
0.00436322
-0.00135588
0.00961776
-0.00757511
0.0115227
-0.00813957
-0.00332874
0.000727058
-0.000303873
-5.47505e-05
-0.000259737
-0.000237976
-0.000309033
-0.00032793
-0.00037412
-0.000400344
-0.000442154
-0.000469431
-0.000501059
-0.000534242
-0.000559473
-0.000582218
-0.000605871
-0.000626612
-0.000638027
-0.000649867
-0.000664013
-0.000659059
-0.000651063
-0.000646383
-0.000627167
-0.000610487
-0.000585487
-0.000558014
-0.000516004
-0.000463501
-0.000400752
-0.000336249
-0.000267858
-0.000189515
-0.000107243
1.8321e-06
0.000166603
0.000331019
0.00064483
0.00101497
0.00128623
0.00148505
0.00163416
0.00206447
0.00240261
0.00328262
0.00353846
0.00381218
0.00390449
0.00381871
0.00464347
0.00656016
0.0139995
0.0336876
0.0525158
0.139426
-0.0517606
0.0253018
-0.0124435
0.0112481
-0.0159863
0.01147
-0.0111483
0.00704554
-0.00819349
0.000324551
-0.00284908
0.00229431
-0.000265889
-0.000246332
-0.000591439
-0.000548935
-0.0013163
0.00163108
-0.00578259
0.000461837
0.000341822
-0.00767306
0.00592088
-0.00386187
-0.00201034
-0.00511046
0.00349507
-0.00886116
0.00492848
-0.00333098
-0.00510468
-0.00455715
0.00652
-0.00177249
-0.000630398
0.000902471
0.00243153
0.00132479
-0.00124452
0.000379634
1.07924e-05
-0.000358888
-0.000982844
0.000671878
-0.00129741
-0.00196683
-0.000326188
0.00152541
-0.00441922
0.00107656
-0.000861663
0.00252034
-0.00365837
0.00219712
-0.00345007
0.00319708
-0.00501263
0.00459126
-0.00668069
0.00329379
-0.00810039
0.00797939
-0.0099542
-0.00332107
0.000721539
-0.000304181
-5.59575e-05
-0.000259993
-0.000238434
-0.000308571
-0.00032855
-0.000373846
-0.000402028
-0.000444193
-0.000464583
-0.000508336
-0.00053299
-0.000564031
-0.000582841
-0.000613785
-0.000628897
-0.000644605
-0.000649292
-0.000664506
-0.0006635
-0.000653844
-0.000645441
-0.000629489
-0.00061034
-0.000587895
-0.000557204
-0.000515207
-0.000458197
-0.00038653
-0.000308689
-0.000233065
-0.000169802
-0.000133777
-0.000113292
-0.000165408
-0.000242407
-0.000316409
-0.000437507
-0.000783139
-0.000931892
-0.00105233
-0.00126297
-0.00135835
-0.00157249
-0.00204446
-0.00274115
-0.00286711
-0.0052976
-0.00296788
-0.0112679
-0.00023312
-0.0338661
0.118115
0.0848181
-0.0166491
-0.00997392
-0.0240645
0.00032994
-0.017221
0.00186998
-0.0129531
0.00260663
-0.00831434
-0.00405095
-0.00464238
-0.00200516
-0.00196653
-0.00289171
0.000234232
-0.00419039
-0.00102912
0.00397071
-0.00244488
0.00533867
0.00043742
-0.00204613
4.60677e-05
-0.0069098
0.00214557
-0.00243306
0.00123656
-0.00246695
0.00426839
0.000351133
0.0011481
-0.00600794
0.00557739
0.00539666
-0.00362021
0.00603532
-0.00294278
-0.00466681
0.00252166
0.000383247
-0.00626739
0.00184047
0.00277847
-0.0015665
-0.00820747
0.00501673
0.00250212
-0.00194406
-0.00325413
0.00225773
-0.00181594
0.00194348
-0.00175328
0.00340403
-0.00330553
0.00285348
-0.00353897
0.00297548
-0.00877028
0.0056621
-0.00900738
0.00536332
-0.0105267
-0.00331691
0.000717478
-0.000304567
-5.66461e-05
-0.000260183
-0.000238268
-0.000308835
-0.000329756
-0.000372751
-0.000402248
-0.000443521
-0.000467776
-0.000505658
-0.000536241
-0.000563011
-0.000582967
-0.000617642
-0.000632332
-0.00064553
-0.000659507
-0.000671674
-0.000676409
-0.00066382
-0.000664652
-0.000654031
-0.000641043
-0.000622958
-0.0005976
-0.000565157
-0.000521898
-0.000473186
-0.000422489
-0.000379426
-0.000329301
-0.000273937
-0.000200857
-9.99191e-05
0.000109683
0.000348717
0.000711928
0.000788251
0.00101958
0.00125431
0.0016426
0.00168254
0.00223128
0.00206557
0.00285733
0.00261453
0.00405431
0.0044494
0.0109935
0.0126835
0.0250843
0.0472931
0.072081
-0.0145593
0.0467803
-0.0223446
0.0257211
-0.0216499
0.0147999
-0.012055
0.00961618
-0.00685323
-0.000695766
-0.00163597
0.00278831
0.00161979
-0.00114481
-0.00012568
-0.000514704
-0.0015999
0.0053918
-0.00604274
6.8479e-05
-0.00158045
-0.00529775
0.000774937
-0.000923806
-0.000475926
-0.00223556
-0.00326982
-0.00462758
-0.00586612
-0.00218194
-0.00489419
-0.00713457
-0.000826679
0.000856185
-0.00173741
0.00637282
-0.00127476
0.00332265
-0.00244472
-0.0055501
0.00320545
0.000738368
-0.0128063
0.00159943
0.0153116
0.00251424
-0.0162124
0.00353666
0.0056977
0.00154365
-0.00657661
0.00215064
-0.00310742
0.00277424
-0.00389347
0.0027223
-0.00447775
0.00211794
-0.000441414
0.0048978
-0.00539822
0.00888439
-0.00491698
-0.00330906
0.000712313
-0.000305042
-5.80184e-05
-0.000260536
-0.00023846
-0.000309594
-0.000328984
-0.000374818
-0.000403298
-0.000444443
-0.000470621
-0.000503024
-0.000540772
-0.000563542
-0.000585338
-0.000619039
-0.000636311
-0.000646047
-0.000663708
-0.000676566
-0.000678277
-0.000671357
-0.000666319
-0.000658983
-0.000646182
-0.00062629
-0.000597716
-0.000565635
-0.000522892
-0.000478936
-0.000426086
-0.000370049
-0.000324679
-0.000292683
-0.000292292
-0.000334254
-0.000392999
-0.000457054
-0.000674078
-0.000829202
-0.000929533
-0.00112138
-0.00137836
-0.00167113
-0.00161442
-0.00223796
-0.0019914
-0.00282549
-0.00345993
-0.00792408
-0.00578665
-0.0285083
0.0489035
0.0425348
0.0223059
8.84722e-05
0.0328917
-0.0117414
0.0178484
-0.0188593
0.00399292
-0.00443532
0.00425906
-0.00432031
-0.00287035
-0.000893294
-0.00200808
-0.00313084
-0.00433815
-0.000217513
0.00223861
0.00017286
0.00559285
-0.005765
-0.000689868
-0.00365504
-0.00184431
-0.00195052
-0.00151934
-0.000834763
-0.00266246
-0.00104588
-0.0024443
-7.70589e-06
-0.00126504
-0.00342137
-0.00132332
0.00091885
0.00285151
0.00465975
-0.00326226
0.0062639
0.000534919
-0.00084294
0.00557487
-0.00811334
0.00400849
0.0100102
0.000128765
-0.0183821
-0.000953076
0.0116672
-1.09639e-05
-0.007831
0.00508096
0.00134343
0.00278102
-0.00447519
0.00304074
-0.00450214
0.00519306
-0.00464889
0.0067198
-0.00597757
0.0032145
-0.00481238
0.00464789
-0.0090504
-0.00330434
0.000708081
-0.000305461
-5.876e-05
-0.000260651
-0.000239064
-0.000309392
-0.000329958
-0.000374134
-0.000402998
-0.000445962
-0.000470102
-0.000507178
-0.000539098
-0.000567804
-0.000589121
-0.00061827
-0.000644503
-0.000650908
-0.000671015
-0.00068535
-0.000693798
-0.000689957
-0.000687285
-0.000687732
-0.000679467
-0.000667916
-0.000648638
-0.00062392
-0.000600097
-0.000575355
-0.000536979
-0.000507219
-0.000483251
-0.000447305
-0.000398129
-0.000323703
-0.000218976
-8.92725e-05
8.10939e-05
0.000225522
0.000506125
0.000560821
0.000766103
0.000708969
0.000923679
0.00095637
0.00171876
0.000851777
0.00423083
-0.00198189
0.0146594
-0.0213207
0.11991
0.0167206
-0.00210789
0.00294989
0.0313861
-0.00440352
0.0224392
-0.0181845
0.0138309
-0.00922882
0.0120621
-0.00744154
0.000328469
-0.00057161
0.00367165
0.0014005
0.00269991
0.00324173
0.00812709
-0.00473426
0.00511892
-0.00619124
0.00357016
-0.00416298
-0.00147869
-6.15166e-06
0.000498038
-0.000265447
-0.00363354
-0.00166968
-0.00396478
-0.00294514
-0.00397091
-0.00527577
-0.00433884
0.000972196
-0.00177921
0.0100316
-0.00420212
0.0141994
0.00351332
0.00239704
0.00124065
0.00441358
-0.00206246
-0.00714118
0.011567
0.00116946
0.002971
-0.00601105
0.00235531
-0.00153225
4.55043e-05
-0.004393
0.00110394
-0.000461319
0.00172769
-0.00116773
0.00192889
-0.00281778
0.00193949
-0.00607564
0.0061344
-0.00787373
0.00299766
-0.00572075
-0.00329692
0.000703536
-0.000305999
-6.02045e-05
-0.000261175
-0.00023924
-0.00031044
-0.000328991
-0.000376422
-0.000403355
-0.000447475
-0.000468419
-0.00050965
-0.000544652
-0.000567411
-0.000592665
-0.000621531
-0.00064906
-0.000659643
-0.000672628
-0.000690143
-0.000698658
-0.000696971
-0.000692983
-0.000695214
-0.000689234
-0.000674448
-0.000656099
-0.000635298
-0.000619409
-0.000596789
-0.000571747
-0.000527068
-0.000496711
-0.000489942
-0.000499455
-0.000527541
-0.000604635
-0.000626507
-0.000712541
-0.000732824
-0.000885156
-0.00111693
-0.00120191
-0.00117099
-0.00100268
-0.00105978
-0.000862908
-0.00125402
-0.000738933
-0.00206519
0.00617352
-0.00193973
0.0919117
0.000388059
-0.00599721
-0.0141427
-0.0019042
0.0316682
0.0077311
0.0377215
-0.0185054
0.0128734
-0.014332
-0.000487863
-0.00105159
-0.00361637
0.00185074
-0.00292204
0.00616712
-0.0069316
0.0236538
-0.0112611
0.00666787
-0.000505518
0.00919527
-0.00377597
-0.00123216
0.00192538
0.000236181
0.00232322
0.00101696
0.00298423
0.00220476
0.00581845
0.00200602
0.0107809
0.00624648
0.0149639
0.0100943
0.0205976
-0.00378702
0.00614808
-0.00261787
-0.00133711
-0.00237163
1.43491e-05
-0.00167543
0.00459207
-0.00584434
0.00166891
0.00216096
-0.00226803
-0.000403707
0.000644757
0.00356261
-0.00317947
0.00428404
-0.00472454
0.00415737
-0.00390645
0.00138038
-0.00325743
0.00134663
0.000156935
0.00052414
-0.00100806
0.00477311
-0.00210555
-0.00329184
0.0006995
-0.000306415
-6.0963e-05
-0.000261313
-0.000239619
-0.000310592
-0.000329568
-0.000376062
-0.000405577
-0.000445476
-0.000473493
-0.000509105
-0.000549032
-0.000565529
-0.000599732
-0.000625088
-0.000651526
-0.000665616
-0.000690276
-0.000698254
-0.000715649
-0.000721501
-0.000719196
-0.000724195
-0.000732368
-0.000720371
-0.000716002
-0.000701045
-0.000687216
-0.000682744
-0.000678419
-0.00066112
-0.000636149
-0.000627271
-0.000607753
-0.000612577
-0.000638289
-0.000642532
-0.000622753
-0.000520038
-0.000516327
-0.000349565
-0.000388841
-0.000278448
-0.000271302
1.4476e-05
-4.66614e-05
0.000247802
-7.8994e-05
6.50742e-05
-0.00122793
0.0106044
0.0786166
0.00676805
0.00280097
-0.000711318
0.00604628
0.00253115
0.00391489
0.0327523
-0.0178311
0.0116534
-0.00987241
-0.00644509
0.00743542
-0.00729015
0.0198584
-0.00569555
0.011232
0.0058799
0.0101236
-0.002352
0.0035523
-0.000119603
0.00131996
-0.00376057
0.000517546
0.00159382
0.000739149
0.00246699
0.00297336
0.0039029
0.00397587
0.00640826
0.00499533
0.00795887
0.0024945
0.00468725
0.00422207
0.000736654
-0.00217038
0.00864189
0.00547124
0.00218832
0.00543664
-0.00157075
0.00219084
-0.00173777
0.00418645
-0.00148378
-0.00105834
0.00106374
0.00187796
-0.00200019
0.000646718
0.000195515
0.00242073
-0.00402314
0.00398278
-0.00714188
0.00646416
-0.00547876
0.00485456
-0.00528403
0.00447568
-0.00436108
0.00385513
-0.00701458
-0.00328537
0.000695633
-0.000306907
-6.23119e-05
-0.000261528
-0.000240344
-0.000311142
-0.000329637
-0.000376268
-0.000408392
-0.000442766
-0.000477761
-0.000511033
-0.000547546
-0.000575065
-0.000602706
-0.000630856
-0.000656851
-0.000674901
-0.000696593
-0.000707089
-0.000720918
-0.000730763
-0.000731427
-0.000737614
-0.000739735
-0.000742513
-0.000730034
-0.000721108
-0.000729454
-0.00074645
-0.000747134
-0.000726028
-0.000678454
-0.000643617
-0.000608667
-0.000639263
-0.000669528
-0.000715145
-0.000715603
-0.000899622
-0.00107001
-0.00106186
-0.00124189
-0.000917458
-0.000889403
-0.000687133
-0.00161423
-0.000754724
-0.00505935
0.00299538
-0.0160772
0.0814386
0.0357708
-0.005258
-0.00427587
0.00490858
0.0163715
0.00755855
-0.021621
0.0304176
0.0185063
0.004426
-0.00631301
-0.00768761
0.0249957
-0.00877108
0.0173362
0.00403349
0.00260893
-0.00236225
0.00410902
0.000236439
0.00781078
0.00485994
0.00560074
0.00545409
0.00860168
0.00804691
0.00829841
0.00947825
0.0108269
0.0106872
0.0111465
0.011195
0.010798
0.00903293
0.00648385
0.00700142
0.00321039
0.00639957
0.00100851
0.000965363
0.00029584
0.00070489
0.00083098
0.000395914
0.00347421
-0.00159691
0.000643589
-0.00175902
0.00405162
-0.00312942
0.00249114
-0.00256349
0.00142676
-0.00185455
3.19516e-05
0.00100338
0.00100052
0.000303031
0.00320991
-0.00356126
0.00457007
-0.00654607
0.00523353
-0.00604002
0.00322298
-0.00588817
-0.00328033
0.000692079
-0.000307311
-6.30782e-05
-0.000261799
-0.000240576
-0.000311806
-0.00032935
-0.000377317
-0.000408277
-0.000445687
-0.000478052
-0.000515065
-0.000541816
-0.000580207
-0.00060784
-0.0006348
-0.000656941
-0.000687153
-0.000707412
-0.000724478
-0.000735241
-0.000753956
-0.000761998
-0.000775079
-0.000776022
-0.000797007
-0.000789923
-0.00078695
-0.000798339
-0.000803423
-0.000802
-0.000800337
-0.0007824
-0.000793341
-0.000847508
-0.000940617
-0.00105181
-0.000991014
-0.000968087
-0.000947012
-0.00107276
-0.000965547
-0.00102148
-0.0008732
-0.00105831
-0.000886386
-0.00216149
-0.000365419
-0.00369416
0.00774698
-0.0133877
0.0860578
0.0129902
-0.00977864
-0.00201967
0.00596039
0.00532362
-0.0195867
-0.0154781
0.0102573
0.0177553
-0.00640267
0.0198018
0.0282484
-0.0124989
0.00906265
0.0027599
-4.9881e-05
0.00340886
0.00291695
0.00648692
0.00216254
0.00233779
0.00111721
0.00264549
0.00390924
0.00340559
0.000795274
0.00147224
0.00242069
0.000978617
0.000241174
-0.000104589
-0.000391907
-0.00180527
-0.000347484
-0.00172637
-0.0010775
-0.00141043
0.000936318
0.000753394
0.00152654
0.00177119
0.000419961
0.00151006
0.0018646
-0.000810291
0.00171858
0.0014573
-0.00102116
0.00193005
-0.00152075
0.00223997
-0.00239046
0.00226318
-0.00365966
0.00444427
-0.00434819
0.00226207
-0.00202819
-0.00106749
0.000178118
-0.000667544
0.00145716
0.000193963
0.000211253
0.000361549
-0.00111732
-0.00327446
0.000688972
-0.000307747
-6.43009e-05
-0.000262021
-0.000241341
-0.000312569
-0.000329149
-0.000378532
-0.000409344
-0.000445197
-0.000480572
-0.000520221
-0.000543208
-0.000582945
-0.000614547
-0.00064312
-0.000663515
-0.000692373
-0.000719942
-0.0007323
-0.000746765
-0.000764663
-0.000778617
-0.000791722
-0.000799601
-0.000809229
-0.000824289
-0.000836878
-0.000861191
-0.000856004
-0.000848455
-0.000839621
-0.000868734
-0.000888078
-0.000854802
-0.00083776
-0.000816334
-0.00082587
-0.000779433
-0.000873626
-0.000999669
-0.0010918
-0.000981571
-0.000854628
-0.00095727
-0.00130311
-0.00171862
-0.000968567
-0.00185217
0.0056892
-0.00237922
0.0771106
0.00694444
-0.00553945
0.00235927
0.00849562
-0.0031634
-0.0241467
-0.0145216
0.0408878
0.013487
-0.00223303
0.0151454
-0.0107754
0.00780844
0.00589927
0.00464791
-0.00405876
-0.00616406
-0.00769227
-0.000972074
0.00738798
0.00715045
-0.00304757
-0.00347487
0.00303144
0.00449218
-0.000380871
-0.000573105
0.000852211
0.00069262
0.000541622
0.000876319
0.000854411
0.000677433
0.000490852
0.000553677
0.00107493
0.000700178
0.00124026
0.000569407
0.000731667
0.000948394
0.00145965
-0.00019111
0.000453484
0.000913895
-0.000717372
-0.000845838
0.00119001
-0.000919745
0.00119585
-0.000359654
0.00168377
-0.000529097
0.000287913
0.00209853
-0.00354044
0.00452216
-0.0061566
0.00636861
-0.00366416
0.00312047
-0.00221917
0.00219671
-0.00174108
0.00203553
-0.00268872
-0.00326985
0.000686074
-0.000308056
-6.4981e-05
-0.00026216
-0.000241826
-0.000312933
-0.000329371
-0.000379435
-0.000410471
-0.000446396
-0.000482875
-0.000521441
-0.000547914
-0.000584465
-0.000620959
-0.000646003
-0.000672677
-0.000706498
-0.000728874
-0.00075295
-0.000767726
-0.00078917
-0.000811326
-0.000825007
-0.000843742
-0.000861401
-0.000876213
-0.000893243
-0.000912684
-0.000919308
-0.000912901
-0.000905414
-0.000912477
-0.000943804
-0.000997208
-0.00107486
-0.00121556
-0.00129294
-0.00145945
-0.00169756
-0.00195275
-0.00190272
-0.00164058
-0.00141182
-0.00153416
-0.00232738
-0.0025726
-0.00365322
-0.000512389
-0.0101482
0.0382568
0.0485147
0.0113975
0.00630671
0.0152432
0.014878
-0.00440121
-0.0268012
0.000201439
0.0418288
0.0137713
-0.00173675
0.0158912
-0.00989673
0.00283893
-0.00318283
-0.00359183
0.000854115
0.00419302
0.00616066
-0.000398045
-0.00419576
-0.00585009
0.001645
0.00547789
-9.05326e-05
-0.0044981
0.00134929
0.00076589
-0.000550852
-0.000442391
-0.000333795
-0.000825959
-0.00103084
-0.00101366
-0.000733504
-5.31772e-05
-0.000513878
-0.000247099
0.000138323
3.03537e-05
0.00110745
9.45349e-05
0.000396925
0.00158607
0.000632357
0.000401748
-9.56218e-05
0.00107603
-0.00141379
0.00226995
-0.00246079
0.00208293
-0.00291085
0.00310446
-0.00162359
0.000569617
-0.000164513
0.00104963
-0.0015253
0.0029979
-0.00561358
0.00487664
-0.0053327
0.00450586
-0.00594549
0.00542058
-0.00398991
-0.00326475
0.000683758
-0.000308305
-6.58927e-05
-0.000262192
-0.000242677
-0.000313193
-0.000330446
-0.000380477
-0.000410555
-0.000448087
-0.000485513
-0.000523124
-0.000550551
-0.000587969
-0.000627249
-0.000648111
-0.000682985
-0.00071197
-0.000743109
-0.000756549
-0.000786641
-0.000805404
-0.000829391
-0.000847063
-0.000867703
-0.00088946
-0.00091844
-0.00094561
-0.000963473
-0.0009922
-0.00101075
-0.00102269
-0.00102338
-0.00100886
-0.0011063
-0.00123776
-0.001139
-0.000985895
-0.00092583
-0.000965997
-0.00102967
-0.00110304
-0.000829809
-0.00105366
-0.000865528
-0.00225064
-0.00047716
-0.00485308
0.00631523
-0.0214364
0.0958303
0.0343863
-0.0205136
-0.00684933
-8.88536e-05
0.00826262
-0.0110779
-0.0218939
0.0164308
0.0308761
-0.00533417
0.0050937
0.000631998
-0.000214006
0.00194996
-0.000537237
0.000707018
0.000981278
0.00186235
-0.000795888
-0.000916208
0.00112448
0.00074819
0.000776594
-0.00271638
0.000270374
0.000242352
0.000955722
-0.00171144
0.000122086
-0.00051448
0.000363031
-7.16045e-05
0.000440372
0.000535502
0.000219201
0.000352984
0.000317687
0.000352255
0.000333464
-9.01874e-05
0.000155767
0.000760999
-5.18321e-05
0.000210192
-0.000526255
0.000881457
-2.15149e-05
0.00101368
-0.000968358
0.000967317
-0.0018581
0.00296314
-0.00250374
0.00233967
-0.00295572
0.00265639
-0.00210902
0.00111208
0.000294682
-0.000910444
0.00111279
0.00046081
-0.000831659
0.000960241
-0.00159331
0.0039331
-0.00374667
-0.00326075
0.000681633
-0.000308523
-6.6514e-05
-0.000262295
-0.00024326
-0.000313576
-0.000330446
-0.000382058
-0.000409384
-0.000451184
-0.000487781
-0.000526564
-0.000552577
-0.000595818
-0.000631889
-0.000657484
-0.000692459
-0.000725019
-0.000756904
-0.000776421
-0.000808452
-0.000834192
-0.00086224
-0.000885494
-0.000913814
-0.00093129
-0.000968878
-0.000990113
-0.00100969
-0.00101713
-0.00102893
-0.0010413
-0.00102248
-0.0010327
-0.00106041
-0.00122183
-0.00135698
-0.00148107
-0.00155327
-0.00175747
-0.00183156
-0.00181799
-0.00157745
-0.00138647
-0.000778483
-0.00073137
0.000127515
0.000255611
0.00861938
0.0028282
0.0936768
0.0107047
-0.00798413
-0.00260192
0.0144138
0.0197243
-0.00900537
-0.00356487
0.0306906
0.00978058
-0.00388976
0.00427981
-0.00493174
-0.000842617
0.000838859
0.000111848
0.000532502
-0.000531639
-0.000689212
-0.00127637
-0.00111035
0.000111578
-0.00181292
0.000161068
0.000367543
-0.000259312
-0.000185687
-0.00139183
-0.00079943
-0.0011535
-0.000809681
-0.0019496
-0.00124571
-0.00115958
7.52422e-05
-0.000604542
0.00031822
-0.000561929
0.000706894
-0.000267681
0.000534425
-0.00014738
0.000457764
-0.000172914
0.00114996
-0.000645735
0.000577752
-0.000401792
0.000979
0.000639159
4.98478e-05
0.000680318
0.000487314
0.000164429
0.00100832
-0.000601745
0.00120768
-0.00245085
0.00352668
-0.00342768
0.00325214
-0.00238778
0.000733032
-0.00133666
0.00166267
-0.000956967
-0.000416183
-0.00158113
-0.00325646
0.000680039
-0.000308618
-6.71319e-05
-0.000262229
-0.000243824
-0.000313735
-0.000331549
-0.000383378
-0.000409484
-0.000453148
-0.000492163
-0.000525947
-0.00055867
-0.000599829
-0.000634029
-0.000664482
-0.000700255
-0.000736894
-0.000763566
-0.000792049
-0.000822948
-0.000851666
-0.000882285
-0.000909214
-0.000943167
-0.000973635
-0.0010097
-0.00105576
-0.00109615
-0.00114918
-0.00121244
-0.00128127
-0.00134282
-0.00132921
-0.00130328
-0.00125966
-0.00125131
-0.00111803
-0.000966576
-0.000942357
-0.00109999
-0.00116709
-0.00120774
-0.00112831
-0.00129428
-0.00280147
-0.00538754
-0.00648021
-0.0100651
0.0238876
0.0570918
0.0169138
-0.000972364
-0.00195444
0.0135221
0.00989145
-0.0146674
0.00912987
0.0378321
-0.00791563
-0.00235286
-0.00166071
-0.00439809
0.000162224
0.000626818
-0.000771638
-0.000791888
-0.000119149
-0.000545449
0.00103147