/*--------------------------------*- C++ -*----------------------------------*\
| =========                 |                                                 |
| \\      /  F ield         | OpenFOAM: The Open Source CFD Toolbox           |
|  \\    /   O peration     | Version:  2.2.x                                 |
|   \\  /    A nd           | Web:      www.OpenFOAM.org                      |
|    \\/     M anipulation  |                                                 |
\*---------------------------------------------------------------------------*/
FoamFile
{
    version     2.0;
    format      ascii;
    class       volScalarField;
    location    "2";
    object      Bx;
}
// * * * * * * * * * * * * * * * * * * * * * * * * * * * * * * * * * * * * * //

dimensions      [1 0 -2 0 0 -1 0];

internalField   nonuniform List<scalar> 
14161
(
1.00288
1.0021
1.00227
1.00235
1.00247
1.00261
1.00277
1.00295
1.00315
1.00337
1.0036
1.00385
1.00411
1.00438
1.00464
1.0049
1.00517
1.00543
1.00568
1.00592
1.00612
1.00629
1.00644
1.00657
1.00665
1.00669
1.00669
1.00663
1.00652
1.00632
1.00607
1.00572
1.00528
1.00475
1.0041
1.00334
1.00248
1.00152
1.00052
0.999491
0.998332
0.997556
0.996071
0.996336
0.990025
0.98903
1.01069
1.04033
1.06319
1.08042
1.09387
1.10622
1.11807
1.12972
1.14071
1.15091
1.15986
1.16796
1.17546
1.18171
1.18696
1.19089
1.19368
1.19589
1.19756
1.19874
1.19982
1.20104
1.20223
1.20338
1.20454
1.206
1.20774
1.20947
1.21123
1.21366
1.21619
1.21873
1.22202
1.22657
1.23083
1.23529
1.23983
1.24376
1.24789
1.25279
1.25827
1.26318
1.26838
1.27225
1.2772
1.28312
1.28847
1.29308
1.29629
1.30047
1.30636
1.31261
1.31891
1.32653
1.33359
1.33478
1.33432
1.33692
1.34565
1.36267
1.35649
1.31712
1.21601
1.05045
0.882383
0.736498
0.608848
0.497947
0.393919
0.300643
0.201443
0.123684
0.0330902
1.00288
1.0021
1.00227
1.00235
1.00247
1.0026
1.00277
1.00295
1.00315
1.00337
1.00361
1.00385
1.00411
1.00438
1.00464
1.0049
1.00517
1.00543
1.00568
1.00592
1.00612
1.0063
1.00645
1.00657
1.00665
1.0067
1.0067
1.00664
1.00653
1.00634
1.00609
1.00573
1.00532
1.00476
1.00414
1.00337
1.00255
1.00162
1.0006
0.999534
0.998443
0.997511
0.996618
0.996153
0.997414
1.00653
1.02279
1.03834
1.05099
1.06577
1.07969
1.09298
1.10567
1.11843
1.13035
1.1416
1.15189
1.16118
1.16961
1.17702
1.18321
1.18811
1.19185
1.19477
1.19699
1.19884
1.20054
1.20212
1.20362
1.20512
1.20665
1.20826
1.21012
1.21203
1.21404
1.21647
1.21906
1.2219
1.22485
1.22863
1.23258
1.23669
1.24101
1.24526
1.24947
1.25389
1.25904
1.26395
1.26883
1.27307
1.27768
1.28326
1.28808
1.29273
1.2975
1.30204
1.30733
1.31362
1.31933
1.32693
1.3319
1.33238
1.33301
1.3361
1.34144
1.33898
1.29186
1.16524
1.00299
0.835634
0.699487
0.584039
0.476556
0.382282
0.290945
0.211989
0.137565
0.0942041
0.038262
1.00288
1.0021
1.00227
1.00235
1.00247
1.0026
1.00277
1.00295
1.00315
1.00337
1.00361
1.00385
1.00411
1.00438
1.00464
1.0049
1.00517
1.00544
1.00569
1.00592
1.00613
1.0063
1.00645
1.00658
1.00666
1.00671
1.00672
1.00666
1.00655
1.00637
1.00612
1.00579
1.00537
1.00486
1.00425
1.0035
1.00267
1.0017
1.00067
0.999585
0.998478
0.997307
0.99629
0.995392
0.995268
1.0097
1.03002
1.03892
1.04973
1.06406
1.07847
1.09266
1.10677
1.12105
1.13358
1.14573
1.15611
1.16584
1.1741
1.18169
1.18776
1.19254
1.19647
1.19938
1.20173
1.20363
1.20531
1.20681
1.20835
1.20999
1.21179
1.21354
1.21561
1.21784
1.21984
1.22244
1.22526
1.22813
1.23101
1.23502
1.239
1.24321
1.24759
1.25175
1.25595
1.26021
1.26521
1.27
1.27432
1.27843
1.28284
1.28775
1.29203
1.2969
1.3023
1.30721
1.31312
1.31946
1.3254
1.33236
1.33404
1.33305
1.332
1.33511
1.32386
1.25302
1.09859
0.888884
0.729706
0.617534
0.52718
0.443938
0.361592
0.287914
0.21293
0.15317
0.100404
0.0724451
0.0258814
1.00288
1.00211
1.00228
1.00235
1.00247
1.00261
1.00277
1.00295
1.00315
1.00337
1.00361
1.00386
1.00411
1.00438
1.00464
1.00491
1.00518
1.00544
1.00569
1.00593
1.00613
1.00631
1.00647
1.00659
1.00668
1.00674
1.00675
1.0067
1.0066
1.00644
1.0062
1.00589
1.00548
1.00502
1.00441
1.00372
1.00289
1.00195
1.00091
0.999787
0.998711
0.997443
0.996533
0.995464
0.996703
0.995848
1.00983
1.02054
1.03357
1.05031
1.06713
1.08458
1.10234
1.11946
1.13498
1.14916
1.16159
1.17245
1.18175
1.18973
1.19579
1.20091
1.20504
1.20826
1.21054
1.21252
1.2141
1.21551
1.21701
1.21865
1.22066
1.22252
1.22462
1.22708
1.22903
1.23141
1.23419
1.23711
1.23946
1.24322
1.24712
1.25119
1.25558
1.25946
1.26386
1.26793
1.2729
1.27751
1.28125
1.28551
1.28987
1.29395
1.29781
1.30281
1.30856
1.31371
1.31975
1.32619
1.33335
1.33919
1.3399
1.33898
1.33689
1.32724
1.24181
1.05093
0.827003
0.676756
0.570401
0.493736
0.429303
0.364172
0.298789
0.239847
0.17812
0.13015
0.0842723
0.0593868
0.0148022
1.00288
1.00211
1.00228
1.00235
1.00247
1.00261
1.00277
1.00295
1.00315
1.00337
1.00361
1.00386
1.00411
1.00438
1.00465
1.00491
1.00518
1.00545
1.0057
1.00593
1.00614
1.00633
1.00649
1.00662
1.00671
1.00677
1.00679
1.00676
1.00668
1.00653
1.00633
1.00604
1.00568
1.00523
1.00466
1.00402
1.00323
1.00232
1.00127
0.999986
0.998626
0.996977
0.995424
0.992836
0.990829
0.986483
0.984637
0.994784
1.00847
1.02893
1.05101
1.07276
1.09412
1.11342
1.1328
1.14845
1.16312
1.17516
1.18637
1.1955
1.20343
1.21012
1.21567
1.2201
1.22362
1.22623
1.22824
1.22973
1.23116
1.23257
1.23437
1.23621
1.23803
1.24035
1.24216
1.24412
1.24672
1.24958
1.25138
1.25476
1.25847
1.26222
1.26637
1.27003
1.27422
1.27797
1.28313
1.28723
1.29097
1.29473
1.29914
1.3027
1.30623
1.31097
1.31669
1.32191
1.32771
1.33452
1.34396
1.35082
1.3499
1.34942
1.33353
1.26275
1.07032
0.843899
0.691507
0.578306
0.494526
0.434162
0.379949
0.323812
0.268577
0.221096
0.169216
0.129426
0.0834449
0.0567567
0.0105423
1.00287
1.00211
1.00228
1.00235
1.00247
1.00261
1.00277
1.00295
1.00316
1.00338
1.00361
1.00386
1.00412
1.00438
1.00465
1.00492
1.00518
1.00545
1.00571
1.00593
1.00615
1.00635
1.00651
1.00664
1.00674
1.00682
1.00684
1.00683
1.00677
1.00666
1.00649
1.00624
1.00593
1.00552
1.00506
1.00448
1.00375
1.00289
1.00186
1.00062
0.99922
0.99746
0.995795
0.993687
0.991887
0.983569
0.967578
0.978998
0.99822
1.02516
1.05399
1.08023
1.10431
1.12761
1.14826
1.16727
1.18248
1.19667
1.20924
1.21791
1.22709
1.23275
1.23791
1.24123
1.24562
1.24825
1.25047
1.25181
1.25283
1.25361
1.25481
1.25653
1.25785
1.25985
1.26157
1.26339
1.26592
1.26866
1.27014
1.27301
1.27629
1.28
1.28366
1.28705
1.29103
1.29434
1.29933
1.30274
1.30647
1.30997
1.3138
1.31709
1.32065
1.32519
1.33079
1.33652
1.34199
1.34944
1.35891
1.36415
1.3622
1.3552
1.29333
1.1099
0.888809
0.733827
0.610477
0.523913
0.459683
0.409206
0.358172
0.308797
0.261988
0.222883
0.178414
0.143278
0.0951969
0.0656644
0.0166616
1.00287
1.00211
1.00227
1.00235
1.00247
1.00261
1.00277
1.00295
1.00316
1.00338
1.00361
1.00386
1.00412
1.00438
1.00466
1.00493
1.00519
1.00545
1.00572
1.00595
1.00617
1.00637
1.00655
1.00667
1.00679
1.00686
1.00691
1.00692
1.00689
1.00681
1.00668
1.00649
1.00625
1.0059
1.00552
1.00502
1.00445
1.00368
1.00267
1.00133
0.999717
0.997341
0.99503
0.991578
0.988612
0.967148
0.955513
0.966998
0.992665
1.02481
1.06001
1.09074
1.11908
1.14593
1.16765
1.18879
1.20371
1.22109
1.23322
1.24344
1.25222
1.25744
1.26262
1.26719
1.27048
1.27374
1.277
1.27833
1.27969
1.28069
1.28066
1.2817
1.28296
1.28476
1.28595
1.28779
1.29042
1.29281
1.29401
1.29644
1.29853
1.3018
1.3047
1.30781
1.3113
1.31407
1.31873
1.32118
1.32481
1.32831
1.33173
1.33505
1.33863
1.34224
1.34707
1.35237
1.35757
1.36492
1.37189
1.37415
1.36845
1.32722
1.16354
0.951131
0.803489
0.688439
0.58918
0.512396
0.455021
0.404491
0.35594
0.311396
0.26873
0.232503
0.190932
0.158447
0.108419
0.0753993
0.0230661
1.00286
1.0021
1.00227
1.00235
1.00247
1.00261
1.00277
1.00295
1.00316
1.00338
1.00361
1.00386
1.00412
1.00438
1.00466
1.00494
1.0052
1.00546
1.00572
1.00596
1.00619
1.00641
1.00658
1.00672
1.00684
1.00693
1.00699
1.00703
1.00703
1.00699
1.0069
1.00679
1.00662
1.00641
1.00612
1.00577
1.00535
1.00483
1.00413
1.00309
1.00165
0.999402
0.997078
0.992335
0.990018
0.965668
0.950496
0.970856
1.01723
1.05701
1.09918
1.13205
1.16617
1.19283
1.21451
1.23301
1.24575
1.2621
1.26867
1.27964
1.28478
1.28831
1.29465
1.29611
1.29749
1.30061
1.30245
1.30469
1.30652
1.30819
1.30911
1.30951
1.31097
1.31317
1.31438
1.31561
1.3183
1.32105
1.32177
1.32328
1.32551
1.32794
1.33001
1.33286
1.33595
1.33786
1.34206
1.34292
1.34619
1.34925
1.35219
1.35536
1.35803
1.36033
1.36389
1.3671
1.36987
1.37349
1.37527
1.37649
1.34392
1.2106
1.00315
0.8457
0.741681
0.655809
0.580706
0.520414
0.463766
0.413017
0.364572
0.320779
0.277861
0.240701
0.199375
0.166326
0.119226
0.0877574
0.0346308
1.00286
1.0021
1.00227
1.00235
1.00246
1.00261
1.00277
1.00296
1.00316
1.00338
1.00361
1.00386
1.00412
1.00438
1.00466
1.00494
1.00521
1.00547
1.00573
1.00598
1.00621
1.00644
1.00662
1.00678
1.00691
1.00702
1.0071
1.00715
1.00719
1.00719
1.00717
1.00712
1.00705
1.00696
1.00682
1.00666
1.00647
1.00621
1.00589
1.00539
1.00463
1.00295
1.00179
0.996819
0.997749
0.978605
0.956691
1.0053
1.05345
1.10592
1.15053
1.17644
1.20777
1.2294
1.25345
1.2698
1.28353
1.29703
1.2992
1.31057
1.31372
1.3146
1.32026
1.32165
1.32145
1.32281
1.32447
1.32584
1.32802
1.32999
1.33212
1.33258
1.33374
1.33616
1.33746
1.33844
1.33963
1.34291
1.34483
1.34484
1.34778
1.34987
1.35161
1.35343
1.35563
1.35686
1.35993
1.36063
1.3637
1.36534
1.36669
1.36832
1.36991
1.37014
1.3709
1.37251
1.37273
1.37241
1.3641
1.33983
1.22706
1.02243
0.872672
0.769212
0.693203
0.620701
0.559662
0.501041
0.448518
0.400599
0.35563
0.314243
0.272246
0.235682
0.196359
0.165961
0.124162
0.0967548
0.0476111
1.00285
1.0021
1.00227
1.00234
1.00246
1.0026
1.00277
1.00295
1.00316
1.00338
1.00361
1.00386
1.00412
1.00439
1.00466
1.00495
1.00522
1.00548
1.00574
1.006
1.00624
1.00647
1.00667
1.00685
1.00699
1.00712
1.00722
1.0073
1.00736
1.00742
1.00747
1.0075
1.00753
1.00757
1.00762
1.00771
1.00782
1.00801
1.0083
1.00874
1.00915
1.00988
1.01022
1.01086
1.01049
1.01386
1.0091
1.08326
1.13002
1.17727
1.21059
1.23593
1.26295
1.28031
1.30039
1.30755
1.32103
1.32633
1.33162
1.3333
1.33758
1.33815
1.33644
1.33947
1.3397
1.34015
1.34105
1.34242
1.3444
1.34592
1.34801
1.3496
1.35053
1.35269
1.35416
1.35508
1.3566
1.35909
1.36171
1.36243
1.36384
1.36616
1.36812
1.36962
1.37116
1.37154
1.37261
1.37301
1.3752
1.37573
1.3745
1.37353
1.37421
1.37277
1.37115
1.3688
1.36188
1.34907
1.30649
1.18687
1.01966
0.873639
0.790522
0.716764
0.65926
0.600571
0.551668
0.496573
0.450844
0.4033
0.359209
0.31802
0.27662
0.239708
0.201028
0.170958
0.132873
0.108886
0.0657904
1.00284
1.00209
1.00226
1.00234
1.00246
1.0026
1.00277
1.00295
1.00316
1.00338
1.00361
1.00386
1.00412
1.00439
1.00466
1.00495
1.00523
1.0055
1.00576
1.00602
1.00627
1.0065
1.00672
1.00692
1.00708
1.00723
1.00736
1.00747
1.00756
1.00766
1.00777
1.00788
1.00802
1.00819
1.0084
1.00871
1.00912
1.00973
1.01062
1.01186
1.01353
1.01651
1.01897
1.02592
1.02791
1.06662
1.1415
1.22523
1.24384
1.26163
1.2712
1.29018
1.30913
1.32448
1.33335
1.34053
1.3483
1.34642
1.35537
1.35066
1.35225
1.35702
1.35116
1.35124
1.35295
1.35214
1.35258
1.35381
1.35519
1.35625
1.35768
1.3596
1.36026
1.3621
1.36365
1.365
1.36642
1.36877
1.3713
1.37294
1.37311
1.37505
1.3766
1.3778
1.3786
1.37801
1.37758
1.37778
1.37788
1.37802
1.37635
1.37386
1.3704
1.36411
1.35297
1.33389
1.29873
1.22544
1.09153
0.907323
0.772522
0.700561
0.655706
0.622875
0.585282
0.547264
0.510606
0.469746
0.436046
0.391982
0.352004
0.312272
0.271656
0.235508
0.198679
0.170221
0.135544
0.114369
0.0765564
1.00283
1.00209
1.00226
1.00234
1.00246
1.0026
1.00276
1.00295
1.00315
1.00337
1.00361
1.00386
1.00412
1.00439
1.00467
1.00496
1.00524
1.00551
1.00577
1.00604
1.0063
1.00654
1.00677
1.00699
1.00718
1.00734
1.0075
1.00765
1.00779
1.00792
1.00807
1.00825
1.00848
1.00876
1.00914
1.00963
1.01033
1.01131
1.01274
1.01481
1.01723
1.0212
1.02412
1.03171
1.03191
1.10776
1.25434
1.30339
1.30039
1.31887
1.32375
1.33996
1.34671
1.35693
1.35709
1.36238
1.3648
1.35971
1.36651
1.36068
1.35772
1.36128
1.35913
1.35895
1.35956
1.35946
1.36062
1.36129
1.36288
1.36411
1.36538
1.36755
1.36786
1.36967
1.37146
1.37285
1.374
1.37549
1.37764
1.37898
1.37906
1.38023
1.38075
1.38148
1.38098
1.37996
1.37877
1.378
1.37395
1.37109
1.36262
1.35099
1.33285
1.30404
1.26144
1.18612
1.08375
0.927834
0.770607
0.675471
0.619597
0.597737
0.571426
0.556092
0.529338
0.507989
0.482944
0.452646
0.418375
0.38086
0.345259
0.308901
0.270985
0.237202
0.202364
0.175499
0.143417
0.123409
0.0905942
1.00282
1.00208
1.00225
1.00233
1.00245
1.00259
1.00276
1.00294
1.00315
1.00337
1.00361
1.00385
1.00412
1.00439
1.00467
1.00496
1.00525
1.00553
1.0058
1.00607
1.00634
1.00659
1.00683
1.00707
1.00728
1.00747
1.00765
1.00784
1.00802
1.0082
1.00838
1.00861
1.00889
1.00923
1.00966
1.01018
1.01085
1.0117
1.01268
1.014
1.01576
1.01778
1.01998
1.02211
1.02594
1.06143
1.18524
1.23774
1.29874
1.33839
1.34743
1.35459
1.35896
1.36206
1.36395
1.36288
1.36614
1.36435
1.36444
1.3653
1.35999
1.36064
1.36225
1.3615
1.36152
1.36234
1.36334
1.36447
1.36616
1.36764
1.3686
1.3707
1.37118
1.37285
1.37448
1.37511
1.37628
1.37663
1.37779
1.37785
1.3784
1.37872
1.37816
1.37812
1.37526
1.36959
1.3632
1.35453
1.33842
1.3177
1.28756
1.2425
1.18063
1.0945
0.994957
0.860475
0.726326
0.62076
0.546272
0.50247
0.481045
0.478419
0.477014
0.480139
0.479142
0.475508
0.461301
0.438657
0.407948
0.37549
0.342084
0.308526
0.272222
0.240298
0.206883
0.18148
0.151393
0.13198
0.102336
1.00281
1.00208
1.00225
1.00232
1.00245
1.00259
1.00275
1.00294
1.00314
1.00337
1.0036
1.00385
1.00412
1.00439
1.00467
1.00496
1.00526
1.00555
1.00582
1.0061
1.00638
1.00664
1.00689
1.00715
1.00739
1.0076
1.00781
1.00803
1.00825
1.00846
1.00869
1.00893
1.00923
1.00961
1.01004
1.01054
1.01115
1.01179
1.01261
1.01332
1.01465
1.01501
1.01851
1.01316
1.05632
1.09334
1.11996
1.15899
1.21836
1.28465
1.31415
1.33226
1.33896
1.34297
1.34949
1.35106
1.35476
1.35988
1.35433
1.36434
1.35909
1.35508
1.36042
1.35886
1.35879
1.3593
1.3608
1.36188
1.3635
1.3648
1.36561
1.36769
1.36846
1.36951
1.37109
1.37148
1.3722
1.3723
1.37163
1.37012
1.36663
1.36249
1.35653
1.34777
1.33407
1.31261
1.28592
1.24778
1.19466
1.12551
1.04559
0.953319
0.846611
0.737749
0.642905
0.566301
0.493263
0.439874
0.406735
0.396495
0.405609
0.413453
0.42361
0.430123
0.436423
0.438528
0.431559
0.417506
0.394473
0.367697
0.337795
0.307353
0.273393
0.243403
0.211343
0.187205
0.159018
0.140944
0.114851
1.0028
1.00207
1.00224
1.00232
1.00244
1.00258
1.00275
1.00293
1.00313
1.00336
1.0036
1.00384
1.00411
1.00439
1.00467
1.00496
1.00527
1.00556
1.00585
1.00614
1.00643
1.0067
1.00697
1.00724
1.0075
1.00775
1.00798
1.00822
1.00847
1.00872
1.00897
1.00923
1.00952
1.00987
1.01026
1.01066
1.01105
1.01144
1.01173
1.01175
1.01162
1.01045
1.0099
0.99523
1.03071
1.08448
1.08666
1.10583
1.13209
1.17378
1.22595
1.2727
1.29763
1.31227
1.32266
1.33604
1.34124
1.35333
1.34763
1.35698
1.35483
1.35214
1.35675
1.35525
1.35584
1.35599
1.35691
1.35779
1.35879
1.35933
1.35988
1.36069
1.36064
1.36073
1.35996
1.35801
1.35487
1.3512
1.34494
1.33519
1.31954
1.29943
1.27345
1.23511
1.18646
1.12072
1.04934
0.968254
0.874445
0.778458
0.690293
0.617743
0.557465
0.49694
0.441365
0.398351
0.361566
0.33633
0.325807
0.324688
0.340757
0.357363
0.376847
0.390413
0.403473
0.409859
0.407505
0.400049
0.381424
0.359966
0.333735
0.306939
0.27542
0.247362
0.216832
0.194279
0.167863
0.151395
0.128164
1.00279
1.00206
1.00223
1.00231
1.00243
1.00257
1.00274
1.00293
1.00313
1.00335
1.00359
1.00384
1.0041
1.00439
1.00468
1.00497
1.00527
1.00558
1.00588
1.00618
1.00648
1.00677
1.00705
1.00733
1.00761
1.00789
1.00815
1.00841
1.00869
1.00896
1.00923
1.0095
1.00979
1.0101
1.01043
1.01078
1.01111
1.01143
1.01173
1.012
1.0123
1.0127
1.01405
1.01417
1.04423
1.08562
1.08616
1.09854
1.10759
1.13005
1.16724
1.2238
1.27377
1.30103
1.31737
1.33302
1.34012
1.34965
1.34649
1.34987
1.35366
1.35199
1.35296
1.35242
1.35181
1.35186
1.35113
1.35059
1.34957
1.34828
1.34588
1.34338
1.33909
1.33335
1.32453
1.31149
1.29501
1.2727
1.24457
1.20568
1.15463
1.09337
1.02668
0.951685
0.86624
0.780135
0.702181
0.637035
0.583063
0.531228
0.480099
0.437165
0.401051
0.367904
0.33591
0.31363
0.294769
0.28152
0.280322
0.284285
0.30249
0.321635
0.343414
0.35856
0.374401
0.384836
0.387478
0.383928
0.370593
0.352941
0.330504
0.307022
0.278372
0.252577
0.223208
0.201692
0.176821
0.161685
0.141224
1.00278
1.00205
1.00222
1.0023
1.00242
1.00257
1.00273
1.00292
1.00312
1.00334
1.00358
1.00383
1.0041
1.00438
1.00468
1.00497
1.00528
1.0056
1.00591
1.00622
1.00653
1.00684
1.00713
1.00743
1.00773
1.00804
1.00833
1.0086
1.0089
1.00919
1.00948
1.00976
1.01004
1.01032
1.01059
1.01087
1.01108
1.01127
1.0113
1.01151
1.01116
1.01284
1.00884
1.03764
1.07991
1.08431
1.08548
1.09099
1.09687
1.10986
1.12612
1.16759
1.21187
1.27258
1.29526
1.32751
1.33572
1.34719
1.35583
1.34655
1.35614
1.35113
1.34772
1.3473
1.34455
1.34208
1.33709
1.33268
1.32489
1.31493
1.30042
1.28577
1.26589
1.23672
1.20359
1.15751
1.10424
1.04523
0.980156
0.909091
0.8279
0.752523
0.68419
0.629509
0.5844
0.538807
0.49585
0.458745
0.426923
0.400356
0.370379
0.345571
0.323992
0.305726
0.285344
0.271239
0.26168
0.253776
0.254883
0.26002
0.276815
0.297231
0.320147
0.336793
0.354185
0.367293
0.372332
0.371295
0.361207
0.347008
0.327873
0.307727
0.282517
0.257779
0.23008
0.209694
0.186671
0.17296
0.154927
1.00276
1.00204
1.00221
1.00229
1.00242
1.00255
1.00272
1.0029
1.00311
1.00333
1.00357
1.00383
1.00409
1.00438
1.00468
1.00498
1.00529
1.00561
1.00594
1.00626
1.00658
1.00691
1.00722
1.00754
1.00786
1.00818
1.0085
1.0088
1.0091
1.00941
1.00972
1.01
1.01028
1.01053
1.01074
1.01091
1.011
1.01095
1.01058
1.01019
1.00848
1.0081
0.996093
1.01678
1.06559
1.0657
1.06912
1.07343
1.08123
1.08942
1.10549
1.12564
1.16448
1.22886
1.28861
1.32561
1.344
1.35052
1.35637
1.34513
1.34595
1.34349
1.33172
1.32572
1.31406
1.30266
1.28452
1.26381
1.23519
1.19965
1.15416
1.10259
1.04871
0.986668
0.920414
0.846913
0.77598
0.710304
0.653294
0.609085
0.569509
0.528202
0.491232
0.457863
0.432363
0.409075
0.386483
0.367444
0.350354
0.335565
0.318389
0.302571
0.286936
0.275547
0.262214
0.252022
0.245905
0.240991
0.242721
0.247746
0.262749
0.280889
0.303146
0.320923
0.339596
0.354965
0.362171
0.362511
0.354419
0.342506
0.326543
0.308957
0.286712
0.26359
0.238135
0.218493
0.196772
0.184271
0.168319
1.00275
1.00203
1.0022
1.00228
1.00241
1.00255
1.00271
1.00289
1.0031
1.00331
1.00356
1.00382
1.00408
1.00437
1.00467
1.00498
1.00529
1.00563
1.00597
1.0063
1.00664
1.00698
1.00732
1.00765
1.00799
1.00834
1.00867
1.009
1.00932
1.00963
1.00996
1.01024
1.0105
1.01075
1.01097
1.01116
1.01138
1.01153
1.01166
1.0118
1.01169
1.01256
1.00687
1.02064
1.06331
1.06217
1.0668
1.07076
1.0755
1.08226
1.09326
1.10625
1.13219
1.16419
1.23232
1.29254
1.33117
1.33576
1.33235
1.32447
1.30322
1.29631
1.27114
1.24559
1.21008
1.16541
1.11553
1.05829
0.998456
0.931228
0.858379
0.788341
0.724735
0.667994
0.622414
0.583435
0.544141
0.508087
0.475721
0.447777
0.426645
0.407131
0.38912
0.372259
0.358382
0.346341
0.334548
0.323551
0.313496
0.30473
0.293228
0.283753
0.27157
0.262649
0.252717
0.244633
0.239572
0.236444
0.23855
0.243185
0.256105
0.272039
0.29429
0.311596
0.330871
0.346531
0.354458
0.355971
0.34968
0.340077
0.325881
0.310726
0.291203
0.270488
0.247005
0.227995
0.207715
0.196552
0.182488
1.00274
1.00202
1.00219
1.00227
1.00239
1.00253
1.00269
1.00288
1.00308
1.0033
1.00354
1.00381
1.00408
1.00436
1.00467
1.00498
1.0053
1.00564
1.006
1.00634
1.00669
1.00705
1.00741
1.00776
1.00812
1.00848
1.00885
1.0092
1.00953
1.00986
1.01019
1.0105
1.01076
1.01101
1.01125
1.0115
1.01186
1.01231
1.0132
1.01417
1.01663
1.01853
1.03375
1.05498
1.06596
1.06368
1.06621
1.06734
1.07103
1.07636
1.08366
1.09356
1.10987
1.1307
1.17322
1.21828
1.27781
1.27706
1.26405
1.24211
1.18882
1.14988
1.09428
1.03414
0.965713
0.89043
0.82023
0.756015
0.699417
0.654015
0.613055
0.57355
0.536938
0.503047
0.473413
0.448339
0.427333
0.407379
0.391385
0.375993
0.363323
0.353145
0.344464
0.335265
0.327626
0.319213
0.312821
0.305802
0.298835
0.29233
0.283472
0.276654
0.266528
0.259225
0.250428
0.244044
0.239373
0.237442
0.23933
0.244121
0.255302
0.268839
0.289622
0.306307
0.32602
0.341879
0.350486
0.35184
0.346889
0.338736
0.325876
0.312919
0.295787
0.277782
0.256172
0.238524
0.219307
0.209204
0.196709
1.00272
1.00201
1.00218
1.00226
1.00238
1.00252
1.00268
1.00286
1.00307
1.00329
1.00353
1.00379
1.00407
1.00435
1.00466
1.00499
1.00531
1.00566
1.00602
1.00639
1.00675
1.00713
1.00751
1.00788
1.00825
1.00863
1.00902
1.0094
1.00976
1.0101
1.01043
1.01077
1.01104
1.01127
1.01146
1.01157
1.01172
1.01168
1.01176
1.01066
1.01156
1.00312
1.02508
1.06168
1.05752
1.05751
1.05894
1.06173
1.06618
1.07167
1.07734
1.08423
1.09511
1.10536
1.12293
1.1404
1.14778
1.14487
1.09659
1.03657
0.96077
0.888521
0.825019
0.767359
0.719057
0.676816
0.633971
0.595876
0.558985
0.526773
0.497719
0.472079
0.448725
0.427737
0.409737
0.39269
0.378511
0.366083
0.355952
0.34645
0.338613
0.331609
0.326426
0.32101
0.315898
0.309809
0.305027
0.300228
0.295064
0.290188
0.283153
0.278006
0.269298
0.263365
0.255585
0.249989
0.245234
0.243099
0.243979
0.24802
0.258453
0.270613
0.289667
0.305906
0.324136
0.339266
0.347656
0.349252
0.345704
0.339051
0.327138
0.315674
0.300349
0.28547
0.266147
0.250163
0.231863
0.222729
0.211492
1.0027
1.002
1.00216
1.00224
1.00236
1.0025
1.00266
1.00284
1.00305
1.00327
1.00351
1.00377
1.00405
1.00434
1.00466
1.00499
1.00532
1.00567
1.00604
1.00642
1.0068
1.00719
1.0076
1.008
1.00839
1.00878
1.00919
1.00959
1.00998
1.01034
1.01069
1.01104
1.01133
1.01155
1.0117
1.01176
1.01175
1.0114
1.01101
1.00971
1.00909
1.00033
1.00732
1.0426
1.03881
1.04271
1.04401
1.04678
1.04942
1.05283
1.05487
1.05741
1.05805
1.05628
1.04806
1.03006
0.998373
0.925996
0.86319
0.811511
0.764749
0.720639
0.681732
0.647334
0.614618
0.585925
0.556758
0.530291
0.505248
0.483063
0.461542
0.441574
0.424006
0.408341
0.395483
0.382103
0.370923
0.360494
0.352265
0.344301
0.338056
0.331594
0.326844
0.322717
0.31848
0.313548
0.309082
0.305307
0.300604
0.296411
0.290362
0.28614
0.278349
0.272853
0.265661
0.260111
0.255184
0.252347
0.252134
0.255057
0.264044
0.275231
0.29178
0.306941
0.323585
0.337374
0.345454
0.346953
0.345126
0.33967
0.329003
0.318938
0.305288
0.293787
0.276847
0.262073
0.244986
0.236444
0.226116
1.00269
1.00199
1.00215
1.00223
1.00234
1.00249
1.00265
1.00282
1.00303
1.00325
1.00349
1.00375
1.00404
1.00433
1.00464
1.00498
1.00532
1.00568
1.00606
1.00645
1.00685
1.00725
1.00768
1.00811
1.00853
1.00894
1.00937
1.0098
1.01021
1.0106
1.01097
1.01133
1.01169
1.01197
1.01221
1.01241
1.01259
1.01273
1.01296
1.01328
1.01445
1.0129
1.01614
1.04496
1.03961
1.04204
1.04133
1.04192
1.04171
1.04204
1.04136
1.04149
1.03523
1.02607
0.977988
0.905715
0.818766
0.768993
0.731172
0.699282
0.670881
0.644431
0.619063
0.597139
0.576759
0.559341
0.541186
0.524305
0.506477
0.489757
0.47322
0.456293
0.440299
0.424911
0.411516
0.398587
0.386879
0.375797
0.366479
0.357737
0.350786
0.343568
0.337549
0.332988
0.328553
0.324009
0.319234
0.315737
0.311416
0.307427
0.30184
0.297878
0.290824
0.285245
0.278427
0.272619
0.267455
0.263862
0.262932
0.264716
0.27238
0.281963
0.296917
0.310043
0.324532
0.337518
0.345328
0.346985
0.345747
0.341203
0.33263
0.324228
0.312695
0.303233
0.28791
0.274189
0.258843
0.249961
0.241084
1.00267
1.00197
1.00213
1.00221
1.00233
1.00246
1.00263
1.0028
1.003
1.00323
1.00347
1.00373
1.00401
1.00431
1.00463
1.00497
1.00533
1.00569
1.00607
1.00648
1.0069
1.00732
1.00776
1.00822
1.00867
1.0091
1.00955
1.01001
1.01045
1.01087
1.01127
1.01167
1.01207
1.01249
1.01286
1.01324
1.01364
1.0142
1.01468
1.01652
1.0158
1.03182
1.03601
1.03995
1.0374
1.03814
1.03758
1.03776
1.03664
1.03582
1.03395
1.02942
1.0119
0.972483
0.879897
0.785155
0.727801
0.691742
0.666202
0.645142
0.627391
0.611158
0.596627
0.583028
0.570282
0.559644
0.548926
0.539575
0.528333
0.517312
0.505427
0.491555
0.476779
0.460556
0.445868
0.431946
0.418424
0.40524
0.393309
0.382476
0.373292
0.364394
0.356791
0.350407
0.345046
0.339717
0.334592
0.330056
0.325623
0.321261
0.315841
0.311696
0.305401
0.299417
0.293035
0.286877
0.281696
0.277444
0.275786
0.276526
0.282436
0.291109
0.303561
0.316066
0.328181
0.338551
0.345516
0.347854
0.347224
0.343922
0.337251
0.330597
0.321135
0.312587
0.29869
0.286291
0.272265
0.263743
0.256545
1.00265
1.00196
1.00212
1.00219
1.00231
1.00244
1.0026
1.00278
1.00298
1.0032
1.00344
1.0037
1.00399
1.00429
1.00461
1.00496
1.00532
1.00569
1.00608
1.0065
1.00694
1.00738
1.00783
1.00831
1.0088
1.00928
1.00974
1.01023
1.01071
1.01116
1.0116
1.01205
1.01248
1.0129
1.01321
1.01339
1.01338
1.01338
1.01242
1.01297
1.00608
1.01796
1.04537
1.04247
1.04054
1.04027
1.03885
1.03769
1.03515
1.03269
1.02601
1.00664
0.961146
0.879097
0.783744
0.724153
0.685756
0.661175
0.643013
0.62859
0.6164
0.605135
0.595778
0.587199
0.579311
0.572459
0.565562
0.559901
0.553011
0.545989
0.538675
0.529294
0.518199
0.504032
0.48919
0.472974
0.457144
0.441879
0.427215
0.413932
0.402237
0.391662
0.382424
0.373895
0.367057
0.360014
0.353675
0.347694
0.342272
0.337469
0.331876
0.327368
0.321592
0.315218
0.30896
0.302203
0.296903
0.291987
0.2898
0.289622
0.29417
0.301269
0.311978
0.322192
0.332943
0.341794
0.347778
0.350192
0.350198
0.347862
0.342928
0.338126
0.330477
0.3227
0.310501
0.298776
0.286291
0.27781
0.271668
1.00263
1.00194
1.0021
1.00217
1.00228
1.00242
1.00258
1.00275
1.00295
1.00317
1.00342
1.00367
1.00396
1.00427
1.00459
1.00494
1.00531
1.00569
1.00609
1.00652
1.00697
1.00743
1.0079
1.00839
1.00891
1.00943
1.00994
1.01046
1.01099
1.0115
1.01199
1.01247
1.01299
1.01352
1.01408
1.01461
1.01513
1.0157
1.01599
1.01723
1.01191
1.02169
1.04433
1.04179
1.04346
1.04299
1.0422
1.04093
1.0378
1.02996
1.01627
0.96667
0.882811
0.785543
0.72637
0.68731
0.664124
0.647672
0.636456
0.62654
0.618717
0.610508
0.603872
0.597086
0.591039
0.585394
0.579918
0.575524
0.570503
0.565546
0.560634
0.555404
0.548436
0.538399
0.526584
0.512201
0.497649
0.48229
0.466775
0.451589
0.436866
0.423839
0.411797
0.400983
0.391188
0.382386
0.374599
0.367078
0.360429
0.35489
0.349041
0.344033
0.33873
0.332295
0.326085
0.318738
0.313108
0.307603
0.304699
0.303626
0.306685
0.312766
0.321353
0.330207
0.33859
0.345762
0.351175
0.353969
0.354382
0.353097
0.350008
0.345859
0.339713
0.332451
0.322272
0.311249
0.299975
0.290908
0.286598
1.00261
1.00192
1.00208
1.00215
1.00226
1.00239
1.00255
1.00272
1.00292
1.00314
1.00338
1.00364
1.00392
1.00424
1.00456
1.00491
1.00529
1.00569
1.00609
1.00653
1.007
1.00748
1.00796
1.00846
1.00901
1.00957
1.01013
1.01069
1.01127
1.01185
1.01243
1.01298
1.01355
1.01419
1.01496
1.0158
1.01689
1.01802
1.01968
1.02203
1.02473
1.03127
1.05555
1.04916
1.05054
1.04992
1.04909
1.04465
1.03932
1.01521
0.974643
0.886791
0.792605
0.734487
0.697192
0.673847
0.65814
0.646984
0.63914
0.632168
0.626708
0.620631
0.61562
0.60992
0.604907
0.599626
0.594469
0.590002
0.58538
0.580952
0.576721
0.573044
0.569322
0.562905
0.554368
0.543577
0.530934
0.516146
0.501395
0.485611
0.469812
0.454271
0.439828
0.427135
0.415831
0.40594
0.397133
0.388519
0.380285
0.373593
0.367148
0.361478
0.356113
0.349776
0.343855
0.336131
0.329905
0.324002
0.320232
0.318285
0.319773
0.324529
0.330991
0.338845
0.345825
0.351966
0.356225
0.359025
0.359879
0.359164
0.357334
0.353695
0.34956
0.342695
0.335225
0.324347
0.313976
0.304361
0.300866
1.00258
1.00191
1.00206
1.00213
1.00223
1.00236
1.00251
1.00269
1.00288
1.0031
1.00335
1.0036
1.00388
1.0042
1.00453
1.00487
1.00526
1.00567
1.00608
1.00653
1.00701
1.00751
1.00802
1.00854
1.00909
1.00969
1.0103
1.01091
1.01155
1.01221
1.01287
1.01353
1.01423
1.01496
1.01588
1.01679
1.01799
1.01872
1.02117
1.01841
1.04074
1.0507
1.05056
1.04886
1.05065
1.05047
1.05184
1.04285
1.02962
0.977074
0.888601
0.798167
0.741192
0.705319
0.682975
0.66797
0.658024
0.650129
0.644271
0.638359
0.633599
0.628342
0.62404
0.619182
0.615034
0.610693
0.606209
0.602106
0.597914
0.593864
0.590016
0.586556
0.583694
0.580246
0.574998
0.567059
0.557453
0.545354
0.532273
0.517158
0.502111
0.485834
0.470057
0.455445
0.442108
0.429744
0.418801
0.408681
0.39943
0.391714
0.384749
0.378778
0.373396
0.3675
0.362349
0.355043
0.348205
0.341623
0.336735
0.333176
0.333385
0.336175
0.341224
0.347677
0.353049
0.358779
0.362954
0.36574
0.366908
0.366644
0.365485
0.362356
0.359228
0.353408
0.347131
0.336257
0.327658
0.317702
0.315066
1.00256
1.00189
1.00203
1.0021
1.00221
1.00233
1.00248
1.00266
1.00284
1.00306
1.0033
1.00356
1.00384
1.00415
1.00449
1.00483
1.00522
1.00564
1.00606
1.00651
1.007
1.00753
1.00806
1.00861
1.00917
1.00978
1.01045
1.01112
1.0118
1.01253
1.01328
1.014
1.01467
1.0152
1.01576
1.01611
1.01631
1.01541
1.01497
1.00328
1.01302
1.04746
1.04226
1.0437
1.04323
1.04219
1.03827
1.02146
0.971
0.887976
0.802532
0.750238
0.716563
0.695101
0.680856
0.670616
0.663219
0.656758
0.651471
0.646143
0.6417
0.636939
0.632766
0.628228
0.624063
0.620067
0.615767
0.611876
0.608135
0.604347
0.601018
0.597801
0.595057
0.592749
0.5899
0.584725
0.57813
0.568992
0.557937
0.544283
0.530218
0.513726
0.497485
0.48085
0.466204
0.452549
0.440801
0.430181
0.420139
0.411533
0.403564
0.396925
0.391035
0.385003
0.37975
0.373338
0.366152
0.359137
0.353546
0.348383
0.347516
0.348492
0.351863
0.356772
0.361693
0.36655
0.370137
0.372713
0.374696
0.374793
0.374222
0.371711
0.36937
0.364694
0.358886
0.348818
0.342088
0.331839
0.329548
1.00253
1.00186
1.00201
1.00207
1.00217
1.0023
1.00244
1.00261
1.0028
1.00301
1.00325
1.00351
1.00379
1.0041
1.00443
1.00478
1.00517
1.00559
1.00603
1.00648
1.00697
1.00751
1.00808
1.00866
1.00924
1.00986
1.01055
1.01128
1.01204
1.01281
1.01361
1.01442
1.01515
1.01585
1.01647
1.0172
1.01778
1.01895
1.02051
1.02165
1.0245
1.05239
1.04697
1.04773
1.04505
1.03921
1.0185
0.97373
0.883725
0.80419
0.753866
0.721663
0.701082
0.686894
0.67796
0.671284
0.666939
0.663262
0.660292
0.656704
0.653204
0.648858
0.644557
0.639785
0.634931
0.630341
0.625516
0.621286
0.617504
0.613726
0.610525
0.607692
0.605168
0.603239
0.601476
0.598759
0.594496
0.587412
0.579015
0.568226
0.555802
0.540905
0.525172
0.508851
0.492574
0.477644
0.464107