/*--------------------------------*- C++ -*----------------------------------*\
| =========                 |                                                 |
| \\      /  F ield         | OpenFOAM: The Open Source CFD Toolbox           |
|  \\    /   O peration     | Version:  2.2.x                                 |
|   \\  /    A nd           | Web:      www.OpenFOAM.org                      |
|    \\/     M anipulation  |                                                 |
\*---------------------------------------------------------------------------*/
FoamFile
{
    version     2.0;
    format      ascii;
    class       volScalarField;
    location    "2.05";
    object      divBf;
}
// * * * * * * * * * * * * * * * * * * * * * * * * * * * * * * * * * * * * * //

dimensions      [1 -3 -2 0 0 -1 0];

internalField   nonuniform List<scalar> 
14161
(
1357.4
211.374
362.012
289.028
270.729
234.501
202.525
179.19
144.314
115.393
89.3352
71.3539
31.764
-11.621
-11.3872
-17.7176
-89.7693
-138.42
-108.404
-85.4963
-200.663
-259.063
-258.874
-190.392
-244.812
-327.744
-391.265
-431.131
-391.147
-442.513
-477.795
-567.302
-642.238
-642.219
-760.065
-745.834
-1040.75
-1390.25
-1113.03
-1201.43
-1604.97
-1113.94
-1803.95
-2394.61
720.674
-25999.3
-18880.7
-24593.2
-24721.8
-31666.3
-28592.7
-31916
-32903.5
-33006.1
-33730.8
-33134
-32748
-32479.3
-31126
-30131.9
-28508.8
-27054.9
-25392.3
-23679.7
-21625.2
-19868
-17899.8
-16265.1
-14323.3
-12320.5
-10153.9
-8279.1
-6707.46
-4990.82
-3178.6
-1774.92
101.138
1690.61
3331.7
4755.71
6438.34
8004.26
8721.08
10168.1
11258.6
12208.7
12920.4
13657.9
14231.1
14187.6
14380.7
14199.2
13614.8
13239.6
12559.2
11113.1
10221.5
8828.44
6611.13
5699.79
3607.48
1047.84
-896.053
-3984.8
-5966.25
-8759.73
-11196.4
-13660.8
-22642.2
-24685.2
-25413.2
-24476.6
-15509.1
-18870.7
-5334.83
-14041
10977.2
-14336.3
41884
1108.44
-35.9888
115.513
42.4917
22.6029
-16.3466
-49.923
-79.6854
-116.588
-149.843
-185.065
-206.869
-254.016
-300.82
-310.521
-333.266
-409.082
-461.105
-443.424
-462.153
-568.712
-627.675
-643.301
-604.757
-675.315
-794.608
-858.427
-861.382
-897.689
-946.506
-963.672
-1045.2
-1136.73
-1287.38
-1432.39
-1591.22
-1668.34
-1617.42
-2058.92
-2293.39
-2336.04
-2905.94
-2176.94
-2041.94
-1107.34
-24825.4
-8243.59
-22347.1
-20281.2
-31978.2
-28991.2
-31950.2
-32581.9
-32495.5
-31873.1
-30544.7
-29275.3
-28711.8
-27104.4
-25539.7
-24018.7
-23013
-21134.2
-19147.2
-17579.7
-16137.4
-14368.9
-12799.2
-11014.3
-9370.94
-7842.02
-6036.77
-4007.13
-2392.08
-821.218
417.129
2258.85
3699.35
5200.7
6470.79
8271.88
9566.44
10586.4
11823
12875.8
13542.8
14427.5
14958.2
15543.6
15487
15689.3
15395
14870
14628.3
13881.9
12518
11794.2
10354.9
8079.59
7530.06
4712.57
3420.1
594.819
-2483.34
-5958.58
-9662
-15730.5
-20404.8
-29068.6
-29830.8
-25486.1
-23506.8
-14908.2
-17848
-5336.31
-13707.5
9924.61
-14326.4
37963.1
858.907
-275.05
-123.64
-195.223
-215.598
-254.932
-288.423
-323.684
-360.742
-396.531
-436.391
-466.569
-514.963
-563.134
-581.95
-621.259
-700.951
-739.71
-745.247
-793.498
-891.947
-939.008
-967.451
-980.38
-1060.68
-1166.95
-1231.64
-1261.42
-1334
-1387.75
-1457.35
-1546.32
-1661
-1795.92
-1860.15
-2010.2
-1959.45
-2153.48
-2350.84
-2520.62
-2679.42
-3554.68
-4268.9
-4770.35
-2997.52
-17737.7
-1966.08
-20346.1
-20632
-31840.6
-30776.3
-33966.8
-32753.8
-31603.1
-31657.5
-30786.3
-28819.7
-28037.2
-26467.5
-25384.7
-23793
-22276.4
-20403
-18633.6
-16905.5
-14792
-12856.3
-11066.6
-9435.15
-7807.71
-5968.06
-4495.38
-2635.09
-850.661
645.399
1984.07
3800.43
5245.43
6514.96
7886.91
9573.03
10737.9
11680.2
12913.2
13820.8
14389
15292.2
15886.2
16297.1
16268.1
16559.7
16207.7
15776.5
15542.5
14382.8
13274.6
12649.8
11210.6
9133.99
8353.1
6665.73
3712.8
1477.7
-1218.45
-4162.39
-7504.9
-10253.1
-18451.7
-17736.9
-21356.8
-17644.1
-17717.1
-10975.3
-14645.2
-3924.07
-11826.5
9079.8
-13034.2
34994.4
616.078
-506.734
-354.41
-423.166
-442.276
-480.157
-513.446
-552.979
-587.659
-626.491
-669.916
-703.663
-753.613
-799.232
-835.524
-877.995
-958.457
-984.21
-1037.21
-1073.44
-1179.63
-1208.9
-1275.5
-1330.02
-1385.13
-1505.8
-1533.4
-1601.65
-1708.89
-1780.96
-1863.43
-1950.2
-2042.76
-2146.85
-2212.18
-2345.81
-2335.23
-2546.19
-2622.25
-2996.93
-3217.89
-2943.52
-2529.79
-1688.57
-386.826
-14248.7
10380.2
-22963
-22483.8
-33146.6
-32319.2
-36771.5
-35176.7
-33601.9
-31162.8
-31153.6
-28009.1
-26377.6
-24654.8
-23040.3
-21016.3
-19129.8
-16938
-14974.8
-13527.4
-11584.5
-9837.06
-8121.62
-6643.96
-5269.66
-3704.22
-2150.9
-442.394
1003.23
2706.5
3693.9
5573.28
6846.16
8105.53
9401.52
10916.8
11909.2
13162.1
14156.3
14976.4
15594.9
16512.8
16956.9
17236.5
17230.3
17706.5
17255.6
17013.7
16559.3
15577.5
14723.8
13763.3
12280.4
10143.1
9569.15
6441.57
5601.24
2575.01
-115.583
-4202.11
-8235.49
-13783.3
-15647.5
-13932.8
-14067.3
-12982.3
-13334.3
-8528.97
-12198.2
-3125.16
-10479.1
7808.64
-11789.2
30992
377.906
-729.281
-574.857
-639.773
-657.502
-693.555
-724.377
-765.677
-798.595
-837.895
-884.046
-919.943
-971.828
-1012.52
-1068.54
-1113.34
-1177.1
-1205.89
-1298.15
-1335.78
-1410.88
-1444.55
-1549.26
-1635.04
-1678.44
-1773.48
-1805.49
-1916.75
-2020.21
-2106.19
-2189.94
-2267.41
-2367.66
-2432.18
-2526.07
-2653.87
-2762.07
-2871.29
-2968.04
-3020.29
-2882.15
-2664.92
-2684.79
-3523.93
-2103.14
-17315.5
12344
-20176.1
-27039.4
-35293.7
-35869.4
-39767.1
-34956.8
-35072.4
-30998.9
-29900.7
-27478.5
-25870.8
-22951
-21117.9
-19241.2
-16502.9
-14185.5
-12514.5
-11055.9
-9513.23
-7916.63
-5925.56
-4623.2
-3069.3
-1659.84
-135.775
1307.15
2802.2
4444.44
5229.63
7256.73
8457.23
9761.57
11118.1
12576.1
13327.7
14558.1
15528.9
16205.2
16943.3
17556.9
18055.9
18165.5
18213.8
18500.6
18077.8
18069.6
17500.6
16419.7
15671.5
14915.4
13642.8
11735.9
9933.85
8763.36
6368.42
4585.95
929.935
-680.439
-7008.45
-8271.86
-9568.1
-8000.95
-11109.5
-9703.2
-10169.9
-6696.22
-9883.71
-2473.02
-8884.09
6196.74
-9871.55
27297.6
147.479
-941.524
-784.591
-844.679
-859.515
-892.41
-921.057
-962.775
-993.689
-1033.12
-1078.98
-1117.94
-1170.22
-1205.25
-1271.98
-1327.69
-1371.44
-1416.82
-1510.49
-1576.13
-1629.19
-1662.77
-1764.73
-1871.77
-1963.5
-2021.36
-2053.52
-2168.3
-2285.47
-2386.42
-2477.99
-2553.71
-2641.49
-2716.76
-2802.92
-2909.31
-3000.07
-3006.37
-2986.02
-2954.55
-2924.13
-2957.37
-2541.43
-3089.14
-862.908
-23099
11122.4
-24058.1
-31556.7
-38450.9
-39525.4
-41290.9
-35820.1
-35258.2
-30969.1
-28049.9
-25187.2
-23560.3
-19082.8
-17657.7
-15325.6
-13211.5
-11643.7
-9466.2
-8007.97
-6276.44
-4964.09
-3820.42
-2127.28
-595.51
583.161
2072.78
3554.62
4572.53
6591.28
7451.3
9197.81
9994.94
11479.6
12724
13833.3
14807.4
16052.4
16495.2
17243.4
18037.9
18377.2
18605
19239
19316.8
19594.9
18692.2
18986.4
18311.2
17848.7
16903.9
15290.1
14033
13116.1
12575.4
10556.8
8055.66
7131.21
4203.69
1194.06
-2747.3
-4146.27
-5159.21
-5867.24
-8028.88
-6488.99
-8206.5
-5633.5
-8492.86
-2535.22
-8191.33
4833.74
-9017.29
22806.8
-74.3649
-1142.12
-982.847
-1037.33
-1048.39
-1077.75
-1103.12
-1143.75
-1173.91
-1211.71
-1255.03
-1298.66
-1349.32
-1380.82
-1451.06
-1519.58
-1550.51
-1600.31
-1696.02
-1784.71
-1825.39
-1862.12
-1956.78
-2077.66
-2200.13
-2236.69
-2268.1
-2397.34
-2502.23
-2616.65
-2716.69
-2802.99
-2880.59
-2947.79
-3018.16
-3080.22
-3116.77
-3150.51
-3099.35
-3095.8
-2944.82
-2884.87
-2402.65
-2380.07
-639.689
-20289.5
-13241.8
-26504.7
-44141.3
-44415.7
-45556
-36765.3
-31295
-29520.9
-26325.6
-22667.7
-19978.6
-18048.4
-15949
-14498.2
-12310.5
-9879.8
-9352.28
-7485.29
-5546.47
-4105.17
-2443.61
-1362.15
171.72
1448.14
2610.69
3861.34
5124.72
6044.98
7943.93
9295.82
10409.9
11462.2
12909
13963.6
15042.2
15988.2
17409.7
17932.6
18640.2
19700
19745.6
20123.3
20332.8
20595.6
20551.3
20407.8
20013.6
19325.9
18398.1
17483.8
17639.3
16920.9
15493.9
13607.3
13745.6
11555.3
12858.6
7625.28
4630.06
524.516
-1441.97
-2981.72
-3955.54
-6074.39
-4898.41
-6621.03
-4425.04
-6655.56
-2159.19
-6819.28
4033.57
-7620.56
19443.2
-286.652
-1330.48
-1168.47
-1216.92
-1223.06
-1248.31
-1272.69
-1307.84
-1337.8
-1375.57
-1413.87
-1462
-1508.26
-1540.53
-1614.15
-1689.17
-1705.64
-1763.48
-1863.41
-1962.89
-1986.45
-2026.37
-2152.6
-2265.99
-2374.55
-2421.13
-2476.65
-2592.98
-2692.29
-2816.22
-2927.91
-3019.97
-3072.88
-3136.6
-3193.99
-3218.87
-3218.11
-3197.56
-3120.34
-2993.62
-2843.79
-2644.8
-2709.91
-2270.77
-3293.19
-18164
-30906.8
-41349.2
-59991.8
-51600.5
-39121.4
-32691.4
-28839.1
-24103.2
-21229.4
-17192.5
-15692.9
-12986.1
-12588.6
-9867.54
-7903.8
-6469.99
-5142.95
-3523.65
-2658.1
-1384.36
38.2259
1026.11
1942.99
3153.81
4405.68
5683.18
6839.07
7866.49
9409.22
10864.2
11860
13199.3
14472.2
15478.1
16476
17406.2
18542.9
19150.1
19782.1
20240.1
20526.2
21058.8
21265.3
21651.8
21286.8
20921
20488.6
20596.9
20489.4
19998.8
18895.3
19074.7
18422.7
18322.4
20555.2
20137.2
16466.8
9281.39
5176.17
1626.45
-203.671
-1838.53
-3499.83
-3823.38
-4397.45
-5498.68
-4082.55
-5919.19
-2520.42
-6231.02
2701.65
-7157.22
15611.1
-487.468
-1506.09
-1340.94
-1382.75
-1384.31
-1405.21
-1427.89
-1455.75
-1487.72
-1521.67
-1558.29
-1610.22
-1648.38
-1685.91
-1760.65
-1832.09
-1840.01
-1922.47
-2017.23
-2104.32
-2128.5
-2199.72
-2318.6
-2433.76
-2501.41
-2582.53
-2662.71
-2750.95
-2873.5
-2996.15
-3085.86
-3166.13
-3219.84
-3308.22
-3375.78
-3413.09
-3386.59
-3368.64
-3325.71
-3236.72
-3055.51
-2987.81
-2715.49
-3307.13
-4319.45
-20173.7
-91229.6
-69580.1
-53035.6
-27184.3
-24567.2
-22364.4
-23771.2
-19062
-17485.6
-13700.4
-14373.3
-9321.32
-7541.13
-4473.74
-5043.58
-2492.37
-2094.71
-927.857
219.264
832.813
2141.88
3226.79
3951.21
5085.03
6259.03
7340.29
8431.99
9589.28
10794.7
12353.6
13425.6
14577.2
15698.7
16528
17457.4
18504.5
19511.2
20299.3
21048.7
21362.2
22118
21977.8
22468.7
22124.4
22435.2
22718.4
22366.2
22061.8
22465.9
21754.3
22120
24069
24512
26958.1
26971.7
22217.5
14056.2
7986.28
4277.33
1798.17
397.418
-1670.26
-2295.41
-2836.44
-3526.35
-3930.98
-3361.6
-4603.75
-2319
-5083.57
1882.35
-6402.15
12855.8
-676.447
-1667.89
-1499.68
-1534.91
-1531.49
-1548.14
-1568.87
-1589.34
-1622.92
-1652.22
-1688.96
-1742.55
-1769.84
-1818.36
-1891.64
-1950.12
-1967.54
-2058.67
-2152.8
-2209.34
-2262.06
-2346.05
-2462.64
-2550.8
-2623.43
-2722.32
-2824.35
-2915.35
-3029.08
-3133.38
-3241.09
-3290.05
-3353.5
-3468.66
-3533.21
-3513.71
-3489.08
-3408.61
-3329.32
-3271.54
-2917.89
-2642.52
-1863
-1249.47
-3685.75
-20949.5
-119839
-153780
-31276
-20868.9
-5533.6
-7298.84
-9644.78
-13585.1
-14399.4
-10877.3
-8077.55
-4563.75
-2213.74
-271.541
-2061.04
-1958.52
976.143
1503.56
2469.99
2773.32
3558.31
4703.25
5331.14
6368.14
7545.49
8592.51
9812.82
10974
12082
13366
14693.7
15872.7
16993.6
17993.2
18956.2
20097.4
20586.4
21204.2
21965.7
22112.4
22610.2
22894.5
23970.9
23380.1
23877.5
24333.9
24164.2
24574.3
26055
27295.2
28554.3
32500.1
34682.4
37324.9
24753.4
16995.3
10530
6181.23
3529.06
1770.17
141.184
-1560.51
-1466.04
-2667.02
-3013.66
-3471.25
-3116.01
-3910.79
-2405.97
-4368.01
927.317
-5897.7
10056.6
-852.427
-1815.34
-1644.28
-1673
-1664.36
-1677.12
-1694.35
-1710.18
-1743.78
-1766.43
-1805.05
-1855.62
-1877.16
-1934.29
-2003.82
-2043.91
-2096.99
-2176.89
-2254.28
-2302.99
-2401.2
-2466.73
-2571.87
-2653.81
-2730.48
-2842.07
-2956.94
-3053.11
-3160.54
-3250.89
-3317.38
-3391.86
-3506.55
-3581.51
-3659.77
-3699.48
-3675.99
-3670.19
-3636.06
-3610.72
-3446.42
-3189.05
-3218.28
-3650.48
-5748.23
-36843.7
-150770
-125368
-55727.8
-15869.7
-7008.48
-5859.44
-4172.31
-9757.02
-8234.25
-6430.37
-2947.68
-1060.61
-670.653
288.135
1694.11
1766.65
2291.19
2676.83
4150.57
5435.53
5405.72
6420.5
7299.77
8285.48
9482.9
10453.1
11534.2
12887.6
14177.2
14954.6
16126.1
17126.8
17998.7
18812
19664.3
20353.7
21670.8
22157.1
23240.3
23661.9
24119.2
24385.1
25562.9
25521.9
26234.5
27404.7
29086.1
29758.7
33401.3
37173.7
39742.8
42171.6
35754.5
27153
18108.1
11275.1
7574.02
4441.58
2779.11
1221.8
-202.851
-637.2
-1192.39
-1883.21
-2341.54
-2734.51
-2706.45
-3400.24
-2450.78
-3908.99
22.5496
-5747.86
7650.25
-1014.41
-1948.09
-1774.22
-1796.19
-1783.19
-1792.55
-1804.62
-1818.19
-1848.76
-1870.34
-1906.99
-1949.46
-1984.59
-2036.29
-2092.81
-2137.25
-2199.37
-2281.86
-2333.54
-2404.46
-2499.43
-2581.71
-2672.52
-2743.02
-2832.28
-2935.46
-3056.53
-3184.08
-3293.99
-3359.66
-3403.59
-3522.38
-3629.16
-3676.04
-3756.78
-3837.55
-3945.6
-3870.21
-3574.98
-3387.03
-3359.05
-3008.04
-2953.23
-2394.08
-7627.01
-58175
-127018
-48159.9
-64758.5
-44674
-21987.7
-8331.38
-5947.68
-5948.84
-3111.24
-1973.36
-1071.61
-1810.45
-1369.42
-308.478
3221.83
3629.6
3659.65
4399.52
4800.43
5788.69
6358.01
6988.95
7792.21
8969.23
9997.43
10973
12098.2
13475.2
14556.9
15654.4
17406.5
18199.6
19194
20443.6
21170.1
22363.2
23294.3
23498.8
24338.1
25858.7
26038.8
26823.2
28678.1
29961.1
30866
33432.6
38093.9
40229.4
43607
48540.3
45270.3
34047.9
24426.8
18296.1
11506.4
7979.94
4827.36
3231.15
1982.9
780.4
-212.404
-500.218
-1116.52
-1538.63
-2060.28
-2277.69
-2423.06
-2926.97
-2108.96
-3268.82
-260.839
-5059.63
5982.87
-1162.02
-2065.75
-1889.55
-1905.1
-1888.13
-1894.35
-1900.3
-1914.41
-1938.36
-1961.64
-1998.37
-2027.34
-2071.38
-2127.17
-2166.44
-2220
-2283.28
-2367.99
-2406.39
-2476.36
-2575.92
-2684.22
-2762.2
-2803.37
-2912.95
-3017.66
-3139.51
-3284.74
-3393.5
-3415.52
-3507.09
-3617.59
-3721.49
-3843.9
-3927.68
-3960.55
-3955.26
-3969.26
-4034.04
-3947.89
-3791.83
-3738.53
-3561.03
-6028.04
-18729.5
-103789
-46587.3
-18551.1
-39799.3
-78148
-52225.6
-26871.1
-13254.1
-5965.89
-1951.61
-1225.06
-465.947
-435.404
658.954
2677.19
3309.31
4340.84
5090.19
6292.35
6923.47
7598.69
8241.31
8941.32
9607.94
10753
11617.1
12605.2
13826.8
15457.3
16031.5
17499.4
19023
19299.2
20243
22000.3
22409.8
23657.1
26339.1
25948.3
27310.8
29839.6
31123
31840.2
34829.4
38831.7
41300.3
43472.4
48795
53014.8
47954.6
38422.4
29737.9
21954.4
15111
11199.9
7409.33
4775.46
3225.08
2151.93
1272.44
105.192
182.19
-558.434
-761.715
-1321.18
-1635.68
-1902.28
-2102.81
-2568.47
-2144.6
-3273.64
-1014.67
-5020.77
3999.68
-1294.27
-2167.78
-1990.33
-2000.15
-1979.1
-1981.42
-1983.46
-1996.69
-2014.52
-2038.77
-2076.27
-2092.67
-2144.56
-2203.93
-2220.68
-2291.68
-2367.28
-2434.54
-2459.53
-2544.21
-2645.8
-2759.95
-2817.68
-2865.59
-2980.09
-3103.85
-3236.09
-3332.4
-3428.27
-3514.03
-3614.68
-3698.4
-3813.45
-3960.89
-4064.44
-4130.3
-4081.4
-4132.51
-4195.01
-4146.72
-4095.4
-4106.63
-4323.99
-5735.46
-25050.3
-107014
-10454.8
-11318
-19269.8
-39331.8
-61832.7
-51405.8
-26075.2
-10498.3
-8026
-7995.49
-5348.13
-1420.77
2059.2
3629.07
3680.76
4936.84
5652.29
7544.12
7790.19
8146.38
8721.64
9221.75
9901.5
11237.5
12442.4
13416
14606
16502.2
17451.3
18667.7
20707.5
21401.8
22579.8
25632.6
26290.3
27323.2
30864.5
31499.7
33086.4
37431.4
40603.6
41924.2
44446.6
49505.4
53184.3
55123.9
46765
38894.8
30753
23712.4
17979.3
13084.4
9301.34
6419.8
4371.05
2967.21
1946.65
1320.51
427.119
352.525
-98.9496
-379.898
-725.89
-1071.64
-1363.49
-1646.36
-1788.48
-2255
-1726.99
-2864.96
-1265.85
-4656.43
2724.66
-1411.18
-2254.38
-2076.28
-2080.97
-2056.12
-2053.88
-2054.07
-2067.1
-2077.2
-2102.32
-2137.03
-2154.8
-2206.86
-2262.67
-2266.24
-2349.28
-2430.91
-2481.48
-2507.35
-2611.95
-2713.35
-2799.38
-2857.45
-2931.35
-3050.76
-3167
-3278.25
-3373.24
-3458.12
-3585.35
-3686.84
-3775.8
-3911.58
-4042.98
-4172.11
-4158.08
-4254.47
-4286.48
-4336.08
-4341.82
-4385.08
-4224.78
-4276.14
-8789.73
-49448.8
-71690.7
-6044.95
-8469.34
-8660.27
-17792.5
-31356.1
-55036.5
-52564.1
-30538
-17174.2
-10519.3
-4862.44
472.539
4365.13
2585.02
3375.09
6555.55
7574
7883.26
8979.36
8763.67
9564.08
10632.6
11940.7
12534.9
14151.8
16274.8
17117.7
18813.5
21144.8
22009.2
23573.1
27157.2
27830.8
30464.1
33962.1
35184.7
39748.1
43260.5
44460.7
47807.8
53224.4
54940.4
54905.7
49027.5
42253
35196.5
28560.4
23799.6
17939.5
13273
10623
7263.81
5145.32
3531.69
2353.1
1500.08
1054.98
423.389
197.402
93.1004
-113.473
-304.655
-518.836
-782.482
-1052.49
-1367.01
-1590.58
-2067.63
-1636.94
-2702.73
-1503.79
-4269.64
1698.93
-1512.42
-2325.55
-2147.27
-2147.13
-2119.47
-2113.32
-2111.68
-2123.32
-2129.52
-2156.98
-2179.34
-2207.62
-2258.41
-2299.64
-2321.38
-2396.77
-2467.15
-2507.48
-2567.88
-2660.13
-2749.77
-2810.87
-2908.88
-2989.41
-3091.69
-3205.62
-3324.07
-3389.52
-3504.47
-3631.21
-3760.99
-3892.58
-4022.84
-4110.63
-4170.95
-4292.99
-4346.95
-4398.18
-4456.45
-4471.46
-4522.03
-4563.06
-6145.85
-13730.9
-85438
-46345.4
-3796.65
-3809.18
-3564.38
-6749.28
-14327.1
-28040.7
-49701.8
-51012.3
-26953.2
-14082
-7399.77
-1902.57
1178.26
492.482
4495.45
6839.61
8301.33
7628.22
10017
9586.91
10953
12796.5
15018.4
16044.4
17467.7
20863.4
21824.4
23225.1
27932.8
28971
31229.4
37094.6
39187.2
41510.6
46413.3
48348
52193.9
56554.6
58153.6
52199.9
47866.8
42642.1
35750.3
29724.6
26356.3
21304
16171.2
12725.4
10299.1
7204.72
5379.47
3889.6
2563.66
1684.03
1090.71
619.65
405.621
-39.3965
105.836
-89.8783
-132.223
-284.059
-441.018
-706.009
-837.713
-1191.38
-1378.1
-1865.56
-1477.3
-2635.21
-1787.3
-4076.09
634.068
-1597.84
-2381.19
-2203.51
-2199.24
-2169.37
-2160.43
-2157.86
-2163.41
-2172.91
-2199.58
-2210.91
-2247.25
-2295.11
-2320.57
-2364.36
-2437.66
-2482.51
-2545.54
-2600.6
-2700.17
-2766.15
-2831.75
-2937.81
-3033.32
-3131.79
-3236.84
-3310.78
-3429.13
-3527.86
-3665.22
-3823.61
-3970.93
-4061.27
-4104.98
-4257.9
-4377.78
-4475.8
-4584.93
-4638.44
-4742.43
-4818.91
-5021.01
-6047.87
-17891.9
-96866.4
-6776.1
424.598
-259.982
-2002.88
-3774.14
-8487.97
-15130.4
-29684.7
-53697.1
-54361.3
-28602.9
-13505.1
-8329.05
-1128.88
3356.36
8109.39
9635.29
11090.6
10219.4
12745.8
14117.9
15587.6
17582.2
21286.7
23113.6
24906.9
28366.2
32028.3
34490
39477.2
43405.5
45862.7
50657.6
55624.3
58843.9
60283.2
57370.7
50317.9
45002.7
40501.2
34300
28707.5
26475.2
22248.6
17148.1
13950
11401.1
9286.45
6608.02
5159.68
3672.66
2509.05
1599.5
878.653
375.341
127.45
-111.072
-186.693
-318.431
-148.18
-236.885
-123.499
-268.655
-265.087
-498.893
-567.867
-924.512
-1093.41
-1579.09
-1285.62
-2403.46
-1861.99
-3694.99
20.3013
-1667.47
-2421.56
-2245.58
-2237.98
-2206.38
-2195.1
-2190.81
-2193.89
-2202.48
-2226.17
-2242.06
-2276.57
-2311.95
-2348.72
-2393.7
-2460.53
-2486.1
-2569.11
-2639.17
-2718.95
-2767.21
-2843.7
-2949.72
-3074.22
-3172.04
-3225.45
-3321.46
-3437.53
-3569.53
-3702.65
-3843.18
-3978.62
-4055.79
-4170.9
-4294.73
-4418.5
-4547.77
-4674.1
-4771.53
-4847.29
-4878.78
-5048.47
-7555.04
-32364.3
-75404
-3725.27
-1013.85
-869.642
-2898.33
-3385.18
-6498.46
-9593.14
-17213.3
-29787.5
-52655.3
-44608.3
-20363.3
-6934.4
-1894.6
7095.58
10775.3
12592
14511.6
16262.4
15982.2
21661.9
23402.7
25990.5
30293.2
35173.6
38537.2
42133.4
48227
52036.1
56337
60794.8
64431.4
59145.2
55032.8
50227
41866.2
37987.3
32023.9
27377.2
25095.8
21432.4
17063.7
14577.7
12363.1
10115.5
7705.6
6009.7
4720.45
3483.95
2305.24
1430.74
637.183
170.804
-160.082
-334.561
-402.298
-429.865
-468.812
-412.219
-313.623
-253.937
-174.572
-180.253
-137.025
-355.272
-384.806
-783.536
-959.987
-1449.55
-1251.92
-2378.95
-2014.81
-3386.5
-605.629
-1721.37
-2447.03
-2273.66
-2263.46
-2230.53
-2216.86
-2212.05
-2213.41
-2224.61
-2235.67
-2260.66
-2299.8
-2312.2
-2362.26
-2421.07
-2463
-2488.74
-2575.13
-2669.18
-2718.25
-2752.96
-2859.93
-2959.12
-3076.77
-3168.87
-3217.59
-3337.04
-3456.69
-3587.54
-3720.85
-3841.8
-3942.62
-4075.87
-4196.65
-4327.85
-4451.48
-4588.31
-4697.91
-4786.34
-4833.53
-4900.09
-5613.82
-9711.97
-48158.3
-53313.9
-2037.41
82.818
1078.46
612.642
111.645
-57.4472
-2014.4
-5707.19
-11636.3
-25757.3
-44553.2
-40104.5
-14038.5
-3069.91
9624.48
13339.6
18412.8
22035.2
25436
28547.7
34558.8
39637.1
43231.1
46869.8
53706.4
59789.7
63501.8
66620.6
64234.1
57343.9
51162.5
46078.2
39689.1
35062
31521.6
25290.1
23171.4
19680.2
16432.5
13528.5
12404.8
10322.4
8354.11
6924.84
5562.37
4374.52
3300.41
2191.3
1377.76
607.305
96.9027
-412.107
-737.597
-944.052
-1039.28
-1004.67
-859.505
-816.832
-672.526
-577.608
-457.679
-332.875
-257.626
-204.833
-309.914
-278.805
-620.344
-786.168
-1227.21
-1159.72
-2142.77
-2024.78
-3083.13
-1044.84
-1759.94
-2458.06
-2287.81
-2275.69
-2241.96
-2227.43
-2221.52
-2220.83
-2236.87
-2237.5
-2268.25
-2307.14
-2309.62
-2367.12
-2429.09
-2449.57
-2501.49
-2578.37
-2662.69
-2700.23
-2769.2
-2861.5
-2967.82
-3051.43
-3136.98
-3232.96
-3333.32
-3455.24
-3583.98
-3716.24
-3812.08
-3940.67
-4086.75
-4212.3
-4359.44
-4513.57
-4608.71
-4715.53
-4781.42
-4853.46
-4856.2
-5752.99
-11550
-68527.7
-41058
516.115
436.616
1219.51
694.094
318.984
-234.75
-1673.87
-3498.5
-6980.26
-12584.4
-24305.4
-40946.4
-21038.9
6313.44
18422.4
23077.1
31451.6
37765.1
40527
46978.4
54180.6
60963.1
66106.8
68382.3
65834.3
61415.4
55437.9
47536.1
44100.2
38200.3
33387.1
27966.9
24522
21607.6
18231.4
15868.2
12679.9
11543.9
10134
8442.97
7255.58
6194.39
4832.72
3860.54
3172.41
2247.28
1628.12
815.508
203.83
-432.299
-891.741
-1219.15
-1325.13
-1340.45
-1217.24
-1185.14
-944.148
-909.442
-709.027
-578.207
-374.22
-213.791
-99.0024
-50.8035
-116.146
-184.859
-427.808
-681.611
-1147.06
-1231.58
-2047.69
-2028.88
-2787.37
-1363.7
-1783.68
-2455.13
-2288.69
-2275.09
-2241.72
-2227.9
-2219.73
-2218.07
-2232.44
-2238.11
-2266.08
-2293.67
-2313.71
-2363.83
-2412.39
-2441.72
-2499.07
-2576.57
-2627.98
-2694.03
-2757.69
-2858.83
-2946.2
-3016.03
-3127.18
-3224.39
-3337.23
-3444.33
-3562.02
-3669.56
-3793.41
-3917.66
-4062.53
-4232.82
-4380.23
-4487.4
-4610.37
-4720.82
-4790.71
-4906.81
-5064.18
-5844.45
-15722.3
-75397.4
-9509.33
3329.84
2119.58
873.99
325.389
-418.64
-1141.21
-469.426
685.81
1150
-1000.56
-2264
-5674.88
-248.902
23489.8
33488
41940.1
49992.8
59598.5
66351.7
71076
66440.7
62577.1
58404.3
51176.1
45777
40923.1
36151.1
30585.6
27620
24072.4
20151.3
17571.6
14537.3
13091
10980.2
9847.4
8248.7
7005.36
5870.87
5272.05
4275.56
3850
2985.08
2259.5
1832.39
1135.78
470.824
-199.599
-649.754
-1070.85
-1278.99
-1506.32
-1634.56
-1686.39
-1584.16
-1518.57
-1225.1
-1158.73
-930.68
-789.758
-604.561
-421.469
-264.395
-178.655
-153.748
-162.7
-290.136
-557.423
-871.827
-1185.78
-1712.22
-1887.93
-2489.32
-1637.73
-1793.08
-2438.54
-2276.99
-2262.77
-2230.15
-2216.69
-2206.66
-2209.3
-2215.15
-2227.01
-2255.81
-2272
-2304.43
-2355.15
-2378.34
-2429.35
-2494.23
-2552.14
-2593.09
-2675.72
-2756.44
-2840.03
-2904.94
-2982.67
-3090.18
-3213.87
-3330.13
-3418.01
-3505.16
-3636.13
-3761.55
-3899.77
-4046.93
-4199.95
-4321.94
-4453.11
-4555.63
-4634.63
-4702.44
-4862.23
-4970.38
-7287.33
-27748.6
-61505.9
-5600.55
2006.47
2310.91
1963.82
1805.48
1395.24
884.281
2071.14
4350.32
5686.92
7727.05
11859.2
22700.1
34208.3
47437.3
60053.1
69498.5
67132.5
61504.3
57783.1
54075.2
48158.1
43463.8
38993.8
33442.8
29981.6
26660.7
23353.5
19914
16899.1
15150.4
12649.3
11699.6
9396.15
8143.65
6877.74
6116.6
5829.75
4818.69
4025.69
3393.2
2869.45
2299.3
1799.21
1103.37
776.829
234.891
-203.206
-634.328
-1034.51
-1466.88
-1734.71
-1866.91
-1896.71
-1890.46
-1722.98
-1609.6
-1480.81
-1239.31
-1009.68
-841.46
-576.99
-332.534
-101.826
53.2082
89.9455
32.2923
-93.5177
-490.45
-828.361
-1280.6
-1523.9
-1831.09
-2264.57
-1791.54
-1788.81
-2409.05
-2253.36
-2239.38
-2207.59
-2194.21
-2184.23
-2189.57
-2191.71
-2209.41
-2226.27
-2250.47
-2289.9
-2325.39
-2350.71
-2407.29
-2480.34
-2506.47
-2566
-2643.35
-2745.67
-2801.72
-2846.17
-2953.16
-3055.99
-3184.45
-3285.97
-3364.06
-3474.16
-3597.75
-3727.75
-3866.2
-4012.22
-4128.45
-4255.01
-4359.68
-4457.73
-4539.27
-4651.65
-4793.53
-5718.17
-8970.81
-41179.3
-45819.2
-6269.53
2320.99
3489.47
3044.49
3505.67
3402.48
4040.66
4755.62
8714.15
15341.3
28215.8
48820.5
78456.1
91507.2
80754.6
64514.4
54720.8
48618.5
42973.4
39060.8
35446.7
31804.7
28773.8
25901.2
22689.8
19769.4
17685.3
15407.9
14158.9
11742.5
10693.4
9020.34
8284.95
7206.29
6015.49
5267.87
4242.26
3801.22
3047.63
2478.14
2067.18
1668.64
1278.24
997.782
585.757
222.681
-188.686
-620.947
-1051.7
-1313.63
-1591.67
-1720.86
-1890.06
-1919.42
-1954.08
-1831.2
-1614.6
-1734.81
-1319.7
-1167.98
-981.705
-737.155
-534.538
-331.349
-182.899
-120.644
-129.251
-166.489
-437.371
-607.98
-1170.99
-1168.4
-1701.75
-1884.82
-1923.75
-1771.57
-2367.46
-2218.43
-2205.28
-2174.73
-2161.8
-2154.31
-2155.49
-2161.2
-2185.14
-2186.07
-2221.27
-2266.96
-2274.9
-2324.36
-2385.35
-2438.09
-2456.13
-2536.58
-2621.38
-2695.77
-2734.62
-2822.45
-2916.28
-3028.28
-3119.41
-3210.92
-3319.22
-3429.42
-3551.79
-3684.05
-3813.3
-3936.82
-4057.5
-4178.92
-4306.23
-4397.47
-4478.62
-4580.55
-4630.35
-5308.06
-10821.3
-61400.9
-36993.6
-4840.11
2257.74
3431.47
3674.3
4600.7
6759.92
8556.2
10660.3
21297.2
37911.8
60480.1
94009.5
126836
95638.5
62505.1
48608.2
38719.4
33007.2
29156.9
26422.6
23690
20855.4
18647.8
17370.7
16492.2
14599.1
13352.9
11804.9
10800.6
9308.96
7947.95
6845.87
5978.85
5349.42
4386.64
3924.79
3296.74
2891.39
2351.79
1892.55
1472.4
1113.81
771.694
554.897
222.696
-125.405
-376.034
-682.496
-971.101
-1316.75
-1666.39
-1891.4
-2055.69
-2082.18
-2078.2
-2011.39
-1783.18
-1657.4
-1440.21
-1236.7
-1005.47
-737.797
-477.004
-181.235
24.6756
184.679
154.62
79.1472
-301.872
-520.04
-1109.09
-1017.5
-1688.91
-1590.7
-2044.51
-1742.24
-2314.62
-2172.81
-2160.99
-2132.09
-2120.63
-2114.92
-2115.57
-2122.37
-2142.63
-2151.44
-2184.33
-2219
-2240.05
-2285.34
-2345.29
-2377.71
-2424.9
-2498.11
-2572.54
-2626.05
-2699.22
-2773.92
-2875.67
-2969.73
-3042.43
-3156.67
-3259.58
-3385.9
-3503.58
-3614.95
-3736.28
-3856.37
-3965.94
-4094.22
-4240.61
-4388.82
-4490.1
-4644.82
-4921.79
-5949.73
-15489.5
-69861.3
-7938.19
-3393.11
4070.42
4161.48
4616.74
5779.94
8701.82
15075.1
22197.2
40485.4
71896.8
114993
139681
99253.8
66559.2
47128
35229.4
28101.7
23225.7
20043.8
17529.2
15883.8
14499.3
13588.6
12747
12297.8
11556.6
10440.2
9463.74
8508.76
7875.82
7065.26
6328.94
5690.96
4936.75
4116.82
3527.33
2977.09
2539.57
1970.79
1449.47
937.249
555.764
258.237
98.0421
-60.4084
-305.36
-572.381
-850.516
-1136.4
-1377.22
-1556.71
-1774.36
-1910.5
-1897.3
-1994.85
-1901.22
-1855
-1635.89
-1462.56
-1245.53
-1020.88
-770.486
-545.443
-302.271
-166.282
-26.3871
-154.505
-137.783
-395.2
-382.497
-906.781
-705.709
-1543.84
-1154.17
-2051.99
-1701.73
-2251.45
-2117.27
-2107.06
-2080.67
-2071.18
-2065.97
-2066.9
-2080.86
-2088.94
-2108.41
-2144.27
-2159.02
-2197.07
-2250.56
-2281.23
-2329.17
-2381.09
-2460.05
-2503.3
-2565.72
-2638.74
-2740.55
-2820.52
-2881.51
-2970.91
-3079.49
-3204.03
-3328.99
-3440.33
-3519.96
-3641.44
-3765.37
-3899.85
-4028.17
-4141.8
-4287.03
-4408.37
-4550.51
-5033.2
-7161.81
-28998.4
-59693.7
-6762.05
-3141.23
4529.65
4082.22
5575.19
7984.83
12774.4
25252.5
46989.1
76692.1
121625
135050
94745.6
66698.5
47319.9
34526.5
26657.1
21427.1
18103.1
15435.7
13333.4
11749.4
10682
9865.17
9326.16
8932.39
8748.14
8408.39
8089.49
7624.38
7189.69
6565.79
6085.51
5378.97
4761.5
3949.96
3317.03
2724
2324.14
1869.68
1439.97
1002.98
592.642
307.026
138.51
-71.8916
-320.106
-608.395
-866.261
-1050.24
-1396.81
-1565.89
-1836.51
-2002.08
-1995.82
-2086.5
-2097.01
-1941.61
-1765.87
-1549.89
-1333.72
-1108.98
-828.199
-589.792
-305.232
-109.7
157.711
131.452
168.888
-112.436
-284.641
-795.374
-671.39
-1457.82
-850.306
-2030.12
-1651.05
-2178.71
-2052.71
-2044.64
-2021.03
-2013.16
-2009.27
-2012.3
-2024.77
-2034.76
-2060.87
-2083.48
-2106.35
-2147.44
-2199.28
-2209.82
-2271.33
-2343.91
-2396.81
-2418.63
-2504.49
-2592.13
-2682.77
-2739.48
-2800.9
-2901.89
-3006.78
-3131.87
-3242.16
-3329.54
-3427.05
-3551.72
-3677.55
-3804.05
-3945.77
-4060.66
-4151
-4237.86
-4291.09
-4773.88
-9250.47
-45688.2
-44201
-4584.95
-3406.02
5014.48
6890.32
10438.8
16642
25766.6
47949.8
88997.4
131323
126054
88628.7
63168.2
45803
33589.7
25654.3
20262.7
16671
14072
12153.2
10649.8
9541.39
8831.95
8426.7
8138.31
7854.58
7688.63
7545.79
7433.6
7238.3
7060.78
6809.23
6615.77
5729.44
5239.64
4374.62
3712.9
2915.41
2383.67
2035.43
1597.34
1228.1
652.176
151.546
-207.831
-513.487
-694.805
-883.685
-1170.8
-1351
-1701.41
-1705.67
-1885.32
-2028.57
-2020.62
-2158.53
-2121.62
-2025.91
-1767.71
-1557.8
-1343.65
-1100.75
-849.388
-622.264
-358.671
-215.468
1.77701
-17.8263
-7.46378
-288.65
-271.762
-565.055
-395.96
-1220.97
-510.822
-2030.72
-1591.17
-2097.35
-1979.94
-1974.43
-1953.75
-1947.68
-1945.68
-1953.35
-1958.41
-1975.77
-2006.34
-2013.24
-2049.7
-2097.64
-2122.22
-2155.41
-2212.51
-2280.37
-2312.47
-2363.33
-2438.55
-2529.55
-2592.04
-2650.93
-2731.35
-2830.02
-2942.31
-3034.72
-3121.48
-3225.75
-3335.37
-3447.75
-3573.74
-3716.77
-3857.7
-3960.96
-4047.67
-4173.89
-4341.5
-5539.52
-12449.9
-67144.4
-23719.5
-1804.57
-763.548
8006.93
10671.4
17365.9
30442.6
57213.8
88983.3
136813
116489
80971.8
57752.7
42210.6
31395.6
24184.2
19156
15727.7
13292.4
11505.4
10158.7
9166.46
8415.33
7880.89
7478.94
7241.78
7019.17
6955.06
6915.65
6946.85
6844.07
6568.77
6349.06
6429.93
5767.4
5539.97
4781.72
4266.09
3345.88
2589.17
2044.19
1607.34
1227.71
809.862
126.406
-211.962
-552.935
-705.88
-890.72
-1160.35
-1303.32
-1715.59
-1765.35
-1975.67
-2171.53
-2116.93
-2139.7
-2208.8
-2196.35
-1992.41
-1755.86
-1540.1
-1283.12
-959.908
-682.374
-407.591
-169.723
-112.187
251.989
242.93
-9.42243
-22.9834
-436.529
-357.648
-1106.49
-257.984
-2030.91
-1523.12
-2008.45
-1899.81
-1897.04
-1879.43
-1875.82
-1875.82
-1884.77
-1891.34
-1912.33
-1933.55
-1950.51
-1989.19
-2023.49
-2052.76
-2093.01
-2155.76
-2190.46
-2242.25
-2297.27
-2381.1
-2440.88
-2492.94
-2566.15
-2656.67
-2766.4
-2855.18
-2914.33
-3011.94
-3109.1
-3228.54
-3361.98
-3498.43
-3601.99
-3706.88
-3806.68
-3928.76
-4125.35
-4562.34
-5938.18
-19361.5
-64723.9
-5885.01
-2977.05
-1810.51
7843.91
15825.7
32683.1
56014
99518.3
141858
107631
75307.2
53176.8
38630.2
28716.7
22097.7
17541
14423.8
12318.8
10805.3
9723.63
8879.4
8269.87
7776.08
7350.13
7033.03
6794.79
6621.35
6516.64
6440.29
6375.88
6248.73
6212.23
6126.36
6068.08
5877.84
5487.68
4909.22
4104.32
3687.51
2663.99
1996.16
1575.23
1116.21
765.987
146.798
-271.077
-778.23
-1129
-1255.71
-1504.11
-1622.79
-2020.64
-2118.86
-2165.14
-2490.83
-2413.04
-2371.66
-2352.21
-2343.17
-2111.52
-1869.4
-1612.94
-1350.62