/*--------------------------------*- C++ -*----------------------------------*\
| =========                 |                                                 |
| \\      /  F ield         | OpenFOAM: The Open Source CFD Toolbox           |
|  \\    /   O peration     | Version:  2.2.x                                 |
|   \\  /    A nd           | Web:      www.OpenFOAM.org                      |
|    \\/     M anipulation  |                                                 |
\*---------------------------------------------------------------------------*/
FoamFile
{
    version     2.0;
    format      ascii;
    class       surfaceScalarField;
    location    "0.05";
    object      cfmax;
}
// * * * * * * * * * * * * * * * * * * * * * * * * * * * * * * * * * * * * * //

dimensions      [0 3 -1 0 0 0 0];

internalField   nonuniform List<scalar> 
28084
(
0.00101422
0.00100982
0.00100605
0.00100287
0.00100027
0.000998202
0.000996646
0.000995564
0.000994922
0.000994683
0.000994811
0.000995269
0.000996019
0.000997026
0.000998253
0.000999664
0.00100123
0.00100291
0.00100467
0.0010065
0.00100835
0.00101021
0.00101205
0.00101385
0.00101558
0.00101724
0.0010188
0.00102024
0.00102156
0.00102275
0.00102379
0.00102467
0.00102539
0.00102594
0.00102631
0.0010265
0.0010265
0.00102631
0.00102593
0.00102534
0.00102456
0.00102357
0.00102237
0.00102096
0.00101934
0.0010319
0.00104493
0.00105839
0.0010722
0.00108631
0.00110066
0.00111518
0.00112981
0.00114448
0.00115913
0.00117369
0.0011881
0.00120229
0.00121618
0.00122973
0.00124285
0.0012555
0.0012676
0.0012791
0.00128993
0.00130004
0.00130939
0.00131792
0.00132558
0.00133234
0.00133816
0.00134301
0.00134687
0.00134973
0.00135156
0.00135238
0.00135217
0.00135097
0.00134878
0.00134564
0.00134159
0.00133668
0.00133096
0.0013245
0.00131738
0.00130968
0.0013015
0.00129293
0.00128089
0.00129872
0.00120073
0.00100744
0.000900433
0.000872729
0.000858414
0.000847956
0.000839476
0.000833082
0.000827557
0.000822535
0.000817005
0.000811335
0.000807063
0.000805207
0.000806582
0.000809792
0.000813471
0.00081725
0.000823529
0.000833318
0.000847743
0.000867192
0.000890417
0.000914042
0.00093748
0.000962187
0.0009878
0.00101308
0.000725948
0.000724383
0.001019
0.000721305
0.0010177
0.000716739
0.00101698
0.00071072
0.00101683
0.000703295
0.00101721
0.000694525
0.0010181
0.000684478
0.00101946
0.000673231
0.00102127
0.000660871
0.00102347
0.000647708
0.00102605
0.000633965
0.00102895
0.000619332
0.00103214
0.00060391
0.00103557
0.000587804
0.00103921
0.000571117
0.00104303
0.00055395
0.00104696
0.000536403
0.001051
0.000518574
0.00105508
0.000500553
0.00105919
0.000482428
0.00106329
0.000464282
0.00106735
0.000446191
0.00107135
0.000428224
0.00107524
0.000410446
0.00107903
0.000392913
0.00108267
0.000375678
0.00108615
0.000358784
0.00108946
0.000342272
0.00109258
0.000326173
0.0010955
0.000310516
0.0010982
0.000295322
0.00110068
0.000280609
0.00110293
0.000266391
0.00110493
0.000252676
0.0011067
0.000239468
0.00110821
0.000226771
0.00110947
0.000214907
0.00111047
0.000203558
0.00111121
0.000192714
0.00111169
0.000182366
0.00111191
0.000172505
0.00111186
0.000163118
0.00111154
0.000154194
0.00111095
0.000145718
0.0011101
0.000155148
0.00110897
0.000155583
0.00112085
0.000155993
0.00113318
0.000156375
0.00114589
0.000156729
0.00115893
0.000157054
0.00117224
0.00015735
0.00118575
0.000157614
0.0011994
0.000157848
0.00121313
0.000158049
0.00122687
0.000158218
0.00124056
0.000158355
0.00125414
0.00015846
0.00126753
0.000158532
0.00128067
0.000158572
0.0012935
0.000158582
0.00130596
0.000158562
0.00131797
0.000158514
0.00132948
0.000158438
0.00134043
0.000158338
0.00135076
0.000158216
0.0013604
0.000158074
0.00136932
0.000157916
0.00137745
0.000157745
0.00138475
0.000157565
0.00139117
0.000157382
0.00139669
0.000157199
0.00140126
0.000157021
0.00140486
0.000156856
0.00140747
0.000156708
0.00140907
0.000156585
0.00140965
0.000156839
0.00140921
0.000158506
0.00140776
0.000160181
0.00140532
0.000161858
0.00140189
0.000163527
0.00139753
0.000165183
0.00139226
0.000166816
0.00138614
0.000168419
0.00137923
0.000169985
0.00137159
0.000171505
0.00136329
0.000172972
0.00135444
0.000174383
0.0013451
0.000175772
0.0013354
0.000173639
0.00132203
0.000267205
0.00133983
0.000571638
0.0012371
0.000654628
0.0010371
0.000685765
0.000926986
0.000694925
0.000897977
0.000701213
0.000882553
0.000707741
0.000871101
0.000714814
0.000861698
0.000722292
0.000854442
0.000729775
0.000848082
0.000737227
0.000842314
0.000744726
0.000836087
0.000752117
0.000829806
0.000759687
0.000824984
0.000767917
0.00082261
0.000776695
0.000823483
0.000785431
0.000826147
0.000794537
0.000829146
0.000804288
0.000832202
0.000814953
0.000837492
0.000827285
0.000846245
0.000842093
0.00085934
0.000860101
0.000877394
0.000880041
0.000899166
0.000898403
0.000921414
0.000914172
0.000943476
0.000928387
0.000966755
0.000940814
0.000990877
0.000952355
0.00101463
0.000727518
0.000725435
0.00102538
0.000721855
0.00102714
0.000716807
0.00102944
0.000710328
0.00103227
0.00070247
0.00103561
0.000693293
0.00103941
0.00068411
0.00104366
0.000673966
0.00104832
0.000662613
0.00105334
0.000650141
0.0010587
0.000636646
0.00106434
0.000622226
0.00107023
0.000606984
0.00107632
0.000591024
0.00108257
0.000574449
0.00108893
0.000557362
0.00109538
0.000539866
0.00110185
0.000522057
0.00110832
0.000504029
0.00111475
0.000485871
0.0011211
0.000467668
0.00112734
0.000449498
0.00113344
0.000431432
0.00113938
0.000413536
0.00114512
0.00039587
0.00115065
0.000378486
0.00115594
0.000361431
0.00116099
0.000344746
0.00116576
0.000328465
0.00117026
0.000312617
0.00117446
0.000297225
0.00117836
0.000282308
0.00118196
0.00026788
0.00118524
0.000253952
0.0011882
0.000240528
0.00119084
0.000227611
0.00119316
0.0002152
0.00119515
0.000203293
0.00119681
0.000192512
0.00119815
0.000182393
0.00119915
0.000172762
0.00119983
0.000163607
0.00120017
0.000154916
0.00120019
0.000146676
0.00119988
0.000165431
0.00119924
0.000166251
0.00121044
0.000166994
0.00122205
0.000167659
0.00123401
0.000168242
0.00124627
0.000168744
0.00125876
0.000169161
0.00127142
0.000169493
0.00128419
0.000169737
0.00129701
0.000169894
0.00130981
0.000169962
0.00132253
0.000169942
0.0013351
0.000169832
0.00134747
0.000169635
0.00135956
0.00016935
0.00137132
0.000168979
0.00138267
0.000168525
0.00139356
0.00016799
0.00140393
0.000167378
0.00141371
0.000166693
0.00142286
0.000165939
0.0014313
0.000165122
0.00143901
0.000164249
0.00144591
0.000163327
0.00145198
0.000162363
0.00145716
0.000161367
0.00146142
0.000160349
0.00146473
0.000159318
0.00146707
0.000158286
0.00146841
0.000157264
0.00146874
0.000156267
0.00146806
0.000158143
0.00146636
0.000160667
0.00146365
0.00016318
0.00145995
0.000165668
0.00145528
0.000168115
0.00144968
0.000170505
0.00144318
0.000172823
0.00143585
0.000175053
0.00142772
0.00017718
0.00141888
0.000179188
0.0014094
0.000181061
0.00139937
0.00018279
0.00138888
0.000184412
0.00137808
0.000182112
0.0013632
0.000275181
0.00138104
0.000581291
0.00127274
0.000662939
0.00106598
0.00069354
0.000953679
0.000702521
0.000923588
0.000708703
0.000907089
0.000715064
0.000894741
0.000722004
0.000884436
0.000729371
0.000876269
0.000736699
0.000868949
0.000743991
0.000862193
0.00075133
0.000854999
0.000758583
0.000847798
0.000766072
0.00084208
0.000774256
0.000838826
0.000782984
0.00083882
0.000791726
0.000840519
0.00080098
0.000842462
0.000811055
0.000844381
0.000822189
0.000848733
0.000835116
0.000856571
0.000850563
0.000868909
0.000869144
0.000886214
0.000889779
0.000907109
0.000908949
0.000928329
0.000925533
0.000949129
0.00094081
0.000971143
0.00095443
0.000993783
0.000967773
0.00101607
0.000726435
0.000723869
0.00103336
0.000719821
0.00103813
0.000714321
0.00104342
0.000709324
0.00104919
0.000703669
0.00105543
0.000696559
0.00106212
0.000688055
0.00106922
0.000678229
0.00107669
0.00066716
0.00108449
0.000654937
0.00109259
0.000641654
0.00110094
0.000627409
0.0011095
0.000612305
0.00111821
0.000596445
0.00112703
0.000579936
0.00113592
0.00056288
0.00114483
0.000545381
0.00115372
0.000527537
0.00116254
0.000509444
0.00117126
0.000491194
0.00117983
0.000472873
0.00118822
0.000454561
0.00119641
0.000436331
0.00120436
0.000418253
0.00121204
0.000400386
0.00121943
0.000382788
0.00122651
0.000365505
0.00123326
0.00034858
0.00123967
0.00033205
0.00124573
0.000315945
0.00125141
0.00030029
0.00125672
0.000285105
0.00126165
0.000270405
0.00126619
0.0002562
0.00127034
0.000242498
0.00127409
0.000229302
0.00127745
0.000216611
0.00128042
0.000204422
0.00128299
0.00019273
0.00128516
0.000181799
0.00128695
0.000172451
0.00128834
0.000163579
0.00128934
0.000155172
0.00128995
0.000147216
0.00129018
0.000175175
0.00129002
0.000176352
0.00130053
0.000177401
0.00131141
0.000178321
0.00132261
0.000179107
0.00133407
0.000179758
0.00134574
0.00018027
0.00135754
0.000180642
0.00136942
0.000180873
0.00138132
0.000180959
0.00139317
0.000180902
0.00140491
0.000180699
0.00141648
0.000180353
0.00142781
0.000179863
0.00143884
0.000179231
0.00144951
0.000178459
0.00145976
0.000177552
0.00146951
0.000176512
0.00147873
0.000175346
0.00148734
0.00017406
0.00149529
0.000172661
0.00150253
0.000171157
0.00150901
0.000169558
0.00151469
0.000167875
0.0015195
0.00016612
0.00152343
0.000164307
0.00152643
0.000162449
0.00152848
0.000160562
0.00152954
0.000158663
0.00152961
0.00015677
0.00152866
0.000157178
0.0015267
0.000160566
0.00152373
0.000163944
0.00151975
0.000167292
0.00151479
0.000170585
0.00150887
0.000173803
0.00150202
0.000176921
0.00149428
0.000179917
0.00148571
0.000182767
0.00147637
0.000185446
0.00146632
0.000187933
0.00145564
0.000190203
0.00144443
0.000192251
0.00143277
0.000194173
0.00142091
0.000191139
0.00140395
0.000283787
0.00142216
0.000591893
0.00130674
0.000671644
0.00109272
0.000701745
0.000979608
0.000710543
0.000948649
0.000716624
0.000931074
0.000722895
0.00091802
0.000729775
0.000907096
0.000737022
0.000898279
0.000744162
0.000890218
0.000751251
0.00088255
0.000758413
0.000874354
0.000765583
0.000866124
0.000773029
0.000859406
0.000781229
0.000855261
0.000790003
0.000854423
0.000798871
0.000855223
0.000808351
0.000856189
0.00081866
0.000857069
0.000830103
0.000860513
0.000843434
0.000867417
0.00085945
0.000878845
0.000878709
0.000895214
0.000900241
0.000915092
0.000920302
0.000935244
0.000937767
0.000954785
0.000954295
0.000975541
0.000969316
0.000996598
0.000984524
0.00101731
0.00072274
0.000721166
0.00104295
0.000720569
0.00105069
0.000718387
0.0010589
0.000714642
0.00106757
0.000709367
0.00107668
0.00070261
0.0010862
0.000694429
0.0010961
0.000684891
0.00110634
0.000674076
0.00111688
0.000662068
0.00112769
0.000648961
0.00113871
0.000634853
0.00114989
0.000619846
0.00116118
0.000604045
0.00117254
0.000587554
0.00118392
0.00057048
0.00119526
0.000552926
0.00120653
0.000534993
0.00121767
0.000516779
0.00122864
0.000498377
0.00123941
0.000479877
0.00124992
0.00046136
0.00126016
0.000442903
0.00127009
0.000424577
0.00127968
0.000406446
0.00128891
0.000388566
0.00129775
0.000370989
0.00130619
0.000353759
0.00131421
0.000336914
0.0013218
0.000320487
0.00132895
0.000304504
0.00133564
0.000288987
0.00134188
0.000273951
0.00134766
0.000259409
0.00135298
0.000245369
0.00135783
0.000231834
0.00136222
0.000218804
0.00136614
0.000206278
0.0013696
0.00019425
0.00137261
0.000182711
0.00137516
0.000171654
0.00137726
0.000163043
0.00137891
0.000154968
0.00138011
0.000147344
0.00138086
0.000184367
0.00138118
0.000185874
0.00139098
0.000187202
0.00140113
0.000188349
0.00141156
0.00018931
0.00142222
0.000190083
0.00143305
0.000190664
0.00144399
0.00019105
0.00145497
0.000191239
0.00146594
0.00019123
0.00147684
0.000191022
0.00148759
0.000190614
0.00149814
0.000190006
0.00150843
0.000189201
0.00151839
0.000188201
0.00152797
0.000187008
0.00153709
0.000185628
0.00154571
0.000184066
0.00155377
0.00018233
0.0015612
0.000180428
0.00156795
0.000178369
0.00157398
0.000176166
0.00157923
0.000173832
0.00158366
0.00017138
0.00158723
0.000168826
0.00158989
0.00016619
0.00159163
0.000163489
0.00159239
0.000160745
0.00159218
0.000157979
0.00159096
0.000155616
0.00158874
0.000159866
0.00158549
0.000164119
0.00158124
0.000168348
0.00157599
0.000172525
0.00156975
0.000176621
0.00156256
0.000180604
0.00155445
0.000184445
0.00154547
0.000188112
0.00153566
0.000191573
0.00152509
0.000194798
0.00151382
0.000197755
0.00150194
0.000200413
0.00148953
0.000202778
0.00147669
0.000204983
0.00146374
0.000200246
0.00144463
0.000293421
0.00146356
0.000603734
0.00134007
0.000681225
0.00111869
0.000710586
0.00100508
0.000719159
0.00097347
0.000725089
0.000954906
0.000731209
0.000941021
0.000737955
0.000929383
0.000745011
0.000919805
0.000751982
0.000910954
0.000758936
0.000902426
0.000766011
0.000893425
0.000773076
0.000884414
0.000780435
0.000876844
0.000788621
0.00087186
0.000797422
0.000870179
0.000806391
0.000870083
0.000816046
0.000869987
0.000826579
0.000869753
0.000838348
0.000872234
0.000852156
0.000878145
0.000868787
0.000888581
0.000888741
0.000903899
0.000911234
0.000922612
0.000932336
0.000941661
0.000950819
0.000959925
0.000968704
0.000979446
0.000985349
0.000999056
0.00100233
0.00101829
0.000726371
0.00072778
0.00105414
0.00072759
0.00106479
0.000725803
0.00107588
0.000722434
0.0010874
0.000717514
0.00109932
0.000711084
0.00111162
0.000703198
0.00112428
0.000693921
0.00113725
0.000683329
0.00115049
0.000671505
0.00116395
0.00065854
0.00117759
0.000644532
0.00119135
0.000629582
0.00120519
0.000613796
0.00121905
0.000597278
0.00123287
0.000580136
0.00124661
0.000562476
0.00126021
0.0005444
0.00127363
0.000526008
0.00128683
0.000507397
0.00129974
0.000488657
0.00131235
0.000469874
0.00132461
0.000451127
0.00133649
0.00043249
0.00134796
0.000414028
0.00135899
0.000395803
0.00136957
0.000377866
0.00137966
0.000360266
0.00138927
0.000343041
0.00139836
0.000326228
0.00140695
0.000309853
0.001415
0.00029394
0.00142253
0.000278507
0.00142953
0.000263567
0.00143599
0.000249128
0.00144192
0.000235196
0.00144732
0.000221771
0.00145219
0.000208851
0.00145653
0.000196431
0.00146035
0.000184505
0.00146366
0.000173061
0.00146645
0.00016209
0.00146873
0.000154312
0.00147051
0.000147067
0.00147179
0.000192997
0.00147257
0.000194805
0.00148166
0.000196384
0.00149106
0.00019773
0.00150072
0.000198839
0.00151057
0.000199706
0.00152056
0.000200328
0.00153063
0.000200702
0.00154071
0.000200825
0.00155074
0.000200694
0.00156067
0.00020031
0.00157043
0.000199672
0.00157996
0.000198781
0.0015892
0.000197638
0.00159809
0.000196248
0.00160656
0.000194614
0.00161457
0.000192742
0.00162204
0.00019064
0.00162893
0.000188317
0.00163518
0.000185784
0.00164073
0.000183054
0.00164554
0.00018014
0.00164955
0.00017706
0.00165274
0.00017383
0.00165505
0.000170473
0.00165644
0.000167008
0.0016569
0.000163462
0.00165639
0.000159859
0.00165489
0.000156227
0.00165238
0.000158569
0.00164887
0.000163691
0.00164434
0.000168809
0.0016388
0.000173887
0.00163226
0.000178892
0.00162475
0.000183785
0.00161629
0.00018853
0.00160692
0.000193087
0.00159668
0.000197419
0.00158562
0.000201485
0.00157381
0.000205247
0.00156132
0.000208667
0.00154823
0.000211706
0.00153462
0.000214365
0.00152059
0.000216726
0.00150643
0.000210528
0.00148503
0.000304005
0.00150482
0.000617148
0.00137353
0.000691146
0.00114446
0.000720025
0.00103104
0.000728295
0.000998981
0.000734044
0.000979348
0.000740014
0.000964417
0.000746625
0.000951913
0.000753494
0.000941456
0.000760264
0.00093166
0.000767033
0.000922089
0.00077397
0.000912125
0.00078092
0.000902233
0.000788243
0.000893802
0.000796453
0.00088803
0.000805292
0.000885603
0.00081434
0.000884669
0.000824133
0.000883581
0.000834897
0.000882373
0.000847012
0.000883865
0.000861329
0.000888764
0.00087862
0.000898188
0.000899349
0.000912447
0.000922854
0.000930004
0.000945009
0.000947959
0.000964592
0.000965043
0.000983943
0.000983356
0.00100231
0.00100154
0.00102087
0.00101919
0.00073512
0.000736911
0.00106696
0.000737099
0.00108046
0.00073568
0.00109436
0.000732663
0.00110867
0.000728072
0.00112335
0.000721944
0.00113838
0.000714328
0.00115374
0.000705284
0.00116938
0.000694886
0.00118526
0.000683214
0.00120134
0.000670358
0.00121755
0.000656413
0.00123385
0.000641481
0.00125018
0.000625667
0.00126649
0.000609077
0.00128271
0.00059182
0.0012988
0.000574003
0.0013147
0.000555731
0.00133036
0.000537106
0.00134573
0.000518228
0.00136076
0.000499189
0.00137542
0.000480079
0.00138966
0.00046098
0.00140345
0.000441968
0.00141677
0.000423113
0.00142957
0.000404477
0.00144184
0.000386117
0.00145357
0.000368081
0.00146472
0.000350413
0.0014753
0.000333149
0.00148529
0.00031632
0.00149469
0.00029995
0.00150348
0.000284058
0.00151167
0.000268659
0.00151926
0.000253763
0.00152625
0.000239376
0.00153264
0.000225499
0.00153843
0.00021213
0.00154364
0.000199266
0.00154826
0.000186898
0.0015523
0.000175018
0.00155577
0.000163613
0.00155867
0.000153212
0.00156102
0.000146393
0.00156281
0.000201055
0.00156405
0.000203136
0.00157243
0.000204937
0.00158108
0.000206455
0.00158996
0.000207683
0.00159899
0.000208617
0.00160814
0.000209253
0.00161732
0.000209588
0.0016265
0.000209617
0.00163559
0.00020934
0.00164455
0.000208756
0.00165331
0.000207863
0.00166181
0.000206665
0.00167
0.000205163
0.00167781
0.000203361
0.00168518
0.000201266
0.00169206
0.000198884
0.00169838
0.000196225
0.0017041
0.0001933
0.00170915
0.000190122
0.0017135
0.000186707
0.00171709
0.000183071
0.00171987
0.000179235
0.0017218
0.000175221
0.00172285
0.000171052
0.00172298
0.000166756
0.00172215
0.000162361
0.00172036
0.000157898
0.00171757
0.000156697
0.00171377
0.000162667
0.00170896
0.000168662
0.00170314
0.000174643
0.00169631
0.00018057
0.00168849
0.000186399
0.00167969
0.000192087
0.00166996
0.000197588
0.00165932
0.000202858
0.00164782
0.000207848
0.00163551
0.000212513
0.00162246
0.000216806
0.00160874
0.00022068
0.00159443
0.000224092
0.00157961
0.000227037
0.00156439
0.000229421
0.00154916
0.000221996
0.00152538
0.00031653
0.00154601
0.000630974
0.00141086
0.000701457
0.00116778
0.000729941
0.00105644
0.000738045
0.00102402
0.00074369
0.00100358
0.000749471
0.0009878
0.000755883
0.000974554
0.000762529
0.000963283
0.000769056
0.0009526
0.000775616
0.000941956
0.000782393
0.00093094
0.000789222
0.000920052
0.000796504
0.000910688
0.000804717
0.000904081
0.000813522
0.000900828
0.000822582
0.000898926
0.000832533
0.000896806
0.000843586
0.000894618
0.000856099
0.000895206
0.000870957
0.000899168
0.00088894
0.000907633
0.000910464
0.000920883
0.000934962
0.000937304
0.00095817
0.000954138
0.000978869
0.00097003
0.00099976
0.000987101
0.00101997
0.00100384
0.00104005
0.0010199
0.000746369
0.000748512
0.0010814
0.000749051
0.00109768
0.000747974
0.00111434
0.000745285
0.00113137
0.000740999
0.00114875
0.000735149
0.00116646
0.000727778
0.00118446
0.000718942
0.00120272
0.00070871
0.00122119
0.00069716
0.00123981
0.000684379
0.00125855
0.000670462
0.00127733
0.000655509
0.0012961
0.000639626
0.00131481
0.00062292
0.00133338
0.0006055
0.00135177
0.000587476
0.00136992
0.000568956
0.00138777
0.000550043
0.00140527
0.000530841
0.00142238
0.000511445
0.00143904
0.000491948
0.00145522
0.000472436
0.00147089
0.000452987
0.001486
0.000433675
0.00150054
0.000414566
0.00151448
0.000395718
0.00152779
0.000377184
0.00154047
0.00035901
0.0015525
0.000341233
0.00156386
0.000323887
0.00157456
0.000306998
0.0015846
0.000290587
0.00159396
0.000274671
0.00160265
0.000259259
0.00161067
0.00024436
0.00161803
0.000229975
0.00162473
0.000216103
0.00163078
0.000202741
0.00163618
0.000189881
0.00164095
0.000177514
0.00164508
0.000165628
0.0016486
0.00015421
0.00165149
0.00014533
0.00165378
0.000208532
0.00165547
0.000210856
0.00166313
0.000212852
0.00167103
0.000214513
0.00167912
0.000215833
0.00168734
0.000216806
0.00169563
0.000217429
0.00170394
0.000217697
0.0017122
0.000217608
0.00172035
0.000217158
0.00172833
0.000216348
0.00173609
0.000215178
0.00174357
0.00021365
0.0017507
0.000211766
0.00175742
0.000209533
0.00176369
0.000206957
0.00176943
0.000204047
0.00177461
0.000200813
0.00177915
0.000197271
0.00178302
0.000193434
0.00178615
0.000189321
0.00178852
0.000184953
0.00179006
0.000180352
0.00179074
0.000175546
0.00179052
0.000170561
0.00178938
0.000165429
0.00178728
0.000160184
0.0017842
0.000154861
0.00178012
0.000161065
0.00177503
0.000167914
0.00176892
0.000174784
0.00176181
0.000181629
0.00175369
0.000188402
0.00174458
0.000195055
0.0017345
0.000201534
0.00172348
0.000207789
0.00171157
0.000213766
0.00169881
0.00021941
0.00168525
0.000224667
0.00167096
0.000229484
0.00165601
0.000233806
0.00164047
0.000237582
0.00162444
0.000240801
0.00160802
0.000243122
0.00159181
0.000234909
0.00156545
0.00033187
0.00158719
0.000645812
0.00144854
0.000712325
0.00119016
0.000740347
0.00108121
0.000748255
0.00104843
0.000753738
0.00102714
0.000759359
0.00101047
0.000765589
0.00099647
0.000772023
0.000984462
0.000778339
0.000973009
0.000784707
0.000961455
0.000791299
0.000949558
0.000797967
0.000937833
0.000805184
0.000927592
0.000813393
0.00092015
0.000822147
0.000916004
0.000831198
0.000913082
0.000841294
0.000909929
0.000852623
0.000906758
0.000865526
0.000906438
0.00088095
0.000909459
0.000899662
0.000916974
0.000922004
0.00092919
0.000947496
0.000944487
0.000971737
0.000960219
0.000993612
0.000974934
0.00101608
0.000990728
0.00103824
0.00100601
0.00105961
0.00102036
0.000760067
0.000762533
0.00109748
0.000763397
0.00111648
0.000762639
0.00113582
0.000760254
0.00115551
0.000756252
0.00117552
0.000750656
0.00119583
0.000743506
0.00121641
0.000734852
0.00123722
0.000724759
0.00125822
0.000713301
0.00127934
0.000700564
0.00130053
0.000686639
0.00132174
0.000671628
0.0013429
0.000655635
0.00136395
0.00063877
0.00138482
0.000621141
0.00140546
0.000602862
0.0014258
0.000584041
0.00144579
0.000564787
0.00146537
0.000545205
0.0014845
0.000525395
0.00150312
0.000505452
0.0015212
0.000485466
0.00153869
0.00046552
0.00155557
0.000445689
0.0015718
0.000426044
0.00158736
0.000406647
0.00160223
0.000387552
0.00161639
0.000368808
0.00162983
0.000350457
0.00164254
0.000332533
0.00165452
0.000315065
0.00166576
0.000298076
0.00167626
0.000281584
0.00168602
0.0002656
0.00169506
0.000250133
0.00170336
0.000235186
0.00171095
0.000220758
0.00171782
0.000206846
0.00172398
0.000193443
0.00172946
0.00018054
0.00173424
0.000168125
0.00173835
0.000156184
0.00174179
0.000144701
0.00174457
0.000215419
0.00174669
0.00021796
0.00175363
0.000220121
0.00176077
0.000221896
0.00176808
0.000223279
0.00177547
0.000224265
0.00178291
0.000224847
0.00179033
0.000225022
0.00179767
0.000224788
0.00180488
0.000224141
0.00181189
0.000223081
0.00181864
0.00022161
0.00182509
0.000219728
0.00183116
0.000217442
0.0018368
0.000214757
0.00184196
0.00021168
0.00184657
0.000208224
0.00185059
0.0002044
0.00185397
0.000200224
0.00185664
0.000195715
0.00185857
0.000190893
0.00185971
0.000185782
0.00186001
0.000180409
0.00185944
0.000174803
0.00185796
0.000168997
0.00185555
0.000163026
0.00185217
0.000156929
0.0018478
0.00015892
0.00184243
0.000166584
0.00183605
0.000174314
0.00182865
0.00018206
0.00182024
0.00018977
0.00181083
0.00019739
0.00180043
0.000204864
0.00178907
0.000212134
0.00177678
0.000219138
0.0017636
0.000225818
0.00174957
0.000232111
0.00173476
0.000237955
0.00171922
0.00024329
0.00170303
0.000248053
0.00168627
0.000252186
0.00166903
0.00025564
0.00165141
0.00025775
0.00163403
0.000249059
0.00160511
0.000349432
0.00162797
0.000661648
0.00148253
0.000724001
0.00121441
0.000751418
0.00110562
0.000759093
0.00107252
0.000764397
0.00105029
0.000769783
0.00103268
0.000775779
0.00101781
0.000781964
0.00100497
0.000788032
0.000992668
0.000794192
0.000980163
0.000800611
0.000967353
0.000807148
0.000954864
0.0008143
0.000943848
0.000822435
0.00093562
0.000831097
0.000930617
0.000840155
0.000926781
0.000850378
0.000922701
0.000861991
0.000918666
0.000875289
0.000917452
0.000891282
0.000919572
0.000910723
0.000926097
0.000933889
0.000937224
0.000960395
0.00095139
0.000985654
0.000966029
0.00100875
0.000979638
0.00103277
0.000993961
0.00105695
0.00100789
0.00107938
0.00102068
0.000776156
0.000778919
0.00111522
0.000780084
0.00113685
0.000779622
0.0011588
0.00077752
0.00118107
0.000773779
0.00120364
0.000768417
0.00122649
0.000761465
0.00124958
0.000752969
0.00127288
0.000742988
0.00129633
0.000731594
0.00131988
0.000718869
0.00134347
0.000704903
0.00136704
0.000689797
0.00139052
0.000673655
0.00141385
0.000656587
0.00143696
0.000638704
0.00145978
0.000620121
0.00148226
0.00060095
0.00150434
0.000581302
0.00152595
0.000561286
0.00154704
0.000541005
0.00156757
0.000520558
0.0015875
0.000500039
0.00160677
0.000479535
0.00162536
0.000459125
0.00164324
0.000438883
0.00166038
0.000418875
0.00167676
0.000399158
0.00169236
0.000379784
0.00170718
0.000360798
0.0017212
0.000342237
0.00173442
0.000324131
0.00174683
0.000306506
0.00175844
0.000289381
0.00176925
0.000272769
0.00177927
0.000256679
0.00178849
0.000241116
0.00179694
0.00022608
0.00180461
0.000211568
0.00181152
0.000197572
0.00181768
0.000184085
0.0018231
0.000171093
0.00182779
0.000158583
0.00183175
0.000146539
0.00183501
0.000221712
0.00183756
0.000224439
0.00184377
0.000226737
0.00185016
0.000228598
0.00185667
0.000230017
0.00186325
0.000230986
0.00186983
0.000231501
0.00187636
0.000231557
0.00188279
0.000231151
0.00188904
0.000230282
0.00189508
0.000228948
0.00190083
0.000227152
0.00190624
0.000224895
0.00191125
0.000222185
0.00191581
0.000219027
0.00191986
0.000215432
0.00192335
0.000211412
0.00192622
0.000206981
0.00192842
0.000202158
0.00192991
0.000196964
0.00193063
0.000191421
0.00193055
0.000185558
0.00192961
0.000179404
0.00192779
0.000172993
0.00192506
0.00016636
0.00192137
0.000159548
0.00191671
0.000156274
0.00191106
0.000164706
0.00190441
0.000173256
0.00189674
0.00018187
0.00188805
0.000190495
0.00187835
0.000199071
0.00186765
0.000207538
0.00185596
0.000215833
0.00184332
0.00022389
0.00182975
0.000231642
0.0018153
0.000239022
0.00180001
0.000245959
0.00178395
0.000252385
0.00176717
0.000258231
0.00174975
0.000263428
0.00173176
0.000267911
0.00171331
0.000271582
0.00169449
0.000273676
0.00167595
0.000264587
0.00164475
0.000368974
0.00166849
0.000678651
0.00151423
0.000736414
0.00123956
0.000763296
0.00113013
0.000770695
0.00109685
0.000775766
0.00107373
0.000780911
0.00105512
0.000786636
0.00103927
0.000792535
0.00102553
0.000798317
0.00101233
0.00080423
0.000998833
0.000810432
0.000985096
0.000816792
0.000971769
0.000823778
0.000959935
0.000831774
0.000950852
0.000840342
0.000944929
0.000849401
0.000940126
0.000859757
0.000935125
0.000871675
0.000930245
0.000885384
0.000928129
0.000901937
0.000929332
0.00092212
0.000934825
0.000946125
0.000944836
0.000973599
0.000957864
0.000999858
0.000971458
0.00102422
0.000984053
0.00104974
0.00099688
0.00107576
0.0010093
0.0010992
0.00102086
0.000794575
0.00079761
0.00113463
0.000799053
0.00115881
0.000798867
0.00118329
0.000797028
0.00120806
0.000793529
0.00123311
0.00078838
0.00125842
0.000781604
0.00128395
0.000773242
0.00130966
0.000763349
0.00133549
0.000751991
0.0013614
0.000739247
0.00138731
0.000725207
0.00141317
0.00070997
0.00143891
0.00069364
0.00146445
0.000676328
0.00148974
0.000658147
0.00151469
0.000639213
0.00153924
0.000619642
0.00156334
0.000599549
0.00158692
0.000579045
0.00160993
0.000558237
0.00163231
0.00053723
0.00165402
0.00051612
0.00167502
0.000494999
0.00169528
0.000473951
0.00171475
0.000453052
0.00173342
0.000432373
0.00175127
0.000411974
0.00176828
0.000391911
0.00178443
0.000372231
0.00179972
0.000352974
0.00181414
0.000334173
0.00182769
0.000315855
0.00184038
0.000298041
0.00185221
0.000280746
0.00186317
0.00026398
0.00187329
0.000247749
0.00188257
0.000232054
0.00189102
0.000216891
0.00189865
0.000202255
0.00190548
0.000188136
0.00191151
0.000174523
0.00191676
0.0001614
0.00192124
0.000148751
0.00192495
0.000227403
0.00192792
0.000230288
0.00193341
0.000232694
0.00193904
0.000234614
0.00194476
0.000236039
0.00195051
0.000236965
0.00195624
0.000237386
0.00196188
0.000237296
0.00196739
0.000236694
0.0019727
0.000235576
0.00197776
0.000233945
0.00198251
0.000231801
0.00198689
0.000229147
0.00199085
0.000225992
0.00199433
0.000222342
0.00199727
0.00021821
0.00199963
0.000213609
0.00200136
0.000208557
0.00200239
0.000203072
0.00200269
0.00019718
0.00200221
0.000190906
0.00200091
0.000184281
0.00199874
0.000177339
0.00199568
0.000170116
0.00199169
0.000162654
0.00198674
0.000154997
0.00198081
0.000162323
0.00197388
0.000171641
0.00196594
0.00018108
0.00195699
0.000190583
0.00194701
0.000200089
0.00193603
0.000209533
0.00192404
0.000218848
0.00191107
0.000227963
0.00189715
0.000236807
0.00188231
0.000245305
0.0018666
0.000253381
0.00185005
0.000260958
0.00183274
0.000267961
0.00181472
0.000274312
0.00179607
0.000279938
0.00177686
0.000284762
0.0017572
0.000288657
0.0017372
0.00029077
0.00171751
0.00028148
0.0016842
0.000390615
0.00170872
0.000695692
0.00154544
0.000749553
0.00126506
0.000775796
0.00115465
0.000782975
0.00112112
0.000787779
0.00109722
0.000792637
0.00107772
0.000798076
0.00106094
0.000803674
0.00104636
0.000809148
0.00103227
0.00081478
0.00101778
0.000820721
0.00100306
0.000826872
0.00098881
0.000833671
0.000976073
0.000841506
0.000966041
0.000849966
0.000959093
0.000859008
0.000953246
0.000869495
0.000947321
0.000881705
0.000941606
0.000895816
0.000938592
0.000912912
0.000938843
0.000933846
0.000943281
0.000958669
0.000952178
0.000987002
0.000964103
0.00101417
0.000976723
0.00103989
0.0009882
0.00106683
0.000999698
0.00109445
0.00101071
0.00111889
0.00102105
0.000815258
0.000818541
0.00115573
0.000820243
0.00118238
0.000820312
0.00120929
0.000818718
0.00123648
0.000815442
0.00126393
0.000810486
0.00129161
0.000803867
0.00131949
0.000795618
0.00134753
0.000785787
0.00137568
0.000774438
0.00140386
0.000761647
0.00143203
0.000747501
0.00146011
0.000732098
0.00148803
0.000715542
0.00151571
0.000697945
0.0015431
0.000679423
0.0015701
0.000660093
0.00159667
0.000640074
0.00162272
0.000619484
0.00164821
0.00059844
0.00167306
0.000577052
0.00169724
0.000555429
0.00172068
0.000533672
0.00174335
0.000511877
0.00176521
0.000490132
0.00178623
0.000468518
0.00180639