/*--------------------------------*- C++ -*----------------------------------*\
| =========                 |                                                 |
| \\      /  F ield         | OpenFOAM: The Open Source CFD Toolbox           |
|  \\    /   O peration     | Version:  2.2.x                                 |
|   \\  /    A nd           | Web:      www.OpenFOAM.org                      |
|    \\/     M anipulation  |                                                 |
\*---------------------------------------------------------------------------*/
FoamFile
{
    version     2.0;
    format      ascii;
    class       volScalarField;
    location    "0.05";
    object      T;
}
// * * * * * * * * * * * * * * * * * * * * * * * * * * * * * * * * * * * * * //

dimensions      [0 0 0 1 0 0 0];

internalField   nonuniform List<scalar> 
14161
(
1
1
1
1
1
1
1
1
1
1
1
1
1
1
1
1
1
1
1
1
1
1
1
1
1
1
1
1
1
1
1
1
1
1
1
1
1
1
1
1
1
1
1
1
1
1
1
1
1
1
1
1
1
1
1
1
1
1
1
1
1
1
1
1
1
1
1
1
1
1
1
1
1
1
1
1
1
1
1
1
1
1
1
1
1
1
1
1.00033
1.00317
0.93168
2.32849
11.0108
14.0772
15.1966
15.3911
15.4485
15.505
15.5784
15.6673
15.7505
15.824
15.893
15.9529
16.0077
16.0792
16.1727
16.2611
16.3537
16.4618
16.5978
16.7895
17.072
17.4705
17.9392
18.334
18.6058
18.7942
18.9018
18.9436
1
1
1
1
1
1
1
1
1
1
1
1
1
1
1
1
1
1
1
1
1
1
1
1
1
1
1
1
1
1
1
1
1
1
1
1
1
1
1
1
1
1
1
1
1
1
1
1
1
1
1
1
1
1
1
1
1
1
1
1
1
1
1
1
1
1
1
1
1
1
1
1
1
1
1
1
1
1
1
1
1
1
1
1
1
1
1
1.00033
1.00304
0.928617
2.32231
11.0258
14.0822
15.1989
15.3935
15.4499
15.5063
15.5796
15.6684
15.7514
15.8241
15.8918
15.9502
16.0046
16.0763
16.1701
16.2581
16.35
16.4585
16.5943
16.7864
17.0675
17.4648
17.9335
18.3296
18.602
18.7905
18.898
18.9399
1
1
1
1
1
1
1
1
1
1
1
1
1
1
1
1
1
1
1
1
1
1
1
1
1
1
1
1
1
1
1
1
1
1
1
1
1
1
1
1
1
1
1
1
1
1
1
1
1
1
1
1
1
1
1
1
1
1
1
1
1
1
1
1
1
1
1
1
1
1
1
1
1
1
1
1
1
1
1
1
1
1
1
1
1
1
1
1.00039
1.00334
0.922084
2.31098
11.0622
14.0935
15.2003
15.3935
15.4483
15.5043
15.5796
15.6691
15.7519
15.8246
15.8917
15.9489
16.0028
16.0746
16.1678
16.2549
16.3463
16.4534
16.5882
16.779
17.0599
17.4564
17.9254
18.3224
18.5949
18.7832
18.8903
18.9335
1
1
1
1
1
1
1
1
1
1
1
1
1
1
1
1
1
1
1
1
1
1
1
1
1
1
1
1
1
1
1
1
1
1
1
1
1
1
1
1
1
1
1
1
1
1
1
1
1
1
1
1
1
1
1
1
1
1
1
1
1
1
1
1
1
1
1
1
1
1
1
1
1
1
1
1
1
1
1
1
1
1
1
1
1
1
1.00001
1.00051
1.00365
0.905873
2.28067
11.1294
14.1138
15.2038
15.3949
15.4478
15.5029
15.5795
15.6682
15.7492
15.8213
15.8889
15.9463
16.0002
16.0727
16.1662
16.253
16.3441
16.4494
16.5827
16.7716
17.0505
17.4451
17.9137
18.3118
18.5857
18.7739
18.8803
18.9246
1
1
1
1
1
1
1
1
1
1
1
1
1
1
1
1
1
1
1
1
1
1
1
1
1
1
1
1
1
1
1
1
1
1
1
1
1
1
1
1
1
1
1
1
1
1
1
1
1
1
1
1
1
1
1
1
1
1
1
1
1
1
1
1
1
1
1
1
1
1
1
1
1
1
1
1
1
1
1
1
1
1
1
1
1
1
1.00001
1.00063
1.00339
0.887995
2.2456
11.2051
14.1364
15.2071
15.3967
15.4483
15.5031
15.5801
15.6678
15.7473
15.8183
15.8855
15.9422
15.9961
16.0693
16.1634
16.25
16.3405
16.4445
16.577
16.7645
17.0413
17.4326
17.9006
18.3001
18.5744
18.7619
18.8673
18.9127
1
1
1
1
1
1
1
1
1
1
1
1
1
1
1
1
1
1
1
1
1
1
1
1
1
1
1
1
1
1
1
1
1
1
1
1
1
1
1
1
1
1
1
1
1
1
1
1
1
1
1
1
1
1
1
1
1
1
1
1
1
1
1
1
1
1
1
1
1
1
1
1
1
1
1
1
1
1
1
1
1
1
1
1
1
1
1.00001
1.00062
1.00071
0.871367
2.22857
11.2827
14.1509
15.2034
15.394
15.4456
15.501
15.5799
15.6682
15.7466
15.8166
15.8833
15.9387
15.9924
16.0663
16.16
16.2455
16.3352
16.4387
16.5705
16.7575
17.0331
17.4225
17.8891
18.2882
18.5631
18.7492
18.8526
18.8975
1
1
1
1
1
1
1
1
1
1
1
1
1
1
1
1
1
1
1
1
1
1
1
1
1
1
1
1
1
1
1
1
1
1
1
1
1
1
1
1
1
1
1
1
1
1
1
1
1
1
1
1
1
1
1
1
1
1
1
1
1
1
1
1
1
1
1
1
1
1
1
1
1
1
1
1
1
1
1
1
1
1
1
1
1
1
1.00001
1.00041
0.996441
0.860194
2.24912
11.3682
14.1681
15.1996
15.3903
15.4415
15.4964
15.5762
15.6646
15.7423
15.8123
15.8797
15.9345
15.9887
16.0636
16.1565
16.2402
16.3297
16.4325
16.5641
16.7508
17.0257
17.4137
17.8785
18.2761
18.5508
18.7351
18.8356
18.8791
1
1
1
1
1
1
1
1
1
1
1
1
1
1
1
1
1
1
1
1
1
1
1
1
1
1
1
1
1
1
1
1
1
1
1
1
1
1
1
1
1
1
1
1
1
1
1
1
1
1
1
1
1
1
1
1
1
1
1
1
1
1
1
1
1
1
1
1
1
1
1
1
1
1
1
1
1
1
1
1
1
1
1
1
1
1
1.00002
0.99982
0.991148
0.851534
2.28577
11.4621
14.1882
15.1958
15.3866
15.4375
15.4917
15.5715
15.6597
15.7365
15.806
15.8731
15.9277
15.9826
16.0586
16.1507
16.2338
16.3234
16.4261
16.5581
16.745
17.0193
17.4061
17.8683
18.2636
18.5379
18.7197
18.8168
18.8579
1
1
1
1
1
1
1
1
1
1
1
1
1
1
1
1
1
1
1
1
1
1
1
1
1
1
1
1
1
1
1
1
1
1
1
1
1
1
1
1
1
1
1
1
1
1
1
1
1
1
1
1
1
1
1
1
1
1
1
1
1
1
1
1
1
1
1
1
1
1
1
1
1
1
1
1
1
1
1
1
1
1
1
1
1
1
1
0.999363
0.987986
0.845255
2.35428
11.5422
14.2165
15.1912
15.3836
15.4355
15.4894
15.5687
15.6562
15.7318
15.8008
15.8673
15.9212
15.9763
16.0521
16.1429
16.2259
16.3158
16.4193
16.5525
16.7402
17.014
17.3995
17.8587
18.2509
18.5241
18.7025
18.7964
18.8347
1
1
1
1
1
1
1
1
1
1
1
1
1
1
1
1
1
1
1
1
1
1
1
1
1
1
1
1
1
1
1
1
1
1
1
1
1
1
1
1
1
1
1
1
1
1
1
1
1
1
1
1
1
1
1
1
1
1
1
1
1
1
1
1
1
1
1
1
1
1
1
1
1
1
1
1
1
1
1
1
1
1
1
1
1
1
0.999982
0.99898
0.985798
0.840668
2.43455
11.6102
14.246
15.1829
15.3768
15.4296
15.4836
15.5627
15.6502
15.7253
15.7943
15.8608
15.9144
15.9698
16.0451
16.1346
16.2172
16.3078
16.4129
16.5477
16.7362
17.0097
17.3939
17.8491
18.238
18.5092
18.6841
18.7745
18.8095
1
1
1
1
1
1
1
1
1
1
1
1
1
1
1
1
1
1
1
1
1
1
1
1
1
1
1
1
1
1
1
1
1
1
1
1
1
1
1
1
1
1
1
1
1
1
1
1
1
1
1
1
1
1
1
1
1
1
1
1
1
1
1
1
1
1
1
1
1
1
1
1
1
1
1
1
1
1
1
1
1
1
1
1
1
1
0.999964
0.998673
0.983941
0.837595
2.52444
11.664
14.2735
15.171
15.3662
15.4199
15.474
15.5527
15.6405
15.7159
15.7858
15.8527
15.9067
15.9627
16.0377
16.1257
16.208
16.2997
16.4068
16.5434
16.7328
17.0059
17.3887
17.8393
18.2246
18.4923
18.6634
18.7512
18.7826
1
1
1
1
1
1
1
1
1
1
1
1
1
1
1
1
1
1
1
1
1
1
1
1
1
1
1
1
1
1
1
1
1
1
1
1
1
1
1
1
1
1
1
1
1
1
1
1
1
1
1
1
1
1
1
1
1
1
1
1
1
1
1
1
1
1
1
1
1
1
1
1
1
1
1
1
1
1
1
1
1
1
1
1
1
1
0.999952
0.998464
0.982721
0.835328
2.61717
11.7123
14.3019
15.1587
15.3538
15.4091
15.4636
15.5418
15.6295
15.7048
15.7755
15.8422
15.8959
15.9526
16.0274
16.1147
16.1972
16.29
16.399
16.5382
16.7289
17.0017
17.3838
17.8297
18.2105
18.4736
18.6404
18.7259
18.7537
1
1
1
1
1
1
1
1
1
1
1
1
1
1
1
1
1
1
1
1
1
1
1
1
1
1
1
1
1
1
1
1
1
1
1
1
1
1
1
1
1
1
1
1
1
1
1
1
1
1
1
1
1
1
1
1
1
1
1
1
1
1
1
1
1
1
1
1
1
1
1
1
1
1
1
1
1
1
1
1
1
1
1
1
1
0.999999
0.999937
0.99824
0.981424
0.832769
2.70663
11.7522
14.3293
15.1479
15.3417
15.3984
15.4532
15.5306
15.6178
15.693
15.764
15.83
15.8834
15.9407
16.0156
16.1024
16.1854
16.279
16.3899
16.5315
16.7239
16.9968
17.3789
17.8206
18.1949
18.4526
18.6152
18.6981
18.7225
1
1
1
1
1
1
1
1
1
1
1
1
1
1
1
1
1
1
1
1
1
1
1
1
1
1
1
1
1
1
1
1
1
1
1
1
1
1
1
1
1
1
1
1
1
1
1
1
1
1
1
1
1
1
1
1
1
1
1
1
1
1
1
1
1
1
1
1
1
1
1
1
1
1
1
1
1
1
1
1
1
1
1
1
1
0.999999
0.999927
0.998073
0.980418
0.830889
2.78135
11.7801
14.35
15.1352
15.3281
15.3867
15.4428
15.5201
15.6066
15.6811
15.752
15.8169
15.8703
15.9284
16.0035
16.0898
16.1729
16.2671
16.3791
16.5231
16.7173
16.9911
17.3741
17.8114
18.1778
18.4285
18.5869
18.668
18.6896
1
1
1
1
1
1
1
1
1
1
1
1
1
1
1
1
1
1
1
1
1
1
1
1
1
1
1
1
1
1
1
1
1
1
1
1
1
1
1
1
1
1
1
1
1
1
1
1
1
1
1
1
1
1
1
1
1
1
1
1
1
1
1
1
1
1
1
1
1
1
1
1
1
1
1
1
1
1
1
1
1
1
1
1
1
0.999999
0.999919
0.997957
0.979716
0.829339
2.83421
11.7957
14.3643
15.1204
15.3114
15.3716
15.4292
15.5065
15.5919
15.6662
15.7377
15.8019
15.8558
15.9151
15.9912
16.0767
16.16
16.2544
16.3666
16.5126
16.7091
16.985
17.3695
17.8018
18.1584
18.4011
18.5557
18.636
18.6545
1
1
1
1
1
1
1
1
1
1
1
1
1
1
1
1
1
1
1
1
1
1
1
1
1
1
1
1
1
1
1
1
1
1
1
1
1
1
1
1
1
1
1
1
1
1
1
1
1
1
1
1
1
1
1
1
1
1
1
1
1
1
1
1
1
1
1
1
1
1
1
1
1
1
1
1
1
1
1
1
1
1
1
1
1
0.999999
0.999916
0.997912
0.979395
0.827827
2.86896
11.7996
14.3718
15.1042
15.292
15.3541
15.4138
15.4914
15.5749
15.6485
15.7202
15.7834
15.8381
15.8994
15.9774
16.062
16.1456
16.2404
16.3527
16.5003
16.6999
16.9781
17.3647
17.7912
18.1363
18.371
18.5216
18.6016
18.6173
1
1
1
1
1
1
1
1
1
1
1
1
1
1
1
1
1
1
1
1
1
1
1
1
1
1
1
1
1
1
1
1
1
1
1
1
1
1
1
1
1
1
1
1
1
1
1
1
1
1
1
1
1
1
1
1
1
1
1
1
1
1
1
1
1
1
1
1
1
1
1
1
1
1
1
1
1
1
1
1
1
1
1
1
1
0.999999
0.999917
0.99792
0.979378
0.826228
2.87961
11.7876
14.367
15.0834
15.2697
15.3349
15.3972
15.4753
15.5565
15.6295
15.701
15.7623
15.8182
15.8818
15.9618
16.0452
16.1296
16.2245
16.3374
16.4869
16.6899
16.9708
17.3586
17.779
18.1116
18.3384
18.4847
18.5644
18.5777
1
1
1
1
1
1
1
1
1
1
1
1
1
1
1
1
1
1
1
1
1
1
1
1
1
1
1
1
1
1
1
1
1
1
1
1
1
1
1
1
1
1
1
1
1
1
1
1
1
1
1
1
1
1
1
1
1
1
1
1
1
1
1
1
1
1
1
1
1
1
1
1
1
1
1
1
1
1
1
1
1
1
1
1
1
0.999999
0.999923
0.998003
0.979895
0.825769
2.84335
11.7567
14.3507
15.0594
15.245
15.314
15.3799
15.4584
15.5367
15.6094
15.6806
15.7398
15.7971
15.8634
15.9447
16.0268
16.112
16.2069
16.321
16.4725
16.6787
16.9625
17.3506
17.7639
18.0842
18.3029
18.445
18.5245
18.5355
1
1
1
1
1
1
1
1
1
1
1
1
1
1
1
1
1
1
1
1
1
1
1
1
1
1
1
1
1
1
1
1
1
1
1
1
1
1
1
1
1
1
1
1
1
1
1
1
1
1
1
1
1
1
1
1
1
1
1
1
1
1
1
1
1
1
1
1
1
1
1
1
1
1
1
1
1
1
1
1
1
1
1
1
1
0.999999
0.999933
0.998146
0.980764
0.826331
2.7693
11.7034
14.3181
15.0327
15.2177
15.2903
15.3607
15.4396
15.5154
15.5888
15.6587
15.7157
15.7744
15.844
15.9264
16.007
16.0924
16.187
16.3032
16.4571
16.6656
16.9532
17.3415
17.7459
18.0543
18.2647
18.4028
18.4818
18.4898
1
1
1
1
1
1
1
1
1
1
1
1
1
1
1
1
1
1
1
1
1
1
1
1
1
1
1
1
1
1
1
1
1
1
1
1
1
1
1
1
1
1
1
1
1
1
1
1
1
1
1
1
1
1
1
1
1
1
1
1
1
1
1
1
1
1
1
1
1
1
1
1
1
1
1
1
1
1
1
1
1
1
1
1
1
1
0.999949
0.9984
0.982281
0.82771
2.66723
11.6326
14.2739
15.0027
15.1884
15.2643
15.3389
15.418
15.492
15.5662
15.6337
15.689
15.7501
15.8235
15.9061
15.9855
16.0711
16.1652
16.2831
16.4405
16.6519
16.9422
17.3318
17.7264
18.0224
18.2239
18.3576
18.4361
18.4402
1
1
1
1
1
1
1
1
1
1
1
1
1
1
1
1
1
1
1
1
1
1
1
1
1
1
1
1
1
1
1
1
1
1
1
1
1
1
1
1
1
1
1
1
1
1
1
1
1
1
1
1
1
1
1
1
1
1
1
1
1
1
1
1
1
1
1
1
1
1
1
1
1
1
1
1
1
1
1
1
1
1
1
1
1
1
0.999975
0.998805
0.984668
0.829759
2.5443
11.5417
14.2155
14.9682
15.1559
15.2358
15.3144
15.3927
15.4663
15.54
15.6041
15.6593
15.7232
15.8007
15.8824
15.9614
16.047
16.1405
16.26
16.4216
16.6369
16.9306
17.3216
17.7047
17.9883
18.1807
18.3093
18.3868
18.3869
1
1
1
1
1
1
1
1
1
1
1
1
1
1
1
1
1
1
1
1
1
1
1
1
1
1
1
1
1
1
1
1
1
1
1
1
1
1
1
1
1
1
1
1
1
1
1
1
1
1
1
1
1
1
1
1
1
1
1
1
1
1
1
1
1
1
1
1
1
1
1
1
1
1
1
1
1
1
1
1
1
1
1
1
1
1
1
0.99937
0.988094
0.834755
2.39715
11.4303
14.1415
14.9288
15.1208
15.2056
15.2873
15.3641
15.4384
15.5119
15.5707
15.6272
15.6945
15.7758
15.8561
15.9352
16.0197
16.1135
16.2351
16.4
16.6208
16.9194
17.3089
17.6791
17.9514
18.1344
18.2579
18.3346
18.3305
1
1
1
1
1
1
1
1
1
1
1
1
1
1
1
1
1
1
1
1
1
1
1
1
1
1
1
1
1
1
1
1
1
1
1
1
1
1
1
1
1
1
1
1
1
1
1
1
1
1
1
1
1
1
1
1
1
1
1
1
1
1
1
1
1
1
1
1
1
1
1
1
1
1
1
1
1
1
1
1
1
1
1
1
1
1
1.00001
0.99993
0.992753
0.846252
2.23418
11.2857
14.0539
14.8863
15.0817
15.1721
15.2567
15.3336
15.4097
15.4813
15.5346
15.5936
15.6646
15.7489
15.8287
15.907
15.9893
16.0846
16.2091
16.3763
16.6021
16.9063
17.2916
17.6494
17.9115
18.0848
18.2035
18.2799
18.2703
1
1
1
1
1
1
1
1
1
1
1
1
1
1
1
1
1
1
1
1
1
1
1
1
1
1
1
1
1
1
1
1
1
1
1
1
1
1
1
1
1
1
1
1
1
1
1
1
1
1
1
1
1
1
1
1
1
1
1
1
1
1
1
1
1
1
1
1
1
1
1
1
1
1
1
1
1
1
1
1
1
1
1
1
1
1
1
1.00041
0.999159
0.878442
2.05971
11.0972
13.9547
14.8428
15.0409
15.1355
15.223
15.3013
15.3794
15.4462
15.4968
15.5586
15.633
15.719
15.7992
15.877
15.9557
16.0531
16.1816
16.3514
16.5801
16.8903
17.2697
17.6166
17.8688
18.0325
18.146
18.2215
18.2051
1
1
1
1
1
1
1
1
1
1
1
1
1
1
1
1
1
1
1
1
1
1
1
1
1
1
1
1
1
1
1
1
1
1
1
1
1
1
1
1
1
1
1
1
1
1
1
1
1
1
1
1
1
1
1
1
1
1
1
1
1
1
1
1
1
1
1
1
1
1
1
1
1
1
1
1
1
1
1
1
1
1
1
1
1
1
1
1.00017
1.00059
0.920389
1.91016
10.8528
13.8507
14.7979
14.9981
15.0965
15.1856
15.2666
15.3453
15.4061
15.4583
15.5223
15.6002
15.687
15.7671
15.8442
15.9199
16.0186
16.1521
16.3255
16.556
16.8719
17.2453
17.5821
17.8244
17.9786
18.0857
18.159
18.1351
1
1
1
1
1
1
1
1
1
1
1
1
1
1
1
1
1
1
1
1
1
1
1
1
1
1
1
1
1
1
1
1
1
1
1
1
1
1
1
1
1
1
1
1
1
1
1
1
1
1
1
1
1
1
1
1
1
1
1
1
1
1
1
1
1
1
1
1
1
1
1
1
1
1
1
1
1
1
1
1
1
1
1
1
1
1
1
1.00003
0.999952
0.955049
1.83452
10.53
13.7519
14.7498
14.9531
15.0554
15.1451
15.2271
15.306
15.3613
15.4174
15.4842
15.5663
15.6531
15.7324
15.8079
15.8813
15.9818
16.1205
16.2979
16.5313
16.8519
17.2195
17.5461
17.7782
17.9234
18.0227
18.0919
18.0592
1
1
1
1
1
1
1
1
1
1
1
1
1
1
1
1
1
1
1
1
1
1
1
1
1
1
1
1
1
1
1
1
1
1
1
1
1
1
1
1
1
1
1
1
1
1
1
1
1
1
1
1
1
1
1
1
1
1
1
1
1
1
1
1
1
1
1
1
1
1
1
1
1
1
1
1
1
1
1
1
1
1
1
1
1
1
1
1.00003
1.00055
0.990833
1.75302
10.1415
13.6385
14.6976
14.9058
15.0124
15.1013
15.1828
15.2597
15.3122
15.3732
15.4441
15.5312
15.6172
15.6955
15.7675
15.8403
15.9434
16.0866
16.2691
16.5063
16.8297
17.1917
17.5084
17.7306
17.8671
17.9572
18.0193
17.9785
1
1
1
1
1
1
1
1
1
1
1
1
1
1
1
1
1
1
1
1
1
1
1
1
1
1
1
1
1
1
1
1
1
1
1
1
1
1
1
1
1
1
1
1
1
1
1
1
1
1
1
1
1
1
1
1
1
1
1
1
1
1
1
1
1
1
1
1
1
1
1
1
1
1
1
1
1
1
1
1
1
1
1
1
1
1
1
1.00003
1.00063
1.01402
1.64177
9.69477
13.5102
14.6399
14.8565
14.9665
15.0533
15.1355
15.205
15.2601
15.3259
15.4028
15.4935
15.5791
15.656
15.7219
15.7982
15.9044
16.0511
16.2387
16.4805
16.8049
17.16
17.4674
17.681
17.8093
17.8893
17.9423
17.8922
1
1
1
1
1
1
1
1
1
1
1
1
1
1
1
1
1
1
1
1
1
1
1
1
1
1
1
1
1
1
1
1
1
1
1
1
1
1
1
1
1
1
1
1
1
1
1
1
1
1
1
1
1
1
1
1
1
1
1
1
1
1
1
1
1
1
1
1
1
1
1
1
1
1
1
1
1
1
1
1
1
1
1
1
1
1
1
1.00002
1.00045
1.01132
1.54266
9.18373
13.3606
14.576
14.8042
14.9175
15.0017
15.0831
15.1455
15.2065
15.2769
15.361
15.4543
15.539
15.6142
15.6745
15.755
15.8654
16.0156
16.2063
16.4527
16.7755
17.1235
17.4234
17.6284
17.7488
17.8185
17.8614
17.8018
1
1
1
1
1
1
1
1
1
1
1
1
1
1
1
1
1
1
1
1
1
1
1
1
1
1
1
1
1
1
1
1
1
1
1
1
1
1
1
1
1
1
1
1
1
1
1
1
1
1
1
1
1
1
1
1
1
1
1
1
1
1
1
1
1
1
1
1
1
1
1
1
1
1
1
1
1
1
1
1
1
1
1
1
1
1
1
1.00001
1.00028
1.00742
1.445
8.59313
13.187
14.5051
14.746
14.865
14.9468
15.0234
15.0837
15.1509
15.2276
15.3187
15.4119
15.4961
15.5669
15.6251
15.7112
15.8252
15.9793
16.1718
16.4206
16.7395
17.0831
17.3766
17.5728
17.6853
17.7444
17.7766
17.7066
1
1
1
1
1
1
1
1
1
1
1
1
1
1
1
1
1
1
1
1
1
1
1
1
1
1
1
1
1
1
1
1
1
1
1
1
1
1
1
1
1
1
1
1
1
1
1
1
1
1
1
1
1
1
1
1
1
1
1
1
1
1
1
1
1
1
1
1
1
1
1
1
1
1
1
1
1
1
1
1
1
1
1
1
1
1
1
1
1.00011
1.00333
1.33781
7.91539
12.9835
14.4254
14.6826
14.8078
14.8877
14.9568
15.0213
15.0939
15.1788
15.2743
15.3659
15.4501
15.5133
15.5757
15.6675
15.7841
15.9424
16.1364
16.3838
16.6976
17.0402
17.327
17.514
17.6186
17.6668
17.6878
17.6085
1
1
1
1
1
1
1
1
1
1
1
1
1
1
1
1
1
1
1
1
1
1
1
1
1
1
1
1
1
1
1
1
1
1
1
1
1
1
1
1
1
1
1
1
1
1
1
1
1
1
1
1
1
1
1
1
1
1
1
1
1
1
1
1
1
1
1
1
1
1
1
1
1
1
1
1
1
1
1
1
1
1
1
1
1
1
1
0.999996
0.999977
0.999672
1.22299
7.14333
12.7432
14.3354
14.6141
14.7448
14.8219
14.887
14.9572
15.0374
15.1296
15.2251
15.3155
15.397
15.4537
15.5249
15.6216
15.7412
15.9036
16.0983
16.3409
16.653
16.9961
17.2742
17.4523
17.5488
17.5856
17.5949
17.508
1
1
1
1
1
1
1
1
1
1
1
1
1
1
1
1
1
1
1
1
1
1
1
1
1
1
1
1
1
1
1
1
1
1
1
1
1
1
1
1
1
1
1
1
1
1
1
1
1
1
1
1
1
1
1
1
1
1
1
1
1
1
1
1
1
1
1
1
1
1
1
1
1
1
1
1
1
1
1
1
1
1
1
1
1
1
1
0.999993
0.999897
0.996996
1.11208
6.26895
12.4576
14.2317
14.5398
14.6762
14.7499
14.8156
14.8934
14.9825
15.0772
15.1721
15.2636
15.3362
15.3932
15.4739
15.5737
15.6983
15.8645
16.0567
16.2935
16.6069
16.9495
17.2162
17.3852
17.474
17.4992
17.4981
17.4054
1
1
1
1
1
1
1
1
1
1
1
1
1
1
1
1
1
1
1
1
1
1
1
1
1
1
1
1
1
1
1
1
1
1
1
1
1
1
1
1
1
1
1
1
1
1
1
1
1
1
1
1
1
1
1
1
1
1
1
1
1
1
1
1
1
1
1
1
1
1
1
1
1
1
1
1
1
1
1
1
1
1
1
1
1
1
1
0.999996
0.999885
0.995775
1.02058
5.29816
12.1198
14.1091
14.4595
14.6018
14.6744
14.7446
14.8321
14.9257
15.0207
15.1156
15.2026
15.2669
15.3334
15.4231
15.5248
15.6528
15.8224
16.0102
16.2436
16.5609
16.9023
17.1576
17.3162
17.3969
17.4093
17.3994
17.3027
1
1
1
1
1
1
1
1
1
1
1
1
1
1
1
1
1
1
1
1
1
1
1
1
1
1
1
1
1
1
1
1
1
1
1
1
1
1
1
1
1
1
1
1
1
1
1
1
1
1
1
1
1
1
1
1
1
1
1
1
1
1
1
1
1
1
1
1
1
1
1
1
1
1
1
1
1
1
1
1
1
1
1
1
1
1
1
0.999999
0.999927
0.996444
0.964617
4.26756
11.724
13.9653
14.3733
14.5239
14.598
14.6782
14.7725
14.8657
14.9612
15.055
15.1344
15.1973
15.2744
15.3711
15.4757
15.6055
15.7749
15.9585
16.1922
16.5131
16.8516
17.0947
17.2406
17.3129
17.3112
17.2965
17.1981
1
1
1
1
1
1
1
1
1
1
1
1
1
1
1
1
1
1
1
1
1
1
1
1
1
1
1
1
1
1
1
1
1
1
1
1
1
1
1
1
1
1
1
1
1
1
1
1
1
1
1
1
1
1
1
1
1
1
1
1
1
1
1
1
1
1
1
1
1
1
1
1
1
1
1
1
1
1
1
1
1
1
1
1
1
1
1
1
0.999991
0.998325
0.952718
3.28023
11.2692
13.7897
14.2768
14.4423
14.5249
14.6164
14.7091
14.8018
14.8954
14.9859
15.059
15.1311
15.2166
15.3176
15.4251
15.5554
15.7209
15.9024
16.1408
16.4649
16.8004
17.0314
17.1639
17.2258
17.2113
17.1961
17.0961
1
1
1
1
1
1
1
1
1
1
1
1
1
1
1
1
1
1
1
1
1
1
1
1
1
1
1
1
1
1
1
1
1
1
1
1
1
1
1
1
1
1
1
1
1
1
1
1
1
1
1
1
1
1
1
1
1
1
1
1
1
1
1
1
1
1
1
1
1
1
1
1
1
1
1
1
1
1
1
1
1
1
1
1
1
1
1
1
1.00003
0.999918
0.971097
2.47318
10.7693
13.5423
14.1725
14.3622
14.4567
14.5538
14.6419
14.7344
14.8273
14.912
14.9841
15.0663
15.1582
15.2621
15.372
15.5013
15.6597
15.8438
16.0876
16.4141
16.7421
16.9612
17.0812
17.1275
17.1055
17.0923
16.9846
1
1
1
1
1
1
1
1
1
1
1
1
1
1
1
1
1
1
1
1
1
1
1
1
1
1
1
1
1
1
1
1
1
1
1
1
1
1
1
1
1
1
1
1
1
1
1
1
1
1
1
1
1
1
1
1
1
1
1
1
1
1
1
1
1
1
1
1
1
1
1
1
1
1
1
1
1
1
1
1
1
1
1
1
1
1
1
1
1.00005
1.00075
1.00716
1.87586
10.1809
13.2685
14.0785
14.2885
14.3896
14.4837
14.5707
14.6624
14.7543
14.8346
14.9124
15.0013
15.0983
15.2053
15.3153
15.444
15.5962
15.7829
16.0347
16.3651
16.6817
16.8892
16.9961
17.0241
17.0032
16.9909
16.8767
1
1
1
1
1
1
1
1
1
1
1
1
1
1
1
1
1
1
1
1
1
1
1
1
1
1
1
1
1
1
1
1
1
1
1
1
1
1
1
1
1
1
1
1
1
1
1
1
1
1
1
1
1
1
1
1
1
1
1
1
1
1
1
1
1
1
1
1
1
1
1
1
1
1
1
1
1
1
1
1
1
1
1
1
1
1
1
1
1.00004
1.00066
1.01059
1.59918
9.48756
13.0302
13.9933
14.2163
14.3172
14.41
14.4969
14.5886
14.6778
14.7573
14.842
14.936
15.0346
15.1452
15.2517
15.3779
15.5319
15.7194
15.9792
16.3103
16.6146
16.8071
16.8953
16.9111
16.8985
16.8832
16.7575
1
1
1
1
1
1
1
1
1
1
1
1
1
1
1
1
1
1
1
1
1
1
1
1
1
1
1
1
1
1
1
1
1
1
1
1
1
1
1
1
1
1
1
1
1
1
1
1
1
1
1
1
1
1
1
1
1
1
1
1
1
1
1
1
1
1
1
1
1
1
1
1
1
1
1
1
1
1
1
1
1
1
1
1
1
1
1
1
1.00003
1.00047
1.00812
1.44237
8.6775
12.8019
13.8963
14.1363
14.2375
14.3304
14.4178
14.5115
14.5989
14.6822
14.7716
14.8699
14.9701
15.082
15.1834
15.3085
15.4662
15.6566
15.9253
16.2537
16.5468
16.7189
16.7875
16.8066
16.7975
16.7766
16.6392
1
1
1
1
1
1
1
1
1
1
1
1
1
1
1
1
1
1
1
1
1
1
1
1
1
1
1
1
1
1
1
1
1
1
1
1
1
1
1
1
1
1
1
1
1
1
1
1
1
1
1
1
1
1
1
1
1
1
1
1
1
1
1
1
1
1
1
1
1
1
1
1
1
1
1
1
1
1
1
1
1
1
1
1
1
1
1
1
1.00002
1.00033
1.00578
1.32565
7.74041
12.5153
13.7851
14.0479
14.154
14.2485
14.3355
14.4308
14.5182
14.6066
14.7023
14.7996
14.9015
15.0116
15.1089
15.2396
15.3973
15.5933
15.8672
16.1897
16.47
16.6208
16.6805
16.7013
16.6919
16.6608
16.5094
1
1
1
1
1
1
1
1
1
1
1
1
1
1
1
1
1
1
1
1
1
1
1
1
1
1
1
1
1
1
1
1
1
1
1
1
1
1
1
1
1
1
1
1
1
1
1
1
1
1
1
1
1
1
1
1
1
1
1
1
1
1
1
1
1
1
1
1
1
1
1
1
1
1
1
1
1
1
1
1
1
1
1
1
1
1
1
1
1.00001
1.00021
1.00363
1.2242
6.70503
12.1662
13.6571
13.9477
14.0675
14.1632
14.2499
14.3462
14.4373
14.5332
14.6309
14.7294
14.8297
14.9355
15.0351
15.1704
15.3301
15.5313
15.809
16.1242
16.3848
16.5189
16.5798
16.5994
16.5851
16.541
16.3768
1
1
1
1
1
1
1
1
1
1
1
1
1
1
1
1
1
1
1
1
1
1
1
1
1
1
1
1
1
1
1
1
1
1
1
1
1
1
1
1
1
1
1
1
1
1
1
1
1
1
1
1
1
1
1
1
1
1
1
1
1
1
1
1
1
1
1
1
1
1
1
1
1
1
1
1
1
1
1
1
1
1
1
1
1
1
1
1
1.00001
1.00012
1.00194
1.13006
5.54081
11.7323
13.5022
13.8409
13.9781
14.0742
14.1604
14.2592
14.3561
14.4595
14.5573
14.6563
14.7522
14.8567
14.9636
15.1004
15.2625
15.4674
15.7457
16.0531
16.2906
16.4164
16.4811
16.4998
16.4712
16.4127
16.2359
1
1
1
1
1
1
1
1
1
1
1
1
1
1
1
1
1
1
1
1
1
1
1
1
1
1
1
1
1
1
1
1
1
1
1
1
1
1
1
1
1
1
1
1
1
1
1
1
1
1
1
1
1
1
1
1
1
1
1
1
1
1
1
1
1
1
1
1
1
1
1
1
1
1
1
1
1
1
1
1
1
1
1
1
1
1
1
1
1
1.00009
1.00122
1.05761
4.26218
11.2126
13.3172
13.7304
13.8843
13.983
14.069
14.1702
14.2773
14.3844
14.4834
14.578
14.6693
14.7793
14.8895
15.0314
15.1928
15.4007
15.6771
15.9739
16.197
16.3218
16.3858
16.3998
16.3576
16.2787
16.0882
1
1
1
1
1
1
1
1
1
1
1
1
1
1
1
1
1
1
1
1
1
1
1
1
1
1
1
1
1
1
1
1
1
1
1
1
1
1
1
1
1
1
1
1
1
1
1
1
1
1
1
1
1
1
1
1
1
1
1
1
1
1
1
1
1
1
1
1
1
1
1
1
1
1
1
1
1
1
1
1
1
1
1
1
1
1
1
1
1
1.00006
1.00089
1.02646
2.97555
10.5955
13.0986
13.6188
13.7863
13.8899
13.9774
14.0845
14.1989
14.3057
14.4043
14.4936
14.5898
14.7009
14.8153
14.9631
15.1196
15.329
15.5995
15.884
16.1031
16.2303
16.2916
16.2953
16.2357
16.1398
15.94
1
1
1
1
1
1
1
1
1
1
1
1
1
1
1
1
1
1
1
1
1
1
1
1
1
1
1
1
1
1
1
1
1
1
1
1
1
1
1
1
1
1
1
1
1
1
1
1
1
1
1
1
1
1
1
1
1
1
1
1
1
1
1
1
1
1
1
1
1
1
1
1
1
1
1
1
1
1
1
1
1
1
1
1
1
1
1
1
1
1.00004
1.00049
1.00673
2.00748
9.91306
12.823
13.5027
13.6878
13.7939
13.8883
14.0022
14.1172
14.2217
14.3161
14.4059
14.5086
14.6188
14.7384
14.8903
15.0441
15.2516
15.5127
15.7898
16.0101
16.1408
16.1993
16.1862
16.1082
16.0029
15.7978
1
1
1
1
1
1
1
1
1
1
1
1
1
1
1
1
1
1
1
1
1
1
1
1
1
1
1
1
1
1
1
1
1
1
1
1
1
1
1
1
1
1
1
1
1
1
1
1
1
1
1
1
1
1
1
1
1
1
1
1
1
1
1
1
1
1
1
1
1
1
1
1
1
1
1
1
1
1
1
1
1
1
1
1
1
1
1
1
1
1.00003
1.00039
1.00141
1.52016
9.13349
12.5462
13.384
13.5862
13.6959
13.8042
13.923
14.0307
14.1312
14.2234
14.3213
14.4271
14.536
14.6594
14.8129
14.9681
15.1692
15.4223
15.6988
15.9177
16.0497
16.102
16.0688
15.9768
15.8693
15.6606
1
1
1
1
1
1
1
1
1
1
1
1
1
1
1
1
1
1
1
1
1
1
1
1
1
1
1
1
1
1
1
1
1
1
1
1
1
1
1
1
1
1
1
1
1
1
1
1
1
1
1
1
1
1
1
1
1
1
1
1
1
1
1
1
1
1
1
1
1
1
1
1
1
1
1
1
1
1
1
1
1
1
1
1
1
1
1
1
1
1.00003
1.00041
1.00308
1.35213
8.31141
12.2751
13.2737
13.4844
13.607
13.7248
13.8318
13.9422
14.0375
14.1336
14.2362
14.3446
14.4534
14.5788
14.7295
14.8892
15.0855
15.3321
15.606
15.8244
15.9534
15.9956
15.9432
15.8442
15.7389
15.5244
1
1
1
1
1
1
1
1
1
1
1
1
1
1
1
1
1
1
1
1
1
1
1
1
1
1
1
1
1
1
1
1
1
1
1
1
1
1
1
1
1
1
1
1
1
1
1
1
1
1
1
1
1
1
1
1
1
1
1
1
1
1
1
1
1
1
1
1
1
1
1
1
1
1
1
1
1
1
1
1
1
1
1
1
1
1
1
1
1
1.00002
1.0004
1.0052
1.27806
7.36477
11.9589
13.1495
13.3867
13.5265
13.6364
13.7377
13.8466
13.9415
14.0428
14.1494
14.2598
14.371
14.4973
14.6413
14.8041
14.9992
15.2443
15.5125
15.7271
15.8502
15.8783
15.8112
15.7132
15.6094
15.388
1
1
1
1
1
1
1
1
1
1
1
1
1
1
1
1
1
1
1
1
1
1
1
1
1
1
1
1
1
1
1
1
1
1
1
1
1
1
1
1
1
1
1
1
1
1
1
1
1
1
1
1
1
1
1
1
1
1
1
1
1
1
1
1
1
1
1
1
1
1
1
1
1
1
1
1
1
1
1
1
1
1
1
1
1
1
1
1
1
1.00002
1.0003
1.00494
1.22386
6.29401
11.5688
13.0071
13.2867
13.4246
13.5426
13.6422
13.7508
13.8474
13.9531
14.0631
14.1743
14.2891
14.4157
14.548
14.7117
14.9108
15.1593
15.4197
15.6232
15.7377
15.7505
15.6778
15.5823
15.4779
15.2477
1
1
1
1
1
1
1
1
1
1
1
1
1
1
1
1
1
1
1
1
1
1
1
1
1
1
1
1
1
1
1
1
1
1
1
1
1
1
1
1
1
1
1
1
1
1
1
1
1
1
1
1
1
1
1
1
1
1
1
1
1
1
1
1
1
1
1
1
1
1
1
1
1
1
1
1
1
1
1
1
1
1
1
1
1
1
1
1
1
1.00001
1.00018
1.00303
1.13497
5.08985
11.0944
12.8468
13.1755
13.323
13.4447
13.5388
13.6504
13.7518
13.8611
13.9753
14.0879
14.2063
14.3308
14.4523
14.6164
14.8217
15.0726
15.3275
15.5149
15.6123
15.6123
15.547
15.4508
15.3427
15.102
1
1
1
1
1
1
1
1
1
1
1
1
1
1
1
1
1
1
1
1
1
1
1
1
1
1
1
1
1
1
1
1
1
1
1
1
1
1
1
1
1
1
1
1
1
1
1
1
1
1
1
1
1
1
1
1
1
1
1
1
1
1
1
1
1
1
1
1
1
1
1
1
1
1
1
1
1
1
1
1
1
1
1
1
1
1
1
1
1
1
1.00009
1.00135
1.05322
3.68614
10.5169
12.6638
13.0666
13.2189
13.3448
13.4334
13.5494
13.6566
13.7689
13.8867
14.001
14.1211
14.2382
14.3598
14.5199
14.731
14.9833
15.2338
15.4038
15.4739
15.4716
15.4176
15.3196
15.2047
14.9513
1
1
1
1
1
1
1
1
1
1
1
1
1
1
1
1
1
1
1
1
1
1
1
1
1
1
1
1
1
1
1
1
1
1
1
1
1
1
1
1
1
1
1
1
1
1
1
1
1
1
1
1
1
1
1
1
1
1
1
1
1
1
1
1
1
1
1
1
1
1
1
1
1
1
1
1
1
1
1
1
1
1
1
1
1
1
1
1
1
1
1.00004
1.00045
1.00843
2.33462
9.8055
12.4107
12.9436
13.111
13.2368
13.3241
13.4454
13.562
13.6796
13.7963
13.9149
14.0279
14.1448
14.2685
14.424
14.6378
14.8912
15.136
15.288
15.3372
15.3339
15.2828
15.1853
15.0592
14.7941
1
1
1
1
1
1
1
1
1
1
1
1
1
1
1
1
1
1
1
1
1
1
1
1
1
1
1
1
1
1
1
1
1
1
1
1
1
1
1
1
1
1
1
1
1
1
1
1
1
1
1
1
1
1
1
1
1
1
1
1
1
1
1
1
1
1
1
1
1
1
1
1
1
1
1
1
1
1
1
1
1
1
1
1
1
1
1
1
1
1
1.00003
1.00018
0.995514
1.55147
8.97913
12.1145
12.8157
13.004
13.1246
13.2151
13.3424
13.469
13.5937
13.7123
13.8214
13.9247
14.051
14.1796
14.3301
14.5392
14.7943
15.0323
15.1681
15.2068
15.1963
15.1437
15.0505
14.9123
14.6361
1
1
1
1
1
1
1
1
1
1
1
1
1
1
1
1
1
1
1
1
1
1
1
1
1
1
1
1
1
1
1
1
1
1
1
1
1
1
1
1
1
1
1
1
1
1
1
1
1
1
1
1
1
1
1
1
1
1
1
1
1
1
1
1
1
1
1
1
1
1
1
1
1
1
1
1
1
1
1
1
1
1
1
1
1
1
1
1
1
1
1.00003
1.00024
0.996836
1.28084
8.09147
11.8179
12.6804
12.8902
13.0098
13.1089
13.2458
13.3806
13.5099
13.6206
13.714
13.8239
13.9554
14.0905
14.238
14.437
14.6905
14.9187
15.0454
15.0836
15.0651
15.0102
14.9081
14.7566
14.4693
1
1
1
1
1
1
1
1
1
1
1
1
1
1
1
1
1
1
1
1
1
1
1
1
1
1
1
1
1
1
1
1
1
1
1
1
1
1
1
1
1
1
1
1
1
1
1
1
1
1
1
1
1
1
1
1
1
1
1
1
1
1
1
1
1
1
1
1
1
1
1
1
1
1
1
1
1
1
1
1
1
1
1
1
1
1
1
1
1
1
1.00002
1.00032
1.00163
1.22923
7.21394
11.4989
12.5591
12.7719
12.8989
13.014
13.1622
13.2935
13.414
13.5123
13.6101
13.7243
13.8572
13.9985
14.1466
14.3355
14.5777
14.7912
14.9229
14.9644
14.931
14.8678
14.7531
14.5855
14.2849
1
1
1
1
1
1
1
1
1
1
1
1
1
1
1
1
1
1
1
1
1
1
1
1
1
1
1
1
1
1
1
1
1
1
1
1
1
1
1
1
1
1
1
1
1
1
1
1
1
1
1
1
1
1
1
1
1
1
1
1
1
1
1
1
1
1
1
1
1
1
1
1
1
1
1
1
1
1
1
1
1
1
1
1
1
1
1
1
1
1
1.00002
1.00027
1.00313
1.19694
6.19478
11.0989
12.4083
12.6556
12.8044
12.9427
13.0744
13.1934
13.303
13.4005
13.5105
13.6245
13.7577
13.9059
14.0543
14.2295
14.4535
14.6551
14.8056
14.8609
14.8242
14.7476
14.6034
14.4189
14.1109
1
1
1
1
1
1
1
1
1
1
1
1
1
1
1
1
1
1
1
1
1
1
1
1
1
1
1
1
1
1
1
1
1
1
1
1
1
1
1
1
1
1
1
1
1
1
1
1
1
1
1
1
1
1
1
1
1
1
1
1
1
1
1
1
1
1
1
1
1
1
1
1
1
1
1
1
1
1
1
1
1
1
1
1
1
1
1
1
1
1
1.00001
1.00017
1.00225
1.12552
5.0803
10.642
12.2577
12.559
12.7337
12.8604
12.9735
13.0839
13.1847
13.2961
13.4116
13.5272
13.6603
13.8091
13.9589
14.1179
14.3224
14.5251
14.6754
14.7418
14.6989
14.6091
14.4555
14.2697
13.958
1
1
1
1
1
1
1
1
1
1
1
1
1
1
1
1
1
1
1
1
1
1
1
1
1
1
1
1
1
1
1
1
1
1
1
1
1
1
1
1
1
1
1
1
1
1
1
1
1
1
1
1
1
1
1
1
1
1
1
1
1
1
1
1
1
1
1
1
1
1
1
1
1
1
1
1
1
1
1
1
1
1
1
1
1
1
1
1
1
1
1.00001
1.00008
1.00097
1.04845
3.73446
10.1091
12.087
12.4403
12.6277
12.7608
12.8648
12.9698
13.075
13.1937
13.316
13.4344
13.5635
13.7069
13.8585
14.0054
14.1932
14.3979
14.5501
14.6191
14.5624
14.4517
14.2939
14.1161
13.8046
1
1
1
1
1
1
1
1
1
1
1
1
1
1
1
1
1
1
1
1
1
1
1
1
1
1
1
1
1
1
1
1
1
1
1
1
1
1
1
1
1
1
1
1
1
1
1
1
1
1
1
1
1
1
1
1
1
1
1
1
1
1
1
1
1
1
1
1
1
1
1
1
1
1
1
1
1
1
1
1
1
1
1
1
1
1
1
1
1
1
1
1.00003
1.00017
1.00053
2.28415
9.4206
11.8704
12.328
12.521
12.6569
12.7442
12.8548
12.9675
13.092
13.2201
13.3396
13.4651
13.6034
13.75
13.8933
14.0669
14.2697
14.4308
14.5073
14.4278
14.2852
14.1269
13.9494
13.637
1
1
1
1
1
1
1
1
1
1
1
1
1
1
1
1
1
1
1
1
1
1
1
1
1
1
1
1
1
1
1
1
1
1
1
1
1
1
1
1
1
1
1
1
1
1
1
1
1
1
1
1
1
1
1
1
1
1
1
1
1
1
1
1
1
1
1
1
1
1
1
1
1
1
1
1
1
1
1
1
1
1
1
1
1
1
1
1
1
1
1
1.00002
0.999965
0.989389
1.41072
8.50773
11.5655
12.2029
12.3949
12.536
12.6151
12.7392
12.8592
12.9879
13.1188
13.2449
13.3688
13.492
13.6289
13.7829
13.9478
14.1389
14.3025
14.3772
14.3063
14.1602
13.9977
13.8088
13.4916
1
1
1
1
1
1
1
1
1
1
1
1
1
1
1
1
1
1
1
1
1
1
1
1
1
1
1
1
1
1
1
1
1
1
1
1
1
1
1
1
1
1
1
1
1
1
1
1
1
1
1
1
1
1
1
1
1
1
1
1
1
1
1
1
1
1
1
1
1
1
1
1
1
1
1
1
1
1
1
1
1
1
1
1
1
1
1
1
1
1
1
1.00002
1.0001
0.993283
1.16312
7.50342
11.2356
12.0389
12.2681
12.4029
12.483
12.6258
12.7544
12.8872
13.0233
13.1545
13.2641
13.364
13.5015
13.6701
13.8348
14.0012
14.1418
14.2005
14.1425
14.0234
13.8875
13.7214
13.3948
1
1
1
1
1
1
1
1
1
1
1
1
1
1
1
1
1
1
1
1
1
1
1
1
1
1
1
1
1
1
1
1
1
1
1
1
1
1
1
1
1
1
1
1
1
1
1
1
1
1
1
1
1
1
1
1
1
1
1
1
1
1
1
1
1
1
1
1
1
1
1
1
1
1
1
1
1
1
1
1
1
1
1
1
1
1
1
1
1
1
1
1.00002
1.00021
0.999241
1.15067
6.48427
10.8157
11.8798
12.1302
12.2669
12.3616
12.5202
12.6618
12.7992
12.9274
13.0496
13.1426
13.2363
13.3744
13.5485
13.7265
13.8892
14
14.0131
13.9466
13.8426
13.7181
13.5474
13.211
1
1
1
1
1
1
1
1
1
1
1
1
1
1
1
1
1
1
1
1
1
1
1
1
1
1
1
1
1
1
1
1
1
1
1
1
1
1
1
1
1
1
1
1
1
1
1
1
1
1
1
1
1
1
1
1
1
1
1
1
1
1
1
1
1
1
1
1
1
1
1
1
1
1
1
1
1
1
1
1
1
1
1
1
1
1
1
1
1
1
1
1.00001
1.00018
1.00098
1.11629
5.35916
10.3168
11.6916
11.9762
12.1455
12.2597
12.4282
12.5717
12.6951
12.8191
12.9213
13.0118
13.1154
13.2453
13.4173
13.5989
13.7573
13.8634
13.8701
13.8021
13.6674
13.5346
13.3489
13.013
1
1
1
1
1
1
1
1
1
1
1
1
1
1
1
1
1
1
1
1
1
1
1
1
1
1
1
1
1
1
1
1
1
1
1
1
1
1
1
1
1
1
1
1
1
1
1
1
1
1
1
1
1
1
1
1
1
1
1
1
1
1
1
1
1
1
1
1
1
1
1
1
1
1
1
1
1
1
1
1
1
1
1
1
1
1
1
1
1
1
1
1.00001
1.0001
1.00066
1.05203
3.94125
9.74442
11.5125
11.8631
12.0732
12.2035
12.3271
12.4609
12.5876
12.694
12.7878
12.8889
12.9954
13.1202
13.2894
13.4686
13.6132
13.7107
13.7283
13.6722
13.5714
13.4103
13.1953
12.8428
1
1
1
1
1
1
1
1
1
1
1
1
1
1
1
1
1
1
1
1
1
1
1
1
1
1
1
1
1
1
1
1
1
1
1
1
1
1
1
1
1
1
1
1
1
1
1
1
1
1
1
1
1
1
1
1
1
1
1
1
1
1
1
1
1
1
1
1
1
1
1
1
1
1
1
1
1
1
1
1
1
1
1
1
1
1
1
1
1
1
1
1
1.00004
1.00001
0.997845
2.28611
9.0257
11.3631
11.7583
11.9766
12.1116
12.2111
12.3494
12.4676
12.5694
12.6677
12.7676
12.8788
12.9998
13.16
13.3441
13.475
13.5446
13.5594
13.5212
13.441
13.3013
13.0934
12.7186
1
1
1
1
1
1
1
1
1
1
1
1
1
1
1
1
1
1
1
1
1
1
1
1
1
1
1
1
1
1
1
1
1
1
1
1
1
1
1
1
1
1
1
1
1
1
1
1
1
1
1
1
1
1
1
1
1
1
1
1
1
1
1
1
1
1
1
1
1
1
1
1
1
1
1
1
1
1
1
1
1
1
1
1
1
1
1
1
1
1
1
1
1.00002
0.999865
0.986518
1.23841
7.99266
11.0657
11.6465
11.8514
12.0067
12.0811
12.2237
12.3417
12.4502
12.5494
12.6476
12.7592
12.8748
13.0223
13.2077
13.3578
13.4191
13.397
13.3406
13.2646
13.1341
12.9324
12.5466
1
1
1
1
1
1
1
1
1
1
1
1
1
1
1
1
1
1
1
1
1
1
1
1
1
1
1
1
1
1
1
1
1
1
1
1
1
1
1
1
1
1
1
1
1
1
1
1
1
1
1
1
1
1
1
1
1
1
1
1
1
1
1
1
1
1
1
1
1
1
1
1
1
1
1
1
1
1
1
1
1
1
1
1
1
1
1
1
1
1
1
1
1.00002
1.00002
0.993125
1.07208
6.7756
10.6269
11.4549
11.7102
11.8786
11.9427
12.0915
12.2166
12.3254
12.4253
12.5243
12.6385
12.7528
12.8835
13.0515
13.2093
13.313
13.3269
13.2074
13.0827
12.9357
12.7205
12.3447
1
1
1
1
1
1
1
1
1
1
1
1
1
1
1
1
1
1
1
1
1
1
1
1
1
1
1
1
1
1
1
1
1
1
1
1
1
1
1
1
1
1
1
1
1
1
1
1
1
1
1
1
1
1
1
1
1
1
1
1
1
1
1
1
1
1
1
1
1
1
1
1
1
1
1
1
1
1
1
1
1
1
1
1
1
1
1
1
1
1
1
1
1.00001
1.0001
0.997972
1.0647
5.5039
10.0174
11.2125
11.5556
11.7343
11.8059
11.9555
12.0815
12.1926
12.3044
12.4134
12.5311
12.6393
12.7413
12.8811
13.0389
13.1633
13.2029
13.1365
12.9773
12.7735