/*--------------------------------*- C++ -*----------------------------------*\
| =========                 |                                                 |
| \\      /  F ield         | OpenFOAM: The Open Source CFD Toolbox           |
|  \\    /   O peration     | Version:  2.2.x                                 |
|   \\  /    A nd           | Web:      www.OpenFOAM.org                      |
|    \\/     M anipulation  |                                                 |
\*---------------------------------------------------------------------------*/
FoamFile
{
    version     2.0;
    format      ascii;
    class       volScalarField;
    location    "2.8";
    object      T;
}
// * * * * * * * * * * * * * * * * * * * * * * * * * * * * * * * * * * * * * //

dimensions      [0 0 0 1 0 0 0];

internalField   nonuniform List<scalar> 
14161
(
0.984038
0.988173
0.987383
0.987134
0.98666
0.986112
0.985511
0.984878
0.984133
0.98336
0.982557
0.981713
0.980907
0.98006
0.97916
0.978392
0.977557
0.976652
0.975952
0.975357
0.974984
0.974741
0.974498
0.974297
0.974179
0.974349
0.974658
0.975287
0.976041
0.977079
0.978719
0.980866
0.983248
0.985855
0.988444
0.991795
0.996416
1.00151
1.00612
1.01228
1.0144
1.03106
1.02565
1.76214
2.86515
3.04841
3.0107
2.98096
2.94431
2.9157
2.88622
2.8604
2.83241
2.80676
2.78289
2.76165
2.74473
2.72894
2.71158
2.69658
2.68315
2.67264
2.66312
2.65529
2.64929
2.64422
2.64113
2.63846
2.63656
2.63588
2.63834
2.639
2.63967
2.64324
2.64645
2.6469
2.64745
2.64479
2.64279
2.64511
2.63813
2.63415
2.63159
2.62243
2.61552
2.60874
2.60131
2.59473
2.58634
2.5801
2.5737
2.56954
2.55837
2.54998
2.54289
2.53645
2.53093
2.52528
2.51423
2.50445
2.48297
2.45863
2.41923
2.37644
2.33737
2.31943
2.30715
2.29388
2.284
2.26208
2.37509
2.43969
2.64968
2.79757
2.94331
3.00056
3.1031
3.16293
3.26229
0.984003
0.988168
0.987343
0.98707
0.986656
0.98618
0.985499
0.984811
0.984116
0.983392
0.982531
0.981683
0.980884
0.98004
0.979137
0.978359
0.977524
0.97663
0.975942
0.975335
0.974961
0.974715
0.974469
0.974266
0.974147
0.974311
0.974636
0.975231
0.976012
0.977054
0.978536
0.980808
0.983177
0.98596
0.988257
0.991383
0.996226
1.00114
1.00565
1.01081
1.01331
1.01881
1.03054
1.63069
2.84576
2.98677
2.95177
2.92729
2.89616
2.86556
2.83632
2.80951
2.78272
2.75793
2.73449
2.7167
2.69909
2.68312
2.66593
2.64933
2.63751
2.628
2.61972
2.61256
2.60737
2.60409
2.60212
2.59975
2.59897
2.59992
2.60303
2.60496
2.60732
2.61099
2.61419
2.61496
2.61735
2.61619
2.6153
2.61797
2.61121
2.6087
2.60488
2.59694
2.59108
2.58501
2.57824
2.57175
2.56384
2.55802
2.55182
2.54681
2.53518
2.52758
2.52046
2.51478
2.50957
2.50886
2.49112
2.4843
2.46356
2.43651
2.39671
2.36958
2.32027
2.29904
2.28692
2.27471
2.26445
2.36564
2.64373
2.83919
3.0305
3.16091
3.25299
3.27013
3.28628
3.23466
3.26163
0.984021
0.988161
0.987353
0.98709
0.986635
0.986096
0.98552
0.984916
0.984108
0.983317
0.982544
0.981755
0.980883
0.98001
0.979157
0.97836
0.977521
0.97662
0.975951
0.975323
0.974921
0.974689
0.974422
0.974219
0.974088
0.974257
0.97457
0.975121
0.975858
0.976852
0.978321
0.980496
0.982762
0.985557
0.987932
0.990908
0.99548
1.00048
1.00459
1.00707
1.00842
1.00365
1.00991
1.08964
2.65347
2.87764
2.85452
2.85
2.83155
2.8188
2.80001
2.78347
2.7626
2.74469
2.72377
2.70659
2.6901
2.67291
2.6667
2.66303
2.6563
2.64827
2.64036
2.63367
2.6292
2.62593
2.62316
2.62036
2.62048
2.62066
2.62362
2.6249
2.62711
2.62941
2.63205
2.63191
2.63323
2.6299
2.62663
2.62858
2.62083
2.61666
2.61195
2.60305
2.59706
2.59078
2.58352
2.57645
2.56874
2.56212
2.55461
2.54948
2.53757
2.52941
2.52201
2.51664
2.51133
2.51178
2.48787
2.48278
2.45745
2.42947
2.40176
2.37058
2.31341
2.30209
2.29221
2.28532
2.40744
2.66163
2.80571
2.99813
3.09572
3.18524
3.2605
3.26728
3.29947
3.23113
3.207
0.984008
0.988165
0.987338
0.987064
0.986648
0.986169
0.985494
0.984815
0.984117
0.983395
0.982526
0.981671
0.980877
0.980057
0.979123
0.978318
0.977493
0.976597
0.975912
0.975283
0.974878
0.974638
0.97435
0.974123
0.973981
0.974151
0.974425
0.974933
0.97568
0.976615
0.977905
0.979916
0.982121
0.984694
0.987265
0.990056
0.99393
0.999047
1.00375
1.00697
1.01139
1.01056
1.01684
1.39497
2.76928
2.94433
2.92335
2.91075
2.88884
2.87027
2.84842
2.82676
2.80098
2.77899
2.75598
2.73628
2.71589
2.69692
2.68219
2.67161
2.6622
2.65367
2.64548
2.63859
2.63354
2.62988
2.62613
2.62351
2.6225
2.62257
2.62505
2.62554
2.62724
2.62883
2.63103
2.63114
2.63184
2.62833
2.62398
2.62502
2.61695
2.61225
2.60524
2.59696
2.59057
2.58398
2.57606
2.56811
2.5605
2.55375
2.54684
2.54112
2.53052
2.52189
2.51316
2.50553
2.49765
2.49946
2.46985
2.46388
2.43448
2.40637
2.38694
2.34675
2.29962
2.29348
2.29854
2.4709
2.71084
2.89378
3.02587
3.07788
3.13455
3.18498
3.25281
3.25195
3.30238
3.22622
3.19274
0.984023
0.988156
0.98737
0.987129
0.986625
0.986066
0.985502
0.984902
0.984092
0.983296
0.982529
0.981736
0.980846
0.979981
0.979127
0.978284
0.977472
0.976584
0.975882
0.975237
0.974779
0.974529
0.974245
0.973994
0.973859
0.973943
0.974197
0.974656
0.975341
0.976153
0.977299
0.979177
0.98123
0.983588
0.98629
0.988744
0.992107
0.997014
1.00184
1.00706
1.00974
1.01215
1.02048
1.42362
2.77497
2.95969
2.93177
2.91593
2.88673
2.86709
2.84029
2.81845
2.79153
2.76805
2.74783
2.72627
2.70816
2.69451
2.68265
2.67248
2.66318
2.6549
2.64704
2.64153
2.63546
2.6282
2.62507
2.62496
2.62309
2.62267
2.62384
2.62322
2.62339
2.62503
2.62762
2.62752
2.62939
2.62661
2.62345
2.62444
2.61838
2.61482
2.60731
2.59996
2.593
2.58616
2.57727
2.5684
2.56035
2.55294
2.54612
2.53973
2.53061
2.5233
2.51587
2.50998
2.50438
2.50638
2.47785
2.47315
2.44398
2.42034
2.39969
2.353
2.31252
2.33318
2.51997
2.74859
2.97116
3.08891
3.11269
3.11416
3.13528
3.16594
3.22106
3.23188
3.29046
3.22432
3.17616
0.984033
0.988169
0.987332
0.987057
0.986644
0.986164
0.985481
0.984795
0.984102
0.983373
0.982515
0.981658
0.980823
0.979983
0.979124
0.978241
0.977418
0.976573
0.975832
0.975195
0.974691
0.974384
0.974103
0.973854
0.973667
0.973754
0.973929
0.974312
0.974879
0.975639
0.976543
0.978256
0.980028
0.98209
0.98443
0.987014
0.989749
0.994034
0.999559
1.00636
1.01351
1.02761
1.03906
1.55901
2.80149
2.99363
2.97076
2.95338
2.92154
2.89904
2.87456
2.85297
2.82098
2.79732
2.76779
2.74205
2.71764
2.69757
2.68245
2.66925
2.65731
2.64881
2.63973
2.63387
2.62551
2.62
2.61641
2.61445
2.61125
2.61095
2.61228
2.61095
2.60961
2.60918
2.61084
2.60953
2.61216
2.60965
2.60709
2.60876
2.60455
2.60233
2.59441
2.58785
2.58181
2.5764
2.5686
2.56131
2.55561
2.55022
2.54528
2.53979
2.53216
2.52664
2.5201
2.5163
2.51208
2.51565
2.48483
2.47527
2.44702
2.42831
2.39017
2.36557
2.33836
2.54728
2.7699
3.00303
3.03548
3.12075
3.12671
3.12768
3.13379
3.15316
3.1994
3.21354
3.27164
3.21266
3.16205
0.984052
0.988165
0.987349
0.987077
0.986621
0.986068
0.985491
0.984872
0.984086
0.98328
0.982505
0.981696
0.980786
0.97995
0.979123
0.978167
0.977356
0.97657
0.975771
0.97511
0.974576
0.974232
0.973929
0.973669
0.973489
0.9734
0.973591
0.973868
0.974321
0.974934
0.975696
0.976944
0.97855
0.980185
0.982182
0.984634
0.986967
0.990162
0.994948
1.00311
1.01029
1.02702
1.02716
1.80761
2.89703
3.04276
3.00877
2.97338
2.92247
2.8918
2.86559
2.83173
2.79972
2.77251
2.73394
2.71164
2.67734
2.6581
2.63832
2.6164
2.60753
2.59452
2.58692
2.57982
2.5737
2.56391
2.55826
2.55519
2.552
2.55147
2.55346
2.55325
2.55239
2.55078
2.55198
2.55125
2.5519
2.55274
2.55256
2.55394
2.55112
2.55509
2.54933
2.54453
2.53959
2.53696
2.53242
2.52546
2.52285
2.51926
2.51743
2.51501
2.50898
2.50594
2.50096
2.49803
2.49195
2.49667
2.46979
2.45515
2.42898
2.40357
2.39343
2.36155
2.51712
2.77045
2.93997
3.08893
3.10982
3.09168
3.11247
3.12067
3.12419
3.13706
3.18014
3.19855
3.25507
3.20298
3.14865
0.984078
0.988185
0.987357
0.987086
0.986628
0.986087
0.985496
0.984804
0.984097
0.983342
0.982494
0.981638
0.980781
0.979925
0.979103
0.978131
0.977314
0.976551
0.975721
0.975011
0.974459
0.97404
0.973698
0.973441
0.973259
0.973068
0.973145
0.97334
0.973667
0.974132
0.974722
0.9755
0.976783
0.977994
0.979353
0.980805
0.982709
0.984444
0.986826
0.992081
0.995644
1.00491
1.00144
1.47714
2.78262
3.02106
2.98195
2.94459
2.8817
2.85264
2.81804
2.772
2.73019
2.69346
2.64018
2.61947
2.57489
2.56361
2.52507
2.50315
2.48903
2.47713
2.47384
2.46641
2.46429
2.45627
2.44795
2.44415
2.44029
2.43998
2.44169
2.44399
2.44552
2.44725
2.449
2.44748
2.44717
2.44646
2.44841
2.45168
2.44985
2.45515
2.46084
2.45661
2.45545
2.45642
2.45644
2.45326
2.4527
2.45116
2.45127
2.45301
2.44706
2.44707
2.44698
2.44467
2.44151
2.44054
2.41924
2.40368
2.38576
2.37793
2.33508
2.51726
2.72043
2.94618
2.96177
3.04237
3.04952
3.07424
3.09053
3.11313
3.11625
3.12356
3.16269
3.18432
3.24109
3.19703
3.13938
0.984108
0.988195
0.987361
0.987069
0.98665
0.98616
0.985489
0.984806
0.984108
0.983299
0.98247
0.98165
0.980753
0.9799
0.979075
0.97809
0.977245
0.976483
0.975683
0.974901
0.974308
0.973826
0.973428
0.973163
0.972906
0.972711
0.972616
0.972752
0.972889
0.973171
0.973585
0.974045
0.974649
0.975522
0.976231
0.97707
0.977796
0.978705
0.979615
0.981912
0.984326
0.991259
1.0025
1.35776
2.7142
3.05357
2.94448
2.8477
2.76349
2.72355
2.67651
2.61346
2.5815
2.538
2.50837
2.47147
2.45198
2.41829
2.40891
2.37862
2.36839
2.36002
2.35239
2.34861
2.34428
2.33506
2.33362
2.33175
2.32921
2.32991
2.33177
2.3346
2.337
2.3393
2.3439
2.34568
2.3451
2.34726
2.34765
2.35126
2.34666
2.35108
2.35718
2.35601
2.35504
2.35536
2.35598
2.35392
2.35445
2.35451
2.35621
2.36133
2.35897
2.36157
2.36348
2.3631
2.36169
2.363
2.35059
2.34714
2.33596
2.32754
2.4711
2.70185
2.80849
2.98074
2.99434
2.98857
3.01737
3.04341
3.06644
3.09386
3.10637
3.11158
3.14828
3.1718
3.22783
3.19251
3.1285
0.984143
0.988202
0.987403
0.987139
0.986648
0.986087
0.985508
0.984887
0.984106
0.983283
0.982474
0.981643
0.980742
0.97987
0.979018
0.97807
0.977173
0.976421
0.975635
0.974787
0.97411
0.973568
0.973114
0.9728
0.972527
0.972297
0.972144
0.972021
0.972006
0.972097
0.972279
0.972431
0.972543
0.97276
0.972517
0.972101
0.971291
0.969796
0.96733
0.962144
0.957358
0.943029
0.935829
0.977417
2.31377
2.9926
2.75251
2.64172
2.5734
2.54808
2.49696
2.45867
2.41863
2.39843
2.39023
2.37218
2.35695
2.32712
2.31544
2.30936
2.30513
2.29512
2.2915
2.29289
2.28221
2.27733
2.27965
2.27577
2.27515
2.27593
2.27653
2.27876
2.28014
2.28025
2.28681
2.28489
2.28325
2.28556
2.28654
2.28741
2.28294
2.28945
2.28885
2.28851
2.28544
2.28711
2.28633
2.28579
2.28565
2.2856
2.28461
2.28702
2.2838
2.28586
2.28863
2.28842
2.29415
2.30068
2.2952
2.29129
2.28887
2.49078
2.68056
2.7699
2.86718
2.85096
2.90356
2.94127
2.98712
3.02466
3.05159
3.0808
3.09753
3.09978
3.13422
3.15887
3.21585
3.18791
3.11966
0.984181
0.988229
0.987391
0.987097
0.986674
0.986181
0.985498
0.984799
0.984116
0.983368
0.982478
0.981607
0.980734
0.979839
0.978963
0.97805
0.977101
0.976344
0.975565
0.974644
0.973896
0.973272
0.97277
0.97237
0.972094
0.971797
0.971586
0.971391
0.971057
0.970901
0.970785
0.970667
0.970445
0.970005
0.969335
0.967952
0.966666
0.96471
0.961883
0.957703
0.953752
0.949394
0.95064
0.972522
1.59395
2.58742
2.4706
2.46743
2.41719
2.39699
2.3903
2.36398
2.372
2.33567
2.35757
2.3547
2.32149
2.33774
2.28664
2.30271
2.30109
2.2871
2.29128
2.28351
2.28352
2.27996
2.27847
2.27505
2.2737
2.27321
2.27491
2.27689
2.27984
2.27857
2.28444
2.28198
2.28021
2.28182
2.28207
2.28196
2.2788
2.28103
2.27912
2.2778
2.27344
2.27203
2.26601
2.26291
2.25833
2.25631
2.25785
2.25985
2.26054
2.26453
2.26529
2.26666
2.27542
2.289
2.28679
2.34915
2.53112
2.7188
2.78338
2.88014
2.8756
2.8546
2.83949
2.90034
2.94261
2.98367
3.0238
3.06582
3.08724
3.09043
3.12229
3.1484
3.20574
3.18293
3.10967
0.984223
0.98824
0.987429
0.987155
0.986674
0.986111
0.985517
0.984868
0.984118
0.983312
0.982485
0.981643
0.980747
0.979799
0.97891
0.978016
0.977043
0.976243
0.975439
0.974531
0.97367
0.972981
0.972399
0.971904
0.971589
0.971228
0.970912
0.970733
0.970147
0.969683
0.96929
0.968836
0.968293
0.967412
0.966125
0.964108
0.960889
0.955693
0.94876
0.938109
0.919769
0.88486
0.831461
0.803928
1.33886
2.22
2.32632
2.37576
2.43073
2.43922
2.44676
2.4469
2.41257
2.4215
2.38888
2.3959
2.35988
2.34289
2.32777
2.32973
2.32719
2.3164
2.31922
2.31177
2.30806
2.30483
2.30362
2.30278
2.30375
2.30329
2.3064
2.30823
2.30919
2.30694
2.31222
2.31341
2.30826
2.31207
2.30908
2.30693
2.30507
2.30218
2.30313
2.29602
2.29009
2.28778
2.2839
2.28055
2.27753
2.2761
2.27396
2.27662
2.27137
2.28401
2.29107
2.29685
2.32291
2.38741
2.47142
2.62671
2.77401
2.86655
2.93679
2.83079
2.78039
2.79356
2.8251
2.89195
2.93059
2.97085
3.00976
3.05282
3.07914
3.08173
3.11007
3.13779
3.19611
3.1765
3.10146
0.98427
0.988276
0.987443
0.987165
0.98669
0.986155
0.985533
0.984831
0.98413
0.983374
0.982483
0.981609
0.980752
0.979792
0.978854
0.97795
0.976997
0.976132
0.975289
0.974387
0.973442
0.972665
0.97201
0.971437
0.971059
0.970594
0.970169
0.969887
0.969248
0.968443
0.967778
0.967127
0.966318
0.965316
0.964065
0.962377
0.960117
0.957387
0.956635
0.955031
0.960582
0.96553
1.04876
1.47078
2.04356
2.18248
2.36722
2.48131
2.4898
2.52813
2.49101
2.49624
2.43244
2.46342
2.40819
2.40691
2.38203
2.35692
2.34183
2.3451
2.34163
2.33691
2.33259
2.32479
2.31745
2.31568
2.31222
2.31233
2.31202
2.31142
2.31514
2.31824
2.31995
2.31908
2.32592
2.32694
2.32284
2.32739
2.32348
2.32355
2.32093
2.31877
2.32038
2.3129
2.31024
2.30719
2.30333
2.30216
2.30252
2.30458
2.30526
2.32278
2.32883
2.36306
2.39501
2.45007
2.55846
2.67181
2.78329
2.89232
2.95561
2.97183
2.93059
2.85392
2.78037
2.75126
2.76926
2.84166
2.8886
2.9445
2.99384
3.04376
3.07073
3.07338
3.09935
3.12958
3.18873
3.17056
3.09159
0.984319
0.988294
0.987477
0.98719
0.986727
0.986168
0.985565
0.984887
0.984127
0.983376
0.982515
0.981612
0.980743
0.979787
0.978795
0.977869
0.976948
0.976011
0.975118
0.974195
0.97318
0.972337
0.971605
0.970933
0.9705
0.969914
0.969334
0.968902
0.968206
0.967288
0.966416
0.965597
0.964662
0.963644
0.962394
0.960824
0.958654
0.956341
0.954528
0.952656
0.951069
0.941229
0.975846
1.84047
2.16489
2.18792
2.18333
2.33982
2.36804
2.5123
2.46266
2.52084
2.4402
2.47248
2.44098
2.4002
2.41248
2.36187
2.35054
2.36966
2.36242
2.35914
2.34995
2.34277
2.33323
2.32929
2.32658
2.32812
2.33083
2.33188
2.33548
2.33742
2.33774
2.33662
2.34175
2.33983
2.33704
2.34113
2.3364
2.33691
2.33546
2.33719
2.3354
2.33348
2.33458
2.34005
2.34353
2.3472
2.36496
2.38626
2.41752
2.46805
2.52145
2.6096
2.70474
2.79809
2.86833
2.9523
3.00792
3.04927
3.02034
2.94224
2.89444
2.82812
2.75005
2.74342
2.78425
2.84334
2.88374
2.93217
2.98314
3.03636
3.06533
3.06672
3.0893
3.12169
3.18202
3.16463
3.08371
0.984373
0.988338
0.987502
0.987197
0.986757
0.986235
0.985596
0.984891
0.984153
0.983405
0.982526
0.981604
0.980734
0.979802
0.978739
0.977782
0.976854
0.9759
0.974953
0.973954
0.972886
0.971984
0.971186
0.970437
0.969943
0.969193
0.968448
0.967643
0.966963
0.966319
0.965227
0.964194
0.963202
0.962243
0.961126
0.960103
0.959024
0.957885
0.955528
0.954216
0.943697
0.939928
0.891024
1.92488
2.15817
2.16981
2.18497
2.2544
2.26528
2.49006
2.51294
2.59704
2.51572
2.56585
2.47978
2.4663
2.45018
2.41352
2.40915
2.40283
2.39441
2.38994
2.37917
2.37358
2.36326
2.36008
2.35747
2.35756
2.35773
2.35823
2.36243
2.3654
2.36705
2.36921
2.37652
2.37491
2.37567
2.37942
2.37605
2.3811
2.38435
2.38992
2.39996
2.40619
2.42847
2.4477
2.48188
2.51872
2.57369
2.64828
2.72439
2.79471
2.86238
2.92524
2.99181
3.03547
3.07732
3.09015
3.09
3.05758
3.01486
2.93879
2.87035
2.81618
2.75221
2.72152
2.76214
2.82359
2.86956
2.92382
2.98133
3.03047
3.05929
3.05929
3.08036
3.11483
3.17495
3.15901
3.07535
0.984429
0.98836
0.987549
0.987258
0.98679
0.986229
0.985632
0.984944
0.984169
0.983413
0.982566
0.981609
0.980725
0.979803
0.9787
0.977687
0.976753
0.975803
0.97481
0.973628
0.972548
0.971598
0.970726
0.969956
0.969364
0.96858
0.967319
0.966422
0.965599
0.96502
0.964261
0.96293
0.961868
0.961151
0.960726
0.960533
0.961
0.963015
0.964848
0.972164
0.973149
1.01516
1.40315
2.2099
2.26286
2.24523
2.2356
2.22954
2.29199
2.30696
2.52515
2.55574
2.62997
2.59068
2.52231
2.5064
2.43337
2.4773
2.41141
2.41154
2.40566
2.39744
2.40141
2.39283
2.38674
2.38594
2.38295
2.38331
2.38396
2.38546
2.39252
2.3973
2.40279
2.40726
2.42277
2.42639
2.44382
2.45539
2.46817
2.49673
2.52192
2.55503
2.59236
2.64003
2.69908
2.75386
2.81148
2.86158
2.90209
2.94936
2.99331
3.04284
3.06046
3.08681
3.11736
3.13361
3.13019
3.10832
3.08367
3.04823
3.00347
2.93373
2.86323
2.81208
2.74646
2.73444
2.77369
2.83421
2.87431
2.92073
2.977
3.0253
3.05512
3.05319
3.07205
3.10835
3.16834
3.15393
3.06846
0.984489
0.988413
0.987576
0.987271
0.986831
0.986296
0.985661
0.984971
0.984203
0.983438
0.982606
0.981629
0.980708
0.979792
0.978675
0.977597
0.976624
0.975682
0.974658
0.973356
0.972185
0.971163
0.970186
0.969441
0.968739
0.967779
0.966288
0.965232
0.964263
0.963677
0.962973
0.961968
0.960543
0.959662
0.959165
0.958749
0.958654
0.959861
0.960952
0.965489
0.968923
0.999907
1.76692
2.2623
2.29598
2.27559
2.25711
2.24786
2.23649
2.27063
2.37464
2.49076
2.62581
2.54423
2.57948
2.52167
2.4338
2.49422
2.43922
2.42472
2.42893
2.42523
2.42809
2.42596
2.4233
2.42869
2.42831
2.43887
2.44444
2.45266
2.46791
2.48878
2.50512
2.53628
2.55658
2.59157
2.61955
2.66457
2.71743
2.76277
2.81049
2.8597
2.89783
2.93455
2.9746
3.01007
3.05438
3.08768
3.10196
3.11435
3.13202
3.14539
3.14768
3.14252
3.13894
3.13358
3.12599
3.10048
3.07827
3.03599
2.99149
2.928
2.85624
2.80677
2.75124
2.73095
2.76982
2.83072
2.87492
2.92321
2.97734
3.02349
3.05029
3.04705
3.06441
3.10172
3.16185
3.14774
3.06137
0.984553
0.988452
0.987628
0.987343
0.986872
0.986307
0.985704
0.985031
0.984255
0.983457
0.982645
0.981652
0.980692
0.979756
0.978668
0.97753
0.97648
0.975552
0.974486
0.973118
0.971803
0.970678
0.9696
0.968913
0.968066
0.966909
0.965233
0.964031
0.963001
0.96216
0.961643
0.960915
0.959317
0.958278
0.957561
0.956851
0.956467
0.956628
0.956485
0.95737
0.95281
0.971884
1.90757
2.29289
2.30192
2.27936
2.27852
2.25768
2.24726
2.24794
2.24609
2.38942
2.43608
2.5734
2.53714
2.56028
2.44494
2.48604
2.4799
2.46974
2.47151
2.47867
2.46622
2.48198
2.48541
2.50722
2.52218
2.55402
2.58143
2.62025
2.66396
2.70772
2.75703
2.79909
2.83433
2.87126
2.89896
2.9311
2.9595
2.99212
3.03253
3.06175
3.0876
3.09695
3.1167
3.13398
3.14832
3.15367
3.15779
3.1569
3.15663
3.15357
3.14447
3.14216
3.13489
3.12529
3.11655
3.09364
3.06838
3.02947
2.9823
2.92471
2.85446
2.80916
2.75721
2.74206
2.77851
2.83836
2.8822
2.92787
2.98038
3.02241
3.04771
3.042
3.05761
3.09555
3.15511
3.14189
3.05538
0.984618
0.988502
0.987672
0.987382
0.986909
0.986381
0.985741
0.985078
0.984311
0.983494
0.982673
0.981707
0.980684
0.979724
0.978677
0.977468
0.976316
0.975394
0.974285
0.972921
0.971433
0.970186
0.96898
0.968309
0.967338
0.966039
0.964143
0.962821
0.961689
0.960614
0.960172
0.959379
0.958456
0.956718
0.95562
0.954228
0.952328
0.948928
0.944144
0.934588
0.927823
0.899287
2.01544
2.27232
2.28614
2.285
2.2965
2.28148
2.2807
2.27182
2.26369
2.27387
2.3187
2.50653
2.5348
2.62455
2.53003
2.52222
2.53773
2.53148
2.54061
2.56364
2.57041
2.61694
2.64913
2.70067
2.75788
2.79628
2.84067
2.88301
2.91974
2.96088
2.99543
3.03476
3.07209
3.10173
3.12401
3.13686
3.14168
3.1475
3.14991
3.15756
3.1593
3.16014
3.16058
3.1632
3.16582
3.16076
3.15453
3.15009
3.14895
3.14708
3.14224
3.13965
3.12946
3.11945
3.10947
3.08351
3.05755
3.01887
2.97416
2.91953
2.85376
2.81253
2.76373
2.75077
2.7879
2.8467
2.88983
2.93363
2.98544
3.02355
3.04565
3.03727
3.05149
3.08767
3.14903
3.13619
3.05103
0.984689
0.988549
0.987719
0.987417
0.98698
0.986438
0.985792
0.985142
0.984382
0.983532
0.9827
0.981775
0.980697
0.979689
0.978666
0.977413
0.976178
0.975184
0.974064
0.972718
0.971042
0.96967
0.968339
0.967596
0.96655
0.96519
0.963022
0.961522
0.960296
0.959208
0.958339
0.957825
0.957068
0.955714
0.954414
0.953742
0.953671
0.953226
0.955751
0.951193
0.973602
1.18802
2.17519
2.3395
2.34862
2.34469
2.35045
2.33671
2.32444
2.31224
2.29867
2.28225
2.31031
2.40787
2.61159
2.55371
2.64723
2.54824
2.61402
2.66462
2.67898
2.72774
2.78101
2.81975
2.86075
2.90686
2.94351
2.98244
3.01538
3.0393
3.06093
3.08849
3.10906
3.12682
3.14323
3.15975
3.1693
3.17546
3.17873
3.18223
3.17913
3.17648
3.16895
3.15969
3.15635
3.15501
3.15779
3.15457
3.15096
3.14688
3.14452
3.14176
3.13712
3.13126
3.12217
3.10936
3.09896
3.07723
3.0536
3.01623
2.97194
2.91905
2.85531
2.8145
2.76886
2.75942
2.79665
2.85525
2.89868
2.94079
2.98954
3.02495
3.04635
3.03318
3.04532
3.07956
3.14261
3.13033
3.04602
0.984761
0.988598
0.987783
0.987495
0.987028
0.986499
0.985852
0.985194
0.984461
0.98359
0.982731
0.981838
0.980726
0.979662
0.978619
0.977389
0.97608
0.974921
0.97385
0.972553
0.970657
0.969143
0.967719
0.966738
0.965717
0.9644
0.961912
0.960219
0.958868
0.95771
0.956479
0.955998
0.955315
0.954718
0.953541
0.953042
0.953877
0.954461
0.957309
0.958377
0.979506
1.55559
2.3449
2.39362
2.37897
2.36627
2.35153
2.33454
2.31811
2.30599
2.2884
2.28631
2.26887
2.43897
2.51766
2.68919
2.75205
2.75418
2.80281
2.86421
2.90903
2.94447
2.98932
3.01766
3.03496
3.0455
3.06479
3.07689
3.08668
3.09915
3.11333
3.12541
3.13263
3.14162
3.15192
3.16421
3.17153
3.17469
3.17415
3.17848
3.17762
3.1756
3.16827
3.16002
3.15379
3.15006
3.15023
3.14796
3.14456
3.14038
3.1375
3.13635
3.13194
3.12413
3.11506
3.10318
3.09246
3.07137
3.04824
3.01099
2.96871
2.91864
2.85828
2.81867
2.77584
2.76772
2.80471
2.86136
2.90504
2.94789
2.99558
3.02697
3.04418
3.02812
3.03902
3.07168
3.13635
3.12447
3.04413
0.984838
0.988653
0.987845
0.987564
0.987088
0.986577
0.985937
0.985249
0.984537
0.983658
0.982771
0.981879
0.980787
0.979646
0.978567
0.977391
0.975982
0.97466
0.97363
0.972339
0.970305
0.968614
0.967051
0.965808
0.964829
0.963523
0.96083
0.958832
0.957322
0.956054
0.954798
0.953686
0.953385
0.952594
0.952023
0.950944
0.951369
0.952184
0.956064
0.958288
0.973786
1.9273
2.39019
2.40012
2.37723
2.36485
2.35025
2.34168
2.33362
2.33346
2.33635
2.36399
2.36431
2.60238
2.73716
2.87304
2.96628
2.9971
3.02571
3.03746
3.0608
3.07291
3.08513
3.09298
3.10032
3.10441
3.10664
3.10884
3.10823
3.11265
3.11515
3.12005
3.12339
3.13166
3.14097
3.15162
3.16
3.1672
3.16861
3.1735
3.17566
3.17568
3.16972
3.16148
3.1538
3.14697
3.14525
3.14452
3.1417
3.13641
3.13136
3.12763
3.12316
3.11494
3.10618
3.09402
3.08416
3.0647
3.04342
3.00865
2.96839
2.9206
2.86182
2.8233
2.78102
2.77887
2.81523
2.87217
2.91292
2.95107
2.99556
3.02558
3.04341
3.0234
3.03282
3.06434
3.12968
3.11757
3.0402
0.984917
0.988711
0.987911
0.987634
0.987173
0.986652
0.986028
0.985326
0.984617
0.983756
0.982818
0.981904
0.980875
0.979659
0.978515
0.977354
0.975919
0.974451
0.973329
0.971966
0.970094
0.968114
0.96639
0.964805
0.963895
0.962376
0.960144
0.957391
0.955619
0.954227
0.952874
0.951487
0.950532
0.949954
0.948875
0.948272
0.945648
0.943982
0.943951
0.939794
0.953122
1.97329
2.36595
2.37587
2.36436
2.36484
2.36275
2.35873
2.35888
2.35327
2.37561
2.44426
2.49395
2.78537
2.94533
3.07142
3.08499
3.09348
3.09747
3.10389
3.11365
3.12063
3.126
3.12589
3.12244
3.11941
3.11531
3.11215
3.1104
3.11181
3.11129
3.10915
3.10939
3.11668
3.12503
3.13316
3.14077
3.15003
3.15625
3.1639
3.16733
3.16845
3.16364
3.15649
3.14826
3.14085
3.13663
3.13539
3.13259
3.12779
3.12174
3.11878
3.11389
3.10623
3.09831
3.08734
3.07816
3.05998
3.0396
3.00635
2.96718
2.92065
2.86582
2.82744
2.79106
2.78299
2.81961
2.876
2.91942
2.95811
2.99975
3.02538
3.03897
3.01687
3.02586
3.05673
3.12278
3.11092
3.04125
0.985003
0.988776
0.987984
0.987714
0.987245
0.986739
0.98613
0.985412
0.984689
0.983881
0.982891
0.981945
0.980951
0.979702
0.978475
0.977272
0.975904
0.974332
0.972937
0.971547
0.969868
0.967611
0.965719
0.963811
0.962874
0.961199
0.959424
0.955984
0.953855
0.952185
0.950562
0.948885
0.94709
0.946487
0.944738
0.942308
0.937362
0.930413
0.919038
0.905153
0.870429
2.03777
2.34525
2.36768
2.37186
2.37704
2.38069
2.38554
2.39694
2.40643
2.47105
2.62918
2.77233
2.98626
3.09885
3.13274
3.13452
3.13232
3.13813
3.13656
3.14043
3.13938
3.13597
3.12918
3.11841
3.1119
3.10423
3.09926
3.09556
3.09379
3.09103
3.0872
3.08592
3.09372
3.10191
3.11164
3.11836
3.13005
3.14009
3.15099
3.15567
3.15874
3.15628
3.15095
3.14319
3.13517
3.1304
3.12908
3.12669
3.12252
3.11625
3.11269
3.1076
3.10063
3.09286
3.0821
3.07221
3.0541
3.0336
3.00166
2.96445
2.92032
2.86763
2.83149
2.79391
2.79458
2.83386
2.88826
2.92428
2.95909
2.99876
3.02222
3.03521
3.0112
3.01989
3.04979
3.11559
3.10381
3.03834
0.985093
0.988844
0.988063
0.987799
0.987339
0.986822
0.986239
0.985519
0.984777
0.983995
0.982994
0.982003
0.980997
0.979788
0.978461
0.977199
0.975872
0.974286
0.972621
0.971168
0.969497
0.967145
0.96508
0.962962
0.961554
0.960079
0.958348
0.955073
0.952049
0.949999
0.948244
0.946531
0.944673
0.943224
0.942777
0.941649
0.940255
0.942007
0.939464
0.961591
1.12069
2.19199
2.38131
2.39682
2.40367
2.40375
2.411
2.40735
2.4368
2.48096
2.60712
2.82295
2.96767
3.08592
3.1232
3.12791
3.12827
3.13012
3.13358
3.14119
3.13987
3.13827
3.13271
3.12517
3.11439
3.10627
3.09946
3.09364
3.08777
3.08207
3.07827
3.07561
3.07346
3.07725
3.08231
3.09123
3.09832
3.11001
3.12219
3.13602
3.14315
3.14849
3.14852
3.14497
3.13834
3.13057
3.12539
3.12344
3.12108
3.11712
3.11046
3.10645
3.10035
3.09357
3.08604
3.07551
3.06535
3.04831
3.02887
2.999
2.96322
2.92284
2.87355
2.83948
2.80344
2.79764
2.83629
2.8911
2.93134
2.96597
3.00232
3.02155
3.02956
3.00356
3.01236
3.04162
3.10801
3.0974
3.04092
0.985191
0.988921
0.988148
0.987891
0.987445
0.986918
0.986346
0.985638
0.984878
0.984096
0.983128
0.982072
0.98106
0.979895
0.978489
0.977124
0.975812
0.974322
0.972429
0.970708
0.96895
0.966839
0.964449
0.962256
0.960127
0.958782
0.956685
0.95462
0.950509
0.947658
0.945529
0.943659
0.941791
0.940076
0.939119
0.939053
0.938362
0.939208
0.937521
0.955814
1.47267
2.35636
2.43008
2.42216
2.41761
2.41373
2.42804
2.42874
2.49759
2.6308
2.82562
2.96738
3.06934
3.10341
3.10248
3.1021
3.10041
3.10509
3.11115
3.11893
3.11965
3.12
3.11703
3.11394
3.10957
3.10612
3.10205
3.09609
3.087
3.07711
3.06646
3.0612
3.05969
3.06112
3.06205
3.06383
3.06732
3.08251
3.09554
3.11272
3.12321
3.13122
3.13445
3.13332
3.12931
3.12407
3.11845
3.11718
3.11529
3.11245
3.10558
3.10142
3.09554
3.08879
3.08146
3.0711
3.06029
3.04354
3.02389
2.99455
2.95892
2.91934
2.87312
2.83947
2.80659
2.80957
2.84961
2.90135
2.93304
2.96527
3.00067
3.019
3.0259
2.99771
3.00586
3.03431
3.10133
3.08939
3.03748
0.985293
0.989002
0.988241
0.987992
0.987556
0.987028
0.986463
0.98577
0.984993
0.98421
0.983276
0.982174
0.981151
0.980001
0.978539
0.977093
0.975813
0.974303
0.972264
0.97032
0.968597
0.966563
0.963842
0.961435
0.958907
0.957074
0.955272
0.952851
0.950054
0.945586
0.942667
0.94037
0.938446
0.936714
0.935449
0.935667
0.936681
0.939675
0.941392
0.96148
1.84835
2.41204
2.42892
2.40903
2.39772
2.39117
2.42204
2.46649
2.59231
2.80791
2.96357
3.06073
3.09145
3.08983
3.08805
3.08615
3.08489
3.08992
3.0952
3.10109
3.10113
3.10107
3.09934
3.09809
3.09686
3.09754
3.09647
3.09472
3.08691
3.07778
3.06586
3.0548
3.04647
3.04279
3.04226
3.04431
3.043
3.05376
3.06851
3.08802
3.10215
3.11393
3.12117
3.12139
3.12042
3.11767
3.11277
3.1106
3.1091
3.10645
3.09927
3.09484
3.08834
3.08112
3.074
3.06406
3.05338
3.0373
3.01867
2.99167
2.9588
2.92285
2.88093
2.84928
2.81611
2.81076
2.85023
2.90314
2.94024
2.97194
3.00347
3.018
3.01871
2.98896
2.99694
3.02561
3.09391
3.08176
3.04059
0.985406
0.989091
0.988342
0.988101
0.987675
0.987155
0.986592
0.985914
0.985125
0.984344
0.98343
0.982309
0.981257
0.980111
0.978612
0.977122
0.97582
0.974266
0.972109
0.970048
0.968232
0.966222
0.963383
0.960508
0.957855
0.955147
0.95345
0.951012
0.948528
0.944489
0.939938
0.936648
0.934195
0.931857
0.929757
0.927779
0.926739
0.928317
0.925385
0.939336
1.98874
2.36504
2.37829
2.36386
2.36995
2.38743
2.43976
2.6252
2.80834
2.9767
3.0603
3.08582
3.07831
3.07722
3.07112
3.0707
3.0716
3.07797
3.08266
3.08586
3.085
3.0838
3.08231
3.08172
3.08143
3.0838
3.0844
3.08491
3.08011
3.07521
3.06714
3.05746
3.04494
3.03429
3.02892
3.02653
3.02691
3.0291
3.03811
3.05581
3.0724
3.08837
3.0991
3.10323
3.10497
3.10578
3.10256
3.10026
3.10021
3.099
3.09322
3.08894
3.08298
3.07561
3.06906
3.05987
3.04943
3.03366
3.01522
2.98899
2.95476
2.91771
2.87839
2.84808
2.81949
2.8215
2.86087
2.91025
2.94132
2.9708
3.00056
3.01459
3.01553
2.98396
2.99089
3.01832
3.08689
3.07362
3.03646
0.985524
0.989187
0.988452
0.988221
0.987805
0.987298
0.986739
0.986069
0.985278
0.9845
0.983594
0.982469
0.981395
0.980233
0.978722
0.977213
0.975864
0.974263
0.972006
0.969856
0.967954
0.965919
0.963341
0.959778
0.956697
0.953679
0.951128
0.949087
0.945953
0.943303
0.937484
0.932559
0.928517
0.924186
0.920275
0.914699
0.908701
0.896218
0.886684
0.849751
2.02057
2.32406
2.34323
2.35321
2.37444
2.46386
2.57047
2.83096
3.00438
3.0848
3.1057
3.09692
3.08869
3.07884
3.06969
3.06613
3.06667
3.07185
3.07536
3.07609
3.07428
3.07229
3.07043
3.0698
3.06926
3.07136
3.07174
3.07207
3.0691
3.0669
3.06243
3.05857
3.0481
3.03616
3.02366
3.01493
3.01119
3.01114
3.01514
3.02629
3.04315
3.06163
3.07852
3.08815
3.09196
3.0959
3.09484
3.09235
3.09331
3.09257
3.0877
3.08129
3.07539
3.06712
3.06023
3.05209
3.04223
3.02735
3.00969
2.98563
2.95521
2.92203
2.88596
2.85766
2.82772
2.82236
2.85978
2.91247
2.94874
2.9761
3.00221
3.01242
3.00759
2.97527
2.98211
3.00943
3.07891
3.06572
3.03917
0.985656
0.989292
0.988571
0.988351
0.987945
0.987461
0.986898
0.986227
0.985455
0.984673
0.983769
0.982656
0.98157
0.980386
0.978865
0.977341
0.975967
0.974278
0.971899
0.969689
0.967671
0.965772
0.963303
0.959208
0.955718
0.952309
0.948857
0.946713
0.943677
0.939834
0.936358
0.92948
0.924241
0.920623
0.919176
0.91835
0.92281
0.923199
0.956396
1.28815
2.23374
2.3481
2.34214
2.38541
2.4392
2.66786
2.83601
3.02105
3.08504
3.09837
3.08809
3.08519
3.07782
3.0726
3.06634
3.06272
3.06219
3.0652
3.06607
3.06506
3.06295
3.06157
3.05974
3.05967
3.059
3.06061
3.0604
3.0604
3.05792
3.05678
3.05403
3.05267
3.04597
3.03796
3.02521
3.01272
3.00335
3.00013
3.0011
3.00346
3.01554
3.03049
3.05046
3.06509
3.07275
3.07919
3.08147
3.07951
3.08064
3.08155
3.07816