/*--------------------------------*- C++ -*----------------------------------*\
| =========                 |                                                 |
| \\      /  F ield         | OpenFOAM: The Open Source CFD Toolbox           |
|  \\    /   O peration     | Version:  2.2.x                                 |
|   \\  /    A nd           | Web:      www.OpenFOAM.org                      |
|    \\/     M anipulation  |                                                 |
\*---------------------------------------------------------------------------*/
FoamFile
{
    version     2.0;
    format      ascii;
    class       volVectorField;
    location    "2.8";
    object      U;
}
// * * * * * * * * * * * * * * * * * * * * * * * * * * * * * * * * * * * * * //

dimensions      [0 1 -1 0 0 0 0];

internalField   nonuniform List<vector> 
14161
(
(1.50492 -2.00423e-06 3.97942e-22)
(1.50397 7.57529e-07 -5.03166e-22)
(1.50416 2.45403e-06 -4.55591e-22)
(1.50425 3.53268e-06 -1.13332e-21)
(1.5044 -1.61504e-06 -1.42622e-21)
(1.50458 -5.0879e-06 -1.83929e-21)
(1.50477 1.6133e-06 -8.22397e-22)
(1.50497 3.95301e-06 -1.1746e-21)
(1.50521 1.79004e-07 -5.31628e-22)
(1.50547 -3.58728e-06 -1.35341e-21)
(1.50572 1.71753e-06 -1.05862e-21)
(1.506 1.57921e-06 -1.23533e-21)
(1.50626 2.4932e-07 -1.6886e-21)
(1.50654 1.1134e-07 -1.37825e-21)
(1.50684 2.18436e-06 -1.80284e-21)
(1.5071 2.47507e-07 -1.51003e-21)
(1.5074 -9.69655e-07 -1.82973e-21)
(1.5077 1.50969e-06 -2.12205e-21)
(1.50792 2.91099e-06 -1.63346e-21)
(1.50808 3.41323e-06 -2.16415e-21)
(1.50819 2.96005e-06 -2.08636e-21)
(1.50828 1.40907e-06 -1.87995e-21)
(1.50839 2.72215e-07 -2.11239e-21)
(1.50853 -1.15949e-06 -1.80811e-21)
(1.5086 8.00966e-07 -2.25324e-21)
(1.50856 3.4011e-06 -2.05618e-21)
(1.50847 3.19216e-06 -2.09557e-21)
(1.50828 5.02608e-06 -2.29917e-21)
(1.50804 6.84769e-06 -2.27183e-21)
(1.50771 5.67645e-06 -2.64563e-21)
(1.50714 1.36001e-05 -1.81394e-21)
(1.50647 1.43412e-05 -2.5064e-21)
(1.50579 -2.86833e-06 -1.4521e-21)
(1.50504 1.23277e-05 -2.52997e-21)
(1.50426 2.2902e-05 -1.16711e-21)
(1.50321 1.95776e-05 -1.89129e-21)
(1.50163 1.07825e-05 -1.69528e-21)
(1.50001 3.16514e-05 -1.6167e-21)
(1.49875 -1.47279e-05 -1.70747e-21)
(1.49741 0.00011393 -1.85128e-21)
(1.49649 3.70293e-05 -1.38264e-21)
(1.49316 2.65647e-05 -6.60746e-23)
(1.49026 0.00147723 3.61294e-20)
(1.14291 0.0202234 -4.45286e-18)
(0.566538 0.0159218 -6.71287e-18)
(0.509096 -0.0104875 -3.02318e-18)
(0.531297 -0.0151856 -7.12597e-19)
(0.554448 -0.0151446 2.58656e-19)
(0.579984 -0.0118 3.09455e-19)
(0.601982 -0.0103659 3.54737e-19)
(0.622874 -0.00986648 3.27455e-19)
(0.642155 -0.00870158 3.38775e-19)
(0.661145 -0.00825214 3.08078e-19)
(0.679106 -0.00722172 3.15892e-19)
(0.695648 -0.00628382 2.86303e-19)
(0.709705 -0.0053677 2.86913e-19)
(0.722193 -0.00460333 2.54562e-19)
(0.733342 -0.00394563 2.4495e-19)
(0.742963 -0.00311391 2.2253e-19)
(0.75096 -0.00274374 2.1615e-19)
(0.757743 -0.00255609 1.98294e-19)
(0.763654 -0.00241411 1.79651e-19)
(0.76898 -0.00228542 1.48519e-19)
(0.773746 -0.00207002 1.15212e-19)
(0.777717 -0.0018294 1.21732e-19)
(0.78071 -0.00153682 1.13037e-19)
(0.78312 -0.00132295 1.14901e-19)
(0.784818 -0.00118016 1.22726e-19)
(0.785786 -0.00103389 1.41805e-19)
(0.786327 -0.000951297 1.46016e-19)
(0.785197 -0.000850219 2.00302e-19)
(0.785164 -0.000809124 2.77076e-19)
(0.784997 -0.000698284 2.78944e-19)
(0.783245 -0.000503489 3.28852e-19)
(0.782417 -0.000570816 3.73006e-19)
(0.781799 -0.000757843 4.1994e-19)
(0.781997 -0.00098601 4.60871e-19)
(0.783369 -0.000909836 5.30324e-19)
(0.784032 -0.000874207 5.44293e-19)
(0.784199 -0.00115721 6.44075e-19)
(0.788171 -0.00129887 6.65151e-19)
(0.790108 -0.00122083 7.32788e-19)
(0.792007 -0.00125632 8.17483e-19)
(0.796941 -0.00179172 8.18459e-19)
(0.801005 -0.00169524 8.51515e-19)
(0.804899 -0.00148331 9.03143e-19)
(0.808743 -0.0013829 9.35476e-19)
(0.812484 -0.00142534 1.00801e-18)
(0.817223 -0.00142943 1.08025e-18)
(0.820897 -0.00133187 1.06578e-18)
(0.824055 -0.00130314 1.13201e-18)
(0.827229 -0.00152568 1.16805e-18)
(0.83384 -0.00192209 1.12118e-18)
(0.838275 -0.00195134 1.2633e-18)
(0.84179 -0.00193271 1.10453e-18)
(0.845509 -0.00197631 1.00427e-18)
(0.848484 -0.00211512 9.90338e-19)
(0.851736 -0.00190979 9.08398e-19)
(0.856424 -0.000846756 5.70776e-19)
(0.861936 -0.0031942 5.14104e-19)
(0.873261 -0.00313372 7.17678e-19)
(0.888022 -0.0032262 5.75814e-19)
(0.910363 -0.00348769 5.5027e-19)
(0.93137 -0.00249049 5.53833e-19)
(0.953712 -0.00137351 8.90275e-19)
(0.96315 -0.00190024 6.93588e-19)
(0.973363 -0.00267227 3.00153e-18)
(0.980196 -0.00387657 2.36266e-18)
(0.984532 -0.00389819 2.32939e-17)
(0.99207 -0.00807961 4.46875e-17)
(0.939386 0.0046327 9.64397e-17)
(0.891911 0.0222446 5.97051e-17)
(0.760463 0.0639465 5.9041e-17)
(0.637991 0.0793187 4.14432e-17)
(0.537146 0.0823374 4.28011e-17)
(0.433603 0.0829606 3.27363e-17)
(0.337043 0.0991782 4.56838e-17)
(0.221097 0.116164 3.27525e-17)
(0.11887 0.117465 6.45231e-17)
(1.50493 -3.13036e-06 -3.0067e-22)
(1.50397 1.00004e-06 1.40499e-21)
(1.50418 9.27587e-07 2.06031e-21)
(1.50427 1.66419e-06 1.10866e-22)
(1.5044 -2.87318e-07 -1.43841e-22)
(1.50455 -6.67234e-07 1.42741e-22)
(1.50478 -3.89905e-07 -2.05947e-22)
(1.50501 -7.95512e-07 2.38913e-22)
(1.50523 1.36722e-06 8.31988e-22)
(1.50546 -3.05647e-07 1.58647e-22)
(1.50574 -3.02181e-07 4.16439e-22)
(1.50602 -8.4833e-07 4.22331e-24)
(1.50627 1.15517e-06 1.10608e-21)
(1.50655 1.90501e-06 -8.87909e-22)
(1.50684 3.21984e-06 -1.82592e-21)
(1.50711 1.54773e-07 -1.32329e-21)
(1.50741 -1.65542e-06 -1.36918e-21)
(1.5077 1.81459e-06 -2.54701e-21)
(1.50793 5.29618e-06 -1.79469e-21)
(1.50808 8.18047e-06 -3.06085e-21)
(1.5082 7.65657e-06 -2.74259e-21)
(1.5083 3.65306e-06 -3.14103e-21)
(1.50841 1.21126e-06 -3.51676e-21)
(1.50854 -1.23206e-06 -4.09663e-21)
(1.50861 1.54004e-06 -2.67806e-21)
(1.50857 7.44929e-06 -2.72062e-21)
(1.50848 8.05946e-06 -3.57177e-21)
(1.5083 1.0767e-05 -3.66862e-21)
(1.50806 1.44424e-05 -4.24471e-21)
(1.50773 1.83504e-05 -3.38916e-21)
(1.5072 2.52151e-05 -3.62227e-21)
(1.50649 2.51812e-05 -3.47751e-21)
(1.50577 9.41855e-06 -2.20314e-21)
(1.50497 2.11552e-05 -3.83711e-21)
(1.50432 4.89869e-05 -2.35384e-21)
(1.50336 6.79736e-05 -3.33324e-21)
(1.50168 6.32378e-05 -2.88724e-21)
(1.5002 8.60627e-05 -2.49655e-21)
(1.49885 4.58118e-05 -2.24832e-21)
(1.49774 0.000198581 -3.61121e-21)
(1.4968 0.000452434 -2.39369e-21)
(1.49551 0.000280526 -4.58394e-22)
(1.49166 0.00422827 -1.02507e-19)
(1.19877 0.0657696 -3.87465e-18)
(0.596712 0.0246406 -6.8049e-18)
(0.538477 -0.0151819 -3.92989e-18)
(0.559486 -0.0247397 -1.69427e-18)
(0.57876 -0.0286765 -4.11535e-19)
(0.601784 -0.0250218 -2.35758e-19)
(0.624201 -0.0195552 -4.3441e-20)
(0.645482 -0.014814 -6.30688e-20)
(0.664633 -0.0122595 -5.78632e-20)
(0.683696 -0.0108911 -8.59289e-20)
(0.701406 -0.00897328 -7.11011e-20)
(0.717894 -0.00757981 -9.22095e-20)
(0.73235 -0.00680955 -9.06767e-20)
(0.745485 -0.00573567 -1.05352e-19)
(0.756871 -0.00471424 -1.26052e-19)
(0.766639 -0.00451327 -1.38369e-19)
(0.774316 -0.00416865 -1.44739e-19)
(0.780708 -0.00389208 -1.54422e-19)
(0.786339 -0.00360874 -1.42975e-19)
(0.791279 -0.00335549 -1.80506e-19)
(0.795558 -0.00283906 -1.77747e-19)
(0.799018 -0.00233179 -1.95928e-19)
(0.801357 -0.0018103 -1.63594e-19)
(0.803138 -0.00148274 -1.7289e-19)
(0.804215 -0.00121872 -1.4413e-19)
(0.804802 -0.00102976 -1.19619e-19)
(0.80452 -0.000925656 -8.4028e-20)
(0.803278 -0.000792482 -4.69137e-20)
(0.802785 -0.000733398 1.89475e-20)
(0.802055 -0.000543256 6.63988e-20)
(0.800418 -0.000311181 1.00735e-19)
(0.79959 -0.000474247 1.66392e-19)
(0.798947 -0.000738092 1.99319e-19)
(0.799138 -0.00101264 2.8544e-19)
(0.800425 -0.000843338 3.30903e-19)
(0.800726 -0.000875137 3.88322e-19)
(0.800741 -0.0012587 4.47576e-19)
(0.804375 -0.00148161 4.56516e-19)
(0.805919 -0.00141489 5.78367e-19)
(0.808235 -0.00144407 6.63813e-19)
(0.812704 -0.00224383 6.75576e-19)
(0.816161 -0.00209717 7.25234e-19)
(0.819538 -0.00185137 7.77608e-19)
(0.82324 -0.00180501 8.11589e-19)
(0.82685 -0.00182399 8.64127e-19)
(0.831158 -0.00181919 1.00882e-18)
(0.834602 -0.00167003 9.46886e-19)
(0.837574 -0.00170878 1.05891e-18)
(0.840714 -0.0020616 1.07941e-18)
(0.846986 -0.00272598 1.07104e-18)
(0.851238 -0.00272173 1.17946e-18)
(0.854555 -0.00276773 1.12662e-18)
(0.857959 -0.00274403 9.1087e-19)
(0.860328 -0.0030912 1.07034e-18)
(0.862757 -0.00275182 7.89903e-19)
(0.870263 -0.00105274 5.92839e-19)
(0.875466 -0.00448388 5.70922e-19)
(0.88698 -0.00421149 7.24687e-19)
(0.90254 -0.00512354 5.69268e-19)
(0.922322 -0.00543231 5.41756e-19)
(0.937981 -0.00291526 6.4944e-19)
(0.964541 -0.00172769 9.8253e-19)
(0.974075 -0.00291811 1.53177e-18)
(0.984363 -0.00441497 2.22736e-18)
(0.987035 -0.00408395 6.23381e-18)
(0.991812 -0.00637968 1.76118e-17)
(0.93994 -0.00903389 4.7631e-17)
(0.800256 0.0122433 6.90311e-17)
(0.638702 0.0457669 4.19186e-17)
(0.495276 0.0893798 3.4317e-17)
(0.372872 0.0939308 2.03342e-17)
(0.295285 0.0960576 2.95139e-17)
(0.226561 0.0963979 2.27867e-17)
(0.174025 0.112924 4.35974e-17)
(0.109333 0.133534 3.63129e-17)
(0.0974418 0.220618 5.97307e-17)
(1.50493 -5.05772e-06 1.62184e-21)
(1.50398 1.57668e-06 -1.71888e-21)
(1.50417 1.02023e-06 -2.26097e-21)
(1.50426 1.96589e-06 -2.95823e-21)
(1.50441 9.95656e-07 -2.79488e-21)
(1.50459 9.43267e-07 -2.60167e-21)
(1.50477 -3.04543e-07 -2.76965e-21)
(1.50497 -1.90399e-07 -1.67488e-21)
(1.50523 1.07694e-07 -9.81708e-22)
(1.5055 -2.20542e-06 -8.14452e-22)
(1.50574 8.11046e-08 9.86923e-22)
(1.50599 1.7395e-06 -2.84425e-21)
(1.50627 -3.86417e-07 -2.22613e-21)
(1.50656 1.07132e-07 -1.67119e-22)
(1.50684 6.30252e-06 6.74048e-22)
(1.50712 -6.10205e-07 4.20671e-23)
(1.50741 -3.27892e-06 2.4289e-22)
(1.5077 3.36804e-06 -1.07131e-21)
(1.50792 1.01778e-05 1.59682e-21)
(1.50809 1.50999e-05 8.8276e-22)
(1.50821 1.63508e-05 -2.79195e-21)
(1.50831 7.33622e-06 -4.11749e-21)
(1.50843 8.61268e-07 -1.52948e-21)
(1.50856 -1.82464e-06 -2.73628e-21)
(1.50863 6.28422e-06 -7.43392e-21)
(1.50859 1.83633e-05 -6.18789e-21)
(1.5085 1.9455e-05 -6.27184e-21)
(1.50833 2.13029e-05 -6.70194e-21)
(1.5081 3.3798e-05 -5.95196e-21)
(1.50779 3.62369e-05 -5.11976e-21)
(1.50728 4.76409e-05 -4.98333e-21)
(1.5066 4.8881e-05 -4.9781e-21)
(1.5059 4.95515e-05 -4.35323e-21)
(1.50511 4.03568e-05 -5.43141e-21)
(1.50441 9.11104e-05 -3.21184e-21)
(1.50353 0.000110567 -4.97568e-21)
(1.50198 0.000144742 -3.10992e-21)
(1.50039 0.000102238 -3.99148e-21)
(1.49932 3.75122e-05 -3.07217e-21)
(1.49853 6.61926e-05 -5.62854e-21)
(1.49821 0.000228867 6.59836e-22)
(1.49833 8.80412e-06 -9.36449e-21)
(1.49778 0.00154364 7.25596e-20)
(1.41539 0.0289125 -2.79717e-18)
(0.696848 0.00288301 -7.25533e-18)
(0.60408 -0.0201941 -5.31055e-18)
(0.616289 -0.0312753 -3.03898e-18)
(0.623026 -0.0364184 -1.12915e-18)
(0.63655 -0.0358787 -6.16887e-19)
(0.648554 -0.031649 -2.05904e-19)
(0.663973 -0.0282917 -1.51879e-19)
(0.678425 -0.025157 -1.04505e-19)
(0.694279 -0.0235531 -1.22441e-19)
(0.708941 -0.0202168 -9.09091e-20)
(0.723294 -0.0176733 -9.11893e-20)
(0.735994 -0.0151466 -9.24023e-20)
(0.746379 -0.0129755 -8.91612e-20)
(0.755721 -0.0109592 -1.02639e-19)
(0.76415 -0.00954905 -1.03636e-19)
(0.771578 -0.00849215 -1.00419e-19)
(0.777706 -0.00764475 -1.22868e-19)
(0.782578 -0.0069805 -8.59943e-20)
(0.786875 -0.00623972 -1.25808e-19)
(0.790576 -0.00524013 -1.40973e-19)
(0.793629 -0.00413113 -1.46182e-19)
(0.795622 -0.00313832 -1.21675e-19)
(0.797074 -0.00246685 -1.43428e-19)
(0.797804 -0.00192809 -9.26436e-20)
(0.798168 -0.00164212 -9.91211e-20)
(0.797959 -0.00138004 -4.05239e-20)
(0.796652 -0.00130037 -1.42906e-20)
(0.796208 -0.00110605 7.5675e-20)
(0.795369 -0.000877323 1.12223e-19)
(0.79408 -0.000667848 1.34884e-19)
(0.793211 -0.000971704 1.77216e-19)
(0.792598 -0.0013849 2.27179e-19)
(0.792994 -0.00172784 2.78703e-19)
(0.794822 -0.00158418 3.37386e-19)
(0.795729 -0.00165269 3.80942e-19)
(0.79534 -0.00235942 4.48763e-19)
(0.799479 -0.00276569 4.70931e-19)
(0.801332 -0.00277436 5.52065e-19)
(0.803803 -0.00298989 6.5568e-19)
(0.808212 -0.00405566 6.53988e-19)
(0.811714 -0.00384922 7.23138e-19)
(0.81541 -0.00350243 7.42738e-19)
(0.819525 -0.00354168 7.87537e-19)
(0.823627 -0.00355716 8.10402e-19)
(0.82815 -0.00346572 9.65213e-19)
(0.832077 -0.00323533 9.23686e-19)
(0.835306 -0.00337576 9.88584e-19)
(0.838418 -0.00397826 1.06864e-18)
(0.844661 -0.00518572 9.93036e-19)
(0.848936 -0.00524186 1.18809e-18)
(0.852348 -0.0054753 1.06829e-18)
(0.855607 -0.00519969 9.17117e-19)
(0.857694 -0.00564334 1.04385e-18)
(0.859944 -0.00544866 8.32165e-19)
(0.870347 -0.00347653 6.12459e-19)
(0.874331 -0.00809696 5.97746e-19)
(0.888499 -0.00829868 7.82825e-19)
(0.902317 -0.00967357 7.03577e-19)
(0.915876 -0.00831595 5.82272e-19)
(0.935415 -0.00399266 7.69851e-19)
(0.962393 -0.00362777 9.09937e-19)
(0.973879 -0.00527209 2.06056e-18)
(0.976291 -0.00825952 2.53498e-18)
(0.978089 -0.0100837 7.22061e-18)
(0.912233 -0.0114933 2.01809e-17)
(0.76185 0.0180954 3.31535e-17)
(0.600182 0.12051 3.2772e-17)
(0.442192 0.163407 2.23836e-17)
(0.32795 0.195508 2.02314e-17)
(0.237882 0.169666 1.40848e-17)
(0.179738 0.156571 2.39785e-17)
(0.131576 0.149183 2.46908e-17)
(0.0962421 0.171203 4.41077e-17)
(0.0513898 0.182523 3.76443e-17)
(0.0556614 0.303829 5.78111e-17)
(1.50493 -6.74516e-06 -7.56017e-22)
(1.50398 1.47195e-06 1.11001e-21)
(1.50418 4.5683e-07 3.83347e-21)
(1.50427 1.1894e-06 2.84298e-21)
(1.50441 2.71685e-06 1.41105e-21)
(1.50456 2.29149e-06 -1.50948e-23)
(1.50478 -9.00211e-07 -3.99156e-23)
(1.50501 -2.96558e-07 -2.9595e-22)
(1.50523 -2.77478e-07 6.59738e-23)
(1.50547 -2.23809e-06 1.20406e-21)
(1.50575 -5.54506e-07 -9.44077e-22)
(1.50603 1.95274e-06 -3.81876e-21)
(1.50628 -2.28436e-07 -2.96928e-21)
(1.50655 9.78018e-07 -1.27732e-22)
(1.50685 6.18192e-06 2.96766e-21)
(1.50713 -3.54509e-08 2.74778e-21)
(1.50741 -3.63307e-06 2.46532e-21)
(1.50771 4.28545e-06 1.83918e-21)
(1.50794 1.50493e-05 -6.53187e-21)
(1.50811 2.15312e-05 1.73255e-21)
(1.50823 1.88204e-05 3.40055e-21)
(1.50833 7.95289e-06 4.98663e-21)
(1.50845 -2.20113e-07 2.43945e-21)
(1.50858 1.41653e-06 4.79223e-21)
(1.50866 7.03649e-06 6.72941e-21)
(1.50862 2.36284e-05 3.34097e-21)
(1.50854 2.69694e-05 5.72361e-21)
(1.50839 2.94311e-05 9.56843e-21)
(1.50816 4.00807e-05 9.09767e-21)
(1.50786 4.3399e-05 5.84581e-21)
(1.50743 6.98716e-05 6.99856e-21)
(1.50678 6.94926e-05 6.65933e-21)
(1.50611 7.97004e-05 8.5081e-21)
(1.50536 7.9965e-05 5.55644e-21)
(1.50459 0.000112486 9.77573e-21)
(1.50382 0.000143196 7.28653e-21)
(1.50253 0.000195069 9.02408e-21)
(1.50084 0.000117299 8.62704e-21)
(1.49958 5.95311e-05 1.14712e-20)
(1.49848 -7.81024e-05 6.10437e-21)
(1.49776 -7.06892e-05 1.89074e-20)
(1.4973 7.12412e-05 8.97892e-21)
(1.49614 -0.000604042 6.06574e-20)
(1.29773 -0.0179797 -4.24726e-18)
(0.637103 -0.0226164 -9.52506e-18)
(0.557429 -0.029798 -5.0468e-18)
(0.571076 -0.0378224 -3.04781e-18)
(0.585763 -0.0451117 -8.47718e-19)
(0.604393 -0.0474145 -1.94827e-19)
(0.621371 -0.0435475 6.02672e-20)
(0.639164 -0.0402973 4.44741e-20)
(0.656932 -0.0368686 9.19711e-20)
(0.674824 -0.0341698 2.97875e-20)
(0.692077 -0.0298796 6.74749e-20)
(0.708674 -0.0262473 3.78186e-20)
(0.723375 -0.0222348 6.45498e-20)
(0.73721 -0.0188741 4.12853e-20)
(0.749099 -0.0155229 2.42258e-20)
(0.758765 -0.0119416 -4.74655e-21)
(0.767081 -0.00944914 -1.76961e-20)
(0.774271 -0.00787887 -2.85182e-20)
(0.780492 -0.00674474 1.36717e-21)
(0.78623 -0.00599865 -6.09321e-20)
(0.79123 -0.00499256 -3.46012e-20)
(0.795398 -0.00385099 -7.1816e-20)
(0.79842 -0.00297315 -6.31444e-20)
(0.800506 -0.00232842 -7.33507e-20)
(0.801798 -0.00178913 -7.44867e-20)
(0.802393 -0.00141547 -4.06721e-20)
(0.802343 -0.00153013 -6.36749e-20)
(0.801255 -0.00152404 4.90398e-20)
(0.801069 -0.00137141 8.77423e-20)
(0.80033 -0.00106088 1.47277e-19)
(0.799445 -0.00106046 1.52854e-19)
(0.798359 -0.0015362 1.88993e-19)
(0.797847 -0.00226288 2.28228e-19)
(0.798219 -0.00296078 2.83866e-19)
(0.800379 -0.00310057 3.40084e-19)
(0.80158 -0.00284954 3.63075e-19)
(0.800967 -0.0035498 4.27317e-19)
(0.805108 -0.00435249 4.39581e-19)
(0.807037 -0.00474866 5.58187e-19)
(0.810089 -0.00448456 6.27769e-19)
(0.813935 -0.00574169 6.28309e-19)
(0.817338 -0.00551219 7.16297e-19)
(0.821003 -0.00530434 7.37531e-19)
(0.825251 -0.00542196 7.53353e-19)
(0.829638 -0.00545288 7.78794e-19)
(0.834088 -0.00519117 9.79907e-19)
(0.838082 -0.0049919 8.84e-19)
(0.841314 -0.00524179 1.00316e-18)
(0.844818 -0.00563747 1.0509e-18)
(0.850628 -0.00735728 9.72246e-19)
(0.854962 -0.00760313 1.19628e-18)
(0.858305 -0.0079116 1.03131e-18)
(0.861688 -0.00740833 9.96169e-19)
(0.864143 -0.00780564 1.08622e-18)
(0.866059 -0.0078302 9.63616e-19)
(0.879483 -0.00696739 7.81968e-19)
(0.883147 -0.0115434 7.5074e-19)
(0.898848 -0.0131128 1.03104e-18)
(0.91092 -0.0125793 9.20862e-19)
(0.921288 -0.00905486 9.44755e-19)
(0.944209 -0.00548243 7.22756e-19)
(0.971141 -0.00489488 1.54592e-18)
(0.973853 -0.00710612 1.72763e-18)
(0.970375 -0.00958176 3.90198e-18)
(0.88214 -0.00934338 8.53737e-18)
(0.720637 0.0419388 1.3516e-17)
(0.54607 0.143542 1.32314e-17)
(0.402653 0.216348 1.41732e-17)
(0.307947 0.250088 8.93729e-18)
(0.238752 0.259835 1.19191e-17)
(0.180902 0.227383 9.72758e-18)
(0.133525 0.197196 2.08017e-17)
(0.0957063 0.180545 2.62705e-17)
(0.0700087 0.201679 4.59268e-17)
(0.0360183 0.206742 3.93955e-17)
(0.0418464 0.342157 6.06533e-17)
(1.50493 -9.01892e-06 -1.04422e-21)
(1.50398 1.73981e-06 1.71866e-21)
(1.50417 1.67708e-06 -2.55272e-21)
(1.50425 2.97512e-06 1.9799e-21)
(1.50442 2.00823e-06 3.92337e-21)
(1.50461 2.4613e-06 9.24176e-21)
(1.50478 -6.78949e-07 8.63493e-21)
(1.50497 -5.50223e-08 4.68496e-21)
(1.50524 -1.12727e-06 9.13749e-21)
(1.50551 -2.35323e-06 5.6525e-21)
(1.50575 -9.60022e-07 -3.0193e-21)
(1.506 2.2364e-06 1.09123e-20)
(1.50629 9.32836e-07 9.53288e-21)
(1.50658 1.62383e-06 8.40833e-21)
(1.50685 4.45694e-06 3.72109e-21)
(1.50714 -1.31632e-08 1.89108e-21)
(1.50742 -3.56242e-06 1.10557e-20)
(1.50772 5.48261e-06 1.15419e-20)
(1.50795 1.88506e-05 1.83112e-20)
(1.50813 2.78838e-05 4.30489e-21)
(1.50826 2.75808e-05 4.83198e-21)
(1.50837 1.10623e-05 4.9538e-21)
(1.50848 -5.71116e-07 6.3912e-22)
(1.50861 2.41794e-06 -4.03296e-22)
(1.5087 1.21365e-05 4.42063e-21)
(1.50868 3.08251e-05 7.51142e-21)
(1.50861 3.1944e-05 6.98772e-21)
(1.50848 3.41392e-05 3.81784e-21)
(1.50827 4.49624e-05 5.6086e-21)
(1.508 6.05696e-05 1.00518e-20)
(1.50763 7.71499e-05 9.88718e-21)
(1.50701 8.90622e-05 7.94685e-21)
(1.50639 9.46359e-05 1.11872e-20)
(1.50569 0.000101314 6.71639e-21)
(1.50491 0.000107849 8.28051e-21)
(1.50422 0.000164964 7.09757e-21)
(1.50318 0.000230602 8.89828e-21)
(1.50156 0.000213675 6.19528e-21)
(1.50001 0.000165071 8.55166e-21)
(1.49874 1.76181e-05 1.94589e-21)
(1.49787 -0.000254203 1.22412e-20)
(1.49728 6.24199e-05 -2.02345e-20)
(1.49541 -0.000971992 8.27118e-20)
(1.28319 -0.0264197 -5.61299e-18)
(0.628308 -0.0262166 -1.11805e-17)
(0.553791 -0.0400102 -5.36746e-18)
(0.569445 -0.0512323 -3.04589e-18)
(0.585401 -0.0624669 -9.21853e-19)
(0.607457 -0.0637005 -2.99916e-19)
(0.626693 -0.0584382 8.51561e-20)
(0.64639 -0.0548593 4.55918e-20)
(0.664504 -0.0511503 5.68622e-20)
(0.683946 -0.0479395 2.09314e-20)
(0.701419 -0.0424388 -1.03764e-20)
(0.7185 -0.0378661 -1.10267e-20)
(0.733877 -0.0324458 -1.45396e-20)
(0.747662 -0.0278041 -1.51075e-20)
(0.76035 -0.0226475 -7.03171e-21)
(0.770146 -0.0180397 -2.84756e-20)
(0.777778 -0.0152119 -4.44054e-20)
(0.784599 -0.0131327 -5.57886e-20)
(0.79066 -0.0114473 -9.82659e-21)
(0.796223 -0.0102159 -5.37961e-20)
(0.801169 -0.0084316 -4.1257e-20)
(0.805212 -0.00659508 -6.04883e-20)
(0.808261 -0.00506685 -5.7728e-20)
(0.809865 -0.0040232 -4.72019e-20)
(0.810872 -0.00304028 -4.56024e-20)
(0.811304 -0.00227861 1.94547e-21)
(0.810963 -0.00233523 -7.61553e-21)
(0.809507 -0.00207606 1.04269e-19)
(0.809251 -0.00163879 1.21191e-19)
(0.808659 -0.00133759 2.15691e-19)
(0.807157 -0.00151581 2.53646e-19)
(0.806198 -0.00191391 2.65351e-19)
(0.80532 -0.00279064 3.20858e-19)
(0.805393 -0.00376754 3.67135e-19)
(0.807287 -0.00428224 4.65746e-19)
(0.808275 -0.00409116 4.4822e-19)
(0.808051 -0.00469974 5.19432e-19)
(0.811447 -0.00614522 5.20365e-19)
(0.813221 -0.00696026 6.72615e-19)
(0.816606 -0.00663577 7.34696e-19)
(0.819997 -0.00787167 7.0808e-19)
(0.823237 -0.00768816 8.38893e-19)
(0.826525 -0.00770058 8.10925e-19)
(0.830761 -0.00797791 8.90176e-19)
(0.835063 -0.00818826 9.03155e-19)
(0.839277 -0.00777592 1.02259e-18)
(0.842971 -0.00768429 1.02395e-18)
(0.846038 -0.00812397 1.08069e-18)
(0.84958 -0.00861075 1.20343e-18)
(0.854089 -0.0106077 1.13418e-18)
(0.857867 -0.0112085 1.3406e-18)
(0.860872 -0.0116122 1.17624e-18)
(0.864001 -0.0109172 1.20983e-18)
(0.865886 -0.0112116 1.25639e-18)
(0.867642 -0.0114117 1.13148e-18)
(0.880338 -0.010707 9.85808e-19)
(0.88476 -0.0153661 9.6774e-19)
(0.900109 -0.0173515 1.24514e-18)
(0.910457 -0.015799 1.27324e-18)
(0.923142 -0.00840767 1.12584e-18)
(0.951029 -0.00827835 1.25383e-18)
(0.969597 -0.00546692 1.71621e-18)
(0.958412 -0.00780877 2.83686e-18)
(0.857925 -0.00180422 4.68984e-18)
(0.679682 0.0660884 5.85494e-18)
(0.500079 0.159159 6.58878e-18)
(0.357874 0.229874 5.13299e-18)
(0.275344 0.274247 6.68671e-18)
(0.226854 0.293531 3.16386e-18)
(0.186575 0.297527 7.94672e-18)
(0.153317 0.27121 6.64172e-18)
(0.11761 0.240865 1.71376e-17)
(0.0854009 0.206871 2.34404e-17)
(0.0657013 0.229763 3.94735e-17)
(0.036372 0.229663 3.8465e-17)
(0.0428362 0.369916 6.03718e-17)
(1.50493 -1.06904e-05 8.15708e-22)
(1.50398 1.38693e-06 -7.93823e-22)
(1.50418 2.69237e-06 8.89872e-22)
(1.50428 4.42835e-06 -3.71831e-21)
(1.50441 1.51655e-06 -7.28597e-21)
(1.50457 2.41697e-06 -1.61159e-20)
(1.50479 -8.16623e-07 -1.24169e-20)
(1.50502 1.12944e-06 -8.14586e-21)
(1.50524 -1.96308e-06 -2.12524e-20)
(1.50547 -2.5508e-06 -1.33094e-20)
(1.50575 -9.07229e-07 -1.93403e-21)
(1.50603 2.75301e-06 -1.99206e-20)
(1.5063 4.84489e-07 -2.09198e-20)
(1.50657 -9.84735e-07 -1.22285e-20)
(1.50686 5.10149e-06 -1.20548e-20)
(1.50715 4.76972e-06 -1.38524e-20)
(1.50743 -4.07273e-07 -2.59059e-20)
(1.50772 5.7849e-06 -8.47813e-21)
(1.50797 2.5354e-05 -1.78348e-20)
(1.50816 3.33287e-05 -2.08226e-20)
(1.5083 3.32903e-05 -1.8641e-20)
(1.50841 1.72161e-05 -1.75369e-20)
(1.50852 -8.78825e-07 -1.1067e-20)
(1.50864 3.99354e-06 -1.42882e-20)
(1.50874 1.35896e-05 -9.25037e-21)
(1.50874 3.39255e-05 -3.23919e-21)
(1.5087 3.95793e-05 -1.20823e-21)
(1.50859 4.50473e-05 -1.67136e-21)
(1.50841 4.88655e-05 -1.53913e-21)
(1.50816 6.91549e-05 -4.17636e-21)
(1.50787 8.71441e-05 -3.12317e-21)
(1.5073 0.000108479 -6.22861e-21)
(1.50677 0.000119429 -3.99512e-21)
(1.50615 0.000144807 -7.05582e-21)
(1.50547 0.000142222 -3.80066e-21)
(1.50472 0.000207912 -6.84477e-21)
(1.50397 0.000257006 -4.43329e-21)
(1.50267 0.000299313 -6.59178e-21)
(1.50102 0.000279844 -4.44232e-21)
(1.49906 0.000100025 -8.81351e-21)
(1.49708 -0.000108681 -3.72434e-21)
(1.49375 0.000374564 1.01682e-20)
(1.49045 -0.00166082 -1.32098e-19)
(1.2284 -0.0349557 -8.16618e-18)
(0.604389 -0.0271075 -1.46754e-17)
(0.534085 -0.0470097 -7.3731e-18)
(0.552087 -0.0637917 -3.95246e-18)
(0.572932 -0.0788357 -1.45251e-18)
(0.599786 -0.0807406 -5.8881e-19)
(0.622251 -0.0733032 -2.64626e-19)
(0.645264 -0.0689452 -2.83113e-19)
(0.666943 -0.0643132 -2.04766e-19)
(0.688816 -0.0607207 -1.53881e-19)
(0.706595 -0.0530218 -1.58109e-19)
(0.72708 -0.0475955 -6.13813e-20)
(0.744251 -0.0406777 -2.69749e-20)
(0.759042 -0.0347578 2.10639e-20)
(0.772039 -0.028141 8.02626e-20)
(0.782131 -0.0208296 1.24474e-19)
(0.789954 -0.0174867 1.52304e-19)
(0.796707 -0.015306 1.50241e-19)
(0.802499 -0.0130875 1.75162e-19)
(0.80787 -0.011691 2.20802e-19)
(0.812544 -0.00945207 2.0408e-19)
(0.816518 -0.00718251 2.02979e-19)
(0.819276 -0.0050048 1.99023e-19)
(0.820656 -0.00374847 2.30937e-19)
(0.821144 -0.00269492 2.32752e-19)
(0.821655 -0.00201463 2.80308e-19)
(0.820655 -0.00217876 2.64261e-19)
(0.818807 -0.00178422 3.58753e-19)
(0.818089 -0.00155351 3.70134e-19)
(0.817247 -0.00128117 4.13949e-19)
(0.815377 -0.00131603 5.01979e-19)
(0.814309 -0.00194017 5.21644e-19)
(0.813313 -0.00304617 5.67746e-19)
(0.813141 -0.00425999 6.00573e-19)
(0.814958 -0.00517945 6.19149e-19)
(0.815891 -0.00504175 6.52599e-19)
(0.815778 -0.00547902 7.31494e-19)
(0.818537 -0.00698148 7.33899e-19)
(0.820219 -0.00814777 8.23594e-19)
(0.823967 -0.007964 8.55026e-19)
(0.827259 -0.00882353 9.39161e-19)
(0.830482 -0.00856918 1.00468e-18)
(0.833769 -0.00867846 9.72695e-19)
(0.83815 -0.00915183 9.80032e-19)
(0.842649 -0.00917753 1.03944e-18)
(0.846699 -0.00844405 1.08501e-18)
(0.850294 -0.00823299 1.20698e-18)
(0.853321 -0.00874295 1.18907e-18)
(0.856965 -0.00924621 1.28102e-18)
(0.861006 -0.010969 1.36387e-18)
(0.864773 -0.0118282 1.50025e-18)
(0.867682 -0.0124613 1.43405e-18)
(0.870408 -0.0115181 1.51804e-18)
(0.872322 -0.0116318 1.76316e-18)
(0.873833 -0.0124487 1.56803e-18)
(0.888605 -0.0132726 1.49002e-18)
(0.895153 -0.0179702 1.70877e-18)
(0.909525 -0.0192415 1.97198e-18)
(0.918382 -0.0163184 1.79875e-18)
(0.938353 -0.0117919 1.62734e-18)
(0.958099 -0.00798991 1.9456e-18)
(0.961532 -0.0040716 2.36401e-18)
(0.8516 0.00784692 3.39061e-18)
(0.669863 0.0936256 3.51424e-18)
(0.48535 0.187298 2.57807e-18)
(0.381402 0.286085 3.51415e-18)
(0.285275 0.313088 1.51019e-18)
(0.223432 0.326263 3.46219e-18)
(0.180415 0.324661 6.42077e-19)
(0.152266 0.317435 5.53214e-18)
(0.130311 0.294979 3.67883e-18)
(0.104477 0.271055 1.25313e-17)
(0.0794858 0.228953 1.84144e-17)
(0.0624335 0.252661 3.26819e-17)
(0.0386635 0.24998 3.46103e-17)
(0.046427 0.393476 5.93022e-17)
(1.50492 -1.30449e-05 5.89078e-21)
(1.50398 1.18241e-06 4.54394e-21)
(1.50418 1.30685e-06 3.17138e-21)
(1.50427 3.04051e-06 2.54101e-21)
(1.50442 4.23431e-06 1.55413e-20)
(1.5046 5.29982e-06 2.0781e-20)
(1.50479 -1.6519e-06 1.53271e-20)
(1.50498 -2.00234e-07 2.8276e-20)
(1.50524 -2.4824e-06 2.12164e-20)
(1.50551 -1.25112e-06 1.86347e-20)
(1.50575 -1.05402e-06 1.80411e-20)
(1.50601 1.74884e-06 2.72901e-20)
(1.50631 -1.66603e-07 3.90125e-20)
(1.50659 1.92683e-06 3.37064e-21)
(1.50686 4.62043e-06 -4.11081e-21)
(1.50717 5.86471e-06 7.8977e-21)
(1.50744 1.92449e-07 1.92386e-20)
(1.50771 6.25145e-06 1.47198e-20)
(1.50799 2.77929e-05 1.16479e-20)
(1.5082 4.03108e-05 2.2566e-20)
(1.50835 3.95243e-05 2.29901e-20)
(1.50847 2.33387e-05 2.38479e-20)
(1.50858 1.07602e-06 2.4322e-20)
(1.50868 2.56118e-06 3.42317e-20)
(1.50879 1.21888e-05 1.7558e-20)
(1.50884 4.12098e-05 1.64243e-20)
(1.5088 4.82767e-05 1.77789e-20)
(1.50873 5.47932e-05 2.09067e-20)
(1.50859 6.02768e-05 1.98207e-20)
(1.50839 7.87615e-05 1.30832e-20)
(1.50814 8.94407e-05 1.46598e-20)
(1.50771 0.000129159 1.64549e-20)
(1.50722 0.00013169 1.8719e-20)
(1.50673 0.000158158 1.79285e-20)
(1.50614 0.000187852 1.98489e-20)
(1.50544 0.000200075 1.90278e-20)
(1.50479 0.000278801 2.17765e-20)
(1.50392 0.000354841 2.06736e-20)
(1.5025 0.000482336 2.1087e-20)
(1.50017 0.000543569 2.72874e-20)
(1.49809 0.000564337 1.50269e-20)
(1.49513 0.00126838 3.58046e-20)
(1.4919 0.000908226 1.20218e-19)
(1.12828 0.0109615 -8.44485e-18)
(0.565987 -0.00649514 -1.3902e-17)
(0.509436 -0.0589402 -8.81135e-18)
(0.537625 -0.0897753 -4.18131e-18)
(0.562956 -0.109148 -2.01775e-18)
(0.594051 -0.108362 -7.98561e-19)
(0.622719 -0.0997267 -4.76873e-19)
(0.649041 -0.0911785 -2.58569e-19)
(0.673377 -0.0854222 -1.57512e-19)
(0.697342 -0.0799165 -6.63631e-20)
(0.718284 -0.0701306 4.82753e-20)
(0.74031 -0.0648468 1.23181e-19)
(0.756913 -0.0546696 2.12745e-19)
(0.774308 -0.0476453 2.63596e-19)
(0.787874 -0.0379045 2.53656e-19)
(0.801448 -0.0276608 3.02046e-19)
(0.811219 -0.023555 3.41376e-19)
(0.816244 -0.020119 3.51892e-19)
(0.823845 -0.0171545 4.2483e-19)
(0.828747 -0.0154329 4.18437e-19)
(0.833629 -0.0127385 3.87802e-19)
(0.837922 -0.00916328 3.94235e-19)
(0.841563 -0.00598391 3.31885e-19)
(0.842693 -0.00400459 3.57941e-19)
(0.843238 -0.00289665 3.65819e-19)
(0.843607 -0.00207483 4.04712e-19)
(0.842613 -0.00178317 4.1677e-19)
(0.84029 -0.00110714 4.66097e-19)
(0.838939 -0.00106155 5.07599e-19)
(0.837696 -0.000950082 5.25143e-19)
(0.835654 -0.000777281 6.20755e-19)
(0.834323 -0.00195453 6.24349e-19)
(0.833008 -0.00335556 6.56037e-19)
(0.83276 -0.00521926 7.09127e-19)
(0.83255 -0.00705337 7.0807e-19)
(0.833329 -0.00738191 7.83264e-19)
(0.833325 -0.00738324 8.20015e-19)
(0.835243 -0.00932447 8.56219e-19)
(0.834508 -0.01141 9.51296e-19)
(0.83794 -0.0124838 9.98496e-19)
(0.841183 -0.0122594 1.08181e-18)
(0.843895 -0.011966 1.17913e-18)
(0.846113 -0.0124574 1.11609e-18)
(0.849482 -0.0134317 1.09289e-18)
(0.853873 -0.0134058 1.20513e-18)
(0.857318 -0.0124049 1.24827e-18)
(0.860973 -0.0120055 1.44264e-18)
(0.863315 -0.0126568 1.34964e-18)
(0.866447 -0.0136626 1.52104e-18)
(0.871022 -0.0149859 1.52503e-18)
(0.874188 -0.0164497 1.70787e-18)
(0.876816 -0.0174908 1.58876e-18)
(0.879176 -0.0164878 1.84717e-18)
(0.882351 -0.0162745 2.03515e-18)
(0.883432 -0.0175111 1.84962e-18)
(0.896687 -0.0202203 1.71647e-18)
(0.905236 -0.0236661 2.07998e-18)
(0.919084 -0.0250143 2.3182e-18)
(0.932064 -0.0213228 2.33313e-18)
(0.943992 -0.0112316 2.27336e-18)
(0.948805 -0.00735754 2.57464e-18)
(0.857365 0.0132034 2.85056e-18)
(0.66911 0.109752 2.50531e-18)
(0.498555 0.224122 2.18162e-18)
(0.359787 0.287165 8.34684e-19)
(0.286897 0.329823 1.76883e-18)
(0.248296 0.376994 1.95261e-19)
(0.198944 0.37533 2.30402e-18)
(0.164052 0.356279 -2.69168e-19)
(0.137751 0.338584 3.71801e-18)
(0.118604 0.314483 1.28311e-18)
(0.0970744 0.292904 8.56773e-18)
(0.0745589 0.248767 1.16807e-17)
(0.0598903 0.272266 2.45167e-17)
(0.0427905 0.265365 2.97908e-17)
(0.0504926 0.413541 5.51858e-17)
(1.50492 -1.45377e-05 -6.84608e-21)
(1.50397 5.15612e-07 -1.09805e-20)
(1.50418 2.01563e-06 -3.7069e-22)
(1.50427 4.76569e-06 -1.24953e-20)
(1.50442 2.2185e-06 -1.31271e-20)
(1.50459 -2.27377e-06 -1.11628e-20)
(1.50478 2.52333e-06 -5.76442e-21)
(1.50501 2.31412e-06 -1.35846e-20)
(1.50523 -4.11536e-06 -8.50342e-21)
(1.50548 -2.69049e-06 -5.72236e-21)
(1.50576 1.76685e-07 -2.91825e-21)
(1.50604 2.48431e-06 -7.94283e-22)
(1.50631 1.13911e-06 1.43088e-20)
(1.50659 2.21434e-06 4.21122e-20)
(1.50687 5.38919e-06 5.21662e-20)