/*--------------------------------*- C++ -*----------------------------------*\
| =========                 |                                                 |
| \\      /  F ield         | OpenFOAM: The Open Source CFD Toolbox           |
|  \\    /   O peration     | Version:  2.2.x                                 |
|   \\  /    A nd           | Web:      www.OpenFOAM.org                      |
|    \\/     M anipulation  |                                                 |
\*---------------------------------------------------------------------------*/
FoamFile
{
    version     2.0;
    format      ascii;
    class       volScalarField;
    location    "0.4";
    object      Bx;
}
// * * * * * * * * * * * * * * * * * * * * * * * * * * * * * * * * * * * * * //

dimensions      [1 0 -2 0 0 -1 0];

internalField   nonuniform List<scalar> 
14161
(
1
1
1
1
1
1
1
1
1
1
1
1
1
1.00001
1.00001
1.00001
1.00002
1.00003
1.00004
1.00005
1.00007
1.00009
1.00011
1.00014
1.00017
1.00021
1.00023
1.00025
1.00026
1.00026
1.00024
1.00021
1.00014
1.00004
0.999904
0.999721
0.999488
0.999202
0.998857
0.998457
0.997991
0.997473
0.996889
0.996255
0.995563
0.994805
0.993956
0.992992
0.991915
0.990718
0.989396
0.987913
0.986284
0.984488
0.982536
0.98039
0.978078
0.975631
0.973151
0.970574
0.967964
0.96353
0.953817
0.938815
0.924837
0.929316
0.948908
0.979117
1.01875
1.0642
1.11029
1.15168
1.1878
1.21866
1.24509
1.2675
1.28709
1.30433
1.31986
1.33426
1.34848
1.36226
1.37541
1.38563
1.39218
1.39357
1.38623
1.36779
1.33307
1.27699
1.20223
1.11679
1.03069
0.953183
0.884818
0.824434
0.770755
0.722957
0.679829
0.640284
0.60348
0.569267
0.537129
0.506432
0.476794
0.448057
0.419963
0.392287
0.364783
0.337046
0.30882
0.279644
0.249164
0.216867
0.181886
0.144423
0.101418
0.0641182
0.0199176
1
1
1
1
1
1
1
1
1
1
1
1
1
1.00001
1.00001
1.00001
1.00002
1.00003
1.00004
1.00005
1.00007
1.00009
1.00012
1.00014
1.00017
1.00021
1.00023
1.00025
1.00026
1.00026
1.00025
1.00021
1.00014
1.00005
0.999911
0.999729
0.999499
0.999214
0.998873
0.998473
0.998012
0.997494
0.996915
0.996283
0.995594
0.994843
0.993992
0.993033
0.991962
0.990773
0.98945
0.98797
0.986342
0.984541
0.982565
0.980399
0.978062
0.975554
0.972886
0.970013
0.967083
0.962952
0.95636
0.939694
0.929959
0.936864
0.963514
1.00266
1.04811
1.09544
1.14082
1.17972
1.21235
1.2397
1.26282
1.28241
1.29946
1.31461
1.32828
1.34225
1.35517
1.36656
1.37412
1.37988
1.38139
1.37499
1.35988
1.33241
1.28875
1.22514
1.14621
1.0655
0.993368
0.928061
0.868697
0.814885
0.765783
0.720641
0.678585
0.639113
0.602142
0.56759
0.534817
0.503386
0.473144
0.443864
0.41528
0.387134
0.35916
0.330944
0.302172
0.272353
0.241076
0.207858
0.171673
0.134215
0.0940211
0.0615417
0.0226928
1
1
1
1
1
1
1
1
1
1
1
1
1
1.00001
1.00001
1.00001
1.00002
1.00003
1.00004
1.00005
1.00007
1.00009
1.00012
1.00014
1.00018
1.00021
1.00024
1.00026
1.00027
1.00027
1.00025
1.00022
1.00016
1.00006
0.999929
0.999751
0.999526
0.999245
0.998913
0.998515
0.998066
0.997549
0.996985
0.996352
0.995678
0.994931
0.994095
0.993146
0.992085
0.990912
0.989595
0.988128
0.986495
0.984696
0.982705
0.980513
0.978123
0.975468
0.972627
0.969302
0.96558
0.961174
0.957206
0.946863
0.94325
0.951182
0.981736
1.02537
1.07669
1.12784
1.17374
1.21275
1.24536
1.27189
1.29238
1.30883
1.32298
1.33391
1.34374
1.35169
1.35743
1.36217
1.36569
1.36454
1.35484
1.33601
1.30298
1.25147
1.18481
1.11117
1.03503
0.971254
0.917205
0.868104
0.822869
0.780268
0.739226
0.699992
0.661895
0.624927
0.58962
0.556091
0.523899
0.492875
0.462875
0.433654
0.404946
0.376572
0.34827
0.319743
0.290722
0.260543
0.22869
0.195323
0.160324
0.125543
0.0883767
0.0585782
0.0227119
1
1
1
1
1
1
1
1
1
1
1
1
1
1.00001
1.00001
1.00001
1.00002
1.00003
1.00004
1.00005
1.00007
1.00009
1.00012
1.00014
1.00018
1.00021
1.00024
1.00026
1.00027
1.00028
1.00026
1.00023
1.00018
1.00009
0.999959
0.999789
0.999571
0.9993
0.998976
0.998591
0.998152
0.997651
0.997096
0.996481
0.99582
0.995088
0.99427
0.993337
0.992306
0.991144
0.98985
0.988401
0.986782
0.984996
0.983013
0.980832
0.978438
0.97582
0.973017
0.969745
0.966548
0.963694
0.962713
0.962152
0.968251
0.98205
1.02223
1.06793
1.122
1.17614
1.21951
1.25346
1.27933
1.29881
1.31258
1.32427
1.3319
1.3374
1.3419
1.34588
1.34736
1.34549
1.33777
1.32179
1.29519
1.25387
1.19577
1.12424
1.04598
0.983772
0.931248
0.887179
0.847843
0.808603
0.77173
0.736015
0.701646
0.667974
0.634457
0.601514
0.56955
0.538423
0.50782
0.477962
0.448845
0.420235
0.391832
0.363505
0.334965
0.306016
0.276578
0.246598
0.215612
0.183532
0.150526
0.118874
0.0848216
0.0574006
0.0246466
1
1
1
1
1
1
1
1
1
1
1
1
1
1.00001
1.00001
1.00001
1.00002
1.00003
1.00004
1.00005
1.00007
1.00009
1.00012
1.00015
1.00018
1.00021
1.00024
1.00027
1.00028
1.00029
1.00028
1.00025
1.0002
1.00012
1
0.999845
0.999639
0.999384
0.999072
0.998709
0.998282
0.997806
0.997266
0.996678
0.996033
0.995328
0.994534
0.993636
0.992632
0.991502
0.990243
0.988815
0.987232
0.985465
0.983504
0.981333
0.978929
0.976298
0.973515
0.97033
0.96728
0.965554
0.967803
0.982043
0.996707
1.01877
1.06906
1.12275
1.17966
1.23081
1.26636
1.29381
1.31347
1.32562
1.33218
1.33626
1.33634
1.33773
1.33643
1.33322
1.32433
1.30847
1.28328
1.24678
1.1938
1.12257
1.03808
0.966361
0.912166
0.870284
0.83645
0.809274
0.781674
0.752441
0.722834
0.692841
0.662972
0.632883
0.60283
0.573615
0.545174
0.516761
0.488121
0.459763
0.431634
0.403518
0.375312
0.347136
0.31892
0.290651
0.262178
0.233287
0.203524
0.17318
0.142233
0.113758
0.0827656
0.0575835
0.0278377
1
1
1
1
1
1
1
1
1
1
1
1
1
1.00001
1.00001
1.00001
1.00002
1.00003
1.00004
1.00005
1.00007
1.00009
1.00012
1.00015
1.00018
1.00022
1.00025
1.00028
1.0003
1.00031
1.00031
1.00028
1.00024
1.00017
1.00007
0.999922
0.999733
0.999496
0.999207
0.998866
0.998467
0.998016
0.997506
0.996949
0.996333
0.995663
0.994905
0.994051
0.993089
0.992008
0.990787
0.989415
0.987883
0.986157
0.984223
0.982067
0.979668
0.977033
0.974196
0.971408
0.969134
0.96976
0.979905
1.00322
1.03343
1.06897
1.12618
1.17982
1.2337
1.27542
1.30049
1.32121
1.33393
1.33892
1.34039
1.3408
1.33659
1.33114
1.31822
1.29895
1.27346
1.23692
1.18696
1.12015
1.03939
0.957234
0.893136
0.84584
0.810461
0.782525
0.76215
0.743126
0.723018
0.70052
0.676539
0.651158
0.625249
0.598461
0.571596
0.545458
0.519379
0.492772
0.465782
0.439051
0.41229
0.385373
0.358275
0.331036
0.303657
0.276212
0.248643
0.220868
0.192673
0.164488
0.135787
0.110148
0.0820745
0.0590743
0.0322726
1
1
1
1
1
1
1
1
1
1
1
1
1
1.00001
1.00001
1.00001
1.00002
1.00003
1.00004
1.00005
1.00007
1.00009
1.00012
1.00015
1.00019
1.00022
1.00026
1.00029
1.00032
1.00033
1.00034
1.00033
1.00029
1.00024
1.00015
1.00002
0.999856
0.999643
0.999384
0.999071
0.99871
0.99829
0.997823
0.997301
0.99673
0.996105
0.995401
0.994597
0.993703
0.99268
0.991528
0.990234
0.988769
0.987119
0.985243
0.983136
0.98076
0.978084
0.975085
0.971631
0.968171
0.967374
0.973816
1.00576
1.06217
1.12673
1.19751
1.25626
1.30229
1.32503
1.33596
1.34071
1.34624
1.34617
1.34546
1.33412
1.32007
1.29746
1.27081
1.23256
1.18364
1.1188
1.03814
0.949814
0.878577
0.825482
0.784844
0.754931
0.731552
0.715061
0.701373
0.687367
0.671704
0.653564
0.633368
0.611516
0.58873
0.564845
0.541054
0.517613
0.493464
0.468568
0.443335
0.418243
0.392789
0.367122
0.341245
0.315124
0.28879
0.262395
0.235901
0.209377
0.18302
0.157234
0.130815
0.107774
0.0824873
0.0615373
0.0375476
1
1
1
1
1
1
1
1
1
1
1
1
1
1.00001
1.00001
1.00002
1.00002
1.00003
1.00004
1.00006
1.00007
1.0001
1.00012
1.00015
1.00019
1.00023
1.00027
1.00031
1.00034
1.00036
1.00038
1.00038
1.00036
1.00032
1.00025
1.00015
1.00001
0.999828
0.999602
0.99933
0.999009
0.998638
0.998219
0.997749
0.997228
0.996663
0.996029
0.995301
0.994487
0.99355
0.992496
0.991299
0.989948
0.988405
0.986646
0.984661
0.982355
0.979712
0.976596
0.973041
0.970154
0.97001
0.973018
1.00299
1.08183
1.18972
1.26181
1.32144
1.35062
1.35793
1.36151
1.35579
1.35665
1.34044
1.32736
1.30166
1.27257
1.23099
1.18002
1.11496
1.03522
0.946421
0.871545
0.811876
0.765614
0.731729
0.706669
0.686968
0.672887
0.662232
0.651488
0.640827
0.627557
0.612084
0.594531
0.575467
0.555207
0.533898
0.512716
0.491184
0.468516
0.445209
0.4216
0.398015
0.37388
0.349539
0.32492
0.300001
0.274828
0.249574
0.224348
0.199398
0.174823
0.151376
0.127204
0.106519
0.0839937
0.065024
0.043705
1
1
1
1
1
1
1
1
1
1
1
1
1
1.00001
1.00001
1.00002
1.00002
1.00003
1.00004
1.00006
1.00008
1.0001
1.00013
1.00016
1.0002
1.00024
1.00028
1.00032
1.00037
1.0004
1.00043
1.00044
1.00044
1.00042
1.00037
1.0003
1.00019
1.00005
0.999868
0.999645
0.999374
0.999061
0.9987
0.998296
0.99784
0.99735
0.996802
0.996171
0.99546
0.994641
0.99372
0.992665
0.991476
0.990103
0.988554
0.986779
0.984715
0.982343
0.979414
0.976635
0.975058
0.976723
0.987401
1.03317
1.10199
1.20149
1.28696
1.33791
1.35606
1.36206
1.36533
1.34868
1.33578
1.30354
1.27297
1.22837
1.17343
1.10532
1.02545
0.939358
0.865324
0.804087
0.754538
0.717052
0.6885
0.667114
0.650149
0.637739
0.628721
0.619823
0.611353
0.601567
0.589595
0.57561
0.559868
0.542829
0.524583
0.505598
0.486428
0.466247
0.444938
0.423226
0.401198
0.378958
0.356001
0.332893
0.309466
0.285684
0.261702
0.23775
0.21396
0.190642
0.167868
0.14661
0.124667
0.10608
0.0862025
0.0691069
0.0502963
1
1
1
1
1
1
1
1
1
1
1
1
1
1.00001
1.00001
1.00002
1.00002
1.00003
1.00004
1.00006
1.00008
1.0001
1.00013
1.00016
1.0002
1.00025
1.0003
1.00035
1.0004
1.00044
1.00048
1.00051
1.00053
1.00053
1.00052
1.00048
1.00041
1.00031
1.00018
1.00001
0.999808
0.99956
0.999273
0.998946
0.99857
0.998172
0.997731
0.997216
0.996638
0.995967
0.995218
0.994355
0.993378
0.992252
0.990986
0.989527
0.987877
0.98587
0.983727
0.982213
0.982095
0.985281
1.00533
1.04316
1.10391
1.17695
1.23861
1.28045
1.32116
1.33218
1.32687
1.30057
1.26719
1.21825
1.15607
1.08718
1.00649
0.925025
0.856416
0.798336
0.748914
0.709644
0.678807
0.654848
0.636286
0.621277
0.609785
0.601353
0.593446
0.58611
0.57837
0.569026
0.557626
0.544539
0.53001
0.514361
0.497687
0.480513
0.462645
0.443486
0.423452
0.403155
0.382435
0.361347
0.339577
0.317638
0.295303
0.272735
0.250091
0.2275
0.205188
0.183547
0.162495
0.143184
0.123379
0.106655
0.0892056
0.0738375
0.0573124
1
1
1
1
1
1
1
1
1
1
1
1
1
1.00001
1.00001
1.00002
1.00002
1.00003
1.00004
1.00006
1.00008
1.0001
1.00013
1.00017
1.00021
1.00026
1.00031
1.00037
1.00043
1.00049
1.00054
1.0006
1.00064
1.00067
1.00069
1.00069
1.00066
1.00062
1.00054
1.00044
1.00031
1.00014
0.999935
0.999699
0.999419
0.999129
0.998814
0.998439
0.998019
0.997528
0.996985
0.996356
0.995648
0.994834
0.993926
0.992899
0.991814
0.990604
0.989923
0.98997
0.992315
0.999912
1.02847
1.07423
1.11084
1.15211
1.18202
1.20506
1.24141
1.25588
1.24474
1.20358
1.13926
1.06575
0.982309
0.910513
0.847775
0.793875
0.747642
0.709744
0.678798
0.653298
0.632861
0.616206
0.602312
0.591024
0.58236
0.574297
0.566742
0.559174
0.551139
0.541516
0.530276
0.517759
0.504133
0.489575
0.474257
0.458356
0.441327
0.423169
0.404372
0.385284
0.365601
0.345448
0.324631
0.303707
0.282436
0.261066
0.239713
0.218483
0.197632
0.177638
0.158282
0.140752
0.122987
0.10795
0.0926884
0.0789221
0.0644605
1
1
1
1
1
1
1
1
1
1
1
1
1
1.00001
1.00001
1.00002
1.00002
1.00003
1.00004
1.00006
1.00008
1.00011
1.00014
1.00018
1.00022
1.00027
1.00033
1.0004
1.00047
1.00054
1.00062
1.00069
1.00076
1.00082
1.00088
1.00092
1.00095
1.00096
1.00095
1.00092
1.00087
1.00079
1.00068
1.00055
1.00038
1.00021
1.00004
0.999822
0.999582
0.9993
0.998989
0.998628
0.998226
0.997764
0.997259
0.996758
0.996224
0.995963
0.996195
0.997266
1.00129
1.01289
1.04275
1.08341
1.11153
1.12847
1.13708
1.14151
1.14292
1.13574
1.10152
1.03089
0.959818
0.895175
0.84029
0.790781
0.749652
0.714419
0.684948
0.659841
0.638592
0.620778
0.605341
0.592133
0.58068
0.571613
0.562871
0.555029
0.546917
0.539094
0.530035
0.519794
0.508249
0.495905
0.482668
0.468774
0.454247
0.438987
0.422529
0.405315
0.387605
0.369564
0.350817
0.331614
0.311844
0.291947
0.271707
0.251491
0.231346
0.211367
0.191871
0.173344
0.155546
0.139578
0.123684
0.110166
0.096814
0.0844799
0.0718255
1
1
1
1
1
1
1
1
1
1
1
1
1
1.00001
1.00001
1.00002
1.00002
1.00003
1.00005
1.00006
1.00008
1.00011
1.00014
1.00018
1.00023
1.00029
1.00036
1.00043
1.00051
1.0006
1.00069
1.00079
1.00089
1.00099
1.00109
1.00118
1.00127
1.00134
1.00141
1.00146
1.0015
1.00151
1.00151
1.00149
1.00145
1.0014
1.00139
1.00134
1.00131
1.00125
1.00119
1.00111
1.00102
1.00092
1.00085
1.00074
1.00073
1.00091
1.00143
1.00313
1.00718
1.02069
1.04467
1.08352
1.10185
1.10024
1.0961
1.08502
1.05499
1.00977
0.944732
0.885324
0.836295
0.791048
0.753566
0.721387
0.694424
0.670633
0.650327
0.632426
0.617068
0.603549
0.590943
0.579316
0.569384
0.560028
0.550759
0.541811
0.532614
0.523482
0.513201
0.502365
0.490631
0.478366
0.465275
0.451711
0.437419
0.422404
0.406471
0.390123
0.373256
0.355939
0.33786
0.319442
0.300554
0.281581
0.262357
0.243281
0.224309
0.20559
0.18744
0.170273
0.15392
0.139362
0.125168
0.11304
0.101382
0.0903476
0.0792864
1
1
1
1
1
1
1
1
1
1
1
1
1
1.00001
1.00001
1.00002
1.00002
1.00003
1.00005
1.00006
1.00009
1.00011
1.00015
1.00019
1.00025
1.00031
1.00038
1.00047
1.00056
1.00067
1.00078
1.00091
1.00104
1.00118
1.00132
1.00147
1.00161
1.00176
1.0019
1.00204
1.00217
1.0023
1.00241
1.00251
1.00259
1.00269
1.00283
1.00297
1.00312
1.00328
1.00346
1.00367
1.00388
1.00414
1.0044
1.00473
1.00499
1.00549
1.00632
1.00887
1.01374
1.03539
1.05872
1.08879
1.09099
1.083
1.06656
1.02768
0.971771
0.899222
0.837517
0.794995
0.760008
0.731628
0.706145
0.683554
0.664609
0.64804
0.633467
0.619969
0.606876
0.59525
0.583781
0.573342
0.563653
0.553654
0.543742
0.533763
0.523372
0.51286
0.501371
0.489657
0.477328
0.464855
0.4516
0.438164
0.423877
0.409084
0.393627
0.377961
0.361766
0.345144
0.327783
0.310155
0.292079
0.273911
0.255565
0.237434
0.219407
0.201756
0.184764
0.168799
0.153745
0.140436
0.127735
0.116854
0.106649
0.096772
0.0871261
1
1
1
1
1
1
1
1
1
1
1
1
1.00001
1.00001
1.00001
1.00002
1.00002
1.00003
1.00005
1.00007
1.00009
1.00012
1.00016
1.0002
1.00026
1.00033
1.00041
1.0005
1.00061
1.00074
1.00087
1.00103
1.00119
1.00137
1.00156
1.00177
1.00198
1.0022
1.00242
1.00265
1.00288
1.00312
1.00334
1.00357
1.00378
1.00403
1.00432
1.00463
1.00497
1.00533
1.00573
1.00618
1.00669
1.00727
1.00787
1.0086
1.00931
1.01043
1.01245
1.01726
1.02634
1.05523
1.08129
1.09896
1.08888
1.0724
1.03625
0.977181
0.899695
0.825901
0.778937
0.743263
0.717701
0.697148
0.680392
0.664868
0.650716
0.637875
0.625999
0.615062
0.603591
0.592419
0.581542
0.571348
0.561169
0.550726
0.54017
0.529338
0.517818
0.506134
0.493665
0.481179
0.468145
0.455152
0.441382
0.427714
0.413137
0.398455
0.383197
0.367842
0.351949
0.335765
0.318975
0.302085
0.284824
0.267528
0.250131
0.23298
0.215941
0.199334
0.183442
0.168585
0.154716
0.142541
0.131161
0.12143
0.112534
0.103719
0.0953154
1
1
1
1
1
1
1
1
1
1
1
1
1.00001
1.00001
1.00001
1.00002
1.00002
1.00003
1.00005
1.00007
1.00009
1.00012
1.00016
1.00021
1.00028
1.00035
1.00044
1.00055
1.00067
1.00081
1.00097
1.00115
1.00135
1.00157
1.00182
1.00208
1.00235
1.00265
1.00295
1.00327
1.0036
1.00394
1.00429
1.00464
1.00497
1.00536
1.00581
1.00628
1.0068
1.00736
1.00797
1.00866
1.00941
1.01029
1.01122
1.01232
1.01332
1.01447
1.01663
1.02127
1.03579
1.05784
1.09971
1.09791
1.07629
1.04636
0.985349
0.908366
0.829096
0.777784
0.742364
0.716584
0.69671
0.681064
0.66795
0.656487
0.645478
0.635292
0.625131
0.615515
0.604997
0.594015
0.583252
0.572811
0.56205
0.550968
0.539461
0.527699
0.514873
0.502112
0.488701
0.47547
0.461729
0.448318
0.434211
0.420445
0.405754
0.391341
0.376315
0.361294
0.345683
0.3299
0.313546
0.29719
0.280494
0.263854
0.247171
0.230792
0.214573
0.198869
0.183944
0.170078
0.157265
0.146106
0.135843
0.127105
0.11927
0.111362
0.104041
1
1
1
1
1
1
1
1
1
1
1
1
1.00001
1.00001
1.00001
1.00002
1.00002
1.00004
1.00005
1.00007
1.0001
1.00013
1.00017
1.00022
1.00029
1.00037
1.00047
1.00059
1.00073
1.00089
1.00107
1.00128
1.00152
1.00178
1.00207
1.00238
1.00273
1.00309
1.00348
1.00389
1.00432
1.00477
1.00522
1.00569
1.00615
1.00668
1.00727
1.00791
1.00859
1.00934
1.01015
1.01103
1.01197
1.01298
1.0141
1.01523
1.01642
1.01774
1.02083
1.02592
1.04999
1.07257
1.10142
1.08817
1.05819
1.00642
0.925167
0.843685
0.784965
0.746274
0.719368
0.699678
0.684528
0.672352
0.66204
0.652907
0.644022
0.635651
0.626844
0.618315
0.60888
0.598491
0.588001
0.577221
0.565945
0.554261
0.541969
0.529309
0.515603
0.50206
0.487564
0.47324
0.458553
0.444428
0.429698
0.415497
0.400466
0.386004
0.370801
0.355858
0.340419
0.325012
0.309154
0.293435
0.277401
0.261509
0.245609
0.230043
0.214665
0.199849
0.185839
0.172883
0.161008
0.150748
0.141395
0.133506
0.126574
0.119495
0.113149
1
1
1
1
1
1
1
1
1
1
1
1
1.00001
1.00001
1.00001
1.00002
1.00003
1.00004
1.00005
1.00007
1.0001
1.00013
1.00018
1.00024
1.00031
1.0004
1.0005
1.00063
1.00078
1.00096
1.00117
1.00141
1.00168
1.00198
1.00232
1.00269
1.00309
1.00353
1.004
1.00449
1.00502
1.00556
1.00613
1.00671
1.0073
1.00796
1.00869
1.00949
1.01035
1.01127
1.01228
1.01338
1.01454
1.0158
1.01724
1.01888
1.02091
1.02373
1.02887
1.03944
1.06402
1.09838
1.08731
1.04898
1.01005
0.934888
0.86077
0.799137
0.758219
0.729743
0.70917
0.693805
0.681479
0.671333
0.662234
0.654208
0.646228
0.638645
0.630681
0.622764
0.614185
0.604361
0.594358
0.583453
0.571666
0.559277
0.546141
0.532665
0.518314
0.504031
0.488965
0.47411
0.459015
0.444437
0.429243
0.414611
0.399321
0.384698
0.369272
0.354345
0.338871
0.323576
0.307928
0.292544
0.276891
0.261501
0.246186
0.231261
0.216614
0.202611
0.189414
0.177255
0.166164
0.156649
0.148025
0.140845
0.134634
0.128248
0.122737
1
1
1
1
1
1
1
1
1
1
1
1
1.00001
1.00001
1.00001
1.00002
1.00003
1.00004
1.00005
1.00007
1.0001
1.00014
1.00019
1.00025
1.00032
1.00042
1.00053
1.00067
1.00084
1.00104
1.00127
1.00153
1.00184
1.00218
1.00256
1.00298
1.00344
1.00395
1.00449
1.00506
1.00568
1.00632
1.00699
1.00768
1.00839
1.00917
1.01004
1.01098
1.01201
1.01313
1.01433
1.01561
1.017
1.01846
1.02003
1.02165
1.02339
1.02649
1.03151
1.0513
1.07139
1.08934
1.06448
1.02395
0.96099
0.882607
0.817496
0.771627
0.741893
0.719847
0.704305
0.692096
0.682236
0.673638
0.665667
0.658257
0.650904
0.643621
0.636163
0.628577
0.620714
0.611434
0.601784
0.591159
0.579353
0.566565
0.552887
0.53858
0.523306
0.507861
0.491769
0.475967
0.460192
0.444903
0.429294
0.414289
0.398802
0.384048
0.368553
0.353734
0.338409
0.323446
0.308174
0.293233
0.278027
0.263173
0.2484
0.234048
0.220034
0.206714
0.194183
0.18266
0.172195
0.16323
0.155212
0.148634
0.143033
0.137311
0.132601
1
1
1
1
1
1
1
1
1
1
1
1
1.00001
1.00001
1.00001
1.00002
1.00003
1.00004
1.00005
1.00008
1.00011
1.00015
1.0002
1.00026
1.00034
1.00044
1.00057
1.00072
1.0009
1.00111
1.00136
1.00165
1.00199
1.00236
1.00278
1.00325
1.00377
1.00433
1.00494
1.00559
1.00629
1.00702
1.00778
1.00857
1.00938
1.01028
1.01127
1.01235
1.01354
1.01483
1.01623
1.01772
1.01936
1.02112
1.02318
1.02532
1.02813
1.03239
1.04137
1.05816
1.09123
1.07334
1.02394
0.977126
0.900853
0.838951
0.788168
0.75796
0.734258
0.717671
0.704586
0.694406
0.685802
0.678244
0.67116
0.664273
0.657554
0.650677
0.643672
0.636269
0.628993
0.62025
0.610927
0.600677
0.589202
0.576474
0.562462
0.547554
0.531464
0.514795
0.497914
0.481133
0.464754
0.44876
0.432639
0.417064
0.401263
0.386176
0.370521
0.355685
0.340315
0.325482
0.310409
0.295753
0.280858
0.266412
0.25208
0.238207
0.224753
0.212037
0.20008
0.189121
0.179209
0.170707
0.163199
0.157109
0.152021
0.146918
0.142934
1
1
1
1
1
1
1
1
1
1
1
1
1.00001
1.00001
1.00001
1.00002
1.00003
1.00004
1.00006
1.00008
1.00011
1.00015
1.0002
1.00027
1.00036
1.00046
1.0006
1.00076
1.00095
1.00118
1.00145
1.00177
1.00213
1.00253
1.00299
1.00351
1.00407
1.00468
1.00535
1.00607
1.00683
1.00763
1.00848
1.00936
1.01026
1.01125
1.01236
1.01357
1.0149
1.01634
1.01792
1.01963
1.02148
1.02353
1.02577
1.02813
1.03161
1.0368
1.05122
1.07294
1.07161
1.04038
0.99364
0.923287
0.855207
0.805666
0.772138
0.748623
0.731063
0.717817
0.707073
0.698255
0.69062
0.683828
0.677516
0.671205
0.665073
0.658667
0.652109
0.644814
0.637856
0.629533
0.620432
0.610491
0.599288
0.586901
0.573103
0.557835
0.54129
0.523662
0.506072
0.488259
0.471233
0.454494
0.438038
0.422061
0.406077
0.390717
0.374989
0.360089
0.344651
0.329888
0.314892
0.300358
0.285653
0.271473
0.257396
0.24383
0.230736
0.218414
0.206835
0.196271
0.186767
0.178625
0.171523
0.165827
0.161242
0.156765
0.153484
1
1
1
1
1
1
1
1
1
1
1
1
1.00001
1.00001
1.00001
1.00002
1.00003
1.00004
1.00006
1.00008
1.00011
1.00016
1.00021
1.00028
1.00037
1.00049
1.00063
1.0008
1.001
1.00125
1.00154
1.00187
1.00225
1.00269
1.00318
1.00373
1.00433
1.00499
1.00571
1.00647
1.00729
1.00815
1.00906
1.01001
1.01099
1.01205
1.01324
1.01455
1.01599
1.01756
1.01928
1.02119
1.02323
1.02561
1.02802
1.0309
1.03439
1.04307
1.05462
1.07516
1.05357
0.997833
0.945767
0.873059
0.826109
0.78825
0.764473
0.745414
0.731617
0.720197
0.710925
0.702785
0.695762
0.689293
0.683476
0.677576
0.671894
0.66592
0.659906
0.65294
0.64633
0.638601
0.629836
0.620349
0.609601
0.597665
0.584285
0.569325
0.552846
0.534599
0.516239
0.497477
0.479577
0.461983
0.44505
0.428477
0.412206
0.396403
0.380559
0.365459
0.349927
0.335172
0.320202
0.305741
0.291182
0.277192
0.263332
0.250047
0.237287
0.225337
0.214174
0.20403
0.194963
0.187184
0.180495
0.17517
0.171064
0.167146
0.164462
1
1
1
1
1
1
1
1
1
1
1
1
1.00001
1.00001
1.00001
1.00002
1.00003
1.00004
1.00006
1.00008
1.00012
1.00016
1.00022
1.00029
1.00039
1.00051
1.00066
1.00084
1.00105
1.00131
1.00161
1.00197
1.00237
1.00283
1.00335
1.00392
1.00456
1.00525
1.006
1.00681
1.00766
1.00857
1.00952
1.01052
1.01154
1.01266
1.01392
1.01531
1.01682
1.0185
1.02035
1.02242
1.02467
1.02728
1.02993
1.03327
1.03782
1.04709
1.06775
1.05231
1.00897
0.959645
0.894923
0.844019
0.805027
0.780531
0.761149
0.747007
0.735258
0.725693
0.717351
0.709825
0.702962
0.696577
0.690829
0.685068
0.679569
0.673752
0.668069
0.66144
0.655053
0.647879
0.639446
0.630288
0.619976
0.608454
0.595591
0.581113
0.565131
0.54709
0.52814
0.508641
0.489795
0.471439
0.453947
0.436742
0.420096
0.403747
0.387695
0.372218
0.356553
0.341728
0.326733
0.312292
0.297839
0.283994
0.270323
0.257277
0.24479
0.233111
0.222243
0.212387
0.203667
0.196158
0.189814
0.184793
0.181089
0.177681
0.175544
1
1
1
1
1
1
1
1
1
1
1
1
1.00001
1.00001
1.00001
1.00002
1.00003
1.00004
1.00006
1.00009
1.00012
1.00017
1.00023
1.00031
1.00041
1.00053
1.00068
1.00087
1.0011
1.00137
1.00168
1.00205
1.00247
1.00295
1.00349
1.00409
1.00474
1.00546
1.00623
1.00706
1.00794
1.00888
1.00985
1.01087
1.01191
1.01305
1.01432
1.01571
1.01721
1.01884
1.02062
1.02253
1.02472
1.02715
1.03039
1.03405
1.04351
1.05145
1.05095
1.01954
0.964055
0.916449
0.86055
0.824359
0.797439
0.778552
0.763777
0.752219
0.742359
0.733798
0.726267
0.719242
0.712625
0.706018
0.699899
0.693955
0.688293
0.682387
0.676643
0.670116
0.663693
0.656918
0.64873
0.639816
0.629847
0.61868
0.606284
0.592325
0.576804
0.559379
0.54048
0.520537
0.50097
0.481832
0.463825
0.445944
0.428878
0.411965
0.395644
0.379715
0.363954
0.348989
0.333928
0.319469
0.305073
0.29131
0.277782
0.264932
0.252692
0.241305
0.230753
0.221271
0.212921
0.205706
0.199708
0.19498
0.191624
0.188693
0.187053
1
1
1
1
1
1
1
1
1
1
1
1
1.00001
1.00001
1.00001
1.00002
1.00003
1.00004
1.00006
1.00009
1.00013
1.00017
1.00024
1.00032
1.00042
1.00055
1.00071
1.0009
1.00114
1.00142
1.00175
1.00213
1.00256
1.00306
1.00361
1.00422
1.0049
1.00563
1.00642
1.00726
1.00815
1.00909
1.01007
1.01109
1.01213
1.01327
1.01454
1.01593
1.01741
1.01902
1.02074
1.02255
1.02441
1.02613
1.02764
1.03024
1.03112
1.04398
1.02441
0.974904
0.932807
0.878223
0.842604
0.814685
0.795269
0.779888
0.768065
0.758135
0.749815
0.742183
0.735312
0.728946
0.722882
0.716636
0.710391
0.704134
0.698391
0.692349
0.686452
0.679993
0.673464
0.666994
0.659216
0.650437
0.640765
0.629832
0.617768
0.604137
0.589048
0.572047
0.553543
0.533326
0.513315
0.493242
0.474692
0.456063
0.438553
0.421082
0.4045
0.388156
0.372371
0.357193
0.342085
0.327597
0.313264
0.299585
0.286226
0.273564
0.26157
0.250402
0.240081
0.230791
0.22263
0.215586
0.209842
0.205376
0.202302
0.199808
0.198612
1
1
1
1
1
1
1
1
1
1
1
1
1.00001
1.00001
1.00001
1.00002
1.00003
1.00005
1.00007
1.00009
1.00013
1.00018
1.00024
1.00033
1.00043
1.00057
1.00073
1.00094
1.00118
1.00147
1.0018
1.0022
1.00264
1.00315
1.00371
1.00434
1.00502
1.00576
1.00655
1.0074
1.00829
1.00922
1.0102
1.0112
1.01223
1.01335
1.01458
1.01591
1.01737
1.01893
1.02062
1.02246
1.02441
1.02625
1.02838
1.03153
1.0327
1.02586
0.993416
0.947002
0.897597
0.858616
0.830278
0.810632
0.795123
0.783068
0.772969
0.764386
0.757051
0.750396
0.744034
0.738133
0.732665
0.726913
0.720953
0.714615
0.708656
0.702748
0.696667
0.690185
0.683493
0.677181
0.669866
0.661328
0.652009
0.641465
0.629788
0.6165
0.601782
0.585069
0.567017
0.546688
0.526505
0.505582
0.486421
0.467073
0.449168
0.431161
0.414317
0.397592
0.381737
0.366229
0.351064
0.336482
0.322146
0.308484
0.295196
0.282626
0.27078
0.259728
0.249587
0.240525
0.232644
0.225897
0.220495
0.216314
0.21345
0.211372
0.210571
1
1
1
1
1
1
1
1
1
1
1
1
1.00001
1.00001
1.00001
1.00002
1.00003
1.00005
1.00007
1.0001
1.00013
1.00018
1.00025
1.00034
1.00045
1.00059
1.00076
1.00096
1.00121
1.00151
1.00186
1.00226
1.00271
1.00323
1.0038
1.00444
1.00513
1.00587
1.00666
1.00751
1.00839
1.00932
1.01028
1.01126
1.01227
1.01335
1.01454
1.01581
1.01717
1.01866
1.02026
1.02207
1.02389
1.02573
1.02746
1.02861
1.02496
0.996163
0.956917
0.913468
0.87562
0.846872
0.826881
0.811403
0.799149
0.788707
0.779903
0.771972
0.764911
0.758743
0.752701
0.746643
0.741362
0.736069
0.730376
0.724261
0.717932
0.712387
0.706456
0.700002
0.693303
0.687053
0.680255
0.672099
0.66326
0.653274
0.642096
0.629321
0.614987
0.598632
0.580834
0.560879
0.540435
0.519101
0.499101
0.479236
0.460787
0.442309
0.42513
0.408033
0.391928
0.376076
0.360813
0.346107
0.331784
0.318152
0.304955
0.292519
0.280837
0.269906
0.259965
0.251049
0.243316
0.236639
0.231394
0.22736
0.224671
0.222906
0.222513
1
1
1
1
1
1
1
1
1
1
1
1
1.00001
1.00001
1.00001
1.00002
1.00003
1.00005
1.00007
1.0001
1.00014
1.00019
1.00026
1.00035
1.00046
1.0006
1.00078
1.00099
1.00125
1.00155
1.00191
1.00231
1.00278
1.0033
1.00388
1.00452
1.00522
1.00597
1.00676
1.0076
1.00849
1.0094
1.01035
1.01132
1.0123
1.01334
1.01447
1.01566
1.0169
1.01826
1.01965
1.02108
1.02207
1.02215
1.02155
1.01785
1.00337
0.969919
0.930988
0.893719
0.865099
0.845269
0.829225
0.816545
0.806004
0.796575
0.788196
0.780998
0.773907
0.767715
0.762342
0.756398
0.750854
0.745985
0.740728
0.734913
0.728365
0.72261
0.717029
0.710585
0.703789
0.697336
0.690824
0.683086
0.674536
0.665045
0.654305
0.642097
0.628261
0.612489
0.595033
0.575654
0.555006
0.533544
0.512723
0.492339
0.473264
0.454301
0.436707
0.419212
0.402789
0.38667
0.371341
0.356547
0.342238
0.328574
0.315351
0.302896
0.291175
0.280209
0.270332
0.261489
0.253931
0.247527
0.242622
0.238822
0.236333
0.23484
0.234846
1
1
1
1
1
1
1
1
1
1
1
1
1.00001
1.00001
1.00002
1.00002
1.00003
1.00005
1.00007
1.0001
1.00014
1.0002
1.00027
1.00036
1.00047
1.00062
1.0008
1.00102
1.00128
1.00159
1.00195
1.00237
1.00284
1.00337
1.00396
1.0046
1.0053
1.00606
1.00686
1.0077
1.00858
1.00949
1.01043
1.01138
1.01234
1.01335
1.01446
1.01565
1.01696
1.01837
1.01984
1.02142
1.023
1.02362
1.02223
1.01569
0.986238
0.950267
0.910257
0.882207
0.862211
0.846888
0.834206
0.823661
0.814513
0.806217
0.797912
0.790841
0.784424
0.777676
0.772404
0.766792
0.760768
0.755586
0.750808
0.745308
0.738963
0.732632
0.727437
0.721272
0.71449
0.707876
0.70153
0.694142
0.685864
0.676786
0.66652
0.654967
0.641775
0.626723
0.609718
0.590883
0.570331
0.548792
0.527291
0.506338
0.486548
0.467134
0.448992
0.431123
0.414387
0.398037
0.382607
0.367638
0.353276
0.339496
0.32622
0.313786
0.30211
0.291249
0.281561
0.272843
0.265468
0.259072
0.254197
0.250371
0.247977
0.246722
0.247084
1
1
1
1
1
1
1
1
1
1
1
1
1.00001
1.00001
1.00002
1.00002
1.00003
1.00005
1.00007
1.0001
1.00014
1.0002
1.00027
1.00037
1.00049
1.00063
1.00082
1.00104
1.00131
1.00162
1.00199
1.00241
1.00289
1.00343
1.00402
1.00468
1.00539
1.00615
1.00695
1.0078
1.00869
1.00961
1.01055
1.01151
1.01248
1.01352
1.01465
1.01586
1.0171
1.01834
1.01948
1.02039
1.02033
1.01808
1.00957
0.99178
0.961739
0.926829
0.899196
0.878571
0.862862
0.850259
0.839263
0.829513
0.820989
0.813354
0.805749
0.798311
0.792668
0.786075
0.780201
0.775286
0.769576
0.7639
0.759661
0.754742
0.749149
0.742495
0.737507
0.731715
0.725094
0.718473
0.712286
0.705193
0.697171
0.688413
0.678562
0.667548
0.654987
0.640664
0.624303
0.606062
0.585932
0.564416
0.5425
0.520885
0.500398
0.480547
0.461809
0.443653
0.426612
0.41012
0.394518
0.379438
0.365039
0.351164
0.337869
0.325387
0.313605
0.302664
0.292832
0.283995
0.27662
0.27032
0.265705
0.262074
0.260047
0.258941
0.259643
1
1
1
1
1
1
1
1
1
1
1
1
1.00001
1.00001
1.00002
1.00002
1.00004
1.00005
1.00007
1.00011
1.00015
1.0002
1.00028
1.00037
1.0005
1.00065
1.00084
1.00106
1.00133
1.00165
1.00203
1.00246
1.00294
1.00349
1.00409
1.00475
1.00546
1.00623
1.00705
1.0079
1.0088
1.00973
1.01069
1.01168
1.01268
1.01374
1.01492
1.01617
1.0175
1.01899
1.02052
1.02173
1.0214
1.01949
1.0079
0.980537
0.942351
0.915263
0.891099
0.87616
0.863428
0.853832
0.844958
0.836465
0.828574
0.821633
0.814927
0.807321
0.801356
0.79575
0.789329
0.784698
0.779502
0.773404
0.768872
0.764332
0.759327
0.752519
0.747545
0.741911
0.735507
0.728954
0.722919
0.716147
0.708439
0.700025
0.690608
0.680096
0.668154
0.65455
0.63894
0.621296
0.601669
0.580416
0.5583
0.536161
0.514965
0.494721
0.475442
0.457026
0.439639
0.422919
0.407014
0.391752
0.377107
0.36312
0.349748
0.337222
0.325394
0.314444
0.304643
0.295934
0.288768
0.282469
0.277846
0.274125
0.272207
0.271108
0.272108
1
1
1
1
1
1
1
1
1
1
1
1
1.00001
1.00001
1.00002
1.00002
1.00004
1.00005
1.00008
1.00011
1.00015
1.00021
1.00028
1.00038
1.00051
1.00066
1.00085
1.00108
1.00136
1.00168
1.00206
1.00249
1.00298
1.00353
1.00414
1.00481
1.00553
1.0063
1.00713
1.00799
1.0089
1.00985
1.01083
1.01184
1.01286
1.01396
1.01516
1.01641
1.01773
1.01895
1.01979
1.01994
1.01829
1.00582