/*--------------------------------*- C++ -*----------------------------------*\
| =========                 |                                                 |
| \\      /  F ield         | OpenFOAM: The Open Source CFD Toolbox           |
|  \\    /   O peration     | Version:  2.2.x                                 |
|   \\  /    A nd           | Web:      www.OpenFOAM.org                      |
|    \\/     M anipulation  |                                                 |
\*---------------------------------------------------------------------------*/
FoamFile
{
    version     2.0;
    format      ascii;
    class       volVectorField;
    location    "0.4";
    object      U;
}
// * * * * * * * * * * * * * * * * * * * * * * * * * * * * * * * * * * * * * //

dimensions      [0 1 -1 0 0 0 0];

internalField   nonuniform List<vector> 
14161
(
(1.5 1.48195e-12 9.14415e-22)
(1.5 2.00957e-12 1.41211e-21)
(1.5 3.14591e-12 1.4214e-21)
(1.5 4.26362e-12 1.03875e-21)
(1.5 3.40539e-12 1.09424e-21)
(1.5 5.458e-12 5.46718e-22)
(1.5 1.04899e-11 1.31337e-21)
(1.5 1.80535e-11 7.68317e-22)
(1.5 2.83519e-11 1.69922e-21)
(1.5 4.18171e-11 1.33754e-21)
(1.5 5.43984e-11 2.07277e-21)
(1.5 8.45905e-11 1.52205e-21)
(1.50001 8.91635e-11 1.58788e-21)
(1.50001 8.44581e-11 1.60974e-21)
(1.50001 5.68291e-10 1.50568e-21)
(1.50002 -4.9278e-10 1.88686e-21)
(1.50002 -7.50639e-10 1.88411e-21)
(1.50003 2.84712e-09 1.28903e-21)
(1.50005 -3.56729e-09 1.32691e-21)
(1.50006 -4.19236e-09 5.41197e-22)
(1.50008 8.01317e-09 1.91822e-22)
(1.50011 -1.80053e-08 -5.74868e-23)
(1.50013 -1.55944e-08 -7.60402e-22)
(1.50017 1.74213e-08 -1.00168e-21)
(1.5002 -1.94297e-08 -1.83435e-21)
(1.50024 4.29788e-08 -2.00008e-21)
(1.50028 1.87545e-08 -2.29568e-21)
(1.50031 2.67664e-08 -2.55103e-21)
(1.50032 -3.88671e-08 -2.81488e-21)
(1.50033 -7.33559e-08 -2.86111e-21)
(1.50031 -1.00821e-07 -2.93809e-21)
(1.50028 -1.15471e-07 -2.99643e-21)
(1.50021 -7.56159e-08 -3.08376e-21)
(1.50011 -2.08249e-07 -3.15772e-21)
(1.49997 -1.13237e-07 -3.33845e-21)
(1.49977 -3.60483e-07 -3.30213e-21)
(1.49952 -8.84283e-08 -3.49064e-21)
(1.49921 -4.7704e-07 -3.34461e-21)
(1.49884 -6.84296e-08 -4.34808e-21)
(1.49839 -5.62338e-07 -3.49099e-21)
(1.49788 -1.02277e-07 -1.01205e-21)
(1.4973 -2.29596e-07 -1.61152e-21)
(1.49665 -9.05852e-07 -1.63257e-20)
(1.49594 -1.56949e-06 -1.21666e-20)
(1.49516 2.35013e-07 3.22816e-20)
(1.4943 2.09347e-06 2.24654e-20)
(1.49333 -4.23613e-06 -4.82458e-20)
(1.49222 -1.85774e-06 -5.29161e-20)
(1.491 1.93472e-06 7.01637e-20)
(1.48963 1.80466e-06 6.385e-20)
(1.48807 -3.34382e-06 -6.82917e-20)
(1.48634 2.53976e-07 -9.06944e-20)
(1.48451 -2.57217e-06 5.76205e-20)
(1.48243 2.31918e-06 6.42189e-20)
(1.48008 -3.21147e-06 -4.58606e-20)
(1.4775 8.82661e-06 -6.56869e-20)
(1.47482 -7.62394e-06 8.62073e-21)
(1.4719 1.12754e-05 2.63096e-20)
(1.46888 2.80137e-05 1.10352e-20)
(1.46525 0.000186321 -5.8292e-21)
(1.45954 0.000924611 1.20234e-20)
(1.43987 0.00312284 8.38203e-20)
(1.30155 0.00645935 2.06162e-19)
(0.866036 0.00821899 3.05621e-19)
(0.60317 0.0059841 3.04601e-19)
(0.507813 -0.00204691 2.94349e-19)
(0.498749 -0.00994455 2.62495e-19)
(0.512522 -0.0138355 2.15241e-19)
(0.548194 -0.016852 1.70389e-19)
(0.589159 -0.0204995 8.7735e-20)
(0.632741 -0.0206376 5.1342e-20)
(0.674374 -0.0197466 5.05748e-20)
(0.714055 -0.0183653 1.23516e-19)
(0.751436 -0.0166174 2.28838e-20)
(0.785823 -0.0146891 -1.72514e-19)
(0.815556 -0.0124266 1.0619e-19)
(0.841542 -0.0111305 5.47345e-19)
(0.863624 -0.00928758 1.03364e-19)
(0.881839 -0.00810558 -7.90236e-19)
(0.896132 -0.00589095 -2.64982e-19)
(0.908087 -0.00581823 1.10548e-18)
(0.917179 -0.00515073 7.30199e-19)
(0.924026 -0.00428328 -6.95088e-19)
(0.928227 -0.00234977 -5.55818e-19)
(0.928877 0.000189358 2.45003e-19)
(0.922753 0.00461858 4.62844e-19)
(0.904836 0.0109669 3.05069e-19)
(0.871495 0.0184481 6.31876e-20)
(0.818986 0.0262163 -5.40488e-20)
(0.748904 0.0313872 1.90374e-20)
(0.67024 0.0353639 9.8562e-20)
(0.595913 0.0359771 5.28431e-20)
(0.53483 0.0315348 7.71834e-21)
(0.485639 0.0259173 8.95466e-21)
(0.445222 0.0213073 1.03844e-21)
(0.411168 0.017698 -3.80671e-21)
(0.381945 0.014888 -9.2952e-21)
(0.355118 0.0127208 -2.10923e-20)
(0.331059 0.010969 -2.49049e-20)
(0.310676 0.00962335 -2.96696e-20)
(0.292893 0.00874301 -2.75936e-20)
(0.276267 0.00819786 -3.97151e-20)
(0.260018 0.00772044 -3.68012e-20)
(0.243973 0.00730073 -3.3671e-20)
(0.228935 0.00703731 -3.64984e-20)
(0.21515 0.00684744 -2.98855e-20)
(0.202371 0.00671036 -4.51289e-20)
(0.189946 0.00662635 -1.35753e-20)
(0.177604 0.00659648 -1.10216e-21)
(0.165087 0.00663868 -1.01835e-22)
(0.152255 0.00682913 3.70448e-20)
(0.13895 0.00713688 3.70902e-20)
(0.125001 0.00756063 6.88763e-20)
(0.110149 0.00816644 8.99456e-20)
(0.0937317 0.00909343 1.30134e-19)
(0.0754195 0.0101382 1.58586e-19)
(0.0560107 0.0111947 1.34224e-19)
(0.0356935 0.0108588 1.56279e-19)
(0.0166773 0.0174457 3.22487e-19)
(1.5 -2.60582e-12 8.03967e-22)
(1.5 3.16858e-12 1.29104e-21)
(1.5 1.37166e-12 1.10104e-21)
(1.5 -2.52572e-12 6.79931e-22)
(1.5 -1.00045e-11 8.46843e-22)
(1.5 -1.52866e-11 4.11845e-22)
(1.5 -2.02104e-11 8.08019e-22)
(1.5 -2.66013e-11 6.77937e-22)
(1.5 -3.52528e-11 1.62837e-21)
(1.5 -4.72594e-11 1.28894e-21)
(1.5 -6.47006e-11 2.02196e-21)
(1.5 -8.29567e-11 1.08221e-21)
(1.50001 -3.70387e-11 1.42941e-21)
(1.50001 -3.7772e-10 9.4757e-22)
(1.50001 7.31418e-10 9.89081e-22)
(1.50002 8.91801e-10 1.55678e-21)
(1.50002 -2.73546e-09 1.63221e-21)
(1.50003 4.86649e-09 2.21795e-22)
(1.50005 5.94519e-09 6.93699e-22)
(1.50006 -8.62164e-09 -2.79538e-22)
(1.50008 2.33233e-08 -4.92687e-22)
(1.50011 1.0609e-08 -9.46103e-22)
(1.50013 -2.21648e-08 -1.58474e-21)
(1.50017 7.60345e-08 -1.79954e-21)
(1.5002 4.74309e-08 -2.21137e-21)
(1.50024 2.53383e-07 -2.66523e-21)
(1.50028 2.12666e-07 -3.13376e-21)
(1.50031 3.72588e-07 -3.04733e-21)
(1.50032 3.69631e-07 -3.17104e-21)
(1.50033 4.2678e-07 -2.99401e-21)
(1.50031 5.63902e-07 -3.33581e-21)
(1.50028 7.22148e-07 -3.07279e-21)
(1.50022 1.00807e-06 -3.25407e-21)
(1.50012 1.11255e-06 -3.35113e-21)
(1.49997 1.46898e-06 -3.56515e-21)
(1.49978 1.65223e-06 -3.36252e-21)
(1.49953 2.24277e-06 -3.72015e-21)
(1.49922 2.50595e-06 -3.45981e-21)
(1.49885 3.29584e-06 -4.39008e-21)
(1.49841 3.47671e-06 -3.49491e-21)
(1.4979 4.55488e-06 -1.73923e-21)
(1.49732 5.92269e-06 -1.4208e-21)
(1.49667 4.49344e-06 -1.48071e-20)
(1.49596 4.09293e-06 -1.29019e-20)
(1.49519 9.11462e-06 2.69049e-20)
(1.49434 1.36181e-05 2.38755e-20)
(1.49336 1.7082e-06 -4.33973e-20)
(1.49226 8.46883e-06 -5.86823e-20)
(1.49104 2.00253e-05 6.54543e-20)
(1.48968 1.80231e-05 6.76841e-20)
(1.48812 7.5636e-06 -6.60035e-20)
(1.48639 2.11328e-05 -9.77418e-20)
(1.48456 1.46723e-05 5.184e-20)
(1.48247 2.14573e-05 6.7058e-20)
(1.48011 8.34587e-06 -3.96556e-20)
(1.47753 2.46544e-05 -7.02961e-20)
(1.47483 -8.67856e-06 5.31533e-21)
(1.47185 1.71556e-05 2.68413e-20)
(1.46864 6.53126e-05 1.40318e-20)
(1.46467 0.00039965 -1.3673e-21)
(1.45835 0.00168584 1.50653e-20)
(1.43818 0.00728903 1.02472e-19)
(1.30355 0.0163743 2.3217e-19)
(0.873639 0.025668 2.90654e-19)
(0.606067 0.0175913 3.25475e-19)
(0.513477 -0.00614002 3.22501e-19)
(0.507866 -0.0278182 2.9492e-19)
(0.531107 -0.0368675 2.26503e-19)
(0.571201 -0.0432252 1.58029e-19)
(0.615051 -0.047916 1.00304e-19)
(0.659383 -0.0438148 7.93628e-20)
(0.700059 -0.0377441 1.31017e-19)
(0.737575 -0.0318944 1.2589e-19)
(0.772067 -0.0265712 -6.84451e-20)
(0.802802 -0.0216943 -1.46037e-19)
(0.829615 -0.0173234 2.33063e-19)
(0.852942 -0.0144755 5.0464e-19)
(0.872523 -0.0117728 -2.70428e-20)
(0.889066 -0.0099986 -6.54072e-19)
(0.902321 -0.0100263 -1.20007e-19)
(0.912383 -0.00863506 9.15702e-19)
(0.919307 -0.00735628 5.16238e-19)
(0.923513 -0.00580161 -4.25013e-19)
(0.924163 -0.00405139 -3.61533e-19)
(0.917466 -6.52307e-05 1.63603e-19)
(0.901848 0.0054211 3.54722e-19)
(0.874107 0.0137888 2.73886e-19)
(0.829033 0.0246454 7.9382e-20)
(0.766119 0.0379787 -5.06111e-21)
(0.69135 0.0550129 5.39651e-20)
(0.614946 0.0638215 8.72756e-20)
(0.549542 0.0612433 4.08185e-20)
(0.498363 0.0532099 1.48859e-20)
(0.456915 0.0462821 2.40335e-20)
(0.422071 0.0408109 1.90246e-20)
(0.392386 0.0363771 1.34437e-20)
(0.366335 0.032547 1.68092e-20)
(0.341964 0.0292969 7.4377e-22)
(0.320051 0.0263846 9.37355e-21)
(0.301095 0.0238808 -1.3875e-21)
(0.28414 0.0221505 -4.75395e-21)
(0.268046 0.0208554 -2.44186e-20)
(0.252208 0.0196289 -6.98981e-21)
(0.236499 0.0185194 -2.88952e-21)
(0.221738 0.0177731 -7.86963e-21)
(0.208208 0.0172676 1.91859e-20)
(0.195642 0.0169652 2.52591e-20)
(0.183385 0.0168243 4.69957e-20)
(0.171151 0.0168522 7.88118e-20)
(0.15868 0.0170933 7.82032e-20)
(0.145863 0.0178578 1.40681e-19)
(0.132504 0.0189837 1.54848e-19)
(0.118428 0.0204314 2.01556e-19)
(0.103353 0.0223309 2.57282e-19)
(0.0867451 0.0253518 3.12081e-19)
(0.0686068 0.027897 3.31338e-19)
(0.0502394 0.0307588 4.86323e-19)
(0.0305113 0.031426 4.76542e-19)
(0.0126483 0.0401143 6.24783e-19)
(1.5 3.01782e-12 -1.20412e-22)
(1.5 9.9691e-12 -6.91474e-22)
(1.5 7.1504e-12 -3.21097e-22)
(1.5 4.16453e-12 2.2432e-22)
(1.5 -2.88025e-12 2.03875e-22)
(1.5 -5.29883e-12 -4.10683e-22)
(1.5 -2.25459e-12 1.61926e-22)
(1.5 6.00608e-12 3.49365e-22)
(1.5 2.06834e-11 1.46458e-21)
(1.5 4.42592e-11 1.04425e-21)
(1.5 8.44349e-11 1.66877e-21)
(1.5 1.41773e-10 -9.65639e-22)
(1.50001 3.04424e-10 -3.48736e-22)
(1.50001 4.12529e-10 3.00568e-22)
(1.50001 3.78238e-10 5.81007e-22)
(1.50002 2.08958e-09 -6.13007e-22)
(1.50002 -9.6358e-10 -4.48222e-22)
(1.50003 -9.36994e-10 -1.54275e-21)
(1.50005 8.6503e-09 -2.01773e-21)
(1.50006 -8.49445e-09 -1.90319e-21)
(1.50008 5.58837e-09 -3.08208e-21)
(1.50011 2.6632e-08 -4.14738e-21)
(1.50013 -4.98527e-08 -2.62354e-21)
(1.50017 4.63464e-08 -3.92749e-21)
(1.50021 4.95716e-08 -5.11876e-21)
(1.50025 2.78737e-07 -4.6148e-21)
(1.50028 1.70261e-07 -4.50358e-21)
(1.50031 4.50423e-07 -4.4485e-21)
(1.50033 5.90797e-07 -3.93706e-21)
(1.50033 4.26564e-07 -3.60121e-21)
(1.50032 6.84782e-07 -3.91208e-21)
(1.50029 9.28757e-07 -3.67481e-21)
(1.50023 1.18095e-06 -4.10603e-21)
(1.50013 1.48251e-06 -3.60035e-21)
(1.49999 1.48786e-06 -4.19357e-21)
(1.4998 2.2788e-06 -3.85191e-21)
(1.49956 2.21241e-06 -3.97909e-21)
(1.49925 3.55481e-06 -3.96711e-21)
(1.49889 3.31196e-06 -4.59435e-21)
(1.49845 4.70895e-06 -3.86371e-21)
(1.49795 5.20294e-06 -3.24538e-21)
(1.49738 8.49967e-06 -1.21368e-21)
(1.49674 4.43115e-06 -1.15028e-20)
(1.49604 3.7856e-06 -1.50234e-20)
(1.49528 1.50456e-05 1.29459e-20)
(1.49443 1.84285e-05 3.12443e-20)
(1.49347 8.10658e-07 -2.90402e-20)
(1.49238 7.48287e-06 -6.99438e-20)
(1.49117 3.34742e-05 4.67004e-20)
(1.48982 2.67022e-05 7.84459e-20)
(1.48828 9.47737e-06 -5.53563e-20)
(1.48658 3.09428e-05 -1.08346e-19)
(1.48473 1.95056e-05 4.06595e-20)
(1.48264 3.33436e-05 8.15437e-20)
(1.48028 1.29331e-05 -2.67836e-20)
(1.47769 4.82417e-05 -8.49028e-20)
(1.47494 1.61543e-05 -4.31944e-21)
(1.47184 4.28335e-05 2.51825e-20)
(1.46844 0.000157907 1.85115e-20)
(1.46393 0.000805515 3.60519e-21)
(1.45621 0.0030355 1.73327e-20)
(1.43321 0.0113823 1.22585e-19)
(1.30569 0.024382 2.43588e-19)
(0.89759 0.0417303 3.15469e-19)
(0.617632 0.026259 3.65257e-19)
(0.526147 -0.0134118 3.74292e-19)
(0.519394 -0.0534828 3.32915e-19)
(0.550014 -0.0734021 2.50932e-19)
(0.59317 -0.0849707 1.82512e-19)
(0.639012 -0.0895606 1.06082e-19)
(0.683318 -0.0820289 7.23244e-20)
(0.723856 -0.0711793 1.89571e-19)
(0.760821 -0.0605617 1.88192e-19)
(0.793513 -0.0504642 -1.08072e-19)
(0.821984 -0.0409262 -1.96621e-19)
(0.846729 -0.0336977 2.73699e-19)
(0.867776 -0.0280553 5.23074e-19)
(0.88431 -0.0234471 -1.21374e-19)
(0.898718 -0.0197093 -5.7147e-19)
(0.909063 -0.0176852 4.87791e-20)
(0.914428 -0.0158087 5.8666e-19)
(0.916783 -0.0144965 3.01509e-19)
(0.913227 -0.0109037 -1.31659e-19)
(0.905606 -0.00417227 -1.52263e-19)
(0.889152 0.00602757 6.17095e-20)
(0.862788 0.0213999 2.22208e-19)
(0.820558 0.0410558 1.87033e-19)
(0.760033 0.0639105 4.44121e-20)
(0.688702 0.0920601 1.99921e-20)
(0.617572 0.112569 8.87452e-20)
(0.555308 0.116053 6.46873e-20)
(0.50744 0.107665 4.10193e-20)
(0.469862 0.0940165 2.43282e-20)
(0.437642 0.0821429 4.60337e-20)
(0.409259 0.0726372 2.68943e-20)
(0.384023 0.0647323 3.42194e-20)
(0.360651 0.0579099 4.75615e-20)
(0.337958 0.0518885 2.51808e-20)
(0.317106 0.0464922 3.7777e-20)
(0.298539 0.0421219 3.22949e-20)
(0.281403 0.0392059 4.73525e-20)
(0.264962 0.0368064 1.78758e-20)
(0.248772 0.0345147 3.36184e-20)
(0.232814 0.0325254 2.13269e-20)
(0.217872 0.0311309 4.54585e-20)
(0.204189 0.0301673 5.38385e-20)
(0.191376 0.0296073 8.71795e-20)
(0.17889 0.0293062 7.01579e-20)
(0.166412 0.0293114 1.89208e-19)
(0.153677 0.0296696 2.04831e-19)
(0.140621 0.0308762 2.16399e-19)
(0.126981 0.0326578 2.11966e-19)
(0.112432 0.0349196 2.66826e-19)
(0.0968871 0.0378303 3.2055e-19)
(0.0804232 0.0424876 3.5038e-19)
(0.0630034 0.0455424 4.53768e-19)
(0.046092 0.0501642 5.72843e-19)
(0.0277828 0.0518098 5.57781e-19)
(0.0124298 0.0619809 6.98755e-19)
(1.5 7.07484e-12 -6.07231e-22)
(1.5 1.51023e-11 -1.52342e-21)
(1.5 9.53694e-12 -2.54807e-21)
(1.5 4.30022e-12 -1.19745e-23)
(1.5 -3.76093e-12 -7.31786e-22)
(1.5 -3.08743e-12 -1.54456e-21)
(1.5 8.2836e-12 -5.52021e-22)
(1.5 3.05216e-11 -9.09755e-23)
(1.5 6.70394e-11 8.8466e-22)
(1.5 1.10323e-10 -3.2983e-22)
(1.5 1.6826e-10 -2.53682e-21)
(1.5 2.21164e-10 -3.80344e-21)
(1.50001 3.12206e-10 -4.33718e-21)
(1.50001 8.69692e-10 -5.43609e-21)
(1.50001 -7.55729e-11 -2.40327e-21)
(1.50002 1.19912e-09 -7.00817e-21)
(1.50002 5.0269e-09 -7.66675e-21)
(1.50003 -1.67168e-09 -6.27942e-21)
(1.50005 7.20349e-09 -1.05284e-20)
(1.50006 1.45307e-08 -5.69931e-21)
(1.50008 -8.45518e-09 -6.45741e-21)
(1.50011 4.52857e-08 -6.20612e-21)
(1.50014 2.32053e-08 -7.20235e-21)
(1.50017 4.53314e-09 -5.62685e-21)
(1.50021 6.36088e-08 -6.59326e-21)
(1.50025 4.57004e-07 -7.34931e-21)
(1.50029 5.21649e-07 -6.0622e-21)
(1.50032 7.21553e-07 -4.6325e-21)
(1.50034 9.17018e-07 -6.20524e-21)
(1.50034 9.16346e-07 -7.29671e-21)
(1.50033 1.45391e-06 -6.95233e-21)
(1.50031 1.82945e-06 -6.75096e-21)
(1.50025 2.05692e-06 -6.59172e-21)
(1.50016 2.60043e-06 -6.62886e-21)
(1.50003 2.90765e-06 -6.33081e-21)
(1.49984 3.93038e-06 -6.0216e-21)
(1.49961 4.53499e-06 -6.43912e-21)
(1.49931 6.10316e-06 -5.99375e-21)
(1.49896 6.81266e-06 -6.02425e-21)
(1.49854 8.06105e-06 -6.29051e-21)
(1.49805 1.01581e-05 -6.25709e-21)
(1.49749 1.27029e-05 -3.20663e-21)
(1.49687 9.36603e-06 -6.61376e-21)
(1.49618 9.68156e-06 -1.91063e-20)
(1.49543 2.43939e-05 -6.53688e-21)
(1.49461 2.46398e-05 2.94606e-20)
(1.49367 6.99791e-06 -2.39093e-21)
(1.49261 1.598e-05 -9.12066e-20)
(1.49142 4.10719e-05 -6.47272e-21)
(1.49009 3.47535e-05 9.68015e-20)
(1.48859 1.26395e-05 -1.84696e-20)
(1.48692 4.20201e-05 -1.24289e-19)
(1.48506 3.59133e-05 -4.40402e-21)
(1.48298 4.8464e-05 9.91177e-20)
(1.48066 1.539e-05 -2.19942e-22)
(1.4781 4.829e-05 -8.46152e-20)
(1.4753 2.44225e-05 -1.76386e-20)
(1.4722 5.30531e-05 2.08399e-20)
(1.46879 0.000173637 1.99525e-20)
(1.46414 0.000884363 8.07566e-21)
(1.45563 0.00353755 2.33136e-20)
(1.42759 0.0133504 1.34341e-19)
(1.31609 0.0245907 1.91516e-19)
(0.952335 0.0513449 4.25247e-19)
(0.639505 0.0251682 4.40566e-19)
(0.55024 -0.0272995 4.60851e-19)
(0.545609 -0.0795499 4.01372e-19)
(0.5866 -0.106025 3.26925e-19)
(0.634047 -0.123192 2.90308e-19)
(0.684287 -0.123326 1.90452e-19)
(0.728489 -0.109191 9.592e-20)
(0.767274 -0.0912597 2.40759e-19)
(0.801006 -0.0749497 2.90115e-19)
(0.829148 -0.0601161 -8.38536e-20)
(0.853407 -0.0474928 -2.11192e-19)
(0.874008 -0.037849 2.95943e-19)
(0.890048 -0.031175 4.28041e-19)
(0.900915 -0.025449 -1.91769e-19)
(0.908967 -0.0220133 -3.91138e-19)
(0.912733 -0.0203976 8.83146e-20)
(0.911659 -0.0173781 3.17262e-19)
(0.90393 -0.0130016 1.8247e-19)
(0.888838 -0.00541479 -4.34965e-21)
(0.866225 0.00671717 -5.10216e-20)
(0.831258 0.0233096 5.55786e-20)
(0.779832 0.0430367 1.41929e-19)
(0.716436 0.0705701 9.57709e-20)
(0.644995 0.103701 2.07631e-20)
(0.577332 0.12748 6.3228e-20)
(0.524389 0.140409 5.29422e-20)
(0.484832 0.143134 4.52189e-20)
(0.453939 0.130949 4.06029e-20)
(0.428105 0.115045 3.7229e-20)
(0.404354 0.101804 6.14601e-20)
(0.382315 0.0908347 6.54383e-20)
(0.361934 0.0818876 7.5797e-20)
(0.34224 0.074698 1.02557e-19)
(0.323073 0.0683201 9.60823e-20)
(0.305319 0.0623498 1.27264e-19)
(0.288773 0.0573626 1.31614e-19)
(0.272477 0.0539142 1.70665e-19)
(0.256522 0.0507978 1.62286e-19)
(0.240701 0.047663 1.81309e-19)
(0.225008 0.045027 2.11519e-19)
(0.210194 0.0431394 2.33074e-19)
(0.196598 0.0418284 3.02264e-19)
(0.183629 0.0410125 2.56291e-19)
(0.170933 0.0404717 2.86263e-19)
(0.158238 0.040397 1.85673e-19)
(0.145314 0.0408859 4.94586e-19)
(0.132213 0.0426219 2.31427e-19)
(0.11877 0.0452799 3.57499e-19)
(0.104785 0.0488371 2.68076e-19)
(0.0899235 0.0528194 2.80449e-19)
(0.0746514 0.0588087 3.26062e-19)
(0.0583579 0.0619065 2.64156e-19)
(0.0429698 0.067958 5.23622e-19)
(0.0261987 0.0701715 5.23915e-19)
(0.0134267 0.0807947 6.21414e-19)
(1.5 1.30468e-11 -4.60655e-21)
(1.5 2.14533e-11 -6.58038e-21)
(1.5 1.24704e-11 -1.03852e-20)
(1.5 4.56252e-12 -1.77096e-20)
(1.5 -5.12641e-12 -2.61344e-20)
(1.5 -5.70915e-12 -3.05986e-20)
(1.5 3.40027e-12 -3.73582e-20)
(1.5 2.26342e-11 -4.36715e-20)
(1.5 5.26766e-11 -4.04627e-20)
(1.5 1.02996e-10 -3.85367e-20)
(1.5 1.82021e-10 -4.77172e-20)
(1.5 3.5628e-10 -3.22202e-20)
(1.50001 4.49253e-10 -3.15743e-20)
(1.50001 1.0668e-09 -3.0904e-20)
(1.50001 1.74621e-09 -3.12983e-20)
(1.50002 2.89131e-10 -2.49935e-20)
(1.50002 6.02659e-09 -2.14064e-20)
(1.50003 5.23916e-09 -1.85692e-20)
(1.50005 1.67404e-09 -1.43228e-20)
(1.50006 2.68089e-08 -2.18096e-20)
(1.50008 3.01342e-09 -1.7935e-20)
(1.50011 1.29771e-08 -1.44089e-20)
(1.50014 9.336e-08 -1.59443e-20)
(1.50017 3.32026e-08 -1.3656e-20)
(1.50021 -8.73924e-08 -1.07873e-20)
(1.50025 4.74998e-07 -1.16394e-20)
(1.50029 8.57578e-07 -1.29261e-20)
(1.50033 1.10659e-06 -1.33413e-20)
(1.50035 1.05579e-06 -1.04273e-20)
(1.50036 8.80674e-07 -8.56687e-21)
(1.50035 1.60124e-06 -9.66645e-21)
(1.50033 2.05645e-06 -1.04501e-20)
(1.50028 2.49e-06 -9.58971e-21)
(1.5002 2.92715e-06 -1.04015e-20)
(1.50008 3.91192e-06 -1.12614e-20)
(1.49991 4.53951e-06 -8.55297e-21)
(1.49969 6.18505e-06 -9.25396e-21)
(1.49941 6.4838e-06 -1.01526e-20)
(1.49907 8.48669e-06 -9.41898e-21)
(1.49867 9.12527e-06 -9.93684e-21)
(1.4982 1.32331e-05 -1.11054e-20)
(1.49767 1.35278e-05 -7.89219e-21)
(1.49707 1.2209e-05 -7.35854e-21)
(1.49641 1.49236e-05 -1.76415e-20)
(1.49568 3.02313e-05 -1.92114e-20)
(1.49488 3.06514e-05 1.24273e-20)
(1.49398 1.41334e-05 7.5908e-21)
(1.49296 2.2823e-05 -4.65616e-20)
(1.49181 4.76808e-05 -3.93259e-20)
(1.49051 4.43131e-05 4.61644e-20)
(1.48905 2.33069e-05 1.77665e-20)
(1.48742 4.68658e-05 -8.1236e-20)
(1.4856 5.23106e-05 -4.1761e-20)
(1.48355 7.3274e-05 4.5509e-20)
(1.48127 3.39443e-05 1.73396e-20)
(1.47874 7.81358e-05 -5.93042e-20)
(1.47593 3.5665e-05 -4.43977e-20)
(1.47283 5.27743e-05 -1.35304e-20)
(1.46943 9.21993e-05 -2.18534e-21)
(1.46483 0.000558794 6.46722e-22)
(1.4569 0.00276839 2.25539e-20)
(1.43384 0.0110151 1.35565e-19)
(1.34368 0.0256447 2.52144e-19)
(1.01724 0.039298 4.89531e-19)
(0.668842 0.00885639 5.36517e-19)
(0.577313 -0.0547956 5.60567e-19)
(0.575591 -0.119351 4.84799e-19)
(0.626946 -0.152344 3.83675e-19)
(0.681698 -0.171821 3.70658e-19)
(0.732716 -0.165945 3.01103e-19)
(0.774557 -0.143214 1.59168e-19)
(0.810842 -0.115914 2.34996e-19)
(0.839876 -0.0917109 2.76395e-19)
(0.862002 -0.0715964 -3.76998e-20)
(0.881202 -0.0551379 -1.5777e-19)
(0.896356 -0.0432974 2.62542e-19)
(0.905568 -0.0345284 2.68832e-19)
(0.909913 -0.0286129 -2.03775e-19)
(0.908245 -0.0235134 -2.45332e-19)
(0.903109 -0.0182339 8.23808e-20)
(0.889859 -0.0117205 1.71211e-19)
(0.868905 -0.00144392 1.06626e-19)
(0.836764 0.0127138 3.69699e-21)
(0.792344 0.0323504 -2.18259e-20)
(0.734159 0.0581969 5.00894e-20)
(0.665882 0.0935301 6.96582e-20)
(0.594899 0.127497 2.55995e-20)
(0.533374 0.152147 9.49045e-21)
(0.487865 0.168037 1.25471e-20)
(0.454163 0.172138 1.22028e-20)
(0.428446 0.166029 2.37287e-21)
(0.409327 0.151684 4.55433e-20)
(0.391963 0.13516 4.29828e-20)
(0.374149 0.121234 7.54749e-20)
(0.35662 0.1097 8.11748e-20)
(0.33951 0.0999352 1.28514e-19)
(0.322372 0.0918549 1.18864e-19)
(0.306058 0.0842703 1.44009e-19)
(0.291008 0.0774283 1.68778e-19)
(0.276436 0.0721982 1.87205e-19)
(0.261803 0.0686743 2.36816e-19)
(0.247388 0.0652468 2.42136e-19)
(0.232927 0.0618359 2.36544e-19)
(0.218162 0.0589158 3.04347e-19)
(0.203862 0.0566888 2.84531e-19)
(0.190556 0.0549749 3.74947e-19)
(0.177495 0.0538985 3.51572e-19)
(0.164545 0.0531075 3.8182e-19)
(0.151504 0.0528937 2.2331e-19)
(0.138304 0.0534442 3.57754e-19)
(0.125022 0.0554577 4.36374e-19)
(0.111632 0.0584761 2.37683e-19)
(0.097916 0.0625719 3.3432e-19)
(0.0836555 0.0672454 2.2208e-19)
(0.0695133 0.0738307 2.4581e-19)
(0.0544548 0.0771634 8.62487e-20)
(0.040666 0.0842441 3.66007e-19)
(0.0254056 0.0868364 4.41465e-19)
(0.0148913 0.0974831 5.39294e-19)
(1.5 2.0093e-11 -3.26651e-21)
(1.5 2.88505e-11 -8.32595e-21)
(1.5 1.60232e-11 -1.1804e-20)
(1.5 5.88913e-12 -2.17323e-20)
(1.5 -2.18808e-12 -3.21311e-20)
(1.5 6.30658e-13 -4.25912e-20)
(1.5 1.67287e-11 -4.31397e-20)
(1.5 4.5913e-11 -3.83693e-20)
(1.5 8.83092e-11 -5.30058e-20)
(1.5 1.46122e-10 -5.32661e-20)
(1.5 2.24465e-10 -4.00694e-20)
(1.5 3.80962e-10 -5.66888e-20)
(1.50001 6.08811e-10 -6.11545e-20)
(1.50001 4.80334e-10 -4.45595e-20)
(1.50001 2.07934e-09 -4.47498e-20)
(1.50002 2.52644e-09 -3.65147e-20)
(1.50002 2.02218e-09 -4.32067e-20)
(1.50003 1.03475e-08 -2.47716e-20)
(1.50005 7.00354e-09 -3.01103e-20)
(1.50006 1.33863e-08 -2.83923e-20)
(1.50008 4.4174e-08 -2.41947e-20)
(1.50011 -1.17871e-08 -2.16086e-20)
(1.50014 5.88303e-08 -1.82234e-20)
(1.50017 1.39133e-07 -1.78514e-20)
(1.50021 -1.55991e-07 -1.70843e-20)
(1.50026 2.9418e-07 -1.60413e-20)
(1.5003 1.16265e-06 -2.01339e-20)
(1.50034 1.39013e-06 -2.01452e-20)
(1.50037 1.4394e-06 -2.10456e-20)
(1.50038 1.43308e-06 -2.58032e-20)
(1.50038 2.26778e-06 -2.492e-20)
(1.50037 3.11442e-06 -2.63281e-20)
(1.50033 3.7173e-06 -2.60155e-20)
(1.50026 4.53174e-06 -2.66884e-20)
(1.50015 5.55538e-06 -2.58848e-20)
(1.5 6.645e-06 -2.54576e-20)
(1.49979 8.26808e-06 -2.43494e-20)
(1.49954 9.84774e-06 -2.44604e-20)
(1.49922 1.13923e-05 -2.35218e-20)
(1.49885 1.35687e-05 -2.50286e-20)
(1.49841 1.70367e-05 -2.37684e-20)
(1.49791 1.91189e-05 -2.5958e-20)
(1.49734 1.72868e-05 -2.07544e-20)
(1.49672 2.23954e-05 -2.81743e-20)
(1.49603 3.55479e-05 -2.53196e-20)
(1.49527 3.56994e-05 -2.57598e-20)
(1.49441 2.36948e-05 -1.64649e-20)
(1.49344 3.56605e-05 -3.01673e-20)
(1.49234 5.98745e-05 -3.54151e-20)
(1.4911 5.44578e-05 -1.77667e-20)
(1.48971 3.70104e-05 5.25401e-21)
(1.48814 6.29997e-05 -4.55235e-20)
(1.48638 7.97236e-05 -5.36975e-20)
(1.48439 8.30213e-05 -2.40947e-20)
(1.48216 7.04765e-05 -9.02649e-21)
(1.47968 0.000103166 -4.55804e-20)
(1.47687 7.07227e-05 -5.65676e-20)
(1.47377 2.8212e-05 -4.03403e-20)
(1.47039 -6.41098e-05 -2.88845e-20)
(1.46605 -0.000208266 -6.69591e-21)
(1.45965 -0.000278879 6.04892e-21)
(1.44338 0.000312654 8.04151e-20)
(1.38074 0.00251781 3.04442e-19)
(1.09538 0.00555293 6.03998e-19)
(0.714443 -0.026451 7.31604e-19)
(0.618371 -0.0953037 7.79766e-19)
(0.620633 -0.163196 6.85762e-19)
(0.678679 -0.197647 5.94178e-19)
(0.735578 -0.214774 5.50817e-19)
(0.781779 -0.201265 4.07605e-19)
(0.818227 -0.170689 2.56022e-19)
(0.848446 -0.134442 2.41617e-19)
(0.869451 -0.102102 1.97418e-19)
(0.884305 -0.0777586 -5.39006e-20)
(0.89878 -0.0578067 -6.77686e-20)
(0.905743 -0.0440636 2.2481e-19)
(0.906419 -0.0317714 8.57276e-20)
(0.902171 -0.0221921 -1.81317e-19)
(0.889635 -0.0132289 -1.50976e-19)
(0.868664 -0.00443859 2.50958e-20)
(0.83969 0.00831373 7.97924e-20)
(0.797406 0.0247271 3.06168e-20)
(0.742746 0.0466231 -3.19627e-20)
(0.678534 0.0781771 -1.18303e-20)
(0.610212 0.11902 2.25434e-20)
(0.543942 0.15057 -3.74359e-21)
(0.491237 0.174413 -2.81381e-20)
(0.453164 0.189014 -3.4093e-20)
(0.424539 0.194912 -4.27748e-20)
(0.402774 0.19229 -3.94352e-20)
(0.38618 0.181381 -5.1251e-20)
(0.373207 0.165682 -3.11061e-20)
(0.360147 0.149469 -2.0999e-20)
(0.346125 0.135986 1.17596e-20)
(0.332076 0.124713 2.45624e-20)
(0.317815 0.114728 4.92933e-20)
(0.302883 0.105911 9.18568e-20)
(0.288782 0.0977218 6.79889e-20)
(0.275434 0.0906441 1.54103e-19)
(0.262022 0.0854354 1.28317e-19)
(0.248661 0.0815701 2.10076e-19)
(0.235525 0.0776509 1.31511e-19)
(0.221921 0.0739258 2.04585e-19)
(0.208009 0.0709249 2.41181e-19)
(0.194626 0.068805 2.03786e-19)
(0.182114 0.067008 3.28249e-19)
(0.169657 0.0660444 2.90521e-19)
(0.157192 0.0653 3.30412e-19)
(0.144517 0.065212 3.45293e-19)
(0.131481 0.0658383 7.04814e-20)
(0.118434 0.0681767 3.55642e-19)
(0.105432 0.0715099 -2.10629e-20)
(0.0922274 0.0762156 6.52471e-20)
(0.0785778 0.0811573 1.45207e-19)
(0.0654267 0.0878868 9.42473e-20)
(0.0515606 0.0914461 1.58071e-19)
(0.0392232 0.0991195 1.54633e-19)
(0.025341 0.101971 2.37897e-19)
(0.0167094 0.11235 3.20615e-19)
(1.5 2.85705e-11 -1.13543e-20)
(1.5 3.66316e-11 -2.23e-20)
(1.5 1.72683e-11 -2.7494e-20)
(1.5 1.28089e-12 -3.46567e-20)
(1.5 -1.03226e-11 -2.70464e-20)
(1.5 -1.01369e-11 -2.91648e-20)
(1.5 2.37303e-12 -4.29478e-20)
(1.5 2.65378e-11 -3.44553e-20)
(1.5 6.76598e-11 -4.67326e-20)
(1.5 1.38452e-10 -4.74168e-20)
(1.5 2.55042e-10 -4.73619e-20)
(1.5 3.78401e-10 -3.99194e-20)
(1.50001 8.50865e-10 -2.77615e-20)
(1.50001 1.33819e-09 -4.42334e-20)
(1.50001 1.78263e-09 -4.72755e-20)
(1.50002 5.33075e-09 -3.91239e-20)
(1.50002 4.34634e-09 -2.76536e-20)
(1.50003 8.47802e-09 -2.9969e-20)
(1.50005 2.13869e-08 -3.00699e-20)
(1.50006 7.05835e-09 -1.88421e-20)
(1.50008 5.79352e-08 -2.07346e-20)
(1.50011 5.00122e-08 -2.19571e-20)
(1.50014 1.9233e-08 -2.4022e-20)
(1.50018 1.34032e-07 -2.37439e-20)
(1.50022 1.71592e-07 -3.11406e-20)
(1.50026 2.51727e-07 -3.0391e-20)
(1.50031 9.95408e-07 -3.18075e-20)
(1.50035 1.11186e-06 -3.40295e-20)
(1.50039 2.15776e-06 -3.83677e-20)
(1.50041 2.958e-06 -4.05497e-20)
(1.50042 2.32162e-06 -3.94789e-20)
(1.50041 2.87933e-06 -3.81469e-20)
(1.50039 3.83998e-06 -3.68411e-20)
(1.50033 5.12131e-06 -3.64502e-20)
(1.50024 6.11523e-06 -3.65688e-20)
(1.50011 7.63684e-06 -3.63722e-20)
(1.49993 8.78809e-06 -3.50542e-20)
(1.49971 1.12973e-05 -3.51053e-20)
(1.49942 1.24257e-05 -3.36914e-20)
(1.49908 1.55766e-05 -3.36579e-20)
(1.49869 1.75021e-05 -3.34698e-20)
(1.49822 2.09853e-05 -3.62303e-20)
(1.49771 2.16213e-05 -3.77364e-20)
(1.49712 2.70329e-05 -4.00018e-20)
(1.49648 3.94535e-05 -3.84745e-20)
(1.49578 3.47142e-05 -3.75724e-20)
(1.49499 3.10536e-05 -4.19541e-20)
(1.49409 4.7496e-05 -5.17915e-20)
(1.49306 6.7047e-05 -5.42332e-20)
(1.4919 6.35287e-05 -5.85948e-20)
(1.49059 5.60043e-05 -5.24219e-20)
(1.48911 7.82852e-05 -5.60879e-20)
(1.48744 9.88294e-05 -6.13238e-20)
(1.48554 9.52451e-05 -6.03146e-20)
(1.4834 0.000106496 -5.36943e-20)
(1.48101 0.0001328 -6.14024e-20)
(1.47824 0.00012579 -5.85789e-20)
(1.47509 4.5344e-05 -6.22345e-20)
(1.47157 -0.000177485 -6.19992e-20)
(1.46685 -0.00105792 -5.39397e-20)
(1.45967 -0.00377639 -2.85924e-20)
(1.44444 -0.0110585 5.59137e-20)
(1.39517 -0.0351786 3.29194e-19)
(1.16609 -0.0658354 7.10789e-19)
(0.778565 -0.102614 9.65344e-19)
(0.674581 -0.168024 1.04488e-18)
(0.685226 -0.220595 9.19467e-19)
(0.739762 -0.241489 8.04656e-19)
(0.786549 -0.242448 6.58728e-19)
(0.821095 -0.221809 4.98746e-19)
(0.848762 -0.187527 3.03842e-19)
(0.871331 -0.146784 2.41141e-19)
(0.884527 -0.109213 1.21437e-19)
(0.893188 -0.078516 -5.74341e-20)
(0.900599 -0.0542943 -1.81155e-20)
(0.896384 -0.0342716 7.17459e-20)
(0.890506 -0.0169005 -3.40587e-20)
(0.868258 -0.00544754 -1.48937e-19)
(0.840059 0.00903701 -1.07086e-19)
(0.799177 0.02406 -1.83805e-20)
(0.747185 0.0422813 -1.37293e-20)
(0.686674 0.0701585 -4.83627e-20)
(0.61905 0.107847 -7.73045e-20)
(0.551988 0.14301 -5.20758e-20)
(0.49617 0.173188 -4.92431e-20)
(0.453507 0.195017 -4.38512e-20)
(0.422301 0.209037 -9.19941e-20)
(0.398258 0.21512 -4.32315e-20)
(0.379664 0.214484 -8.54535e-20)
(0.365291 0.206371 -3.05354e-20)
(0.354419 0.193542 -5.95587e-20)
(0.344686 0.177551 -2.7342e-20)
(0.333741 0.161997 -3.91991e-20)
(0.321725 0.148839 -5.8149e-20)
(0.309784 0.137536 -2.47889e-20)
(0.297491 0.127495 -1.41974e-20)
(0.284897 0.118617 6.75222e-20)
(0.272854 0.110577 -2.0206e-20)
(0.260939 0.103919 1.97436e-20)
(0.248639 0.0989034 1.1072e-19)
(0.236322 0.0945623 1.75579e-20)
(0.223947 0.0900005 1.34712e-19)
(0.210873 0.0860162 9.86354e-20)
(0.197777 0.0831182 2.00251e-19)
(0.185238 0.080835 1.63962e-19)
(0.173296 0.0788395 1.31338e-19)
(0.16138 0.0778737 1.35099e-19)
(0.14943 0.0770994 2.254e-19)
(0.137207 0.0771164 6.59504e-20)
(0.12473 0.0780512 -1.2787e-20)
(0.112242 0.0806545 8.53732e-21)
(0.0996454 0.084099 1.53467e-19)
(0.0872222 0.0894188 -1.96622e-19)
(0.0742619 0.0942554 -7.97619e-20)
(0.0621564 0.101004 2.41896e-20)
(0.0494604 0.104809 -8.98439e-20)
(0.0384799 0.112742 -4.9256e-20)
(0.0258981 0.115778 2.18246e-20)
(0.0188182 0.125683 1.96938e-19)
(1.5 3.6979e-11 -2.48137e-20)
(1.5 4.33681e-11 -3.8391e-20)
(1.5 2.0141e-11 -4.72553e-20)
(1.5 5.52626e-13 -7.05072e-20)
(1.5 -1.05055e-11 -8.14305e-20)
(1.5 -6.65436e-12 -7.7458e-20)
(1.5 9.9399e-12 -6.28877e-20)
(1.5 3.9081e-11 -7.23791e-20)
(1.5 8.54235e-11 -6.3016e-20)
(1.5 1.45011e-10 -6.06709e-20)
(1.5 2.91971e-10 -5.33296e-20)
(1.5 5.06251e-10 -4.86762e-20)
(1.50001 7.04884e-10 -3.16107e-20)
(1.50001 1.68125e-09 -8.9615e-21)
(1.50001 1.62905e-09 -3.16409e-21)
(1.50002 3.3495e-09 -1.75684e-20)
(1.50002 7.46569e-09 -5.98662e-21)
(1.50003 6.19948e-09 -2.51977e-20)
(1.50005 2.2879e-08 -2.40833e-20)
(1.50006 1.63875e-08 -8.14027e-21)
(1.50009 3.8468e-08 -2.8002e-20)
(1.50011 8.62832e-08 -3.86191e-20)
(1.50014 6.30518e-08 -3.60529e-20)
(1.50018 4.97375e-08 -4.02033e-20)
(1.50022 2.98352e-07 -3.33506e-20)
(1.50027 -5.31545e-09 -3.95289e-20)
(1.50032 8.53776e-07 -4.73688e-20)
(1.50037 1.75634e-06 -4.9359e-20)
(1.50041 1.88607e-06 -5.10304e-20)
(1.50045 2.21974e-06 -5.39389e-20)
(1.50047 3.46956e-06 -6.04667e-20)
(1.50047 4.25919e-06 -5.69887e-20)
(1.50046 4.62856e-06 -5.85624e-20)
(1.50042 5.30452e-06 -5.73756e-20)
(1.50036 6.63341e-06 -6.20476e-20)