/*--------------------------------*- C++ -*----------------------------------*\
| =========                 |                                                 |
| \\      /  F ield         | OpenFOAM: The Open Source CFD Toolbox           |
|  \\    /   O peration     | Version:  2.2.x                                 |
|   \\  /    A nd           | Web:      www.OpenFOAM.org                      |
|    \\/     M anipulation  |                                                 |
\*---------------------------------------------------------------------------*/
FoamFile
{
    version     2.0;
    format      ascii;
    class       volScalarField;
    location    "0.65";
    object      p;
}
// * * * * * * * * * * * * * * * * * * * * * * * * * * * * * * * * * * * * * //

dimensions      [1 -1 -2 0 0 0 0];

internalField   nonuniform List<scalar> 
14161
(
0.198105
0.198427
0.198278
0.198243
0.19813
0.197994
0.197822
0.197632
0.197414
0.197172
0.196927
0.196648
0.19635
0.196074
0.19575
0.19543
0.195117
0.194809
0.194466
0.194152
0.193858
0.193559
0.193263
0.192997
0.192764
0.192539
0.192333
0.192163
0.192024
0.19189
0.1918
0.191728
0.191703
0.191713
0.191722
0.191764
0.191837
0.191902
0.191981
0.19213
0.192286
0.192418
0.192633
0.192885
0.193281
0.193635
0.194423
0.194809
0.195726
0.195212
0.196731
0.192354
0.195916
0.177546
0.420717
1.4957
1.61678
1.68281
1.69272
1.65997
1.62233
1.57516
1.52042
1.48385
1.43325
1.38654
1.34686
1.32434
1.31599
1.30999
1.29929
1.31947
1.36527
1.38598
1.4258
1.528
1.60357
1.69151
1.78369
1.84588
1.89979
1.90517
1.94446
1.96796
1.96583
1.97503
1.98459
1.98249
1.98214
1.98326
1.9862
1.9862
1.9854
1.98434
1.98448
1.98444
1.98513
1.98419
1.98382
1.98304
1.98364
1.98405
1.98462
1.98457
1.98376
1.9825
1.98081
1.97911
1.97922
1.97749
1.97821
1.9769
1.98003
1.97864
1.98318
1.98157
1.98575
1.98612
1.98646
0.198106
0.198427
0.198278
0.198243
0.19813
0.197994
0.197822
0.197631
0.197413
0.197171
0.196925
0.196644
0.196356
0.196066
0.195757
0.195422
0.195114
0.194806
0.194465
0.194152
0.193854
0.193555
0.193261
0.192995
0.192762
0.192535
0.192328
0.192155
0.192018
0.191889
0.191801
0.191728
0.191692
0.191683
0.19172
0.191779
0.191817
0.191874
0.191975
0.19209
0.192212
0.19235
0.192578
0.192915
0.193326
0.193482
0.194033
0.194503
0.195681
0.196056
0.198749
0.199163
0.207396
0.201544
0.731739
1.53555
1.69265
1.70972
1.65191
1.6018
1.55725
1.50178
1.45485
1.42281
1.38794
1.35305
1.32492
1.30459
1.29139
1.28528
1.29296
1.32034
1.34468
1.36904
1.43188
1.49329
1.55816
1.64918
1.69878
1.76184
1.83567
1.865
1.90704
1.93961
1.95638
1.96111
1.9761
1.98208
1.98087
1.98119
1.98335
1.98526
1.98682
1.98579
1.98561
1.98572
1.9859
1.98513
1.98562
1.98559
1.98551
1.98551
1.98597
1.98636
1.98608
1.9849
1.98326
1.98152
1.98178
1.97966
1.98056
1.97913
1.9816
1.98001
1.98399
1.98268
1.98713
1.98781
1.98855
0.198108
0.198428
0.19828
0.198244
0.198131
0.197995
0.197822
0.197632
0.197414
0.197173
0.196925
0.196645
0.196355
0.196066
0.195755
0.195422
0.195113
0.194806
0.194464
0.19415
0.193855
0.193554
0.193257
0.192989
0.192757
0.192533
0.192318
0.192144
0.192009
0.19188
0.191786
0.191707
0.191669
0.191672
0.191709
0.191736
0.191767
0.191839
0.191934
0.192077
0.192256
0.192483
0.192713
0.192883
0.192995
0.193273
0.193769
0.19427
0.195256
0.195655
0.197827
0.197966
0.20221
0.19949
0.898159
1.54108
1.67939
1.708
1.60955
1.54633
1.49956
1.44039
1.38804
1.34639
1.30553
1.26591
1.23497
1.20686
1.18898
1.18478
1.19741
1.20763
1.25234
1.30796
1.36393
1.39572
1.45302
1.49229
1.53271
1.59682
1.66137
1.73305
1.81155
1.85909
1.90617
1.93419
1.95336
1.9673
1.97509
1.97719
1.97697
1.97613
1.97847
1.97958
1.98022
1.98016
1.98037
1.97963
1.98004
1.98038
1.98054
1.9803
1.98008
1.97998
1.98035
1.97965
1.97784
1.9769
1.97738
1.97606
1.9772
1.97596
1.97806
1.97692
1.98038
1.9804
1.98416
1.9852
1.987
0.19811
0.198427
0.19828
0.198244
0.198131
0.197995
0.197823
0.197631
0.197412
0.197172
0.196924
0.196649
0.196348
0.196067
0.195749
0.195427
0.19511
0.194803
0.194464
0.194147
0.193847
0.193546
0.193251
0.192987
0.192753
0.192524
0.192312
0.192137
0.191995
0.191859
0.19176
0.191692
0.191662
0.191666
0.191671
0.191683
0.191732
0.191776
0.191861
0.191921
0.191967
0.192071
0.192193
0.192363
0.192579
0.19285
0.193346
0.193785
0.19444
0.19468
0.196106
0.196303
0.20114
0.203307
0.70159
1.43181
1.62673
1.63899
1.51071
1.43459
1.38157
1.34001
1.29055
1.26141
1.22991
1.18912
1.17191
1.13889
1.13185
1.11628
1.12947
1.12706
1.18088
1.20783
1.27428
1.29208
1.31989
1.34026
1.36596
1.39669
1.45951
1.53443
1.61231
1.71174
1.79331
1.86342
1.90873
1.9374
1.95821
1.96548
1.96768
1.96758
1.96803
1.96958
1.9709
1.9709
1.9714
1.97259
1.97364
1.97442
1.97509
1.97597
1.97586
1.97612
1.97652
1.9763
1.97529
1.97481
1.97553
1.97464
1.97616
1.97548
1.97697
1.97645
1.97849
1.97827
1.98088
1.98273
1.98657
0.198113
0.198428
0.198281
0.198245
0.198132
0.197995
0.197823
0.197632
0.197414
0.197173
0.196924
0.196646
0.196351
0.196066
0.195752
0.195424
0.195105
0.194795
0.194459
0.194143
0.193842
0.19354
0.19324
0.192974
0.192736
0.192515
0.192298
0.192114
0.191968
0.191829
0.191728
0.191653
0.191603
0.191583
0.191594
0.191608
0.19165
0.191683
0.191743
0.191847
0.191987
0.192172
0.192355
0.192589
0.192755
0.192972
0.193204
0.193665
0.193808
0.193861
0.193925
0.192821
0.191703
0.192606
0.35292
1.26971
1.53117
1.48135
1.36479
1.30628
1.26838
1.24202
1.19801
1.18903
1.14447
1.12204
1.10802
1.07828
1.0772
1.05937
1.07545
1.06276
1.10688
1.12498
1.19317
1.21011
1.22328
1.23627
1.25232
1.2604
1.29649
1.34703
1.39687
1.47582
1.58219
1.68911
1.78796
1.86573
1.91085
1.93409
1.9446
1.95039
1.9537
1.95371
1.95504
1.95707
1.95917
1.96167
1.96441
1.9669
1.96797
1.96859
1.96908
1.97065
1.97223
1.9721
1.97173
1.97213
1.97344
1.97273
1.97435
1.97281
1.97402
1.97211
1.97376
1.97383
1.97509
1.97622
1.98139
0.198114
0.198428
0.198282
0.198245
0.198132
0.197995
0.197823
0.197631
0.197413
0.197174
0.196924
0.196645
0.196354
0.196059
0.195753
0.195421
0.195106
0.194796
0.194463
0.194139
0.193832
0.193531
0.193223
0.192958
0.192721
0.192497
0.192283
0.192095
0.191948
0.191803
0.191694
0.191619
0.191563
0.191543
0.191542
0.191545
0.191537
0.191569
0.191607
0.191622
0.191592
0.191567
0.191631
0.19172
0.191787
0.191848
0.191855
0.191514
0.19076
0.189726
0.188165
0.185879
0.182713
0.178027
0.244113
0.789631
1.45927
1.31967
1.25774
1.21359
1.19134
1.16415
1.14535
1.14866
1.11054
1.10182
1.05987
1.05897
1.03577
1.04469
1.02677
1.05021
1.04233
1.1121
1.13309
1.15227
1.16678
1.16356
1.18312
1.18867
1.21184
1.23596
1.27143
1.31061
1.37941
1.45763
1.55435
1.68483
1.80161
1.86421
1.89652
1.91765
1.92776
1.93289
1.93717
1.942
1.94617
1.94973
1.95328
1.95729
1.95964
1.96321
1.96513
1.96603
1.96913
1.97061
1.97098
1.97246
1.97496
1.97409
1.97611
1.97461
1.97539
1.97233
1.97239
1.97059
1.97077
1.97055
1.97621
0.198118
0.198429
0.198283
0.198246
0.198132
0.197995
0.197823
0.197631
0.197413
0.197176
0.19692
0.196646
0.19635
0.19606
0.195748
0.195423
0.195099
0.194785
0.19445
0.19413
0.193824
0.193527
0.193219
0.192948
0.192696
0.192476
0.192252
0.192053
0.191899
0.191746
0.191624
0.191537
0.191472
0.191415
0.191381
0.191382
0.191382
0.191411
0.191477
0.191569
0.191637
0.191732
0.191925
0.192124
0.19233
0.19254
0.192837
0.193069
0.193424
0.194077
0.194296
0.194898
0.194216
0.197329
0.203255
0.329214
1.40255
1.3278
1.24768
1.18345
1.1426
1.11895
1.10832
1.09263
1.10739
1.05642
1.04043
1.01564
1.02678
1.00172
1.01765
0.996084
1.04984
1.0728
1.12298
1.11371
1.13834
1.13642
1.1392
1.13109
1.14285
1.1551
1.18616
1.209
1.24654
1.29305
1.35434
1.44484
1.56591
1.69882
1.79634
1.84123
1.86555
1.88394
1.8976
1.90964
1.92059
1.92979
1.93518
1.94289
1.95023
1.95711
1.95976
1.96256
1.96733
1.96879
1.97171
1.97404
1.97673
1.97602
1.97869
1.97689
1.97763
1.97319
1.97107
1.96697
1.9651
1.96221
1.9699
0.198119
0.198429
0.198283
0.198246
0.198132
0.197995
0.197823
0.197631
0.197412
0.197177
0.19692
0.196647
0.196354
0.19606
0.195743
0.195424
0.195099
0.194781
0.19445
0.194127
0.193814
0.19351
0.193216
0.192927
0.192666
0.192435
0.192213
0.192015
0.191847
0.191693
0.191569
0.191478
0.191414
0.191367
0.191319
0.191297
0.191288
0.191285
0.191282
0.191266
0.191246
0.191172
0.191029
0.190807
0.190472
0.190095
0.189635
0.189186
0.188441
0.187603
0.185777
0.184371
0.180614
0.177096
0.208202
0.660782
1.39136
1.33027
1.28159
1.19888
1.15563
1.12306
1.10542
1.09069
1.1075
1.05339
1.03313
1.01081
1.02568
0.99502
1.0141
0.989752
1.05089
1.07164
1.11453
1.08934
1.11317
1.10469
1.11392
1.1038
1.11493
1.11442
1.12778
1.14277
1.16026
1.18417
1.21505
1.27592
1.33681
1.48038
1.60044
1.70312
1.76587
1.81024
1.83573
1.8575
1.88142
1.90132
1.91158
1.92622
1.93975
1.94693
1.95452
1.96099
1.96483
1.96763
1.97315
1.97557
1.9789
1.97855
1.98162
1.9791
1.97884
1.9725
1.97077
1.96365
1.96023
1.95501
1.96458
0.198123
0.19843
0.198284
0.198247
0.198133
0.197996
0.197823
0.19763
0.197412
0.197176
0.196917
0.196642
0.196357
0.196049
0.195736
0.195423
0.195098
0.194758
0.194438
0.194123
0.193805
0.193478
0.193187
0.192913
0.192655
0.192407
0.192171
0.191957
0.191772
0.191606
0.191474
0.19136
0.191275
0.191201
0.19114
0.191083
0.191045
0.191003
0.191007
0.191068
0.191188
0.191306
0.191452
0.191643
0.191817
0.191965
0.192104
0.192372
0.192783
0.193999
0.195238
0.198531
0.20189
0.205966
0.244812
0.820042
1.27534
1.35761
1.30331
1.22396
1.18103
1.13541
1.114
1.09776
1.11636
1.06033
1.03989
1.0209
1.03655
1.00644
1.02688
0.99932
1.06101
1.07587
1.12024
1.09197
1.11653
1.09614
1.11261
1.09565
1.09951
1.09198
1.09282
1.09889
1.10022
1.10676
1.11656
1.15359
1.19471
1.30684
1.42044
1.5757
1.66612
1.73495
1.7811
1.81908
1.8413
1.86363
1.88973
1.90804
1.91517
1.93193
1.9478
1.95698
1.96275
1.96894
1.97519
1.97895
1.98363
1.9838
1.9882
1.98442
1.98177
1.97363
1.96915
1.95953
1.95618
1.94676
1.95489
0.198124
0.19843
0.198285
0.198247
0.198133
0.197995
0.197823
0.197629
0.197411
0.197176
0.196915
0.196639
0.196357
0.196046
0.195731
0.195424
0.195091
0.194751
0.194425
0.19411
0.193784
0.193465
0.193167
0.192883
0.192609
0.192356
0.192122
0.191903
0.191711
0.191545
0.191401
0.191278
0.191182
0.191094
0.19102
0.190955
0.190893
0.190834
0.190813
0.190793
0.190776
0.190714
0.190555
0.190235
0.189883
0.189656
0.189418
0.18925
0.188868
0.188181
0.187127
0.184722
0.183002
0.191086
0.245652
0.787967
1.07363
1.20321
1.26637
1.20521
1.19733
1.12938
1.11793
1.08712
1.10795
1.04452
1.02567
1.00546
1.0227
0.997895
1.02163
1.0019
1.07235
1.07766
1.11336
1.08373
1.09953
1.07809
1.09655
1.08268
1.08728
1.08194
1.07597
1.07468
1.0729
1.07307
1.0826
1.10334
1.14996
1.23678
1.34306
1.50435
1.61563
1.69699
1.75402
1.80146
1.83816
1.86213
1.87652
1.89911
1.91721
1.92555
1.93437
1.94873
1.96241
1.9693
1.97581
1.98231
1.98757
1.98757
1.99167
1.98665
1.98458
1.9738
1.96749
1.95515
1.94889
1.93649
1.94684
0.198128
0.198431
0.198286
0.198248
0.198133
0.197995
0.197822
0.197629
0.19741
0.197173
0.196911
0.196635
0.196354
0.196041
0.195724
0.195419
0.195077
0.194742
0.194419
0.1941
0.193755
0.193442
0.19315
0.192862
0.192568
0.192306
0.192071
0.191841
0.191635
0.191454
0.191283
0.191129
0.190998
0.190868
0.190762
0.190673
0.190586
0.190505
0.190461
0.19044
0.190457
0.190529
0.190595
0.190697
0.190814
0.190909
0.190995
0.191284
0.191814
0.192573
0.194207
0.195893
0.198295
0.218727
0.51076
0.841221
0.977971
1.08803
1.2361
1.21795
1.21674
1.14375
1.13585
1.09055
1.10658
1.03657
1.02157
0.998376
1.01426
0.990157
1.01472
1.00466
1.07562
1.07754
1.1083
1.07882
1.09191
1.08363
1.08657
1.07943
1.07982
1.07582
1.06849
1.06545
1.06471
1.06893
1.08496
1.11068
1.17141
1.25572
1.37642
1.5122
1.61236
1.70211
1.75759
1.79839
1.83614
1.86477
1.88612
1.89531
1.90983
1.92393
1.93591
1.94576
1.95766
1.96658
1.97421
1.97913
1.98429
1.98492
1.98991
1.98588
1.98416
1.97177
1.96665
1.94931
1.94344
1.93001
1.93964
0.198129
0.198432
0.198286
0.198248
0.198133
0.197995
0.197822
0.197628
0.197409
0.197173
0.19691
0.196634
0.196353
0.196035
0.19572
0.195413
0.195068
0.19473
0.194406
0.194082
0.193734
0.193416
0.193115
0.192819
0.192522
0.192252
0.192001
0.191753
0.191533
0.191339
0.191172
0.191014
0.19086
0.190716
0.190594
0.190499
0.190417
0.190336
0.190251
0.190156
0.190085
0.189982
0.189914
0.189854
0.189865
0.189873
0.189808
0.189722
0.189645
0.189338
0.18949
0.190171
0.192042
0.213654
0.726714
0.883378
0.92575
0.980033
1.11034
1.1802
1.2172
1.14512
1.15822
1.0917
1.09421
1.02983
1.02294
0.999617
1.01353
0.999634
1.03531
1.04849
1.11388
1.11776
1.13885
1.1226
1.13662
1.12517
1.11865
1.1158
1.11613
1.11199
1.11018
1.11007
1.11797
1.13239
1.16635
1.21302
1.30069
1.38981
1.49518
1.59214
1.66817
1.73036
1.765
1.80603
1.83702
1.86334
1.88268
1.89896
1.91324
1.92348
1.93573
1.94607
1.95724
1.9637
1.9723
1.9796
1.98572
1.98718
1.99187
1.98821
1.98451
1.97243
1.96407
1.94558
1.93817
1.92039
1.92852
0.198132
0.198433
0.198288
0.198248
0.198133
0.197995
0.197822
0.197627
0.197407
0.197171
0.196907
0.196631
0.19635
0.196029
0.195715
0.195406
0.195057
0.194716
0.194395
0.194066
0.193713
0.193387
0.193084
0.192776
0.192471
0.192195
0.191936
0.191673
0.191436
0.191219
0.191031
0.190838
0.190651
0.190467
0.190307
0.190163
0.190029
0.189893
0.189758
0.18963
0.189534
0.189454
0.189399
0.189376
0.189363
0.189304
0.189253
0.189285
0.18932
0.189729
0.189579
0.188691
0.192316
0.21571
0.811224
0.899869
0.913449
0.923398
0.968976
1.10124
1.12984
1.19362
1.11825
1.13595
1.05283
1.04757
1.01836
1.03268
1.02351
1.07432
1.10712
1.1955
1.2283
1.25381
1.26448
1.26205
1.2758
1.2607
1.25232
1.25353
1.25692
1.25272
1.26274
1.27222
1.29588
1.32165
1.35885
1.40354
1.4644
1.52233
1.59012
1.65433
1.71895
1.76141
1.79662
1.82529
1.84727
1.86744
1.88579
1.90308
1.91616
1.92803
1.93667
1.94568
1.95694
1.96412
1.97302
1.97939
1.98521
1.98607
1.99223
1.9879
1.98378
1.9695
1.96095
1.9414
1.92981
1.91008
1.9194
0.198134
0.198434
0.198288
0.198249
0.198133
0.197995
0.197821
0.197626
0.197407
0.19717
0.196905
0.196629
0.196344
0.196024
0.195708
0.195397
0.195042
0.194701
0.194379
0.194036
0.193682
0.193354
0.193046
0.192723
0.192409
0.192121
0.191846
0.191569
0.191311
0.191086
0.190886
0.190687
0.19048
0.190279
0.190096
0.189931
0.189759
0.189636
0.189539
0.189434
0.189313
0.189176
0.189104
0.189067
0.189045
0.18896
0.18875
0.188706
0.188459
0.188659
0.187984
0.187032
0.201837
0.332979
0.902646
0.926776
0.930916
0.928139
0.92946
0.985393
1.04295
1.14468
1.10413
1.16377
1.03417
1.08243
1.08383
1.178
1.245
1.3483
1.41687
1.46138
1.50032
1.49347
1.5007
1.4949
1.49901
1.49213
1.48839
1.48648
1.48371
1.48814
1.49807
1.50986
1.523
1.53889
1.55136
1.56945
1.5869
1.61762
1.6585
1.7053
1.75119
1.7852
1.81477
1.83567
1.85408
1.87012
1.88828
1.90315
1.91568
1.92487
1.93518
1.94552
1.95758
1.96533
1.97365
1.97991
1.98512
1.9852
1.99122
1.98613
1.98368
1.96694
1.96032
1.93563
1.92365
1.90286
1.9126
0.198136
0.198435
0.198289
0.198249
0.198133
0.197995
0.19782
0.197626
0.197406
0.197168
0.196902
0.196628
0.196339
0.19602
0.195702
0.195386
0.19503
0.19469
0.194365
0.194016
0.193654
0.193319
0.192998
0.192667
0.192347
0.19205
0.191761
0.191461
0.191188
0.190937
0.19071
0.190485
0.190247
0.190004
0.1898
0.189599
0.189379
0.189161
0.188952
0.188753
0.188518
0.188396
0.188312
0.188281
0.188142
0.187923
0.18736
0.187104
0.186655
0.186686
0.186675
0.186158
0.207199
0.625224
0.921824
0.934237
0.930061
0.919612
0.922844
0.950696
0.99125
1.08062
1.14096
1.24026
1.16424
1.29789
1.40205
1.50991
1.60945
1.64887
1.66482
1.66941
1.6686
1.66059
1.66032
1.65502
1.65268
1.64602
1.63946
1.63279
1.62417
1.61745
1.61641
1.61579
1.61729
1.61673
1.61962
1.62012
1.63114
1.65225
1.68893
1.72942
1.7654
1.79654
1.82343
1.84188
1.85674
1.8727
1.8882
1.90098
1.91445
1.9236
1.93539
1.94464
1.9555
1.96146
1.9701
1.97612
1.98159
1.9829
1.98749
1.98535
1.97973
1.96639
1.95645
1.93105
1.91842
1.89447
1.90307
0.198138
0.198435
0.19829
0.198249
0.198133
0.197994
0.19782
0.197625
0.197405
0.197166
0.196902
0.196625
0.196333
0.196014
0.195694
0.195375
0.195017
0.194672
0.194334
0.193985
0.193627
0.193284
0.192949
0.192601
0.192275
0.191969
0.191666
0.191345
0.191052
0.19078
0.190529
0.190294
0.190034
0.189766
0.189522
0.189292
0.189105
0.188942
0.188771
0.188628
0.188491
0.188399
0.18829
0.188116
0.187826
0.187552
0.1873
0.18738
0.187613
0.187747
0.187476
0.186288
0.209771
0.797196
0.942956
0.946015
0.938221
0.926065
0.936471
0.964145
0.976784
1.06167
1.28792
1.3988
1.50335
1.58114
1.63932
1.66018
1.69016
1.70642
1.70729
1.70562
1.70169
1.69234
1.69025
1.68655
1.6827
1.67931
1.6776
1.67322
1.66622
1.65652
1.64951
1.64424
1.64242
1.64259
1.64476
1.64885
1.65774
1.67627
1.70569
1.74096
1.77516
1.80335
1.82799
1.84541
1.86031
1.87589
1.88807
1.90027
1.91271
1.92404
1.93484
1.94476
1.95409
1.95919
1.96854
1.97382
1.98031
1.97975
1.98569
1.98324
1.97679
1.96385
1.95238
1.92845
1.91001
1.88458
1.8941
0.198139
0.198436
0.19829
0.198249
0.198133
0.197994
0.197819
0.197624
0.197404
0.197163
0.196901
0.196623
0.196327
0.19601
0.195687
0.195363
0.195011
0.194658
0.194308
0.193947
0.193593
0.193251
0.192896
0.192534
0.192198
0.191884
0.191557
0.191219
0.190912
0.190611
0.190333
0.190053
0.189753
0.189486
0.189232
0.188977
0.188726
0.188435
0.188109
0.187838
0.187618
0.187508
0.18743
0.187311
0.187103
0.186696
0.186331
0.185797
0.185466
0.184122
0.182025
0.19051
0.223991
0.862319
0.950716
0.958118
0.952576
0.952242
0.972774
1.00638
1.04526
1.20645
1.51414
1.63152
1.66687
1.67853
1.68974
1.6927
1.69262
1.69315
1.69118
1.69175
1.69513
1.69281
1.68769
1.68255
1.67833
1.67732
1.67465
1.67258
1.66864
1.66298
1.65796
1.65365
1.64966
1.6494
1.65204
1.65832
1.66921
1.68876
1.71634
1.74677
1.7756
1.80052
1.82469
1.84346
1.86062
1.87566
1.88721
1.89792
1.91037
1.92141
1.93135
1.94077
1.94936
1.95585
1.96487
1.97077
1.97743
1.9761
1.98327
1.97862
1.97501
1.95926
1.95052
1.92339
1.90396
1.87661
1.88687
0.19814
0.198436
0.198291
0.198249
0.198133
0.197993
0.197818
0.197623
0.197402
0.197161
0.196898
0.19662
0.19632
0.196006
0.195682
0.195341
0.194993
0.194648
0.194276
0.193909
0.193559
0.193213
0.192831
0.192466
0.192126
0.191799
0.191446
0.191085
0.190754
0.190438
0.190146
0.189823
0.189489
0.189186
0.188905
0.188674
0.188415
0.188116
0.187874
0.187694
0.187532
0.187346
0.187116
0.186735
0.186374
0.185782
0.185605
0.185254
0.185219
0.184459
0.182492
0.200924
0.400023
0.947055
0.958056
0.953573
0.951579
0.963771
1.00107
1.05491
1.1679
1.46923
1.67479
1.70216
1.69161
1.68693
1.68641
1.68387
1.6783
1.6719
1.67022
1.66735
1.66828
1.66431
1.6617
1.66263
1.66231
1.66463
1.66379
1.66522
1.66341
1.66146
1.65833
1.65727
1.65483
1.6542
1.65592
1.66182
1.67245
1.69177
1.71935
1.74986
1.77772
1.7995
1.82003
1.83716
1.85398
1.86779
1.87988
1.89096
1.9049
1.91613
1.92774
1.93629
1.94641
1.95297
1.96134
1.96662
1.97222
1.9729
1.97723
1.97487
1.97021
1.95582
1.94766
1.91874
1.89923
1.86957
1.87961
0.198142
0.198437
0.198291
0.19825
0.198132
0.197993
0.197817
0.197622
0.1974
0.197157
0.196896
0.196615
0.196311
0.196
0.195674
0.195324
0.194979
0.194633
0.194248
0.19388
0.193522
0.193163
0.192763
0.192394
0.192042
0.191694
0.191312
0.190944
0.190595
0.190279
0.189943
0.189562
0.189227
0.188927
0.188653
0.188384
0.18807
0.187717
0.187388
0.187066
0.186843
0.186672
0.186531
0.18634
0.186222
0.186026
0.186301
0.186861
0.1877
0.188748
0.189229
0.21294
0.721906
0.951918
0.968986
0.965269
0.960825
0.982281
1.05312
1.15967
1.39721
1.65443
1.71449
1.70006
1.6839
1.67278
1.66985
1.66571
1.66395
1.66067
1.65713
1.64897
1.64565
1.64307
1.64167
1.64182
1.64114
1.64427
1.64465
1.65038
1.65226
1.65276
1.65188
1.65371
1.65233
1.65394
1.65577
1.66155
1.67294
1.69071
1.71474
1.74382
1.77172
1.7949
1.81642
1.83297
1.8493
1.86221
1.87367
1.88511
1.8973
1.90936
1.92188
1.93108
1.94217
1.94868
1.95747
1.96042
1.96732
1.96718
1.97146
1.97078
1.96437
1.95363
1.942
1.9161
1.89224
1.86117
1.8712
0.198143
0.198437
0.198291
0.198249
0.198132
0.197992
0.197816
0.19762
0.197398
0.197155
0.196893
0.196608
0.196301
0.195995
0.195659
0.195307
0.194963
0.194607
0.194216
0.193845
0.193487
0.193103
0.1927
0.192323
0.191968
0.191592
0.19118
0.190804
0.190439
0.190116
0.189759
0.189342
0.188963
0.188603
0.188268
0.187946
0.187595
0.187257
0.18693
0.186601
0.186301
0.186188
0.185966
0.185646
0.184887
0.184288
0.183789
0.183176
0.181469
0.178862
0.181855
0.209112
0.827299
0.951442
0.972895
0.97581
0.974318
1.01655
1.15009
1.36553
1.61006
1.71997
1.71384
1.68719
1.66719
1.6602
1.65852
1.65561
1.65105
1.64533
1.64005
1.6361
1.63063
1.62559
1.62123
1.61933
1.61801
1.61933
1.6216
1.62885
1.63423
1.63895
1.64198
1.64455
1.64699
1.65004
1.6541
1.66067
1.67183
1.68782
1.71115
1.73795
1.7641
1.78778
1.80813
1.82424
1.84115
1.85447
1.86651
1.87915
1.89106
1.90328
1.91564
1.92606
1.93593
1.94403
1.95158
1.95378
1.96158
1.96103
1.96689
1.96403
1.9593
1.94701
1.93693
1.91063
1.88581
1.85254
1.86346
0.198143
0.198437
0.198292
0.198249
0.198132
0.197991
0.197815
0.197619
0.197396
0.197152
0.19689
0.196604
0.196295
0.195989
0.195647
0.195292
0.194949
0.194581
0.194189
0.193816
0.193453
0.193039
0.192636
0.19225
0.191878
0.191472
0.191053
0.190651
0.190266
0.189904
0.189524
0.189122
0.188741
0.188396
0.188043
0.187704
0.187362
0.187066
0.186767
0.186451
0.186094
0.185864
0.185634
0.185271
0.184892
0.184402
0.183574
0.183734
0.184045
0.185133
0.201103
0.339149
0.931472
0.9525
0.976628
0.986294
1.00477
1.09697
1.32071
1.58498
1.70466
1.70408
1.69297
1.67906
1.66157
1.65314
1.65236
1.6456
1.63835
1.63127
1.62688
1.62493
1.6192
1.61499
1.60774
1.60355
1.60103
1.59999
1.60307
1.60747
1.6145
1.61999
1.62818
1.63159
1.63995
1.6417
1.6492
1.65454
1.66691
1.68245
1.70563
1.73005
1.75676
1.78037
1.79966
1.81608
1.8321
1.84487
1.8581
1.87059
1.88301
1.89487
1.90824
1.91912
1.92878
1.93679
1.94381
1.94672
1.95421
1.95578
1.96016
1.95731
1.95383
1.94125
1.93323
1.90515
1.88125
1.84465
1.85614
0.198144
0.198437
0.198292
0.198249
0.198131
0.197991
0.197814
0.197618
0.197394
0.19715
0.196885
0.196597
0.196289
0.195979
0.195633
0.195275
0.194932
0.194551
0.194159
0.19378
0.193406
0.192977
0.192574
0.192185
0.191794
0.191351
0.190937
0.190529
0.190136
0.189718
0.189297
0.188907
0.188512
0.188075
0.18759
0.187103
0.186662
0.18631
0.186019
0.185612
0.185176
0.184743
0.184512
0.184349
0.184434
0.184777
0.185001
0.185662
0.187044
0.188785
0.21493
0.688929
0.933581
0.958504
0.979944
1.02432
1.08736
1.27599
1.56122
1.70227
1.71266
1.68293
1.668
1.66303
1.64928
1.63876
1.63605
1.63359
1.62601
1.61821
1.61308
1.61059
1.60633
1.60247
1.59593
1.59025
1.58676
1.58445
1.58723
1.58875
1.5962
1.60073
1.60957
1.61608
1.62631
1.63145
1.64026
1.64888
1.66022
1.67558
1.69493
1.72114
1.74671
1.77133
1.79047
1.80728
1.82273
1.83539
1.8488
1.86139
1.87417
1.88629
1.90002
1.91039
1.92054
1.92797
1.93616
1.93836
1.94615
1.94839
1.95175
1.95127
1.94683
1.93711
1.92711
1.90086
1.87463
1.83702
1.84771
0.198144
0.198437
0.198292
0.198249
0.198131
0.19799
0.197813
0.197616
0.197392
0.197147
0.196882
0.196592
0.196284
0.195971
0.195623
0.195263
0.194915
0.194527
0.194133
0.193745
0.193352
0.192918
0.192506
0.192111
0.191683
0.191227
0.1908
0.190396
0.189964
0.189501
0.189079
0.188714
0.188341
0.187903
0.187461
0.1871
0.18678
0.186547
0.18644
0.186287
0.18579
0.185304
0.184734
0.184342
0.184036
0.18354
0.18241
0.179078
0.175225
0.181776
0.21402
0.82513
0.94772
0.962114
0.981182
1.0768
1.24175
1.50628
1.69673
1.70774
1.69447
1.67003
1.64945
1.64384
1.63662
1.62821
1.62256
1.61909
1.61296
1.60795
1.60201
1.59866
1.59408
1.59017
1.58546
1.58085
1.57686
1.57342
1.57264
1.57317
1.57864
1.58234
1.58944
1.59772
1.60764
1.6186
1.62757
1.63859
1.64949
1.66747
1.68646
1.71081
1.736
1.76068
1.77924
1.79684
1.81185
1.82472
1.83827
1.85141
1.86409
1.87687
1.88965
1.90092
1.9112
1.91926
1.92788
1.92976
1.93801
1.93957
1.94401
1.94327
1.93942
1.9294
1.91999
1.89524
1.86756
1.82779
1.83835
0.198143
0.198437
0.198291
0.198249
0.19813
0.197989
0.197812
0.197615
0.19739
0.197145
0.196877
0.196587
0.19628
0.195958
0.195609
0.19525
0.194893
0.194501
0.194104
0.193714
0.193295
0.192869
0.192453
0.192049
0.191582
0.191131
0.190693
0.190291
0.189829
0.189336
0.188893
0.188494
0.188073
0.187535
0.186955
0.186433
0.185915
0.185333
0.184899
0.184416
0.183709
0.182967
0.182137
0.181627
0.181719
0.181904
0.182051
0.181754
0.179848
0.199376
0.400309
0.951277
0.984446
0.992062
1.03342
1.21286
1.48914
1.66243
1.69183
1.67495
1.67491
1.65938
1.6388
1.63508
1.63616
1.62938
1.61767
1.60938
1.60383
1.59898
1.5915
1.58695
1.5817
1.57758
1.57416
1.57029
1.56736
1.56279
1.56059
1.56105
1.56302
1.56673
1.57065
1.58018
1.58736
1.6029
1.61187
1.62728
1.63839
1.65721
1.67586
1.70078
1.72474
1.74876
1.7681
1.78604
1.80081
1.8141
1.82763
1.84121
1.85371
1.86644
1.87895
1.89084
1.9012
1.91
1.91823
1.92079
1.92885
1.93116
1.936
1.93465
1.9325
1.92135
1.91391
1.88734
1.86122
1.81852
1.82907
0.198143
0.198437
0.198291
0.198248
0.19813
0.197988
0.197811
0.197613
0.197388
0.197143
0.196874
0.196583
0.196278
0.195948
0.1956
0.195243
0.19487
0.194473
0.194083
0.193683
0.193235
0.192808
0.192397
0.191976
0.191482
0.191009
0.190552
0.190124
0.189667
0.189156
0.188697
0.188274
0.187848
0.187373
0.186981
0.186687
0.186441
0.186276
0.186318
0.186335
0.186418
0.186302
0.186101
0.185842
0.185867
0.186265
0.186543
0.187344
0.188273
0.215551
0.76472
0.985492
1.03017
1.0674
1.17253
1.44156
1.6653
1.71344
1.6808
1.65423
1.64911
1.63958
1.62665
1.61527
1.61406
1.60882
1.60125
1.59291
1.58755
1.58494
1.58003
1.57569
1.57033
1.56559
1.56257
1.55827
1.55592
1.55173
1.54892
1.54802
1.54821
1.55209
1.55357
1.56312
1.56811
1.58331
1.59428
1.61263
1.62629
1.6441
1.66373
1.68663
1.71213
1.73633
1.75624
1.77451
1.78936
1.80329
1.81666
1.8303
1.84273
1.85518
1.86834
1.88015
1.89108
1.89946
1.90802
1.91084
1.9192
1.92275
1.92699
1.92684
1.92415
1.91447
1.90644
1.88069
1.85352
1.80955
1.81889
0.198141
0.198436
0.198291
0.198248
0.198129
0.197988
0.19781
0.197611
0.197386
0.19714
0.196869
0.196579
0.196269
0.195935
0.195592
0.195232
0.194846
0.194446
0.19406
0.193647
0.193196
0.192762
0.192354
0.19192
0.19142
0.190928
0.190453
0.189987
0.189566
0.189128
0.188619
0.188132
0.187628
0.187093
0.186505
0.185944
0.185377
0.184708
0.184069
0.183162
0.182147
0.180995
0.179588
0.178425
0.176899
0.176398
0.175354
0.17479
0.185842
0.262922
0.892521
1.00241
1.05067
1.16992
1.39827
1.63662
1.69715
1.69682
1.6752
1.64703
1.63637
1.63405
1.62378
1.60716
1.59895
1.5941
1.58785
1.58066
1.57517
1.57253
1.56836
1.56395
1.55982
1.55467
1.55181
1.54657
1.5427
1.53865
1.53555
1.53589
1.53566
1.53734
1.53944
1.54605
1.5502
1.56073
1.5758
1.59275
1.61086
1.62839
1.65115
1.67204
1.69724
1.72147
1.74352
1.76208
1.77763
1.79226
1.8056
1.81945
1.83183
1.84415
1.85745
1.86959
1.88045
1.88827
1.89746
1.90054
1.90982
1.9139
1.91828
1.91796
1.91524
1.90628
1.89823
1.87482
1.84536
1.79994
1.8083
0.19814
0.198435
0.19829
0.198247
0.198129
0.197987
0.197809
0.19761
0.197384
0.197138
0.196866
0.196575
0.196263
0.195925
0.195582
0.19522
0.194827
0.194427
0.194037
0.193605
0.193149
0.192707
0.192281
0.191842
0.191362
0.190839
0.190339
0.189846
0.189383
0.188939
0.188435
0.187887
0.187398
0.186932
0.186459
0.186168
0.185979
0.185887
0.186009
0.186121
0.186377
0.187008
0.187472
0.188201
0.188891
0.190322
0.191326
0.192787
0.225174
0.602406
0.97894
1.06904
1.15481
1.39861
1.61172
1.71451
1.67786
1.66246
1.6489
1.62964
1.61443
1.61339
1.60845
1.59704
1.58593
1.581
1.57479
1.56719
1.56113
1.55718
1.55499
1.55155
1.54976
1.545
1.54232
1.53689
1.53239
1.52876
1.52624
1.52588
1.52435
1.52332
1.52664
1.52918
1.53511
1.54041
1.55725
1.5701
1.59379
1.61124
1.63418
1.6568
1.68309
1.70699
1.72951
1.74871
1.76596
1.78107
1.79457
1.80851
1.82094
1.83326
1.84629
1.85894
1.86887
1.8771
1.88633
1.89049
1.90014
1.90484
1.90978
1.90852
1.90713
1.8975
1.89081
1.86617
1.83723
1.78942
1.79766
0.198139
0.198434
0.198289
0.198246
0.198128
0.197986
0.197808
0.197609
0.197382
0.197134
0.196862
0.196571
0.196255
0.195915
0.195574
0.195204
0.194809
0.194411
0.194018
0.193581
0.193123
0.192666
0.19221
0.191782
0.191313
0.190791
0.19029
0.189803
0.189338
0.188876
0.188374
0.187873
0.187402
0.186884
0.186268
0.185688
0.185009
0.184233
0.18357
0.182595
0.181324
0.179839
0.178115
0.176388
0.174596
0.171529
0.169719
0.174564
0.229733
0.820024
1.02041
1.10766
1.31688
1.59716
1.69634
1.70221
1.66228
1.63846
1.63437
1.62372
1.60934
1.59906
1.59399
1.58752
1.57816
1.57138
1.56527
1.55747
1.55162
1.5472
1.54439
1.53927
1.53682
1.53256
1.53
1.52608
1.52211
1.51843
1.51505
1.51356
1.51183
1.51143
1.5135
1.51445
1.52065
1.5244
1.53987
1.5507
1.5731
1.58962
1.6158
1.63912
1.66424
1.68964
1.71467
1.73473
1.75332
1.76927
1.78342
1.79759
1.8102
1.82254
1.83495
1.84759
1.85726
1.86574
1.87515
1.88064
1.89011
1.89549
1.90023
1.89931
1.89846
1.8896
1.88308
1.85744
1.82866
1.77905
1.78713
0.198137
0.198433
0.198288
0.198245
0.198127
0.197985
0.197807
0.197608
0.197381
0.197133
0.19686
0.196568
0.196251
0.195912
0.195566
0.195192
0.194799
0.194389
0.193979
0.193556
0.193097
0.192625
0.192159
0.191703
0.191228
0.190706
0.190198
0.189717
0.189212
0.18868
0.188169
0.187683
0.187204
0.186652
0.186056
0.185617
0.185318
0.18512
0.185144
0.18521
0.185424
0.185625
0.186425
0.187161
0.188591
0.189601
0.190941
0.218715
0.525525
1.027
1.12689
1.29983
1.55678
1.68756
1.68059
1.66962
1.64192
1.61884
1.61053
1.61131
1.60169
1.58569
1.57802
1.57478
1.5684
1.56176
1.55632
1.54906
1.54476
1.54019
1.53816
1.53112
1.5262
1.52068
1.51747
1.51438
1.51061
1.5075
1.50407
1.5024
1.50054
1.49923
1.50038
1.50158
1.50533
1.50958
1.52139
1.53088
1.54993
1.56872
1.59466
1.61802
1.6447
1.67104
1.69661
1.71848
1.73944
1.7566
1.77184
1.78643
1.79915
1.81156
1.82333
1.8356
1.8457
1.85443
1.86417
1.87067
1.8801
1.88553
1.89042
1.89001
1.88921
1.88241
1.87412
1.84972
1.81919
1.76936
1.77611
0.198135
0.198432
0.198287
0.198244
0.198127
0.197985
0.197807
0.197607
0.197379
0.19713
0.196857
0.196563
0.196243
0.195913
0.195555
0.195176
0.194792
0.194378
0.193952
0.193536
0.193079
0.192606
0.19214
0.191681
0.191167
0.190665
0.190193
0.189733
0.189194
0.188663
0.188194
0.187762
0.187349