/*--------------------------------*- C++ -*----------------------------------*\
| =========                 |                                                 |
| \\      /  F ield         | OpenFOAM: The Open Source CFD Toolbox           |
|  \\    /   O peration     | Version:  2.2.x                                 |
|   \\  /    A nd           | Web:      www.OpenFOAM.org                      |
|    \\/     M anipulation  |                                                 |
\*---------------------------------------------------------------------------*/
FoamFile
{
    version     2.0;
    format      ascii;
    class       volScalarField;
    location    "0.65";
    object      pB;
}
// * * * * * * * * * * * * * * * * * * * * * * * * * * * * * * * * * * * * * //

dimensions      [1 1 -3 0 0 -1 0];

internalField   nonuniform List<scalar> 
14161
(
-0.00275137
0.000602451
-0.000268791
-6.47417e-05
-0.000242664
-0.000231108
-0.000299582
-0.000317413
-0.000365362
-0.000400389
-0.000430709
-0.000470912
-0.000512182
-0.00052427
-0.000579061
-0.000589262
-0.000628457
-0.000630617
-0.000662209
-0.000669041
-0.000675305
-0.000675807
-0.000672972
-0.000659898
-0.000642026
-0.000607203
-0.000570482
-0.000522035
-0.000472464
-0.000421792
-0.000364307
-0.000297464
-0.000224012
-0.000132678
-3.92085e-05
1.92176e-05
0.000159269
0.000206094
0.000242508
0.000378971
0.000515285
0.000585242
0.000680201
0.000901662
0.00122735
0.00153015
0.00246086
0.00157692
0.00432248
-2.87459e-05
0.00852431
-0.0101951
0.0258257
-0.0612392
0.111973
0.0287968
0.0137665
0.00903096
0.00525156
0.00403515
0.00160776
0.00548556
-0.00338454
0.00253541
0.000312933
-0.000409395
-0.00646671
-0.00375128
-0.000367075
0.00324984
-0.00899307
-0.0107791
0.0222796
0.00628736
-0.0252508
0.011676
0.0222401
-0.0493427
0.0414108
-0.0106471
-0.00920088
0.022845
-0.0218901
-0.00482466
0.0245498
-0.0109989
-0.00683301
0.00413463
0.00766164
-0.00111155
-0.00186431
-0.00362976
0.00155094
0.00200389
-0.000126973
0.00397394
-0.00267941
-0.00148322
-0.000786383
0.00263139
-0.000328033
0.000539846
-0.00238969
0.000863048
-0.000798228
0.00117005
-0.00196543
0.00126805
-0.00267661
0.00138075
-0.00329641
0.00314733
-0.0052256
0.00542659
-0.00757228
0.00781091
-0.0102092
0.0096259
-0.0108718
-0.00275425
0.000604787
-0.000270219
-6.47564e-05
-0.000242935
-0.000231349
-0.000299798
-0.000316928
-0.000368367
-0.000395927
-0.000436048
-0.000471293
-0.000503
-0.000541962
-0.000559088
-0.000607559
-0.000614294
-0.00064133
-0.000658814
-0.000669888
-0.000674638
-0.000676641
-0.000672105
-0.000661761
-0.000642586
-0.000610539
-0.000571759
-0.000522443
-0.000471553
-0.000413568
-0.00035155
-0.000290405
-0.000228742
-0.000173146
-3.89188e-05
6.85265e-05
0.000127964
0.000178542
0.000269385
0.000347741
0.000399943
0.00052847
0.000602115
0.000917551
0.00146278
0.0013224
0.00171297
0.00142134
0.00332921
-4.50396e-05
0.00844669
-0.00468451
0.0267344
-0.0225444
0.0700517
0.0301809
0.0224153
-0.00916313
-0.00520183
0.00175356
0.00182947
0.00207534
-0.00700006
0.000352241
-0.00342009
0.00303315
0.00187102
0.00266936
-0.000725471
-0.00296745
-0.00255111
0.00743256
-0.000393724
-0.0184369
0.0118596
0.00961327
-0.017628
0.0154298
0.00414354
-0.0239066
0.0153286
0.0012815
0.00228002
-0.0146626
-0.00431911
0.00963958
-0.0103656
-0.00731878
0.000107838
0.000711904
-0.00118459
-0.0036337
-0.00515156
0.00105471
-0.00187447
-0.000443371
0.00123883
0.000346971
-0.00264147
0.000231987
0.000107715
0.00146394
-0.00278535
0.00110391
-0.00161333
0.000964447
-0.00110807
0.00170099
-0.00220863
0.00254132
-0.00342687
0.0027177
-0.00575847
0.00489189
-0.00761202
0.00774517
-0.00991247
0.00983623
-0.0111758
-0.00275242
0.000603599
-0.000269646
-6.50589e-05
-0.000242897
-0.000231514
-0.000299668
-0.000317107
-0.00036779
-0.000395644
-0.000436152
-0.000469917
-0.000504897
-0.000539836
-0.000560359
-0.000607924
-0.000613697
-0.000641666
-0.00065771
-0.000674404
-0.000671493
-0.000678199
-0.000671272
-0.000662148
-0.000641785
-0.000608956
-0.000578012
-0.000532326
-0.000480268
-0.00041824
-0.000364554
-0.000311907
-0.000244067
-0.000174146
-2.31571e-05
4.44571e-05
7.54333e-05
0.000164233
0.000247608
0.000387704
0.000625404
0.000738807
0.000978136
0.000936822
0.000971052
0.00113585
0.00183328
0.00132453
0.00359183
0.00098797
0.00768124
-0.00220695
0.019767
-0.0149321
0.0636092
0.0503397
0.00324678
0.0129446
0.00144622
0.00187625
0.0018048
0.00427776
0.00129685
0.0037229
-0.00163905
0.00407043
-0.000955957
-0.00216236
-0.00628126
-0.00136493
0.00459572
0.00028616
-0.00856322
-8.86375e-05
0.0112595
-0.0153163
0.0150536
-0.00103174
-0.00904125
-0.00656833
0.0108943
-0.0140695
0.00278615
0.00722194
-0.00734334
0.00628102
0.00405612
0.00292383
-0.00104824
-0.00164799
0.00262636
0.00933872
0.000246839
-0.00324101
-0.00150617
-0.00159838
-0.00161973
0.00311211
-0.000809337
-0.00121596
-0.00315875
0.000958289
0.0015334
0.000587745
-0.0033324
0.00214655
-0.00260788
0.00176417
-0.00149707
0.00197819
-0.00276701
0.00368105
-0.00462444
0.00426617
-0.00855637
0.00674474
-0.00950839
0.0116383
-0.00967258
-0.00275178
0.000602545
-0.000270072
-6.53589e-05
-0.000243158
-0.000231633
-0.000299092
-0.000319021
-0.000366137
-0.000398747
-0.000436129
-0.000467623
-0.000513435
-0.000527626
-0.000575564
-0.000589701
-0.000629185
-0.00063634
-0.000660222
-0.000674128
-0.000672826
-0.000681651
-0.000675369
-0.00066433
-0.00064297
-0.000618743
-0.000578713
-0.000529005
-0.000479224
-0.00042649
-0.000371997
-0.000300966
-0.000223158
-0.000139898
-5.65225e-05
-9.52402e-06
6.06213e-05
0.000119764
0.000182066
0.000222138
0.000208574
0.0002109
0.00024257
0.000357436
0.000612201
0.000752605
0.00153571
0.000924171
0.00296215
4.59614e-05
0.00578653
-0.0031194
0.0170105
-0.0182004
0.0941331
0.0123787
0.0453671
-0.0272918
-0.00405832
-0.00890971
-0.00610187
-0.00549238
-0.0114775
-0.00222553
-0.00601251
-0.000561257
-0.00474971
-0.00137
-0.00180337
-0.00247565
-0.000348448
0.00085523
0.00712172
-0.00088062
0.00241938
-0.00381099
0.00320661
-0.00130375
0.00497358
-0.0114674
0.00355789
0.0146703
-0.00638393
0.00645458
0.0154735
-0.0111229
0.00658745
0.00863459
0.000798452
0.00071272
7.37666e-05
0.00414253
0.0066094
0.000839409
-0.000330134
0.00191627
-0.000170872
-0.000210456
-0.000337616
0.00110719
-0.00291079
0.000898549
-0.000576524
0.000629256
-0.00107034
0.000850217
-0.002253
0.00194662
-0.0020399
0.00278358
-0.00319915
0.00274316
-0.00429655
0.00535508
-0.00599175
0.00840321
-0.0098133
0.00866095
-0.011081
-0.002748
0.000599511
-0.000270181
-6.58993e-05
-0.000243216
-0.000231727
-0.000299657
-0.000318142
-0.000366822
-0.000398763
-0.000434179
-0.000471473
-0.000508587
-0.000533408
-0.00057097
-0.000597364
-0.000623136
-0.00064526
-0.000655251
-0.000679909
-0.000673821
-0.00068708
-0.000675882
-0.000667568
-0.000647036
-0.000621922
-0.000586462
-0.000551352
-0.000503943
-0.000451008
-0.000389982
-0.000323755
-0.000249058
-0.000195651
-0.000105387
-3.28025e-05
5.12947e-05
0.000108305
0.000151331
0.000264019
0.000388066
0.000596077
0.000760559
0.000903227
0.00116244
0.00115972
0.00173275
0.00154003
0.00262489
0.00152049
0.00420827
-0.00216411
0.0122309
-0.0353233
0.124124
0.0301426
0.024583
0.00144061
0.0132562
0.00922162
0.00968203
0.00477578
0.00234303
0.00315882
-0.00640616
0.00840619
-0.00547677
0.00179708
-0.00103858
-9.34549e-05
-0.000651543
-0.000215884
-0.000208157
-0.00203579
0.00761414
-0.0015614
0.00300561
-0.00202067
0.00595449
-0.00875249
-0.000206415
0.00612461
0.000484211
-0.0225765
0.00836009
-0.00612508
-0.00293706
-0.00253596
-0.00179525
-0.00352908
-0.00222318
-0.00343257
-0.00284385
0.000139522
-0.00144807
0.00064994
0.00060279
0.000664426
-0.00142201
0.00111191
0.000463824
0.00191944
-0.00545312
0.0014616
-0.00101664
0.00202609
-0.00167397
0.000944761
-0.00368501
0.00155955
-0.00349681
0.00272632
-0.00594346
0.00403762
-0.00716449
0.00491947
-0.00886186
0.00908962
-0.0106926
-0.00274606
0.000597337
-0.000270377
-6.6298e-05
-0.000243402
-0.000231948
-0.000299702
-0.000318145
-0.000368021
-0.000395545
-0.000437034
-0.000470914
-0.000505219
-0.000544034
-0.000561882
-0.000606107
-0.000614746
-0.000650099
-0.000656011
-0.000676078
-0.000681982
-0.000681876
-0.000688446
-0.000679514
-0.000649781
-0.000631213
-0.000584417
-0.0005494
-0.000502851
-0.000452322
-0.000396543
-0.00032774
-0.000244773
-0.000175132
-9.98538e-05
-7.22155e-05
-4.73611e-05
-4.86088e-06
4.976e-05
2.61071e-05
-3.21173e-05
-0.000170641
-9.60461e-05
-3.71911e-05
0.000147149
4.11382e-05
1.55148e-05
-0.000683546
-0.00155619
-0.00379855
-0.00522173
-0.00558106
-0.013916
-0.00679051
-0.0383908
0.148362
0.0172704
-0.0383353
-0.0112034
-0.0149562
0.00287685
-0.00779351
0.00286239
-0.00414877
-0.00390746
-0.00147507
-0.000797795
-0.00116887
-0.00231845
0.00130858
-0.00221067
0.000330851
0.00047615
0.00453691
-0.00899148
0.00762626
-0.00313474
-0.00274507
0.00314567
-0.00902679
0.00361829
0.00181522
0.00695584
-0.0124371
0.00509234
0.00455531
-0.000330052
0.000494068
-0.00344213
0.00285428
0.00086249
-0.00546763
-0.0049655
-0.00192785
-0.00142597
-0.00129603
-0.00371522
0.000179377
-0.00173702
0.0031669
-0.00223313
-9.46168e-05
-0.000265399
0.00115222
-0.00457741
0.00343825
-0.00107057
0.00149087
-0.0026051
0.00231027
-0.00441931
0.00212339
-0.00284734
0.0033127
-0.00709703
0.00668541
-0.00936388
0.00656818
-0.00852876
-0.00274057
0.000593103
-0.000270764
-6.70943e-05
-0.000243442
-0.000232166
-0.00029938
-0.000319383
-0.000367394
-0.000397339
-0.000438656
-0.000469998
-0.000508893
-0.000537675
-0.000571294
-0.000597068
-0.000629723
-0.000643908
-0.000669358
-0.000672997
-0.000691333
-0.000682436
-0.00068664
-0.000672812
-0.000657527
-0.000639032
-0.000605205
-0.000582573
-0.00053709
-0.000487498
-0.000431975
-0.000372124
-0.000305933
-0.000254287
-0.000196742
-0.000146003
-8.75698e-05
-1.27404e-05
9.7901e-05
0.000228011
0.000310932
0.000400223
0.000617218
0.000819767
0.00106376
0.00134485
0.00173505
0.00207895
0.00265013
0.00328195
0.00393535
0.00491432
0.00529654
0.00944644
0.0204584
0.188551
-0.00759548
-0.0116128
-0.0119979
-0.00260461
-0.0109368
0.00153406
-0.0114193
0.00437477
-0.00921352
-0.00155464
-0.0057672
-0.000243805
-0.00232116
-0.00334709
-0.000270794
-0.00466223
-0.000370047
-0.00141103
-0.00255797
-0.0021754
0.00229653
-0.00946099
0.0125921
-0.00985176
0.00700353
-0.00726456
0.00800366
-0.0121233
0.00128904
-0.00465145
0.00329585
-0.00185507
-0.00524588
0.00757152
-0.000369072
0.00614516
0.00643559
0.00396569
-0.000718386
0.00108822
-0.000979128
0.00156015
-0.000521141
0.000291046
-0.00219793
0.00172612
-0.00124598
0.00170438
-0.000192914
-0.00113072
-0.00471948
0.00304426
-0.00171937
0.00239698
-0.0031208
0.00416369
-0.00551414
0.00484264
-0.00296269
0.00691236
-0.00530941
0.0115886
-0.00985443
-0.00273776
0.000590216
-0.000270963
-6.75304e-05
-0.000243667
-0.000232476
-0.000299067
-0.000319691
-0.000367261
-0.000396979
-0.000438076
-0.000470412
-0.000508966
-0.000536038
-0.000575231
-0.00059369
-0.000630795
-0.000644042
-0.000669234
-0.000674087
-0.000692849
-0.000687525
-0.00069818
-0.000688152
-0.000670576
-0.000647169
-0.000614665
-0.000580877
-0.000538616
-0.000492291
-0.000435084
-0.000374262
-0.000304854
-0.000253011
-0.000190133
-0.000156645
-0.000126835
-7.8952e-05
-6.86417e-05
-6.28319e-05
-0.000107038
-0.000220269
-0.000441712
-0.000786043
-0.00125134
-0.00173642
-0.00269809
-0.00287404
-0.00401121
-0.00403536
-0.00819819
-0.00331432
-0.0200551
0.00933616
-0.0841583
0.259452
-0.0348784
-0.0147503
-0.0251623
-0.00557816
-0.014629
0.00297576
-0.0120738
0.00456559
-0.00882076
-0.002362
-0.00342822
0.000540672
-0.00244053
-0.0022113
0.000231839
-0.00416781
0.00248168
0.00277899
-0.0023369
0.00241892
-0.00331724
-0.00478638
-0.00149147
-0.00450969
-0.000246322
-0.00654461
0.00427966
-0.00216084
0.00411001
-0.00472452
0.00187311
0.00392378
0.00238382
0.00614523
-0.000350149
0.0019319
-0.00605255
-0.00395953
0.000712309
0.00283838
-0.00692585
-0.000693528
0.00149647
-0.00260844
-0.00511916
0.0032389
-0.000445054
0.00129834
-0.00259398
0.00267068
-0.000585388
0.00143354
-0.00332361
0.00342285
-0.00152815
0.00322058
-0.00424086
0.00362436
-0.00855659
0.00446607
-0.00832868
0.00404316
-0.0099114
-0.00273153
0.000585699
-0.000271138
-6.85712e-05
-0.000243685
-0.000232701
-0.000299401
-0.000320259
-0.000368194
-0.000396806
-0.000440013
-0.000472227
-0.000506118
-0.000544895
-0.000570159
-0.000601907
-0.000628771
-0.000651178
-0.000667496
-0.000682155
-0.000694748
-0.000701543
-0.0006985
-0.000689064
-0.000678936
-0.000655432
-0.000633864
-0.000607347
-0.00058467
-0.000551974
-0.000504425
-0.000449211
-0.000400798
-0.00034103
-0.000306295
-0.000254224
-0.000237005
-0.000196847
-0.000125883
7.79764e-07
0.000221215
0.000436747
0.000612384
0.000829068
0.000963829
0.00122409
0.0013989
0.00172045
0.00245938
0.00390266
0.00511128
0.0107831
0.00765459
0.0342548
0.000416369
0.189923
-0.0157351
0.0341188
-0.0185872
0.0122966
-0.0138733
0.00532346
-0.0129954
0.00667242
-0.0105541
-0.00217047
-0.00280234
0.000650736
-0.00114141
-0.00346872
0.00347135
-0.00408892
0.00241047
0.00412801
-0.00180097
0.00214458
-0.00316347
-0.00448455
0.00263212
0.000537454
0.000950936
-0.00621216
-0.00228962
-0.00360037
-0.0034247
-0.00569896
-0.00477575
-0.00337006
0.00207461
-0.000327862
-0.00397037
0.00203593
-0.00260637
0.000796041
-0.00219463
-0.00414995
0.00388003
0.00350548
-0.00934954
0.00302196
0.0102263
-0.000231425
-0.0115534
0.00310127
0.000304755
0.00172385
-0.00422162
0.00300148
-0.00379417
0.00151549
-0.00647189
0.00163286
-0.00396846
0.00195835
-0.0035409
0.00497535
-0.00899085
0.00719572
-0.00537534
-0.00272814
0.000582395
-0.000271496
-6.91198e-05
-0.000243852
-0.000232964
-0.000299337
-0.00032057
-0.000368243
-0.000395913
-0.000441189
-0.000471515
-0.000506295
-0.000542438
-0.000573241
-0.000603663
-0.000626103
-0.000655852
-0.00067299
-0.000689445
-0.000698525
-0.000707173
-0.000710155
-0.000703437
-0.000694627
-0.000675957
-0.000658939
-0.00062809
-0.000594705
-0.000554014
-0.000503351
-0.000445831
-0.000390493
-0.000338004
-0.00030606
-0.000280205
-0.000264915
-0.000243041
-0.000220596
-0.000177492
-0.000165277
-0.000185822
-0.000375845
-0.0008292
-0.00144381
-0.00154711
-0.00196276
-0.00202484
-0.002538
-0.00303742
-0.0047684
-0.00695882
-0.00851714
-0.0201761
0.0406903
0.0504122
-0.0104209
0.0407167
-0.014651
0.0190774
-0.0162864
0.00797037
-0.00963537
0.00843905
-0.00893014
-0.00169033
-0.00370113
-0.00143398
-0.00173971
-0.00239752
0.000222756
-0.00272883
0.000824117
0.00386404
-0.00811655
-0.00114779
-0.00339719
-0.00618902
-0.000467219
0.000208048
-0.00613543
-0.00204908
-0.00215735
0.000894544
-0.00159903
9.00645e-05
-0.00173862
0.00133031
0.00372543
0.00391581
-0.00343823
0.00674925
-0.00311637
0.00517039
0.000685044
0.00277138
-0.00721719
0.0032423
0.00566445
-0.0019937
-0.0112863
0.00339624
0.00723582
-0.00270401
-0.00514725
0.00369125
-0.000502649
0.00240516
-0.0030922
0.00399649
-0.00386014
0.00656829
-0.00498389
0.0064894
-0.0040996
0.00372721
-0.00260812
0.00856744
-0.00818687
-0.00272176
0.000578164
-0.000271882
-7.01639e-05
-0.000244146
-0.000233272
-0.000299346
-0.000321757
-0.000368089
-0.000397256
-0.000441869
-0.000472884
-0.000508826
-0.000541685
-0.000579776
-0.000601971
-0.000632587
-0.000657118
-0.000674491
-0.00068886
-0.000706179
-0.000718343
-0.000718684
-0.000709292
-0.000707083
-0.000693385
-0.000676196
-0.000647709
-0.00062989
-0.000597807
-0.000572939
-0.000538473
-0.000502281
-0.000473516
-0.000456875
-0.000422702
-0.000404396
-0.000386344
-0.000342629
-0.000259829
-0.00015615
2.84263e-05
0.000155836
0.000315094
0.000451311
0.000573577
0.000750437
0.00107328
0.00173475
0.00233784
0.00533735
0.00314292
0.017418
0.0029563
0.0932323
0.0277651
-0.0121067
0.0343981
-0.0048788
0.0219984
-0.0195286
0.00889029
-0.0119208
0.00782428
-0.00903508
0.000486221
-0.00098606
0.000529203
0.00102502
-0.000374427
0.00207784
0.00161853
0.00376117
0.00574169
-0.00577949
0.00154438
-0.0014037
-0.00444255
0.00190244
0.000608368
-0.00254649
0.000499749
-0.00370826
-0.000851724
-0.00751365
-0.00256512
-0.00538628
-0.00201376
0.00505207
-9.00953e-05
1.81302e-05
0.0144552
-0.00118883
0.00260783
0.00256869
0.00228479
0.00121423
-0.000992142
-0.00557369
0.00733668
-0.000215065
-3.70977e-05
-0.00219969
0.00632644
-0.00201817
-0.000404381
-0.00310999
0.00173239
-0.00215053
0.00206253
-0.00160494
0.00235759
-0.00404788
0.00435404
-0.0071379
0.00595694
-0.00818957
0.00361315
-0.00790389
-0.00271793
0.000574742
-0.000272229
-7.07713e-05
-0.000244394
-0.000233291
-0.000299529
-0.000321712
-0.00036843
-0.000396659
-0.000443154
-0.00047134
-0.000509285
-0.000547077
-0.000577729
-0.000604754
-0.000635177
-0.000662527
-0.000683506
-0.000693871
-0.000719413
-0.000721092
-0.000733822
-0.000729363
-0.000724226
-0.000715284
-0.000703807
-0.000686238
-0.000664358
-0.000634641
-0.000595455
-0.000552606
-0.000523166
-0.000493297
-0.000468937
-0.000431308
-0.000400285
-0.000354449
-0.000368715
-0.000350942
-0.000408258
-0.000399324
-0.000485642
-0.000407194
-0.000385663
-0.000217784
-0.000363216
-0.000172023
-0.000719399
-0.000520172
-0.000962588
-0.000573613
0.00292391
-0.000146192
0.0856178
0.0130661
-0.00656394
0.0122506
0.017614
0.02617
-0.0101878
0.010212
-0.00797185
0.00445147
-0.0115338
0.000644907
-0.00513045
-0.00118567
-0.00331282
0.00107411
-0.00311637
0.00685464
0.00481078
0.000507791
-0.000284696
0.0128275
-0.00293463
-0.00285072
-0.000388844
0.0017735
-0.00364998
0.00318863
0.00125972
0.00656901
0.00676271
0.0093161
0.0159299
0.00694947
0.0198088
0.00280188
0.00649316
0.00697727
-0.00779376
0.00330756
-0.00116574
-0.00112919
0.000573733
0.00146897
0.00245386
-0.00129641
0.00110426
0.00268018
-0.00500244
-0.000225098
0.000481973
0.00442096
-0.00353524
0.00263059
-0.00297155
0.00276705
-0.00298146
0.000479668
-0.00221848
0.000300808
-0.00146289
0.00202349
-0.00514254
0.00447294
-0.00391929
-0.00271194
0.000571036
-0.000272627
-7.18969e-05
-0.000244583
-0.000233821
-0.000299855
-0.000321668
-0.000369825
-0.000396846
-0.000443711
-0.00047431
-0.000507889
-0.000550495
-0.00057818
-0.000605469
-0.000640875
-0.000665815
-0.000686817
-0.000692525
-0.000725181
-0.000737649
-0.000739635
-0.000743261
-0.000740439
-0.000736814
-0.000726034
-0.000717781
-0.000699271
-0.000686205
-0.000661447
-0.000647064
-0.000646185
-0.000625549
-0.000605227
-0.000605502
-0.000595732
-0.000613705
-0.000636964
-0.000642039
-0.000644051
-0.000552822
-0.000567641
-0.000400497
-0.000465512
-0.000313504
-0.000372729
-4.83837e-05
8.44032e-06
0.00114553
0.000568105
0.00240089
-0.00282821
0.0308646
0.0624577
0.00793475
0.00732871
-0.0072583
0.0288655
-0.00428833
0.03544
-0.0235223
0.0100972
-0.00701232
-0.0026053
0.00134966
-0.00615394
0.0129973
-0.000555837
0.0169972
-0.00762832
0.0224524
-0.00336838
0.00590382
0.00203091
0.00776473
-0.0024946
-0.000653711
0.00657532
0.00272262
0.00679315
0.00058907
0.00652625
-7.07079e-06
0.00881308
0.000153237
0.00948467
-0.00625021
0.00588687
-0.00297148
0.00138318
0.00670652
0.00238682
0.00694499
-0.00244193
0.00338741
-0.000940715
-0.000225781
0.000530772
9.48798e-05
-0.000990053
-0.00109203
0.00226137
0.000959373
-0.00199621
0.00152402
-0.00240219
0.00391824
-0.00552151
0.00516701
-0.0065284
0.00555762
-0.00530296
0.00453054
-0.00359073
0.00222959
-0.00188929
0.00554337
-0.00533927
-0.0027078
0.000567786
-0.000272974
-7.2489e-05
-0.000244751
-0.000234001
-0.00029987
-0.000322427
-0.000369218
-0.000398566
-0.000444368
-0.000473788
-0.000511312
-0.000551263
-0.000583735
-0.000607087
-0.000645145
-0.000672915
-0.00068949
-0.000716245
-0.000729503
-0.000754971
-0.000749327
-0.000765745
-0.000764728
-0.000764923
-0.000763716
-0.000752946
-0.000742643
-0.000725986
-0.000705249
-0.000694861
-0.000679797
-0.000663332
-0.000640882
-0.000638205
-0.000655359
-0.00062543
-0.000561374
-0.000512963
-0.000503683
-0.000538046
-0.000593395
-0.000388489
-0.000507322
-0.000252186
-0.000510398
0.000102843
-0.00085097
0.0015877
-0.00320188
0.00800909
-0.021508
0.0862541
0.0313096
-0.00216714
0.00177348
-0.00431649
-0.0047355
-0.00741477
0.0279122
-0.00150202
0.0132388
-0.00379152
-0.00914174
0.016162
-0.0153843
0.0233665
-0.0146264
0.013782
-0.00148701
-0.000908154
-0.00314555
0.00380994
0.00294062
0.00272115
0.00429313
0.00418786
0.00840647
0.00679816
0.00745398
0.0106736
0.0077018
0.0107833
0.00577976
0.011893
0.00143286
0.00893311
0.00400292
0.00571861
0.000543149
0.00222421
-0.0015333
0.00238092
0.00025717
0.00169346
-0.00103389
0.00308027
-0.00313536
0.00294251
-0.00285288
0.00550279
-0.00318074
0.00290235
-0.00240139
0.000614717
-0.000923856
0.000503383
0.00022391
0.00217329
-0.00248056
0.0048996
-0.00539927
0.00632908
-0.00675504
0.00610733
-0.00549571
0.00242985
-0.00712424
-0.00270255
0.000564627
-0.000273386
-7.35951e-05
-0.000245218
-0.000234145
-0.00030048
-0.000322954
-0.000369511
-0.000399507
-0.000444736
-0.00047292
-0.000515687
-0.000550476
-0.000584448
-0.000611536
-0.000646177
-0.000676913
-0.000691064
-0.000720692
-0.000745472
-0.000758147
-0.000773666
-0.000779734
-0.000784237
-0.00079236
-0.000791983
-0.000792718
-0.000784703
-0.000785204
-0.000777583
-0.000797826
-0.000784864
-0.000780491
-0.000767412
-0.00076551
-0.000830475
-0.000889523
-0.000952344
-0.000987112
-0.00107858
-0.000956747
-0.000970422
-0.000729376
-0.000776415
-0.000829672
-0.00147445
-0.00122521
-0.00243328
-0.000640261
-0.00353551
0.00493625
-0.0143454
0.0899429
0.0148194
0.00268696
0.000918427
-0.00944532
-0.00245111
0.00314607
0.0279192
-0.000646287
0.014955
0.0100008
-0.00548517
0.0251398
-0.000620979
0.00970121
0.00723395
0.0066652
0.00935419
0.00805523
0.00377546
0.00623456
0.0041466
0.0045131
0.00442678
0.00524199
0.00426614
0.00428092
0.0032465
0.00252837
0.000559051
0.000490099
-0.000535046
6.68144e-05
-0.00110259
-0.00159482
-0.00053465
-0.000259055
0.000734941
0.00250886
0.00124444
0.000911772
-0.000849939
0.002024
0.000695771
0.000890392
-0.000212032
0.00139381
-0.000783637
0.00125863
-0.00151686
0.00194295
-0.00310214
0.0024515
-0.00169291
0.00230175
-0.00243517
0.000158945
0.000743819
-0.000898195
0.00088772
-0.000455707
-0.00088153
0.00125142
-0.00348956
0.00286899
-0.00260311
-0.00269844
0.000561788
-0.000273722
-7.41832e-05
-0.000245401
-0.000234284
-0.000300748
-0.000322812
-0.000369655
-0.000401262
-0.000444266
-0.000476518
-0.0005161
-0.000553443
-0.000587357
-0.000617727
-0.000650493
-0.000682101
-0.000706903
-0.000730164
-0.000755406
-0.000767069
-0.000788623
-0.000798241
-0.00080844
-0.000823836
-0.000823848
-0.000837774
-0.000832484
-0.000841367
-0.000836463
-0.000840436
-0.000836489
-0.000839064
-0.00085272
-0.0008659
-0.00084683
-0.00078743
-0.000727626
-0.000672852
-0.000634262
-0.000592872
-0.000569703
-0.000697412
-0.00111896
-0.00112519
-0.00118532
-0.000622621
-0.000175792
0.00105178
-8.21024e-05
0.00317527
-0.0104533
0.083236
0.0119418
-0.00206368
-0.0115715
-0.0227949
-0.0205629
0.00904278
-0.00568645
-0.0104813
0.0157861
0.0263798
0.011518
0.0124946
0.00112684
0.000235445
-0.00744734
-0.00680339
0.00336468
0.00228049
0.00032287
-0.00309904
-0.00301569
-0.00206683
9.73593e-05
-0.00229866
-0.00105616
-0.00112825
-0.000294171
0.000321794
-0.000208747
0.000593684
-0.000156666
0.000953923
0.000317143
0.000655637
0.00135108
0.000281132
0.00130403
0.000392713
0.000385679
0.0015271
-8.77877e-05
0.00102539
-0.000197304
0.00101156
0.00052791
0.000837121
0.000649041
-0.000357447
7.02339e-05
0.000511259
-0.000359907
0.00161236
-0.0026819
0.00409694
-0.00438796
0.0057508
-0.00536133
0.00313864
-0.00217021
0.000391947
-0.000577203
-9.35972e-05
0.000988086
0.00214022
-0.00280213
-0.00269365
0.000559262
-0.000273967
-7.51569e-05
-0.000245682
-0.000234824
-0.000301539
-0.000322566
-0.000370682
-0.00040279
-0.000443628
-0.000477702
-0.00051845
-0.000555257
-0.000589142
-0.000621113
-0.000656029
-0.000685625
-0.00070746
-0.000744902
-0.000763574
-0.000786825
-0.000805062
-0.000828904
-0.000834086
-0.000854501
-0.000864028
-0.000876536
-0.000884349
-0.000896089
-0.000928908
-0.0009236
-0.000946853
-0.00091933
-0.000942226
-0.000967383
-0.00102472
-0.0010996
-0.0012156
-0.0012978
-0.00127181
-0.00117551
-0.00103612
-0.000987165
-0.00103336
-0.00107853
-0.00100272
-0.00154214
-0.000785306
-0.00361612
0.000161191
-0.0188806
0.0503815
0.054627
0.0194834
0.00742943
0.00139517
-0.00768546
0.009489
0.0237241
0.00642684
-0.0199792
0.042475
0.00322
-0.00645274
-0.00429148
-0.00237932
0.00638482
0.00469271
0.00138776
-0.00249852
-0.00695729
-0.00225766
0.00275552
0.00347653
0.00168817
-0.00157433
0.00107226
0.00182396
0.000623147
-8.17733e-05
0.000561728
-0.000619664
0.000111651
-0.000754146
-0.000377654
-0.00100041
-0.000580905
-0.000448089
0.00018546
0.000556998
0.000471384
-7.63519e-05
0.000942531
-0.000155468
0.00144314
-0.000564681
0.000866534
-0.00172117
0.000866216
-0.00177566
0.00086131
-0.00126686
0.00108901
-0.000257019
-3.22514e-06
0.000335148
6.96019e-05
-0.00111084
0.00203582
-0.00425659
0.00513964
-0.00678413
0.00633446
-0.00444056
0.00426371
-0.00412653
0.00173609
-0.00447019
-0.00268983
0.000556906
-0.000274265
-7.57285e-05
-0.000245855
-0.000234998
-0.000301695
-0.000322877
-0.00037072
-0.000404056
-0.000444983
-0.000478993
-0.00052253
-0.000555329
-0.000593171
-0.000627885
-0.000661541
-0.00068968
-0.000724046
-0.00075491
-0.000775801
-0.000797657
-0.000824979
-0.000847021
-0.000864363
-0.000876811
-0.000901116
-0.000919558
-0.000942137
-0.000960648
-0.000979872
-0.00100172
-0.0010136
-0.00104325
-0.00104742
-0.00106232
-0.00106922
-0.00102815
-0.00102492
-0.00094641
-0.000981855
-0.000910285
-0.00126916
-0.00155552
-0.00172219
-0.00212843
-0.0016217
-0.00267411
-0.000912632
-0.00525564
0.00415552
-0.0292676
0.108313
0.0324769
-0.0139617
-0.00777687
-0.0221927
-0.0132213
0.00452628
0.017813
-0.0160531
0.0126351
0.0258424
-0.00166003
0.000609849
0.00140221
-0.00148767
0.000797378
-0.000971529
-0.000909552
0.00217147
0.000842322
0.00120272
-0.00108672
-0.00543919
-0.000581542
-0.0024604
0.000201969
-0.00292069
-0.000856029
-0.00195676
0.000106892
-0.000651745
0.00017402
9.92809e-05
0.00105172
5.3415e-05
0.000809972
-0.000281285
0.00136164
-9.48701e-06
0.000739821
-0.000126676
0.000726194
-0.000609338
0.00164273
-0.000212167
0.00172034
-0.000122706
0.00146346
-0.00122389
0.00280669
-0.00268189
0.0032121
-0.00266486
0.00275356
-0.00221471
0.00117807
-1.64314e-05
-0.000989083
0.00176217
-0.00041066
-0.00047541
0.0015703
-0.00363143
0.00161935
-0.00343158
0.00106186
-0.00256746
-0.00268569
0.000555033
-0.00027445
-7.64932e-05
-0.000246052
-0.000235203
-0.000302633
-0.00032277
-0.000372169
-0.000404754
-0.000445275
-0.000480424
-0.000523939
-0.00055691
-0.000594395
-0.0006339
-0.000667244
-0.000693232
-0.000734002
-0.000760832
-0.000794663
-0.000813182
-0.000849669
-0.000871693
-0.000902182
-0.000910939
-0.000944192
-0.000972141
-0.000995863
-0.00102832
-0.00105517
-0.00110097
-0.00109455
-0.00110144
-0.00108302
-0.00108581
-0.00110353
-0.00113923
-0.0012655
-0.00134686
-0.00146434
-0.00136915
-0.00134147
-0.00128059
-0.00108773
-0.000755169
-0.000170319
0.00104436
0.00269571
0.00269542
0.00966092
-0.00101254
0.0869751
0.0174346
0.00141521
0.00366086
-0.00966236
-0.00297234
0.0244929
0.0275653
-0.010598
0.0134093
0.00734069
-0.00527517
-0.0018234
-0.00139627
-0.00131962
-0.00045063
-0.000968156
-0.00070313
3.22457e-05
-6.18437e-05
-0.000182713
0.00107569
9.6272e-05
0.00235532
-0.0011911
0.00198211
-0.00117776
0.00138721
-0.00131182
-0.000208163
-0.00140001
-0.000901923
-0.000992914
-0.00120842
-0.000451106
-0.000368209
-0.00102069
-1.01146e-05
-0.0011025
0.000715895
-0.000765927
0.00117832
-7.54007e-05
0.0013135
-0.000991553
0.00106714
-0.000773105
0.0011097
-0.000152962
0.000539159
0.000142019
0.000913485
-0.0013462
0.00184121
-0.00298416
0.00328931
-0.00267567
0.00357586
-0.00199475
-0.000320328
0.000673652
-0.00144382
0.00138698
-0.000453038
0.000873143
0.00102689
2.37992e-05
-0.00268234
0.000553296
-0.000274615
-7.70095e-05
-0.000246196
-0.000235578
-0.000302828
-0.000322859
-0.000372184
-0.000405919
-0.000445976
-0.00048411
-0.000527551
-0.000558353
-0.000600901
-0.000640338
-0.000671787
-0.000704057
-0.000748601
-0.000770803
-0.000807607
-0.000833523
-0.000867194
-0.000893947
-0.000919116
-0.000945714
-0.000978849
-0.00101166
-0.00104832
-0.00107472
-0.00111155
-0.00115347
-0.00119489
-0.00125655
-0.00130331
-0.00134475
-0.00135046
-0.00137337
-0.0014105
-0.00152305
-0.00162317
-0.00140121
-0.00137068
-0.00142249
-0.00218864
-0.00257371
-0.00331628
-0.00314938
-0.00421516
-0.00578257
-0.0132366
0.0190696
0.0574951
0.0247982
0.0119801
0.00893895
-0.0144335
-0.0131273
0.0275032
0.0145514
0.0115714
0.00436738
0.000229924
-0.00307645
0.000404205
-0.000125285
-0.00127713
0.000837055
-0.000587226
0.0011942
-0.000179197
4.48246e-05
-0.00026974
0.000196453
-0.00131866
-6.315e-05
-0.00150921
0.000602224
-0.00154581
0.000157904
-0.00137391
-0.000199316
-0.000594796
0.000142606
-0.000879649
0.00151513
-0.000611729
0.00152404
0.000351727
0.00122229
-0.000975173
0.00135116
-0.000175412
0.00028617
-0.00064623
0.000949701
-0.000595369
0.00075719
-0.000412152
0.000666085
-0.000569127
0.00109117
9.77314e-05
0.000108973
0.000122881
6.10638e-05
8.81329e-05
0.00113914
-0.00226532
0.00239227
-0.00416475
0.00494343
-0.0033863
0.00288314
-0.00214671
0.00243527
-0.000984032
0.00125457
-0.00138945
-0.00267887
0.000552012
-0.000274663
-7.75319e-05
-0.000246208
-0.000236273
-0.000303339
-0.000323383
-0.000373333
-0.000406467
-0.000446708
-0.000485507
-0.000528828
-0.000558814
-0.000603093
-0.000645378
-0.000674103
-0.000712541
-0.000749854
-0.000790542
-0.000810097
-0.00086147
-0.000887943
-0.000925946
-0.000951614
-0.000994451
-0.00102873
-0.00107282
-0.00111849
-0.00115716
-0.00120027
-0.00121974
-0.00123546
-0.00121901
-0.00120052
-0.00124116
-0.00123561
-0.00125972
-0.0012586
-0.00141188
-0.00151116
-0.00120566
-0.00116151
-0.00104907
-0.00151307
-0.00172905
-0.00315615
-0.00112861
-0.00401307
0.00788596
-0.0158977
0.0810505
0.0328713
-0.00883
0.00382975
0.00379707
-0.010005
-0.0125963
0.0310142
0.00694253