/*--------------------------------*- C++ -*----------------------------------*\
| =========                 |                                                 |
| \\      /  F ield         | OpenFOAM: The Open Source CFD Toolbox           |
|  \\    /   O peration     | Version:  2.2.x                                 |
|   \\  /    A nd           | Web:      www.OpenFOAM.org                      |
|    \\/     M anipulation  |                                                 |
\*---------------------------------------------------------------------------*/
FoamFile
{
    version     2.0;
    format      ascii;
    class       volScalarField;
    location    "1.55";
    object      p;
}
// * * * * * * * * * * * * * * * * * * * * * * * * * * * * * * * * * * * * * //

dimensions      [1 -1 -2 0 0 0 0];

internalField   nonuniform List<scalar> 
14161
(
0.2
0.2
0.2
0.2
0.2
0.2
0.2
0.2
0.2
0.2
0.2
0.2
0.2
0.2
0.2
0.2
0.2
0.2
0.2
0.2
0.2
0.2
0.2
0.2
0.2
0.2
0.2
0.2
0.2
0.2
0.2
0.2
0.2
0.2
0.2
0.2
0.2
0.2
0.200001
0.200011
0.200181
0.202845
0.240951
1.99256
6.32638
8.52076
9.05044
9.18356
9.2214
9.24495
9.27334
9.31109
9.34866
9.38189
9.40994
9.43014
9.44616
9.47309
9.51291
9.55177
9.58348
9.60829
9.6227
9.63739
9.66697
9.70816
9.74577
9.77475
9.79393
9.80183
9.82143
9.85796
9.89859
9.93123
9.95475
9.96396
9.9776
10.0085
10.0478
10.0813
10.1064
10.1172
10.1307
10.1605
10.1979
10.2295
10.2524
10.2623
10.2798
10.3119
10.3464
10.3742
10.391
10.402
10.4273
10.4604
10.4895
10.51
10.5205
10.5407
10.5703
10.5986
10.6196
10.6312
10.6485
10.6735
10.6983
10.7171
10.7292
10.7452
10.7647
10.7833
10.7966
10.807
10.818
10.83
10.8386
10.8414
10.8507
0.2
0.2
0.2
0.2
0.2
0.2
0.2
0.2
0.2
0.2
0.2
0.2
0.2
0.2
0.2
0.2
0.2
0.2
0.2
0.2
0.2
0.2
0.2
0.2
0.2
0.2
0.2
0.2
0.2
0.2
0.2
0.2
0.2
0.2
0.2
0.2
0.2
0.2
0.200001
0.200011
0.200181
0.202848
0.241196
1.98867
6.31775
8.51849
9.05258
9.18713
9.22482
9.24819
9.27693
9.31466
9.35207
9.38494
9.41253
9.43184
9.44804
9.47589
9.51634
9.5551
9.58638
9.61049
9.62409
9.63898
9.66968
9.71128
9.74864
9.77731
9.79544
9.80314
9.82374
9.86082
9.90131
9.93354
9.95628
9.9645
9.97899
10.0111
10.0508
10.084
10.1083
10.1179
10.1315
10.1622
10.2001
10.2317
10.254
10.2632
10.2805
10.3128
10.3476
10.3757
10.3925
10.4032
10.4277
10.4604
10.4897
10.5107
10.5217
10.5416
10.5707
10.5985
10.6194
10.6312
10.649
10.6741
10.6981
10.7158
10.7271
10.7441
10.7645
10.7826
10.7946
10.8043
10.8157
10.8286
10.8374
10.8387
10.8477
0.2
0.2
0.2
0.2
0.2
0.2
0.2
0.2
0.2
0.2
0.2
0.2
0.2
0.2
0.2
0.2
0.2
0.2
0.2
0.2
0.2
0.2
0.2
0.2
0.2
0.2
0.2
0.2
0.2
0.2
0.2
0.2
0.2
0.2
0.2
0.2
0.2
0.2
0.200001
0.200011
0.200174
0.202741
0.238849
1.96886
6.30081
8.51308
9.05038
9.18514
9.22276
9.24647
9.27603
9.31402
9.35115
9.38356
9.4108
9.4294
9.44602
9.47508
9.51592
9.55435
9.58502
9.60854
9.6215
9.637
9.66884
9.71058
9.74741
9.77565
9.79291
9.80093
9.82259
9.86017
9.90032
9.93195
9.95404
9.96148
9.97713
10.0104
10.0503
10.0831
10.1065
10.1152
10.1293
10.1609
10.1992
10.2308
10.2526
10.2611
10.2786
10.3112
10.3463
10.3746
10.3912
10.4017
10.4258
10.4582
10.4875
10.5089
10.5205
10.5402
10.5684
10.5954
10.6162
10.6284
10.6471
10.6723
10.6958
10.7126
10.7231
10.7409
10.7619
10.7797
10.79
10.7989
10.8104
10.8237
10.8317
10.8309
10.8365
0.2
0.2
0.2
0.2
0.2
0.2
0.2
0.2
0.2
0.2
0.2
0.2
0.2
0.2
0.2
0.2
0.2
0.2
0.2
0.2
0.2
0.2
0.2
0.2
0.2
0.2
0.2
0.2
0.2
0.2
0.2
0.2
0.2
0.2
0.2
0.2
0.2
0.2
0.200001
0.20001
0.200161
0.202519
0.233855
1.93318
6.2773
8.50582
9.04728
9.18116
9.21854
9.24316
9.27416
9.31283
9.34968
9.38166
9.40864
9.42649
9.44371
9.47438
9.51553
9.55334
9.5834
9.60642
9.6185
9.63526
9.66835
9.70988
9.74586
9.77335
9.78967
9.7986
9.82174
9.86013
9.89977
9.93044
9.95152
9.95821
9.97537
10.0099
10.05
10.0823
10.1049
10.1127
10.1277
10.1602
10.1987
10.2302
10.2517
10.2598
10.2777
10.3103
10.3452
10.3733
10.3899
10.4008
10.425
10.457
10.4858
10.5068
10.5189
10.539
10.5667
10.5931
10.6135
10.6259
10.645
10.6701
10.6932
10.7092
10.7196
10.7376
10.7581
10.7747
10.7839
10.792
10.8031
10.8154
10.8218
10.8192
10.8228
0.2
0.2
0.2
0.2
0.2
0.2
0.2
0.2
0.2
0.2
0.2
0.2
0.2
0.2
0.2
0.2
0.2
0.2
0.2
0.2
0.2
0.2
0.2
0.2
0.2
0.2
0.2
0.2
0.2
0.2
0.2
0.2
0.2
0.2
0.2
0.2
0.2
0.2
0.200001
0.200009
0.200146
0.202281
0.228572
1.89222
6.24721
8.49797
9.04819
9.18317
9.22063
9.24611
9.27866
9.31802
9.35479
9.38621
9.41216
9.42868
9.44688
9.47991
9.52157
9.5587
9.58794
9.60987
9.6208
9.63934
9.67473
9.71665
9.7516
9.77803
9.79227
9.80225
9.8279
9.86776
9.90655
9.93616
9.95519
9.96082
9.97987
10.0159
10.0556
10.0871
10.1083
10.1143
10.1301
10.1629
10.2006
10.2314
10.2519
10.2594
10.2777
10.3096
10.3435
10.3705
10.3865
10.3982
10.4228
10.4541
10.482
10.5025
10.5148
10.5356
10.5635
10.5898
10.6097
10.622
10.6413
10.6662
10.6887
10.7044
10.715
10.7326
10.7522
10.7678
10.7766
10.7842
10.7942
10.804
10.8085
10.8055
10.8074
0.2
0.2
0.2
0.2
0.2
0.2
0.2
0.2
0.2
0.2
0.2
0.2
0.2
0.2
0.2
0.2
0.2
0.2
0.2
0.2
0.2
0.2
0.2
0.2
0.2
0.2
0.2
0.2
0.2
0.2
0.2
0.2
0.2
0.2
0.2
0.2
0.2
0.2
0.200001
0.200008
0.200134
0.202087
0.224508
1.84743
6.20591
8.48282
9.04128
9.17729
9.21544
9.24197
9.27535
9.31425
9.35036
9.38096
9.40594
9.42176
9.44126
9.47555
9.51639
9.55188
9.58
9.60057
9.61144
9.63171
9.66849
9.7091
9.7421
9.7668
9.77869
9.78974
9.81715
9.85748
9.89507
9.92375
9.94048
9.94621
9.96702
10.0038
10.043
10.0736
10.0938
10.0999
10.1184
10.1528
10.1903
10.2203
10.2396
10.2478
10.2693
10.3032
10.337
10.3633
10.3774
10.3903
10.4173
10.4498
10.4775
10.4969
10.509
10.5307
10.5592
10.5854
10.6047
10.617
10.6361
10.6602
10.6823
10.6983
10.709
10.7258
10.744
10.7588
10.7674
10.775
10.7833
10.7906
10.7932
10.7895
10.789
0.2
0.2
0.2
0.2
0.2
0.2
0.2
0.2
0.2
0.2
0.2
0.2
0.2
0.2
0.2
0.2
0.2
0.2
0.2
0.2
0.2
0.2
0.2
0.2
0.2
0.2
0.2
0.2
0.2
0.2
0.2
0.2
0.2
0.2
0.2
0.2
0.2
0.2
0.2
0.200007
0.200113
0.201749
0.217299
1.77326
6.14444
8.46608
9.0373
9.17336
9.2119
9.23987
9.27455
9.3128
9.3478
9.37753
9.40158
9.41742
9.43875
9.4747
9.5147
9.54857
9.57545
9.59445
9.60652
9.62945
9.66724
9.70691
9.73844
9.76163
9.77258
9.78578
9.81507
9.85548
9.89186
9.91937
9.93474
9.94265
9.96526
10.0022
10.0397
10.0689
10.0868
10.0948
10.1161
10.1511
10.1868
10.2148
10.2312
10.2411
10.266
10.3008
10.3327
10.357
10.3686
10.3837
10.413
10.4458
10.4728
10.4895
10.5008
10.5239
10.5531
10.5792
10.5977
10.6098
10.6291
10.653
10.6748
10.6899
10.7014
10.7167
10.7337
10.7478
10.756
10.763
10.7699
10.775
10.7756
10.7705
10.766
0.2
0.2
0.2
0.2
0.2
0.2
0.2
0.2
0.2
0.2
0.2
0.2
0.2
0.2
0.2
0.2
0.2
0.2
0.2
0.2
0.2
0.2
0.2
0.2
0.2
0.2
0.2
0.2
0.2
0.2
0.2
0.2
0.2
0.2
0.2
0.2
0.2
0.2
0.2
0.200005
0.200084
0.201283
0.207209
1.67053
6.06573
8.44395
9.02971
9.16626
9.20517
9.23515
9.27123
9.30825
9.34185
9.37052
9.39309
9.40866
9.4331
9.47111
9.51
9.54223
9.56776
9.58482
9.59872
9.62475
9.66412
9.70264
9.73281
9.7549
9.7651
9.78141
9.81299
9.85234
9.88626
9.9123
9.92712
9.93841
9.96361
10.0005
10.0353
10.0624
10.0786
10.0895
10.1137
10.1491
10.1826
10.2086
10.2231
10.2356
10.2625
10.2977
10.328
10.35
10.3606
10.3785
10.4089
10.4406
10.4659
10.4798
10.4924
10.5174
10.547
10.5719
10.5882
10.5999
10.6204
10.6446
10.6655
10.6794
10.6905
10.7055
10.722
10.7346
10.7417
10.7478
10.7536
10.7572
10.7554
10.7483
10.7402
0.2
0.2
0.2
0.2
0.2
0.2
0.2
0.2
0.2
0.2
0.2
0.2
0.2
0.2
0.2
0.2
0.2
0.2
0.2
0.2
0.2
0.2
0.2
0.2
0.2
0.2
0.2
0.2
0.2
0.2
0.2
0.2
0.2
0.2
0.2
0.2
0.2
0.2
0.2
0.200004
0.200054
0.200834
0.198032
1.55588
5.97071
8.4167
9.02167
9.15796
9.19789
9.23176
9.26981
9.30619
9.33801
9.36478
9.38334
9.40108
9.43132
9.47139
9.50839
9.53814
9.56151
9.5754
9.59156
9.62318
9.66348
9.69857
9.72589
9.74474
9.75566
9.7773
9.81271
9.85022
9.88039
9.90303
9.91515
9.93186
9.96247
9.99907
10.0304
10.0548
10.0678
10.0826
10.1115
10.1475
10.1785
10.2021
10.214
10.2296
10.2587
10.2929
10.3216
10.3415
10.3524
10.3728
10.4037
10.4337
10.4572
10.4694
10.485
10.5118
10.54
10.5628
10.5759
10.589
10.6113
10.6355
10.6545
10.6658
10.6767
10.6925
10.7088
10.7195
10.7248
10.7295
10.7344
10.7367
10.7317
10.7226
10.7107
0.2
0.2
0.2
0.2
0.2
0.2
0.2
0.2
0.2
0.2
0.2
0.2
0.2
0.2
0.2
0.2
0.2
0.2
0.2
0.2
0.2
0.2
0.2
0.2
0.2
0.2
0.2
0.2
0.2
0.2
0.2
0.2
0.2
0.2
0.2
0.2
0.2
0.2
0.2
0.200002
0.200032
0.200429
0.189131
1.41854
5.85218
8.38361
9.01203
9.15014
9.19406
9.23179
9.26934
9.304
9.33381
9.3581
9.37385
9.39585
9.43164
9.47017
9.50292
9.52967
9.55032
9.56252
9.58519
9.62255
9.66097
9.69202
9.71589
9.72947
9.74348
9.7731
9.81318
9.84945
9.87753
9.89425
9.90317
9.92601
9.96236
9.99976
10.0297
10.0502
10.0581
10.0758
10.1081
10.1436
10.173
10.194
10.2034
10.2219
10.2526
10.2852
10.3122
10.3303
10.3426
10.3663
10.3974
10.4255
10.4466
10.4583
10.4774
10.5051
10.5316
10.5517
10.5627
10.5787
10.602
10.6248
10.6411
10.6497
10.662
10.6785
10.6937
10.7017
10.705
10.7091
10.7134
10.7124
10.704
10.6937
10.6781
0.2
0.2
0.2
0.2
0.2
0.2
0.2
0.2
0.2
0.2
0.2
0.2
0.2
0.2
0.2
0.2
0.2
0.2
0.2
0.2
0.2
0.2
0.2
0.2
0.2
0.2
0.2
0.2
0.2
0.2
0.2
0.2
0.2
0.2
0.2
0.2
0.2
0.2
0.2
0.199998
0.200219
0.20194
0.181292
1.25843
5.70657
8.34085
8.99668
9.1379
9.18734
9.22884
9.26567
9.29767
9.32471
9.3436
9.36153
9.39049
9.42987
9.46649
9.49582
9.51914
9.53411
9.55153
9.58353
9.62365
9.65792
9.68411
9.70069
9.71128
9.73379
9.77024
9.80852
9.83808
9.85907
9.86885
9.88412
9.91467
9.9533
9.98649
10.0111
10.0235
10.035
10.0619
10.099
10.1333
10.1592
10.1733
10.1844
10.2104
10.245
10.2766
10.3013
10.3156
10.3303
10.3575
10.3886
10.4151
10.4339
10.4459
10.4681
10.4965
10.5213
10.5386
10.5489
10.5677
10.5914
10.612
10.625
10.6331
10.647
10.6634
10.6757
10.6807
10.6831
10.6868
10.6905
10.685
10.6732
10.6613
10.642
0.2
0.2
0.2
0.2
0.2
0.2
0.2
0.2
0.2
0.2
0.2
0.2
0.2
0.2
0.2
0.2
0.2
0.2
0.2
0.2
0.2
0.2
0.2
0.2
0.2
0.2
0.2
0.2
0.2
0.2
0.2
0.2
0.2
0.2
0.2
0.2
0.2
0.2
0.199999
0.200042
0.200845
0.20513
0.170941
1.07753
5.53654
8.29204
8.98019
9.12922
9.18668
9.22996
9.26528
9.29425
9.31685
9.33272
9.35577
9.39292
9.43257
9.46516
9.49058
9.50712
9.5189
9.54475
9.58467
9.62355
9.65331
9.67433
9.68197
9.6965
9.72794
9.7696
9.80535
9.83119
9.8433
9.84975
9.87223
9.91038
9.94962
9.97905
9.99681
10.0013
10.0198
10.0548
10.0936
10.1244
10.1444
10.1501
10.1678
10.2013
10.2383
10.2681
10.2875
10.2953
10.3156
10.3469
10.3788
10.4038
10.419
10.4328
10.4569
10.4846
10.5088
10.5237
10.5349
10.5555
10.5786
10.5968
10.6068
10.6159
10.6307
10.6458
10.6545
10.657
10.6599
10.6633
10.6635
10.6547
10.6398
10.6258
10.602
0.2
0.2
0.2
0.2
0.2
0.2
0.2
0.2
0.2
0.2
0.2
0.2
0.2
0.2
0.2
0.2
0.2
0.2
0.2
0.2
0.2
0.2
0.2
0.2
0.2
0.2
0.2
0.2
0.2
0.2
0.2
0.2
0.2
0.2
0.2
0.2
0.2
0.199996
0.199986
0.200075
0.200655
0.2026
0.157148
0.86939
5.33203
8.23069
8.96001
9.12164
9.18777
9.23093
9.26232
9.2876
9.30423
9.32078
9.35092
9.39263
9.43002
9.45897
9.48101
9.49083
9.50534
9.53776
9.5816
9.61866
9.64562
9.66122
9.6644
9.68327
9.72099
9.76416
9.79762
9.82112
9.82639
9.83463
9.86217
9.90355
9.94142
9.96901
9.98043
9.98515
10.0085
10.0465
10.0843
10.1127
10.1258
10.132
10.1559
10.193
10.2287
10.2551
10.266
10.2753
10.302
10.3371
10.3682
10.3906
10.4005
10.4166
10.4432
10.4715
10.4937
10.5064
10.5194
10.5412
10.5632
10.5795
10.5872
10.5979
10.6126
10.6254
10.6312
10.6322
10.6345
10.6374
10.633
10.6217
10.604
10.5872
10.5582
0.2
0.2
0.2
0.2
0.2
0.2
0.2
0.2
0.2
0.2
0.2
0.2
0.2
0.2
0.2
0.2
0.2
0.2
0.2
0.2
0.2
0.2
0.2
0.2
0.2
0.2
0.2
0.2
0.2
0.2
0.2
0.2
0.2
0.2
0.2
0.2
0.2
0.2
0.199999
0.199993
0.200129
0.197485
0.146609
0.652153
5.08556
8.1315
8.93782
9.11957
9.19182
9.23163
9.25932
9.27953
9.29048
9.30888
9.34358
9.38679
9.42334
9.45104
9.47022
9.47549
9.49181
9.52715
9.57165
9.60789
9.6346
9.64832
9.65032
9.67111
9.7102
9.75279
9.78543
9.80809
9.81137
9.82139
9.85136
9.89293
9.9287
9.95498
9.96347
9.97029
9.9967
10.036
10.0716
10.0975
10.1067
10.1167
10.1446
10.1827
10.2153
10.2374
10.2438
10.2591
10.291
10.3266
10.3551
10.3704
10.3773
10.3991
10.4294
10.4575
10.4772
10.4872
10.5021
10.5239
10.5452
10.56
10.5663
10.578
10.5919
10.6023
10.6059
10.606
10.607
10.6069
10.5998
10.5865
10.5658
10.5453
10.5107
0.2
0.2
0.2
0.2
0.2
0.2
0.2
0.2
0.2
0.2
0.2
0.2
0.2
0.2
0.2
0.2
0.2
0.2
0.2
0.2
0.2
0.2
0.2
0.2
0.2
0.2
0.2
0.2
0.2
0.2
0.2
0.2
0.2
0.2
0.2
0.2
0.2
0.2
0.199997
0.199947
0.19948
0.196867
0.154262
0.436536
4.80248
8.00453
8.91339
9.11686
9.1864
9.22184
9.2464
9.26531
9.28007
9.30225
9.33582
9.37314
9.4064
9.43373
9.4551
9.46727
9.48681
9.5197
9.55839
9.59137
9.61677
9.63371
9.6438
9.6657
9.70095
9.73759
9.76638
9.78721
9.79271
9.81013
9.84258
9.88005
9.9119
9.93613
9.94439
9.95565
9.98503
10.0235
10.0562
10.0796
10.0875
10.1016
10.1324
10.1692
10.199
10.2169
10.2236
10.245
10.2791
10.3122
10.3361
10.345
10.3567
10.384
10.4159
10.4419
10.4566
10.4636
10.4818
10.5051
10.5257
10.5379
10.5435
10.5556
10.5684
10.5769
10.5783
10.5777
10.5775
10.573
10.564
10.5486
10.5248
10.5003
10.4599
0.2
0.2
0.2
0.2
0.2
0.2
0.2
0.2
0.2
0.2
0.2
0.2
0.2
0.2
0.2
0.2
0.2
0.2
0.2
0.2
0.2
0.2
0.2
0.2
0.2
0.2
0.2
0.2
0.2
0.2
0.2
0.2
0.2
0.2
0.2
0.2
0.2
0.2
0.199999
0.199969
0.199659
0.198113
0.160831
0.224279
4.4454
7.82819
8.88092
9.1184
9.18155
9.20801
9.23203
9.26098
9.29207
9.32154
9.34766
9.3707
9.38987
9.41222
9.4422
9.47309
9.50094
9.52526
9.54648
9.56435
9.58373
9.6095
9.6396
9.66938
9.6964
9.71975
9.73978
9.75746
9.77338
9.79833
9.83338
9.86689
9.89251
9.91154
9.9208
9.94045
9.97227
10.0076
10.0375
10.0592
10.0668
10.0853
10.118
10.1523
10.1798
10.1949
10.2055
10.2306
10.2644
10.2939
10.3134
10.3208
10.3391
10.3695
10.3995
10.4207
10.4286
10.4395
10.4616
10.4863
10.5044
10.5128
10.5187
10.5304
10.5426
10.5492
10.5485
10.5467
10.5452
10.5372
10.5253
10.5072
10.4809
10.452
10.4058
0.2
0.2
0.2
0.2
0.2
0.2
0.2
0.2
0.2
0.2
0.2
0.2
0.2
0.2
0.2
0.2
0.2
0.2
0.2
0.2
0.2
0.2
0.2
0.2
0.2
0.2
0.2
0.2
0.2
0.2
0.2
0.2
0.2
0.2
0.2
0.2
0.2
0.2
0.200008
0.200096
0.200464
0.199331
0.178204
0.313023
3.98376
7.52519
8.76951
9.04833
9.12129
9.15816
9.19232
9.2248
9.25414
9.27976
9.3023
9.32696
9.35756
9.39031
9.4203
9.44566
9.46475
9.48238
9.50776
9.54074
9.57439
9.60248
9.62407
9.63858
9.6571
9.68467
9.71527
9.74469
9.77169
9.79424
9.81406
9.83701
9.86079
9.88341
9.90408
9.92905
9.95941
9.98917
10.0142
10.0342
10.0466
10.0697
10.102
10.1326
10.1576
10.1724
10.1871
10.2141
10.2458
10.272
10.288
10.2989
10.3222
10.3523
10.3779
10.3938
10.4006
10.4179
10.4425
10.4652
10.4786
10.4824
10.4912
10.5039
10.5151
10.5185
10.5156
10.5133
10.5099
10.4988
10.4839
10.4624
10.4342
10.4005
10.3484
0.2
0.2
0.2
0.2
0.2
0.2
0.2
0.2
0.2
0.2
0.2
0.2
0.2
0.2
0.2
0.2
0.2
0.2
0.2
0.2
0.2
0.2
0.2
0.2
0.2
0.2
0.2
0.2
0.2
0.2
0.2
0.2
0.2
0.2
0.2
0.2
0.2
0.2
0.200001
0.200007
0.200059
0.200525
0.208761
0.392351
3.46946
7.21811
8.68624
9.01515
9.09717
9.14337
9.18373
9.21752
9.24534
9.26607
9.28392
9.30968
9.34488
9.37921
9.40765
9.43052
9.44492
9.46038
9.48839
9.52443
9.55716
9.5825
9.59861
9.60695
9.62541
9.65871
9.69574
9.72594
9.7486
9.76176
9.77528
9.79984
9.83338
9.86722
9.8961
9.91823
9.93605
9.95611
9.97913
10.0031
10.0274
10.0541
10.0825
10.1096
10.1323
10.1483
10.1675
10.1958
10.224
10.2472
10.2619
10.2781
10.3041
10.3312
10.3525
10.3641
10.3755
10.3973
10.4212
10.4386
10.446
10.4513
10.4633
10.4772
10.4855
10.4834
10.4801
10.4775
10.4726
10.4576
10.4396
10.4149
10.3846
10.3457
10.2878
0.2
0.2
0.2
0.2
0.2
0.2
0.2
0.2
0.2
0.2
0.2
0.2
0.2
0.2
0.2
0.2
0.2
0.2
0.2
0.2
0.2
0.2
0.2
0.2
0.2
0.2
0.2
0.2
0.2
0.2
0.2
0.2
0.2
0.2
0.2
0.2
0.2
0.2
0.2
0.200002
0.200026
0.200412
0.206746
0.337222
2.88806
6.88552
8.59573
8.98196
9.07789
9.12982
9.17144
9.20453
9.23139
9.2504
9.26865
9.29703
9.33259
9.36522
9.39206
9.41356
9.42729
9.44467
9.47524
9.50968
9.53783
9.5598
9.57319
9.5853
9.61003
9.64474
9.67717
9.70206
9.71762
9.72498
9.74311
9.77774
9.81547
9.84586
9.86734
9.87944
9.89346
9.9185
9.95166
9.98558
10.0153
10.0384
10.057
10.0769
10.0995
10.1228
10.1486
10.1756
10.1997
10.2196
10.2362
10.2571
10.2829
10.3061
10.3235
10.3345
10.3517
10.3746
10.3946
10.4065
10.4116
10.4217
10.4356
10.4476
10.4501
10.4451
10.4429
10.4388
10.4325
10.4136
10.3926
10.3646
10.3316
10.2874
10.224
0.2
0.2
0.2
0.2
0.2
0.2
0.2
0.2
0.2
0.2
0.2
0.2
0.2
0.2
0.2
0.2
0.2
0.2
0.2
0.2
0.2
0.2
0.2
0.2
0.2
0.2
0.2
0.2
0.2
0.2
0.2
0.2
0.2
0.2
0.2
0.2
0.2
0.2
0.2
0.200001
0.20001
0.200176
0.202692
0.253965
2.25427
6.47862
8.48572
8.94456
9.05991
9.11753
9.1575
9.18816
9.21159
9.23089
9.25374
9.286
9.31934
9.34816
9.3723
9.39096
9.40643
9.42903
9.46166
9.49335
9.51828
9.53722
9.54899
9.56589
9.59548
9.62884
9.65567
9.67594
9.68616
9.69827
9.72461
9.76019
9.79234
9.8156
9.82822
9.83539
9.85895
9.89651
9.93452
9.96503
9.98577
9.99823
10.0148
10.0389
10.0687
10.1002
10.1283
10.1511
10.1696
10.1895
10.2106
10.2348
10.2579
10.2772
10.2917
10.307
10.3274
10.3479
10.363
10.3714
10.3796
10.3925
10.4054
10.4112
10.4097
10.4067
10.4058
10.3979
10.3873
10.3666
10.3433
10.3114
10.2752
10.226
10.1567
0.2
0.2
0.2
0.2
0.2
0.2
0.2
0.2
0.2
0.2
0.2
0.2
0.2
0.2
0.2
0.2
0.2
0.2
0.2
0.2
0.2
0.2
0.2
0.2
0.2
0.2
0.2
0.2
0.2
0.2
0.2
0.2
0.2
0.2
0.2
0.2
0.2
0.2
0.2
0.2
0.200004
0.200043
0.199877
0.194195
1.59029
5.98273
8.35859
8.92248
9.06597
9.1215
9.15007
9.17068
9.18779
9.20967
9.2412
9.27541
9.30534
9.33013
9.34949
9.36287
9.38276
9.41433
9.44852
9.47664
9.49895
9.51298
9.52466
9.54555
9.57676
9.60793
9.63236
9.64942
9.65779
9.67523
9.70538
9.73789
9.76407
9.78268
9.7906
9.80575
9.83744
9.87543
9.90661
9.92779
9.93748
9.94957
9.97797
10.0149
10.0518
10.0811
10.1006
10.114
10.1321
10.1563
10.1838
10.2097
10.2283
10.2438
10.2604
10.2803
10.3005
10.3167
10.3277
10.336
10.3483
10.3613
10.3696
10.3698
10.3691
10.3678
10.3667
10.3535
10.3381
10.3169
10.2918
10.255
10.215
10.1616
10.0867
0.2
0.2
0.2
0.2
0.2
0.2
0.2
0.2
0.2
0.2
0.2
0.2
0.2
0.2
0.2
0.2
0.2
0.2
0.2
0.2
0.2
0.2
0.2
0.2
0.2
0.2
0.2
0.2
0.2
0.2
0.2
0.2
0.2
0.2
0.2
0.2
0.2
0.2
0.199999
0.199998
0.200036
0.20051
0.200892
0.157541
0.888817
5.37967
8.21153
8.90646
9.06938
9.11671
9.13659
9.1528
9.17177
9.19738
9.22902
9.25931
9.2861
9.30899
9.32627
9.34086
9.36476
9.39682
9.42705
9.45192
9.47214
9.48374
9.4997
9.52398
9.55456
9.58239
9.60554
9.62004
9.63082
9.65217
9.68278
9.71155
9.73405
9.74789
9.7587
9.78105
9.81451
9.84667
9.87075
9.88382
9.89259
9.91687
9.95488
9.99306
10.023
10.0415
10.0509
10.067
10.0934
10.1256
10.157
10.1811
10.1933
10.208
10.2294
10.2514
10.2692
10.281
10.2901
10.302
10.3153
10.3258
10.329
10.3275
10.3282
10.3276
10.3221
10.305
10.2868
10.2648
10.2368
10.1954
10.1516
10.0947
10.0138
0.2
0.2
0.2
0.2
0.2
0.2
0.2
0.2
0.2
0.2
0.2
0.2
0.2
0.2
0.2
0.2
0.2
0.2
0.2
0.2
0.2
0.2
0.2
0.2
0.2
0.2
0.2
0.2
0.2
0.2
0.2
0.2
0.2
0.2
0.2
0.2
0.2
0.2
0.2
0.20001
0.200115
0.200518
0.19905
0.161145
0.247922
4.66644
7.96144
8.85405
9.04622
9.09555
9.12272
9.14919
9.17445
9.19792
9.22006
9.24156
9.26357
9.28782
9.31269
9.33681
9.36016
9.38133
9.40098
9.41973
9.43842
9.45696
9.47976
9.50531
9.52951
9.55053
9.56851
9.58059
9.59931
9.6241
9.65375
9.68001
9.70063
9.71239
9.72827
9.75518
9.78695
9.81296
9.83218
9.84209
9.85894
9.89176
9.9292
9.95884
9.97773
9.98569
10.0016
10.0322
10.0691
10.1039
10.1293
10.1432
10.1505
10.1713
10.1969
10.2196
10.2333
10.2409
10.2529
10.267
10.2794
10.2853
10.2856
10.2854
10.2862
10.2824
10.2724
10.2544
10.2336
10.2103
10.1776
10.1331
10.0854
10.0251
9.93794
0.2
0.2
0.2
0.2
0.2
0.2
0.2
0.2
0.2
0.2
0.2
0.2
0.2
0.2
0.2
0.2
0.2
0.2
0.2
0.2
0.2
0.2
0.2
0.2
0.2
0.2
0.2
0.2
0.2
0.2
0.2
0.2
0.2
0.2
0.2
0.2
0.2
0.2
0.2
0.2
0.199997
0.200013
0.200001
0.196992
0.293645
3.77207
7.44864
8.66083
8.93641
9.01626
9.05954
9.09428
9.12316
9.14791
9.17041
9.19329
9.2179
9.24246
9.26606
9.28794
9.30761
9.3262
9.34695
9.36994
9.39376
9.41744
9.43978
9.46079
9.48123
9.50219
9.52369
9.54611
9.57005
9.59484
9.61864
9.64084
9.66022
9.67526
9.69666
9.72528
9.75308
9.77562
9.79081
9.80454
9.82981
9.86377
9.89412
9.91584
9.92635
9.93964
9.96897
10.0068
10.0421
10.0678
10.0807
10.0869
10.1054
10.1332
10.1618
10.1842
10.1914
10.1993
10.2149
10.2299
10.2391
10.2408
10.2409
10.2418
10.2418
10.2323
10.2186
10.2024
10.1791
10.1523
10.1152
10.0685
10.0167
9.95284
9.85843
0.2
0.2
0.2
0.2
0.2
0.2
0.2
0.2
0.2
0.2
0.2
0.2
0.2
0.2
0.2
0.2
0.2
0.2
0.2
0.2
0.2
0.2
0.2
0.2
0.2
0.2
0.2
0.2
0.2
0.2
0.2
0.2
0.2
0.2
0.2
0.2
0.2
0.2
0.2
0.2
0.200001
0.200011
0.200191
0.20301
0.266578
2.80564
6.84488
8.49985
8.88319
8.98928
9.04212
9.07765
9.10417
9.12558
9.14558
9.16834
9.19435
9.21951
9.24197
9.2615
9.27657
9.29209
9.3137
9.33898
9.36333
9.38485
9.40323
9.4182
9.43586
9.45952
9.48572
9.51051
9.53317
9.55332
9.57262
9.59263
9.61395
9.63694
9.66269
9.68976
9.71458
9.73345
9.74888
9.7692
9.79891
9.82911
9.85288
9.86868
9.8802
9.90457
9.94081
9.97578
10.0006
10.0134
10.0204
10.0409
10.071
10.1037
10.1314
10.1426
10.1425
10.1572
10.1758
10.19
10.1943
10.1924
10.1949
10.1973
10.1928
10.1796
10.1632
10.148
10.1215
10.0911
10.0498
10.0012
9.94537
9.87769
9.7757
0.2
0.2
0.2
0.2
0.2
0.2
0.2
0.2
0.2
0.2
0.2
0.2
0.2
0.2
0.2
0.2
0.2
0.2
0.2
0.2
0.2
0.2
0.2
0.2
0.2
0.2
0.2
0.2
0.2
0.2
0.2
0.2
0.2
0.2
0.2
0.2
0.2
0.2
0.2
0.2
0.199998
0.199981
0.19987
0.198369
0.188717
1.73512
6.14462
8.33947
8.85537
8.98222
9.032
9.06148
9.08378
9.10293
9.12239
9.14548
9.17092
9.19463
9.21529
9.23264
9.24651
9.26271
9.28512
9.30949
9.33131
9.35008
9.36509
9.37935
9.39926
9.42478
9.45013
9.47266
9.49154
9.50668
9.52519
9.54981
9.57667
9.60312
9.62729
9.64927
9.66906
9.68773
9.7084
9.7347
9.76403
9.78849
9.80743
9.82109
9.84061
9.8726
9.9064
9.93201
9.9466
9.95468
9.97526
10.0074
10.0419
10.0703
10.0843
10.0846
10.0943
10.1149
10.1348
10.1462
10.1435
10.144
10.1473
10.149
10.1398
10.1248
10.1071
10.0903
10.0601
10.0262
9.98165
9.9313
9.87128
9.79926
9.6897
0.2
0.2
0.2
0.2
0.2
0.2
0.2
0.2
0.2
0.2
0.2
0.2
0.2
0.2
0.2
0.2
0.2
0.2
0.2
0.2
0.2
0.2
0.2
0.2
0.2
0.2
0.2
0.2
0.2
0.2
0.2
0.2
0.2
0.2
0.2
0.2
0.2
0.2
0.2
0.2
0.199994
0.199883
0.198705
0.193129
0.143387
0.618602
5.27388
8.14776
8.837
8.98965
9.03114
9.04967
9.06329
9.07833
9.097
9.11751
9.13847
9.1577
9.17568
9.19027
9.20663
9.22641
9.24996
9.27269
9.2929
9.31033
9.3244
9.3409
9.36328
9.38794
9.41037
9.43025
9.44615
9.46254
9.48376
9.51002
9.53649
9.56044
9.58103
9.59877
9.61762
9.64041
9.66669
9.69528
9.72204
9.74188
9.75744
9.77623
9.80427
9.8362
9.86239
9.88017
9.89058
9.90876
9.94067
9.97521
10.0029
10.0165
10.0193
10.0285
10.0494
10.0736
10.0946
10.095
10.0896
10.0946
10.0991
10.0962
10.0832
10.0672
10.0492
10.0297
9.99516
9.95828
9.91118
9.85806
9.7937
9.71743
9.60183
0.2
0.2
0.2
0.2
0.2
0.2
0.2
0.2
0.2
0.2
0.2
0.2
0.2
0.2
0.2
0.2
0.2
0.2
0.2
0.2
0.2
0.2
0.2
0.2
0.2
0.2
0.2
0.2
0.2
0.2
0.2
0.2
0.2
0.2
0.2
0.2
0.2
0.2
0.2
0.2
0.199999
0.19997
0.19973
0.198052
0.171639
0.171436
4.09501
7.61589
8.65262
8.87918
8.94213
8.97225
8.99608
9.01907
9.04129
9.06279
9.08367
9.10421
9.12455
9.14465
9.16544
9.18708
9.20804
9.22791
9.24689
9.26425
9.28087
9.30135
9.32554
9.34805
9.36818
9.38575
9.40182
9.42159
9.44595
9.47118
9.49426
9.5142
9.531
9.54913
9.57178
9.59828
9.62624
9.65279
9.67567
9.69069
9.70842
9.73434
9.76574
9.7928
9.81274
9.82498
9.84133
9.87084
9.90468
9.93177
9.94578
9.95081
9.96214
9.98497
10.0122
10.0367
10.0416
10.0336
10.0369
10.0447
10.0474
10.0389
10.0234
10.008
9.98821
9.96544
9.92756
9.88795
9.83799
9.78154
9.71304
9.63315
9.51169
0.2
0.2
0.2
0.2
0.2
0.2
0.2
0.2
0.2
0.2
0.2
0.2
0.2
0.2
0.2
0.2
0.2
0.2
0.2
0.2
0.2
0.2
0.2
0.2
0.2
0.2
0.2
0.2
0.2
0.2
0.2
0.2
0.2
0.2
0.2
0.2
0.2
0.2
0.2
0.2
0.2
0.2
0.200004
0.20009
0.202207
0.253884
2.81265
6.84604
8.42895
8.80303
8.90593
8.94634
8.97251
8.99389
9.01324
9.03175
9.04982
9.06786
9.08621
9.1053
9.12522
9.14527
9.16474
9.18348
9.20182
9.21956
9.23842
9.26039
9.28284
9.30341
9.32199
9.3373
9.35463
9.37709
9.40156
9.42435
9.44472
9.46223
9.4803
9.50286
9.52915
9.55611
9.58128
9.60298
9.62098
9.63812
9.66132
9.69172
9.72112
9.74351
9.75744
9.77217
9.79805
9.83065
9.85799
9.87399
9.88117
9.89388
9.91893
9.94768
9.97211
9.98081
9.97301
9.97356
9.9844
9.99625
9.99174
9.97545
9.96141
9.94816
9.92398
9.89684
9.8576
9.81552
9.76126
9.70133
9.62955
9.5466
9.41921
0.2
0.2
0.2
0.2
0.2
0.2
0.2
0.2
0.2
0.2
0.2
0.2
0.2
0.2
0.2
0.2
0.2
0.2
0.2
0.2
0.2
0.2
0.2
0.2
0.2
0.2
0.2
0.2
0.2
0.2
0.2
0.2
0.2
0.2
0.2
0.2
0.2
0.2
0.2
0.2
0.200001
0.200007
0.200022
0.199878
0.198142
0.179347
1.4461
5.916
8.20963
8.75018
8.87279
8.91292
8.9372
8.95769
8.97702
8.99578
9.01438
9.03302
9.05229
9.07178
9.09121
9.11024
9.1288
9.14706
9.1652
9.18393
9.20387
9.22398
9.24355
9.26276
9.27993
9.29594
9.31507
9.33719
9.35847
9.37812
9.39561
9.41265
9.43253
9.45658
9.48256
9.50667
9.52772
9.5458
9.56516
9.58867
9.6164
9.64576
9.67205
9.68847
9.70201
9.72439
9.75497
9.78323
9.80224
9.81168
9.82358
9.84843
9.87804
9.9021
9.91138
9.90833
9.9082
9.91995
9.93612
9.94395
9.92741
9.90963
9.89841
9.8861
9.85658
9.82431
9.785
9.74073
9.68114
9.6181
9.54393
9.45814
9.32343
0.2
0.2
0.2
0.2
0.2
0.2
0.2
0.2
0.2
0.2
0.2
0.2
0.2
0.2
0.2
0.2
0.2
0.2
0.2
0.2
0.2
0.2
0.2
0.2
0.2
0.2
0.2
0.2
0.2
0.2
0.2
0.2
0.2
0.2
0.2
0.2
0.2
0.2
0.2
0.2
0.2
0.199999
0.199974
0.199747
0.198557
0.165982
0.17068
4.68579
7.8977
8.69811
8.86401
8.90344
8.92064
8.93536
8.95066
8.96719
8.98483
9.00314
9.02176
9.04005
9.058
9.07564
9.09328
9.11106
9.12928
9.14783
9.16626
9.18427
9.20145
9.21783
9.23344
9.25136
9.2709
9.29079
9.31018
9.32666
9.34326
9.36295
9.38463
9.40806
9.43128
9.4525
9.47141
9.49033
9.51324
9.54006
9.56821
9.59402
9.61491
9.62805
9.64825
9.67708
9.70655
9.72884
9.7411
9.75229
9.7748
9.80422
9.82817
9.83848
9.83877
9.84194
9.85571
9.87464
9.88547
9.87393
9.85679
9.84597
9.83444
9.81958
9.78512
9.75005
9.70937
9.66266
9.59829
9.53217
9.45534
9.36617
9.2253
0.2
0.2
0.2
0.2
0.2
0.2
0.2
0.2
0.2
0.2
0.2
0.2
0.2
0.2
0.2
0.2
0.2
0.2
0.2
0.2
0.2
0.2
0.2
0.2
0.2
0.2
0.2
0.2
0.2
0.2
0.2
0.2
0.2
0.2
0.2
0.2
0.2
0.2
0.2
0.2
0.2
0.2
0.199999
0.2
0.200095
0.201823
0.258003
3.24916
7.10625
8.41286
8.72033
8.81236
8.85224
8.87707
8.89754
8.91616
8.93398
8.95137
8.96839
8.98497
9.00117
9.01707
9.03307
9.04942
9.06616
9.08306
9.09978
9.11646
9.13321
9.15024
9.16833
9.18784
9.20834
9.22923
9.24976
9.26706
9.28655
9.30917
9.33295
9.35578
9.37705
9.39616
9.41657
9.43835
9.46314
9.48965
9.5147
9.53569
9.55225
9.57039
9.59609
9.62644
9.6525
9.66898
9.6788
9.69789
9.7261
9.75166
9.76455
9.76775
9.7726
9.788
9.80891
9.82378
9.81468
9.79553
9.78849
9.78434
9.76863
9.74541
9.71041
9.67603
9.63121
9.58089
9.51331
9.44456
9.36449
9.27138
9.12348
0.2
0.2
0.2
0.2
0.2
0.2
0.2
0.2
0.2
0.2
0.2
0.2
0.2
0.2
0.2
0.2
0.2
0.2
0.2
0.2
0.2
0.2
0.2
0.2
0.2
0.2
0.2
0.2
0.2
0.2
0.2
0.2
0.2
0.2
0.2
0.2
0.2
0.2
0.2
0.2
0.2
0.2
0.199999
0.199994
0.199938
0.198519
0.183223
1.5826
5.99657
8.12505
8.63764
8.76116
8.80179
8.82628
8.84733
8.86686
8.88549
8.90351
8.92099
8.93807
8.95493
8.97181
8.98861
9.00544
9.02224
9.0388
9.05494
9.07097
9.08706
9.10357
9.12085
9.139
9.1577
9.17632
9.19441
9.21168
9.23197
9.25423
9.27677
9.29846
9.31778
9.33736
9.36005
9.38459
9.40985
9.43388
9.45522
9.47431
9.49476
9.51768
9.54451
9.57197
9.59338
9.60411
9.62009
9.64591
9.6722
9.68931
9.6958
9.70122
9.71701
9.73704
9.75351
9.75064
9.73383
9.7265
9.72383
9.72264
9.69743
9.66443
9.63383
9.60053
9.54982
9.49581
9.42652
9.35483
9.27068
9.17415
9.02166
0.2
0.2
0.2
0.2
0.2
0.2
0.2
0.2
0.2
0.2
0.2
0.2
0.2
0.2
0.2
0.2
0.2
0.2
0.2
0.2
0.2
0.2
0.2
0.2
0.2
0.2
0.2
0.2
0.2
0.2
0.2
0.2
0.2
0.2
0.2
0.2
0.2
0.2
0.2
0.2
0.2
0.2
0.2
0.199995
0.19991
0.198184
0.16737
0.154049
4.53905
7.76173
8.57554
8.7486
8.79045
8.80956
8.82536
8.84033
8.85539
8.87046
8.88587
8.90149
8.91741
8.93328
8.94865
8.96374
8.97857
8.99345
9.0085
9.02383
9.03956
9.05574
9.07223
9.08902
9.10598
9.12333
9.14103
9.15967
9.1798
9.20096
9.22205
9.24068
9.25936
9.2815
9.30484
9.32888
9.35213
9.37347
9.39328
9.41456
9.4376
9.4628
9.48899
9.5125
9.52786
9.54089
9.56367
9.59054
9.61137
9.62177
9.62771
9.64222
9.66297
9.67891
9.67875
9.66912
9.66206
9.66632
9.66153
9.65058
9.61702
9.58474
9.55684
9.52102
9.46496
9.40836
9.33801
9.26327
9.17531
9.07532
8.91497
0.2
0.2
0.2
0.2
0.2
0.2
0.2
0.2
0.2
0.2
0.2
0.2
0.2
0.2
0.2
0.2
0.2
0.2
0.2
0.2
0.2
0.2
0.2
0.2
0.2
0.2
0.2
0.2
0.2
0.2
0.2
0.2
0.2
0.2
0.2
0.2
0.2
0.2
0.2
0.2
0.2
0.2
0.2
0.199999
0.199999
0.200034
0.200738
0.230497
2.89529
6.88774
8.28599
8.60458
8.69019
8.72569
8.74798
8.76636
8.78324
8.79927
8.81532
8.8314
8.84708
8.8626
8.87794
8.89315
8.90837
8.92442
8.94106
8.95793
8.97521
8.99265
9.0103
9.02826
9.04663
9.06534
9.08457
9.10399
9.12374
9.14364
9.16368
9.1815
9.20157
9.22453
9.2473
9.2694
9.29006
9.31096
9.33307
9.35585
9.3799
9.40473
9.42743
9.44617
9.46086
9.48084
9.50648
9.53031
9.54559
9.55215
9.56399
9.58411
9.6023
9.60657
9.5994
9.59595
9.59905
9.60661
9.59043
9.5633
9.53574
9.5093
9.47612
9.43547
9.37699
9.31802
9.24635
9.1687
9.07746
8.97475
8.81041
0.2
0.2
0.2
0.2
0.2
0.2
0.2
0.2
0.2
0.2
0.2
0.2
0.2
0.2
0.2
0.2
0.2
0.2
0.2
0.2
0.2
0.2
0.2
0.2
0.2
0.2
0.2
0.2
0.2
0.2
0.2
0.2
0.2
0.2
0.2
0.2
0.2
0.2
0.2
0.2
0.2
0.2
0.2
0.199996
0.199967
0.19989
0.198205
0.172856
1.04434
5.47531
7.89421
8.48725
8.63253
8.67752
8.70028
8.7182
8.73459
8.7501
8.76519
8.78021
8.79486
8.80915
8.82341
8.83783
8.8528
8.86847
8.88488
8.90144
8.91792
8.93462
8.95171
8.96937
8.98754
9.00596
9.02466
9.04356
9.06273
9.08224
9.10187
9.12166
9.1424
9.16553
9.18826
9.20779
9.22729
9.24966
9.27248
9.29575
9.31939
9.34151
9.36038
9.37872
9.3989
9.42167
9.44564
9.46536
9.47497
9.48496
9.50249
9.52136
9.53082
9.52929
9.52645
9.53133
9.5349
9.53381
9.50634
9.47653
9.45608
9.43591
9.39253
9.34469
9.28807
9.22722
9.15213
9.07067
8.9766
8.87106
8.69923
0.2
0.2
0.2
0.2
0.2
0.2
0.2
0.2
0.2
0.2
0.2
0.2
0.2
0.2
0.2
0.2
0.2
0.2
0.2
0.2
0.2
0.2
0.2
0.2
0.2
0.2
0.2
0.2
0.2
0.2
0.2
0.2
0.2
0.2
0.2
0.2
0.2
0.2
0.2
0.2
0.2
0.2
0.2
0.2
0.199999
0.199998
0.200011
0.199866
0.221377
3.49426
7.22904
8.31855
8.56618
8.63148
8.65738
8.67674
8.69244
8.70678
8.72101
8.73508
8.74855
8.76139
8.77538
8.78958
8.80368
8.81698
8.83098
8.84595
8.86085
8.8756
8.89136
8.90806
8.92551
8.94339
8.96172
8.98031
8.99921
9.01869
9.03882
9.05974
9.08102
9.10289
9.12461
9.14365
9.16429
9.1877
9.21064
9.23328
9.25474
9.27456
9.29455
9.31518
9.33681
9.35926
9.38078
9.39508
9.40348
9.41999
9.43879
9.45202
9.45491
9.45331
9.45947
9.46701
9.46022
9.44612
9.42083
9.39953
9.37896