/*--------------------------------*- C++ -*----------------------------------*\
| =========                 |                                                 |
| \\      /  F ield         | OpenFOAM: The Open Source CFD Toolbox           |
|  \\    /   O peration     | Version:  2.2.x                                 |
|   \\  /    A nd           | Web:      www.OpenFOAM.org                      |
|    \\/     M anipulation  |                                                 |
\*---------------------------------------------------------------------------*/
FoamFile
{
    version     2.0;
    format      ascii;
    class       volScalarField;
    location    "2.2";
    object      Bz;
}
// * * * * * * * * * * * * * * * * * * * * * * * * * * * * * * * * * * * * * //

dimensions      [1 0 -2 0 0 -1 0];

internalField   nonuniform List<scalar> 
14161
(
6.2512e-14
6.32501e-14
6.27493e-14
5.99536e-14
5.96075e-14
5.6148e-14
5.47017e-14
5.28195e-14
5.06594e-14
4.92865e-14
4.86495e-14
4.78722e-14
4.75133e-14
4.56733e-14
4.51414e-14
4.37038e-14
4.27921e-14
4.09589e-14
4.0291e-14
3.90273e-14
3.85624e-14
3.7716e-14
3.67978e-14
3.64072e-14
3.51557e-14
3.46098e-14
3.41736e-14
3.34035e-14
3.43342e-14
3.77952e-14
8.24271e-14
2.3964e-13
2.34528e-13
2.28127e-13
2.23216e-13
2.18589e-13
2.0779e-13
2.01031e-13
1.94498e-13
1.87862e-13
1.8095e-13
1.78507e-13
1.74984e-13
1.69933e-13
1.67169e-13
1.62245e-13
1.60115e-13
1.56308e-13
1.51219e-13
1.46664e-13
1.42054e-13
1.37372e-13
1.30409e-13
1.22288e-13
1.15781e-13
1.10154e-13
1.04913e-13
9.99214e-14
9.64907e-14
9.60087e-14
9.40347e-14
9.045e-14
8.41046e-14
8.0191e-14
7.42647e-14
7.07472e-14
6.77475e-14
6.41179e-14
6.21339e-14
5.92915e-14
5.87519e-14
5.90665e-14
5.97156e-14
5.90009e-14
5.81021e-14
5.92004e-14
5.88045e-14
5.8176e-14
5.42833e-14
5.05601e-14
4.81213e-14
4.54544e-14
4.35411e-14
4.05613e-14
3.86377e-14
3.59508e-14
3.50928e-14
3.45044e-14
3.41535e-14
3.39572e-14
3.54226e-14
3.75846e-14
3.96555e-14
4.15214e-14
4.35425e-14
4.45185e-14
4.645e-14
4.73074e-14
4.75189e-14
4.80857e-14
4.92876e-14
4.99935e-14
4.93555e-14
4.65311e-14
4.32112e-14
4.08927e-14
3.91818e-14
3.87605e-14
3.9046e-14
4.03523e-14
4.08565e-14
4.22993e-14
4.12882e-14
3.52471e-14
3.05244e-14
3.12511e-14
3.21828e-14
2.96497e-14
2.71377e-14
4.05959e-14
4.91298e-14
5.35593e-14
5.1382e-14
4.77855e-14
4.46414e-14
4.3407e-14
4.33655e-14
4.50222e-14
4.90754e-14
5.05092e-14
5.10772e-14
5.08899e-14
4.92948e-14
4.57769e-14
4.33248e-14
4.19574e-14
4.06733e-14
4.10555e-14
4.16038e-14
4.03825e-14
3.98584e-14
3.85986e-14
3.6845e-14
3.47129e-14
3.36133e-14
3.35616e-14
3.18118e-14
2.98136e-14
4.78558e-14
1.17211e-13
1.87575e-13
1.61702e-13
1.42085e-13
1.44014e-13
1.3629e-13
1.1878e-13
1.09701e-13
1.0442e-13
9.83263e-14
9.3382e-14
8.84192e-14
8.50952e-14
8.22037e-14
7.98153e-14
7.59175e-14
7.229e-14
6.68341e-14
6.27882e-14
6.10747e-14
5.93489e-14
5.72192e-14
5.49076e-14
5.27024e-14
5.0625e-14
4.86728e-14
4.67376e-14
4.47476e-14
4.27124e-14
4.14783e-14
3.96701e-14
3.90097e-14
3.861e-14
3.71073e-14
3.69456e-14
3.72185e-14
3.70081e-14
3.79398e-14
3.84367e-14
3.88667e-14
3.93664e-14
3.99924e-14
4.08041e-14
4.1376e-14
4.12321e-14
4.10167e-14
3.98907e-14
3.92753e-14
3.82327e-14
3.86436e-14
3.79586e-14
3.71302e-14
3.69106e-14
3.638e-14
3.62269e-14
3.54401e-14
3.52045e-14
3.62967e-14
3.55184e-14
3.66717e-14
3.65184e-14
3.68786e-14
3.76717e-14
3.76249e-14
3.88781e-14
3.95315e-14
3.82207e-14
3.71871e-14
3.6941e-14
3.65189e-14
3.56231e-14
3.40262e-14
3.22972e-14
3.22579e-14
3.29062e-14
3.41436e-14
3.25649e-14
2.9348e-14
2.83221e-14
2.99601e-14
3.21651e-14
3.32187e-14
3.12715e-14
3.2286e-14
3.24956e-14
3.28339e-14
3.21095e-14
3.01228e-14
2.63293e-14
1.11266e-13
9.96387e-14
7.75604e-14
7.47889e-14
7.41791e-14
7.70672e-14
7.40381e-14
7.00123e-14
6.27796e-14
5.44948e-14
4.57874e-14
4.29064e-14
4.25751e-14
4.40459e-14
4.6472e-14
5.12998e-14
5.22943e-14
5.0149e-14
4.80026e-14
4.35854e-14
3.9617e-14
3.8375e-14
3.80355e-14
3.86391e-14
3.96905e-14
4.16608e-14
4.1864e-14
4.20423e-14
3.43617e-14
5.87059e-14
1.53577e-13
1.76038e-13
1.57494e-13
1.45027e-13
1.25077e-13
9.69054e-14
8.31241e-14
6.50356e-14
6.04714e-14
6.16741e-14
5.97602e-14
5.55752e-14
5.13419e-14
4.43086e-14
4.22664e-14
4.11348e-14
4.16919e-14
4.33904e-14
4.44395e-14
4.51591e-14
4.52641e-14
4.42474e-14
4.30715e-14
4.1179e-14
3.97532e-14
3.81167e-14
3.67856e-14
3.57315e-14
3.513e-14
3.44759e-14
3.4194e-14
3.46989e-14
3.51392e-14
3.54152e-14
3.51347e-14
3.6112e-14
3.63621e-14
3.52858e-14
3.44777e-14
3.38563e-14
3.37794e-14
3.36785e-14
3.33708e-14
3.35051e-14
3.35749e-14
3.41312e-14
3.50029e-14
3.54744e-14
3.54028e-14
3.54214e-14
3.54126e-14
3.68623e-14
3.36294e-14
3.45216e-14
3.19128e-14
3.33797e-14
3.41445e-14
3.38678e-14
3.94196e-14
3.44439e-14
3.71662e-14
3.92295e-14
3.65211e-14
4.0639e-14
3.85758e-14
3.24051e-14
3.39696e-14
3.46914e-14
3.30458e-14
3.10241e-14
2.92273e-14
2.908e-14
2.87031e-14
2.82416e-14
2.71522e-14
2.58632e-14
2.44879e-14
2.35061e-14
2.26457e-14
2.3388e-14
2.27185e-14
2.50574e-14
2.68368e-14
2.74496e-14
2.77698e-14
2.83532e-14
2.75569e-14
2.64129e-14
2.45878e-14
1.70568e-14
3.21786e-14
4.1601e-14
3.94701e-14
3.539e-14
3.10098e-14
2.83226e-14
2.95413e-14
3.40627e-14
4.00205e-14
4.38134e-14
4.44917e-14
4.37814e-14
4.16872e-14
3.67282e-14
3.25818e-14
3.04501e-14
2.92532e-14
3.08032e-14
3.46994e-14
3.41097e-14
3.34753e-14
3.22281e-14
3.05144e-14
2.73112e-14
2.53e-14
2.434e-14
2.38255e-14
2.48418e-14
3.19067e-14
1.15255e-13
1.24627e-13
1.09539e-13
9.32939e-14
8.30636e-14
7.14389e-14
5.66933e-14
4.41579e-14
3.8256e-14
3.80456e-14
3.85544e-14
3.83985e-14
3.77933e-14
3.67225e-14
3.5972e-14
3.54681e-14
3.3527e-14
3.21161e-14
3.06237e-14
2.89777e-14
2.76978e-14
2.60924e-14
2.51408e-14
2.38045e-14
2.29713e-14
2.20125e-14
2.16627e-14
2.14993e-14
2.17739e-14
2.2008e-14
2.25468e-14
2.3178e-14
2.36422e-14
2.38687e-14
2.37125e-14
2.40675e-14
2.37855e-14
2.29743e-14
2.2608e-14
2.25154e-14
2.29036e-14
2.35643e-14
2.42566e-14
2.50515e-14
2.60976e-14
2.70961e-14
2.80077e-14
2.8459e-14
2.85922e-14
2.80402e-14
2.78374e-14
2.73875e-14
2.60237e-14
2.65153e-14
2.52391e-14
2.75347e-14
2.6883e-14
2.81921e-14
2.81776e-14
2.76659e-14
3.11675e-14
3.15014e-14
3.30804e-14
3.33716e-14
3.04844e-14
3.18415e-14
3.25287e-14
3.19262e-14
3.10717e-14
3.01579e-14
3.19867e-14
3.12306e-14
3.01495e-14
2.88094e-14
2.74968e-14
2.68362e-14
2.66281e-14
2.63863e-14
2.60223e-14
2.50653e-14
2.37385e-14
2.38613e-14
2.28659e-14
2.48615e-14
2.64255e-14
2.75819e-14
2.58746e-14
2.45983e-14
2.25097e-14
6.7795e-14
5.87948e-14
4.29969e-14
4.08723e-14
4.07633e-14
4.65096e-14
4.69665e-14
4.48774e-14
3.99717e-14
3.33484e-14
2.59481e-14
2.28693e-14
2.22059e-14
2.31857e-14
2.59074e-14
3.03844e-14
3.12706e-14
3.00815e-14
2.88739e-14
2.47806e-14
2.14721e-14
2.05281e-14
2.0083e-14
1.96024e-14
2.20862e-14
2.21211e-14
2.18978e-14
2.16275e-14
1.96456e-14
2.60345e-14
1.0829e-13
1.15565e-13
1.0759e-13
9.45671e-14
7.08749e-14
6.56014e-14
5.85547e-14
5.18484e-14
4.53427e-14
4.0209e-14
3.59766e-14
3.46411e-14
3.42907e-14
3.31095e-14
3.12556e-14
2.99096e-14
2.68745e-14
2.53949e-14
2.44802e-14
2.36322e-14
2.33152e-14
2.25247e-14
2.19627e-14
2.08267e-14
1.96269e-14
1.77851e-14
1.61595e-14
1.49929e-14
1.37259e-14
1.30471e-14
1.28815e-14
1.31556e-14
1.42697e-14
1.54731e-14
1.61686e-14
1.67112e-14
1.70571e-14
1.66954e-14
1.62395e-14
1.58326e-14
1.496e-14
1.42617e-14
1.40015e-14
1.39952e-14
1.50637e-14
1.58524e-14
1.71681e-14
1.81167e-14
1.92879e-14
1.92435e-14
1.93302e-14
1.87534e-14
1.88284e-14
1.94002e-14
1.85132e-14
1.98802e-14
1.97934e-14
2.19741e-14
2.15372e-14
2.31962e-14
2.59842e-14
2.57377e-14
2.6609e-14
2.57435e-14
2.60732e-14
2.71688e-14
2.67745e-14
2.61692e-14
2.64803e-14
2.75392e-14
2.75923e-14
2.62496e-14
2.54094e-14
2.47248e-14
2.45826e-14
2.49246e-14
2.52031e-14
2.53108e-14
2.48745e-14
2.40879e-14
2.30096e-14
2.218e-14
2.168e-14
2.35391e-14
2.39033e-14
2.5644e-14
2.44406e-14
2.29995e-14
2.11416e-14
7.8293e-15
1.73302e-14
2.39579e-14
2.32046e-14
2.0256e-14
1.72498e-14
1.4532e-14
1.51167e-14
1.76052e-14
2.13332e-14
2.41502e-14
2.42684e-14
2.34442e-14
2.20602e-14
1.97904e-14
1.6992e-14
1.47792e-14
1.4e-14
1.53254e-14
1.77583e-14
1.79473e-14
1.76135e-14
1.67866e-14
1.54393e-14
1.41401e-14
1.31537e-14
1.2336e-14
1.21141e-14
7.82932e-15
1.9441e-14
6.75684e-14
8.04389e-14
9.39211e-14
8.36552e-14
6.08565e-14
5.32848e-14
4.65841e-14
4.53015e-14
3.79051e-14
3.45804e-14
3.09496e-14
2.80972e-14
2.50737e-14
2.34524e-14
2.30312e-14
2.3089e-14
2.32888e-14
2.30197e-14
2.31766e-14
2.22014e-14
2.15898e-14
2.02388e-14
1.91444e-14
1.76878e-14
1.65014e-14
1.56194e-14
1.50166e-14
1.47456e-14
1.43257e-14
1.33847e-14
1.26721e-14
1.15893e-14
1.06969e-14
9.24619e-15
8.18023e-15
7.21987e-15
6.83551e-15
6.44904e-15
6.508e-15
7.05851e-15
7.89521e-15
8.94248e-15
1.0408e-14
1.1662e-14
1.30346e-14
1.39673e-14
1.4627e-14
1.47441e-14
1.48737e-14
1.42147e-14
1.38093e-14
1.33861e-14
1.35898e-14
1.46268e-14
1.52978e-14
1.68452e-14
1.73006e-14
1.94456e-14
1.92888e-14
2.01753e-14
2.26819e-14
2.33636e-14
2.41031e-14
2.29128e-14
2.44715e-14
2.50841e-14
2.42772e-14
2.4367e-14
2.36334e-14
2.58932e-14
2.51845e-14
2.40549e-14
2.31593e-14
2.24307e-14
2.23804e-14
2.26903e-14
2.33966e-14
2.31408e-14
2.29797e-14
2.35111e-14
2.14161e-14
2.12735e-14
2.03244e-14
2.15286e-14
2.21872e-14
2.49004e-14
2.28041e-14
2.12832e-14
2.00375e-14
2.93642e-14
2.52062e-14
1.80583e-14
1.66893e-14
1.66749e-14
1.99473e-14
2.06445e-14
1.99588e-14
1.77632e-14
1.46506e-14
1.08865e-14
8.90761e-15
8.53101e-15
8.39706e-15
9.66718e-15
1.1785e-14
1.20038e-14
1.1447e-14
1.09254e-14
9.35952e-15
8.04549e-15
7.35356e-15
6.83531e-15
6.92326e-15
7.46067e-15
6.8544e-15
7.1156e-15
7.48246e-15
6.97808e-15
1.10965e-14
4.00348e-14
5.46316e-14
6.68756e-14
6.70407e-14
5.46045e-14
4.60108e-14
3.85621e-14
3.3839e-14
2.8552e-14
2.65305e-14
2.49963e-14
2.27953e-14
2.16643e-14
1.98188e-14
1.80828e-14
1.68308e-14
1.63185e-14
1.46237e-14
1.40739e-14
1.27082e-14
1.17167e-14
1.05273e-14
9.63996e-15
8.62502e-15
8.04828e-15
7.59727e-15
6.80756e-15
6.33071e-15
5.93812e-15
5.3971e-15
4.94312e-15
4.40413e-15
4.08396e-15
3.50704e-15
3.18393e-15
2.54536e-15
2.13445e-15
1.71052e-15
1.40345e-15
1.28619e-15
1.06145e-15
1.45027e-15
1.7097e-15
2.63536e-15
3.44121e-15
4.51685e-15
5.48442e-15
6.30407e-15
7.16351e-15
7.58752e-15
8.27153e-15
8.64468e-15
8.86648e-15
9.60154e-15
9.90545e-15
1.10716e-14
1.15099e-14
1.3389e-14
1.48813e-14
1.60567e-14
1.85082e-14
2.03902e-14
2.18829e-14
2.11705e-14
2.33307e-14
2.37933e-14
2.28427e-14
2.28509e-14
2.26306e-14
2.44456e-14
2.36375e-14
2.25679e-14
2.18826e-14
2.12497e-14
2.1271e-14
2.1289e-14
2.21734e-14
2.20921e-14
2.0842e-14
2.21531e-14
2.0199e-14
2.11826e-14
1.94464e-14
2.0853e-14
2.16644e-14
2.43249e-14
2.13753e-14
2.00617e-14
1.90405e-14
2.82609e-15
6.81513e-15
9.37751e-15
9.17011e-15
8.09918e-15
6.91538e-15
5.48125e-15
5.41179e-15
6.02915e-15
7.46646e-15
8.46152e-15
8.48707e-15
8.12313e-15
7.42312e-15
6.84306e-15
5.88472e-15
4.67632e-15
4.42245e-15
4.75621e-15
5.33461e-15
5.88431e-15
5.60735e-15
5.23271e-15
5.02199e-15
4.2519e-15
4.11341e-15
3.5479e-15
3.42602e-15
3.04429e-15
4.9932e-15
1.78932e-14
4.02838e-14
4.75997e-14
4.90869e-14
4.56476e-14
4.00026e-14
3.45931e-14
3.1626e-14
2.58913e-14
2.3207e-14
2.01427e-14
1.88617e-14
1.73877e-14
1.66158e-14
1.59792e-14
1.48239e-14
1.45525e-14
1.28798e-14
1.21561e-14
1.09825e-14
1.00756e-14
9.21937e-15
8.44284e-15
7.8357e-15
7.14682e-15
6.65423e-15
5.96657e-15
5.43523e-15
4.75279e-15
4.1825e-15
3.59427e-15
3.05303e-15
2.61072e-15
2.29435e-15
1.91283e-15
1.778e-15
1.62212e-15
1.62768e-15
1.67861e-15
1.87643e-15
2.12062e-15
2.33907e-15
2.56625e-15
2.7645e-15
2.99821e-15
3.19283e-15
3.52047e-15
3.83482e-15
4.22743e-15
4.34129e-15
4.55541e-15
4.80528e-15
4.95407e-15
5.32657e-15
5.45875e-15
6.62054e-15
7.28557e-15
8.29309e-15
1.05208e-14
1.14724e-14
1.37588e-14
1.63161e-14
1.89585e-14
1.88333e-14
2.09129e-14
2.12961e-14
2.10309e-14
2.09782e-14
2.03896e-14
2.20795e-14
2.1721e-14
2.08789e-14
2.00627e-14
1.9181e-14
1.90213e-14
1.98264e-14
2.03939e-14
2.1497e-14
2.01794e-14
2.10239e-14
1.92151e-14
2.06558e-14
1.85556e-14
2.01028e-14
2.07983e-14
2.30733e-14
1.9807e-14
1.89648e-14
1.77748e-14
8.41713e-15
7.27858e-15
5.16396e-15
4.63907e-15
4.61797e-15
5.50896e-15
5.80037e-15
5.4543e-15
4.79114e-15
3.9712e-15
2.75995e-15
2.14712e-15
2.02867e-15
1.95259e-15
2.25191e-15
2.76224e-15
2.65511e-15
2.52408e-15
2.31026e-15
2.09805e-15
1.61377e-15
1.38776e-15
1.33227e-15
1.38371e-15
1.19838e-15
1.51551e-15
1.37574e-15
1.40276e-15
1.40224e-15
2.29389e-15
8.37604e-15
2.7265e-14
3.07062e-14
3.00464e-14
2.75795e-14
2.46594e-14
2.14863e-14
2.07843e-14
1.6163e-14
1.4666e-14
1.24372e-14
1.12197e-14
9.58573e-15
8.76015e-15
8.20922e-15
7.45359e-15
7.27709e-15
6.22188e-15
5.62019e-15
4.86866e-15
4.27633e-15
3.65807e-15
3.23623e-15
2.88587e-15
2.52174e-15
2.18245e-15
1.94276e-15
1.71013e-15
1.40647e-15
1.17493e-15
9.02866e-16
8.2521e-16
7.56483e-16
8.29023e-16
8.64745e-16
9.22506e-16
9.87742e-16
9.65224e-16
9.37163e-16
8.29548e-16
7.58355e-16
6.57061e-16
6.08063e-16
5.76538e-16
5.92754e-16
6.32366e-16
6.7214e-16
8.14237e-16
1.0047e-15
1.28042e-15
1.46932e-15
1.82565e-15
1.83648e-15
2.6876e-15
3.09003e-15
3.87675e-15
4.82613e-15
5.54528e-15
7.39847e-15
8.88518e-15
1.06387e-14
1.30743e-14
1.63999e-14
1.67931e-14
1.92981e-14
2.01124e-14
2.01986e-14
2.04685e-14
1.88815e-14
2.03999e-14
2.07478e-14
1.99688e-14
1.90777e-14
1.84354e-14
1.74385e-14
1.85272e-14
1.86911e-14
1.89185e-14
1.88254e-14
1.99991e-14
1.86551e-14
2.04007e-14
1.81612e-14
1.95392e-14
1.99078e-14
2.15252e-14
1.86416e-14
1.82468e-14
1.6802e-14
7.22603e-16
1.73716e-15
2.16689e-15
2.23983e-15
2.03156e-15
1.70348e-15
1.28217e-15
1.20295e-15
1.21666e-15
1.5297e-15
1.77501e-15
1.79101e-15
1.70791e-15
1.51668e-15
1.38767e-15
1.15889e-15
9.21322e-16
8.70935e-16
8.76638e-16
9.75623e-16
1.16045e-15
1.08643e-15
9.90592e-16
8.36638e-16
8.65244e-16
7.31465e-16
5.18629e-16
6.00269e-16
5.0203e-16
7.97987e-16
3.41251e-15
1.53427e-14
1.95519e-14
1.78571e-14
1.62046e-14
1.37485e-14
1.23408e-14
1.2181e-14
9.98905e-15
8.87997e-15
7.35675e-15
6.47485e-15
5.45836e-15
5.05732e-15
4.37969e-15
3.62979e-15
3.33348e-15
2.41787e-15
2.02393e-15
1.65586e-15
1.41124e-15
1.23325e-15
1.17584e-15
1.13973e-15
1.09082e-15
1.07726e-15
1.01284e-15
8.54116e-16
6.45244e-16
4.38982e-16
1.8907e-16
4.85584e-17
-1.23822e-16
-1.85524e-16
-2.20134e-16
-2.16659e-16
-2.16722e-16
-2.13021e-16
-2.41536e-16
-2.49168e-16
-2.68233e-16
-2.16591e-16
-1.5009e-16
-5.13146e-17
5.43445e-17
1.59213e-16
2.53156e-16
3.23349e-16
3.89408e-16
4.19607e-16
4.5561e-16
6.14929e-16
6.59765e-16
1.0768e-15
1.35721e-15
1.76248e-15
2.4107e-15
3.10465e-15
4.24311e-15
5.39767e-15
6.63337e-15
7.28657e-15
1.02121e-14
1.18204e-14
1.46032e-14
1.66098e-14
1.78201e-14
1.9469e-14
1.7896e-14
1.77657e-14
1.93589e-14
1.88398e-14
1.79841e-14
1.70214e-14
1.61345e-14
1.64506e-14
1.78216e-14
1.85119e-14
1.7787e-14
1.85573e-14
1.78497e-14
1.92968e-14
1.74426e-14
1.8853e-14
1.89446e-14
2.0128e-14
1.76474e-14
1.74469e-14
1.5912e-14
1.51887e-15
1.32548e-15
9.63823e-16
8.31269e-16
7.99829e-16
9.19535e-16
9.75033e-16
8.8441e-16
7.404e-16
6.04309e-16
4.09439e-16
3.00317e-16
2.89282e-16
2.9571e-16
3.41195e-16
3.8753e-16
3.75151e-16
3.42911e-16
2.83402e-16
2.30028e-16
1.69237e-16
1.52688e-16
1.59235e-16
1.77949e-16
1.35938e-16
2.6365e-16
1.33772e-16
2.25826e-16
1.72621e-16
4.59524e-16
2.67726e-15
1.02224e-14
1.34102e-14
1.29599e-14
1.02609e-14
7.19408e-15
6.11345e-15
5.14309e-15
3.81249e-15
3.05648e-15
2.58121e-15
2.21145e-15
1.90714e-15
1.71856e-15
1.50562e-15
1.45268e-15
1.57281e-15
1.34092e-15
1.07161e-15
9.30643e-16
7.03762e-16
5.43415e-16
4.96363e-16
4.2315e-16
3.88313e-16
4.94474e-16
5.39426e-16
5.36618e-16
4.9079e-16
4.1524e-16
3.20619e-16
2.32046e-16
1.47643e-16
1.01622e-16
9.80041e-17
9.75613e-17
1.27137e-16
1.21715e-16
1.20988e-16
7.17536e-17
1.61696e-17
-6.26307e-17
-1.21854e-16
-1.68213e-16
-1.80961e-16
-1.60564e-16
-1.17907e-16
-4.45167e-17
2.45286e-17
9.94483e-17
1.24022e-16
1.95922e-16
1.8469e-16
4.68147e-16
5.88761e-16
7.17153e-16
9.87394e-16
1.44107e-15
2.11618e-15
2.89682e-15
4.45806e-15
4.45707e-15
6.62442e-15
8.16257e-15
1.09864e-14
1.35533e-14
1.50945e-14
1.81795e-14
1.61351e-14
1.5542e-14
1.7468e-14
1.73068e-14
1.66544e-14
1.62229e-14
1.48947e-14
1.48461e-14
1.55298e-14
1.69933e-14
1.731e-14
1.77804e-14
1.7477e-14
1.91904e-14
1.77508e-14
1.847e-14
1.78973e-14
1.90169e-14
1.6825e-14
1.67689e-14
1.50289e-14
1.35165e-16
2.89914e-16
3.23386e-16
3.23601e-16
2.96121e-16
2.4324e-16
1.84034e-16
1.66186e-16
1.64772e-16
2.01125e-16
2.45666e-16
2.53558e-16
2.44396e-16
2.15004e-16
1.94901e-16
1.59485e-16
1.37511e-16
1.30695e-16
1.30808e-16
1.54081e-16
1.75504e-16
1.60669e-16
1.46738e-16
1.42875e-16
9.66393e-17
1.167e-16
1.11232e-16
9.8779e-17
9.14449e-17
2.52318e-16
2.29808e-15
5.69603e-15
1.37663e-14
1.26144e-14
8.92979e-15
5.94407e-15
4.43932e-15
3.85814e-15
3.20692e-15
2.66248e-15
2.40972e-15
1.94649e-15
1.60909e-15
1.28215e-15
1.24351e-15
1.21822e-15
1.19509e-15
1.16236e-15
9.50958e-16
9.08363e-16
6.88136e-16
5.78296e-16
4.80792e-16
4.42961e-16
3.91696e-16
3.74422e-16
3.48309e-16
3.74762e-16
3.90681e-16
3.7109e-16
3.55882e-16
3.03407e-16
2.63334e-16
2.07884e-16
1.65818e-16
1.18733e-16
9.26828e-17
7.22365e-17
6.44137e-17
5.19677e-17
4.3888e-17
2.48636e-17
1.37658e-17
4.41521e-19
3.74528e-19
-2.87056e-19
1.21001e-17
2.36066e-17
5.93166e-17
9.1289e-17
1.36465e-16
1.66962e-16
1.64009e-16
2.41002e-16
2.32048e-16
2.85103e-16
2.67891e-16
4.30012e-16
9.72739e-16
1.38177e-15
3.01483e-15
2.84392e-15
4.40845e-15
5.3678e-15
8.82034e-15
1.25063e-14
1.4128e-14
1.70868e-14
1.53415e-14
1.39765e-14
1.61492e-14
1.61527e-14
1.55514e-14
1.5331e-14
1.38282e-14
1.43731e-14
1.44455e-14
1.48803e-14
1.62793e-14
1.63924e-14
1.6287e-14
1.79726e-14
1.72188e-14
1.79008e-14
1.70221e-14
1.83407e-14
1.61125e-14
1.61024e-14
1.41938e-14
1.73752e-16
1.54155e-16
1.15473e-16
9.74838e-17
9.47123e-17
9.9281e-17
1.04952e-16
9.43383e-17
7.74549e-17
5.98597e-17
4.22444e-17
3.19272e-17
3.41545e-17
3.86154e-17
4.79525e-17
4.72452e-17
4.48553e-17
4.15274e-17
3.40623e-17
2.81478e-17
2.40829e-17
2.27285e-17
2.54967e-17
2.77824e-17
3.32105e-17
3.63301e-17
2.8775e-17
3.01351e-17
3.4163e-17
3.14558e-17
1.93694e-16
1.3891e-15
9.17927e-15
1.18652e-14
8.19055e-15
5.38572e-15
3.81543e-15
3.0031e-15
2.70444e-15
2.23159e-15
1.8081e-15
1.39716e-15
1.04536e-15
9.20918e-16
9.40077e-16
9.38884e-16
8.96275e-16
7.9935e-16
6.56008e-16
6.34498e-16
4.65804e-16
3.54512e-16
3.53688e-16
3.33668e-16
2.63311e-16
1.94892e-16
1.2055e-16
3.47226e-17
-3.3819e-18
-1.48778e-17
6.72892e-18
5.92176e-17
1.22519e-16
1.66343e-16
1.82893e-16
1.68347e-16
1.37828e-16
9.77793e-17
6.61852e-17
4.87202e-17
3.87964e-17
3.39906e-17
2.47948e-17
1.53832e-17
2.08622e-19
-8.206e-18
-1.51647e-17
-2.16426e-17
-1.45807e-17
-4.98375e-18
1.05348e-17
5.75392e-17
4.34304e-17
1.06015e-16
1.32408e-16
1.134e-16
1.73166e-16
1.11065e-16
2.55407e-16
1.92735e-16
1.96652e-15
2.42676e-15
4.28652e-15
4.75266e-15
5.8932e-15
8.66487e-15
1.03608e-14
1.50831e-14
1.48448e-14
1.13307e-14
1.47811e-14
1.51934e-14
1.47421e-14
1.43798e-14
1.32043e-14
1.29153e-14
1.44735e-14
1.44954e-14
1.47788e-14
1.60864e-14
1.64509e-14
1.73942e-14
1.66331e-14
1.76009e-14
1.62812e-14
1.78541e-14
1.55201e-14
1.55658e-14
1.34052e-14
1.87373e-17
3.39049e-17
3.33174e-17
3.04104e-17
2.71861e-17
2.25603e-17
1.93909e-17
1.86763e-17
1.95924e-17
2.36054e-17
2.82844e-17
3.02507e-17
2.995e-17
2.72322e-17
2.5845e-17
2.19439e-17
2.01604e-17
1.93648e-17
1.96775e-17
2.12097e-17
2.32443e-17
2.2831e-17
2.1685e-17
2.03797e-17
1.79739e-17
1.83541e-17
1.69234e-17
1.62093e-17
1.31019e-17
4.59298e-17
-9.32546e-17
7.98528e-16
3.49024e-15
4.60841e-15
3.39847e-15
2.69593e-15
2.3757e-15
2.10992e-15
1.8937e-15
1.72772e-15
1.60202e-15
1.40371e-15
1.21777e-15
1.05114e-15
9.66187e-16
9.32738e-16
8.91874e-16
8.47159e-16
7.87863e-16
7.15091e-16
6.31773e-16
6.06227e-16
5.0882e-16
4.36387e-16
3.54908e-16
3.17422e-16
2.6946e-16
2.40611e-16
1.98926e-16
1.56577e-16
1.14408e-16
7.88235e-17
5.44155e-17
3.87033e-17
2.73079e-17
2.95855e-17
3.35441e-17
3.70497e-17
3.90569e-17
4.06122e-17
4.30639e-17
4.59255e-17
4.54652e-17
4.37443e-17
3.6492e-17
3.69136e-17
3.35798e-17
4.27183e-17
2.67311e-17
4.80932e-17
2.09186e-17
3.20767e-17
6.03702e-17
1.47793e-19
5.71913e-17
1.30059e-16
-1.44785e-17
6.04147e-17
3.44904e-16
1.19924e-16
5.07715e-17
-1.11192e-15
-1.17912e-15
2.48729e-16
4.12395e-15
8.7545e-15
1.12257e-14
1.29271e-14
1.55245e-14
1.12254e-14
1.07795e-14
1.26659e-14
1.3177e-14
1.35787e-14
1.30241e-14
1.19972e-14
1.25927e-14
1.34994e-14
1.37584e-14
1.43051e-14
1.49565e-14
1.68578e-14
1.69158e-14
1.76812e-14
1.58649e-14
1.73568e-14
1.50498e-14
1.51011e-14
1.28066e-14
1.17585e-17
1.07762e-17
9.36603e-18
8.16752e-18
8.11446e-18
8.23548e-18
8.72367e-18
8.23139e-18
7.18081e-18
6.01169e-18
4.96773e-18
4.57197e-18
4.92798e-18
5.43519e-18
6.29656e-18
6.04142e-18
5.72418e-18
5.62814e-18
4.8401e-18
4.53542e-18
4.453e-18
4.75182e-18
4.93565e-18
4.96192e-18
5.63739e-18
5.46946e-18
6.55063e-18
2.6336e-18
6.59205e-18
6.64093e-18
6.18779e-17
4.84448e-16
8.58115e-16
1.01259e-15
9.11747e-16
8.7805e-16
8.39575e-16
8.2306e-16
7.71733e-16
7.40439e-16
7.71554e-16
6.748e-16
6.2191e-16
5.65367e-16
5.03396e-16
4.8519e-16
4.77176e-16
4.39262e-16
4.00853e-16
3.48111e-16
2.79006e-16
2.17905e-16
1.36185e-16
1.02438e-16
7.61277e-17
5.82404e-17
8.51072e-17
9.05433e-17
8.11244e-17
6.38184e-17
2.84392e-17
-3.72167e-19
-1.66052e-17
-2.11904e-17
-1.72632e-17
-1.26409e-17
-1.16372e-17
-1.49108e-17
-1.99267e-17
-2.35297e-17
-2.48664e-17
-2.2927e-17
-2.32866e-17
-2.16372e-17
-2.70237e-17
-2.51361e-17
-1.99029e-17
-2.44893e-17
9.09124e-18
-3.04892e-17
4.31167e-17
-8.64694e-18
-6.63227e-18
8.56279e-17
-9.40291e-17
9.08506e-19
5.8959e-16
-3.03687e-16
-4.52852e-16
1.74588e-17
2.02202e-15
3.9329e-15
5.12288e-15
4.16789e-15
2.88449e-15
5.34595e-15
8.42814e-15
1.12116e-14
1.38696e-14
1.24219e-14
1.12363e-14
1.15522e-14
1.16965e-14
1.22465e-14
1.26781e-14
1.18735e-14
1.19362e-14
1.26138e-14
1.35555e-14
1.41429e-14
1.49281e-14
1.59557e-14
1.5618e-14
1.63111e-14
1.48906e-14
1.67236e-14
1.46239e-14
1.4614e-14
1.22354e-14
1.60964e-18
2.06664e-18
1.96622e-18
1.71107e-18
1.55817e-18
1.43513e-18
1.55667e-18
1.66356e-18
1.79488e-18
2.02338e-18
2.28428e-18
2.49935e-18
2.5829e-18
2.40935e-18
2.24952e-18
2.15877e-18
2.01217e-18
1.90172e-18
1.86216e-18
2.01252e-18
1.94695e-18
1.94896e-18
1.93359e-18
1.83328e-18
1.63002e-18
1.81197e-18
1.17242e-18
1.7892e-18
1.4206e-18
4.01291e-18
3.38642e-17
1.15433e-16
2.08177e-16
2.39744e-16
2.26976e-16
2.54121e-16
2.93393e-16
3.4188e-16
3.7657e-16
3.93909e-16
3.8692e-16
3.71754e-16
3.2871e-16
3.07263e-16
2.72141e-16
2.64979e-16
2.6076e-16
2.29616e-16
2.22185e-16
1.81978e-16
1.63453e-16
1.33214e-16
1.11328e-16
8.65716e-17
7.34291e-17
3.72064e-17
1.05793e-17
4.75077e-18
8.065e-18
1.61878e-17
2.33822e-17
2.44087e-17
1.99864e-17
1.25766e-17
6.36965e-18
2.66519e-18
8.56823e-19
-3.38416e-19
-1.72483e-18
-3.63849e-18
-3.49138e-18
-2.3593e-18
2.27294e-18
2.65404e-18
5.36834e-18
-2.01117e-18
-9.28934e-18
-1.56351e-18
-3.58143e-17
5.84475e-17
-1.25151e-16
1.8091e-16
-1.51631e-16
1.2518e-17
3.53495e-16
-5.8628e-16
-9.89412e-16
3.46559e-15
1.94156e-15
-2.21006e-15
-7.54587e-15
-7.15526e-15
-5.38617e-15
-2.18619e-15
5.49441e-16
4.77642e-15
7.93779e-15
9.3061e-15
9.91058e-15
1.18016e-14
1.09236e-14
9.81391e-15
9.6473e-15
1.02003e-14
1.13988e-14
1.11332e-14
1.15543e-14
1.16641e-14
1.158e-14
1.31283e-14
1.41284e-14
1.49477e-14
1.52693e-14
1.64751e-14
1.51723e-14
1.65124e-14
1.44049e-14
1.4242e-14
1.18319e-14
-2.70708e-20
3.20248e-22
9.39333e-20
6.96944e-20
-5.49335e-21
-2.6814e-20
-4.47027e-20
-1.40655e-19
-1.38201e-19
-1.66392e-19
-1.29948e-19
-1.02301e-19
-8.38895e-20
-8.92006e-20
-1.41598e-19
-2.698e-19
-3.32637e-19
-3.81562e-19
-4.4792e-19
-7.13188e-19
-6.63042e-19
-7.09049e-19
-7.40715e-19
-7.59011e-19
-7.61755e-19
-8.01195e-19
-7.74743e-19
-8.76609e-19
-9.93307e-19
-1.39831e-18
-4.19619e-18
-5.5297e-18
2.33286e-17
6.1391e-17
8.93041e-17
1.07904e-16
1.22122e-16
1.1309e-16
1.01125e-16
6.84708e-17
3.37669e-17
1.69312e-17
5.68767e-18
1.46172e-18
-4.08014e-18
-1.20051e-17
-1.28343e-17
-1.11442e-17
-1.27856e-17
-1.04123e-17
-9.4306e-18
-9.04623e-18
-7.54333e-18
-2.29995e-18
-2.02744e-18
-1.76016e-18
-1.75292e-18
-3.7487e-18
-6.76797e-18
-9.53426e-18
-1.06555e-17
-1.04879e-17
-1.01259e-17
-9.35379e-18
-8.72195e-18
-7.3215e-18
-5.7522e-18
-5.22162e-18
-6.30409e-18
-8.80357e-18
-1.21901e-17
-1.26682e-17
-1.48432e-17
-8.54239e-18
-1.32161e-17
-4.19763e-18
-1.35141e-17
-1.01162e-17
-4.81401e-18
-4.65213e-17
1.41891e-16
-4.43351e-16
9.7142e-16
-1.0726e-15
-4.96341e-16
4.03216e-15
-3.74111e-15
-6.59288e-15
2.3952e-15
1.25395e-14
2.46618e-14
1.38598e-14
8.9559e-15
4.69775e-15
2.23744e-15
2.50066e-15
5.07084e-15
6.64298e-15
8.05342e-15
7.96777e-15
7.89489e-15
8.63922e-15
8.48138e-15
8.44348e-15
9.12404e-15
9.28418e-15
9.99566e-15
1.08112e-14
1.08728e-14
1.1489e-14
1.32663e-14
1.44532e-14
1.50561e-14
1.60538e-14
1.4906e-14
1.58985e-14
1.39737e-14
1.37588e-14
1.12547e-14
-6.09837e-19
-7.29036e-19
-7.45392e-19
-7.75817e-19
-7.40036e-19
-7.30582e-19
-7.00159e-19
-7.72868e-19
-8.29393e-19
-8.6757e-19
-8.69056e-19
-9.82147e-19
-1.08055e-18
-1.10133e-18
-1.16623e-18
-1.16271e-18
-1.20837e-18
-1.23456e-18
-1.30304e-18
-1.36713e-18
-1.48812e-18
-1.58093e-18
-1.65652e-18
-1.80972e-18
-1.84887e-18
-1.9083e-18
-2.01024e-18
-2.06714e-18
-2.20884e-18
-2.87048e-18
-7.06219e-18
-2.09048e-17
-1.14675e-17
1.00401e-17
3.4321e-17
3.6215e-17
4.11535e-17
4.3082e-17
4.51339e-17
3.89013e-17
3.01002e-17
2.26485e-17
1.97784e-17
1.63442e-17
1.06863e-17
1.19403e-17
1.0205e-17
9.26617e-18
9.91334e-18
9.27299e-18
7.05535e-18
9.10604e-18
7.73505e-18
7.46641e-18
7.95248e-18
9.07673e-18
9.20592e-18
9.17794e-18
8.97692e-18
9.32816e-18
9.24326e-18
8.1427e-18
7.1116e-18
4.73983e-18
3.74041e-18
3.52367e-18
5.33298e-18
5.6058e-18
7.83326e-18
6.16839e-18
6.55555e-18
1.26859e-18
8.24052e-18
-2.17318e-19
9.07154e-18
2.36804e-18
-6.17179e-18
1.17132e-17
7.38847e-18
-1.65141e-16
4.4838e-16
-1.31705e-16
-2.12898e-15
6.09289e-15
-8.08346e-15
-3.05899e-15
1.8117e-14
7.59607e-15
-1.6876e-14
-2.76473e-14
-3.13638e-14
-1.56633e-14
-6.91535e-15
-1.43803e-15
1.49095e-15
4.64569e-15
6.52147e-15
6.51892e-15
5.63901e-15
6.23408e-15
6.38945e-15
6.37691e-15
5.93259e-15
6.39342e-15
7.57354e-15
8.74918e-15
9.34125e-15
1.0455e-14
1.02801e-14
1.13819e-14
1.21287e-14
1.32925e-14
1.42055e-14
1.54548e-14
1.48066e-14
1.55177e-14
1.36924e-14
1.3403e-14
1.0887e-14
-9.77956e-19
-9.53552e-19
-9.83952e-19
-1.04498e-18
-1.06481e-18
-1.07994e-18
-1.2016e-18
-1.31316e-18
-1.39302e-18
-1.44892e-18
-1.4186e-18
-1.50331e-18
-1.56141e-18
-1.66345e-18
-1.82274e-18
-1.93251e-18
-2.08154e-18
-2.17228e-18
-2.22703e-18
-2.36809e-18
-2.41975e-18
-2.56034e-18
-2.63662e-18
-2.72493e-18
-2.84472e-18
-3.01863e-18
-3.10606e-18
-3.29483e-18
-3.38632e-18
-4.90993e-18
-1.20204e-17
-3.52668e-17
-2.9268e-17
-1.78038e-17
-1.61362e-17
-1.27273e-17
-1.02023e-17
-5.62285e-18
-6.3741e-18
-8.37045e-18
-7.88202e-18
-7.1746e-18
-7.24685e-18
-7.09793e-18
-6.97855e-18
-7.3895e-18
-6.86226e-18
-7.21418e-18
-7.21008e-18
-5.82656e-18
-8.77006e-18
-6.81232e-18
-1.1295e-17
-9.40687e-18
-1.07608e-17
-9.42607e-18
-1.0432e-17
-1.15374e-17
-1.13688e-17
-1.40598e-17
-8.45914e-18
-1.73443e-17
-3.92988e-18
-3.19567e-17
1.12584e-17
-3.22468e-17
-1.37081e-17
-2.25514e-18
-3.16278e-17
-7.96433e-18
-1.41384e-17
-3.72331e-19
-2.81131e-17
1.28676e-17
-3.36091e-17
5.0559e-18
1.42254e-17
-1.17793e-16
3.41991e-16
-3.18881e-16
-7.94403e-16
3.61608e-15
-6.93707e-15
3.24302e-15
1.17189e-14
-9.80268e-15
-2.73125e-14
5.63841e-15
3.97297e-14
3.41491e-14
1.94824e-14
1.13777e-14
5.07896e-15
3.37445e-15
3.18583e-15
1.15071e-15
2.10024e-15
4.95735e-15
5.518e-15
6.57567e-15
6.48074e-15
6.75972e-15
6.83245e-15
6.54686e-15
7.63808e-15
7.89498e-15
9.3441e-15
1.0416e-14
9.71853e-15
1.08064e-14
1.14913e-14
1.26155e-14
1.37049e-14
1.49279e-14
1.47181e-14
1.52214e-14
1.35579e-14
1.30888e-14
1.06143e-14
-1.24798e-18
-1.30964e-18
-1.38841e-18
-1.42816e-18
-1.54439e-18
-1.49165e-18
-1.5967e-18
-1.7728e-18
-1.86144e-18
-1.9316e-18
-1.99987e-18
-2.10637e-18
-2.30379e-18
-2.43873e-18
-2.61699e-18
-2.86798e-18
-2.95369e-18
-3.15525e-18
-3.17565e-18
-3.31271e-18
-3.38866e-18
-3.53046e-18
-3.54277e-18
-3.86725e-18
-4.13722e-18
-4.38627e-18
-4.62571e-18
-4.93735e-18
-5.34007e-18
-7.94188e-18
-2.03158e-17
-4.9796e-17
-4.28554e-17
-3.66674e-17
-3.2429e-17
-2.28977e-17
-1.65176e-17
-1.5774e-17
-2.22097e-17
-1.75742e-17
-9.68137e-18
-7.53456e-18
-1.12378e-17
-1.28299e-17
-1.30529e-17
-1.1451e-17
-9.50753e-18
-7.23139e-18
-7.09328e-18
-7.1662e-18
-8.46705e-18
-7.23344e-18
-9.84627e-18
-6.34197e-18
-8.89221e-18
-4.80755e-18
-5.62788e-18
-7.82059e-18
3.34578e-18
-2.92272e-17
5.47644e-17
-1.2316e-16
1.5149e-16
-4.69899e-17
-1.38222e-16
1.70546e-16
-1.15786e-16
2.47655e-17
4.19987e-17
-5.24203e-17
-1.48627e-17
1.55072e-17
-1.1506e-17
1.53258e-17
-2.41923e-17
7.82351e-18
7.01635e-17
-2.07529e-16
3.00532e-16
4.81938e-17
-1.04885e-15
1.11414e-15
3.82263e-15
-1.07286e-14
-2.50513e-15
1.95405e-14
1.51285e-14
-1.54256e-15
-3.52011e-14
-1.5958e-14
-7.59401e-15
-2.81752e-15
-4.33204e-15
-5.24515e-15
-4.36102e-15
-5.13379e-17
4.63207e-15
3.91649e-15
3.83375e-15
3.18112e-15
3.11046e-15
3.77313e-15
4.32706e-15
4.69499e-15
5.60257e-15
6.45658e-15
7.15043e-15
8.93064e-15
9.28773e-15
9.51625e-15
1.13967e-14
1.20102e-14
1.2869e-14
1.44785e-14
1.44656e-14
1.47916e-14
1.32653e-14
1.2764e-14
1.03313e-14
-1.73915e-18
-1.74125e-18
-1.79207e-18
-1.80831e-18
-1.9951e-18
-2.13342e-18
-2.15262e-18
-2.28263e-18
-2.55684e-18
-2.75024e-18
-2.88843e-18
-3.04205e-18
-3.06103e-18
-3.44277e-18
-3.72701e-18
-4.19794e-18
-4.38597e-18
-4.46434e-18
-4.51357e-18
-4.73147e-18
-4.98981e-18
-5.02664e-18
-5.11011e-18
-5.23587e-18
-5.84815e-18
-6.4955e-18
-7.44539e-18
-7.9309e-18
-8.50933e-18
-1.36695e-17
-4.06591e-17
-6.06884e-17
-5.20835e-17
-4.01494e-17
-3.44607e-17
-3.34053e-17
-2.47122e-17
-1.71135e-17
-2.36204e-17
-7.56121e-18