/*--------------------------------*- C++ -*----------------------------------*\
| =========                 |                                                 |
| \\      /  F ield         | OpenFOAM: The Open Source CFD Toolbox           |
|  \\    /   O peration     | Version:  2.2.x                                 |
|   \\  /    A nd           | Web:      www.OpenFOAM.org                      |
|    \\/     M anipulation  |                                                 |
\*---------------------------------------------------------------------------*/
FoamFile
{
    version     2.0;
    format      ascii;
    class       volVectorField;
    location    "0.25";
    object      U;
}
// * * * * * * * * * * * * * * * * * * * * * * * * * * * * * * * * * * * * * //

dimensions      [0 1 -1 0 0 0 0];

internalField   nonuniform List<vector> 
14161
(
(1.50001 1.30128e-08 5.16137e-22)
(1.50001 -1.35158e-08 -7.69621e-22)
(1.50001 -3.08263e-09 -3.78391e-22)
(1.50002 -3.074e-09 -9.09075e-22)
(1.50002 4.06961e-09 4.03251e-22)
(1.50003 -1.93315e-10 -2.25892e-21)
(1.50005 6.61541e-09 9.05984e-22)
(1.50006 3.84118e-10 -1.16574e-21)
(1.50009 9.49127e-09 -3.80088e-22)
(1.50012 1.27622e-09 -1.88369e-21)
(1.50016 1.39094e-08 -2.83484e-21)
(1.50021 1.96886e-09 -2.40548e-21)
(1.50027 1.69562e-08 -4.11528e-21)
(1.50035 -7.06125e-09 -2.6948e-21)
(1.50045 -3.03639e-08 -3.51299e-21)
(1.50056 -1.82122e-08 -3.25318e-21)
(1.50069 9.37567e-08 -3.69992e-21)
(1.50085 -6.76653e-08 -3.83889e-21)
(1.50102 2.71655e-08 -3.58746e-21)
(1.50123 -8.70409e-08 -3.81918e-21)
(1.50145 -6.93007e-07 -4.27602e-21)
(1.50171 1.8615e-06 -3.49348e-21)
(1.50199 -3.36469e-06 -3.8636e-21)
(1.50228 2.13257e-08 -3.5369e-21)
(1.50264 3.49634e-06 -4.05131e-21)
(1.50294 -5.50778e-06 -3.82447e-21)
(1.50332 -1.61963e-06 -3.7932e-21)
(1.50371 3.38034e-06 -3.79108e-21)
(1.50407 -3.20224e-07 -3.61086e-21)
(1.50447 -5.18221e-06 -3.88086e-21)
(1.5049 2.64752e-06 -3.30464e-21)
(1.50534 2.49366e-06 -3.45338e-21)
(1.50575 -3.72247e-06 -3.38985e-21)
(1.50615 -1.71079e-06 -3.41824e-21)
(1.50662 2.05892e-07 -3.30208e-21)
(1.50705 3.22817e-06 -3.41186e-21)
(1.50746 1.24239e-06 -3.29857e-21)
(1.50779 -6.06857e-07 -3.30665e-21)
(1.50823 6.81481e-07 -3.30478e-21)
(1.50871 1.9855e-06 -3.25391e-21)
(1.50909 5.2459e-06 -3.22496e-21)
(1.50941 6.5091e-06 -3.31728e-21)
(1.5097 -5.20243e-06 -3.28194e-21)
(1.50997 -1.25843e-05 -3.1411e-21)
(1.51036 -1.05056e-05 -3.35612e-21)
(1.51088 -5.66573e-07 -2.68186e-21)
(1.51122 3.98604e-06 -2.78556e-21)
(1.51147 8.63667e-06 -2.10768e-21)
(1.51168 6.00625e-06 -1.32751e-21)
(1.51192 -1.80514e-06 -1.56154e-21)
(1.51209 -4.28157e-06 -1.14456e-21)
(1.51239 -2.877e-06 -1.01134e-21)
(1.51334 4.59816e-06 1.46524e-22)
(1.51373 9.10098e-06 3.50031e-23)
(1.51407 7.98743e-06 -6.3495e-23)
(1.5143 7.6073e-06 -1.92063e-22)
(1.51444 2.69835e-05 -4.48127e-22)
(1.51454 -6.69746e-07 -3.9136e-22)
(1.51467 -2.56785e-06 -6.57317e-22)
(1.51474 1.16937e-05 -7.73655e-22)
(1.51495 1.24968e-05 -7.63119e-22)
(1.51527 1.6217e-05 -7.50926e-22)
(1.51577 4.72699e-05 -1.7656e-21)
(1.51596 7.66415e-05 -1.59937e-21)
(1.51612 0.000136766 -1.62881e-21)
(1.51655 0.000166489 -2.25421e-21)
(1.51676 0.000209227 -2.21243e-21)
(1.51704 0.000318453 -2.2954e-21)
(1.51678 0.000499231 -2.18549e-21)
(1.51487 0.000659221 -2.46906e-21)
(1.51051 0.00131749 -2.38585e-21)
(1.50378 0.00290017 -2.10097e-21)
(1.49979 0.00588436 -1.96326e-21)
(1.48061 0.0191859 4.49727e-22)
(0.671017 0.0390365 4.58009e-21)
(0.447198 -0.0477966 5.36999e-21)
(0.456501 -0.0809606 2.37448e-21)
(0.542172 -0.0538221 -1.04255e-21)
(0.615145 -0.0304501 8.01529e-23)
(0.648558 -0.006799 -1.774e-21)
(0.662983 0.000980242 -1.99695e-21)
(0.660426 0.0103857 -5.4168e-21)
(0.639349 0.0210829 -1.36505e-21)
(0.597694 0.0296564 -1.18948e-20)
(0.548997 0.0351541 1.38757e-21)
(0.502325 0.0348189 -1.29917e-20)
(0.454915 0.0321823 5.2396e-21)
(0.417251 0.0270408 -7.87561e-21)
(0.386622 0.0226141 3.27187e-21)
(0.363152 0.0172821 -8.48459e-21)
(0.344594 0.0143422 -3.65247e-22)
(0.328718 0.0120059 -5.16561e-21)
(0.31325 0.0109945 -1.00275e-21)
(0.296574 0.00985308 -2.62086e-21)
(0.279038 0.00811341 -9.80846e-21)
(0.26291 0.00601874 -6.70609e-21)
(0.249806 0.00559089 -1.79026e-20)
(0.238735 0.00581563 -1.43541e-20)
(0.227546 0.00592733 -2.73244e-20)
(0.216159 0.00607652 -2.77054e-20)
(0.205741 0.00693512 -3.32518e-20)
(0.1958 0.00752225 -4.61427e-20)
(0.186221 0.00772443 -4.19373e-20)
(0.176113 0.00776324 -4.94748e-20)
(0.165577 0.00720626 -5.66653e-20)
(0.154048 0.00669755 -6.12462e-20)
(0.142229 0.00630111 -7.94444e-20)
(0.13014 0.00581124 -7.00638e-20)
(0.118625 0.00608607 -9.26472e-20)
(0.107227 0.00609699 -1.0535e-19)
(0.0961386 0.0068284 -1.19414e-19)
(0.0843803 0.00669997 -1.3078e-19)
(0.0727511 0.00726491 -1.56116e-19)
(0.0597582 0.00710403 -1.51533e-19)
(0.0463341 0.00737521 -2.08967e-19)
(0.0327351 0.00668694 -2.11938e-19)
(0.0203483 0.00684046 -3.11864e-19)
(0.0102916 0.005182 -2.04096e-19)
(0.00302961 0.00466395 -3.09226e-19)
(1.50001 1.24294e-08 -7.92323e-22)
(1.50001 -1.52094e-08 1.6574e-21)
(1.50001 -7.0514e-09 3.62136e-21)
(1.50002 -8.02381e-09 1.01116e-21)
(1.50002 1.52386e-09 2.53842e-22)
(1.50003 -3.81064e-09 9.24506e-22)
(1.50005 1.53544e-09 1.50452e-21)
(1.50006 -6.52732e-09 2.39738e-21)
(1.50009 3.73647e-10 5.84733e-21)
(1.50012 -1.16058e-08 6.50626e-21)
(1.50016 -1.7693e-09 9.20765e-21)
(1.50021 -1.9274e-08 8.97948e-21)
(1.50027 1.82223e-09 1.28791e-20)
(1.50035 -2.7581e-08 1.02269e-20)
(1.50045 -1.56017e-08 9.48939e-21)
(1.50056 -2.14066e-08 8.58541e-21)
(1.50069 3.09562e-08 1.10189e-20)
(1.50085 1.25093e-08 7.1921e-21)
(1.50103 -1.24049e-07 9.11073e-21)
(1.50123 1.96567e-07 5.99338e-21)
(1.50146 -9.53916e-07 6.61581e-21)
(1.5017 1.79342e-06 6.09123e-21)
(1.50198 -2.44804e-06 5.24988e-21)
(1.5023 1.15822e-06 3.82802e-21)
(1.50259 1.90234e-06 5.50681e-21)
(1.50296 -5.89484e-06 5.60533e-21)
(1.50332 -2.66279e-09 4.07795e-21)
(1.50368 1.21164e-06 4.50827e-21)
(1.50409 9.22195e-07 3.06906e-21)
(1.50449 -3.73136e-06 4.25247e-21)
(1.50491 6.39657e-06 2.63711e-21)
(1.50534 1.65404e-06 3.18519e-21)
(1.50576 -5.63343e-06 3.0976e-21)
(1.50613 -2.82037e-06 2.60467e-21)
(1.5066 -1.56131e-06 2.44439e-21)
(1.50704 5.73091e-06 2.67069e-21)
(1.50745 1.36277e-05 2.11325e-21)
(1.50785 2.87517e-06 2.14523e-21)
(1.50821 -8.59832e-06 2.00399e-21)
(1.50868 -5.49017e-06 2.05201e-21)
(1.5091 3.07829e-06 1.86221e-21)
(1.50943 1.19879e-05 1.72854e-21)
(1.50976 9.2733e-06 1.89265e-21)
(1.51002 -9.26789e-06 1.72348e-21)
(1.51036 -1.4262e-05 2.10853e-21)
(1.51088 5.67678e-06 6.52816e-22)
(1.51124 1.9484e-05 1.60417e-21)
(1.51149 3.26417e-05 1.46848e-21)
(1.5117 2.45419e-05 -1.08726e-21)
(1.51196 1.74832e-05 -5.42896e-22)
(1.51211 -8.07414e-06 -1.28137e-21)
(1.51242 -1.36015e-05 -2.03482e-21)
(1.51321 -3.01504e-06 -4.38975e-21)
(1.5137 1.81716e-05 -4.06666e-21)
(1.51408 2.18598e-05 -4.85909e-21)
(1.51431 1.45504e-05 -2.38884e-21)
(1.51445 3.41291e-05 -2.26419e-21)
(1.51459 1.11156e-05 -1.91367e-21)
(1.51476 -2.89355e-06 -2.49695e-21)
(1.51487 1.16114e-05 -4.21781e-21)
(1.51508 1.05007e-05 -3.61106e-21)
(1.51537 1.53494e-05 -5.32459e-21)
(1.51605 6.23426e-05 -3.41645e-21)
(1.51628 0.000100568 -2.99104e-21)
(1.51641 0.000113496 -4.46521e-21)
(1.51649 0.000153656 -2.14743e-21)
(1.51631 0.000234975 -2.34994e-21)
(1.51648 0.000275671 -1.87444e-21)
(1.51675 0.000415581 -2.85011e-21)
(1.51734 0.000908897 -3.15987e-21)
(1.51754 0.00129469 -3.36939e-21)
(1.51959 0.0028287 -3.14928e-21)
(1.51424 0.00640689 -3.14283e-21)
(1.52074 0.0127421 -2.17169e-21)
(0.971821 0.0775045 1.18353e-21)
(0.594532 -0.0843097 2.82432e-21)
(0.5939 -0.0921621 4.15777e-21)
(0.642615 -0.0465734 6.81337e-21)
(0.6849 -0.0281454 2.69819e-21)
(0.702948 0.000125496 7.19184e-21)
(0.702394 0.0110363 -1.8894e-21)
(0.69056 0.0213195 9.02694e-21)
(0.669916 0.0357194 -2.27251e-21)
(0.634407 0.0448457 9.71395e-21)
(0.595354 0.05231 -2.69083e-20)
(0.549337 0.0501136 2.33893e-20)
(0.502373 0.0473891 -3.99977e-20)
(0.461531 0.0416347 4.06784e-20)
(0.422126 0.0386389 -4.1591e-20)
(0.390904 0.0309648 2.06382e-20)
(0.365736 0.0263486 -3.59163e-20)
(0.342668 0.0272795 3.81448e-20)
(0.320888 0.0293697 -3.0901e-20)
(0.299651 0.029063 5.80889e-20)
(0.279901 0.0254254 -1.58063e-20)
(0.262214 0.0205492 5.39176e-20)
(0.246861 0.0190042 -1.20562e-21)
(0.234048 0.0179162 5.44078e-20)
(0.2219 0.0171584 3.47059e-20)
(0.209266 0.0158736 4.20392e-20)
(0.197186 0.0151496 5.2876e-20)
(0.186587 0.0136694 5.14992e-20)
(0.176952 0.0134554 9.01249e-20)
(0.167268 0.0128063 7.83733e-20)
(0.157288 0.0136552 9.75631e-20)
(0.14649 0.0132407 1.25904e-19)
(0.135783 0.0149005 1.0848e-19)
(0.124797 0.0149077 1.56838e-19)
(0.114494 0.0162921 1.21207e-19)
(0.10438 0.016329 1.79008e-19)
(0.0947521 0.0178944 1.84911e-19)
(0.0845582 0.0173167 1.83325e-19)
(0.0744978 0.0183406 2.05678e-19)
(0.0631917 0.017519 2.1558e-19)
(0.0513481 0.0188091 2.41017e-19)
(0.0386296 0.0173213 3.12448e-19)
(0.0258989 0.0188553 2.91954e-19)
(0.0143376 0.0152698 2.33351e-19)
(0.00459743 0.0148777 5.49951e-19)
(1.50001 1.70721e-08 1.98702e-21)
(1.50001 -1.97745e-08 -1.50011e-21)
(1.50001 -1.11248e-08 -2.13097e-21)
(1.50002 -1.15533e-08 -2.58964e-21)
(1.50002 5.22177e-10 -8.23007e-22)
(1.50003 -8.43906e-09 -2.25175e-21)
(1.50005 1.36288e-09 -3.1147e-21)
(1.50006 -1.38839e-08 -7.668e-21)
(1.50009 -3.46793e-10 -7.65422e-21)
(1.50012 -2.20779e-08 -1.52165e-20)
(1.50016 -4.14097e-09 -1.05537e-20)
(1.50021 -3.5223e-08 -2.01349e-20)
(1.50027 -1.25239e-08 -2.0818e-20)
(1.50035 -5.11694e-08 -2.25359e-20)
(1.50045 -5.51131e-08 -1.93511e-20)
(1.50056 8.76389e-09 -2.2815e-20)
(1.50069 -1.02787e-07 -1.98905e-20)
(1.50085 2.39173e-07 -2.46113e-20)
(1.50103 -2.84647e-07 -1.87861e-20)
(1.50123 2.85081e-08 -2.13323e-20)
(1.50146 -1.65219e-07 -2.05123e-20)
(1.5017 -1.38346e-06 -2.77219e-20)
(1.50198 -6.33361e-07 -2.39182e-20)
(1.5023 1.74897e-07 -2.49667e-20)
(1.50259 -3.77004e-06 -3.0246e-20)
(1.50296 -1.69943e-06 -2.98071e-20)
(1.50332 1.09368e-06 -2.96708e-20)
(1.50369 -2.60212e-07 -3.12785e-20)
(1.50409 -1.30137e-06 -3.03709e-20)
(1.50446 -3.16324e-07 -2.89237e-20)
(1.50492 1.33782e-06 -2.88074e-20)
(1.50536 -2.35189e-07 -2.82788e-20)
(1.5058 -1.01676e-06 -2.89493e-20)
(1.50614 -2.03867e-06 -2.80977e-20)
(1.50655 -7.35348e-07 -2.84399e-20)
(1.50703 5.79227e-06 -2.81622e-20)
(1.50745 7.00532e-06 -2.77551e-20)
(1.50787 3.35951e-06 -2.77938e-20)
(1.50823 -2.99011e-06 -2.76295e-20)
(1.50864 -4.86158e-06 -2.74859e-20)
(1.50908 7.06984e-07 -2.74683e-20)
(1.50944 1.04523e-05 -2.71604e-20)
(1.50976 9.97767e-06 -2.72227e-20)
(1.51001 -9.30175e-06 -2.72875e-20)
(1.51033 -1.41707e-05 -2.82958e-20)
(1.51075 -1.33275e-05 -2.39765e-20)
(1.51119 2.16106e-05 -2.19873e-20)
(1.5115 3.95024e-05 -1.93992e-20)
(1.51174 3.79617e-05 -1.8038e-20)
(1.51199 2.62933e-05 -1.8081e-20)
(1.51215 -4.87648e-06 -1.89719e-20)
(1.51246 -2.01704e-05 -1.68821e-20)
(1.51314 -6.08473e-06 -1.60844e-20)
(1.51368 2.4886e-05 -1.5154e-20)
(1.51408 3.37701e-05 -1.22213e-20)
(1.51436 4.09047e-05 -1.65985e-20)
(1.51455 5.60029e-05 -1.44268e-20)
(1.51467 4.8813e-05 -1.89075e-20)
(1.5148 5.04569e-05 -1.6915e-20)
(1.51493 6.91528e-05 -1.66708e-20)
(1.51506 5.76721e-05 -1.87986e-20)
(1.51535 6.14707e-05 -1.46055e-20)
(1.51587 0.000118555 -1.37597e-20)
(1.51629 0.000137559 -1.60193e-20)
(1.51649 0.000146057 -1.47571e-20)
(1.51682 0.000184469 -1.36706e-20)
(1.51735 0.000256272 -1.36067e-20)
(1.51794 0.000375653 -1.10562e-20)
(1.51762 0.000637159 -9.88443e-21)
(1.51633 0.000830085 -9.04834e-21)
(1.51318 0.00159668 -8.98451e-21)
(1.51469 0.00180628 -7.86425e-21)
(1.5181 -0.000806925 -6.58354e-21)
(1.53823 -0.0331578 -6.75655e-21)
(1.41444 -0.199879 5.9351e-22)
(0.737032 -0.187265 6.04007e-21)
(0.733796 -0.13863 -2.79576e-23)
(0.756661 -0.0590931 9.80793e-21)
(0.799834 -0.026819 -3.16781e-21)
(0.803598 0.00857264 1.5757e-20)
(0.806242 0.030603 -6.94379e-21)
(0.776276 0.0436834 1.64455e-20)
(0.741305 0.0614732 -2.77484e-21)
(0.691778 0.0719184 2.19132e-20)
(0.65045 0.0833147 -2.5746e-20)
(0.611357 0.0866826 4.82815e-21)
(0.571898 0.0838291 -2.00459e-20)
(0.532548 0.0768736 -1.15028e-20)
(0.493752 0.0678122 -1.70806e-20)
(0.458107 0.0543975 -3.73445e-20)
(0.424446 0.0446177 -2.28238e-20)
(0.391001 0.040796 -3.96722e-20)
(0.359899 0.042023 -9.70392e-21)
(0.332814 0.0419143 -2.51589e-20)
(0.307358 0.0385032 9.61512e-22)
(0.283812 0.0339817 -2.92042e-20)
(0.262366 0.033511 4.79545e-20)
(0.243514 0.033354 -4.3209e-20)
(0.226283 0.0329858 5.80069e-20)
(0.210096 0.0312816 -3.59498e-20)
(0.195526 0.0297462 8.68446e-20)
(0.182894 0.0270517 -7.19446e-20)
(0.171694 0.0264307 9.99962e-20)
(0.160666 0.0243113 -7.69213e-20)
(0.149327 0.0244036 1.00111e-19)
(0.137901 0.0224173 -6.01137e-20)
(0.126738 0.0234887 1.38008e-19)
(0.116186 0.0223943 -7.19607e-20)
(0.10658 0.024566 2.01162e-19)
(0.0974219 0.0245384 -5.32767e-20)
(0.0891492 0.0274323 1.43483e-19)
(0.0802076 0.0269632 -7.66105e-21)
(0.0714609 0.0290802 1.49061e-19)
(0.0610151 0.0283213 9.22785e-20)
(0.0500266 0.0310162 2.07945e-19)
(0.0381168 0.0294722 1.3072e-19)
(0.0263024 0.0322109 3.76827e-19)
(0.0160029 0.0271287 8.42226e-20)
(0.00572584 0.026947 -7.14042e-20)
(1.50001 2.21061e-08 -7.03004e-22)
(1.50001 -2.52732e-08 -4.05444e-22)
(1.50001 -1.58432e-08 1.95475e-21)
(1.50002 -1.66631e-08 2.87376e-21)
(1.50002 -1.10516e-09 6.95399e-22)
(1.50003 -1.1067e-08 -2.69265e-21)
(1.50005 1.13667e-09 -1.12933e-21)
(1.50006 -1.6453e-08 1.1865e-21)
(1.50009 -1.31441e-09 4.17835e-21)
(1.50012 -2.74159e-08 6.93678e-21)
(1.50016 -5.70786e-09 8.8165e-21)
(1.50021 -3.89738e-08 6.74896e-21)
(1.50027 -2.54124e-08 9.9765e-21)
(1.50035 -4.96796e-08 9.19047e-21)
(1.50045 -4.48204e-08 1.44626e-20)
(1.50056 2.99857e-08 2.15252e-20)
(1.50069 -1.48634e-07 1.34146e-20)
(1.50085 1.35493e-07 2.46545e-20)
(1.50103 -3.75427e-07 4.02341e-21)
(1.50123 -6.9316e-08 1.80787e-20)
(1.50145 1.2196e-07 1.66084e-20)
(1.5017 -2.00166e-06 2.33523e-20)
(1.50199 8.35804e-07 2.09754e-20)
(1.50227 -1.5837e-06 2.34054e-20)
(1.50261 -4.52642e-06 2.68352e-20)
(1.50294 2.46412e-06 2.07423e-20)
(1.50329 1.79682e-07 2.35483e-20)
(1.5037 -3.34178e-06 2.80743e-20)
(1.50409 -4.01718e-06 2.86584e-20)
(1.50445 -1.80134e-06 2.48422e-20)
(1.50492 -1.60561e-06 2.44184e-20)
(1.50536 3.14122e-06 2.42843e-20)
(1.50579 2.85605e-06 2.41821e-20)
(1.50621 2.46638e-06 2.40116e-20)
(1.50656 8.91804e-07 2.4388e-20)
(1.50704 1.80255e-06 2.44626e-20)
(1.50747 4.87256e-06 2.38517e-20)
(1.50787 9.62533e-06 2.43935e-20)
(1.50825 3.34757e-09 2.41716e-20)
(1.5086 -2.38366e-06 2.38472e-20)
(1.50905 -1.94635e-06 2.38336e-20)
(1.50944 1.28297e-05 2.34813e-20)
(1.50979 2.23187e-06 2.40729e-20)
(1.51009 -1.0138e-06 2.35109e-20)
(1.51035 -4.58041e-06 2.34203e-20)
(1.51068 -2.05209e-06 2.15656e-20)
(1.51116 2.2925e-05 2.24678e-20)
(1.51151 3.88315e-05 1.73316e-20)
(1.51181 4.13064e-05 1.53271e-20)
(1.51206 3.03819e-05 1.70029e-20)
(1.51228 1.48025e-05 1.56937e-20)
(1.51252 -4.60696e-07 1.87941e-20)
(1.51297 -1.05252e-05 1.66124e-20)
(1.51367 2.8354e-05 1.81004e-20)
(1.51414 5.778e-05 1.40667e-20)
(1.51446 7.11268e-05 1.79355e-20)
(1.5147 7.90805e-05 2.06179e-20)
(1.51479 7.32658e-05 2.28137e-20)
(1.5149 6.18852e-05 2.35243e-20)
(1.51496 7.00138e-05 2.61648e-20)
(1.51506 6.39776e-05 2.75286e-20)
(1.51534 8.01729e-05 2.92372e-20)
(1.51597 0.000122382 2.76314e-20)
(1.51675 0.000152973 3.14866e-20)
(1.51714 0.000184606 2.87888e-20)
(1.51754 0.000260355 3.16809e-20)
(1.51795 0.000218006 3.118e-20)
(1.5185 0.000334681 2.73643e-20)
(1.51941 0.000387646 3.04039e-20)
(1.52204 0.000584945 2.33841e-20)
(1.52259 0.000913694 2.35058e-20)
(1.52465 0.000464861 2.40434e-20)
(1.51525 -0.0086662 2.54845e-20)
(1.50282 -0.104515 2.09571e-20)
(1.1016 -0.40776 1.16703e-21)
(0.697243 -0.278379 6.15648e-21)
(0.685585 -0.163681 1.80482e-20)
(0.699096 -0.0613095 2.46813e-20)
(0.765343 -0.0258162 2.27081e-20)
(0.77441 0.0109665 2.36193e-20)
(0.783675 0.0373317 2.90745e-20)
(0.762411 0.0618464 3.80319e-20)
(0.730662 0.0839013 3.50842e-20)
(0.692741 0.104272 1.75538e-20)
(0.648818 0.121258 5.46395e-20)
(0.6078 0.128379 5.60545e-21)
(0.569018 0.125543 3.88608e-20)
(0.532122 0.119945 -3.14163e-20)
(0.495878 0.110209 1.17756e-19)
(0.463014 0.0932594 -1.17943e-19)
(0.431852 0.0808968 7.82552e-20)
(0.402397 0.0739127 -1.42479e-19)
(0.37832 0.0698868 1.15977e-20)
(0.356054 0.0663557 -1.09045e-19)
(0.332614 0.060638 -3.14905e-20)
(0.307551 0.0538385 -8.09054e-20)
(0.283646 0.0509084 1.01704e-21)
(0.263381 0.0477589 -9.07416e-20)
(0.245809 0.0446843 6.77849e-21)
(0.228212 0.042294 -6.41714e-20)
(0.21177 0.0410394 -5.59378e-20)
(0.196036 0.0381934 -5.51867e-22)
(0.180966 0.0381787 -1.0188e-19)
(0.166292 0.0358232 5.93681e-21)
(0.151942 0.0364115 -1.40516e-19)
(0.138148 0.034006 -1.48616e-20)
(0.125296 0.0348739 -2.46096e-19)
(0.113714 0.0326409 6.59776e-21)
(0.103304 0.0347633 -3.22681e-19)
(0.0936907 0.0336268 1.07622e-19)
(0.085213 0.0366238 -2.70909e-19)
(0.0764165 0.0356929 1.12824e-19)
(0.0680293 0.0385951 -2.42949e-19)
(0.0583185 0.0378191 3.11921e-20)
(0.0485563 0.0416359 -3.53217e-19)
(0.0376881 0.0402655 -1.69944e-19)
(0.0269309 0.0437446 -4.18598e-19)
(0.0172414 0.0385755 -1.15447e-19)
(0.00687069 0.0394319 -2.06714e-19)
(1.50001 2.20511e-08 -5.86751e-21)
(1.50001 -2.75605e-08 4.73964e-21)
(1.50001 -1.91221e-08 -5.64687e-21)
(1.50002 -2.01002e-08 4.22938e-21)
(1.50002 -3.24173e-09 3.1576e-21)
(1.50003 -1.47968e-08 1.4174e-20)
(1.50005 -2.1839e-09 1.66977e-20)
(1.50006 -2.60136e-08 1.08149e-20)
(1.50009 -7.09354e-09 1.41612e-20)
(1.50012 -4.37523e-08 2.73431e-20)
(1.50016 -1.71135e-08 1.61036e-22)
(1.50021 -6.32408e-08 2.37277e-20)
(1.50027 -4.04102e-08 2.15788e-20)
(1.50035 -6.22813e-08 2.18336e-20)
(1.50045 -9.54547e-08 1.81009e-20)
(1.50056 -7.28584e-08 5.46047e-21)
(1.50069 -1.52575e-07 2.29196e-20)
(1.50085 3.17075e-08 1.13811e-20)
(1.50103 -3.73167e-07 2.47464e-20)
(1.50123 3.41146e-07 8.02179e-21)
(1.50145 -8.53026e-07 3.62928e-21)
(1.50171 -5.0558e-07 5.3654e-21)
(1.50198 -9.44444e-07 -1.56709e-21)
(1.50228 -2.10435e-06 -4.57747e-21)
(1.50262 2.32668e-07 -3.48834e-21)
(1.50293 -2.99095e-06 -2.04242e-22)
(1.5033 -3.5516e-06 -1.36171e-21)
(1.50371 7.85983e-07 -5.84636e-21)
(1.50412 -1.07599e-06 -4.74649e-21)
(1.50447 -4.0354e-06 1.02598e-22)
(1.50489 -4.68676e-06 -8.06708e-22)
(1.50536 -1.46894e-06 -2.50288e-21)
(1.50578 3.5013e-06 -8.29988e-22)
(1.50621 6.08546e-06 -3.63791e-21)
(1.50656 8.8575e-08 -4.43479e-21)
(1.50699 -1.54749e-06 -1.98845e-21)
(1.50746 4.18045e-06 -2.14332e-21)
(1.50788 3.884e-06 -3.74882e-21)
(1.50828 1.84687e-06 -2.38405e-21)
(1.50869 1.97684e-06 -2.90458e-21)
(1.50902 1.54317e-06 -3.11282e-21)
(1.5094 9.12177e-06 -2.81355e-21)
(1.50978 2.53296e-07 -1.65105e-21)
(1.5101 8.44234e-07 -3.16504e-21)
(1.51038 5.24678e-06 -3.18094e-21)
(1.51071 1.32668e-06 -2.64101e-21)
(1.51117 1.82544e-05 -2.95556e-21)
(1.51153 3.25155e-05 -1.32105e-22)
(1.51184 4.066e-05 -4.27488e-21)
(1.51212 4.1419e-05 -5.25504e-21)
(1.5124 3.1991e-05 -5.5784e-21)
(1.51261 7.74489e-06 -2.31652e-21)
(1.5129 -7.71755e-07 -2.31685e-22)
(1.51338 7.97366e-06 -2.96891e-21)
(1.51404 4.26324e-05 -2.77578e-21)
(1.51447 6.46123e-05 -4.20506e-21)
(1.51479 9.56004e-05 -4.16093e-21)
(1.51497 0.000106631 -1.46671e-21)
(1.51508 8.6722e-05 -1.20473e-21)
(1.51521 7.77418e-05 -4.49567e-21)
(1.51534 5.72935e-05 -6.62733e-21)
(1.51557 0.000100644 -4.77308e-21)
(1.51601 0.000146074 -6.67072e-21)
(1.51694 0.00019122 -7.59453e-21)
(1.51722 0.000235641 -6.13283e-21)
(1.51767 0.000305854 -7.66402e-21)
(1.51809 0.000327696 -6.76735e-21)
(1.51878 0.000374283 -5.7925e-21)
(1.51875 0.000360281 -5.1412e-21)
(1.51916 0.000236108 -5.022e-21)
(1.51778 -0.000203203 -2.48952e-21)
(1.51974 -0.00189993 -3.41307e-21)
(1.51643 -0.0177907 -1.11321e-21)
(1.50587 -0.18112 8.29933e-21)
(0.884111 -0.489059 1.88546e-20)
(0.681961 -0.369626 2.48092e-20)
(0.678083 -0.208168 5.34423e-20)
(0.657664 -0.084283 1.29106e-20)
(0.728907 -0.0267085 3.3348e-20)
(0.725177 0.0169864 4.27997e-21)
(0.737309 0.0626053 7.18995e-20)
(0.706744 0.0954091 1.37977e-20)
(0.670563 0.12196 1.36233e-19)
(0.636559 0.145047 -3.58576e-20)
(0.601431 0.163514 1.11903e-19)
(0.562259 0.169248 -2.75006e-20)
(0.529214 0.165514 1.22493e-19)
(0.498125 0.157439 8.14569e-21)
(0.468684 0.144463 6.08534e-20)
(0.443247 0.124145 4.26658e-21)
(0.419569 0.111775 3.95043e-20)
(0.397769 0.10213 5.0321e-20)
(0.377347 0.0957017 -4.56883e-20)
(0.356021 0.0923817 5.1994e-20)
(0.332991 0.0876605 -4.48766e-20)
(0.309944 0.0792303 6.4134e-20)
(0.287343 0.0748935 -6.03851e-20)
(0.267391 0.0702418 9.45488e-20)
(0.248578 0.0657522 -4.53684e-20)
(0.230778 0.0613379 1.59395e-19)
(0.21455 0.0588555 1.07541e-19)
(0.199548 0.0549439 2.82578e-19)
(0.185021 0.0536465 2.48143e-19)
(0.171037 0.0496939 4.01192e-19)
(0.156587 0.0495752 3.92706e-19)
(0.14257 0.0457485 5.58593e-19)
(0.128742 0.0465404 5.89509e-19)
(0.116089 0.0432615 7.53387e-19)
(0.104551 0.0454557 6.95346e-19)
(0.0942051 0.0435206 9.25391e-19)
(0.0851747 0.0465893 9.24772e-19)
(0.0762323 0.0451806 9.96095e-19)
(0.0679029 0.0486097 1.08893e-18)
(0.0584468 0.0474287 1.14232e-18)
(0.0492274 0.051875 1.36762e-18)
(0.0387037 0.0506473 1.14418e-18)
(0.028426 0.0549063 1.72208e-18)
(0.0187521 0.0500223 1.21992e-18)
(0.00823954 0.0520934 2.33811e-18)
(1.50001 2.56489e-08 3.42296e-21)
(1.50001 -2.99028e-08 -3.28477e-21)
(1.50001 -2.26007e-08 1.35973e-21)
(1.50002 -2.48212e-08 -6.14391e-21)
(1.50002 -4.86774e-09 -1.28944e-20)
(1.50003 -1.77915e-08 -3.37702e-20)
(1.50005 -2.04931e-09 -4.24014e-20)
(1.50006 -2.8063e-08 -2.99535e-20)
(1.50009 -6.04692e-09 -5.21334e-20)
(1.50012 -4.61078e-08 -6.69309e-20)
(1.50016 -1.63803e-08 -4.65428e-20)
(1.50021 -7.08562e-08 -6.5865e-20)
(1.50027 -3.89934e-08 -9.03565e-20)
(1.50035 -9.51453e-08 -6.28081e-20)
(1.50045 -1.07483e-07 -8.06404e-20)
(1.50056 -6.94569e-08 -4.79252e-20)
(1.50069 -2.81812e-07 -9.18562e-20)
(1.50085 -2.92205e-08 -5.76286e-20)
(1.50103 -5.56331e-07 -6.49314e-20)
(1.50123 1.75582e-07 -7.05188e-20)
(1.50145 -1.03634e-06 -6.39043e-20)
(1.50171 -8.85329e-08 -6.37582e-20)
(1.50197 -1.78105e-06 -5.27823e-20)
(1.50229 -1.15617e-06 -5.06816e-20)
(1.50259 -9.30237e-07 -4.27207e-20)
(1.50294 -2.42243e-06 -3.66487e-20)
(1.50333 -2.8928e-06 -3.3458e-20)
(1.50367 -2.91079e-06 -3.21456e-20)
(1.50408 -1.50874e-06 -3.2599e-20)
(1.50451 -1.67615e-06 -3.32519e-20)
(1.50487 -5.28719e-06 -3.19813e-20)
(1.50531 -3.21798e-06 -3.21066e-20)
(1.50576 1.62237e-06 -3.13929e-20)
(1.50622 2.20764e-06 -3.1151e-20)
(1.50666 1.17255e-06 -3.00944e-20)
(1.50703 -2.13836e-06 -2.69439e-20)
(1.50744 1.91458e-07 -2.65722e-20)
(1.50787 4.74137e-06 -2.55485e-20)
(1.50828 1.40304e-05 -2.54645e-20)
(1.50867 2.04346e-05 -2.57712e-20)
(1.50906 1.43084e-05 -2.51671e-20)
(1.50946 3.24667e-06 -2.40794e-20)
(1.50981 -4.82284e-07 -2.39584e-20)
(1.51011 5.08837e-06 -2.46091e-20)
(1.51035 9.06411e-06 -2.39288e-20)
(1.51066 1.26472e-05 -2.52308e-20)
(1.51111 1.8214e-05 -1.64667e-20)
(1.51149 2.74333e-05 -1.09907e-20)
(1.51184 4.57745e-05 -4.84072e-21)
(1.51215 5.53263e-05 -1.48866e-21)
(1.51248 6.01687e-05 1.95111e-21)
(1.51281 3.90966e-05 -2.62468e-21)
(1.51305 1.20141e-05 3.42818e-21)
(1.5134 -7.68509e-06 -4.77525e-22)
(1.51388 1.66169e-05 5.41713e-21)
(1.51442 7.26687e-05 5.06705e-21)
(1.5149 0.000129422 4.52992e-21)
(1.51527 0.000148157 7.52544e-21)
(1.51545 0.000141926 1.09205e-20)
(1.51558 0.000128955 1.40319e-20)
(1.51575 9.49671e-05 1.38406e-20)
(1.51589 9.78505e-05 1.13376e-20)
(1.51618 0.000121105 1.57129e-20)
(1.51738 0.000158928 1.7482e-20)
(1.51781 0.000203543 1.78811e-20)
(1.51858 0.000202038 1.92837e-20)
(1.51879 0.000171639 2.14246e-20)
(1.51879 0.000104755 2.27682e-20)
(1.51908 4.01763e-05 2.55756e-20)
(1.51992 0.000123279 2.17198e-20)
(1.5207 0.00014379 2.6959e-20)
(1.52145 -0.00297458 2.37968e-20)
(1.52215 -0.0281966 2.28023e-20)
(1.49793 -0.280639 6.11473e-20)
(0.776549 -0.539875 1.15387e-19)
(0.673914 -0.433877 1.25501e-19)
(0.674564 -0.252355 1.12662e-19)
(0.659582 -0.115085 3.11338e-20)
(0.692273 -0.0264754 9.68939e-20)
(0.677938 0.0270416 3.67944e-20)
(0.675624 0.0772237 8.13927e-20)
(0.631398 0.118758 1.29073e-19)
(0.604916 0.149435 4.46871e-20)
(0.560414 0.169062 1.47008e-19)
(0.533542 0.187643 1.76474e-19)
(0.497851 0.188356 1.48385e-19)
(0.469236 0.184313 5.69187e-20)
(0.442584 0.170124 1.2892e-19)
(0.419648 0.156645 5.86694e-20)
(0.401456 0.138713 1.58839e-19)
(0.385177 0.131317 3.69343e-20)
(0.371636 0.122474 1.4289e-19)
(0.357007 0.117321 6.61463e-20)
(0.339287 0.113606 1.26134e-19)
(0.319809 0.108445 -1.17574e-20)
(0.302791 0.0980092 7.09659e-20)
(0.286382 0.0929819 1.5286e-20)
(0.271786 0.0877464 -4.5218e-20)
(0.256581 0.0824378 -7.62065e-20)
(0.23979 0.076742 -2.11775e-19)
(0.2222 0.0741121 -1.23482e-19)
(0.205133 0.0705164 -3.9884e-19)
(0.18907 0.0690964 -3.06301e-19)
(0.17391 0.0647254 -3.71859e-19)
(0.158656 0.0644809 -3.78231e-19)
(0.144424 0.0595952 -3.3329e-19)
(0.130367 0.0599516 -5.02809e-19)
(0.117992 0.0552249 -5.65454e-19)
(0.106303 0.0568087 -5.00284e-19)
(0.0962468 0.053614 -8.26588e-19)
(0.087164 0.056462 -5.01824e-19)
(0.0781775 0.0544919 -9.02886e-19)
(0.0696733 0.0584276 -3.84383e-19)
(0.0600049 0.0570402 -6.04083e-19)
(0.0508604 0.0622242 1.04371e-19)
(0.0402929 0.0611181 3.70968e-20)
(0.0301817 0.066152 -1.13142e-19)
(0.0205549 0.0616752 3.7043e-19)
(0.00989082 0.0648567 -1.32185e-18)
(1.50001 2.75956e-08 5.21951e-21)
(1.50001 -2.98795e-08 8.61498e-21)
(1.50001 -2.43111e-08 8.1781e-21)
(1.50002 -2.77266e-08 -9.04398e-21)
(1.50002 -7.5845e-09 3.68753e-21)
(1.50003 -2.2678e-08 2.07159e-20)
(1.50005 -6.98816e-09 -7.36534e-21)
(1.50006 -3.89546e-08 1.70798e-20)
(1.50009 -1.77736e-08 2.50383e-21)
(1.50012 -6.65115e-08 1.58393e-21)
(1.50016 -3.80337e-08 5.31657e-21)
(1.50021 -1.04082e-07 5.61939e-21)
(1.50027 -6.67296e-08 3.9256e-20)
(1.50035 -1.33003e-07 1.22384e-20)
(1.50045 -1.45304e-07 2.66142e-21)
(1.50056 -1.24243e-07 -1.84198e-21)
(1.50069 -3.12986e-07 2.51154e-20)
(1.50085 -6.47641e-08 3.08885e-20)
(1.50103 -5.15891e-07 2.53419e-20)
(1.50123 -1.27917e-07 4.81582e-20)
(1.50146 -1.22849e-07 5.14579e-20)
(1.5017 -1.17751e-06 6.22587e-20)
(1.50198 -5.77098e-07 5.95478e-20)
(1.50228 -1.68452e-06 7.47206e-20)
(1.5026 -2.73908e-06 6.20435e-20)
(1.50295 -1.12262e-06 6.09165e-20)
(1.5033 -1.21235e-06 6.23222e-20)
(1.50368 -4.50972e-06 6.65778e-20)
(1.50408 -2.72589e-06 7.16478e-20)
(1.5045 4.43799e-07 6.40675e-20)
(1.5049 -2.69232e-06 6.55431e-20)
(1.50531 -4.14106e-06 6.9021e-20)
(1.50575 -4.4095e-06 7.20002e-20)
(1.5062 -4.33424e-06 7.26576e-20)
(1.50662 2.77868e-06 7.20885e-20)
(1.50702 4.58391e-06 7.30546e-20)
(1.50747 1.48807e-06 7.41616e-20)
(1.50789 1.0198e-06 7.52428e-20)
(1.50826 6.68982e-06 7.82197e-20)
(1.50867 9.56843e-06 7.98963e-20)
(1.50912 6.60353e-06 8.05819e-20)
(1.50951 9.96445e-06 7.9384e-20)
(1.50986 1.82945e-05 7.94269e-20)
(1.51015 2.11128e-05 7.98245e-20)
(1.51036 2.80592e-06 7.86573e-20)
(1.51065 6.50557e-06 8.06936e-20)
(1.51108 3.81249e-06 7.67651e-20)
(1.51147 1.13904e-05 7.25737e-20)
(1.51182 3.25017e-05 7.29061e-20)
(1.51217 4.07928e-05 6.89635e-20)
(1.51252 4.78021e-05 7.10336e-20)
(1.51291 4.25332e-05 6.77295e-20)
(1.51332 4.04979e-05 6.8898e-20)
(1.5137 3.47113e-05 7.34567e-20)
(1.51398 4.32316e-05 7.09791e-20)
(1.51434 4.26375e-05 6.7857e-20)
(1.51476 7.52682e-05 7.7562e-20)
(1.51535 0.000107528 7.70106e-20)
(1.5156 0.000119094 7.36413e-20)
(1.51579 0.000132738 7.12026e-20)
(1.51602 0.000107951 7.02603e-20)
(1.51615 0.000102554 7.40675e-20)
(1.51641 9.3693e-05 7.46901e-20)
(1.51695 0.000146118 7.43972e-20)
(1.51749 0.000166643 7.72091e-20)
(1.51765 0.000174305 7.35457e-20)
(1.51784 0.000249673 7.28632e-20)
(1.51828 0.000157995 7.30671e-20)
(1.51966 0.000292272 7.13377e-20)
(1.52118 0.000527098 7.08128e-20)
(1.5241 9.90138e-05 6.91276e-20)
(1.52084 -0.00487806 7.01116e-20)
(1.51766 -0.0493994 7.64073e-20)
(1.38972 -0.417421 1.98018e-19)
(0.736603 -0.585611 2.42384e-19)
(0.68843 -0.50061 2.56288e-19)
(0.691419 -0.322862 2.11084e-19)
(0.6686 -0.130836 6.24527e-20)
(0.675276 -0.00384158 -1.24938e-20)
(0.626911 0.0692779 1.04334e-19)
(0.611277 0.119156 -1.26046e-19)
(0.564797 0.159749 1.36728e-20)
(0.534754 0.185864 1.2693e-19)
(0.499949 0.198699 7.25686e-20)
(0.481923 0.213618 5.55508e-20)
(0.456972 0.213337 1.70139e-19)
(0.433727 0.211857 1.57291e-19)
(0.410887 0.195862 2.73523e-19)
(0.385171 0.175905 2.21413e-19)
(0.369877 0.155579 3.24941e-19)
(0.352501 0.144739 2.69884e-19)
(0.340571 0.134587 2.82368e-19)
(0.327056 0.129377 2.68161e-19)
(0.312299 0.127875 3.17107e-19)
(0.298742 0.122283 3.33582e-19)
(0.289545 0.11287 4.11055e-19)
(0.277982 0.108622 3.37584e-19)
(0.266312 0.104267 2.28034e-19)
(0.25357 0.0997879 3.08388e-19)
(0.239644 0.0942268 4.14225e-19)
(0.22512 0.0906345 2.75393e-19)
(0.210558 0.0858262 5.39282e-19)
(0.195703 0.0837448 3.99205e-19)
(0.181458 0.0785452 5.66246e-19)
(0.166486 0.0779808 5.77386e-19)
(0.15228 0.0724156 7.09813e-19)
(0.137458 0.0725587 9.15794e-19)
(0.124528 0.0668622 1.23979e-18)
(0.111909 0.0680304 1.46823e-18)
(0.101394 0.0637335 1.89721e-18)
(0.0916322 0.0668309 2.20789e-18)
(0.0821093 0.0642795 2.89869e-18)
(0.0730851 0.0686536 2.75956e-18)
(0.0629563 0.0671226 4.0107e-18)
(0.0535597 0.0728591 3.51448e-18)
(0.0427467 0.0717493 5.33189e-18)
(0.032626 0.0776163 4.93581e-18)
(0.0228411 0.0737042 6.34704e-18)
(0.0120056 0.0778233 7.76704e-18)
(1.50001 2.76583e-08 1.05003e-21)
(1.50001 -2.9068e-08 -5.06554e-21)
(1.50001 -2.51774e-08 1.64791e-20)
(1.50002 -3.20442e-08 1.53169e-20)
(1.50002 -1.03284e-08 2.11967e-20)
(1.50003 -2.69837e-08 2.98148e-20)
(1.50005 -8.54602e-09 7.47959e-20)
(1.50006 -4.29724e-08 6.62864e-20)
(1.50009 -1.76941e-08 9.23926e-20)
(1.50012 -7.09639e-08 1.05703e-19)
(1.50016 -3.687e-08 1.22422e-19)
(1.50021 -1.0764e-07 1.28413e-19)
(1.50028 -7.77525e-08 1.38331e-19)
(1.50035 -1.57616e-07 1.75079e-19)
(1.50045 -1.5155e-07 2.0266e-19)
(1.50056 -1.73319e-07 1.75627e-19)
(1.50069 -3.40098e-07 1.94587e-19)
(1.50085 -1.12454e-07 1.60272e-19)
(1.50103 -5.891e-07 1.47096e-19)
(1.50123 -4.41171e-08 1.74406e-19)