/*--------------------------------*- C++ -*----------------------------------*\
| =========                 |                                                 |
| \\      /  F ield         | OpenFOAM: The Open Source CFD Toolbox           |
|  \\    /   O peration     | Version:  2.2.x                                 |
|   \\  /    A nd           | Web:      www.OpenFOAM.org                      |
|    \\/     M anipulation  |                                                 |
\*---------------------------------------------------------------------------*/
FoamFile
{
    version     2.0;
    format      ascii;
    class       surfaceScalarField;
    location    "0.4";
    object      cfmax;
}
// * * * * * * * * * * * * * * * * * * * * * * * * * * * * * * * * * * * * * //

dimensions      [0 3 -1 0 0 0 0];

internalField   nonuniform List<scalar> 
28084
(
0.00103347
0.00102899
0.00102514
0.0010219
0.00101925
0.00101715
0.00101556
0.00101446
0.0010138
0.00101356
0.00101369
0.00101415
0.00101492
0.00101594
0.00101719
0.00101863
0.00102022
0.00102194
0.00102374
0.0010256
0.00102748
0.00102938
0.00103125
0.00103308
0.00103485
0.00103654
0.00103812
0.0010396
0.00104094
0.00104215
0.00104321
0.00104411
0.00104484
0.0010454
0.00104578
0.00104597
0.00104597
0.00104575
0.00104519
0.00104332
0.00103406
0.00100461
0.000869113
0.000780881
0.000755857
0.000757827
0.000764491
0.000772756
0.00078163
0.000790624
0.00079936
0.000807668
0.000815575
0.000823651
0.000831787
0.000840117
0.000848668
0.000857032
0.000865031
0.000872573
0.000879595
0.000886094
0.000892117
0.000897773
0.000903089
0.000908041
0.00091245
0.000916185
0.000919099
0.00092112
0.000922254
0.000922674
0.000922561
0.000921944
0.000920758
0.000918863
0.000916174
0.000912645
0.000908313
0.000903271
0.000897686
0.000891591
0.000885001
0.000877879
0.000870202
0.000862021
0.000853449
0.00084466
0.000835797
0.00082691
0.000818063
0.00080924
0.000800471
0.000791856
0.000783535
0.000775653
0.000768341
0.000761699
0.000755806
0.000750735
0.000746585
0.00074349
0.000741538
0.000740826
0.000741391
0.000743291
0.000746622
0.000751491
0.000758009
0.000766293
0.000776482
0.000788773
0.000803463
0.000820988
0.000841936
0.000864361
0.000886761
0.000909392
0.00144695
0.00144445
0.00103834
0.00143891
0.00103701
0.00143036
0.00103628
0.00141888
0.00103613
0.00140457
0.00103652
0.00138752
0.00103742
0.00136789
0.00103881
0.00134583
0.00104065
0.00132151
0.0010429
0.00129529
0.00104552
0.00126748
0.00104847
0.00123793
0.00105172
0.00120683
0.00105522
0.0011744
0.00105893
0.00114085
0.00106282
0.00110637
0.00106683
0.00107116
0.00107094
0.00103541
0.0010751
0.000999315
0.00107929
0.000963037
0.00108347
0.000926741
0.00108761
0.000890577
0.00109167
0.000854685
0.00109564
0.000819189
0.0010995
0.000784203
0.00110321
0.000749827
0.00110676
0.00071615
0.00111013
0.000683247
0.00111331
0.000651184
0.00111628
0.000620013
0.00111904
0.000589778
0.00112156
0.000560514
0.00112385
0.000532244
0.0011259
0.000504987
0.00112769
0.000478751
0.00112923
0.000453541
0.00113052
0.000429635
0.00113153
0.00040679
0.00113226
0.000385248
0.00113256
0.000367103
0.00113141
0.000367436
0.00112221
0.000453573
0.001091
0.000514397
0.000944558
0.000513603
0.000848785
0.000519027
0.000821868
0.000519991
0.000822621
0.000520442
0.000828499
0.000521197
0.0008361
0.000522126
0.000844306
0.000523048
0.000852597
0.000523906
0.000860573
0.000524727
0.000868045
0.000525548
0.00087513
0.000526456
0.000882373
0.00052751
0.00088968
0.000528773
0.000897193
0.000530178
0.000904921
0.00053162
0.000912424
0.000533089
0.000919533
0.000534597
0.00092615
0.000536155
0.000932217
0.000537776
0.000937744
0.000539692
0.000942792
0.00054189
0.000947471
0.000544251
0.000951816
0.00054675
0.000955802
0.000549341
0.000959241
0.00055201
0.000962
0.000554752
0.000963929
0.000557568
0.00096496
0.000560458
0.000965099
0.000563459
0.000964547
0.000566606
0.000963473
0.000569906
0.000961912
0.000573309
0.000959784
0.000576782
0.000956949
0.000580323
0.000953313
0.000583934
0.000948827
0.000587625
0.000943537
0.000591417
0.00093754
0.000595334
0.000931008
0.000599374
0.000923987
0.000603518
0.000916485
0.000607745
0.000908467
0.000612049
0.000899909
0.00061643
0.00089086
0.000620898
0.000881432
0.000625484
0.000871804
0.000630206
0.000862116
0.000635052
0.00085242
0.000640009
0.000842776
0.000645056
0.000833162
0.000650186
0.000823609
0.0006554
0.000814214
0.000660717
0.000805118
0.000666163
0.000796466
0.000671769
0.000788386
0.000677546
0.000780978
0.00068349
0.000774318
0.00068959
0.000768475
0.000695847
0.000763548
0.00070228
0.000759671
0.000708899
0.000756931
0.000715715
0.000755418
0.000722739
0.000755165
0.000730003
0.000756228
0.000737543
0.000758703
0.000745411
0.000762697
0.000753694
0.000768321
0.000762511
0.000775697
0.000772047
0.000784974
0.000782505
0.000796371
0.000794246
0.000810222
0.000807575
0.000826966
0.000821233
0.000847139
0.000834002
0.00086842
0.00084506
0.000889575
0.00085527
0.000910762
0.00144822
0.00144528
0.00104484
0.00143931
0.00104663
0.00143035
0.00104898
0.00141848
0.00105187
0.00140379
0.00105526
0.0013864
0.00105914
0.00136751
0.00106347
0.00134639
0.00106821
0.00132293
0.00107333
0.00129731
0.00107879
0.00126971
0.00108454
0.00124035
0.00109054
0.00120941
0.00109674
0.00117711
0.00110311
0.00114365
0.0011096
0.00110924
0.00111616
0.00107407
0.00112276
0.00103835
0.00112935
0.00100224
0.0011359
0.00096594
0.00114237
0.000929597
0.00114873
0.000893368
0.00115495
0.000857392
0.00116099
0.000821797
0.00116685
0.000786698
0.00117248
0.000752197
0.00117787
0.000718383
0.00118301
0.000685334
0.00118788
0.000653115
0.00119246
0.000621782
0.00119674
0.000591379
0.00120072
0.000561941
0.00120438
0.000533494
0.00120773
0.000506055
0.00121075
0.000479635
0.00121344
0.000454238
0.0012158
0.000429865
0.00121782
0.00040654
0.00121949
0.000385056
0.00122064
0.000367103
0.00122021
0.00036779
0.0012111
0.00045501
0.00117853
0.000516228
0.00102102
0.000515456
0.000917786
0.000520484
0.000888847
0.000521429
0.000888329
0.00052177
0.000893408
0.000522532
0.000900344
0.000523506
0.000907874
0.00052443
0.000915449
0.000525218
0.000922653
0.000525936
0.000929288
0.00052666
0.000935578
0.000527477
0.000942
0.000528432
0.000948492
0.000529581
0.000955223
0.000530861
0.000962157
0.000532171
0.000968822
0.000533503
0.000975058
0.000534863
0.000980761
0.000536264
0.000985888
0.000538341
0.000990455
0.000540561
0.000994535
0.000542933
0.000998248
0.00054548
0.00100163
0.000548173
0.00100466
0.000550965
0.00100713
0.00055384
0.00100891
0.000556793
0.00100985
0.000559825
0.00100988
0.000562931
0.00100901
0.000566149
0.00100749
0.000569516
0.00100546
0.000573031
0.00100297
0.000576644
0.000999905
0.000580319
0.000996133
0.000584052
0.000991547
0.000587847
0.000986104
0.000591716
0.000979855
0.000595678
0.000972904
0.000599758
0.000965423
0.000603953
0.000957463
0.00060824
0.000949034
0.000612594
0.000940099
0.000617005
0.000930634
0.000621474
0.000920692
0.000626012
0.000910383
0.000630652
0.000899897
0.000635414
0.000889365
0.000640287
0.000878838
0.000645255
0.000868373
0.000650296
0.000857944
0.000655403
0.000847583
0.00066058
0.000837387
0.000665848
0.000827496
0.00067124
0.000818055
0.000676788
0.000809191
0.000682506
0.000801001
0.000688393
0.000793556
0.000694439
0.00078692
0.000700656
0.000781196
0.000707066
0.000776512
0.000713682
0.000772951
0.000720517
0.000770597
0.000727586
0.000769474
0.00073494
0.000769638
0.000742626
0.00077119
0.000750713
0.000774251
0.000759294
0.000778935
0.000768496
0.000785362
0.000778497
0.000793681
0.000789509
0.00080411
0.000801915
0.000816986
0.000816029
0.00083275
0.000830527
0.000851948
0.000844213
0.000872179
0.000856258
0.000892158
0.000867874
0.000911955
0.00144723
0.00144388
0.00105298
0.0014375
0.00105784
0.00142816
0.00106322
0.00141756
0.00106911
0.00140475
0.00107547
0.00138914
0.00108228
0.00137083
0.00108951
0.00134999
0.00109712
0.00132678
0.00110507
0.00130137
0.00111333
0.00127395
0.00112183
0.00124473
0.00113055
0.00121392
0.00113943
0.0011817
0.00114842
0.0011483
0.00115748
0.00111392
0.00116655
0.00107875
0.00117561
0.001043
0.0011846
0.00100685
0.00119348
0.000970463
0.00120222
0.00093402
0.00121077
0.00089767
0.00121911
0.000861556
0.00122721
0.000825806
0.00123503
0.000790537
0.00124257
0.000755853
0.00124978
0.000721845
0.00125666
0.000688592
0.00126319
0.000656161
0.00126936
0.00062461
0.00127516
0.000593982
0.00128057
0.000564315
0.00128559
0.000535635
0.00129021
0.000507961
0.00129444
0.000481304
0.00129827
0.000455667
0.00130169
0.000431055
0.00130471
0.000407488
0.0013073
0.000385196
0.0013093
0.000366533
0.00130958
0.00036727
0.00130061
0.000455344
0.00126695
0.000517585
0.00109839
0.000517152
0.000987368
0.000521607
0.000956406
0.000522552
0.000954746
0.000522823
0.000959105
0.000523597
0.000965434
0.000524617
0.000972334
0.000525544
0.00097924
0.000526257
0.00098572
0.00052687
0.000991565
0.000527514
0.00099705
0.000528243
0.00100265
0.000529104
0.00100831
0.000530132
0.00101426
0.000531269
0.00102041
0.000532427
0.00102624
0.0005336
0.00103162
0.000535094
0.00103642
0.000537236
0.00104062
0.000539487
0.00104425
0.000541867
0.00104737
0.000544411
0.00105013
0.000547141
0.00105257
0.000550021
0.00105464
0.000553007
0.00105616
0.000556081
0.00105696
0.000559238
0.0010569
0.000562474
0.00105593
0.000565787
0.00105405
0.000569218
0.00105154
0.000572804
0.00104855
0.000576541
0.00104512
0.000580371
0.00104112
0.000584257
0.0010364
0.000588195
0.00103087
0.000592187
0.00102447
0.000596242
0.00101726
0.000600383
0.00100937
0.000604632
0.00100095
0.000608983
0.000992056
0.00061341
0.0009827
0.000617887
0.000972841
0.000622402
0.000962457
0.000626954
0.000951602
0.000631557
0.000940393
0.000636246
0.000929033
0.000641043
0.00091764
0.000645935
0.00090626
0.000650904
0.000894949
0.00065593
0.00088368
0.000661003
0.000872486
0.000666133
0.000861466
0.000671343
0.000850758
0.000676671
0.000840507
0.000682155
0.000830839
0.00068781
0.000821848
0.000693634
0.000813602
0.000699624
0.000806148
0.000705798
0.000799608
0.000712182
0.000794096
0.000718795
0.000789685
0.000725657
0.000786456
0.000732793
0.000784422
0.000740252
0.000783641
0.000748104
0.000784221
0.000756425
0.000786297
0.000765323
0.000789998
0.000774922
0.000795449
0.000785406
0.00080279
0.000796992
0.000812232
0.000810077
0.0008241
0.00082502
0.000838818
0.000840475
0.000856949
0.000855268
0.00087608
0.000868564
0.000894831
0.000881615
0.000913179
0.00144401
0.00144151
0.00106275
0.00143809
0.00107063
0.00143159
0.001079
0.00142207
0.00108783
0.00140959
0.00109711
0.00139428
0.00110681
0.00137625
0.0011169
0.00135566
0.00112734
0.00133266
0.00113808
0.00130744
0.00114909
0.00128018
0.00116032
0.00125108
0.00117171
0.00122034
0.00118322
0.00118818
0.00119479
0.0011548
0.00120639
0.0011204
0.00121795
0.00108519
0.00122942
0.00104936
0.00124078
0.0010131
0.00125196
0.000976592
0.00126292
0.000939996
0.00127364
0.000903473
0.00128408
0.000867165
0.00129419
0.000831204
0.00130397
0.000795709
0.00131337
0.000760785
0.00132238
0.000726525
0.00133098
0.000693011
0.00133915
0.000660312
0.00134688
0.000628485
0.00135416
0.000597577
0.00136098
0.000567626
0.00136734
0.000538659
0.00137323
0.000510696
0.00137865
0.000483749
0.00138359
0.000457823
0.00138806
0.000432921
0.00139206
0.000409063
0.00139556
0.000386466
0.0013984
0.000367026
0.00139941
0.000366053
0.00139063
0.000455065
0.00135609
0.000518786
0.00117661
0.00051878
0.00105725
0.000522744
0.00102396
0.000523689
0.00102106
0.000523886
0.00102465
0.000524681
0.00103028
0.000525759
0.00103641
0.000526711
0.00104245
0.000527416
0.00104797
0.000527959
0.00105277
0.000528527
0.00105744
0.000529168
0.00106218
0.000529928
0.00106703
0.000530837
0.00107218
0.000531835
0.0010775
0.000532834
0.00108245
0.00053402
0.0010869
0.000536195
0.00109076
0.000538482
0.00109399
0.000540888
0.00109665
0.000543432
0.00109882
0.000546155
0.00110064
0.00054907
0.00110212
0.000552132
0.00110321
0.000555296
0.00110372
0.000558553
0.00110348
0.000561894
0.00110236
0.000565318
0.00110031
0.000568829
0.00109737
0.000572471
0.00109387
0.000576276
0.00108989
0.000580229
0.00108548
0.000584267
0.00108048
0.000588361
0.00107478
0.000592504
0.00106824
0.000596694
0.00106085
0.000600943
0.00105268
0.00060527
0.00104383
0.000609696
0.00103448
0.000614211
0.00102467
0.000618785
0.00101441
0.000623391
0.00100364
0.000628014
0.000992357
0.000632655
0.000980617
0.000637331
0.000968544
0.000642082
0.000956348
0.000646922
0.000944134
0.00065184
0.000931946
0.000656815
0.000919835
0.000661829
0.000907769
0.000666874
0.000895785
0.000671961
0.000883986
0.000677117
0.000872509
0.000682383
0.000861491
0.000687802
0.000851057
0.000693395
0.000841302
0.00069916
0.000832299
0.000705096
0.000824103
0.000711234
0.000816819
0.000717605
0.000810564
0.000724234
0.000805411
0.000731148
0.000801435
0.000738383
0.000798649
0.000745984
0.00079711
0.000754015
0.00079692
0.000762569
0.000798195
0.000771775
0.000801058
0.000781772
0.000805634
0.000792752
0.00081207
0.000804933
0.000820568
0.000818728
0.000831443
0.000834532
0.0008451
0.00085105
0.000862064
0.000867107
0.000880012
0.000881872
0.000897462
0.00089636
0.000914302
0.00144709
0.00144715
0.00107416
0.00144408
0.00108501
0.00143792
0.0010963
0.00142871
0.00110804
0.00141655
0.00112019
0.00140151
0.00113272
0.00138374
0.00114562
0.00136337
0.00115883
0.00134057
0.00117232
0.0013155
0.00118604
0.00128837
0.00119994
0.00125935
0.00121397
0.00122867
0.00122807
0.00119652
0.00124218
0.00116312
0.00125627
0.00112866
0.00127027
0.00109336
0.00128413
0.00105741
0.00129781
0.001021
0.00131125
0.000984311
0.00132441
0.000947511
0.00133726
0.00091076
0.00134975
0.000874204
0.00136185
0.000837977
0.00137354
0.000802199
0.00138478
0.000766979
0.00139556
0.000732412
0.00140584
0.00069858
0.00141563
0.000665556
0.0014249
0.000633397
0.00143364
0.000602154
0.00144185
0.000571863
0.00144953
0.000542556
0.00145666
0.000514252
0.00146324
0.000486963
0.00146928
0.000460697
0.00147478
0.000435455
0.00147974
0.000411257
0.00148414
0.000388305
0.00148781
0.000368383
0.00148955
0.000364258
0.00148105
0.000454286
0.00144611
0.000519991
0.00125583
0.000520529
0.00112758
0.000523732
0.0010917
0.000524619
0.00108745
0.000524736
0.00109024
0.00052553
0.00109525
0.000526653
0.0011007
0.000527598
0.00110598
0.000528203
0.00111068
0.00052863
0.00111459
0.000529114
0.0011185
0.000529675
0.00112246
0.000530343
0.00112653
0.000531123
0.00113095
0.000531968
0.00113544
0.000533537
0.00113952
0.000535746
0.00114307
0.000538065
0.00114599
0.000540506
0.00114827
0.000543076
0.00114997
0.000545794
0.00115121
0.0005487
0.00115209
0.000551804
0.00115265
0.000555056
0.00115277
0.000558406
0.00115227
0.000561854
0.00115099
0.000565386
0.00114879
0.000569004
0.00114566
0.000572715
0.00114168
0.000576567
0.00113719
0.000580588
0.00113223
0.00058476
0.00112683
0.000589021
0.00112083
0.000593335
0.00111411
0.000597694
0.00110655
0.000602094
0.00109813
0.000606544
0.00108896
0.000611065
0.00107914
0.000615672
0.00106883
0.000620351
0.00105807
0.000625067
0.00104685
0.000629792
0.00103512
0.000634513
0.00102288
0.000639233
0.0010102
0.00064397
0.00099722
0.000648769
0.00098414
0.00065364
0.000971056
0.000658567
0.000958014
0.000663528
0.000945052
0.000668509
0.000932138
0.000673503
0.000919317
0.000678526
0.000906699
0.000683602
0.000894421
0.000688768
0.000882611
0.000694074
0.000871384
0.000699552
0.000860833
0.000705212
0.00085104
0.00071106
0.00084207
0.000717125
0.000834015
0.000723447
0.000826992
0.000730054
0.000821072
0.000736984
0.000816325
0.000744282
0.000812761
0.000752
0.000810438
0.000760209
0.000809458
0.000769008
0.000809931
0.000778536
0.000811969
0.000788944
0.00081569
0.000800444
0.000821232
0.000813264
0.000828794
0.000827833
0.000838684
0.000844561
0.000851298
0.000862268
0.000867114
0.000879695
0.000883854
0.000896104
0.000900005
0.000912033
0.000915332
0.00145458
0.00145496
0.00108721
0.00145222
0.00110097
0.00144638
0.00111514
0.00143747
0.00112971
0.00142559
0.00114467
0.00141082
0.00115999
0.00139328
0.00117564
0.00137311
0.00119158
0.00135047
0.00120776
0.00132554
0.00122414
0.0012985
0.00124066
0.00126954
0.00125727
0.00123887
0.00127391
0.0012067
0.00129053
0.00117324
0.00130706
0.00113868
0.00132345
0.00110325
0.00133965
0.00106713
0.00135561
0.00103052
0.00137127
0.000993604
0.00138659
0.000956548
0.00140152
0.000919517
0.00141604
0.000882659
0.00143009
0.00084611
0.00144365
0.000809995
0.0014567
0.000774422
0.00146921
0.000739491
0.00148115
0.000705286
0.00149252
0.00067188
0.0015033
0.000639335
0.00151348
0.000607701
0.00152305
0.000577018
0.00153201
0.000547317
0.00154036
0.000518619
0.00154809
0.000490937
0.00155521
0.00046428
0.00156172
0.000438649
0.00156762
0.000414063
0.0015729
0.000390704
0.00157739
0.000370208
0.00157988
0.000363399
0.00157177
0.000452655
0.0015372
0.000521049
0.00133625
0.000522336
0.00119863
0.000524411
0.00115992
0.000525243
0.00115441
0.00052536
0.00115649
0.000526183
0.0011609
0.000527311
0.00116567
0.000528217
0.00117016
0.000528757
0.00117397
0.0005291
0.00117692
0.000529502
0.00118005
0.000529975
0.00118317
0.00053054
0.00118647
0.00053119
0.00119011
0.000533223
0.00119371
0.000535466
0.00119685
0.000537806
0.00119944
0.000540267
0.00120139
0.000542863
0.00120271
0.000545596
0.00120346
0.000548493
0.00120383
0.000551585
0.00120386
0.000554883
0.00120358
0.000558324
0.0012028
0.000561863
0.00120136
0.000565493
0.00119908
0.000569205
0.00119587
0.000572999
0.00119173
0.000576907
0.00118677
0.000580969
0.00118131
0.000585214
0.0011754
0.000589612
0.00116905
0.000594093
0.00116204
0.000598627
0.00115429
0.000603206
0.00114569
0.000607825
0.00113625
0.000612488
0.00112607
0.000617217
0.00111527
0.00062202
0.00110399
0.000626872
0.00109224
0.000631737
0.00108003
0.000636589
0.00106731
0.000641416
0.00105407
0.000646223
0.00104042
0.000651037
0.00102647
0.000655898
0.00101245
0.000660805
0.000998446
0.000665742
0.000984493
0.000670688
0.000970616
0.000675629
0.000956795
0.000680564
0.000943085
0.000685513
0.000929603
0.000690504
0.000916484
0.000695573
0.000903849
0.000700766
0.000891806
0.000706112
0.000880436
0.000711646
0.000869827
0.000717381
0.000860051
0.000723349
0.000851197
0.000729599
0.000843374
0.000736166
0.000836652
0.000743096
0.00083109
0.000750443
0.0008267
0.000758267
0.000823542
0.000766649
0.000821717
0.000775693
0.000821328
0.000785555
0.000822483
0.000796395
0.000825293
0.000808441
0.000829895
0.00082193
0.000836486
0.000837309
0.000845367
0.000855004
0.000856916
0.000874044
0.000871611
0.000892922
0.000887223
0.000911088
0.000902125
0.000928416
0.000915974
0.00146423
0.00146492
0.00110193
0.00146248
0.00111852
0.00145693
0.0011355
0.00144831
0.00115285
0.00143669
0.00117056
0.00142216
0.0011886
0.00140483
0.00120695
0.00138484
0.00122555
0.00136235
0.00124437
0.00133752
0.00126335
0.00131055
0.00128244
0.00128162
0.00130158
0.00125093
0.00132071
0.0012187
0.00133977
0.00118514
0.00135869
0.00115045
0.00137743
0.00111484
0.00139592
0.0010785
0.00141411
0.00104165
0.00143195
0.00100445
0.00144938
0.000967089
0.00146636
0.000929725
0.00148284
0.000892512
0.00149881
0.000855587
0.00151421
0.000819079
0.00152902
0.000783099
0.00154322
0.000747749
0.00155679
0.000713115
0.00156971
0.000679273
0.00158196
0.000646286
0.00159355
0.000614207
0.00160445
0.000583078
0.00161467
0.00055293
0.00162421
0.000523786
0.00163307
0.000495661
0.00164124
0.000468563
0.00164874
0.000442495
0.00165556
0.000417472
0.0016617
0.000393655
0.00166699
0.000372496
0.00167026
0.000363227
0.00166267
0.000449646
0.00162924
0.000521648
0.001418
0.000523957
0.00127014
0.000524884
0.00122835
0.000525633
0.00122162
0.000525751
0.00122294
0.000526656
0.00122662
0.000527829
0.00123053
0.000528693
0.00123401
0.000529131
0.00123671
0.000529382
0.00123884
0.000529702
0.00124111
0.000530104
0.00124341
0.000530951
0.00124599
0.000533153
0.00124889
0.000535452
0.00125157
0.000537809
0.0012538
0.000540274
0.00125543
0.000542864
0.00125644
0.000545588
0.00125683
0.000548458
0.00125669
0.000551514
0.00125618
0.000554798
0.00125535
0.000558275
0.00125418
0.000561879
0.00125243
0.000565586
0.00124995
0.000569394
0.00124657
0.000573294
0.00124224
0.000577287
0.00123699
0.00058141
0.00123102
0.000585715
0.00122458
0.00059021
0.00121771
0.000594835
0.00121035
0.000599536
0.00120231
0.000604293
0.00119349
0.000609096
0.00118382
0.000613946
0.00117335
0.000618843
0.00116217
0.000623797
0.00115047
0.000628813
0.00113832
0.000633856
0.00112571
0.000638888
0.00111263
0.000643888
0.00109903
0.000648845
0.00108493
0.000653766
0.00107043
0.00065868
0.00105567
0.000663607
0.00104085
0.000668549
0.00102603
0.00067349
0.00101125
0.000678406
0.00099651
0.000683293
0.000981813
0.000688155
0.000967231
0.000693012
0.000952883
0.000697897
0.000938903
0.000702848
0.000925404
0.000707912
0.000912491
0.000713121
0.000900252
0.000718511
0.00088878
0.000724113
0.000878147
0.000729966
0.000868452
0.000736125
0.000859793
0.000742631
0.000852232
0.000749539
0.000845815
0.000756919
0.000840552
0.000764841
0.000836513
0.000773391
0.000833794
0.000782683
0.000832496
0.000792884
0.000832722
0.000804164
0.000834584
0.000816764
0.000838219
0.000830934
0.000843824
0.000847132
0.000851693
0.00086581
0.000862182
0.000886174
0.000875754
0.000906657
0.00089028
0.000926666
0.000903983
0.000945191
0.000916597
0.00147602
0.00147699
0.00111832
0.00147483
0.00113767
0.00146956
0.00115738
0.0014612
0.00117744
0.00144983
0.00119783
0.00143551
0.00121853
0.00141838
0.00123951
0.00139855
0.00126071
0.00137618
0.0012821
0.00135143
0.00130363
0.00132449
0.00132522
0.00129555
0.00134683
0.00126482
0.00136839
0.0012325
0.00138984
0.0011988
0.00141111
0.00116393
0.00143214
0.00112809
0.00145287
0.00109151
0.00147324
0.00105436
0.00149319
0.00101683
0.00151268
0.000979113
0.00153166
0.000941365
0.00155008
0.000903743
0.0015679
0.00086639
0.0015851
0.000829435
0.00160164
0.000792993
0.00161749
0.000757168
0.00163264
0.000722051
0.00164707
0.000687718
0.00166077
0.000654236
0.00167372
0.000621659
0.00168593
0.00059003
0.00169738
0.000559383
0.00170808
0.000529742
0.00171803
0.000501124
0.00172723
0.000473536
0.0017357
0.000446982
0.00174342
0.000421476
0.0017504
0.000397153
0.00175648
0.000375263
0.00176054
0.000363269
0.00175362
0.000445299
0.00172217
0.000521804
0.00150119
0.000525389
0.00134196
0.000525175
0.00129666
0.000525803
0.00128854
0.000525949
0.00128899
0.000526914
0.00129188
0.000528106
0.00129491
0.000528927
0.00129741
0.00052926
0.00129902
0.00052942
0.00130047
0.000529734
0.00130196
0.000531428
0.00130353
0.000533493
0.0013055
0.000535799
0.00130768
0.000538171
0.00130951
0.000540614
0.0013108
0.000543174
0.00131145
0.000545879
0.00131145
0.000548739
0.00131085
0.000551775
0.0013098
0.00055503
0.00130841
0.000558519
0.00130672
0.000562183
0.00130459
0.000565967
0.00130182
0.000569866
0.00129823
0.000573873
0.00129371
0.000577982
0.00128823
0.000582189
0.00128186
0.000586549
0.00127495
0.000591108
0.00126759
0.000595854
0.00125982
0.000600716
0.00125149
0.000605652
0.00124246
0.000610648
0.00123262
0.000615685
0.00122194
0.000620753
0.00121049
0.000625861
0.00119838
0.000631024
0.00118578
0.000636228
0.00117273
0.000641436
0.00115921
0.000646612
0.00114518
0.000651738
0.00113061
0.000656806
0.00111555
0.000661826
0.00110012
0.000666827
0.00108449
0.000671824
0.00106882
0.000676804
0.00105315
0.00068175
0.00103753
0.000686639
0.00102195
0.000691475
0.00100641
0.000696265
0.000990998
0.00070103
0.000975848
0.00070581
0.000961079
0.000710638
0.000946799
0.000715558
0.000933095
0.000720609
0.000920043
0.000725833
0.000907731
0.00073128
0.000896227
0.000736997
0.000885655
0.000743043
0.000876114
0.000749468
0.00086767
0.000756335
0.000860355
0.000763733
0.000854189
0.000771742
0.000849248
0.000780452
0.000845628
0.000789985
0.000843423
0.000800516
0.000842733
0.000812224
0.000843666
0.00082537
0.000846356
0.000840215
0.000850996
0.00085723
0.000857869
0.000876903
0.000867312
0.000898576
0.000879739
0.000920719
0.000893153
0.000942509
0.000905599
0.000962183
0.000917073
0.0014899
0.00149113
0.00113639
0.00148923
0.00115843
0.00148421
0.0011808
0.0014761
0.00120349
0.00146495
0.00122649
0.00145084
0.00124978
0.00143388
0.00127331
0.00141419
0.00129705
0.00139191
0.00132094
0.00136722
0.00134494
0.0013403
0.00136898
0.00131132
0.001393
0.00128051
0.00141692
0.00124806
0.00144069
0.00121418
0.00146424
0.0011791
0.0014875
0.001143
0.00151041
0.00110611
0.0015329
0.00106862
0.00155492
0.00103072
0.00157642
0.000992598
0.00159734
0.000954415
0.00161764
0.000916333
0.00163728
0.000878498
0.00165622
0.000841042
0.00167444
0.000804085
0.00169191
0.000767732
0.0017086
0.000732077
0.0017245
0.0006972
0.0017396
0.000663169
0.00175388
0.00063004
0.00176735
0.00059786
0.00178
0.000566663
0.00179183
0.000536475
0.00180285
0.000507313
0.00181306
0.000479187
0.00182246
0.000452101
0.00183106
0.000426065
0.00183885
0.00040119
0.00184571
0.000378506
0.00185057
0.000363519
0.00184449
0.000439518
0.00181602
0.000521575
0.00158617
0.000526778
0.00141441
0.000525187
0.00136504
0.00052561
0.00135537
0.000525799
0.00135502
0.000526902
0.00135713
0.000528123
0.00135921
0.00052885
0.00136063
0.000529305
0.00136125
0.000530814
0.00136201
0.000532359
0.00136276
0.000534194
0.00136373
0.000536394
0.00136512
0.000538782
0.00136648
0.00054123
0.00136736
0.000543767
0.00136763
0.000546442
0.00136722
0.000549284
0.00136619
0.000552303
0.00136464
0.00055553
0.00136273
0.000558999
0.0013605
0.000562704
0.00135797
0.000566566
0.00135489
0.000570549
0.0013511
0.000574654
0.00134644
0.000578861
0.00134081
0.000583168
0.00133425
0.000587604
0.00132694
0.000592216
0.00131915
0.000597033
0.00131094
0.000602029
0.00130228
0.00060713
0.00129299
0.000612299
0.00128295
0.000617519
0.00127206
0.00062278
0.00126033
0.000628078
0.00124786
0.000633421
0.00123479
0.000638814
0.00122123
0.000644222
0.00120719
0.000649608
0.00119268
0.000654944
0.00117763
0.000660208
0.00116202
0.000665399
0.00114594
0.000670527
0.00112954
0.000675618
0.00111299
0.000680678
0.00109642
0.000685689
0.00107987
0.000690629
0.00106338
0.000695478
0.00104691
0.000700241
0.00103051
0.000704933
0.00101426
0.000709583
0.000998304
0.000714231
0.000982741
0.000718918
0.000967674
0.000723687
0.00095318
0.000728583
0.000939337
0.000733652
0.000926237
0.000738933
0.000913939
0.000744496
0.000902574
0.000750405
0.00089222
0.000756719
0.000882943
0.000763517
0.00087476
0.000770907
0.000867708
0.000778975
0.000861879
0.000787818
0.00085737
0.000797568
0.000854272
0.000808405
0.000852676
0.000820523
0.000852683
0.000834199
0.000854424
0.000849711
0.000858087
0.000867541
0.000863943
0.000888217
0.000872313
0.000911207
0.000883554
0.000935026
0.000895796
0.000958454
0.000906997
0.00097922
0.000917413
0.00150583
0.00150729
0.00115617
0.00150564
0.00118081
0.00150086
0.00120576
0.00149298
0.001231
0.00148204
0.00125653
0.00146811
0.00128232
0.0014513
0.00130833
0.00143173
0.00133453
0.00140953
0.00136085
0.00138487
0.00138725
0.00135793
0.00141366
0.0013289
0.00144001
0.00129797
0.00146624
0.00126536
0.00149227
0.00123127
0.00151803
0.00119593
0.00154346
0.00115953
0.00156848
0.0011223
0.00159303
0.00108442
0.00161706
0.0010461
0.00164051
0.00100752
0.00166331
0.000968852
0.00168544
0.000930259
0.00170684
0.000891889
0.00172748
0.00085388
0.00174732
0.000816354
0.00176635
0.00077942
0.00178453
0.000743174
0.00180186
0.000707699
0.00181832
0.000673067
0.0018339
0.000639335
0.0018486
0.000606552
0.00186241
0.000574754
0.00187534
0.00054397
0.00188739
0.000514216
0.00189856
0.000485505
0.00190887
0.00045784
0.00191833
0.000431229
0.00192692
0.000405758
0.00193453
0.000382225
0.0019402
0.00036402
0.00193515
0.000431967
0.00191074
0.00052079
0.00167343
0.000528066
0.00148773
0.000524742
0.00143374
0.000526478
0.00142225
0.000528266
0.00142093
0.000529013
0.00142204
0.000529623
0.00142301
0.000530698
0.00142313
0.00053215
0.00142319
0.000533699
0.00142322
0.000535364
0.0014233
0.000537364
0.00142381
0.000539678
0.00142456
0.000542143
0.00142498
0.000544677
0.00142484
0.000547318
0.00142404
0.000550116
0.00142261
0.000553101
0.00142062
0.000556286
0.00141823
0.000559708
0.00141552
0.000563403
0.00141254
0.000567308
0.00140916
0.000571344
0.00140512
0.000575508
0.00140027
0.000579791
0.00139447
0.000584188
0.00138772
0.000588704
0.00138007
0.000593386
0.00137189
0.000598284
0.00136326
0.00060339
0.0013542
0.000608647
0.00134459
0.000613997
0.00133428
0.000619419
0.00132315
0.000624894
0.00131117
0.000630415
0.00129838
0.000635975
0.0012849
0.000641579
0.00127087
0.000647218
0.00125636
0.00065285
0.00124136
0.000658435
0.00122584
0.000663942
0.00120975
0.000669356
0.00119311
0.000674677
0.00117605
0.000679918
0.00115872
0.000685105
0.00114131
0.00069023
0.0011239
0.000695262
0.00110651
0.000700175
0.00108915
0.000704958
0.00107179
0.000709627
0.0010545
0.000714205
0.00103738
0.000718724
0.00102058
0.000723226
0.00100419
0.000727752
0.000988309
0.000732346
0.000973002
0.000737058
0.000958351
0.000741938
0.000944453
0.000747035
0.000931362
0.000752427
0.000919219
0.000758179
0.000908084
0.000764364
0.000898009
0.000771072
0.000888993
0.00077842
0.000881084
0.000786515
0.000874378
0.00079546
0.000868976
0.000805399
0.000864969
0.000816525
0.000862445
0.000829038
0.000861502
0.000843237
0.000862269
0.000859409
0.00086493
0.000878052
0.000869747
0.000899744
0.000877
0.000924046
0.00088709
0.000949511
0.000898119
0.000974352
0.000908285
0.000996113
0.000917749
0.00152375
0.00152543
0.00117768
0.001524
0.00120483
0.00151945
0.00123226
0.00151178
0.00125996
0.00150104
0.00128793
0.00148728
0.00131614
0.00147061
0.00134456
0.00145113
0.00137313
0.00142899
0.00140181
0.00140435
0.00143053
0.00137736
0.00145923
0.00134824
0.00148785
0.00131717
0.0015163
0.00128436
0.00154451
0.00125003
0.00157241
0.00121439
0.00159993
0.00117765
0.001627
0.00114003
0.00165355
0.00110172
0.00167952
0.00106293
0.00170485
0.00102385
0.00172948
0.000984648
0.00175337
0.000945493
0.00177647
0.000906539
0.00179875
0.000867925
0.00182017
0.000829778
0.00184071
0.00079221