/*--------------------------------*- C++ -*----------------------------------*\
| =========                 |                                                 |
| \\      /  F ield         | OpenFOAM: The Open Source CFD Toolbox           |
|  \\    /   O peration     | Version:  2.2.x                                 |
|   \\  /    A nd           | Web:      www.OpenFOAM.org                      |
|    \\/     M anipulation  |                                                 |
\*---------------------------------------------------------------------------*/
FoamFile
{
    version     2.0;
    format      ascii;
    class       surfaceScalarField;
    location    "0.4";
    object      phi;
}
// * * * * * * * * * * * * * * * * * * * * * * * * * * * * * * * * * * * * * //

dimensions      [1 0 -1 0 0 0 0];

internalField   nonuniform List<scalar> 
28084
(
0.000746224
0.000742988
0.000740213
0.000737877
0.000735962
0.000734443
0.000733299
0.000732503
0.000732031
0.000731856
0.00073195
0.000732288
0.00073284
0.000733581
0.000734484
0.000735523
0.000736673
0.00073791
0.00073921
0.000740553
0.000741918
0.000743286
0.000744639
0.000745961
0.000747237
0.000748455
0.000749601
0.000750665
0.000751637
0.000752509
0.000753273
0.000753923
0.000754452
0.000754855
0.000755128
0.000755267
0.000755268
0.000755119
0.000754765
0.000753848
0.000750428
0.000736762
0.000702264
0.000671672
0.000659682
0.0006622
0.000667114
0.000672645
0.00067792
0.000682643
0.000686218
0.000688471
0.000689385
0.00069095
0.00069343
0.000696221
0.00069934
0.000702448
0.000705139
0.000707043
0.000708034
0.000708182
0.000707618
0.000706765
0.00070576
0.000704697
0.000703139
0.000700784
0.000697304
0.000692502
0.000686514
0.000679707
0.000672789
0.000665961
0.000658983
0.000651379
0.000642961
0.000633595
0.000623363
0.000612398
0.000601142
0.000589704
0.000577906
0.00056563
0.000552731
0.000539205
0.000525234
0.000511119
0.000497179
0.000483364
0.000469537
0.0004556
0.000441438
0.000427108
0.000412763
0.000398536
0.000384477
0.000370575
0.000356791
0.000343114
0.000329559
0.000316173
0.000302995
0.00028999
0.000276978
0.000263667
0.000249921
0.000235745
0.00022107
0.000205674
0.000189264
0.000171536
0.000152305
0.000131228
0.000108355
8.44582e-05
5.87419e-05
3.10595e-05
3.7119e-06
3.23513e-06
0.00074974
2.77572e-06
0.000748785
2.33538e-06
0.000748259
1.91574e-06
0.000748147
1.51833e-06
0.000748429
1.14451e-06
0.000749083
7.95452e-07
0.000750087
4.72133e-07
0.000751415
1.7529e-07
0.000753039
-9.458e-08
0.000754933
-3.37226e-07
0.000757068
-5.52641e-07
0.000759414
-7.41055e-07
0.000761942
-9.02918e-07
0.000764622
-1.03889e-06
0.000767426
-1.14981e-06
0.000770325
-1.23667e-06
0.000773292
-1.30061e-06
0.0007763
-1.34287e-06
0.000779324
-1.36477e-06
0.000782341
-1.36768e-06
0.000785328
-1.353e-06
0.000788266
-1.32213e-06
0.000791134
-1.27648e-06
0.000793916
-1.21739e-06
0.000796595
-1.14619e-06
0.000799159
-1.06412e-06
0.000801594
-9.72358e-07
0.00080389
-8.71996e-07
0.000806036
-7.64041e-07
0.000808025
-6.49412e-07
0.000809849
-5.28932e-07
0.000811502
-4.03328e-07
0.000812979
-2.73237e-07
0.000814276
-1.392e-07
0.000815389
-1.66536e-09
0.000816315
1.39071e-07
0.000817051
2.83218e-07
0.000817586
4.3379e-07
0.000817862
6.05759e-07
0.000817493
9.78356e-07
0.000814374
2.61931e-06
0.000799923
3.94715e-06
0.00076244
4.66342e-06
0.000728951
-4.27818e-06
0.000715989
-4.18528e-06
0.000717386
-3.84763e-06
0.000721482
-3.83662e-06
0.000726263
-3.92199e-06
0.000730722
-3.88802e-06
0.000734551
-3.67181e-06
0.000737107
-3.38326e-06
0.000738206
-3.14463e-06
0.000737996
-2.92342e-06
0.000738592
-2.66598e-06
0.00074017
-2.37677e-06
0.000742071
-2.06631e-06
0.000744308
-1.75191e-06
0.000746461
-1.40901e-06
0.000748151
-1.02091e-06
0.000748978
-5.8573e-07
0.00074884
-1.06377e-07
0.000747836
4.06124e-07
0.00074613
9.53414e-07
0.000744154
1.53615e-06
0.000742061
2.15411e-06
0.000739946
2.80252e-06
0.000737341
3.47521e-06
0.000733938
4.1678e-06
0.000729408
4.86577e-06
0.000723554
5.55983e-06
0.000716512
6.24654e-06
0.000708715
6.92448e-06
0.00070087
7.59029e-06
0.000693152
8.2326e-06
0.000685289
8.83493e-06
0.000676786
9.39853e-06
0.000667444
9.93204e-06
0.000657116
1.04442e-05
0.000645893
1.09526e-05
0.000633939
1.14517e-05
0.000621702
1.19292e-05
0.00060932
1.23786e-05
0.000596611
1.27812e-05
0.000583459
1.31245e-05
0.000569712
1.34029e-05
0.000555363
1.36259e-05
0.000540586
1.38095e-05
0.000525695
1.39595e-05
0.000511002
1.40707e-05
0.000496462
1.41382e-05
0.000481926
1.41578e-05
0.00046729
1.41255e-05
0.000452434
1.40478e-05
0.000437415
1.39394e-05
0.000422389
1.38113e-05
0.000407487
1.36728e-05
0.00039276
1.35284e-05
0.000378194
1.3379e-05
0.00036375
1.32365e-05
0.000349418
1.31184e-05
0.000335212
1.30346e-05
0.000321184
1.29963e-05
0.000307377
1.30179e-05
0.000293751
1.31017e-05
0.000280125
1.32943e-05
0.000266205
1.36331e-05
0.000251873
1.41553e-05
0.000237143
1.48973e-05
0.000221951
1.58832e-05
0.0002061
1.71814e-05
0.000189329
1.8726e-05
0.00017146
2.0628e-05
0.000152364
2.24131e-05
0.000131865
2.31377e-05
0.000109637
2.47311e-05
8.55668e-05
2.65346e-05
5.95404e-05
2.98839e-05
3.13938e-05
5.11203e-06
4.19073e-06
0.000754435
3.30116e-06
0.00075573
2.44751e-06
0.000757426
1.63381e-06
0.00075951
8.63806e-07
0.000761963
1.40861e-07
0.000764765
-5.32086e-07
0.000767892
-1.15259e-06
0.000771318
-1.71876e-06
0.000775016
-2.22922e-06
0.000778956
-2.6832e-06
0.000783108
-3.08049e-06
0.00078744
-3.42139e-06
0.000791922
-3.70676e-06
0.00079652
-3.93789e-06
0.000801204
-4.11651e-06
0.000805943
-4.24472e-06
0.000810708
-4.32493e-06
0.000815468
-4.35978e-06
0.000820197
-4.35211e-06
0.00082487
-4.30488e-06
0.000829463
-4.22113e-06
0.000833953
-4.10392e-06
0.00083832
-3.95627e-06
0.000842545
-3.78114e-06
0.000846613
-3.58139e-06
0.000850509
-3.35973e-06
0.000854219
-3.11873e-06
0.000857733
-2.86077e-06
0.00086104
-2.58804e-06
0.000864134
-2.30254e-06
0.000867006
-2.00604e-06
0.000869651
-1.70014e-06
0.000872066
-1.38619e-06
0.000874246
-1.06538e-06
0.00087619
-7.38664e-07
0.000877894
-4.06677e-07
0.000879356
-6.89298e-08
0.000880568
2.81715e-07
0.000881468
6.82195e-07
0.000881647
1.68053e-06
0.000878866
5.50369e-06
0.000863966
8.44779e-06
0.000824276
9.64167e-06
0.000788564
-7.58648e-06
0.000774608
-7.43393e-06
0.00077477
-6.75382e-06
0.00077802
-6.71309e-06
0.000782047
-6.89867e-06
0.000785665
-6.83907e-06
0.000788554
-6.40854e-06
0.000790078
-5.84942e-06
0.000790051
-5.38664e-06
0.000788815
-4.93625e-06
0.000788533
-4.39698e-06
0.000789275
-3.77333e-06
0.000790381
-3.12014e-06
0.00079184
-2.45251e-06
0.00079316
-1.73027e-06
0.000793921
-9.31739e-07
0.00079374
-5.52888e-08
0.00079253
8.98137e-07
0.000790424
1.92056e-06
0.00078761
3.00643e-06
0.00078455
4.16498e-06
0.000781418
5.38761e-06
0.000778286
6.66109e-06
0.000774654
7.9767e-06
0.000770201
9.32652e-06
0.0007646
1.06959e-05
0.000757669
1.20627e-05
0.000749542
1.34227e-05
0.000740761
1.47742e-05
0.000732011
1.61059e-05
0.000723456
1.73912e-05
0.000714741
1.86099e-05
0.000705366
1.97561e-05
0.000695113
2.08372e-05
0.000683832
2.18677e-05
0.000671629
2.28692e-05
0.000658697
2.38408e-05
0.000645477
2.47667e-05
0.000632127
2.563e-05
0.000618465
2.64023e-05
0.000604379
2.70593e-05
0.000589714
2.7597e-05
0.000574471
2.80278e-05
0.000558817
2.83744e-05
0.000543097
2.86532e-05
0.000527614
2.88571e-05
0.000512291
2.89779e-05
0.000496981
2.9004e-05
0.000481579
2.89287e-05
0.000465965
2.87673e-05
0.0004502
2.85455e-05
0.000434438
2.82842e-05
0.000418809
2.80021e-05
0.000403362
2.77072e-05
0.00038808
2.74031e-05
0.000372921
2.71158e-05
0.00035787
2.6874e-05
0.000342944
2.67006e-05
0.000328194
2.66173e-05
0.000313662
2.6643e-05
0.000299301
2.67953e-05
0.000284907
2.71615e-05
0.000270174
2.7814e-05
0.000255052
2.88247e-05
0.000239584
3.02462e-05
0.00022373
3.21228e-05
0.000207295
3.45009e-05
0.000190064
3.73137e-05
0.000171859
4.0682e-05
0.000152582
4.41373e-05
0.000132061
4.64581e-05
0.00010994
4.98108e-05
8.59666e-05
5.35468e-05
5.99206e-05
6.01039e-05
3.14533e-05
4.23053e-06
2.89594e-06
0.000760308
1.6045e-06
0.000763821
3.63709e-07
0.000767708
-8.19269e-07
0.000771957
-1.93779e-06
0.000776551
-2.98585e-06
0.000781471
-3.95817e-06
0.000786692
-4.85036e-06
0.000792189
-5.6589e-06
0.000797933
-6.38124e-06
0.000803893
-7.01579e-06
0.000810036
-7.56192e-06
0.00081633
-8.01992e-06
0.000822741
-8.39094e-06
0.000829233
-8.67693e-06
0.000835774
-8.88057e-06
0.00084233
-9.00514e-06
0.000848869
-9.05446e-06
0.00085536
-9.03276e-06
0.000861774
-8.9446e-06
0.000868082
-8.79475e-06
0.00087426
-8.58811e-06
0.000880283
-8.32963e-06
0.00088613
-8.02421e-06
0.000891781
-7.67665e-06
0.00089722
-7.29157e-06
0.00090243
-6.87338e-06
0.000907399
-6.42625e-06
0.000912115
-5.95404e-06
0.000916569
-5.46029e-06
0.000920753
-4.94823e-06
0.00092466
-4.42076e-06
0.000928285
-3.88041e-06
0.000931625
-3.32941e-06
0.000934678
-2.76963e-06
0.00093744
-2.20261e-06
0.000939912
-1.62941e-06
0.000942092
-1.04948e-06
0.000943972
-4.53049e-07
0.000945488
2.08322e-07
0.000946211
1.80746e-06
0.000943779
7.82901e-06
0.000928506
1.2734e-05
0.000886623
1.49369e-05
0.000848678
-9.78575e-06
0.000834181
-9.64755e-06
0.000833697
-8.70244e-06
0.00083649
-8.63373e-06
0.000839995
-8.92724e-06
0.000842963
-8.87157e-06
0.000845108
-8.27404e-06
0.000845794
-7.46206e-06
0.000844831
-6.77108e-06
0.000842605
-6.08614e-06
0.000841419
-5.25717e-06
0.000841303
-4.28851e-06
0.000841601
-3.2648e-06
0.000842314
-2.20324e-06
0.000842857
-1.06067e-06
0.000842744
1.84296e-07
0.000841625
1.52938e-06
0.000839418
2.97001e-06
0.000836279
4.5055e-06
0.0008324
6.13369e-06
0.000828303
7.86493e-06
0.000824183
9.68179e-06
0.000820083
1.1563e-05
0.000815462
1.35025e-05
0.000809981
1.54876e-05
0.000803307
1.7496e-05
0.000795287
1.95027e-05
0.000786042
2.15168e-05
0.000776235
2.35275e-05
0.000766542
2.5522e-05
0.000757133
2.74566e-05
0.000747555
2.93052e-05
0.000737298
3.1054e-05
0.00072613
3.27018e-05
0.000713906
3.42641e-05
0.000700746
3.57626e-05
0.000686874
3.71985e-05
0.00067272
3.85582e-05
0.000658428
3.9811e-05
0.000643825
4.09259e-05
0.00062879
4.18722e-05
0.000613173
4.26465e-05
0.000596988
4.32622e-05
0.000580403
4.37544e-05
0.000563802
4.41449e-05
0.00054748
4.44228e-05
0.00053131
4.45789e-05
0.000515155
4.45955e-05
0.000498912
4.44659e-05
0.000482464
4.42142e-05
0.00046588
4.38722e-05
0.000449311
4.34712e-05
0.000432891
4.30399e-05
0.000416662
4.25917e-05
0.000400605
4.21343e-05
0.000384676
4.17042e-05
0.000368844
4.13476e-05
0.000353124
4.10962e-05
0.000337578
4.09785e-05
0.000322241
4.10298e-05
0.000307048
4.12848e-05
0.000291772
4.18035e-05
0.000276101
4.27267e-05
0.000259999
4.41544e-05
0.000243604
4.61769e-05
0.000226934
4.88204e-05
0.000209831
5.21503e-05
0.000192068
5.60738e-05
0.000173466
6.07448e-05
0.000153917
6.5729e-05
0.000133254
6.96779e-05
0.000111066
7.49359e-05
8.69876e-05
8.09474e-05
6.07575e-05
9.0368e-05
3.17355e-05
1.10116e-06
-6.16603e-07
0.000767362
-2.2826e-06
0.000773056
-3.88528e-06
0.000779098
-5.41361e-06
0.000785478
-6.85736e-06
0.00079218
-8.20725e-06
0.000799185
-9.45512e-06
0.000806469
-1.05941e-05
0.000814006
-1.16187e-05
0.000821766
-1.25248e-05
0.000829715
-1.33097e-05
0.000837821
-1.39723e-05
0.000846048
-1.45125e-05
0.000854359
-1.49319e-05
0.000862719
-1.5233e-05
0.00087109
-1.54195e-05
0.000879437
-1.54961e-05
0.000887725
-1.54679e-05
0.000895922
-1.53411e-05
0.000903995
-1.51222e-05
0.000911915
-1.48178e-05
0.000919655
-1.44351e-05
0.000927189
-1.39811e-05
0.000934495
-1.34628e-05
0.000941552
-1.28871e-05
0.000948341
-1.22606e-05
0.000954847
-1.15896e-05
0.000961056
-1.08801e-05
0.000966958
-1.01377e-05
0.000972541
-9.36732e-06
0.000977799
-8.5737e-06
0.000982725
-7.76094e-06
0.000987316
-6.93267e-06
0.000991568
-6.09205e-06
0.000995479
-5.24174e-06
0.000999049
-4.38394e-06
0.00100228
-3.52019e-06
0.00100516
-2.65006e-06
0.0010077
-1.7623e-06
0.00100982
-8.02717e-07
0.00101109
1.34547e-06
0.00100901
9.52783e-06
0.000993233
1.664e-05
0.000948759
1.99649e-05
0.000908095
-1.14262e-05
0.000892752
-1.11303e-05
0.000891388
-9.90859e-06
0.000893538
-9.77243e-06
0.000896162
-1.01694e-05
0.000897966
-1.01489e-05
0.000898682
-9.40503e-06
0.000897684
-8.27236e-06
0.00089493
-7.30834e-06
0.000891494
-6.38984e-06
0.000889482
-5.26526e-06
0.000888524
-3.94478e-06
0.00088796
-2.53803e-06
0.000887791
-1.06773e-06
0.000887381
5.13835e-07
0.000886225
2.23123e-06
0.000884017
4.07431e-06
0.000880688
6.02579e-06
0.00087644
8.08452e-06
0.000871536
1.02745e-05
0.000866425
1.2595e-05
0.00086129
1.50133e-05
0.000856092
1.75004e-05
0.000850317
2.00543e-05
0.000843621
2.26542e-05
0.000835678
2.52756e-05
0.000826405
2.79061e-05
0.000815908
3.05473e-05
0.000805058
3.32078e-05
0.000794388
3.586e-05
0.000784
3.84427e-05
0.000773393
4.09219e-05
0.00076211
4.32749e-05
0.000749918
4.54921e-05
0.000736678
4.75915e-05
0.00072255
4.95943e-05
0.000707757
5.1507e-05
0.000692717
5.32974e-05
0.000677564
5.4934e-05
0.000662112
5.63758e-05
0.000646231
5.7593e-05
0.00062977
5.8586e-05
0.000612778
5.93743e-05
0.000595412
6.00072e-05
0.000578102
6.04954e-05
0.000561099
6.08381e-05
0.000544241
6.10112e-05
0.000527418
6.10032e-05
0.000510496
6.08092e-05
0.000493374
6.04597e-05
0.000476136
5.99861e-05
0.000458939
5.94348e-05
0.0004419
5.88436e-05
0.000425059
5.82373e-05
0.000408407
5.76366e-05
0.000391901
5.70755e-05
0.000375535
5.66107e-05
0.000359321
5.62965e-05
0.000343312
5.61753e-05
0.000327544
5.62934e-05
0.000311958
5.66964e-05
0.000296323
5.74094e-05
0.000280339
5.85628e-05
0.000263941
6.03036e-05
0.000247226
6.27785e-05
0.000230213
6.60493e-05
0.000212765
7.01906e-05
0.000194692
7.50981e-05
0.00017582
8.09398e-05
0.000156023
8.73752e-05
0.000135109
9.30155e-05
0.000112694
0.000100282
8.82375e-05
0.000108924
6.16224e-05
0.00012088
3.20212e-05
-4.23855e-06
-6.31051e-06
0.0007756
-8.32484e-06
0.000783435
-1.02651e-05
0.000791593
-1.21158e-05
0.000800066
-1.38623e-05
0.000808839
-1.54915e-05
0.000817893
-1.69919e-05
0.000827205
-1.83535e-05
0.000836747
-1.95684e-05
0.000846488
-2.06308e-05
0.000856394
-2.15365e-05
0.00086643
-2.22836e-05
0.000876558
-2.28719e-05
0.000886739
-2.33029e-05
0.000896934
-2.35801e-05
0.000907106
-2.3708e-05
0.000917214
-2.36927e-05
0.000927224
-2.35412e-05
0.000937098
-2.32614e-05
0.000946804
-2.2862e-05
0.00095631
-2.2352e-05
0.000965586
-2.17408e-05
0.000974606
-2.10377e-05
0.000983347
-2.02521e-05
0.000991785
-1.93932e-05
0.000999903
-1.847e-05
0.00100768
-1.74907e-05
0.00101511
-1.64634e-05
0.00102218
-1.53955e-05
0.00102887
-1.42938e-05
0.00103519
-1.31644e-05
0.00104111
-1.20128e-05
0.00104665
-1.08439e-05
0.0010518
-9.66187e-06
0.00105656
-8.47022e-06
0.00106092
-7.27188e-06
0.00106489
-6.06893e-06
0.00106847
-4.86113e-06
0.00107166
-3.63575e-06
0.00107438
-2.33263e-06
0.00107618
4.85299e-07
0.00107449
1.09742e-05
0.00105834
2.05248e-05
0.00101126
2.50123e-05
0.000967604
-1.21851e-05
0.000951156
-1.15209e-05
0.000948779
-9.95678e-06
0.000950264
-9.70139e-06
0.000952227
-1.01613e-05
0.000953216
-1.01519e-05
0.000952909
-9.24934e-06
0.000950821
-7.97272e-06
0.000946849
-6.81877e-06
0.00094267
-5.67179e-06
0.000940094
-4.25915e-06
0.000938417
-2.58118e-06
0.000937085
-7.76149e-07
0.000936083
1.11698e-06
0.000934754
3.13702e-06
0.000932593
5.3291e-06
0.000929316
7.67959e-06
0.000924877
1.01697e-05
0.000919524
1.27878e-05
0.000913605
1.55654e-05
0.000907535
1.84965e-05
0.000901478
2.15298e-05
0.000895254
2.46243e-05
0.000888373
2.778e-05
0.000880483
3.09734e-05
0.000871262
3.4193e-05
0.000860759
3.74137e-05
0.000849074
4.06653e-05
0.000837212
4.39404e-05
0.00082559
4.72121e-05
0.000814232
5.04175e-05
0.000802544
5.3511e-05
0.000790169
5.64614e-05
0.000776854
5.92396e-05
0.000762494
6.18613e-05
0.000747282
6.43512e-05
0.000731468
6.67094e-05
0.000715442
6.89092e-05
0.00069928
7.09036e-05
0.000682808
7.26413e-05
0.000665891
7.40977e-05
0.000648388
7.52783e-05
0.0006304
7.6216e-05
0.000612077
7.69741e-05
0.000593874
7.75561e-05
0.000575997
7.7944e-05
0.000558269
7.81172e-05
0.00054059
7.80655e-05
0.000522813
7.77894e-05
0.000504861
7.73294e-05
0.000486836
7.67214e-05
0.000468898
7.60101e-05
0.000451149
7.52401e-05
0.000433619
7.44514e-05
0.000416292
7.36651e-05
0.000399144
7.2939e-05
0.000382172
7.23421e-05
0.000365395
7.1938e-05
0.000348867
7.17731e-05
0.000332615
7.19088e-05
0.000316577
7.24019e-05
0.000300512
7.32984e-05
0.000284135
7.47196e-05
0.000267402
7.68063e-05
0.0002504
7.97341e-05
0.000233121
8.3592e-05
0.000215406
8.85015e-05
0.000197066
9.43681e-05
0.000177943
0.000101378
0.000157925
0.000109227
0.000136819
0.000116732
0.000114237
0.000126038
8.93973e-05
0.000137495
6.23588e-05
0.000151657
3.22422e-05
-1.17471e-05
-1.41455e-05
0.000785028
-1.64831e-05
0.00079496
-1.87378e-05
0.000805191
-2.08888e-05
0.000815714
-2.29165e-05
0.000826517
-2.48033e-05
0.000837581
-2.65337e-05
0.000848881
-2.80945e-05
0.000860389
-2.94749e-05
0.000872075
-3.06667e-05
0.000883901
-3.16643e-05
0.000895831
-3.24647e-05
0.000907824
-3.30674e-05
0.00091984
-3.34741e-05
0.000931838
-3.36888e-05
0.000943776
-3.37173e-05
0.000955614
-3.3567e-05
0.000967312
-3.3247e-05
0.000978833
-3.27672e-05
0.000990141
-3.21385e-05
0.0010012
-3.13724e-05
0.00101199
-3.0481e-05
0.00102247
-2.9476e-05
0.00103261
-2.83697e-05
0.00104241
-2.71736e-05
0.00105183
-2.5899e-05
0.00106086
-2.45569e-05
0.00106949
-2.31573e-05
0.00107769
-2.17096e-05
0.00108548
-2.02226e-05
0.00109283
-1.8704e-05
0.00109974
-1.7161e-05
0.00110621
-1.55996e-05
0.00111224
-1.40251e-05
0.00111782
-1.24422e-05
0.00112296
-1.08544e-05
0.00112766
-9.2644e-06
0.00113193
-7.6722e-06
0.00113574
-6.06355e-06
0.00113905
-4.37261e-06
0.0011414
-7.75036e-07
0.00114015
1.22407e-05
0.00112387
2.45292e-05
0.00107469
3.03356e-05
0.00102821
-1.1835e-05
0.00101098
-1.08818e-05
0.00100814
-9.15676e-06
0.00100927
-8.92089e-06
0.00101064
-9.43825e-06
0.00101078
-9.34746e-06
0.00100936
-8.29852e-06
0.00100603
-6.85016e-06
0.00100059
-5.4863e-06
0.000995607
-4.09479e-06
0.000992352
-2.36206e-06
0.000989807
-3.08746e-07
0.000987622
1.90484e-06
0.000985593
4.25344e-06
0.000983132
6.7484e-06
0.000979752
9.43409e-06
0.000975257
1.23095e-05
0.000969706
1.53473e-05
0.00096329
1.85457e-05
0.000956559
2.19151e-05
0.000949756
2.5468e-05
0.000943085
2.91388e-05
0.00093614
3.28749e-05
0.000928462
3.66465e-05
0.000919646
4.04282e-05
0.000909405
4.42154e-05
0.000897897
4.8027e-05
0.000885281
5.18843e-05
0.000872515
5.57507e-05
0.000860021
5.96355e-05
0.000847757
6.34509e-05
0.00083505
6.71504e-05
0.000821583
7.06899e-05
0.000807117
7.40346e-05
0.00079162
7.71813e-05
0.000775298
8.01521e-05
0.000758414
8.29516e-05
0.000741353
8.55444e-05
0.000724087
8.78832e-05
0.000706487
8.98906e-05
0.000688387
9.15602e-05
0.000669672
9.29063e-05
0.000650478
9.39858e-05
0.000630984
9.4856e-05
0.000611635
9.55008e-05
0.000592655
9.59025e-05
0.000573847
9.60488e-05
0.000555104
9.5925e-05
0.000536271
9.55378e-05
0.000517307
9.49373e-05
0.000498329
9.41717e-05
0.000479498
9.32763e-05
0.000460908
9.23041e-05
0.000442572
9.12959e-05
0.000424459
9.02931e-05
0.000406562
8.93675e-05
0.000388889
8.86038e-05
0.000371452
8.80748e-05
0.000354305
8.78287e-05
0.000337463
8.79381e-05
0.000320852
8.84741e-05
0.000304219
8.95076e-05
0.000287293
9.11639e-05
0.00027006
9.35832e-05
0.000252602
9.69622e-05
0.00023489
0.000101403
0.000216758
0.000107063
0.000198026
0.000113857
0.000178557
0.000121997
0.000158252
0.000131216
0.000136923
0.000140807
0.000114181
0.000152227
8.93578e-05
0.000166611
6.20243e-05
0.000182673
3.16031e-05
-2.13788e-05
-2.40774e-05
0.000795653
-2.67144e-05
0.000807633
-2.92614e-05
0.00081989
-3.16915e-05
0.000832419
-3.39798e-05
0.000845207
-3.61035e-05
0.000858235
-3.80425e-05
0.000871481
-3.97797e-05
0.000884914
-4.13012e-05
0.000898502
-4.25963e-05
0.000912208
-4.36576e-05
0.000925991
-4.44808e-05
0.000939811
-4.5065e-05
0.000953624
-4.54121e-05
0.000967386
-4.55266e-05
0.000981054
-4.54156e-05
0.000994585
-4.50881e-05
0.00100794
-4.45551e-05
0.00102107
-4.38289e-05
0.00103395
-4.29229e-05
0.00104653
-4.18513e-05
0.00105879
-4.06288e-05
0.0010707
-3.92703e-05
0.00108223
-3.77905e-05
0.00109335
-3.6204e-05
0.00110404
-3.45247e-05
0.0011143
-3.2766e-05
0.00112409
-3.09405e-05
0.00113342
-2.90597e-05
0.00114227
-2.71345e-05
0.00115063
-2.51744e-05
0.00115851
-2.31882e-05
0.00116589
-2.11834e-05
0.00117278
-1.91666e-05
0.00117917
-1.71433e-05
0.00118507
-1.51181e-05
0.00119049
-1.30942e-05
0.00119542
-1.10721e-05
0.00119986
-9.03725e-06
0.00120375
-6.92495e-06
0.00120663
-2.54442e-06
0.00120587
1.27728e-05
0.00118969
2.81605e-05
0.00113843
3.55519e-05
0.00108903
-1.0793e-05
0.00107141
-9.3861e-06
0.00106854
-7.52007e-06
0.00106918
-7.37529e-06
0.00106943
-7.92605e-06
0.00106805
-7.72687e-06
0.00106473
-6.4234e-06
0.00105943
-4.77116e-06
0.0010525
-3.19291e-06
0.00104692
-1.50929e-06
0.00104298
5.89999e-07
0.00103964
3.05096e-06
0.0010367
5.67682e-06
0.00103368
8.4362e-06
0.00103015
1.13718e-05
0.00102566
1.45138e-05
0.00102008
1.78575e-05
0.00101354
2.13804e-05
0.0010062
2.51143e-05
0.000998638
2.90766e-05
0.000991068
3.32428e-05
0.000983619
3.7529e-05
0.000975701
4.19007e-05
0.000966876
4.63169e-05
0.000956751
5.07444e-05
0.000945151
5.51658e-05
0.000932294
5.96066e-05
0.000918601
6.40963e-05
0.000904915
6.8619e-05
0.00089153
7.31385e-05
0.000878218
7.7572e-05
0.000864354
8.18647e-05
0.000849639
8.5979e-05
0.000833915
8.98945e-05
0.000817251
9.35919e-05
0.000799867
9.70614e-05
0.000782199
0.000100316
0.000764478
0.000103308
0.000746543
0.000105984
0.000728258
0.000108276
0.000709431
0.000110175
0.000689988
0.00011171
0.00067009
0.000112937
0.000649954
0.000113876
0.000629964
0.000114545
0.000610254
0.000114924
0.000590658
0.000115001
0.000571047
0.00011476
0.000551275
0.000114221
0.000531342
0.000113437
0.000511395
0.000112469
0.000491593
0.000111349
0.000472015
0.000110142
0.000452668
0.000108877
0.000433564
0.000107619
0.000414718
0.000106464
0.000396161
0.000105503
0.0003779
0.000104818
0.000359992
0.000104461
0.000342439
0.000104511
0.000325133
0.00010506
0.000307786
0.000106202
0.000290159
0.000108069
0.000272277
0.000110802
0.000254219
0.000114611
0.000235938
0.000119605
0.000217279
0.000125971
0.000198083
0.000133633
0.000178232
0.000142831
0.000157634
0.000153338
0.000136104
0.00016485
0.000113232
0.000178721
8.8494e-05
0.00019604
6.11593e-05
0.000213074
3.09793e-05
-3.30838e-05
-3.60577e-05
0.000807485
-3.89715e-05
0.000821461
-4.17898e-05
0.000835692
-4.44792e-05
0.000850176
-4.70084e-05
0.000864899
-4.9349e-05
0.000879845
-5.14759e-05
0.000894989
-5.33677e-05
0.000910301
-5.50069e-05
0.000925746
-5.63799e-05
0.000941287
-5.74773e-05
0.000956881
-5.82936e-05
0.000972484
-5.88272e-05
0.000988052
-5.90801e-05
0.00100354
-5.90575e-05
0.00101889
-5.87677e-05
0.00103408
-5.82215e-05
0.00104905
-5.7432e-05
0.00106375
-5.6414e-05
0.00107816
-5.51836e-05
0.00109224
-5.37579e-05
0.00110594
-5.21546e-05
0.00111924
-5.03917e-05
0.00113211
-4.8487e-05
0.00114453
-4.64579e-05
0.00115647
-4.43214e-05
0.00116792
-4.20936e-05
0.00117886
-3.97897e-05
0.00118928
-3.74236e-05
0.00119916
-3.50083e-05
0.00120852
-3.25554e-05
0.00121733
-3.00755e-05
0.0012256
-2.75775e-05
0.00123333
-2.50694e-05
0.00124051
-2.25579e-05
0.00124716
-2.00483e-05
0.00125327
-1.75447e-05
0.00125885
-1.50481e-05
0.00126389
-1.25451e-05
0.00126835
-9.97739e-06
0.00127178
-4.84641e-06
0.00127156
1.25e-05
0.00125569
3.11522e-05
0.00120226
4.03354e-05
0.00114924
-8.9765e-06
0.00113122
-6.76934e-06
0.00112825
-4.6957e-06
0.00112803
-4.62539e-06
0.00112688
-5.26197e-06
0.00112392
-4.98823e-06
0.00111885
-3.51182e-06
0.00111168
-1.63204e-06
0.00110385
1.60847e-07
0.00109806
2.15692e-06
0.00109368
4.63665e-06
0.00108974
7.4691e-06
0.00108615
1.04266e-05
0.00108233
1.35271e-05
0.00107775
1.68579e-05
0.00107206
2.04489e-05
0.00106521
2.42843e-05
0.00105743
2.83478e-05
0.0010491
3.26677e-05
0.00104064
3.72687e-05
0.00103226
4.20707e-05
0.00102378
4.69943e-05
0.00101463
5.20049e-05
0.00100438
5.70681e-05
0.000992726
6.21549e-05
0.000979668
6.72181e-05
0.000965388
7.23056e-05
0.000950773
7.74592e-05
0.000936411
8.26659e-05
0.000922368
8.78119e-05
0.000908125
9.28334e-05
0.000893227
9.76819e-05
0.00087746
0.000102306
0.000860686
0.000106691
0.00084307
0.000110832
0.000824803
0.00011475
0.00080637
0.000118415
0.000787898
0.000121763
0.000769145
0.000124741
0.000749942
0.000127304
0.000730122
0.00012944
0.000709693
0.00013118
0.00068887
0.000132581
0.000667917
0.000133658
0.000647184
0.000134407
0.000626674
0.000134822
0.000606259
0.000134864
0.000585819
0.000134534
0.000565212
0.000133864
0.000544478
0.000132916
0.000523775
0.000131761
0.000503244
0.000130428
0.000482943
0.000128957
0.000462853
0.000127395
0.000442939
0.000125827
0.000423212
0.000124392
0.000403698
0.000123185
0.000384477
0.000122298
0.000365636
0.000121797
0.000347199
0.000121763
0.000329049
0.000122303
0.000310871
0.000123531
0.000292475
0.000125582
0.000273918
0.0001286
0.00025527
0.000132788
0.000236464
0.000138269
0.000217339
0.000145262
0.000197744
0.000153707
0.000177573
0.000163863
0.000156728
0.000175577
0.000135012
0.000188816
0.000111992
0.000205211
8.71549e-05
0.000225193
5.97278e-05
0.000242906
3.0054e-05
-4.68079e-05
-5.00336e-05
0.000820535
-5.3203e-05
0.000836449
-5.6273e-05
0.000852599
-5.92028e-05
0.000868983
-6.19543e-05
0.000885589
-6.44928e-05
0.0009024
-6.67879e-05
0.000919391
-6.88132e-05
0.000936531
-7.05474e-05
0.000953785
-7.19738e-05
0.000971112
-7.30807e-05
0.000988469
-7.38611e-05
0.00100581
-7.43128e-05
0.00102309
-7.44377e-05
0.00104025
-7.42418e-05
0.00105725
-7.37349e-05
0.00107405
-7.29294e-05
0.00109059
-7.18409e-05
0.00110683
-7.04866e-05
0.00112273
-6.88857e-05
0.00113825
-6.70584e-05
0.00115336
-6.50257e-05
0.00116801
-6.28087e-05
0.00118219
-6.04286e-05
0.00119587
-5.7906e-05
0.00120903
-5.52611e-05
0.00122164
-5.25128e-05
0.00123369
-4.96791e-05
0.00124517
-4.67767e-05
0.00125607
-4.38207e-05
0.00126639
-4.0825e-05
0.00127611
-3.7802e-05
0.00128525
-3.47622e-05
0.00129379
-3.17152e-05
0.00130174
-2.86686e-05
0.00130911
-2.56288e-05
0.0013159
-2.26008e-05
0.00132211
-1.95861e-05
0.00132775
-1.65731e-05
0.00133276
-1.35114e-05
0.00133673
-7.62363e-06
0.00133713
1.15714e-05
0.00132194
3.37569e-05
0.00126665
4.50069e-05
0.00120955
-6.07226e-06
0.00119138
-2.92844e-06
0.00118853
-7.60223e-07
0.00118745
-9.70898e-07
0.00118493
-1.78201e-06
0.00118009
-1.31703e-06
0.00117306
3.84404e-07
0.00116393
2.44383e-06
0.00115593
4.43326e-06
0.00115016
6.74115e-06
0.00114534
9.56622e-06
0.00114085
1.27358e-05
0.00113637
1.60595e-05
0.00113142
1.95803e-05
0.00112548
2.33729e-05
0.00111833
2.74633e-05
0.00111015
3.18133e-05
0.00110116
3.64609e-05
0.00109198
4.14167e-05
0.00108274
4.66666e-05
0.00107363
5.20897e-05
0.00106413
5.76434e-05
0.00105381
6.32821e-05
0.00104222
6.89491e-05
0.00102915
7.4622e-05
0.00101481
8.03066e-05
0.000999534
8.60482e-05
0.000984269
9.18611e-05
0.000969377
9.77014e-05
0.000954681
0.00010343
0.000939506
0.000109005
0.000923568
0.00011437
0.000906632
0.000119487
0.000888674
0.000124344
0.000869919
0.000128966
0.000850684
0.000133346
0.000831335
0.000137416
0.000811831
0.000141113
0.000791983
0.000144386
0.000771605
0.000147199
0.000750566
0.000149559
0.000728954
0.000151501
0.000707021
0.000153078
0.000685103
0.000154286
0.000663484
0.000155102
0.000642068
0.000155521
0.000620747
0.000155502
0.000599399
0.000155061
0.000577912
0.000154245
0.000556356
0.000153127
0.000534887
0.000151781
0.000513618
0.000150244
0.000492581
0.000148562
0.000471746
0.000146774
0.000451085
0.000144978
0.000430635
0.000143282
0.000410427
0.000141817
0.000390501
0.000140686
0.000370952
0.000139979
0.000351792
0.000139791
0.000332872
0.000140264
0.000313885
0.00014152
0.000294745
0.000143697
0.000275546
0.000146932
0.000256341
0.000151432
0.000237029
0.000157329
0.000217435
0.000164878
0.000197415
0.000174035
0.000176869
0.000185078
0.000155704
0.000197952
0.000133709
0.000212876
0.000110418
0.000231765
8.53036e-05
0.000253814
5.77835e-05
0.000271847
2.88669e-05
-6.24921e-05
-6.59478e-05
0.000834816
-6.93531e-05
0.000852607
-7.26565e-05
0.000870615
-7.58091e-05
0.00088884
-7.87653e-05
0.000907271
-8.14839e-05
0.000925891
-8.39282e-05
0.000944674
-8.60669e-05
0.000963588
-8.78744e-05
0.000982597
-8.93305e-05
0.00100166
-9.0421e-05
0.00102073
-9.11374e-05
0.00103975
-9.14766e-05
0.00105869
-9.14407e-05
0.00107748
-9.10365e-05
0.00109608
-9.02749e-05
0.00111444
-8.91707e-05
0.00113251
-8.77415e-05
0.00115024
-8.60076e-05
0.00116758
-8.39913e-05
0.00118451
-8.17161e-05
0.00120098
-7.92063e-05
0.00121695
-7.64868e-05
0.0012324
-7.35821e-05
0.00124731
-7.05164e-05
0.00126164
-6.7313e-05
0.00127537
-6.39942e-05
0.0012885
-6.05808e-05
0.00130102
-5.70923e-05
0.0013129
-5.35464e-05
0.00132415
-4.99592e-05
0.00133476
-4.63449e-05
0.00134473
-4.27162e-05
0.00135407
-3.90837e-05
0.00136277
-3.54566e-05
0.00137084
-3.18422e-05
0.00137828
-2.82462e-05
0.00138511
-2.46712e-05
0.00139132
-2.11074e-05
0.00139687
-1.75148e-05
0.00140139
-1.08909e-05
0.0014025
9.88734e-06
0.00138849
3.58735e-05
0.00133207
4.96165e-05
0.00127048
-2.07527e-06
0.00125303
1.97393e-06
0.0012503
4.05809e-06
0.00124745
3.42384e-06
0.00124267
2.55683e-06
0.00123543
3.21342e-06
0.00122581
5.19072e-06
0.00121584
7.41654e-06
0.00120822
9.64636e-06
0.00120244
1.22723e-05
0.00119718
1.54799e-05
0.00119201
1.90343e-05
0.00118652
2.27727e-05
0.00118022
2.67201e-05
0.0011728
3.09698e-05
0.00116428
3.55585e-05
0.0011549
4.04649e-05
0.00114515
4.57135e-05
0.00113531
5.12904e-05
0.00112554
5.71486e-05
0.00111568
6.31597e-05
0.00110516
6.93003e-05
0.00109349
7.55069e-05
0.0010804
8.17415e-05
0.00106589
8.79773e-05
0.00105013
9.43153e-05
0.00103404
0.000100742
0.00101824
0.000107221
0.00100276
0.000113688
0.000987111
0.000120021
0.000970806
0.000126166
0.000953586
0.000132071
0.00093532
0.000137718
0.000916135
0.000143095
0.000896265
0.000148216
0.000876079
0.000153049
0.000855787
0.000157509
0.000835223
0.000161545
0.000814239
0.000165103
0.000792649
0.000168158
0.000770406
0.000170737
0.000747717
0.000172862
0.000724826
0.000174579
0.000702156
0.000175875
0.000679813
0.000176714
0.000657616
0.000177077
0.000635462