/*--------------------------------*- C++ -*----------------------------------*\
| =========                 |                                                 |
| \\      /  F ield         | OpenFOAM: The Open Source CFD Toolbox           |
|  \\    /   O peration     | Version:  2.2.x                                 |
|   \\  /    A nd           | Web:      www.OpenFOAM.org                      |
|    \\/     M anipulation  |                                                 |
\*---------------------------------------------------------------------------*/
FoamFile
{
    version     2.0;
    format      ascii;
    class       volScalarField;
    location    "0.4";
    object      T;
}
// * * * * * * * * * * * * * * * * * * * * * * * * * * * * * * * * * * * * * //

dimensions      [0 0 0 1 0 0 0];

internalField   nonuniform List<scalar> 
14161
(
1
1
1
1
1
1
1
1
1
1
1
1
1
1
1
1
1
1
1
1
1
1
1
1
1
1
1
1
1
1
1
1
1
1
1
1
1
1.00003
1.00026
1.00213
1.01822
1.14755
1.96134
2.81503
3.14682
3.21243
3.22343
3.22781
3.23373
3.24054
3.24683
3.25198
3.25593
3.2585
3.2609
3.26388
3.26843
3.27398
3.27907
3.28335
3.28715
3.29061
3.2939
3.2972
3.30084
3.30516
3.31
3.3148
3.31931
3.32351
3.32739
3.33097
3.33459
3.33874
3.34358
3.34873
3.35373
3.35848
3.36298
3.36728
3.37152
3.376
3.38081
3.38576
3.39065
3.39541
3.40005
3.40462
3.40936
3.41451
3.41999
3.42564
3.43122
3.43664
3.44186
3.44701
3.45234
3.45811
3.46443
3.47121
3.47825
3.48551
3.49311
3.50112
3.50955
3.51846
3.52798
3.5383
3.54977
3.56303
3.57905
3.5992
3.62548
3.66074
3.70896
3.76145
3.80111
3.82277
3.83055
1
1
1
1
1
1
1
1
1
1
1
1
1
1
1
1
1
1
1
1
1
1
1
1
1
1
1
1
1
1
1
1
1
1
1
1
1
1.00003
1.00026
1.00211
1.01809
1.1468
1.95968
2.81464
3.14737
3.21323
3.22441
3.22896
3.23502
3.24186
3.24814
3.25328
3.25715
3.2596
3.26194
3.2649
3.26946
3.27498
3.28003
3.28431
3.28812
3.2916
3.29491
3.29823
3.30189
3.30623
3.31108
3.31588
3.32037
3.32454
3.32837
3.33189
3.33546
3.33957
3.3444
3.34952
3.35448
3.35922
3.36371
3.36802
3.37229
3.37677
3.38158
3.38653
3.39139
3.39613
3.40074
3.40528
3.41
3.41512
3.42058
3.4262
3.43174
3.43712
3.44231
3.44743
3.45274
3.45849
3.46479
3.47155
3.47857
3.48581
3.49339
3.50139
3.50981
3.51868
3.52816
3.5384
3.54981
3.56301
3.57896
3.59904
3.62522
3.66031
3.70825
3.76068
3.80037
3.82215
3.82981
1
1
1
1
1
1
1
1
1
1
1
1
1
1
1
1
1
1
1
1
1
1
1
1
1
1
1
1
1
1
1
1
1
1
1
1
1
1.00003
1.00025
1.00207
1.01773
1.14373
1.95264
2.81142
3.14584
3.21219
3.22371
3.22849
3.23479
3.24174
3.24804
3.25315
3.25692
3.25927
3.26157
3.26458
3.26922
3.27472
3.27967
3.28392
3.28772
3.2912
3.29454
3.29787
3.30158
3.30597
3.31084
3.31565
3.32014
3.3243
3.32812
3.3316
3.33517
3.3393
3.34413
3.34922
3.35416
3.35888
3.36336
3.36769
3.37198
3.37649
3.38132
3.38628
3.39114
3.39586
3.40046
3.40498
3.40969
3.4148
3.42024
3.42583
3.43135
3.4367
3.44186
3.44696
3.45227
3.45805
3.46438
3.47115
3.47816
3.48541
3.49302
3.50102
3.50945
3.51834
3.52783
3.53808
3.54948
3.56265
3.57853
3.59846
3.62443
3.65926
3.70692
3.75923
3.79896
3.82087
3.82837
1
1
1
1
1
1
1
1
1
1
1
1
1
1
1
1
1
1
1
1
1
1
1
1
1
1
1
1
1
1
1
1
1
1
1
1
1
1.00003
1.00025
1.00201
1.01721
1.13941
1.94298
2.80759
3.14408
3.21069
3.22232
3.22711
3.23354
3.24052
3.24679
3.25183
3.25551
3.25785
3.26009
3.26316
3.2679
3.27339
3.27823
3.28242
3.28619
3.28965
3.29299
3.29635
3.30011
3.30456
3.30946
3.31427
3.31878
3.32296
3.3268
3.33031
3.33392
3.33812
3.34301
3.3481
3.35301
3.35772
3.3622
3.36654
3.37084
3.37537
3.38021
3.38516
3.39001
3.39472
3.39929
3.40378
3.40848
3.41359
3.419
3.42457
3.43007
3.4354
3.44054
3.44564
3.45095
3.45676
3.46313
3.46993
3.47694
3.48423
3.49186
3.49988
3.50832
3.51724
3.5268
3.53717
3.54866
3.56187
3.57772
3.59754
3.62328
3.65772
3.70487
3.75709
3.79708
3.8191
3.82646
1
1
1
1
1
1
1
1
1
1
1
1
1
1
1
1
1
1
1
1
1
1
1
1
1
1
1
1
1
1
1
1
1
1
1
1
1
1.00003
1.00024
1.00193
1.01651
1.13391
1.93069
2.80335
3.14285
3.20981
3.22183
3.22699
3.2338
3.24087
3.24716
3.25219
3.25573
3.25808
3.2603
3.26354
3.2684
3.27384
3.27857
3.28266
3.28634
3.28979
3.29313
3.29655
3.30043
3.30498
3.30991
3.3147
3.31917
3.32329
3.32707
3.33054
3.33417
3.33839
3.34327
3.34831
3.35315
3.35776
3.36218
3.36647
3.37077
3.3753
3.38012
3.38501
3.38978
3.39441
3.39891
3.40336
3.40803
3.41312
3.41852
3.42406
3.42954
3.43486
3.44001
3.4451
3.45038
3.45613
3.46244
3.46919
3.47618
3.48341
3.49099
3.49895
3.50732
3.51617
3.52567
3.53599
3.54747
3.56068
3.5765
3.59623
3.6218
3.65594
3.70256
3.75449
3.79472
3.8167
3.82374
1
1
1
1
1
1
1
1
1
1
1
1
1
1
1
1
1
1
1
1
1
1
1
1
1
1
1
1
1
1
1
1
1
1
1
1
1
1.00003
1.00022
1.00183
1.01559
1.1264
1.9129
2.79706
3.14119
3.20898
3.22156
3.22705
3.23406
3.24104
3.24709
3.25178
3.25498
3.25723
3.25939
3.26284
3.26785
3.27324
3.27789
3.28195
3.28562
3.28908
3.29247
3.29599
3.3
3.30468
3.30962
3.31435
3.31876
3.32279
3.32649
3.32996
3.33366
3.33797
3.34289
3.34792
3.35271
3.35729
3.36169
3.36599
3.37033
3.37494
3.37979
3.38469
3.38945
3.39407
3.39856
3.40302
3.40775
3.4129
3.41836
3.42391
3.42938
3.43469
3.43986
3.44497
3.45023
3.45588
3.46204
3.46867
3.47558
3.48271
3.49017
3.49804
3.50632
3.51508
3.52448
3.53471
3.54611
3.55926
3.57503
3.59466
3.62007
3.65392
3.70001
3.75155
3.79193
3.81377
3.82055
1
1
1
1
1
1
1
1
1
1
1
1
1
1
1
1
1
1
1
1
1
1
1
1
1
1
1
1
1
1
1
1
1
1
1
1
1
1.00003
1.00021
1.00169
1.01437
1.11629
1.88803
2.788
3.13836
3.20716
3.22024
3.22609
3.23339
3.24027
3.24607
3.25047
3.2534
3.2556
3.25788
3.26169
3.26692
3.27228
3.27686
3.28095
3.28464
3.28809
3.29143
3.29499
3.29909
3.30378
3.30857
3.31301
3.31716
3.32097
3.3245
3.32788
3.33163
3.33607
3.34102
3.34593
3.35065
3.35519
3.35958
3.3639
3.36832
3.37305
3.37798
3.38293
3.38777
3.39248
3.39711
3.40175
3.40671
3.41205
3.41762
3.42324
3.42875
3.43412
3.43935
3.44453
3.44987
3.45554
3.46164
3.4682
3.47502
3.48205
3.48941
3.49717
3.50534
3.51399
3.5233
3.53341
3.5447
3.55777
3.57345
3.59297
3.61819
3.65174
3.6973
3.74848
3.7887
3.81033
3.81679
1
1
1
1
1
1
1
1
1
1
1
1
1
1
1
1
1
1
1
1
1
1
1
1
1
1
1
1
1
1
1
1
1
1
1
1
1
1.00002
1.00019
1.00153
1.01292
1.10406
1.85628
2.77641
3.13448
3.20459
3.21872
3.22532
3.23302
3.23986
3.24555
3.24975
3.25232
3.2545
3.25715
3.26139
3.26675
3.27186
3.27626
3.2802
3.28378
3.28717
3.29056
3.29426
3.29859
3.30334
3.30795
3.31224
3.31623
3.31987
3.32323
3.32661
3.33052
3.33514
3.34008
3.34492
3.34959
3.35409
3.35842
3.36268
3.36711
3.37184
3.3767
3.38152
3.38624
3.39086
3.39544
3.40013
3.40518
3.41057
3.41615
3.42175
3.4273
3.43273
3.43806
3.44337
3.44886
3.45467
3.46088
3.46747
3.47427
3.48127
3.48859
3.49625
3.5043
3.51287
3.52207
3.53208
3.54326
3.55622
3.57179
3.59118
3.61621
3.64944
3.69446
3.74527
3.78507
3.80658
3.81296
1
1
1
1
1
1
1
1
1
1
1
1
1
1
1
1
1
1
1
1
1
1
1
1
1
1
1
1
1
1
1
1
1
1
1
1
1
1.00002
1.00017
1.00135
1.01128
1.09003
1.81676
2.76197
3.13002
3.20221
3.21762
3.22502
3.23295
3.23958
3.24491
3.24864
3.2511
3.2532
3.25629
3.26096
3.26635
3.27117
3.27537
3.27914
3.28268
3.28612
3.28969
3.29371
3.29835
3.30315
3.30768
3.31189
3.31573
3.31923
3.32247
3.32591
3.32998
3.33467
3.33955
3.34429
3.34883
3.35321
3.35746
3.36169
3.36616
3.37086
3.37563
3.38032
3.38491
3.38941
3.39391
3.39859
3.40366
3.40907
3.41466
3.42025
3.42578
3.43122
3.43659
3.44196
3.44752
3.45341
3.45969
3.46634
3.4732
3.48026
3.4876
3.49523
3.50322
3.5117
3.52081
3.5307
3.54175
3.55458
3.57002
3.58925
3.61409
3.64702
3.69151
3.74191
3.78119
3.80268
3.80897
1
1
1
1
1
1
1
1
1
1
1
1
1
1
1
1
1
1
1
1
1
1
1
1
1
1
1
1
1
1
1
1
1
1
1
1
1
1.00002
1.00014
1.00115
1.00949
1.07429
1.76791
2.74368
3.12429
3.19916
3.21598
3.22451
3.23248
3.23887
3.24377
3.24685
3.24915
3.25147
3.25521
3.26036
3.26566
3.27019
3.27421
3.27787
3.28137
3.28489
3.2887
3.29305
3.2979
3.30265
3.30703
3.3111
3.31478
3.31813
3.32138
3.32501
3.32925
3.334
3.3388
3.34342
3.34788
3.3522
3.35643
3.36071
3.36524
3.36994
3.37466
3.37925
3.38372
3.38811
3.39254
3.39724
3.40238
3.40781
3.41336
3.41887
3.42432
3.42972
3.43508
3.44051
3.44615
3.4521
3.45844
3.46512
3.47195
3.47901
3.48634
3.49394
3.50188
3.51033
3.51935
3.52913
3.54007
3.55278
3.5681
3.58718
3.61183
3.64445
3.68843
3.73831
3.77706
3.79864
3.80483
1
1
1
1
1
1
1
1
1
1
1
1
1
1
1
1
1
1
1
1
1
1
1
1
1
1
1
1
1
1
1
1
1
1
1
1
1
1.00002
1.00012
1.00094
1.0076
1.05729
1.7087
2.7207
3.11663
3.19523
3.21401
3.22387
3.23187
3.23783
3.24203
3.24475
3.24691
3.24989
3.25449
3.25982
3.26468
3.26894
3.27277
3.27629
3.27972
3.28333
3.28741
3.29213
3.29703
3.3016
3.30584
3.30971
3.31325
3.31651
3.31996
3.32393
3.32849
3.33328
3.33795
3.34248
3.34685
3.35111
3.35534
3.35972
3.36435
3.36907
3.3737
3.37818
3.38253
3.38679
3.39114
3.39588
3.40102
3.4064
3.41185
3.41728
3.42267
3.42803
3.4334
3.43887
3.44458
3.45059
3.457
3.46369
3.47052
3.47759
3.4849
3.49246
3.50036
3.50877
3.51774
3.52744
3.53827
3.55088
3.56608
3.58501
3.60946
3.64179
3.68534
3.73444
3.77266
3.79443
3.80057
1
1
1
1
1
1
1
1
1
1
1
1
1
1
1
1
1
1
1
1
1
1
1
1
1
1
1
1
1
1
1
1
1
1
1
1
1
1.00001
1.0001
1.00074
1.00572
1.04002
1.63935
2.69259
3.1064
3.19023
3.2118
3.22313
3.23095
3.23624
3.23957
3.24214
3.24465
3.24863
3.25386
3.25888
3.26332
3.2673
3.27091
3.27431
3.27779
3.28166
3.28616
3.29108
3.29577
3.30014
3.30419
3.30786
3.31124
3.31462
3.31843
3.32278
3.32751
3.33224
3.33683
3.34128
3.34557
3.34979
3.35407
3.35859
3.36328
3.36794
3.37245
3.37681
3.38106
3.38528
3.38968
3.39448
3.39961
3.40491
3.41025
3.41558
3.4209
3.4262
3.43156
3.43706
3.4428
3.44887
3.45532
3.46201
3.46887
3.47596
3.48326
3.49078
3.49864
3.50701
3.51592
3.52555
3.5363
3.54882
3.5639
3.58267
3.60689
3.63887
3.68196
3.73034
3.76809
3.7901
3.79618
1
1
1
1
1
1
1
1
1
1
1
1
1
1
1
1
1
1
1
1
1
1
1
1
1
1
1
1
1
1
1
1
1
1
1
1
1
1.00001
1.00008
1.00055
1.00396
1.02354
1.56236
2.66017
3.09121
3.18347
3.20938
3.22226
3.22923
3.23348
3.2368
3.23925
3.24277
3.24783
3.25294
3.25745
3.26157
3.26529
3.26871
3.27212
3.27584
3.28013
3.28496
3.28971
3.29413
3.29827
3.30202
3.30548
3.30885
3.31255
3.31671
3.32135
3.32609
3.3307
3.33519
3.33953
3.34378
3.34805
3.3525
3.35715
3.36184
3.36643
3.37086
3.37515
3.37934
3.38357
3.3881
3.39299
3.39811
3.40334
3.40856
3.41379
3.41902
3.42427
3.42961
3.43511
3.44087
3.44697
3.45344
3.46014
3.46703
3.47414
3.48141
3.48889
3.49673
3.50507
3.51391
3.52347
3.53414
3.54655
3.56151
3.58011
3.60413
3.63577
3.67821
3.7261
3.76338
3.78558
3.79155
1
1
1
1
1
1
1
1
1
1
1
1
1
1
1
1
1
1
1
1
1
1
1
1
1
1
1
1
1
1
1
1
1
1
1
1
1
1.00001
1.00006
1.00039
1.0024
1.00853
1.48356
2.62561
3.06455
3.17476
3.20671
3.22045
3.2265
3.23058
3.23361
3.23702
3.2418
3.24692
3.25141
3.25556
3.25938
3.26284
3.26621
3.26981
3.27394
3.27867
3.28341
3.28785
3.292
3.29577
3.29925
3.30263
3.30625
3.3103
3.31478
3.3195
3.3241
3.3286
3.33296
3.33724
3.34153
3.34594
3.35055
3.35527
3.35994
3.36447
3.36883
3.37307
3.37728
3.38166
3.38639
3.39137
3.39649
3.40162
3.40675
3.41188
3.41704
3.42224
3.42755
3.43303
3.43878
3.44488
3.45135
3.45806
3.46499
3.47211
3.47934
3.48677
3.49459
3.5029
3.51168
3.52118
3.53178
3.54407
3.5589
3.57731
3.60109
3.63244
3.67418
3.72157
3.75847
3.78085
3.78672
1
1
1
1
1
1
1
1
1
1
1
1
1
1
1
1
1
1
1
1
1
1
1
1
1
1
1
1
1
1
1
1
1
1
1
1
1
1.00001
1.00006
1.0003
1.00123
0.995525
1.39953
2.58225
3.03115
3.1651
3.20328
3.21793
3.22368
3.22763
3.23133
3.23579
3.2408
3.24522
3.24932
3.25315
3.25665
3.26001
3.26352
3.26757
3.27216
3.27684
3.28125
3.28539
3.28914
3.2926
3.29599
3.2996
3.30357
3.30794
3.31257
3.31714
3.32161
3.32599
3.33027
3.33457
3.33895
3.34352
3.34822
3.35294
3.35754
3.36199
3.36631
3.37057
3.37492
3.37956
3.38448
3.38954
3.39464
3.3997
3.40475
3.40982
3.41493
3.4201
3.42537
3.4308
3.43651
3.4426
3.44906
3.4558
3.46276
3.46986
3.47703
3.48441
3.49221
3.50048
3.50921
3.51864
3.52918
3.54134
3.55603
3.57426
3.59775
3.62882
3.66975
3.71661
3.75325
3.77589
3.78156
1
1
1
1
1
1
1
1
1
1
1
1
1
1
1
1
1
1
1
1
1
1
1
1
1
1
1
1
1
1
1
1
1
1
1
1
1
1.00001
1.00006
1.00029
1.00076
0.986765
1.31477
2.52321
2.99291
3.15563
3.20028
3.21526
3.22179
3.22575
3.22978
3.23445
3.23881
3.24284
3.24664
3.25019
3.25354
3.25704
3.26104
3.26546
3.26997
3.27431
3.27838
3.2821
3.28556
3.289
3.29264
3.29658
3.30087
3.3054
3.30992
3.31434
3.3187
3.32297
3.32726
3.33162
3.33613
3.34078
3.34549
3.35011
3.35459
3.35896
3.36328
3.36765
3.37229
3.37718
3.38225
3.38737
3.39244
3.39746
3.40248
3.40754
3.41266
3.41781
3.42301
3.42839
3.43405
3.4401
3.44657
3.45336
3.46035
3.4674
3.47447
3.48183
3.48959
3.4978
3.50648
3.51583
3.52632
3.53835
3.55287
3.57093
3.59404
3.62497
3.6648
3.71114
3.7477
3.77064
3.77615
1
1
1
1
1
1
1
1
1
1
1
1
1
1
1
1
1
1
1
1
1
1
1
1
1
1
1
1
1
1
1
1
1
1
1
1
1
1.00001
1.00007
1.00036
1.00128
0.986385
1.25174
2.4347
2.95386
3.14761
3.19845
3.21413
3.22047
3.22404
3.22774
3.23202
3.23607
3.23985
3.24339
3.24681
3.25039
3.25433
3.25853
3.26279
3.26696
3.27094
3.27462
3.27815
3.2817
3.2854
3.28934
3.29358
3.29805
3.30248
3.30685
3.31116
3.31541
3.31968
3.32401
3.32847
3.33305
3.3377
3.34228
3.34675
3.35111
3.35545
3.35984
3.36446
3.36936
3.37443
3.37961
3.38475
3.38981
3.39484
3.39988
3.405
3.41015
3.41529
3.42043
3.42574
3.43135
3.43738
3.4439
3.45075
3.45775
3.46471
3.47169
3.47901
3.48673
3.49488
3.5035
3.51275
3.52318
3.53509
3.54941
3.56734
3.59006
3.62077
3.65949
3.70518
3.74178
3.76514
3.77042
1
1
1
1
1
1
1
1
1
1
1
1
1
1
1
1
1
1
1
1
1
1
1
1
1
1
1
1
1
1
1
1
1
1
1
1
1
1.00001
1.00006
1.00046
1.00289
1.00727
1.22391
2.30391
2.9037
3.13817
3.197
3.2137
3.21842
3.2212
3.2247
3.22883
3.23277
3.23643
3.2399
3.2435
3.24742
3.25132
3.25524
3.25919
3.26303
3.26673
3.2704
3.27409
3.27786
3.28183
3.28606
3.29047
3.29483
3.29912
3.30338
3.30759
3.31184
3.31614
3.32056
3.32508
3.32962
3.33412
3.33852
3.34285
3.34718
3.35157
3.35617
3.36103
3.36609
3.37129
3.3765
3.38164
3.38673
3.39181
3.39694
3.40215
3.40736
3.41248
3.41756
3.42281
3.42838
3.43445
3.44104
3.44797
3.45492
3.46175
3.46867
3.47595
3.48361
3.49167
3.50024
3.50939
3.51971
3.53153
3.54561
3.56349
3.58579
3.61613
3.65388
3.69882
3.7355
3.75931
3.76433
1
1
1
1
1
1
1
1
1
1
1
1
1
1
1
1
1
1
1
1
1
1
1
1
1
1
1
1
1
1
1
1
1
1
1
1
1
1.00001
1.00004
1.00036
1.00285
1.02301
1.18254
2.12779
2.84417
3.12854
3.19545
3.21085
3.21421
3.21705
3.22118
3.22542
3.22922
3.2328
3.2364
3.24007
3.24375
3.2474
3.25107
3.25483
3.25865
3.26244
3.2662
3.27005
3.27408
3.27832
3.28266
3.28691
3.29112
3.29532
3.29951
3.30373
3.30801
3.31238
3.31681
3.32125
3.32564
3.32995
3.33424
3.33855
3.34295
3.34752
3.3523
3.35729
3.36247
3.36771
3.37291
3.37807
3.38321
3.38839
3.39365
3.39897
3.40422
3.40932
3.41437
3.41958
3.42517
3.43133
3.43803
3.44501
3.45186
3.45856
3.46543
3.47266
3.48024
3.48819
3.4967
3.50574
3.51592
3.52769
3.54146
3.55941
3.58114
3.61107
3.64792
3.69209
3.7289
3.75315
3.75789
1
1
1
1
1
1
1
1
1
1
1
1
1
1
1
1
1
1
1
1
1
1
1
1
1
1
1
1
1
1
1
1
1
1
1
1
1
1
1.00003
1.0002
1.00166
1.01363
1.11385
1.92056
2.77395
3.11483
3.19071
3.20455
3.20823
3.21271
3.21765
3.22195
3.22572
3.22881
3.23204
3.23562
3.23922
3.24281
3.24654
3.2504
3.25424
3.2581
3.26206
3.26615
3.27037
3.2746
3.27874
3.28286
3.287
3.29115
3.29534
3.29958
3.30387
3.3082
3.31251
3.31679
3.32103
3.32528
3.32958
3.33399
3.33854
3.34325
3.34816
3.35326
3.35847
3.36367
3.36886
3.37405
3.37928
3.38458
3.38996
3.39535
3.40062
3.40571
3.41075
3.41598
3.42167
3.42799
3.4348
3.44176
3.44845
3.45507
3.4619
3.46907
3.47657
3.48439
3.49283
3.50179
3.51178
3.52353
3.53697
3.55495
3.57606
3.60557
3.64162
3.68503
3.72202
3.74667
3.75106
1
1
1
1
1
1
1
1
1
1
1
1
1
1
1
1
1
1
1
1
1
1
1
1
1
1
1
1
1
1
1
1
1
1
1
1
1
1
1.00001
1.0001
1.00078
1.00572
1.04611
1.68812
2.6859
3.09326
3.17865
3.1953
3.20289
3.20939
3.21396
3.21759
3.22063
3.22363
3.22714
3.23081
3.23441
3.23803
3.24191
3.24591
3.2499
3.25395
3.25807
3.26223
3.2663
3.27034
3.27438
3.27845
3.28253
3.28664
3.2908
3.29499
3.29919
3.30337
3.30754
3.31173
3.31596
3.32027
3.32469
3.32923
3.33391
3.33875
3.34375
3.34888
3.35403
3.3592
3.3644
3.36966
3.37499
3.3804
3.38585
3.39125
3.39653
3.40165
3.40674
3.41207
3.41795
3.42444
3.43132
3.43818
3.44471
3.45129
3.45809
3.46517
3.4726
3.48029
3.48862
3.49752
3.50731
3.51906
3.53218
3.55006
3.57058
3.59968
3.63497
3.67768
3.71487
3.73984
3.74383
1
1
1
1
1
1
1
1
1
1
1
1
1
1
1
1
1
1
1
1
1
1
1
1
1
1
1
1
1
1
1
1
1
1
1
1
1
1
1.00001
1.00007
1.00039
1.00184
1.00244
1.45888
2.5836
3.05011
3.15716
3.1858
3.19862
3.20514
3.20903
3.21183
3.21474
3.21828
3.22209
3.22582
3.2295
3.23339
3.23748
3.24161
3.24572
3.24976
3.25374
3.25772
3.26169
3.26565
3.26962
3.2736
3.27761
3.28165
3.28571
3.28978
3.29386
3.29796
3.30211
3.30634
3.31065
3.31505
3.31957
3.32423
3.32903
3.33396
3.33898
3.34405
3.34917
3.35435
3.35959
3.36492
3.37033
3.37578
3.38123
3.38663
3.39193
3.39713
3.40235
3.40789
3.41399
3.42062
3.42749
3.43417
3.44062
3.44718
3.45395
3.46093
3.46829
3.47586
3.48405
3.4929
3.50246
3.51426
3.52705
3.54475
3.5647
3.59341
3.62795
3.66998
3.70743
3.73268
3.73623
1
1
1
1
1
1
1
1
1
1
1
1
1
1
1
1
1
1
1
1
1
1
1
1
1
1
1
1
1
1
1
1
1
1
1
1
1
1
1.00001
1.00007
1.0004
1.00159
0.991136
1.27697
2.4555
2.96033
3.13133
3.17857
3.19528
3.20106
3.20352
3.20607
3.20935
3.21324
3.21721
3.22105
3.225
3.22908
3.23316
3.23714
3.24102
3.24488
3.24877
3.25266
3.25656
3.26044
3.26433
3.26823
3.27215
3.27609
3.28006
3.28406
3.28812
3.29226
3.29647
3.30075
3.30512
3.3096
3.31422
3.31898
3.32384
3.32878
3.33377
3.33882
3.34395
3.34916
3.35445
3.35981
3.36523
3.37067
3.37611
3.38152
3.3869
3.39224
3.39767
3.40346
3.40976
3.41647
3.42325
3.42976
3.43618
3.44273
3.44947
3.45635
3.46363
3.47109
3.47912
3.48797
3.49725
3.50912
3.52162
3.53905
3.55843
3.58676
3.62057
3.66194
3.69969
3.72518
3.72818
1
1
1
1
1
1
1
1
1
1
1
1
1
1
1
1
1
1
1
1
1
1
1
1
1
1
1
1
1
1
1
1
1
1
1
1
1
1
1.00001
1.00005
1.0004
1.00306
1.02403
1.1938
2.20215
2.86353
3.11584
3.17833
3.19321
3.19609
3.19798
3.20096
3.20458
3.20841
3.21231
3.21624
3.22028
3.22428
3.22814
3.23192
3.23567
3.23946
3.24331
3.24712
3.2509
3.25466
3.25846
3.2623
3.26617
3.27008
3.27404
3.27806
3.28214
3.28629
3.29053
3.29488
3.29934
3.30391
3.30859
3.31339
3.31825
3.32317
3.32816
3.33323
3.33839
3.34363
3.34893
3.35427
3.35965
3.36507
3.37054
3.37603
3.38155
3.38709
3.39273
3.39874
3.4052
3.41191
3.41853
3.42495
3.43138
3.43791
3.4446
3.45139
3.45857
3.46595
3.47379
3.4827
3.49166
3.50364
3.51587
3.53297
3.55177
3.57971
3.61278
3.65353
3.69163
3.71732
3.7198
1
1
1
1
1
1
1
1
1
1
1
1
1
1
1
1
1
1
1
1
1
1
1
1
1
1
1
1
1
1
1
1
1
1
1
1
1
1
1
1.00002
1.00019
1.00147
1.01094
1.09293
1.87671
2.74756
3.09764
3.17241
3.18457
3.18732
3.19106
3.19507
3.19916
3.20322
3.20717
3.211
3.2148
3.21869
3.22251
3.22624
3.22996
3.23368
3.23738
3.24105
3.24471
3.24839
3.25214
3.25596
3.25983
3.26376
3.26773
3.27175
3.27585
3.28004
3.28433
3.28873
3.29324
3.29786
3.30257
3.30736
3.31222
3.31714
3.32215
3.32724
3.33242
3.33765
3.3429
3.3482
3.35357
3.35905
3.36462
3.37028
3.37596
3.38164
3.38749
3.3937
3.40023
3.40689
3.41339
3.41978
3.42622
3.4327
3.43936
3.44604
3.45313
3.46051
3.4681
3.47708
3.48574
3.49778
3.50976
3.52652
3.54472
3.57226
3.60463
3.64478
3.68321
3.70912
3.71087
1
1
1
1
1
1
1
1
1
1
1
1
1
1
1
1
1
1
1
1
1
1
1
1
1
1
1
1
1
1
1
1
1
1
1
1
1
1
1
1.00001
1.00008
1.00049
1.0025
1.0097
1.5124
2.60222
3.05977
3.15164
3.17074
3.17888
3.1844
3.18911
3.19323
3.19737
3.20135
3.20527
3.20911
3.21283
3.21645
3.22002
3.2236
3.22721
3.23083
3.23445
3.2381
3.24179
3.24553
3.24932
3.25315
3.25706
3.26103
3.26509
3.26923
3.27347
3.2778
3.28223
3.28676
3.29138
3.29608
3.30087
3.30573
3.31068
3.31569
3.32079
3.32594
3.33114
3.33638
3.3417
3.34715
3.35276
3.35848
3.36427
3.37005
3.37588
3.38191
3.38824
3.39479
3.4014
3.40782
3.41421
3.42066
3.42708
3.4337
3.44029
3.44727
3.45473
3.46208
3.4711
3.47949
3.49152
3.50323
3.51967
3.53735
3.56445
3.59616
3.63568
3.6743
3.70046
3.7016
1
1
1
1
1
1
1
1
1
1
1
1
1
1
1
1
1
1
1
1
1
1
1
1
1
1
1
1
1
1
1
1
1
1
1
1
1
1
1
1.00001
1.00007
1.00045
1.00237
1.00032
1.24867
2.41661
2.94654
3.11064
3.1553
3.17201
3.17952
3.18405
3.18792
3.19156
3.19517
3.19891
3.20256
3.20609
3.20959
3.21315
3.21674
3.2203
3.22385
3.22742
3.23104
3.23473
3.23848
3.24226
3.24609
3.24999
3.25399
3.25808
3.26226
3.26652
3.27086
3.27528
3.2798
3.28441
3.2891
3.29389
3.29875
3.30369
3.30871
3.31382
3.31899
3.32424
3.32955
3.33498
3.34056
3.34629
3.35212
3.35798
3.36386
3.36981
3.37596
3.38236
3.38894
3.39546
3.40185
3.40823
3.4147
3.42107
3.42763
3.43415
3.44103
3.44861
3.45578
3.46481
3.47288
3.48482
3.49627
3.51243
3.52965
3.55627
3.58735
3.62628
3.66488
3.69129
3.69162
1
1
1
1
1
1
1
1
1
1
1
1
1
1
1
1
1
1
1
1
1
1
1
1
1
1
1
1
1
1
1
1
1
1
1
1
1
1
1
1
1.00004
1.00028
1.00209
1.01606
1.13861
2.06879
2.8187
3.0892
3.15471
3.17066
3.17527
3.17798
3.18098
3.18462
3.18819
3.1917
3.19524
3.19883
3.20244
3.20596
3.20944
3.21288
3.21635
3.21988
3.22352
3.22724
3.23099
3.23477
3.2386
3.2425
3.24651
3.2506
3.2548
3.25907
3.2634
3.26781
3.2723
3.27689
3.28158
3.28638
3.29127
3.29624
3.3013
3.30648
3.31175
3.3171
3.32253
3.32806
3.33374
3.33956
3.34548
3.35142
3.35737
3.36339
3.3696
3.37607
3.38266
3.38909
3.39546
3.40183
3.40831
3.41461
3.42114
3.42765
3.43439
3.44214
3.44917
3.4582
3.46587
3.47767
3.48887
3.50478
3.52164
3.54776
3.57816
3.61656
3.65499
3.68161
3.6814
1
1
1
1
1
1
1
1
1
1
1
1
1
1
1
1
1
1
1
1
1
1
1
1
1
1
1
1
1
1
1
1
1
1
1
1
1
1
1
1
1.00001
1.00009
1.00056
1.0031
1.01828
1.62846
2.65505
3.05703
3.14174
3.15933
3.16535
3.16973
3.17368
3.1772
3.18048
3.18387
3.18736
3.19099
3.19462
3.19815
3.2016
3.20498
3.20839
3.2119
3.2155
3.21918
3.22293
3.22677
3.23064
3.23456
3.23855
3.2426
3.24673
3.251
3.25537
3.25982
3.26434
3.26894
3.27366
3.2785
3.28346
3.28852
3.29368
3.29892
3.30426
3.30968
3.31521
3.32085
3.32664
3.33256
3.33856
3.34456
3.35054
3.35659
3.36286
3.36938
3.37594
3.38229
3.38865
3.395
3.4015
3.40777
3.41427
3.42086
3.4274
3.4353
3.44224
3.45123
3.45847
3.47009
3.48107
3.49673
3.5133
3.5389
3.56857
3.6064
3.64446
3.67137
3.6703
1
1
1
1
1
1
1
1
1
1
1
1
1
1
1
1
1
1
1
1
1
1
1
1
1
1
1
1
1
1
1
1
1
1
1
1
1
1
1
1
1.00001
1.00007
1.00038
1.00142
0.99032
1.25562
2.43442
2.95131
3.10034
3.13944
3.15329
3.16021
3.16513
3.16941
3.17317
3.17637
3.17945
3.18257
3.18591
3.18935
3.19288
3.19654
3.2002
3.20376
3.20725
3.21076
3.21436
3.21816
3.2221
3.22611
3.23014
3.2342
3.23831
3.24251
3.24688
3.2514
3.25603
3.26072
3.2655
3.27039
3.27538
3.28051
3.28574
3.29106
3.29648
3.30197
3.30759
3.31335
3.31926
3.32527
3.33132
3.33734
3.34331
3.34939
3.35572
3.36227
3.36874
3.37503
3.38141
3.38776
3.39429
3.40057
3.40706
3.41377
3.42004
3.42809
3.43498
3.44383
3.45062
3.46209
3.47287
3.48826
3.50457
3.52967
3.55857
3.59575
3.63341
3.66071
3.65933
1
1
1
1
1
1
1
1
1
1
1
1
1
1
1
1
1
1
1
1
1
1
1
1
1
1
1
1
1
1
1
1
1
1
1
1
1
1
1
1
1.00001
1.00004
1.00028
1.00199
1.01478
1.13304
2.03798
2.80253
3.07099
3.13255
3.14787
3.15337
3.15687
3.16027
3.1639
3.16747
3.17085
3.17423
3.17755
3.18073
3.18393
3.18741
3.19114
3.19491
3.19857
3.20216
3.20569
3.20927
3.21306
3.21709
3.22124
3.22539
3.22958
3.23383
3.23817
3.24266
3.24733
3.25212
3.25699
3.26194
3.26698
3.27214
3.27745
3.28288
3.28841
3.29401
3.29971
3.30556
3.31156
3.31765
3.32371
3.32971
3.33569
3.34179
3.34817
3.35471
3.36109
3.36737
3.37382
3.38015
3.38674
3.39308
3.39952
3.40636
3.41237
3.42056
3.4273
3.43591
3.44231
3.45366
3.46429
3.47941
3.49545
3.52008
3.54819
3.58462
3.62171
3.64946
3.64725
1
1
1
1
1
1
1
1
1
1
1
1
1
1
1
1
1
1
1
1
1
1
1
1
1
1
1
1
1
1
1
1
1
1
1
1
1
1
1
1
1
1.00001
1.00009
1.00056
1.00283
1.00992
1.52231
2.59484
3.02611
3.11736
3.13766
3.14374
3.14737
3.15046
3.15373
3.15753
3.16148
3.16538
3.16887
3.17203
3.17508
3.1782
3.18158
3.18528
3.18911
3.19285
3.19655
3.20025
3.20397
3.20779
3.21187
3.21614
3.22044
3.22479
3.2292
3.2337
3.23833
3.24315
3.24811
3.25315
3.25828
3.26352
3.26888
3.27438
3.28
3.28571
3.29151
3.29744
3.30348
3.30958
3.31565
3.32164
3.32763
3.33376
3.34016
3.34666
3.35306
3.35938
3.36589
3.37223
3.37887
3.38531
3.3916
3.39857
3.40441
3.41262
3.41911
3.42749
3.43355
3.4448
3.45532
3.47017
3.48593
3.51008
3.53733
3.57302
3.60959
3.63791
3.63556
1
1
1
1
1
1
1
1
1
1
1
1
1
1
1
1
1
1
1
1
1
1
1
1
1
1
1
1
1
1
1
1
1
1
1
1
1
1
1
1
1
1.00001
1.00006
1.00044
1.00325
1.02552
1.20123
2.26584
2.87428
3.07077
3.11956
3.13314
3.13878
3.14256
3.14557
3.14855
3.15175
3.15524
3.15878
3.16223
3.16559
3.16892
3.17216
3.17547
3.17909
3.183
3.18693
3.19077
3.19459
3.19837
3.20226
3.20646
3.21089
3.21535
3.21985
3.22443
3.22909
3.2339
3.2389
3.24405
3.24926
3.25458
3.26001
3.26556
3.27123
3.27702
3.28289
3.28887
3.29494
3.30104
3.3071
3.3131
3.31914
3.32531
3.33177
3.33825
3.34475
3.35111
3.35769
3.36401
3.37066
3.37722
3.38335
3.3905
3.39606
3.40417
3.41041
3.41858
3.42435
3.43553
3.44596
3.4606
3.47609
3.49972
3.52605
3.56093
3.59689
3.62568
3.62267
1
1
1
1
1
1
1
1
1
1
1
1
1
1
1
1
1
1
1
1
1
1
1
1
1
1
1
1
1
1
1
1
1
1
1
1
1
1
1
1
1
1
1.00002
1.00017
1.00114
1.00835
1.06494
1.75491
2.68723
3.03084
3.10484
3.12316
3.12958
3.13371
3.13654
3.13891
3.14165
3.14487
3.14852
3.15232
3.15594
3.15935
3.16254
3.16568
3.16899
3.17273
3.17675
3.18071
3.18462
3.18854
3.19249
3.19659
3.20097
3.20552
3.21012
3.21476
3.2195
3.22434
3.22935
3.23454
3.23986
3.24526
3.25075
3.25634
3.26205
3.26787
3.27379
3.27981
3.2859
3.29202
3.29811
3.30416
3.31029
3.31655
3.32313
3.32963
3.33621
3.34258
3.34918
3.35552
3.36211
3.36879
3.37475
3.38204
3.38725
3.39523
3.40124
3.40922
3.41471
3.42582
3.43615
3.45065
3.46589
3.48889
3.51422
3.54834
3.5839
3.61339
3.61025
1
1
1
1
1
1
1
1
1
1
1
1
1
1
1
1
1
1
1
1
1
1
1
1
1
1
1
1
1
1
1
1
1
1
1
1
1
1
1
1
1
1
1.00001
1.00008
1.00055
1.00374
1.01778
1.26279
2.37865
2.90905
3.06329
3.10475
3.11729
3.12282
3.12657
3.12949
3.13217
3.13504
3.13823
3.14172
3.14526
3.14872
3.15215
3.15553
3.15891
3.16239
3.16619
3.17023
3.17429
3.17832
3.18239
3.18649
3.19074
3.19527
3.19996
3.2047
3.20952
3.21442
3.21945
3.22464
3.23
3.23549
3.24105
3.2467
3.25244
3.25829
3.26425
3.27033
3.27649
3.28266
3.28882
3.29495
3.3012
3.30757
3.31426
3.32074
3.32739
3.33375
3.34037
3.34676
3.35318
3.35999
3.36579
3.37309
3.37799
3.38581
3.39165
3.39943
3.40466
3.41571
3.4259
3.44036
3.45535
3.4777
3.50191
3.53503
3.57004
3.60024
3.59651
1
1
1
1
1
1
1
1
1
1
1
1
1
1
1
1
1
1
1
1
1
1
1
1
1
1
1
1
1
1
1
1
1
1
1
1
1
1
1
1
1
1
1
1.00003
1.00021
1.00159
1.0115
1.09665
1.86252
2.72393
3.02268
3.08927
3.10633
3.11203
3.11597
3.11938
3.1223
3.12505
3.12792
3.13109
3.13456
3.13818
3.14174
3.14523
3.14862
3.15196
3.15548
3.15939
3.16354
3.16767
3.17182
3.17602
3.18029
3.18475
3.18945
3.1943
3.1992
3.20417
3.20922
3.21441
3.21979
3.22535
3.23098
3.23669
3.24249
3.24838
3.2544
3.26056
3.26681
3.27304
3.27927
3.28546
3.29184
3.29832
3.30508
3.31156
3.31828
3.32464
3.33123
3.33767
3.34384
3.35082
3.35639
3.36364
3.36824
3.37596
3.38171
3.38924
3.39421
3.40518
3.41517
3.4296
3.44424
3.46594
3.4893
3.52153
3.5562
3.58722
3.58347
1
1
1
1
1
1
1
1
1
1
1
1
1
1
1
1
1
1
1
1
1
1
1
1
1
1
1
1
1
1
1
1
1
1
1
1
1
1
1
1
1
1
1
1.00001
1.00009
1.00065
1.00411
1.01931
1.2963
2.40016
2.91428
3.05034
3.08792
3.0993
3.10469
3.10883
3.11209
3.1149
3.11766
3.12051
3.12365
3.12713
3.13074
3.13429
3.13781
3.1413
3.14481
3.14851
3.15254
3.15673
3.16095
3.16521
3.16955
3.17398
3.17863
3.18352
3.18852
3.19359
3.19875
3.204
3.20939
3.21496
3.22066
3.22644
3.2323
3.23826
3.24433
3.25054
3.25686
3.26313
3.26945
3.2757
3.28224
3.28881
3.29561
3.30209
3.30885
3.31523
3.3217
3.3282
3.33414
3.34121
3.3465
3.35369
3.35806
3.3657
3.37146
3.37867
3.38336
3.39426
3.40401
3.41846
3.43277
3.45374
3.47636
3.50737
3.54121
3.57286
3.56869
1
1
1
1
1
1
1
1
1
1
1
1
1
1
1
1
1
1
1
1
1
1
1
1
1
1
1
1
1
1
1
1
1
1
1
1
1
1
1
1
1
1
1
1
1.00003
1.00024
1.00173
1.01231
1.10073
1.8606
2.71401
3.0044
3.07057
3.08783
3.09365
3.09746
3.10084
3.1039
3.10689
3.10985
3.11288
3.11618
3.11975
3.12331
3.12682
3.13035
3.1339
3.13752
3.14136
3.1455
3.14978
3.15411
3.15854
3.16308
3.16772
3.17256
3.17758
3.18273
3.18796
3.1933
3.19874
3.20434
3.21008
3.21593
3.22187
3.22788
3.23402
3.24026
3.24665
3.25296
3.25937
3.26571
3.27241
3.279
3.28583
3.2923
3.29906
3.30547
3.3118
3.31837
3.32402
3.33111
3.33611
3.34328
3.34756
3.35511
3.36086
3.36774
3.37215
3.38294
3.39236
3.40673
3.42074
3.44102
3.46325
3.49353
3.52678
3.55871
3.55454
1
1
1
1
1
1
1
1
1
1
1
1
1
1
1
1
1
1
1
1
1
1
1
1
1
1
1
1
1
1
1
1
1
1
1
1
1
1
1
1
1
1
1
1
1.00001
1.0001
1.00069
1.00476
1.02902
1.27712
2.35482
2.88301
3.02924
3.06903
3.08025
3.08542
3.08945
3.09278
3.09582
3.09879
3.10173
3.10481
3.10821
3.11188
3.1155
3.11915
3.12284
3.12649
3.13029
3.13429
3.13848
3.14282
3.14729
3.15188
3.15656
3.16144
3.16646
3.17164
3.17693
3.18233
3.18783
3.19346
3.19926
3.20516
3.21119
3.21725
3.22347
3.22973
3.23617
3.24252
3.24903
3.25547
3.2623
3.26886
3.27571
3.28216
3.28882
3.29534
3.30151
3.30814
3.3135
3.32057
3.32528
3.33248
3.33683
3.34423
3.34986
3.35646
3.36063
3.37126
3.38026
3.39454
3.40819
3.42769
3.44935
3.47868
3.51118
3.54334
3.53859
1
1
1
1
1
1
1
1
1
1
1
1
1
1
1
1
1
1
1
1
1
1
1
1
1
1
1
1
1
1
1
1
1
1
1
1
1
1
1
1
1
1
1
1
1
1.00003
1.00022
1.00155
1.01066
1.08453
1.76593
2.66139
2.97573
3.04801
3.06727
3.0735
3.07766
3.08102
3.0841
3.08716
3.09006
3.09311
3.09645
3.10012
3.10382
3.10755
3.11129
3.11499
3.11879
3.12282
3.12702
3.1314
3.1359
3.14051
3.14521
3.15006
3.1551
3.1603
3.16566
3.17111
3.17668
3.18236
3.18822
3.19415
3.20025
3.20637
3.21266
3.21894
3.22542
3.23178
3.23841
3.24495
3.25185
3.25834
3.26515
3.27165
3.2782
3.28483
3.2908
3.29747
3.3026
3.30964
3.31411
3.32139
3.32591
3.33304
3.33848
3.34484
3.3488
3.35918
3.36764
3.38168
3.39514
3.41415
3.43571
3.46458
3.49635
3.52832
3.5233
1
1
1
1
1
1
1
1
1
1
1
1
1
1
1
1
1
1
1
1
1
1
1
1
1
1
1
1
1
1
1
1
1
1
1
1
1
1
1
1
1
1
1
1
1
1.00001
1.00009
1.0006
1.00428
1.03164
1.22296
2.2387
2.82913
3.00403
3.04811
3.06009
3.06521
3.06902
3.07222
3.07523
3.07802
3.08109
3.08437
3.08792
3.09166
3.09551
3.09939
3.10319
3.107
3.11108
3.11532
3.11972
3.12426
3.12891
3.13366
3.13852
3.14358
3.14878
3.15417
3.15966
3.1653
3.17102
3.17693
3.1829
3.18906
3.19521
3.20156
3.20786
3.21438
3.22078
3.22752
3.2341
3.24098
3.24746
3.2542
3.26078
3.26719
3.27393
3.2797
3.28644
3.29137
3.29842
3.30275
3.31006
3.31467
3.32147
3.32681
3.33282
3.33659
3.34671
3.35462
3.36832
3.38144
3.39986
3.42085
3.44888
3.48003
3.51225
3.5064
1
1
1
1
1
1
1
1
1
1
1
1
1
1
1
1
1
1
1
1
1
1
1
1
1
1
1
1
1
1