/*--------------------------------*- C++ -*----------------------------------*\
| =========                 |                                                 |
| \\      /  F ield         | OpenFOAM: The Open Source CFD Toolbox           |
|  \\    /   O peration     | Version:  2.2.x                                 |
|   \\  /    A nd           | Web:      www.OpenFOAM.org                      |
|    \\/     M anipulation  |                                                 |
\*---------------------------------------------------------------------------*/
FoamFile
{
    version     2.0;
    format      ascii;
    class       surfaceScalarField;
    location    "1.05";
    object      phi;
}
// * * * * * * * * * * * * * * * * * * * * * * * * * * * * * * * * * * * * * //

dimensions      [1 0 -1 0 0 0 0];

internalField   nonuniform List<scalar> 
28084
(
0.000746227
0.000742997
0.000740226
0.000737894
0.000735986
0.00073447
0.000733322
0.000732544
0.000732076
0.000731892
0.00073201
0.000732353
0.000732884
0.000733647
0.000734573
0.000735604
0.000736732
0.00073799
0.000739318
0.000740641
0.000741992
0.000743398
0.000744777
0.000746019
0.000747275
0.000748578
0.000749838
0.00075098
0.000751832
0.000752434
0.000753255
0.000754
0.000754662
0.000755094
0.000755289
0.00075519
0.000755113
0.000754949
0.000754683
0.000754408
0.000753897
0.000753117
0.000752159
0.000750992
0.000749764
0.000758968
0.000768214
0.000777378
0.000787269
0.000798247
0.000808589
0.000814198
0.000792198
0.000775003
0.000782147
0.000805268
0.0008359
0.000877046
0.000921139
0.000962786
0.00100158
0.00103616
0.00106642
0.00109307
0.00111645
0.00113763
0.00115588
0.00117113
0.00118414
0.00119508
0.00120353
0.00120915
0.00121321
0.00121643
0.0012193
0.00122176
0.00122397
0.00122585
0.00122744
0.00122821
0.00122725
0.00122591
0.00122364
0.00121942
0.00121422
0.00120898
0.00120307
0.00119739
0.0011913
0.00118509
0.00117992
0.00117532
0.00117099
0.00116642
0.0011621
0.00115803
0.00115324
0.00114852
0.00113907
0.00111139
0.00104995
0.000958367
0.000853196
0.000757963
0.000678718
0.000613134
0.000557658
0.000509593
0.000466106
0.000425844
0.00038625
0.000346864
0.000305298
0.000262793
0.000216736
0.000170256
0.000119119
6.82041e-05
3.71208e-06
3.23405e-06
0.000749744
2.77455e-06
0.000748793
2.33494e-06
0.000748272
1.91671e-06
0.000748165
1.51842e-06
0.000748454
1.1427e-06
0.00074911
7.99961e-07
0.000750111
4.71512e-07
0.000751457
1.70827e-07
0.000753085
-8.64747e-08
0.000754971
-3.36787e-07
0.000757129
-5.57049e-07
0.000759482
-7.33135e-07
0.000761988
-9.05779e-07
0.00076469
-1.03654e-06
0.000767521
-1.14707e-06
0.00077041
-1.24542e-06
0.000773354
-1.29196e-06
0.000776389
-1.33665e-06
0.000779441
-1.37343e-06
0.000782427
-1.36309e-06
0.000785411
-1.33673e-06
0.000788393
-1.31932e-06
0.000791282
-1.29761e-06
0.000793981
-1.23542e-06
0.000796648
-1.11794e-06
0.000799302
-1.0321e-06
0.000801863
-9.61761e-07
0.000804206
-8.91006e-07
0.000806202
-7.80834e-07
0.000807964
-6.29439e-07
0.000809862
-4.90267e-07
0.000811612
-3.69482e-07
0.0008132
-2.5083e-07
0.000814512
-1.32971e-07
0.000815528
-4.1283e-09
0.000816233
1.59376e-07
0.000816911
3.11937e-07
0.000817446
4.7838e-07
0.000817836
6.60424e-07
0.00081814
8.1088e-07
0.000818147
9.50641e-07
0.000817849
1.10031e-06
0.000817283
1.29803e-06
0.000816515
-9.11001e-06
0.000815633
-9.51855e-06
0.000824319
-9.78773e-06
0.000833172
-1.00029e-05
0.0008417
-1.03659e-05
0.000851098
-9.78451e-06
0.000861239
-5.45571e-06
0.000870804
1.45837e-05
0.000875106
1.53117e-05
0.00084944
-8.54014e-06
0.000831468
-2.42863e-05
0.000837684
-3.12094e-05
0.000862419
-4.08217e-05
0.000897317
-4.30774e-05
0.000938732
-4.02589e-05
0.000980654
-3.72248e-05
0.00101991
-3.39595e-05
0.00105529
-3.03032e-05
0.00108734
-2.67039e-05
0.00111638
-2.33173e-05
0.00114335
-2.05203e-05
0.00116762
-1.7739e-05
0.00118943
-1.46214e-05
0.00120866
-1.23911e-05
0.00122496
-1.01798e-05
0.00123901
-8.64441e-06
0.00125041
-6.55771e-06
0.00125971
-5.11814e-06
0.00126637
-4.26008e-06
0.00127092
-3.57606e-06
0.00127396
-2.61924e-06
0.00127589
-1.85934e-06
0.00127706
-1.21032e-06
0.00127798
-5.91494e-07
0.00127891
6.84412e-07
0.00127908
2.11817e-06
0.00127846
2.36187e-06
0.00127626
2.76179e-06
0.00127422
4.11467e-06
0.0012707
4.79888e-06
0.00126543
4.41447e-06
0.00125922
4.93638e-06
0.00125338
5.21615e-06
0.00124675
5.84344e-06
0.0012401
5.57385e-06
0.00123306
4.44193e-06
0.00122614
4.78199e-06
0.00122031
4.47286e-06
0.00121487
4.78798e-06
0.00120939
2.59903e-06
0.00120328
3.80124e-06
0.00119716
4.02265e-06
0.00119088
6.46233e-06
0.00118437
7.99566e-06
0.00117424
3.20264e-05
0.0011509
5.93305e-05
0.00110127
9.52959e-05
0.00100342
0.000106208
0.000888453
9.53376e-05
0.00078764
7.93383e-05
0.000704805
6.59866e-05
0.000635304
5.61234e-05
0.000576587
4.87045e-05
0.000525728
4.39793e-05
0.000480796
4.05387e-05
0.00043945
3.96134e-05
0.00040044
3.91738e-05
0.000361492
4.12904e-05
0.000322666
4.22417e-05
0.000282904
4.58874e-05
0.000242672
4.65351e-05
0.000199455
5.14421e-05
0.000155328
5.13739e-05
0.000106826
6.8774e-05
5.6804e-05
5.11216e-06
4.18871e-06
0.000754439
3.29905e-06
0.000755738
2.44663e-06
0.00075744
1.63519e-06
0.000759528
8.6401e-07
0.000761988
1.37991e-07
0.000764792
-5.26229e-07
0.000767918
-1.15442e-06
0.00077136
-1.72521e-06
0.000775063
-2.21825e-06
0.000778997
-2.68397e-06
0.000783166
-3.08757e-06
0.000787511
-3.41342e-06
0.000791973
-3.71026e-06
0.000796588
-3.93252e-06
0.000801303
-4.11605e-06
0.000806033
-4.25534e-06
0.000810775
-4.3107e-06
0.000815568
-4.34999e-06
0.000820319
-4.36777e-06
0.000824954
-4.29736e-06
0.000829559
-4.19562e-06
0.000834092
-4.10588e-06
0.000838468
-4.01087e-06
0.000842622
-3.80858e-06
0.000846693
-3.52116e-06
0.000850673
-3.29553e-06
0.000854467
-3.09985e-06
0.000857995
-2.91494e-06
0.000861169
-2.62416e-06
0.00086414
-2.2501e-06
0.000867077
-1.92448e-06
0.000869791
-1.63079e-06
0.000872233
-1.33905e-06
0.000874412
-1.05986e-06
0.000876297
-7.38265e-07
0.000877877
-3.71914e-07
0.000879315
-2.46389e-08
0.000880528
3.47266e-07
0.000881484
7.68567e-07
0.00088223
1.13332e-06
0.000882754
1.50281e-06
0.00088297
1.84946e-06
0.000882894
2.20849e-06
0.000882645
-1.78024e-05
0.000882186
-1.84169e-05
0.000890392
-1.90494e-05
0.00089859
-1.94893e-05
0.000906679
-1.98758e-05
0.000915544
-1.90603e-05
0.000924991
-9.67133e-06
0.000933771
3.2654e-05
0.000936346
3.10111e-05
0.000896091
-1.6221e-05
0.000882898
-5.01421e-05
0.00089179
-6.66664e-05
0.000919124
-8.17726e-05
0.000962018
-8.38232e-05
0.00100773
-7.80841e-05
0.00105278
-7.1316e-05
0.00109276
-6.55254e-05
0.00112764
-5.92367e-05
0.0011609
-5.37272e-05
0.00119057
-4.81984e-05
0.0012181
-4.15387e-05
0.00124125
-3.6174e-05
0.00126165
-3.00701e-05
0.00127972
-2.57989e-05
0.00129393
-2.13429e-05
0.00130735
-1.78521e-05
0.00131764
-1.4015e-05
0.00132587
-1.05797e-05
0.00133135
-8.17032e-06
0.00133523
-6.16783e-06
0.00133811
-4.02693e-06
0.00133984
-2.60404e-06
0.00134048
-1.73153e-06
0.00134043
-7.05479e-08
0.00134029
2.64303e-06
0.00133891
5.45099e-06
0.00133652
5.44874e-06
0.00133347
6.73263e-06
0.00133005
9.22896e-06
0.00132513
1.04748e-05
0.00131856
9.33915e-06
0.00131136
1.04356e-05
0.00130386
1.13007e-05
0.00129606
1.25195e-05
0.00128838
1.19252e-05
0.00128067
9.50967e-06
0.00127313
1.03677e-05
0.00126568
1.01553e-05
0.00125861
1.09509e-05
0.00125176
7.23913e-06
0.00124336
9.88449e-06
0.00123477
9.56754e-06
0.00122559
1.86938e-05
0.00121074
3.04856e-05
0.00118769
8.50099e-05
0.00113062
0.000156624
0.00103669
0.000212203
0.000911702
0.000207994
0.000805564
0.000178236
0.000722236
0.000148935
0.000653954
0.000125149
0.000594388
0.000107648
0.000542254
9.42753e-05
0.000495505
8.58107e-05
0.000452892
7.9819e-05
0.000412885
7.85923e-05
0.000374766
7.77826e-05
0.000337724
8.07777e-05
0.00030121
8.22302e-05
0.000263449
8.89646e-05
0.000225509
9.07458e-05
0.000184826
0.000100257
0.000143018
0.000101862
9.75485e-05
0.000126135
5.0848e-05
4.23066e-06
2.89327e-06
0.000760312
1.60169e-06
0.000763829
3.62224e-07
0.000767721
-8.18722e-07
0.000771975
-1.93782e-06
0.000776574
-2.98851e-06
0.000781499
-3.95444e-06
0.000786726
-4.85227e-06
0.000792228
-5.66302e-06
0.00079798
-6.37282e-06
0.00080394
-7.0169e-06
0.000810089
-7.56738e-06
0.0008164
-8.01521e-06
0.0008228
-8.38868e-06
0.000829302
-8.66926e-06
0.000835875
-8.88401e-06
0.000842421
-9.01242e-06
0.000848946
-9.03895e-06
0.00085547
-9.02238e-06
0.000861891
-8.96812e-06
0.000868162
-8.77189e-06
0.000874367
-8.55213e-06
0.000880425
-8.33562e-06
0.000886273
-8.1095e-06
0.000891866
-7.69392e-06
0.000897337
-7.20159e-06
0.000902611
-6.7766e-06
0.000907609
-6.4138e-06
0.000912312
-6.05913e-06
0.000916714
-5.50219e-06
0.000920867
-4.87555e-06
0.000924794
-4.28188e-06
0.000928369
-3.7799e-06
0.000931692
-3.27934e-06
0.000934774
-2.76562e-06
0.000937549
-2.19488e-06
0.000940026
-1.58679e-06
0.000942209
-9.71431e-07
0.000944068
-3.25693e-07
0.00094557
3.05379e-07
0.000946744
9.21293e-07
0.000947744
1.54157e-06
0.000948507
2.13815e-06
0.000948988
2.76092e-06
0.000949235
-2.59284e-05
0.000949228
-2.68895e-05
0.00095688
-2.7625e-05
0.000964682
-2.83606e-05
0.000972369
-2.8553e-05
0.000980746
-2.74807e-05
0.000989474
-1.24309e-05
0.000997189
6.43454e-05
0.000998473
4.18875e-05
0.000953114
-2.61777e-05
0.000942066
-7.81473e-05
0.00095796
-0.000110309
0.000994811
-0.000127277
0.00104459
-0.000128012
0.00109111
-0.0001177
0.00113753
-0.000106237
0.00118216
-9.80235e-05
0.00122106
-8.80556e-05
0.00125603
-7.98138e-05
0.00128668
-7.13652e-05
0.00131402
-6.13477e-05
0.00133586
-5.39326e-05
0.00135457
-4.42949e-05
0.00136975
-3.841e-05
0.00138067
-3.17555e-05
0.00139214
-2.60527e-05
0.00140023
-2.0309e-05
0.00140688
-1.53338e-05
0.00141071
-1.15793e-05
0.00141311
-8.25682e-06
0.00141489
-4.78546e-06
0.00141569
-2.54649e-06
0.00141575
-1.57345e-06
0.00141436
1.3624e-06
0.0014122
5.66952e-06
0.00140863
9.55049e-06
0.00140424
9.80659e-06
0.00139974
1.20132e-05
0.00139437
1.55425e-05
0.00138796
1.69741e-05
0.00138027
1.59271e-05
0.00137189
1.69713e-05
0.00136264
1.82458e-05
0.00135315
1.96764e-05
0.00134429
1.90717e-05
0.00133561
1.63004e-05
0.00132622
1.7488e-05
0.00131668
1.70979e-05
0.00130694
1.92682e-05
0.00129852
1.46164e-05
0.00128844
1.92553e-05
0.00127503
2.31167e-05
0.00125796
4.38295e-05
0.00122191
8.78915e-05
0.00115929
0.000181101
0.00104587
0.000281795
0.000905181
0.000319261
0.000800708
0.000291836
0.000724387
0.000246593
0.000658949
0.000208657
0.000602975
0.000177801
0.000553356
0.000155091
0.000507969
0.000137519
0.000465889
0.000126276
0.000426214
0.000118196
0.000388768
0.000115673
0.000352898
0.000114112
0.000317292
0.000118312
0.000281949
0.000119966
0.000245592
0.000129542
0.000209288
0.000132658
0.000170956
0.000146064
0.000131707
0.000149045
8.96818e-05
0.000177548
4.62537e-05
1.10132e-06
-6.19989e-07
0.000767366
-2.28595e-06
0.000773065
-3.88747e-06
0.000779111
-5.41451e-06
0.000785496
-6.85907e-06
0.000792202
-8.20986e-06
0.000799213
-9.45295e-06
0.000806508
-1.05942e-05
0.000814041
-1.16206e-05
0.000821812
-1.25184e-05
0.000829772
-1.33102e-05
0.000837871
-1.39764e-05
0.000846116
-1.4512e-05
0.00085443
-1.49221e-05
0.000862789
-1.52273e-05
0.000871187
-1.54303e-05
0.000879533
-1.54885e-05
0.000887813
-1.54545e-05
0.000896035
-1.53379e-05
0.000904108
-1.51424e-05
0.000912
-1.47814e-05
0.000919774
-1.43969e-05
0.00092734
-1.40018e-05
0.000934623
-1.35533e-05
0.000941661
-1.28671e-05
0.000948485
-1.2139e-05
0.000955028
-1.14789e-05
0.000961206
-1.08806e-05
0.000967113
-1.02418e-05
0.000972763
-9.38784e-06
0.000978045
-8.50569e-06
0.000982988
-7.61689e-06
0.000987332
-6.83413e-06
0.000991548
-6.03173e-06
0.00099553
-5.21842e-06
0.000999168
-4.35031e-06
0.00100251
-3.44663e-06
0.00100542
-2.5227e-06
0.00100793
-1.58784e-06
0.00100993
-7.07682e-07
0.00101162
1.85387e-07
0.00101314
1.09954e-06
0.00101438
1.99282e-06
0.00101532
2.93373e-06
0.00101598
-3.35596e-05
0.00101646
-3.47696e-05
0.00102366
-3.57491e-05
0.00103098
-3.65678e-05
0.00103823
-3.66561e-05
0.00104605
-3.51553e-05
0.00105371
-1.42215e-05
0.00106061
0.000100326
0.00106294
5.10494e-05
0.00103664
-4.21439e-05
0.00102225
-0.000114956
0.00105036
-0.000160457
0.00109722
-0.000173976
0.0011509
-0.000174262
0.00120507
-0.000163104
0.0012531
-0.000146449
0.00130173
-0.000131989
0.00134416
-0.000117208
0.00137999
-0.00010525
0.00141309
-9.18275e-05
0.00143837
-7.90374e-05
0.00145878
-6.96742e-05
0.00147663
-5.66779e-05
0.00148797
-4.93267e-05
0.00149665
-4.01915e-05
0.00150436
-3.20651e-05
0.00150828
-2.49889e-05
0.00151274
-1.83312e-05
0.00151391
-1.32161e-05
0.00151398
-8.87416e-06
0.00151312
-4.64165e-06
0.00151185
-1.32704e-06
0.0015102
-4.59189e-08
0.00150706
4.10594e-06
0.00150243
9.79342e-06
0.00149643
1.46446e-05
0.00149001
1.53989e-05
0.00148294
1.84614e-05
0.00147472
2.26877e-05
0.00146604
2.45849e-05
0.00145703
2.43359e-05
0.00144685
2.50349e-05
0.00143555
2.61506e-05
0.00142353
2.75117e-05
0.00141235
2.80687e-05
0.00140084
2.5608e-05
0.00138828
2.72785e-05
0.00137651
2.51964e-05
0.00136355
2.93508e-05
0.00134943
2.77359e-05
0.00133386
3.64932e-05
0.00130616
5.84776e-05
0.00126526
0.000108165
0.00118501
0.000202733
0.00105258
0.000323439
0.000893885
0.000386315
0.00078292
0.000395514
0.000704767
0.000357287
0.000650162
0.000302549
0.000603247
0.000258434
0.000556914
0.000223717
0.000514893
0.000197867
0.000475408
0.000177823
0.000438256
0.000164173
0.000402548
0.000154344
0.000367557
0.000151324
0.000333279
0.000149293
0.000299325
0.000154453
0.000265484
0.00015612
0.000230537
0.000167826
0.000195572
0.000172025
0.000159147
0.00018844
0.000122188
0.000192966
8.31911e-05
0.000224365
4.26003e-05
-4.23853e-06
-6.31473e-06
0.000775604
-8.32842e-06
0.000783444
-1.0268e-05
0.000791606
-1.2118e-05
0.000800085
-1.38647e-05
0.00080886
-1.54931e-05
0.00081792
-1.69902e-05
0.000827246
-1.83531e-05
0.000836782
-1.95708e-05
0.000846531
-2.0624e-05
0.000856458
-2.15319e-05
0.000866482
-2.2291e-05
0.000876622
-2.28737e-05
0.000886823
-2.32821e-05
0.000897007
-2.35803e-05
0.000907198
-2.37224e-05
0.00091732
-2.36744e-05
0.000927324
-2.35253e-05
0.000937209
-2.32728e-05
0.000946908
-2.28715e-05
0.00095641
-2.23e-05
0.000965718
-2.17088e-05
0.000974752
-2.10955e-05
0.000983466
-2.03239e-05
0.000991936
-1.93467e-05
0.00100008
-1.83389e-05
0.00100787
-1.7406e-05
0.00101521
-1.64863e-05
0.00102233
-1.5452e-05
0.00102915
-1.43002e-05
0.00103556
-1.3079e-05
0.00104148
-1.19111e-05
0.00104661
-1.07576e-05
0.00105173
-9.57982e-06
0.00105658
-8.41571e-06
0.00106106
-7.18895e-06
0.00106522
-5.95175e-06
0.00106883
-4.70704e-06
0.00107194
-3.48903e-06
0.00107442
-2.257e-06
0.00107677
-1.02568e-06
0.00107883
2.27039e-07
0.00108052
1.4625e-06
0.00108185
2.72456e-06
0.00108289
-4.06987e-05
0.00108376
-4.21166e-05
0.00109052
-4.32613e-05
0.0010974
-4.41059e-05
0.00110444
-4.41372e-05
0.00111162
-4.24968e-05
0.00111874
-1.69442e-05
0.00112608
0.0001159
0.00113321
6.50217e-05
0.00113044
-6.97756e-05
0.00112463
-0.000160857
0.00118018
-0.000213759
0.00124617
-0.000227958
0.00131226
-0.000221545
0.00137476
-0.000212297
0.00142761
-0.000190794
0.00147518
-0.000166859
0.00150998
-0.000147769
0.00153917
-0.000130172
0.00156707
-0.00011129
0.00158413
-9.55519e-05
0.00160032
-8.21189e-05
0.00161104
-6.86099e-05
0.00161765
-5.61721e-05
0.00162007
-4.48631e-05
0.0016243
-3.48754e-05
0.00162452
-2.66828e-05
0.00162694
-1.88978e-05
0.00162567
-1.22226e-05
0.0016231
-7.31738e-06
0.0016198
-2.47036e-06
0.00161559
1.8205e-06
0.00161099
3.87279e-06
0.00160556
9.17314e-06
0.0015984
1.57105e-05
0.00158978
2.16223e-05
0.00158123
2.32233e-05
0.00157159
2.68976e-05
0.00156028
3.10467e-05
0.0015493
3.40392e-05
0.00153777
3.46706e-05
0.00152465
3.54263e-05
0.00151106
3.6096e-05
0.00149619
3.77524e-05
0.00148276
4.0533e-05
0.00146814
3.73791e-05
0.00145267
4.02749e-05
0.0014354
3.87908e-05
0.00141791
4.50107e-05
0.00139315
5.60595e-05
0.00136009
7.80409e-05
0.00130014
0.000139137
0.00120477
0.000241736
0.00104983
0.000363233
0.00088211
0.000435386
0.000765492
0.000464336
0.000686441
0.000449695
0.000631565
0.000403739
0.000590316
0.000348543
0.00055276
0.00030049
0.000516156
0.000263798
0.000480496
0.000235754
0.000446199
0.000214114
0.000412579
0.000199591
0.000379602
0.000188885
0.000347195
0.000185307
0.000314864
0.000182963
0.000282508
0.000189187
0.000250257
0.000190973
0.000217011
0.000204265
0.000183598
0.000209149
0.00014924
0.000227806
0.000114426
0.000234052
7.79726e-05
0.000267516
3.96958e-05
-1.17472e-05
-1.41503e-05
0.000785032
-1.64871e-05
0.000794968
-1.87419e-05
0.000805204
-2.08927e-05
0.000815734
-2.29193e-05
0.000826539
-2.48041e-05
0.000837608
-2.65326e-05
0.000848924
-2.80942e-05
0.000860425
-2.94762e-05
0.000872117
-3.06605e-05
0.000883967
-3.16572e-05
0.000895885
-3.24744e-05
0.000907884
-3.30648e-05
0.00091993
-3.34517e-05
0.000931917
-3.36987e-05
0.000943857
-3.37237e-05
0.000955727
-3.35392e-05
0.000967431
-3.32381e-05
0.000978934
-3.28046e-05
0.000990243
-3.21327e-05
0.00100133
-3.13026e-05
0.00101213
-3.04631e-05
0.00102259
-2.957e-05
0.00103275
-2.84144e-05
0.00104261
-2.71252e-05
0.00105207
-2.57788e-05
0.001061
-2.45158e-05
0.00106954
-2.31958e-05
0.00107786
-2.17083e-05
0.0010858
-2.01981e-05
0.00109328
-1.86215e-05
0.00110012
-1.70953e-05
0.00110615
-1.55223e-05
0.00111217
-1.39321e-05
0.00111786
-1.2329e-05
0.00112313
-1.07156e-05
0.00112796
-9.09123e-06
0.00113223
-7.51902e-06
0.00113595
-5.95426e-06
0.00113916
-4.34341e-06
0.00114212
-2.71469e-06
0.00114473
-1.09295e-06
0.00114691
5.55399e-07
0.0011486
2.18663e-06
0.00114991
-4.73174e-05
0.00115093
-4.89699e-05
0.00115736
-5.03163e-05
0.00116386
-5.12812e-05
0.00117042
-5.15029e-05
0.00117698
-5.01741e-05
0.00118397
-2.43263e-05
0.00119177
0.000110566
0.00120782
6.79405e-05
0.00122697
-0.000124961
0.00125955
-0.00022518
0.00136413
-0.000278483
0.00145377
-0.000289942
0.00151815
-0.000274346
0.00156782
-0.000257549
0.00161216
-0.000227516
0.00164837
-0.000195689
0.00167256
-0.000172207
0.00169021
-0.000149283
0.00171162
-0.000126582
0.00172036
-0.000107745
0.00172937
-8.82771e-05
0.00172774
-7.44329e-05
0.00173343
-5.88567e-05
0.00173153
-4.60227e-05
0.00173345
-3.56405e-05
0.00173027
-2.57681e-05
0.00172691
-1.68286e-05
0.00172282
-8.90571e-06
0.00171826
-3.17394e-06
0.00171312
2.20689e-06
0.0017073
7.24119e-06
0.00170026
1.06772e-05
0.00169276
1.71296e-05
0.00168322
2.3852e-05
0.00167293
3.07022e-05
0.00166239
3.37908e-05
0.00165092
3.73913e-05
0.00163719
4.15775e-05
0.0016235
4.62057e-05
0.00160899
4.73244e-05
0.00159353
4.83761e-05
0.00157806
4.80891e-05
0.00156068
5.10785e-05
0.00154276
5.65828e-05
0.00152551
5.45363e-05
0.0015066
5.75922e-05
0.00148205
6.34326e-05
0.00145093
7.85737e-05
0.00140068
0.000117699
0.00132843
0.000174317
0.00121146
0.000294958
0.0010295
0.000410835
0.000864146
0.000480967
0.000748566
0.000514736
0.000669127
0.000518912
0.000611567
0.000490433
0.000572929
0.000440771
0.000541685
0.000384799
0.000510966
0.000336341
0.000481017
0.000298788
0.000450131
0.000270052
0.00041966
0.000247621
0.000389022
0.000232426
0.000358423
0.000221471
0.000328064
0.000217658
0.000297477
0.000215022
0.000266562
0.000222225
0.000235675
0.000224302
0.000204069
0.000238687
0.000172203
0.000244155
0.000139733
0.000264622
0.000106803
0.000272805
7.26572e-05
0.000307687
3.66861e-05
-2.1379e-05
-2.40827e-05
0.000795657
-2.67194e-05
0.000807642
-2.92668e-05
0.000819904
-3.16968e-05
0.000832438
-3.39832e-05
0.00084523
-3.61042e-05
0.000858263
-3.80436e-05
0.000871524
-3.97807e-05
0.000884952
-4.13014e-05
0.000898544
-4.25937e-05
0.000912275
-4.36534e-05
0.000926049
-4.44904e-05
0.000939871
-4.50582e-05
0.000953717
-4.53933e-05
0.000967471
-4.55469e-05
0.000981133
-4.5409e-05
0.000994706
-4.50525e-05
0.00100808
-4.45571e-05
0.00102116
-4.38851e-05
0.00103407
-4.28937e-05
0.00104669
-4.17718e-05
0.00105896
-4.06283e-05
0.00107079
-3.93634e-05
0.00108238
-3.77905e-05
0.0010936
-3.61298e-05
0.00110434
-3.44409e-05
0.00111438
-3.27466e-05
0.00112414
-3.09612e-05
0.00113362
-2.90303e-05
0.00114266
-2.70706e-05
0.0011511
-2.5106e-05
0.00115881
-2.31627e-05
0.00116585
-2.11192e-05
0.00117277
-1.90358e-05
0.00117927
-1.69749e-05
0.00118526
-1.49247e-05
0.00119064
-1.28814e-05
0.00119549
-1.09351e-05
0.00119996
-8.93267e-06
0.001204
-6.91491e-06
0.00120765
-4.883e-06
0.00121089
-2.84766e-06
0.00121354
-7.91688e-07
0.00121558
1.30262e-06
0.001217
-5.34759e-05
0.00121825
-5.53089e-05
0.00122414
-5.6859e-05
0.00123037
-5.79354e-05
0.00123678
-5.86914e-05
0.00124343
-5.81495e-05
0.00125089
-4.02029e-05
0.00125951
8.64786e-05
0.00128635
3.11706e-05
0.00143818
-0.000228615
0.00157912
-0.000313563
0.00167409
-0.000341233
0.00171411
-0.000339527
0.00173166
-0.000319653
0.00174686
-0.00029036
0.00176365
-0.000252358
0.00178518
-0.000216724
0.00180417
-0.000188246
0.00181521
-0.000161487
0.00182954
-0.000134547
0.00182686
-0.000113034
0.00183342
-9.00147e-05
0.00182789
-7.30671e-05
0.00183173
-5.84719e-05
0.00182779
-4.3686e-05
0.00182349
-3.3116e-05
0.00181951
-2.22357e-05
0.00181108
-1.17959e-05
0.00180432
-3.40642e-06
0.0017974
2.65675e-06
0.0017908
8.89643e-06
0.00178326
1.45579e-05
0.00177446
1.98371e-05
0.00176528
2.6989e-05
0.00175465
3.4047e-05
0.00174307
4.16932e-05
0.00173072
4.69574e-05
0.00171771
5.05525e-05
0.00170209
5.50248e-05
0.001687
6.0975e-05
0.00167071
6.19566e-05
0.00165288
6.36821e-05
0.00163504
6.49732e-05
0.00161533
6.76338e-05
0.00159294
7.68767e-05
0.00156766
7.86778e-05
0.00153698
8.86097e-05
0.00149053
0.000114678
0.00142888
0.000151999
0.00132928
0.000236278
0.00117721
0.000357076
0.000987587
0.000460879
0.000834374
0.000527188
0.000725862
0.000560696
0.00064954
0.000572126
0.000594345
0.000557211
0.000556305
0.000521224
0.00052734
0.000471103
0.000501317
0.00041465
0.000476528
0.000367623
0.000450832
0.000329914
0.000423824
0.000301285
0.000396061
0.000278741
0.000367872
0.000263244
0.000339496
0.000252293
0.000310958
0.000248532
0.000281869
0.000245709
0.000252278
0.000253638
0.000222547
0.00025611
0.000192362
0.000271256
0.000161927
0.000277315
0.000131171
0.000299072
9.99421e-05
0.000309145
6.77785e-05
0.00034472
3.39176e-05
-3.30841e-05
-3.60634e-05
0.000807489
-3.89773e-05
0.00082147
-4.17957e-05
0.000835706
-4.44854e-05
0.000850195
-4.70119e-05
0.000864923
-4.935e-05
0.000879875
-5.14783e-05
0.000895031
-5.33703e-05
0.000910342
-5.50051e-05
0.000925789
-5.63794e-05
0.000941352
-5.74777e-05
0.000956943
-5.82952e-05
0.000972547
-5.88186e-05
0.000988144
-5.90738e-05
0.00100363
-5.90763e-05
0.00101898
-5.87529e-05
0.0010342
-5.81848e-05
0.0010492
-5.74473e-05
0.00106384
-5.64547e-05
0.0010783
-5.5156e-05
0.00109243
-5.36911e-05
0.0011061
-5.21715e-05
0.00111931
-5.04555e-05
0.00113229
-4.8468e-05
0.00114483
-4.63795e-05
0.00115679
-4.42905e-05
0.00116796
-4.20802e-05
0.00117892
-3.9739e-05
0.00118949
-3.73563e-05
0.00119955
-3.49401e-05
0.00120893
-3.25051e-05
0.00121747
-3.00744e-05
0.00122564
-2.75048e-05
0.00123343
-2.49009e-05
0.00124066
-2.23584e-05
0.00124724
-1.98551e-05
0.00125318
-1.74013e-05
0.00125879
-1.49072e-05
0.00126397
-1.24218e-05
0.00126871
-9.9535e-06
0.00127302
-7.48718e-06
0.00127691
-5.01927e-06
0.00128003
-2.56575e-06
0.0012824
-2.9068e-08
0.00128373
-5.92989e-05
0.00128515
-6.13451e-05
0.00129037
-6.31524e-05
0.00129584
-6.45458e-05
0.00130161
-6.6116e-05
0.00130744
-6.673e-05
0.00131314
-6.64688e-05
0.00132037
-6.74582e-05
0.00134097
-0.000120063
0.00145012
-0.000324842
0.00179439
-0.000352904
0.00187534
-0.00035757
0.00187813
-0.000355449
0.00187762
-0.000337552
0.00187931
-0.000309614
0.00188203
-0.000268771
0.00189058
-0.000231623
0.00190455
-0.000198922
0.00191265
-0.000166625
0.00192055
-0.000134577
0.00191893
-0.000111477
0.00192474
-8.91049e-05
0.00191677
-6.86633e-05
0.00191178
-5.65302e-05
0.00191223
-3.84125e-05
0.00190002
-2.59513e-05
0.00189378
-1.59313e-05
0.00188537
-4.97726e-06
0.00187661
3.28055e-06
0.0018665
1.00789e-05
0.00185798
1.73375e-05
0.00184913
2.38655e-05
0.00183926
3.07524e-05
0.00182901
3.87936e-05
0.00181715
4.66056e-05
0.00180406
5.47556e-05
0.00179028
6.2391e-05
0.00177535
6.57428e-05
0.00175892
7.08253e-05
0.00174258
7.86595e-05
0.00172375
7.89493e-05
0.00170355
8.14521e-05
0.00167999
8.7564e-05
0.00165267
9.25068e-05
0.00161832
0.00010887
0.00157366
0.000125467
0.00151663
0.000151218
0.0014248
0.000216615
0.00129251
0.000305341
0.00111268
0.000426539
0.000927876
0.000510722
0.000793362
0.000569615
0.000696394
0.000603692
0.000627763
0.000615776
0.000578061
0.000609822
0.000540515
0.000585759
0.00051283
0.00054686
0.000489948
0.000495649
0.000468561
0.00044047
0.000448062
0.000395048
0.000425118
0.000358238
0.000400224
0.000330004
0.000374184
0.000307686
0.000347678
0.00029229
0.000320806
0.000281566
0.000293662
0.000278038
0.000266012
0.000275256
0.000237819
0.000283652
0.000209408
0.000286489
0.000180771
0.0003021
0.000151882
0.000308777
0.00012284
0.000331493
9.32571e-05
0.000343271
6.29506e-05
0.000378839
3.1155e-05
-4.68083e-05
-5.00397e-05
0.000820539
-5.32094e-05
0.000836458
-5.62793e-05
0.000852613
-5.92097e-05
0.000869002
-6.19586e-05
0.000885615
-6.44941e-05
0.000902432
-6.67919e-05
0.000919432
-6.88169e-05
0.000936578
-7.05443e-05
0.000953831
-7.19764e-05
0.000971176
-7.30864e-05
0.00098854
-7.38529e-05
0.00100587
-7.4306e-05
0.00102318
-7.4442e-05
0.00104035
-7.42475e-05
0.00105734
-7.37182e-05
0.00107418
-7.29088e-05
0.00109074
-7.18617e-05
0.00110692
-7.04912e-05
0.00112288
-6.88649e-05
0.00113847
-6.70242e-05
0.0011535
-6.50529e-05
0.00116809
-6.28092e-05
0.00118239
-6.04038e-05
0.00119621
-5.78873e-05
0.00120935
-5.52687e-05
0.00122168
-5.24678e-05
0.00123379
-4.95908e-05
0.0012454
-4.66874e-05
0.00125641
-4.37805e-05
0.0012667
-4.08362e-05
0.00127629
-3.7783e-05
0.00128543
-3.46326e-05
0.00129401
-3.15151e-05
0.00130192
-2.8496e-05
0.00130898
-2.55234e-05
0.00131572
-2.25075e-05
0.00132206
-1.94698e-05
0.00132789
-1.64568e-05
0.00133325
-1.34788e-05
0.00133816
-1.04916e-05
0.00134253
-7.54096e-06
0.00134603
-4.60073e-06
0.00134872
-1.68268e-06
0.00135035
-6.4507e-05
0.00135218
-6.68078e-05
0.00135692
-6.87551e-05
0.00136188
-7.02728e-05
0.00136711
-7.1755e-05
0.00137252
-7.38149e-05
0.00137848
-8.68294e-05
0.00138736
-0.00017697
0.00141394
-0.000474024
0.00156195
-0.000408391
0.00177412
-0.000356551
0.00187502
-0.000355549
0.00192768
-0.00035801
0.0019557
-0.000341617
0.00196086
-0.000318143
0.00196379
-0.000280413
0.00197089
-0.000244132
0.00197988
-0.00020239
0.00198489
-0.000168217
0.00199673
-0.000132856
0.00199634
-0.00010363
0.00199243
-8.73422e-05
0.001994
-6.51431e-05
0.00197972
-4.79892e-05
0.00197683
-3.02847e-05
0.00196584
-1.80836e-05
0.00195794
-7.56637e-06
0.00194972
3.55333e-06
0.00193968
1.1732e-05
0.00192892
1.9376e-05
0.00191905
2.78492e-05
0.00190866
3.51041e-05
0.00189911
4.34515e-05
0.00188722
5.25259e-05
0.00187369
6.07857e-05
0.00185876
7.00268e-05
0.00184292
7.88524e-05
0.00182651
8.27614e-05
0.00180689
8.94246e-05
0.00178576
9.92796e-05
0.00176208
0.000101865
0.00173485
0.000106739
0.00169585
0.00012413
0.00164953
0.000137207
0.00158875
0.000167795
0.00149748
0.000218981
0.00137434
0.000285336
0.00120576
0.000398644
0.00101495
0.00049055
0.000862056
0.000561091
0.00074615
0.000607715
0.000661759
0.000638287
0.000600441
0.000653389
0.000556657
0.00065316
0.000523396
0.000637275
0.000498715
0.000608338
0.000478334
0.000567887
0.000459529
0.000516011
0.000442036
0.000463666
0.000423791
0.000420383
0.000403182
0.000384848
0.000380662
0.000357086
0.000356695
0.000335159
0.000331877
0.00031993
0.000306148
0.000309357
0.000279805
0.000306116
0.000252865
0.000303494
0.000225558
0.000312164
0.000198059
0.000315356
0.000170518
0.000331218
0.000142802
0.000338517
0.000115089
0.000361937
8.69333e-05
0.000375184
5.8394e-05
0.000410036
2.86475e-05
-6.24927e-05
-6.59546e-05
0.00083482
-6.93602e-05
0.000852616
-7.26631e-05
0.00087063
-7.58165e-05
0.000888859
-7.87714e-05
0.000907299
-8.14871e-05
0.000925923
-8.39328e-05
0.000944707
-8.60701e-05
0.000963638
-8.78732e-05
0.000982649
-8.93362e-05
0.00100171
-9.04281e-05
0.0010208
-9.1125e-05
0.00103982
-9.14749e-05
0.00105877
-9.14583e-05
0.00107758
-9.10185e-05
0.00109618
-9.02574e-05
0.00111457
-8.91724e-05
0.00113265
-8.77634e-05
0.00115034
-8.59892e-05
0.00116775
-8.39639e-05
0.00118473
-8.17305e-05
0.00120111
-7.92184e-05
0.00121707
-7.64505e-05
0.00123262
-7.35526e-05
0.00124763
-7.05292e-05
0.00126194
-6.73365e-05
0.00127548
-6.38952e-05
0.00128862
-6.04341e-05
0.00130119
-5.70009e-05
0.00131314
-5.35324e-05
0.00132442
-5.00091e-05
0.00133511
-4.62852e-05
0.00134513
-4.25595e-05
0.00135445
-3.88557e-05
0.00136276
-3.53551e-05
0.00137057
-3.17874e-05
0.00137813
-2.8193e-05
0.00138519
-2.45984e-05
0.00139167
-2.10516e-05
0.00139764
-1.74913e-05
0.00140301
-1.39363e-05
0.0014075
-1.04347e-05
0.00141113
-6.98132e-06
0.0014139
-3.68842e-06
0.00141638
-6.92484e-05
0.00141863
-7.17371e-05
0.00142277
-7.38391e-05
0.00142706
-7.55775e-05
0.00143145
-7.75388e-05
0.00143569
-8.25566e-05
0.00144026
-0.000113105
0.00144877
-0.000326089
0.00149086
-0.000691241
0.00169293
-0.000514887
0.00171524
-0.000412803
0.00182735
-0.000380042
0.0019147
-0.000362437
0.00197173
-0.000345422
0.0020031
-0.000326945
0.00202531
-0.000291638
0.0020386
-0.000253567
0.002039
-0.000206459
0.00204596
-0.000164326
0.00205473
-0.000132807
0.00206484
-0.000100661
0.00205271
-7.90124e-05
0.00205436
-5.48818e-05
0.00204041
-3.61206e-05
0.00203661
-2.26389e-05
0.00202956
-9.20148e-06
0.00201657
1.66232e-06
0.00200606
1.22685e-05
0.001994
2.10651e-05
0.00198301
3.07147e-05
0.00197217
3.93579e-05
0.0019607
4.79683e-05
0.00194959
5.74981e-05
0.00193626
6.71907e-05
0.00192148
7.69318e-05
0.00190438
8.70016e-05
0.00188454
9.82681e-05
0.00186389
0.000105235
0.00183883
0.00011346
0.00180348
0.000127108
0.00176583
0.000140759
0.00171779
0.000151957
0.0016443
0.00018839
0.00154807
0.000229855
0.00142301
0.00029376
0.00125614
0.000390028
0.0010729
0.000477816
0.000913624
0.000552172
0.000789511
0.000606242
0.000697628
0.000645274
0.000628147
0.000668958
0.000576238
0.000682115
0.000536595
0.000686622
0.000505887
0.000677783
0.000484008
0.000657465
0.000466313