/*--------------------------------*- C++ -*----------------------------------*\
| =========                 |                                                 |
| \\      /  F ield         | OpenFOAM: The Open Source CFD Toolbox           |
|  \\    /   O peration     | Version:  2.2.x                                 |
|   \\  /    A nd           | Web:      www.OpenFOAM.org                      |
|    \\/     M anipulation  |                                                 |
\*---------------------------------------------------------------------------*/
FoamFile
{
    version     2.0;
    format      ascii;
    class       surfaceScalarField;
    location    "0.9";
    object      phi;
}
// * * * * * * * * * * * * * * * * * * * * * * * * * * * * * * * * * * * * * //

dimensions      [1 0 -1 0 0 0 0];

internalField   nonuniform List<scalar> 
28084
(
0.000746228
0.000742993
0.000740219
0.000737885
0.000735976
0.000734468
0.000733323
0.000732524
0.000732058
0.000731892
0.000731993
0.000732328
0.000732887
0.000733647
0.000734548
0.000735576
0.000736738
0.000737991
0.000739286
0.000740637
0.000742022
0.00074339
0.000744696
0.000746018
0.000747331
0.000748603
0.000749795
0.000750842
0.000751718
0.000752569
0.000753337
0.000753988
0.000754507
0.0007549
0.000755162
0.000755298
0.000755298
0.000755129
0.000754842
0.000754427
0.000753866
0.000753136
0.000752214
0.000751168
0.000750001
0.000759285
0.000768803
0.000778522
0.000788497
0.000798905
0.000809115
0.000789899
0.000776931
0.000801444
0.00083783
0.00087933
0.00091806
0.000952036
0.000983723
0.00101397
0.00104303
0.00106974
0.0010929
0.00111301
0.00113041
0.0011451
0.00115718
0.00116753
0.00117687
0.00118503
0.00119205
0.00119795
0.00120289
0.0012072
0.0012107
0.00121353
0.00121561
0.00121622
0.00121593
0.001216
0.00121403
0.00121115
0.00120844
0.00120483
0.00120017
0.00119548
0.00119046
0.00118483
0.00118242
0.00118022
0.0011772
0.00117356
0.00116526
0.00115745
0.00115563
0.00116892
0.00117448
0.00117244
0.00113264
0.00107425
0.00101647
0.000966893
0.000926806
0.000894163
0.000867462
0.000845026
0.000824731
0.000806217
0.000788193
0.000770025
0.000749188
0.000724243
0.000691635
0.000645351
0.0005818
0.000488794
0.000356524
0.000190152
3.70993e-06
3.2355e-06
0.000749744
2.77631e-06
0.000748791
2.33863e-06
0.000748271
1.91351e-06
0.000748167
1.51047e-06
0.000748444
1.14865e-06
0.000749087
8.03897e-07
0.000750105
4.70117e-07
0.000751456
1.69391e-07
0.000753076
-9.58204e-08
0.000754957
-3.29249e-07
0.000757105
-5.5342e-07
0.000759478
-7.5493e-07
0.000761996
-8.94635e-07
0.000764653
-1.02096e-06
0.00076748
-1.15203e-06
0.000770418
-1.24569e-06
0.000773384
-1.2922e-06
0.000776382
-1.33995e-06
0.000779411
-1.36492e-06
0.000782445
-1.36454e-06
0.000785453
-1.35258e-06
0.000788386
-1.32382e-06
0.000791203
-1.27333e-06
0.000793985
-1.21011e-06
0.000796703
-1.14121e-06
0.000799326
-1.05742e-06
0.000801807
-9.65984e-07
0.000804083
-8.61245e-07
0.000806122
-7.56356e-07
0.000808091
-6.47309e-07
0.000809922
-5.26174e-07
0.000811576
-4.06286e-07
0.000813044
-2.65472e-07
0.000814331
-1.27109e-07
0.00081544
1.16557e-08
0.000816363
1.60763e-07
0.000817074
3.08644e-07
0.000817589
4.51598e-07
0.000817943
6.00858e-07
0.000818131
7.55615e-07
0.000818106
9.13462e-07
0.000817856
1.07073e-06
0.000817376
1.22364e-06
0.000816737
-9.19861e-06
0.000815945
-9.56016e-06
0.000824741
-9.84044e-06
0.000833744
-1.01225e-05
0.000842983
-1.02881e-05
0.000852458
-9.99429e-06
0.000862422
1.75177e-05
0.000872627
1.17345e-05
0.00089714
-2.35444e-05
0.000928109
-3.55796e-05
0.000956979
-4.07934e-05
0.000989262
-3.82317e-05
0.00102303
-3.36575e-05
0.00105842
-3.1349e-05
0.00109074
-2.97772e-05
0.00112006
-2.85327e-05
0.00114793
-2.63225e-05
0.0011733
-2.27857e-05
0.00119579
-2.00029e-05
0.00121619
-1.69664e-05
0.00123323
-1.41489e-05
0.00124719
-1.20567e-05
0.00125935
-1.0339e-05
0.00126886
-9.23786e-06
0.00127592
-8.1626e-06
0.00128203
-7.01675e-06
0.00128759
-5.7951e-06
0.00129219
-4.89425e-06
0.00129552
-4.36294e-06
0.00129809
-3.55544e-06
0.00130015
-2.79933e-06
0.00130144
-2.00976e-06
0.00130203
-7.57722e-07
0.00130189
-4.21087e-07
0.00130079
-8.4509e-07
0.00129865
5.55265e-07
0.00129685
1.89994e-06
0.00129365
1.99682e-06
0.00128942
3.03495e-06
0.00128595
4.34012e-06
0.00128175
4.44456e-06
0.00127689
4.66602e-06
0.00127201
5.52052e-06
0.0012659
1.79565e-06
0.00125951
2.46547e-06
0.00125536
2.66654e-06
0.00125074
4.29446e-06
0.00124515
8.42444e-06
0.00123986
7.40411e-06
0.00122954
2.01812e-06
0.00122032
-1.2468e-05
0.00121654
-2.97008e-06
0.00122952
5.60392e-06
0.00118681
4.26029e-05
0.00109619
6.03474e-05
0.000990545
5.88298e-05
0.00089781
5.02704e-05
0.000826499
4.03845e-05
0.000768612
3.22911e-05
0.000721208
2.62996e-05
0.000682151
2.20048e-05
0.000649049
1.98269e-05
0.000622231
1.83095e-05
0.000600418
1.81723e-05
0.000581826
1.88499e-05
0.000563851
2.18051e-05
0.000545606
2.58814e-05
0.000525626
3.3393e-05
0.000503522
4.69127e-05
0.000477592
6.40645e-05
0.000443828
9.34061e-05
0.000398292
0.000132369
0.000346486
0.000166109
0.000261082
0.000188007
0.000140679
5.10997e-06
4.19221e-06
0.000754438
3.30005e-06
0.000755738
2.44482e-06
0.000757434
1.63779e-06
0.000759514
8.70007e-07
0.000761976
1.34551e-07
0.000764794
-5.42951e-07
0.000767913
-1.14531e-06
0.000771322
-1.70653e-06
0.00077504
-2.23842e-06
0.000779012
-2.69592e-06
0.000783154
-3.06502e-06
0.000787462
-3.4038e-06
0.000791965
-3.71441e-06
0.000796599
-3.95118e-06
0.00080128
-4.11065e-06
0.000806002
-4.23734e-06
0.000810781
-4.31858e-06
0.000815562
-4.3547e-06
0.000820305
-4.35e-06
0.00082499
-4.30323e-06
0.000829598
-4.22223e-06
0.000834082
-4.1031e-06
0.000838395
-3.94825e-06
0.000842625
-3.76593e-06
0.000846732
-3.56862e-06
0.000850683
-3.34565e-06
0.000854439
-3.10357e-06
0.00085793
-2.83892e-06
0.000861136
-2.57374e-06
0.000864224
-2.29394e-06
0.000867112
-2.00012e-06
0.000869763
-1.70268e-06
0.000872173
-1.37208e-06
0.00087434
-1.04452e-06
0.000876265
-7.01964e-07
0.000877936
-3.55321e-07
0.000879402
-2.68514e-08
0.000880643
3.14384e-07
0.000881603
6.69579e-07
0.00088236
1.02682e-06
0.000882877
1.38619e-06
0.000883123
1.73367e-06
0.000883164
2.09212e-06
0.000882911
-1.79032e-05
0.000882439
-1.8595e-05
0.000890781
-1.91935e-05
0.000899299
-1.9698e-05
0.000908049
-2.01584e-05
0.0009171
-2.00054e-05
0.000926391
-8.61979e-06
0.000936622
-1.97594e-05
0.000982016
-5.13018e-05
0.00101765
-6.77353e-05
0.00103221
-7.43972e-05
0.00104926
-7.34823e-05
0.0010747
-6.59236e-05
0.00110083
-6.12043e-05
0.00112535
-5.75879e-05
0.00114976
-5.39502e-05
0.00117154
-4.95047e-05
0.00119341
-4.30498e-05
0.00121383
-3.74152e-05
0.00123175
-3.14055e-05
0.00124755
-2.62871e-05
0.00126072
-2.1805e-05
0.00127239
-1.83926e-05
0.00128242
-1.63718e-05
0.00129067
-1.427e-05
0.00129717
-1.21232e-05
0.00130251
-9.83187e-06
0.00130728
-8.29952e-06
0.00131092
-7.37946e-06
0.00131332
-5.81929e-06
0.00131488
-4.28475e-06
0.00131607
-2.71538e-06
0.00131689
-5.68191e-07
0.00131695
5.22095e-07
0.00131624
1.88286e-09
0.00131379
2.70381e-06
0.00131179
5.51691e-06
0.00130914
5.13088e-06
0.00130422
7.06679e-06
0.00129945
9.31219e-06
0.0012944
9.51812e-06
0.00128872
1.07722e-05
0.00128282
1.17296e-05
0.00127618
4.52542e-06
0.00126885
6.72717e-06
0.00126287
7.61287e-06
0.00125716
9.06573e-06
0.00125012
1.79495e-05
0.00124229
1.69048e-05
0.0012297
5.85157e-06
0.00121793
-2.47274e-05
0.00121332
4.22627e-05
0.00115585
9.96834e-05
0.00104141
0.000150295
0.00089742
0.000154827
0.000790906
0.000131473
0.000711459
0.000108034
0.0006449
8.71633e-05
0.000587009
7.0492e-05
0.000536309
5.85313e-05
0.000492329
4.88035e-05
0.000454674
4.2251e-05
0.000422398
3.80157e-05
0.00039383
3.7616e-05
0.000367709
3.84524e-05
0.000342855
4.30344e-05
0.000319508
4.93023e-05
0.000297084
6.08309e-05
0.000275725
8.22403e-05
0.000255613
0.000111167
0.000234601
0.00014635
0.000206373
0.000218206
0.000170792
0.000286535
0.000123506
0.000326823
6.62807e-05
4.22866e-06
2.89468e-06
0.000760314
1.60654e-06
0.000763829
3.67907e-07
0.000767718
-8.21553e-07
0.000771975
-1.94461e-06
0.000776566
-2.98036e-06
0.000781475
-3.94621e-06
0.000786711
-4.85916e-06
0.000792234
-5.67367e-06
0.000797968
-6.37363e-06
0.000803907
-6.99631e-06
0.00081007
-7.56085e-06
0.000816383
-8.03115e-06
0.000822806
-8.38789e-06
0.000829294
-8.66364e-06
0.000835849
-8.88057e-06
0.000842431
-9.00872e-06
0.000848968
-9.05248e-06
0.000855449
-9.02168e-06
0.000861866
-8.93832e-06
0.000868198
-8.7941e-06
0.000874401
-8.59151e-06
0.000880419
-8.33357e-06
0.000886208
-8.01198e-06
0.00089186
-7.65359e-06
0.000897337
-7.26683e-06
0.000902605
-6.85396e-06
0.000907626
-6.40406e-06
0.000912327
-5.93181e-06
0.000916669
-5.44e-06
0.000920849
-4.93111e-06
0.000924782
-4.41226e-06
0.000928445
-3.88653e-06
0.000931792
-3.30643e-06
0.000934811
-2.72883e-06
0.000937559
-2.15969e-06
0.000940004
-1.58414e-06
0.000942136
-9.87837e-07
0.000943944
-4.00126e-07
0.000945539
1.94301e-07
0.000946884
7.88805e-07
0.000947987
1.38897e-06
0.000948698
1.99898e-06
0.000949137
2.61072e-06
0.000949343
-2.61405e-05
0.000949359
-2.71222e-05
0.000957093
-2.80158e-05
0.000965053
-2.88141e-05
0.000973196
-2.94101e-05
0.000981415
-3.01155e-05
0.000989658
-5.36304e-05
0.000998397
-5.62307e-05
0.000994078
-6.6334e-05
0.00099279
-8.41479e-05
0.00101426
-0.000100666
0.00104567
-0.000100514
0.00108117
-9.13805e-05
0.00111978
-8.60381e-05
0.00115503
-7.98672e-05
0.00118675
-7.59734e-05
0.00121544
-7.02634e-05
0.00124256
-6.12341e-05
0.00126504
-5.3498e-05
0.00128654
-4.54147e-05
0.0013047
-3.8379e-05
0.00131884
-3.1523e-05
0.00133118
-2.63458e-05
0.00134155
-2.32867e-05
0.00134853
-1.99691e-05
0.00135378
-1.69121e-05
0.00135795
-1.36901e-05
0.00136116
-1.12633e-05
0.00136374
-9.68551e-06
0.00136529
-7.69836e-06
0.00136575
-5.38657e-06
0.00136607
-2.81518e-06
0.00136584
3.55857e-07
0.0013645
2.99445e-06
0.00136192
2.17553e-06
0.001359
5.36773e-06
0.0013552
9.6952e-06
0.00135092
8.82264e-06
0.00134596
1.12523e-05
0.00134094
1.46123e-05
0.00133497
1.50789e-05
0.00132758
1.70113e-05
0.00132076
1.84168e-05
0.00131404
9.15385e-06
0.00130667
1.26961e-05
0.00129659
1.39429e-05
0.00128993
1.61684e-05
0.00128404
3.04253e-05
0.00127961
2.71449e-05
0.00126429
1.07558e-05
0.0012568
3.51586e-05
0.0012062
0.000159669
0.001016
0.000245163
0.000822779
0.000257942
0.000699162
0.000236278
0.000620593
0.000199643
0.000564507
0.000166239
0.00051432
0.000137665
0.000465611
0.000113685
0.000417898
9.53967e-05
0.00037213
8.14403e-05
0.000330982
7.18759e-05
0.00029627
6.54098e-05
0.000265955
6.34725e-05
0.000238153
6.27947e-05
0.00021203
6.66321e-05
0.000188243
7.20246e-05
0.000165985
8.23547e-05
0.000145448
0.000104519
0.000127002
0.000140237
0.00011072
0.000182411
9.28721e-05
0.000266514
7.24377e-05
0.000344438
4.81167e-05
0.000392019
2.80274e-05
1.0971e-06
-6.17143e-07
0.000767365
-2.28115e-06
0.000773061
-3.8873e-06
0.000779107
-5.40983e-06
0.000785483
-6.85055e-06
0.000792194
-8.21178e-06
0.000799216
-9.46303e-06
0.000806494
-1.05879e-05
0.000814015
-1.16074e-05
0.000821793
-1.25307e-05
0.000829771
-1.33026e-05
0.000837868
-1.39777e-05
0.000846099
-1.45112e-05
0.000854415
-1.49329e-05
0.000862801
-1.52385e-05
0.000871178
-1.54122e-05
0.000879514
-1.54844e-05
0.00088781
-1.54678e-05
0.000896017
-1.53309e-05
0.000904096
-1.51132e-05
0.000912046
-1.48133e-05
0.000919814
-1.44373e-05
0.00092734
-1.3983e-05
0.000934585
-1.34508e-05
0.000941644
-1.28571e-05
0.000948468
-1.22234e-05
0.000955026
-1.15647e-05
0.000961288
-1.08592e-05
0.000967188
-1.01148e-05
0.000972649
-9.33861e-06
0.000977902
-8.55171e-06
0.000982864
-7.74222e-06
0.000987502
-6.91838e-06
0.000991815
-6.0788e-06
0.000995738
-5.1919e-06
0.000999263
-4.31665e-06
0.00100245
-3.44781e-06
0.00100527
-2.58507e-06
0.00100771
-1.70343e-06
0.00100983
-8.18756e-07
0.00101173
8.3038e-08
0.00101333
9.60371e-07
0.00101461
1.85598e-06
0.00101545
2.75289e-06
0.001016
-3.37771e-05
0.00101632
-3.5076e-05
0.00102381
-3.61869e-05
0.00103128
-3.71691e-05
0.00103884
-3.77019e-05
0.00104644
-3.86987e-05
0.00105431
-4.94562e-05
0.00106217
-5.52853e-05
0.00107353
-8.79408e-05
0.00105979
-0.000115942
0.00107339
-0.000136948
0.00110531
-0.000139538
0.00114447
-0.000126689
0.00118605
-0.000117973
0.00122288
-0.000108538
0.00125691
-0.000102579
0.00128594
-9.2399e-05
0.00131475
-8.19765e-05
0.00133772
-7.13561e-05
0.00135509
-6.08735e-05
0.00137226
-5.12398e-05
0.00138352
-4.13751e-05
0.00139503
-3.36201e-05
0.0014047
-2.90677e-05
0.00141177
-2.45091e-05
0.00141545
-2.02353e-05
0.001418
-1.63865e-05
0.00142066
-1.29884e-05
0.0014231
-1.06042e-05
0.00142462
-8.67246e-06
0.00142363
-5.90499e-06
0.0014222
-2.06793e-06
0.00142048
2.71417e-06
0.0014178
5.87467e-06
0.00141412
5.15875e-06
0.00140975
1.00793e-05
0.00140401
1.54172e-05
0.00140003
1.4064e-05
0.00139312
1.6849e-05
0.00138623
2.13831e-05
0.00137931
2.17036e-05
0.00137098
2.31809e-05
0.0013621
2.53293e-05
0.00135296
1.79571e-05
0.00134222
1.86385e-05
0.00133257
1.89e-05
0.00132766
1.98384e-05
0.00132068
4.51361e-05
0.00130738
3.42856e-05
0.00130064
6.43763e-05
0.00125458
0.000228614
0.0010542
0.000354749
0.000836804
0.000369083
0.000691433
0.000336579
0.00059383
0.000293836
0.000531017
0.000251126
0.000488471
0.00021545
0.000453046
0.000185439
0.000417205
0.000159258
0.000377972
0.000136679
0.000336024
0.000116879
0.000291896
0.000102985
0.000251152
9.36933e-05
0.00021583
8.99829e-05
0.000185312
8.74875e-05
0.000158117
9.02652e-05
0.000134068
9.37323e-05
0.000111586
0.000101783
9.10629e-05
0.00012143
7.25938e-05
0.000158578
5.74131e-05
0.000203515
4.38723e-05
0.000292141
3.01947e-05
0.000365038
1.71273e-05
0.000419144
1.06798e-05
-4.24288e-06
-6.31051e-06
0.000775604
-8.32249e-06
0.000783442
-1.02607e-05
0.000791605
-1.2118e-05
0.000800086
-1.38692e-05
0.000808855
-1.54851e-05
0.000817897
-1.69784e-05
0.000827224
-1.83611e-05
0.000836791
-1.95799e-05
0.000846524
-2.06219e-05
0.00085641
-2.15273e-05
0.000866465
-2.22872e-05
0.000876623
-2.28835e-05
0.000886805
-2.33016e-05
0.000896992
-2.35685e-05
0.000907179
-2.37032e-05
0.000917303
-2.36876e-05
0.000927308
-2.35401e-05
0.000937191
-2.32517e-05
0.000946908
-2.28503e-05
0.000956447
-2.23432e-05
0.00096575
-2.17396e-05
0.00097476
-2.10403e-05
0.000983445
-2.02404e-05
0.000991884
-1.93565e-05
0.00100004
-1.84258e-05
0.00100787
-1.746e-05
0.00101534
-1.64423e-05
0.00102239
-1.53728e-05
0.00102897
-1.42672e-05
0.00103529
-1.31384e-05
0.00104125
-1.19924e-05
0.00104685
-1.08234e-05
0.00105208
-9.62594e-06
0.00105686
-8.42709e-06
0.00106121
-7.1929e-06
0.00106508
-5.98605e-06
0.00106855
-4.77422e-06
0.00107162
-3.57389e-06
0.00107439
-2.35452e-06
0.00107683
-1.13286e-06
0.00107891
1.0351e-07
0.00108065
1.31367e-06
0.00108198
2.53873e-06
0.00108288
-4.09943e-05
0.00108346
-4.24616e-05
0.00109031
-4.37264e-05
0.00109746
-4.48293e-05
0.00110446
-4.5624e-05
0.00111148
-4.65919e-05
0.00111866
-6.17517e-05
0.00112507
-4.29016e-05
0.00107733
-0.000101852
0.00104286
-0.000148299
0.00107032
-0.000176568
0.00111526
-0.000181704
0.00116919
-0.000163733
0.00122427
-0.000152361
0.0012734
-0.000137875
0.00132165
-0.000129042
0.0013642
-0.000116863
0.00140274
-0.00010038
0.00143038
-8.82839e-05
0.00145489
-7.28658e-05
0.00147901
-6.37045e-05
0.00149207
-4.97252e-05
0.001508
-4.06365e-05
0.00152023
-3.48966e-05
0.00152753
-2.87587e-05
0.00153281
-2.34885e-05
0.00153596
-1.88979e-05
0.00153612
-1.46255e-05
0.00153578
-1.03325e-05
0.00153436
-7.94985e-06
0.00153193
-4.70134e-06
0.00152862
2.54405e-07
0.00152505
6.06773e-06
0.00152062
1.01435e-05
0.00151557
1.05798e-05
0.00150952
1.47514e-05
0.0015011
2.24301e-05
0.00149319
2.01594e-05
0.00148315
2.35532e-05
0.00147181
2.91228e-05
0.00146168
2.95762e-05
0.00144888
3.20638e-05
0.00143782
3.64659e-05
0.00142732
2.62145e-05
0.00141581
2.25362e-05
0.0014026
2.49944e-05
0.00139501
3.25705e-05
0.00138413
5.14216e-05
0.00137643
8.21506e-05
0.0013443
0.000269259
0.00114222
0.000448234
0.00090852
0.000499997
0.000746702
0.000466948
0.00062918
0.000400134
0.000536207
0.000337924
0.000471546
0.000287853
0.000428233
0.000251651
0.000395413
0.000224765
0.000366724
0.000201443
0.000336905
0.000180697
0.000305184
0.000157688
0.00027097
0.000138632
0.000233349
0.000124471
0.000195579
0.000117802
0.000162791
0.00011248
0.000134399
0.000113612
0.0001097
0.000115152
8.69663e-05
0.000120801
6.69671e-05
0.000137188
4.94882e-05
0.000172731
3.55622e-05
0.000217932
2.50883e-05
0.000306425
1.43948e-05
0.000371704
6.04579e-06
0.000429073
4.18948e-06
-1.17519e-05
-1.41454e-05
0.000785032
-1.64815e-05
0.000794966
-1.87398e-05
0.0008052
-2.08851e-05
0.000815725
-2.29087e-05
0.000826534
-2.48075e-05
0.000837609
-2.65402e-05
0.000848907
-2.80889e-05
0.000860407
-2.94603e-05
0.000872106
-3.06717e-05
0.000883961
-3.1679e-05
0.000895885
-3.24641e-05
0.00090786
-3.30622e-05
0.000919894
-3.34754e-05
0.000931918
-3.36882e-05
0.000943853
-3.37058e-05
0.000955693
-3.35613e-05
0.000967418
-3.32465e-05
0.000978947
-3.27594e-05
0.00099025
-3.21249e-05
0.00100133
-3.13609e-05
0.00101215
-3.04778e-05
0.00102263
-2.94787e-05
0.00103272
-2.83611e-05
0.00104252
-2.71312e-05
0.00105198
-2.58507e-05
0.00106107
-2.45157e-05
0.00106972
-2.31363e-05
0.00107789
-2.16955e-05
0.00108557
-2.01963e-05
0.00109292
-1.86668e-05
0.00109987
-1.71241e-05
0.00110641
-1.55612e-05
0.00111251
-1.39777e-05
0.00111815
-1.23804e-05
0.00112328
-1.07752e-05
0.00112787
-9.1649e-06
0.00113194
-7.58018e-06
0.00113572
-5.99546e-06
0.00113911
-4.39808e-06
0.00114209
-2.80346e-06
0.00114467
-1.18775e-06
0.00114684
4.11097e-07
0.00114865
2.00426e-06
0.00115007
-4.76308e-05
0.00115107
-4.93068e-05
0.00115734
-5.07048e-05
0.00116385
-5.1832e-05
0.0011706
-5.28864e-05
0.00117723
-5.31153e-05
0.00118352
-1.5451e-05
0.00118941
-9.94635e-06
0.00119978
-0.000129944
0.00117616
-0.000194362
0.00121484
-0.000230997
0.00127641
-0.000237666
0.00134511
-0.000213268
0.00141296
-0.000199984
0.00147594
-0.000180128
0.00152772
-0.00016559
0.00156102
-0.000149669
0.0015969
-0.000125532
0.00162597
-0.000107239
0.0016433
-8.85742e-05
0.00166851
-8.00854e-05
0.00168088
-6.05475e-05
0.00169084
-4.77291e-05
0.00169399
-4.13301e-05
0.00169771
-3.36277e-05
0.00170175
-2.59256e-05
0.00170293
-2.04925e-05
0.00170363
-1.472e-05
0.00170296
-8.94292e-06
0.00170054
-4.89967e-06
0.00169579
-1.17833e-06
0.00169013
4.51004e-06
0.00168384
1.10508e-05
0.00167742
1.69585e-05
0.00166935
1.91215e-05
0.0016611
2.27902e-05
0.00165235
3.21406e-05
0.00164216
3.01522e-05
0.00162973
3.2956e-05
0.0016169
4.11082e-05
0.00160267
3.99594e-05
0.00158737
4.18207e-05
0.00157176
4.77454e-05
0.001556
3.76256e-05
0.00153798
2.91593e-05
0.00152156
3.54883e-05
0.00151233
4.04798e-05
0.00150362
8.61481e-05
0.00145494
0.00028739
0.00126269
0.000501509
0.00101705
0.000610714
0.000831493
0.000617836
0.000702807
0.000560533
0.000603095
0.000465425
0.000525137
0.000382173
0.000459754
0.000321317
0.000411306
0.000280246
0.000373587
0.000254717
0.00034245
0.000233325
0.000314236
0.000214787
0.000286032
0.00019522
0.000256681
0.000176605
0.000225544
0.000157607
0.000191857
0.000147099
0.000158283
0.000138054
0.000127895
0.000137075
0.000102169
0.000135752
7.91949e-05
0.000138757
6.0044e-05
0.000151674
4.36013e-05
0.000183829
3.01628e-05
0.000229406
2.05724e-05
0.000315641
1.06803e-05
0.000373565
3.47746e-06
0.00043233
2.5344e-06
-2.13847e-05
-2.40772e-05
0.000795656
-2.67132e-05
0.000807639
-2.9261e-05
0.000819901
-3.16898e-05
0.00083243
-3.39802e-05
0.000845224
-3.61021e-05
0.000858263
-3.80349e-05
0.000871512
-3.97837e-05
0.000884957
-4.13098e-05
0.000898543
-4.25897e-05
0.000912238
-4.36451e-05
0.00092603
-4.44879e-05
0.000939878
-4.50803e-05
0.000953695
-4.54078e-05
0.000967451
-4.55209e-05
0.000981141
-4.54178e-05
0.000994683
-4.50822e-05
0.00100803
-4.45452e-05
0.00102117
-4.3817e-05
0.00103407
-4.29161e-05
0.0010467
-4.18369e-05
0.00105896
-4.06223e-05
0.00107085
-3.92762e-05
0.00108234
-3.7783e-05
0.00109347
-3.61651e-05
0.00110419
-3.44599e-05
0.0011145
-3.27108e-05
0.00112434
-3.09139e-05
0.00113364
-2.90538e-05
0.0011424
-2.71168e-05
0.00115077
-2.51384e-05
0.00115867
-2.31468e-05
0.00116611
-2.11364e-05
0.00117306
-1.91078e-05
0.00117947
-1.70744e-05
0.00118535
-1.50365e-05
0.00119064
-1.29973e-05
0.00119536
-1.09804e-05
0.00119979
-8.968e-06
0.00120378
-6.95314e-06
0.00120731
-4.94091e-06
0.00121036
-2.92667e-06
0.00121297
-9.38031e-07
0.00121514
1.0625e-06
0.00121691
-5.38222e-05
0.00121825
-5.5666e-05
0.00122399
-5.72452e-05
0.00122995
-5.83587e-05
0.00123608
-5.91846e-05
0.00124248
-5.89778e-05
0.00124924
-2.83815e-05
0.00125701
1.09686e-05
0.00128743
-0.000168617
0.00133034
-0.000255387
0.00143384
-0.000300593
0.00151528
-0.000307924
0.00157247
-0.000276661
0.00162609
-0.00025259
0.00167379
-0.00021757
0.00171204
-0.000199143
0.00173588
-0.000180781
0.00176882
-0.000146397
0.00179243
-0.00012307
0.00180185
-9.99589e-05
0.0018214
-9.10351e-05
0.0018254
-6.61725e-05
0.00182648
-5.19494e-05
0.00182613
-4.52608e-05
0.00182737
-3.51836e-05
0.00182763
-2.76894e-05
0.00182739
-2.11963e-05
0.00182672
-1.40479e-05
0.00182593
-5.46983e-06
0.00182198
4.6581e-07
0.00181651
4.87331e-06
0.00181021
1.05918e-05
0.00180268
1.87111e-05
0.0017949
2.60195e-05
0.00178611
2.90114e-05
0.00177702
3.44475e-05
0.00176678
4.49628e-05
0.00175545
4.28445e-05
0.00174246
4.685e-05
0.00172824
5.57104e-05
0.00171524
5.46457e-05
0.00169843
5.67054e-05
0.001683
6.5206e-05
0.0016718
5.29365e-05
0.00165896
3.79072e-05
0.00165086
4.40091e-05
0.001627
9.13097e-05
0.00155369
0.000280806
0.00135758
0.000535389
0.00107955
0.000687345
0.000900449
0.000739617
0.000801965
0.000717387
0.000716886
0.000638895
0.000633173
0.000531498
0.000549441
0.00043122
0.000471646
0.000358915
0.000414479
0.000311249
0.000370768
0.000283208
0.000335829
0.000261644
0.000306699
0.000243873
0.000279509
0.000226193
0.000251629
0.000210504
0.000223072
0.000191775
0.000192883
0.000178638
0.00016152
0.000164497
0.000131864
0.000160585
0.000106115
0.000155549
8.28306e-05
0.000156007
6.35505e-05
0.000165933
4.69308e-05
0.000194144
3.32311e-05
0.000240248
2.24308e-05
0.000323321
1.19843e-05
0.000374358
4.95486e-06
0.000433836
3.23063e-06
-3.30901e-05
-3.60574e-05
0.000807489
-3.89717e-05
0.000821467
-4.17875e-05
0.000835702
-4.44802e-05
0.000850195
-4.70152e-05
0.00086492
-4.93462e-05
0.000879862
-5.14747e-05
0.000895012
-5.33652e-05
0.000910331
-5.50006e-05
0.000925788
-5.63778e-05
0.000941337
-5.74857e-05
0.000956944
-5.82988e-05
0.000972547
-5.88288e-05
0.00098812
-5.90825e-05
0.00100361
-5.90588e-05
0.00101898
-5.87643e-05
0.00103419
-5.82165e-05
0.00104916
-5.74232e-05
0.00106386
-5.64093e-05
0.00107828
-5.51648e-05
0.00109239
-5.37392e-05
0.00110611
-5.21413e-05
0.00111938
-5.03988e-05
0.00113223
-4.84825e-05
0.00114466
-4.64208e-05
0.00115662
-4.42559e-05
0.00116811
-4.20278e-05
0.00117908
-3.97439e-05
0.00118948
-3.74258e-05
0.00119934
-3.50013e-05
0.00120872
-3.25245e-05
0.00121755
-3.00229e-05
0.00122585
-2.75047e-05
0.00123361
-2.49941e-05
0.00124079
-2.24783e-05
0.0012474
-1.99617e-05
0.00125339
-1.74631e-05
0.00125876
-1.49649e-05
0.00126381
-1.24804e-05
0.00126838
-9.98633e-06
0.00127247
-7.50626e-06
0.00127603
-5.03885e-06
0.00127904
-2.59951e-06
0.00128169
-1.63419e-07
0.00128387
-5.94515e-05
0.00128559
-6.15266e-05
0.00129083
-6.32828e-05
0.00129634
-6.46641e-05
0.00130159
-6.57807e-05
0.00130699
-6.65293e-05
0.00131273
-5.90165e-05
0.0013175
-3.75773e-05
0.00132938
-0.000274603
0.00162707
-0.000338197
0.00175257
-0.000360706
0.00178778
-0.000366468
0.00180075
-0.000329212
0.00182429
-0.000293
0.00184381
-0.000248243
0.00186042
-0.000227563
0.00189051
-0.000201239
0.00190726
-0.000158785
0.00191394
-0.000133941
0.0019298
-0.000105129
0.00193212
-9.25229e-05
0.00192388
-6.91943e-05
0.00192609
-5.46329e-05
0.00192166
-4.64184e-05
0.00192219
-3.49968e-05
0.00192028
-2.72939e-05
0.00191631
-2.05071e-05
0.00191208
-1.14473e-05
0.00190783
-3.60624e-07
0.00190373
7.25475e-06
0.00189819
1.28031e-05
0.00189118
1.84404e-05
0.00188282
2.73968e-05
0.00187404
3.51376e-05
0.0018632
4.004e-05
0.00185242
4.68688e-05
0.00184058
5.88017e-05
0.0018274
5.81773e-05
0.00181386
6.09496e-05
0.00180064
7.31211e-05
0.00178794
7.03893e-05
0.00177541
6.80076e-05
0.00175835
7.79911e-05
0.00173953
6.16932e-05
0.00172144
6.32331e-05
0.00165091
0.00011878
0.00152484
0.000290411
0.00130351
0.000559206
0.00104741
0.000714089
0.000889601
0.000785797
0.000767162
0.000824468
0.000691466
0.000801656
0.00064748
0.000724279
0.000601349
0.000611166
0.000543707
0.000488636
0.000480748
0.000402151
0.00042141
0.00034606
0.000376179
0.00031281
0.000341261
0.000288851
0.00031234
0.000271354
0.000285118
0.000254556
0.000257637
0.00024095
0.000229844
0.000224021
0.000201368
0.000209482
0.000172278
0.000190808
0.000142234
0.000184491
0.0001155
0.000175669
9.13632e-05
0.000173559
7.14322e-05
0.000180742
5.3673e-05
0.000205848
3.86669e-05
0.000251383
2.62798e-05
0.000330485
1.57287e-05
0.000375793
8.3398e-06
0.00043599
4.934e-06
-4.68145e-05
-5.00335e-05
0.000820539
-5.32032e-05
0.000836456
-5.6277e-05
0.000852611
-5.92018e-05
0.000868995
-6.19535e-05
0.000885605
-6.44919e-05
0.00090242
-6.67873e-05
0.000919421
-6.88166e-05
0.000936574
-7.05443e-05
0.000953825
-7.19789e-05
0.000971158
-7.3082e-05
0.000988515
-7.3863e-05
0.00100586
-7.4312e-05
0.00102315
-7.44413e-05
0.00104034
-7.4256e-05
0.00105735
-7.3731e-05
0.00107414
-7.29132e-05
0.00109068
-7.18309e-05
0.00110693
-7.04829e-05
0.00112287
-6.88681e-05
0.00113843
-6.7033e-05
0.00115353
-6.5002e-05
0.00116815
-6.28162e-05
0.00118234
-6.04212e-05
0.00119606
-5.78799e-05
0.00120925
-5.51953e-05
0.00122186
-5.24321e-05
0.00123385
-4.96344e-05
0.00124532
-4.67682e-05
0.00125625
-4.38189e-05
0.00126664
-4.08054e-05
0.00127647
-3.77475e-05
0.00128563
-3.46765e-05
0.00129412
-3.16271e-05
0.001302
-2.85726e-05
0.00130916
-2.55277e-05
0.00131585
-2.25309e-05
0.00132209
-1.95265e-05
0.00132778
-1.65425e-05
0.00133295
-1.35583e-05
0.00133757
-1.05745e-05
0.00134156
-7.599e-06
0.00134488
-4.66929e-06
0.00134778
-1.76694e-06
0.0013503
-6.45599e-05
0.00135235
-6.67822e-05
0.00135718
-6.86195e-05
0.00136231
-6.99215e-05
0.00136755
-7.09364e-05
0.00137269
-7.06098e-05
0.00137924
-7.0532e-05
0.00138594
-0.000336606
0.00142287
-0.000408986
0.00169062
-0.00037987
0.00184287
-0.000380021
0.00189521
-0.000394467
0.00191151
-0.000353097
0.0019311
-0.000311641
0.00194195
-0.000278229
0.00195162
-0.000241736
0.00197677
-0.000211379
0.0019871
-0.000166975
0.00198607
-0.000127739
0.00198793
-0.000109976
0.00199672
-9.29265e-05
0.00198542
-6.4605e-05
0.00198266
-5.48332e-05
0.00197965
-4.35743e-05
0.00197261
-3.18103e-05
0.00196582
-2.36676e-05
0.00195895
-1.64419e-05
0.00195195
-7.55231e-06
0.00194504
5.61742e-06
0.00193723
1.50911e-05
0.00192924
2.15918e-05
0.00192073
2.77894e-05
0.0019112
3.86365e-05
0.00190208
4.59807e-05
0.00189155
5.2442e-05
0.00188151
6.02519e-05
0.00186998
7.23669e-05
0.00185733
7.18258e-05
0.00184799
7.42747e-05
0.00182994
8.57165e-05
0.00181294
8.84254e-05
0.00179392
8.77333e-05
0.00174311
9.71145e-05
0.00165895
0.000134056
0.00152987
0.000192291
0.00134564
0.000344011
0.00111572
0.000545693
0.000908774
0.0007179
0.00078001
0.000837219
0.000713178
0.000862185
0.000664639
0.000869151
0.000614748
0.00084915
0.00057615
0.000783994
0.000541189
0.000676399
0.000501079
0.000548282
0.000455201
0.000447144
0.00040559
0.000380629
0.000363633
0.000342223
0.000330664
0.000315916
0.000304248
0.000298361
0.000280257
0.000282178
0.000255889
0.000269813
0.000231178
0.000254285
0.000205849
0.000240695
0.000179934
0.000218046
0.000152452
0.000209339
0.000124846
0.000196566
9.94694e-05
0.000192415
7.84337e-05
0.000196829
5.94655e-05
0.000218985
4.37517e-05
0.00026225
3.05413e-05
0.000337866
1.99243e-05
0.000378718
1.18058e-05
0.00043985
6.85304e-06
-6.24992e-05
-6.5948e-05
0.000834819
-6.93552e-05
0.000852613
-7.26579e-05
0.000870626
-7.58089e-05
0.000888853
-7.87649e-05
0.000907289
-8.14863e-05
0.000925918
-8.39329e-05
0.000944701
-8.60649e-05
0.000963618
-8.78735e-05
0.000982636
-8.93306e-05
0.00100171
-9.04251e-05
0.00102079
-9.11431e-05
0.00103982
-9.14838e-05
0.00105875
-9.14377e-05
0.00107755
-9.10334e-05
0.00109619
-9.02773e-05
0.00111456
-8.91628e-05
0.00113261
-8.77348e-05
0.00115034
-8.60041e-05
0.00116772
-8.3971e-05
0.00118469
-8.16811e-05
0.00120116
-7.91941e-05
0.0012171
-7.64954e-05
0.00123258
-7.35843e-05
0.00124754
-7.04854e-05
0.00126189
-6.72431e-05
0.0012756
-6.39113e-05
0.00128863
-6.05301e-05
0.00130114
-5.70714e-05
0.00131309
-5.35407e-05
0.00132445
-4.99469e-05
0.00133522
-4.62904e-05
0.00134524
-4.26334e-05
0.00135449
-3.89624e-05
0.0013629
-3.53479e-05
0.00137076
-3.17725e-05
0.00137824
-2.81882e-05
0.00138512
-2.46301e-05
0.00139143
-2.10828e-05
0.00139719
-1.75751e-05
0.00140241
-1.40557e-05
0.00140688
-1.05228e-05
0.00141059
-7.07563e-06
0.0014137
-3.66329e-06
0.00141655
-6.92252e-05
0.0014189
-7.16717e-05
0.00142317
-7.37618e-05
0.00142772
-7.52595e-05
0.00143232
-7.69875e-05
0.00143737
-7.64024e-05
0.00144244
-0.000107348
0.00144903
-0.000605325
0.0015805
-0.000572676
0.00167679
-0.000438582
0.00175504
-0.000398251
0.0018561
-0.000411993
0.0019355
-0.00036542
0.00196083
-0.000321021
0.00197112
-0.000299025
0.00199951
-0.000250664
0.00202007
-0.000211676
0.00201941
-0.00017015
0.00202836
-0.000122224
0.00201958
-0.000107562
0.00202563
-8.92995e-05
0.00201653
-5.95233e-05
0.00201468
-4.76338e-05
0.00200995
-3.7985e-05
0.00200029
-2.84204e-05
0.0019918
-1.85234e-05
0.00198414
-1.06223e-05
0.00197663
-5.07889e-07
0.0019687
1.3826e-05
0.00196056
2.43914e-05
0.00195196
3.18375e-05
0.00194272
3.77895e-05
0.00193194
4.96884e-05
0.00192299
5.6043e-05
0.00191152
6.42784e-05
0.00189921
7.32979e-05
0.00188546
8.17092e-05
0.00186854
9.03245e-05
0.00183931
9.13014e-05
0.00178344
0.000105832
0.00169461
0.000140445
0.0015716
0.000173975
0.00141711
0.000228066
0.0012297
0.00032031
0.0010399
0.000424159
0.000875114
0.000551985
0.00074042
0.000674344
0.000648956
0.000784797
0.000586875
0.000885491
0.000557874
0.000912112
0.000546078
0.00090844
0.000532468
0.00088516
0.000516163
0.00082541
0.000498345
0.00072408
0.000474676
0.000598143