/*--------------------------------*- C++ -*----------------------------------*\
| =========                 |                                                 |
| \\      /  F ield         | OpenFOAM: The Open Source CFD Toolbox           |
|  \\    /   O peration     | Version:  2.2.x                                 |
|   \\  /    A nd           | Web:      www.OpenFOAM.org                      |
|    \\/     M anipulation  |                                                 |
\*---------------------------------------------------------------------------*/
FoamFile
{
    version     2.0;
    format      ascii;
    class       surfaceScalarField;
    location    "0.65";
    object      cfmax;
}
// * * * * * * * * * * * * * * * * * * * * * * * * * * * * * * * * * * * * * //

dimensions      [0 3 -1 0 0 0 0];

internalField   nonuniform List<scalar> 
28084
(
0.00103347
0.00102899
0.00102514
0.0010219
0.00101925
0.00101715
0.00101556
0.00101446
0.0010138
0.00101356
0.00101369
0.00101415
0.00101492
0.00101594
0.00101719
0.00101863
0.00102022
0.00102194
0.00102374
0.0010256
0.00102748
0.00102938
0.00103125
0.00103308
0.00103485
0.00103654
0.00103812
0.0010396
0.00104094
0.00104232
0.00104338
0.000774257
0.000759896
0.000760524
0.000760926
0.000761066
0.000760923
0.000760241
0.000758965
0.000757115
0.000754769
0.000752039
0.000749045
0.000745891
0.000742652
0.000749739
0.000757204
0.000765066
0.000773287
0.000781813
0.000790574
0.000799486
0.000808462
0.000817416
0.000826272
0.000834968
0.000843451
0.000851684
0.000859637
0.000867288
0.000874611
0.000881583
0.000888171
0.000894337
0.000900036
0.000905216
0.000909831
0.000913841
0.000917209
0.000919906
0.000921913
0.000923214
0.000923798
0.000923658
0.000922789
0.000921188
0.000918857
0.000915801
0.000912033
0.000907574
0.000902454
0.000896711
0.00089039
0.000883543
0.000876228
0.000868508
0.000860451
0.000852132
0.000843628
0.000835024
0.000826409
0.000817878
0.000809528
0.000801464
0.00079379
0.000786618
0.000780059
0.000774228
0.000769241
0.000765214
0.000762261
0.000760494
0.000760019
0.000760935
0.00076333
0.000767278
0.000772835
0.000780029
0.000788861
0.000799293
0.00081124
0.000824561
0.000839055
0.000854452
0.000870419
0.000886569
0.000902508
0.00091793
0.00144695
0.00144445
0.00103834
0.00143891
0.00103701
0.00143036
0.00103628
0.00141888
0.00103613
0.00140457
0.00103652
0.00138752
0.00103742
0.00136789
0.00103881
0.00134583
0.00104065
0.00132151
0.0010429
0.00129529
0.00104552
0.00126748
0.00104847
0.00123793
0.00105172
0.00120683
0.00105522
0.0011744
0.00105893
0.00114085
0.00106282
0.00110637
0.00106683
0.00107116
0.00107094
0.00103541
0.0010751
0.000999315
0.00107929
0.000963037
0.00108347
0.000926741
0.00108761
0.000890577
0.00109167
0.000854685
0.00109564
0.000819189
0.0010995
0.000784203
0.00110321
0.000749827
0.00110676
0.00071615
0.00111013
0.000683247
0.00111331
0.000651184
0.00111628
0.000630473
0.00111904
0.00102026
0.00112087
0.000987375
0.000823942
0.000942953
0.000805821
0.000900441
0.000803399
0.000859119
0.000801671
0.000818204
0.000800246
0.000777313
0.000798663
0.000736586
0.00079656
0.000696515
0.000793836
0.000657665
0.000790639
0.000620482
0.000787232
0.000585218
0.000783866
0.000551949
0.000780706
0.000520632
0.000777818
0.000518512
0.000775183
0.000519082
0.000781968
0.000519904
0.000789346
0.000520922
0.000797162
0.000522037
0.000805258
0.000523154
0.000813466
0.000524202
0.00082163
0.000525146
0.000829618
0.000525989
0.000837345
0.000526767
0.000844769
0.000527539
0.00085189
0.00052837
0.000858735
0.000529318
0.000865342
0.000530611
0.000871744
0.000532223
0.000877951
0.000534015
0.000883948
0.000535959
0.000889694
0.000538014
0.000895129
0.000540151
0.000900187
0.000542352
0.000904795
0.000544612
0.000908901
0.000546937
0.000912475
0.000549341
0.000915498
0.00055184
0.00091796
0.000554446
0.000919857
0.000557166
0.000921179
0.000559996
0.000921913
0.000562931
0.000922037
0.000565961
0.000921531
0.000569082
0.000920375
0.000572287
0.000918556
0.000575577
0.000916067
0.000578951
0.000912913
0.000582409
0.000909103
0.000585951
0.000904653
0.000589579
0.000899584
0.000593291
0.000893923
0.000597088
0.000887701
0.000600968
0.000880955
0.000604934
0.000873728
0.000608984
0.000866068
0.000613121
0.000858029
0.000617346
0.000849671
0.000621661
0.000841058
0.000626066
0.000832258
0.000630564
0.000823343
0.000635157
0.000814391
0.000639847
0.000805482
0.000644637
0.000796701
0.000649528
0.000788133
0.000654524
0.000779871
0.000659628
0.000772005
0.000664845
0.000764631
0.000670178
0.000757844
0.000675634
0.000751741
0.00068122
0.000746419
0.000686943
0.000741976
0.000692815
0.000738508
0.00069885
0.000736113
0.000705064
0.000734885
0.000711478
0.00073492
0.000718121
0.000736309
0.000725022
0.000739141
0.000732222
0.000743501
0.000739761
0.000749463
0.000747686
0.000757089
0.000756043
0.000766418
0.000764874
0.000777458
0.000774212
0.000790175
0.000784084
0.000804484
0.000794516
0.000820249
0.000805565
0.000837299
0.000817416
0.000855492
0.000869813
0.000874869
0.00144822
0.00144528
0.00104484
0.00143931
0.00104663
0.00143035
0.00104898
0.00141848
0.00105187
0.00140379
0.00105526
0.0013864
0.00105914
0.00136751
0.00106347
0.00134639
0.00106821
0.00132293
0.00107333
0.00129731
0.00107879
0.00126971
0.00108454
0.00124035
0.00109054
0.00120941
0.00109674
0.00117711
0.00110311
0.00114365
0.0011096
0.00110924
0.00111616
0.00107407
0.00112276
0.00103835
0.00112935
0.00100224
0.0011359
0.00096594
0.00114237
0.000929597
0.00114873
0.000893368
0.00115495
0.000857392
0.00116099
0.000821797
0.00116685
0.000786698
0.00117248
0.000752197
0.00117787
0.000718383
0.00118301
0.000685334
0.00118788
0.000653115
0.00119246
0.000632228
0.00119689
0.00102206
0.00120087
0.000988185
0.000890686
0.000942473
0.000874307
0.000900029
0.000875054
0.000858773
0.000875778
0.000817922
0.000876253
0.000777092
0.0008763
0.000736424
0.000875788
0.00069641
0.000874669
0.000657617
0.000872989
0.00062049
0.000870867
0.000585281
0.000868449
0.000552066
0.000865881
0.000520803
0.000863279
0.000521061
0.00086073
0.000521706
0.000866959
0.00052259
0.000873576
0.000523655
0.000880526
0.000524804
0.000887751
0.000525941
0.000895168
0.000526994
0.000902682
0.000527929
0.000910198
0.000528749
0.000917628
0.000529491
0.000924902
0.000530213
0.000931963
0.000530982
0.000938778
0.000531857
0.000945325
0.000532878
0.000951593
0.000534063
0.000957573
0.000535405
0.00096325
0.000536884
0.000968599
0.000538463
0.000973579
0.000540112
0.000978137
0.000541813
0.000982222
0.000543557
0.000985772
0.00054597
0.000988731
0.000548504
0.000991047
0.000551137
0.000992683
0.00055388
0.000993611
0.000556738
0.000993818
0.000559709
0.000993295
0.000562784
0.000992039
0.000565956
0.000990048
0.000569217
0.00098732
0.000572561
0.000983853
0.000575985
0.000979646
0.00057949
0.000974704
0.000583074
0.00096904
0.000586737
0.000962675
0.000590477
0.000955638
0.000594404
0.000947965
0.00059852
0.000939701
0.000602714
0.000930893
0.000606984
0.000921596
0.000611328
0.000911867
0.000615747
0.000901769
0.000620238
0.000891368
0.000624803
0.000880734
0.000629441
0.000869944
0.000634154
0.000859074
0.000638943
0.000848205
0.000643811
0.000837423
0.00064876
0.000826812
0.000653794
0.000816462
0.000658917
0.000806462
0.000664134
0.000796905
0.000669451
0.000787883
0.000674876
0.000779488
0.000680416
0.000771814
0.000686082
0.000764952
0.000691886
0.000758994
0.000697843
0.000754029
0.00070397
0.000750144
0.000710289
0.000747427
0.000716827
0.00074596
0.000723617
0.000745827
0.000730702
0.000747109
0.000738133
0.000749887
0.000745973
0.000754239
0.000754297
0.000760246
0.000763193
0.000767984
0.000772747
0.000777524
0.000783025
0.000788919
0.000794028
0.00080218
0.000805645
0.00081723
0.000817676
0.000833861
0.000830091
0.000851764
0.000880437
0.000870836
0.00144723
0.00144388
0.00105298
0.0014375
0.00105784
0.00142816
0.00106322
0.00141756
0.00106911
0.00140475
0.00107547
0.00138914
0.00108228
0.00137083
0.00108951
0.00134999
0.00109712
0.00132678
0.00110507
0.00130137
0.00111333
0.00127395
0.00112183
0.00124473
0.00113055
0.00121392
0.00113943
0.0011817
0.00114842
0.0011483
0.00115748
0.00111392
0.00116655
0.00107875
0.00117561
0.001043
0.0011846
0.00100685
0.00119348
0.000970463
0.00120222
0.00093402
0.00121077
0.00089767
0.00121911
0.000861556
0.00122721
0.000825806
0.00123503
0.000790537
0.00124257
0.000755853
0.00124978
0.000721845
0.00125666
0.000688592
0.00126319
0.000656161
0.00126936
0.000624525
0.00127518
0.00102103
0.00128059
0.000988543
0.000953071
0.000941767
0.000936259
0.000896557
0.000938369
0.000852832
0.0009402
0.000810454
0.000941603
0.000769313
0.000942456
0.000729374
0.000942658
0.000690688
0.000942171
0.000653363
0.00094103
0.000617523
0.000939338
0.000583268
0.000937231
0.000550653
0.000934846
0.000519686
0.000932293
0.000518704
0.000929646
0.000519084
0.000934786
0.000519664
0.000940308
0.000520401
0.000946181
0.000521249
0.000952344
0.000522162
0.000958715
0.000523095
0.0009652
0.000524012
0.000971697
0.00052489
0.000978112
0.000525722
0.000984363
0.000526517
0.000990388
0.000527298
0.000996144
0.000528095
0.00100161
0.00052894
0.00100677
0.000529866
0.00101164
0.000530896
0.00101619
0.000532891
0.00102043
0.000535203
0.00102431
0.000537667
0.00102781
0.000540262
0.00103088
0.000542971
0.00103344
0.000545777
0.00103545
0.000548673
0.00103686
0.000551657
0.00103762
0.000554733
0.00103771
0.000557908
0.00103711
0.000561189
0.00103582
0.000564578
0.00103382
0.000568075
0.00103111
0.000571675
0.00102769
0.00057537
0.00102355
0.000579152
0.00101869
0.000583013
0.0010131
0.000586949
0.00100679
0.000590955
0.000999783
0.000595031
0.000992097
0.000599175
0.000983766
0.000603387
0.000974833
0.000607665
0.000965343
0.000612007
0.000955347
0.000616413
0.000944903
0.000620881
0.00093407
0.000625411
0.000922915
0.000630004
0.000911508
0.00063466
0.000899923
0.000639382
0.00088824
0.000644171
0.000876539
0.000649032
0.000864906
0.000653969
0.000853428
0.000658986
0.000842195
0.000664089
0.000831297
0.000669286
0.000820827
0.000674585
0.000810878
0.000679995
0.000801544
0.000685529
0.000792917
0.000691198
0.000785089
0.000697019
0.000778151
0.000703009
0.00077219
0.000709189
0.000767294
0.000715584
0.000763546
0.000722226
0.000761028
0.00072915
0.00075982
0.000736405
0.000760004
0.000744047
0.000761658
0.000752149
0.000764866
0.000760802
0.000769714
0.000770118
0.000776295
0.000780227
0.000784708
0.000791259
0.000795055
0.000803277
0.000807423
0.00081615
0.000821814
0.000829421
0.000838017
0.000842587
0.000855468
0.000888832
0.000873548
0.00144401
0.00144151
0.00106275
0.00143809
0.00107063
0.00143159
0.001079
0.00142207
0.00108783
0.00140959
0.00109711
0.00139428
0.00110681
0.00137625
0.0011169
0.00135566
0.00112734
0.00133266
0.00113808
0.00130744
0.00114909
0.00128018
0.00116032
0.00125108
0.00117171
0.00122034
0.00118322
0.00118818
0.00119479
0.0011548
0.00120639
0.0011204
0.00121795
0.00108519
0.00122942
0.00104936
0.00124078
0.0010131
0.00125196
0.000976592
0.00126292
0.000939996
0.00127364
0.000903473
0.00128408
0.000867165
0.00129419
0.000831204
0.00130397
0.000795709
0.00131337
0.000760785
0.00132238
0.000726525
0.00133098
0.000693011
0.00133915
0.000660312
0.00134688
0.000628597
0.00135417
0.00102216
0.00136099
0.000991082
0.00100948
0.000945317
0.000990993
0.000901122
0.000992717
0.000858261
0.000994473
0.00081642
0.000996032
0.000775408
0.000997146
0.000735229
0.000997599
0.000696052
0.000997295
0.000658132
0.000996275
0.00062171
0.000994689
0.000586962
0.000992725
0.000553975
0.000990552
0.000522756
0.00098829
0.000519397
0.000985994
0.000519821
0.000990645
0.000520426
0.000995763
0.000521178
0.00100129
0.000522043
0.00100712
0.000522975
0.00101314
0.000523931
0.00101923
0.00052487
0.00102525
0.000525763
0.00103111
0.000526598
0.0010367
0.000527376
0.00104198
0.000528115
0.00104692
0.000528843
0.00105152
0.000529594
0.00105579
0.00053082
0.00105976
0.000532901
0.00106344
0.000535173
0.00106682
0.000537623
0.00106988
0.000540232
0.00107256
0.000542975
0.00107482
0.000545831
0.00107658
0.000548784
0.00107778
0.000551828
0.00107838
0.000554965
0.00107833
0.000558202
0.00107762
0.000561547
0.00107624
0.000565005
0.00107417
0.000568578
0.00107142
0.000572263
0.00106798
0.000576053
0.00106384
0.000579936
0.00105899
0.000583903
0.00105343
0.000587944
0.00104715
0.000592053
0.00104017
0.000596226
0.00103249
0.000600459
0.00102415
0.00060475
0.00101517
0.000609095
0.00100559
0.000613492
0.000995467
0.000617937
0.000984841
0.000622429
0.000973768
0.000626966
0.000962308
0.000631546
0.000950525
0.00063617
0.000938488
0.00064084
0.00092627
0.000645558
0.000913948
0.000650329
0.000901603
0.000655157
0.00088932
0.000660047
0.000877183
0.000665008
0.000865283
0.000670048
0.000853708
0.000675178
0.000842552
0.000680409
0.000831906
0.000685755
0.000821862
0.000691231
0.000812514
0.000696855
0.00080395
0.000702646
0.000796261
0.000708626
0.000789534
0.00071482
0.000783852
0.000721258
0.000779299
0.000727974
0.000775953
0.00073501
0.000773894
0.000742415
0.000773198
0.000750252
0.000773945
0.0007586
0.000776217
0.000767557
0.000780102
0.00077725
0.000785696
0.00078784
0.000793112
0.000799513
0.000802478
0.000812425
0.000813935
0.000826533
0.000827577
0.000841263
0.000843276
0.000855565
0.000860338
0.00089782
0.00087755
0.00144709
0.00144715
0.00107416
0.00144408
0.00108501
0.00143792
0.0010963
0.00142871
0.00110804
0.00141655
0.00112019
0.00140151
0.00113272
0.00138374
0.00114562
0.00136337
0.00115883
0.00134057
0.00117232
0.0013155
0.00118604
0.00128837
0.00119994
0.00125935
0.00121397
0.00122867
0.00122807
0.00119652
0.00124218
0.00116312
0.00125627
0.00112866
0.00127027
0.00109336
0.00128413
0.00105741
0.00129781
0.001021
0.00131125
0.000984311
0.00132441
0.000947511
0.00133726
0.00091076
0.00134975
0.000874204
0.00136185
0.000837977
0.00137354
0.000802199
0.00138478
0.000766979
0.00139556
0.000732412
0.00140584
0.00069858
0.00141563
0.000665556
0.0014249
0.00063351
0.00143364
0.00102251
0.00144185
0.000992222
0.00107351
0.000946213
0.00105409
0.000901732
0.00105704
0.000858616
0.0010598
0.000816619
0.00106216
0.000775581
0.00106394
0.000735493
0.00106496
0.000696486
0.00106515
0.000658767
0.00106456
0.000622543
0.00106332
0.000587967
0.00106161
0.00055512
0.00105963
0.000524011
0.00105751
0.000521338
0.00105533
0.000521826
0.00105936
0.000522473
0.00106377
0.000523269
0.00106855
0.000524168
0.0010736
0.000525115
0.00107882
0.000526053
0.0010841
0.000526937
0.00108932
0.000527736
0.00109437
0.00052844
0.00109917
0.00052906
0.00110366
0.000529624
0.00110782
0.00053017
0.00111162
0.000530738
0.00111509
0.000531853
0.00111822
0.000534064
0.00112103
0.000536474
0.00112349
0.000539073
0.0011256
0.000541843
0.0011273
0.000544763
0.00112854
0.000547808
0.00112926
0.000550965
0.0011294
0.000554223
0.00112892
0.000557582
0.00112777
0.000561047
0.00112594
0.000564624
0.00112341
0.000568319
0.00112019
0.000572133
0.00111628
0.000576061
0.00111168
0.000580095
0.00110638
0.000584222
0.00110039
0.000588432
0.00109368
0.000592712
0.00108628
0.000597055
0.00107819
0.000601453
0.00106942
0.000605902
0.00106
0.000610395
0.00104997
0.00061493
0.00103937
0.0006195
0.00102824
0.000624101
0.00101663
0.000628729
0.00100461
0.000633381
0.000992219
0.000638055
0.00097953
0.00064275
0.000966611
0.000647468
0.000953531
0.000652212
0.000940367
0.000656987
0.000927198
0.000661798
0.000914106
0.000666654
0.000901176
0.000671565
0.000888493
0.000676541
0.000876148
0.000681598
0.000864228
0.000686751
0.000852825
0.000692018
0.00084203
0.000697418
0.00083193
0.000702976
0.000822616
0.000708714
0.000814174
0.000714661
0.000806688
0.000720848
0.000800239
0.000727308
0.000794907
0.000734081
0.000790768
0.000741213
0.000787898
0.00074876
0.000786369
0.000756786
0.000786258
0.000765376
0.000787643
0.000774635
0.000790611
0.000784699
0.000795256
0.000795747
0.000801696
0.000808009
0.000810072
0.00082173
0.000820558
0.000837004
0.000833329
0.000853285
0.000848382
0.00086905
0.000865041
0.000907958
0.000881583
0.00145458
0.00145496
0.00108721
0.00145222
0.00110097
0.00144638
0.00111514
0.00143747
0.00112971
0.00142559
0.00114467
0.00141082
0.00115999
0.00139328
0.00117564
0.00137311
0.00119158
0.00135047
0.00120776
0.00132554
0.00122414
0.0012985
0.00124066
0.00126954
0.00125727
0.00123887
0.00127391
0.0012067
0.00129053
0.00117324
0.00130706
0.00113868
0.00132345
0.00110325
0.00133965
0.00106713
0.00135561
0.00103052
0.00137127
0.000993604
0.00138659
0.000956548
0.00140152
0.000919517
0.00141604
0.000882659
0.00143009
0.00084611
0.00144365
0.000809995
0.0014567
0.000774422
0.00146921
0.000739491
0.00148115
0.000705286
0.00149252
0.00067188
0.0015033
0.000639335
0.00151348
0.00102276
0.00152305
0.000993872
0.00113457
0.000948268
0.00111342
0.000904148
0.00111684
0.000861305
0.00112012
0.000819454
0.00112303
0.000778426
0.00112532
0.000738239
0.00112679
0.000699071
0.00112736
0.000661174
0.00112707
0.000624791
0.00112608
0.000590093
0.0011246
0.000557163
0.00112283
0.000526006
0.0011209
0.000521843
0.00111889
0.000522349
0.00112221
0.000523001
0.00112594
0.00052377
0.00113005
0.000524614
0.00113443
0.000525486
0.00113896
0.000526338
0.00114352
0.00052713
0.00114798
0.000527834
0.00115224
0.000528442
0.0011562
0.00052896
0.00115981
0.000529413
0.00116306
0.000529976
0.00116595
0.000531925
0.00116848
0.000534064
0.0011707
0.000536412
0.0011726
0.000538968
0.00117418
0.000541722
0.00117542
0.000544651
0.00117626
0.000547732
0.00117664
0.000550942
0.00117651
0.000554265
0.0011758
0.000557694
0.00117446
0.00056123
0.00117245
0.000564877
0.00116977
0.000568643
0.0011664
0.000572533
0.00116233
0.000576546
0.00115758
0.000580676
0.00115213
0.000584913
0.00114598
0.000589245
0.00113913
0.000593659
0.00113158
0.000598141
0.00112332
0.000602682
0.00111436
0.000607275
0.00110473
0.000611911
0.00109445
0.000616585
0.00108356
0.000621289
0.00107211
0.000626016
0.00106013
0.00063076
0.00104768
0.000635515
0.00103481
0.000640275
0.00102159
0.000645038
0.00100808
0.000649802
0.000994342
0.000654567
0.000980454
0.000659337
0.000966491
0.000664116
0.000952531
0.00066891
0.000938655
0.000673729
0.000924949
0.000678586
0.000911498
0.000683494
0.000898389
0.00068847
0.000885712
0.000693535
0.000873557
0.000698711
0.000862011
0.000704024
0.000851163
0.0007095
0.0008411
0.000715171
0.000831907
0.00072107
0.000823666
0.000727233
0.000816455
0.000733702
0.000810352
0.00074052
0.000805428
0.000747741
0.000801756
0.000755423
0.000799406
0.000763638
0.000798449
0.000772474
0.000798961
0.000782041
0.000801022
0.000792482
0.000804727
0.00080399
0.00081019
0.000816823
0.000817559
0.000831302
0.000827028
0.000847664
0.000838835
0.000865498
0.000853109
0.000882949
0.000869287
0.000919255
0.000885303
0.00146423
0.00146492
0.00110193
0.00146248
0.00111852
0.00145693
0.0011355
0.00144831
0.00115285
0.00143669
0.00117056
0.00142216
0.0011886
0.00140483
0.00120695
0.00138484
0.00122555
0.00136235
0.00124437
0.00133752
0.00126335
0.00131055
0.00128244
0.00128162
0.00130158
0.00125093
0.00132071
0.0012187
0.00133977
0.00118514
0.00135869
0.00115045
0.00137743
0.00111484
0.00139592
0.0010785
0.00141411
0.00104165
0.00143195
0.00100445
0.00144938
0.000967089
0.00146636
0.000929725
0.00148284
0.000892512
0.00149881
0.000855587
0.00151421
0.000819079
0.00152902
0.000783099
0.00154322
0.000747749
0.00155679
0.000713115
0.00156971
0.000679273
0.00158196
0.000646286
0.00159355
0.0010228
0.00160445
0.000995418
0.00119757
0.000950015
0.00117435
0.000906062
0.00117844
0.00086333
0.00118237
0.000821519
0.00118586
0.00078047
0.00118866
0.000740221
0.00119057
0.000700976
0.0011915
0.000663011
0.0011915
0.000626582
0.00119076
0.000591864
0.00118949
0.000558939
0.0011879
0.000527804
0.00118614
0.000522682
0.00118431
0.000523246
0.001187
0.000523929
0.0011901
0.000524709
0.00119356
0.000525546
0.00119727
0.000526393
0.00120111
0.0005272
0.00120495
0.000527927
0.00120866
0.000528547
0.00121213
0.000529053
0.00121528
0.000529454
0.00121806
0.000530224
0.00122045
0.000532105
0.00122246
0.00053416
0.00122411
0.000536419
0.00122543
0.000538899
0.00122642
0.000541599
0.00122707
0.000544505
0.00122737
0.000547595
0.00122727
0.000550844
0.0012267
0.000554229
0.00122559
0.000557734
0.0012239
0.000561353
0.00122157
0.000565086
0.00121857
0.000568938
0.00121489
0.000572918
0.00121052
0.000577027
0.00120546
0.000581264
0.00119972
0.000585622
0.00119328
0.000590089
0.00118616
0.00059465
0.00117834
0.00059929
0.00116982
0.000603995
0.0011606
0.000608755
0.0011507
0.000613558
0.00114012
0.000618396
0.00112892
0.000623261
0.00111711
0.000628144
0.00110475
0.000633035
0.00109188
0.000637927
0.00107855
0.00064281
0.00106482
0.000647679
0.00105074
0.000652529
0.00103639
0.000657358
0.00102182
0.000662166
0.00100712
0.000666955
0.000992349
0.00067173
0.000977593
0.000676498
0.000962933
0.000681272
0.000948451
0.000686063
0.000934232
0.000690891
0.000920363
0.000695774
0.000906932
0.000700738
0.000894027
0.000705808
0.000881734
0.000711017
0.000870142
0.000716396
0.000859335
0.000721984
0.000849395
0.000727819
0.000840403
0.000733945
0.000832435
0.000740409
0.000825565
0.000747262
0.000819862
0.000754563
0.000815394
0.000762377
0.000812229
0.000770781
0.000810433
0.000779868
0.000810077
0.000789751
0.000811239
0.000800579
0.000814007
0.000812554
0.000818494
0.000825955
0.000824848
0.000841163
0.000833276
0.000858548
0.000844061
0.000877886
0.000857449
0.000897148
0.00087305
0.000931563
0.000888615
0.00147602
0.00147699
0.00111832
0.00147483
0.00113767
0.00146956
0.00115738
0.0014612
0.00117744
0.00144983
0.00119783
0.00143551
0.00121853
0.00141838
0.00123951
0.00139855
0.00126071
0.00137618
0.0012821
0.00135143
0.00130363
0.00132449
0.00132522
0.00129555
0.00134683
0.00126482
0.00136839
0.0012325
0.00138984
0.0011988
0.00141111
0.00116393
0.00143214
0.00112809
0.00145287
0.00109151
0.00147324
0.00105436
0.00149319
0.00101683
0.00151268
0.000979113
0.00153166
0.000941365
0.00155008
0.000903743
0.0015679
0.00086639
0.0015851
0.000829435
0.00160164
0.000792993
0.00161749
0.000757168
0.00163264
0.000722051
0.00164707
0.000687718
0.00166077
0.000654236
0.00167372
0.00102237
0.00168593
0.000996951
0.00126107
0.000951805
0.00123522
0.000908057
0.00123997
0.00086545
0.00124453
0.000823674
0.00124861
0.000782581
0.00125192
0.000742243
0.00125426
0.000702899
0.00125554
0.000664853
0.00125584
0.000628373
0.00125534
0.000593636
0.00125429
0.000560718
0.0012529
0.000529609
0.00125133
0.000523166
0.00124967
0.000523767
0.00125173
0.000524465
0.00125419
0.000525237
0.00125699
0.000526044
0.00126002
0.000526838
0.00126317
0.000527573
0.00126628
0.000528211
0.00126923
0.000528728
0.00127192
0.000529118
0.00127425
0.000530803
0.00127619
0.00053263
0.00127773
0.000534608
0.00127887
0.000536774
0.00127965
0.000539159
0.00128008
0.000541775
0.00128018
0.000544621
0.00127994
0.000547682
0.00127934
0.000550934
0.00127832
0.000554351
0.00127683
0.00055791
0.00127479
0.000561597
0.00127214
0.000565405
0.00126885
0.000569335
0.00126488
0.000573395
0.00126022
0.000577588
0.00125487
0.00058192
0.00124883
0.000586385
0.00124209
0.000590976
0.00123468
0.000595679
0.00122657
0.000600478
0.00121776
0.000605354
0.00120826
0.000610294
0.00119806
0.000615283
0.00118719
0.00062031
0.00117566
0.000625363
0.0011635
0.000630431
0.00115075
0.000635503
0.00113745
0.000640568
0.00112366
0.000645615
0.00110942
0.000650633
0.0010948
0.000655614
0.00107984
0.000660553
0.00106462
0.000665446
0.0010492
0.000670293
0.00103366
0.000675095
0.00101806
0.000679858
0.00100249
0.00068459
0.000987032
0.000689305
0.000971758
0.000694018
0.000956758
0.000698748
0.000942117
0.000703522
0.000927921
0.000708365
0.000914258
0.000713312
0.000901213
0.000718396
0.000888871
0.00072366
0.000877315
0.000729144
0.000866626
0.000734897
0.000856882
0.000740967
0.000848156
0.000747411
0.000840519
0.000754285
0.000834037
0.000761656
0.000828776
0.000769595
0.000824798
0.000778185
0.000822166
0.000787522
0.000820948
0.000797726
0.000821215
0.00080895
0.000823052
0.0008214
0.000826567
0.000835373
0.000831906
0.000851291
0.000839284
0.000869644
0.000849013
0.000890416
0.000861442
0.000911538
0.000876371
0.000944692
0.000891507
0.0014899
0.00149113
0.00113639
0.00148923
0.00115843
0.00148421
0.0011808
0.0014761
0.00120349
0.00146495
0.00122649
0.00145084
0.00124978
0.00143388
0.00127331
0.00141419
0.00129705
0.00139191
0.00132094
0.00136722
0.00134494
0.0013403
0.00136898
0.00131132
0.001393
0.00128051
0.00141692
0.00124806
0.00144069
0.00121418
0.00146424
0.0011791
0.0014875
0.001143
0.00151041
0.00110611
0.0015329
0.00106862
0.00155492
0.00103072
0.00157642
0.000992598
0.00159734
0.000954415
0.00161764
0.000916333
0.00163728
0.000878498
0.00165622
0.000841042
0.00167444
0.000804085
0.00169191
0.000767732
0.0017086
0.000732077
0.0017245
0.0006972
0.0017396
0.000663169
0.00175388
0.00102157
0.00176735
0.000998555
0.00132509
0.000953709
0.00129591
0.000910196
0.00130126
0.000867724
0.00130642
0.00082597
0.00131104
0.000784807
0.00131483
0.000744349
0.00131756
0.00070488
0.00131915
0.000666735
0.00131969
0.000630196
0.00131941
0.000595442
0.00131856
0.000562538
0.00131736
0.000531466
0.00131598
0.000523429
0.00131451
0.000524062
0.00131595
0.000524771
0.00131778
0.000525529
0.00131994
0.0005263
0.00132232
0.000527037
0.00132478
0.000527696
0.00132717
0.000528384
0.00132937
0.000530034
0.00133127
0.00053174
0.00133278
0.000533528
0.00133388
0.000535437
0.00133456
0.000537512
0.00133484
0.00053979
0.00133474
0.000542302
0.0013343
0.000545058
0.00133352
0.000548054
0.00133241
0.000551272
0.00133092
0.000554689
0.00132901
0.000558276
0.00132661
0.000562012
0.00132365
0.000565883
0.00132008
0.000569884
0.00131585
0.000574016
0.00131093
0.000578286
0.00130531
0.0005827
0.001299
0.00058726
0.00129199
0.000591961
0.00128429
0.000596792
0.00127591
0.000601739
0.00126683
0.000606782
0.00125705
0.000611903
0.00124658
0.000617086
0.00123542
0.000622314
0.00122358
0.000627572
0.00121109
0.000632849
0.00119798
0.000638129
0.00118429
0.000643399
0.00117006
0.000648645
0.00115535
0.000653854
0.0011402
0.000659011
0.00112468
0.000664109
0.00110884
0.000669138
0.00109274
0.000674095
0.00107646
0.000678977
0.00106007
0.000683786
0.00104363
0.000688529
0.00102724
0.000693214
0.00101096
0.000697857
0.000994886
0.000702474
0.000979093
0.000707091
0.000963668
0.000711734
0.000948698
0.000716437
0.000934267
0.000721236
0.000920459
0.000726175
0.000907359
0.000731298
0.000895048
0.000736656
0.000883604
0.000742303
0.000873102
0.000748297
0.000863614
0.0007547
0.000855207
0.000761578
0.000847945
0.000769003
0.00084189
0.000777055
0.0008371
0.000785822
0.000833635
0.000795406
0.000831556
0.00080593
0.000830933
0.000817551
0.000831845
0.000830481
0.000834394
0.000845026
0.000838724
0.00086164
0.000845051
0.000880914
0.000853711
0.000903043
0.000865132
0.000926018
0.000879306
0.000958443
0.000894001
0.00150583
0.00150729
0.00115617
0.00150564
0.00118081
0.00150086
0.00120576
0.00149298
0.001231
0.00148204
0.00125653
0.00146811
0.00128232
0.0014513
0.00130833
0.00143173
0.00133453
0.00140953
0.00136085
0.00138487
0.00138725
0.00135793
0.00141366
0.0013289
0.00144001
0.00129797
0.00146624
0.00126536
0.00149227
0.00123127
0.00151803
0.00119593
0.00154346
0.00115953
0.00156848
0.0011223
0.00159303
0.00108442
0.00161706
0.0010461
0.00164051
0.00100752
0.00166331
0.000968852
0.00168544
0.000930259
0.00170684
0.000891889
0.00172748
0.00085388
0.00174732
0.000816354
0.00176635
0.00077942
0.00178453
0.000743174
0.00180186
0.000707699
0.00181832
0.000673067
0.0018339
0.00102035
0.0018486
0.00100025
0.00138988
0.000955722
0.00135655
0.00091244
0.00136249
0.00087008
0.00136821
0.000828309
0.00137335
0.000787037
0.00137757
0.000746429
0.00138065
0.000706819
0.0013825
0.000668573
0.00138326
0.000631986
0.00138317
0.00059723
0.0013825
0.00056436
0.0013815
0.000533342
0.00138032
0.000523499
0.00137904
0.000524165
0.00137988
0.000524883
0.00138111
0.000525628
0.00138265
0.00052659
0.00138438
0.000528058
0.00138616
0.000529635
0.00138783
0.000531281
0.00138927
0.00053298
0.00139037
0.000534742
0.00139106
0.000536598
0.00139132
0.00053859
0.00139113
0.000540764
0.00139054
0.00054316
0.00138957
0.000545804
0.00138826
0.000548705
0.00138662
0.000551857
0.00138464
0.00055524
0.00138227
0.000558826
0.00137947
0.000562589
0.00137617
0.000566508
0.0013723
0.000570569
0.00136779
0.000574769
0.00136262
0.00057911
0.00135675
0.000583601
0.00135018
0.000588246
0.0013429
0.000593045
0.00133493
0.000597992
0.00132627
0.000603076
0.00131692
0.000608279
0.00130688
0.000613579
0.00129614
0.000618958
0.0012847
0.000624395
0.00127258
0.000629873
0.00125978
0.000635375
0.00124634
0.000640886
0.00123228
0.000646388
0.00121765
0.000651865
0.00120249
0.000657299
0.00118686
0.000662675
0.0011708
0.000667978
0.00115438
0.000673194
0.00113765
0.000678314
0.00112068
0.000683332
0.00110354
0.000688246
0.00108629
0.000693056
0.00106901
0.00069777
0.00105179
0.000702397
0.00103469
0.000706953
0.00101781
0.000711459
0.00100122
0.000715943
0.000985004
0.000720435
0.000969252
0.000724974
0.000954046
0.000729603
0.00093947
0.000734369
0.000925606
0.000739326
0.000912533
0.000744532
0.000900328
0.000750047
0.000889063
0.000755939
0.000878809
0.000762276
0.000869628
0.000769135
0.000861584
0.000776594
0.000854732
0.000784741
0.00084913
0.00079367
0.000844832
0.000803489
0.000841897
0.000814327
0.000840388
0.000826341
0.00084038
0.000839748
0.000841971
0.000854859
0.0008453
0.000872155
0.000850583
0.000892308
0.000858169
0.000915712
0.000868554
0.000940497
0.000881907
0.000972627
0.000896131
0.00152375
0.00152543
0.00117768
0.001524
0.00120483
0.00151945
0.00123226
0.00151178
0.00125996
0.00150104
0.00128793
0.00148728
0.00131614
0.00147061
0.00134456
0.00145113
0.00137313
0.00142899
0.00140181
0.00140435
0.00143053
0.00137736
0.00145923
0.00134824
0.00148785
0.00131717
0.0015163
0.00128436
0.00154451
0.00125003
0.00157241
0.00121439
0.00159993
0.00117765
0.001627
0.00114003
0.00165355
0.00110172
0.00167952
0.00106293
0.00170485
0.00102385
0.00172948
0.000984648
0.00175337
0.000945493
0.00177647