/*--------------------------------*- C++ -*----------------------------------*\
| =========                 |                                                 |
| \\      /  F ield         | OpenFOAM: The Open Source CFD Toolbox           |
|  \\    /   O peration     | Version:  2.2.x                                 |
|   \\  /    A nd           | Web:      www.OpenFOAM.org                      |
|    \\/     M anipulation  |                                                 |
\*---------------------------------------------------------------------------*/
FoamFile
{
    version     2.0;
    format      ascii;
    class       volVectorField;
    location    "0.09";
    object      U;
}
// * * * * * * * * * * * * * * * * * * * * * * * * * * * * * * * * * * * * * //

dimensions      [0 1 -1 0 0 0 0];

internalField   nonuniform List<vector> 
1024
(
(0 0 0)
(0 0 0)
(0 0 0)
(0 0 0)
(0 0 0)
(0 0 0)
(0 0 0)
(0 0 0)
(0 0 0)
(0 0 0)
(0 0 0)
(0 0 0)
(0 0 0)
(0 0 0)
(0 0 0)
(0 0 0)
(0 0 0)
(0 0 0)
(0 0 0)
(0 0 0)
(0 0 0)
(0 0 0)
(0 0 0)
(0 0 0)
(0 0 0)
(0 0 0)
(0 0 0)
(0 0 0)
(0 0 0)
(0 0 0)
(0 0 0)
(0 0 0)
(0 0 0)
(0 0 0)
(0 0 0)
(0 0 0)
(0 0 0)
(0 0 0)
(0 0 0)
(0 0 0)
(0 0 0)
(0 0 0)
(0 0 0)
(0 0 0)
(0 0 0)
(0 0 0)
(0 0 0)
(0 0 0)
(0 0 0)
(0 0 0)
(0 0 0)
(0 0 0)
(0 0 0)
(0 0 0)
(0 0 0)
(0 0 0)
(0 0 0)
(0 0 0)
(0 0 0)
(0 0 0)
(0 0 0)
(0 0 0)
(0 0 0)
(0 0 0)
(0 0 0)
(0 0 0)
(0 0 0)
(0 0 0)
(0 0 0)
(0 0 0)
(0 0 0)
(0 0 0)
(0 0 0)
(0 0 0)
(0 0 0)
(0 0 0)
(0 0 0)
(0 0 0)
(0 0 0)
(0 0 0)
(0 0 0)
(0 0 0)
(0 0 0)
(0 0 0)
(0 0 0)
(0 0 0)
(0 0 0)
(0 0 0)
(0 0 0)
(0 0 0)
(0 0 0)
(0 0 0)
(0 0 0)
(0 0 0)
(0 0 0)
(0 0 0)
(0 0 0)
(0 0 0)
(0 0 0)
(0 0 0)
(0 0 0)
(0 0 0)
(0 0 0)
(0 0 0)
(0 0 0)
(0 0 0)
(0 0 0)
(0 0 0)
(0 0 0)
(0 0 0)
(0 0 0)
(-3.92384e-16 0 0)
(-4.58649e-15 0 0)
(-2.90364e-14 -8.18692e-16 0)
(-6.59794e-14 -1.29498e-14 0)
(-1.30104e-13 -5.86145e-14 0)
(-2.06333e-13 -1.08126e-13 0)
(-3.37224e-13 -1.84029e-13 0)
(-5.91118e-13 -3.45652e-13 0)
(-1.08578e-12 -6.3235e-13 0)
(-2.01804e-12 -1.18569e-12 0)
(-3.74838e-12 -2.23092e-12 0)
(-6.91932e-12 -4.21129e-12 0)
(-1.2709e-11 -7.86245e-12 0)
(-2.32961e-11 -1.43661e-11 0)
(-4.23636e-11 -2.61629e-11 0)
(-7.63075e-11 -4.71452e-11 0)
(-1.36303e-10 -8.45483e-11 0)
(-2.41908e-10 -1.50088e-10 0)
(-4.25824e-10 -2.65482e-10 0)
(-7.44873e-10 -4.64008e-10 0)
(-1.29322e-09 -8.08674e-10 0)
(-2.23038e-09 -1.39528e-09 0)
(-3.82042e-09 -2.3954e-09 0)
(-6.50029e-09 -4.08163e-09 0)
(-1.09879e-08 -6.90979e-09 0)
(-1.84501e-08 -1.16237e-08 0)
(-3.07803e-08 -1.94174e-08 0)
(-5.10123e-08 -3.22379e-08 0)
(-8.39924e-08 -5.31554e-08 0)
(-1.37385e-07 -8.7087e-08 0)
(-2.23233e-07 -1.41722e-07 0)
(-3.60311e-07 -2.29103e-07 0)
(-5.77652e-07 -3.67877e-07 0)
(-9.19808e-07 -5.86691e-07 0)
(-1.45457e-06 -9.29242e-07 0)
(-2.2842e-06 -1.46156e-06 0)
(-3.56171e-06 -2.28259e-06 0)
(-5.51386e-06 -3.53932e-06 0)
(-8.47372e-06 -5.44801e-06 0)
(-1.29258e-05 -8.32385e-06 0)
(-1.95679e-05 -1.26219e-05 0)
(-2.93947e-05 -1.89917e-05 0)
(-4.38085e-05 -2.83519e-05 0)
(-6.47647e-05 -4.19845e-05 0)
(-9.49563e-05 -6.16625e-05 0)
(-0.000138048 -8.97993e-05 0)
(-0.000198957 -0.000129648 0)
(-0.000284195 -0.000185521 0)
(-0.00040225 -0.000263058 0)
(-0.000564007 -0.00036952 0)
(-0.000783202 -0.00051407 0)
(-0.00107681 -0.000708134 0)
(-0.00146544 -0.000965506 0)
(-0.00197347 -0.0013028 0)
(-0.00262922 -0.001739 0)
(-0.00346439 -0.00229607 0)
(-0.00451385 -0.00299738 0)
(-0.00581404 -0.00386883 0)
(-0.00740235 -0.0049353 0)
(-0.00931422 -0.00622312 0)
(-0.0115827 -0.00775367 0)
(-0.0142341 -0.00954873 0)
(-0.0172891 -0.01162 0)
(-0.0207573 -0.0139801 0)
(-0.0246411 -0.0166259 0)
(-0.028929 -0.0195585 0)
(-0.0336039 -0.0227587 0)
(-0.0386352 -0.0262161 0)
(-0.0439878 -0.0298997 0)
(-0.0496153 -0.0337751 0)
(-0.0552902 -0.0377685 0)
(-0.0609031 -0.0415661 0)
(-0.0664571 -0.0455441 0)
(-0.0721651 -0.049372 0)
(-0.0777652 -0.0533764 0)
(-0.0836363 -0.0573859 0)
(-0.0896745 -0.0615767 0)
(-0.0962947 -0.0661528 0)
(-0.102904 -0.0709828 0)
(-0.109204 -0.0747227 0)
(-0.114741 -0.0798344 0)
(-0.120629 -0.0823148 0)
(-0.124836 -0.0872142 0)
(-0.130532 -0.0894347 0)
(-0.134741 -0.0941612 0)
(-0.140633 -0.0969245 0)
(-0.145263 -0.101532 0)
(-0.151176 -0.104757 0)
(-0.15625 -0.109345 0)
(-0.16224 -0.11284 0)
(-0.167411 -0.117381 0)
(-0.173303 -0.120925 0)
(-0.178562 -0.125431 0)
(-0.184602 -0.129229 0)
(-0.190194 -0.133761 0)
(-0.196737 -0.13813 0)
(-0.202969 -0.143075 0)
(-0.209499 -0.147093 0)
(-0.215052 -0.152437 0)
(-0.220978 -0.154934 0)
(-0.22509 -0.160121 0)
(-0.230792 -0.162105 0)
(-0.234607 -0.167131 0)
(-0.24006 -0.168959 0)
(-0.243524 -0.17383 0)
(-0.248382 -0.175116 0)
(-0.251358 -0.179686 0)
(-0.255848 -0.180885 0)
(-0.258381 -0.184858 0)
(-0.262255 -0.186146 0)
(-0.264515 -0.189205 0)
(-0.267596 -0.190126 0)
(-0.269198 -0.192934 0)
(-0.27142 -0.193177 0)
(-0.272552 -0.195214 0)
(-0.274207 -0.195558 0)
(-0.27471 -0.19672 0)
(-0.275704 -0.197156 0)
(-0.276137 -0.197669 0)
(-0.276649 -0.19805 0)
(-0.27684 -0.198158 0)
(-0.277007 -0.198358 0)
(-0.276986 -0.198577 0)
(-0.277005 -0.19857 0)
(-0.276903 -0.198685 0)
(-0.2767 -0.19836 0)
(-0.276571 -0.198077 0)
(-0.275994 -0.197494 0)
(-0.275292 -0.197213 0)
(-0.274701 -0.196669 0)
(-0.274115 -0.196273 0)
(-0.27362 -0.195739 0)
(-0.273049 -0.195491 0)
(-0.272485 -0.195274 0)
(-0.272237 -0.194645 0)
(-0.27172 -0.194467 0)
(-0.27141 -0.19409 0)
(-0.270911 -0.194032 0)
(-0.270711 -0.193532 0)
(-0.270397 -0.193513 0)
(-0.2702 -0.193199 0)
(-0.269966 -0.193201 0)
(-0.269841 -0.19296 0)
(-0.269678 -0.192931 0)
(-0.269609 -0.192759 0)
(-0.269503 -0.192725 0)
(-0.269469 -0.192627 0)
(-0.269431 -0.192604 0)
(-0.269422 -0.192566 0)
(-0.269424 -0.192566 0)
(-0.269441 -0.192574 0)
(-0.269452 -0.192576 0)
(-0.26947 -0.192602 0)
(-0.26948 -0.192617 0)
(-0.269494 -0.192611 0)
(-0.269508 -0.192625 0)
(-0.269525 -0.192623 0)
(-0.269546 -0.192648 0)
(-0.26958 -0.192666 0)
(-0.269624 -0.192705 0)
(-0.269697 -0.192718 0)
(-0.26977 -0.192794 0)
(-0.269879 -0.192814 0)
(-0.269978 -0.192965 0)
(-0.270134 -0.193012 0)
(-0.270245 -0.193148 0)
(-0.270395 -0.19321 0)
(-0.270508 -0.193274 0)
(-0.270619 -0.193341 0)
(-0.2707 -0.193408 0)
(-0.270782 -0.193463 0)
(-0.270819 -0.193533 0)
(-0.270885 -0.193569 0)
(-0.270907 -0.193604 0)
(-0.270938 -0.193637 0)
(-0.27095 -0.193654 0)
(-0.270959 -0.193663 0)
(-0.270949 -0.193684 0)
(-0.270946 -0.193681 0)
(-0.270943 -0.193694 0)
(-0.270933 -0.1937 0)
(-0.270931 -0.193716 0)
(-0.270926 -0.193727 0)
(-0.270941 -0.193755 0)
(-0.270973 -0.193768 0)
(-0.271045 -0.193849 0)
(-0.271145 -0.193886 0)
(-0.271229 -0.193987 0)
(-0.271343 -0.194034 0)
(-0.271427 -0.194082 0)
(-0.271489 -0.194164 0)
(-0.271547 -0.194197 0)
(-0.271594 -0.19425 0)
(-0.271646 -0.194255 0)
(-0.271689 -0.194273 0)
(-0.271723 -0.194268 0)
(-0.271732 -0.194316 0)
(-0.271748 -0.194326 0)
(-0.271761 -0.19434 0)
(-0.271762 -0.194364 0)
(-0.271772 -0.19438 0)
(-0.271782 -0.194412 0)
(-0.271811 -0.194439 0)
(-0.271857 -0.194486 0)
(-0.271923 -0.194525 0)
(-0.271988 -0.19459 0)
(-0.272062 -0.194634 0)
(-0.272123 -0.194666 0)
(-0.272171 -0.194717 0)
(-0.272205 -0.194751 0)
(-0.272251 -0.194769 0)
(-0.272272 -0.194801 0)
(-0.272304 -0.19481 0)
(-0.272309 -0.194844 0)
(-0.272322 -0.19486 0)
(-0.27234 -0.194857 0)
(-0.272351 -0.194868 0)
(-0.272367 -0.194897 0)
(-0.272395 -0.1949 0)
(-0.272435 -0.194952 0)
(-0.272494 -0.194969 0)
(-0.272556 -0.195025 0)
(-0.272617 -0.195073 0)
(-0.272684 -0.195109 0)
(-0.272711 -0.195186 0)
(-0.272734 -0.195185 0)
(-0.272742 -0.195279 0)
(-0.272762 -0.195285 0)
(-0.272768 -0.195333 0)
(-0.272783 -0.195325 0)
(-0.272787 -0.19535 0)
(-0.272797 -0.195337 0)
(-0.272805 -0.195346 0)
(-0.272811 -0.195332 0)
(-0.272818 -0.195335 0)
(-0.272824 -0.195333 0)
(-0.27284 -0.195348 0)
(-0.272859 -0.195359 0)
(-0.272891 -0.195393 0)
(-0.272917 -0.195416 0)
(-0.272951 -0.195433 0)
(-0.272963 -0.195452 0)
(-0.27299 -0.195459 0)
(-0.273012 -0.195442 0)
(-0.273043 -0.19543 0)
(-0.273056 -0.195404 0)
(-0.273058 -0.195395 0)
(-0.27305 -0.195387 0)
(-0.273041 -0.195377 0)
(-0.273034 -0.195366 0)
(-0.273033 -0.195357 0)
(-0.273031 -0.195363 0)
(-0.273035 -0.195367 0)
(-0.273057 -0.195392 0)
(-0.273088 -0.195421 0)
(-0.273115 -0.195458 0)
(-0.273143 -0.195491 0)
(-0.273156 -0.195506 0)
(-0.273159 -0.195542 0)
(-0.273167 -0.195548 0)
(-0.273167 -0.195564 0)
(-0.273166 -0.195565 0)
(-0.273159 -0.195558 0)
(-0.273147 -0.195551 0)
(-0.273131 -0.195542 0)
(-0.27312 -0.195546 0)
(-0.273113 -0.195541 0)
(-0.273122 -0.195513 0)
(-0.273133 -0.195537 0)
(-0.273155 -0.195517 0)
(-0.273186 -0.195536 0)
(-0.273226 -0.195549 0)
(-0.273231 -0.195594 0)
(-0.272867 -0.195992 0)
(-0.269829 -0.199201 0)
(-0.249027 -0.230151 0)
(-0.106088 -0.49247 0)
(0.392026 -1.16252 0)
(0.549406 -1.53343 0)
(0.654187 -1.52951 0)
(0.657727 -1.61022 0)
(0.654304 -1.61586 0)
(0.652454 -1.60464 0)
(0.652363 -1.61206 0)
(0.654149 -1.60803 0)
(0.65511 -1.609 0)
(0.654619 -1.60901 0)
(0.654001 -1.609 0)
(0.653947 -1.60913 0)
(0.654055 -1.60902 0)
(0.654186 -1.60902 0)
(0.654175 -1.60905 0)
(0.654122 -1.60908 0)
(0.654135 -1.6091 0)
(0.654198 -1.60909 0)
(0.654245 -1.60909 0)
(0.654253 -1.6091 0)
(0.654239 -1.60912 0)
(0.654216 -1.60915 0)
(0.654178 -1.60917 0)
(0.654147 -1.60919 0)
(0.654111 -1.6092 0)
(0.654094 -1.60919 0)
(0.654109 -1.60917 0)
(0.654146 -1.60915 0)
(0.654188 -1.60913 0)
(0.654246 -1.6091 0)
(0.654297 -1.60909 0)
(0.65434 -1.6091 0)
(0.654359 -1.60911 0)
(0.654348 -1.60912 0)
(0.654308 -1.60913 0)
(0.654247 -1.60914 0)
(0.65419 -1.60914 0)
(0.654155 -1.60913 0)
(0.654132 -1.60911 0)
(0.654132 -1.60908 0)
(0.65414 -1.60903 0)
(0.654166 -1.60897 0)
(0.654184 -1.60893 0)
(0.654193 -1.60889 0)
(0.654204 -1.60887 0)
(0.654201 -1.60885 0)
(0.65415 -1.60885 0)
(0.65411 -1.60884 0)
(0.654062 -1.60885 0)
(0.654032 -1.60886 0)
(0.654019 -1.60887 0)
(0.654015 -1.60888 0)
(0.654042 -1.60887 0)
(0.654083 -1.6088 0)
(0.654117 -1.60877 0)
(0.654149 -1.60874 0)
(0.654171 -1.60869 0)
(0.654152 -1.60866 0)
(0.654127 -1.60863 0)
(0.654094 -1.60862 0)
(0.654047 -1.60862 0)
(0.653998 -1.60862 0)
(0.653949 -1.60864 0)
(0.653947 -1.60863 0)
(0.653949 -1.60864 0)
(0.653981 -1.60863 0)
(0.654028 -1.60863 0)
(0.654066 -1.60865 0)
(0.654065 -1.60866 0)
(0.654025 -1.60867 0)
(0.653959 -1.60868 0)
(0.653888 -1.60868 0)
(0.65386 -1.60866 0)
(0.653879 -1.60862 0)
(0.653944 -1.60856 0)
(0.654019 -1.6085 0)
(0.654063 -1.60846 0)
(0.654046 -1.60845 0)
(0.653961 -1.60847 0)
(0.653858 -1.6085 0)
(0.653779 -1.60849 0)
(0.653744 -1.60846 0)
(0.653826 -1.60839 0)
(0.653944 -1.6083 0)
(0.653979 -1.60827 0)
(0.653952 -1.60829 0)
(0.653854 -1.60836 0)
(0.653707 -1.60849 0)
(0.653642 -1.60858 0)
(0.653713 -1.6086 0)
(0.653931 -1.60853 0)
(0.654159 -1.60838 0)
(0.654232 -1.60827 0)
(0.654196 -1.60824 0)
(0.653986 -1.60836 0)
(0.653748 -1.60852 0)
(0.653629 -1.60862 0)
(0.65367 -1.60868 0)
(0.653968 -1.60863 0)
(0.654339 -1.60843 0)
(0.654457 -1.6083 0)
(0.654375 -1.60827 0)
(0.653994 -1.6084 0)
(0.653509 -1.60864 0)
(0.653294 -1.60876 0)
(0.65333 -1.60879 0)
(0.653749 -1.60873 0)
(0.654517 -1.60841 0)
(0.654979 -1.60818 0)
(0.655072 -1.60816 0)
(0.654669 -1.60834 0)
(0.6537 -1.60891 0)
(0.653103 -1.60932 0)
(0.652976 -1.60944 0)
(0.653375 -1.60938 0)
(0.654762 -1.60885 0)
(0.655809 -1.60839 0)
(0.656146 -1.60829 0)
(0.655702 -1.60848 0)
(0.65398 -1.60908 0)
(0.652586 -1.60967 0)
(0.651746 -1.61003 0)
(0.651775 -1.61007 0)
(0.653812 -1.60898 0)
(0.65566 -1.60621 0)
(0.65546 -1.60324 0)
(0.65295 -1.60052 0)
(0.648295 -1.59849 0)
(0.64342 -1.59716 0)
(0.639955 -1.59274 0)
(0.637181 -1.58527 0)
(0.635393 -1.57507 0)
(0.633314 -1.56225 0)
(0.629149 -1.54854 0)
(0.621172 -1.5368 0)
(0.610673 -1.52613 0)
(0.600317 -1.51168 0)
(0.591905 -1.49503 0)
(0.585506 -1.47848 0)
(0.582159 -1.46227 0)
(0.57877 -1.44489 0)
(0.571795 -1.42698 0)
(0.559688 -1.40621 0)
(0.545374 -1.37777 0)
(0.533552 -1.35532 0)
(0.524332 -1.33967 0)
(0.518222 -1.32419 0)
(0.508641 -1.28638 0)
(0.485958 -1.21065 0)
(0.459354 -1.06327 0)
(0.540287 -0.960391 0)
(0.612968 -0.507852 0)
(0.66643 -0.334549 0)
(0.678804 -0.290786 0)
(0.681241 -0.281718 0)
(0.681683 -0.279879 0)
(0.681826 -0.279579 0)
(0.681928 -0.279555 0)
(0.681998 -0.279581 0)
(0.682066 -0.279607 0)
(0.682111 -0.279676 0)
(0.682175 -0.279724 0)
(0.682241 -0.27977 0)
(0.682295 -0.279812 0)
(0.682325 -0.279851 0)
(0.682343 -0.279886 0)
(0.682348 -0.279921 0)
(0.682367 -0.27994 0)
(0.68238 -0.279949 0)
(0.682386 -0.279993 0)
(0.682404 -0.280053 0)
(0.682528 -0.280078 0)
(0.682726 -0.280074 0)
(0.68296 -0.280255 0)
(0.683194 -0.28055 0)
(0.683737 -0.2807 0)
(0.684599 -0.281031 0)
(0.685494 -0.281947 0)
(0.686962 -0.282575 0)
(0.688276 -0.283254 0)
(0.688985 -0.283563 0)
(0.689163 -0.283698 0)
(0.689163 -0.28381 0)
(0.688959 -0.283483 0)
(0.688617 -0.282786 0)
(0.687431 -0.282535 0)
(0.685699 -0.282011 0)
(0.683873 -0.280243 0)
(0.68126 -0.278609 0)
(0.677521 -0.277685 0)
(0.673512 -0.275049 0)
(0.669265 -0.272108 0)
(0.663723 -0.270252 0)
(0.657933 -0.267013 0)
(0.652226 -0.263297 0)
(0.645441 -0.260776 0)
(0.638934 -0.256775 0)
(0.631874 -0.253411 0)
(0.624838 -0.249687 0)
(0.617492 -0.24629 0)
(0.610496 -0.242193 0)
(0.602902 -0.239064 0)
(0.59578 -0.234922 0)
(0.588133 -0.231685 0)
(0.580916 -0.22765 0)
(0.573284 -0.224455 0)
(0.566101 -0.220453 0)
(0.558475 -0.217308 0)
(0.551256 -0.213362 0)
(0.543618 -0.210254 0)
(0.536413 -0.206331 0)
(0.528767 -0.203305 0)
(0.521577 -0.199387 0)
(0.513908 -0.196426 0)
(0.506679 -0.19254 0)
(0.498989 -0.189589 0)
(0.491728 -0.185763 0)
(0.48404 -0.182834 0)
(0.476782 -0.179056 0)
(0.469097 -0.176175 0)
(0.461838 -0.172428 0)
(0.454151 -0.16959 0)
(0.446876 -0.165885 0)
(0.439196 -0.163072 0)
(0.431897 -0.159429 0)
(0.424229 -0.156604 0)
(0.416884 -0.153053 0)
(0.409218 -0.150185 0)
(0.401822 -0.146728 0)
(0.394176 -0.143848 0)
(0.386778 -0.14046 0)
(0.379159 -0.137609 0)
(0.371774 -0.134268 0)
(0.364158 -0.131437 0)
(0.356737 -0.12815 0)
(0.349105 -0.125301 0)
(0.34163 -0.122082 0)
(0.333994 -0.119217 0)
(0.326497 -0.116061 0)
(0.318876 -0.113206 0)
(0.311378 -0.110104 0)
(0.303767 -0.107264 0)
(0.296257 -0.104212 0)
(0.28865 -0.101383 0)
(0.281126 -0.0983795 0)
(0.273526 -0.0955644 0)
(0.265997 -0.0926078 0)
(0.258407 -0.0898117 0)
(0.25088 -0.0868991 0)
(0.243301 -0.0841252 0)
(0.235777 -0.0812545 0)
(0.228209 -0.0785031 0)
(0.220688 -0.0756729 0)
(0.213129 -0.0729432 0)
(0.205609 -0.0701519 0)
(0.198057 -0.0674425 0)
(0.190533 -0.0646895 0)
(0.182989 -0.0619976 0)
(0.17546 -0.0592837 0)
(0.167926 -0.0566092 0)
(0.1604 -0.0539351 0)
(0.15288 -0.0512833 0)
(0.145373 -0.0486468 0)
(0.137882 -0.0460296 0)
(0.130413 -0.0434327 0)
(0.122974 -0.0408582 0)
(0.115569 -0.0383083 0)
(0.108227 -0.0357916 0)
(0.100968 -0.0333129 0)
(0.0937924 -0.0308736 0)
(0.0867105 -0.0284761 0)
(0.0797353 -0.0261245 0)
(0.0728845 -0.0238241 0)
(0.0661812 -0.021582 0)
(0.0596526 -0.0194066 0)
(0.0533311 -0.017308 0)
(0.0472529 -0.0152973 0)
(0.041457 -0.0133867 0)
(0.035984 -0.0115888 0)
(0.0308733 -0.00991575 0)
(0.0261611 -0.00837844 0)
(0.0218767 -0.00698563 0)
(0.0180406 -0.00574305 0)
(0.0146622 -0.00465273 0)
(0.0117382 -0.00371268 0)
(0.00925336 -0.0029169 0)
(0.00718094 -0.00225584 0)
(0.00548521 -0.00171712 0)
(0.00412415 -0.00128649 0)
(0.00305243 -0.000948798 0)
(0.00222438 -0.000688957 0)
(0.00159638 -0.000492697 0)
(0.00112866 -0.000347118 0)
(0.000786402 -0.000241012 0)
(0.00054018 -0.000164979 0)
(0.000365941 -0.000111383 0)
(0.000244585 -7.41939e-05 0)
(0.000161345 -4.87806e-05 0)
(0.000105087 -3.16674e-05 0)
(6.7602e-05 -2.03055e-05 0)
(4.29668e-05 -1.28646e-05 0)
(2.69902e-05 -8.05554e-06 0)
(1.67612e-05 -4.987e-06 0)
(1.02933e-05 -3.05316e-06 0)
(6.25271e-06 -1.84901e-06 0)
(3.75796e-06 -1.10794e-06 0)
(2.23516e-06 -6.57023e-07 0)
(1.31593e-06 -3.85681e-07 0)
(7.67037e-07 -2.24154e-07 0)
(4.42734e-07 -1.2901e-07 0)
(2.53101e-07 -7.35423e-08 0)
(1.43334e-07 -4.15304e-08 0)
(8.04221e-08 -2.3237e-08 0)
(4.47144e-08 -1.28841e-08 0)
(2.46394e-08 -7.08024e-09 0)
(1.34582e-08 -3.8567e-09 0)
(7.28745e-09 -2.08285e-09 0)
(3.91256e-09 -1.11529e-09 0)
(2.08302e-09 -5.92096e-10 0)
(1.09979e-09 -3.11834e-10 0)
(5.75967e-10 -1.62954e-10 0)
(2.99245e-10 -8.4321e-11 0)
(1.54209e-10 -4.34021e-11 0)
(7.88346e-11 -2.21578e-11 0)
(3.99914e-11 -1.12166e-11 0)
(2.01561e-11 -5.67173e-12 0)
(1.00965e-11 -2.71133e-12 0)
(5.0007e-12 -1.4117e-12 0)
(2.46564e-12 -6.78978e-13 0)
(1.20106e-12 -3.24327e-13 0)
(5.81696e-13 -1.44416e-13 0)
(2.72772e-13 -6.94458e-14 0)
(1.2576e-13 -2.5748e-14 0)
(5.5642e-14 -3.43407e-15 0)
(1.74642e-14 -9.89442e-19 0)
(2.35657e-15 0 0)
(2.07783e-16 0 0)
(6.21935e-18 0 0)
(0 0 0)
(0 0 0)
(0 0 0)
(0 0 0)
(0 0 0)
(0 0 0)
(0 0 0)
(0 0 0)
(0 0 0)
(0 0 0)
(0 0 0)
(0 0 0)
(0 0 0)
(0 0 0)
(0 0 0)
(0 0 0)
(0 0 0)
(0 0 0)
(0 0 0)
(0 0 0)
(0 0 0)
(0 0 0)
(0 0 0)
(0 0 0)
(0 0 0)
(0 0 0)
(0 0 0)
(0 0 0)
(0 0 0)
(0 0 0)
(0 0 0)
(0 0 0)
(0 0 0)
(0 0 0)
(0 0 0)
(0 0 0)
(0 0 0)
(0 0 0)
(0 0 0)
(0 0 0)
(0 0 0)
(0 0 0)
(0 0 0)
(0 0 0)
(0 0 0)
(0 0 0)
(0 0 0)
(0 0 0)
(0 0 0)
(0 0 0)
(0 0 0)
(0 0 0)
(0 0 0)
(0 0 0)
(0 0 0)
(0 0 0)
(0 0 0)
(0 0 0)
(0 0 0)
(0 0 0)
(0 0 0)
(0 0 0)
(0 0 0)
(0 0 0)
(0 0 0)
(0 0 0)
(0 0 0)
(0 0 0)
(0 0 0)
(0 0 0)
(0 0 0)
(0 0 0)
(0 0 0)
(0 0 0)
(0 0 0)
(0 0 0)
(0 0 0)
(0 0 0)
(0 0 0)
(0 0 0)
(0 0 0)
(0 0 0)
(0 0 0)
(0 0 0)
(0 0 0)
(0 0 0)
(0 0 0)
(0 0 0)
(0 0 0)
(0 0 0)
(0 0 0)
(0 0 0)
(0 0 0)
(0 0 0)
(0 0 0)
(0 0 0)
(0 0 0)
(0 0 0)
(0 0 0)
(0 0 0)
(0 0 0)
(0 0 0)
(0 0 0)
(0 0 0)
(0 0 0)
(0 0 0)
(0 0 0)
(0 0 0)
(0 0 0)
(0 0 0)
(0 0 0)
(0 0 0)
(0 0 0)
(0 0 0)
(0 0 0)
(0 0 0)
(0 0 0)
(0 0 0)
(0 0 0)
(0 0 0)
(0 0 0)
(0 0 0)
(0 0 0)
(0 0 0)
(0 0 0)
(0 0 0)
(0 0 0)
(0 0 0)
(0 0 0)
(0 0 0)
(0 0 0)
(0 0 0)
(0 0 0)
(0 0 0)
(0 0 0)
(0 0 0)
(0 0 0)
(0 0 0)
(0 0 0)
(0 0 0)
(0 0 0)
(0 0 0)
(0 0 0)
(0 0 0)
(0 0 0)
(0 0 0)
(0 0 0)
(0 0 0)
(0 0 0)
(0 0 0)
(0 0 0)
(0 0 0)
(0 0 0)
(0 0 0)
(0 0 0)
(0 0 0)
(0 0 0)
(0 0 0)
(0 0 0)
(0 0 0)
(0 0 0)
(0 0 0)
(0 0 0)
(0 0 0)
(0 0 0)
(0 0 0)
(0 0 0)
(0 0 0)
(0 0 0)
(0 0 0)
(0 0 0)
(0 0 0)
(0 0 0)
(0 0 0)
(0 0 0)
(0 0 0)
(0 0 0)
(0 0 0)
(0 0 0)
(0 0 0)
(0 0 0)
(0 0 0)
(0 0 0)
(0 0 0)
(0 0 0)
(0 0 0)
(0 0 0)
(0 0 0)
(0 0 0)
(0 0 0)
(0 0 0)
(0 0 0)
(0 0 0)
(0 0 0)
(0 0 0)
(0 0 0)
(0 0 0)
(0 0 0)
(0 0 0)
(0 0 0)
(0 0 0)
(0 0 0)
(0 0 0)
(0 0 0)
(0 0 0)
(0 0 0)
(0 0 0)
(0 0 0)
(0 0 0)
(0 0 0)
(0 0 0)
(0 0 0)
(0 0 0)
(0 0 0)
(0 0 0)
(0 0 0)
(0 0 0)
(0 0 0)
(0 0 0)
(0 0 0)
(0 0 0)
(0 0 0)
(0 0 0)
(0 0 0)
(0 0 0)
(0 0 0)
(0 0 0)
(0 0 0)
(0 0 0)
(0 0 0)
(0 0 0)
(0 0 0)
(0 0 0)
(0 0 0)
(0 0 0)
(0 0 0)
(0 0 0)
(0 0 0)
(0 0 0)
(0 0 0)
(0 0 0)
(0 0 0)
(0 0 0)
(0 0 0)
(0 0 0)
(0 0 0)
(0 0 0)
(0 0 0)
(0 0 0)
(0 0 0)
(0 0 0)
(0 0 0)
(0 0 0)
(0 0 0)
(0 0 0)
(0 0 0)
(0 0 0)
(0 0 0)
(0 0 0)
(0 0 0)
(0 0 0)
(0 0 0)
(0 0 0)
(0 0 0)
(0 0 0)
(0 0 0)
(0 0 0)
(0 0 0)
(0 0 0)
(0 0 0)
(0 0 0)
(0 0 0)
(0 0 0)
(0 0 0)
(0 0 0)
(0 0 0)
(0 0 0)
(0 0 0)
(0 0 0)
(0 0 0)
(0 0 0)
(0 0 0)
(0 0 0)
(0 0 0)
(0 0 0)
(0 0 0)
(0 0 0)
(0 0 0)
(0 0 0)
(0 0 0)
(0 0 0)
(0 0 0)
(0 0 0)
(0 0 0)
(0 0 0)
(0 0 0)
(0 0 0)
(0 0 0)
)
;

boundaryField
{
    front-back
    {
        type            empty;
    }
    inlet-outlet
    {
        type            zeroGradient;
    }
    top-down
    {
        type            empty;
    }
}


// ************************************************************************* //
