/*--------------------------------*- C++ -*----------------------------------*\
| =========                 |                                                 |
| \\      /  F ield         | OpenFOAM: The Open Source CFD Toolbox           |
|  \\    /   O peration     | Version:  2.2.x                                 |
|   \\  /    A nd           | Web:      www.OpenFOAM.org                      |
|    \\/     M anipulation  |                                                 |
\*---------------------------------------------------------------------------*/
FoamFile
{
    version     2.0;
    format      ascii;
    class       volScalarField;
    location    "1.95";
    object      By;
}
// * * * * * * * * * * * * * * * * * * * * * * * * * * * * * * * * * * * * * //

dimensions      [1 0 -2 0 0 -1 0];

internalField   nonuniform List<scalar> 
14161
(
-2.47134e-05
-5.17007e-07
-5.12826e-07
8.84736e-07
5.74731e-08
1.61676e-06
9.69114e-07
-2.30842e-08
-2.06611e-06
1.59657e-06
8.27943e-07
1.02099e-06
8.52738e-07
2.70171e-06
3.18654e-06
3.1781e-07
3.75181e-06
1.80096e-06
5.47496e-06
5.36793e-06
8.47525e-06
9.76789e-06
1.13212e-05
1.246e-05
1.93598e-05
2.52461e-05
3.75508e-05
4.17413e-05
7.17294e-05
7.46713e-05
0.000121684
0.000146839
0.00022277
0.000249251
0.000345197
0.000386826
0.000501005
0.000662909
0.000832315
0.000970194
0.00116069
0.00154757
0.0015714
0.00286221
0.000827445
-0.00642883
-0.119914
-0.141116
-0.00393856
0.0266842
0.0213133
0.009376
0.00806675
0.00614078
0.00529202
0.00492554
0.00417525
0.0033642
0.00284637
0.00229989
0.00188289
0.00138844
0.00122213
0.000952744
0.000952131
0.000719401
0.000194441
9.62649e-05
0.000192142
5.93373e-05
0.000659315
0.00045841
0.000649343
0.000380921
-0.000144513
-0.00113186
-0.000874201
-0.000287061
0.00116447
0.00285854
0.00479857
0.00113597
-0.00361024
-0.00440494
-0.0020821
0.00382329
0.00961909
0.00947173
0.00684624
0.000875408
0.00160166
-0.00394934
0.00218964
0.000508147
0.00866522
0.00830148
0.0132527
0.0148438
0.0184522
0.0178547
0.0254192
0.0270841
0.0366944
0.0422216
0.0484411
0.0491907
0.051477
0.0529292
0.0563953
0.0577791
0.060401
0.0589907
0.0585416
0.0567246
0.0561102
0.0534008
0.03516
0.0414474
0.0149458
-4.31565e-05
5.34164e-07
-2.56947e-06
8.66209e-07
1.70902e-06
1.68426e-06
1.34755e-06
3.26984e-06
3.20558e-06
5.19454e-06
1.06932e-06
3.47939e-06
3.25236e-06
5.36138e-06
6.022e-06
5.74334e-06
1.01152e-05
8.33495e-06
1.16574e-05
1.16637e-05
9.29897e-06
1.16969e-05
1.41912e-05
1.39361e-05
1.4107e-05
1.22143e-05
8.66813e-06
-5.5246e-06
-1.51915e-06
-3.9628e-05
-4.39263e-05
-9.20264e-05
-0.000109687
-0.000172859
-0.00022961
-0.00030493
-0.000435547
-0.000570349
-0.000801099
-0.00110607
-0.00162748
-0.00226231
-0.0033872
-0.00550749
-0.0129734
-0.0459499
-0.202913
-0.141481
0.0129064
0.00742458
0.00965722
-0.00532893
-0.003559
-0.00710724
-0.00608369
-0.00515423
-0.00476413
-0.0052484
-0.00430917
-0.0053236
-0.00476972
-0.00507983
-0.00582898
-0.00373729
-0.00404659
-0.00392812
-0.00413109
-0.00395652
-0.00454362
-0.00431749
-0.00534617
-0.00538638
-0.00485221
-0.0034579
-0.001729
0.000874715
0.00141303
0.00225234
-0.00100272
-0.00457928
-0.00607178
-0.00458582
0.00133961
0.00761258
0.00716772
-0.0023695
-0.00862569
-0.0173824
-0.00717506
-0.000458474
0.0185719
0.0232047
0.0299688
0.0172332
0.0218763
0.0151176
0.0237702
0.0428564
0.0510363
0.0604424
0.0610833
0.0629001
0.0665694
0.0569214
0.0673806
0.0661483
0.0730006
0.0740351
0.0754722
0.0735742
0.0760048
0.0751855
0.0744391
0.0763783
0.0721552
0.08689
0.0834948
0.101166
0.0467122
-7.3273e-05
-3.96093e-06
-5.7495e-06
1.764e-06
1.60506e-06
2.77228e-06
6.49729e-07
3.67396e-06
2.44961e-06
5.62865e-06
1.57233e-06
7.02358e-06
7.81075e-06
1.10603e-05
9.48611e-06
7.87189e-06
1.90647e-05
1.66264e-05
2.4936e-05
2.49706e-05
2.58136e-05
3.10455e-05
3.76066e-05
4.36529e-05
5.31084e-05
6.30746e-05
7.74782e-05
9.38804e-05
0.000113419
0.000141224
0.000166164
0.000216192
0.000279879
0.000335069
0.000413979
0.000475233
0.000591517
0.000646416
0.000681997
0.00079645
0.000510032
0.000441498
-0.00084399
-0.00165136
-0.00607432
-0.0348037
-0.166473
-0.147734
-0.057119
-0.0242798
-0.0127857
-0.022722
-0.023117
-0.0206426
-0.0232367
-0.020324
-0.0189589
-0.0196415
-0.0168528
-0.0172673
-0.0151757
-0.0158092
-0.0135132
-0.0106407
-0.00840071
-0.00706881
-0.00572759
-0.00466753
-0.00376825
-0.00265965
-0.00316192
-0.00281405
-0.00282208
-0.00290451
-0.00277273
-0.00385588
-0.00404308
-0.00128372
0.00271687
0.00898553
0.0132895
0.0170161
0.0184081
0.0182921
0.0191683
0.0259822
0.041517
0.0394869
0.0488871
0.0593458
0.0647328
0.0660202
0.0715246
0.0750402
0.0847496
0.0802706
0.0813501
0.0697719
0.0740089
0.0678559
0.078793
0.0800903
0.0895521
0.0913902
0.0942062
0.0898132
0.0972303
0.0948693
0.104911
0.103007
0.11084
0.10814
0.113147
0.113987
0.113721
0.115984
0.106292
0.120766
0.0632859
-8.46696e-05
-6.03426e-06
-6.67613e-06
1.38279e-06
2.22404e-06
4.08052e-06
3.66524e-06
6.45107e-06
6.57335e-06
1.10364e-05
2.7537e-06
9.32248e-06
9.9811e-06
1.69199e-05
1.47805e-05
1.54075e-05
2.30336e-05
2.20021e-05
2.76264e-05
3.12282e-05
3.2904e-05
3.67496e-05
4.28536e-05
4.78619e-05
5.08257e-05
5.34285e-05
5.5805e-05
5.5783e-05
5.19235e-05
4.61244e-05
1.46053e-05
9.96416e-06
-1.04513e-05
-3.09968e-05
-8.22024e-05
-0.000137231
-0.000226036
-0.000326928
-0.000514043
-0.000751701
-0.00117531
-0.00134526
-0.00212693
-0.00163326
-0.00486048
-0.0090722
-0.0765648
-0.0880182
-0.0663423
-0.0571185
-0.0524244
-0.0632154
-0.0638023
-0.0564298
-0.0582863
-0.0490663
-0.0444917
-0.0439154
-0.0373607
-0.0368527
-0.0321605
-0.0339232
-0.0286442
-0.0227764
-0.0188845
-0.0172443
-0.0143525
-0.0126142
-0.0104427
-0.00829771
-0.00775104
-0.00762241
-0.0081584
-0.0070284
-0.00679841
-0.00533961
-0.00370734
-0.0007469
0.00292304
0.010962
0.0192149
0.0248607
0.0300318
0.0389023
0.049023
0.0663315
0.0924308
0.120839
0.137007
0.171318
0.169048
0.165802
0.15299
0.136293
0.131668
0.117744
0.118686
0.112188
0.116408
0.108509
0.104741
0.101652
0.101721
0.102663
0.109086
0.106557
0.108865
0.104356
0.111136
0.10569
0.109931
0.103171
0.108293
0.105709
0.108483
0.120985
0.108535
0.12455
0.0671874
-0.000102416
-8.86313e-06
-9.52994e-06
1.64633e-06
2.38817e-06
4.56758e-06
4.26466e-06
6.8021e-06
4.64533e-06
1.14615e-05
3.11437e-06
1.32946e-05
1.3409e-05
2.23698e-05
2.14654e-05
2.25589e-05
3.09097e-05
2.97097e-05
3.82803e-05
4.57018e-05
4.77863e-05
5.65666e-05
6.78739e-05
7.87424e-05
8.86513e-05
0.000103633
0.00012038
0.000138579
0.000166127
0.000197489
0.000235672
0.000272312
0.000341005
0.000389474
0.000490986
0.000526708
0.000637245
0.000716485
0.000826842
0.000924468
0.000798896
0.0011101
0.000501925
0.00115198
-0.000794275
0.00188818
-0.0216473
-0.0555218
-0.0745466
-0.0836307
-0.0950226
-0.0993641
-0.105402
-0.0913133
-0.0935616
-0.0820128
-0.0778152
-0.0745201
-0.0651403
-0.0632201
-0.0561173
-0.0557958
-0.0472789
-0.0386789
-0.032209
-0.0282835
-0.0240624
-0.0206032
-0.016469
-0.013233
-0.0105512
-0.00997913
-0.00946308
-0.00949424
-0.00893314
-0.00663847
-0.00467995
-2.46526e-05
0.00712394
0.0177008
0.0346509
0.0537858
0.0603408
0.0664102
0.0796022
0.105327
0.149621
0.207724
0.242512
0.289497
0.279494
0.279876
0.254705
0.226914
0.208102
0.186325
0.171987
0.162299
0.154235
0.146026
0.142052
0.137498
0.135572
0.132874
0.129139
0.121895
0.125136
0.116765
0.121722
0.114142
0.119568
0.108557
0.118648
0.112653
0.119031
0.118703
0.106081
0.118681
0.0673474
-0.00010588
-1.15325e-05
-1.07295e-05
9.7823e-07
3.06621e-06
7.17273e-06
5.68568e-06
7.99092e-06
9.94205e-06
1.41337e-05
7.0539e-06
1.56363e-05
1.46192e-05
2.54916e-05
2.35196e-05
2.50313e-05
3.15417e-05
3.69978e-05
4.22975e-05
5.37314e-05
5.90086e-05
6.42135e-05
7.58157e-05
8.54277e-05
9.41658e-05
0.000101748
0.00010942
0.000117619
0.000119828
0.000129034
0.00013219
0.000123051
0.000116224
0.000118477
0.000112215
0.000109223
8.38574e-05
9.04283e-05
9.46828e-05
3.50827e-05
2.14573e-05
-0.000210995
-0.000320781
-0.000394854
0.00104855
0.00446961
0.0394165
0.0189536
-0.0525062
-0.0991085
-0.119445
-0.126637
-0.136424
-0.120729
-0.123626
-0.110602
-0.108749
-0.100538
-0.0884737
-0.0850662
-0.0761836
-0.0726744
-0.0624761
-0.0501394
-0.0429736
-0.0370206
-0.0306721
-0.0263817
-0.0227756
-0.0190147
-0.017978
-0.0161038
-0.0159152
-0.016939
-0.0161379
-0.0144107
-0.0112252
-0.0057434
0.00656214
0.0211766
0.041195
0.0692073
0.0871906
0.102466
0.127328
0.172231
0.231726
0.291133
0.322379
0.350233
0.347706
0.356821
0.338488
0.329602
0.288195
0.255908
0.23128
0.199746
0.187255
0.176779
0.172107
0.169915
0.166546
0.16495
0.156188
0.146064
0.142124
0.130436
0.132327
0.11983
0.127506
0.114915
0.124767
0.115591
0.119228
0.115006
0.103415
0.111969
0.0672862
-0.000115255
-1.29112e-05
-1.26356e-05
1.38054e-06
3.38706e-06
8.6753e-06
6.07042e-06
8.31287e-06
9.97749e-06
1.94381e-05
8.5992e-06
1.76703e-05
1.88498e-05
3.2562e-05
2.83092e-05
3.82025e-05
3.97572e-05
4.91446e-05
5.1236e-05
7.29549e-05
7.31134e-05
8.37588e-05
9.8331e-05
0.000116702
0.000128348
0.00014507
0.000165611
0.000186847
0.000218
0.00024573
0.000296192
0.00033256
0.000391898
0.000442591
0.000548799
0.000596489
0.000746105
0.000848305
0.00109966
0.00117782
0.00161797
0.00141908
0.00218976
0.00166846
0.00442965
0.0153753
0.0900364
0.0615578
-0.0642578
-0.140587
-0.170743
-0.172995
-0.181346
-0.162294
-0.162655
-0.144726
-0.140825
-0.125767
-0.110118
-0.103423
-0.0907473
-0.0818775
-0.0661041
-0.0513135
-0.0436467
-0.0362186
-0.0305358
-0.0247219
-0.01944
-0.0169921
-0.0154152
-0.0142792
-0.0130029
-0.0119441
-0.0112216
-0.00919869
-0.00516301
0.000770161
0.0123086
0.0326263
0.0575879
0.0916157
0.133343
0.154806
0.193574
0.240601
0.294786
0.365941
0.392545
0.42536
0.426955
0.435518
0.418901
0.383989
0.346759
0.316835
0.275381
0.251474
0.231177
0.217492
0.203349
0.197777
0.19008
0.190804
0.1828
0.17636
0.163948
0.142782
0.145298
0.128156
0.140653
0.124897
0.133991
0.11725
0.120863
0.110997
0.101572
0.106303
0.0673338
-0.000112637
-1.39672e-05
-1.34871e-05
8.27176e-07
3.8127e-06
1.00853e-05
8.48349e-06
9.78569e-06
1.31385e-05
1.80868e-05
1.30552e-05
2.20305e-05
1.75165e-05
3.72302e-05
3.35762e-05
4.35179e-05
4.07084e-05
5.637e-05
5.8931e-05
8.0577e-05
8.86999e-05
9.24107e-05
0.000106536
0.00012652
0.000139319
0.000153161
0.000168673
0.000184376
0.000196651
0.000214684
0.000241757
0.000252285
0.000264676
0.000287841
0.000315044
0.000361841
0.000432194
0.000545154
0.000673235
0.000855853
0.00127114
0.00166329
0.00305195
0.0041179
0.0096565
0.0481811
0.201333
0.154872
-0.105406
-0.220625
-0.262199
-0.246006
-0.246657
-0.220683
-0.21109
-0.185514
-0.174968
-0.153113
-0.137336
-0.128387
-0.114656
-0.0983882
-0.0810393
-0.0660755
-0.0552404
-0.0475758
-0.0414626
-0.033962
-0.0288049
-0.0252858
-0.0224441
-0.0204887
-0.0187422
-0.0190782
-0.0182079
-0.01707
-0.0130633
-0.00530425
0.00940861
0.0344322
0.0649111
0.105758
0.146859
0.19285
0.241516
0.318018
0.377728
0.437543
0.458514
0.47411
0.489069
0.482672
0.478343
0.464965
0.431529
0.407391
0.351083
0.310287
0.278958
0.252052
0.233541
0.229539
0.221079
0.227027
0.215927
0.207016
0.186969
0.166572
0.162555
0.141584
0.151848
0.129265
0.141245
0.11894
0.120595
0.10646
0.101325
0.099902
0.0667117
-0.000115818
-1.38996e-05
-1.39927e-05
1.1634e-06
3.6827e-06
1.12903e-05
1.06356e-05
1.19768e-05
1.43218e-05
2.00987e-05
1.67112e-05
2.78292e-05
2.21561e-05
4.08788e-05
3.43399e-05
5.20869e-05
5.06754e-05
6.85549e-05
6.99303e-05
9.65245e-05
0.000104138
0.000110884
0.000129702
0.000152971
0.000170553
0.000190489
0.0002113
0.000239286
0.000267941
0.000298493
0.000343641
0.000383609
0.000438548
0.00047819
0.000572074
0.000635693
0.000785236
0.000862245
0.00118609
0.00142797
0.0020692
0.00284685
0.00442072
0.00608592
0.0152316
0.0438771
0.195592
0.243751
-0.114666
-0.286798
-0.310239
-0.293966
-0.270843
-0.244221
-0.225486
-0.201198
-0.18361
-0.160687
-0.143072
-0.128255
-0.110877
-0.0950768
-0.0774663
-0.0654883
-0.0525369
-0.0440437
-0.0353625
-0.0292889
-0.0238505
-0.0204699
-0.0177848
-0.0167517
-0.0158305
-0.0143606
-0.0122145
-0.00896206
-0.00460215
0.00411978
0.0187129
0.0416813
0.0769556
0.122367
0.17941
0.25192
0.312965
0.390406
0.432589
0.484218
0.510729
0.524966
0.53461
0.544571
0.535218
0.546738
0.506981
0.472548
0.424986
0.385351
0.339084
0.305176
0.274203
0.26007
0.246584
0.248112
0.242249
0.242653
0.222312
0.200005
0.186617
0.16143
0.166482
0.142912
0.152033
0.122255
0.125689
0.105085
0.104229
0.0946284
0.0683091
-0.000109154
-1.30411e-05
-1.43022e-05
6.84997e-07
4.74609e-06
1.27657e-05
1.1926e-05
1.3748e-05
1.64455e-05
2.22724e-05
1.91084e-05
2.76979e-05
2.50802e-05
4.25353e-05
4.06605e-05
5.88807e-05
5.64372e-05
7.48371e-05
8.15134e-05
0.000107105
0.000122639
0.000128734
0.000142432
0.000167728
0.000186217
0.000207062
0.000224317
0.000258131
0.000275532
0.000308099
0.000334594
0.000372917
0.000405688
0.000445237
0.000480133
0.000533934
0.00060586
0.000662635
0.000781167
0.000747776
0.000967332
0.000605317
0.000922391
-0.000818883
0.000969795
0.00579097
0.0831618
0.0978188
-0.162633
-0.299645
-0.327623
-0.321294
-0.304463
-0.279484
-0.252519
-0.22536
-0.200988
-0.176638
-0.158175
-0.136945
-0.119656
-0.101176
-0.0854314
-0.0700071
-0.0575041
-0.0470981
-0.039702
-0.0328224
-0.0275701
-0.0241317
-0.021864
-0.019855
-0.018705
-0.0173986
-0.0163236
-0.0140833
-0.0091988
0.00089709
0.0181935
0.0449003
0.0837324
0.132724
0.203332
0.290237
0.367164
0.440099
0.480671
0.528172
0.553822
0.573701
0.586862
0.61024
0.59675
0.602325
0.581172
0.562744
0.527726
0.465135
0.410737
0.360326
0.321631
0.295887
0.277152
0.276882
0.270759
0.271401
0.260531
0.239994
0.218367
0.190086
0.191061
0.158233
0.160884
0.126775
0.130555
0.104084
0.10748
0.0903069
0.0693928
-0.00010758
-1.1003e-05
-1.32626e-05
1.51908e-06
5.11181e-06
1.31091e-05
1.50228e-05
1.55784e-05
1.92261e-05
2.42028e-05
2.20721e-05
3.00223e-05
3.19984e-05
4.65582e-05
4.79834e-05
6.49609e-05
6.54425e-05
8.30648e-05
9.38479e-05
0.000116802
0.000134458
0.00014125
0.000161309
0.000187219
0.000214897
0.000237275
0.000260299
0.000289315
0.000323266
0.000351173
0.000393056
0.000428167
0.000474146
0.000500276
0.000558045
0.00056248
0.000618697
0.000614756
0.000650145
0.000603066
0.000586889
0.000190821
-4.35892e-05
-0.00125782
-0.00238884
-0.00772762
-0.0453275
-0.255345
-0.309291
-0.293739
-0.296175
-0.297702
-0.287213
-0.270624
-0.248133
-0.223826
-0.200294
-0.177154
-0.156715
-0.136691
-0.117934
-0.100427
-0.0836613
-0.0694548
-0.0570251
-0.0473944
-0.0385043
-0.0325592
-0.0267004
-0.0229325
-0.0207665
-0.0190863
-0.0178996
-0.0162727
-0.014066
-0.00959118
-0.00333549
0.00825881
0.025844
0.051136
0.0922448
0.148716
0.246483
0.348502
0.417386
0.49447
0.538984
0.577982
0.600787
0.626423
0.641141
0.658737
0.660784
0.660273
0.663249
0.626253
0.600258
0.545709
0.489226
0.428942
0.369538
0.334153
0.308652
0.302029
0.294481
0.297183
0.294751
0.288344
0.262986
0.23085
0.218317
0.181156
0.179437
0.140071
0.138681
0.10652
0.113748
0.0896797
0.0735341
-9.83595e-05
-8.86934e-06
-1.23552e-05
2.40451e-06
5.44357e-06
1.47612e-05
1.66449e-05
1.93906e-05
2.03961e-05
2.56309e-05
2.65003e-05
3.18733e-05
3.71629e-05
4.80228e-05
5.19759e-05
7.13135e-05
7.71497e-05
8.86993e-05
0.000103863
0.00013187
0.000154333
0.000168896
0.000183743
0.00020809
0.000238005
0.000268343
0.000287683
0.000321989
0.000354864
0.000392525
0.000423693
0.000471382
0.000520093
0.000560202
0.000601152
0.000633703
0.000653721
0.000695797
0.000708655
0.000872739
0.000800402
0.00104765
0.000946242
0.0013863
2.16367e-06
-0.0131569
-0.156268
-0.5814
-0.462435
-0.33922
-0.296174
-0.297564
-0.286938
-0.270985
-0.252878
-0.228544
-0.205395
-0.182045
-0.160607
-0.140628
-0.121893
-0.104203
-0.0874474
-0.0731767
-0.0617607
-0.0501061
-0.0414185
-0.0357271
-0.0292767
-0.0245559
-0.0223422
-0.0211344
-0.0190208
-0.0171671
-0.013812
-0.00918647
-0.00158886
0.0102846
0.0300499
0.0561511
0.102492
0.171984
0.288874
0.405953
0.468056
0.550442
0.586591
0.621057
0.652071
0.686984
0.69603
0.703579
0.725066
0.713509
0.720027
0.700706
0.674439
0.651359
0.585995
0.506832
0.43
0.383008
0.347195
0.332326
0.318449
0.318748
0.318538
0.318106
0.302763
0.273641
0.256014
0.212162
0.20214
0.152115
0.148443
0.111542
0.11916
0.0917535
0.0789128
-9.33564e-05
-5.45934e-06
-9.83468e-06
3.14669e-06
7.01348e-06
1.51969e-05
1.93599e-05
1.96553e-05
2.41988e-05
2.80623e-05
2.8121e-05
3.65462e-05
4.1689e-05
4.77142e-05
5.94057e-05
7.68425e-05
8.62663e-05
9.57692e-05
0.000113052
0.000138122
0.000162803
0.000181113
0.000193335
0.000223845
0.00025721
0.000289162
0.000314823
0.00034582
0.000380657
0.000406283
0.000446951
0.000474751
0.000517635
0.000524513
0.00055941
0.00055903
0.000554112
0.000504189
0.000357672
0.000177299
-0.000261532
-0.000672667
-0.00184374
-0.00235388
-0.0100514
-0.037029
-0.295508
-0.767904
-0.659376
-0.455432
-0.350005
-0.317505
-0.288992
-0.275734
-0.254065
-0.233891
-0.20906
-0.186309
-0.164243
-0.142946
-0.123203
-0.104795
-0.0883535
-0.0722743
-0.0580532
-0.0487204
-0.0411653
-0.0335756
-0.0296324
-0.0244545
-0.022171
-0.0197595
-0.0185995
-0.0156207
-0.0119707
-0.0062555
0.00298433
0.0170592
0.0379197
0.0663484
0.119361
0.215201
0.356273
0.456015
0.532102
0.582752
0.634808
0.670308
0.699664
0.724298
0.748261
0.763262
0.782605
0.77541
0.77427
0.776303
0.749307
0.728973
0.664325
0.595333
0.51044
0.440099
0.38557
0.35674
0.339438
0.338025
0.343496
0.349049
0.343832
0.32388
0.298795
0.25423
0.235786
0.171124
0.165063
0.12246
0.128001
0.0977947
0.0893585
-8.30006e-05
-1.61365e-06
-7.25258e-06
5.02467e-06
7.80391e-06
1.60376e-05
2.12718e-05
2.38557e-05
2.49525e-05
2.9423e-05
3.32625e-05
3.5553e-05
4.93014e-05
5.35906e-05
6.44482e-05
8.18369e-05
9.73048e-05
0.000106387
0.000128207
0.000155542
0.000186858
0.000207866
0.000224653
0.000256016
0.000292201
0.000327339
0.000358068
0.000391247
0.000428026
0.000471117
0.00051356
0.000562754
0.000608393
0.00065526
0.000686154
0.00070998
0.000738549
0.000731807
0.000698426
0.000563566
0.000283582
5.30532e-05
-0.000606952
-0.00209676
-0.00914982
-0.0600838
-0.424915
-0.799808
-0.764286
-0.593119
-0.43262
-0.348589
-0.301499
-0.297765
-0.274933
-0.256067
-0.226856
-0.203737
-0.176773
-0.15498
-0.131479
-0.112025
-0.0946882
-0.0787528
-0.0636814
-0.053147
-0.0448976
-0.0379207
-0.0329088
-0.0285384
-0.0255188
-0.0239209
-0.0213247
-0.0180351
-0.0133783
-0.0061898
0.00397405
0.0204494
0.0438474
0.0825263
0.148726
0.279919
0.410277
0.517549
0.590928
0.637761
0.673911
0.717742
0.74502
0.770344
0.800386
0.818735
0.826453
0.835012
0.836952
0.834121
0.812362
0.788578
0.747999
0.684539
0.602226
0.506823
0.433195
0.394453
0.369876
0.364246
0.365259
0.373377
0.373482
0.368233
0.340834
0.304884
0.26638
0.209715
0.184022
0.128853
0.133002
0.104484
0.0993247
-7.50209e-05
2.47083e-06
-4.19811e-06
6.46908e-06
1.002e-05
1.72362e-05
2.37039e-05
2.42128e-05
2.88397e-05
3.54598e-05
3.4153e-05
3.77064e-05
5.26149e-05
5.75323e-05
6.96919e-05
8.50094e-05
0.000103529
0.000113556
0.000133041
0.000160658
0.00019228
0.000214945
0.000232285
0.000259004
0.000295731
0.000338379
0.00037197
0.000406477
0.000437765
0.000479085
0.00051571
0.000543529
0.000581469
0.000598238
0.000639425
0.000647028
0.000698931
0.000710551
0.000814607
0.00078845
0.00116972
0.0010669
0.00166071
0.000122347
-0.00729118
-0.0893691
-0.534562
-0.800244
-0.812969
-0.739447
-0.586942
-0.450778
-0.378107
-0.349458
-0.312077
-0.279169
-0.246462
-0.217961
-0.188861
-0.16305
-0.13727
-0.116072
-0.0967565
-0.0816442
-0.0677875
-0.0569843
-0.0466923
-0.0390285
-0.0337388
-0.0297721
-0.0268914
-0.0249594
-0.0223436
-0.0187388
-0.0128398
-0.00501417
0.0076989
0.0247681
0.0541746
0.104611
0.210099
0.365254
0.477763
0.571659
0.646605
0.680872
0.729096
0.756787
0.796565
0.823557
0.847091
0.863672
0.87366
0.889518
0.894598
0.885267
0.87109
0.840557
0.810855
0.75757
0.680369
0.57398
0.485152
0.426367
0.392072
0.379457
0.378552
0.388084
0.394679
0.394766
0.383432
0.349794
0.310273
0.252743
0.209256
0.146673
0.149059
0.114034
0.115883
-6.41392e-05
8.39955e-06
-1.33123e-07
9.54555e-06
1.17239e-05
1.93295e-05
2.57679e-05
2.74872e-05
2.96841e-05
3.42599e-05
4.01719e-05
4.00288e-05
5.84937e-05
6.24092e-05
7.58531e-05
9.09994e-05
0.000113551
0.000129292
0.000149043
0.00018017
0.000217293
0.000245396
0.000267099
0.000300606
0.000341874
0.000387381
0.000426052
0.000464142
0.000507843
0.000553871
0.000604457
0.000660682
0.000704835
0.000754338
0.000806251
0.000862333
0.000933197
0.000999283
0.00115396
0.00123383
0.00171287
0.0017307
0.00247239
0.000354375
-0.0125815
-0.153899
-0.671021
-0.806915
-0.811708
-0.772585
-0.694061
-0.572687
-0.460064
-0.393763
-0.336424
-0.295387
-0.256638
-0.226903
-0.196233
-0.169556
-0.142258
-0.118519
-0.0980113
-0.0837359
-0.071448
-0.0601472
-0.0484152
-0.0408812
-0.0348148
-0.0317781
-0.0281554
-0.0260302
-0.0227742
-0.0182666
-0.0118145
-0.00353918
0.00864537
0.0288567
0.0624574
0.140298
0.292804
0.460635
0.565872
0.639361
0.689962
0.742394
0.77816
0.827137
0.853818
0.87147
0.885456
0.90398
0.916793
0.923418
0.931873
0.927191
0.92436
0.896791
0.86428
0.818883
0.74541
0.650991
0.549161
0.475524
0.428872
0.406149
0.399044
0.404823
0.420009
0.41881
0.425803
0.389458
0.359013
0.288184
0.24127
0.173846
0.161152
0.123305
0.130547
-5.43206e-05
1.269e-05
3.74872e-06
1.16803e-05
1.41225e-05
2.02437e-05
2.64533e-05
2.84713e-05
3.50106e-05
3.83281e-05
4.23035e-05
4.29839e-05
6.00425e-05
6.92798e-05
7.81268e-05
9.525e-05
0.000117854
0.000134904
0.000152499
0.000181043
0.000220822
0.000249061
0.000269212
0.000301337
0.000338926
0.000379902
0.000420118
0.000465294
0.000510109
0.000551851
0.000594877
0.000637705
0.000676969
0.000712486
0.000750643
0.000780648
0.000832317
0.0008223
0.000880288
0.000723553
0.000699569
6.32026e-06
2.89565e-05
-0.00686436
-0.0332754
-0.287974
-0.776916
-0.797746
-0.797907
-0.786614
-0.752721
-0.674937
-0.580948
-0.467111
-0.393891
-0.328129
-0.283033
-0.242285
-0.212665
-0.180949
-0.152487
-0.124711
-0.101722
-0.0861714
-0.0735549
-0.0601575
-0.0486081
-0.0403212
-0.0356139
-0.0321655
-0.0295379
-0.0268312
-0.0232883
-0.0181675
-0.0129473
-0.00463133
0.010424
0.0384732
0.0973242
0.225602
0.415064
0.559725
0.648316
0.713447
0.7661
0.803966
0.839475
0.857517
0.889468
0.922033
0.940019
0.959993
0.967494
0.959989
0.969964
0.964583
0.94976
0.935893
0.906811
0.871795
0.809521
0.730293
0.616949
0.524237
0.46118
0.429964
0.419646
0.422128
0.436269
0.439362
0.452945
0.428248
0.405944
0.335524
0.291595
0.205335
0.179848
0.139208
0.149754
-4.34813e-05
1.9912e-05
8.74085e-06
1.51103e-05
1.6703e-05
2.30163e-05
2.92792e-05
3.16493e-05
3.39929e-05
4.00378e-05
4.78176e-05
4.56076e-05
6.29629e-05
7.54672e-05
8.65615e-05
0.000100568
0.000128708
0.000152993
0.000171969
0.000200119
0.000243473
0.000280709
0.000309881
0.000341153
0.000387678
0.000442933
0.000489918
0.000535422
0.000587047
0.000643221
0.000703271
0.00075905
0.000814022
0.000863028
0.000928433
0.000996429
0.00104945
0.00111695
0.00109534
0.00111905
0.00092942
0.000644761
-0.000831438
-0.00839616
-0.0599869
-0.425878
-0.788466
-0.81994
-0.816166
-0.806624
-0.784635
-0.750271
-0.661166
-0.580686
-0.462129
-0.384631
-0.305909
-0.272864
-0.22944
-0.198897
-0.161763
-0.133309
-0.107464
-0.089303
-0.0745195
-0.0627185
-0.050525
-0.0421477
-0.0373301
-0.0344856
-0.0328204
-0.0295785
-0.025105
-0.0190497
-0.0146399
-0.000670295
0.0202247
0.071614
0.175713
0.372409
0.561979
0.661344
0.717899
0.783246
0.843181
0.883438
0.905177
0.924018
0.938706
0.958152
0.969318
0.975088
0.988158
0.999388
1.00921
1.00627
0.989957
0.973967
0.947934
0.914681
0.862646
0.789309
0.682162
0.578024
0.500755
0.455461
0.437528
0.436146
0.446404
0.462164
0.462342
0.465096
0.442366
0.384773
0.336636
0.242059
0.206735
0.157467
0.169241
-3.3093e-05
2.48507e-05
1.39386e-05
1.90763e-05
1.97569e-05
2.48779e-05
2.90732e-05
3.28352e-05
3.93334e-05
4.18641e-05
4.91071e-05
5.11299e-05
6.2658e-05
7.83719e-05
9.25141e-05
0.000102335
0.000132309
0.000155439
0.000171418
0.00020094
0.000245981
0.000281265
0.000312331
0.000336071
0.000383999
0.000434204
0.000469966
0.000508013
0.000565232
0.00062908
0.00068415
0.000743878
0.000781523
0.000838774
0.00089075
0.000990683
0.00104774
0.0011889
0.00123541
0.00145862
0.00134385
0.00160903
-0.000151392
-0.00886716
-0.0913288
-0.535733
-0.800078
-0.833015
-0.830835
-0.822236
-0.811671
-0.79352
-0.753227
-0.679518
-0.568445
-0.460814
-0.367606
-0.316583
-0.259903
-0.215672
-0.172412
-0.136886
-0.109258
-0.087961
-0.0747592
-0.0630539
-0.0529098
-0.0440376
-0.0384098
-0.0348417
-0.0330819
-0.0296139
-0.0249016
-0.0171784
-0.0113936
0.0134368
0.0587818
0.151304
0.355619
0.559782
0.683692
0.772763
0.826947
0.848054
0.870277
0.900603
0.940756
0.968445
0.996181
1.00942
1.01226
1.01388
1.02482
1.02492
1.02349
1.01977
1.01375
1.00276
0.983907
0.950283
0.907322
0.842461
0.749945
0.634768
0.542682
0.487828
0.46
0.450799
0.456435
0.472999
0.478537
0.492704
0.473008
0.435991
0.379186
0.28839
0.242983
0.18267
0.194632
-2.10492e-05
3.24709e-05
1.95054e-05
2.27688e-05
2.31953e-05
2.62112e-05
3.25031e-05
3.56395e-05
3.85913e-05
4.34498e-05
5.41073e-05
5.36801e-05
6.66059e-05
8.42817e-05
0.000102912
0.000110995
0.000139575
0.000171518
0.000194629
0.000221042
0.000263623
0.000310211
0.000350531
0.000383834
0.00042504
0.000483411
0.000550099
0.000603467
0.000652575
0.00071996
0.000792832
0.000872286
0.000931816
0.000993379
0.0010425
0.00114004
0.00121636
0.00137077
0.00146082
0.00172828
0.00159982
0.00210232
-0.000839573
-0.0149704
-0.155894
-0.671426
-0.810132
-0.828739
-0.829472
-0.824903
-0.81576
-0.804654
-0.785898
-0.750055
-0.673043
-0.574347
-0.45306
-0.374468
-0.290637
-0.23092
-0.178121
-0.139808
-0.108212
-0.0876977
-0.0731659
-0.0598228
-0.0496661
-0.0385085
-0.0378784
-0.0332939
-0.0334715
-0.026574
-0.0171981
0.00459693
0.0311182
0.0898596
0.212844
0.400609
0.555942
0.70461
0.788856
0.855507
0.910948
0.938432
0.945907
0.966692
0.974584
0.991933
1.00235
1.01223
1.02932
1.04279
1.05669
1.057
1.05335
1.04617
1.04192
1.02992
1.00977
0.982168
0.942811
0.88741
0.805372
0.695919
0.58543
0.51847
0.479849
0.466334
0.468839
0.482957
0.498649
0.504669
0.501129
0.471708
0.420867
0.335545
0.285266
0.211361
0.221754
-1.1922e-05
3.79447e-05
2.49473e-05
2.69969e-05
2.66777e-05
2.92224e-05
3.18532e-05
3.69173e-05
4.40063e-05
4.31548e-05
5.60304e-05
5.86779e-05
6.55106e-05
8.47976e-05
0.0001051
0.000116005
0.000138614
0.000172738
0.00019818
0.000218178
0.000261627
0.00031041
0.000346837
0.000376115
0.00041654
0.000474075
0.000534284
0.000577318
0.00061251
0.000679139
0.000755887
0.00082525
0.00088414
0.000946565
0.00100188
0.00109081
0.00117858
0.00132903
0.00130946
0.0013981
0.00106172
0.000756837
-0.00576092
-0.0372163
-0.299024
-0.787033
-0.825177
-0.82499
-0.823608
-0.820998
-0.818563
-0.814079
-0.803962
-0.781977
-0.753882
-0.676816
-0.576656
-0.446112
-0.352499
-0.257861
-0.186839
-0.132451
-0.101437
-0.0772042
-0.0708924
-0.0557546
-0.047308
-0.0273828
-0.0163727
-0.00246338
0.0084325
0.0394417
0.080063
0.155445
0.272142
0.371031
0.474358
0.593792
0.67823
0.756641
0.832721
0.880354
0.919677
0.956622
0.996071
1.01371
1.02627
1.02991
1.03741
1.04627
1.05419
1.05866
1.0588
1.05991
1.06384
1.06057
1.05792
1.04691
1.03261
1.01097
0.975978
0.925916
0.851634
0.749473
0.629538
0.551606
0.503517
0.481327
0.482874
0.492041
0.513747
0.511392
0.532493
0.496505
0.465567
0.379348
0.327923
0.244613
0.251321
1.44982e-06
4.60746e-05
3.15703e-05
3.17347e-05
3.06031e-05
3.12416e-05
3.57337e-05
3.79936e-05
4.44964e-05
4.56957e-05
5.95388e-05
6.366e-05
7.06375e-05
8.93812e-05
0.000115745
0.000124657
0.000149376
0.000183429
0.000218239
0.000243244
0.000278947
0.000329109
0.00038286
0.000415473
0.000461943
0.00051112
0.000590131
0.000661729
0.000711436
0.000772745
0.000847852
0.000933884
0.00100666
0.00107491
0.0011321
0.00113873
0.00121942
0.00120919
0.00125958
0.0010396
0.000863726
-0.00112564
-0.00979517
-0.0729157
-0.477051
-0.813277
-0.841387
-0.839628
-0.835074
-0.83228
-0.829915
-0.829844
-0.82462
-0.811228
-0.784696
-0.754629
-0.668356
-0.566453
-0.409526
-0.298493
-0.195657
-0.120152
-0.0971749
-0.0604229
-0.0457615
-0.0145879
0.0209956
0.0451033
0.112103
0.189287
0.245326
0.266537
0.333169
0.400878
0.475481
0.539433
0.596181
0.659366
0.713251
0.770953
0.823466
0.88459
0.940801
0.982477
1.01051
1.02075
1.0267
1.03784
1.05233
1.06026
1.0715
1.07716
1.07973
1.08041
1.07914
1.08083
1.07432
1.06265
1.04996
1.0297
1.00021
0.957227
0.893913
0.801331
0.679502
0.586679
0.531808
0.500416
0.498668
0.503986
0.52208
0.531616
0.546749
0.523378
0.507662
0.418667
0.36924
0.278981
0.281835
9.21196e-06
5.1219e-05
3.65687e-05
3.61595e-05
3.49324e-05
3.35268e-05
3.55149e-05
4.14013e-05
4.49332e-05
4.58091e-05
5.87728e-05
6.68966e-05
7.02866e-05
8.81127e-05
0.000116577
0.000127619
0.00014779
0.000182662
0.00021891
0.000240235
0.000278669
0.000323799
0.000378921
0.000408973
0.000447284
0.000501832
0.000571752
0.000636211
0.000673199
0.000720485
0.000784006
0.00087149
0.000911711
0.00098415
0.000999136
0.00106432
0.00118889
0.00134829
0.00168781
0.00172215
0.00215545
-0.000220352
-0.012108
-0.131274
-0.624565
-0.829143
-0.853342
-0.853137
-0.851073
-0.846033
-0.841355
-0.837169
-0.835047
-0.832966
-0.819475
-0.79238
-0.745969
-0.663643
-0.512915
-0.327499
-0.16832
-0.056019
0.0180983
0.0803732
0.167294
0.181458
0.251996
0.276526
0.343178
0.391013
0.433565
0.443535
0.479567
0.523566
0.567347
0.600288
0.633144
0.669345
0.703327
0.745047
0.785129
0.827845
0.889172
0.938734
0.96709
1.01058
1.04134
1.05606
1.07105
1.07613
1.07426
1.07798
1.08198
1.08476
1.08506
1.08383
1.08064
1.07962
1.06691
1.04894
1.02327
0.984742
0.928172
0.843916
0.727739
0.620163
0.556569
0.52033
0.510299
0.517379
0.52824
0.55058
0.552213
0.560383
0.540074
0.4602
0.412117
0.315451
0.31298
2.24212e-05
5.94416e-05
4.33187e-05
4.11416e-05
3.89924e-05
3.68462e-05
3.82099e-05
4.22439e-05
4.81522e-05
4.72471e-05
6.11203e-05
7.27987e-05
7.73127e-05
9.07008e-05
0.000121912
0.000139906
0.000157184
0.000190661
0.000234931
0.000260562
0.000295946
0.000338899
0.000397152
0.000447798
0.000486206
0.000531747
0.000602256
0.000680968