/*--------------------------------*- C++ -*----------------------------------*\
| =========                 |                                                 |
| \\      /  F ield         | OpenFOAM: The Open Source CFD Toolbox           |
|  \\    /   O peration     | Version:  2.2.x                                 |
|   \\  /    A nd           | Web:      www.OpenFOAM.org                      |
|    \\/     M anipulation  |                                                 |
\*---------------------------------------------------------------------------*/
FoamFile
{
    version     2.0;
    format      ascii;
    class       volScalarField;
    location    "1.95";
    object      Bz;
}
// * * * * * * * * * * * * * * * * * * * * * * * * * * * * * * * * * * * * * //

dimensions      [1 0 -2 0 0 -1 0];

internalField   nonuniform List<scalar> 
14161
(
-2.99712e-20
-3.00849e-20
-2.99311e-20
-2.96614e-20
-2.88979e-20
-3.07114e-20
-2.83733e-20
-2.88935e-20
-2.92531e-20
-2.80793e-20
-3.01951e-20
-2.82308e-20
-3.0061e-20
-2.84957e-20
-2.89451e-20
-2.83229e-20
-2.86091e-20
-2.85991e-20
-2.81997e-20
-2.8365e-20
-2.85645e-20
-2.79697e-20
-2.7939e-20
-2.7789e-20
-2.78847e-20
-2.75948e-20
-2.72877e-20
-2.71734e-20
-2.68941e-20
-2.69189e-20
-2.64029e-20
-2.6354e-20
-2.61976e-20
-2.61629e-20
-2.59631e-20
-2.59751e-20
-2.58736e-20
-2.58408e-20
-2.58041e-20
-2.57377e-20
-2.56243e-20
-2.55958e-20
-2.55668e-20
-2.56658e-20
-2.93275e-20
3.97076e-19
2.67729e-18
9.76862e-18
9.31901e-18
6.67124e-18
4.6701e-18
4.67613e-18
2.53606e-18
2.37853e-18
2.09704e-18
2.03111e-18
1.91631e-18
1.79443e-18
1.64475e-18
1.61181e-18
1.35747e-18
1.32959e-18
1.23975e-18
1.10793e-18
1.03781e-18
9.79514e-19
9.36861e-19
9.00404e-19
8.29634e-19
7.37345e-19
6.84314e-19
6.79641e-19
6.57253e-19
5.89831e-19
5.74117e-19
5.53945e-19
5.31675e-19
4.97561e-19
4.72198e-19
3.9323e-19
3.01525e-19
1.98938e-19
8.35686e-20
-1.64079e-19
-3.68581e-19
-6.76816e-19
-9.8176e-19
-1.31822e-18
-1.69363e-18
-1.92201e-18
-1.96498e-18
-1.9669e-18
-2.0081e-18
-2.04205e-18
-2.16439e-18
-2.52793e-18
-2.83592e-18
-3.25558e-18
-4.12379e-18
-4.68242e-18
-5.67656e-18
-6.04607e-18
-6.59907e-18
-6.65296e-18
-6.89131e-18
-6.29029e-18
-5.76039e-18
-4.82101e-18
-3.97388e-18
-2.9692e-18
-2.31261e-18
-1.35425e-18
-1.20732e-18
-2.30929e-19
-3.80962e-19
7.60427e-19
-2.63937e-20
3.20411e-19
1.80646e-18
4.28492e-20
4.37676e-20
4.37079e-20
4.28547e-20
4.34517e-20
4.19724e-20
4.47881e-20
3.96959e-20
4.51087e-20
3.99706e-20
4.4656e-20
4.03546e-20
4.53023e-20
4.05635e-20
4.28597e-20
4.04828e-20
4.37537e-20
4.07881e-20
4.28379e-20
4.0665e-20
4.16124e-20
4.14829e-20
4.09874e-20
4.12234e-20
4.22942e-20
4.26484e-20
4.16519e-20
4.26289e-20
4.12807e-20
4.28415e-20
4.15643e-20
4.2216e-20
4.23127e-20
4.21671e-20
4.17917e-20
4.23279e-20
4.1839e-20
4.20776e-20
4.19684e-20
4.20508e-20
4.18621e-20
4.18045e-20
3.9413e-20
4.81099e-20
1.20201e-19
7.9728e-19
3.40621e-18
7.1484e-18
5.17662e-18
1.60376e-18
1.11558e-18
1.17615e-18
1.18016e-18
1.09128e-18
1.09453e-18
9.75801e-19
8.3413e-19
7.28296e-19
7.1979e-19
5.98601e-19
6.48999e-19
6.11425e-19
6.03292e-19
5.97423e-19
5.86175e-19
6.50418e-19
5.82835e-19
5.16284e-19
4.97133e-19
3.92967e-19
4.12713e-19
2.60301e-19
1.25948e-19
9.08892e-20
-1.65252e-19
-2.99614e-19
-5.30636e-19
-8.13251e-19
-1.11442e-18
-1.60505e-18
-2.06589e-18
-2.53299e-18
-3.08851e-18
-3.57777e-18
-4.00285e-18
-4.28405e-18
-4.69326e-18
-5.02512e-18
-5.59554e-18
-6.22136e-18
-6.55151e-18
-6.35497e-18
-6.50661e-18
-6.34706e-18
-6.58363e-18
-6.59735e-18
-6.80283e-18
-6.61933e-18
-6.61441e-18
-6.4469e-18
-6.70595e-18
-6.49609e-18
-6.70649e-18
-6.07762e-18
-6.04561e-18
-5.11735e-18
-5.12297e-18
-4.34376e-18
-3.79012e-18
-3.14072e-18
-2.03696e-18
-1.25743e-18
-4.59653e-19
5.61451e-19
4.96199e-19
1.09656e-18
-1.417e-20
3.01655e-18
2.06614e-18
8.5493e-20
8.40382e-20
8.39058e-20
8.43201e-20
8.68608e-20
8.09431e-20
8.90031e-20
7.68592e-20
8.8318e-20
7.55511e-20
8.79146e-20
7.74436e-20
8.03806e-20
7.68499e-20
8.08123e-20
7.60809e-20
7.74091e-20
7.33178e-20
7.58817e-20
7.4214e-20
7.14022e-20
6.73562e-20
6.79262e-20
6.58715e-20
6.19833e-20
6.21615e-20
6.07361e-20
6.00847e-20
5.86683e-20
6.04658e-20
5.94511e-20
6.08769e-20
5.92836e-20
6.07154e-20
5.99184e-20
6.0114e-20
5.99605e-20
5.98934e-20
5.98548e-20
5.98506e-20
5.97524e-20
5.99397e-20
5.98398e-20
5.81527e-20
1.16284e-19
6.7081e-19
3.30322e-18
4.2469e-18
3.17918e-18
1.07889e-18
7.96714e-19
2.87553e-19
3.66662e-19
4.7673e-19
3.50799e-19
3.76027e-19
4.97588e-19
2.62506e-19
6.19332e-19
2.90922e-19
4.84232e-19
5.47688e-19
3.33411e-19
4.54187e-19
4.60273e-19
5.17779e-19
3.30783e-19
2.91082e-19
1.16754e-19
-3.82725e-20
-3.31784e-19
-5.12719e-19
-7.22865e-19
-1.19247e-18
-1.32289e-18
-1.96839e-18
-2.20766e-18
-2.69056e-18
-3.26774e-18
-3.90779e-18
-4.5729e-18
-5.67653e-18
-6.24954e-18
-6.61995e-18
-6.92805e-18
-7.31064e-18
-7.66637e-18
-8.19966e-18
-8.33553e-18
-8.31036e-18
-7.98318e-18
-7.62383e-18
-7.62494e-18
-7.31386e-18
-7.48911e-18
-7.29282e-18
-7.43997e-18
-7.28493e-18
-7.16168e-18
-6.78578e-18
-6.2375e-18
-6.37931e-18
-6.55225e-18
-7.15931e-18
-5.58408e-18
-3.72549e-18
-2.66579e-18
-3.99347e-18
-3.32854e-18
-3.38711e-18
-2.61156e-18
-2.47227e-18
-1.88489e-18
-3.69264e-19
2.13733e-19
1.50618e-18
6.16032e-19
1.03691e-19
1.1239e-18
-3.49171e-20
-3.37062e-20
-3.2522e-20
-3.20729e-20
-3.29105e-20
-3.43815e-20
-3.36314e-20
-3.22298e-20
-2.91536e-20
-3.11398e-20
-2.77036e-20
-3.01352e-20
-2.67792e-20
-2.2559e-20
-2.18822e-20
-1.12791e-20
-1.81715e-20
-8.72684e-21
-1.88237e-20
-6.0659e-21
-5.89604e-21
2.37884e-21
4.38262e-21
8.25788e-21
1.3775e-20
1.25429e-20
1.62476e-20
2.19779e-20
2.46104e-20
2.22068e-20
2.37547e-20
2.47844e-20
2.62114e-20
2.67962e-20
2.82715e-20
2.93811e-20
2.96752e-20
3.06176e-20
3.11672e-20
3.11702e-20
3.14409e-20
3.20225e-20
3.7077e-20
5.29298e-20
1.31143e-19
6.78865e-19
3.0509e-18
3.57224e-18
2.83121e-18
1.47794e-18
1.02432e-18
2.01604e-20
2.52119e-19
5.33025e-19
4.21699e-19
5.44162e-19
4.18854e-19
4.69059e-19
5.07946e-19
4.99512e-19
5.44548e-19
5.68476e-19
5.20008e-19
6.24696e-19
4.40325e-19
5.62437e-19
5.54453e-19
2.92237e-19
1.86193e-19
1.16169e-20
-5.69445e-20
-2.1908e-19
-4.04488e-19
-6.38849e-19
-8.76383e-19
-1.11669e-18
-1.48265e-18
-1.88565e-18
-2.53316e-18
-3.28172e-18
-4.12694e-18
-4.8818e-18
-5.57755e-18
-6.14071e-18
-6.57283e-18
-6.96921e-18
-7.57688e-18
-7.58363e-18
-7.57998e-18
-7.8787e-18
-7.44969e-18
-8.14422e-18
-8.09438e-18
-7.87989e-18
-8.49348e-18
-7.71284e-18
-7.75432e-18
-7.5301e-18
-7.00952e-18
-6.90786e-18
-6.6765e-18
-4.19143e-18
-3.39978e-18
-5.46473e-18
-6.53155e-18
-5.56369e-18
-4.94908e-18
-4.9734e-18
-5.5709e-18
-6.88063e-18
-4.75009e-18
-3.059e-18
-2.18649e-18
-7.99318e-19
-7.68777e-20
-1.17007e-18
3.47314e-19
2.33845e-19
1.10601e-18
5.56687e-20
5.83258e-20
5.78194e-20
5.98609e-20
5.55093e-20
7.79516e-20
7.00794e-20
8.4672e-20
6.74297e-20
1.00102e-19
7.79456e-20
9.4707e-20
1.0507e-19
1.06549e-19
1.11918e-19
9.90503e-20
1.19226e-19
1.12658e-19
1.27585e-19
1.19291e-19
1.21371e-19
1.25714e-19
1.25478e-19
1.26739e-19
1.32376e-19
1.37132e-19
1.40388e-19
1.4061e-19
1.43272e-19
1.4934e-19
1.51342e-19
1.50336e-19
1.52933e-19
1.5332e-19
1.52395e-19
1.54929e-19
1.56465e-19
1.54259e-19
1.57876e-19
1.52556e-19
1.63467e-19
1.39588e-19
1.94476e-19
2.69148e-19
5.55606e-19
1.65076e-18
5.59439e-18
6.60118e-18
5.07656e-18
2.702e-18
1.84288e-18
-1.82463e-19
2.07136e-19
4.64823e-19
4.64597e-19
4.95878e-19
5.19418e-19
5.69144e-19
5.19567e-19
4.66938e-19
5.22331e-19
5.03268e-19
6.04997e-19
5.72446e-19
4.23041e-19
5.96028e-19
7.40758e-19
6.55038e-19
4.6307e-19
4.56745e-19
5.01279e-19
2.98279e-19
1.8283e-19
2.94735e-21
-1.27226e-19
-3.75887e-19
-5.7427e-19
-9.22382e-19
-1.4406e-18
-2.11244e-18
-2.92757e-18
-3.59027e-18
-4.40954e-18
-5.00889e-18
-5.19259e-18
-5.92474e-18
-5.95612e-18
-6.69277e-18
-7.08609e-18
-6.78126e-18
-8.05016e-18
-7.71199e-18
-7.40049e-18
-9.30868e-18
-7.13065e-18
-8.17115e-18
-8.51806e-18
-7.56951e-18
-6.66635e-18
-5.13747e-18
-6.56461e-18
-6.61103e-18
-5.72003e-18
-6.95888e-18
-7.33693e-18
-4.81278e-18
-4.58013e-18
-4.61878e-18
-6.33728e-18
-6.39411e-18
-4.61828e-18
-2.47917e-18
-2.23826e-18
-4.20467e-19
-7.22935e-19
3.94088e-19
1.76106e-19
5.2767e-19
1.09583e-18
2.88254e-19
2.86958e-19
2.88247e-19
2.86666e-19
2.82877e-19
2.77102e-19
2.54574e-19
2.897e-19
2.62261e-19
2.71902e-19
2.6338e-19
2.90499e-19
2.27333e-19
2.77202e-19
2.41998e-19
2.72035e-19
2.33787e-19
2.6521e-19
2.57808e-19
2.52783e-19
2.5534e-19
2.56023e-19
2.61624e-19
2.60911e-19
2.60472e-19
2.58701e-19
2.58636e-19
2.55572e-19
2.56064e-19
2.52004e-19
2.54636e-19
2.51146e-19
2.52315e-19
2.51094e-19
2.51546e-19
2.51716e-19
2.52946e-19
2.52427e-19
2.52387e-19
2.49814e-19
2.55118e-19
2.67838e-19
3.09598e-19
4.49463e-19
9.45188e-19
2.69508e-18
8.94093e-18
1.05638e-17
7.03768e-18
3.40475e-18
1.94689e-18
-5.55087e-19
-6.58449e-20
2.34404e-19
3.54032e-19
4.97093e-19
4.78681e-19
5.10112e-19
5.87505e-19
5.66321e-19
4.35406e-19
1.88797e-19
6.63224e-19
6.99383e-19
3.25253e-19
2.21502e-19
7.37493e-19
8.83667e-19
3.3649e-19
1.99168e-19
3.59452e-19
4.9624e-19
4.69645e-19
2.88551e-19
1.57297e-19
7.92427e-20
-2.79459e-20
-1.93286e-19
-4.4342e-19
-8.39003e-19
-1.45742e-18
-2.19605e-18
-2.62696e-18
-3.37782e-18
-3.96526e-18
-4.41454e-18
-5.28267e-18
-5.2986e-18
-5.74523e-18
-6.81806e-18
-6.62706e-18
-6.99023e-18
-1.03764e-17
-5.78748e-18
-7.33906e-18
-1.27634e-17
-5.26939e-18
-5.54275e-18
-1.00699e-17
-8.10658e-18
-5.69039e-18
-2.66751e-18
-2.22362e-18
-4.62664e-18
-5.48907e-18
-3.90125e-18
-5.11609e-18
-5.07336e-18
-5.73415e-18
-4.82713e-18
-4.20075e-18
-2.34433e-18
-2.95811e-18
-1.14936e-18
-5.93916e-19
1.3519e-18
1.70243e-20
2.27578e-18
1.19113e-18
2.90667e-19
2.82532e-19
2.79554e-19
2.75736e-19
2.8014e-19
2.79718e-19
2.64322e-19
2.59903e-19
2.56195e-19
2.29013e-19
2.40526e-19
2.12765e-19
2.47664e-19
2.21949e-19
2.01649e-19
1.94247e-19
2.14531e-19
2.07711e-19
2.03023e-19
2.08597e-19
2.0244e-19
2.01536e-19
2.00693e-19
2.01529e-19
1.96542e-19
1.98593e-19
1.99303e-19
2.03376e-19
2.05795e-19
2.0095e-19
2.04224e-19
2.08451e-19
2.09638e-19
2.11059e-19
2.13028e-19
2.15216e-19
2.16738e-19
2.18525e-19
2.21071e-19
2.22414e-19
2.24505e-19
2.21912e-19
2.28074e-19
2.40765e-19
3.97605e-19
2.08812e-18
9.22284e-18
1.06792e-17
7.56249e-18
3.78177e-18
2.7116e-18
8.61669e-19
1.41627e-18
1.63336e-18
1.68911e-18
1.59507e-18
1.68979e-18
1.52201e-18
1.39052e-18
1.26811e-18
1.16055e-18
1.23458e-18
9.64141e-19
7.59544e-19
7.40406e-19
8.79488e-19
7.80127e-19
5.47804e-19
3.59137e-19
6.18381e-19
7.37335e-19
5.79171e-19
5.09223e-19
5.17128e-19
5.50509e-19
5.90327e-19
5.89158e-19
5.41472e-19
4.27966e-19
3.88403e-19
-2.70519e-20
-1.72947e-19
-6.47007e-19
-1.53688e-18
-1.92007e-18
-3.08173e-18
-2.80831e-18
-4.73644e-18
-4.02786e-18
-5.71308e-18
-6.81081e-18
-7.48959e-18
-6.68129e-18
-8.50427e-18
-1.73508e-17
3.97381e-18
-3.22734e-18
-1.60056e-17
-4.95832e-18
4.45668e-18
3.29163e-19
-3.85719e-18
-3.69375e-18
-2.85222e-18
-4.00209e-18
-3.71785e-18
-4.48236e-18
-5.14093e-18
-5.42753e-18
-4.25115e-18
-4.72083e-18
-2.13746e-18
-3.52726e-18
-1.77388e-18
-2.44824e-19
9.85546e-19
4.80034e-19
1.12103e-18
1.28531e-18
2.458e-21
1.17018e-20
1.40335e-20
1.13373e-20
1.36003e-20
1.64871e-20
5.96549e-20
2.78402e-20
6.61026e-20
5.80026e-20
9.56659e-20
8.25275e-20
1.03058e-19
1.12297e-19
1.5951e-19
1.45909e-19
1.71246e-19
1.68331e-19
1.61899e-19
1.84711e-19
1.72918e-19
1.62651e-19
1.6678e-19
1.68463e-19
1.88531e-19
1.97016e-19
2.03196e-19
2.10209e-19
2.11338e-19
2.23087e-19
2.20505e-19
2.28264e-19
2.25589e-19
2.31894e-19
2.30214e-19
2.30212e-19
2.30773e-19
2.30359e-19
2.31492e-19
2.3241e-19
2.33152e-19
2.34034e-19
2.38473e-19
2.67154e-19
5.18531e-19
2.50171e-18
1.19113e-17
1.91087e-17
1.33406e-17
7.5754e-18
5.56949e-18
2.99762e-18
3.51628e-18
3.48985e-18
3.45419e-18
3.3787e-18
3.07e-18
3.00649e-18
2.76329e-18
2.89062e-18
2.08493e-18
1.97513e-18
1.70077e-18
1.6748e-18
1.56423e-18
1.43546e-18
1.13886e-18
1.06745e-18
1.13965e-18
1.11935e-18
1.10088e-18
1.03551e-18
1.02602e-18
1.07514e-18
1.09577e-18
1.09338e-18
1.08163e-18
1.06938e-18
1.09448e-18
1.05446e-18
8.90043e-19
1.07111e-18
1.1524e-18
1.30683e-18
5.62485e-19
-2.49192e-19
-1.9258e-18
-1.2977e-18
-3.61769e-18
-6.04263e-18
-2.49484e-18
-9.01376e-18
-8.63523e-18
-6.89142e-18
-2.08757e-18
-1.00812e-17
-3.50049e-17
-8.49262e-18
5.36019e-18
-1.36107e-17
-1.77457e-17
-1.20964e-17
-5.54261e-18
-5.56618e-18
-6.22508e-18
-5.2006e-18
-5.07733e-18
-6.31281e-18
-4.71253e-18
-4.25274e-18
-5.10756e-18
-3.68339e-18
-2.99404e-18
-1.75507e-18
-2.36711e-19
8.95191e-19
8.98103e-19
-7.58989e-19
1.18913e-18
1.05159e-19
1.20558e-19
1.33619e-19
1.58013e-19
1.58155e-19
1.72234e-19
1.8956e-19
1.67518e-19
2.16899e-19
2.06528e-19
2.08634e-19
2.39289e-19
2.32615e-19
2.60216e-19
2.53235e-19
2.68642e-19
2.54609e-19
2.80255e-19
2.98048e-19
2.8338e-19
2.90449e-19
3.1757e-19
3.23202e-19
3.24306e-19
3.12956e-19
3.12387e-19
3.08063e-19
3.07554e-19
2.88624e-19
2.99068e-19
2.81786e-19
2.87164e-19
2.82229e-19
2.82889e-19
2.76555e-19
2.76326e-19
2.773e-19
2.77559e-19
2.78328e-19
2.77982e-19
2.78842e-19
2.78267e-19
2.71643e-19
2.95632e-19
3.47216e-19
5.20242e-19
-3.17493e-19
4.19407e-17
3.30884e-17
2.06628e-17
1.55025e-17
9.06805e-18
9.29434e-18
7.66335e-18
7.29144e-18
5.54489e-18
5.17733e-18
4.55074e-18
4.18459e-18
3.76753e-18
3.27001e-18
2.80076e-18
2.55787e-18
2.27429e-18
2.12784e-18
1.95705e-18
1.82595e-18
1.71857e-18
1.60346e-18
1.47154e-18
1.39907e-18
1.36962e-18
1.36446e-18
1.37286e-18
1.3074e-18
1.34692e-18
1.334e-18
1.32591e-18
1.31862e-18
1.31888e-18
1.41659e-18
1.76369e-18
2.5684e-18
3.35103e-18
2.38339e-18
1.38226e-18
2.68834e-18
-1.99452e-18
-1.04967e-18
-2.13083e-18
-5.88477e-18
-4.64204e-18
-4.28031e-18
-1.56684e-17
-1.74892e-17
-5.11171e-18
7.25101e-18
2.76332e-17
-8.29143e-18
-1.98978e-17
-4.75072e-18
4.03453e-18
3.33442e-18
-3.61461e-18
-6.95011e-18
-5.40898e-18
-5.44216e-18
-7.51591e-18
-5.6084e-18
-4.00955e-18
-4.93847e-18
-4.26908e-18
-4.70256e-18
-9.29115e-19
-1.58365e-18
1.65885e-19
7.49299e-19
-9.30229e-20
1.50214e-18
2.99483e-19
2.9498e-19
2.94403e-19
2.87856e-19
3.07796e-19
3.10459e-19
2.43528e-19
3.04454e-19
2.31514e-19
3.31863e-19
2.86181e-19
2.81637e-19
3.28245e-19
2.33312e-19
3.13577e-19
2.75402e-19
2.90027e-19
2.64222e-19
2.81748e-19
2.6045e-19
2.76769e-19
2.48788e-19
2.39759e-19
2.36764e-19
2.37552e-19
2.50328e-19
2.34792e-19
2.26552e-19
2.37357e-19
2.14421e-19
2.28338e-19
2.18396e-19
2.24149e-19
2.24705e-19
2.28525e-19
2.31007e-19
2.30698e-19
2.30067e-19
2.30684e-19
2.31221e-19
2.30846e-19
2.29279e-19
2.29839e-19
2.24249e-19
2.41991e-19
2.21162e-18
1.11191e-17
4.33526e-17
4.38258e-17
2.60952e-17
1.99648e-17
1.64313e-17
1.39994e-17
1.06272e-17
9.01852e-18
6.5703e-18
5.61668e-18
4.79267e-18
4.1946e-18
3.73294e-18
3.28669e-18
2.87931e-18
2.58247e-18
2.30564e-18
2.16719e-18
2.00412e-18
1.89238e-18
1.77769e-18
1.70399e-18
1.62152e-18
1.56142e-18
1.52431e-18
1.50144e-18
1.47641e-18
1.48293e-18
1.41315e-18
1.40328e-18
1.43625e-18
1.36194e-18
1.36029e-18
1.64496e-18
2.46788e-18
3.94179e-18
4.81248e-18
3.64749e-18
3.64426e-18
2.1814e-18
-9.83988e-19
2.89851e-18
-3.31524e-18
-3.32e-18
-6.21416e-18
-7.26134e-19
-1.0962e-18
5.61519e-18
-1.38381e-17
-2.54728e-17
-2.7199e-17
-4.37801e-17
-8.36788e-18
1.53845e-17
5.73423e-18
-3.18224e-18
-3.6311e-18
-1.84101e-18
-8.06047e-19
-1.90511e-18
-5.17787e-18
-4.48632e-18
-3.39772e-18
-4.66595e-18
-4.82297e-18
-4.58805e-18
-1.43465e-18
-3.20591e-18
5.42462e-19
3.37643e-19
-1.39389e-19
1.19249e-18
2.59975e-19
2.50024e-19
2.46424e-19
2.53217e-19
2.38159e-19
2.09957e-19
2.25189e-19
2.43514e-19
2.36662e-19
2.05512e-19
1.72343e-19
2.03577e-19
1.49283e-19
1.89479e-19
1.1577e-19
1.41541e-19
9.81818e-20
1.3056e-19
7.88264e-20
1.10071e-19
8.94235e-20
1.01758e-19
1.22726e-19
1.27135e-19
1.29295e-19
1.20261e-19
1.42297e-19
1.63272e-19
1.6131e-19
1.85847e-19
1.77922e-19
1.86649e-19
1.83908e-19
1.9225e-19
1.94298e-19
1.95342e-19
2.01758e-19
2.04296e-19
2.05078e-19
2.09498e-19
2.12868e-19
2.12272e-19
2.09914e-19
2.32802e-19
3.4044e-19
9.72688e-19
7.97631e-18
4.10154e-17
4.69503e-17
2.92311e-17
2.32474e-17
1.83336e-17
1.5256e-17
1.11777e-17
8.34252e-18
6.88722e-18
5.4882e-18
4.8075e-18
4.12841e-18
3.67875e-18
3.19603e-18
2.78678e-18
2.47768e-18
2.2047e-18
1.96013e-18
1.83271e-18
1.74317e-18
1.6141e-18
1.56073e-18
1.53774e-18
1.50741e-18
1.44858e-18
1.53708e-18
1.52972e-18
1.45062e-18
1.36706e-18
1.33758e-18
1.36087e-18
1.29086e-18
1.73831e-18
2.11242e-18
3.82587e-18
5.03324e-18
5.42737e-18
4.06778e-18
3.98935e-18
1.82687e-18
2.21999e-18
-3.70001e-19
-7.76669e-19
6.0106e-18
-4.53666e-18
-1.39491e-17
-2.03065e-17
-1.31212e-17
-1.82229e-17
-4.23862e-18
4.07119e-19
-9.48269e-19
2.00749e-17
1.00449e-17
-1.58371e-17
-1.43889e-17
-3.86625e-18
-1.69187e-18
-1.33849e-18
4.26475e-19
-1.13393e-18
-2.27858e-18
-3.7041e-18
-3.70268e-18
-4.24902e-18
-4.67133e-18
-4.21459e-18
-3.75059e-18
-1.86166e-18
8.71194e-19
-9.84908e-20
7.19561e-19
1.87829e-19
1.87117e-19
1.86972e-19
1.72043e-19
1.93619e-19
1.53966e-19
2.483e-19
1.24023e-19
1.71969e-19
1.33472e-19
2.31176e-19
1.39042e-19
1.90324e-19
1.5018e-19
1.89375e-19
1.70288e-19
2.0217e-19
1.8359e-19
2.16269e-19
2.18908e-19
2.18557e-19
2.45316e-19
2.41688e-19
2.39211e-19
2.45615e-19
2.48769e-19
2.48354e-19
2.39126e-19
2.70756e-19
2.6289e-19
2.78842e-19
2.80055e-19
2.81116e-19
2.87675e-19
2.87986e-19
2.90173e-19
2.88888e-19
2.89025e-19
2.8914e-19
2.88974e-19
2.89463e-19
2.87721e-19
2.91656e-19
3.07632e-19
3.91864e-19
1.10711e-18
6.70222e-18
3.24744e-17
3.70962e-17
2.55678e-17
1.93306e-17
1.67344e-17
1.34127e-17
9.87625e-18
7.50627e-18
6.16702e-18
5.18033e-18
4.3429e-18
3.77877e-18
3.32984e-18
2.97249e-18
2.60866e-18
2.35106e-18
2.15037e-18
1.9232e-18
1.86963e-18
1.7751e-18
1.60244e-18
1.55212e-18
1.57319e-18
1.64614e-18
1.58293e-18
1.54351e-18
1.44472e-18
1.44061e-18
1.37184e-18
1.44279e-18
1.36825e-18
1.48972e-18
2.07321e-18
3.0981e-18
5.17469e-18
6.29421e-18
4.89633e-18
3.99352e-18
3.44096e-18
2.15718e-18
2.69423e-18
-2.5354e-18
-4.55163e-18
-4.65374e-18
-4.31331e-19
1.62695e-17
1.05889e-17
1.16922e-17
3.3132e-18
1.02787e-17
1.45923e-18
-5.05566e-18
5.7372e-18
-2.19214e-17
-3.12885e-17
-1.04104e-17
-5.70284e-18
-5.0926e-18
-2.6404e-18
-1.24605e-18
-2.18823e-18
-3.12212e-18
-4.07994e-18
-3.3753e-18
-4.4235e-18
-4.19119e-18
-4.74903e-18
-3.75133e-18
-9.37372e-19
1.35494e-18
-5.83931e-19
-6.92655e-20
2.93222e-19
2.9879e-19
2.96765e-19
2.82396e-19
2.78453e-19
2.99156e-19
2.96042e-19
3.11209e-19
3.09879e-19
3.23683e-19
3.06707e-19
3.21872e-19
3.25227e-19
3.12238e-19
3.55715e-19
3.36502e-19
3.54363e-19
3.55802e-19
4.01339e-19
3.66403e-19
4.20902e-19
3.81718e-19
3.93388e-19
3.80048e-19
3.80957e-19
3.93044e-19
3.88672e-19
3.97688e-19
3.73215e-19
3.7007e-19
3.60357e-19
3.68631e-19
3.54956e-19
3.62996e-19
3.55633e-19
3.61383e-19
3.57199e-19
3.59109e-19
3.55022e-19
3.52966e-19
3.50802e-19
3.45824e-19
3.44166e-19
3.47811e-19
3.5734e-19
8.06526e-19
4.11135e-18
2.20498e-17
2.89602e-17
2.61382e-17
1.99773e-17
1.4312e-17
1.1749e-17
5.74254e-18
5.71962e-18
4.29258e-18
4.1586e-18
3.35615e-18
3.10711e-18
2.60691e-18
2.44706e-18
2.14774e-18
1.92035e-18
1.842e-18
1.7786e-18
1.69876e-18
1.68986e-18
1.65538e-18
1.6056e-18
1.56294e-18
1.47946e-18
1.46775e-18
1.46513e-18
1.45567e-18
1.51469e-18
1.38501e-18
1.38733e-18
1.46194e-18
1.75882e-18
2.52875e-18
3.6721e-18
6.55945e-18
3.65044e-18
5.26977e-18
5.20268e-18
1.24304e-18
-3.25283e-18
3.2827e-18
8.5433e-18
9.71735e-18
1.21945e-18
-9.33915e-18
-1.83942e-17
-2.23306e-17
-2.60584e-17
-3.60313e-17
-2.48215e-17
-3.11026e-17
-2.79736e-17
-1.27113e-17
-4.06329e-17
-1.41123e-17
7.38232e-18
-9.27844e-19
-1.5328e-18
-4.14827e-18
-4.53413e-18
-5.16267e-18
-5.11045e-18
-4.55303e-18
-3.67802e-18
-5.14062e-18
-4.08754e-18
-3.4004e-18
-5.33914e-18
-2.77578e-18
-2.43507e-18
-1.83201e-18
1.63926e-20
3.70869e-19
3.7307e-19
3.98867e-19
3.99044e-19
3.69156e-19
4.53181e-19
2.61568e-19
3.69341e-19
3.68413e-19
4.49472e-19
3.33414e-19
4.44484e-19
3.17548e-19
4.88357e-19
4.41196e-19
4.43209e-19
4.3149e-19
4.05328e-19
4.5507e-19
4.36195e-19
4.37186e-19
4.06852e-19
4.18434e-19
3.97908e-19
4.12571e-19
3.94947e-19
3.95359e-19
3.89364e-19
3.79976e-19
3.81695e-19
3.85647e-19
3.81929e-19
3.76693e-19
3.70173e-19
3.65491e-19
3.61874e-19
3.61926e-19
3.59479e-19
3.57563e-19
3.56607e-19
3.56997e-19
3.52767e-19
3.53099e-19
3.57023e-19
4.07133e-19
8.37172e-19
4.31261e-18
1.46738e-17
1.98623e-17
2.19803e-17
1.79978e-17
1.26762e-17
9.30695e-18
6.50418e-18
4.72917e-18
3.64004e-18
3.29332e-18
2.81134e-18
2.44473e-18
2.13232e-18
1.95166e-18
1.79005e-18
1.51095e-18
1.40463e-18
1.23135e-18
1.27401e-18
1.27444e-18
1.25325e-18
1.36504e-18
1.44275e-18
1.28264e-18
1.29289e-18
1.33299e-18
1.36606e-18
1.32321e-18
1.29111e-18
1.24775e-18
1.41357e-18
1.87037e-18
2.90583e-18
4.62642e-18
4.12342e-18
8.28977e-18
1.58252e-19
-1.31634e-18
7.6576e-18
2.43692e-18
-1.26042e-17
-2.62706e-17
-1.82007e-17
-3.92758e-18
1.98966e-18
9.62944e-18
1.58124e-17
1.83576e-17
9.48869e-18
7.44919e-18
-1.09787e-17
-6.4324e-18
-5.32596e-19
-1.7292e-17
1.98389e-17
1.3334e-17
-5.06925e-19
-1.92405e-18
-4.07138e-18
-5.74349e-18
-5.68405e-18
-5.71911e-18
-5.45825e-18
-3.49093e-18
-4.7202e-18
-4.92034e-18
-6.02406e-18
-5.86266e-18
-5.01724e-18
-4.70309e-18
-2.86835e-18
-1.61512e-18
4.12241e-19
4.06489e-19
3.77679e-19
3.83672e-19
3.81676e-19
3.9349e-19
3.99679e-19
5.30495e-19
4.43352e-19
3.92077e-19
4.78071e-19
4.8211e-19
4.71254e-19
5.16455e-19
4.59219e-19
5.19932e-19
4.92872e-19
5.60226e-19
4.50808e-19
4.85143e-19
4.53584e-19
5.16474e-19
4.68015e-19
4.91311e-19
5.06864e-19
4.97715e-19
4.83158e-19
4.45276e-19
4.44889e-19
4.23589e-19
4.20437e-19
4.02561e-19
3.9231e-19
3.89381e-19
3.70495e-19
3.76553e-19
3.57249e-19
3.63888e-19
3.57769e-19
3.51574e-19
3.50678e-19
3.43768e-19
3.41386e-19
3.44258e-19
3.97496e-19
8.16231e-19
3.62259e-18
7.51634e-18
1.18637e-17
1.56206e-17
1.78295e-17
1.4361e-17
9.32817e-18
7.14686e-18
3.85551e-18
3.57377e-18
3.09643e-18
2.83008e-18
2.3444e-18
2.06818e-18
1.85964e-18
1.65264e-18
1.61445e-18
1.58775e-18
1.37936e-18
1.29875e-18
1.28934e-18
1.22885e-18
1.26964e-18
1.43173e-18
1.56742e-18
1.44765e-18
1.39856e-18
1.37953e-18
1.39645e-18
1.31617e-18
1.37468e-18
1.54637e-18
2.4677e-18
3.02181e-18
7.51088e-18
2.20387e-18
8.87999e-19
5.90058e-18
-5.33482e-18
-7.26773e-18
2.11853e-17
4.19003e-17
3.79975e-17
2.95765e-17
1.0117e-17
1.89399e-18
-6.26407e-18
-8.31923e-18
-1.55886e-18
-9.61894e-19
9.18273e-18
2.27769e-18
1.14764e-17
6.23504e-18
-9.64606e-19
2.64993e-17
3.64193e-18
-8.15471e-18
-1.57644e-18
-2.70064e-18
-5.3652e-18
-5.68748e-18
-4.84056e-18
-4.55092e-18
-3.18431e-18
-3.28193e-18
-3.95934e-18
-5.40766e-18
-5.33995e-18
-5.07522e-18
-5.94889e-18
-4.48453e-18
-6.66149e-18
5.05201e-19
4.78614e-19
4.67517e-19
4.85824e-19
4.88264e-19
5.90915e-19
5.40952e-19
6.42833e-19
5.65367e-19
6.54636e-19
5.36214e-19
4.48484e-19
6.11907e-19
4.90316e-19
5.35245e-19
5.00916e-19
5.1135e-19
4.67406e-19
3.96575e-19
4.69421e-19
4.45226e-19
4.67102e-19
4.15884e-19
4.71129e-19
3.7911e-19
4.2522e-19
3.69019e-19
3.8506e-19
3.74646e-19
3.70415e-19
3.65283e-19
3.42221e-19
3.50352e-19
3.31141e-19
3.26089e-19
3.19016e-19
3.20556e-19
3.11361e-19
3.08669e-19
3.00944e-19
3.03582e-19
2.90913e-19
2.87037e-19
2.85696e-19
3.40341e-19
7.11356e-19
2.90939e-18
5.13433e-18
7.70672e-18
9.75808e-18
1.30237e-17
1.37947e-17
1.06931e-17
8.40747e-18
4.88841e-18
3.89716e-18
3.17813e-18
2.8104e-18
2.43256e-18
2.14532e-18
1.77242e-18
1.65503e-18
1.60296e-18
1.44876e-18
1.27524e-18
1.26179e-18
1.16758e-18
1.18038e-18
1.23208e-18
1.34408e-18
1.50086e-18
1.55519e-18
1.39597e-18
1.308e-18
1.38306e-18
1.19927e-18
1.5425e-18
1.81156e-18
2.91389e-18
4.3777e-18
6.00915e-18
7.56396e-20
1.51613e-18
2.30648e-17
1.92508e-17
-2.936e-17
-5.50502e-17
-5.39735e-17
-4.79744e-17
-3.75291e-17
-3.60395e-17
-2.55733e-17
-2.32226e-17
-2.8643e-17
-2.52536e-17
-2.13579e-17
-1.2691e-17
-2.02151e-17
-7.83839e-18
-1.5703e-17
-1.22895e-17
1.02414e-17
-1.98119e-17
-1.37194e-17
2.4768e-18
-4.06895e-18
-4.56769e-18
-7.79984e-19
-1.92603e-18
-3.05335e-18
-2.93563e-18
-2.76384e-18
-3.50316e-18
-3.49434e-18
-3.67961e-18
-3.66551e-18
-8.01116e-18
-6.47409e-18
-1.45297e-18
5.82391e-19
6.28395e-19
6.13285e-19
5.93117e-19
5.57949e-19
4.94075e-19
4.59424e-19
4.80015e-19
3.84961e-19
5.42189e-19
3.65447e-19
5.85206e-19
4.04359e-19
5.45826e-19
3.83132e-19
4.79466e-19
3.92773e-19
4.5128e-19
4.82525e-19
4.09627e-19
3.45068e-19
3.76998e-19
3.51628e-19
3.55829e-19
3.30289e-19
3.15991e-19
3.48535e-19
3.56551e-19
3.39629e-19
3.18355e-19
3.19352e-19
3.0452e-19
2.88707e-19
2.82328e-19
2.78246e-19
2.66945e-19
2.69654e-19
2.50352e-19
2.44699e-19
2.35401e-19
2.3165e-19
2.26379e-19
2.2594e-19
2.27378e-19
2.63713e-19
6.10012e-19
1.79297e-18
2.65477e-18
3.10996e-18
3.72112e-18
5.50062e-18
8.29376e-18
9.41538e-18
8.67038e-18
6.84247e-18
4.38755e-18
3.54229e-18
2.78621e-18
2.66131e-18
2.24863e-18
2.13174e-18
1.80498e-18
1.67353e-18
1.51508e-18
1.31256e-18
1.28267e-18
1.32058e-18
1.33856e-18
1.42078e-18
1.42579e-18
1.5453e-18
1.33851e-18
1.31055e-18
1.27179e-18
1.49205e-18
1.43021e-18
2.09485e-18
1.79504e-18
5.20879e-18
-1.74197e-18
7.49735e-18
2.56121e-17
-5.29536e-17
-8.99815e-17
1.29736e-17
7.63042e-17
6.88873e-17
5.39017e-17
5.98514e-17
5.02143e-17
3.21732e-17
3.16128e-17
2.04026e-17
1.20371e-17
-1.12741e-18
-9.82841e-18
-1.28306e-17
-2.23599e-17
-1.57434e-17
-2.4672e-17
-1.53175e-17
-6.3188e-18
-3.03722e-17
-6.35397e-18
2.61007e-19
-5.49632e-18
-2.05351e-18
1.05798e-18
-1.15722e-18
-3.10074e-18
-3.10523e-18
-3.59872e-18
-3.78441e-18
-5.39537e-18
-5.53995e-18
-5.49317e-18
-8.5004e-18
-5.32764e-18
-6.29118e-18
5.34673e-19
5.12219e-19
5.40946e-19
5.51149e-19
6.49138e-19
5.25276e-19
7.47953e-19
5.04691e-19
7.01997e-19
4.92481e-19
6.56057e-19
5.68825e-19
4.8579e-19
5.1573e-19
4.24358e-19
5.26992e-19
3.72294e-19
5.37826e-19
3.9617e-19
5.15282e-19
4.10913e-19
4.84953e-19
4.50227e-19
4.27706e-19
3.72245e-19
4.1511e-19
3.46953e-19
3.38914e-19
2.86992e-19
2.87455e-19
2.73959e-19
2.62034e-19
2.43207e-19
2.56935e-19
2.24867e-19
2.10771e-19
1.96777e-19
1.87221e-19
1.82919e-19
1.76051e-19
1.71e-19
1.70415e-19
1.72515e-19
1.69214e-19
1.95959e-19
5.34135e-19
9.36567e-19
1.26217e-18
1.49143e-18
1.86742e-18
2.69153e-18
4.40134e-18
6.10068e-18
8.26886e-18
8.17145e-18
5.8685e-18
4.61663e-18
3.49901e-18
3.24725e-18
2.68787e-18
2.71238e-18
2.17998e-18
2.15138e-18
1.87951e-18
1.68986e-18
1.39753e-18
1.32771e-18
1.39408e-18
1.52196e-18
1.39246e-18
1.30818e-18
1.21849e-18
1.15499e-18
1.01772e-18
1.73332e-18
1.86268e-18
2.01132e-18
3.48506e-18
-2.93022e-18
1.84662e-17
-4.88416e-17
7.64075e-17
1.84327e-16
9.3004e-17
-5.41941e-17
-5.02471e-17
-2.45836e-17
-1.93101e-17
-2.42006e-17
-2.45986e-17
-1.61182e-17
-1.92386e-18
4.28466e-18
1.35479e-17
1.32726e-17
6.1045e-18
-9.98548e-19
-5.87913e-18
-1.18727e-18
-1.55754e-17
-9.44938e-18
-1.38714e-17
-3.14945e-17
-2.3285e-19
-8.7983e-19
-6.28042e-18
-9.33696e-19
-4.09339e-19
-6.30516e-19
-1.55887e-18
-2.99578e-18
-3.22022e-18
-2.24728e-18
-2.98965e-18
-6.25286e-18
-5.72905e-18
-7.60599e-18
-5.71825e-18
-7.78195e-18
5.9785e-19
6.00709e-19
5.5018e-19
5.14337e-19
5.08873e-19
6.24719e-19
5.59554e-19
5.3091e-19
5.61585e-19
4.21343e-19
5.9215e-19
2.84928e-19
6.38545e-19
3.28472e-19
5.42614e-19
2.85605e-19
5.13906e-19
3.03583e-19
4.33508e-19
2.85346e-19
3.17119e-19
2.83471e-19
2.11062e-19
2.19142e-19
2.01308e-19
1.72438e-19
1.1378e-19
1.06328e-19
8.806e-20
1.26545e-19
8.32224e-20
8.8815e-20
8.84382e-20
7.94436e-20
9.38872e-20
1.06151e-19
1.07878e-19
1.18314e-19
1.1834e-19
1.26412e-19
1.32354e-19
1.34197e-19
1.33018e-19
1.3311e-19
1.4472e-19
8.22468e-20
4.43958e-20
3.0257e-19
3.12571e-19
5.16424e-19
9.40988e-19
2.90713e-18
3.88033e-18
9.1269e-18
1.30162e-17
1.17537e-17
1.13731e-17
1.06531e-17
9.07032e-18
8.74522e-18
6.13827e-18
5.11287e-18
3.81881e-18
3.03068e-18
2.55103e-18
2.33928e-18
2.14062e-18
2.16854e-18
2.26276e-18
2.04201e-18
1.40061e-18
1.1727e-18
1.12656e-18
9.70581e-19
1.90059e-18
1.83433e-18
2.71633e-18
7.66958e-18
-1.09428e-17
1.10597e-16
-1.1699e-16
-2.93723e-16
-1.93965e-16
-5.55383e-17
-4.34779e-17
-6.20859e-17
-6.05753e-17
-4.36555e-17
-2.8656e-17
-2.14139e-17
-1.88444e-17
-2.24677e-17
-2.40994e-17
-1.24599e-17
-7.05797e-18
2.44926e-18
2.69949e-18
2.49279e-19
2.45625e-18
-9.07118e-18
-4.63709e-18
-1.23317e-17
-1.68207e-17
1.18605e-17
-1.65938e-18
-5.58443e-18
7.43635e-19
-9.55636e-19
-2.72101e-18
-2.07903e-18
-1.9645e-18
-2.7139e-18
-2.29904e-18
-2.8456e-18
-3.8948e-18
-4.32106e-18
-8.19647e-18
-6.31321e-18
-6.44864e-18
6.19927e-19
6.35658e-19
6.65391e-19
6.44003e-19
6.01729e-19
7.10716e-19
5.15614e-19
5.30729e-19
2.70421e-19
6.03852e-19
3.84838e-19
6.34239e-19
3.79543e-19
4.48286e-19
5.44609e-19
3.43278e-19
5.01722e-19
1.88145e-19
3.30305e-19
1.64738e-19
2.85011e-19
1.21782e-20
2.31886e-19
5.75607e-20
1.13141e-19
4.23574e-20
1.51565e-19
1.00323e-19
1.52201e-19
1.25416e-19
1.16232e-19
1.64549e-19
1.45957e-19
1.66809e-19
1.40619e-19
1.6093e-19
1.66149e-19
1.66764e-19
1.83707e-19
1.83284e-19
1.87947e-19
1.90678e-19
1.92741e-19
1.92676e-19
2.29474e-19
-7.27727e-20
-2.71177e-19
1.604e-19
-2.85469e-19
2.054e-19
2.8991e-19
3.85291e-18
3.44353e-18
1.24178e-17
1.76643e-17
2.35022e-17
4.52322e-17
3.9305e-17
3.5463e-17
2.71475e-17
2.02776e-17
1.42424e-17
1.08827e-17
8.05385e-18
6.93308e-18
7.11592e-18
4.3508e-18
4.05488e-18
2.9906e-18
1.69421e-18
4.96893e-19
-2.0315e-19
-3.27041e-19
-8.51045e-19
6.97699e-18
7.5384e-18
1.2836e-17
-7.44096e-17
-2.01152e-16
7.23156e-17
3.23215e-16
2.57048e-16
1.31878e-16
1.15646e-16
1.20184e-16
6.73069e-17
2.03997e-17
1.11999e-17
1.75964e-17
2.16933e-17
2.0232e-17
-4.48704e-18
-1.88945e-17
-1.94165e-17
-1.73092e-17
-1.23056e-17
-9.89123e-18
-5.2439e-18
-1.12141e-18
-4.37496e-18
5.88682e-18
-2.09791e-18
1.9864e-19
1.75413e-17
-7.08437e-18
-4.75115e-18
9.22267e-19
-2.43243e-18
-5.26222e-18
-3.21331e-18
-1.83036e-18
-1.46528e-18
-1.41703e-18
-3.14869e-18
-4.18447e-18
-6.08492e-18
-9.6246e-18
-8.45202e-18
-8.68479e-18
3.62211e-19
4.20242e-19
4.70287e-19
5.75403e-19
6.52372e-19
2.04059e-19
5.27833e-19
2.7566e-19
5.64038e-19
2.8721e-19