/*--------------------------------*- C++ -*----------------------------------*\
| =========                 |                                                 |
| \\      /  F ield         | OpenFOAM: The Open Source CFD Toolbox           |
|  \\    /   O peration     | Version:  2.2.x                                 |
|   \\  /    A nd           | Web:      www.OpenFOAM.org                      |
|    \\/     M anipulation  |                                                 |
\*---------------------------------------------------------------------------*/
FoamFile
{
    version     2.0;
    format      ascii;
    class       volScalarField;
    location    "1.95";
    object      pB;
}
// * * * * * * * * * * * * * * * * * * * * * * * * * * * * * * * * * * * * * //

dimensions      [1 1 -3 0 0 -1 0];

internalField   nonuniform List<scalar> 
14161
(
-0.0140896
0.00336036
-0.0010068
8.17538e-05
-0.000316018
-0.000220836
-0.00029426
-0.00028266
-0.000294354
-0.00029837
-0.000291128
-0.000292111
-0.000286163
-0.000277257
-0.000264785
-0.000247475
-0.000229925
-0.000203207
-0.000179783
-0.00014576
-0.000115494
-7.67359e-05
-4.89374e-05
6.97859e-06
4.80719e-05
0.000115146
0.000168684
0.000231349
0.000318054
0.000369287
0.000492777
0.000516741
0.000684921
0.000732697
0.000839491
0.000994283
0.00107855
0.00123634
0.00141595
0.0012053
0.00134468
0.000702183
0.000598673
-0.000923761
-0.00139193
-0.00352598
0.0592336
0.112829
-0.0220396
-0.00563649
-0.0134011
0.00164027
-0.00529383
0.00125639
-0.00239747
2.32091e-05
-0.00155019
0.000168829
-0.000968701
0.000273988
-0.000818825
0.000283721
0.000280752
0.000245953
0.000632293
-0.000282712
-0.000846675
-0.000792532
-0.000583659
-0.000191722
-0.000558295
-0.000275402
0.000646508
0.00101056
0.00070283
0.000431731
0.000689246
0.000240754
0.000476197
-0.00221702
-0.00378386
-0.00170643
0.000941034
0.00138391
0.00329795
0.00536166
-0.00114385
-0.00311633
-0.00306264
0.00273024
-0.000845141
0.00745463
0.00246485
0.00597721
-0.00440287
-0.0015653
-0.0163389
0.000488761
-0.00654579
0.0102861
-0.00368058
0.00929096
-0.00276524
0.00517054
-0.00273505
0.000873321
-0.00139048
0.00283739
-0.00383144
0.00442085
-0.00470956
0.00472598
-0.00486554
0.00494234
-0.00506929
0.0046984
-0.00598964
0.00584158
-0.00794634
-0.014102
0.00336924
-0.00100773
8.22772e-05
-0.000317
-0.00022114
-0.000294129
-0.000281937
-0.00029569
-0.00029819
-0.000290857
-0.00029283
-0.000285948
-0.000276924
-0.000262397
-0.000245763
-0.000226644
-0.000202711
-0.000177324
-0.000147391
-0.000116522
-7.89414e-05
-5.1096e-05
4.67565e-06
4.55727e-05
0.000107128
0.000154046
0.00023363
0.000272078
0.000378372
0.000409686
0.00052663
0.000551507
0.000676731
0.0007543
0.000863755
0.000970096
0.00092946
0.00108727
0.000810885
0.00104413
4.94336e-05
0.000225107
-0.00402165
0.00163112
-0.0300057
0.0577323
0.0606216
-0.0158747
0.0170389
-0.00316052
0.0131525
-0.00309866
0.00440981
-0.00258765
0.000787989
-0.000713795
0.000531288
-0.00109054
0.000547211
-0.000477374
0.000164003
0.000331075
0.000402404
0.000523
5.95651e-05
-0.0005726
-0.00110474
-0.00248046
-0.00218731
-0.00211448
-0.00084365
0.00150352
0.00419729
0.00526595
0.00432225
-0.000677318
-0.00298062
-0.00768021
-0.00910327
-0.00352678
0.0191641
0.0193422
0.00382539
-0.012386
-0.0201409
-0.0212368
0.00355717
0.0195431
0.0287147
0.0178915
0.0189519
-0.00585634
-0.00373591
-0.0232759
-0.00596288
-0.00499097
0.010572
0.00694093
0.0153538
0.00142228
-0.00181628
-0.011465
-0.0054971
-0.000119442
0.00736153
-0.00267389
0.00706048
-0.00536077
0.00575925
-0.00359925
0.0058329
-0.00361784
0.00416338
-0.00330849
0.0054113
-0.00395458
0.00494943
-0.00627945
-0.0140928
0.00336309
-0.0010077
8.02386e-05
-0.000317226
-0.000221562
-0.000294687
-0.000281259
-0.000296147
-0.000296286
-0.000293875
-0.000291158
-0.000285084
-0.000276973
-0.000264044
-0.000249204
-0.000229247
-0.000205734
-0.000179374
-0.000147399
-0.000116236
-7.71366e-05
-5.02754e-05
7.89641e-06
5.06069e-05
0.000119336
0.000170841
0.000257633
0.000308144
0.000426618
0.000477515
0.000624499
0.000686372
0.000848968
0.000958487
0.00114377
0.00134085
0.00160896
0.00184655
0.001765
0.0025191
0.00173222
0.00403099
0.00268293
0.00832654
0.00506543
0.0346468
0.083675
-0.0200115
0.023207
-0.0147305
0.0132346
-0.00554872
0.00363216
-0.002609
-0.000500095
-0.00130183
0.000546332
-0.00127977
0.000846377
-0.000681226
1.7833e-05
-0.00109461
-0.00143645
-0.00133154
-0.000702889
0.000374584
0.00185487
0.00297156
0.00403411
0.00341324
0.0024049
-0.00267678
-0.00808286
-0.00603412
-0.00518101
-0.00146586
0.00639141
0.0213996
0.0141461
-0.0063597
-0.0230754
-0.025569
-0.00554824
0.03278
0.060136
0.0327186
-0.0155659
-0.0578705
-0.0618189
-0.0459992
-0.0234932
0.00983345
0.0495222
0.0299762
0.021821
0.00373643
-0.012201
-0.0303773
-0.0139015
-0.000953041
0.0174476
0.00966975
0.018033
-0.00228392
-0.00526299
-0.00998137
0.0039531
-0.0026426
0.00654546
-0.0048032
0.0026195
-0.00569801
0.0065575
-0.0061041
0.00504865
-0.00624469
0.00560259
-0.00558318
-0.0140892
0.00335534
-0.00100764
7.9737e-05
-0.0003175
-0.000221348
-0.000294522
-0.000281169
-0.000296943
-0.000296276
-0.000294428
-0.000293443
-0.00028612
-0.000277722
-0.000262174
-0.000247995
-0.000230974
-0.000206412
-0.000181004
-0.000150241
-0.000119612
-8.05114e-05
-5.58619e-05
-1.68417e-06
3.56046e-05
9.26368e-05
0.000141661
0.000200706
0.000257407
0.000312746
0.000383176
0.000432316
0.000497376
0.000557847
0.00062571
0.000751305
0.000822719
0.000817224
0.000918706
0.000806757
0.00123
0.000436599
0.00287579
-0.00159114
0.00922487
-0.0105907
0.042251
0.0660342
-0.0207498
0.0254104
-0.0134767
0.0124984
-0.00401082
0.00287173
-0.00110358
-0.000397623
-0.000680331
0.00102945
-0.000953978
0.000840888
-0.00135735
-0.000662477
-0.00181337
-0.00123328
-0.000674615
-0.000703196
-0.00042656
-0.000365697
-0.00132273
-0.00263136
-0.00202121
-0.000484016
0.000988511
0.00671169
0.00911089
0.00917632
0.000317911
-0.0123107
-0.0187731
-0.0181641
0.000136068
0.0270935
0.0207047
0.00679128
-0.0236079
-0.0483782
-0.0262622
0.0410692
0.0600155
0.0649531
0.0531655
-0.0103422
-0.0469644
-0.0481043
-0.0321245
-0.000234906
0.00621351
0.0374272
0.0252181
0.00729843
-0.0130751
-0.0131198
-0.0226485
-0.00146337
0.000257648
0.0172123
0.000492266
0.00463603
-0.00857474
0.00343287
-0.00253177
0.00849979
-0.00430293
0.00281468
-0.00656797
0.00495304
-0.00417226
0.00491078
-0.00386101
-0.0140677
0.00333894
-0.00100556
7.69697e-05
-0.00031866
-0.000224853
-0.000295121
-0.000282495
-0.000297975
-0.000295666
-0.000295601
-0.000293086
-0.000287958
-0.000279699
-0.000268067
-0.000253317
-0.000228979
-0.000208239
-0.000179557
-0.000149801
-0.000118053
-7.94577e-05
-5.49233e-05
7.53224e-06
4.77228e-05
0.000118945
0.000173482
0.000256217
0.000330668
0.0004184
0.000532784
0.000632691
0.000774892
0.000904108
0.00105279
0.00132758
0.0015264
0.00191243
0.00211347
0.00233872
0.00308982
0.00221775
0.00598882
0.000148838
0.0139951
-0.0151482
0.0415022
0.0750367
-0.0216508
0.0329279
-0.0153666
0.0138223
-0.00486216
0.00318091
-0.00115214
7.40272e-05
-0.00250155
0.000752846
-0.00107205
0.00110876
-0.00225902
0.000935371
-0.000541494
-1.04019e-06
-0.0008974
-0.000367107
0.000157007
0.000987994
0.00148475
0.0015258
0.00334807
0.0027913
-0.00328138
-0.0113393
-0.00685324
-0.00565712
0.00109947
0.00790172
0.0213881
0.0163513
0.0117469
-0.013476
-0.0336571
-0.026833
0.021096
0.0496407
0.0345756
0.00991767
-0.0182249
-0.0530598
-0.0132045
-0.000517964
0.0320077
0.0493731
0.0303796
0.0104398
-0.0104738
-0.0259739
-0.0257576
0.00345414
0.00678693
0.0210604
0.00977662
0.00482222
-0.0168228
-0.0080494
-0.00858445
0.0113318
-0.00112634
0.00811919
-0.00665406
-0.000828748
-0.00509457
0.00626008
-0.00461119
0.00506017
-0.00433822
0.00450923
-0.00492169
-0.014058
0.00332458
-0.00100485
7.53991e-05
-0.000318936
-0.000223117
-0.000295795
-0.000282115
-0.000297753
-0.000296034
-0.000298828
-0.000294037
-0.000285309
-0.000278809
-0.000265229
-0.000250154
-0.000230078
-0.000212794
-0.0001848
-0.000157642
-0.00012678
-8.58612e-05
-6.43679e-05
-1.24238e-05
2.21067e-05
7.33562e-05
0.000117616
0.00017298
0.000214936
0.000267856
0.000300412
0.000355587
0.000379579
0.000440182
0.000510562
0.000607887
0.000644809
0.000599484
0.000602562
0.000620625
0.00106152
0.000290365
0.00348877
-0.00423867
0.0153479
-0.0314211
0.061692
0.06686
-0.00905258
0.0150879
-0.0074136
0.00749229
-0.000793449
0.000128059
0.000781014
0.000545339
-0.00133384
0.000984557
-0.00101914
0.00118276
-0.00315937
-0.00105312
-0.0012001
-0.000429197
0.000432388
0.00078557
0.000222783
-0.00107333
-0.00351198
-0.00491307
-0.00575782
-0.00199565
0.00210486
0.00825422
0.00780482
0.00892206
0.000972904
-0.00874224
-0.0173286
-0.0180959
-0.00698907
0.0289122
0.0404622
0.0263088
-0.0133889
-0.0527545
-0.0470579
-0.017464
0.0170042
0.0307103
0.0337634
0.0211281
-0.00846954
-0.0297092
-0.0275571
-0.0200796
0.000748958
0.0259346
0.0119485
0.0120918
-0.00782266
-0.0118225
-0.0183354
0.00323983
0.00503291
0.0200565
0.00117222
0.000275028
-0.0111363
0.00167827
-0.00357784
0.00957892
-0.0041796
0.0032737
-0.00194202
0.00289533
-0.00460101
0.00431045
-0.00384945
-0.0140285
0.00330136
-0.00100371
7.21716e-05
-0.000321311
-0.000226718
-0.000295962
-0.000284227
-0.00029849
-0.000295917
-0.000296327
-0.000293522
-0.000289384
-0.000282219
-0.000266634
-0.000258006
-0.000237128
-0.000212661
-0.000183384
-0.000156559
-0.000126721
-8.70977e-05
-5.74608e-05
-1.85692e-06
3.97589e-05
0.000110836
0.000165903
0.000253259
0.000318456
0.000438317
0.00051218
0.000667235
0.000779122
0.000948446
0.00111851
0.00138082
0.0015743
0.00187424
0.00211481
0.00253488
0.00329072
0.00304115
0.00656645
0.0018091
0.0140788
0.00176433
0.022044
0.0721002
-0.0186007
0.0247988
-0.0107259
0.0086076
-0.000787739
-0.000911009
0.00208266
-0.00188004
-0.00143903
0.000603479
-0.00225862
0.00224476
-0.000440799
0.00202863
0.00132301
0.00106523
-0.000299929
-0.00180603
-0.002698
-0.000571637
0.00257255
0.0038092
0.0059675
0.00563199
0.000460737
-0.0092708
-0.00857823
-0.0096873
-0.00297072
0.00535842
0.0148438
0.020352
0.0130855
-0.0180111
-0.0236809
-0.015004
0.00585531
0.0401179
0.0413083
0.00546836
0.00369203
-0.0273442
-0.0173855
-0.0160104
0.0029076
0.0235703
0.0178711
0.0202147
0.00566706
-0.00911223
-0.0161935
-0.00212164
-0.00303074
0.0141713
0.00662854
0.0109366
-0.008636
-0.0120478
-0.0128182
0.00296164
-5.30318e-06
0.00927723
-0.00587552
0.000119634
-0.00651391
0.00601684
-0.00505164
0.00445917
-0.00540997
0.00427048
-0.00531047
-0.0140148
0.00328386
-0.00100321
6.99897e-05
-0.000321928
-0.000226725
-0.000298543
-0.000282121
-0.000299674
-0.000297124
-0.000300899
-0.00029721
-0.000288874
-0.000282718
-0.000272757
-0.000256021
-0.000235401
-0.000216214
-0.00019169
-0.000165533
-0.000136196
-9.83265e-05
-7.07082e-05
-3.18901e-05
3.91008e-06
4.98742e-05
8.73131e-05
0.000133289
0.00016947
0.000205957
0.000229626
0.000248058
0.000258906
0.000301248
0.000334845
0.000380904
0.000329002
0.000156449
0.000115116
-2.28183e-05
0.000479529
-0.000380527
0.0024389
-0.00232853
0.0105731
-0.0103021
0.0732958
0.0547456
-0.000920437
-0.00291182
-0.00413963
-0.00187092
0.00233181
-0.00540827
0.000706724
-0.0028222
-0.00186453
-0.000280833
-0.00319566
0.000976728
-0.00378791
0.000768781
-0.00416492
-0.00208834
0.000829876
0.00117107
0.00129109
0.00184127
-0.00148304
-0.00276564
-0.00525927
-0.00266203
-0.00131445
0.0063446
0.00642549
0.00819399
0.00288937
-0.00390958
-0.0105076
-0.0140538
-0.0100089
0.00538391
0.0211494
0.0320212
0.00469564
-0.0131276
-0.0127275
-0.0218996
0.000792062
0.00736796
0.00541285
0.0141017
0.00339865
-0.00781034
-0.00330351
-0.0243149
-0.00650068
0.00858278
0.00675568
0.0127512
0.000480623
-0.00322757
-0.0111349
-0.000366254
0.000791737
0.0168363
0.00197601
0.0054718
-0.00821306
-0.00114218
-0.00578341
0.00947241
-0.00297416
0.00219111
-0.00300961
0.00466534
-0.00472929
0.00494158
-0.00389349
-0.013982
0.00325948
-0.00100271
6.55259e-05
-0.000325116
-0.000226572
-0.000298477
-0.000285019
-0.000301936
-0.000298261
-0.000301518
-0.000297316
-0.000293941
-0.000283047
-0.000272085
-0.000260024
-0.00024301
-0.000220401
-0.000194556
-0.000167152
-0.000137103
-9.99875e-05
-6.45589e-05
-2.02587e-05
2.74445e-05
9.0204e-05
0.000151036
0.000224846
0.000308272
0.000404678
0.00050496
0.00062685
0.000764602
0.000925151
0.00107234
0.00125789
0.0014159
0.00171047
0.00203672
0.00219759
0.00277318
0.00221091
0.00320025
-0.000332393
0.00582705
-0.0235869
0.0637232
0.0571656
-0.00218158
0.0024841
0.00238156
0.00507253
0.00716877
0.000493545
0.00792629
-0.0012843
0.00509446
-0.00127573
-0.00127463
0.00204083
-0.000842363
-0.000773547
0.000955263
-0.00238517
0.00134391
-0.0011951
-0.000956835
-0.00275538
0.000362344
0.000425965
0.00284257
0.00140916
0.00125332
-0.00254827
-0.00499643
-0.00601676
-0.00235096
0.0016823
0.00432297
0.00595596
0.00480479
0.00259607
-0.00493502
-0.0153228
0.010234
0.0001664
0.0118313
0.00873213
0.00839449
-0.00160743
0.000180475
-0.0200085
0.00557801
-0.00733439
0.0173247
0.00999524
0.00229581
0.00344459
-0.0159596
-0.00575586
-0.00712424
0.0072368
-0.00311079
0.00693677
-0.00349157
-0.00483679
-0.0073462
0.00204965
-0.00280851
0.00853374
0.000346684
0.00108897
-0.00865421
0.00695237
-0.00518148
0.00410436
-0.00381021
0.00571849
-0.00528791
-0.0139659
0.00324038
-0.00100302
6.33806e-05
-0.000325519
-0.000230764
-0.000299338
-0.000285608
-0.000301814
-0.000299801
-0.000301574
-0.000299097
-0.000294551
-0.000283964
-0.000276594
-0.000264235
-0.000247318
-0.000224394
-0.000202432
-0.000176009
-0.000148744
-0.000116191
-8.61474e-05
-5.50068e-05
-1.73069e-05
1.85381e-05
5.24596e-05
8.65491e-05
0.000119081
0.000140036
0.000151238
0.00014529
0.000142342
0.000143216
0.000140025
9.225e-05
1.06253e-05
-0.000331172
-0.00059891
-0.00132746
-0.00172962
-0.00278142
-0.00442679
-0.00490851
-0.00939313
-0.00879907
-0.00692658
0.178346
-0.0347024
-0.0120554
-0.0239485
-0.00731524
-0.0112314
-0.00236724
-0.00294211
-0.000759126
-0.0031481
0.00185821
-0.00447213
0.0025425
-0.00294244
0.00189744
-0.00286867
0.000997506
-0.00105824
-0.000248038
-0.000110705
0.000819694
-0.000757987
0.000133707
-0.00234399
-0.00179757
-0.00339575
-0.00131362
-0.00132842
0.000868314
-0.00083627
0.000869707
-0.00350163
-0.002668
-0.00667906
-0.00296809
0.00771869
-0.000261659
0.00353893
0.0022057
0.0114264
-0.0039966
0.00156917
-0.00329906
0.0142023
-0.0102199
0.0148205
-0.0136758
-0.00490699
-0.010652
-0.0071039
0.00773584
-0.000239912
0.0104047
-0.000688013
0.00248977
-0.00495877
-0.00179696
-0.00480104
0.003576
0.00073016
0.00779549
-0.00561981
0.00233399
-0.00976883
0.00639313
-0.00195795
0.00394514
-0.00740686
0.00584253
-0.00459315
0.00456732
-0.00328389
-0.0139334
0.0032182
-0.00100299
5.85607e-05
-0.00032961
-0.000230881
-0.000301088
-0.000285382
-0.000304374
-0.000300685
-0.000303671
-0.000299719
-0.000298076
-0.000288532
-0.000282271
-0.000267128
-0.000251247
-0.000230998
-0.000209021
-0.000180905
-0.000151512
-0.000118198
-8.21613e-05
-3.95485e-05
1.69903e-06
5.79101e-05
0.000118899
0.000185744
0.000267156
0.000352292
0.000454454
0.000562291
0.000691831
0.000834717
0.000962188
0.00113897
0.00128961
0.00151039
0.00190953
0.00205812
0.00247276
0.00282345
0.00379278
0.0047181
0.00401724
0.0140641
0.019493
0.133845
0.0255956
-0.0111849
0.00462138
-0.00734311
0.0017006
-0.00150998
-0.000251626
0.000200347
-0.000138704
-0.00123998
0.000523502
-0.00220833
0.00010242
-0.0021126
-0.000447671
-0.00262759
-0.00127643
-0.000458005
-0.00149849
-0.00114772
-0.00104819
0.000142201
-0.000628636
-0.000180097
-0.000398553
-0.000339317
-0.000361487
5.08559e-05
-0.000102976
0.00038256
-0.00157794
-0.00215524
-0.00157165
-0.00251973
0.00694297
0.00184027
-0.00135888
-0.0155999
-0.00340662
-0.00365779
0.00615855
-0.000552815
0.000333611
-0.0126125
-0.00125288
0.00970421
-0.000483382
0.0161232
-0.000267341
0.0022488
-0.00476501
-0.00338547
-0.00824617
0.00296301
-0.00462112
0.00541943
-0.00234336
0.00513338
-0.00405464
0.00114096
-0.00815588
0.00615672
-0.00142804
0.00369349
-0.0053866
0.00437432
-0.00587545
0.00431144
-0.00467712
0.00555806
-0.00512983
-0.0139159
0.00319901
-0.00100375
5.58703e-05
-0.000330124
-0.000233417
-0.000301992
-0.000287543
-0.000304112
-0.000302557
-0.000306461
-0.000302901
-0.00030261
-0.000291001
-0.000283845
-0.000271473
-0.000258573
-0.000239085
-0.000218512
-0.00019242
-0.00016709
-0.000138992
-0.000109059
-8.11268e-05
-4.77412e-05
-1.71985e-05
1.08723e-05
3.88678e-05
6.24651e-05
7.31384e-05
7.37514e-05
6.05493e-05
5.14267e-05
2.5804e-05
2.45942e-05
-3.28602e-05
-7.90309e-05
-0.000428439
-0.000689862
-0.00117785
-0.0013869
-0.00176895
-0.0029079
-0.00161906
-0.00659438
0.00489595
-0.0221281
0.171644
-0.0200268
0.00163383
-0.0203725
0.00238253
-0.0152905
-0.00144571
-0.00580354
-0.0036764
-0.00358255
-0.00194061
-0.00307843
-0.00019316
-0.00158736
-0.000745447
-0.00141498
-0.000762042
-0.000308494
-0.00221676
-0.000886895
-0.000641552
-0.00162019
0.00022893
-0.00146105
-0.00124824
-0.00189627
-0.00173023
-0.00147743
-0.0012022
-0.000292243
-0.000445306
-0.00288044
-0.00210827
-0.00312631
0.00266407
0.0122547
-0.0107473
-0.00362953
0.00238643
0.00946097
-0.0159989
-0.00689237
-0.00571003
0.00850681
0.0086279
-0.00440941
6.75693e-05
-0.0169224
-0.0080629
0.00209196
-0.00737279
0.00747037
0.00299793
0.00243823
0.00480672
-0.00382503
0.000306901
-0.00622149
0.00244927
-0.00407057
0.00507709
-0.0046765
0.0028954
-0.00543885
0.00840104
-0.00541527
0.00384281
-0.00364879
0.00478915
-0.00500202
0.00428252
-0.00491581
-0.0138865
0.00317919
-0.00100415
5.02304e-05
-0.00033421
-0.000234112
-0.000304617
-0.000287457
-0.000308384
-0.000303949
-0.000307096
-0.000306588
-0.000304146
-0.000292978
-0.000289944
-0.000277654
-0.000264131
-0.000246392
-0.000225534
-0.000199385
-0.000173269
-0.000144285
-0.00010921
-7.36751e-05
-2.81927e-05
1.37397e-05
7.36353e-05
0.000134013
0.000199139
0.000278174
0.000372899
0.000468818
0.000576267
0.000702944
0.000845233
0.00102417
0.00122407
0.00127908
0.00145169
0.00153716
0.00197912
0.00169432
0.00261442
0.000414839
0.00302663
-0.00849845
0.0443667
0.0664144
0.00433012
0.0441366
-0.00581774
0.0155684
0.00122513
0.00539793
0.00452185
0.00243855
0.00278014
-0.00246112
0.00145574
-0.00289346
0.000344016
-0.00230999
-0.00269969
-0.000520539
-0.00050877
-0.00153259
-0.00115996
-0.00225696
-0.00171671
-0.0010183
-0.000800964
-0.00069817
-0.000759488
-0.000493548
-0.000366871
0.000878226
0.000379944
0.00030251
-0.00329337
-0.00211448
-0.00189023
0.0103215
0.00528865
-0.00696689
0.00507345
-0.00768469
-0.0168912
-0.00315993
0.0110018
-0.00185181
-0.0137614
-0.00220177
-0.0058963
0.00543562
0.00590994
-0.00049797
0.00849833
-0.0106101
0.00477962
-0.00536167
-0.00177582
-0.00108523
-0.00357552
0.00523019
-0.00154333
0.00472076
-0.00164845
0.000929913
-0.00434575
0.000428531
-0.00158398
0.00148169
-0.012135
0.015363
-0.00354152
0.00334762
-0.00711011
0.0054819
-0.00689751
-0.0138686
0.00316192
-0.00100524
4.84324e-05
-0.000335173
-0.000236617
-0.000305156
-0.000290486
-0.000308032
-0.000305115
-0.000312595
-0.000306639
-0.000309668
-0.000300426
-0.000294584
-0.000284013
-0.00027229
-0.000255819
-0.000236581
-0.000216648
-0.000193304
-0.000168271
-0.000139851
-0.000114805
-8.97576e-05
-6.13488e-05
-3.70848e-05
-1.64538e-05
9.22458e-07
9.26873e-06
4.18976e-06
-7.98722e-06
-2.43228e-05
-5.63411e-05
-5.33621e-05
-6.24081e-05
-5.23677e-05
-9.43974e-06
-7.21691e-05
-0.000177052
-7.24532e-05
-0.000645833
0.0022093
-0.00244043
0.0134447
-0.0181382
0.100151
0.0502278
-0.0291794
0.0168454
-4.91348e-05
-0.00191723
-0.0181369
0.00260517
-0.0171622
0.00436375
-0.0134818
0.00673163
-0.0115715
0.0063366
-0.00834942
0.00466155
-0.00386204
0.00147793
-0.00287333
0.00241678
-0.00249985
0.000562729
-0.0017666
-0.000342832
-0.00154795
-0.00110708
-0.001356
-0.000986596
-0.000117635
0.000291056
-0.000949751
-0.0038711
-0.0041464
0.00060453
0.000471406
0.0129527
-0.00160509
-0.00703337
0.00277497
0.000751696
-0.00124872
-0.002884
-0.00442148
-0.00215961
0.000195479
0.00667816
-0.00410718
-0.00674488
-0.00731381
-0.00620667
0.00314702
-0.00586444
-0.00191521
0.00189119
-0.00585174
0.00300925
-0.00232304
0.00121156
-0.00580705
0.00185232
7.09202e-05
0.00248737
0.00102718
-0.00130687
0.00345757
-0.00312476
0.00187178
0.00309968
-0.00880854
0.00681577
-0.00245881
0.00490856
-0.00402079
-0.0138448
0.00314492
-0.00100563
4.33619e-05
-0.000338951
-0.000237494
-0.000307464
-0.000292037
-0.000310684
-0.000310221
-0.000313029
-0.000309557
-0.000312603
-0.000305771
-0.000299005
-0.000290561
-0.000280503
-0.000265329
-0.000245367
-0.000226516
-0.000202624
-0.000176795
-0.000147383
-0.000115978
-7.91036e-05
-3.75227e-05
1.18047e-05
5.90666e-05
0.000123063
0.000190729
0.000266361
0.000354422
0.00044108
0.000571346
0.000687013
0.000868126
0.00106003
0.00121857
0.0015653
0.00213891
0.00267045
0.00270096
0.00310289
0.0029819
0.0107958
0.00488473
0.0759378
0.020685
-0.00823182
0.00818175
0.0122507
0.0339325
-0.0167681
0.0106266
-0.00894324
0.00479333
-0.00445594
0.000323309
-0.00342934
-0.000941593
-0.00188205
-0.00158742
-0.00208419
-0.00289773
-0.001383
-0.000943472
-0.000631432
-7.97199e-05
-0.000505863
-0.000601407
-0.000643657
-0.0012685
-0.00071255
-0.000714382
0.000702196
-0.000611361
-0.000355732
-0.00537282
-0.00277029
-0.00213146
0.00256162
0.0132346
-0.0120916
-0.00474802
0.014671
-0.00327034
-0.0188862
-0.00518429
-0.00197476
0.00498984
0.00233812
-0.00881314
-0.00674435
0.00480522
0.00600799
0.00561162
-0.0062821
0.00570351
-0.00598818
0.00491837
-0.00360101
0.0025037
-0.00289643
0.0045643
0.000377196
-0.00147213
-0.00136501
0.000415369
-0.00304372
0.00519604
-0.0018734
0.00080993
-0.000663578
-0.0062975
-0.00346274
0.007094
-0.0078874
0.00634577
-0.00586431
-0.0138286
0.00313081
-0.00100705
4.11405e-05
-0.000340546
-0.000240416
-0.000308403
-0.000294508
-0.000309798
-0.000310276
-0.000317514
-0.000314004
-0.000316738
-0.000312132
-0.000304877
-0.000299384
-0.000290171
-0.0002789
-0.000261303
-0.000245703
-0.000226197
-0.000206008
-0.000182959
-0.000160788
-0.000137722
-0.000115067
-9.88289e-05
-8.17215e-05
-6.90559e-05
-6.09295e-05
-7.05418e-05
-7.83242e-05
-9.42178e-05
-0.000125042
-0.000161472
-0.000203913
-0.000223324
-0.000250138
-0.000302858
-0.000546857
-0.000676529
-0.000918563
-0.000753683
-0.0012927
-0.00432949
0.006324
0.063231
0.0225234
-0.00142902
0.00961677
0.00334191
0.0140583
0.00977754
0.00675672
-0.00796127
0.00652164
-0.00528323
0.00307415
-0.0038479
0.00334431
-0.00484333
0.00281914
-0.00440437
-0.000656349
-0.00166476
0.00057443
-0.00203137
-0.000231277
-0.00126208
-0.00134378
-0.000513669
-0.0024224
-7.26831e-05
-0.0019465
-0.00230031
-0.0029287
-0.00210895
0.00141835
-0.00160459
0.00446482
0.0147955
-0.011422
-0.00540409
0.0114891
0.00368231
-0.0221272
-0.000832
0.0116574
0.0153004
0.00318234
-0.00733267
-0.0094232
0.00166549
0.00431275
0.00211012
-0.00045008
-0.00537451
0.00643818
-0.000278132
-0.00153157
-0.00359555
0.00219221
-0.00486803
-0.001223
-0.00445632
-0.0026387
-0.00298599
0.00398537
-0.00530204
0.00754187
-0.0131258
0.00716242
-0.0094518
0.0102609
0.00223115
0.00106667
-0.00599492
0.00614273
-0.00609805
-0.0138085
0.00311685
-0.00100751
3.67045e-05
-0.000343836
-0.000240107
-0.000310766
-0.000296939
-0.000313568
-0.000315384
-0.000321352
-0.000316537
-0.000320726
-0.000320324
-0.000311088
-0.000307134
-0.000300036
-0.000289765
-0.0002735
-0.000256975
-0.000240025
-0.00022056
-0.000195985
-0.000169121
-0.000141942
-0.000109146
-7.06694e-05
-2.53761e-05
2.1052e-05
7.46788e-05
0.000140305
0.000208437
0.000303592
0.000394168
0.000521204
0.000615203
0.000704938
0.000928662
0.000793965
0.00133355
0.000472546
0.00201706
-0.00170775
0.00569929
-0.0130969
0.053864
0.0467068
0.00578374
0.00510675
0.0015488
0.016492
0.00355023
0.017552
-0.00302888
0.0139844
-0.0123137
0.00535637
-0.00546321
0.00308222
-0.00524035
0.00345577
-0.00580131
-0.00144382
-0.00261529
0.00196433
-0.00182728
0.00134782
-9.88964e-05
-0.000448134
-0.00121379
-0.000609206
-0.0024773
-0.00211695
-0.00271567
-0.000145733
0.00255384
0.00668961
0.00215815
0.00306546
0.00124551
-0.00551107
-0.000311449
0.013143
-0.0254598
-0.0204177
-0.00421879
0.0149905
0.0153265
-0.00245975
-0.0132875
0.000461394
0.0080172
0.00282736
0.00440093
-0.0101779
0.0010552
0.00308152
-0.00435153
0.00643811
-0.00389032
0.000260075
0.00317071
-0.00142306
0.00360372
0.00128332
0.00183349
-0.00456102
0.0065052
-0.00551583
0.00782483
-0.00985387
0.011476
-0.00817286
0.00833772
-0.0107603
0.00408275
-0.00402195
0.00581788
-0.00622954
-0.0137959
0.0031066
-0.00100767
3.57486e-05
-0.000345494
-0.000243075
-0.000313352
-0.000298732
-0.000313843
-0.000317124
-0.000323927
-0.000321078
-0.000325205
-0.000327295
-0.00032089
-0.000316281
-0.00031354
-0.000304891
-0.000293191
-0.000279208
-0.000267533
-0.000253045
-0.000236986
-0.000216105
-0.000204468
-0.000187466
-0.000171582
-0.000159715
-0.000155266
-0.000155193
-0.000167389
-0.000175478
-0.000193766
-0.000220174
-0.000262767
-0.000307111
-0.000356846
-0.000361782
-0.000483585
-0.000106891
-0.00106081
0.00176567
-0.00457925
0.0106781
-0.0270974
0.110871
0.0240147
-0.0049362
-0.00546136
0.00411114
0.00164854
0.0159381
0.0021063
0.0322862
-0.0169551
0.0332391
-0.0207592
0.0166472
-0.0148503
0.0115968
-0.0116703
0.0059894
-0.00570645
0.00222277
-0.0012861
0.000639596
-0.000240677
-0.000952786
-0.000585333
-0.0016762
-7.9548e-05
-0.000363114
0.00238244
0.00148061
0.00498352
0.000445699
-0.00233836
-0.00243614
0.00111299
0.0030906
0.00291329
0.0180843
-0.0126179
-0.0091371
0.00896297
0.00986194
-0.0016139
-0.00853275
-0.0096068
-0.000701313
0.0059726
0.00906508
-0.000172677
0.00101514
-0.00114513
0.00538543
0.00498304
-0.00180943
0.00340121
-0.00234326
0.00168343
0.00173061
0.00138729
-0.00136629
-0.00222815
0.00335302
-0.00193517
0.00396711
-0.00136708
-0.000914895
0.00346569
0.000155262
-0.00411244
0.00413085
-0.007144
0.0100671
-0.00723384
0.00570453
-0.00614845
-0.013779
0.00309565
-0.00100849
3.11811e-05
-0.000348684
-0.000244071
-0.000314988
-0.000300457
-0.000318639
-0.000319759
-0.000328308
-0.000327545
-0.000329752
-0.000335039
-0.000331734
-0.000324425
-0.000323302
-0.00031769
-0.000309627
-0.000295961
-0.000284874
-0.000272351
-0.000259559
-0.000233764
-0.000216043
-0.000197312
-0.000174725
-0.000141996
-0.000103582
-6.003e-05
-1.43114e-05
3.77393e-05
0.000122047
0.000188959
0.000300343
0.000401112
0.000559341
0.000698525
0.000879884
0.000991993
0.00113255
0.00197785
0.000933117
0.00856708
-0.00720364
0.0804902
0.0115484
-0.00442191
-0.0033988
0.000163811
0.00395346
-0.0130212
-0.00199766
0.0201214
0.0155988
0.0201426
-0.000848379
0.00633154
-0.009058
0.00708877
-0.00708435
0.0035794
-0.00438275
0.00222382
0.000122445
0.000274526
0.000379709
-0.000303145
0.00170221
0.000104917
0.00364134
0.000203003
0.00212565
-0.00319584
0.00378465
-0.00821655
0.00671005
-0.00495522
0.0122149
-0.00388978
0.0063024
-0.0123075
-0.00707372
0.00767596
0.0103855
-0.00205434
-0.00888291
0.00148374
0.0050403
0.0055269
-3.10559e-05
-0.00343635
-0.00659505
-0.00163086
0.00226744
-0.00345139
-0.00294021
-0.00469216
-0.00330054
1.42383e-05
-0.00368094
-0.000887707
-0.00334865
0.000107413
-0.00394169
-0.000475714
-0.00311808
-0.0012476
0.00142183
-0.00351059
0.00577442
-0.0105722
0.00583038
-0.00302496
-0.000741052
0.00546884
-0.00599226
0.00531163
-0.0055796
-0.0137743
0.00308969
-0.00100887
3.11319e-05
-0.000349972
-0.000245467
-0.000317927
-0.00030239
-0.000319012
-0.000323285
-0.00033147
-0.000332255
-0.000336577
-0.000342272
-0.000343429
-0.000336213
-0.000336834
-0.00033744
-0.000331867
-0.000320432
-0.000315579
-0.000308493
-0.000302694
-0.00029129
-0.000276272
-0.000277449
-0.000275489
-0.000262213
-0.000262902
-0.000281591
-0.000295486
-0.000310838
-0.000353988
-0.000394626
-0.000472447
-0.000572542
-0.000672149
-0.000799457
-0.00092971
-0.0008258
-0.00118858
-0.00111391
-0.00320428
-0.00129126
0.000543051
0.0831096
0.0100957
0.00111139
-0.00467354
-0.00268757
0.00324085
0.00808638
-0.00427707
0.00545726
0.0113202
0.0197761
0.00443514
0.0126055
0.0024303
0.00504795
-0.00440902
-0.00160435
-0.00190084
-0.00397483
0.00668386
-0.00497945
0.00763611
-0.0040137
0.00530922
-0.00278283
0.00237993
-0.00193482
0.00377316
-0.00218543
0.0106561
-0.00569404
0.00851356
0.00999851
-0.00709083
0.00500336
0.00132318
-0.00537004
0.00298069
-0.00580035
-0.00152701
-0.00431924
0.000948535
0.00132718
0.00204014
0.00294742
-0.00244177
0.000246064
0.00315429
0.00593781
-0.000201614
0.00516725
-0.000374268
0.00238414
0.00236522
0.00172669
-0.00228285
0.00426742
0.000146118
0.00209377
0.00108612
0.00266913
-7.87703e-05
0.000576317
-0.0013307
-6.40236e-05
-0.00363195
0.00073255
0.00289967
-0.00318722
0.00141348
-0.00186279
-0.00500267
0.00658065
-0.00660498
-0.01376
0.00308179
-0.00100841
2.84002e-05
-0.000352491
-0.000247175
-0.000319362
-0.000304838
-0.00032454
-0.000324228
-0.000338262
-0.000339807
-0.000341638
-0.000349504
-0.000354494
-0.000350588
-0.000348718
-0.000352513
-0.000351966
-0.000342318
-0.000335981
-0.000335495
-0.000329503
-0.000319222
-0.000305838
-0.000297064
-0.000291562
-0.000277961
-0.00025658
-0.000230825
-0.000200995
-0.000166566
-0.000120014
-6.76505e-05
1.14064e-05
8.56203e-05
0.000168847
0.000204145
0.000388995
-9.88014e-05
0.00132362
-0.00212024
0.00647125
-0.015712
0.0610414
0.041877
0.0150646
0.00506353
0.00348016
0.00128181
-0.00288894
-0.0107279
0.00103159
0.00626715
0.00369853
-0.0172728
0.0242705
0.00152672
0.00929713
-0.0013662
0.00323767
-0.00162918
-0.00325567
0.00347821
0.00457509
-0.0013754
0.00923074
-0.00449951
0.0159613
-0.00547528
0.0118686
0.00250038
0.0123379
-0.00251929
0.00642487
0.00562825
0.00236438
0.00519265
-0.00231784
0.0086682
-0.0029321
-0.00266225
0.00673431
0.00770574
-0.00334506
0.00418115
0.00209853
0.00159701
0.000709322
0.00334363
-0.000135285
0.00218731
0.00299557
0.00313221
-0.00262205
-3.1377e-05
-0.00233669
0.00217389
0.00175961
0.000553292
0.000221531
0.00258269
0.000855032
0.000610692
-0.000477475
-0.0010537
-0.00120786
0.00276949