/*--------------------------------*- C++ -*----------------------------------*\
| =========                 |                                                 |
| \\      /  F ield         | OpenFOAM: The Open Source CFD Toolbox           |
|  \\    /   O peration     | Version:  2.2.x                                 |
|   \\  /    A nd           | Web:      www.OpenFOAM.org                      |
|    \\/     M anipulation  |                                                 |
\*---------------------------------------------------------------------------*/
FoamFile
{
    version     2.0;
    format      ascii;
    class       surfaceScalarField;
    location    "2.35";
    object      phi;
}
// * * * * * * * * * * * * * * * * * * * * * * * * * * * * * * * * * * * * * //

dimensions      [1 0 -1 0 0 0 0];

internalField   nonuniform List<scalar> 
28084
(
0.00074623
0.000743026
0.000740252
0.00073792
0.000736007
0.000734495
0.00073335
0.000732545
0.000732076
0.000731918
0.000732039
0.000732404
0.000732958
0.000733663
0.000734547
0.000735591
0.000736744
0.00073798
0.000739285
0.000740632
0.000742003
0.000743377
0.00074474
0.000746092
0.000747375
0.000748587
0.000749712
0.000750754
0.000751709
0.000752597
0.00075333
0.00075394
0.000754465
0.000754945
0.000755227
0.000755319
0.00075528
0.000755089
0.000754787
0.00075447
0.000754081
0.000753899
0.000753424
0.000755244
0.00077098
0.000897001
0.00120675
0.00122463
0.00120206
0.00120639
0.00121883
0.00123179
0.00124371
0.00125575
0.00126954
0.00128418
0.00129866
0.00131214
0.00132436
0.00133566
0.00134681
0.00135836
0.00136931
0.00137898
0.00138716
0.0013949
0.00140293
0.0014107
0.00141715
0.00142258
0.00142733
0.00143133
0.00143359
0.00143308
0.00142983
0.00142634
0.0014233
0.00141911
0.00141347
0.00140614
0.00140007
0.00139405
0.00138492
0.0013766
0.00136595
0.00135601
0.00134584
0.00133545
0.00132612
0.00131756
0.00130991
0.00130097
0.00129043
0.00128198
0.0012741
0.00126816
0.00126311
0.00125915
0.00125562
0.00124341
0.00122412
0.00120217
0.00116562
0.00112254
0.00106843
0.00101051
0.000949981
0.000890133
0.000826076
0.000762005
0.000692818
0.000624105
0.000551112
0.000477756
0.000397723
0.00031258
0.000216958
0.000113058
3.71005e-06
3.21012e-06
0.000749744
2.78167e-06
0.000748813
2.33798e-06
0.000748288
1.91969e-06
0.000748177
1.51922e-06
0.000748472
1.14506e-06
0.000749143
7.95465e-07
0.000750145
4.7247e-07
0.000751455
1.72588e-07
0.000753084
-9.4969e-08
0.000754995
-3.39778e-07
0.000757156
-5.53396e-07
0.000759529
-7.42057e-07
0.000762059
-9.02041e-07
0.000764698
-1.0383e-06
0.000767486
-1.15005e-06
0.00077039
-1.23591e-06
0.00077336
-1.29883e-06
0.000776371
-1.34012e-06
0.000779403
-1.36216e-06
0.000782428
-1.36437e-06
0.000785425
-1.35171e-06
0.000788374
-1.31951e-06
0.000791244
-1.26923e-06
0.000794035
-1.20899e-06
0.000796738
-1.14745e-06
0.00079929
-1.0556e-06
0.000801704
-9.6178e-07
0.000803971
-8.7248e-07
0.000806134
-7.49282e-07
0.0008081
-6.46935e-07
0.000809882
-5.16769e-07
0.000811492
-3.92442e-07
0.000812977
-2.73187e-07
0.000814361
-1.22779e-07
0.000815477
1.70981e-09
0.000816359
1.2703e-07
0.000817039
2.15362e-07
0.000817563
3.07211e-07
0.000817948
4.45002e-07
0.000818218
5.05665e-07
0.000818125
9.93947e-07
0.000818481
-1.85693e-06
0.000818228
-1.66197e-05
0.000821038
-0.000124241
0.000827533
-0.000312492
0.000944626
-1.66467e-05
0.000928007
2.42089e-05
0.000999417
-5.00871e-06
0.00102924
-1.29165e-05
0.00103566
-1.37023e-05
0.0010502
-1.40632e-05
0.0010649
-1.4309e-05
0.00107882
-1.41275e-05
0.00109181
-1.37277e-05
0.00110529
-1.40373e-05
0.00111891
-1.37215e-05
0.00113263
-1.34362e-05
0.00114647
-1.31316e-05
0.00115977
-1.22543e-05
0.00117211
-1.19844e-05
0.00118333
-1.20938e-05
0.00119441
-1.1185e-05
0.00120438
-9.61e-06
0.00121284
-8.42776e-06
0.00121964
-8.19628e-06
0.00122708
-7.43332e-06
0.00123446
-6.38563e-06
0.001241
-4.95862e-06
0.00124556
-3.69097e-06
0.00124791
-2.69788e-06
0.00125068
-1.53876e-06
0.00125325
7.86275e-07
0.00125465
3.20292e-06
0.00125592
5.93759e-06
0.00125701
8.52145e-06
0.00125913
9.73807e-06
0.00126289
9.49799e-06
0.00126525
1.0081e-05
0.00126565
1.00063e-05
0.00126608
1.12339e-05
0.00126252
1.1102e-05
0.00125421
8.90258e-06
0.00124302
8.95541e-06
0.00123213
1.14263e-05
0.00122225
1.34484e-05
0.00121314
1.16995e-05
0.0012049
1.13477e-05
0.00119703
1.01357e-05
0.00119144
9.06547e-06
0.00118359
1.02665e-05
0.00116482
1.09022e-05
0.00114622
9.12563e-06
0.00112875
7.97321e-06
0.00109864
6.48936e-06
0.00106754
7.15844e-06
0.00103602
8.1565e-06
0.00100313
3.02501e-06
0.000959838
8.08904e-06
0.000910747
1.93336e-05
0.000866532
2.74032e-05
0.00082215
3.57181e-05
0.000780382
4.47331e-05
0.000739098
5.46922e-05
0.000701467
5.82594e-05
0.000665511
6.39887e-05
0.000633243
6.2538e-05
0.000602742
6.51602e-05
0.000572707
6.25613e-05
0.000540454
6.56501e-05
0.000506357
6.46192e-05
0.000466901
6.94852e-05
0.000425351
7.0791e-05
0.000379189
7.83455e-05
0.000331595
8.35483e-05
0.000279027
9.34364e-05
0.000222238
0.000101738
0.000152867
0.000111569
8.18997e-05
5.1115e-06
4.14679e-06
0.000754436
3.3096e-06
0.000755751
2.45035e-06
0.000757453
1.63742e-06
0.000759543
8.65237e-07
0.000762013
1.48413e-07
0.000764818
-5.30635e-07
0.000767942
-1.15554e-06
0.000771355
-1.72493e-06
0.000775057
-2.23103e-06
0.000779016
-2.68551e-06
0.000783198
-3.0806e-06
0.00078756
-3.42515e-06
0.000792041
-3.70519e-06
0.000796593
-3.93734e-06
0.000801264
-4.11717e-06
0.000806008
-4.2443e-06
0.000810776
-4.32099e-06
0.000815539
-4.35491e-06
0.000820275
-4.34671e-06
0.000824956
-4.30193e-06
0.000829557
-4.21448e-06
0.000834056
-4.09647e-06
0.000838433
-3.94715e-06
0.000842686
-3.76892e-06
0.000846759
-3.57259e-06
0.000850646
-3.34851e-06
0.000854331
-3.10069e-06
0.000857818
-2.84814e-06
0.000861147
-2.57361e-06
0.000864228
-2.29263e-06
0.000867039
-1.98149e-06
0.000869654
-1.67169e-06
0.000872103
-1.37106e-06
0.000874415
-1.04569e-06
0.000876366
-7.44709e-07
0.000878028
-4.56008e-07
0.000879458
-9.42252e-08
0.000880595
8.75775e-08
0.000881613
4.14925e-07
0.000882475
1.09213e-07
0.000883174
1.05149e-06
0.000883272
-4.33523e-06
0.000884035
-2.12025e-05
0.000881842
-0.00024102
0.00088413
-0.000296689
0.000857324
-8.63832e-05
0.000799007
-6.93272e-06
0.000836938
-1.53151e-05
0.00087839
-2.77618e-05
0.000907341
-2.77077e-05
0.000934896
-2.79458e-05
0.000960004
-2.83564e-05
0.000980734
-2.83295e-05
0.00100062
-2.75941e-05
0.00102043
-2.82982e-05
0.00104197
-2.74731e-05
0.00106479
-2.63693e-05
0.00108298
-2.58034e-05
0.00110012
-2.40278e-05
0.00112323
-2.28191e-05
0.00113933
-2.2009e-05
0.00115255
-2.04463e-05
0.00116961
-1.81424e-05
0.0011837
-1.52244e-05
0.00119237
-1.37602e-05
0.00119959
-1.22821e-05
0.00120903
-9.80907e-06
0.001218
-6.74318e-06
0.0012243
-4.47752e-06
0.00122946
-3.12417e-06
0.00123441
-1.88912e-06
0.00123856
-6.00997e-08
0.0012415
2.22633e-06
0.00124324
5.1001e-06
0.00124395
7.5324e-06
0.00124502
9.87115e-06
0.00124762
1.11448e-05
0.00124966
1.20058e-05
0.00124819
1.44594e-05
0.00124475
1.75309e-05
0.00124178
1.88513e-05
0.00123632
2.121e-05
0.0012238
2.01835e-05
0.00120205
2.43405e-05
0.00117712
2.39631e-05
0.00116008
1.96283e-05
0.00114641
2.10418e-05
0.00112955
2.12915e-05
0.00110112
2.21586e-05
0.00107453
2.71634e-05
0.001035
2.96429e-05
0.000957323
3.65025e-05
0.000864703
3.52089e-05
0.000773711
4.20019e-05
0.000672597
4.61035e-05
0.000600857
4.78864e-05
0.000542427
4.95945e-05
0.000480185
5.68651e-05
0.000434113
6.63496e-05
0.000396478
6.99372e-05
0.000358755
7.72665e-05
0.000326832
8.27896e-05
0.000302747
8.97201e-05
0.000282314
9.14665e-05
0.000263114
9.59317e-05
0.000247137
9.34517e-05
0.000233259
9.66132e-05
0.000220158
9.46142e-05
0.000206581
0.000101977
0.000193353
0.000102995
0.000178921
0.000113351
0.0001656
0.00011669
0.000149554
0.0001295
0.000133859
0.000138726
0.000112858
0.00016116
9.21361e-05
0.000170986
6.65516e-05
0.000192234
4.17204e-05
4.23366e-06
2.83772e-06
0.000760308
1.61127e-06
0.000763837
3.67612e-07
0.000767733
-8.10768e-07
0.000771988
-1.93292e-06
0.00077659
-2.98046e-06
0.000781519
-3.95845e-06
0.000786738
-4.85468e-06
0.000792224
-5.66757e-06
0.000797972
-6.38338e-06
0.000803952
-7.01943e-06
0.000810126
-7.56304e-06
0.000816452
-8.02673e-06
0.000822863
-8.39051e-06
0.00082931
-8.67641e-06
0.000835838
-8.88037e-06
0.000842399
-9.00371e-06
0.000848941
-9.04776e-06
0.000855437
-9.02542e-06
0.000861858
-8.93725e-06
0.000868174
-8.78801e-06
0.000874361
-8.57996e-06
0.000880386
-8.32078e-06
0.000886233
-8.00259e-06
0.000891892
-7.66369e-06
0.000897354
-7.27528e-06
0.000902557
-6.86024e-06
0.000907504
-6.40592e-06
0.00091219
-5.92171e-06
0.000916646
-5.44543e-06
0.000920832
-4.93891e-06
0.00092471
-4.4081e-06
0.000928281
-3.8588e-06
0.000931608
-3.28803e-06
0.000934703
-2.75209e-06
0.000937475
-2.2263e-06
0.000939915
-1.64478e-06
0.000942052
-1.10778e-06
0.000943884
-6.63403e-07
0.000945442
-2.51278e-07
0.000946803
-7.72838e-08
0.000947768
2.8114e-07
0.000948611
-1.76744e-06
0.000948531
-2.44543e-05
0.000947968
-0.000213412
0.000935727
-0.000239143
0.000849169
-0.000124678
0.000795952
-5.05397e-05
0.000793132
-4.5552e-05
0.000828738
-5.37873e-05
0.000869524
-5.15508e-05
0.000905171
-4.92653e-05
0.000940846
-5.0216e-05
0.000972229
-5.04834e-05
0.00100392
-4.90949e-05
0.00103452
-4.9023e-05
0.00106199
-4.6723e-05
0.00108826
-4.41524e-05
0.00111405
-4.49512e-05
0.00114002
-4.23865e-05
0.00116443
-3.91329e-05
0.0011826
-3.58013e-05
0.00119966
-3.44981e-05
0.00122334
-3.02939e-05
0.00123809
-2.51581e-05
0.00124691
-2.16164e-05
0.00125839
-1.91622e-05
0.00127151
-1.56407e-05
0.00128028
-1.15573e-05
0.00128671
-8.81043e-06
0.00129236
-6.72566e-06
0.00129724
-4.85646e-06
0.00130106
-2.78401e-06
0.0013044
-5.75329e-07
0.00130697
2.00529e-06
0.00130838
4.59698e-06
0.00130904
7.62014e-06
0.0013095
1.16265e-05
0.00131093
1.53474e-05
0.00131086
1.95242e-05
0.00130699
2.58902e-05
0.00129863
3.39087e-05
0.00128489
4.25191e-05
0.00126049
4.00145e-05
0.00124213
4.04942e-05
0.00122326
3.96037e-05
0.00120334
3.53863e-05
0.00116918
4.1853e-05
0.00113867
5.63648e-05
0.00109127
7.39422e-05
0.000990257
9.94309e-05
0.000875951
0.000113608
0.000771418
0.000126105
0.000671749
0.00012211
0.000597884
0.000121258
0.000533929
0.000115745
0.000458951
0.000109033
0.000374063
0.000100403
0.000316035
9.78288e-05
0.000268588
0.000101189
0.00022228
9.84085e-05
0.00018347
0.000104083
0.000154635
0.000104195
0.000133601
0.00010831
0.000118711
0.00010686
0.00010816
0.000109166
0.000100634
0.000105608
9.41648e-05
0.000108345
8.74977e-05
0.00010538
7.94597e-05
0.000114051
7.21499e-05
0.00011453
6.3219e-05
0.000127725
5.58332e-05
0.000130931
4.58659e-05
0.000149342
3.91385e-05
0.000158177
2.92162e-05
0.000185609
2.37888e-05
0.000194623
1.6642e-05
0.000233286
1.23767e-05
1.10968e-06
-6.85068e-07
0.00076736
-2.27792e-06
0.000773066
-3.88091e-06
0.00077912
-5.40275e-06
0.000785509
-6.85216e-06
0.000792221
-8.20046e-06
0.00079923
-9.455e-06
0.000806511
-1.05989e-05
0.000814036
-1.16298e-05
0.000821802
-1.25297e-05
0.000829772
-1.33152e-05
0.000837911
-1.39723e-05
0.000846171
-1.45197e-05
0.000854483
-1.49341e-05
0.000862792
-1.52323e-05
0.00087115
-1.54187e-05
0.000879503
-1.54939e-05
0.000887794
-1.54599e-05
0.000895994
-1.53309e-05
0.000904075
-1.51132e-05
0.000912002
-1.48071e-05
0.000919751
-1.44231e-05
0.000927294
-1.39687e-05
0.000934605
-1.34424e-05
0.000941672
-1.28655e-05
0.000948487
-1.22386e-05
0.00095499
-1.15667e-05
0.000961178
-1.08547e-05
0.000967045
-1.00981e-05
0.000972634
-9.34209e-06
0.000977908
-8.54808e-06
0.000982808
-7.73096e-06
0.000987348
-6.89427e-06
0.000991623
-6.04075e-06
0.000995643
-5.21574e-06
0.000999249
-4.39767e-06
0.00100246
-3.50698e-06
0.0010053
-2.69984e-06
0.00100774
-1.98279e-06
0.00100985
-1.10432e-06
0.00101171
-8.3053e-07
0.00101337
4.56822e-07
0.00101437
-1.32392e-06
0.00101513
-1.25855e-05
0.00101451
-0.000126482
0.00100406
-0.000186394
0.000938573
-0.00012265
0.000852931
-8.60663e-05
0.000838195
-8.62074e-05
0.000859159
-8.88017e-05
0.000891427
-8.73903e-05
0.000925598
-8.24937e-05
0.000965027
-8.23232e-05
0.00100325
-8.20892e-05
0.0010444
-7.7127e-05
0.00107823
-7.60543e-05
0.00110763
-7.30029e-05
0.0011414
-6.77744e-05
0.00117436
-6.84717e-05
0.00119404
-6.54634e-05
0.00121365
-5.86491e-05
0.00124743
-5.25162e-05
0.00127132
-5.11274e-05
0.00128388
-4.39435e-05
0.00129919
-3.84973e-05
0.00131358
-3.24478e-05
0.00131943
-2.61123e-05
0.00132554
-2.21421e-05
0.00133368
-1.7805e-05
0.00134526
-1.41689e-05
0.00135302
-1.0969e-05
0.00135778
-8.37574e-06
0.00136139
-5.6382e-06
0.00136413
-2.60094e-06
0.00136589
6.89251e-08
0.00136766
4.08056e-06
0.00136768
8.32747e-06
0.00136574
1.30123e-05
0.0013629
1.94813e-05
0.00135904
2.67769e-05
0.00135234
3.67495e-05
0.00134406
5.18454e-05
0.00133532
6.40299e-05
0.00132065
6.81456e-05
0.00130005
6.45907e-05
0.00126127
6.61422e-05
0.0012168
7.0756e-05
0.0011799
8.24468e-05
0.00112581
0.000141117
0.00102402
0.000181235
0.000954957
0.000207632
0.000880757
0.000214878
0.000780649
0.000214898
0.000693828
0.000205433
0.000604237
0.000203041
0.00050118
0.000190586
0.000423745
0.000171218
0.000367111
0.000155648
0.000311334
0.000142806
0.0002526
0.000135798
0.000201358
0.000127826
0.000159214
0.000126801
0.000127144
0.00012001
0.00010276
0.000119443
8.37247e-05
0.00011342
6.79719e-05
0.000113982
5.45798e-05
0.00010989
4.30587e-05
0.000114969
3.53819e-05
0.000112172
2.87528e-05
0.000121825
2.31603e-05
0.000120975
1.72758e-05
0.000136876
1.20007e-05
0.000137124
6.30718e-06
0.00015898
2.37352e-06
0.000163343
-2.67228e-06
0.000192778
-3.58063e-06
0.000199096
-2.8496e-06
0.000245735
7.63238e-07
-4.22317e-06
-6.38398e-06
0.000775596
-8.32337e-06
0.000783442
-1.02605e-05
0.000791612
-1.21021e-05
0.000800095
-1.38553e-05
0.000808878
-1.54846e-05
0.000817933
-1.69919e-05
0.000827242
-1.83588e-05
0.000836774
-1.9582e-05
0.000846521
-2.06382e-05
0.00085645
-2.1544e-05
0.000866521
-2.22842e-05
0.000876682
-2.28797e-05
0.000886864
-2.33074e-05
0.000897006
-2.35788e-05
0.000907161
-2.37059e-05
0.000917277
-2.36889e-05
0.000927291
-2.35301e-05
0.00093717
-2.32478e-05
0.000946885
-2.28499e-05
0.000956399
-2.23397e-05
0.000965685
-2.17273e-05
0.000974715
-2.10215e-05
0.000983465
-2.02348e-05
0.000991925
-1.93645e-05
0.00100005
-1.84393e-05
0.00100783
-1.74592e-05
0.00101523
-1.64365e-05
0.00102226
-1.53525e-05
0.00102893
-1.42538e-05
0.00103525
-1.31256e-05
0.00104116
-1.19924e-05
0.00104664
-1.08022e-05
0.00105173
-9.62007e-06
0.00105652
-8.4257e-06
0.00106088
-7.25841e-06
0.00106485
-6.08101e-06
0.00106842
-4.90021e-06
0.00107152
-3.72073e-06
0.0010742
-2.55434e-06
0.00107646
-1.63883e-06
0.00107847
-2.39129e-07
0.00107985
-6.90164e-07
0.00108141
-2.27592e-06
0.00107979
-5.87928e-05
0.00107472
-0.000100553
0.00107146
-0.00010799
0.000983402
-0.000106477
0.000940202
-0.000118526
0.000947328
-0.000123265
0.000969183
-0.000127138
0.00100602
-0.000121283
0.00104506
-0.00012126
0.00108545
-0.000118158
0.0011278
-0.000110882
0.0011677
-0.000107766
0.00120088
-0.000102784
0.0012316
-9.53551e-05
0.00126106
-9.22329e-05
0.00128771
-8.53264e-05
0.00131271
-8.02402e-05
0.00133575
-7.10445e-05
0.00135683
-6.55061e-05
0.00137252
-5.73411e-05
0.00138791
-4.97981e-05
0.00140262
-4.15582e-05
0.0014133
-3.48302e-05
0.00141859
-2.98614e-05
0.00142483
-2.49302e-05
0.00143215
-2.01842e-05
0.00144033
-1.59959e-05
0.00144472
-1.22552e-05
0.00144573
-8.54154e-06
0.00144484
-4.61023e-06
0.0014434
-7.84089e-07
0.00144196
3.83399e-06
0.00143962
9.4418e-06
0.00143769
1.62311e-05
0.00143486
2.46691e-05
0.00143049
3.51939e-05
0.00142408
4.8881e-05
0.00141577
7.00312e-05
0.00139941
8.42417e-05
0.00136526
9.82227e-05
0.00133963
9.72474e-05
0.00131862
0.000106568
0.00128552
0.000132046
0.0012187
0.000176337
0.00113919
0.000218026
0.00106755
0.000262276
0.00097201
0.000295473
0.00087242
0.00030708
0.000803826
0.000303328
0.000724325
0.000293299
0.000646753
0.0002721
0.00057881
0.000251651
0.00050431
0.000240055
0.000422243
0.00021666
0.000352774
0.000192914
0.000289122
0.000176733
0.000235188
0.000161082
0.000187563
0.000151474
0.000147723
0.000139814
0.000112203
0.000136214
8.24817e-05
0.000126136
6.22113e-05
0.000123867
4.68271e-05
0.000115918
3.51974e-05
0.000120764
2.60273e-05
0.000117764
1.73338e-05
0.000127478
1.07126e-05
0.000126354
4.00726e-06
0.00014286
-2.51336e-06
0.000141321
-8.78442e-06
0.000164236
-1.26856e-05
0.000164512
-1.54549e-05
0.000192321
-1.45302e-05
0.000195836
-1.15928e-05
0.000246616
-4.15246e-06
-1.1723e-05
-1.42231e-05
0.000785024
-1.64835e-05
0.000794961
-1.87341e-05
0.000805205
-2.08746e-05
0.00081574
-2.29047e-05
0.000826554
-2.4797e-05
0.00083762
-2.65346e-05
0.000848917
-2.81006e-05
0.000860415
-2.94906e-05
0.000872108
-3.0677e-05
0.000883956
-3.1674e-05
0.000895923
-3.24678e-05
0.000907949
-3.30781e-05
0.000919965
-3.34785e-05
0.000931905
-3.36905e-05
0.000943827
-3.37151e-05
0.000955671
-3.35613e-05
0.000967373
-3.32326e-05
0.0009789
-3.27491e-05
0.000990218
-3.21234e-05
0.00100129
-3.13573e-05
0.00101208
-3.04676e-05
0.00102257
-2.94528e-05
0.00103273
-2.83494e-05
0.00104256
-2.71413e-05
0.00105199
-2.58619e-05
0.00106101
-2.45167e-05
0.00106962
-2.31207e-05
0.00107781
-2.16577e-05
0.00108553
-2.01691e-05
0.00109288
-1.86574e-05
0.0010998
-1.71167e-05
0.00110625
-1.55479e-05
0.00111227
-1.39553e-05
0.00111793
-1.23967e-05
0.00112319
-1.08048e-05
0.00112787
-9.19123e-06
0.00113206
-7.6638e-06
0.0011358
-6.08832e-06
0.00113899
-4.57613e-06
0.00114163
-3.07011e-06
0.00114416
-1.78974e-06
0.00114577
1.00242e-06
0.00114701
2.88788e-06
0.00114674
-5.26704e-05
0.00113218
-1.24379e-05
0.00102808
-6.54316e-05
0.000944365
-0.000113293
0.000929888
-0.00013913
0.000961642
-0.000158603
0.00100477
-0.000167491
0.00105276
-0.000161687
0.00110144
-0.000164372
0.00115191
-0.000156247
0.0011998
-0.000144602
0.00124273
-0.00014047
0.00128291
-0.000134694
0.00132023
-0.000123535
0.001352
-0.000117194
0.00138286
-0.000105217
0.00141193
-0.00010016
0.00143667
-8.94156e-05
0.00145998
-8.06552e-05
0.00148282
-6.96742e-05
0.00149875
-6.07243e-05
0.0015104
-5.13479e-05
0.00152282
-4.37866e-05
0.00153218
-3.68547e-05
0.00153706
-3.07087e-05
0.00154084
-2.4947e-05
0.00154361
-1.91762e-05
0.00154588
-1.38265e-05
0.00154691
-8.82058e-06
0.00154748
-3.68256e-06
0.00154753
9.69381e-07
0.00154577
6.5184e-06
0.00154105
1.29809e-05
0.0015344
2.09525e-05
0.00152556
3.17443e-05
0.00151534
4.55513e-05
0.00150479
6.27819e-05
0.0014914
8.77234e-05
0.00147321
0.000112483
0.00145692
0.000132832
0.00143062
0.000139182
0.00137971
0.000166273
0.00130932
0.000213069
0.00125004
0.000266341
0.00117672
0.000308118
0.00107287
0.000348833
0.00100171
0.000365115
0.000942723
0.000385016
0.000870291
0.000380291
0.000800422
0.000371279
0.000736063
0.000353837
0.000662217
0.000322789
0.000589678
0.000298491
0.000517853
0.000277476
0.000443461
0.000247946
0.000372022
0.000229416
0.000307736
0.000204491
0.000248118
0.000187626
0.000199344
0.000169123
0.000154746
0.000156377
0.000119257
0.000141984
9.01314e-05
0.000134857
6.54696e-05
0.000124339
4.60855e-05
0.000128234
3.08508e-05
0.00012401
1.79036e-05
0.000134236
8.1011e-06
0.000133445
-5.92204e-07
0.000149766
-7.91384e-06
0.000145731
-1.44918e-05
0.000167427
-1.79444e-05
0.000164087
-2.00276e-05
0.000189844
-1.916e-05
0.000188748
-1.62192e-05
0.000242513
-9.64755e-06
-2.13454e-05
-2.4154e-05
0.000795647
-2.67179e-05
0.000807633
-2.92601e-05
0.000819901
-3.16796e-05
0.000832441
-3.39651e-05
0.000845241
-3.60966e-05
0.000858274
-3.80435e-05
0.000871515
-3.9787e-05
0.000884937
-4.13185e-05
0.000898533
-4.26094e-05
0.000912263
-4.36689e-05
0.000926085
-4.44874e-05
0.000939938
-4.50762e-05
0.000953749
-4.54167e-05
0.000967453
-4.553e-05
0.000981107
-4.54133e-05
0.000994641
-4.50811e-05
0.001008
-4.45371e-05
0.00102114
-4.38073e-05
0.00103402
-4.29038e-05
0.00104662
-4.18314e-05
0.00105889
-4.06096e-05
0.0010708
-3.92467e-05
0.00108234
-3.77643e-05
0.0010935
-3.61669e-05
0.0011042
-3.44827e-05
0.00111444
-3.27185e-05
0.00112422
-3.08853e-05
0.00113351
-2.90062e-05
0.00114231
-2.70861e-05
0.00115068
-2.51175e-05
0.00115854
-2.3125e-05
0.00116586
-2.11246e-05
0.00117269
-1.91042e-05
0.00117912
-1.70772e-05
0.00118507
-1.50336e-05
0.00119048
-1.30314e-05
0.00119535
-1.09952e-05
0.0011997
-8.73079e-06
0.00120344
-6.81358e-06
0.00120661
-4.34217e-06
0.00120941
-2.75725e-06
0.00121195
1.58476e-06
0.00121345
1.7743e-05
0.00121363
5.3041e-05
0.00120877
7.06437e-05
0.00110664
-5.11732e-05
0.00100885
-0.000145513
0.00101085
-0.000180725
0.00107406
-0.000204662
0.00114116
-0.000215231
0.001211
-0.000210394
0.00127829
-0.000211357
0.00133892
-0.000198939
0.00139367
-0.000185283
0.00144528
-0.000179612
0.00149001
-0.000168761
0.00153077
-0.000154823
0.00156806
-0.00014624
0.00159699
-0.000131275
0.00162073
-0.000120952
0.00164248
-0.000108918
0.0016611
-9.73753e-05
0.00167706
-8.33533e-05
0.00168958
-7.23175e-05
0.00169943
-6.14123e-05
0.0017065
-5.1492e-05
0.00171151
-4.20208e-05
0.00171526
-3.40824e-05
0.00171634
-2.71593e-05
0.00171604
-2.03821e-05
0.00171461
-1.3719e-05
0.00171222
-7.21044e-06
0.00170844
-9.01318e-07
0.00170389
5.34518e-06
0.00169786
1.17909e-05
0.00168982
1.91955e-05
0.00168041
2.86052e-05
0.00166984
4.14889e-05
0.00165983
5.89027e-05
0.00164511
7.9544e-05
0.00162638
0.000110287
0.00160373
0.000145631
0.00157951
0.000167453
0.00154595
0.000195332
0.00148437
0.0002326
0.00143663
0.000290248
0.00136218
0.000361028
0.00125774
0.000381624
0.00118435
0.000418276
0.00110261
0.000436518
0.00102141
0.000451633
0.000954582
0.000448869
0.000891962
0.00044253
0.000822511
0.000425528
0.000752885
0.000403428
0.00068897
0.000377105
0.000613234
0.000349681
0.000535173
0.000313102
0.000455421
0.00028967
0.000382278
0.000252672
0.000316051
0.000232441
0.000258264
0.000205247
0.000207852
0.000186035
0.000164164
0.000166589
0.000125379
0.000153963
9.41498e-05
0.000139751
6.90676e-05
0.000141329
4.66876e-05
0.000133513
2.81139e-05
0.000142198
1.53086e-05
0.000140806
3.13165e-06
0.000156803
-6.52041e-06
0.000149858
-1.41205e-05
0.000170236
-1.8705e-05
0.000163745
-2.17988e-05
0.000187248
-2.11449e-05
0.000182351
-1.9062e-05
0.000233066
-1.34667e-05
-3.30397e-05
-3.61331e-05
0.000807479
-3.89765e-05
0.000821457
-4.17912e-05
0.0008357
-4.44682e-05
0.000850194
-4.69915e-05
0.00086493
-4.93404e-05
0.000879882
-5.14778e-05
0.000895021
-5.33763e-05
0.000910322
-5.50254e-05
0.000925776
-5.63952e-05
0.00094134
-5.74918e-05
0.000956974
-5.83041e-05
0.000972613
-5.88377e-05
0.000988177
-5.90862e-05
0.0010036
-5.90625e-05
0.00101895
-5.8767e-05
0.00103414
-5.82144e-05
0.00104911
-5.74117e-05
0.00106382
-5.63892e-05
0.00107824
-5.51594e-05
0.00109232
-5.37341e-05
0.00110603
-5.21302e-05
0.00111934
-5.03665e-05
0.00113223
-4.84509e-05
0.00114468
-4.64178e-05
0.00115664
-4.42736e-05
0.00116807
-4.20365e-05
0.00117898
-3.97213e-05
0.00118936
-3.73654e-05
0.00119926
-3.49478e-05
0.00120862
-3.24958e-05
0.0012174
-2.99959e-05
0.00122561
-2.75054e-05
0.00123333
-2.4972e-05
0.00124059
-2.24752e-05
0.00124737
-1.99249e-05
0.00125343
-1.744e-05
0.00125903
-1.4912e-05
0.00126392
-1.23074e-05
0.00126849
-9.75059e-06
0.00127251
-6.7002e-06
0.00127625
-4.11785e-06
0.00127925
1.5781e-06
0.00128292
2.24886e-05
0.00128326
0.000156625
0.00129417
0.000169185
0.00135836
-5.29286e-05
0.00122084
-0.000210892
0.00125584
-0.000251493
0.00133335
-0.000273774
0.00141528
-0.000278707
0.00149205
-0.000269608
0.00155896
-0.000265189
0.00161942
-0.000248494
0.00166751
-0.00023235
0.00170557
-0.000222759
0.00173568
-0.000206209
0.00175995
-0.000184569
0.00177982
-0.000171029
0.00180002
-0.000153091
0.00181231
-0.00013878
0.00182143
-0.000123394
0.00182919
-0.000109343
0.0018352
-9.36063e-05
0.00184037
-7.99845e-05
0.00184452
-6.68637e-05
0.00184722
-5.55877e-05
0.00184787
-4.43829e-05
0.00184754
-3.39094e-05
0.00184521
-2.49218e-05
0.00184037
-1.7162e-05
0.00183541
-9.42748e-06
0.00183027
-2.01521e-06
0.00182435
5.04679e-06
0.00181733
1.29546e-05
0.00180923
2.10336e-05
0.00180075
2.9906e-05
0.00179034
4.04064e-05
0.00177673
5.48358e-05
0.0017612
7.42819e-05
0.00174466
9.951e-05
0.00172726
0.000137754
0.00170843
0.000174505
0.00168805
0.000217627
0.00165845
0.000259687
0.00162147
0.000310072
0.00155067
0.000381119
0.00146605
0.00044355
0.0013914
0.000473521
0.00129954
0.000487242
0.00121053
0.000500679
0.0011354
0.000513867
0.00105408
0.00051414
0.000981113
0.000513423
0.000910311
0.000498427
0.000834631
0.000485279
0.000757103
0.000460885
0.000682282
0.000426306
0.000610162
0.000389529
0.000532337
0.000356689
0.000451909
0.000308899
0.000379419
0.000283057
0.000318914
0.000248549
0.000263242
0.000222736
0.000216176
0.00019743
0.000174703
0.000180908
0.000137476
0.000163949
0.000102019
0.000159763
7.1308e-05
0.00014601
4.67257e-05
0.000153677
2.70972e-05
0.000149827
9.9118e-06
0.000164442
-9.28978e-07
0.00015492
-9.72841e-06
0.000173881
-1.58415e-05
0.000163427
-2.03384e-05
0.00018547
-2.09307e-05
0.000176966
-1.98657e-05
0.00021997
-1.59503e-05
-4.6753e-05
-5.01041e-05
0.000820529
-5.32089e-05
0.000836445
-5.62774e-05
0.000852604
-5.91931e-05
0.000868999
-6.19375e-05
0.000885619
-6.44823e-05
0.000902436
-6.67885e-05
0.000919421
-6.88235e-05
0.000936551
-7.05664e-05
0.000953814
-7.1993e-05
0.000971165
-7.30975e-05
0.000988562
-7.38741e-05
0.00100594
-7.43207e-05
0.00102321
-7.44489e-05
0.00104031
-7.42459e-05
0.00105731
-7.37344e-05
0.0010741
-7.29205e-05
0.00109065
-7.18202e-05
0.00110689
-7.0457e-05
0.0011228
-6.88561e-05
0.00113833
-6.70303e-05
0.00115345
-6.4998e-05
0.00116812
-6.2779e-05
0.00118231
-6.03866e-05
0.00119602
-5.78609e-05
0.00120919
-5.52049e-05
0.00122179
-5.24463e-05
0.00123381
-4.96094e-05
0.00124523
-4.66969e-05
0.00125611
-4.3749e-05
0.00126645
-4.07491e-05
0.00127615
-3.77243e-05
0.00128523
-3.46816e-05
0.00129371
-3.16309e-05
0.0013017
-2.85386e-05
0.00130913
-2.55199e-05
0.00131593
-2.23673e-05
0.00132206
-1.94083e-05
0.00132764
-1.61674e-05
0.00133262
-1.3363e-05
0.00133738
-9.50715e-06
0.0013416
-7.76949e-06
0.00134645
9.50619e-07
0.00134911
1.14029e-05
0.0013549
9.30302e-05
0.0013632
0.000309586
0.00146575
-8.55371e-05
0.00156955
-0.000290677
0.00166019
-0.000334719
0.00171784
-0.00035337
0.00176574
-0.000346294
0.00179602
-0.000328328
0.00182244
-0.000309331
0.00184645
-0.000285122
0.00186877
-0.0002653
0.00188959
-0.000249738
0.00190414
-0.000226809
0.00191176
-0.000204332
0.00191829
-0.000183958
0.00192652
-0.000163271
0.00193097
-0.00014733
0.00193576
-0.000129767
0.00193522
-0.000113972
0.0019368
-9.69612e-05
0.00193641
-8.20849e-05
0.00193726
-6.72141e-05
0.00193602
-5.58424e-05
0.00193516
-4.29578e-05
0.00193096
-3.1269e-05
0.00192775
-2.0614e-05
0.00192249
-1.13926e-05
0.0019154
-2.91653e-06
0.00190794
5.66876e-06
0.00189984
1.39177e-05
0.00189035
2.26011e-05
0.00188025
3.19407e-05
0.00186932
4.19891e-05
0.00185742
5.34439e-05
0.00184407
6.97904e-05
0.0018284
9.12753e-05
0.00181281
0.000119443
0.00179278
0.000157412
0.00177166
0.000204586
0.00175261
0.000258356
0.00171721
0.000320642
0.00168061
0.000398215
0.00162243
0.000461686
0.00154106
0.000525714
0.00147148
0.000561839
0.00142386
0.000572176
0.00135949
0.000585208
0.00127294
0.000585798
0.0011838
0.000585999
0.00108539
0.00058383
0.000989151
0.0005747
0.000906022
0.000559594
0.000828289
0.000539475
0.000749388
0.000504735
0.000674485
0.000474119
0.000598083
0.00042568
0.000520439
0.000367601
0.000448303
0.000337579
0.000379712
0.000294794
0.000319963
0.000264698
0.000271448
0.000235169
0.000226539
0.000216662
0.000184418
0.000195562
0.000141192
0.00018527
0.000104083
0.000165864
7.27108e-05
0.00016986
4.5222e-05
0.000159778
2.33909e-05
0.00017305
1.05255e-05
0.000161179
3.03473e-07
0.000178359
-8.27036e-06
0.000163957
-1.47145e-05
0.000184442
-1.69599e-05
0.000173209
-1.71366e-05
0.000204402
-1.42886e-05
-6.24261e-05
-6.60134e-05
0.00083481
-6.93586e-05
0.0008526
-7.26632e-05
0.000870618
-7.58008e-05
0.000888854
-7.87488e-05
0.000907299
-8.14709e-05
0.000925923
-8.39278e-05
0.000944702
-8.60784e-05
0.000963606
-8.78945e-05
0.000982624
-8.93531e-05
0.00100171
-9.04412e-05
0.00102082
-9.11523e-05
0.00103988
-9.14836e-05
0.00105881
-9.14562e-05
0.00107755
-9.10414e-05
0.00109614
-9.02744e-05
0.0011145
-8.91608e-05
0.00113256
-8.77201e-05
0.0011503
-8.59725e-05
0.00116765
-8.39567e-05
0.00118459
-8.16832e-05
0.00120107
-7.91758e-05
0.00121706
-7.64554e-05
0.00123253
-7.35333e-05
0.00124746
-7.0463e-05
0.0012618
-6.72515e-05
0.00127553
-6.39233e-05
0.00128864
-6.05034e-05
0.00130109
-5.70062e-05
0.00131293
-5.34666e-05
0.00132422
-4.98848e-05
0.00133482
-4.62531e-05
0.00134473
-4.26323e-05
0.00135407
-3.89799e-05
0.00136283
-3.53614e-05
0.00137102
-3.17384e-05
0.00137842
-2.81493e-05
0.00138524
-2.45884e-05
0.00139151
-2.09899e-05
0.0013972
-1.72919e-05
0.00140217
-1.35802e-05
0.00140659
-1.0103e-05
0.00141073
-5.06087e-06
0.00141494
2.12553e-06
0.00142079
-8.80174e-06
0.00143104
0.000210008
0.0015264
-0.000176457
0.00202328
-0.000349485
0.00213782
-0.000380055
0.00210346
-0.000383044
0.00206021
-0.000373361
0.00202749
-0.000352557
0.00200594
-0.000329697
0.00199368
-0.000303026
0.00198715
-0.000280365
0.00199179
-0.000259877
0.00199557
-0.000235467
0.00199589
-0.000213184
0.00199624
-0.000188872
0.00199513
-0.000168653
0.00199585
-0.000148028
0.00199552
-0.000132617
0.00199606
-0.000114262
0.00199338
-9.7836e-05
0.00199233
-7.99998e-05
0.00198947
-6.57016e-05
0.00198736
-5.14772e-05
0.00198357
-3.95391e-05
0.00198071
-2.67592e-05
0.00197538
-1.51794e-05
0.00196766
-4.98252e-06
0.00195938
4.7715e-06
0.00195106
1.4503e-05
0.00194207
2.40041e-05
0.00193173
3.39374e-05
0.00192046
4.44533e-05
0.00190856
5.58051e-05
0.00189555
6.87638e-05
0.00188122
8.48236e-05
0.00186445
0.000109938
0.00184545
0.000140802
0.00182765
0.000177264
0.00180955
0.000236362
0.00178588
0.000297438
0.00176663
0.000380831
0.00170932
0.000464442
0.00163584
0.000542878
0.00158426
0.000599624
0.00153395
0.000621751
0.00144653
0.000657739
0.0013752
0.000674907
0.00132221
0.000679362
0.00125699
0.000674062
0.00117503
0.000658405
0.00108223
0.000652403
0.000986198
0.000637185
0.000892689
0.00061856
0.000804425
0.000584751