/*--------------------------------*- C++ -*----------------------------------*\
| =========                 |                                                 |
| \\      /  F ield         | OpenFOAM: The Open Source CFD Toolbox           |
|  \\    /   O peration     | Version:  2.2.x                                 |
|   \\  /    A nd           | Web:      www.OpenFOAM.org                      |
|    \\/     M anipulation  |                                                 |
\*---------------------------------------------------------------------------*/
FoamFile
{
    version     2.0;
    format      ascii;
    class       surfaceScalarField;
    location    "1.6";
    object      phi;
}
// * * * * * * * * * * * * * * * * * * * * * * * * * * * * * * * * * * * * * //

dimensions      [1 0 -1 0 0 0 0];

internalField   nonuniform List<scalar> 
28084
(
0.000746225
0.000742992
0.000740219
0.000737885
0.00073597
0.000734457
0.000733314
0.000732514
0.000732047
0.000731888
0.000731968
0.000732303
0.000732888
0.000733633
0.000734497
0.00073557
0.000736768
0.000737937
0.000739234
0.000740663
0.000742071
0.000743356
0.000744614
0.000745966
0.000747365
0.000748653
0.000749802
0.000750817
0.00075155
0.000752354
0.000753113
0.000753796
0.000754415
0.000755167
0.00075545
0.000755138
0.000754877
0.000755091
0.000754855
0.000753766
0.000751997
0.000751181
0.000751574
0.000749824
0.000737326
0.000723821
0.000715723
0.000720632
0.000734875
0.00075343
0.000778002
0.000804843
0.000832248
0.000859552
0.000885723
0.000911682
0.000935628
0.000958194
0.000980081
0.000999865
0.00101876
0.00103693
0.00105311
0.00106979
0.00108511
0.0010967
0.00110632
0.00111684
0.00112704
0.00113712
0.00114796
0.00115918
0.00116763
0.0011743
0.00118203
0.00118625
0.00118736
0.00118832
0.00118935
0.00118955
0.00119565
0.00120306
0.00120127
0.00119592
0.00118955
0.00118352
0.0011767
0.00117666
0.0011844
0.00118142
0.00117423
0.00116629
0.00116089
0.00115687
0.00115685
0.00115896
0.00115799
0.00115549
0.00115366
0.00115524
0.00116047
0.00116905
0.0011798
0.00119195
0.00120422
0.00121541
0.00121931
0.00119708
0.00112332
0.00100616
0.000879061
0.000767808
0.00067506
0.000590254
0.000501591
0.000403642
0.00028799
0.000174802
3.71198e-06
3.23506e-06
0.000749742
2.77584e-06
0.000748788
2.33584e-06
0.000748265
1.91598e-06
0.000748154
1.51868e-06
0.000748438
1.14568e-06
0.000749097
7.96346e-07
0.000750102
4.72742e-07
0.000751426
1.76356e-07
0.000753057
-9.25361e-08
0.000754967
-3.39184e-07
0.000757086
-5.48751e-07
0.000759431
-7.38641e-07
0.000761991
-9.04763e-07
0.000764675
-1.03297e-06
0.00076744
-1.14674e-06
0.000770376
-1.24085e-06
0.000773391
-1.30215e-06
0.000776329
-1.33841e-06
0.00077935
-1.36191e-06
0.000782453
-1.34467e-06
0.00078549
-1.32037e-06
0.000788351
-1.34055e-06
0.000791108
-1.33381e-06
0.000793933
-1.18963e-06
0.000796731
-1.09535e-06
0.000799376
-1.0401e-06
0.000801815
-9.93059e-07
0.000804025
-8.89391e-07
0.000805963
-7.61903e-07
0.000807888
-6.3203e-07
0.000809699
-5.03178e-07
0.000811381
-3.55706e-07
0.00081293
-1.89405e-07
0.000814556
-6.22667e-08
0.000815682
4.44446e-08
0.000816162
1.75158e-07
0.00081671
3.68495e-07
0.000817555
4.37237e-07
0.000817934
4.91289e-07
0.000817532
6.18598e-07
0.000816252
8.6894e-07
0.000815638
2.68263e-06
0.000815872
8.24286e-06
0.000813116
1.17659e-05
0.000790066
7.87654e-06
0.000773283
-4.85832e-06
0.000766648
-1.39841e-05
0.000773749
-1.81485e-05
0.000790102
-2.42532e-05
0.000811525
-2.64144e-05
0.000838248
-2.76163e-05
0.000866052
-2.72623e-05
0.000893067
-2.62227e-05
0.000919221
-2.56659e-05
0.000944522
-2.44439e-05
0.000969114
-2.25674e-05
0.000992955
-2.14416e-05
0.0010147
-2.06149e-05
0.00103563
-1.9414e-05
0.00105536
-1.72744e-05
0.00107342
-1.6292e-05
0.00109229
-1.66199e-05
0.00110977
-1.62983e-05
0.00112503
-1.42677e-05
0.00113894
-1.24213e-05
0.00115142
-1.11031e-05
0.00116217
-1.07481e-05
0.00117287
-1.02252e-05
0.00118376
-8.6507e-06
0.00119261
-6.74153e-06
0.00120039
-6.27959e-06
0.00120983
-6.34552e-06
0.00121788
-6.45718e-06
0.00122332
-5.66961e-06
0.00122935
-4.27282e-06
0.00123468
-2.56796e-06
0.00123638
-1.14585e-06
0.00123695
-8.70126e-07
0.00123848
-1.03777e-06
0.00123894
-1.8652e-06
0.00124161
-1.06879e-06
0.00124995
1.10286e-06
0.001248
3.10369e-06
0.00124122
5.17545e-06
0.00123413
5.92561e-06
0.00122759
6.00748e-06
0.00122013
5.07847e-06
0.00121641
2.51969e-06
0.00121832
-1.22771e-08
0.00121894
-2.40028e-07
0.00121421
2.0529e-06
0.00120667
2.89616e-06
0.00120127
3.35564e-06
0.00119641
3.29461e-06
0.00119269
2.77151e-06
0.0011924
1.8052e-06
0.00119006
7.84903e-07
0.00118666
-1.14699e-06
0.00118414
-3.46822e-06
0.00118543
-6.50538e-06
0.00119068
-7.76584e-06
0.00119609
-1.08605e-05
0.00120246
-1.53425e-05
0.00121074
-1.3541e-05
0.00121644
-8.44113e-06
0.00121296
2.07239e-05
0.00118164
7.93401e-05
0.00109734
0.00012332
0.000977204
0.00012804
0.000867414
0.000108621
0.000769179
9.24993e-05
0.000677085
8.56032e-05
0.000593989
8.8799e-05
0.000513429
9.72289e-05
0.000427375
0.000114889
0.000334327
0.000113412
0.000231739
0.000176921
0.000122397
5.11213e-06
4.19067e-06
0.000754437
3.30133e-06
0.000755734
2.44827e-06
0.000757432
1.63429e-06
0.000759518
8.64443e-07
0.000761973
1.43342e-07
0.000764779
-5.30162e-07
0.000767906
-1.15146e-06
0.000771331
-1.71615e-06
0.000775035
-2.22512e-06
0.000778988
-2.68684e-06
0.000783128
-3.07262e-06
0.000787459
-3.41692e-06
0.000791972
-3.70974e-06
0.000796573
-3.92741e-06
0.000801223
-4.11062e-06
0.000806
-4.2508e-06
0.000810807
-4.32696e-06
0.000815499
-4.35548e-06
0.000820225
-4.34459e-06
0.00082497
-4.25937e-06
0.000829622
-4.15592e-06
0.000834041
-4.15396e-06
0.000838292
-4.05116e-06
0.000842591
-3.72383e-06
0.000846769
-3.48802e-06
0.000850728
-3.30706e-06
0.000854409
-3.15514e-06
0.00085784
-2.89336e-06
0.000861011
-2.58956e-06
0.000864059
-2.2749e-06
0.00086691
-1.9563e-06
0.000869555
-1.60408e-06
0.00087201
-1.23299e-06
0.000874454
-9.1401e-07
0.00087642
-6.4035e-07
0.000877816
-3.20971e-07
0.000879217
3.27802e-08
0.000880593
3.18887e-07
0.000881565
6.49099e-07
0.000882117
9.23503e-07
0.000881802
1.72596e-06
0.000880634
6.33423e-06
0.00088044
2.68961e-05
0.000876541
2.68784e-05
0.000844236
1.44203e-05
0.00081858
-1.18157e-05
0.000813286
-3.02617e-05
0.000822373
-3.95826e-05
0.000839707
-5.08205e-05
0.000863921
-5.39178e-05
0.000891732
-5.4614e-05
0.000922912
-5.37091e-05
0.00095343
-5.12996e-05
0.000981292
-5.03596e-05
0.00100784
-4.85038e-05
0.00103336
-4.48395e-05
0.0010579
-4.26232e-05
0.00108034
-4.06872e-05
0.00110067
-3.77511e-05
0.00112012
-3.52699e-05
0.00113846
-3.30434e-05
0.0011562
-3.22215e-05
0.00117356
-3.17366e-05
0.00118849
-2.83273e-05
0.00120108
-2.48259e-05
0.00121311
-2.36438e-05
0.00122468
-2.29128e-05
0.0012354
-2.05366e-05
0.00124662
-1.71477e-05
0.00125512
-1.32433e-05
0.00126164
-1.13032e-05
0.00126869
-1.13733e-05
0.00127483
-1.16292e-05
0.00127978
-1.02074e-05
0.00128428
-7.84312e-06
0.00128808
-5.41791e-06
0.00128901
-2.69145e-06
0.00128885
-8.74684e-07
0.00129048
-4.65701e-07
0.0012918
-2.10182e-06
0.00129293
-1.14247e-06
0.00129658
2.01284e-06
0.00129501
5.15589e-06
0.00128869
8.44507e-06
0.00128242
1.06254e-05
0.00127694
1.21534e-05
0.00126918
1.10145e-05
0.00126214
7.86283e-06
0.0012569
4.44e-06
0.00125277
1.96645e-06
0.00124943
4.67495e-06
0.001247
5.7248e-06
0.00124222
6.44095e-06
0.0012366
6.35591e-06
0.00123078
5.87642e-06
0.00122686
5.0663e-06
0.00122312
2.90543e-06
0.00121831
-5.26767e-07
0.00121557
-5.21533e-06
0.00121789
-9.6752e-06
0.00122018
-1.32698e-05
0.00122171
-1.98639e-05
0.00122434
-2.32924e-05
0.00122259
-1.12791e-05
0.00120718
2.01769e-05
0.00115547
0.000107249
0.00103264
0.00020596
0.000883656
0.000237682
0.000774654
0.000225865
0.000695884
0.000198177
0.000628102
0.000175566
0.000561776
0.000166869
0.000495791
0.000175679
0.000427256
0.000188731
0.000352498
0.000216221
0.000272244
0.000223543
0.000183889
0.000301705
9.09074e-05
4.23067e-06
2.89584e-06
0.00076031
1.60471e-06
0.000763825
3.64585e-07
0.000767714
-8.18485e-07
0.000771965
-1.93677e-06
0.000776561
-2.98231e-06
0.000781484
-3.9554e-06
0.000786707
-4.84865e-06
0.000792204
-5.65493e-06
0.000797956
-6.37613e-06
0.000803923
-7.01977e-06
0.00081006
-7.55511e-06
0.000816354
-8.01461e-06
0.000822791
-8.39444e-06
0.000829283
-8.66255e-06
0.000835799
-8.87202e-06
0.000842394
-9.01152e-06
0.000848965
-9.05585e-06
0.000855393
-9.02272e-06
0.0008618
-8.93332e-06
0.000868169
-8.72878e-06
0.000874412
-8.51648e-06
0.000880375
-8.40769e-06
0.000886112
-8.12589e-06
0.000891853
-7.5961e-06
0.000897406
-7.15693e-06
0.000902675
-6.81932e-06
0.000907538
-6.47939e-06
0.000912204
-5.99258e-06
0.000916601
-5.4578e-06
0.000920772
-4.90903e-06
0.00092464
-4.33659e-06
0.000928186
-3.74998e-06
0.000931517
-3.14317e-06
0.000934769
-2.5891e-06
0.000937578
-2.02211e-06
0.000939949
-1.49979e-06
0.000942164
-9.68042e-07
0.000944146
-4.62739e-07
0.000945803
3.27008e-07
0.000947206
1.01696e-06
0.000947188
2.3684e-06
0.000946016
1.13714e-05
0.000945997
5.52434e-05
0.000941936
5.10433e-05
0.000907279
1.95298e-05
0.000877889
-2.09218e-05
0.000868124
-4.78299e-05
0.000877531
-6.43635e-05
0.000897735
-7.89488e-05
0.000926407
-8.49655e-05
0.000956017
-8.51975e-05
0.000989551
-8.19038e-05
0.0010216
-7.79629e-05
0.00105143
-7.5721e-05
0.00107955
-7.25556e-05
0.00110655
-6.82888e-05
0.00113214
-6.35735e-05
0.00115592
-6.03013e-05
0.00117664
-5.67433e-05
0.00119484
-5.27585e-05
0.0012123
-5.00449e-05
0.00122927
-4.72855e-05
0.00124563
-4.42132e-05
0.00125914
-4.00977e-05
0.00127123
-3.61646e-05
0.00128285
-3.50285e-05
0.00129418
-3.43954e-05
0.00130609
-3.10032e-05
0.00131699
-2.5864e-05
0.00132382
-2.0787e-05
0.00133009
-1.7282e-05
0.00133536
-1.64284e-05
0.00133904
-1.61676e-05
0.0013436
-1.28875e-05
0.00134698
-9.03692e-06
0.00134778
-6.06694e-06
0.00134865
-3.0518e-06
0.00134842
-7.05947e-07
0.00134916
6.63421e-07
0.00135196
1.55787e-06
0.00135143
2.73066e-06
0.00134843
5.03766e-06
0.00134676
8.0805e-06
0.00134387
1.09574e-05
0.00134049
1.28797e-05
0.00133259
1.42651e-05
0.00132224
1.42556e-05
0.00131223
1.48126e-05
0.00130239
1.30711e-05
0.00129459
1.06536e-05
0.00128948
1.1361e-05
0.0012917
1.02353e-05
0.0012877
1.01697e-05
0.00128101
9.35635e-06
0.00127283
7.93352e-06
0.00126501
7.53299e-06
0.00125813
5.27649e-06
0.00125231
1.3324e-06
0.00125062
-3.67778e-06
0.00125043
-1.09873e-05
0.00124739
-1.64318e-05
0.00124414
-1.92616e-05
0.00123391
-8.21189e-06
0.00119862
3.94899e-05
0.0011123
0.000140892
0.000945707
0.000260827
0.000774971
0.000319553
0.000665338
0.000317681
0.000595808
0.000290684
0.000543025
0.000262565
0.000498634
0.000242778
0.000453085
0.000236761
0.000402504
0.000250613
0.000346057
0.000267208
0.000283813
0.000303351
0.00021585
0.000317714
0.000142894
0.000395148
6.76605e-05
1.10135e-06
-6.16754e-07
0.000767364
-2.28234e-06
0.00077306
-3.88449e-06
0.000779104
-5.41229e-06
0.000785486
-6.85572e-06
0.00079219
-8.2033e-06
0.000799198
-9.45154e-06
0.000806485
-1.05933e-05
0.000814024
-1.16138e-05
0.00082179
-1.25195e-05
0.000829741
-1.33093e-05
0.000837848
-1.39695e-05
0.000846086
-1.45042e-05
0.000854411
-1.49337e-05
0.000862759
-1.52178e-05
0.000871122
-1.54104e-05
0.000879515
-1.55018e-05
0.000887816
-1.54664e-05
0.000895954
-1.53252e-05
0.000904021
-1.51024e-05
0.000911998
-1.47442e-05
0.000919804
-1.43789e-05
0.000927279
-1.4044e-05
0.000934474
-1.355e-05
0.000941646
-1.28005e-05
0.000948579
-1.21153e-05
0.000955128
-1.15424e-05
0.000961156
-1.09176e-05
0.000967057
-1.01843e-05
0.000972647
-9.35025e-06
0.000977899
-8.51511e-06
0.000982788
-7.64224e-06
0.000987205
-6.783e-06
0.000991371
-5.87333e-06
0.00099539
-5.03561e-06
0.000999102
-4.15027e-06
0.00100236
-3.37287e-06
0.00100541
-2.59634e-06
0.00100831
-1.60127e-06
0.00101058
-5.25317e-07
0.0010124
4.06346e-07
0.00101265
2.52765e-06
0.00101184
1.6534e-05
0.00101255
8.59595e-05
0.00100928
7.90111e-05
0.000972725
2.91743e-05
0.000943447
-3.0542e-05
0.000930946
-6.8329e-05
0.000941834
-9.36785e-05
0.000966417
-0.000109121
0.00100044
-0.000118536
0.00103257
-0.00011736
0.0010666
-0.000112018
0.00110031
-0.000106104
0.00113116
-0.000102173
0.00116041
-9.77314e-05
0.00118794
-9.16612e-05
0.00121372
-8.51516e-05
0.00123863
-7.98467e-05
0.00126183
-7.48885e-05
0.00128097
-7.03269e-05
0.00129763
-6.57101e-05
0.00131306
-6.05833e-05
0.00132677
-5.51289e-05
0.00133959
-4.99667e-05
0.00135083
-4.70722e-05
0.00136269
-4.48264e-05
0.00137444
-4.32913e-05
0.00138526
-4.03031e-05
0.0013958
-3.46958e-05
0.00140182
-2.8995e-05
0.00140619
-2.48581e-05
0.00141248
-2.18498e-05
0.00141633
-1.95675e-05
0.00141805
-1.57532e-05
0.00142087
-9.9316e-06
0.00142025
-4.9896e-06
0.00141869
-1.34586e-06
0.00141763
1.52523e-06
0.00141598
3.90071e-06
0.00141679
6.20482e-06
0.00141511
8.05199e-06
0.00140941
9.77989e-06
0.00140425
1.27728e-05
0.00140144
1.44023e-05
0.00140059
1.50366e-05
0.00139316
1.61694e-05
0.00138245
1.78549e-05
0.00137045
2.10622e-05
0.00135784
2.27291e-05
0.00134727
2.20674e-05
0.00134036
2.0698e-05
0.00134008
1.78708e-05
0.00133474
1.63103e-05
0.00132695
1.44158e-05
0.00131657
1.25847e-05
0.00130699
1.22051e-05
0.00129877
9.13671e-06
0.00129262
5.76265e-06
0.00128874
8.26428e-07
0.00128256
-6.97104e-06
0.00127129
-6.69672e-06
0.0012467
1.58113e-05
0.00118997
7.87526e-05
0.00106943
0.000206341
0.000867402
0.000314688
0.000695602
0.000373788
0.000582758
0.000388376
0.000511226
0.000366493
0.000466235
0.000332473
0.000433601
0.000310795
0.00040208
0.000295387
0.000367864
0.000292775
0.000326505
0.00031148
0.000278852
0.00033369
0.000226637
0.000375923
0.000170133
0.000394447
0.000112359
0.000465281
5.15054e-05
-4.23819e-06
-6.31079e-06
0.000775602
-8.32458e-06
0.000783439
-1.02644e-05
0.000791599
-1.21138e-05
0.000800074
-1.38603e-05
0.00080885
-1.54881e-05
0.000817906
-1.69872e-05
0.000827219
-1.83536e-05
0.000836769
-1.9563e-05
0.000846513
-2.06251e-05
0.000856417
-2.15343e-05
0.000866459
-2.22826e-05
0.000876606
-2.28548e-05
0.000886781
-2.33002e-05
0.00089697
-2.35743e-05
0.000907158
-2.36936e-05
0.000917299
-2.3687e-05
0.000927306
-2.35371e-05
0.000937126
-2.32455e-05
0.000946829
-2.28226e-05
0.000956395
-2.22819e-05
0.000965735
-2.17237e-05
0.00097468
-2.10717e-05
0.000983322
-2.02942e-05
0.000991908
-1.93109e-05
0.00100017
-1.83635e-05
0.00100797
-1.7434e-05
0.00101516
-1.646e-05
0.00102226
-1.54295e-05
0.00102903
-1.42756e-05
0.00103536
-1.30717e-05
0.00104125
-1.18887e-05
0.00104662
-1.06787e-05
0.00105156
-9.43761e-06
0.00105631
-8.24083e-06
0.00106083
-7.06883e-06
0.00106495
-5.91175e-06
0.00106884
-4.66663e-06
0.00107269
-3.18247e-06
0.00107538
-2.02282e-06
0.00107736
-8.59352e-07
0.00107835
2.18295e-06
0.00107833
2.07444e-05
0.00108001
0.00011778
0.00107737
0.000106483
0.00103499
4.17878e-05
0.00100137
-4.12369e-05
0.00099471
-9.30551e-05
0.00101399
-0.000128334
0.00104499
-0.000141973
0.00107953
-0.000152701
0.00111543
-0.000151025
0.00115254
-0.000143207
0.00118972
-0.000135077
0.00122294
-0.000128663
0.00125402
-0.000122119
0.00128337
-0.000115008
0.0013108
-0.000107209
0.00133635
-0.000100497
0.00136012
-9.40731e-05
0.00138159
-8.71989e-05
0.00139931
-8.11842e-05
0.00141388
-7.43985e-05
0.00142605
-6.61929e-05
0.00143644
-5.97618e-05
0.00144651
-5.59392e-05
0.00145711
-5.28009e-05
0.00146874
-4.84123e-05
0.00147831
-4.41702e-05
0.00148734
-4.07154e-05
0.00149311
-3.65895e-05
0.00149642
-3.14797e-05
0.00150065
-2.70348e-05
0.00150526
-2.283e-05
0.00150854
-1.8572e-05
0.0015089
-1.27272e-05
0.0015097
-5.2427e-06
0.00150695
1.07901e-06
0.00150267
5.40746e-06
0.0014988
8.96083e-06
0.00149251
1.17526e-05
0.00148683
1.5078e-05
0.00148068
1.79309e-05
0.00147384
2.07371e-05
0.00146891
2.07208e-05
0.00146769
2.01315e-05
0.0014618
2.1298e-05
0.00145163
2.31582e-05
0.00143854
2.74576e-05
0.00142419
3.0634e-05
0.00141064
3.18972e-05
0.00140121
3.10747e-05
0.00139355
2.78901e-05
0.00138411
2.54647e-05
0.00137511
2.21334e-05
0.0013633
1.94949e-05
0.00135479
2.08611e-05
0.00134685
1.68084e-05
0.00133663
1.21054e-05
0.00132429
1.12794e-05
0.00130334
1.72823e-05
0.00126609
4.84244e-05
0.00118134
0.000137442
0.00101478
0.000283156
0.000797563
0.0003827
0.000640279
0.000431644
0.000533644
0.000442722
0.00045987
0.000428241
0.000410214
0.000397369
0.000380747
0.000367158
0.000359284
0.000347878
0.000333572
0.000336458
0.000301192
0.000339098
0.000264079
0.000362144
0.000224205
0.000389412
0.000180764
0.000433937
0.000133766
0.0004569
8.77117e-05
0.000519105
3.92741e-05
-1.17465e-05
-1.4146e-05
0.00078503
-1.64829e-05
0.000794964
-1.87367e-05
0.000805197
-2.08864e-05
0.000815722
-2.2914e-05
0.000826528
-2.48e-05
0.000837593
-2.65293e-05
0.000848894
-2.8094e-05
0.000860413
-2.94689e-05
0.0008721
-3.0661e-05
0.000883921
-3.16626e-05
0.000895861
-3.24606e-05
0.00090788
-3.30464e-05
0.000919874
-3.3469e-05
0.000931869
-3.36878e-05
0.000943854
-3.36962e-05
0.000955712
-3.35447e-05
0.000967373
-3.32466e-05
0.000978856
-3.27553e-05
0.000990175
-3.20748e-05
0.0010013
-3.13062e-05
0.00101214
-3.0494e-05
0.0010225
-2.95005e-05
0.00103261
-2.8339e-05
0.00104254
-2.7101e-05
0.0010521
-2.58552e-05
0.00106113
-2.44923e-05
0.00106948
-2.31228e-05
0.00107776
-2.17074e-05
0.00108565
-2.02083e-05
0.00109306
-1.86371e-05
0.00109994
-1.70635e-05
0.00110627
-1.5406e-05
0.001112
-1.3792e-05
0.00111748
-1.21932e-05
0.0011227
-1.06527e-05
0.00112758
-8.97779e-06
0.00113224
-7.2311e-06
0.00113689
-5.55595e-06
0.00114012
-4.18883e-06
0.00114272
-2.52272e-06
0.00114459
1.1316e-06
0.00114563
2.40089e-05
0.00114683
0.000153459
0.00114648
0.000137824
0.00111388
4.91558e-05
0.00106934
-5.93708e-05
0.00107176
-0.000123315
0.00110198
-0.000163017
0.00114078
-0.000178556
0.00118157
-0.000189397
0.00121949
-0.000187826
0.00126009
-0.000176926
0.00129939
-0.00016695
0.00133423
-0.000157377
0.00136827
-0.00014723
0.00139698
-0.000138535
0.00142744
-0.000129291
0.001456
-0.000120887
0.0014808
-0.000113286
0.00150323
-0.000104572
0.0015208
-9.59937e-05
0.00153679
-8.83005e-05
0.00155079
-8.00158e-05
0.00156097
-7.14105e-05
0.00156977
-6.40348e-05
0.00157726
-5.9302e-05
0.00158545
-5.37973e-05
0.00159596
-4.77711e-05
0.00160469
-4.35181e-05
0.00160919
-3.9758e-05
0.00160989
-3.51295e-05
0.00160944
-2.87731e-05
0.00161074
-2.31215e-05
0.00161397
-1.83603e-05
0.00161649
-1.31846e-05
0.001616
-6.36519e-06
0.00161313
1.53616e-06
0.00160783
8.6312e-06
0.00160044
1.43655e-05
0.00159049
1.84773e-05
0.0015791
2.248e-05
0.00156757
2.63656e-05
0.00155811
2.90699e-05
0.00155101
2.9069e-05
0.00154697
2.95264e-05
0.0015417
3.13251e-05
0.00153074
3.27737e-05
0.00151623
3.69546e-05
0.00150054
4.03474e-05
0.00148436
4.33436e-05
0.00146941
4.24161e-05
0.00145468
3.85082e-05
0.0014416
3.71858e-05
0.00143046
3.20677e-05
0.00141703
2.87591e-05
0.00140579
3.50512e-05
0.0013937
3.01462e-05
0.0013746
3.13868e-05
0.00133775
4.77094e-05
0.0012768
9.9808e-05
0.00116453
0.000212884
0.000962367
0.000359238
0.000747439
0.000447711
0.000601068
0.000494353
0.000501527
0.000503986
0.000431638
0.000486215
0.000381577
0.000455763
0.000347754
0.000421915
0.000327407
0.000397088
0.000307401
0.000379788
0.000281119
0.000371513
0.000249972
0.000378734
0.000217183
0.00040483
0.000182804
0.000435578
0.000145227
0.000480144
0.00010547
0.000507157
6.78289e-05
0.000560925
2.99891e-05
-2.1378e-05
-2.4078e-05
0.000795655
-2.67141e-05
0.000807637
-2.92599e-05
0.000819897
-3.16892e-05
0.000832427
-3.39767e-05
0.000845218
-3.61001e-05
0.000858248
-3.80385e-05
0.000871494
-3.97764e-05
0.000884938
-4.12955e-05
0.000898529
-4.25909e-05
0.000912228
-4.36549e-05
0.000926022
-4.44725e-05
0.000939872
-4.50436e-05
0.000953658
-4.54124e-05
0.000967415
-4.5517e-05
0.000981141
-4.53845e-05
0.000994696
-4.50579e-05
0.00100798
-4.45687e-05
0.0010211
-4.3824e-05
0.00103401
-4.28494e-05
0.00104666
-4.17913e-05
0.00105894
-4.06812e-05
0.00107073
-3.92774e-05
0.00108225
-3.77228e-05
0.00109349
-3.61361e-05
0.0011043
-3.453e-05
0.00111451
-3.27147e-05
0.00112407
-3.08454e-05
0.00113347
-2.90133e-05
0.00114245
-2.71125e-05
0.00115089
-2.51431e-05
0.00115876
-2.31538e-05
0.00116606
-2.10073e-05
0.00117271
-1.88794e-05
0.00117874
-1.68342e-05
0.00118469
-1.48081e-05
0.00119025
-1.26796e-05
0.00119564
-1.06524e-05
0.00120096
-8.71463e-06
0.00120506
-6.80603e-06
0.00120845
-4.45047e-06
0.00121117
2.81903e-08
0.00121298
2.39431e-05
0.00121349
0.000177937
0.00121614
0.000179966
0.00121174
4.82222e-05
0.00116195
-8.76975e-05
0.00117179
-0.000160607
0.00121323
-0.000203466
0.00125786
-0.000216693
0.00130655
-0.000229029
0.00135123
-0.000226829
0.00139861
-0.000213772
0.00143992
-0.000201554
0.00148058
-0.000188272
0.00151589
-0.000175301
0.0015469
-0.000164375
0.0015775
-0.000153255
0.00160751
-0.000141788
0.00163224
-0.00013138
0.00165054
-0.000121405
0.00166848
-0.000110948
0.00168149
-0.00010093
0.00169259
-9.20666e-05
0.00170513
-8.37617e-05
0.00170954
-7.31901e-05
0.00171346
-6.54725e-05
0.00172139
-5.94652e-05
0.00172684
-5.35159e-05
0.00173194
-4.67991e-05
0.00173549
-4.04765e-05
0.00173377
-3.52381e-05
0.00173224
-2.91953e-05
0.00173227
-2.14485e-05
0.00173137
-1.36124e-05
0.00172857
-7.28845e-06
0.00172537
-1.27301e-06
0.00171784
3.81637e-06
0.00171073
1.02638e-05
0.00170492
1.88129e-05
0.00169434
2.62366e-05
0.00168005
3.07467e-05
0.0016632
3.4464e-05
0.00164843
3.73166e-05
0.00163538
3.91122e-05
0.00162757
4.16118e-05
0.00162388
4.49337e-05
0.00161267
4.80314e-05
0.00159647
5.25705e-05
0.0015788
5.56922e-05
0.0015588
5.84842e-05
0.00153692
5.49004e-05
0.00151813
5.0985e-05
0.00150078
5.21707e-05
0.00148497
4.67457e-05
0.00146902
4.31926e-05
0.0014487
5.33663e-05
0.00141852
6.31231e-05
0.00137299
8.9177e-05
0.00128281
0.000159905
0.00112801
0.000300913
0.00090167
0.00043239
0.000707917
0.000513973
0.000574216
0.000552003
0.000481435
0.000562855
0.000414229
0.000549045
0.000366178
0.000516854
0.000331046
0.000479104
0.000308146
0.0004463
0.000290855
0.000423805
0.000269247
0.000407362
0.000242004
0.000403504
0.000212603
0.00041423
0.000183304
0.000442179
0.000151715
0.00047397
0.000118198
0.000517353
8.44982e-05
0.000546898
5.33682e-05
0.000593269
2.36686e-05
-3.30831e-05
-3.60582e-05
0.000807487
-3.89711e-05
0.000821465
-4.1788e-05
0.000835699
-4.44773e-05
0.000850184
-4.70042e-05
0.000864911
-4.93454e-05
0.000879859
-5.14731e-05
0.000895003
-5.33613e-05
0.000910325
-5.50015e-05
0.000925775
-5.63753e-05
0.000941308
-5.74718e-05
0.000956912
-5.82842e-05
0.000972547
-5.88093e-05
0.000988087
-5.90833e-05
0.00100357
-5.90407e-05
0.00101899
-5.87276e-05
0.0010342
-5.81884e-05
0.00104909
-5.74505e-05
0.00106379
-5.64098e-05
0.00107828
-5.50978e-05
0.0010924
-5.37175e-05
0.00110606
-5.22426e-05
0.00111925
-5.03747e-05
0.00113217
-4.83783e-05
0.0011447
-4.63714e-05
0.00115667
-4.43416e-05
0.00116804
-4.20931e-05
0.00117888
-3.96763e-05
0.00118932
-3.73087e-05
0.00119931
-3.49626e-05
0.00120876
-3.25176e-05
0.0012176
-3.00427e-05
0.00122584
-2.7548e-05
0.00123345
-2.48245e-05
0.00124
-2.21571e-05
0.00124662
-1.96464e-05
0.00125305
-1.70599e-05
0.00125915
-1.46127e-05
0.00126489
-1.22804e-05
0.00127007
-9.73497e-06
0.00127412
-6.81707e-06
0.00127738
-1.93915e-06
0.00128004
1.90963e-05
0.00128114
0.000173461
0.00128842
0.000227338
0.00133342
4.04033e-05
0.00128279
-0.000127087
0.00131092
-0.00020375
0.00136423
-0.000251137
0.00141852
-0.000261389
0.00147314
-0.000274628
0.0015337
-0.00026947
0.00158789
-0.00025428
0.00162965
-0.000240665
0.00166755
-0.000219896
0.00169844
-0.000204496
0.00171967
-0.000190321
0.00175042
-0.000175245
0.00177329
-0.000163651
0.001795
-0.000147975
0.00181072
-0.000134435
0.0018184
-0.000123804
0.00182917
-0.000112092
0.00183834
-0.000100673
0.00184586
-9.1175e-05
0.00184875
-8.04743e-05
0.00184888
-6.98576e-05
0.00184938
-6.26222e-05
0.00185159
-5.49614e-05
0.00185089
-4.73072e-05
0.0018502
-3.99791e-05
0.00185061
-3.28887e-05
0.00184886
-2.60654e-05
0.00184439
-1.77002e-05
0.00184099
-7.60953e-06
0.00183332
5.12696e-07
0.00182363
5.70238e-06
0.00181185
1.06135e-05
0.00180147
1.68518e-05
0.00179417
2.5938e-05
0.00178667
3.47865e-05
0.00177296
4.167e-05
0.00175412
4.65383e-05
0.00173284
5.04889e-05
0.00171527
5.45036e-05
0.00170194
5.90834e-05
0.00169662
6.27429e-05
0.00168225
6.60235e-05
0.00166429
7.06396e-05
0.00164327
7.18285e-05
0.0016208
7.2403e-05
0.00159723
7.11463e-05
0.00157406
6.87766e-05
0.00154948
7.11902e-05
0.00152454
7.20533e-05
0.00149526
7.62358e-05
0.00144764
9.73128e-05
0.00137628
0.000148023
0.00126079
0.000239737
0.00106455
0.000386112
0.000834505
0.000500026
0.000665292
0.000573227
0.000548439
0.000610828
0.000465663
0.00061974
0.00040516
0.000607572
0.00036027
0.0005792
0.000326313
0.000540236
0.000300158
0.000501054
0.000282673
0.000470693
0.000264524
0.000447826
0.000240887
0.000434328
0.000213981
0.000433801
0.000186838
0.000446815
0.000158873
0.000475218
0.000128669
0.000506201
9.86656e-05
0.000547717
7.0374e-05
0.000578594
4.43918e-05
0.000618789
2.01727e-05
-4.68073e-05
-5.00339e-05
0.000820537
-5.32023e-05
0.000836453
-5.62709e-05
0.000852606
-5.92011e-05
0.000868991
-6.19494e-05
0.0008856
-6.44891e-05
0.000902416
-6.67863e-05
0.000919407
-6.88053e-05
0.000936552
-7.05426e-05
0.000953815
-7.19702e-05
0.000971137
-7.30732e-05
0.000988498
-7.38526e-05
0.00100587
-7.43011e-05
0.00102313
-7.4434e-05
0.00104028
-7.42219e-05
0.00105734
-7.36913e-05
0.00107418
-7.28933e-05
0.00109062
-7.18616e-05
0.00110687
-7.04585e-05
0.00112288
-6.87767e-05
0.00113846
-6.70245e-05
0.00115342
-6.51158e-05
0.00116805
-6.27736e-05
0.00118232
-6.02873e-05
0.00119609
-5.77859e-05
0.00120912
-5.52721e-05
0.00122171
-5.25671e-05
0.00123381
-4.96554e-05
0.00124533
-4.66317e-05
0.00125616
-4.37047e-05
0.00126653
-4.0718e-05
0.00127633
-3.77282e-05
0.00128551
-3.47661e-05
0.00129399
-3.16488e-05
0.00130139
-2.84814e-05
0.00130874
-2.53005e-05
0.00131585
-2.2163e-05
0.00132243
-1.9054e-05
0.00132846
-1.60615e-05
0.00133409
-1.296e-05
0.00133865
-9.8442e-06
0.00134252
-5.33495e-06
0.00134643
8.50553e-06
0.0013477
0.000119835
0.00135348
0.000276202
0.00141702
1.55918e-05
0.00147601
-0.000177688
0.00150395
-0.000257177
0.00157301
-0.000304563
0.00164281
-0.000320633
0.00169565
-0.000327443
0.00174692
-0.000311515
0.001786
-0.000292541
0.0018213
-0.000273187
0.00185485
-0.00024591
0.00187564
-0.0002305
0.00189112
-0.000210163
0.00191461
-0.000193866
0.00192879
-0.000178939
0.00194205
-0.000160458
0.00194975
-0.000145579
0.00195406
-0.000130145
0.00195897
-0.000117678
0.00196257
-0.000106433
0.00196654
-9.49583e-05
0.00196812
-8.31334e-05
0.00196231
-7.11637e-05
0.00195821
-6.09359e-05
0.00195564
-5.32949e-05
0.00195375
-4.45898e-05
0.00195083
-3.50736e-05
0.00194708
-2.81084e-05
0.0019427
-2.07434e-05
0.00193848
-1.26014e-05
0.0019319
-8.45699e-07
0.00192393
9.32574e-06
0.0019081
1.66474e-05
0.00189393
2.17758e-05
0.0018797
2.81416e-05
0.00186961
3.68762e-05
0.00186243
4.67099e-05
0.0018499
5.58131e-05
0.00183155
6.3621e-05
0.00180454
6.84313e-05
0.00178354
7.28434e-05
0.00176577
7.73279e-05
0.00175332
8.03485e-05
0.0017385
8.33951e-05
0.00171844
8.80217e-05
0.00169501
9.0138e-05
0.00167055
9.04372e-05
0.00164332
9.47298e-05
0.00161021
9.57898e-05
0.00157022
0.000104145
0.00151911
0.000123951
0.00145765
0.00015048
0.0013529
0.00021205
0.0011908
0.000340832
0.000968727
0.000470002
0.000767349
0.000561318
0.000623983
0.000623256
0.00052101
0.000659596
0.000448636
0.000671392
0.000395266
0.000662454
0.000354953
0.000637712
0.000323902
0.000602547
0.00029862
0.000561252
0.00027992
0.000523893
0.000264637
0.000493878
0.000245324
0.000471551
0.000220658
0.00046119
0.000194912
0.000463432
0.00016957
0.000476933
0.000142049
0.000504734
0.000112643
0.000534285
8.54745e-05
0.000573434
6.16187e-05
0.000604372
3.95129e-05
0.000639743
1.83886e-05
-6.24916e-05
-6.5948e-05
0.000834818
-6.93524e-05
0.000852611
-7.26543e-05
0.000870622
-7.58068e-05
0.000888849
-7.87609e-05
0.000907281
-8.14799e-05
0.000925908
-8.39251e-05
0.000944691
-8.6059e-05
0.000963606
-8.787e-05
0.000982627
-8.93256e-05
0.00100169
-9.04113e-05
0.00102075
-9.11265e-05
0.00103981
-9.14752e-05
0.00105874
-9.14265e-05
0.00107751
-9.10135e-05
0.00109617
-9.0235e-05
0.00111457
-8.91299e-05
0.00113254
-8.77576e-05
0.00115028
-8.5955e-05
0.00116775
-8.38722e-05
0.00118475
-8.16889e-05
0.00120102
-7.9263e-05
0.00121701
-7.64486e-05
0.00123261
-7.34342e-05
0.0012476
-7.03772e-05
0.00126167
-6.73051e-05
0.00127541
-6.40661e-05
0.0012887
-6.0622e-05
0.00130135
-5.70065e-05
0.00131314
-5.33533e-05
0.00132417
-4.97415e-05
0.00133472
-4.61882e-05
0.00134476
-4.26755e-05
0.00135408
-3.91654e-05
0.0013627
-3.5504e-05
0.00137112
-3.17987e-05
0.00137917
-2.80902e-05
0.00138603
-2.41614e-05
0.00139162
-2.03057e-05
0.0013966
-1.66343e-05
0.00140218
-1.31788e-05
0.00140757
-9.21275e-06
0.00141378
6.00363e-07
0.00141618
5.29622e-05
0.00142444
0.000212939
0.00147254
-1.00267e-05
0.00167403
-0.000244061
0.00179633
-0.000327152
0.00186449
-0.000358859
0.00190305
-0.000371338
0.00192211
-0.000364584
0.00193537
-0.000346775
0.00195162
-0.000322789
0.00197385
-0.000296597
0.00200046
-0.000266104
0.0020159
-0.000246357
0.00202885
-0.000224456
0.00204899
-0.000203088
0.00205024
-0.000186639
0.00206004
-0.000167698
0.00206281
-0.000149903
0.0020645
-0.000132918
0.00206794
-0.000117264
0.00206499
-0.000106759
0.00206178
-9.75402e-05
0.00205972
-8.33424e-05
0.00205609
-6.89908e-05
0.00204955
-5.75273e-05
0.0020456
-4.80555e-05
0.00204086
-3.92085e-05
0.00203397
-2.93777e-05
0.00202691
-2.07944e-05
0.00201921
-1.34217e-05
0.00201496
-4.41437e-06
0.00200894
6.12156e-06
0.00199878
1.93684e-05
0.00198585
2.87615e-05
0.00196445
3.62229e-05
0.0019479
4.2752e-05
0.00193265
5.08331e-05
0.00192467
6.151e-05
0.00191005
7.12856e-05
0.00189209
8.10174e-05
0.00186753
8.92269e-05
0.00184226
9.17009e-05
0.00182208
9.39808e-05
0.00180233
9.89905e-05
0.00178256
0.000102288
0.0017594
0.000110238
0.00172781
0.000115934
0.00169327
0.000119852
0.0016466
0.00013477
0.00159244
0.000145811
0.00152373
0.000166291
0.00141948
0.000230769
0.00126712
0.000313683
0.00106752
0.00043483
0.000856905
0.00054327
0.000697006
0.000617116
0.000578303
0.000669225
0.000491537
0.000698334
0.000428745
0.000712146
0.00038216
0.000709759