/*--------------------------------*- C++ -*----------------------------------*\
| =========                 |                                                 |
| \\      /  F ield         | OpenFOAM: The Open Source CFD Toolbox           |
|  \\    /   O peration     | Version:  2.2.x                                 |
|   \\  /    A nd           | Web:      www.OpenFOAM.org                      |
|    \\/     M anipulation  |                                                 |
\*---------------------------------------------------------------------------*/
FoamFile
{
    version     2.0;
    format      ascii;
    class       surfaceScalarField;
    location    "1.55";
    object      cfmax;
}
// * * * * * * * * * * * * * * * * * * * * * * * * * * * * * * * * * * * * * //

dimensions      [0 3 -1 0 0 0 0];

internalField   nonuniform List<scalar> 
28084
(
0.000746402
0.000743166
0.000740409
0.000738105
0.000736235
0.000734773
0.000733708
0.000733013
0.000732648
0.000732609
0.000732875
0.000733408
0.000734162
0.00073514
0.000736337
0.000737695
0.000739194
0.000740761
0.000742474
0.000744256
0.000745993
0.00074777
0.000749691
0.000751291
0.000752753
0.000754279
0.000755837
0.000756998
0.000757986
0.000758764
0.000759334
0.000759653
0.000759646
0.000759258
0.000758453
0.000757572
0.000756198
0.00075382
0.000750741
0.00074782
0.000744963
0.000741623
0.000734713
0.00073068
0.000637818
0.000410527
0.000389507
0.000391092
0.000395704
0.000403153
0.000411301
0.000420891
0.000430463
0.000440538
0.000450291
0.000459944
0.000469665
0.000478998
0.000487733
0.000496108
0.00050393
0.000511336
0.000518746
0.000525802
0.000532208
0.00053835
0.000544135
0.000549757
0.000554848
0.000559052
0.000562805
0.000566181
0.0005689
0.000571113
0.00057291
0.000574632
0.000575938
0.000576918
0.000577864
0.000578235
0.000578066
0.00057761
0.000576913
0.00057518
0.000573463
0.000571794
0.000569839
0.000567447
0.000565292
0.000564374
0.000562741
0.000565069
0.000569614
0.000572234
0.000578206
0.000583452
0.000588522
0.000594495
0.000601422
0.000611262
0.000619711
0.000625712
0.000629242
0.000631626
0.000628275
0.000608413
0.00057202
0.000533169
0.000496686
0.000472281
0.000457564
0.000448951
0.000443708
0.000441346
0.000440467
0.000439589
0.000438314
0.000436102
0.00144535
0.00144306
0.000749919
0.00143777
0.000748963
0.00142947
0.000748458
0.00141825
0.000748378
0.0014042
0.000748707
0.00138743
0.00074942
0.00136808
0.000750506
0.00134629
0.000751937
0.00132226
0.000753674
0.00129626
0.00075571
0.00126851
0.000758024
0.00123904
0.000760576
0.00120808
0.000763316
0.00117583
0.000766246
0.00114245
0.000769362
0.00110818
0.000772601
0.0010732
0.000775936
0.0010377
0.000779298
0.00100183
0.000782771
0.000965816
0.000786252
0.000929762
0.000789641
0.000893819
0.000793048
0.000858003
0.00079649
0.000822624
0.000799596
0.000787735
0.000802506
0.000753402
0.000805413
0.000719659
0.000808271
0.00068665
0.000810685
0.000654426
0.000812862
0.000623051
0.000814777
0.000592552
0.000816402
0.000562952
0.000817712
0.000534283
0.000818624
0.000506588
0.000819087
0.000479919
0.000819055
0.000454077
0.00081892
0.00042923
0.000818173
0.000405503
0.000816294
0.000382769
0.000813696
0.000361089
0.000811074
0.000340133
0.000808508
0.000319827
0.000805201
0.000301324
0.000798162
0.000276852
0.000793323
0.000287176
0.000684283
0.0002884
0.000444359
0.000285869
0.000420672
0.000288806
0.000422546
0.0002902
0.000427734
0.000292719
0.00043536
0.00029432
0.000443297
0.000296691
0.000452844
0.000298345
0.000462151
0.000299917
0.0004722
0.00030163
0.000481872
0.000303413
0.000491606
0.000304966
0.000501078
0.000306221
0.000510429
0.000307649
0.000519084
0.000308987
0.000527314
0.000310297
0.000535158
0.000311808
0.000542375
0.000313186
0.000549428
0.000314574
0.00055602
0.000315979
0.000562079
0.000317456
0.000567959
0.000319179
0.000573572
0.000321026
0.000578534
0.000322752
0.000582896
0.000324967
0.000586529
0.000327442
0.00058977
0.000329416
0.000592847
0.000330752
0.000595524
0.000332262
0.000597395
0.000333831
0.000598674
0.000336033
0.000599857
0.000338782
0.000600644
0.000341499
0.000600912
0.000343874
0.000600993
0.00034627
0.000601152
0.000348956
0.000600283
0.000351606
0.000599216
0.000354548
0.000597781
0.000357909
0.00059606
0.000360969
0.000594272
0.000363436
0.000592574
0.000367407
0.00059012
0.00037164
0.000587622
0.00037591
0.000585233
0.000379705
0.00058362
0.000383769
0.000581282
0.000387598
0.000583009
0.000391154
0.000588002
0.000396449
0.000590159
0.000401341
0.000595902
0.000404999
0.000601512
0.000410533
0.000606286
0.000415721
0.000612421
0.000420121
0.000618546
0.000425421
0.000626123
0.000431306
0.000632435
0.000436414
0.00063581
0.000440424
0.000636959
0.000441666
0.00063047
0.000440948
0.000611116
0.000439497
0.000582281
0.000435167
0.000553178
0.000422371
0.000517393
0.000410986
0.000487694
0.000400057
0.000467605
0.000392459
0.000454425
0.0003874
0.000445403
0.000385353
0.000439585
0.000386419
0.000436624
0.000389214
0.000434863
0.000393716
0.00043351
0.000396085
0.000432724
0.000410059
0.000431219
0.00144592
0.00144341
0.000754615
0.0014379
0.00075591
0.0014294
0.000757628
0.00141798
0.000759744
0.00140375
0.000762246
0.0013868
0.000765109
0.00136782
0.00076832
0.00134651
0.000771854
0.00132292
0.00077567
0.00129721
0.000779756
0.00126957
0.000784097
0.00124019
0.000788646
0.00120932
0.00079335
0.00117713
0.00079821
0.0011438
0.000803227
0.00110956
0.000808329
0.00107461
0.000813474
0.00103912
0.000818614
0.00100326
0.000823835
0.000967224
0.000828993
0.000931176
0.000834026
0.000895192
0.00083904
0.000859316
0.000843961
0.000823911
0.000848585
0.000788969
0.000852972
0.000754581
0.000857218
0.000720772
0.000861355
0.000687681
0.000865027
0.000655394
0.000868391
0.000623942
0.000871458
0.000593368
0.000874148
0.000563687
0.000876441
0.000534942
0.00087828
0.000507173
0.000879617
0.000480412
0.000880376
0.000454486
0.000881076
0.000429426
0.000880936
0.000405466
0.000879565
0.000382768
0.00087763
0.000361171
0.000875315
0.000340307
0.000873035
0.00032014
0.000869736
0.000302074
0.000862516
0.000281642
0.000856533
0.000290268
0.000731335
0.000291749
0.000479054
0.000286585
0.000452499
0.00029224
0.000454283
0.000294758
0.000459808
0.000298076
0.000467927
0.000299938
0.000476134
0.000302717
0.00048613
0.000304421
0.000495517
0.000305806
0.000505773
0.000307449
0.000515408
0.000309133
0.000525118
0.000310691
0.000534578
0.000311878
0.000543925
0.000312984
0.000552659
0.000314252
0.000560822
0.000315489
0.000568485
0.000316921
0.000575572
0.000318029
0.000582364
0.000318985
0.000588728
0.000320082
0.000594486
0.000321408
0.000599848
0.000322761
0.000604943
0.0003241
0.000609459
0.000325536
0.000613202
0.000327418
0.00061611
0.000329964
0.000618527
0.000332816
0.000620685
0.000334367
0.000623045
0.000335223
0.000624885
0.000336033
0.000626004
0.000337553
0.000626895
0.000339957
0.000626859
0.000342696
0.00062644
0.000345281
0.00062567
0.000347256
0.000625021
0.000349332
0.000623515
0.000352041
0.000621855
0.000355121
0.000619742
0.000358534
0.000617413
0.000362104
0.0006154
0.000364923
0.000614057
0.000369544
0.000611147
0.000374377
0.000608635
0.000378835
0.000606124
0.000383172
0.000603954
0.000386885
0.000602555
0.000389871
0.00060407
0.00039277
0.000607022
0.000396745
0.000609616
0.000401662
0.000614027
0.000406076
0.00061967
0.000411847
0.000624418
0.000416852
0.000630282
0.000420641
0.000634824
0.000425121
0.00063897
0.000430579
0.00064101
0.000434888
0.000640116
0.000436176
0.000628354
0.000432583
0.000605143
0.000431437
0.000577817
0.000430426
0.000548265
0.000432638
0.000514611
0.000429822
0.000489252
0.000419891
0.000470108
0.000409462
0.000456855
0.000401896
0.000447265
0.000396952
0.000439623
0.000395425
0.000434299
0.000398071
0.000431094
0.000402278
0.000429435
0.000408928
0.000428521
0.000413507
0.000428911
0.00042923
0.000429887
0.00144537
0.00144266
0.00076049
0.00143695
0.000764003
0.00142825
0.000767912
0.00141747
0.000772195
0.00140417
0.000776839
0.00138812
0.000781823
0.00136943
0.000787131
0.00134826
0.000792738
0.00132479
0.000798607
0.00129919
0.000804718
0.00127164
0.000811059
0.00124234
0.000817582
0.00121153
0.000824223
0.00117939
0.000830989
0.0011461
0.000837888
0.00111187
0.000844828
0.00107691
0.000851755
0.00104142
0.000858657
0.00100554
0.000865606
0.000969457
0.000872424
0.000933373
0.000879083
0.000897315
0.00088568
0.000861364
0.000892065
0.00082591
0.000898204
0.0007909
0.00090407
0.000756432
0.000909651
0.000722532
0.000915016
0.000689337
0.000919959
0.000656965
0.000924514
0.000625414
0.000928739
0.000594736
0.000932512
0.000564951
0.000935806
0.000536109
0.000938586
0.000508258
0.000940825
0.000481371
0.000942562
0.000455347
0.000944003
0.000430226
0.000944528
0.000406167
0.000943758
0.000383153
0.000942592
0.000361153
0.0009408
0.000340385
0.000939182
0.000320586
0.000935753
0.000303353
0.000929379
0.000289848
0.00092421
0.000297677
0.000792854
0.000293988
0.00051832
0.000287447
0.00048556
0.000295032
0.000487256
0.000299292
0.000493207
0.000304082
0.000501993
0.000306469
0.000510662
0.000309676
0.000521178
0.000311433
0.000530816
0.000312633
0.000541523
0.000314047
0.00055137
0.000315713
0.000560914
0.000317195
0.00057034
0.000318305
0.000579628
0.000319201
0.000588459
0.000320195
0.000596742
0.000321348
0.000604235
0.000322469
0.000611131
0.000323426
0.00061757
0.000324266
0.000623491
0.000324875
0.000628981
0.000325741
0.000633977
0.000327025
0.000638271
0.000328152
0.000642255
0.00032924
0.000645361
0.000330661
0.000647907
0.00033257
0.000649771
0.00033482
0.000651011
0.000336663
0.000652386
0.000337755
0.000654119
0.000338445
0.000655603
0.000339702
0.000655292
0.000341717
0.000654998
0.000344194
0.000653884
0.000346776
0.000652178
0.000348768
0.00065041
0.000350576
0.000648418
0.000354166
0.000646156
0.000357921
0.000643888
0.000360888
0.000641136
0.000363892
0.000638373
0.000367279
0.000636388
0.000371519
0.000633406
0.000375835
0.000631208
0.000380482
0.00062798
0.000384727
0.000626739
0.000388625
0.000626508
0.000392257
0.000627182
0.000395161
0.000628621
0.000398331
0.000631128
0.000403166
0.000633912
0.000408288
0.000639278
0.000413584
0.000643034
0.000417208
0.000646023
0.000420422
0.000647454
0.000423639
0.000646453
0.000426753
0.000643561
0.000426634
0.000625152
0.000425009
0.000600752
0.00042355
0.000570592
0.000423419
0.000535412
0.00042979
0.000502025
0.000437522
0.000477007
0.000438873
0.00046108
0.000431122
0.000452207
0.000421976
0.000444843
0.000415004
0.000439112
0.000410169
0.000433745
0.000408548
0.000429513
0.000410871
0.000426865
0.000415418
0.000425233
0.00042333
0.000424791
0.000428678
0.000426421
0.000444173
0.000429452
0.00144372
0.00144143
0.000767545
0.0014372
0.00077324
0.00142993
0.000779305
0.00141968
0.00078572
0.00140655
0.000792473
0.00139065
0.000799546
0.0013721
0.000806919
0.00135106
0.000814569
0.00132769
0.000822461
0.00130219
0.000830567
0.00127472
0.000838878
0.00124549
0.000847345
0.00121471
0.000855897
0.0011826
0.000864541
0.00114932
0.000873301
0.00111508
0.000882048
0.00108011
0.000890731
0.00104459
0.000899365
0.00100865
0.000908022
0.000972509
0.000916487
0.000936357
0.000924736
0.000900188
0.000932885
0.000864185
0.000940744
0.000828622
0.000948355
0.00079353
0.000955671
0.000758936
0.000962613
0.000724923
0.000969187
0.000691634
0.000975379
0.000659145
0.000981187
0.000627468
0.000986551
0.000596659
0.000991457
0.000566749
0.000995778
0.000537795
0.000999538
0.000509857
0.00100273
0.000482833
0.0010055
0.000456689
0.00100767
0.000431521
0.00100894
0.000407384
0.00100907
0.000384267
0.00100879
0.000361967
0.00100819
0.000340539
0.00100691
0.000321259
0.00100335
0.000305386
0.000999014
0.000299904
0.000996371
0.000305116
0.000873438
0.000297193
0.000561329
0.000288053
0.000521281
0.000298793
0.000521072
0.000304424
0.000528517
0.000310516
0.00053804
0.000313688
0.000547329
0.000317383
0.000558683
0.000319626
0.000569036
0.000320764
0.000580119
0.00032192
0.000590583
0.000323458
0.000600499
0.000324907
0.000609853
0.000325962
0.000618782
0.000326716
0.00062754
0.000327329
0.000635616
0.000327885
0.000643019
0.00032869
0.000649285
0.000329526
0.000654785
0.000330293
0.000660247
0.000330733
0.000664993
0.000331154
0.000669535
0.000332015
0.000673557
0.000333163
0.000676483
0.000333823
0.000678973
0.000334218
0.000681069
0.000335297
0.000682639
0.000337128
0.000683643
0.000339169
0.000683926
0.000340607
0.000684435
0.000341622
0.000685359
0.000342632
0.000685087
0.000344318
0.000684308
0.000346302
0.000682921
0.000348606
0.000680342
0.000350685
0.000677644
0.000352859
0.000675039
0.000357074
0.000672466
0.000361282
0.000669898
0.000364868
0.000666998
0.0003682
0.000663628
0.000371234
0.000659831
0.000375026
0.000657182
0.00037896
0.000655893
0.000383184
0.000654009
0.000387079
0.000653537
0.000391107
0.000652865
0.000394726
0.000652436
0.000397861
0.000652013
0.000401669
0.000654179
0.000406913
0.000654948
0.000411357
0.000658885
0.00041495
0.000660035
0.000417912
0.000659449
0.000420002
0.000655133
0.000421245
0.000644337
0.000420866
0.000628408
0.000419374
0.000599734
0.000417458
0.000567998
0.000418624
0.000528012
0.000428849
0.000493303
0.000436376
0.000468762
0.00044027
0.000452839
0.000439797
0.000443508
0.000434403
0.000438934
0.000428141
0.000435308
0.000423894
0.000432286
0.000420566
0.000428952
0.000419373
0.000426174
0.000422366
0.000423591
0.000427377
0.000422313
0.000436113
0.000422695
0.000442225
0.000425602
0.000456767
0.000429651
0.00144523
0.00144422
0.000775785
0.00144016
0.000783621
0.00143306
0.000791803
0.00142298
0.000800312
0.00141
0.000809137
0.00139424
0.000818263
0.00137582
0.000827666
0.00135489
0.000837324
0.00133163
0.000847204
0.0013062
0.000857274
0.0012788
0.000867522
0.00124961
0.000877902
0.00121886
0.000888333
0.00118676
0.000898825
0.00115348
0.000909416
0.0011192
0.000919939
0.00108419
0.000930347
0.00104862
0.000940722
0.0010126
0.000951028
0.000976376
0.000961081
0.000940112
0.000970919
0.000903838
0.000980597
0.00086776
0.000989919
0.000832059
0.000998961
0.000796809
0.00100771
0.000762086
0.001016
0.000727946
0.00102382
0.000694539
0.00103122
0.000661929
0.0010382
0.000630098
0.00104482
0.000599153
0.00105087
0.00056911
0.0010563
0.000540033
0.0010611
0.000511962
0.0010653
0.000484814
0.00106905
0.000458553
0.00107209
0.000433318
0.00107435
0.000409108
0.00107549
0.000385865
0.00107619
0.00036344
0.00107691
0.000341955
0.00107567
0.000322021
0.00107305
0.000307437
0.00107093
0.000306137
0.00107053
0.000312922
0.000965056
0.000301235
0.000605221
0.000289511
0.000556119
0.000303108
0.000555071
0.000311016
0.000564871
0.00031825
0.000575901
0.000322355
0.000586564
0.000326596
0.000599486
0.000329426
0.000611134
0.000330804
0.000622625
0.000331686
0.000633429
0.000332979
0.000643491
0.000333989
0.000652853
0.000334809
0.000661126
0.000335458
0.0006685
0.000335442
0.000676017
0.000335441
0.000682797
0.000335178
0.00068844
0.000335199
0.000693944
0.000335663
0.00069787
0.00033629
0.000702345
0.000336602
0.00070607
0.000336822
0.000709304
0.00033742
0.000711958
0.000338422
0.000713882
0.000338643
0.000715398
0.000338362
0.000717007
0.000339123
0.000717208
0.000340821
0.000717224
0.00034288
0.000716494
0.000344419
0.000715542
0.000345461
0.000715488
0.000346691
0.000714671
0.00034823
0.000712511
0.000350166
0.000709599
0.000352658
0.00070615
0.000356274
0.000702697
0.000360282
0.000699773
0.000364651
0.000697791
0.000368795
0.000693833
0.000372726
0.000690061
0.000376087
0.000686824
0.00037954
0.000685021
0.000382295
0.000685929
0.000385517
0.000684205
0.000389815
0.00068201
0.000393824
0.000681069
0.000397871
0.000679288
0.000401696
0.000677876
0.000405481
0.000677829
0.00040999
0.000676645
0.000412867
0.000676924
0.000415989
0.000672492
0.000417407
0.000666099
0.00041764
0.000649606
0.000417507
0.000626211
0.00041601
0.000604917
0.00041527
0.000563968
0.000422133
0.000523923
0.000432395
0.000490444
0.000438913
0.000466394
0.000442879
0.000450694
0.000443563
0.000440314
0.000440965
0.000434746
0.000436467
0.000431525
0.000433293
0.000429405
0.000430778
0.000427591
0.000428941
0.000425643
0.000429113
0.000423331
0.000432797
0.000420907
0.000438345
0.000420339
0.000447428
0.00042163
0.000454326
0.000425319
0.000467656
0.000430015
0.00144896
0.00144811
0.000785214
0.00144422
0.000795148
0.00143728
0.000805404
0.00142735
0.000815965
0.00141452
0.000826821
0.00139888
0.000837959
0.00138058
0.000849354
0.00135976
0.000860981
0.00133658
0.000872812
0.00131122
0.00088481
0.00128387
0.000896958
0.00125471
0.000909214
0.00122397
0.000921492
0.00119186
0.000933805
0.00115855
0.000946183
0.00112422
0.000958453
0.00108916
0.000970556
0.00105351
0.000982639
0.00101739
0.000994571
0.000981053
0.00100619
0.000944652
0.00101757
0.000908249
0.00102877
0.000872046
0.00103956
0.000836186
0.00104998
0.000800776
0.00106007
0.000765878
0.00106977
0.0007316
0.00107888
0.000698046
0.00108747
0.000665255
0.00109551
0.000633346
0.0011033
0.000602227
0.00111065
0.000572037
0.00111731
0.000542826
0.00112323
0.000514597
0.00112852
0.000487318
0.00113326
0.000460946
0.00113739
0.000435628
0.00114074
0.000411348
0.00114317
0.000387998
0.00114532
0.000365423
0.00114692
0.000343981
0.00114628
0.000323261
0.00114556
0.000308572
0.00114428
0.000309892
0.0011446
0.000322899
0.00107312
0.000306753
0.000651911
0.000292273
0.000592084
0.000309301
0.000591039
0.000320183
0.000604905
0.000328436
0.000618633
0.000333895
0.000632478
0.000338469
0.000647047
0.000341608
0.000659338
0.000342804
0.000670512
0.000343182
0.000680842
0.000343268
0.000690046
0.000343261
0.000697455
0.000342934
0.000705191
0.000342907
0.000712377
0.00034245
0.000718578
0.000341717
0.000724827
0.000341321
0.000730518
0.000340137
0.000734788
0.000339641
0.000739011
0.000340039
0.000742761
0.00034055
0.000745886
0.000340747
0.000748548
0.000340678
0.000750733
0.000341096
0.000752305
0.000342187
0.000753125
0.00034207
0.000753513
0.000341965
0.000754129
0.000342648
0.000752449
0.00034401
0.000751572
0.000345769
0.000749867
0.000347326
0.000748108
0.000348566
0.000747082
0.000349436
0.000744648
0.000352569
0.000742325
0.000356688
0.000740437
0.000360665
0.000737851
0.000364803
0.000735156
0.000369178
0.000734944
0.000373348
0.000732943
0.000377345
0.000729104
0.000380788
0.000724958
0.000383819
0.000720123
0.000385963
0.000719901
0.000388778
0.000716482
0.00039268
0.000713167
0.000397168
0.000711473
0.000402063
0.000707503
0.000405701
0.000703365
0.000408717
0.000698141
0.000412893
0.000693778
0.000414413
0.000691526
0.000415104
0.000669812
0.000415168
0.00065581
0.000413932
0.000634866
0.0004133
0.000600094
0.000414868
0.000563396
0.000427262
0.000520883
0.000437488
0.00049063
0.000444225
0.000469286
0.000447675
0.000453925
0.000448412
0.000442973
0.000446322
0.000435762
0.000442687
0.000431295
0.000439276
0.000428503
0.000437639
0.000426837
0.000436584
0.000425145
0.000436595
0.000423541
0.000437806
0.000421658
0.000442041
0.000419754
0.000448201
0.000419593
0.000457412
0.000421286
0.000465067
0.000425421
0.000477429
0.000430598
0.0014538
0.00145311
0.000795841
0.00144937
0.000807824
0.00144257
0.000820107
0.00143279
0.000832674
0.00142009
0.000845517
0.00140457
0.000858622
0.00138638
0.000871966
0.00136565
0.00088552
0.00134254
0.000899261
0.00131723
0.000913146
0.00128992
0.000927155
0.00126077
0.000941248
0.00123003
0.000955334
0.00119789
0.000969435
0.00116453
0.000983556
0.00113014
0.000997536
0.001095
0.0010113
0.00105924
0.00102507
0.00102301
0.00103859
0.00098652
0.00105175
0.000949966
0.00106462
0.000913415
0.00107734
0.00087708
0.00108958
0.000841023
0.00110136
0.000805439
0.00111271
0.000770341
0.00112387
0.000735888
0.00113431
0.000702143
0.00114405
0.000669167
0.00115317
0.000637153
0.00116196
0.00060587
0.00117049
0.000575541
0.00117877
0.000546166
0.00118592
0.000517773
0.00119237
0.000490366
0.00119821
0.000463881
0.00120352
0.000438448
0.00120816
0.000414087
0.00121199
0.000390651
0.00121555
0.000367997
0.00121825
0.000346617
0.00122027
0.000325671
0.00122149
0.000309627
0.00122204
0.000315502
0.00122086
0.000335482
0.00119307
0.000312543
0.000711368
0.000297916
0.000634991
0.000318806
0.000634715
0.000332633
0.000651649
0.000342143
0.000669061
0.000348932
0.000685644
0.000353091
0.000700097
0.000354857
0.000712269
0.000354898
0.00072296
0.000353829
0.000732618
0.000352925
0.000741527
0.000351854
0.000747866
0.000351202
0.000755344
0.000350016
0.000761247
0.000349577
0.000766275
0.000348096
0.000772243
0.000346529
0.000776229
0.000346223
0.000780288
0.000345213
0.000783201
0.000343969
0.000786064
0.000344274
0.000788827
0.000344744
0.000790861
0.000344431
0.000792073
0.000344276
0.00079415
0.000344578
0.000796196
0.000344696
0.000797146
0.000344647
0.000798936
0.000344933
0.000799402
0.000345882
0.000800458
0.000347301
0.000799529
0.000348619
0.000797959
0.000349922
0.000796383
0.000352094
0.000797889
0.000356579
0.000795936
0.000361268
0.000793603
0.000365783
0.000789461
0.000369604
0.000784369
0.000372755
0.000779349
0.000376003
0.00077551
0.000379485
0.000769693
0.000382986
0.000763766
0.00038666
0.000756298
0.000389863
0.000753522
0.000393581
0.000746852
0.000398201
0.000742013
0.000401709
0.000739928
0.000405486
0.000730328
0.000408393
0.00072318
0.000411387
0.000710241
0.000414544
0.000695864
0.000413063
0.000688548
0.000412543
0.000652871
0.000412429
0.000635331
0.000411974
0.000604178
0.000417856
0.000559274
0.000432004
0.000521653
0.000442107
0.00049332
0.000449547
0.000474371
0.000453497
0.000460182
0.000454162
0.000449236
0.000452253
0.000441121
0.000448631
0.000435186
0.000445024
0.000430992
0.000442661
0.000428417
0.000441984
0.000426312
0.000442076
0.000424435
0.000443288
0.000422942
0.000445736
0.000421395
0.000450599
0.000419948
0.000457098
0.000419796
0.000466335
0.000421568
0.000474653
0.000425911
0.000486217
0.00043144
0.00145973
0.00145918
0.000807675
0.00145558
0.000821654
0.00144892
0.000835912
0.00143927
0.000850435
0.0014267
0.000865215
0.00141129
0.000880241
0.0013932
0.000895487
0.00137255
0.000910921
0.0013495
0.000926525
0.00132424
0.000942258
0.00129694
0.000958083
0.0012678
0.000973965
0.00123704
0.00098982
0.00120485
0.00100567
0.00117142
0.00102149
0.00113694
0.00103712
0.00110171
0.00105254
0.00106581
0.00106795
0.00102944
0.00108301
0.000992782
0.00109769
0.00095607
0.00111203
0.00091935
0.00112625
0.00088284
0.00113992
0.000846543
0.00115301
0.000810789
0.00116558
0.000775519
0.00117816
0.000740805
0.00118997
0.000706821
0.00120089
0.000673634
0.00121109
0.00064143
0.00122086
0.000610146
0.0012302
0.000579641
0.00124037
0.000550085
0.00124907
0.000521507
0.00125686
0.00049395
0.00126397
0.000467318
0.00127049
0.00044177
0.00127654
0.000417401
0.00128171
0.000393902
0.0012867
0.00037149
0.00129184
0.000350304
0.00129685
0.000329243
0.00130376
0.000310411
0.00130785
0.000316892
0.00130945
0.000344858
0.00129989
0.000318572
0.000807572
0.000307721
0.000680135
0.000332496
0.000683833
0.000349562
0.00070673
0.000358933
0.000727946
0.000364324
0.000747111
0.000367397
0.000762201
0.000368384
0.000774315
0.000367372
0.000783965
0.000365253
0.000791079
0.00036289
0.00079914
0.0003607
0.000803752
0.000358825
0.000809675
0.00035745
0.000814628
0.000355864
0.000816964
0.000353887
0.000821478
0.000352244
0.000824471
0.000350644
0.000828384
0.000349635
0.000836106
0.000348652
0.000841822
0.000347826
0.000847388
0.000347953
0.000851059
0.000347844
0.000854044
0.000347257
0.000855738
0.000347411
0.000857011
0.000347764
0.00085743
0.000347891
0.000857228
0.000347656
0.000857582
0.000347641
0.000856851
0.000348228
0.000855544
0.00034947
0.000852269
0.000353302
0.000848415
0.000357129
0.000846194
0.000361288
0.000845665
0.00036579
0.000840977
0.000370124
0.000836349
0.000373778
0.000826945
0.000376931
0.000819305
0.000379989
0.000812362
0.000383821
0.000804782
0.00038806
0.000796714
0.000392311
0.000787295
0.000395322
0.000782701
0.000398814
0.0007709
0.000402946
0.000762822
0.000405104
0.00075911
0.000408596
0.000739449
0.000410614
0.000725536
0.000411021
0.000705409
0.000412647
0.000678963
0.000411574
0.000670541
0.00040905
0.000627496
0.000411818
0.000595921
0.000423161
0.0005573
0.000436641
0.000522974
0.000446595
0.000498464
0.00045357
0.000481107
0.000458463
0.000468302
0.000460477
0.000457692
0.00045943
0.000449385
0.000455971
0.000442956
0.000451708
0.000437229
0.000448337
0.000433141
0.000446718
0.000430116
0.000446498
0.000427586
0.000447404
0.000425461
0.000449738
0.000423831
0.000453364
0.000422397
0.000458699
0.000421267
0.000465238
0.000420906
0.000474438
0.000422599
0.000483272
0.000426942
0.000494246
0.000432674
0.00146674
0.00146632
0.000820727
0.00146285
0.000836645
0.00145633
0.000852823
0.0014468
0.000869247
0.00143434
0.000885912
0.00141904
0.000902805
0.00140103
0.000919902
0.00138045
0.000937165
0.00135746
0.000954584
0.00133222
0.000972113
0.00130493
0.000989713
0.00127578
0.00100732
0.00124498
0.00102491
0.00121273
0.00104247
0.0011792
0.00105994
0.00114463
0.00107719
0.00110927
0.00109422
0.00107322
0.00111119
0.00103668
0.00112778
0.000999844
0.00114395
0.00096294
0.00115972
0.000926038
0.00117538
0.000889279
0.00119045
0.000852749
0.00120482
0.000816813
0.00121864
0.000781333
0.00123254
0.000746349
0.00124564
0.000712094
0.00125776
0.000678652
0.00126906
0.000646182
0.00127992
0.000614922
0.00129037
0.000584246
0.00130181
0.000554543
0.00131206
0.000525821
0.00132145
0.000498064
0.00132999
0.000471278
0.00133776
0.000445543
0.00134524
0.000421127
0.00135146
0.000397911
0.00135792
0.000376148
0.00136604
0.00035535
0.00137547
0.00033466
0.00138869
0.000313366
0.00139875
0.000321483
0.00140622
0.000355051
0.00141342
0.000324213
0.0010678
0.000321402
0.000749402
0.000352829
0.000743884
0.000370041
0.000775091
0.000378076
0.000794919
0.000382286
0.000816075
0.000383122
0.000830783
0.000381434
0.000841035
0.000378425
0.000847678
0.000375764
0.000851062
0.000372314
0.000859019
0.000369154
0.000860624
0.000366852
0.000865985
0.000363731
0.000869132
0.000361802
0.0008691
0.000359144
0.000879466
0.000356531
0.000886118
0.00035526
0.000893237
0.000353781
0.000899304
0.000352238
0.000902054
0.000351633
0.00090636
0.000351184
0.000909411
0.0003506
0.000911751
0.000349945
0.000913227
0.000349757
0.000913675
0.000350286
0.00091271
0.000350857
0.000911392
0.000351082
0.000909694
0.000349968
0.000908448
0.000351333
0.000904738
0.000355443
0.000901305
0.000358968
0.000895097
0.000362513
0.000889947
0.000366346
0.00088629
0.00037066
0.000880425
0.000374766
0.000873265
0.000378526
0.000863015
0.000382248
0.000851866
0.000386013
0.000843435
0.000389676
0.000831076
0.00039343
0.000820493
0.000397617
0.000809527
0.000400113
0.000802466
0.000403317
0.000781534
0.000406905
0.000768957
0.000406843
0.000760766
0.00040872
0.000726831
0.000410593
0.000711353
0.000409785
0.000691263
0.00040849
0.000655337
0.000409015
0.000629558
0.000413081
0.000585203
0.000427398
0.000551511
0.000440701
0.000524341
0.000450207
0.000504018
0.000457217
0.000488505
0.000462235
0.000476578
0.000465
0.000466506
0.000465246
0.000458312
0.000462796
0.000451932
0.000459156
0.000445949
0.000454837
0.000440479
0.000452158
0.000436512
0.000451023
0.000433179
0.00045126
0.000430199
0.000452886
0.000427848
0.000456149
0.000426004
0.000460687
0.000424528
0.000466421
0.000423533
0.000472905
0.000422913
0.000482045
0.000424464
0.000491183
0.000428526
0.00050178
0.00043417
0.0014748
0.0014745
0.000835011
0.00147116
0.000852806
0.00146476
0.000870842
0.00145535
0.00088911
0.00144299
0.0009076
0.00142779
0.000926304
0.00140986
0.000945198
0.00138934
0.000964237
0.00136639
0.000983415
0.00134117
0.00100269
0.00131387
0.00102201
0.00128469
0.0010413
0.00125384
0.00106058
0.00122151
0.00107979
0.00118787
0.00109887
0.00115318
0.00111768
0.00111768
0.00113631
0.00108145
0.00115478
0.00104472
0.00117284
0.00100769
0.00119044
0.000970584
0.00120764
0.00093343
0.00122466
0.000896396
0.00124105
0.000859652
0.00125674
0.000823465
0.00127188
0.000787735
0.00128698
0.000752477
0.0013012
0.00071793
0.00131459
0.000684261
0.0013271
0.000651533
0.00133924
0.000620038
0.00135086
0.000589175
0.00136323
0.00055937
0.00137456
0.000530476
0.0013852
0.000502477
0.00139527
0.000475397
0.0014046
0.000449523
0.00141352
0.000425131
0.00142079
0.00040211
0.00142918
0.00038089
0.00143958
0.000360318
0.00145341
0.000341038
0.00146977
0.000321895
0.00148589
0.000322926
0.00150394
0.000359988
0.00152613
0.000328219
0.00144574
0.000340556
0.000890003
0.000373129
0.000806772
0.000384997
0.000850746
0.000392428
0.000869819
0.000396283
0.000886134
0.000397197
0.000898352
0.000394538
0.000906432
0.000389656
0.000911944
0.000385425
0.000914228
0.000380272
0.000918701
0.000376581
0.000918283
0.000373629
0.000923918
0.000369955
0.000928568
0.00036725
0.000929854
0.000364205
0.000942018
0.000361049
0.000945961
0.000359289
0.00095098
0.000358165
0.000958538
0.000356141
0.000962159
0.000355066
0.000962327
0.000354556
0.00096371
0.000353689
0.00096491
0.000353199
0.000965478
0.000352486
0.000964464
0.000352307
0.00096241
0.000352503
0.00095897
0.000352612
0.000956084
0.000351794
0.000951424
0.000356585
0.00094759
0.000360792
0.000941212
0.000364541
0.000933931
0.000367731
0.000924477
0.000371184
0.000918956
0.000375557
0.000910283
0.000380116
0.000901702
0.000384462
0.000890009
0.000388511
0.000876022
0.000391737
0.000865344
0.000394808
0.000847058
0.000398595
0.000831837
0.000402576
0.00081831
0.000403903
0.000805068
0.000405607
0.000771071
0.000408745
0.000753354
0.000407608
0.00074988
0.000407112
0.000707621
0.000407976
0.000685315
0.000406259
0.000657083
0.00040675
0.000613109
0.000418879
0.000576984
0.000431635
0.000548458
0.000442975
0.000526261
0.000452547
0.000508982
0.000459876
0.000496143
0.000465081
0.000485073
0.000467961
0.000475353
0.000469081
0.000467406
0.000468019
0.000461072
0.000465671
0.000455177
0.000462126
0.000449578
0.000458382
0.000444634
0.000456175
0.000440583
0.000455493
0.00043677
0.000456127
0.00043352
0.000458507
0.000431027
0.000462626
0.000429081
0.000467752
0.000427371
0.000473806
0.000426392
0.000480281