/*--------------------------------*- C++ -*----------------------------------*\
| =========                 |                                                 |
| \\      /  F ield         | OpenFOAM: The Open Source CFD Toolbox           |
|  \\    /   O peration     | Version:  2.2.x                                 |
|   \\  /    A nd           | Web:      www.OpenFOAM.org                      |
|    \\/     M anipulation  |                                                 |
\*---------------------------------------------------------------------------*/
FoamFile
{
    version     2.0;
    format      ascii;
    class       volScalarField;
    location    "1.55";
    object      pB;
}
// * * * * * * * * * * * * * * * * * * * * * * * * * * * * * * * * * * * * * //

dimensions      [1 1 -3 0 0 -1 0];

internalField   nonuniform List<scalar> 
14161
(
-6.1859e-05
2.1193e-06
-7.47137e-06
-1.1243e-05
-1.66221e-05
-2.17171e-05
-2.81222e-05
-3.59898e-05
-4.3163e-05
-5.2768e-05
-6.33684e-05
-7.41783e-05
-8.76789e-05
-0.000102933
-0.000115971
-0.000132661
-0.000154965
-0.000172313
-0.000174818
-0.000214378
-0.000225107
-0.000178417
-0.000238792
-0.000248229
-0.000186564
-0.000156559
-0.000136972
-8.87425e-05
-4.02063e-05
1.34908e-05
0.000128722
0.000259363
0.000434984
0.000652324
0.000925688
0.00125603
0.00164819
0.00211716
0.00269949
0.00337728
0.00403556
0.00466479
0.00531214
0.00394868
0.00177766
-0.00772974
-0.000140249
-0.00117752
0.00141315
0.00243773
0.00207301
0.0019681
0.00226513
0.00158715
0.00176544
0.00169718
0.0016021
0.00190884
0.00116003
0.00148698
0.00148286
0.000889289
0.00128577
0.000944723
0.000316485
0.000535071
0.000435389
-0.000150737
-0.00022952
-0.000289824
-0.000302196
-0.000501487
-0.000312396
-0.000570629
-0.00098852
-0.00104813
-0.000648014
-0.000799602
-0.00100124
-0.000921988
-0.00124727
-0.00150998
-0.00132129
-0.00137128
-0.00167549
-0.00157606
-0.0013462
-0.00191291
-0.00216363
-0.00184472
-0.00183478
-0.00193631
-0.00222972
-0.00279081
-0.00188421
-0.00303438
-0.00278981
-0.00295265
-0.00329222
-0.00351961
-0.00433663
-0.00473247
-0.00509902
-0.00623012
-0.00982248
-0.0151108
-0.022728
-0.0291272
-0.0201342
-0.0126859
-0.0104836
-0.00794701
-0.00596874
-0.0038357
-0.00275401
-0.00271124
-0.00853585
0.00532281
-0.062597
-6.19834e-05
2.15562e-06
-7.49618e-06
-1.12676e-05
-1.66035e-05
-2.17273e-05
-2.82987e-05
-3.5745e-05
-4.32528e-05
-5.27937e-05
-6.33242e-05
-7.45198e-05
-8.7893e-05
-0.000102662
-0.000115888
-0.000133209
-0.000154792
-0.000170209
-0.000178274
-0.000212783
-0.00021629
-0.000199003
-0.000242965
-0.000229044
-0.000188373
-0.000162661
-0.000134141
-8.8095e-05
-3.69956e-05
8.60832e-06
0.00012656
0.000256223
0.000430709
0.000645188
0.000914615
0.00124142
0.00163788
0.00209808
0.00267512
0.0033966
0.00412867
0.00470652
0.00625665
0.00487529
0.00441631
-0.00985223
0.00136947
-0.000949194
0.000705889
0.00202859
0.00217298
0.00131241
0.00252256
0.00112183
0.000683826
0.000493185
3.08099e-05
-2.83212e-05
-0.000356809
-0.00107576
-0.000684655
-0.00117879
-0.00121702
-0.000868478
-0.00135412
-0.00132177
-0.000938108
-0.00118623
-0.00133696
-0.00108187
-0.00103279
-0.00108343
-0.000957407
-0.00123343
-0.00179872
-0.00214135
-0.00182959
-0.00176518
-0.00188274
-0.00169101
-0.00180929
-0.00214796
-0.00220812
-0.00192474
-0.00213218
-0.00218181
-0.00211615
-0.00285297
-0.00312267
-0.00277308
-0.00275041
-0.00266222
-0.00282359
-0.00301494
-0.00274669
-0.00380927
-0.00372882
-0.00416785
-0.00438322
-0.00486384
-0.00540037
-0.00508267
-0.00517419
-0.00625905
-0.00427296
-0.00260552
0.000435975
0.00489896
0.0033448
0.00160317
0.000588605
0.000302444
0.000578707
0.001621
0.00135238
0.0019301
-0.00552797
0.00951939
-0.0480216
-6.18381e-05
2.14051e-06
-7.54953e-06
-1.1302e-05
-1.66042e-05
-2.17363e-05
-2.81644e-05
-3.57347e-05
-4.342e-05
-5.26074e-05
-6.33324e-05
-7.44993e-05
-8.80275e-05
-0.000102512
-0.000116007
-0.000133418
-0.000154922
-0.000169671
-0.000179225
-0.00020979
-0.000214539
-0.000213444
-0.000231496
-0.000217116
-0.000205781
-0.000165794
-0.000135736
-9.57762e-05
-4.39851e-05
-1.92212e-05
0.000100604
0.000226491
0.00039517
0.000592702
0.000850318
0.00115189
0.00154029
0.0019965
0.00253311
0.0032001
0.00405055
0.00497946
0.00653419
0.00683937
0.00523824
-0.013048
0.000935983
0.00103496
0.00269652
0.00191976
0.00203781
0.000812707
0.00267394
0.00142309
0.00155777
0.00135103
0.00116964
0.000917133
0.00105213
0.000230483
0.000325841
8.50653e-05
-0.000190116
-5.92791e-05
-0.000379507
-0.000454672
-0.00028773
-0.000662021
-0.000834404
-0.000941259
-0.00117066
-0.0015074
-0.0013669
-0.00123278
-0.00128975
-0.0013452
-0.00114943
-0.00131527
-0.00168687
-0.00149902
-0.00152624
-0.0019411
-0.00216254
-0.00200046
-0.0021537
-0.0022919
-0.00182084
-0.00196744
-0.00226897
-0.00192213
-0.00245102
-0.00306265
-0.00327633
-0.00234296
-0.00274464
-0.00364747
-0.00337235
-0.00386777
-0.00470229
-0.00418733
-0.00427302
-0.00477147
-0.00543063
-0.00636821
-0.00987355
-0.0110238
-0.00781116
-0.00689024
0.00161324
0.00288499
0.00111097
0.000708339
0.000847151
0.00153347
0.000939693
0.000754372
-0.00598669
0.0072145
-0.0408938
-6.17462e-05
2.12772e-06
-7.51926e-06
-1.12775e-05
-1.65182e-05
-2.18534e-05
-2.81622e-05
-3.56346e-05
-4.36138e-05
-5.23814e-05
-6.33006e-05
-7.51308e-05
-8.77452e-05
-0.000102104
-0.000116689
-0.000134005
-0.00015445
-0.00016801
-0.000183673
-0.000206371
-0.000215493
-0.000228124
-0.00022279
-0.000214106
-0.000223912
-0.000190209
-0.000135793
-9.97868e-05
-5.9932e-05
-3.39523e-05
6.90615e-05
0.000190278
0.000353546
0.000534278
0.000765913
0.00104878
0.00140864
0.00185656
0.00237518
0.00291606
0.00368665
0.00453933
0.00540324
0.00492063
0.00665207
-0.0164644
0.00609527
-0.000704224
0.0031594
0.00230061
0.00262331
0.000875707
0.00256276
0.0012685
0.00106285
0.000923499
0.000858953
0.000807841
0.000584696
0.000378196
0.00038832
-6.99791e-05
-4.73202e-05
-0.000307677
-0.000447241
-0.000454263
-0.000812813
-0.000871342
-0.000712051
-0.000723756
-0.000900309
-0.00129195
-0.00123431
-0.00112165
-0.00126456
-0.00129269
-0.00149595
-0.00175705
-0.00194151
-0.00168049
-0.00171909
-0.00191316
-0.00189429
-0.00193824
-0.00211826
-0.00223789
-0.0019802
-0.00195309
-0.00255801
-0.0022305
-0.00274496
-0.00308855
-0.00312446
-0.00243231
-0.0026953
-0.00342311
-0.00362745
-0.00386921
-0.0038944
-0.00417328
-0.00457665
-0.00464774
-0.00560827
-0.00768863
-0.00646695
-0.00672887
-0.00371015
-0.00173892
0.00136638
0.00231049
0.00073561
0.000697898
0.000680325
0.00138675
0.000515842
0.000720905
-0.00523444
0.0053154
-0.033247
-6.15754e-05
2.1017e-06
-7.5367e-06
-1.12757e-05
-1.64233e-05
-2.19672e-05
-2.80833e-05
-3.54626e-05
-4.37881e-05
-5.22514e-05
-6.29635e-05
-7.55532e-05
-8.78239e-05
-0.000101279
-0.000116992
-0.00013554
-0.000153189
-0.000166308
-0.00018801
-0.000204855
-0.000213237
-0.000243458
-0.000217215
-0.000201281
-0.000241338
-0.000212919
-0.000148098
-0.000114907
-8.68392e-05
-4.46366e-05
8.18417e-06
0.000129915
0.000271458
0.000432444
0.000624517
0.000878938
0.00118558
0.00156947
0.00205055
0.00256862
0.00319689
0.00378071
0.00425978
0.00293847
0.0055116
-0.0151633
0.0083858
0.00140533
0.00402406
0.00275845
0.0027713
0.00114421
0.00205703
0.00187396
0.0013017
0.000646415
0.000834275
0.000521469
0.000758808
0.000311081
0.000129785
0.000174095
-0.000200884
-1.23936e-06
-0.000162381
-0.000562604
-0.000510954
-0.000751141
-0.000775532
-0.000408388
-0.000732105
-0.00108885
-0.0013263
-0.00115558
-0.001111
-0.00128526
-0.00149058
-0.00162964
-0.0018056
-0.0019229
-0.00190276
-0.0018721
-0.00164812
-0.00178993
-0.00193745
-0.00200548
-0.0021767
-0.00205063
-0.00232298
-0.00201599
-0.00240677
-0.00249708
-0.00292068
-0.00261348
-0.00243946
-0.00344166
-0.0030715
-0.00326017
-0.00405682
-0.00389208
-0.00416651
-0.00580272
-0.00655113
-0.00568777
-0.00402727
-0.00325854
-0.00333311
-0.000543738
0.00255641
0.00171266
0.00127135
0.00104054
0.00100785
0.00109479
-3.78164e-05
0.000121347
-0.00426258
0.00386656
-0.0268759
-6.14029e-05
2.07883e-06
-7.53612e-06
-1.12837e-05
-1.63237e-05
-2.20862e-05
-2.80122e-05
-3.52629e-05
-4.39937e-05
-5.21466e-05
-6.27458e-05
-7.59466e-05
-8.7837e-05
-0.000100455
-0.000117768
-0.000135866
-0.000151792
-0.000166724
-0.000193291
-0.00020082
-0.00021855
-0.000244663
-0.000212699
-0.0002079
-0.000248277
-0.000229272
-0.000190608
-0.000135407
-0.000107474
-6.68877e-05
-5.54971e-05
5.64079e-05
0.000174036
0.00030438
0.000463637
0.000673295
0.000930307
0.00123327
0.00160907
0.00205376
0.00250085
0.00312239
0.00316972
0.00149862
0.00697717
-0.0149673
0.00983422
0.0016297
0.00552546
0.00282447
0.00353628
0.00134294
0.0014654
0.00197461
0.0011225
0.000972542
0.000571752
0.000664157
0.000476631
0.000560352
0.000167386
-0.000226999
0.000100154
-0.000178864
-0.000278861
-2.8244e-05
-0.000415278
-0.000879339
-0.000636188
-0.000937612
-0.000795498
-0.000889308
-0.00112169
-0.00128244
-0.00126646
-0.00134563
-0.00140804
-0.00149471
-0.00171753
-0.00183806
-0.00179303
-0.00173294
-0.00159565
-0.00171521
-0.00173129
-0.00174109
-0.00248367
-0.00221569
-0.00217406
-0.00224727
-0.00253738
-0.00238769
-0.00213549
-0.00258779
-0.00234891
-0.00226904
-0.0032372
-0.00388183
-0.00379762
-0.00377845
-0.00581224
-0.00638609
-0.00466769
-0.00394276
-0.00338823
-0.00315648
-0.00171169
0.000820627
0.000974095
0.00153233
0.00103105
0.000862263
0.000828233
0.000638676
-0.000372793
-0.000324163
-0.00353584
0.00278838
-0.021867
-6.11545e-05
2.04644e-06
-7.54276e-06
-1.12876e-05
-1.6259e-05
-2.21295e-05
-2.79914e-05
-3.51304e-05
-4.40131e-05
-5.21271e-05
-6.24592e-05
-7.62069e-05
-8.80411e-05
-9.97564e-05
-0.000119341
-0.000137044
-0.000150073
-0.000165362
-0.000199125
-0.000199223
-0.00022393
-0.000245466
-0.0002196
-0.000223395
-0.000248446
-0.000235377
-0.000223399
-0.000193559
-0.000135653
-0.000119502
-8.98865e-05
-7.10031e-05
4.36002e-05
0.000127237
0.000248501
0.000389505
0.000558983
0.000767734
0.00101189
0.00135706
0.00183542
0.00256403
0.00287799
0.00183883
0.0115112
-0.0156228
0.0113281
0.00179775
0.0058886
0.00311218
0.00348365
0.00169764
0.00129912
0.00139594
0.00120355
0.000434894
0.000630583
0.000285418
0.000356989
3.84194e-05
4.38315e-06
2.41438e-05
-0.000262508
4.41553e-06
-0.000183885
-0.000546154
-0.000166643
-0.000175515
-0.000730099
-0.000789262
-0.000786482
-0.00133646
-0.00131372
-0.00126355
-0.00130997
-0.00132541
-0.00142898
-0.00160407
-0.00169811
-0.00183809
-0.00197465
-0.0019101
-0.00197978
-0.00216304
-0.00223958
-0.00208
-0.00224488
-0.00219516
-0.00214139
-0.00193793
-0.00201828
-0.00206519
-0.00194154
-0.00162201
-0.00231762
-0.00390212
-0.00417104
-0.00227835
-0.0038598
-0.00455116
-0.00639214
-0.00227676
-0.00374836
-0.00375933
-0.00327992
-0.00223408
-0.000450817
0.000350456
0.00100525
0.00116032
0.000739453
0.000618091
0.000478374
0.00017711
-0.000651743
-0.000681915
-0.00305021
0.00207957
-0.0180235
-6.08947e-05
2.01617e-06
-7.54214e-06
-1.12974e-05
-1.62098e-05
-2.21086e-05
-2.80251e-05
-3.50033e-05
-4.39164e-05
-5.21188e-05
-6.21802e-05
-7.64305e-05
-8.80504e-05
-9.88816e-05
-0.00011965
-0.000138874
-0.000146799
-0.000165643
-0.000200959
-0.000203374
-0.000220436
-0.000235207
-0.000239024
-0.000247215
-0.000241753
-0.000244463
-0.000256856
-0.00024256
-0.000198449
-0.000155849
-0.000168805
-0.000162112
-0.000125996
-5.07335e-05
-6.55284e-06
6.05056e-05
0.000135407
0.000232749
0.000354838
0.00057683
0.000953259
0.00154286
0.00242377
0.00352537
0.0118001
-0.00249175
0.00683954
0.00369223
0.00579974
0.00398799
0.00299411
0.00192157
0.000980852
0.00112205
0.00122509
0.00093662
0.00106936
0.000622861
0.000186275
6.47618e-05
-0.000105659
-0.000226481
-0.00030446
-0.000712802
-0.000735832
-0.000563861
-0.000688201
-0.000717811
-0.000680178
-0.000828772
-0.00103197
-0.000839606
-0.00117805
-0.00142679
-0.00142349
-0.00141192
-0.00128271
-0.00121448
-0.00146707
-0.00167507
-0.0018896
-0.00180561
-0.00174483
-0.00174818
-0.00161851
-0.00159649
-0.00163019
-0.00201431
-0.00173392
-0.0015943
-0.00129738
-0.00153162
-0.00234268
-0.00362013
-0.0036612
-0.00183288
-0.00347285
-0.00241046
-0.00467248
-0.00321542
-0.00231561
-0.00294348
-0.00354838
-0.00346659
-0.0024803
-0.000925991
-0.000760796
7.41661e-06
0.000315677
0.000521875
0.000315042
0.000272478
1.14932e-05
-0.000294129
-0.000836767
-0.000895655
-0.00285593
0.00159856
-0.015345
-6.05644e-05
1.97717e-06
-7.53818e-06
-1.12988e-05
-1.61786e-05
-2.20041e-05
-2.80973e-05
-3.4883e-05
-4.3717e-05
-5.22249e-05
-6.20828e-05
-7.63506e-05
-8.7972e-05
-9.87221e-05
-0.000121268
-0.000140095
-0.000143692
-0.000168219
-0.000200239
-0.000212816
-0.000222062
-0.000231264
-0.00026382
-0.000269972
-0.000232991
-0.000253387
-0.000295399
-0.000287674
-0.000268337
-0.000225293
-0.000214847
-0.000267501
-0.000312561
-0.000312884
-0.000299262
-0.000306714
-0.000357796
-0.000435545
-0.000567984
-0.000723599
-0.000814834
-0.00052894
-0.000315471
0.000815214
-0.000231164
0.00691449
0.00422504
0.00430717
0.00660931
0.00522097
0.00119618
0.000602523
0.000876189
0.001014
0.000835497
0.000613235
0.0010825
0.000428322
0.000227255
-0.000156977
-0.000392555
-0.000277535
-0.000614154
-0.0008001
-0.000629028
-0.000969364
-0.00105616
-0.000819776
-0.00100663
-0.00124896
-0.000885984
-0.000953009
-0.00116162
-0.00120951
-0.00120574
-0.00154524
-0.00132836
-0.00124658
-0.00157419
-0.00149989
-0.00160437
-0.0015868
-0.00147885
-0.0014398
-0.0017013
-0.00172644
-0.00166694
-0.00135334
-0.00126708
-0.00209106
-0.00338001
-0.00302843
-0.00284658
-0.00210994
-0.00258426
-0.00188677
-0.00443476
-0.0043087
-0.00413209
-0.00207338
-0.00357322
-0.00258276
-0.00329354
-0.00278717
-0.00129006
-0.00156213
-0.00106161
-0.000399819
-0.000142628
6.45713e-05
-0.000161714
-0.000149767
-0.000417656
-0.000712386
-0.0010654
-0.0010082
-0.0027089
0.00131036
-0.0133089
-6.02153e-05
1.93496e-06
-7.52235e-06
-1.13022e-05
-1.61293e-05
-2.19143e-05
-2.81133e-05
-3.47869e-05
-4.34086e-05
-5.23562e-05
-6.26316e-05
-7.58038e-05
-8.7589e-05
-9.97001e-05
-0.000121358
-0.000139346
-0.000145186
-0.000171345
-0.000198309
-0.000220159
-0.00021983
-0.000220759
-0.000292598
-0.000281272
-0.000240578
-0.000264406
-0.000332711
-0.000342262
-0.00032555
-0.000294552
-0.000290736
-0.000357862
-0.000477228
-0.00055947
-0.000618683
-0.000739436
-0.000895363
-0.00112508
-0.00141521
-0.00189718
-0.00248277
-0.00315219
-0.00338492
-0.0013115
-0.00614421
0.0359699
-0.00155177
0.00920902
0.0066658
0.00656612
0.0036616
0.00263495
0.00164257
0.0011584
0.000890952
0.000429668
7.96034e-05
-0.000239109
-0.000823645
-0.000497081
-0.000640349
-0.000782416
-0.000902923
-0.00109179
-0.000940325
-0.000675971
-0.000834811
-0.00089498
-0.000808051
-0.00101038
-0.00120847
-0.0010441
-0.0010496
-0.00130493
-0.00119649
-0.00109836
-0.00125238
-0.00117921
-0.00123056
-0.00138376
-0.00151255
-0.00164658
-0.0015371
-0.00131819
-0.00113432
-0.00146119
-0.00214088
-0.0029135
-0.00196573
-0.00228779
-0.00190185
-0.00190658
-0.00153555
-0.00245416
-0.00282018
-0.00399846
-0.00171506
0.000102283
-0.00118541
-0.00315983
-0.00235892
-0.00298255
-0.00281567
-0.00203711
-0.00165043
-0.00181991
-0.00105669
-0.000779122
-0.000546369
-0.000327925
-0.000509068
-0.00041031
-0.000809128
-0.000954562
-0.00106784
-0.00102163
-0.00245875
0.00111998
-0.0116768
-5.97972e-05
1.89125e-06
-7.49374e-06
-1.13043e-05
-1.60872e-05
-2.17858e-05
-2.81466e-05
-3.46767e-05
-4.30863e-05
-5.25701e-05
-6.278e-05
-7.52474e-05
-8.69659e-05
-0.000102648
-0.000119488
-0.000137593
-0.000148764
-0.000174816
-0.000196151
-0.000223008
-0.000223402
-0.000229273
-0.000295708
-0.000288069
-0.000275772
-0.000290699
-0.000359211
-0.000377276
-0.000378171
-0.000398473
-0.000428865
-0.000497978
-0.000585707
-0.000723926
-0.000903799
-0.00111765
-0.00136685
-0.00171358
-0.00227622
-0.00317408
-0.00467717
-0.00686286
-0.0110421
-0.0147881
-0.0249015
0.0152709
0.00910641
0.0150453
0.00568238
0.00307659
0.00359533
0.00184422
0.00143966
9.17171e-05
-0.000196765
0.000202328
-0.000779581
-0.000645371
-0.0010798
-0.000821643
-0.00082635
-0.000906107
-0.000960389
-0.000947457
-0.00100505
-0.000850762
-0.000637389
-0.000814314
-0.000915711
-0.000914277
-0.00100901
-0.00107322
-0.000913682
-0.000999653
-0.00127239
-0.00140315
-0.00149321
-0.00142125
-0.00132908
-0.00125
-0.00111227
-0.00156305
-0.00158686
-0.00191312
-0.00194522
-0.00169613
-0.00161283
-0.000955595
-0.00231271
-0.00164372
-0.0010713
-0.00253917
-0.00194267
-0.00187539
-0.00112939
-0.000996747
-0.000631403
-0.00205258
-0.00183347
-0.00214948
-0.00255185
-0.00264504
-0.00271326
-0.00138565
-0.00224585
-0.00162783
-0.00133488
-0.000795272
-0.000694466
-0.000473037
-0.000617863
-0.000473472
-0.000845235
-0.00105526
-0.000953354
-0.00093869
-0.0020802
0.0010291
-0.0102714
-5.93535e-05
1.84328e-06
-7.46626e-06
-1.12947e-05
-1.60482e-05
-2.16096e-05
-2.81594e-05
-3.45683e-05
-4.26855e-05
-5.28783e-05
-6.30788e-05
-7.32285e-05
-8.75304e-05
-0.000104007
-0.000118372
-0.000134671
-0.000154177
-0.000176072
-0.000194421
-0.000219224
-0.00022753
-0.000253111
-0.00028761
-0.000292848
-0.000298567
-0.000345996
-0.000367929
-0.000389774
-0.000435801
-0.000472502
-0.000527113
-0.000610983
-0.000711222
-0.000855982
-0.00104139
-0.00129193
-0.00160574
-0.00206146
-0.00259731
-0.00334417
-0.00416958
-0.00499164
-0.0058912
-0.00522745
0.00372944
0.0217769
0.029966
0.0322766
-0.000326234
0.000996637
-0.0044434
-0.0009404
-0.00115657
-0.000618399
-0.000690377
-0.000675427
-0.000738867
-0.00116616
-0.00137638
-0.0013595
-0.00116678
-0.00121624
-0.000921436
-0.000744227
-0.000792878
-0.000925779
-0.000766006
-0.000674688
-0.000851935
-0.000952551
-0.00105669
-0.00116461
-0.00113874
-0.0011354
-0.00115948
-0.00111173
-0.00126635
-0.00121616
-0.00139633
-0.00181974
-0.00147223
-0.0016042
-0.00170159
-0.00123576
-0.00149705
-0.00123728
-0.00121972
-0.00110022
-0.00193566
-0.00130965
-0.00188514
-0.000298444
-0.00205135
0.000336947
0.000502576
-0.00187987
-0.00106692
-0.00118898
-0.00199275
-0.00205744
-0.00223147
-0.00287152
-0.00109129
-0.00238223
-0.00167105
-0.0016465
-0.000880469
-0.000786531
-0.000641685
-0.000457219
-0.000545451
-0.000472626
-0.000791768
-0.00114473
-0.000799932
-0.000874305
-0.00177587
0.000879759
-0.00905805
-5.88371e-05
1.79621e-06
-7.42841e-06
-1.12609e-05
-1.59985e-05
-2.14438e-05
-2.81429e-05
-3.44622e-05
-4.23073e-05
-5.31611e-05
-6.34255e-05
-7.17697e-05
-8.79926e-05
-0.000105842
-0.000117988
-0.000131149
-0.000158414
-0.000177071
-0.000195258
-0.000215717
-0.000234217
-0.000274609
-0.000284229
-0.000291038
-0.000330342
-0.00038865
-0.000378165
-0.000422225
-0.000478825
-0.000524138
-0.000622485
-0.00071369
-0.000793644
-0.000949832
-0.00115485
-0.00140297
-0.00171536
-0.00216885
-0.00282858
-0.0034302
-0.0040928
-0.00511501
-0.0057819
-0.00629115
-0.00251937
0.00504239
0.0676767
-0.0172127
0.00364122
-0.00125164
-0.00108064
-0.00231495
-0.00316166
-0.00250369
-0.00206045
-0.00187105
-0.00219432
-0.00111212
-0.000820801
-0.00102171
-0.000911569
-0.00102391
-0.00105755
-0.000966738
-0.00094568
-0.000912958
-0.000884172
-0.000805859
-0.000912365
-0.000714364
-0.000742915
-0.000841644
-0.000832336
-0.0011172
-0.00139268
-0.00120576
-0.00188371
-0.00164281
-0.00129821
-0.00174814
-0.00145769
-0.00145262
-0.00123238
-0.000966578
-0.00103846
-0.000978138
-0.000978806
-0.00124336
0.000692188
0.000121105
-0.00410421
0.00215419
0.000727814
-0.000805242
-0.000299838
-0.000695252
-0.00131061
-0.00155535
-0.00163854
-0.00200632
-0.00209027
-0.00178573
-0.002019
-0.00175062
-0.00163233
-0.00118979
-0.000839577
-0.000682229
-0.000573887
-0.000433276
-0.000459131
-0.000479174
-0.000738067
-0.00120804
-0.00068198
-0.000806511
-0.00153042
0.000642997
-0.00801471
-5.82873e-05
1.74089e-06
-7.38967e-06
-1.1204e-05
-1.59578e-05
-2.13055e-05
-2.80171e-05
-3.43718e-05
-4.19616e-05
-5.33148e-05
-6.31e-05
-7.08037e-05
-8.82857e-05
-0.00010758
-0.00011649
-0.00012889
-0.000162489
-0.000182412
-0.000193273
-0.000210553
-0.000252978
-0.00028671
-0.000278302
-0.000287397
-0.000367515
-0.00040934
-0.000416328
-0.00043622
-0.000487326
-0.000584139
-0.000691765
-0.000749668
-0.000855705
-0.00100058
-0.0011859
-0.00138472
-0.00166384
-0.00199416
-0.00220828
-0.00265208
-0.00278216
-0.00270438
-0.00154717
0.00019353
0.0062911
0.0375792
0.00954017
-0.00766678
-0.00278672
-0.00519622
-0.00547163
-0.0038289
-0.0033335
-0.00271062
-0.00267239
-0.0026354
-0.00199062
-0.00124442
-0.000667829
-0.000582869
-0.000587106
-0.000752112
-0.000811454
-0.000748057
-0.000613183
-0.000751112
-0.000906273
-0.000933584
-0.00113969
-0.000991694
-0.00127175
-0.00140897
-0.00106236
-0.00141272
-0.00148436
-0.000903043
-0.0019466
-0.00150532
-0.000974223
-0.00148272
-0.0013569
-0.00142681
-0.00107583
-0.000704183
1.57259e-05
0.00121635
-0.000184029
-0.00185894
0.00162828
0.00262142
-0.000241329
-0.000296624
0.000210231
-4.50202e-05
-0.000522246
-0.00102877
-0.00113649
-0.00135633
-0.00159182
-0.00162604
-0.00209984
-0.00148559
-0.00161776
-0.00150457
-0.00138108
-0.000942945
-0.000764651
-0.000569622
-0.000507131
-0.000402366
-0.000410364
-0.000476359
-0.000624356
-0.00121022
-0.000587553
-0.000697727
-0.0012656
0.000480459
-0.00701393
-5.7663e-05
1.68775e-06
-7.34443e-06
-1.11225e-05
-1.5922e-05
-2.11593e-05
-2.77615e-05
-3.42597e-05
-4.19244e-05
-5.28208e-05
-6.26208e-05
-7.12078e-05
-8.8667e-05
-0.000107709
-0.000114055
-0.000129955
-0.000165161
-0.000185181
-0.000188691
-0.000208106
-0.000272546
-0.000290162
-0.000272952
-0.000302593
-0.000391321
-0.000428593
-0.000440286
-0.000437841
-0.000504488
-0.000634352
-0.000723871
-0.000785909
-0.000882589
-0.00100857
-0.00113314
-0.00132282
-0.00147135
-0.00168112
-0.00189207
-0.00204548
-0.00234643
-0.00249017
-0.00364344
-0.00500976
0.0123878
0.0208784
-0.00198986
-0.000131265
-3.04988e-05
0.00228251
-0.00183375
-0.00164688
-0.00290047
-0.00269354
-0.00271439
-0.00195726
-0.00156432
-0.00168403
-0.00182304
-0.00152688
-0.00148055
-0.00133122
-0.00124765
-0.00116466
-0.00117761
-0.00140246
-0.000974659
-0.000961965
-0.0010338
-0.000885833
-0.00110745
-0.00125829
-0.00127567
-0.0017096
-0.00131036
-0.0013196
-0.00155132
-0.000839237
-0.0011395
-0.000890261
-0.000385477
0.000822554
0.000481055
-0.000646848
-0.00193865
0.00198148
0.00324027
0.000776489
0.000517185
0.000937205
-4.08842e-05
0.000480134
-0.000164099
-0.000367776
-0.000482797
-0.000910509
-0.00112636
-0.0012406
-0.00128227
-0.00171564
-0.00127548
-0.00145479
-0.00132416
-0.00131464
-0.00113915
-0.000879256
-0.000621165
-0.000452928
-0.000420856
-0.000324693
-0.000330316
-0.00049463
-0.000742299
-0.00107471
-0.000611081
-0.000767321
-0.00105257
0.000333781
-0.00613761
-5.69903e-05
1.62772e-06
-7.30708e-06
-1.10297e-05
-1.58843e-05
-2.09931e-05
-2.74529e-05
-3.41969e-05
-4.19603e-05
-5.21518e-05
-6.19306e-05
-7.25293e-05
-8.86464e-05
-0.000105291
-0.000115046
-0.000136533
-0.00016301
-0.000182664
-0.000190022
-0.000218816
-0.000270441
-0.000287795
-0.00027995
-0.000331798
-0.000402743
-0.000436763
-0.000444485
-0.00046727
-0.000550621
-0.000654451
-0.000731186
-0.000784975
-0.000863065
-0.000936086
-0.00106641
-0.00113758
-0.00131387
-0.00140178
-0.00134662
-0.00118506
-0.000698088
-7.88625e-05
0.00249817
0.00686834
0.0364889
-0.0042564
-0.00144484
-0.00267547
-0.000888508
-0.00175562
7.5273e-05
-0.00159038
-0.00204007
-0.0025459
-0.00241497
-0.0020059
-0.00195872
-0.00173664
-0.00173552
-0.00149345
-0.00142604
-0.000956587
-0.00114157
-0.000941203
-0.000981372
-0.00166974
-0.00155993
-0.000956016
-0.00128663
-0.00147504
-0.00139528
-0.00103013
-0.00183735
-0.000798546
-0.00109813
-0.00107661
0.000362137
0.00132271
-0.0002675
-0.00106954
-0.0012069
0.00105594
0.00311674
0.00307948
0.0012517
0.000738933
0.00146121
0.00106638
0.00129113
0.000980435
0.000185848
0.000211239
-2.58419e-05
-0.000267249
-0.000552033
-0.000759323
-0.000941342
-0.000989739
-0.00113893
-0.00102576
-0.00126738
-0.00111603
-0.00111647
-0.000990664
-0.000927247
-0.000704685
-0.000492985
-0.000409942
-0.000341688
-0.000231639
-0.00030207
-0.000581723
-0.000809646
-0.000776083
-0.000610547
-0.0007945
-0.000824004
0.000221747
-0.00525785
-5.62425e-05
1.57212e-06
-7.26326e-06
-1.09059e-05
-1.58515e-05
-2.07677e-05
-2.71312e-05
-3.41871e-05
-4.16775e-05
-5.14659e-05
-6.15176e-05
-7.3375e-05
-8.87815e-05
-0.000102349
-0.000115992
-0.000139077
-0.000161697
-0.000178271
-0.000197419
-0.000231646
-0.000265654
-0.000276006
-0.000298008
-0.000357614
-0.000405387
-0.000433703
-0.000447155
-0.000491613
-0.000580865
-0.00066071
-0.000717138
-0.000761864
-0.000828556
-0.000896772
-0.000978657
-0.00104652
-0.00109877
-0.00108046
-0.00104024
-0.00105709
-0.000658673
-0.000562856
0.000850053
0.00920527
0.0219099
-0.00120579
0.00120577
-0.00123836
-0.001073
-0.00112858
0.000728102
-0.000693064
0.000498285
-0.00179715
-0.00166121
-0.00188207
-0.000583106
-0.00165698
-0.00107423
-0.0014238
-0.000982284
-0.00157272
-0.00151892
-0.00122679
-0.000861719
-0.00221856
-0.00153519
-0.0012394
-0.000900949
-0.00204026
-0.000623787
-0.00137292
-7.78079e-05
0.000978263
-0.000737611
-0.000554731
8.55419e-05
0.00162917
0.00250596
0.00370299
0.00199624
0.000549973
0.0014424
0.00159525
0.000956875
0.00230011
0.00114411
0.00136322
0.000738377
0.00105847
0.000373693
0.000254157
-2.9232e-05
-0.000200237
-0.000434837
-0.000616019
-0.000763246
-0.000813168
-0.000995963
-0.00089089
-0.00102619
-0.000971693
-0.000976041
-0.000823253
-0.000762955
-0.000602303
-0.00044817
-0.000388562
-0.000256767
-0.000158957
-0.000276347
-0.00062745
-0.000902977
-0.000531944
-0.000633289
-0.000886817
-0.000704376
5.17115e-05
-0.00445616
-5.54387e-05
1.50847e-06
-7.22502e-06
-1.07577e-05
-1.58065e-05
-2.05412e-05
-2.67609e-05
-3.41992e-05
-4.13801e-05
-5.05927e-05
-6.16626e-05
-7.35724e-05
-8.74628e-05
-0.000100892
-0.000117975
-0.000141278
-0.000159588
-0.000175503
-0.000200038
-0.000237969
-0.000263975
-0.000274675
-0.000316512
-0.000372361
-0.000407446
-0.000423005
-0.000459205
-0.00052176
-0.000599316
-0.000659542
-0.000695158
-0.000740521
-0.000785576
-0.000790836
-0.000869619
-0.000919288
-0.00089313
-0.000869411
-0.000903472
-0.000888834
-0.000934241
-0.00112958
-0.00152206
0.0131152
0.0134362
0.000416259
0.00228403
1.28683e-05
0.000715749
0.000455805
0.000397981
-0.00045323
0.000831167
0.000184451
0.00217206
-0.00174047
-0.00191907
-0.00197565
-0.00111111
-0.00170571
-0.00190164
-0.0018606
-0.00190839
-0.0022999
-0.000565707
-0.00168414
-0.00237928
6.57927e-05
-0.000975839
0.000562898
0.000200635
-0.00227986
-2.73494e-05
0.00208221
0.00273188
0.0032555
0.00126425
0.00137793
0.00154816
0.0013612
0.00176411
0.0013917
0.00198087
0.00192969
0.00123237
0.00175664
0.00125554
0.00121581
0.00102891
0.000767462
0.000402677
0.000254121
8.43485e-05
-0.000150057
-0.00032199
-0.000505881
-0.000585094
-0.000649273
-0.00062337
-0.00075434
-0.000770888
-0.00077602
-0.000751459
-0.000639848
-0.00054832
-0.000455458
-0.000370229
-0.000366931
-0.000250853
-0.000227678
-0.000284924
-0.000582884
-0.000974266
-0.000414518
-0.000559731
-0.000848869
-0.000565652
-6.31879e-05
-0.0036963
-5.45467e-05
1.45095e-06
-7.181e-06
-1.0598e-05
-1.57052e-05
-2.03404e-05
-2.63688e-05
-3.40654e-05
-4.10478e-05
-4.96087e-05
-6.19215e-05
-7.37781e-05
-8.49506e-05
-0.000101069
-0.000120692
-0.000139228
-0.000157177
-0.000178728
-0.000206451
-0.000240963
-0.000256702
-0.000279151
-0.000331619
-0.000372712
-0.000402824
-0.000425137
-0.000470592
-0.000540616
-0.00060087
-0.000648444
-0.000674463
-0.000704599
-0.000727596
-0.000724618
-0.000765751
-0.000795245
-0.000764249
-0.000698951
-0.000577284
-0.000332295
2.15763e-05
0.00128268
0.00259277
0.0235773
0.0040317
0.000228177
-0.000779025
-0.00142356
-0.00152202
-0.00142046
-0.000888648
-0.00108478
-0.000649977
-0.00169687
-0.0012476
9.55363e-05
-0.00243452
-0.00042085
-0.00250079
-0.0014864
-0.00208913
-0.00111016
-0.00033912
-0.00274902
0.000995256
-0.00170663
-0.000485095
8.87594e-05
-0.000886109
0.000859113
0.00313417
0.00271367
0.00135241
0.0012548
0.001584
0.00152241
0.00174738
0.00205896
0.00215892
0.00196294
0.00169223
0.00133487
0.00181687
0.00142895
0.00158939
0.00145185
0.00142285
0.00101097
0.000923035
0.000829934
0.000473833
0.000389471
0.000120943
-8.52816e-05
-0.000213887
-0.000377728
-0.000520088
-0.00063155
-0.000557659
-0.000654062
-0.000613297
-0.000656513
-0.000667492
-0.000606562
-0.000544987
-0.000481086
-0.000434939
-0.000378915
-0.000278404
-0.000241963
-0.000285322
-0.000427298
-0.000910123
-0.00040307
-0.000513156
-0.000812695
-0.000570812
-0.000303347
-0.00297287
-5.35854e-05
1.38533e-06
-7.13963e-06
-1.04407e-05
-1.55215e-05
-2.01863e-05
-2.59462e-05
-3.37099e-05
-4.0781e-05
-4.87153e-05
-6.17821e-05
-7.39115e-05
-8.23829e-05
-0.000101875
-0.000123571
-0.000135605
-0.000153207
-0.000184159
-0.000211503
-0.000234951
-0.00025697
-0.000299299
-0.000337054
-0.000374421
-0.000399799
-0.000445636
-0.000490287
-0.000549246
-0.000587435
-0.000635875
-0.000655604
-0.000679779
-0.000689811
-0.000723986
-0.000720149
-0.000681017
-0.00061504
-0.000494111
-0.000329971
-0.000105548
0.00042134
0.00145933
0.00649513
0.0199884
-0.00594907
-0.000388946
-0.0019893
-0.00147279
-0.00172166
-0.00112836
-0.000717918
-0.000863451
-0.00134532
-0.00180416
-0.00138448
-0.00222575
-0.00163214
-0.00158742
-0.00137303
-0.000376589
-0.00229252
0.00265324
-0.00228459
-0.00153997
0.000727022
-0.000486787
0.00189287
0.00377013
0.00132217
0.000931175
0.00191319
0.00145302
0.00186855
0.0020701
0.00218407
0.00203341
0.00185565
0.00165379
0.00208404
0.00187472
0.00188984
0.0015439
0.00177358
0.00140947
0.00155218
0.00129857
0.00129506
0.00100613
0.000754565
0.000685316
0.000382193
0.000242341
2.98449e-05
-0.000147935
-0.000232157
-0.000332057
-0.000366911
-0.000440797
-0.00035254
-0.000491427
-0.000522646
-0.000456258
-0.000283963
-0.000322299
-0.000251924
-0.000245052
-0.000291933
-0.000244404
-0.000230764
-0.000267683
-0.000322716
-0.000460792
-0.000824272
-0.000505865
-0.000437355
-0.000681266
-0.000497082
-0.000411735
-0.00227523
-5.2531e-05
1.31728e-06
-7.07949e-06
-1.0279e-05
-1.52182e-05
-2.00855e-05
-2.55387e-05
-3.30889e-05
-4.05269e-05