/*--------------------------------*- C++ -*----------------------------------*\
| =========                 |                                                 |
| \\      /  F ield         | OpenFOAM: The Open Source CFD Toolbox           |
|  \\    /   O peration     | Version:  2.2.x                                 |
|   \\  /    A nd           | Web:      www.OpenFOAM.org                      |
|    \\/     M anipulation  |                                                 |
\*---------------------------------------------------------------------------*/
FoamFile
{
    version     2.0;
    format      ascii;
    class       volScalarField;
    location    "2.15";
    object      divBf;
}
// * * * * * * * * * * * * * * * * * * * * * * * * * * * * * * * * * * * * * //

dimensions      [1 -3 -2 0 0 -1 0];

internalField   nonuniform List<scalar> 
14161
(
4985.2
-732.144
634.329
232.113
315.748
242.499
225.15
181.693
147.058
107.319
71.2902
28.8835
-5.98107
-48.1483
-86.0886
-127.893
-169.977
-213.513
-260.218
-301.371
-345.474
-392.24
-437.137
-485.222
-532.12
-576.321
-622.164
-668.286
-712.568
-723.914
-799.702
-749.688
-837.398
-734.778
-783.938
-642.329
-583.667
-386.139
-204.655
307.43
477.959
1780.86
1092.48
6168.25
-2136.23
-8959.6
-95649.7
-37030.1
-20691.2
-30797.7
-28971.5
-32027.5
-31626.9
-33272
-31300.3
-31075.6
-29384.6
-29300.1
-28029.2
-27807.1
-26081.6
-24266.7
-22709.3
-21964.5
-19854.4
-17429.2
-15665.2
-15029
-13395.1
-10845.1
-8254.76
-7723.44
-7380.53
-5177.48
-1691.14
-130.411
363.253
2343.36
4206.49
3322.22
5852.51
7458.38
11029.7
8879.3
5330.46
5513.33
10211
12265.3
11498.3
5981.86
13468.1
790.95
4734.32
229.156
8326.26
7297.21
16302.2
4369.46
13050.1
-1072.02
-7669.92
-4007.23
-14365.5
-11786
-12174
-15220.3
-14006.3
-17406.6
-15188.3
-16428.6
-13294.7
-14128.2
-10445.6
-10449.8
-6362.04
-6028.93
-1547.73
-766.324
2474.61
4720.74
-976.373
385.439
-14.6468
65.7828
-9.88576
-32.575
-78.3808
-113.41
-160.726
-202.664
-250.126
-291.642
-340.478
-386.491
-437.341
-488.458
-539.814
-593.683
-647.233
-702.437
-761.542
-819.092
-884.518
-937.292
-1001.24
-1054.5
-1120.96
-1162.77
-1220.32
-1242.74
-1300.5
-1274.43
-1277.58
-1202.48
-1194.2
-1025.53
-864.772
-689.665
-358.399
13.9207
919.938
632.456
4087.01
-1603.69
-7191.18
-43818.2
-41027.3
-26074
-32838.1
-27957.9
-29932.2
-27907.5
-28771
-26789.2
-27117.5
-27154.2
-26997.1
-23193.7
-24061.2
-24924
-22029.3
-19290.7
-19943.3
-18356.9
-15425.1
-13078.9
-12751.3
-10229.8
-8603.83
-7672.94
-6818.35
-5931.76
-4724.97
-2555.4
-154.954
2359.3
3706.21
3272.97
5536.2
660.374
3779.18
12953.4
16210.7
18778.4
24120.2
22558.8
13520.3
488.277
-1147.27
4770.25
7566.06
31009.6
18365.6
27212.9
21692.4
21890.4
-2124.24
-3412.34
-10775.3
-8127.37
-6419.9
-23.8249
1244.05
-3736.01
-7955.49
-9037.77
-12026.5
-7641.8
-9817.08
-7137.6
-8486.91
-6195.43
-6689.22
-2766.48
-4328.34
-353.613
-1318.63
1942.84
4451.21
-1209.57
142.422
-253.412
-175.531
-250.479
-272.469
-321.846
-362.678
-410.661
-455.466
-505.549
-551.352
-607.332
-659.966
-715.015
-771.953
-831.952
-894.936
-955.71
-1018.93
-1087.96
-1157.25
-1230.85
-1302.05
-1376.08
-1451.16
-1536.94
-1603.94
-1697.52
-1746.84
-1858.63
-1877.22
-1982.32
-1946.67
-2082.33
-2049.36
-2090.63
-2028.8
-1908.53
-1757.92
-1484.45
-1412.33
-117.725
-1223.43
-15681.4
-26166.8
-32522.2
-23812.7
-28747.9
-24039.2
-27998
-25894.6
-27577.6
-26669.5
-25668.6
-25918.3
-26894.6
-23137.8
-22246.2
-21685.5
-19581.5
-18096
-16561.8
-14817.1
-12926.8
-11519.7
-10354.8
-10115.1
-8735.69
-6629.34
-4657.82
-2186.64
2304.52
-857.544
-2995.05
-1278.81
1835.52
4281.74
14288.3
20600.5
16603.5
8864.33
9220.39
5214.64
-2260.6
14232.1
33107
35172.8
92218.6
64901.2
24586.9
17870.9
-19512.1
-19315.5
-33381.3
-7322.12
14927.1
13998.8
22447.5
16942
-502.037
-18122.2
-14825.2
-5509.49
-5375.04
313.119
1736.77
-4209.43
-4029.93
-4902.05
-3243.49
-653.589
-2238.06
-1889.07
-1628.59
856.153
-1601.97
1280.33
4182.55
-1434.21
-92.7295
-481.571
-404.027
-477.474
-500.736
-549.838
-593.052
-641.054
-687.837
-742.196
-793.801
-851.007
-902.725
-965.679
-1026.35
-1092.25
-1160.72
-1228.65
-1297.56
-1376.17
-1448.74
-1527.24
-1606.21
-1691.09
-1765.16
-1844.91
-1916.26
-1988.54
-2045.12
-2095.48
-2119.92
-2127.11
-2131.81
-2072.31
-2010.78
-1888.96
-1781.86
-1552.54
-1362.97
-889.232
-675.251
671.626
140.131
-11860
4599.96
-23178.8
-18435.9
-27857.8
-25743.8
-28541
-27377.6
-28638
-28626.1
-26397.3
-26105.7
-27043.7
-23608.5
-21130.4
-19832.8
-21269.8
-17057.8
-12991.1
-12364.9
-13804
-11769.4
-6477.44
-5020.75
-5275.52
-6397.53
-3525.23
-2687.96
-2571.39
-1110.26
4427.06
13920.7
9764.49
7251.94
6292.67
-3886.24
3377.03
16896.4
27660.6
37440.2
32926.7
13595
8420.34
17410
-40871.5
-32714.1
43861
41031.4
53090.6
55507.5
40580.3
969.309
-26726.1
-11646.1
-12460.6
-14184.8
12715.6
21032.2
932.353
2431.43
-2628.31
-7967.09
-7063.68
-44.8567
-2502.25
3294.6
-5053.67
-173.323
-1535.07
1690.85
-2545.79
485.608
-1283.43
234.299
3911.75
-1646.24
-318.416
-698.08
-620.543
-691.463
-714.283
-763.601
-806.313
-854.551
-902.512
-956.957
-1008.8
-1068.58
-1127.24
-1193.24
-1256.22
-1326.62
-1396.67
-1469.85
-1544.61
-1628.69
-1705.45
-1801.73
-1886.55
-1980.91
-2073.66
-2179.93
-2277.59
-2386.62
-2485.5
-2605.41
-2709.51
-2829.16
-2928.74
-3038.14
-3144.52
-3281.25
-3316.67
-3352.64
-3221.95
-3256.04
-2706.75
-3278.27
-642.273
-14206.3
10969.5
-14126.9
-14028.1
-28600.3
-27926.8
-30310.5
-29676.1
-27888.2
-27186.2
-27293.7
-26916
-24360.4
-21837.6
-21551.9
-16902.6
-16934.9
-15753.4
-14079.6
-10999
-8624.8
-10158.5
-8282.54
-5937.93
-4125.4
-2239.33
-294.61
1330.3
5928.4
4043.73
998.997
833.042
-1036.33
5517.98
17375.2
27189
21458
21615.6
16011.9
-11827.5
-17456.7
29260.8
39444
47754.8
93688.5
76757
52168.7
-10752.5
1896.04
-10160.6
-3427
-2999.86
22626.4
22763.1
17100.2
7758.99
-20985.1
-11338.9
-1654.89
-365.553
243.627
8905.15
441.787
-1221.86
-3851.91
-802.586
300.678
3587.83
-2132.97
-76.8309
-1073.1
725.412
-1484.97
640.694
3646.35
-1847.98
-533.991
-903.023
-824.324
-891.888
-913.603
-960.883
-1003.33
-1049.65
-1098.46
-1152.57
-1207.18
-1268.14
-1325.96
-1395.75
-1460.39
-1533.65
-1605.03
-1683.45
-1760.49
-1848.96
-1932.17
-2025.02
-2111.7
-2208.61
-2298.77
-2391.6
-2478.67
-2562.62
-2629.82
-2687.58
-2731.74
-2765.61
-2779.52
-2769.75
-2705.11
-2566.04
-2479.21
-2282.42
-2153.97
-1760.35
-1800.14
-695.594
562.207
-2818.62
30812.5
-5146.28
-17506.6
-33812.6
-34564.9
-33380.3
-34974.3
-30977.7
-28811.3
-28884
-29380.8
-24740.7
-21589.7
-21760.4
-18842.2
-15819.6
-12940.3
-11818.3
-9807.69
-7000.3
-4713.33
-3424.05
-1675.09
-211.157
-471.762
260.35
318.168
557.779
2360.06
4855.38
13385.4
16718.3
11946.3
7700.58
-2065.05
432.278
20081.1
29707.3
39044.2
67325.5
54146.3
22622.2
6289.96
6776.82
-31897.8
7642.53
3578.96
31294.5
57780.5
38172.9
21884.1
1788.92
-415.582
-16339.4
-1047.72
11554.6
15157.3
1250.44
3291.34
-7152.99
-7164.83
-5885.43
2719.59
188.191
2539.49
-1681.37
-2476.71
-924.006
1143.3
-1332.65
325.586
-1612.12
495.108
3381.81
-2034.93
-737.859
-1094.81
-1015.04
-1079.23
-1097.21
-1142.47
-1184.2
-1228.67
-1278.26
-1330.94
-1386.94
-1444.82
-1505.65
-1575.25
-1642.7
-1718.68
-1792.5
-1872.88
-1952.69
-2044.68
-2133.98
-2231.99
-2329.48
-2435.55
-2545.1
-2657.62
-2775.58
-2897.95
-3022.06
-3160.98
-3286.55
-3447.19
-3562.18
-3751.97
-3850.46
-4064.85
-4154.11
-4268.21
-4277.02
-4089.46
-3465.44
-3490.82
1490.41
346.967
43853.7
-11126.1
-24536.7
-37882.1
-34519.5
-37543
-35682.2
-35553.3
-31220.6
-28762.4
-28171.3
-24299.6
-21097.4
-20165.2
-16400.3
-13577.9
-11254.7
-9946.23
-7408.19
-5368.62
-3738
-3712.23
-2798.14
-1064.54
578.714
2719.97
5131.08
10859.6
9844.52
7352.67
5361.89
1800.86
6844.67
15650.5
29665.3
36282.4
27855.9
15411.8
12777.5
696.563
20294.3
24134
39813.4
34757.8
68713.2
36743.7
27250.1
4516.72
18811.3
-15433
9497.45
15062.3
16344.5
13564.3
13546.5
-1543.39
-8340.1
-12598.5
1697.99
2913.82
8506.14
3112.97
806.687
-1873.98
-3988.1
-1352.43
3417.45
-1764.14
-444.914
-676.433
829.715
-1067.55
471.961
3125.85
-2210.46
-929.68
-1274.12
-1191.7
-1250.9
-1267
-1308.93
-1348.3
-1392.57
-1439.96
-1489.73
-1546.61
-1604.86
-1667.54
-1734.02
-1803.5
-1878.88
-1956.76
-2037.97
-2119.87
-2211.85
-2304.28
-2400.81
-2497.41
-2599.8
-2699.66
-2798.88
-2898.38
-2988.42
-3068.16
-3131.04
-3190.07
-3237.33
-3250.66
-3246.97
-3156.18
-3079.98
-3000.08
-2827.12
-2619.49
-2307.39
-2157.86
-1184.42
392.255
-2412.92
37125.5
-6823.54
-36380.9
-47688.2
-44904.7
-41133.4
-38308.8
-37191.5
-30541.8
-26130
-23959.7
-20687.8
-18938.5
-14710.5
-12638.4
-11285.3
-8911.93
-7154.35
-4905.78
-3904.33
-1770.23
-37.9268
2192.2
3682.52
4776.03
5081.35
5127.57
3399.16
5459.42
9553.66
12588.1
20509.9
20617.1
14338.1
8725.19
5458.03
11457.2
19180.6
38035.9
56095.1
53576.8
46295
44399.3
14226.1
30297.1
2745.78
39249.1
5067.28
29851.2
31135.6
31603.9
12864.5
10845.1
-814.528
1954.7
5194.43
7352.93
12510.7
1011.02
-3190.61
-5808.5
-8328.48
810.134
35.4714
2085.48
-1353.63
-3701.55
-886.707
2223.91
-1796.26
1118.74
-1883.92
584.212
2874.55
-2369.78
-1108.07
-1439.5
-1354.6
-1409.25
-1422.3
-1460.23
-1497.31
-1539.23
-1585.57
-1634.26
-1691.35
-1746.97
-1810.77
-1875.19
-1946.63
-2021.29
-2101.3
-2183.64
-2267.91
-2362.23
-2457.45
-2557.89
-2663.7
-2776.41
-2891.47
-3008.37
-3139.63
-3266.83
-3408.58
-3552.17
-3692.69
-3847.1
-3983.64
-4193.45
-4359.61
-4561
-4681.29
-4778.54
-4848.1
-4454.13
-4638.93
-4133.73
-5102.66
-10209.9
-29157.4
-11347.1
-35571.7
-46643
-43212.5
-41669.9
-32854.6
-31099.9
-22411
-21820.9
-18184.9
-16028.3
-13165.8
-11050.9
-8156.66
-6625.06
-4818.02
-2253.12
-1557.57
-430.53
634.926
2198.94
2955.48
3591.41
5540.21
6922.79
8549.69
10260.4
12609.5
14744.1
13508.1
8204.59
10652
16351.7
18668.4
25411.5
29016.1
26377.2
23608.7
27419.7
34341.6
29319.5
31636.5
18650.4
32122.2
33235.8
34557.8
23714.2
16851.6
31598
2988.25
20997.9
12868.6
20704.7
11499
4336.52
5300.6
-3106.02
-140.968
-368.667
4416.76
5425.97
278.306
-4370.58
351.586
-2021.05
4507.18
-1294.7
-1572.2
-877.856
846.24
-1520.51
532.059
2634.21
-2516.48
-1273.3
-1591.28
-1502.53
-1551.67
-1563.59
-1599.05
-1630.53
-1670.05
-1715.88
-1763.02
-1816.91
-1871.98
-1936.69
-1999.13
-2071.73
-2144.96
-2226.21
-2308.75
-2394.75
-2486.03
-2582.29
-2683.81
-2785.68
-2890.6
-2996.34
-3103.15
-3204.47
-3304.53
-3390.6
-3465.62
-3536.24
-3583.93
-3627.04
-3626.58
-3555.99
-3461.15
-3410.88
-3281.64
-3446.01
-3358.31
-4464.2
-4046.36
-8691.43
-24781.7
-92652
-39248.3
-46714.1
-29020.3
-22497.4
-22954.7
-23890
-19922.4
-17673.6
-15799.8
-10697.3
-9427.92
-6745.16
-5924.28
-4221.02
-2631.32
-1840.13
90.0468
1440.01
2273.4
2824.37
4013.13
5657.79
6983.17
8197.61
8746.43
10083.6
10857
11883.3
12684.1
14411.7
16867.5
19620.7
19509.6
19201.5
16381.1
19115.6
21695.1
27033.9
40492.6
36000.2
36014.1
27583.6
40246.2
28737.8
32027.9
16445.7
37281.4
8094.06
35715.9
15958.3
21646.9
21765
7724.41
6683.1
5081.24
3536.61
5504.78
4195.7
2041.74
872.892
-2993.62
349.35
1391.72
948.469
-1652.2
-1112.52
-2929.53
3769.13
-1689.93
-17.0404
-1257.2
616.384
2401.89
-2646.28
-1423.78
-1728.44
-1636.87
-1681.61
-1690.01
-1720.94
-1750.56
-1788.58
-1830.59
-1875.79
-1929.16
-1982.74
-2046.37
-2108.32
-2180.15
-2253.98
-2334.1
-2417.94
-2505.32
-2597.16
-2695.18
-2801.53
-2907.36
-3024.87
-3139.03
-3263.91
-3390.21
-3534.01
-3669.78
-3822.27
-3956.56
-4123.99
-4273.41
-4480.59
-4629.26
-4780.72
-4864.88
-4879.07
-4814.57
-4641.71
-4526.98
-3284.2
-6071.4
-14186.6
-116758
-204918
-51809.4
-5151.24
2165.91
3854.64
-949.068
-4095.5
-7135.55
-5019.48
-5611.01
-3970.52
-2423.88
-2490.91
-354.723
-615.466
1410.89
1624.08
3740.78
4655.36
5475.34
6369.17
7316.87
8366.99
8991.88
10089.1
11415.6
12815.8
14821.4
15865.2
16727.1
15663.8
15411.7
16817.2
20174.4
23017.1
24141.4
30871
44478.6
48447.8
23727.2
32764.5
27295.2
27445.2
19572.6
34541.3
8984.78
34929.3
18797.5
26182.6
26211.9
14616
25869.1
10143.8
18689.1
12506
5476.99
1376.29
1541.84
246.725
1831.47
273.352
1824.39
-2770.23
-202.391
-789.351
1304.64
-133.256
-1848.99
-2365.28
1358.58
-874.303
418.583
2182.24
-2762.36
-1560.18
-1851.36
-1757.59
-1796.4
-1800.66
-1829.27
-1856.18
-1891.2
-1931.38
-1974.9
-2025.88
-2078.46
-2139.8
-2201.93
-2272.47
-2346.28
-2425.02
-2509.67
-2596.35
-2687.05
-2785.32
-2889.31
-2991.23
-3103.45
-3208.27
-3318.88
-3430.1
-3530.4
-3625.71
-3715.79
-3798.73
-3853.33
-3925
-3953.73
-3946.44
-3894.58
-3871.82
-3698.34
-3757.29
-3512.51
-4087.98
-3362.77
-6030.39
-15307.6
-128152
-172912
-53138.4
-16479
-4755.97
-6484.17
-3547.38
-5056.08
-4003.29
-2800.2
-3052.24
-18.6558
-1051.99
1454.75
193.381
4087.26
2831.27
4296.71
3498.51
4990.09
5699.09
6662.72
7932.86
9294.87
10318
11511.6
12356.4
13443.7
14635.6
16425.7
17742.4
18412.8
19504.7
22801.1
21845.4
24811.4
22841.1
36542.3
49054.3
31045.6
33677.8
36460.7
30120.6
22250.3
23162.4
29382.8
25288.1
30547.2
30664.3
8964.16
24540
9263.15
21714.2
14051.1
18319.2
8512.09
8261.16
5244.1
4571.04
1337.33
3244.37
-857.593
1830.43
726.98
1370.91
-1311.3
-629.521
-2442.26
1010.53
176.781
-846.453
-1594.46
1108.51
1973.84
-2861.32
-1681.28
-1959.77
-1863.69
-1897.48
-1898.66
-1923.78
-1947.41
-1980.52
-2018.73
-2060.28
-2108.43
-2160.99
-2220.13
-2282.43
-2351.19
-2424.3
-2503.11
-2587.1
-2674.51
-2767.11
-2865.86
-2968.79
-3080.88
-3193.87
-3312.15
-3437.43
-3564.73
-3703.23
-3843.06
-3993.35
-4130.55
-4281.23
-4425.29
-4591.22
-4710.66
-4880.41
-5053.75
-5191.69
-5078.13
-4869.75
-4895.25
-4836.88
-7190.98
-29061.8
-103943
-60024.1
-80462.3
-54612.9
-23067
-15973.6
-8239.5
-6335.01
-4955.43
-3824.72
-2288.44
-521.667
1138.58
930.596
2963.59
2926.95
4201.96
5350.85
5144.21
6591.46
7555.55
8449.9
9035.32
10449.8
11431.6
12336.1
13066.8
14219.6
15626.2
17337.8
18694.2
17410.9
17928.2
17776.6
20191.1
25993.1
33963.2
48075
42073.9
34107.3
33139.4
27780.7
20127.6
22726.7
29383.7
17524.1
28917.2
10549.7
29826.4
12703.9
30335
13563.2
21656.5
20063.6
18167.3
16411.3
12171.4
4570.23
4085.13
1693.74
2842.17
1119.62
1124.16
-341.061
288.98
-577.512
1458.4
-487.165
1120.88
-2787.73
1162.6
-1059.72
224.295
1779.33
-2945.89
-1787.89
-2053.75
-1955.38
-1984.8
-1982.33
-2004.43
-2026.41
-2056.22
-2091.74
-2132.33
-2178.38
-2229.99
-2286.57
-2348.54
-2415.48
-2488.12
-2565.92
-2648.49
-2736.54
-2828.32
-2924.32
-3026.51
-3133.49
-3242.47
-3354.71
-3467.22
-3578.54
-3686.15
-3792.88
-3892.61
-3988.68
-4061.04
-4144.67
-4210.54
-4268.31
-4223.32
-4216.66
-4217.87
-4134.63
-3847.6
-3342.25
-2886.86
-5869.63
-39685.8
-108782
-21036.9
-39805
-84696.4
-54857.8
-30172.8
-8301.16
-12193
-4657.56
-4033.99
-242.399
-652.484
2154.78
1705.09
3636.28
3733.28
6172.78
5672.22
7457.41
7256.63
8038.79
9463.84
10337.5
11186.4
11871
12417.1
13700.6
15385.3
16328.3
17135.6
17290.3
17424.8
18962.2
23199.3
29963.1
35125.5
49066.4
48022.1
39639.8
32256.4
36052
19707.4
27853.2
26414.1
27690.8
22380.7
25464.6
8019.18
22230.3
18294.3
12140.1
20116.5
14618.7
19025.5
8463.74
15199.7
10777
7166.65
6381.49
3540.75
2043.07
810.89
513.367
458.171
518.86
-493.718
-265.114
-2775.18
-161.56
-1215.57
243.714
-2372.01
593.824
1598.34
-3013.49
-1879.02
-2133.22
-2033.63
-2058.93
-2053.26
-2072.55
-2091.36
-2119.77
-2152.61
-2191.5
-2236.36
-2286.38
-2341.08
-2402.3
-2467.74
-2539.61
-2616.55
-2698.77
-2786.3
-2878.17
-2975.62
-3078.63
-3186.81
-3301.59
-3419.44
-3542.63
-3670.18
-3804.79
-3942.23
-4086.75
-4230.56
-4380.07
-4521.46
-4680.3
-4796.86
-4877.11
-5013.4
-5123.7
-5226.56
-5485
-5646.86
-9038.9
-15868.3
-96052.8
-45971.2
-7502.56
-15255.1
-40093.2
-62414.3
-41657.5
-24236.7
-17207.9
-7622.94
-3598.75
134.898
1147.84
2021.35
3028.37
4028.51
5158.17
6390.46
7000
7516.86
8048.98
8963.99
9818.63
10678.6
11663.4
12372
13251.8
14192.9
15766.9
17347.7
18776
20796.3
23018.4
23607
22388.3
25176.1
43629.6
63088.4
36379.2
30480.3
33247.7
34630.4
22431.4
27972.3
18053.9
15617.6
26252.3
22010.3
26393.8
15552.1
23520.8
8828.43
27794.4
9533.6
13589.2
16230.7
13120.1
15164
7747.45
5698.63
4532.61
3392.2
1763.62
1451.2
5.88196
1172.76
-1505.05
812.276
-762.824
795.803
-1909.13
627.537
-1158.64
713.586
1432.1
-3066.6
-1955.63
-2198.5
-2097.34
-2118.8
-2110.78
-2127.3
-2144.65
-2170.35
-2201.33
-2238.45
-2281.38
-2329.96
-2383.85
-2443.58
-2507.69
-2578.15
-2653.88
-2735.06
-2820.68
-2912.59
-3008.41
-3108.72
-3215.91
-3325.65
-3437.24
-3553.21
-3668.03
-3783.6
-3893.41
-4009.62
-4110.67
-4208.19
-4295.66
-4359.69
-4447.54
-4552.17
-4603.58
-4573.09
-4457.07
-4555.11
-4583.86
-7075.46
-25180.9
-92939.9
-8595.56
-2879.57
-2635.45
-17339.7
-42631.4
-67620.1
-54492.4
-27118
-13864.6
-8522.41
-2795.48
-2246.58
1232.74
1420.06
3521.27
4504.92
5419.27
7015.02
7783.32
9376.87
9516.95
10008.2
10824.4
11835.3
12836.8
13719.5
14943
16127.6
17528.1
17951.3
17927.5
20384.5
22759.3
26324.4
33928.5
65134.7
66782.8
34682
35968
43065.9
24137.5
28333.5
27175.7
23203.9
14319.1
18756.6
9105.32
15888.6
11760.6
16662.8
8342.47
12746.3
8116.16
14107.5
13077.2
8234.24
14865.1
10420.2
6970.21
4744.21
4247.01
78.5972
906.472
-246.191
1526.2
-259.415
321.915
-2850.85
252.194
-993.143
404.111
-1934.13
464.88
1280.67
-3103.15
-2017.1
-2249.71
-2148.02
-2166.25
-2155.86
-2170.29
-2185.07
-2209.27
-2239.16
-2274.75
-2314.97
-2362.42
-2415.48
-2473.5
-2536.85
-2605.87
-2680.35
-2760.78
-2845.72
-2937.16
-3032.49
-3134.29
-3240.71
-3353.21
-3471.51
-3593.84
-3719.16
-3849
-3979.65
-4123.89
-4260.98
-4415.95
-4544.22
-4689.47
-4787.96
-4916.42
-4975.97
-5008.92
-5139.22
-4877.41
-5476.34
-7278.12
-38206.7
-95333.1
-7549.18
-539.761
-3141.49
-2538.9
-10576.4
-36399.1
-49954.9
-48429.1
-29868.7
-12166.4
-2509.2
-234.494
428.492
2802.92
3950.78
5407.65
6423.71
8021.71
8939
9405.29
10164.7
10662.3
11510
12516.8
13413.9
14172.8
15125.2
16823.8
17739
16892.8
16317.6
20057.9
29321.3
41070.3
64953
70273.8
35947.3
40336.2
40418.5
23376.7
17587.8
18641.5
23979
29342.4
20039.3
18035.7
12246.8
15502.7
14250.1
17787.7
15009.8
10261.5
15899.7
15013.2
11201.9
11265.7
13704
8268.07
8694.65
4208
3796.19
2240.73
1967.57
785.405
500.03
145.492
-87.6791
682.588
-151.86
-2985.19
-1232.19
-1725.73
-73.8422
1144.41
-3125.53
-2064.18
-2287.09
-2184.96
-2200.51
-2188.53
-2201.11
-2214.16
-2236.69
-2264.68
-2298.64
-2338.19
-2383.31
-2435.39
-2492.02
-2554.2
-2622.15
-2694.86
-2774.43
-2857.3
-2946.87
-3043.13
-3142.15
-3244.25
-3357.21
-3470.49
-3584.59
-3703.95
-3821.72
-3942.39
-4063.06
-4178.45
-4293.65
-4412.92
-4490.94
-4583.44
-4685.22
-4769.32
-4856.51
-4959.76
-5220.64
-6678.53
-12418.1
-90442.6
-44513.6
-3444.47
50.1708
-52.4063
-1467.69
-4281.83
-15853.6
-27627
-53610.6
-41373
-26206.8
-6653.96
-10641.4
-319.182
-1389.61
4430.79
4912.63
8215.95
8354.74
9368.58
10412
10840.5
11531.6
12550.1
13107.2
13540.7
14661.7
16075.7
17642.5
17591.3
16644.3
20436.2
30821.8
38107.8
60273.1
81692.9
52658.7
51915
38269.3
33113.3
15924.8
16639.4
23243.6
14764.9
11465.2
12364.9
9204
13184.7
7938.52
14195.2
4947.34
12242
6186.41
11236.3
10112.8
6316.11
10568.3
10118.6
9899.62
9181.87
4559.63
3582.37
2335.7
984.864
131.736
978.396
-645.03
372.297
-1847.96
-1071.49
-1332.82
791.741
-2152.16
-549.798
1023.51
-3132.1
-2096.87
-2311.07
-2209.7
-2223
-2209.28
-2219.9
-2232.09
-2253.43
-2279.21
-2312.61
-2350.73
-2394.55
-2445.15
-2500.77
-2561.49
-2628.04
-2699.84
-2777.88
-2860.52
-2948.4
-3044.26
-3142.91
-3246.16
-3357.18
-3474.56
-3591.72
-3716.8
-3844.76
-3975.45
-4107.69
-4244.68
-4376.83
-4507.73
-4633.59
-4752.76
-4858.26
-4895.12
-4879.77
-4843.35
-4773.76
-7046.63
-19692
-91941.3
-8519.75
-5083.25
-5091.36
-2311.43
-1478.8
-3072.46
-13180.1
-23783.9
-21146.9
-50535
-42077.7
-26650.9
-18917
-4452.02
650.978
6350.05
8303.05
10129.1
9140.04
9879.38
10340.6
10901.2
11778.4
12959.1
13477.5
14026.4
15921.2
18529.6
17277
16502.4
18668.7
30220.6
43076.1
63699.8
92207.6
63188.5
40456.2
41236.7
27199.4
19594.6
26564.4
25952.2
22864.3
13362.3
10640.6
14331.5
9964.1
13559.1
9345.89
11700.5
3327.97
9347.55
8527.42
9134.75
7930.88
8161.5
9659.88
10576.4
11195.7
8626.64
5693.35
3290.3
2771.99
2540.92
-554.791
969.493
-1383.13
1685.95
-1208.98
-156.47
-1030.24
-724.41
-3076.62
229.251
918.826
-3125.43
-2115.83
-2322.08
-2221.42
-2232.91
-2218.43
-2228.37
-2238.8
-2258.78
-2284.23
-2315.79
-2352.75
-2395.33
-2444.75
-2498.72
-2558.55
-2622.09
-2694.93
-2770.19
-2851.65
-2938.5
-3030.77
-3130.09
-3232.06
-3337.39
-3453.39
-3570.84
-3687.43
-3810.86
-3936.19
-4058.69
-4193.19
-4323.16
-4435.16
-4549.35
-4669.97
-4762.85
-4687.48
-4621.56
-4417.33
-4689.91
-6615.27
-25081.8
-87507
-8838.77
25.7568
-2249.34
-4021.29
-4850.81
434.574
-2638.04
-6055.84
-16478.3
-40706.9
-57285.4
-48811.1
-24992.2
-9190.97
3793.37
7298.41
9380.58
9686.77
10335.6
10512
10878.1
11784.5
13237.9
13579.9
12892.9
16118.3
19066
20462.2
19427.1
24517.5
40775.9
58314.9
82895.7
90203.4
58536.3
45490.1
29738.6
23301
21333.5
16714.1
20185.1
13465
7740.1
9932.47
9898.48
5886.45
7656.39
4767.94
7100.39
2737.64
11522.8
639.119
8648.63
5875.04
5262.99
8127.38
6908.44
8067.92
9680.66
7401.54
7480.05
3313.44
1987.06
3000.67
-552.413
1336.84
-585.83
285.068
-1718
783.934
-3418.24
-426.939
-1770.71
-289.152
827.777
-3103.73
-2121.41
-2320.49
-2221.47
-2232.07
-2216.84
-2225.49
-2235.32
-2254.41
-2278.54
-2309.6
-2345.67
-2387.17
-2434.39
-2488.64
-2545.54
-2609.38
-2679.29
-2754.02
-2834.86
-2919.59
-3011.46
-3108.88
-3211.1
-3315.94
-3431.17
-3549.94
-3671.41
-3792.82
-3925.7
-4054.72
-4182.7
-4295.58
-4421.97
-4597.28
-4700.59
-4786.38
-4839.15
-5268.68
-5512.01
-6934.68
-8479.33
-56079.2
-68344.4
-3517.38
2920.65
6188.85
7451.79
404.223
-4567.11
-11049.6
-6106.09
-533.216
-14107.7
-40163
-44548.5
-35175.3
-11074.6
145.536
6876.29
9608.97
7289.54
8518.83
10429.1
14312.4
16459
17492.8
16186
15343.9
24175.8
38605.3
42652.1
46891.8
71227.1
85207.7
87289.4
71726.7
39403.9
12864.2
7889.65
12307.9
7622.42
12354.3
11501.8
11296.4
10031.6
4559.54
6076.76
7647.58
7539.69
8702.69
3157.61
5564.44
3697.71
5878.77
4394.36
5485.07
6532.86
5267.44
7150.03
6854.09
7987.68
8526.83
7716.67
7482.04
5580.97
2636.74
1735.26
2943.74
114.251
2313.89
-2997.42
1441.16
400.834
-2184.86
-277.21
-3270.37
-621.036
753.713
-3070.4
-2113.99
-2306.94
-2209.85
-2219.78
-2204.28
-2212.71
-2221.56
-2240.83
-2263.22
-2293.49
-2328.54
-2369.52
-2414.91
-2467.76
-2524.39
-2586.3
-2653.85
-2728.39
-2807.24
-2889.07
-2979.91
-3076.37
-3176.15
-3279.32
-3392.41
-3508.57
-3629.27
-3749.01
-3875.59
-4003.48
-4136.84
-4264.04
-4406.78
-4522.59
-4649.95
-4692.45
-4759.85
-5079.16
-5250.72
-6768.52
-13541.2
-76170
-25921.9
-1170.53
605.585
524.389
3665.39
1300.74
-1809.01
-1644.81
-4643.08
-6836.21
-7543.55
-16771.6
-36650.9
-53544.7
-27599
-1660.63
12043.4
12327.2
11638.3
14044.5
17771.4
26952.1
41507.5
49787.5
44561.5
58243.7
71223.8
76812.8
89657.5
85008.4
72324.5
55269.6
29841.3
13055.4
5735.17
-7412.28
-9256.15
-11667.6
-6770.2
759.857
301.734
3380.77
4557.25
5955.8
4390.14
2679.06
2724.77
2781.19
3352.67
2294.44
4619.53
-509.689
5894.72
1141.97
3557.17
3116.07
3941.29
4434.56
5934.27
6710.48
7471.87
6479.15
5248.49
2850.93
1870.42
3379.34
-908.686
578.176
-2457.93
2455.36
-1732.12
131.544
-663.731
-3081.14
-140.938
691.779
-3023.02
-2094.45
-2281.91
-2187.35
-2197.07
-2181.98
-2190.01
-2199.01
-2217.06
-2239.68
-2268.19
-2303.57
-2343.18
-2387.29
-2438.63
-2494.81
-2555.03
-2620.92
-2693.55
-2771.6
-2852.95
-2940.6
-3035.67
-3135.73
-3238.77
-3346.51
-3463.68
-3583.62
-3709.16
-3830.64
-3958.43
-4093.77
-4225.32
-4352.35
-4471.52
-4559.63
-4667.7
-4694.86
-4764.22
-4456.77
-5887.12
-13098.4
-63106
-10306.1
-1868.72
133.74
-1810.07
-6211.99
-6161.15
-6486.94
-1946.6
6376.86
2782.02
-11597.6
-26896
-22957.7
-14784
-33643.8
2426.53
25955.8
35585.8
48781.1
56844.2
62811.8
79748.9
93704.8
89229.1
81951.6
72917.8
64667.6
50189.5
36758.3
29118.1
22245.1
13721
5236.32
-4689.37
-9271.34
-14832.7
-17489.8
-19233.6
-15215.2
-8346.62
-7274.65
-2013.5
-1429.04
572.397
1310.7
943.091
953.853
-449.68
1889.48
2623.05
2574.14
1405.22
2194.78
2846.23
1162.02
3267.92
1379.75
2726.31
3474.69
4498.92
6418.61
6803.87
5441.35
4077.49
2707.93
1178.39
1808.51
-577.563
3923.55
-2705.72
-951.849
999.123
-1223.15
-2254.77
-375.617
646.004
-2965.5
-2063.28
-2246.11
-2154.59
-2164.58
-2149.93
-2158.11
-2166.82
-2185.05
-2206.82
-2234.83
-2269.51
-2308.5
-2350.81
-2401.48
-2456.21
-2515.38
-2578.63
-2650.35
-2726.21
-2806.82
-2891.86
-2984.41
-3082.99
-3186.09
-3287.67
-3406
-3526.87
-3649.04
-3773.09
-3900.52
-4034.76
-4173.51
-4307.2
-4409.27
-4560.28
-4657.29
-4831.11
-4718.68
-4816.44
-6112.82
-22816.4
-69471.7
-13710.1
2477.14
4175.29
6061.25
2621.76
1177.63
2250.94
3955.33
8634.5
-755.363
-7679.84
-2683.38
13474.6
13355.7
3865.6
50327.3
82219.4
102907
105010
93260.7
81441.1
64222.8
49154.3
41241.7
40242.8
36655.8
30931.3
23008.8
14969
11665.6
7842.23
3044.35
-1863.68
-6517.26
-10136.1
-13704.1
-17190.5
-20860.5
-23170.5
-21572.8
-10769.3
-5311.21
-3784.15
-3800.97
-3029.7
-1832.66
-586.482
-214.642
-147.558
680.03
-674.612
2014.85
-1480.27
608.931
1825.35
2747.73
3744.78
4761.88
5264.99
5521.25
6038.55
6970.15
5679.94
3480.94
2467.3
1417.41
2260.2
452.401
1976.22
-2253.02
2252.19
-1802.67
-1231.48
-1956.76
-1187.6
611.321
-2895.7
-2021.35
-2200.11
-2112.05
-2122.68
-2108.92
-2117.4
-2126.74
-2144.67
-2166.22
-2193.87
-2227.62
-2265.26
-2308.52
-2355.34
-2410.65
-2468.33
-2529.87
-2599.87
-2673.07
-2754.21
-2835.95
-2926.93
-3023.3
-3124.61
-3227.84
-3338.21
-3460.43
-3580.56
-3705.28
-3830.48
-3951.15
-4051.75
-4205.44
-4363.47
-4416.57
-4359.5
-4829.79
-5003.48
-6941.58
-7926.81
-48966.9
-60273.8
-5236.14
7137.52
6947
6517.99
3580.38
4885.2
9601.04
10644.3
6268.24
3744.63
-2367.95
17987.2
47097.4
58648.3
115162
133466
88791.6
63711.5
53946
49812.3
48117.3
38660.1
33577.5
28782.5
27759.6
22605.7
19646.6
12978.6
7988.68
6130.35
4226.41
1550.08
-584.926
-3791.97
-6964.38
-10201.4
-13183.7
-16030.2
-19557.3
-21437.2
-17638.3
-14810.7
-9427.67
-5817.6
-4162.85
-3773.02
-3272.19
-2338.22
-1847.19
-1533.92
-946.11
-1263.92
-447.686
-1355.52
1434.21
240.679
2233.24
2540
4554.02
5212.33
6121.86
6764.61
4740.86
3779.2
3076.33
2091.46
2403.16
998.921
70.6815
-965.214
2309.16
-1561.86
-856.831
-1819.23
-1238.22
590.979
-2817.14
-1969.39
-2144.8
-2060.42
-2071.94
-2059.75
-2068.58
-2077.92
-2096.71
-2117.88
-2145.09
-2178.03
-2215.2
-2257.54
-2302.99
-2355.31
-2414.35
-2473.37
-2540.16
-2612.49
-2692.01
-2771.71
-2859.42
-2954.39
-3054.54
-3156.34
-3261.81
-3379.39
-3497.85
-3622.52
-3751.6
-3884.6
-4024.92
-4138.32
-4290.34
-4484.37
-4623.86
-4881.28
-5090.1
-5778.82
-12728.1
-67320.2
-23383
-6648.24
4123.32
3491.15
1073.65
814.61
4890.8
10129.1
10710.9
10725.8
7336.85
20969.9
64388
111837
162067
132323
73031.1
43510.5
35377.5
29944.1
30284
26325.9
22494.5
19554.1
19837
18701.3
19380.2
16625
13325
9055.71
6416.92
4088.36
2486.37
755.062
-637.913
-3037.1
-6222.16
-8936.62
-12081.5
-15118.1
-19712.2
-22713.1
-16706.2
-12018.1
-7090.91
-3889.66
-2823.4
-2992.79
-3046.68
-3048.64
-2581.49
-1828.69
-2314.65
-1889.48
-662.504
-1231.34
-638.323
163.28
230.287
1855.36
2587.76
3758.53
4786.22
4975.22
3298.83
3622.41
1724.63
1041.32
2010.32
-1372.09
5932.56
-1104.22
-1304.96
-374.539
-1585.22
-1386.6
580.448
-2728.48
-1908.22
-2080.7
-2000.4
-2013.26
-2002.56
-2012.48
-2022.49
-2040.68
-2062.42
-2090.19
-2121.04
-2159.19
-2198.87
-2244.53
-2295.42
-2351.55
-2411.64
-2474.22
-2546.55
-2621.91
-2702.92
-2785.74
-2878.41
-2976.64
-3078.13
-3181.45
-3295.1
-3419.85
-3535.26
-3644.29
-3769.18
-3895.31
-4000.95
-4045.35
-4189.75
-4206.18
-4273.83
-3990.82
-5494.51
-12788.7
-63076.4
-13031.4
-8601.4
2705.64
41.3619
-1590.33
-1106.88
3451.91
10615.5
14993.4
14323
13601.9
54404.6
121762
175789
125352
83742.9
45058.7
30253.4
26244.1
20912.1
20187.9
16478.2
14079.5
12959.4
13873.6
13133.1
15170.5
14722.6
13917.2
12106
8827.54
7116.32
4986.53
2602.02
775.111
-792.466
-2505.35
-4753.58
-7588.69
-10026.3
-13788.2
-17698
-19897.5
-15662.7
-12254.6
-9715.61
-6821.64
-4647.34
-4289.24
-4004.33
-3788.41
-3670.76
-2587.11
-2783.32
-1718.66
-2612.73
-95.5878
-706.477
493.752
1064.04
2056.39
3400.25
4435.13
5208.05
4475.22
3005.08
3521.79
1565.81
1789.55
1151.3
1381.8
-1859.54
1591.32
-533.327
-1896.71
-774.216
582.078
-2632.62
-1838.73
-2008.82
-1932.7
-1947.09
-1938.32
-1949.11
-1960.06
-1978.18
-2000.35
-2027.89
-2058.13
-2095.06
-2134.99
-2178.83
-2228.61
-2282.08
-2341.87
-2402.48
-2471.83
-2545
-2623.61
-2705.11
-2794.56
-2889.43
-2990.41
-3092.72
-3195.79
-3318.47
-3430.4
-3568.38
-3687.97
-3820.67
-3938.62
-4103.28
-4207.44
-4450.84
-4465.3
-5101.35
-6316.14
-28633.7
-73835.2
-13304.5
-3680.07
6058.56
7365.22
4967.44
407.86
5063.38
15379.2
27180.4
27566.6
50886.1
129578
193325
107734
71826.5
44737.6
26443.6
20388.8
17767.5
16114
13909.5
13201.4
12681.1
11703.9
10857.8
10555.2
11026.2
11278.8
13188.5
14689.3
13517.9
10748.7
8110.01
5255.9
2587.93
693.759
-572.572
-1916.73
-3902.3
-6491.84
-9710.88
-13338.5
-17310
-19470.5
-13731.9
-9353
-6153.09
-4680.63
-3974.4
-3686.93
-3670.61
-3833
-3098.68
-3011.65
-3283.23
-2128.36
-2074.64
-788.562
-236.092
773.517
2080.31
3221.44
4214.19
4176.48
4424.97
2892.93
2317.52
2965.55
1454.85
2361.91
-1036.39
1524.54
457.714
-768.225
-925.966
-977.977
592.083
-2528.73
-1761.7
-1929.9
-1858.01
-1874.11
-1867.59
-1879.53
-1890.95
-1910.22
-1932.33
-1959.5
-1989.67
-2025.55
-2065
-2108.51
-2154.77
-2208.9
-2265.22
-2326.28
-2391.98
-2463.16
-2539.67
-2619.98
-2705.14
-2797.65
-2894.25
-2996.07
-3094.89
-3202.77
-3324.39
-3443.08
-3558.92
-3675.66
-3833.92
-3874.82
-3968.81
-4194.93
-4605.27
-5763.99
-9769.22
-61122.2
-47016.3
-8754.86
-3349.35
8285.81
8970.27
7536.05
4229.67
7693.68
27010.2
47542.3
64617
130599
182762
105708
63993.3
42695.8
23982.5
17115.2
14739.7
13131.4
12380.1
12552.8
11867.4
11843.4
11456.5
10771.7
10015.3
9697.54
9272.2
10197.7
10758
13164.2
12626.2
10578.1
6976.7
4987.18
2888.1
995.702
-642.735
-1864.29
-3544.81
-6124.85
-8934.75
-12350.7
-16059.8
-17799.8
-13583.7
-10880
-8787.59
-7244.37
-5960.37
-5137.09
-4599.8
-4198.26
-3813.5
-3488.51
-3140.21
-2556.37
-1943.8
-1248.51
-663.46
474.855
1820.6
2956.8
4749.91
3166.61
3791.07
2778.11
1787.33
2429.11
812.02
2036.7
217.877