/*--------------------------------*- C++ -*----------------------------------*\
| =========                 |                                                 |
| \\      /  F ield         | OpenFOAM: The Open Source CFD Toolbox           |
|  \\    /   O peration     | Version:  2.2.x                                 |
|   \\  /    A nd           | Web:      www.OpenFOAM.org                      |
|    \\/     M anipulation  |                                                 |
\*---------------------------------------------------------------------------*/
FoamFile
{
    version     2.0;
    format      ascii;
    class       surfaceScalarField;
    location    "1.95";
    object      cfmax;
}
// * * * * * * * * * * * * * * * * * * * * * * * * * * * * * * * * * * * * * //

dimensions      [0 3 -1 0 0 0 0];

internalField   nonuniform List<scalar> 
28084
(
0.00125801
0.00120831
0.00117986
0.0011664
0.00116087
0.00116425
0.00117896
0.00119356
0.00120235
0.00118733
0.00116666
0.00114612
0.00113962
0.00113182
0.0011442
0.00116693
0.00119193
0.00120334
0.00120945
0.00119982
0.00119485
0.00118964
0.00117978
0.00118237
0.0011986
0.00122643
0.00124583
0.00127584
0.00132284
0.00142694
0.00106999
0.00101579
0.00103377
0.00103672
0.00103346
0.00103331
0.00103377
0.00103414
0.00104545
0.00105305
0.00105315
0.00104389
0.00102236
0.00100324
0.000990413
0.000989064
0.000983219
0.0009793
0.000977993
0.00097948
0.000983645
0.000988321
0.000994847
0.00100325
0.00101249
0.00102068
0.00102774
0.00103458
0.00104293
0.00105018
0.00105785
0.00106711
0.0010785
0.00109142
0.00110576
0.00112023
0.00113382
0.00114555
0.00115558
0.00116196
0.00116497
0.00116522
0.00116242
0.00115803
0.0011516
0.00114488
0.00113892
0.00113214
0.00112525
0.00111682
0.00111084
0.00110406
0.00109543
0.00108475
0.00107441
0.00106532
0.00105647
0.00104753
0.00103826
0.00102865
0.00101585
0.000997873
0.000970258
0.00093528
0.000892622
0.00085129
0.000817402
0.000795186
0.000777499
0.0007631
0.000752304
0.000743386
0.000738126
0.000734288
0.000730502
0.00072522
0.000719103
0.000713497
0.000708187
0.000710485
0.000718877
0.000729647
0.000742164
0.000755931
0.00076429
0.000768096
0.000759095
0.000763007
0.00313985
0.00329868
0.00107705
0.00349194
0.00116775
0.00339918
0.0012469
0.00339636
0.00128702
0.00337145
0.00128099
0.00335991
0.00125231
0.00314618
0.00118265
0.00294913
0.0011036
0.0028992
0.00109313
0.00291774
0.00110797
0.003029
0.00114553
0.00292411
0.00124673
0.00285217
0.00128347
0.00278334
0.00128399
0.00272802
0.00126038
0.00255414
0.00122367
0.0023489
0.00113569
0.00222688
0.0011087
0.00218097
0.00111437
0.00221156
0.00114998
0.00222558
0.00123334
0.00213255
0.00130556
0.00205207
0.00131941
0.00198019
0.0013151
0.00192655
0.00131385
0.00180917
0.00129245
0.00169855
0.00127025
0.00162655
0.00126022
0.00161009
0.00125742
0.00153944
0.00128878
0.0011766
0.000909734
0.00110627
0.000838801
0.00103398
0.000807033
0.000979468
0.000798375
0.00092976
0.000801202
0.000883349
0.000804421
0.000833621
0.000807401
0.000784029
0.000805906
0.000731885
0.000800379
0.000682858
0.000793834
0.000641756
0.000788225
0.000606593
0.00078589
0.00057208
0.000784912
0.000538887
0.000783658
0.000532525
0.000781829
0.000531967
0.000791018
0.000533338
0.000801975
0.00053626
0.000814533
0.000539473
0.000827889
0.000541992
0.000841301
0.000543909
0.000854845
0.000545849
0.000869079
0.000548664
0.000883831
0.000551863
0.000898781
0.00055453
0.000913632
0.000556672
0.000928316
0.000559143
0.000942639
0.000561477
0.000956422
0.000563422
0.000969968
0.000565218
0.000983042
0.000567185
0.000995699
0.00057021
0.00100793
0.000574057
0.00101946
0.00057813
0.00103045
0.000582096
0.0010401
0.000586178
0.00104864
0.000589989
0.00105485
0.000594351
0.00105928
0.000597731
0.00106164
0.000600046
0.001061
0.000601333
0.00105766
0.000601674
0.00105174
0.000605915
0.00104462
0.000611572
0.00104008
0.000614052
0.00103686
0.000615342
0.00103338
0.000616609
0.00102793
0.000617422
0.00102019
0.000618927
0.00101122
0.000618606
0.00100167
0.000619358
0.000990491
0.000619685
0.000978464
0.000620015
0.000964845
0.000618762
0.000950317
0.000617409
0.000935513
0.000616455
0.000921044
0.000615643
0.000906379
0.00061521
0.000891627
0.000614516
0.000876108
0.000613615
0.000859391
0.000611049
0.000840494
0.000608684
0.000819216
0.000608673
0.000796385
0.000610354
0.000775268
0.000610033
0.000756673
0.000607326
0.000741859
0.000602929
0.000731759
0.000604849
0.000722661
0.000605965
0.000714678
0.000605664
0.000706701
0.000606482
0.000699559
0.000609087
0.000692968
0.000611646
0.000686882
0.000614094
0.000680487
0.000617571
0.000676593
0.000619966
0.000674385
0.000622754
0.000675048
0.00062507
0.000677965
0.000622417
0.000682235
0.000622712
0.000686622
0.000626787
0.000691035
0.000632651
0.000693669
0.000639908
0.000694367
0.000651624
0.000693438
0.000659569
0.000690498
0.000676336
0.000692621
0.000673088
0.00070017
0.000720884
0.000712322
0.00319594
0.00328588
0.00138502
0.00348046
0.00125486
0.00327508
0.00116418
0.00310312
0.00109707
0.00312289
0.00110405
0.00328111
0.00114781
0.00320822
0.00124569
0.00300538
0.00138435
0.00290855
0.0013938
0.0029149
0.0013705
0.00305345
0.00130539
0.00284001
0.00119422
0.00263116
0.00113194
0.00254
0.00112265
0.00257784
0.00115445
0.00259027
0.00125939
0.0024031
0.00140752
0.00225306
0.0014624
0.0021797
0.00145642
0.00221529
0.00141737
0.00224436
0.00135375
0.00205356
0.00124784
0.00191489
0.001225
0.00187416
0.00124342
0.00185182
0.00129682
0.0018046
0.00136877
0.0017094
0.00142086
0.00159147
0.00143149
0.0015642
0.0014002
0.00141427
0.00132876
0.00105777
0.000846829
0.000976426
0.000762685
0.000887787
0.000729396
0.000838396
0.000715902
0.000795232
0.000715967
0.000754651
0.000719365
0.000715954
0.000724665
0.000684659
0.0007297
0.000655526
0.000735934
0.000624119
0.000742667
0.00059322
0.000748031
0.000565933
0.00075336
0.0005385
0.000759226
0.000511643
0.000765456
0.000513714
0.000771491
0.000517806
0.000786333
0.000520999
0.000801644
0.000523998
0.000817329
0.000526843
0.000832876
0.000529314
0.000848402
0.000531819
0.000863654
0.000534572
0.00087881
0.000537384
0.00089404
0.000540273
0.000909445
0.000543084
0.000925031
0.000546014
0.000940733
0.000549372
0.000956471
0.0005531
0.000972186
0.000556718
0.000987857
0.000561238
0.00100316
0.000565674
0.00101778
0.000569724
0.00103103
0.000573328
0.00104284
0.000576604
0.00105301
0.000579656
0.00106025
0.000581761
0.0010651
0.000583528
0.00106718
0.000584242
0.00106536
0.000583755
0.0010593
0.000580129
0.00104921
0.000573855
0.00103376
0.000568566
0.00102005
0.000566924
0.00100557
0.000567375
0.000993986
0.000569677
0.000984285
0.000571104
0.000975412
0.000572519
0.000966194
0.000570572
0.000957418
0.000568729
0.000945903
0.000568277
0.000930492
0.000566974
0.000913547
0.000567224
0.00089432
0.000568745
0.000875998
0.000569026
0.000858016
0.000569843
0.000841589
0.000571186
0.00082556
0.000572475
0.000809229
0.000574128
0.000792468
0.000575964
0.000775076
0.000577712
0.000757028
0.000582898
0.000738286
0.000587956
0.00071959
0.000593025
0.000702624
0.000596125
0.000687616
0.000595884
0.000676152
0.000594155
0.000667478
0.000595542
0.000662933
0.000597724
0.000660296
0.000598784
0.000659448
0.000598644
0.000659588
0.00059987
0.000658807
0.000601393
0.000657409
0.000603493
0.000656201
0.000607102
0.000656064
0.000610175
0.000656713
0.000612846
0.000660267
0.000616571
0.000665538
0.00062041
0.000671689
0.000625184
0.000677718
0.000631845
0.000683061
0.000639663
0.00068665
0.000648095
0.000688343
0.000655741
0.000688907
0.000668022
0.000687249
0.000674763
0.000687647
0.000690723
0.000691247
0.00068563
0.000702846
0.000736246
0.000714777
0.00289256
0.00307175
0.00102669
0.00354257
0.00115442
0.0032934
0.00133987
0.00305748
0.00144597
0.0031276
0.00140718
0.00329491
0.00133914
0.00311591
0.00123875
0.00279607
0.00108394
0.0026571
0.00107233
0.00274554
0.00109692
0.00306843
0.00117742
0.00283218
0.00138957
0.00259032
0.0014994
0.00253399
0.00148075
0.00261328
0.00143151
0.00257632
0.00134132
0.00227888
0.00118871
0.00207811
0.00115497
0.00199855
0.00116489
0.00212317
0.0011908
0.00225107
0.00134829
0.00205179
0.00153608
0.0018957
0.00157167
0.00186947
0.00154932
0.00186732
0.00152564
0.00183091
0.00148543
0.00169571
0.00141317
0.00160274
0.00139104
0.00149
0.00138244
0.00120207
0.00130132
0.0010542
0.000850849
0.000980133
0.000792272
0.000886702
0.000763927
0.000828857
0.000755072
0.000787426
0.000757067
0.000746676
0.000761131
0.000707584
0.000767517
0.000672853
0.000774194
0.000641072
0.00078111
0.00061096
0.000787598
0.000580995
0.000794125
0.000551947
0.000800978
0.000524186
0.000808782
0.000498244
0.000816855
0.000512936
0.000825091
0.000518291
0.000840953
0.00052329
0.000856978
0.0005272
0.000873015
0.000531102
0.000889198
0.000533982
0.000905449
0.000536966
0.000921249
0.000540018
0.000936569
0.000543027
0.000951751
0.000546038
0.000967022
0.000548944
0.000982326
0.000551879
0.000997463
0.000555048
0.00101216
0.000557938
0.00102613
0.000559271
0.00103913
0.000561002
0.00105117
0.000562756
0.00106185
0.000563783
0.00107089
0.000564753
0.001079
0.00056512
0.00108499
0.000564695
0.00108892
0.000563515
0.00109033
0.000561873
0.00108831
0.000560043
0.00108305
0.000557765
0.00107567
0.000559934
0.00106773
0.000564962
0.00106068
0.000570765
0.00105439
0.000572155
0.00104817
0.000574247
0.00104008
0.000575487
0.00102976
0.000576456
0.00101816
0.000576861
0.00100616
0.000575336
0.000991616
0.000576509
0.000974678
0.000576596
0.000956105
0.000576001
0.000935536
0.000575884
0.000914617
0.00057637
0.000893394
0.000574198
0.000872328
0.000572727
0.000851618
0.000572609
0.000831904
0.000573021
0.000811961
0.000574748
0.000791926
0.000577081
0.000771339
0.000580941
0.000750167
0.00058718
0.000729211
0.00059341
0.000708519
0.000597732
0.000690283
0.000597177
0.000674812
0.000596129
0.00066329
0.000592361
0.000656028
0.000591986
0.000652904
0.000594628
0.000654427
0.000593471
0.000655376
0.000594069
0.000655086
0.00059638
0.000655948
0.000598711
0.000657506
0.000602185
0.000659118
0.00060738
0.000660097
0.000612816
0.000660781
0.000618083
0.000661379
0.000622632
0.000662055
0.000627097
0.000662516
0.000632518
0.000663345
0.00063963
0.000664683
0.000648903
0.000667081
0.000659887
0.000670348
0.000670025
0.000672105
0.000684834
0.000675274
0.0006919
0.000682146
0.000705199
0.0006896
0.00070152
0.000702214
0.000754338
0.000714649
0.00288638
0.00306119
0.0014743
0.00350975
0.00130872
0.00317495
0.00117645
0.00293798
0.00105967
0.00297683
0.0010874
0.00319065
0.00114547
0.00313133
0.00130966
0.00281218
0.00153572
0.00265746
0.00155458
0.0027494
0.00152356
0.00306886
0.00142413
0.00280088
0.00126822
0.00251059
0.00114476
0.00242605
0.00115871
0.00248006
0.00118806
0.00255515
0.00134979
0.00228128
0.00157805
0.00208863
0.00168752
0.00200427
0.00167711
0.00212354
0.00162571
0.00226449
0.00153083
0.00200427
0.00133069
0.00183758
0.00127862
0.00177119
0.00129705
0.00176021
0.00135615
0.00176919
0.00146297
0.00168874
0.00156299
0.00158642
0.00159557
0.0015049
0.00157792
0.00119564
0.00154448
0.0010997
0.000982698
0.00101002
0.000893249
0.000905098
0.000859366
0.000840579
0.000843853
0.00079925
0.000839223
0.000757751
0.000840853
0.000718024
0.00084292
0.000681529
0.000846168
0.000648111
0.000851024
0.000617039
0.000857328
0.000586473
0.00086426
0.000556949
0.000871588
0.000528437
0.000879408
0.000501188
0.000886844
0.000517205
0.00089358
0.000522236
0.000907294
0.000526623
0.00092077
0.000529682
0.000933262
0.000533404
0.000947063
0.000537241
0.000962258
0.000540977
0.000978084
0.000544357
0.000993666
0.000547461
0.0010097
0.00055057
0.00102586
0.000552783
0.00104194
0.00055466
0.00105778
0.000556701
0.00107388
0.000558554
0.0010899
0.000559858
0.00110572
0.000561324
0.00112172
0.000562519
0.00113818
0.000562467
0.00115293
0.000562565
0.00116691
0.000561958
0.00117893
0.000560935
0.00118913
0.000559795
0.00119566
0.000558367
0.00119858
0.000556581
0.00119694
0.000559972
0.00119025
0.000563937
0.00118014
0.000567028
0.00116757
0.000572591
0.00115274
0.000575196
0.00113649
0.000577838
0.00111963
0.000580344
0.00110262
0.000582312
0.00108508
0.00058553
0.00106823
0.000586249
0.0010505
0.000590293
0.00103197
0.000592225
0.00101267
0.000591919
0.000990493
0.00059215
0.000967031
0.000591779
0.000943075
0.000587906
0.000918623
0.000585903
0.000893017
0.000585893
0.000869013
0.000585918
0.000844707
0.000588002
0.000821868
0.000590954
0.000798911
0.000594413
0.000775362
0.000599979
0.000751642
0.000602333
0.000727693
0.00060273
0.000706714
0.00059926
0.000689361
0.000595796
0.000677838
0.000591381
0.000671337
0.000589377
0.000669477
0.000591513
0.000669429
0.000592109
0.000671329
0.000593747
0.000675577
0.000597469
0.000677712
0.000602034
0.000679628
0.000608486
0.000679004
0.000614786
0.000677579
0.000619321
0.000675978
0.000623331
0.000673954
0.000628045
0.000672084
0.000633339
0.000671071
0.000638807
0.000669443
0.000646101
0.000667004
0.000656824
0.000665294
0.000670258
0.000664965
0.000681256
0.000666059
0.00069685
0.000670462
0.000704895
0.000677783
0.000717541
0.000687062
0.000714843
0.000699945
0.000769201
0.000713392
0.00281378
0.00295866
0.00103715
0.00355104
0.00115312
0.00322438
0.00141315
0.00290627
0.00156723
0.00296766
0.00152262
0.00325046
0.00144358
0.00313742
0.00131687
0.00274517
0.00113073
0.00254707
0.00109896
0.00260239
0.00114247
0.00300767
0.00119745
0.00277956
0.00149074
0.00246981
0.00168432
0.00239745
0.00164835
0.0025356
0.00158914
0.00264091
0.00149295
0.00229077
0.00129377
0.00203701
0.00124158
0.0019108
0.00124427
0.0019965
0.00128166
0.00225111
0.0014222
0.00199258
0.00170397
0.00181414
0.00181105
0.0017461
0.0017908
0.00177383
0.00174835
0.00180854
0.00169353
0.00172928
0.0015876
0.00160423
0.00153732
0.00150723
0.00154144
0.00134171
0.001579
0.00117633
0.00107795
0.00104968
0.000956866
0.000928831
0.000908877
0.000844795
0.000890412
0.000808266
0.000888082
0.000767326
0.000891011
0.000728297
0.000894257
0.000692192
0.000898296
0.000658313
0.000903449
0.00062569
0.000909362
0.000594312
0.000916045
0.000564239
0.000923562
0.000535191
0.00093161
0.000507099
0.000939297
0.000525674
0.000946858
0.000530453
0.000960962
0.000534559
0.00097634
0.000539191
0.000991755
0.000542878
0.00100732
0.000546251
0.0010234
0.000550045
0.00104092
0.000554282
0.00105975
0.000557626
0.00107865
0.000560075
0.00109698
0.000561135
0.0011147
0.000562305
0.00113303
0.000564247
0.00115167
0.000566151
0.00117053
0.000568149
0.00118889
0.000571074
0.00120668
0.00057331
0.00122463
0.000575207
0.0012404
0.000577289
0.00125536
0.000578306
0.00126875
0.000578392
0.00127973
0.000577681
0.00128747
0.000575548
0.00129202
0.000578777
0.00129348
0.000582279
0.00129083
0.000586109
0.00128436
0.000585952
0.00127654
0.000589287
0.00126458
0.00058995
0.00125197
0.00059258
0.00123759
0.000595445
0.00122259
0.000597022
0.00120557
0.000601303
0.00118743
0.000601771
0.00116641
0.000607028
0.00114132
0.000612878
0.00111597
0.000613007
0.00108793
0.000614516
0.00105782
0.000614813
0.00102715
0.000610489
0.00099513
0.000607564
0.00096269
0.000607229
0.000932625
0.000605131
0.000903148
0.00060669
0.000875283
0.000609654
0.000848584
0.000612059
0.0008216
0.000617898
0.000793955
0.000616385
0.000767588
0.000613239
0.000740606
0.000604115
0.00071858
0.000597551
0.000702858
0.000591441
0.000694789
0.00058763
0.000692974
0.000590228
0.000694457
0.000592888
0.000696634
0.000596833
0.000697936
0.000602737
0.000698463
0.000608363
0.000697243
0.000614824
0.000694323
0.000621678
0.000690675
0.000626505
0.000686632
0.000630764
0.00068221
0.00063573
0.000678223
0.000643438
0.000674937
0.000651525
0.000672037
0.000659321
0.000668234
0.000670357
0.000666214
0.000683666
0.00066644
0.000693442
0.000667994
0.000708113
0.000672153
0.000715756
0.000677953
0.00072859
0.000687112
0.000726391
0.000699998
0.000780684
0.000713123
0.00277539
0.00295524
0.00154745
0.00354375
0.00137981
0.00315465
0.00121845
0.00286477
0.00107207
0.0029171
0.00112051
0.00312422
0.00116898
0.00308443
0.00136307
0.00271509
0.00164838
0.00251
0.00168585
0.00262772
0.00165797
0.00303229
0.00155473
0.00282388
0.00138332
0.00244371
0.00120184
0.00235331
0.00123376
0.00240237
0.00126519
0.00252817
0.00141259
0.00224031
0.00168809
0.00200222
0.00188764
0.0018816
0.00189021
0.0020241
0.00184417
0.00228083
0.00171593
0.00202196
0.00149416
0.00180338
0.00134932
0.00170434
0.00137374
0.00168741
0.00141584
0.0016904
0.00152677
0.00165606
0.00167996
0.00156888
0.00175305
0.00153421
0.00175749
0.00143788
0.00176494
0.00128635
0.00118987
0.00109425
0.00108364
0.000944583
0.00101426
0.000845997
0.000995933
0.000815306
0.000999942
0.000775872
0.00100947
0.000738318
0.00101717
0.000704162
0.00102352
0.000672282
0.00102961
0.000641644
0.00103543
0.000611715
0.00104134
0.000582539
0.00104782
0.000553155
0.00105413
0.000524025
0.00106061
0.000545504
0.00106784
0.000551522
0.00108245
0.000556862
0.00109893
0.000562431
0.00111557
0.000566024
0.00113277
0.000570835
0.00115052
0.000574567
0.00116878
0.000577224
0.00118625
0.000579187
0.0012037
0.00057998
0.00122119
0.000581023
0.00123919
0.000582586
0.00125796
0.000584821
0.00127668
0.000587389
0.00129612
0.000589889
0.001314
0.000592294
0.00133216
0.0005935
0.00134811
0.000594405
0.00136271
0.00059507
0.00137444
0.000594074
0.00138368
0.000592968
0.00139113
0.000590637
0.00139567
0.000588889
0.00139746
0.000596436
0.00139682
0.000603751
0.00139408
0.000613482
0.0013863
0.00061982
0.00137746
0.000627388
0.00136562
0.000630344
0.00135408
0.000633509
0.00133867
0.00063814
0.00132322
0.000639446
0.00130416
0.000645116
0.00128353
0.000644875
0.00126126
0.000644951
0.00123048
0.000649433
0.0012042
0.00064819
0.00117657
0.000648732
0.00114282
0.000649335
0.0011116
0.00064298
0.00107741
0.00063833
0.00103871
0.000637388
0.00100353
0.00063365
0.000968352
0.0006346
0.000935645
0.000637377
0.000905409
0.000638088
0.000875558
0.000642643
0.000844594
0.000636723
0.000814715
0.000628736
0.000781974
0.000613277
0.000754511
0.000602173
0.000732926
0.00059257
0.000721674
0.000587285
0.000717863
0.000591714
0.000717469
0.000595874
0.000717037
0.000600648
0.000717106
0.000606429
0.000715789
0.000613203
0.000713834
0.000620892
0.000710739
0.000628523
0.000706819
0.000634047
0.000701636
0.000639382
0.000694833
0.000645602
0.000687646
0.000654713
0.00068193
0.000664844
0.000677635
0.000672673
0.000673944
0.000683061
0.000670724
0.000695923
0.000670383
0.000704498
0.000672191
0.000718723
0.00067586
0.000725922
0.000680684
0.000739079
0.000689255
0.000737238
0.000701693
0.000789813
0.00071392
0.00281449
0.00296952
0.00107277
0.00351091
0.00116174
0.00319607
0.00146417
0.00285146
0.00167855
0.00288683
0.00164037
0.00321409
0.00155313
0.00320681
0.00141741
0.00276957
0.00119404
0.00251289
0.00113747
0.00259011
0.00119993
0.00289644
0.00124804
0.00275851
0.00157143
0.00239869
0.00186395
0.00228881
0.00184262
0.00243987
0.00178279
0.00272258
0.00170493
0.00236111
0.00146993
0.0020685
0.00135371
0.0018929
0.00132653
0.00195695
0.00139858
0.00215382
0.0014869
0.0019887
0.00182829
0.00176748
0.0020875
0.0016457
0.00213089
0.00166755
0.00206276
0.00172674
0.00196847
0.00174374
0.00187298
0.00167178
0.00178147
0.00154865
0.00177628
0.0015374
0.00183208
0.00137264
0.00137784
0.00116723
0.00123858
0.000990531
0.00116874
0.000887457
0.0011762
0.000866298
0.00119158
0.000829758
0.00119959
0.000794787
0.00120457
0.000758615
0.00120809
0.000723141
0.00120791
0.000688289
0.00120672
0.000654126
0.0012059
0.00062034
0.00120603
0.000587274
0.00120812
0.000555691
0.00120962
0.000581232
0.00121262
0.00058583
0.00122316
0.000589792
0.00123656
0.000593782
0.00125035
0.00059623
0.00126509
0.000597994
0.00127952
0.000599609
0.00129356
0.000601193
0.00130822
0.000602563
0.00132437
0.000604145
0.00134109
0.000605888
0.00135955
0.000607818
0.00137992
0.000610488
0.00140165
0.000612988
0.00142478
0.000614811
0.00144714
0.000616398
0.00146911
0.00061555
0.00148744
0.00061336
0.00150553
0.00061176
0.00152095
0.000608796
0.00153039
0.000606661
0.00154201
0.000602918
0.00155107
0.000600335
0.0015554
0.000610572
0.00155623
0.000622329
0.00155098
0.00063147
0.00154448
0.000643729
0.00153163
0.000653189
0.00151835
0.000664973
0.00150216
0.000671027
0.00148499
0.000680763
0.00146709
0.000682288
0.00144513
0.000690701
0.00141929
0.000692802
0.0013965
0.000690334
0.00136715
0.000695429
0.00134128
0.000692964
0.00131297
0.000691313
0.00127497
0.000692728
0.00123993
0.000685056
0.00119994
0.000678031
0.00115364
0.000676685
0.00111112
0.00066914
0.0010671
0.000668258
0.0010246
0.000670883
0.000984406
0.000670036
0.000946522
0.000673203
0.00090898
0.000663339
0.000873811
0.000649661
0.000834856
0.000626495
0.000799462
0.000610497
0.000769514
0.000595421
0.00075289
0.000588359
0.000743732
0.000593735
0.00073794
0.00059784
0.00073433
0.000602478
0.000731858
0.000607949
0.00072824
0.000616032
0.000724545
0.000625297
0.000721404
0.000634917
0.000717475
0.00064311
0.000712417
0.000650561
0.000706326
0.000657296
0.000699561
0.000666931
0.000692357
0.000677486
0.000686683
0.000685725
0.000682358
0.000694282
0.000677898
0.000706349
0.00067645
0.000714964
0.000677639
0.000729119
0.000680992
0.000736079
0.000684683
0.000749617
0.00069281
0.000747905
0.000704466
0.000797845
0.000715498
0.00276331
0.00293683
0.00161085
0.00354939
0.00146863
0.00323501
0.00130943
0.00288277
0.00112252
0.00286638
0.00117075
0.00307303
0.00122294
0.00308255
0.00139827
0.00268736
0.00173907
0.00242699
0.00182668
0.00258252
0.00180645
0.00297594
0.00170678
0.00289575
0.001554
0.00246185
0.00128519
0.00230456
0.00130073
0.0023907
0.0013654
0.00258614
0.00147505
0.00226808
0.00180209
0.00198701
0.00215452
0.0018129
0.00215707
0.00194743
0.00211665
0.0022164
0.00200935
0.00215073
0.00180695
0.00187576
0.00151604
0.00171936
0.00153339
0.00165179
0.00153946
0.00169038
0.00161644
0.00173548
0.00182556
0.00163903
0.00202616
0.00157217
0.00212882
0.00164745
0.00221804
0.0014923
0.00158105
0.0012344
0.00140408
0.00103329
0.00133598
0.000970677
0.0013612
0.000942447
0.00138038
0.000901237
0.00138028
0.000855925
0.00137722
0.000805908
0.00137129
0.000761345
0.0013667
0.000720204
0.00136416
0.000682867
0.00136328
0.000646123
0.0013641
0.000611025
0.00136596
0.00057694
0.00136644
0.000608324
0.00136745
0.000613739
0.00137358
0.000619974
0.00138455
0.000625508
0.00139493
0.000629569
0.00140823
0.000633732
0.00142354
0.000638321
0.00144045
0.000643065
0.00145901
0.000646734
0.00147893
0.000650561
0.00150009
0.000654443
0.00152214
0.00065835
0.00154554
0.000663069
0.00157104
0.000667278
0.00159558
0.000670609
0.00161828
0.000672211
0.00163688
0.000670486
0.00165132
0.000670236
0.00166896
0.00066607
0.00168298
0.000663785
0.00169564
0.000660833
0.00170484
0.000656475
0.00170818
0.000650913
0.00171378
0.000661004
0.00171201
0.000671488
0.00171204
0.00068208
0.00170394
0.000692569
0.0016971
0.000702827
0.00168329
0.000713766
0.00166877
0.000724665
0.00165123
0.000735629
0.0016316
0.000743642
0.00160943
0.000748954
0.00158398
0.000757662
0.00155925
0.000754829
0.0015318
0.000760062
0.00149234
0.000759828
0.00145615
0.000753741
0.00140802
0.00075534
0.00136266
0.000742609
0.00131659
0.000731435
0.0012571
0.000728497
0.00120493
0.000716263
0.00115128
0.000712154
0.00110128
0.000712075
0.00105552
0.000707766
0.0010097
0.000707761
0.000965017
0.000693439
0.000923622
0.000675508
0.000876659
0.000644453
0.000832974
0.000622361
0.000791928
0.000601715
0.000769229
0.000592896
0.000758785
0.000597448
0.000753535
0.000600469
0.00075028
0.000603703
0.000746587
0.000609264
0.000742122
0.000617728
0.000738023
0.000628207
0.000734773
0.000639834
0.000730736
0.000650549
0.000726229
0.000660559
0.000720104
0.000668536
0.00071292
0.00067925
0.00070462
0.00068916
0.000697627
0.000697563
0.000691926
0.000705054
0.000686596
0.000716661
0.000684259
0.000725269
0.000684484
0.000739353
0.000687408
0.00074655
0.000690883
0.000760259
0.000697999
0.000758812
0.000708385
0.000805485
0.00071796
0.00288252
0.00304821
0.00111382
0.00344129
0.00120043
0.00322376
0.00150681
0.00283017
0.00179777
0.00280308
0.00179126
0.00314015
0.00168561
0.00332346
0.00154041
0.0028521
0.00130183
0.00255494
0.00118982
0.00265983
0.00126784
0.00293218
0.0013328
0.00276932
0.00169451
0.0023855
0.00211116
0.002192
0.00211403
0.00237285
0.00207163
0.00270221
0.0019577
0.00256168
0.00175625
0.00220329
0.00151023
0.00196726
0.0014614
0.0019924
0.00151986
0.00218847
0.00162806
0.0020552
0.00202713
0.00179314
0.00250249
0.0016646
0.00264992
0.00157462
0.00261649
0.0016796
0.00247943
0.00177965
0.00233428
0.00182281
0.00224891
0.00171094
0.00221892
0.00181487
0.00224323
0.00161817
0.00199253
0.00130574
0.00161125
0.00107868
0.00154039
0.00105479
0.00154506
0.00100892
0.00155183
0.000957351
0.00154439
0.000901222
0.00152795
0.000848766
0.0015118
0.000802948
0.00149918
0.000761462
0.00149145
0.000724777
0.00148865
0.000688036
0.00148776
0.000651366
0.00148959
0.000614842
0.00149053
0.00065158
0.00149636
0.000656128
0.00150814
0.000661964
0.00152527
0.000668411
0.00154562
0.00067468
0.00156537
0.000681049
0.00158625
0.000688059
0.00160709
0.000694962
0.0016281
0.00070089
0.00164904
0.000706458
0.00167008
0.000710999
0.00169067
0.000715871
0.00171174
0.000719702
0.00173206
0.000721451
0.0017504
0.000721163
0.00176502
0.000718155
0.0017764
0.00071455
0.00178794
0.000711111
0.00180393
0.000706306
0.00181344
0.000702779
0.00182649
0.000695612
0.00183263
0.000691676
0.001837
0.000683175
0.00184456
0.000696919
0.00184366
0.000707832
0.0018474
0.000722966
0.00184203
0.000733677
0.00183899
0.000750168
0.00182832
0.000760475
0.00181869
0.000777597
0.00180305
0.000786334
0.0017868
0.00080332
0.00176407
0.000807756
0.00174025
0.000823652
0.00171327
0.000824011
0.00168624
0.000831421
0.00164272
0.000836534
0.00160994
0.000826427
0.00156603
0.000827457
0.00151584
0.000815896
0.00146146
0.000796707
0.00138787
0.000788978
0.00131594
0.000769984
0.00124474
0.000762991
0.00117839
0.000762649
0.00112528
0.000751526
0.00107128
0.000747026
0.00101781
0.000728138
0.00096849
0.000706001
0.000914953
0.000668036
0.000864634
0.000636365
0.000815122
0.000606666
0.000787867
0.000595296
0.000774449
0.000599827
0.000767439
0.0006028
0.000762532
0.000605722
0.000757466
0.000611604
0.000752291
0.000620436
0.000747899
0.000631738
0.000744243
0.000644944
0.000740037
0.000657858
0.000736033
0.000670226
0.000729693
0.000679792
0.000722007
0.000692459
0.000713957
0.000701181
0.000708094
0.000709462
0.000702873
0.000716019
0.000697634
0.000727166
0.000694902
0.00073547
0.000694509
0.000749419
0.000696925
0.000757031
0.000699551
0.000771306
0.000704978
0.000770204
0.000713251
0.000813515
0.000721194
0.00280335
0.0029848
0.00166817
0.00353798
0.00157189
0.0033595
0.00142931
0.00297021
0.00118634
0.00289713
0.00123433
0.00306121
0.00128757
0.00314043
0.00145207
0.00270128
0.00185148
0.00239575
0.00204902
0.00260646
0.00202458
0.00302644
0.00193444
0.00310256
0.00174883
0.00263155
0.00142288
0.00235217
0.00138793
0.0024945
0.00148673
0.00271091
0.00160219
0.00236633
0.00202221
0.00208305
0.00253555
0.00185534
0.00259519
0.00193744
0.00257583
0.00226729
0.00248238
0.00243468
0.00221071
0.00211897
0.00191019
0.00188844
0.00172577
0.00186703
0.00179353
0.00181871
0.00190155
0.0018549
0.00207291
0.00187962
0.00228594
0.00169936
0.00250477
0.0019396
0.00262093
0.00173795
0.00263731
0.0013742
0.0017914
0.00115959
0.00167445
0.00112233
0.00167302
0.00105769
0.00169698
0.000985308
0.00170153
0.000922368
0.00170619
0.000868872
0.00170332
0.000821483
0.00169271
0.000779142
0.0016853
0.000742638
0.00168189
0.000704766
0.00168202
0.000669956
0.00168142
0.000635062
0.00168515
0.000684627
0.00168937
0.000695674
0.00170166
0.000708172
0.00172081
0.000717794
0.00174024
0.000725354
0.00175713
0.000732134
0.00177424
0.000738959
0.00179168
0.000745083
0.00180878
0.000750253
0.00182473
0.000754617
0.00184008
0.000757513
0.00185521
0.000760134
0.00187031
0.000760893
0.00188372
0.000759415
0.00189395
0.000755879
0.00190375
0.000748999
0.00191015
0.000745869
0.00191497
0.000738508
0.00192847
0.000733706
0.0019299
0.000726288
0.00194178
0.000719815
0.0019415
0.000713854
0.00195049
0.000706245
0.0019485
0.000718521
0.00195252
0.000733348
0.00194619
0.000746348
0.00194571
0.000762686
0.0019353
0.00077695
0.0019314
0.000795213
0.00191711
0.000810595
0.00190965
0.000829035
0.00189188
0.000845042
0.00188047
0.000860579
0.00185907
0.000875562
0.00184115
0.000889798
0.00181859
0.000894134
0.00179447
0.000907383
0.0017601
0.000900656
0.00172289
0.000906197
0.00166193
0.000904875
0.00160791
0.000880711
0.00154134
0.000863897
0.00144628
0.000836341
0.00136014
0.000820434
0.00127726
0.000817887
0.00121457
0.00079994
0.00115011
0.000789938
0.00108821
0.000765089
0.00103095
0.000739025
0.000971321
0.000694937
0.000911115
0.000652818
0.000851275
0.000612987
0.000815539
0.000598403
0.000796242
0.000602674
0.000786528
0.000605253
0.0007805
0.000608157
0.000774915
0.000614208
0.000769572
0.00062339
0.000765037
0.000635025
0.000760555
0.000648871
0.00075502
0.00066468
0.000749284
0.000679555
0.000743115
0.000690538
0.000736428
0.000704826
0.000729583
0.000712626
0.000725218
0.000720796
0.000719975
0.000726911
0.000714076
0.000737598
0.000709574
0.000745897
0.000707222
0.000759934
0.000707918
0.000768395
0.000709019
0.000783295
0.000712373
0.000782196
0.000718187
0.000822448
0.000724457
0.00303177
0.00319226
0.00117357
0.00348014
0.00127067
0.00325132
0.00154705
0.00285017
0.00193712
0.00278643
0.00195427
0.00309754
0.0018547
0.00352644
0.00170104
0.00306794
0.00149809
0.00274287
0.00128471
0.00285827
0.00137143
0.00318025
0.00151062
0.00289761
0.00190059
0.00243112
0.00239353
0.0021702
0.00250141
0.00240819
0.00247366
0.00278956
0.00238285
0.0029701
0.00217122
0.00256263
0.00187277
0.00225135
0.00171439
0.00226006
0.00177714
0.00241449
0.00194445
0.00230176
0.00233167
0.00194479
0.00284339
0.00172392
0.00311097
0.00173564
0.00306222
0.00176488
0.0029527
0.00184971
0.00279609
0.00192121
0.00267501
0.00187334
0.00261714
0.00181235
0.00257628
0.0017598
0.00250041