/*--------------------------------*- C++ -*----------------------------------*\
| =========                 |                                                 |
| \\      /  F ield         | OpenFOAM: The Open Source CFD Toolbox           |
|  \\    /   O peration     | Version:  2.2.x                                 |
|   \\  /    A nd           | Web:      www.OpenFOAM.org                      |
|    \\/     M anipulation  |                                                 |
\*---------------------------------------------------------------------------*/
FoamFile
{
    version     2.0;
    format      ascii;
    class       surfaceScalarField;
    location    "1.95";
    object      phi;
}
// * * * * * * * * * * * * * * * * * * * * * * * * * * * * * * * * * * * * * //

dimensions      [1 0 -1 0 0 0 0];

internalField   nonuniform List<scalar> 
28084
(
0.000776912
0.000758668
0.000731789
0.000723521
0.00072511
0.000725989
0.000744919
0.000750862
0.000743066
0.000734439
0.000724159
0.000702019
0.000699223
0.00071453
0.000726331
0.00074195
0.000766011
0.000776238
0.000772432
0.000757097
0.000731077
0.000724453
0.000731571
0.000731134
0.00072132
0.00072311
0.000727748
0.000731121
0.000744324
0.000788793
0.0010977
0.00112148
0.0011212
0.00113097
0.00113845
0.00114263
0.00114824
0.00115217
0.00115217
0.00115265
0.00115037
0.00114939
0.00114685
0.00114146
0.00113391
0.00113864
0.00114227
0.00114438
0.00114467
0.00114279
0.0011392
0.00113478
0.00112908
0.00112229
0.00111541
0.00111158
0.00111045
0.00111141
0.00112027
0.00113401
0.00115135
0.00117287
0.00119826
0.00122745
0.00125718
0.00128548
0.00131176
0.00133487
0.00135467
0.00136541
0.00137083
0.00137271
0.00136832
0.00135726
0.00134079
0.00132179
0.00130375
0.00128375
0.0012672
0.00125341
0.00124452
0.00123931
0.00123509
0.0012292
0.00122292
0.00121627
0.00120702
0.00119474
0.00117887
0.00115926
0.00113284
0.0010986
0.00105495
0.0009992
0.000931091
0.000865625
0.000812397
0.000762498
0.000713835
0.000672413
0.000641818
0.000620595
0.00060176
0.000583185
0.000559841
0.000533047
0.000506021
0.000482887
0.000465735
0.000454146
0.000446655
0.000439563
0.000428265
0.000412086
0.000377051
0.000329294
0.000250011
0.000192944
-2.27358e-05
1.79682e-05
0.000665131
3.44364e-05
0.000690081
-7.01877e-06
0.000730041
-2.29779e-05
0.000761785
-7.75542e-06
0.000790795
-7.13479e-06
0.000819666
-3.77395e-06
0.000798353
4.35995e-06
0.000741773
8.44109e-06
0.000697699
1.00246e-05
0.000688774
1.58704e-05
0.000689882
-6.93145e-06
0.000723561
-1.8512e-05
0.000762684
-1.15838e-05
0.000786004
-7.03781e-06
0.000800734
-7.66375e-06
0.00080544
-1.46861e-06
0.000776486
6.70777e-06
0.000743527
9.78821e-06
0.00072982
1.38055e-05
0.000726054
3.94342e-06
0.000746847
-7.51802e-06
0.000780285
-9.64918e-06
0.000807007
-4.21855e-06
0.000805669
-5.03108e-06
0.000805694
-5.5774e-06
0.000799968
-6.96287e-07
0.000794289
-8.54791e-06
0.000789239
-3.99682e-05
0.000783718
-0.000311227
0.000775879
-1.43394e-05
0.000731287
5.68678e-06
0.000707664
-5.47923e-06
0.000679139
-4.81644e-06
0.000677819
-3.67715e-06
0.000686597
-5.48194e-06
0.000689561
-5.72652e-06
0.00068429
-8.18718e-06
0.00066961
-4.73708e-06
0.000648221
-3.28874e-07
0.000632085
3.59416e-06
0.000621864
9.3653e-06
0.000616408
1.37089e-05
0.000615553
1.55089e-05
0.000618138
2.47244e-06
0.000622567
1.49354e-06
0.000634927
5.24493e-07
0.000650891
-6.20216e-07
0.000670115
-2.16766e-06
0.000691714
-3.52898e-06
0.000715342
-4.38414e-06
0.000739886
-5.2432e-06
0.000763731
-5.80494e-06
0.00078641
-6.11269e-06
0.000807852
-5.44465e-06
0.000828333
-4.60354e-06
0.000848279
-4.82221e-06
0.000867992
-5.23198e-06
0.000887564
-5.41163e-06
0.000906988
-6.03289e-06
0.000925438
-7.35899e-06
0.000943365
-9.49744e-06
0.000960654
-1.14926e-05
0.00097595
-1.31108e-05
0.000989971
-1.42597e-05
0.00100032
-1.49344e-05
0.00100652
-1.50571e-05
0.00100999
-1.56712e-05
0.0010106
-1.49979e-05
0.0010076
-1.26778e-05
0.0010021
-8.06108e-06
0.000993746
-1.8964e-06
0.000981944
3.57098e-06
0.000971159
9.70277e-06
0.000965176
1.29082e-05
0.000962093
1.33554e-05
0.000958946
1.33104e-05
0.000952486
1.09734e-05
0.000941468
8.89645e-06
0.00092971
6.15429e-06
0.000915912
5.59586e-06
0.000899537
6.93455e-06
0.000880567
9.89629e-06
0.000860079
1.00429e-05
0.000838625
9.24442e-06
0.00081813
9.5887e-06
0.000797881
1.05667e-05
0.000777481
1.2264e-05
0.000756507
1.38993e-05
0.000733882
1.84662e-05
0.000708544
2.72373e-05
0.000679672
3.90075e-05
0.000645127
5.42102e-05
0.000607602
6.87651e-05
0.000572541
7.1307e-05
0.000544059
6.18018e-05
0.000523853
5.02773e-05
0.000507127
4.48655e-05
0.000489821
3.72447e-05
0.000474084
2.7777e-05
0.000462262
2.11384e-05
0.000449261
1.74246e-05
0.000433942
1.54283e-05
0.000417738
1.95543e-05
0.000401187
2.44604e-05
0.000387167
2.59157e-05
0.00037808
2.62336e-05
0.00037033
2.39772e-05
0.000362699
1.59632e-05
0.000353903
8.7909e-06
0.000340097
7.61917e-06
0.000318151
1.08415e-05
0.000287358
1.50636e-05
0.000248713
3.53509e-05
0.000204423
5.02186e-05
0.000151388
8.76837e-05
0.000103733
6.54942e-05
6.35428e-05
0.000199879
3.53542e-05
7.76975e-05
4.56683e-06
0.000927038
-2.43072e-05
0.000879587
-7.52655e-05
0.00080027
-5.32113e-05
0.000704322
-1.15816e-05
0.000652341
3.13811e-05
0.000657151
7.13916e-05
0.000724165
6.22194e-05
0.000840492
1.74594e-05
0.000915951
-8.43643e-06
0.000932305
-4.04068e-05
0.000899533
-6.95987e-05
0.000803901
-5.31845e-05
0.000726781
-2.11546e-05
0.000706407
8.07492e-06
0.000728742
4.72836e-05
0.000787373
5.92467e-05
0.0008849
3.36032e-05
0.000978867
8.24326e-06
0.00102195
-2.05664e-05
0.00101039
-4.40624e-05
0.00093976
-4.62735e-05
0.000854238
-3.03587e-05
0.000798604
-1.37471e-05
0.000783777
2.68172e-06
0.000781023
8.70148e-06
0.000802957
1.20012e-05
0.000838928
3.9246e-07
0.000871762
-3.34212e-05
0.00089646
-0.000277089
0.000877172
1.18416e-05
0.000707861
4.8814e-05
0.00061865
3.03554e-06
0.000553629
-1.48796e-05
0.000531889
-1.36902e-05
0.000536435
-8.34441e-06
0.000543905
-6.96771e-07
0.000551988
2.6144e-06
0.000556734
4.14103e-06
0.000558357
3.47466e-06
0.000560605
3.43437e-06
0.00056526
6.99078e-06
0.000571924
9.86435e-06
0.000581207
1.07647e-05
0.000592558
-9.48453e-06
0.000604244
-1.29729e-05
0.000622365
-1.61911e-05
0.000642378
-1.83901e-05
0.000663342
-2.06517e-05
0.000683804
-2.19269e-05
0.000704131
-2.2746e-05
0.000723545
-2.33308e-05
0.000743293
-2.31515e-05
0.000763527
-2.25491e-05
0.000784435
-2.12443e-05
0.000805877
-1.99011e-05
0.000827806
-1.91787e-05
0.00085011
-1.85556e-05
0.000872567
-1.72301e-05
0.000895037
-1.67034e-05
0.000917472
-1.71509e-05
0.000939018
-1.7506e-05
0.000957826
-1.80083e-05
0.000975101
-1.82863e-05
0.000990081
-1.83205e-05
0.000998263
-1.81093e-05
0.00100241
-1.79853e-05
0.00100376
-1.74843e-05
0.000999699
-1.52512e-05
0.000989421
-1.09673e-05
0.000970952
-5.79281e-06
0.000945615
1.0773e-06
0.000916957
5.11819e-06
0.000887714
1.11912e-05
0.000865775
1.6154e-05
0.000845375
2.0342e-05
0.00082566
2.42802e-05
0.000807798
2.19047e-05
0.000791796
2.17946e-05
0.000772169
2.13428e-05
0.000746711
2.25302e-05
0.000714558
2.56467e-05
0.000679175
3.02099e-05
0.000642861
2.95867e-05
0.000606585
2.80131e-05
0.000572075
2.79259e-05
0.000538218
2.85507e-05
0.000504433
3.10298e-05
0.000470674
3.46482e-05
0.000435715
4.25206e-05
0.000398894
5.75519e-05
0.000361432
7.33076e-05
0.000324278
8.72342e-05
0.000293653
9.53889e-05
0.000272066
9.131e-05
0.00026188
7.87403e-05
0.000258368
6.83565e-05
0.000261073
6.28321e-05
0.000266492
5.27882e-05
0.000274134
4.26398e-05
0.000283765
3.61284e-05
0.000290009
3.18899e-05
0.000293132
3.04961e-05
0.000294138
3.23727e-05
0.000293897
3.43482e-05
0.000291276
3.41727e-05
0.000291455
3.40083e-05
0.000292668
3.26765e-05
0.000293475
2.95788e-05
0.000291507
2.98387e-05
0.000284463
3.79816e-05
0.000269865
4.99655e-05
0.000246978
6.12476e-05
0.000214652
9.10594e-05
0.00017321
0.000100187
0.000128634
0.000134778
8.82918e-05
0.000101187
6.09789e-05
0.000242867
3.26566e-05
-0.000127093
1.07963e-05
0.000565619
8.75024e-05
0.00060583
9.49118e-05
0.000698909
1.07053e-05
0.00081877
-2.05139e-05
0.000899389
-4.95762e-05
0.000925016
-7.70548e-05
0.000879234
-7.11428e-05
0.000755554
-2.53165e-05
0.000639729
1.86419e-05
0.000601611
6.45245e-05
0.000617207
6.15555e-05
0.000701634
1.31215e-05
0.000816909
-1.74207e-05
0.000898997
-4.94644e-05
0.000955321
-6.88062e-05
0.000930069
-7.59968e-05
0.000852919
-4.06538e-05
0.000755855
-2.84834e-06
0.000695024
2.9602e-05
0.000672551
4.8387e-05
0.00070965
4.45048e-05
0.000804184
9.4842e-06
0.000897563
-9.80837e-06
0.0009332
-1.90531e-05
0.000936752
-2.82178e-05
0.000920905
-2.12619e-05
0.000900233
-2.29757e-05
0.000880637
-1.63694e-05
0.000877056
-0.000113471
0.000832723
0.000106799
0.00062421
0.000125046
0.00054068
3.45648e-05
0.000509144
-1.7211e-05
0.000499288
-2.35291e-05
0.000503525
-1.98549e-05
0.000510672
-1.37647e-05
0.000518375
-1.09603e-05
0.000525183
-9.46576e-06
0.000532081
-1.00144e-05
0.000540872
-9.75358e-06
0.000550862
-7.43285e-06
0.000562375
-5.08269e-06
0.000576135
-3.71207e-06
0.000591249
-2.95322e-05
0.00060711
-3.41308e-05
0.000630025
-3.78767e-05
0.000654163
-3.91092e-05
0.000679452
-4.09836e-05
0.000704724
-4.10944e-05
0.000729378
-4.16178e-05
0.000751621
-4.19527e-05
0.000773565
-4.16523e-05
0.000795637
-4.08165e-05
0.000818227
-3.93596e-05
0.000841343
-3.78421e-05
0.000864798
-3.68009e-05
0.000888078
-3.57911e-05
0.000910622
-3.37085e-05
0.000931914
-3.17831e-05
0.000952298
-3.0299e-05
0.000970778
-2.77084e-05
0.00098599
-2.55112e-05
0.000998517
-2.25273e-05
0.00100807
-1.9595e-05
0.00101276
-1.71327e-05
0.00101348
-1.42778e-05
0.00100932
-1.02894e-05
0.000999721
-3.1499e-06
0.00098641
5.91495e-06
0.000971029
1.32589e-05
0.00095556
2.24985e-05
0.000942371
2.3026e-05
0.000930929
2.99752e-05
0.000914771
3.4646e-05
0.000895034
3.95051e-05
0.000873705
4.26961e-05
0.000851282
4.23557e-05
0.000823923
4.91411e-05
0.000793836
5.44251e-05
0.000758536
5.79867e-05
0.000718642
6.15181e-05
0.000677294
6.58622e-05
0.000634653
6.23571e-05
0.000593297
5.93085e-05
0.000554156
5.86145e-05
0.000514387
5.85506e-05
0.000472435
6.13686e-05
0.0004301
6.61255e-05
0.000386089
7.45286e-05
0.000340323
8.98528e-05
0.000295892
0.000100931
0.000254104
0.000108389
0.0002191
0.000105879
0.000195295
9.76259e-05
0.000185104
7.97283e-05
0.000185703
6.76009e-05
0.000193218
6.05146e-05
0.000209176
4.66346e-05
0.000221468
3.72405e-05
0.000229793
3.15438e-05
0.00023943
2.84668e-05
0.000247267
2.91686e-05
0.000252735
3.20516e-05
0.000253068
3.16132e-05
0.000250649
3.07581e-05
0.000246745
3.18419e-05
0.00024134
3.40716e-05
0.00023387
3.72795e-05
0.000222124
4.64033e-05
0.00020672
6.34266e-05
0.000190482
8.4612e-05
0.000171675
0.000105294
0.00014636
0.000139005
0.000119721
0.000143227
9.47005e-05
0.000166573
6.74151e-05
0.000135287
4.65178e-05
0.000282421
2.46988e-05
0.000121802
1.52048e-06
0.0010129
-5.23692e-05
0.000955737
-9.98511e-05
0.000850339
-7.11875e-05
0.000699995
-2.6392e-05
0.000618731
2.03719e-05
0.000625192
9.43508e-05
0.000725639
8.69242e-05
0.000905453
2.57198e-05
0.00102579
-2.43605e-05
0.00106039
-6.81852e-05
0.00101877
-0.0001159
0.000887778
-8.35043e-05
0.000763104
-5.28295e-05
0.000723189
-8.90818e-06
0.000748962
4.50693e-05
0.000818945
7.86176e-05
0.000960923
5.07168e-05
0.00111164
7.80067e-06
0.00119308
-3.13988e-05
0.00118389
-7.04557e-05
0.00109873
-8.34854e-05
0.000973468
-5.73536e-05
0.000877774
-3.45976e-05
0.00084347
-1.0493e-05
0.000833375
3.61646e-06
0.000859152
1.40988e-05
0.00091521
-6.33939e-06
0.00097567
3.19696e-05
0.00101288
9.20686e-05
0.00101715
0.000198234
0.000874187
0.000168943
0.000749558
5.60111e-05
0.00067776
-1.9916e-05
0.000648496
-3.4321e-05
0.000644676
-3.42393e-05
0.000648134
-3.11797e-05
0.00065108
-2.9362e-05
0.000652541
-2.86538e-05
0.000653953
-2.92667e-05
0.000658459
-2.88917e-05
0.000666454
-2.72041e-05
0.000676578
-2.48491e-05
0.000688453
-2.31872e-05
0.000700742
-5.52723e-05
0.000712081
-6.01828e-05
0.000728425
-6.42168e-05
0.000744285
-6.46768e-05
0.000760577
-6.55398e-05
0.000781302
-6.3528e-05
0.000804357
-6.27746e-05
0.000828207
-6.24027e-05
0.000853777
-6.17027e-05
0.000881186
-6.0363e-05
0.000910342
-5.84186e-05
0.000941016
-5.62017e-05
0.000972787
-5.38835e-05
0.00100318
-5.0853e-05
0.00103281
-4.66637e-05
0.00106178
-4.27998e-05
0.00109094
-3.90506e-05
0.00112023
-3.34272e-05
0.00114613
-2.8613e-05
0.00116907
-2.27644e-05
0.00118885
-1.71573e-05
0.00120383
-1.13576e-05
0.00121266
-5.65104e-06
0.00121409
8.78854e-08
0.00120831
7.63306e-06
0.00119494
1.51745e-05
0.00117732
2.01274e-05
0.00115248
2.85255e-05
0.00112426
3.53442e-05
0.00109102
4.43417e-05
0.0010571
5.29131e-05
0.00102241
6.07399e-05
0.000986558
6.99437e-05
0.000951434
7.40271e-05
0.000913215
8.3276e-05
0.000876021
9.25398e-05
0.000836241
9.70979e-05
0.000791928
0.000101987
0.000745962
0.000105719
0.000697117
9.98765e-05
0.000646958
9.67461e-05
0.000597533
9.73798e-05
0.000548604
9.66451e-05
0.000498381
0.000100534
0.000450379
0.000107268
0.000402013
0.00011518
0.00035195
0.000129543
0.000303742
0.000135558
0.00025504
0.000135319
0.000219687
0.000121469
0.000196505
0.000103781
0.00018865
7.9248e-05
0.000189949
5.84045e-05
0.000197999
5.05869e-05
0.00020933
3.77134e-05
0.000223564
2.82019e-05
0.000239192
2.48212e-05
0.0002497
2.2111e-05
0.000255038
2.50307e-05
0.000255137
3.0754e-05
0.000253135
3.26192e-05
0.000249004
3.49142e-05
0.000243329
3.98603e-05
0.000235312
4.69743e-05
0.000224975
5.40821e-05
0.00020807
6.43616e-05
0.000184046
8.40648e-05
0.000156943
0.000111793
0.000129046
0.000133971
0.000102728
0.000165596
8.22785e-05
0.00017177
6.36145e-05
0.000191382
4.50057e-05
0.000162385
2.90131e-05
0.000313303
1.31685e-05
-0.000177239
-7.43425e-06
0.000530258
9.39322e-05
0.000561335
0.000153269
0.000684786
4.31544e-05
0.000869666
-2.70554e-05
0.000986605
-9.37448e-05
0.00102396
-0.000136398
0.000967177
-0.000127935
0.000811389
-5.79098e-05
0.000643045
-5.08179e-06
0.000582722
6.70463e-05
0.000591979
9.28151e-05
0.000707466
4.38948e-05
0.000899074
-3.2026e-05
0.00103987
-7.74065e-05
0.00109845
-0.000115466
0.00106558
-0.000135752
0.000973062
-8.90282e-05
0.000826991
-3.02857e-05
0.000726353
1.17201e-05
0.000690865
6.03915e-05
0.000729703
7.03719e-05
0.00085276
3.2903e-05
0.000991831
-1.08556e-05
0.00106402
-2.81211e-05
0.00108952
-4.86296e-05
0.0011105
-4.90946e-05
0.00108605
-4.81355e-05
0.00105289
2.23217e-05
0.00103133
0.000233228
0.00102622
0.000334471
0.000895335
0.000253134
0.000755512
9.43074e-05
0.000696686
-1.01846e-05
0.000678232
-3.76366e-05
0.000675658
-4.16038e-05
0.000679464
-4.28418e-05
0.00068162
-4.42375e-05
0.000679979
-4.61858e-05
0.000675703
-4.77491e-05
0.000676553
-4.73471e-05
0.0006818
-4.55351e-05
0.000690502
-4.22608e-05
0.000701817
-3.84672e-05
0.000714833
-7.49067e-05
0.00072828
-7.87436e-05
0.000747596
-8.18294e-05
0.000768971
-8.61237e-05
0.00079338
-8.79069e-05
0.000820341
-8.66803e-05
0.000849426
-8.5837e-05
0.000885692
-8.66597e-05
0.00092507
-8.63007e-05
0.000966605
-8.46222e-05
0.00100988
-8.24954e-05
0.00105349
-7.95341e-05
0.001095
-7.67203e-05
0.00113405
-7.31273e-05
0.00117166
-6.89217e-05
0.00120826
-6.53025e-05
0.001242
-5.88315e-05
0.00127331
-5.15249e-05
0.0013005
-4.40041e-05
0.00132228
-3.47343e-05
0.00134139
-2.45119e-05
0.00135609
-1.32781e-05
0.00136359
-2.31007e-06
0.00136505
9.90435e-06
0.0013637
2.06029e-05
0.00135653
3.41045e-05
0.00134545
4.28285e-05
0.00132962
5.69866e-05
0.00131131
6.4917e-05
0.0012908
7.5123e-05
0.00126844
8.60364e-05
0.00124148
9.39762e-05
0.00120884
0.000106957
0.00117326
0.00011066
0.0011314
0.000123091
0.00108251
0.000137154
0.00103144
0.000142826
0.000972325
0.000150188
0.000911044
0.000155372
0.000846217
0.000148459
0.000778437
0.000144313
0.00071226
0.000145738
0.000648826
0.000141845
0.000587528
0.000145931
0.000530036
0.000154246
0.000472452
0.000160559
0.000414259
0.00017644
0.000359337
0.000171022
0.000305649
0.000162064
0.000260428
0.000134571
0.000229273
0.00010743
0.000215211
7.62384e-05
0.000212231
5.02274e-05
0.000220106
4.07472e-05
0.000234187
2.71461e-05
0.000246529
1.82e-05
0.000254198
1.6562e-05
0.000257339
1.74422e-05
0.000257577
2.35444e-05
0.000254247
3.2086e-05
0.000247092
3.68748e-05
0.000237786
4.27219e-05
0.000226888
5.06123e-05
0.000214021
6.41594e-05
0.000198647
7.85081e-05
0.000178601
9.20066e-05
0.000153327
0.000112513
0.00012825
0.000138767
0.000104816
0.000155201
8.21302e-05
0.000184957
6.39402e-05
0.000191537
4.73827e-05
0.000211198
3.18668e-05
0.000183318
1.82575e-05
0.000331943
6.03979e-06
0.000145277
-8.33284e-06
0.00106337
-8.63393e-05
0.00100843
-0.00012767
0.000896291
-8.0132e-05
0.000708986
-4.5218e-05
0.000598045
-1.29195e-05
0.000604783
7.57355e-05
0.000732876
9.86029e-05
0.000954169
2.85275e-05
0.00111163
-4.3126e-05
0.0011666
-9.87481e-05
0.00112628
-0.000162889
0.000986445
-0.000115416
0.00082792
-8.94984e-05
0.000765902
-3.38965e-05
0.000774035
1.98683e-05
0.000843214
8.06224e-05
0.000998745
5.58476e-05
0.00118378
6.25334e-06
0.00130319
-4.64947e-05
0.00132535
-8.98836e-05
0.0012719
-0.000120364
0.00114082
-9.44048e-05
0.000979416
-5.87545e-05
0.000886661
-4.51302e-05
0.000888609
-1.79947e-05
0.000925895
-5.2076e-06
0.00099398
-1.25797e-05
0.00106172
3.71509e-05
0.0010968
0.000370132
0.00111573
0.000488473
0.000988086
0.000327457
0.00089328
0.000125412
0.000835879
-3.49341e-06
0.000823673
-4.16162e-05
0.000831428
-4.85561e-05
0.000847931
-5.19065e-05
0.000859473
-5.51306e-05
0.000862691
-5.91932e-05
0.000859526
-6.23168e-05
0.000858274
-6.31294e-05
0.000861758
-6.22758e-05
0.000869262
-5.92494e-05
0.000879157
-5.46969e-05
0.00089139
-9.6374e-05
0.000907066
-0.000100976
0.00093441
-0.00010543
0.000964594
-0.000110633
0.00099881
-0.000113092
0.0010353
-0.000116822
0.00107373
-0.000118803
0.00111296
-0.000119921
0.00115394
-0.000119381
0.0011954
-0.000116733
0.00123604
-0.000113409
0.00127719
-0.000108765
0.0013168
-0.000105275
0.0013552
-0.000101129
0.00139415
-9.60994e-05
0.0014304
-9.04429e-05
0.00146268
-8.06301e-05
0.0014915
-7.11422e-05
0.00151408
-6.09444e-05
0.00153191
-4.75291e-05
0.00154179
-3.32123e-05
0.00154477
-1.72066e-05
0.00154509
-3.22675e-06
0.00154255
1.3584e-05
0.00153392
2.53757e-05
0.0015234
4.30318e-05
0.00150378
5.46618e-05
0.00148231
7.36418e-05
0.00145187
8.53213e-05
0.00142118
0.000100207
0.00138684
0.000115829
0.0013559
0.000126877
0.00132304
0.000147639
0.0012901
0.000159601
0.00125044
0.000175428
0.00120127
0.000197643
0.00115511
0.000204655
0.00110446
0.000214936
0.00104577
0.000222927
0.000984741
0.00021329
0.000916512
0.000205539
0.000844023
0.000205525
0.000769806
0.000197703
0.000692736
0.00020171
0.000622375
0.000210222
0.000555834
0.000214093
0.00049011
0.000230052
0.000428622
0.000216998
0.000368931
0.000196793
0.000315453
0.000153378
0.000275598
0.000114349
0.000253386
7.13232e-05
0.000241842
3.84989e-05
0.000244372
3.17686e-05
0.000252957
2.09232e-05
0.000258925
1.33728e-05
0.000261241
1.29315e-05
0.000260553
1.83838e-05
0.000260304
2.82108e-05
0.000257271
3.94377e-05
0.00025107
4.65502e-05
0.00023955
5.49058e-05
0.000221882
6.53726e-05
0.000200224
8.37049e-05
0.000178684
0.000103377
0.000156221
0.000116742
0.000132868
0.0001359
0.000108657
0.000161817
8.90097e-05
0.000174214
7.09781e-05
0.000202585
5.41356e-05
0.000208718
3.916e-05
0.000228706
2.52893e-05
0.000200406
1.27108e-05
0.000342739
2.09693e-06
-0.000196379
-3.76402e-05
0.000539104
6.7751e-05
0.000544499
0.000172618
0.000668981
6.87096e-05
0.000901123
-3.49546e-05
0.00107037
-0.000133021
0.00113555
-0.000186822
0.00107694
-0.000181727
0.000905913
-9.48913e-05
0.000692936
-4.59981e-05
0.000610833
3.12246e-05
0.000613055
9.64804e-05
0.000723942
7.07893e-05
0.000964205
-3.82669e-05
0.00116204
-9.06279e-05
0.00122301
-0.000158071
0.00124026
-0.000184877
0.00115227
-0.000150892
0.000975556
-7.64415e-05
0.000827874
-2.99081e-05
0.000773779
3.30929e-05
0.000774892
8.07667e-05
0.000880757
5.65082e-05
0.00105047
-2.62735e-06
0.00120908
-3.24902e-05
0.00131558
-6.60388e-05
0.0013538
-7.61723e-05
0.00132185
-7.75213e-05
0.00127698
1.42395e-05
0.00123041
0.000522784
0.0012223
0.000601016
0.00121032
0.000404594
0.00111069
0.00015061
0.00109229
-1.04712e-05
0.00113816
-5.95741e-05
0.00116424
-6.51055e-05
0.0011678
-6.60417e-05
0.00115796
-6.61683e-05
0.00113967
-7.0477e-05
0.00111807
-7.39948e-05
0.00110127
-7.60196e-05
0.00109155
-7.56848e-05
0.00108936
-7.3767e-05
0.001092
-7.12886e-05
0.0010997
-0.000123321
0.0011123
-0.000129314
0.00114135
-0.000136633
0.00117405
-0.000142903
0.00121018
-0.00014695
0.00124569
-0.000149772
0.00127971
-0.000151145
0.00131308
-0.000151173
0.0013467
-0.000148944
0.0013801
-0.000145858
0.00141343
-0.000141652
0.00144769
-0.000135909
0.00148189
-0.000131283
0.00151617
-0.00012582
0.00155182
-0.000118655
0.00158549
-0.000110271
0.00161541
-9.68203e-05
0.00163952
-8.23431e-05
0.00165837
-6.81298e-05
0.00167672
-5.15156e-05
0.00168693
-3.45821e-05
0.00169045
-1.78825e-05
0.00169428
-3.93281e-07
0.00169421
1.63031e-05
0.00169115
3.44021e-05
0.00168303
5.31857e-05
0.0016726
7.22836e-05
0.0016565
9.07221e-05
0.00163546
0.000107697
0.00160552
0.000123192
0.00156879
0.000144777
0.00152809
0.00015857
0.00148664
0.000187084
0.00144527
0.00020891
0.00140948
0.00022363
0.0013684
0.000250326
0.00133435
0.000264839
0.00129825
0.000276934
0.00124907
0.00029174
0.00119568
0.00028556
0.00112838
0.00027845
0.00105088
0.000280994
0.000967197
0.000266373
0.000873942
0.000267459
0.00078241
0.000275292
0.000692035
0.000276473
0.000605748
0.000290193
0.000527805
0.000270891
0.000456886
0.00023883
0.000393683
0.000178806
0.0003401
0.000127634
0.000304536
7.00607e-05
0.000281192
3.20551e-05
0.000271482
2.75318e-05
0.000266967
1.80588e-05
0.000263496
1.12192e-05
0.000261147
1.11037e-05
0.000258318
1.98579e-05
0.000255749
3.29493e-05
0.000252567
4.96967e-05
0.000247306
6.33036e-05
0.000236794
7.56686e-05
0.00022064
8.5996e-05
0.000198782
0.000105216
0.000174192
0.000125925
0.000147595
0.000140464
0.000124516
0.000155583
0.000100833
0.000180435
8.11884e-05
0.00019193
6.36281e-05
0.000219019
4.76909e-05
0.000224804
3.40321e-05
0.00024512
2.18768e-05
0.000215428
1.03069e-05
0.000348761
3.44261e-07
0.000153691
-2.45146e-05
0.00108519
-0.000114182
0.00104868
-0.00016308
0.000955691
-0.000114848
0.000746892
-6.73395e-05
0.000605894
-4.59126e-05
0.000614911
3.73994e-05
0.000756783
9.79791e-05
0.000975483
2.55725e-05
0.00116449
-6.89695e-05
0.00124829
-0.000126638
0.00121317
-0.000208188
0.00108559
-0.000179162
0.000921342
-0.000124562
0.000819754
-8.34916e-05
0.000812463
-2.85867e-05
0.000853459
7.61028e-05
0.00098247
6.84129e-05
0.001203
7.28036e-06
0.00140537
-5.43082e-05
0.00145244
-0.00010735
0.00141159
-0.000152696
0.00129041
-0.000152269
0.00112496
-0.000113271
0.000989638
-8.62961e-05
0.000966637
-5.8332e-05
0.00096059
-3.4203e-05
0.00100264
-3.00821e-05
0.00106353
4.03797e-05
0.00112984
0.000553036
0.00118809
0.000707863
0.00127203
0.000433885
0.00121587
0.000110349
0.00126059
-3.46826e-05
0.00134042
-7.16745e-05
0.00137467
-7.07433e-05
0.0013855
-6.78823e-05
0.00138544
-6.6232e-05
0.00137873
-7.13072e-05
0.00137142
-7.61563e-05
0.00136846
-8.15935e-05
0.0013681
-8.26573e-05
0.00137115
-8.16049e-05
0.00137622
-8.05666e-05
0.00138299
-0.000146709
0.00139015
-0.000154711
0.00141066
-0.000164417
0.00143275
-0.000169505
0.00145177
-0.000171826
0.00147085
-0.000172985
0.00149047
-0.000173829
0.00151131
-0.00017376
0.00153431
-0.00017164
0.00155987
-0.000169256
0.0015889
-0.000165187
0.00162035
-0.000159951
0.00165246
-0.000155148
0.00168455
-0.000148393
0.00171506
-0.000139371
0.00174152
-0.000127421
0.00176422
-0.000110007
0.00178215
-9.35193e-05
0.00179577
-7.51197e-05
0.0018076
-5.67712e-05
0.0018158
-4.01767e-05
0.00182133
-2.03198e-05
0.00182372
-1.21009e-06
0.0018254
1.94064e-05
0.00182404
3.80581e-05
0.00182144
6.07351e-05
0.00181394
8.20913e-05
0.00180197
0.000105394
0.00178569
0.000128596
0.00176285
0.000148532
0.0017363
0.000173562
0.00169804
0.000194827
0.00165648
0.000219961
0.00160341
0.000246354
0.00155705
0.000259832
0.0015079
0.000290708
0.0014592
0.000316957
0.0014111
0.000332837
0.00135978
0.00036129
0.00130759
0.000364003
0.00124807
0.000362019
0.0011692
0.000373636
0.0010847
0.000356731
0.000990436
0.000355288
0.000893537
0.000360481
0.000791275
0.000355601
0.000682744
0.000363377
0.000588064
0.000335864
0.00050461
0.000294261
0.000431076
0.000217938
0.000366152
0.000150935
0.000315335
7.88868e-05
0.000281963
3.63556e-05
0.000272122
3.03594e-05
0.000270124
1.97591e-05
0.000268651
1.25151e-05
0.000267498
1.29704e-05
0.000264399
2.20481e-05
0.000261119
3.75695e-05
0.000256821
5.92417e-05
0.00025031
7.80829e-05
0.000240429
9.62577e-05
0.00022452
0.000109484
0.000202501
0.000131252
0.000176951
0.000148619
0.000146999
0.000163973
0.000121818
0.000175308
9.77507e-05
0.000198359
7.78997e-05
0.000208726
6.0379e-05
0.000234306
4.53253e-05
0.000239378
3.30738e-05
0.000260242
2.18784e-05
0.000229194
1.04982e-05
0.000352289
3.31743e-07
-0.000207082
-7.05049e-05
0.000565705
2.40668e-05
0.000562083
0.000150376
0.000667697
7.04702e-05
0.000921431
-3.41017e-05
0.00114478
-0.000161388
0.00126229
-0.000228079
0.0012029
-0.000240541
0.00102087
-0.000145724
0.000764377
-9.34701e-05
0.000649819
-3.32132e-05
0.000640791
6.10369e-05
0.000738454
8.06355e-05
0.00100432
-2.7441e-05
0.00124655
-0.0001056
0.0013346
-0.000182532
0.00139541
-0.000229985
0.00131481
-0.000230852
0.00115029
-0.000130405
0.000961227
-8.04951e-05
0.00085141
-3.59253e-05
0.000814888
3.88075e-05
0.000896576
6.4048e-05
0.0010667
3.59638e-05
0.00127029
-1.89933e-05
0.00142335
-8.07454e-05
0.00152547
-9.87427e-05
0.00151359
-0.000107936
0.00147864
-2.29204e-05
0.00142077
0.000477087
0.00140314
0.000763069
0.00155293
0.000392844
0.00153644
4.08692e-05
0.00161628
-6.23314e-05
0.00166134
-8.26136e-05
0.00167812
-7.60649e-05
0.00167892
-7.23713e-05
0.00167303
-7.53312e-05
0.00165937
-8.19486e-05
0.00164265
-8.56167e-05
0.00162618
-9.24535e-05
0.00161111
-9.27392e-05
0.0015988
-9.06871e-05
0.00158853
-8.70684e-05
0.00158233
-0.000163985
0.00157991
-0.000172231
0.00158714
-0.000179677
0.00159471
-0.000184949
0.00160239
-0.000186729
0.00161363
-0.000187489
0.0016285
-0.000188627
0.00164677
-0.000189232
0.00166798
-0.000188284
0.00169086
-0.000186657
0.00171466
-0.000182386
0.00173836
-0.000177221
0.00176219
-0.000171287
0.00178555
-0.000161993
0.00180735
-0.000150193
0.00182687
-0.000134944
0.00184484
-0.000115494
0.00186111
-9.86955e-05
0.00187493
-7.86499e-05
0.0018876
-6.04938e-05
0.00189649
-4.10684e-05
0.00190513
-2.16718e-05
0.00191187
-6.91026e-07
0.00191954
2.05312e-05
0.0019227
4.24781e-05
0.00192546
6.68084e-05
0.00192314
9.0559e-05
0.00192046
0.000119049
0.00190978
0.000145192
0.00189724
0.000175949
0.00187298
0.000202169
0.00184506
0.000234588
0.00180728
0.000254494
0.00176564
0.000288379
0.00171228
0.000307684
0.00165695
0.000341181
0.00158881
0.00037068
0.00152831
0.000388297
0.00146838
0.000424009
0.00141256
0.000445327
0.00135221
0.000449739
0.0012716
0.000469803
0.00117799
0.000456398
0.00107691
0.0004587
0.000970789
0.000468181
0.000864731
0.000451443
0.000751654
0.000449195
0.000644052
0.000412192
0.000546996
0.000363108
0.000463163
0.000272367
0.000388688
0.000183533
0.000327567
8.70415e-05
0.000288663
3.7502e-05
0.0002748
3.19411e-05
0.000269018
2.22866e-05
0.000265043
1.55635e-05
0.000262591
1.64417e-05
0.000258648
2.61448e-05
0.000254199
4.36188e-05
0.000248895
6.77002e-05
0.000242794
9.23473e-05
0.000234631
0.000116905
0.000218658
0.000133908
0.000196442
0.00016066
0.000171548
0.000173454
0.000144576
0.000187819
0.00012215
0.000195037
0.000101047
0.00021603
8.23586e-05
0.00022453
6.59082e-05
0.000248028
5.12196e-05
0.000252798
3.85119e-05
0.000274767
2.58823e-05
0.000242633
1.3259e-05
0.000355296
1.92408e-06
0.000139447
-4.17819e-05
0.00108028
-0.000137969
0.00108076
-0.00020517
0.00101241
-0.000163707
0.000796711
-0.000110658
0.000633243
-7.43515e-05
0.000641757
-1.14852e-05
0.000771767
7.96714e-05
0.000961773
1.4275e-05
0.00118797
-8.95617e-05
0.00130077
-0.000158763
0.0012633
-0.000245941
0.00114911
-0.000261499
0.0010019
-0.000163034
0.000867646
-0.000144047
0.000808514
-6.60244e-05
0.000796905
4.59628e-06
0.000899211
6.83048e-05
0.00112554
2.98935e-05
0.00136286
-5.35821e-05
0.00142088
-0.000137661
0.00144077
-0.000176493
0.00137533
-0.000199818
0.00122109
-0.000168144
0.00103538
-0.000129865
0.00093247
-8.72974e-05
0.000918127
-8.1574e-05
0.00096659
-6.3807e-05
0.00104313
-7.19127e-06
0.00110186
0.000354856
0.0011581
0.000798174
0.00139011
0.000314972
0.00167913
1.80196e-05
0.00174962
-6.04309e-05
0.00175707
-6.44647e-05
0.00177212
-5.56765e-05
0.00177909
-5.45206e-05
0.00178579
-6.07519e-05
0.00179163
-7.18111e-05
0.00179767
-8.09877e-05
0.00180526
-9.20701e-05
0.00180767
-9.40493e-05
0.00180675
-9.40128e-05
0.00180182
-9.09784e-05
0.00179632
-0.000178183
0.00178745
-0.000188075
0.00178221
-0.000195332
0.00178287
-0.000201566
0.0017888
-0.000203604
0.00179671
-0.000204217
0.00180697
-0.000205164
0.00181952
-0.000205463
0.00183421
-0.000204503
0.0018499
-0.000201946
0.00186591
-0.000197083
0.00188221
-0.000190999
0.00189986
-0.000183504
0.00191732
-0.000171237
0.00193199
-0.000156606
0.00194438
-0.00013918
0.00195711
-0.000119616
0.00196743
-0.000101486
0.00197562
-7.98766e-05
0.00198287
-6.10914e-05
0.0019891
-4.01463e-05
0.00199485
-2.22355e-05
0.00200062
-1.12841e-07
0.00200513
2.05829e-05
0.00200919
4.5756e-05
0.00201004
6.9286e-05
0.00200904
9.86262e-05
0.00200387
0.000126557
0.00199508
0.000161278
0.00198138
0.000194003
0.00196309
0.000230259
0.00193854
0.00026764
0.00190561
0.000300231
0.00187054
0.000335479
0.00182072
0.000368299
0.00177154
0.000393581
0.00171461
0.000424047
0.00165446
0.000442531
0.0015841
0.00048528
0.00150429
0.000528753
0.00142874
0.000547771
0.00134678
0.000571416
0.00124965
0.000564521
0.00115467
0.000568216
0.00104598
0.000586262
0.00094165
0.000562078
0.00083093
0.000548489
0.000721522
0.00049816
0.000620723
0.000440819
0.000530245
0.000336677
0.00044339
0.000222477
0.000370292
9.93485e-05
0.00032029
4.17217e-05
0.000295657
3.60999e-05