/*--------------------------------*- C++ -*----------------------------------*\
| =========                 |                                                 |
| \\      /  F ield         | OpenFOAM: The Open Source CFD Toolbox           |
|  \\    /   O peration     | Version:  2.2.x                                 |
|   \\  /    A nd           | Web:      www.OpenFOAM.org                      |
|    \\/     M anipulation  |                                                 |
\*---------------------------------------------------------------------------*/
FoamFile
{
    version     2.0;
    format      ascii;
    class       volScalarField;
    location    "0.3";
    object      rho;
}
// * * * * * * * * * * * * * * * * * * * * * * * * * * * * * * * * * * * * * //

dimensions      [1 -3 0 0 0 0 0];

internalField   nonuniform List<scalar> 
14161
(
1
1
1
1
1
1
1
1
1
1
1
1
1
1
1
1
1
1
1
1
1
1
1
1
1
1
1
1
1
1
1
1
1
1
1
1
1
1
1
1
1
1
1
1
1
1
1
1
1
1
1
1.00001
1.0001
1.00165
1.02141
1.18089
2.08192
3.24503
3.63127
3.70719
3.72187
3.72677
3.7291
3.73053
3.73047
3.73984
3.75915
3.77834
3.79239
3.80104
3.80549
3.80773
3.81069
3.8155
3.82068
3.82538
3.82881
3.83256
3.84031
3.85095
3.86065
3.86844
3.87348
3.8761
3.87687
3.88149
3.89271
3.90513
3.9147
3.91937
3.91582
3.91287
3.91683
3.92781
3.93884
3.94696
3.95044
3.94929
3.95048
3.95479
3.95877
3.96153
3.96241
3.96385
3.96702
3.97005
3.97166
3.97056
3.96841
3.96715
3.96557
3.96091
3.95191
3.93779
3.91746
3.89168
3.86991
3.86029
3.85917
1
1
1
1
1
1
1
1
1
1
1
1
1
1
1
1
1
1
1
1
1
1
1
1
1
1
1
1
1
1
1
1
1
1
1
1
1
1
1
1
1
1
1
1
1
1
1
1
1
1
1
1.00001
1.0001
1.00164
1.02131
1.18018
2.07802
3.24188
3.62986
3.70656
3.72138
3.72578
3.72777
3.72904
3.72896
3.73858
3.75833
3.7777
3.79194
3.8009
3.80579
3.80859
3.81206
3.81705
3.82246
3.82713
3.83052
3.83367
3.8413
3.85219
3.86177
3.86937
3.87397
3.87595
3.87628
3.88108
3.89253
3.90489
3.91413
3.91843
3.91498
3.91254
3.91667
3.92755
3.93845
3.94653
3.95003
3.94897
3.95009
3.95424
3.9581
3.96081
3.96174
3.96325
3.96637
3.96936
3.971
3.9699
3.96786
3.96671
3.96514
3.96039
3.95135
3.93714
3.9169
3.89104
3.86934
3.85959
3.85861
1
1
1
1
1
1
1
1
1
1
1
1
1
1
1
1
1
1
1
1
1
1
1
1
1
1
1
1
1
1
1
1
1
1
1
1
1
1
1
1
1
1
1
1
1
1
1
1
1
1
1
1.00001
1.0001
1.0016
1.02088
1.17761
2.07325
3.23996
3.62994
3.70687
3.72155
3.72538
3.72698
3.72797
3.72787
3.73799
3.75809
3.77742
3.79146
3.80024
3.80506
3.80812
3.81184
3.81704
3.82271
3.82763
3.83132
3.83437
3.84227
3.85383
3.86352
3.87087
3.87484
3.87588
3.87565
3.88098
3.89284
3.90499
3.91377
3.91762
3.91427
3.91252
3.91712
3.9279
3.93858
3.9465
3.94994
3.94901
3.95014
3.95406
3.9577
3.96026
3.96108
3.96255
3.96551
3.96837
3.96993
3.96884
3.9669
3.96587
3.96434
3.95936
3.95012
3.93591
3.91583
3.88966
3.86791
3.85804
3.85708
1
1
1
1
1
1
1
1
1
1
1
1
1
1
1
1
1
1
1
1
1
1
1
1
1
1
1
1
1
1
1
1
1
1
1
1
1
1
1
1
1
1
1
1
1
1
1
1
1
1
1
1.00001
1.00009
1.00154
1.02027
1.17414
2.06645
3.23692
3.63014
3.70778
3.72256
3.72627
3.72772
3.72857
3.72829
3.73881
3.75907
3.77816
3.79183
3.80016
3.80462
3.80751
3.81123
3.81625
3.82155
3.82603
3.82914
3.83205
3.84017
3.85181
3.86173
3.86943
3.8738
3.87493
3.87504
3.88126
3.89338
3.90543
3.91401
3.91751
3.91414
3.913
3.9182
3.92904
3.93966
3.94736
3.9506
3.94974
3.95094
3.95462
3.958
3.96039
3.96099
3.96224
3.96492
3.96754
3.96892
3.96785
3.96605
3.96508
3.96341
3.95803
3.94857
3.93454
3.91466
3.88822
3.86617
3.85608
3.85497
1
1
1
1
1
1
1
1
1
1
1
1
1
1
1
1
1
1
1
1
1
1
1
1
1
1
1
1
1
1
1
1
1
1
1
1
1
1
1
1
1
1
1
1
1
1
1
1
1
1
1
1.00001
1.00009
1.00148
1.01965
1.17047
2.05689
3.23073
3.62802
3.70607
3.72102
3.72458
3.72582
3.72612
3.72646
3.73842
3.75904
3.7779
3.79134
3.79945
3.80375
3.80635
3.80984
3.81465
3.81969
3.82406
3.82699
3.83043
3.83927
3.85119
3.86113
3.86864
3.87282
3.87358
3.87402
3.88099
3.89326
3.9053
3.91346
3.91566
3.91171
3.91132
3.91744
3.92834
3.93872
3.94591
3.94859
3.94776
3.94967
3.95392
3.95753
3.95993
3.96068
3.96196
3.96437
3.96674
3.96789
3.9667
3.96505
3.96412
3.96223
3.9564
3.94681
3.93311
3.91331
3.88672
3.86419
3.85368
3.85226
1
1
1
1
1
1
1
1
1
1
1
1
1
1
1
1
1
1
1
1
1
1
1
1
1
1
1
1
1
1
1
1
1
1
1
1
1
1
1
1
1
1
1
1
1
1
1
1
1
1
1
1
1.00009
1.0014
1.0188
1.16535
2.04354
3.22155
3.62476
3.70348
3.7186
3.72213
3.72344
3.72358
3.72511
3.73904
3.76005
3.77846
3.79148
3.79928
3.80346
3.80595
3.80938
3.81409
3.81905
3.82334
3.82613
3.83008
3.83971
3.85173
3.86146
3.86839
3.87197
3.87209
3.87273
3.88067
3.89308
3.90456
3.91222
3.91307
3.90874
3.90942
3.91699
3.92805
3.93805
3.94456
3.94639
3.94571
3.94843
3.9531
3.95679
3.95901
3.95966
3.96102
3.96342
3.9657
3.96676
3.96536
3.96381
3.96281
3.96063
3.95443
3.94483
3.93161
3.91168
3.88491
3.86177
3.85042
3.84821
1
1
1
1
1
1
1
1
1
1
1
1
1
1
1
1
1
1
1
1
1
1
1
1
1
1
1
1
1
1
1
1
1
1
1
1
1
1
1
1
1
1
1
1
1
1
1
1
1
1
1
1
1.00008
1.00129
1.01764
1.15815
2.02654
3.21099
3.62198
3.70147
3.71677
3.71993
3.72084
3.7203
3.72391
3.74049
3.7618
3.77926
3.79122
3.79835
3.80242
3.80555
3.80962
3.81447
3.81933
3.82336
3.82593
3.83029
3.84071
3.8526
3.86177
3.86771
3.87053
3.87004
3.87134
3.88049
3.89307
3.90405
3.91116
3.91059
3.90677
3.90846
3.91717
3.92838
3.93797
3.94362
3.94435
3.94405
3.94749
3.9523
3.95584
3.95765
3.95794
3.95951
3.96213
3.96442
3.96533
3.96364
3.96214
3.96101
3.95854
3.95202
3.94237
3.9295
3.90958
3.88272
3.85882
3.84646
3.84338
1
1
1
1
1
1
1
1
1
1
1
1
1
1
1
1
1
1
1
1
1
1
1
1
1
1
1
1
1
1
1
1
1
1
1
1
1
1
1
1
1
1
1
1
1
1
1
1
1
1
1
1
1.00007
1.00116
1.01633
1.14977
2.00486
3.19647
3.61712
3.6986
3.71405
3.71692
3.71692
3.71639
3.72418
3.74337
3.76377
3.77922
3.78982
3.7965
3.80068
3.80423
3.80831
3.81257
3.81638
3.81958
3.82186
3.82818
3.84027
3.85221
3.8612
3.86646
3.86872
3.86787
3.8704
3.8809
3.89357
3.90411
3.91029
3.9084
3.90543
3.90833
3.91823
3.92922
3.9381
3.9428
3.94238
3.94229
3.94619
3.95105
3.95437
3.95565
3.95582
3.95771
3.96056
3.96285
3.96343
3.96156
3.96016
3.9589
3.95604
3.94906
3.93929
3.92652
3.90708
3.8803
3.85553
3.84177
3.83744
1
1
1
1
1
1
1
1
1
1
1
1
1
1
1
1
1
1
1
1
1
1
1
1
1
1
1
1
1
1
1
1
1
1
1
1
1
1
1
1
1
1
1
1
1
1
1
1
1
1
1
1
1.00006
1.00102
1.01482
1.13958
1.97731
3.17688
3.60966
3.69431
3.71073
3.71287
3.71222
3.71402
3.72698
3.74723
3.76565
3.77923
3.78836
3.79435
3.79838
3.80199
3.80578
3.80951
3.81274
3.8152
3.81812
3.82695
3.84047
3.85202
3.86034
3.86458
3.86561
3.86521
3.87034
3.88174
3.89374
3.9026
3.90699
3.90433
3.90312
3.90771
3.91812
3.92863
3.93675
3.94073
3.93995
3.94049
3.9448
3.94944
3.95257
3.95345
3.9537
3.95582
3.95871
3.96085
3.96112
3.95919
3.95786
3.95646
3.95305
3.9454
3.93543
3.9228
3.90376
3.87707
3.85167
3.83654
3.83047
1
1
1
1
1
1
1
1
1
1
1
1
1
1
1
1
1
1
1
1
1
1
1
1
1
1
1
1
1
1
1
1
1
1
1
1
1
1
1
1
1
1
1
1
1
1
1
1
1
1
1
1
1.00005
1.00086
1.01312
1.12758
1.94324
3.15211
3.60077
3.68933
3.70646
3.70776
3.70818
3.71445
3.73125
3.75112
3.76733
3.77917
3.78721
3.79243
3.79607
3.79955
3.80327
3.80663
3.80968
3.81164
3.81599
3.82739
3.84137
3.85227
3.85891
3.86161
3.86104
3.86239
3.87064
3.88211
3.89255
3.89928
3.90163
3.89931
3.90108
3.90747
3.91777
3.92751
3.93462
3.93771
3.93685
3.93844
3.94317
3.94757
3.95045
3.951
3.95144
3.95363
3.95641
3.95829
3.95815
3.95615
3.95492
3.95336
3.9492
3.9408
3.93081
3.91851
3.89975
3.87309
3.84704
3.83055
3.82241
1
1
1
1
1
1
1
1
1
1
1
1
1
1
1
1
1
1
1
1
1
1
1
1
1
1
1
1
1
1
1
1
1
1
1
1
1
1
1
1
1
1
1
1
1
1
1
1
1
1
1
1
1.00004
1.0007
1.01127
1.11387
1.9017
3.12036
3.58887
3.68328
3.70099
3.7027
3.70625
3.71802
3.7365
3.75487
3.76922
3.77952
3.78631
3.79078
3.79397
3.79715
3.80042
3.80308
3.80557
3.80767
3.81472
3.82848
3.84172
3.85124
3.85609
3.85689
3.85635
3.86097
3.87143
3.88233
3.8902
3.89468
3.89426
3.895
3.89952
3.90725
3.91718
3.92607
3.93177
3.93365
3.93338
3.93628
3.94133
3.94548
3.94795
3.94804
3.94861
3.95072
3.95326
3.9548
3.95427
3.95244
3.95139
3.94964
3.94461
3.93578
3.92597
3.91382
3.89504
3.86847
3.84159
3.82366
3.81319
1
1
1
1
1
1
1
1
1
1
1
1
1
1
1
1
1
1
1
1
1
1
1
1
1
1
1
1
1
1
1
1
1
1
1
1
1
1
1
1
1
1
1
1
1
1
1
1
1
1
1
1
1.00003
1.00053
1.0093
1.09838
1.85126
3.08012
3.57435
3.6758
3.6943
3.6988
3.70745
3.72369
3.74287
3.75914
3.77121
3.77936
3.78452
3.78785
3.79067
3.79393
3.79653
3.79879
3.80037
3.80429
3.81562
3.83057
3.84252
3.84977
3.85258
3.852
3.85338
3.86163
3.87227
3.88117
3.8865
3.88765
3.88745
3.89194
3.89804
3.90692
3.91639
3.92394
3.92812
3.92875
3.92968
3.93389
3.939
3.94282
3.94468
3.94433
3.94529
3.94749
3.94983
3.95092
3.94994
3.94843
3.94751
3.94544
3.93956
3.93062
3.92094
3.90855
3.88954
3.86293
3.83533
3.81573
3.80276
1
1
1
1
1
1
1
1
1
1
1
1
1
1
1
1
1
1
1
1
1
1
1
1
1
1
1
1
1
1
1
1
1
1
1
1
1
1
1
1
1
1
1
1
1
1
1
1
1
1
1
1
1.00002
1.00036
1.00728
1.08118
1.79017
3.02926
3.55744
3.66698
3.68823
3.69849
3.71266
3.73114
3.749
3.7628
3.7723
3.77819
3.78168
3.78417
3.78739
3.79014
3.79198
3.79296
3.79581
3.80427
3.81878
3.83274
3.84234
3.84692
3.84768
3.84792
3.85311
3.86225
3.87105
3.87701
3.88003
3.88001
3.88328
3.88928
3.89636
3.90591
3.9148
3.92077
3.92348
3.92339
3.92579
3.93099
3.93613
3.93966
3.94055
3.94022
3.94173
3.94408
3.94611
3.9466
3.9452
3.94405
3.94325
3.94082
3.93412
3.9252
3.91555
3.90261
3.88331
3.85651
3.82817
3.80677
3.79151
1
1
1
1
1
1
1
1
1
1
1
1
1
1
1
1
1
1
1
1
1
1
1
1
1
1
1
1
1
1
1
1
1
1
1
1
1
1
1
1
1
1
1
1
1
1
1
1
1
1
1
1
1.00001
1.0002
1.00522
1.06218
1.71649
2.96546
3.53931
3.66054
3.68758
3.70395
3.72121
3.73868
3.75364
3.76468
3.7716
3.7757
3.77865
3.78155
3.78331
3.78403
3.78456
3.7874
3.79441
3.80745
3.82201
3.83307
3.83945
3.84208
3.84313
3.84693
3.85416
3.86155
3.867
3.87031
3.87162
3.87542
3.88161
3.88718
3.89504
3.90432
3.91213
3.91669
3.91796
3.91822
3.92212
3.92798
3.93295
3.93601
3.9358
3.93604
3.93804
3.9404
3.94192
3.94175
3.94002
3.93916
3.93848
3.93566
3.92825
3.91944
3.90964
3.89607
3.87647
3.84948
3.82026
3.79692
3.77917
1
1
1
1
1
1
1
1
1
1
1
1
1
1
1
1
1
1
1
1
1
1
1
1
1
1
1
1
1
1
1
1
1
1
1
1
1
1
1
1
1
1
1
1
1
1
1
1
1
1
1
1
1.00002
0.999915
1.00258
1.04037
1.62728
2.88865
3.51909
3.65768
3.69607
3.71593
3.7324
3.74602
3.75623
3.76319
3.76746
3.77166
3.77471
3.77583
3.7755
3.77515
3.7777
3.78494
3.7972
3.81125
3.82277
3.83058
3.83493
3.83741
3.84162
3.84805
3.85393
3.85798
3.85984
3.86064
3.86571
3.8732
3.87989
3.88587
3.89343
3.90135
3.90786
3.91173
3.9121
3.91337
3.91843
3.92453
3.92928
3.93148
3.93075
3.93175
3.93399
3.93613
3.93697
3.93599
3.93448
3.93395
3.93333
3.92979
3.92181
3.91327
3.90316
3.88902
3.86918
3.84193
3.81151
3.78605
3.76626
1
1
1
1
1
1
1
1
1
1
1
1
1
1
1
1
1
1
1
1
1
1
1
1
1
1
1
1
1
1
1
1
1
1
1
1
1
1
1
1
1
1
1
1
1
1
1
1
1
1
1
0.999996
0.999919
0.999393
1.00009
1.01761
1.52282
2.78539
3.49089
3.65583
3.70632
3.72801
3.74195
3.75089
3.75534
3.75886
3.76229
3.76548
3.76736
3.7675
3.76652
3.76848
3.77533
3.78712
3.80061
3.81241
3.82125
3.82683
3.83022
3.83496
3.84169
3.84686
3.85003
3.85065
3.84919
3.85346
3.86255
3.8713
3.87867
3.88407
3.89009
3.89694
3.90271
3.90615
3.9062
3.90874
3.91453
3.9205
3.92489
3.92598
3.92554
3.92722
3.92938
3.9311
3.93113
3.92952
3.92871
3.92855
3.92767
3.92293
3.91495
3.90665
3.89619
3.88135
3.86131
3.83372
3.80194
3.77443
3.75295
1
1
1
1
1
1
1
1
1
1
1
1
1
1
1
1
1
1
1
1
1
1
1
1
1
1
1
1
1
1
1
1
1
1
1
1
1
1
1
1
1
1
1
1
1
1
1
1
1
1
1
1
0.99993
0.999298
1.00041
0.998049
1.4062
2.64441
3.46019
3.66192
3.71456
3.73188
3.74025
3.7466
3.75085
3.75399
3.75629
3.75736
3.75748
3.75765
3.75997
3.76615
3.77714
3.79021
3.80236
3.81203
3.81864
3.82254
3.82711
3.83374
3.83879
3.84189
3.84211
3.83918
3.84109
3.85003
3.86106
3.87034
3.87687
3.88007
3.88535
3.89193
3.8973
3.9
3.90049
3.90439
3.91034
3.91586
3.91959
3.91974
3.92027
3.92237
3.9242
3.92509
3.92438
3.9229
3.92275
3.92274
3.92119
3.9152
3.90767
3.89954
3.88841
3.87299
3.85274
3.82475
3.79154
3.76205
3.7391
1
1
1
1
1
1
1
1
1
1
1
1
1
1
1
1
1
1
1
1
1
1
1
1
1
1
1
1
1
1
1
1
1
1
1
1
1
1
1
1
1
1
1
1
1
1
1
1
1
1
1
0.999999
0.999983
0.999725
0.998409
0.981752
1.30349
2.47678
3.42326
3.66159
3.71636
3.73003
3.73437
3.73801
3.74203
3.74501
3.74653
3.74704
3.74811
3.75127
3.75761
3.76772
3.78007
3.79235
3.80251
3.80984
3.81486
3.81912
3.82503
3.8299
3.83266
3.83296
3.82987
3.8301
3.8374
3.84922
3.86064
3.86881
3.8721
3.87488
3.8805
3.88682
3.8919
3.89338
3.89523
3.90026
3.90593
3.91064
3.91319
3.91322
3.91498
3.91706
3.91843
3.91812
3.9168
3.91634
3.91653
3.91633
3.91332
3.90694
3.90013
3.89172
3.87977
3.86393
3.84335
3.81476
3.78008
3.74883
3.72455
1
1
1
1
1
1
1
1
1
1
1
1
1
1
1
1
1
1
1
1
1
1
1
1
1
1
1
1
1
1
1
1
1
1
1
1
1
1
1
1
1
1
1
1
1
1
1
1
1
1
1
1
1.00002
0.999641
0.999168
0.994745
1.23232
2.30634
3.36474
3.64441
3.70645
3.71868
3.72185
3.72569
3.73098
3.73554
3.73855
3.74042
3.74331
3.74897
3.75805
3.76953
3.7816
3.79185
3.79967
3.80557
3.81034
3.81622
3.82064
3.82265
3.82266
3.82016
3.82004
3.8258
3.83721
3.84972
3.85919
3.86402
3.86607
3.87007
3.87593
3.88165
3.8854
3.88668
3.89066
3.8962
3.9012
3.90482
3.90561
3.90677
3.90945
3.91132
3.9118
3.91015
3.90894
3.90938
3.90991
3.90909
3.90408
3.89834
3.89217
3.88326
3.87052
3.85424
3.83288
3.80345
3.76762
3.73481
3.70931
1
1
1
1
1
1
1
1
1
1
1
1
1
1
1
1
1
1
1
1
1
1
1
1
1
1
1
1
1
1
1
1
1
1
1
1
1
1
1
1
1
1
1
1
1
1
1
1
1
1
1
1
1
1.00004
1.00091
1.01495
1.18653
2.13688
3.25661
3.61149
3.69004
3.70734
3.71338
3.71967
3.72539
3.72994
3.73391
3.73712
3.74164
3.74913
3.75915
3.77032
3.78002
3.78759
3.79346
3.79922
3.80567
3.81011
3.81206
3.81222
3.8106
3.81088
3.81575
3.82596
3.83816
3.84848
3.85463
3.85733
3.86053
3.86561
3.8711
3.87557
3.87734
3.88073
3.8866
3.89191
3.89574
3.89716
3.89777
3.90066
3.90355
3.90511
3.90393
3.90136
3.90115
3.90197
3.90246
3.90035
3.89451
3.88949
3.88356
3.87417
3.86071
3.84379
3.82125
3.7908
3.75426
3.72006
3.69312
1
1
1
1
1
1
1
1
1
1
1
1
1
1
1
1
1
1
1
1
1
1
1
1
1
1
1
1
1
1
1
1
1
1
1
1
1
1
1
1
1
1
1
1
1
1
1
1
1
1
1
1
1
1.00004
1.00068
1.01179
1.13132
1.97015
3.15365
3.58453
3.67802
3.70096
3.70934
3.71556
3.72114
3.72624
3.73088
3.7356
3.74223
3.75117
3.76045
3.76761
3.77354
3.77883
3.78518
3.79212
3.79748
3.80061
3.80194
3.80208
3.80307
3.80752
3.81627
3.82719
3.83738
3.8441
3.84744
3.85049
3.85537
3.86053
3.86495
3.86703
3.86981
3.876
3.8823
3.88664
3.88855
3.8884
3.89061
3.89467
3.89739
3.89777
3.89461
3.89278
3.89321
3.89434
3.89385
3.88997
3.88504
3.88054
3.87437
3.86435
3.85014
3.83222
3.80848
3.77702
3.74011
3.70452
3.67592
1
1
1
1
1
1
1
1
1
1
1
1
1
1
1
1
1
1
1
1
1
1
1
1
1
1
1
1
1
1
1
1
1
1
1
1
1
1
1
1
1
1
1
1
1
1
1
1
1
1
1
1
0.999999
0.999998
1.00018
1.00627
1.07763
1.79124
3.02889
3.55878
3.67552
3.70305
3.71131
3.71573
3.7192
3.72386
3.73062
3.73822
3.74515
3.75039
3.75408
3.75807
3.76415
3.77058
3.77729
3.78354
3.78809
3.79136
3.79374
3.79608
3.8005
3.80824
3.81787
3.8271
3.83346
3.83665
3.83936
3.84403
3.84916
3.85357
3.85624
3.85817
3.86391
3.87138
3.87688
3.87985
3.87955
3.88026
3.88416
3.88817
3.89048
3.88877
3.88516
3.88445
3.88516
3.8861
3.88385
3.87893
3.87549
3.87141
3.86472
3.85389
3.83879
3.81954
3.79435
3.76231
3.72533
3.68821
3.65761
1
1
1
1
1
1
1
1
1
1
1
1
1
1
1
1
1
1
1
1
1
1
1
1
1
1
1
1
1
1
1
1
1
1
1
1
1
1
1
1
1
1
1
1
1
1
1
1
1
1
1
1
0.999999
0.999964
0.999636
1.00126
1.02855
1.59051
2.86743
3.53198
3.67769
3.71077
3.71803
3.71963
3.72108
3.72341
3.72799
3.73406
3.73936
3.74341
3.74694
3.75201
3.7584
3.76521
3.77173
3.7774
3.78181
3.78478
3.78757
3.79245
3.80019
3.80925
3.81768
3.82341
3.82619
3.82842
3.83199
3.8366
3.84098
3.84454
3.84654
3.85092
3.8587
3.86568
3.87004
3.87125
3.87048
3.87291
3.87752
3.88103
3.88193
3.8789
3.87644
3.87634
3.87701
3.87623
3.87252
3.86818
3.86552
3.86177
3.8542
3.84272
3.8268
3.80583
3.77902
3.74687
3.70993
3.6712
3.63828
1
1
1
1
1
1
1
1
1
1
1
1
1
1
1
1
1
1
1
1
1
1
1
1
1
1
1
1
1
1
1
1
1
1
1
1
1
1
1
1
1
1
1
1
1
1
1
1
1
1
1
1
1.00001
1.00007
0.999696
0.999161
0.98441
1.37196
2.61841
3.46036
3.66002
3.69768
3.70405
3.70636
3.71007
3.71653
3.72441
3.73138
3.73693
3.74161
3.74614
3.75046
3.75553
3.76208
3.76863
3.77382
3.77735
3.77932
3.78223
3.78923
3.79845
3.80711
3.81312
3.81632
3.81807
3.82046
3.82395
3.8279
3.83181
3.83487
3.83817
3.84489
3.85281
3.85863
3.86185
3.86165
3.86208
3.86569
3.86997
3.87281
3.8721
3.86912
3.86813
3.86824
3.86782
3.86442
3.86073
3.85779
3.85545
3.85134
3.84264
3.83051
3.81397
3.79117
3.76302
3.7311
3.6938
3.65325
3.61798
1
1
1
1
1
1
1
1
1
1
1
1
1
1
1
1
1
1
1
1
1
1
1
1
1
1
1
1
1
1
1
1
1
1
1
1
1
1
1
1
1
1
1
1
1
1
1
1
1
1
1
1
1
1
0.999969
1.00008
1.00362
1.22162
2.29117
3.34581
3.62089
3.68046
3.69622
3.70397
3.71152
3.7192
3.72603
3.73174
3.73607
3.73989
3.74415
3.74896
3.75438
3.76033
3.76583
3.76976
3.7723
3.77422
3.77898
3.78631
3.79416
3.80076
3.80532
3.80728
3.80889
3.8108
3.81401
3.81807
3.82225
3.82607
3.83138
3.83876
3.84567
3.85042
3.85244
3.85188
3.85377
3.85758
3.86117
3.86302
3.86181
3.85984
3.85956
3.85939
3.85672
3.85201
3.849
3.84737
3.84506
3.83984
3.83027
3.81719
3.79985
3.77552
3.74689
3.71511
3.67687
3.63434
3.59669
1
1
1
1
1
1
1
1
1
1
1
1
1
1
1
1
1
1
1
1
1
1
1
1
1
1
1
1
1
1
1
1
1
1
1
1
1
1
1
1
1
1
1
1
1
1
1
1
1
1
1
1
1
1
1.00003
1.00059
1.01116
1.13788
2.00516
3.16781
3.57267
3.66628
3.69151
3.70294
3.71205
3.72016
3.7274
3.73334
3.73756
3.74027
3.7426
3.74737
3.75413
3.76069
3.76531
3.76734
3.76772
3.7677
3.77051
3.77643
3.78328
3.78909
3.7929
3.7952
3.79744
3.80009
3.80384
3.80845
3.81318
3.81828
3.825
3.83188
3.83751
3.84115
3.842
3.84228
3.84497
3.84834
3.85122
3.85246
3.85147
3.85056
3.85024
3.84879
3.84422
3.83995
3.83788
3.83656
3.83374
3.82705
3.81706
3.8029
3.7841
3.75907
3.73099
3.69882
3.65906
3.61434
3.57432
1
1
1
1
1
1
1
1
1
1
1
1
1
1
1
1
1
1
1
1
1
1
1
1
1
1
1
1
1
1
1
1
1
1
1
1
1
1
1
1
1
1
1
1
1
1
1
1
1
1
1
1
1
1
1
1.00005
1.00447
1.06017
1.72868
2.97736
3.54017
3.66804
3.69692
3.70954
3.71946
3.72782
3.73413
3.73816
3.74022
3.7411
3.74183
3.74337
3.74583
3.74851
3.75105
3.75317
3.75438
3.75634
3.76029
3.76617
3.77258
3.77799
3.78195
3.78499
3.78794
3.79129
3.79521
3.79945
3.80409
3.8105
3.81773
3.82386
3.82833
3.83101
3.83147
3.8327
3.83555
3.83837
3.84062
3.84164
3.84099
3.84051
3.83968
3.83671
3.8315
3.8281
3.82712
3.82526
3.82105
3.81329
3.80312
3.78751
3.76659
3.74242
3.71526
3.68198
3.6403
3.59336
3.55086
1
1
1
1
1
1
1
1
1
1
1
1
1
1
1
1
1
1
1
1
1
1
1
1
1
1
1
1
1
1
1
1
1
1
1
1
1
1
1
1
1
1
1
1
1
1
1
1
1
1
1
1
1
1.00001
0.999978
0.999466
1.00024
0.99259
1.42505
2.69588
3.47058
3.65903
3.70291
3.71367
3.71718
3.71934
3.72106
3.72235
3.72362
3.7248
3.7263
3.72832
3.73081
3.7339
3.73741
3.74101
3.74523
3.75001
3.75537
3.76105
3.76639
3.77106
3.77494
3.7782
3.78111
3.78406
3.78731
3.79063
3.79535
3.80262
3.8098
3.8151
3.81852
3.82037
3.82071
3.82268
3.8256
3.82791
3.82966
3.83054
3.82999
3.8292
3.82773
3.82405
3.81924
3.81652
3.81571
3.81316
3.80735
3.7991
3.78777
3.77048
3.74866
3.72614
3.69914
3.66423
3.62057
3.57153
3.52668
1
1
1
1
1
1
1
1
1
1
1
1
1
1
1
1
1
1
1
1
1
1
1
1
1
1
1
1
1
1
1
1
1
1
1
1
1
1
1
1
1
1
1
1
1
1
1
1
1
1
1
1
1
1
1
1.00002
1.00062
1.01294
1.21068
2.27321
3.33861
3.61821
3.6826
3.69923
3.70453
3.70687
3.70857
3.70971
3.71081
3.71272
3.71582
3.7191
3.72243
3.72597
3.72956
3.73362
3.73941
3.74579
3.75204
3.75786
3.76301
3.76724
3.77111
3.77434
3.77675
3.77858
3.78027
3.78221
3.78639
3.79362
3.80028
3.80442
3.80714
3.80846
3.80912
3.81199
3.81507
3.81701
3.81825
3.81868
3.81781
3.81677
3.81508
3.8114
3.80743
3.80498
3.80326
3.79994
3.79335
3.7843
3.77011
3.75224
3.73135
3.70986
3.68202
3.64533
3.59998
3.5491
3.5019
1
1
1
1
1
1
1
1
1
1
1
1
1
1
1
1
1
1
1
1
1
1
1
1
1
1
1
1
1
1
1
1
1
1
1
1
1
1
1
1
1
1
1
1
1
1
1
1
1
1
1
1
1
1
1
1.00001
1.00034
1.00824
1.10696
1.91484
3.11101
3.55904
3.66083
3.68439
3.69175
3.69626
3.69979
3.70238
3.70446
3.70761
3.71219
3.71701
3.72174
3.72625
3.73052
3.73498
3.74085
3.74732
3.7533
3.75845
3.76194
3.76377
3.76455
3.76503
3.76556
3.76628
3.76716
3.76877
3.77487
3.78245
3.78774
3.79128
3.79387
3.79539
3.79729
3.80095
3.80386
3.80545
3.80611
3.80593
3.80503
3.80421
3.8024
3.79902
3.79563
3.79292
3.78986
3.78561
3.77873
3.7679
3.7508
3.73426
3.71454
3.69284
3.66371
3.62528
3.57855
3.52609
3.47688
1
1
1
1
1
1
1
1
1
1
1
1
1
1
1
1
1
1
1
1
1
1
1
1
1
1
1
1
1
1
1
1
1
1
1
1
1
1
1
1
1
1
1
1
1
1
1
1
1
1
1
1
1
1
0.999998
0.999953
0.99961
1.00104
1.02523
1.57497
2.83602
3.48828
3.63931
3.67677
3.68961
3.69632
3.70067
3.70394
3.70653
3.70917
3.71206
3.71491
3.71748
3.71971
3.7213
3.72509
3.73086
3.73672
3.74226
3.7472
3.75046
3.75167
3.75157
3.75095
3.75062
3.75108
3.75172
3.75489
3.76255
3.76964
3.7745
3.77806
3.78062
3.78277
3.78591
3.78996
3.7926
3.79386
3.79389
3.79296
3.7921
3.79152
3.78973
3.78698
3.78353
3.77988
3.77557
3.77042
3.76241
3.7496
3.73162
3.71688
3.69764
3.67468
3.64408
3.60398
3.55634
3.5027
3.45158
1
1
1
1
1
1
1
1
1
1
1
1
1
1
1
1
1
1
1
1
1
1
1
1
1
1
1
1
1
1
1
1
1
1
1
1
1
1
1
1
1
1
1
1
1
1
1
1
1
1
1
1
1
1
1
0.999991
0.999919
0.999925
1.00317
1.26666
2.40156
3.36803
3.61259
3.66526
3.67917
3.68418
3.68706
3.69086
3.69536
3.69937
3.70263
3.70526
3.70725
3.70864
3.7092
3.71241
3.71778
3.72317
3.72846
3.73329
3.7368
3.73841
3.73869
3.7385
3.73858
3.73889
3.73947
3.74397
3.75112
3.7572
3.76186
3.76523
3.7676
3.77043
3.77452
3.77858
3.78097
3.78184
3.78113
3.77957
3.77881
3.77862
3.7775
3.7746
3.77021
3.76554
3.76043
3.75446
3.7437
3.73029
3.71376
3.69986
3.68018
3.65523
3.62308
3.58164
3.53347
3.47888
3.42632
1
1
1
1
1
1
1
1
1
1
1
1
1
1
1
1
1
1
1
1
1
1
1
1
1
1
1
1
1
1
1
1
1
1
1
1
1
1
1
1
1
1
1
1
1
1
1
1
1
1
1
1
1
1
1
1
1.00001
1.00032
1.00831
1.1156
1.95352
3.13298
3.55913
3.65195
3.67179
3.67719
3.67971
3.68323
3.68752
3.69123
3.69418
3.6966
3.69841
3.69942
3.69949
3.70156
3.70555
3.71009
3.71499
3.71975
3.72367
3.72614
3.72738
3.72812
3.7289
3.729
3.73078
3.73626
3.74227
3.7471
3.75057
3.75277
3.75451
3.75818
3.7629
3.76664
3.76854
3.76876
3.76709
3.76569
3.76532
3.76557
3.76464
3.76069
3.75526
3.74987
3.74426
3.73695
3.7235
3.71141
3.69688
3.68268
3.66195
3.63454
3.60053
3.55853
3.51016
3.45472
3.40075
1
1
1
1
1
1
1
1
1
1
1
1
1
1
1
1
1
1
1
1
1
1
1
1
1
1
1
1
1
1
1
1
1
1
1
1
1
1
1
1
1
1
1
1
1
1
1
1
1
1
1
1
1
1
1
1
0.999991
0.999808
1.00155
1.02671
1.55875
2.8023
3.46911
3.62526
3.66066
3.67188
3.67773
3.68233
3.6863
3.68961
3.69217
3.69397
3.69508
3.69489
3.69474
3.69574
3.6975
3.70016
3.7037
3.70787
3.71169
3.7147
3.71684
3.71841
3.71966
3.71995
3.72298
3.72779
3.73177
3.73485
3.73708
3.73839
3.74036
3.74479
3.75001
3.75344
3.75503
3.75439
3.752
3.75104
3.75082
3.75136
3.75036
3.74564
3.73935
3.73282
3.72654
3.71759
3.70355
3.69312
3.67998
3.6648
3.64247
3.61256
3.57694
3.53499
3.48658
3.43024
3.37457
1
1
1
1
1
1
1
1
1
1
1
1
1
1
1
1
1
1
1
1
1
1
1
1
1
1
1
1
1
1
1
1
1
1
1
1
1
1
1
1
1
1
1
1
1
1
1
1
1
1
1
1
1
1
1
1
0.999996
0.999977
1.00038
1.01297
1.21372
2.29729
3.34371
3.60075
3.65283
3.66574
3.67232
3.67661
3.67991
3.68281
3.68529
3.68706
3.68799
3.68788
3.68827
3.68867
3.68884
3.68945
3.69154
3.69531
3.69988
3.70383
3.70689
3.70933
3.71101
3.7123
3.71529
3.71818
3.72016
3.72145
3.72229
3.72292
3.72581
3.7308
3.73568
3.73871
3.74024
3.73938
3.73728
3.73626
3.7359
3.73628
3.73493
3.72977
3.72297
3.71485
3.70708
3.6975
3.68477
3.67537
3.66224
3.64555
3.62107
3.5894
3.55317
3.51117
3.46242
3.40516
3.34778
1
1
1
1
1
1
1
1
1
1
1
1
1
1
1
1
1
1
1
1
1
1
1
1
1
1
1
1
1
1
1
1
1
1
1
1
1
1
1
1
1
1
1
1
1
1
1
1
1
1
1
1
1
1
1
1
0.999999
0.999998
1.00015
1.00605
1.08658
1.84219
3.04617
3.52483
3.63381
3.65869
3.66741
3.67158
3.67422
3.67663
3.67886
3.68043
3.68093
3.68069
3.68075
3.68072
3.68051
3.68004
3.68058
3.68289
3.68725
3.6919
3.69579
3.69908
3.70159
3.70401
3.70613
3.70718
3.70753
3.7076
3.70736
3.70851
3.71212
3.71645
3.71965
3.72213
3.72386
3.7238
3.72267
3.72172
3.72126
3.7209
3.71883
3.71288
3.70564
3.69598
3.68651
3.67775
3.66717
3.65739
3.64329
3.62452
3.59788
3.566
3.5296
3.48703
3.43753
3.37948
3.32041
1
1
1
1
1
1
1
1
1
1
1
1
1
1
1
1
1
1
1
1
1
1
1
1
1
1
1
1
1
1
1
1
1
1
1
1
1
1
1
1
1
1
1
1
1
1
1
1
1
1
1
1
1
1
1
1
1
0.999984
0.999791
1.00014
1.00768
1.41248
2.62615
3.4052
3.60734
3.65472
3.66537
3.66812
3.67031
3.67259
3.67459
3.67594
3.67648
3.67624
3.6757
3.6752
3.6746
3.67356
3.67307
3.67386
3.67669
3.68083
3.68491
3.68843
3.69139
3.69354
3.69454
3.69459
3.69409
3.69344
3.69275
3.69536
3.69872
3.70152
3.7032
3.70491
3.70681
3.70787
3.70772
3.70703
3.70622
3.70468
3.701
3.69408
3.68643
3.67679
3.66648
3.65876
3.64897
3.63849
3.62301
3.60207
3.57401
3.54245
3.50567
3.46202
3.4115
3.3529
3.29275
1
1
1
1
1
1
1
1
1
1
1
1
1
1
1
1
1
1
1
1
1
1
1
1
1
1
1
1
1
1
1
1
1
1
1
1
1
1
1
1
1
1
1
1
1
1
1
1
1
1
1
1
1
1
1
1
1
0.999997
0.999978
1.00016
1.00844
1.14777
2.08229
3.19944
3.55303
3.63879
3.65984
3.66531
3.66689
3.66775
3.66877
3.66952
3.66988
3.66972
3.66884
3.66744
3.66645
3.66601
3.66598
3.6664
3.66803
3.67098
3.67427
3.67713
3.67933
3.68044
3.68086
3.68048
3.6795
3.67852
3.67894
3.68201
3.68498
3.68653
3.68724
3.68822
3.69015
3.69198
3.69244
3.69172
3.68998
3.68649
3.68101
3.67495
3.66731
3.65846
3.64813
3.6397
3.62952
3.61808
3.60087
3.57866
3.55023
3.51866
3.48089
3.43587
3.38461
3.32572
3.26423
1
1
1
1
1
1
1
1
1
1
1
1
1
1
1
1
1
1
1
1
1
1
1
1
1
1
1
1
1
1
1
1
1
1
1
1
1
1
1
1
1
1
1
1
1
1
1
1
1
1
1
1
1
1
1
1
1
1.00001
0.999986
0.999956
1.00291
1.04285
1.61382
2.8206
3.44888
3.6105
3.65117
3.66165
3.66334
3.663
3.66319
3.66346
3.66338
3.66266
3.66066
3.65797
3.65666
3.65651
3.65723
3.65848
3.66016
3.66201
3.66378
3.66524
3.6661
3.66608
3.66599
3.66544
3.66457
3.66365
3.66526
3.66844
3.67089
3.67187
3.67164
3.67204
3.67399
3.67629
3.67682
3.67567
3.67201
3.66607
3.66036
3.65614
3.64903
3.64098
3.63064
3.6204
3.60918
3.59598
3.57697
3.55472
3.5265
3.4939
3.45475
3.40903
3.3572
3.29797
3.23514
1
1
1
1
1
1
1
1
1
1
1
1
1
1
1
1
1
1
1
1
1
1
1
1
1
1
1
1
1
1
1
1
1
1
1
1
1
1
1
1
1
1
1
1
1
1
1
1
1
1
1
1
1
1
1
1
1
1
0.999997
0.999991
1.0005
1.01393
1.21504
2.2772
3.31561
3.5811
3.64081
3.6564
3.66007
3.65986
3.65911
3.65869
3.65802
3.65654
3.65357
3.64987
3.64796
3.64742
3.64786
3.64906
3.65056
3.65168
3.65222
3.65256
3.65278
3.65225
3.65138
3.65049
3.64968
3.64921
3.65115
3.65398
3.6556
3.65611
3.65538
3.65568
3.65789
3.65973
3.65995
3.65791
3.65201
3.64499
3.63994
3.63691
3.63111
3.62374
3.6127
3.60077
3.5878
3.57242
3.55257
3.53097
3.50243
3.46796
3.42804
3.38225
3.32957
3.26948
3.20501
1
1
1
1
1
1
1
1
1
1
1
1
1
1
1
1
1
1
1
1
1
1
1
1
1
1
1
1
1
1
1
1
1
1
1
1
1
1
1
1
1
1
1
1
1
1
1
1
1
1
1
1
1
1
1
1
1
1
1
1
1.00014
1.00545
1.07884
1.78911
2.981
3.48553
3.6087
3.64119
3.65153
3.65369
3.65315
3.65241
3.65173
3.6507
3.64834
3.64444
3.64173
3.64035
3.6398
3.63979
3.64016
3.64052
3.64002
3.63971
3.63982
3.63936
3.63821
3.63693
3.63585
3.63589
3.63752
3.6393
3.63995
3.63974
3.6391
3.63956
3.64102
3.64152
3.64096
3.6373
3.63179
3.62547
3.62026
3.61759
3.61304
3.60547
3.59359
3.58055
3.56503
3.5483
3.52831
3.50671
3.47707
3.44119
3.40112
3.3551
3.30136
3.24027
3.17429
1
1
1
1
1
1
1
1
1
1
1
1
1
1
1
1
1
1
1
1
1
1
1
1
1
1
1
1
1
1
1
1
1
1
1
1
1
1
1
1
1
1
1
1
1
1
1
1
1
1
1
1
1
1
1
1
1
1
1
0.999997
0.999982
1.0007
1.0147
1.3411
2.48838
3.3437
3.57604
3.6296
3.64289
3.64582
3.64554
3.64519
3.6451
3.64478
3.64317
3.63966
3.63679
3.63464
3.63283
3.63138
3.63031
3.62919
3.62745
3.62683
3.62692
3.62677
3.62586
3.62427
3.62277
3.62315
3.6242
3.62485
3.62471
3.62361
3.62333
3.62369
3.6238
3.62241
3.62018
3.61646
3.61312
3.60786
3.60189
3.59818
3.59349
3.58549
3.57294
3.55912
3.54198
3.52486
3.50424
3.48119
3.45045
3.41433
3.37411
3.32725
3.27208
3.21012
3.14271
1
1
1
1
1
1
1
1
1
1
1
1
1
1
1
1
1
1
1
1
1
1
1
1
1
1
1
1
1
1
1
1
1
1
1
1
1
1
1
1
1
1
1
1
1
1
1
1
1
1
1
1
1
1
1
1
1
1
1
1
1
1.00023
1.0076
1.12014
1.94306
3.07978
3.49977
3.60394
3.63145
3.63824
3.63851
3.63735
3.63629
3.63577
3.63473
3.63277
3.63041
3.62795
3.62542
3.62309
3.62075
3.6178
3.61485
3.61388
3.61387
3.61393
3.61348
3.61188
3.61002
3.6102
3.6106
3.61035
3.60919
3.6075
3.60759
3.60793
3.60586
3.60208
3.59942
3.59697
3.5953
3.59143
3.58465
3.57857
3.57281
3.56369
3.5504
3.5368
3.51943
3.50195
3.48043
3.45483
3.42313
3.38742
3.34676
3.29862
3.24202
3.17947
3.11065
1
1
1
1
1
1
1
1
1
1
1
1
1
1
1
1
1
1
1
1
1
1
1
1
1
1
1
1
1
1
1
1
1
1
1
1
1
1
1
1
1
1
1
1
1
1
1
1
1
1
1
1
1
1
1
1
1
1
1
1
0.999992
0.99997
1.00173
1.02908
1.47291
2.64323
3.37545
3.57409
3.62258
3.63354
3.63388
3.63096
3.62728
3.62524
3.6237
3.62236
3.62103
3.61951
3.61757
3.61517
3.61189
3.60737
3.60322
3.60175
3.6013
3.60138
3.60129
3.5998
3.5977
3.59747
3.59713
3.59594
3.5935
3.59186
3.59209
3.59099
3.58603
3.582
3.57971
3.57863
3.57799
3.57481
3.56732
3.55853
3.55019
3.54034
3.52682
3.51385
3.49703
3.47916
3.45631
3.42811
3.3958
3.36054
3.31898
3.26904
3.21123
3.14847
3.07822
1
1
1
1
1
1
1
1
1
1
1
1
1
1
1
1
1
1
1
1
1
1
1
1
1
1
1
1
1
1
1
1
1
1
1
1
1
1
1
1
1
1
1
1
1
1
1
1
1
1
1
1
1
1
1
1
1
1
1
1
0.999996
0.999981
1.00023
1.00974
1.16074
2.09117
3.18052
3.52058
3.60324
3.6242
3.62767
3.6252
3.6206
3.61656
3.61388
3.61212
3.61108
3.6102
3.60873
3.60639
3.60293
3.59796
3.59272
3.59013
3.58885
3.58846
3.58851
3.5874
3.58533
3.58501
3.58412
3.58195
3.57835
3.57675
3.57572
3.57159
3.56573
3.5631
3.56154
3.56102
3.5607
3.55732
3.5488
3.53713
3.52537
3.51584
3.50272
3.49044
3.47456
3.45591
3.43091
3.4014
3.36886
3.33341
3.29033
3.23872
3.18008
3.11731
3.04593
1
1
1
1
1
1
1
1
1
1
1
1
1
1
1
1
1
1
1
1
1
1
1
1
1
1
1
1
1
1
1
1
1
1
1
1
1
1
1
1
1
1
1
1
1
1
1
1
1
1
1
1
1
1
1
1
1
1
1
1
0.999999
0.999993
1.00002
1.00323
1.05031
1.61091
2.77571
3.39833
3.56717
3.61093
3.62071
3.61951
3.61464
3.60982
3.60645
3.60411
3.60277
3.60168
3.60012
3.59772
3.59437
3.58916
3.58264
3.57882
3.5768
3.57568
3.57524
3.57399
3.57186
3.57141
3.56998
3.56721
3.56316
3.56058
3.55687
3.55108
3.54643
3.54492
3.54431
3.5435
3.54237
3.53838
3.52861
3.51443
3.50039
3.49016
3.47841
3.46708
3.4514
3.43119
3.40411
3.37515
3.34228
3.30556
3.26067
3.20797
3.14884
3.08591
3.01335
1
1
1
1
1
1
1
1
1
1
1
1
1
1
1
1
1
1
1
1
1
1
1
1
1
1
1
1
1
1
1
1
1
1
1
1
1
1
1
1
1
1
1
1
1
1
1
1
1
1
1
1
1
1
1
1
1
1
1
1
1
0.999999
1.00001
1.00068
1.01538
1.21389
2.22274
3.24247
3.52964
3.60078
3.61246
3.61205
3.60859
3.60389
3.59971
3.5969
3.595
3.59346
3.59164
3.58924
3.58567
3.57949
3.57265
3.56831
3.5656
3.56391
3.56258
3.56085
3.55826
3.55717
3.55496
3.5514
3.54705
3.54306
3.53741
3.53161
3.5281
3.5272
3.52706
3.52557
3.52213
3.51705
3.50628
3.49133
3.47664
3.46477
3.45376
3.4435
3.4268
3.40477
3.37679
3.34903
3.31568
3.27703
3.23049
3.17711