/*--------------------------------*- C++ -*----------------------------------*\
| =========                 |                                                 |
| \\      /  F ield         | OpenFOAM: The Open Source CFD Toolbox           |
|  \\    /   O peration     | Version:  2.2.x                                 |
|   \\  /    A nd           | Web:      www.OpenFOAM.org                      |
|    \\/     M anipulation  |                                                 |
\*---------------------------------------------------------------------------*/
FoamFile
{
    version     2.0;
    format      ascii;
    class       volScalarField;
    location    "2.95";
    object      Ma;
}
// * * * * * * * * * * * * * * * * * * * * * * * * * * * * * * * * * * * * * //

dimensions      [0 0 0 0 0 0 0];

internalField   nonuniform List<scalar> 
14161
(
2.62893
2.62142
2.62289
2.62335
2.62425
2.6253
2.62642
2.62764
2.62912
2.63064
2.63214
2.63377
2.63543
2.63704
2.63873
2.64043
2.64194
2.64364
2.64504
2.64624
2.64724
2.64806
2.64871
2.64919
2.64939
2.64946
2.64914
2.64861
2.64773
2.64646
2.6448
2.64244
2.63988
2.6371
2.63387
2.6287
2.62305
2.61621
2.60804
2.59418
2.58842
2.55591
2.54978
1.32291
0.542567
0.466876
0.490678
0.526003
0.56276
0.594221
0.620434
0.645416
0.666596
0.685875
0.702689
0.71703
0.729063
0.739049
0.747498
0.755096
0.76236
0.769468
0.775999
0.78197
0.787394
0.792645
0.797724
0.802271
0.806268
0.809865
0.812998
0.815703
0.81787
0.819462
0.820566
0.821415
0.821971
0.822411
0.823134
0.822988
0.823011
0.823858
0.830572
0.833207
0.835413
0.842026
0.846032
0.852987
0.859513
0.865182
0.870949
0.876159
0.881586
0.886797
0.890778
0.895442
0.900265
0.907667
0.9134
0.916066
0.94518
0.967561
0.9862
1.02738
1.06294
1.10549
1.11673
1.12192
1.12583
1.14184
1.04879
0.975816
0.783015
0.631285
0.514244
0.409077
0.316197
0.221252
0.138563
2.629
2.62144
2.62296
2.62348
2.62427
2.62517
2.62646
2.62781
2.62918
2.63058
2.63221
2.63388
2.63546
2.63705
2.63881
2.64046
2.642
2.64369
2.64509
2.64628
2.64729
2.64811
2.64878
2.64925
2.64945
2.64953
2.64924
2.6487
2.64776
2.64655
2.64469
2.64282
2.64009
2.63709
2.63363
2.62979
2.62398
2.61684
2.60958
2.59882
2.58777
2.55323
2.52986
1.40614
0.575853
0.505581
0.538998
0.566606
0.596345
0.624335
0.650835
0.675701
0.698257
0.719879
0.73722
0.753386
0.766864
0.778416
0.788343
0.797329
0.805674
0.813781
0.821291
0.828123
0.83424
0.840037
0.845657
0.85061
0.854855
0.858736
0.862364
0.865169
0.867561
0.869336
0.870641
0.871595
0.872221
0.872703
0.8732
0.873448
0.873313
0.873429
0.879681
0.881911
0.883586
0.888919
0.892652
0.898588
0.903857
0.908927
0.914031
0.918754
0.922695
0.928669
0.932205
0.93569
0.939919
0.947325
0.952913
0.954525
0.983603
1.00026
1.0272
1.06244
1.09658
1.14165
1.15192
1.15733
1.17225
1.08779
0.874472
0.671299
0.508256
0.374248
0.28956
0.224708
0.187492
0.155839
0.205202
2.62898
2.62145
2.62295
2.62345
2.6243
2.62532
2.62643
2.62761
2.62919
2.63075
2.63219
2.6337
2.63546
2.63714
2.6388
2.64047
2.64202
2.6437
2.64512
2.64633
2.64735
2.64818
2.64887
2.64928
2.6495
2.64963
2.64935
2.64879
2.64788
2.64688
2.64525
2.64306
2.64083
2.63809
2.63444
2.63055
2.62578
2.62065
2.61693
2.61332
2.61334
2.62912
2.62012
1.95945
0.690608
0.584833
0.624123
0.641568
0.660074
0.679574
0.699937
0.721479
0.739973
0.76065
0.777451
0.793616
0.807181
0.819302
0.829138
0.838509
0.846102
0.854371
0.8617
0.868159
0.873724
0.879108
0.884239
0.888188
0.891962
0.895453
0.898675
0.901365
0.90366
0.905527
0.907034
0.908165
0.909132
0.909908
0.91055
0.911007
0.911414
0.91064
0.917173
0.919416
0.920792
0.926199
0.929939
0.935533
0.940577
0.945592
0.95084
0.955401
0.959026
0.966345
0.970013
0.973966
0.978447
0.986211
0.991491
0.992297
1.02305
1.03647
1.06493
1.09557
1.12315
1.16596
1.17251
1.1576
1.10313
0.863739
0.684836
0.529411
0.427674
0.329355
0.254847
0.201741
0.187951
0.178661
0.26949
2.62899
2.62145
2.62298
2.6235
2.62428
2.62517
2.62649
2.62784
2.62919
2.63059
2.63224
2.63389
2.63548
2.63708
2.63884
2.64052
2.64211
2.64373
2.6452
2.64641
2.64747
2.64831
2.649
2.64939
2.64964
2.64981
2.64957
2.64911
2.64833
2.64714
2.6459
2.6441
2.64161
2.63898
2.63615
2.63238
2.62803
2.62365
2.6204
2.6191
2.61532
2.63465
2.61814
2.46322
0.857559
0.659744
0.695869
0.70379
0.712461
0.726935
0.742081
0.751876
0.77174
0.786141
0.800753
0.813134
0.823837
0.83275
0.840322
0.846639
0.852821
0.858285
0.862502
0.867669
0.872144
0.876284
0.880481
0.884077
0.886965
0.889874
0.892439
0.894782
0.896789
0.898514
0.900023
0.901288
0.902427
0.903313
0.904014
0.904654
0.905843
0.904699
0.91081
0.913345
0.91489
0.920731
0.925046
0.930067
0.935307
0.940532
0.945841
0.950207
0.953523
0.962435
0.966259
0.970297
0.976411
0.981371
0.986075
0.987553
1.01512
1.02958
1.05263
1.08954
1.11436
1.15557
1.15217
1.03594
0.79739
0.602534
0.46695
0.402787
0.370919
0.317782
0.264606
0.21509
0.210916
0.200998
0.306594
2.62898
2.62146
2.62292
2.62338
2.62433
2.6254
2.62648
2.62765
2.62923
2.63079
2.63224
2.63374
2.63553
2.63724
2.63888
2.64054
2.64217
2.64377
2.64527
2.64651
2.64762
2.64848
2.64922
2.64959
2.64989
2.65012
2.64993
2.64956
2.64901
2.64801
2.64655
2.64508
2.64325
2.64057
2.63771
2.63479
2.63136
2.62869
2.62765
2.63036
2.63565
2.65735
2.65832
2.47988
0.904435
0.676707
0.671977
0.687209
0.691065
0.692805
0.700047
0.708344
0.721932
0.735199
0.748131
0.760863
0.772569
0.782571
0.791047
0.799201
0.807144
0.814292
0.820703
0.826654
0.832321
0.837688
0.842512
0.846786
0.850599
0.854173
0.857495
0.860207
0.862744
0.864791
0.866474
0.867897
0.86928
0.870405
0.871544
0.872391
0.873687
0.874001
0.879407
0.882556
0.884377
0.890643
0.895462
0.90088
0.906503
0.91233
0.917701
0.922237
0.925268
0.934819
0.940004
0.944369
0.95145
0.956937
0.961156
0.963331
0.991087
1.00384
1.03829
1.06744
1.09823
1.12039
0.990171
0.740976
0.538656
0.431453
0.398069
0.372938
0.358235
0.324979
0.288245
0.240193
0.239201
0.221528
0.338806
2.62896
2.62144
2.62299
2.62353
2.6243
2.62519
2.62653
2.62789
2.62923
2.63064
2.63229
2.63394
2.63554
2.63719
2.63895
2.64062
2.64231
2.64382
2.64535
2.64665
2.64779
2.6487
2.64946
2.64981
2.65014
2.65046
2.65049
2.65012
2.64956
2.64891
2.64789
2.64631
2.6447
2.64291
2.64022
2.63766
2.63432
2.63106
2.62773
2.62419
2.61931
2.61011
2.59652
1.92973
0.683461
0.559848
0.579753
0.599255
0.61983
0.638347
0.658919
0.679599
0.702353
0.721313
0.741709
0.759662
0.775443
0.787875
0.798731
0.808672
0.817822
0.825917
0.833605
0.840628
0.846709
0.85247
0.857291
0.86202
0.866256
0.87022
0.873646
0.876872
0.879408
0.881577
0.883293
0.884804
0.886164
0.887412
0.888469
0.889184
0.889578
0.890321
0.893523
0.896337
0.898666
0.903656
0.908097
0.912185
0.917118
0.921763
0.926243
0.929682
0.932291
0.941024
0.945858
0.949685
0.956398
0.960787
0.965308
0.967914
0.995814
1.01201
1.04748
1.07907
1.10037
1.01612
0.748261
0.560001
0.437315
0.381256
0.375367
0.368091
0.358878
0.332887
0.30587
0.25921
0.260346
0.240341
0.366353
2.62891
2.62145
2.62295
2.62348
2.62433
2.6254
2.62649
2.62769
2.62925
2.63082
2.63231
2.63382
2.63556
2.63734
2.63899
2.64063
2.64241
2.64393
2.64542
2.64683
2.64802
2.64898
2.64973
2.65014
2.6505
2.65086
2.65105
2.65095
2.65058
2.64993
2.64912
2.64808
2.64692
2.64492
2.64296
2.64102
2.6382
2.63494
2.62969
2.62184
2.60949
2.58479
2.55611
1.54666
0.602633
0.525372
0.555102
0.5833
0.614256
0.640151
0.664773
0.688496
0.714046
0.735239
0.757288
0.778296
0.797495
0.812545
0.82702
0.840052
0.850567
0.860693
0.871079
0.878578
0.88772
0.894073
0.899372
0.905547
0.910883
0.915997
0.920364
0.924368
0.927028
0.92959
0.931432
0.932931
0.934019
0.935131
0.935937
0.936571
0.936232
0.935706
0.938353
0.937653
0.941168
0.943177
0.94675
0.950131
0.953392
0.956184
0.959429
0.96125
0.963374
0.969558
0.97397
0.977472
0.984147
0.987663
0.993758
0.995707
1.02375
1.04295
1.05378
1.09478
1.01795
0.769899
0.597752
0.5235
0.483858
0.439418
0.417041
0.39186
0.37116
0.345639
0.32375
0.278622
0.279955
0.258758
0.389712
2.62886
2.62142
2.62294
2.62347
2.62433
2.62535
2.62646
2.62784
2.62924
2.63072
2.63233
2.63397
2.63557
2.63734
2.63905
2.64069
2.64252
2.64406
2.64549
2.64702
2.64828
2.6493
2.6501
2.65053
2.65093
2.65139
2.65176
2.65178
2.6516
2.65122
2.65066
2.64995
2.64922
2.64775
2.6466
2.64545
2.6441
2.64206
2.63895
2.635
2.63179
2.62322
2.62348
1.92819
0.655712
0.546923
0.580207
0.61191
0.647753
0.678524
0.710146
0.738691
0.76992
0.794411
0.819942
0.845054
0.868467
0.883791
0.901485
0.917272
0.930812
0.941715
0.951128
0.963077
0.970008
0.976613
0.984151
0.990065
0.994314
0.999689
1.00437
1.00709
1.01064
1.01323
1.01481
1.01557
1.01637
1.0168
1.01654
1.01625
1.01553
1.01382
1.01442
1.01211
1.01298
1.01381
1.01355
1.01515
1.01664
1.01765
1.01863
1.01875
1.0186
1.02207
1.02435
1.02519
1.02888
1.03036
1.0365
1.03805
1.05761
1.07276
1.08407
1.0424
0.807526
0.639172
0.528575
0.509035
0.504339
0.472753
0.446964
0.415032
0.389291
0.360947
0.340265
0.296455
0.297729
0.276292
0.410995
2.62882
2.62141
2.62294
2.6235
2.6243
2.62522
2.62649
2.62785
2.62922
2.63076
2.63239
2.63398
2.63559
2.63738
2.63911
2.64077
2.64262
2.6442
2.64563
2.64721
2.64859
2.6497
2.65057
2.65109
2.65147
2.65198
2.65255
2.65288
2.65286
2.65267
2.65239
2.65205
2.65169
2.65094
2.65047
2.65005
2.64961
2.64844
2.64684
2.6418
2.63621
2.61406
2.59753
1.72879
0.606872
0.526388
0.596241
0.649804
0.701883
0.73785
0.783514
0.817357
0.852787
0.875557
0.906739
0.936142
0.943024
0.973727
0.988296
0.993096
1.01348
1.02299
1.03025
1.03087
1.0452
1.04891
1.05389
1.05921
1.06204
1.06602
1.06829
1.0698
1.07334
1.07544
1.07678
1.07837
1.07859
1.07977
1.08065
1.07979
1.08039
1.07929
1.08237
1.0803
1.08254
1.08413
1.08455
1.08629
1.08763
1.0878
1.08845
1.08795
1.08624
1.09019
1.09076
1.09089
1.09061
1.08916
1.0933
1.09028
1.10191
1.10768
1.07184
0.847665
0.678184
0.641034
0.598103
0.584626
0.560884
0.524309
0.486961
0.443556
0.410228
0.378546
0.357501
0.314554
0.314805
0.292908
0.4305
2.62875
2.62138
2.62287
2.62337
2.6243
2.62538
2.62647
2.62767
2.62923
2.63078
2.63241
2.63401
2.63563
2.63742
2.63919
2.64092
2.64268
2.64439
2.64584
2.64735
2.64894
2.65015
2.65107
2.6518
2.65211
2.65269
2.65328
2.65402
2.65422
2.65431
2.65435
2.65439
2.65436
2.65453
2.65527
2.65631
2.65796
2.66042
2.66287
2.66931
2.67873
2.70412
2.72195
2.58267
0.827489
0.602286
0.753291
0.828666
0.870725
0.882859
0.926973
0.942275
0.972496
0.972909
1.00186
1.00663
1.02306
1.04509
1.03412
1.04911
1.06179
1.06957
1.07054
1.07335
1.08082
1.08169
1.08982
1.09234
1.09418
1.0973
1.09791
1.10064
1.10236
1.10365
1.10486
1.10583
1.10677
1.1076
1.10856
1.10781
1.10878
1.10951
1.11277
1.10999
1.11417
1.11595
1.11801
1.12007
1.12311
1.12479
1.12636
1.12739
1.12794
1.1285
1.13024
1.12743
1.12567
1.1244
1.12391
1.12137
1.12293
1.05992
0.833006
0.696904
0.594211
0.609834
0.615541
0.606852
0.58332
0.553094
0.511909
0.461515
0.423948
0.39097
0.370646
0.32924
0.32943
0.307288
0.447946
2.62868
2.62133
2.62288
2.62346
2.62425
2.6252
2.62647
2.62784
2.62921
2.63064
2.63237
2.63407
2.63568
2.63742
2.63929
2.64104
2.64279
2.64458
2.64608
2.64756
2.64933
2.6507
2.65171
2.65259
2.6529
2.65354
2.65411
2.65523
2.65585
2.65615
2.65647
2.65684
2.65733
2.65816
2.65942
2.66162
2.66378
2.66635
2.67005
2.67602
2.67923
2.68945
2.68468
2.66806
1.83656
0.837247
0.916183
0.944348
0.971161
0.982938
1.00893
1.0111
1.029
1.02186
1.04833
1.02623
1.06762
1.06564
1.06877
1.06993
1.08533
1.09176
1.09104
1.09623
1.09925
1.10114
1.10817
1.10771
1.11156
1.11356
1.11456
1.11683
1.11793
1.11867
1.11872
1.11903
1.11895
1.11965
1.12081
1.11891
1.12003
1.12017
1.1233
1.12043
1.12508
1.12632
1.12814
1.13018
1.13302
1.13352
1.13361
1.13303
1.13376
1.13277
1.13412
1.13358
1.12963
1.1194
1.10617
1.07693
0.951725
0.768327
0.645235
0.561108
0.635842
0.681015
0.684692
0.665404
0.62997
0.593986
0.544536
0.484788
0.441236
0.405879
0.384722
0.343349
0.342342
0.320055
0.462859
2.62859
2.62131
2.62281
2.62335
2.62425
2.62531
2.62643
2.62766
2.6292
2.63076
2.63236
2.63399
2.63573
2.63746
2.63935
2.64117
2.64291
2.64475
2.64636
2.64787
2.64968
2.65126
2.65242
2.65341
2.65389
2.65451
2.6552
2.65619
2.65741
2.65819
2.65874
2.65938
2.66024
2.66152
2.6634
2.66637
2.6709
2.67918
2.69006
2.70938
2.74085
2.80716
2.91798
3.03577
2.02546
1.10727
1.03925
1.0115
0.968451
0.990799
0.987851
0.997647
1.00425
1.00572
1.02394
1.00466
1.04984
1.04746
1.04721
1.05129
1.06703
1.0704
1.07105
1.0785
1.07849
1.08368
1.08637
1.08769
1.08977
1.09175
1.09252
1.09617
1.097
1.09802
1.09821
1.09957
1.10029
1.10316
1.10558
1.10422
1.10828
1.10969
1.11476
1.11217
1.11775
1.12034
1.12171
1.12633
1.12939
1.13058
1.13176
1.13075
1.12938
1.12362
1.11701
1.1047
1.0844
1.04227
0.958878
0.822079
0.674865
0.570593
0.51836
0.559348
0.594505
0.669556
0.686663
0.67469
0.642748
0.607514
0.558962
0.497212
0.450968
0.416197
0.395409
0.355075
0.353717
0.331063
0.476297
2.62851
2.62125
2.6228
2.62338
2.6242
2.62516
2.62639
2.62777
2.62917
2.63065
2.63236
2.63413
2.63574
2.63746
2.63942
2.64131
2.64308
2.64491
2.64667
2.64827
2.65001
2.65184
2.65324
2.65431
2.65509
2.65558
2.65644
2.65731
2.65904
2.66019
2.66102
2.66186
2.6629
2.66428
2.66601
2.66847
2.67149
2.6751
2.6758
2.67741
2.6658
2.65987
2.54747
2.09162
1.36276
1.14879
1.02063
0.954189
0.921228
0.928939
0.935416
0.964076
0.95793
0.987078
1.00332
0.999978
1.02686
1.03705
1.03261
1.04671
1.05411
1.05901
1.06094
1.06929
1.0689
1.0742
1.07807
1.07851
1.08122
1.08291
1.08392
1.08624
1.08631
1.08746
1.08563
1.08701
1.08678
1.08951
1.09054
1.08919
1.09329
1.09392
1.09756
1.09726
1.1013
1.10315
1.10241
1.10581
1.10439
1.10197
1.0967
1.09114
1.07617
1.05566
1.02379
0.967572
0.895334
0.783375
0.676362
0.553152
0.493501
0.454058
0.525937
0.586909
0.644408
0.702935
0.718741
0.705346
0.667763
0.628828
0.576758
0.509569
0.460875
0.425841
0.405322
0.365451
0.363699
0.340475
0.487009
2.62841
2.62121
2.62272
2.62325
2.62415
2.62524
2.62636
2.62761
2.62914
2.63069
2.63231
2.63412
2.63583
2.63752
2.6395
2.64148
2.64326
2.64507
2.64701
2.64869
2.65038
2.65247
2.65404
2.65532
2.65638
2.65686
2.65783
2.65875
2.66056
2.66217
2.6633
2.66422
2.66529
2.66657
2.66821
2.66987
2.67206
2.67415
2.67548
2.67635
2.67229
2.67439
2.60628
1.54801
1.22537
1.1829
1.1363
1.01106
0.944998
0.897058
0.92844
0.950417
0.945824
0.980263
0.956639
1.00783
0.994175
1.01722
1.02155
1.02825
1.04101
1.04227
1.04822
1.05223
1.05641
1.06012
1.06345
1.06458
1.06733
1.06901
1.07087
1.07225
1.07214
1.07317
1.07104
1.07171
1.06961
1.07088
1.07172
1.0687
1.07226
1.06994
1.07046
1.06798
1.0662
1.0644
1.05617
1.05111
1.03252
1.0148
0.985761
0.947146
0.901596
0.827212
0.74903
0.66967
0.591087
0.506886
0.432477
0.417978
0.407567
0.457652
0.531124
0.599063
0.635165
0.686658
0.708929
0.700469
0.669797
0.632263
0.582262
0.516386
0.467867
0.433636
0.414214
0.374142
0.372797
0.349278
0.497627
2.62832
2.62113
2.62269
2.62328
2.62409
2.62509
2.62632
2.62766
2.62909
2.63061
2.63229
2.63411
2.63589
2.63758
2.63953
2.64165
2.6435
2.64532
2.64733
2.64918
2.6509
2.65303
2.65489
2.65635
2.65767
2.65847
2.65938
2.66052
2.6621
2.66419
2.66553
2.66659
2.66748
2.66844
2.66958
2.67081
2.67208
2.67423
2.67763
2.68392
2.69489
2.71155
2.75397
1.39021
1.18845
1.17338
1.16335
1.08517
0.981892
0.877372
0.897726
0.866384
0.918565
0.931691
0.935128
0.962817
0.949253
0.99802
0.996034
1.00248
1.02064
1.01979
1.0252
1.02945
1.03442
1.03736
1.03981
1.0411
1.043
1.04383
1.04332
1.04477
1.04301
1.04249
1.03922
1.03851
1.03423
1.03283
1.02896
1.02271
1.02223
1.00873
1.00133
0.985595
0.969155
0.946555
0.91741
0.88023
0.832047
0.77271
0.716135
0.656873
0.601416
0.541114
0.475451
0.422782
0.375004
0.375752
0.355156
0.375515
0.426646
0.468074
0.540023
0.615957
0.662478
0.710927
0.726681
0.713313
0.680787
0.638504
0.586254
0.519189
0.473176
0.440693
0.42221
0.381759
0.380588
0.35739
0.506231
2.6282
2.62108
2.62258
2.62314
2.62404
2.62513
2.62626
2.62751
2.62904
2.63065
2.63223
2.6341
2.63595
2.63766
2.63958
2.64181
2.64377
2.64563
2.64764
2.64971
2.65157
2.65357
2.65577
2.65748
2.65899
2.66025
2.66106
2.66241
2.66384
2.66629
2.66784
2.66896
2.66965
2.67014
2.6705
2.67044
2.67022
2.66878
2.66773
2.66069
2.66294
2.62486
2.40993
1.25815
1.13784
1.1317
1.12578
1.10049
1.01855
0.940126
0.884272
0.837186
0.896054
0.877335
0.929259
0.927068
0.962001
0.981409
0.967489
0.992969
1.00459
1.00231
1.00793
1.01176
1.01628
1.01383
1.01848
1.01653
1.01663
1.01659
1.01062
1.00894
1.0022
0.995601
0.986135
0.977642
0.962283
0.94789
0.930621
0.90735
0.885673
0.852732
0.817786
0.778645
0.731821
0.687104
0.642534
0.597254
0.551396
0.505225
0.457976
0.415241
0.379202
0.359631
0.343657
0.342513
0.328483
0.337439
0.362512
0.39101
0.434311
0.481127
0.546215
0.620728
0.655804
0.70026
0.714839
0.7035
0.673689
0.633893
0.583719
0.520837
0.476989
0.446601
0.429354
0.388797
0.387809
0.364929
0.51537
2.62809
2.62098
2.62252
2.62312
2.62396
2.625
2.62621
2.62753
2.62896
2.6306
2.63219
2.63405
2.63596
2.63773
2.6396
2.64196
2.64404
2.64593
2.64797
2.65028
2.65227
2.65423
2.65668
2.65871
2.66046
2.66212
2.663
2.66442
2.66586
2.66829
2.67032
2.67141
2.67194
2.67232
2.67227
2.67178
2.67068
2.66901
2.66669
2.66179
2.66116
2.62502
1.92776
1.12136
1.07528
1.08269
1.09114
1.09455
1.07558
1.04986
0.931883
0.888309
0.862766
0.87892
0.929444
0.919815
0.971914
0.964758
0.97377
0.982108
0.993436
0.986733
0.985945
0.993876
0.986048
0.980243
0.984161
0.971447
0.965452
0.954178
0.938774
0.918996
0.904117
0.876778
0.853181
0.821115
0.786567
0.747345
0.71102
0.672073
0.633179
0.597403
0.561385
0.522485
0.483951
0.446833
0.414021
0.384026
0.36271
0.347458
0.335542
0.333668
0.326494
0.321675
0.317859
0.326559
0.334069
0.352983
0.372493
0.403408
0.445471
0.489806
0.549744
0.624181
0.664736
0.704986
0.716339
0.704423
0.673035
0.630259
0.580602
0.519801
0.478897
0.451768
0.435644
0.395412
0.394314
0.372378
0.522467
2.62797
2.62091
2.62243
2.62299
2.62389
2.62496
2.62613
2.62739
2.6289
2.63054
2.63215
2.63397
2.63596
2.63783
2.6397
2.64203
2.6443
2.64631
2.64835
2.65084
2.65304
2.65513
2.6575
2.66002
2.66208
2.66395
2.66535
2.66653
2.66832
2.66996
2.67285
2.67428
2.67486
2.67498
2.67461
2.67341
2.67095
2.66574
2.65892
2.64619
2.63632
2.5998
1.53922
1.05092
1.04575
1.06177
1.07609
1.0896
1.1021
1.10093
1.04385
0.974923
0.884831
0.918499
0.888567
0.929528
0.955198
0.961139
0.956744
0.951522
0.974805
0.949863
0.947273
0.930689
0.927092
0.901545
0.883464
0.864932
0.830279
0.802241
0.761312
0.723155
0.687432
0.652092
0.615055
0.582725
0.545566
0.510867
0.476983
0.444531
0.415033
0.390986
0.370233
0.355989
0.342935
0.334427
0.32915
0.325383
0.319305
0.317237
0.311745
0.313433
0.322462
0.329789
0.32933
0.33947
0.346073
0.363303
0.384073
0.412568
0.452465
0.497023
0.552197
0.623258
0.659327
0.695757
0.708609
0.697156
0.666535
0.62349
0.574421
0.516962
0.479151
0.455534
0.440877
0.401731
0.400732
0.379947
0.530684
2.62784
2.62081
2.62234
2.6229
2.6238
2.6248
2.62604
2.62737
2.62875
2.63045
2.63214
2.63387
2.63595
2.63793
2.63982
2.64206
2.64455
2.64674
2.64882
2.65133
2.65386
2.65607
2.65841
2.66138
2.66383
2.66593
2.66793
2.66904
2.67079
2.67262
2.67512
2.67772
2.67878
2.67935
2.67961
2.6793
2.6787
2.67734
2.67618
2.67112
2.67257
2.64169
1.3797
1.05148
1.0494
1.06319
1.0763
1.08867
1.10659
1.12259
1.12468
1.09528
1.00173
0.950396
0.870291
0.965108
0.892167
0.938216
0.904555
0.889895
0.899101
0.862648
0.840583
0.806265
0.768829
0.73107
0.690225
0.652621
0.613587
0.573851
0.537402
0.500033
0.465694
0.434584
0.40745
0.384469
0.3679
0.352138
0.34031
0.330879
0.323054
0.320688
0.318455
0.31793
0.316392
0.314159
0.314136
0.317412
0.320034
0.325246
0.323634
0.325393
0.331055
0.338331
0.339388
0.349449
0.35786
0.373843
0.39384
0.421034
0.459072
0.501223
0.553768
0.623994
0.657212
0.692002
0.703534
0.691569
0.660409
0.616051
0.56749
0.513543
0.480112
0.459772
0.446328
0.408241
0.406894
0.387664
0.536335
2.62772
2.62073
2.62226
2.62284
2.62367
2.62469
2.62594
2.62726
2.62864
2.63035
2.63208
2.63379
2.63591
2.63801
2.63993
2.64209
2.6448
2.64718
2.64934
2.65179
2.65468
2.6571
2.6596
2.66264
2.66563
2.66817
2.67042
2.67208
2.67356
2.67569
2.67771
2.68143
2.68343
2.68469
2.68581
2.68688
2.68857
2.69124
2.69571
2.70193
2.71538
2.74387
1.30804
1.06901
1.06496
1.07423
1.08254
1.09012
1.10219
1.11925
1.13455
1.12911
1.09897
1.01486
0.884951
0.895528
0.806998
0.850697
0.789911
0.75781
0.725008
0.683397
0.64277
0.603709
0.561209
0.518379
0.478533
0.444839
0.417013
0.392093
0.370903
0.352783
0.338076
0.327215
0.31801
0.311988
0.309705
0.306868
0.30462
0.302263
0.301537
0.302236
0.306128
0.312967
0.318115
0.321107
0.321516
0.32559
0.327234
0.332787
0.332946
0.33525
0.340819
0.348669
0.349668
0.358702
0.367749
0.38231
0.401253
0.426631
0.462668
0.50427
0.554162
0.622509
0.653498
0.685839
0.69642
0.684851
0.653327
0.609595
0.560932
0.510564
0.479518
0.463107
0.451145
0.414248
0.412459
0.395418
0.543953
2.62758
2.62063
2.62213
2.62268
2.62357
2.62458
2.62581
2.62716
2.62853
2.6302
2.63202
2.63376
2.63581
2.63803
2.64008
2.6422
2.64498
2.6476
2.64994
2.65235
2.65538
2.65821
2.66094
2.66402
2.66753
2.67048
2.67307
2.67536
2.67676
2.67916
2.68125
2.68538
2.68902
2.69129
2.69292
2.69457
2.69601
2.69756
2.6971
2.70236
2.68944
2.57275
1.23445
1.08391
1.08033
1.08443
1.08955
1.09645
1.1038
1.1148
1.12816
1.12588
1.09101
1.01136
0.876428
0.731957
0.672033
0.661338
0.599523
0.557184
0.511053
0.475423
0.444293
0.418426
0.396255
0.378364
0.360865
0.34779
0.33772
0.330671
0.322835
0.314222
0.306471
0.300055
0.29636
0.293599
0.295834
0.299026
0.303784
0.304834
0.308376
0.310463
0.313313
0.317737
0.323897
0.329546
0.330517
0.334863
0.336713
0.342092
0.343946
0.344864
0.349858
0.357195
0.358669
0.367313
0.37617
0.390317
0.408062
0.432452
0.466381
0.505537
0.553428
0.620343
0.651402
0.681472
0.688893
0.677235
0.645438
0.600601
0.557047
0.510883
0.483296
0.46919
0.457352
0.421533
0.418551
0.403313
0.547757
2.62743
2.62052
2.62201
2.62255
2.62347
2.62445
2.62564
2.62704
2.62842
2.63002
2.63193
2.63375
2.63569
2.63802
2.64024
2.64245
2.64503
2.64795
2.65062
2.65313
2.65595
2.65929
2.66235
2.66566
2.66956
2.67288
2.67588
2.67869
2.68031
2.68297
2.68577
2.68942
2.69486
2.69837
2.70089
2.70332
2.70462
2.70711
2.70591
2.7145
2.6915
2.17282
1.18218
1.09841
1.09369
1.09177
1.09294
1.09332
1.09302
1.09099
1.09144
1.08313
1.00927
0.892651
0.685235
0.558253
0.501675
0.47032
0.44159
0.420596
0.392248
0.373421
0.35559
0.347233
0.33668
0.332722
0.324018
0.319141
0.316427
0.315329
0.316477
0.313812
0.310953
0.307215
0.305034
0.301844
0.301663
0.303113
0.307574
0.30956
0.313185
0.315928
0.31905
0.323234
0.328657
0.335417
0.337173
0.341888
0.344156
0.349508
0.353109
0.353906
0.358579
0.365872
0.367851
0.375938
0.384342
0.397684
0.414292
0.437079
0.468725
0.506484
0.55216
0.616025
0.644953
0.672808
0.683099
0.671848
0.638945
0.59614
0.550644
0.509385
0.48585
0.473665
0.461935
0.427563
0.423647
0.410909
0.554916
2.62729
2.62041
2.62188
2.62241
2.62333
2.62431
2.62546
2.62687
2.62832
2.62983
2.63179
2.6337
2.6356
2.63794
2.64037
2.64263
2.64512
2.6483
2.65126
2.65398
2.65688
2.66015
2.66358
2.66744
2.67168
2.67543
2.6789
2.68219
2.68417
2.68727
2.6908
2.69422
2.70115
2.70571
2.71036
2.71359
2.7153
2.71683
2.71411
2.7138
2.66262
1.65828
1.11927
1.09946
1.10223
1.10264
1.1031
1.09935
1.09686
1.08471
1.07502
1.02991
0.875706
0.689593
0.516902
0.434613
0.415041
0.402205
0.39118
0.382082
0.367229
0.35788
0.347447
0.342243
0.336245
0.330961
0.327644
0.325115
0.325666
0.325658
0.327145
0.327649
0.327298
0.325352
0.323694
0.320921
0.319496
0.318046
0.320244
0.321442
0.324311
0.326564
0.328972
0.332251
0.336656
0.343413
0.345576
0.350234
0.352309
0.357169
0.361685
0.362017
0.366234
0.373352
0.37585
0.383573
0.391515
0.404172
0.419659
0.441372
0.472047
0.507637
0.551995
0.6128
0.641138
0.668296
0.672731
0.661649
0.629298
0.587133
0.548582
0.511931
0.491587
0.480757
0.468906
0.435223
0.429914
0.419353
0.557432
2.62712
2.62029
2.62175
2.62227
2.62316
2.62418
2.62529
2.62668
2.62816
2.6297
2.63161
2.63361
2.63556
2.63777
2.64039
2.64287
2.64536
2.64847
2.65176
2.65497
2.65792
2.66106
2.66447
2.66939
2.67373
2.6779
2.68188
2.68564
2.68821
2.69196
2.69648
2.70074
2.70646
2.71147
2.71745
2.72334
2.73041
2.73729
2.74588
2.76396
2.76196
1.45898
1.13187
1.11391
1.11455
1.11111
1.11047
1.10447
1.0949
1.05846
1.01487
0.882899
0.66528
0.499045
0.398898
0.384348
0.377101
0.381468
0.37523
0.3745
0.366577
0.362787
0.35972
0.357844
0.357133
0.354724
0.352885
0.349943
0.349951
0.349567
0.349496
0.349914
0.349949
0.348461
0.346459
0.342958
0.339919
0.335264
0.334994
0.334418
0.336118
0.337257
0.338702
0.340784
0.34393
0.350035
0.3526
0.357071
0.358409
0.362624
0.367747
0.368192
0.372103
0.379228
0.382727
0.390506
0.398409
0.410743
0.425678
0.446329
0.475163
0.509212
0.550596
0.608134
0.63383
0.657993
0.668598
0.657603
0.624142
0.584356
0.544199
0.511464
0.495238
0.486221
0.473584
0.441274
0.434759
0.427288
0.564167
2.62694
2.62016
2.6216
2.6221
2.62298
2.62401
2.62512
2.62646
2.628
2.62954
2.63139
2.63349
2.63549
2.63762
2.64039
2.64306
2.64561
2.64854
2.65225
2.65579
2.65892
2.6621
2.66574
2.67108
2.67561
2.68015
2.68473
2.68918
2.69269
2.69704
2.70328
2.70913
2.71474
2.71915
2.72561
2.73662
2.74865
2.76174
2.78839
2.80792
2.89833
1.33277
1.13613
1.1223
1.11731
1.11041
1.1039
1.0932
1.07875
0.992326
0.871741
0.644118
0.476234
0.394341
0.373831
0.375278
0.37822
0.379085
0.381063
0.379104
0.379231
0.376677
0.377585
0.376408
0.37717
0.37608
0.375555
0.374744
0.373789
0.373197
0.37142
0.370956
0.3701
0.370266
0.369238
0.366603
0.364307
0.358411
0.355698
0.352013
0.351378
0.351284
0.351193
0.352048
0.353539
0.358323
0.360641
0.365091
0.365735
0.369444
0.375159
0.375937
0.379798
0.387008
0.391181
0.398858
0.406548
0.418311
0.432501
0.451854
0.479293
0.509801
0.548542
0.601895
0.629843
0.654291
0.658125
0.647004
0.615206
0.577679
0.544231
0.515421
0.5014
0.494294
0.481512
0.449626
0.441901
0.435927
0.565444
2.62676
2.62001
2.62143
2.62193
2.62277
2.62383
2.62491
2.62621
2.62781
2.62936
2.63117
2.63332
2.63538
2.63748
2.64031
2.64315
2.64577
2.64873
2.65264
2.65636
2.65982
2.6633
2.66739
2.67299
2.67777
2.68275
2.68714
2.69159
2.69692
2.70397
2.71015
2.71558
2.72083
2.7231
2.72643
2.72865
2.73111
2.72247
2.71947
2.66099
1.95394
1.12698
1.10005
1.10438
1.10626
1.10099
1.0898
1.05456
1.01149
0.82613
0.634031
0.459792
0.39223
0.373128
0.381442
0.384813
0.390501
0.391622
0.393706
0.392505
0.393221
0.39237
0.3936
0.393653
0.393753
0.394278
0.393717
0.394427
0.393958
0.394841
0.394244
0.393803
0.392536
0.39127
0.390974
0.389564
0.388458
0.384478
0.379675
0.373029
0.369397
0.36751
0.365887
0.365472
0.3644
0.367186
0.368904
0.3729
0.372939
0.375552
0.380785
0.382149
0.385458
0.392372
0.397326
0.404987
0.412697
0.423968
0.43786
0.45643
0.48248
0.512579
0.550996
0.599739
0.622831
0.644815
0.654639
0.6445
0.61298
0.576536
0.542066
0.515968
0.504747
0.499746
0.486778
0.455932
0.446996
0.443317
0.572231
2.62657
2.61985
2.62126
2.62174
2.62258
2.6236
2.62469
2.62598
2.62755
2.62914
2.63094
2.63312
2.63522
2.63737
2.64016
2.64315
2.64592
2.64896
2.65299
2.65684
2.66061
2.66454
2.66925
2.67497
2.68006
2.68527
2.68891
2.69393
2.70273
2.71084
2.71734
2.72297
2.7277
2.73195
2.73417
2.73833
2.7435
2.74763
2.75902
2.72881
1.53802
1.08992
1.0822
1.08958
1.09151
1.0882
1.06798
0.978159
0.858817
0.614005
0.454244
0.396461
0.38121
0.391569
0.398306
0.401395
0.406011
0.406492
0.408011
0.406864
0.40714
0.407598
0.407933
0.409323
0.408869
0.410387
0.409758
0.411229
0.41116
0.412877
0.413331
0.413534
0.413651
0.411715
0.410976
0.408707
0.407454
0.405516
0.403341
0.398082
0.392492
0.388535
0.38473
0.382927
0.379675
0.380403
0.380853
0.384198
0.384444
0.385854
0.390233
0.392024
0.394631
0.401064
0.406523
0.413959
0.421623
0.432297
0.445788
0.463329
0.488173
0.513822
0.547965
0.593673
0.620033
0.642974
0.645888
0.635614
0.60615
0.572575
0.544101
0.52063
0.51123
0.50776
0.495066
0.46479
0.454106
0.453141
0.573302
2.62637
2.61967
2.62107
2.62153
2.62235
2.62332
2.6245
2.62575
2.62724
2.62888
2.63069
2.63285
2.63502
2.63726
2.63995
2.64305
2.64598
2.64922
2.6533
2.65723
2.6609
2.66516
2.67126
2.67688
2.68224
2.68737
2.69089
2.69657
2.70609
2.71627
2.72386
2.72973
2.73487
2.74078
2.74385
2.749
2.75596
2.76303
2.79365
2.82167
1.35307
1.08996
1.08254
1.08597
1.07993
1.05246
0.99998
0.807991
0.616329
0.447907
0.398081
0.385638
0.400279
0.406442
0.413331
0.415634
0.418586
0.419321
0.419636
0.419465
0.418955
0.419944
0.41961
0.421325
0.420921
0.4228
0.422474
0.424389
0.424836
0.426904
0.428608
0.429546
0.431062
0.430732
0.430183
0.427773
0.425968
0.423532
0.422204
0.418943
0.414328
0.408971
0.402975
0.399867
0.395144
0.394552
0.392881
0.394842
0.394787
0.393895
0.396854
0.399006
0.400893
0.406822
0.41281
0.420302
0.428
0.438164
0.451042
0.467518
0.490857
0.517127
0.551581
0.593991
0.613957
0.635576
0.643807
0.634777
0.606015
0.573127
0.543065
0.521891
0.514584
0.512646
0.5004
0.471219
0.459094
0.461574
0.580086
2.62614
2.61949
2.62085
2.6213
2.62209
2.62303
2.62422
2.62548
2.62689
2.62856
2.63048
2.63255
2.6347
2.63708
2.63979
2.64279
2.64589
2.64949
2.65355
2.65756
2.66115
2.66572
2.67276
2.67867
2.68438
2.68968
2.69317
2.69952
2.70841
2.72095
2.73015
2.73773
2.74447
2.75193
2.75739
2.76177
2.7662
2.77608
2.77653
2.64183
1.24425
1.09243
1.08618
1.07389
1.05493
0.965447
0.826764
0.591116
0.443971
0.395169
0.392674
0.40536
0.414008
0.421678
0.426088
0.428953
0.430225
0.431829
0.431347
0.432082
0.43122
0.432396
0.431583
0.433198
0.432613
0.43451
0.434372
0.436261
0.437009
0.439037
0.441122
0.443151
0.444851
0.446437
0.447122
0.44562
0.443678
0.44126
0.439448
0.4369
0.43385
0.429841
0.423894
0.419947
0.413756
0.411733
0.408192
0.408781
0.408904
0.406567
0.408712
0.411126
0.412497
0.417712
0.423621
0.430683
0.437906
0.447156
0.459325
0.474868
0.497207
0.519975
0.549508
0.589206
0.613712
0.634905
0.636976
0.627864
0.601358
0.571224
0.546811
0.527351
0.521343
0.520411
0.508517
0.480124
0.466828
0.471899
0.58084
2.62589
2.61928
2.62062
2.62104
2.62182
2.62273
2.62391
2.62518
2.62655
2.62819
2.63018
2.63219
2.63425
2.63687
2.63971
2.64247
2.64555
2.64971
2.65371
2.65765
2.66129
2.66612
2.6738
2.68018
2.68615
2.69197