/*--------------------------------*- C++ -*----------------------------------*\
| =========                 |                                                 |
| \\      /  F ield         | OpenFOAM: The Open Source CFD Toolbox           |
|  \\    /   O peration     | Version:  2.2.x                                 |
|   \\  /    A nd           | Web:      www.OpenFOAM.org                      |
|    \\/     M anipulation  |                                                 |
\*---------------------------------------------------------------------------*/
FoamFile
{
    version     2.0;
    format      ascii;
    class       volVectorField;
    location    "0.55";
    object      U;
}
// * * * * * * * * * * * * * * * * * * * * * * * * * * * * * * * * * * * * * //

dimensions      [0 1 -1 0 0 0 0];

internalField   nonuniform List<vector> 
14161
(
(1.50319 0.0535896 3.79116e-22)
(1.44116 -0.00494751 -2.09098e-21)
(1.40534 -0.0426879 -4.58743e-21)
(1.43999 -0.0373103 -4.92233e-21)
(1.47201 -0.0147792 -4.76954e-21)
(1.50161 0.0233706 -5.71444e-21)
(1.51513 0.0519836 -2.50013e-21)
(1.4927 0.0597107 -4.94643e-21)
(1.46782 0.0543893 -5.57279e-21)
(1.43887 0.0425534 -7.08632e-21)
(1.40555 0.0116298 -7.37715e-21)
(1.38921 -0.0221168 -7.37308e-21)
(1.3867 -0.034297 -8.21116e-21)
(1.3906 -0.0298829 -6.86996e-21)
(1.39422 -0.0215623 -7.17935e-21)
(1.40945 -0.0078202 -6.73622e-21)
(1.426 0.0107505 -7.20927e-21)
(1.42059 0.0297207 -7.44606e-21)
(1.41376 0.0406495 -7.85374e-21)
(1.4107 0.0395666 -8.36426e-21)
(1.37996 0.0315494 -9.1679e-21)
(1.35681 0.0174601 -9.62872e-21)
(1.33433 -0.00669535 -1.02868e-20)
(1.32443 -0.0190995 -9.62909e-21)
(1.32377 -0.0202106 -1.02006e-20)
(1.32523 -0.0163198 -9.91954e-21)
(1.33797 -0.00992768 -9.85538e-21)
(1.35594 -0.00135739 -9.55109e-21)
(1.37387 0.0165273 -9.39588e-21)
(1.37891 0.0317379 -1.0378e-20)
(1.39329 0.0390548 -9.52383e-21)
(1.40156 0.0391471 -1.05697e-20)
(1.39465 0.0377742 -1.10693e-20)
(1.39165 0.0281652 -1.1614e-20)
(1.39099 0.0177285 -1.23753e-20)
(1.39516 -0.00141159 -1.30257e-20)
(1.40207 -0.0156734 -1.30748e-20)
(1.41091 -0.0184988 -1.32803e-20)
(1.42022 -0.012935 -1.35559e-20)
(1.4279 -0.00808083 -1.38277e-20)
(1.44781 0.000949958 -1.36816e-20)
(1.46282 0.00872512 -1.39803e-20)
(1.47817 0.0201635 -1.43372e-20)
(1.48917 0.0323785 -1.4565e-20)
(1.49781 0.0431787 -1.48596e-20)
(1.52647 0.0515773 -1.5149e-20)
(1.54611 0.0582314 -1.37714e-20)
(1.57437 0.0219158 -1.11171e-22)
(1.04342 -0.0224704 1.44629e-20)
(0.665074 0.0829262 2.26309e-20)
(0.551615 0.110711 2.4314e-20)
(0.4555 0.0687459 2.08781e-20)
(0.401599 0.0255376 2.86781e-20)
(0.378583 0.0118986 2.31009e-20)
(0.368167 0.00403266 1.95579e-20)
(0.369055 -0.00140857 1.55154e-20)
(0.374466 -0.000356876 1.39688e-20)
(0.379029 0.00415965 1.32017e-20)
(0.379323 0.0103865 1.36668e-20)
(0.374068 0.0159145 1.82818e-20)
(0.364639 0.0194327 2.91595e-20)
(0.353305 0.023252 3.84695e-20)
(0.339282 0.0258569 5.11968e-20)
(0.324466 0.0261703 8.03173e-20)
(0.310671 0.0225003 7.72979e-20)
(0.302094 0.0161974 7.17375e-20)
(0.296181 0.012905 8.92433e-20)
(0.292452 0.0118557 7.63455e-20)
(0.289406 0.0117181 7.57348e-20)
(0.285646 0.0126624 7.19774e-20)
(0.280588 0.0126404 6.61932e-20)
(0.275103 0.011781 6.3016e-20)
(0.26975 0.00986555 6.60434e-20)
(0.26628 0.00574478 5.67982e-20)
(0.265109 0.00218233 8.08738e-20)
(0.266242 -0.00141449 9.46132e-20)
(0.269276 -0.00612826 1.11769e-19)
(0.274251 -0.00856203 1.31883e-19)
(0.278501 -0.0102576 1.47438e-19)
(0.281567 -0.0109232 1.53562e-19)
(0.281509 -0.010167 1.46336e-19)
(0.277965 -0.00657471 1.85898e-19)
(0.2703 -0.000316062 1.78635e-19)
(0.25958 0.00511224 1.78693e-19)
(0.247719 0.00816214 2.26386e-19)
(0.236292 0.0104287 2.42287e-19)
(0.226658 0.0106952 2.34707e-19)
(0.219292 0.0113345 2.45971e-19)
(0.213737 0.0116264 2.46058e-19)
(0.209326 0.0124983 2.46655e-19)
(0.206976 0.0125199 2.28902e-19)
(0.206597 0.0123557 2.14517e-19)
(0.207472 0.0114123 1.93929e-19)
(0.210206 0.01079 1.69447e-19)
(0.213987 0.0108129 1.26521e-19)
(0.218072 0.0105152 9.55754e-20)
(0.22242 0.00959799 4.09768e-20)
(0.226392 0.00939547 -3.22032e-20)
(0.228623 0.00937291 -8.35028e-20)
(0.229072 0.0093013 -1.60266e-19)
(0.227655 0.009118 -2.2982e-19)
(0.223777 0.00872115 -3.17112e-19)
(0.216496 0.0077308 -4.44667e-19)
(0.204024 0.00599858 -5.57412e-19)
(0.191148 0.00538927 -6.51797e-19)
(0.180523 0.00718972 -8.05736e-19)
(0.171596 0.0106591 -9.33624e-19)
(0.162705 0.0134901 -1.01694e-18)
(0.151642 0.0159565 -1.05833e-18)
(0.140245 0.0151311 -1.12186e-18)
(0.128558 0.0123818 -1.05585e-18)
(0.115275 0.00777957 -8.96316e-19)
(0.0985755 0.00851809 -5.60828e-19)
(0.0740126 0.0147245 -3.31216e-19)
(0.043059 0.0204432 -1.33245e-19)
(0.0127541 0.0167004 7.0714e-20)
(-0.00496672 0.00718477 9.38998e-20)
(-0.00832502 0.00366004 -3.23031e-20)
(-0.00651303 0.000756647 6.6222e-20)
(1.42062 -0.0189579 -1.98233e-21)
(1.49737 -0.0201334 -1.87182e-21)
(1.50014 0.00625756 6.30265e-21)
(1.51139 0.0300513 5.71942e-21)
(1.44632 0.022118 5.50704e-21)
(1.407 0.0072923 4.91884e-21)
(1.40714 -0.0153601 3.23037e-21)
(1.38674 -0.0350254 1.56978e-21)
(1.40284 -0.0399782 2.45053e-21)
(1.42654 -0.0299269 2.25474e-21)
(1.46489 -0.0196458 2.75889e-21)
(1.49451 -0.00540957 3.21371e-21)
(1.47193 0.007188 5.13767e-21)
(1.47423 0.015952 2.49401e-21)
(1.42852 0.0193041 2.45533e-21)
(1.40305 0.0160255 3.28175e-21)
(1.37005 0.0058313 4.09199e-21)
(1.34606 -0.0101337 1.63892e-21)
(1.33777 -0.0178142 2.74847e-21)
(1.3439 -0.0234335 1.81631e-22)
(1.35268 -0.0226929 4.93195e-22)
(1.37659 -0.0165683 1.05198e-21)
(1.39359 -0.0159999 -5.22331e-22)
(1.39267 -0.00202258 5.96781e-22)
(1.39582 0.00729506 1.81557e-21)
(1.37414 0.0132211 1.99147e-21)
(1.35825 0.0129917 9.91209e-22)
(1.32475 0.0144934 5.8841e-22)
(1.3097 0.00764691 -5.41246e-22)
(1.30677 0.000256599 1.18679e-21)
(1.31862 -0.00975853 -6.26381e-23)
(1.33508 -0.014272 1.69886e-22)
(1.36528 -0.0166802 8.61871e-23)
(1.39111 -0.0177446 -3.67092e-22)
(1.41804 -0.0194802 -6.35995e-22)
(1.43713 -0.0208627 -1.4377e-22)
(1.44425 -0.0150671 -1.00136e-21)
(1.43765 -0.00875076 -7.76301e-22)
(1.4296 -0.00335969 -6.71077e-22)
(1.41561 0.0022123 -7.36742e-22)
(1.39691 0.00380062 -3.89874e-22)
(1.38087 0.00179989 -1.81096e-21)
(1.36943 0.00384163 4.91387e-22)
(1.36336 0.00310195 -2.20104e-21)
(1.36273 0.0020007 -6.43419e-22)
(1.35874 -0.00296619 -2.83075e-21)
(1.37992 -0.00992643 -1.2828e-21)
(1.24155 -0.0141917 -2.20475e-21)
(0.431996 -0.0184028 -1.0805e-20)
(0.347795 0.0787439 -6.93407e-21)
(0.295434 0.0936551 9.55716e-22)
(0.271745 0.0548838 2.99492e-20)
(0.259816 0.0129633 4.02931e-20)
(0.252614 -0.00142276 5.93068e-20)
(0.253717 -0.0106899 5.52378e-20)
(0.256918 -0.0160834 6.13634e-20)
(0.259968 -0.014447 4.71299e-20)
(0.260343 -0.00851693 5.50442e-20)
(0.259612 -0.00140813 6.11892e-20)
(0.258085 0.00601373 7.8616e-20)
(0.254777 0.0113141 1.17519e-19)
(0.252606 0.0167513 1.36397e-19)
(0.249703 0.0210654 1.3623e-19)
(0.24643 0.0221296 2.0228e-19)
(0.242781 0.0204396 2.40708e-19)
(0.240038 0.0172414 2.77969e-19)
(0.23534 0.0158347 3.03025e-19)
(0.231041 0.0152711 3.39577e-19)
(0.228245 0.0146841 3.53264e-19)
(0.226534 0.0156695 3.76756e-19)
(0.224287 0.0157246 3.81236e-19)
(0.222222 0.0147708 3.70536e-19)
(0.218969 0.0130825 3.4876e-19)
(0.21494 0.00964967 3.52673e-19)
(0.209996 0.00574667 3.35406e-19)
(0.204674 0.00125935 3.13057e-19)
(0.200934 -0.00474231 2.8624e-19)
(0.195556 -0.00784013 3.1558e-19)
(0.189363 -0.0105048 3.00634e-19)
(0.181031 -0.0117137 3.1583e-19)
(0.169353 -0.0115372 2.97607e-19)
(0.155496 -0.00800533 3.29942e-19)
(0.141391 -0.00238169 3.16603e-19)
(0.129794 0.00267994 2.93179e-19)
(0.119725 0.00573758 2.72631e-19)
(0.111692 0.00804251 2.29784e-19)
(0.106299 0.00810582 1.82722e-19)
(0.102688 0.00895484 1.6832e-19)
(0.0999698 0.0103697 9.67665e-20)
(0.0982321 0.0122603 -2.86128e-20)
(0.097708 0.0123908 -5.42842e-20)
(0.0982054 0.0119665 -1.57472e-19)
(0.0998469 0.0110799 -2.58918e-19)
(0.102289 0.0105656 -3.33436e-19)
(0.105413 0.0105234 -4.65684e-19)
(0.108673 0.0100709 -6.03694e-19)
(0.112568 0.00881688 -7.32783e-19)
(0.116548 0.00864961 -8.41922e-19)
(0.119123 0.00854312 -9.79851e-19)
(0.119927 0.00839389 -1.20445e-18)
(0.119204 0.00835848 -1.35379e-18)
(0.116358 0.00804654 -1.42094e-18)
(0.109205 0.00699091 -1.54509e-18)
(0.0962264 0.00575487 -1.69208e-18)
(0.0842926 0.00567427 -1.82707e-18)
(0.0767584 0.00736141 -1.88571e-18)
(0.0732063 0.0106781 -1.92984e-18)
(0.0740997 0.0140466 -1.95565e-18)
(0.0746425 0.0159623 -2.07832e-18)
(0.0761461 0.0150693 -1.99251e-18)
(0.0753874 0.0124846 -1.8137e-18)
(0.0695158 0.00795232 -1.45258e-18)
(0.0586871 0.00895788 -1.00187e-18)
(0.0427963 0.0157538 -4.62187e-19)
(0.028356 0.0243184 -4.96878e-19)
(0.0114771 0.0295646 2.06339e-19)
(-0.00274286 0.021456 2.71648e-20)
(-0.00642923 0.0101321 2.82245e-19)
(-0.00420649 0.00293285 6.39317e-19)
(1.61462 0.0191975 -5.24187e-21)
(1.40438 -0.00715573 1.11616e-20)
(1.39572 -0.0405206 2.32567e-20)
(1.43777 -0.020033 2.35021e-20)
(1.49126 -0.0107889 1.80125e-20)
(1.56441 0.00851441 1.13274e-20)
(1.59784 0.018539 8.87087e-21)
(1.57898 0.019592 9.02719e-21)
(1.52022 0.0241207 1.06084e-20)
(1.45373 0.0229809 1.07655e-20)
(1.36705 0.00927215 1.56187e-20)
(1.30124 -0.008735 1.261e-20)
(1.33652 -0.0252378 1.29891e-20)
(1.36805 -0.0216858 1.35465e-20)
(1.40147 -0.0157306 1.481e-20)
(1.45432 -0.00555955 1.35207e-20)
(1.50146 0.00310739 1.21839e-20)
(1.51538 0.00807748 1.25583e-20)
(1.47931 0.0149391 1.34133e-20)
(1.44662 0.0184952 1.24016e-20)
(1.38228 0.015942 1.12915e-20)
(1.32369 0.0125571 9.59876e-21)
(1.2851 0.000546093 1.34457e-20)
(1.26848 -0.0121503 1.07453e-20)
(1.2986 -0.0158873 7.46465e-21)
(1.31907 -0.012017 6.76692e-21)
(1.35351 -0.00882078 5.58324e-21)
(1.4028 -0.00745304 4.27512e-21)
(1.44304 0.00213407 2.79939e-21)
(1.47625 0.00792144 5.28139e-21)
(1.4654 0.0106784 4.49817e-21)
(1.43635 0.0131017 4.67223e-21)
(1.41384 0.0161764 4.35682e-21)
(1.37885 0.0132256 5.60841e-21)
(1.34843 0.00902228 6.80869e-21)
(1.32583 0.00111914 7.25323e-21)
(1.34638 -0.00974351 9.22125e-21)
(1.36036 -0.0176809 9.16804e-21)
(1.39119 -0.0183635 9.78538e-21)
(1.42123 -0.0166415 1.00083e-20)
(1.46771 -0.0177289 8.24981e-21)
(1.50327 -0.0140921 1.22572e-20)
(1.52964 -0.0028268 9.44379e-21)
(1.54768 0.00183008 7.63057e-21)
(1.55957 0.00348306 6.11699e-21)
(1.55667 0.0131321 1.09462e-20)
(1.54581 0.0128629 1.04504e-20)
(1.53449 0.0340951 -4.62293e-21)
(0.847592 0.0784609 -6.22625e-20)
(0.559634 0.115895 -4.7073e-20)
(0.461184 0.10899 -9.1939e-21)
(0.427329 0.0667003 4.2268e-21)
(0.415625 0.0213593 2.62333e-20)
(0.411328 0.00327974 2.24054e-20)
(0.411755 -0.00836911 2.97611e-20)
(0.41344 -0.0136743 2.03547e-20)
(0.415663 -0.0116114 2.96889e-20)
(0.416581 -0.0045942 2.85622e-20)
(0.418314 0.00319969 4.2367e-20)
(0.416506 0.012181 5.71291e-20)
(0.418535 0.0190882 3.72903e-20)
(0.416728 0.0264993 1.14372e-19)
(0.418392 0.0332864 6.62927e-20)
(0.417933 0.0342545 8.21799e-20)
(0.415355 0.0331769 1.23663e-19)
(0.40694 0.0320485 1.43715e-19)
(0.395802 0.0324733 1.62279e-19)
(0.381919 0.0324115 1.94662e-19)
(0.366767 0.0297623 2.11209e-19)
(0.351873 0.0286077 2.21205e-19)
(0.338597 0.0275267 2.3768e-19)
(0.326317 0.0256495 2.71858e-19)
(0.314625 0.0235025 2.63164e-19)
(0.303728 0.0202017 2.92249e-19)
(0.294783 0.0152486 2.62266e-19)
(0.287707 0.010013 3.12931e-19)
(0.284471 0.00108904 2.60977e-19)
(0.277761 -0.0039157 2.95616e-19)
(0.271537 -0.00942582 2.68769e-19)
(0.263117 -0.012325 2.9638e-19)
(0.252374 -0.0139271 2.72597e-19)
(0.239855 -0.0116772 2.74143e-19)
(0.225855 -0.00718315 2.60754e-19)
(0.213101 -0.0016854 2.68102e-19)
(0.201323 0.0027526 2.37364e-19)
(0.190805 0.00704116 2.31712e-19)
(0.181912 0.008557 2.68669e-19)
(0.174243 0.00990029 2.1463e-19)
(0.166231 0.00989789 2.42302e-19)
(0.15922 0.013237 1.7252e-19)
(0.155437 0.0147532 1.57765e-19)
(0.154557 0.0170078 1.27005e-19)
(0.15453 0.0167065 9.66828e-20)
(0.154518 0.0161967 1.00781e-19)
(0.154793 0.015915 4.30516e-20)
(0.155987 0.014924 1.16882e-19)
(0.157604 0.0131843 5.69592e-20)
(0.159917 0.0128667 4.54041e-20)
(0.161233 0.0126509 5.2019e-20)
(0.161237 0.0124382 -7.26146e-20)
(0.160071 0.0125892 -1.929e-19)
(0.1569 0.0124321 -4.22318e-19)
(0.149294 0.0115628 -7.88208e-19)
(0.135885 0.0110008 -1.21382e-18)
(0.122728 0.0114562 -1.55622e-18)
(0.113339 0.0137139 -2.00006e-18)
(0.106723 0.0165928 -2.31492e-18)
(0.101535 0.0182906 -2.86137e-18)
(0.0985498 0.0193152 -2.74634e-18)
(0.0975197 0.0179119 -2.97847e-18)
(0.0947396 0.0153733 -2.53008e-18)
(0.0859197 0.0115667 -2.27494e-18)
(0.0707092 0.0140006 -5.89707e-19)
(0.0494523 0.0211307 -2.532e-19)
(0.0296305 0.0334862 1.45786e-18)
(0.0130021 0.041947 -1.40352e-19)
(-0.00073309 0.0360237 2.25836e-19)
(-0.00254773 0.0163059 -5.55092e-19)
(-0.00228995 0.00846126 -1.92567e-19)
(1.42816 0.00318669 -6.17738e-21)
(1.57318 0.00190812 -2.23806e-20)
(1.59365 -0.0103758 -2.16949e-20)
(1.61778 0.0151082 -1.49995e-20)
(1.46455 0.0122256 -5.37475e-21)
(1.36704 0.00908403 5.88691e-21)
(1.33576 -0.000239983 2.19638e-20)
(1.3291 -0.0120571 3.27513e-20)
(1.38966 -0.0125527 3.6916e-20)
(1.44299 -0.00801247 3.25665e-20)
(1.52886 -0.00570928 1.3433e-20)
(1.56831 -0.00155895 1.98557e-20)
(1.55744 -0.00239809 9.52027e-21)
(1.54396 0.0035232 1.20183e-20)
(1.46444 0.00372986 1.86686e-20)
(1.40458 0.0068404 2.50959e-20)
(1.33654 0.00462755 3.04133e-20)
(1.29334 -0.00607477 4.40686e-20)
(1.28448 -0.0078816 2.67775e-20)
(1.3132 -0.00827304 3.85421e-20)
(1.339 -0.00770027 3.58468e-20)
(1.39883 -0.00373608 3.26999e-20)
(1.44559 -0.00475372 2.60451e-20)
(1.48341 -0.00367738 1.79535e-20)
(1.43098 -0.000342244 2.68863e-20)
(1.41272 0.00343137 2.11668e-20)
(1.36041 0.00698333 2.41749e-20)
(1.32206 0.0116674 2.83892e-20)
(1.28919 0.00912106 3.07615e-20)
(1.27409 0.00859694 2.85656e-20)
(1.28714 0.00393423 3.25565e-20)
(1.31342 -0.00158958 3.19746e-20)
(1.3659 -0.00148196 3.11439e-20)
(1.40414 -0.00454009 2.89324e-20)
(1.46187 -0.00579159 2.93931e-20)
(1.49901 -0.00825334 2.49232e-20)
(1.53134 -0.0121748 2.4149e-20)
(1.4937 -0.00940176 2.62426e-20)
(1.47789 -0.00738823 2.67591e-20)
(1.44638 -0.00580723 2.73731e-20)
(1.40907 0.00162611 2.81987e-20)
(1.3793 0.0120414 2.90209e-20)
(1.35747 0.023044 3.1744e-20)
(1.34834 0.0179906 3.09972e-20)
(1.34814 0.0188206 3.72647e-20)
(1.37949 0.0117339 3.21267e-20)
(1.38419 0.0141522 3.81312e-20)
(1.35919 0.0568501 -9.53692e-22)
(0.541218 0.147855 -6.42377e-20)
(0.407297 0.187173 -5.13997e-20)
(0.36607 0.136673 -2.53375e-20)
(0.359215 0.0716023 4.21971e-20)
(0.359078 0.0191806 2.74168e-20)
(0.373053 -0.000979817 8.01266e-20)
(0.388089 -0.0120307 9.15983e-20)
(0.402757 -0.0163855 1.29494e-19)
(0.416047 -0.0127238 1.1941e-19)
(0.425314 -0.00251481 1.20786e-19)
(0.433175 0.00728125 1.18752e-19)
(0.436394 0.0182623 1.26381e-19)
(0.441196 0.0262385 1.20781e-19)
(0.443252 0.0352947 1.15309e-19)
(0.446393 0.0444187 9.64826e-20)
(0.446868 0.0557758 1.50304e-19)
(0.447006 0.0678733 1.0865e-19)
(0.438292 0.0723829 1.21197e-19)
(0.428287 0.0772341 1.22894e-19)
(0.414617 0.082175 1.40055e-19)
(0.39676 0.0792671 1.64032e-19)
(0.377708 0.0763263 1.53743e-19)
(0.359883 0.0702377 2.36303e-19)
(0.344003 0.0642576 2.72161e-19)
(0.329484 0.0562011 2.85966e-19)
(0.314371 0.0479022 2.89274e-19)
(0.30215 0.035476 2.68401e-19)
(0.289421 0.0230017 2.68639e-19)
(0.27872 0.0109793 2.64278e-19)
(0.267311 0.00278679 2.30209e-19)
(0.25909 -0.00682164 2.19325e-19)
(0.250276 -0.0115323 2.13461e-19)
(0.241851 -0.0149115 2.11865e-19)
(0.232759 -0.0140401 2.05136e-19)
(0.222318 -0.00873007 2.21065e-19)
(0.211682 -0.000592149 2.4578e-19)
(0.20096 0.00724836 2.7663e-19)
(0.190316 0.014618 3.16541e-19)
(0.18073 0.0183066 3.03963e-19)
(0.174008 0.0210318 2.82572e-19)
(0.169155 0.0226373 2.91335e-19)
(0.166195 0.0258515 1.56711e-19)
(0.162583 0.0289045 1.75976e-19)
(0.157647 0.0302474 6.57982e-20)
(0.151709 0.0293718 7.94431e-20)
(0.14838 0.0277987 7.70168e-20)
(0.146791 0.0262417 8.33896e-20)
(0.14656 0.0238227 1.28738e-19)
(0.147977 0.0210391 1.57825e-19)
(0.150705 0.0201239 1.47197e-19)
(0.15287 0.0194332 2.28172e-19)
(0.153844 0.0185413 1.5023e-19)
(0.153504 0.018307 1.39954e-19)
(0.150912 0.0178049 7.04789e-20)
(0.143783 0.0166545 -1.44547e-19)
(0.131432 0.0162128 -3.35105e-19)
(0.119088 0.0172708 -6.86728e-19)
(0.109881 0.0199973 -9.22465e-19)
(0.103834 0.023401 -1.63188e-18)
(0.101495 0.0273855 -1.90918e-18)
(0.099084 0.0261881 -2.42947e-18)
(0.0990342 0.0234455 -2.5851e-18)
(0.0965248 0.0217899 -2.83524e-18)
(0.0889404 0.0203749 -1.66431e-18)
(0.0751913 0.02437 -6.69537e-19)
(0.0545735 0.030619 2.21888e-18)
(0.0349087 0.0434412 1.71744e-18)
(0.018567 0.0531736 2.87957e-18)
(0.00482886 0.0495225 1.57091e-18)
(0.00247285 0.0242052 -2.70962e-18)
(0.00084185 0.0164162 -1.15646e-18)
(1.62673 0.0079129 -2.18931e-20)
(1.41026 -0.00741599 4.73569e-20)
(1.3996 -0.0436539 7.01055e-20)
(1.44965 -0.0143889 7.21597e-20)
(1.52099 -0.00937774 4.32505e-20)
(1.63021 0.00516299 1.50032e-20)
(1.67873 0.0114235 2.20802e-21)
(1.62824 0.0128408 -1.89947e-22)
(1.55802 0.0147112 7.06009e-21)
(1.46074 0.0163678 1.27691e-20)
(1.33701 0.00956307 1.28393e-20)
(1.26489 -0.00177541 4.2227e-20)
(1.30351 -0.0215652 3.35765e-20)
(1.37954 -0.0219047 3.07001e-20)
(1.41933 -0.0206304 2.31893e-20)
(1.48464 -0.0104574 1.84665e-20)
(1.55258 -0.00249467 1.54042e-20)
(1.58667 0.00114727 1.48986e-20)
(1.51888 0.00746566 1.90887e-20)
(1.47893 0.0104882 6.83905e-21)
(1.39028 0.0142886 1.23773e-20)
(1.31342 0.0137559 2.06672e-20)
(1.25401 0.00765546 2.52742e-20)
(1.22022 -0.00306393 3.09617e-20)
(1.26061 -0.0134128 3.28493e-20)
(1.29577 -0.0158764 3.34123e-20)
(1.34028 -0.0125464 2.93096e-20)
(1.40252 -0.00971084 2.36101e-20)
(1.46826 -0.00964817 1.92885e-20)
(1.50901 -0.00299281 2.41408e-20)
(1.53184 -0.00205202 2.37615e-20)
(1.49258 0.00219598 2.15162e-20)
(1.46865 0.00379902 2.22546e-20)
(1.41382 0.00665761 2.17062e-20)
(1.36632 0.00886111 2.26871e-20)
(1.32674 0.00998162 2.92452e-20)
(1.30293 0.004792 2.80578e-20)
(1.31446 -0.00295708 3.2147e-20)
(1.34187 -0.011817 3.43992e-20)
(1.35971 -0.0184816 3.46383e-20)
(1.39879 -0.0199003 3.46655e-20)
(1.44311 -0.0235073 3.40432e-20)
(1.494 -0.032165 3.58516e-20)
(1.52536 -0.0338244 3.19121e-20)
(1.53732 -0.0264905 3.33198e-20)
(1.53247 -0.0136475 3.33556e-20)
(1.49648 -0.000172357 3.21844e-20)
(1.4639 0.0713099 -1.36408e-20)
(0.750199 0.220331 -3.89144e-20)
(0.504993 0.211259 -2.94279e-20)
(0.414272 0.133117 -6.36304e-21)
(0.391632 0.0481201 1.51644e-20)
(0.399233 -0.0110336 1.41729e-20)
(0.428803 -0.039159 1.91036e-20)
(0.463028 -0.0481999 3.6705e-20)
(0.49343 -0.0508691 3.58109e-20)
(0.521994 -0.0397235 5.20426e-20)
(0.546568 -0.0201695 5.92011e-20)
(0.567923 -0.00176107 1.10786e-20)
(0.583292 0.0148167 1.74917e-20)
(0.590943 0.0265581 6.9111e-21)
(0.594717 0.0371467 4.21454e-20)
(0.584546 0.0471327 3.85199e-20)
(0.568198 0.0578821 6.95761e-20)
(0.557959 0.0739865 1.29148e-19)
(0.539647 0.0845477 1.37552e-19)
(0.521308 0.0936284 2.18166e-19)
(0.501604 0.103963 2.16514e-19)
(0.474206 0.103821 2.58495e-19)
(0.446285 0.103902 2.2235e-19)
(0.418459 0.0963163 3.37937e-19)
(0.39249 0.0887097 2.53179e-19)
(0.367522 0.0799706 4.58529e-19)
(0.342399 0.0712061 3.96086e-19)
(0.318485 0.0601342 4.25622e-19)
(0.296265 0.0466027 4.42418e-19)
(0.275228 0.0325147 3.79151e-19)
(0.258927 0.0166396 4.18932e-19)
(0.248104 0.00113203 1.87913e-19)
(0.236282 -0.00851331 2.11272e-19)
(0.224656 -0.0151906 1.79192e-19)
(0.212711 -0.015022 1.68439e-19)
(0.201827 -0.00929137 1.93534e-19)
(0.19102 -0.00133671 2.08013e-19)
(0.181443 0.00751626 3.41396e-19)
(0.172763 0.0164362 3.12369e-19)
(0.163644 0.0218418 3.88084e-19)
(0.157082 0.0272812 3.10585e-19)
(0.151791 0.0307022 3.11713e-19)
(0.148702 0.0352368 1.71904e-19)
(0.145269 0.0374602 8.06237e-20)
(0.142329 0.0375795 1.02319e-20)
(0.139749 0.0374141 -7.15317e-20)
(0.138041 0.0364736 -8.36456e-20)
(0.137334 0.034991 -1.54147e-19)
(0.137925 0.032406 -1.25991e-19)
(0.139453 0.0281047 -1.93852e-19)
(0.142771 0.0259503 -1.21285e-19)
(0.145801 0.0245014 -1.39228e-19)
(0.147873 0.0232945 -1.94417e-20)
(0.148464 0.0231362 -7.12267e-21)
(0.146471 0.0223033 -1.0959e-19)
(0.140068 0.0208598 -1.89919e-19)
(0.12892 0.0204309 -2.33667e-19)
(0.117417 0.0223482 -3.17694e-19)
(0.108694 0.0258045 -3.38446e-19)
(0.103612 0.0298716 -5.87912e-19)
(0.100897 0.0328552 -7.04625e-19)
(0.0978939 0.0311059 -1.04169e-18)
(0.0968234 0.0280762 -1.39813e-18)
(0.092966 0.0265286 -1.39721e-18)
(0.0841627 0.0266042 -1.29684e-18)
(0.0699394 0.0324835 4.1673e-19)
(0.0498834 0.039504 1.56738e-18)
(0.0331364 0.0535945 3.31008e-18)
(0.0204268 0.0645304 1.53907e-18)
(0.00953317 0.0621266 -1.48672e-18)
(0.0070089 0.0339648 -4.07054e-18)
(0.00438609 0.0269773 -5.69031e-18)
(1.44632 -0.00115139 -4.63499e-21)
(1.63174 0.00352862 -1.55153e-20)
(1.65951 -0.00867699 -3.90393e-20)
(1.69652 0.00886035 -4.97019e-20)
(1.46572 0.00752663 -3.82533e-20)
(1.34701 0.0111138 -2.4452e-20)
(1.30235 0.00845485 -9.69741e-22)
(1.29197 0.00698477 3.44161e-20)
(1.35852 0.000566423 1.2078e-20)
(1.43049 -0.000757737 5.72915e-21)
(1.54761 -0.00402419 9.41984e-21)
(1.60979 -0.00234311 -1.40442e-20)
(1.59823 -0.00370587 -1.74175e-20)
(1.60406 9.3084e-05 -9.72368e-21)
(1.49607 -0.00194653 -1.28732e-20)
(1.42669 0.000996363 -6.93179e-21)
(1.33223 0.00717388 -1.76595e-20)
(1.25829 -0.000280057 1.33263e-20)
(1.23447 -0.00459893 5.94575e-21)
(1.27209 -0.00631085 -2.97098e-21)
(1.30608 -0.00201144 -3.02362e-21)
(1.37809 -0.00365541 -4.97844e-21)
(1.4564 -0.00376491 1.03862e-21)
(1.5148 -0.004241 -4.57033e-21)
(1.46439 -0.003788 -3.49069e-22)
(1.43483 0.000228929 3.02541e-21)
(1.41005 0.00106613 2.79379e-21)
(1.33924 0.00703177 1.53561e-21)
(1.29348 0.013859 8.92514e-22)
(1.26465 0.0124671 -2.49207e-21)
(1.25728 0.00469928 -6.35982e-22)
(1.27984 0.0025874 -4.25839e-21)
(1.32176 -0.00616079 -3.05687e-21)
(1.35904 -0.00656588 -2.93336e-21)
(1.43438 -0.0094399 -2.42882e-21)
(1.49447 -0.0107248 -2.09348e-21)
(1.53786 -0.00959996 4.45903e-21)
(1.57063 -0.013871 6.24168e-22)
(1.54746 -0.0128714 1.46856e-21)
(1.52715 -0.00969711 -4.77528e-22)
(1.4977 -0.00915916 -1.25514e-21)
(1.46778 -0.00620608 -2.3984e-21)
(1.44535 0.000616161 2.99675e-22)
(1.42551 0.0142694 -5.83804e-21)
(1.4046 0.0272773 3.54878e-21)
(1.43013 0.0278355 -1.0435e-20)
(1.44454 0.0329493 -8.91972e-21)
(1.5021 0.102391 1.6173e-20)
(0.899729 0.34028 1.91175e-20)
(0.570228 0.308918 9.23672e-20)
(0.497015 0.183515 9.83966e-20)
(0.49135 0.0604562 6.22051e-20)
(0.525882 -0.00534731 8.5585e-20)
(0.569364 -0.0324113 1.13402e-19)
(0.609017 -0.0390307 1.6314e-19)
(0.639765 -0.0478832 1.22038e-19)
(0.667624 -0.0380438 7.91896e-20)
(0.69716 -0.0276691 7.79649e-20)
(0.71936 -0.00361422 6.89475e-20)
(0.730884 0.0248495 4.23488e-20)
(0.741641 0.0608794 1.12975e-20)
(0.73671 0.0909459 1.92253e-20)
(0.740738 0.113972 8.26708e-20)
(0.725213 0.127802 1.1455e-19)
(0.713198 0.143222 1.54355e-19)
(0.702001 0.152986 2.34448e-19)
(0.68136 0.157965 2.66689e-19)
(0.664253 0.168888 2.97027e-19)
(0.632817 0.1698 2.94233e-19)
(0.5955 0.16883 2.59124e-19)
(0.554654 0.157285 2.67534e-19)
(0.506864 0.149185 2.75801e-19)
(0.458652 0.140076 2.67727e-19)
(0.412091 0.13023 5.70264e-19)
(0.371443 0.110137 2.98052e-19)
(0.336116 0.0864918 7.09324e-19)
(0.304034 0.0635813 3.51205e-19)
(0.277035 0.0404112 5.96182e-19)
(0.253225 0.0203646 3.43559e-19)
(0.236754 0.000386745 3.3144e-19)
(0.224601 -0.0124349 1.51984e-19)
(0.210438 -0.0166104 1.728e-19)
(0.198306 -0.013024 -5.23341e-20)
(0.187991 -0.00446668 1.50592e-20)
(0.17884 0.00599694 9.70421e-20)
(0.169908 0.0169865 2.18101e-19)
(0.162267 0.0261543 2.58254e-19)
(0.158305 0.0356332 3.23421e-19)
(0.153609 0.040374 2.87847e-19)
(0.151254 0.0460897 1.75239e-19)
(0.147564 0.0481918 -2.87598e-20)
(0.144521 0.0483776 -1.99026e-19)
(0.142145 0.0485993 -3.86566e-19)
(0.140286 0.0473071 -4.9671e-19)
(0.138868 0.045225 -5.41245e-19)
(0.138372 0.0415622 -6.46448e-19)
(0.138792 0.0361694 -6.5037e-19)
(0.141536 0.0324286 -7.03445e-19)
(0.145596 0.030578 -6.38314e-19)
(0.148171 0.029128 -7.46828e-19)
(0.149559 0.0291757 -6.34434e-19)
(0.14825 0.0283233 -8.16033e-19)
(0.141454 0.0266963 -8.51718e-19)
(0.129556 0.0255537 -1.0369e-18)
(0.11833 0.0275725 -1.0006e-18)
(0.109846 0.0315744 -1.0882e-18)
(0.105136 0.0361693 -1.13894e-18)
(0.101272 0.0386919 -1.17472e-18)
(0.0970883 0.0367119 -1.3543e-18)
(0.094781 0.0328308 -1.55912e-18)
(0.0894693 0.0316515 -1.46734e-18)
(0.0793984 0.0329298 -1.09406e-18)
(0.0655583 0.0407311 -7.21447e-19)
(0.0469645 0.0478667 7.70979e-19)
(0.0317202 0.0613265 1.8578e-18)
(0.0217274 0.0731893 -1.09086e-18)
(0.0129037 0.0729142 -1.37683e-18)
(0.00924362 0.0439754 -3.64679e-18)
(0.00800768 0.0393236 6.30844e-19)
(1.62042 0.00165898 1.87907e-21)
(1.41954 -0.00607455 7.90323e-21)
(1.40468 -0.0273225 1.0061e-20)
(1.44821 -0.0136941 6.9457e-21)
(1.52441 -0.0133306 1.28092e-20)
(1.6549 -0.00152113 1.12443e-20)
(1.70622 0.0084081 -1.61713e-20)
(1.65371 0.0146599 2.24282e-21)
(1.5782 0.0127763 -6.69352e-21)
(1.47773 0.0144189 -6.89779e-21)
(1.33989 0.00794481 -1.25956e-20)
(1.26683 0.00149941 -1.53845e-20)
(1.27653 -0.0164119 -8.31054e-21)
(1.38212 -0.0254474 -2.59569e-20)
(1.40904 -0.026459 -4.55316e-20)
(1.47805 -0.0208831 -4.29121e-20)
(1.56604 -0.0107498 -1.08486e-20)
(1.60084 -0.00106449 -1.87872e-20)
(1.55102 0.00593179 -1.11946e-20)
(1.50189 0.00861352 1.38614e-21)
(1.4279 0.00994753 -4.48613e-21)
(1.33216 0.00815778 -1.5436e-20)
(1.25362 0.0114899 -2.85456e-20)
(1.20899 0.00294474 -3.56224e-20)
(1.20553 -0.00905927 -5.59213e-20)
(1.25831 -0.0204623 -5.14816e-20)
(1.3039 -0.0242751 -4.61815e-20)
(1.36254 -0.0175558 -3.50304e-20)
(1.44223 -0.0193125 -2.42158e-20)
(1.50751 -0.0260626 -2.836e-20)
(1.54258 -0.0112602 -8.88847e-21)
(1.56422 -0.00721811 -1.27327e-21)
(1.52626 -0.00404593 -1.04456e-20)
(1.47289 -0.000570586 -1.45337e-20)
(1.4198 -0.00139549 -2.10203e-20)
(1.36516 0.00517906 -2.72176e-20)
(1.31556 0.0146744 -2.62353e-20)
(1.28081 0.0128153 -4.66047e-20)
(1.26827 0.00852529 -5.7001e-20)
(1.29533 -0.00366025 -6.33062e-20)
(1.32034 -0.0162408 -6.39526e-20)
(1.34478 -0.0214554 -7.70989e-20)
(1.39138 -0.0190512 -7.10505e-20)
(1.43799 -0.0207727 -7.21971e-20)
(1.47481 -0.0212385 -6.83198e-20)
(1.49351 -0.0242754 -5.98119e-20)
(1.49726 -0.015293 -6.64374e-20)
(1.51541 0.0320959 -5.443e-20)
(1.30517 0.338512 1.53067e-19)
(0.654116 0.339271 3.97476e-19)
(0.614879 0.109773 5.46494e-19)
(0.606974 -0.0238135 7.16661e-19)
(0.655482 -0.0702574 6.2324e-19)
(0.700662 -0.0859953 7.70674e-19)
(0.741169 -0.0926899 7.76375e-19)
(0.771269 -0.0750206 7.99571e-19)
(0.797364 -0.0534126 7.87856e-19)
(0.826493 -0.0278272 7.1722e-19)
(0.831482 0.000169441 6.54548e-19)
(0.856766 0.0347799 6.25685e-19)
(0.86097 0.0631649 6.14397e-19)
(0.887872 0.0928708 6.43435e-19)
(0.89145 0.120217 6.58888e-19)
(0.911759 0.140668 6.46351e-19)
(0.905127 0.161112 6.03175e-19)
(0.915634 0.176117 5.90758e-19)
(0.90254 0.190478 5.51434e-19)
(0.896909 0.201711 5.646e-19)
(0.874152 0.211407 5.74504e-19)
(0.83736 0.217437 6.08411e-19)
(0.7881 0.220543 5.34405e-19)
(0.735048 0.225119 5.53124e-19)
(0.681839 0.215418 4.18306e-19)
(0.623618 0.191105 5.63251e-19)
(0.559435 0.168901 5.05075e-19)
(0.498331 0.141986 5.35156e-19)
(0.441243 0.116242 6.97357e-19)
(0.393174 0.0824358 5.78084e-19)
(0.351232 0.0468143 6.72918e-19)
(0.316449 0.0188503 5.21535e-19)
(0.287373 -0.000330321 4.84533e-19)
(0.263651 -0.012495 3.68889e-19)
(0.243508 -0.014262 2.83859e-19)
(0.228001 -0.00927159 1.45458e-19)
(0.216106 0.000576582 1.38815e-19)
(0.204569 0.0140322 2.06046e-19)
(0.193444 0.0264895 1.98848e-19)
(0.185361 0.0384836 4.86835e-19)
(0.177794 0.0447839 3.51858e-19)
(0.173467 0.0512731 5.64302e-19)
(0.168794 0.0543626 8.01473e-20)
(0.164476 0.0551267 -3.8027e-20)
(0.160788 0.0554512 -4.1897e-19)
(0.157836 0.0544503 -7.48957e-19)
(0.154585 0.0531369 -1.0246e-18)
(0.152042 0.0493858 -1.10919e-18)
(0.150272 0.042196 -1.26344e-18)
(0.150661 0.0365175 -1.55193e-18)
(0.153265 0.0345268 -1.39956e-18)
(0.155045 0.0331485 -1.29653e-18)
(0.156304 0.0334961 -1.37491e-18)
(0.154319 0.033436 -1.38702e-18)
(0.147382 0.0319277 -1.71258e-18)
(0.134833 0.0301984 -1.94331e-18)
(0.122903 0.0320543 -2.08579e-18)
(0.114105 0.0370803 -2.02757e-18)
(0.109248 0.0426972 -1.82282e-18)
(0.103739 0.045552 -1.60226e-18)
(0.0978258 0.0438188 -1.70456e-18)
(0.0933255 0.0392923 -1.30973e-18)
(0.0855763 0.0383669 -1.73054e-18)
(0.0739128 0.0400265 -1.29028e-18)
(0.0602583 0.0485801 -1.65273e-18)
(0.0432755 0.0560756 -7.01331e-19)
(0.0288982 0.0682094 -1.16033e-18)
(0.0210431 0.0807225 -2.07159e-18)
(0.0145789 0.0824644 -1.11106e-17)
(0.0101812 0.0532047 -4.00645e-18)
(0.0104591 0.0523651 4.86242e-18)
(1.46101 -0.012693 5.58529e-21)
(1.6636 -0.00114598 4.69202e-20)
(1.70189 0.00270967 3.54648e-20)
(1.74655 0.00835916 -9.8984e-21)
(1.48124 0.0053861 -3.46428e-20)
(1.3518 0.0117808 -6.83035e-20)
(1.29364 0.00717983 -7.99239e-20)
(1.2607 0.00985538 -1.22561e-19)
(1.33359 -0.00759078 -1.13239e-19)
(1.41342 -0.00223189 -8.74867e-20)
(1.54353 -0.00705055 -3.22397e-20)
(1.63291 -0.00325105 -2.265e-20)
(1.64069 -0.000838157 9.29592e-21)
(1.65624 0.00168809 3.84879e-20)
(1.53431 -0.000655335 3.14707e-20)
(1.46838 -0.00453768 2.90689e-21)
(1.35471 0.00310443 -2.03393e-20)
(1.25439 0.00278323 -9.84822e-20)
(1.20051 -0.00893703 -1.3762e-19)
(1.24266 -0.0210468 -1.1588e-19)
(1.28555 -0.0116901 -1.1486e-19)
(1.35227 -0.0170248 -9.62368e-20)
(1.46241 -0.0085755 -6.32212e-20)
(1.52391 -0.00640783 -1.26425e-20)
(1.54085 -0.00115865 7.27118e-21)
(1.50948 -0.00177874 -1.70287e-20)
(1.45619 -0.00245565 -2.7171e-20)
(1.4313 0.000851504 -3.61699e-20)
(1.35537 0.00325155 -4.4728e-20)
(1.30976 0.00954949 -6.78963e-20)
(1.27629 0.0113504 -8.6393e-20)
(1.2643 -0.000216339 -1.02548e-19)
(1.28421 -0.00827823 -1.22817e-19)
(1.31488 -0.0187237 -1.13145e-19)
(1.35839 -0.0176914 -1.15183e-19)
(1.42888 -0.0214714 -1.14332e-19)
(1.51933 -0.0212551 -9.60705e-20)
(1.5751 -0.0179213 -1.04105e-19)
(1.61168 -0.0233113 -7.36887e-20)
(1.63812 -0.0155804 -6.31091e-20)