/*--------------------------------*- C++ -*----------------------------------*\
| =========                 |                                                 |
| \\      /  F ield         | OpenFOAM: The Open Source CFD Toolbox           |
|  \\    /   O peration     | Version:  2.2.x                                 |
|   \\  /    A nd           | Web:      www.OpenFOAM.org                      |
|    \\/     M anipulation  |                                                 |
\*---------------------------------------------------------------------------*/
FoamFile
{
    version     2.0;
    format      ascii;
    class       volScalarField;
    location    "1.55";
    object      T;
}
// * * * * * * * * * * * * * * * * * * * * * * * * * * * * * * * * * * * * * //

dimensions      [0 0 0 1 0 0 0];

internalField   nonuniform List<scalar> 
14161
(
0.992906
0.9947
0.994243
0.993956
0.993523
0.992994
0.992404
0.99175
0.990953
0.990093
0.98917
0.988181
0.987181
0.986084
0.984906
0.983825
0.982755
0.981437
0.980417
0.979465
0.978188
0.977229
0.976507
0.975874
0.975139
0.974527
0.974046
0.973603
0.97339
0.973376
0.973471
0.973662
0.974179
0.974949
0.975877
0.977208
0.978838
0.980945
0.982777
0.985658
0.988875
0.992939
0.99773
1.00548
1.00971
1.03651
1.02225
2.2828
2.93709
3.06682
3.01759
2.98127
2.95051
2.92528
2.90153
2.88179
2.8588
2.83472
2.81013
2.78657
2.76256
2.74188
2.72301
2.7056
2.69179
2.68133
2.67408
2.66845
2.6636
2.66098
2.66034
2.65735
2.65309
2.65135
2.65172
2.6462
2.64147
2.64149
2.63466
2.63014
2.62749
2.62534
2.62336
2.62909
2.61836
2.6091
2.60465
2.59499
2.58869
2.58032
2.58811
2.56638
2.55685
2.53087
2.48388
2.44961
2.39424
2.33775
2.29229
2.27878
2.27948
2.23737
2.39508
2.52456
2.72253
2.85398
2.94835
3.00332
3.03824
3.06391
3.08408
3.10227
3.11768
3.13337
3.14659
3.16367
3.1836
3.19999
3.24066
0.992878
0.994709
0.994223
0.993913
0.993531
0.993066
0.9924
0.991676
0.990947
0.990163
0.989153
0.98815
0.987176
0.986037
0.984873
0.9838
0.982717
0.981437
0.980405
0.979417
0.978181
0.977214
0.976478
0.975848
0.975115
0.974488
0.974021
0.973591
0.973363
0.973334
0.973386
0.973659
0.974152
0.974876
0.97583
0.976948
0.978609
0.980468
0.982972
0.985291
0.988059
0.991496
0.995487
0.999809
1.00332
1.00881
1.02481
2.10437
2.94686
2.995
2.95013
2.92128
2.88985
2.85986
2.83017
2.80103
2.77194
2.74345
2.71198
2.68562
2.66111
2.63678
2.61525
2.59726
2.58147
2.56936
2.56247
2.55726
2.55346
2.54981
2.54903
2.54842
2.54615
2.5457
2.54902
2.54439
2.54213
2.54158
2.53613
2.53233
2.52869
2.52556
2.52222
2.52662
2.51478
2.50701
2.50515
2.49803
2.49367
2.48909
2.50172
2.48341
2.47409
2.44938
2.41277
2.37197
2.32448
2.27828
2.22518
2.21981
2.20649
2.23434
2.60398
2.76107
2.94727
3.0562
3.11388
3.15237
3.18252
3.20451
3.21882
3.23016
3.23843
3.24736
3.25377
3.25771
3.25597
3.2363
3.24142
0.992898
0.994701
0.994245
0.993962
0.993519
0.992984
0.99243
0.99181
0.990936
0.990061
0.989186
0.988276
0.987167
0.98602
0.98491
0.983815
0.982708
0.981479
0.980422
0.979375
0.978205
0.977223
0.976463
0.975829
0.975097
0.974466
0.973946
0.973525
0.97329
0.973238
0.973314
0.973518
0.973918
0.974608
0.975563
0.976677
0.978275
0.979792
0.982096
0.984485
0.987425
0.990556
0.993759
0.995201
0.99647
0.981549
0.992635
1.13513
2.65754
2.80454
2.78698
2.7882
2.77549
2.76691
2.74499
2.72675
2.70324
2.68299
2.65868
2.63505
2.61585
2.59685
2.58118
2.5668
2.55573
2.54648
2.54178
2.53946
2.53848
2.53818
2.53953
2.54064
2.53948
2.5412
2.54509
2.54064
2.54
2.53958
2.5359
2.53343
2.53153
2.52973
2.52606
2.52995
2.51948
2.51232
2.51427
2.50767
2.50796
2.50873
2.52233
2.50512
2.49398
2.47698
2.43786
2.3975
2.34915
2.29194
2.25056
2.25397
2.2762
2.57664
2.73437
2.93345
3.04448
3.11638
3.17725
3.2208
3.24672
3.25645
3.26388
3.2671
3.2716
3.27445
3.27377
3.26735
3.26044
3.23721
3.21383
0.992892
0.994709
0.994216
0.993908
0.993527
0.993067
0.992402
0.991686
0.990956
0.990175
0.98916
0.988139
0.987166
0.98613
0.984906
0.983754
0.982648
0.981529
0.980374
0.979296
0.978224
0.97722
0.976405
0.975743
0.97502
0.974364
0.973851
0.973433
0.973199
0.973102
0.973114
0.973299
0.973647
0.974219
0.974998
0.976069
0.977427
0.979223
0.980962
0.982948
0.985515
0.987661
0.989167
0.988116
0.986849
0.971517
0.98011
1.6497
2.80606
2.89553
2.87139
2.86826
2.85863
2.85218
2.83365
2.8169
2.79389
2.77232
2.75022
2.72496
2.70821
2.68742
2.67361
2.65726
2.64722
2.63614
2.63273
2.62714
2.62721
2.62422
2.62407
2.62494
2.6218
2.61845
2.62273
2.6157
2.61055
2.60634
2.6006
2.59451
2.58846
2.58436
2.58007
2.58227
2.57344
2.56422
2.56067
2.55281
2.54759
2.54358
2.55204
2.52857
2.50659
2.49025
2.44636
2.40377
2.36079
2.31674
2.27952
2.2993
2.60021
2.77714
2.96516
3.02649
3.09747
3.13202
3.16957
3.21916
3.25304
3.26872
3.2786
3.28439
3.28575
3.27995
3.27306
3.25876
3.24907
3.2238
3.19932
0.992903
0.994702
0.994245
0.993962
0.993517
0.992979
0.992426
0.991806
0.990934
0.990054
0.989188
0.988266
0.987132
0.986012
0.984945
0.983848
0.982631
0.981508
0.980376
0.979241
0.97823
0.977226
0.97633
0.975647
0.974929
0.97424
0.973714
0.973281
0.97301
0.972856
0.972831
0.972928
0.973225
0.973643
0.974313
0.975181
0.976252
0.977816
0.979747
0.981874
0.984356
0.98816
0.991553
0.99693
1.00076
1.00911
1.01859
1.99907
2.87832
2.97682
2.94857
2.93648
2.91156
2.89506
2.87151
2.84887
2.82034
2.79289
2.77053
2.74474
2.72075
2.70229
2.68657
2.66949
2.65983
2.64532
2.64259
2.63731
2.63795
2.63477
2.63416
2.63663
2.63283
2.62917
2.6332
2.6262
2.62161
2.6153
2.61373
2.60574
2.59932
2.59623
2.59182
2.59385
2.5864
2.5781
2.57599
2.56882
2.56534
2.56493
2.57044
2.54798
2.52829
2.50589
2.45852
2.41474
2.36325
2.34437
2.30947
2.61368
2.82209
3.01028
3.06392
3.09058
3.12053
3.14281
3.16855
3.20464
3.23671
3.25556
3.27022
3.28009
3.2832
3.27872
3.27141
3.25877
3.2451
3.21661
3.18731
0.992907
0.994711
0.994218
0.993913
0.993533
0.993068
0.992397
0.991675
0.990952
0.990167
0.989164
0.988124
0.987126
0.986103
0.984908
0.983699
0.982611
0.981519
0.980333
0.979169
0.978195
0.977211
0.976231
0.975488
0.974845
0.974128
0.973532
0.973066
0.97275
0.972538
0.972463
0.972489
0.9726
0.972875
0.97337
0.97401
0.974799
0.975792
0.977465
0.97932
0.981666
0.984475
0.98796
0.9942
0.998288
1.00764
1.01288
2.16956
2.92316
3.03
2.9908
2.97822
2.94627
2.92092
2.89293
2.86451
2.83
2.80055
2.7665
2.74397
2.71349
2.69527
2.67197
2.65962
2.64354
2.63791
2.62898
2.62728
2.6244
2.62193
2.61669
2.61785
2.61646
2.61334
2.6107
2.61317
2.60527
2.59617
2.59748
2.58726
2.58108
2.57767
2.57455
2.57195
2.56798
2.5619
2.55901
2.55276
2.55139
2.55266
2.55791
2.535
2.52124
2.4881
2.44264
2.4074
2.37131
2.32593
2.48913
2.78354
2.89943
3.00745
3.0544
3.11098
3.13605
3.14484
3.16002
3.18563
3.21345
3.23508
3.25421
3.26925
3.27697
3.27474
3.27052
3.26088
3.2456
3.21377
3.18398
0.992921
0.99471
0.994244
0.993952
0.99352
0.992971
0.992396
0.991747
0.990937
0.990047
0.989176
0.988226
0.987102
0.986022
0.984958
0.983706
0.982564
0.981519
0.980334
0.97912
0.978181
0.977221
0.976135
0.975332
0.974705
0.973997
0.973307
0.972816
0.972423
0.972173
0.971999
0.971893
0.971899
0.971936
0.972113
0.972609
0.97303
0.973695
0.974754
0.976438
0.978696
0.981927
0.987038
0.995258
1.00161
1.01703
1.01819
2.14654
2.91853
3.04596
3.00168
2.98088
2.94767
2.92289
2.8851
2.84684
2.80757
2.76311
2.73407
2.69507
2.66643
2.64256
2.61963
2.60741
2.59068
2.57934
2.57168
2.56998
2.56793
2.56392
2.5594
2.55455
2.55425
2.55327
2.54678
2.55224
2.5437
2.53655
2.53813
2.52906
2.52456
2.52248
2.52026
2.51863
2.52157
2.51318
2.51315
2.50719
2.50775
2.50706
2.51926
2.49236
2.48842
2.44824
2.41275
2.40017
2.32126
2.47021
2.71459
2.94564
3.00429
2.95867
3.02407
3.07452
3.13162
3.15499
3.15621
3.17097
3.1934
3.21446
3.23764
3.25602
3.26808
3.26877
3.27194
3.26618
3.25085
3.21564
3.18002
0.992928
0.994725
0.99425
0.993951
0.993518
0.992976
0.992395
0.991712
0.990921
0.990087
0.989169
0.988191
0.987096
0.986026
0.984963
0.983696
0.982548
0.981509
0.980308
0.979063
0.978123
0.977187
0.976033
0.975141
0.974519
0.973868
0.973105
0.972488
0.97205
0.971695
0.971431
0.9712
0.970994
0.970814
0.97071
0.970674
0.970719
0.970757
0.970963
0.97131
0.97154
0.972383
0.974519
0.980631
0.983933
1.00372
0.990321
2.11316
2.9388
3.08109
3.03216
2.97534
2.9079
2.86876
2.80369
2.75969
2.70805
2.66309
2.61643
2.58747
2.54514
2.52721
2.50655
2.48425
2.47768
2.46883
2.45912
2.45979
2.45585
2.45106
2.44631
2.44151
2.43704
2.43813
2.43205
2.43487
2.43016
2.42779
2.42774
2.42164
2.42074
2.42027
2.41951
2.42135
2.4236
2.42081
2.4228
2.42183
2.42098
2.42544
2.43449
2.41842
2.41271
2.39812
2.36796
2.32783
2.39095
2.6621
2.80942
2.84994
2.93805
2.94526
2.99409
3.04645
3.11365
3.15272
3.1613
3.16738
3.18141
3.19936
3.22145
3.24183
3.25603
3.26199
3.27279
3.26815
3.2576
3.21969
3.17598
0.992944
0.994738
0.994244
0.99393
0.993538
0.993059
0.99241
0.991697
0.990956
0.990073
0.989176
0.988211
0.987097
0.986026
0.984982
0.983697
0.982519
0.981478
0.980278
0.979006
0.97804
0.977105
0.975932
0.974966
0.974253
0.973602
0.972885
0.972125
0.971596
0.97113
0.970729
0.970398
0.970056
0.969597
0.969171
0.968773
0.96832
0.967761
0.967299
0.966666
0.966026
0.965293
0.963994
0.964849
0.967421
0.979165
0.985677
1.98041
2.92411
3.09913
2.89041
2.7717
2.72893
2.68297
2.61534
2.59155
2.52805
2.50889
2.46917
2.43325
2.40422
2.39066
2.37181
2.36404
2.35162
2.33983
2.34243
2.33983
2.33879
2.33737
2.33518
2.33119
2.32904
2.32981
2.32465
2.32577
2.3241
2.32185
2.32099
2.31742
2.31586
2.31587
2.31659
2.31852
2.32508
2.32152
2.32367
2.32632
2.32788
2.33778
2.34913
2.3587
2.34783
2.35012
2.31909
2.35358
2.62512
2.75021
2.89973
2.8257
2.8516
2.90633
2.96461
3.03832
3.10397
3.15687
3.17794
3.1751
3.1766
3.18855
3.20726
3.22832
3.24432
3.25322
3.26935
3.26804
3.2639
3.22688
3.17332
0.992967
0.99475
0.994259
0.993964
0.993533
0.992994
0.992419
0.99177
0.990969
0.990071
0.989174
0.988234
0.987098
0.986014
0.984965
0.983708
0.982502
0.981424
0.980229
0.978965
0.977951
0.976965
0.975825
0.974806
0.973955
0.973318
0.972626
0.971749
0.971031
0.970474
0.969915
0.969451
0.969041
0.968472
0.967583
0.96664
0.965576
0.964119
0.962099
0.959093
0.956512
0.952109
0.94523
0.933871
0.921565
0.888191
0.854786
0.837904
1.97449
2.76797
2.57881
2.53591
2.50809
2.48685
2.45925
2.4515
2.41357
2.43013
2.37101
2.33709
2.37967
2.30914
2.29176
2.31853
2.28549
2.28436
2.29045
2.27974
2.28128
2.27908
2.27842
2.27532
2.27394
2.2701
2.27451
2.26998
2.27476
2.27213
2.27168
2.27078
2.26833
2.2684
2.2678
2.27069
2.27253
2.27017
2.27474
2.27742
2.28012
2.29138
2.30002
2.3079
2.31867
2.33263
2.46039
2.61626
2.758
2.72599
2.79252
2.79735
2.79942
2.85769
2.92127
3.00683
3.08001
3.1423
3.17325
3.18101
3.17783
3.18346
3.19723
3.217
3.23231
3.24229
3.25921
3.26344
3.26513
3.23121
3.16712
0.992986
0.994764
0.994276
0.993976
0.993529
0.993041
0.992422
0.991709
0.990976
0.99014
0.989167
0.988232
0.987125
0.986012
0.984947
0.98373
0.982482
0.981368
0.98019
0.978944
0.977836
0.976798
0.975744
0.974628
0.973667
0.972903
0.972227
0.971438
0.970464
0.969723
0.969025
0.96843
0.968001
0.967403
0.966434
0.965037
0.963548
0.961726
0.959179
0.95556
0.951687
0.945603
0.938043
0.925606
0.908775
0.883142
0.853379
0.953996
1.69382
2.46608
2.56737
2.47211
2.45937
2.42647
2.42652
2.40359
2.43642
2.37422
2.36873
2.34896
2.32901
2.32721
2.29502
2.29517
2.28515
2.27947
2.28256
2.27917
2.28036
2.2786
2.2787
2.27992
2.28153
2.28078
2.28602
2.2862
2.28833
2.28798
2.28499
2.2855
2.28292
2.28008
2.27898
2.2857
2.28589
2.2846
2.28916
2.29213
2.29985
2.30933
2.35834
2.38363
2.46476
2.6013
2.72904
2.79361
2.91657
2.78632
2.73033
2.76771
2.79631
2.8377
2.89894
2.99352
3.07159
3.13578
3.17254
3.18841
3.1864
3.18295
3.18922
3.20607
3.21957
3.2303
3.24931
3.2557
3.26152
3.23122
3.16303
0.993007
0.994776
0.994284
0.993972
0.993568
0.993054
0.992419
0.991745
0.990996
0.990131
0.989181
0.988244
0.987159
0.986013
0.98493
0.98376
0.982473
0.981295
0.980135
0.97895
0.977715
0.976635
0.9756
0.974421
0.973345
0.972435
0.971855
0.971099
0.969888
0.968917
0.968164
0.967391
0.966665
0.96619
0.965357
0.963486
0.96158
0.959232
0.956113
0.952362
0.948461
0.943342
0.941077
0.933732
0.930851
0.914127
0.977432
1.33309
1.94359
2.26155
2.3763
2.46737
2.4571
2.47273
2.44341
2.42045
2.44883
2.39574
2.37377
2.37478
2.34192
2.33373
2.31342
2.30462
2.2933
2.29011
2.28795
2.28568
2.28495
2.2835
2.28785
2.29074
2.29427
2.29556
2.29905
2.30401
2.30631
2.30871
2.3095
2.31329
2.31456
2.31439
2.31347
2.31888
2.32701
2.32259
2.34589
2.36575
2.39104
2.47778
2.5434
2.66394
2.7628
2.82522
2.95219
2.92394
2.9062
2.81183
2.71239
2.72329
2.77004
2.79965
2.86669
2.95926
3.0504
3.1246
3.16154
3.18055
3.18541
3.18339
3.1849
3.19813
3.20869
3.21897
3.23888
3.24687
3.25567
3.22808
3.1563
0.993037
0.99479
0.994303
0.994008
0.993575
0.993046
0.992459
0.991762
0.991002
0.99017
0.989193
0.988235
0.987204
0.986027
0.984912
0.983785
0.982469
0.981227
0.980084
0.978951
0.977579
0.97644
0.975399
0.974248
0.973018
0.971977
0.971338
0.970561
0.969463
0.96816
0.967196
0.966295
0.965384
0.964993
0.964105
0.963049
0.960857
0.959049
0.957202
0.954971
0.952557
0.950116
0.948073
0.944152
0.939272
0.930599
0.939745
1.90658
2.16019
2.23772
2.29511
2.55987
2.54145
2.57489
2.52945
2.48695
2.49728
2.4342
2.39975
2.42688
2.35217
2.35432
2.33057
2.3113
2.31353
2.30028
2.29932
2.29466
2.2938
2.29416
2.29763
2.30273
2.30591
2.30946
2.31245
2.31777
2.32048
2.31902
2.31722
2.32553
2.32768
2.33247
2.33965
2.37757
2.40647
2.42829
2.51099
2.59506
2.69902
2.78641
2.86876
2.92869
3.00935
3.01229
3.02674
2.98812
2.89804
2.84982
2.77381
2.75129
2.78138
2.81253
2.87101
2.94921
3.03688
3.11244
3.15614
3.17638
3.18625
3.1861
3.18193
3.19089
3.19841
3.20802
3.22783
3.23531
3.24789
3.22191
3.14991
0.993061
0.99481
0.994327
0.994026
0.993576
0.99309
0.992483
0.991761
0.991031
0.990217
0.989225
0.988236
0.987241
0.98605
0.984901
0.983781
0.982511
0.981168
0.980011
0.978902
0.977467
0.976233
0.975198
0.974032
0.972686
0.971562
0.9707
0.969972
0.969017
0.967387
0.96624
0.965309
0.964428
0.963547
0.963048
0.962099
0.960796
0.95881
0.957393
0.956039
0.954597
0.954267
0.952286
0.954224
0.94442
0.965802
1.06246
2.02628
2.18114
2.18972
2.20483
2.42516
2.46074
2.57288
2.49316
2.51706
2.48951
2.43097
2.44833
2.38966
2.37333
2.38328
2.3189
2.31575
2.31946
2.30448
2.30173
2.29479
2.29423
2.29213
2.29573
2.30161
2.30573
2.30729
2.31031
2.32125
2.33066
2.33181
2.35246
2.36905
2.39824
2.42987
2.49384
2.5619
2.656
2.75187
2.81815
2.89389
2.969
3.01463
3.05707
3.0593
3.0866
3.06547
3.03745
2.99628
2.94155
2.87371
2.79606
2.76164
2.79675
2.82873
2.87766
2.94971
3.03269
3.10217
3.1455
3.16653
3.17954
3.18195
3.17914
3.18549
3.19013
3.19874
3.21779
3.22501
3.23859
3.21482
3.14263
0.993092
0.994831
0.994342
0.994025
0.993621
0.993113
0.99251
0.99179
0.991052
0.990264
0.989254
0.988253
0.987272
0.986086
0.984894
0.983781
0.982526
0.981119
0.979929
0.978783
0.977383
0.976036
0.974953
0.973782
0.972317
0.97109
0.97005
0.969349
0.968426
0.966687
0.965373
0.964327
0.963368
0.962379
0.96206
0.961362
0.96066
0.959546
0.958959
0.959254
0.960706
0.963425
0.968631
0.978769
0.990182
1.04414
1.68187
2.26401
2.27246
2.24594
2.2402
2.27451
2.39781
2.60564
2.54927
2.58441
2.53221
2.47524
2.46767
2.42522
2.38925
2.38835
2.34393
2.32806
2.33991
2.32387
2.32197
2.3175
2.32033
2.32188
2.33167
2.33718
2.34997
2.35445
2.36311
2.40169
2.4235
2.46098
2.50858
2.58707
2.66865
2.73907
2.81249
2.86548
2.93179
2.97881
3.02527
3.03776
3.07546
3.08634
3.10587
3.09699
3.08977
3.06819
3.0378
3.00218
2.95933
2.91359
2.84713
2.80311
2.81055
2.84227
2.89213
2.9558
3.03218
3.09532
3.13855
3.16085
3.17533
3.17908
3.17678
3.17969
3.18187
3.18956
3.20747
3.21443
3.22998
3.2068
3.13444
0.993125
0.994853
0.994373
0.99407
0.993637
0.993112
0.992544
0.991839
0.991071
0.990299
0.989287
0.988269
0.987294
0.986134
0.984893
0.983768
0.982529
0.981082
0.979834
0.978656
0.9773
0.975859
0.974644
0.973447
0.971971
0.97064
0.969442
0.968595
0.967597
0.9663
0.964599
0.963375
0.962415
0.961589
0.960804
0.960477
0.959937
0.959341
0.958712
0.958661
0.959013
0.959604
0.959481
0.960601
0.954765
0.974332
1.8678
2.27572
2.28398
2.25422
2.24916
2.2296
2.27647
2.41701
2.41157
2.55147
2.49315
2.50955
2.44706
2.41141
2.35983
2.37083
2.35371
2.31791
2.33473
2.32518
2.32788
2.32634
2.34052
2.34742
2.37532
2.39511
2.43863
2.4733
2.54784
2.6141
2.68909
2.76573
2.82308
2.87981
2.94353
2.99378
3.04936
3.06903
3.094
3.10379
3.10874
3.09782
3.09825
3.09669
3.09856
3.08794
3.08107
3.0652
3.0396
3.0085
2.97452
2.93571
2.87613
2.83207
2.83118
2.86194
2.90414
2.96077
3.02904
3.08714
3.12848
3.15162
3.16653
3.17159
3.17177
3.1739
3.1745
3.18127
3.19721
3.20504
3.22142
3.19712
3.12643
0.993159
0.994877
0.994392
0.994075
0.993672
0.993173
0.992584
0.991876
0.991098
0.99033
0.989339
0.988287
0.987312
0.986188
0.98491
0.983748
0.98253
0.981064
0.979722
0.978538
0.977219
0.975679
0.974322
0.973054
0.971677
0.970182
0.96883
0.967686
0.966781
0.965706
0.963872
0.962409
0.961399
0.960553
0.959785
0.959424
0.959078
0.958691
0.957834
0.9571
0.955928
0.953477
0.94929
0.938193
0.929626
0.894842
2.00556
2.25945
2.27877
2.27188
2.27492
2.26568
2.24754
2.28642
2.29593
2.50694
2.48167
2.55589
2.48307
2.43448
2.39718
2.364
2.40085
2.34182
2.3742
2.37088
2.4054
2.42188
2.47047
2.51323
2.58148
2.66052
2.7224
2.79531
2.84284
2.90169
2.94677
2.99282
3.03924
3.05413
3.08139
3.09447
3.11039
3.11896
3.12554
3.11934
3.11167
3.09407
3.09081
3.08497
3.08955
3.08515
3.07367
3.05944
3.03732
3.01104
2.98208
2.95353
2.90343
2.86024
2.8504
2.88222
2.91992
2.97078
3.03102
3.08269
3.12079
3.14466
3.15971
3.16499
3.16713
3.16794
3.16779
3.17351
3.18697
3.19699
3.21439
3.1882
3.11752
0.993197
0.994903
0.994428
0.994129
0.99369
0.993183
0.992631
0.99193
0.991134
0.990361
0.98941
0.988333
0.987331
0.986256
0.984941
0.983731
0.98252
0.981072
0.979669
0.97839
0.977104
0.97555
0.974008
0.972677
0.97137
0.969744
0.96824
0.966808
0.965795
0.964737
0.963482
0.961513
0.960219
0.959382
0.958688
0.95834
0.958223
0.9583
0.958792
0.959948
0.962743
0.964628
0.972023
0.972684
1.00633
1.33049
2.23375
2.32508
2.32134
2.30875
2.30239
2.27384
2.25484
2.24371
2.23865
2.35618
2.34004
2.46211
2.4823
2.43928
2.42394
2.39698
2.45683
2.41074
2.49791
2.54393
2.60509
2.69158
2.74692
2.81644
2.86955
2.92378
2.97443
3.03286
3.07338
3.09507
3.10569
3.10939
3.11897
3.12308
3.12171
3.11495
3.11407
3.11228
3.11365
3.11239
3.10587
3.09233
3.08713
3.07903
3.08104
3.07632
3.06687
3.05461
3.03579
3.01313
2.98654
2.96307
2.92294
2.88413
2.86804
2.89491
2.93025
2.97464
3.02711
3.07672
3.11277
3.13556
3.14957
3.15674
3.1608
3.16218
3.16174
3.16598
3.17706
3.18962
3.20647
3.17851
3.10958
0.993236
0.994932
0.994454
0.994146
0.99375
0.993236
0.992654
0.991991
0.991185
0.990392
0.989493
0.98839
0.987357
0.986311
0.984984
0.983715
0.982496
0.981137
0.979613
0.978238
0.976944
0.975441
0.97371
0.972254
0.970968
0.969427
0.967564
0.966048
0.96463
0.963824
0.962621
0.960931
0.958983
0.957878
0.957001
0.956344
0.956064
0.955913
0.956023
0.956243
0.958237
0.959968
0.963948
0.965996
0.994806
1.70687
2.32184
2.34357
2.32749
2.31481
2.29927
2.28166
2.26756
2.25163
2.22824
2.26631
2.27115
2.45972
2.42128
2.57343
2.45564
2.55079
2.62527
2.66209
2.73195
2.81015
2.87027
2.92699
2.97092
3.00895
3.02558
3.05244
3.08174
3.10372
3.11774
3.12869
3.13072
3.12652
3.12518
3.11827
3.11664
3.10434
3.10532
3.10557
3.10502
3.10374
3.09872
3.08951
3.084
3.07675
3.07684
3.0724
3.06271
3.05063
3.03393
3.01443
2.99155
2.97154
2.94193
2.90674
2.88668
2.90799
2.94292
2.98129
3.02682
3.07185
3.10576
3.12793
3.14118
3.14834
3.15351
3.15646
3.15568
3.15812
3.16672
3.18133
3.19841
3.17096
3.1003
0.993279
0.994963
0.994494
0.9942
0.993783
0.993255
0.992692
0.992059
0.991248
0.990428
0.989574
0.98846
0.987394
0.986346
0.985066
0.98372
0.982487
0.981179
0.979563
0.978096
0.976802
0.975286
0.973419
0.971821
0.970585
0.969064
0.966884
0.965217
0.963615
0.962611
0.961543
0.960416
0.957984
0.956234
0.955191
0.954238
0.953315
0.952482
0.952419
0.951948
0.952043
0.951108
0.95211
0.946066
0.964279
1.8964
2.32466
2.32575
2.30706
2.29261
2.27863
2.2661
2.24954
2.22622
2.21214
2.2105
2.2923
2.32453
2.65895
2.67817
2.75291
2.78561
2.86209
2.91433
2.9559
2.98771
2.99509
3.01916
3.04185
3.05829
3.07502
3.08708
3.09914
3.11031
3.11009
3.1152
3.11569
3.12049
3.12378
3.11872
3.11076
3.102
3.10237
3.10165
3.09976
3.0974
3.09239
3.08283
3.07825
3.07142
3.0704
3.06631
3.05888
3.04779
3.03367
3.01606
2.99568
2.97797
2.95693
2.92377
2.90174
2.91442
2.94824
2.98284
3.02306
3.06446
3.09817
3.11919
3.13218
3.14049
3.14647
3.1504
3.14973
3.15038
3.15646
3.17282
3.1898
3.16316
3.09044
0.993324
0.994997
0.994533
0.994245
0.993832
0.99332
0.992724
0.992118
0.99132
0.990477
0.989632
0.988551
0.98744
0.986387
0.985159
0.983753
0.982467
0.981189
0.979553
0.977997
0.97664
0.975124
0.973176
0.971473
0.970105
0.968598
0.96637
0.964389
0.962715
0.961232
0.960388
0.95898
0.957586
0.954826
0.952925
0.951506
0.949796
0.947951
0.94496
0.942379
0.938504
0.933909
0.922269
0.907999
0.901002
2.03522
2.27255
2.29207
2.28634
2.28285
2.27698
2.27458
2.27435
2.27191
2.2539
2.29919
2.40349
2.57874
2.81615
2.93872
2.97284
2.98807
3.0043
3.02485
3.03675
3.04516
3.04905
3.04926
3.06031
3.06383
3.06932
3.07591
3.08478
3.09408
3.0971
3.10214
3.10405
3.11104
3.11644
3.11479
3.10825
3.09924
3.0945
3.09223
3.08963
3.08642
3.08328
3.07561
3.07319
3.06724
3.06692
3.06381
3.05766
3.04783
3.03426
3.01811
3.00045
2.98505
2.97084
2.94284
2.91993
2.92456
2.95449
2.98711
3.02258
3.05779
3.09053
3.11106
3.12211
3.13165
3.13859
3.14334
3.14347
3.14315
3.14624
3.16395
3.18085
3.1554
3.08028
0.993373
0.995034
0.994574
0.99429
0.993877
0.993385
0.992778
0.992175
0.991414
0.99053
0.98968
0.98867
0.987514
0.986431
0.985254
0.983799
0.982463
0.981161
0.979614
0.977942
0.976443
0.974919
0.973043
0.971172
0.969548
0.968024
0.966097
0.963683
0.961792
0.959971
0.958898
0.957687
0.956072
0.954238
0.951107
0.948988
0.947305
0.94607
0.944786
0.944579
0.944551
0.949547
0.946068
0.982613
1.34748
2.19647
2.27919
2.2794
2.27624
2.27375
2.2717
2.26774
2.2761
2.28661
2.27212
2.4049
2.62658
2.82793
2.99399
3.04094
3.02854
3.03667
3.04013
3.05382
3.05602
3.05488
3.05472
3.05567
3.05706
3.05433
3.05258
3.05237
3.05776
3.06501
3.07106
3.07872
3.08366
3.09398
3.10248
3.10502
3.10197
3.09485
3.08741
3.08745
3.08344
3.07965
3.07726
3.07158
3.07002
3.06508
3.06417
3.06068
3.0547
3.04526
3.03368
3.0195
3.00514
2.98947
2.97945
2.95642
2.93435
2.93272
2.95462
2.98607
3.019
3.05108
3.0822
3.10269
3.11273
3.12236
3.13065
3.13678
3.13736
3.13588
3.13616
3.15479
3.17159
3.14751
3.06971
0.993424
0.995073
0.994618
0.994337
0.993924
0.993455
0.992841
0.992226
0.991519
0.990608
0.989729
0.988786
0.987605
0.986487
0.985345
0.983877
0.982472
0.981178
0.979689
0.977896
0.976252
0.974734
0.972984
0.970888
0.968986
0.967525
0.965727
0.963096
0.960897
0.958981
0.957111
0.956093
0.954476
0.952719
0.95043
0.946967
0.944764
0.942791
0.940956
0.939057
0.937024
0.939104
0.935596
0.963193
1.86349
2.25282
2.26865
2.26512
2.26805
2.26904
2.27054
2.27075
2.28713
2.34242
2.34561
2.60536
2.82639
3.01771
3.09045
3.07389
3.0611
3.04982
3.0487
3.04406
3.04266
3.03947
3.038
3.03741
3.03682
3.03635
3.03589
3.0317
3.03364
3.04048
3.04996
3.06212
3.07015
3.08228
3.09047
3.09603
3.09625
3.09141
3.08337
3.07881
3.07457
3.07029
3.06868
3.06351
3.06256
3.05832
3.05853
3.05589
3.05139
3.0442
3.0359
3.02311
3.00969
2.9963
2.98772
2.96959
2.94997
2.94414
2.95867
2.98602
3.01641
3.04492
3.07315
3.09454
3.10203
3.1139
3.1215
3.12961
3.13123
3.1287
3.12619
3.14534
3.16207
3.13968
3.05924
0.99348
0.995116
0.994666
0.994389
0.993976
0.993524
0.992925
0.992286
0.991618
0.990708
0.989799
0.988889
0.98772
0.986561
0.985415
0.984008
0.982538
0.981183
0.979744
0.977887
0.976127
0.974591
0.9729
0.970645
0.968606
0.966833
0.965114
0.962939
0.960131
0.957885
0.955818
0.954099
0.952871
0.95087
0.949113
0.945599
0.94209
0.938785
0.935127
0.928903
0.921612
0.906832
0.89098
0.868844
1.99343
2.21831
2.25043
2.2518
2.26168
2.2673
2.27756
2.27682
2.30008
2.45755
2.55789
2.86024
3.02313
3.09364
3.07842
3.06541
3.05676
3.04335
3.03816
3.03256
3.03081
3.02959
3.02857
3.02517
3.02329
3.02225
3.02211
3.02134
3.02039
3.02111
3.02113
3.03561
3.04336
3.05836
3.06657
3.07467
3.07823
3.07638
3.07085
3.06743
3.06726
3.064
3.06272
3.05846
3.05762
3.05422
3.05343
3.05137
3.04644
3.03961
3.03374
3.02238
3.00958
2.99939
2.99094
2.97739
2.96027
2.95185
2.95996
2.98255
3.01071
3.03736
3.06363
3.08533
3.09206
3.10575
3.11279
3.1226
3.12453
3.12146
3.11606
3.13565
3.15242
3.13201
3.04866
0.993538
0.995161
0.994718
0.994446
0.994035
0.993599
0.993015
0.992361
0.991704
0.990837
0.989887
0.988972
0.987876
0.986652
0.985489
0.984167
0.982633
0.981213
0.979783
0.977938
0.976085
0.974422
0.972725
0.970549
0.968282
0.966157
0.964643
0.962669
0.959577
0.956928
0.954632
0.952379
0.951057
0.949511
0.947403
0.945805
0.942575
0.940295
0.940081
0.940486
0.947434
0.948202
1.00653
1.51337
2.22021
2.27237
2.26618
2.26688
2.26612
2.27277
2.29181
2.32351
2.35487
2.65768
2.85521
3.02781
3.09991
3.0877
3.07211
3.05415
3.04708
3.03524
3.02686
3.02085
3.02047
3.02118
3.02194
3.02047
3.01851
3.01567
3.01329
3.012
3.00941
3.00785
3.00591
3.00986
3.01554
3.02908
3.03679
3.04923
3.05763
3.06276
3.06199
3.05852
3.05804
3.05417
3.05264
3.04879
3.0469
3.04493
3.04373
3.04333
3.04163
3.03555
3.0341
3.0251
3.01344
3.00212
2.99489
2.98455
2.96807
2.95832
2.96193
2.97861
3.00347
3.02914
3.05398
3.07627
3.08236
3.09745
3.10409
3.11561
3.1179
3.11432
3.10627
3.12581
3.14284
3.12436
3.03848
0.993602
0.995211
0.994775
0.994511
0.994101
0.993674
0.993112
0.992443
0.991784
0.990986
0.989999
0.989058
0.988045
0.986788
0.985579
0.984322
0.982755
0.981261
0.979807
0.978059
0.976084
0.974273
0.972583
0.97054
0.967996
0.965687
0.963912
0.962045
0.95961
0.95623
0.95356
0.951271
0.949035
0.94781
0.945941
0.943805
0.941957
0.937738
0.93377
0.929486
0.922189
0.910734
0.912282
1.86962
2.28269
2.29217
2.28413
2.27946
2.27869
2.27901
2.31707
2.45473
2.56142
2.8925
3.05711
3.11314
3.09251
3.0742
3.05883
3.04647
3.04412
3.03465
3.02507
3.01691
3.01331
3.01188
3.01273
3.01305
3.01212
3.01092
3.00887
3.00737
3.00346
2.99749
2.99435
2.99397
2.99243
3.00117
3.00711
3.01915
3.02706
3.03849
3.0425
3.04102
3.04505
3.04493
3.04498
3.04266
3.04056
3.03879
3.03667
3.03719
3.03703
3.03086
3.02993
3.02057
3.01127
3.00064
2.99566
2.98876
2.97589
2.96195
2.96088
2.97347
2.99435
3.01962
3.04313
3.06586
3.07285
3.08963
3.09531
3.10884
3.11109
3.10687
3.09659
3.11564
3.1334
3.11609
3.02815
0.993669
0.995263
0.994837
0.994582
0.994179
0.993747
0.993219
0.992553
0.991874
0.991136
0.990143
0.989173
0.988202
0.986958
0.985703
0.984454
0.982935
0.981355
0.97989
0.978206
0.976131
0.974178
0.97254
0.970537
0.967815
0.965425
0.963079
0.961547
0.959388
0.955942
0.952726
0.950072
0.9477
0.945395
0.943996
0.941632
0.938897
0.93605
0.931066
0.929392
0.919296
0.931015
1.04041
2.10741
2.27382
2.28585
2.29033
2.29863
2.30918
2.33363
2.39318
2.67595
2.89687
3.05214
3.10985
3.09028
3.07881
3.06289
3.04974
3.03953
3.03511
3.02676
3.01928
3.01246
3.00893
3.00707
3.00531
3.00503
3.00522
3.00448
3.00281
3.0031
3.00021
2.99435
2.98698
2.98226
2.97988
2.98279
2.98418
2.99619
3.00188
3.01709
3.025
3.0296
3.03329
3.03382
3.03346
3.03101
3.02814
3.02709
3.02585
3.0276
3.02961
3.02567
3.02729
3.02045
3.01557
3.00415
2.99644
2.98994
2.9807
2.96555
2.96131
2.96815
2.98504
3.00886
3.03198
3.05414
3.06377
3.08196
3.08814
3.10223
3.10415
3.09954
3.08755
3.10542
3.12411
3.10754
3.0194
0.993743
0.995321
0.994903
0.994658
0.994275
0.993822
0.993331
0.99268
0.99198
0.991268
0.990323
0.989312
0.988327
0.987177
0.985856
0.984599
0.983168
0.981532
0.979983
0.978372
0.976267
0.974232
0.972441
0.970486
0.967898
0.965203
0.9626
0.960695
0.958787
0.956277
0.952315
0.949163
0.94669
0.944491
0.942966
0.942182
0.940902
0.940695
0.940986
0.946748
0.949184
0.993769
1.79059
2.30561
2.32998
2.32379
2.32042
2.3365
2.37661
2.4783
2.63366
2.90323
3.08312
3.1371
3.11659
3.094
3.07381
3.05688
3.04931
3.04165
3.03122
3.02024
3.01186
3.00562
3.00266
3.00036
2.9977
2.99584
2.99572
2.99595
2.9954
2.99635
2.99465
2.99384
2.98543
2.97742
2.97229
2.9718
2.97096
2.97714
2.98075
2.99208
3.0003
3.01002
3.01586
3.02118
3.02277
3.02243
3.01985
3.01974
3.01855
3.01964
3.02473
3.02215
3.0244
3.01833
3.01312
3.0026
2.99639
2.9914
2.98268
2.96709
2.9618
2.9645
2.97697
2.9982
3.02072
3.04211
3.05506
3.07471
3.08076
3.09561
3.09677
3.09238
3.07863
3.09526
3.11465
3.09867
3.00912
0.99382
0.995383
0.994975
0.99474
0.994374
0.993913
0.993438
0.992826
0.992101
0.991383
0.990546
0.989497
0.98847
0.987402
0.986079
0.984793
0.983413
0.981748
0.980137
0.97852
0.976548
0.974387
0.972404
0.970486
0.968135
0.965067
0.962427
0.959778
0.958228
0.955777
0.952941
0.948725
0.945597
0.94309
0.940779
0.938735
0.937295
0.934345
0.930992
0.922206
0.911169
0.893752
2.00172
2.33018
2.34178
2.3356
2.32681
2.36678
2.43395
2.68787
2.89517
3.05474
3.10604
3.09265
3.08278
3.06794
3.05575
3.04301
3.03804
3.03401
3.0273
3.01775
3.0086
3.00114
2.99639
2.99321
2.98993
2.98709
2.98666
2.9867
2.98725
2.9885
2.98781
2.98829
2.98385
2.97863
2.96973
2.96404
2.96168
2.96419
2.96428
2.97118
2.97678
2.98903
2.99867
3.00699
3.00815
3.00801
3.00524
3.00563
3.0054
3.00729
3.01446
3.01505
3.0193
3.01703
3.0151
3.00809
2.99936
2.99241
2.98446
2.96891
2.95959
2.96156
2.97006
2.9877
3.00879
3.0299
3.04536
3.06704
3.07367
3.08885
3.08984
3.08545
3.07043
3.08532
3.10533
3.08945
3.00092
0.993906
0.995452
0.995052
0.994825
0.99448
0.994024
0.993543
0.99299
0.992259
0.991518
0.990747
0.989742
0.988653
0.98758
0.986361
0.985059
0.983685
0.982019
0.980355
0.978779
0.97689
0.974618
0.972449
0.970689
0.968423
0.965104
0.962255
0.959467
0.957217
0.955347
0.952829
0.949156
0.944991
0.941888
0.939835
0.937995
0.937811
0.937622
0.940712
0.938016
0.969268
1.24762
2.24328
2.35209
2.35564
2.36851
2.37588
2.50212
2.66502
2.90713
3.06016
3.10738
3.08965
3.07489
3.06044
3.04787
3.04051
3.03408
3.03
3.02631
3.02146
3.01499
3.00619
2.99834
2.99216
2.98718
2.98302
2.97887
2.97759
2.97709
2.97796
2.97947
2.97931
2.98052