/*--------------------------------*- C++ -*----------------------------------*\
| =========                 |                                                 |
| \\      /  F ield         | OpenFOAM: The Open Source CFD Toolbox           |
|  \\    /   O peration     | Version:  2.2.x                                 |
|   \\  /    A nd           | Web:      www.OpenFOAM.org                      |
|    \\/     M anipulation  |                                                 |
\*---------------------------------------------------------------------------*/
FoamFile
{
    version     2.0;
    format      ascii;
    class       volScalarField;
    location    "1.3";
    object      divBf;
}
// * * * * * * * * * * * * * * * * * * * * * * * * * * * * * * * * * * * * * //

dimensions      [1 -3 -2 0 0 -1 0];

internalField   nonuniform List<scalar> 
14161
(
8797.28
-6518.83
-1446.06
-463.667
167.188
1055.3
924.022
1342.97
1632.46
1912.06
587.873
-121.889
-269.356
-840.261
-1536.64
-1608.06
-485.409
215.237
1347.84
646.596
672.526
1123.12
1885.61
571.518
-135.47
-1042.01
-1092.57
-1356.3
-1554.3
-1564.08
-1077.49
-1184.63
-1117.97
-892.882
-568.224
-307.676
-174.896
-35.7299
54.9997
281.787
870.182
2080.99
5175.95
8649.6
14782.8
-24175
-159937
-6442.31
-6395.28
-34573.7
-33479.9
-34933.1
-35297.9
-33930.2
-33564.3
-29344.6
-28250
-28486.2
-28791.9
-25834.4
-24581.9
-23388.4
-20901.4
-18723.9
-18326.7
-17073.9
-15481.2
-13867.6
-12303
-11630.8
-9769.64
-8524.87
-6828.05
-5488.37
-3547.02
-2554.51
-476.566
658.632
1893.35
3936.48
8456.48
8565.51
8701.93
9641.98
21631.4
13429.1
16387.7
5119.85
13395.7
27768.8
8523.41
11737.8
2332.88
6353.08
2519.89
61.2897
-22.9008
462.506
-135.558
-680.163
-791.93
-1608.66
-1711.78
-2010.94
-2458.87
-3046.6
-3675.59
-4579.33
-5463.29
-6322.73
-6205.72
-7508.92
-5852.94
-7441.04
-2514.52
-6120.32
2274.6
-3776.06
6599.62
-30793.1
17902.3
7456.4
5894.41
2690.98
261.426
-512.646
-1987.97
-4508.44
-7060.48
-4460.8
-690.746
1476.01
3137.89
4809.82
6994.75
4143
1378.94
-625.221
-2318.43
-4179.98
-6223.22
-7244.57
-4786.78
-2401.5
-642.04
1064.45
1856.36
2612.85
3117.59
3126.13
2594.34
1682.99
570.854
-414.09
-925.445
-1569.81
-2008.52
-2213.47
-2578.83
-1997.4
-1818.41
-548.52
-1229.59
12615.3
-76111.6
-742.023
-44956.5
-21147
-31727.9
-22883.9
-24717.3
-22588
-25831.7
-27655.2
-25580
-20178.2
-26904.1
-23355.7
-18897.2
-22887.8
-19641.7
-19185.9
-16076.5
-12300
-14803
-14473.9
-11336.9
-10657
-9827.08
-9966.91
-6761.19
-8027.64
-6176.38
-2770.21
-3725.17
-1832.41
-1189.16
832.109
3253.87
5655.18
7404.93
6976.03
12856.6
12484
9637.49
21286.1
39831.4
22749.6
-4697.98
23133
17373
15131
5382.61
3084.47
7169.93
3856.9
1892.69
1519.71
1327.71
729.02
13.2392
-652.094
-1791.21
-2416.25
-3219.13
-3867.9
-4409.33
-5205.92
-5707.64
-5829.34
-6717.32
-4772.96
-6740.61
-1747.5
-5785.48
1961.42
-3829.92
5472
54614.3
-29594.8
-13252.6
-9963.05
-4687.99
-617.461
1248.97
3212.98
7418.94
11293.3
7453.41
822.811
-1685.83
-4890.05
-7895.21
-11520
-8940.35
-4152.39
-509.83
2703.59
4898.03
7526.77
8572.1
6234.83
2889.14
-1324.81
-3213.51
-4840.31
-6572.58
-7552.1
-7703.35
-6948.4
-6119.01
-4768.31
-3492.92
-2242.3
-1358.34
-1021.49
-454.78
-565.345
-812.455
-1546.72
-2658.97
-6294.62
-3851.12
12183.5
-15623.3
-30714.6
-30789.4
-30433
-39877.4
-32670.1
-31349
-34405.1
-31440.4
-30660.3
-20281.7
-14955.9
-26775.6
-31013
-22501.7
-11515.9
-15175
-17758.1
-11773.1
-13584.8
-12565.6
-9115.42
-8891.25
-9298.23
-7146.98
-6112.67
-6070.09
-3313.86
-1309.56
-3453.07
-239.016
2248.42
2053.97
6078.74
8146.88
11917.8
13953.8
13898.3
21768.8
25181.9
14257.5
28673.8
42170.7
35869.4
23340.1
-4479.14
12823.4
14559.3
8329.41
2157.95
3328.06
3712.73
2248.05
1674.24
1110.73
157.397
-204.99
-1002.03
-1705.79
-2723.38
-3907.05
-4548.75
-5212.55
-5047.45
-4801.66
-5845.88
-3411.21
-5374.38
-528.533
-4687.18
2361.04
-3625.95
4599.12
-72094.4
38424
16013.9
12425.8
5812.75
154.334
-1780.54
-4582.63
-10226.8
-15257.2
-10710.6
-2051.22
746.695
5076.88
8530.26
13133.7
10109.6
3500.12
-1257.17
-4279.46
-6808.24
-10752.3
-13332.7
-10354.6
-6282.63
-1308.74
373.964
2845.21
4911.62
5781.12
5772.33
4797.09
3227.49
1640.44
-57.3052
-1549.48
-2213.67
-3115.86
-4320.14
-4917.44
-5211.81
-6066.62
-7123.09
-9705.72
-4423.74
-3981.42
43140.5
-26425.2
-20411.3
-35657.9
-24554.4
-33108.5
-33112.1
-13585.2
-21699.5
-26419.2
-24640.7
-21686.4
-18459.4
-13653.5
-14593.3
-19340.5
-17678.4
-16128.1
-13951
-10924
-11440.9
-9922.49
-9502.09
-8450.41
-7035.81
-6068.41
-3714.41
-5108.76
-4461.84
126.815
221.037
874.052
3356.96
4663.8
7834.81
10706.5
13498.9
18340.3
21345.4
8246
33439.1
59268.4
15843.1
19574.4
27198.5
36753.4
11465.4
2870.7
10685.2
9572.22
4273.7
3390.13
3174.16
2541.84
1827.57
1203.64
287.589
-467.102
-1318.7
-2044.97
-2888.63
-3801.43
-4666.66
-5060.45
-4020.69
-4908.72
-1992.09
-4670.63
21.3047
-4245.35
2262.13
-3547.41
3934.04
84719.5
-44188.6
-19853.3
-15736.4
-8769.06
-1429.37
915.693
3923.65
9922.95
15960.9
11204
1607.19
-2323.31
-6385.54
-10600.5
-16090.6
-13638.9
-7012.29
-1226.64
2332.12
5280.85
9485.65
11973.6
8435.88
3694.87
-1303.69
-3525.3
-6566.4
-8784.62
-9863.78
-10537.5
-10180
-8677.84
-7153.52
-5465.74
-4252.88
-3094.01
-1849.06
-1164.06
-623.935
-407.39
-603.015
45.2513
-2943.25
10236.6
-52313.4
-7054.86
-27594.9
-47950.2
-35570.6
-31318.1
-31026.7
-27624
-27308.7
-24795.5
-22332.8
-21573.7
-21410.1
-18197.9
-16058.4
-15477.5
-14536.6
-12621.8
-13239.8
-11483.2
-10650.6
-9475.32
-7772.39
-6667.84
-5378.42
-4442.71
-3251.93
-2808.2
-1058.24
320.435
2496.26
4264.73
6122.38
7338.07
9374.99
11631
14152.9
17156
16405.1
26198.9
50718
39764.4
19402.1
33729.6
42991.1
23254
15911
10678.5
25188
12789.6
6692.7
5381.78
5181.44
2982.27
2160.06
2006.97
873.773
807.349
-448.81
-779.314
-1633.06
-2497.67
-2778.45
-3670.74
-3576.11
-3263.98
-4086.39
-1742.71
-4234.19
52.8921
-3809.33
2119.58
-3371.06
3278.24
-98531.9
50248.2
20118.7
15826.5
8422.04
140.66
-2418.02
-5625.12
-11929.5
-18690.3
-13846.4
-3889.36
120.041
4357.04
9496.51
14875.4
13111.5
5910.42
-1222.43
-3685.6
-7542.15
-11846.7
-14787.3
-12775.3
-7987.96
-3000.21
-630.115
2344.41
4023.3
5361.55
6138.06
5632.99
4098.04
2500.74
800.448
-891.009
-2143.12
-2810.31
-3316.84
-3777.07
-3288.44
-3165.07
-2659.34
-814.03
-4616.18
-39101.5
-102321
-70286.4
1382.84
-6825.48
-8505.67
-13681.9
-16027.2
-17431.3
-17538.1
-16791.5
-15635.2
-14794.5
-14621.4
-14181.5
-13626.1
-10453.3
-11680.6
-9987.12
-9580.55
-8352.61
-6987.67
-5655.38
-4174.53
-3558.47
-1579.35
-1123.19
823.566
2085.95
2927.9
3663.8
5394.09
6567.87
8637.57
10990
12931.7
14593.9
16352.6
19832.3
32851.5
43326.1
33149.7
43280.1
28668.5
32573.6
29821.6
31529.5
33329.7
22035.4
19521.3
13831.2
8944.69
6315.76
4763.52
3787.94
2892.39
1880.1
1234.15
471.709
-299.255
-758.67
-1555.24
-2304.28
-2696.18
-3075.87
-2519.01
-3497.43
-1210.45
-3674.72
256.091
-3620.94
1787.02
-3365.51
2782.03
99672.7
-50171.7
-22033.1
-18190.9
-11100.1
-3060.68
-489.5
3151.76
9853.7
16279.7
12262.5
2293.65
-2491.05
-6323.28
-11158.6
-16221
-15565.1
-8698.09
-2152.54
-232.057
4034.11
7861.57
10168.7
8397.85
4168
-607.515
-3642.25
-6047.16
-7984.95
-9873.71
-10998.4
-11145.8
-10256.5
-9089.75
-7621.61
-6149.55
-4641.53
-3521.82
-2519.15
-2160.02
-1593.47
-1173.49
-333.894
-738.421
-1810.29
-44347.3
-226283
-73568.9
-26187.4
-12346.4
-10818.2
-11511.5
-10828.9
-11155.9
-10468
-10830.5
-10259.5
-10538.3
-8659.34
-8267.15
-8880.71
-8087.92
-9659.29
-7570.41
-5672.38
-4974.85
-4525.99
-3203.88
-2069.84
-430.076
193.226
2955.38
3874.04
5276.25
6233.11
7873.84
9388.78
11033.6
13503
14568
15788.7
19054.9
24095
22066.4
35792.7
34077
37281.7
32118.2
24002
33292.5
21418.5
25856
20945.8
28092.6
26658.1
20051.2
11823
8307.61
5160.29
3599.57
3331.81
1909.94
1791.09
795.308
576.604
-358.549
-937.274
-1266.92
-1998.07
-2212.03
-2133.8
-2619.81
-1164.69
-3203.38
37.3137
-3334.41
1465.14
-3266.86
2357.06
-107966
52704.7
19737.4
16135
8871.05
1786.05
-1561.09
-4828.57
-10740.2
-16973.1
-14279.4
-5100.93
-499.132
3075.29
8034.56
12829.7
13012.4
6483.05
94.3165
-2814.44
-6431.03
-9542.32
-12077.8
-11751.1
-8141.85
-4230.64
-1669.23
15.7933
1674.05
3296.52
4127.55
4113.32
3732.4
2545.52
1353.85
240.45
-798.018
-2149.46
-3254.84
-3898.67
-4217.02
-4077.2
-3309.38
-2412.75
-4668.17
-31651.9
-143381
-92334.8
-17709.8
-5600
-3702.55
-7790.38
-7568.07
-9281.92
-9803.75
-10071.2
-10599.3
-10014.4
-9123.73
-8706.77
-7531.64
-7684.32
-7277.75
-5060.05
-4814.97
-3726.9
-2679.36
-1985.49
-236.802
1411.08
2596.79
3279.93
4683.32
6335.77
7617.57
8626.36
10101.8
11543.9
13048
14879.8
15378.8
18527.8
22858.8
39393.9
47835.7
46012.7
37175.9
39356.9
36295.8
39332.9
30207.2
38095.6
26220.4
26268.2
22530.4
23304.2
16724.2
10691.8
6743.4
4466.84
4073.9
2723.62
2606.34
1389.91
1031.74
90.9551
-317.425
-1258.64
-1382.73
-1872.15
-1801.31
-2305.58
-1070.41
-3002.85
-101.802
-3297.24
1067.32
-3296.62
1975.43
100026
-49744.5
-20632.4
-17447.4
-11564.8
-4781.66
-1285.87
1571.23
6626.21
12270.8
11061.3
2304.76
-2384.76
-5483.24
-9697.96
-13698.2
-14655.3
-9324.44
-4168.18
-1662.33
1147.08
3665.84
5168.49
6148.63
3381.79
-56.0549
-3125.07
-4450.99
-6474.33
-8045.67
-8968.88
-9675.17
-10063.9
-9957
-9132.61
-7003.58
-6539.44
-5438.61
-4382.66
-3626.62
-3021.46
-2765.11
-1978.49
-2378.24
-1845.98
-22054.7
-39773.2
-50797.8
-49400.8
-37340
-28498.8
-23325.8
-19223.5
-19732.9
-15326.4
-15831.9
-12956.9
-10870.9
-9798.56
-9222.91
-6285.82
-9829.31
-7833.92
-5350.62
-7278.62
-5073.49
-3179.89
-3305.16
80.7928
2650.93
2429.09
3503.45
6939.33
6946.31
8939.22
10649
10401.7
11907.5
14804.8
15890.8
16648.4
20697.1
32687.9
54990.9
44015.5
31805
26182.9
26902.6
14064
26569.5
19969.7
20148.1
24637.4
21906.4
25464.9
21593.7
18993.7
12898.9
7918.69
5289.79
4853.93
3497.73
3036.08
2215.75
1799.48
975.639
334.797
-415.264
-832.462
-1413.78
-1501.02
-2094.07
-1353.92
-2758.76
-394.014
-3173.04
741.685
-3145.59
1563.82
-100932
48172.3
16294.1
13411
8545.9
2591.92
-1368.52
-3276.08
-7630.64
-12396.5
-12056
-4933.14
-1178.5
1608.1
5301.91
8510.64
9995.81
5304.43
732.155
-2395.06
-4253.72
-6271.37
-7679.38
-7650.25
-7064.28
-4839.54
-2909.12
-2264.03
-952.922
54.2589
646.88
1220.35
1553.34
1549.39
577.244
221.42
-437.304
-1887.57
-3249.68
-3401.12
-4440.46
-4368.85
-4463.28
-5810.92
-1404.56
-17651.4
18674.1
-29367.7
-38731.3
-34247.5
-26398.6
-26370.3
-22897
-23802
-20940.4
-18271.1
-18204.1
-12799.1
-13790
-10881.2
-12304.6
-9636.67
-3847.93
-5832.64
-4910.36
-2652.44
-4375.44
-1002.9
-2113.73
-2274.32
1998.58
4214.59
3525.51
5827.66
6916.56
8015.17
9948.24
11655.1
12472.8
14858.5
18968.6
29395
51423.5
47779.1
42226.3
36962.3
31081.1
24972
27802.9
24839.8
24654.2
22712.7
29058.9
17157.4
26877.3
19927.3
24263.2
16256.3
10906.7
7351.99
6271.49
4174.95
3871.07
2776.25
2538.7
873.699
747.786
-605.931
-438.963
-1478.56
-1288.09
-1973.44
-1389.85
-2617.43
-623.806
-3225.82
430.023
-3178.8
1168.4
87742.8
-44733
-17206.5
-14391
-10524.2
-5703.6
-2090.58
-444.325
2712.89
6565.47
7511.2
1619.85
-2161.52
-4220.1
-7298.12
-9726.45
-11539.7
-8875.34
-5644.94
-2425
-861.605
-99.6489
970.517
2058.81
2757.78
-1112.03
-2455.23
-3311.53
-4389.44
-5432.43
-6263.9
-7089.22
-7882.32
-8486.32
-9304.95
-9854.98
-9702.34
-8991.77
-7887.97
-7328.58
-6487.32
-5792.79
-5109.26
-5482.72
807.002
1055.15
27428.2
-8815.63
-23275.9
-36803.7
-31338.7
-30262.8
-22182.6
-22564.2
-17298
-18053.5
-16734.8
-15508.3
-13300.2
-8761.63
-5887.89
-4879.84
-4293.98
-5170.33
-5484.19
-4804.44
-3860.09
-1772.66
-942.413
1986.98
2536.68
2950.07
4428.14
5442.04
5491.72
8773.32
10166.2
11514.6
13415.1
18037
25262.9
45132.4
57072.9
46052.8
30898
27299.6
31354.1
22966.8
23465.1
19046.3
27876.3
22171
23794.5
24858
24034.8
22162.2
23594.3
16424
11360.8
7420.42
6599.61
5001.96
4593.5
3395.91
3073.48
1625.33
1354.72
-222.651
-162.11
-1278.17
-1107.11
-1669.86
-1539.57
-2333.54
-946.471
-3098.54
45.6038
-3077.79
547.737
-78774.1
36849
11391.5
9191.49
6589.04
2357.72
-980.988
-2266.03
-4901.26
-7637.87
-8464.75
-4226.31
-1881.58
-36.3885
2110.87
3821.92
5352.68
3680.07
1572.64
-1386.42
-2660.19
-3641.21
-4419.66
-6068.53
-6448.16
-4777.47
-4893.57
-3641.44
-2760.51
-2460.83
-2336.15
-2501.19
-1333.52
-718.509
691.126
-198.885
-77.5695
-697.276
-1582.02
-2725.36
-3701.87
-4772.87
-5606.36
-6216.81
-5161.95
-426.466
35582.2
-10580.5
-28173.2
-26616.6
-30709.5
-28904.1
-20233.5
-20401.2
-16279.7
-15403.8
-10485.4
-8358.65
-5665.63
-1891.27
452.936
781.199
-325.356
152.358
-1356.5
-3812.95
-4101.95
-4380.86
-4172.64
-1410.53
296.238
1488.06
3682.91
4347.09
5285.37
6877.62
9378.19
12474.7
17512.5
24250
40167.5
54610.1
48784.7
34986.5
27652.6
27152.1
21251
22820
25079.3
19835.2
18827.4
19571.6
20786.5
19446.5
20482.2
20994.8
22096.9
19292.1
12533.9
8705.88
8275.35
6352.63
5901.57
4035.41
3826.98
1856.02
1760.92
128.559
318.419
-936.197
-677.397
-1345.55
-1278.66
-1970.64
-1039.7
-2534.33
-157.928
-3120.9
268.459
64203.7
-34515.2
-12874.6
-10733.3
-8577.96
-5655.95
-2687.36
-1655.62
30.0279
2250.13
3689.55
574.679
-1920.26
-3066.01
-4909.71
-6325.23
-7679.28
-7070.77
-5200.56
-3566.36
-2453.95
-1779.49
-1143.26
-840.51
-1270.01
-1104.91
-916.616
-2700.03
-3318.55
-3797.52
-4156.89
-4271.75
-5833.35
-6727.96
-7603.09
-8751.23
-9363.88
-9700.73
-9761.06
-9308.61
-8889.86
-8416.04
-7707.07
-6875.15
-6189.26
-13598.9
-35484.2
-13315.9
-14311.8
-17443.2
-30315.8
-26613.8
-25458.6
-20116.6
-16382.4
-14371.8
-9533.78
-6364.66
-1518.06
1908.01
4266.19
4251.19
4048.31
3870.11
3738.87
2779.26
-1837.96
-2430.36
-1602.81
640.579
646.064
-120.027
2105.84
2901.58
3971.32
7625.29
9651.73
14515.5
21477
31350
52756.8
54829.6
41289.4
33877
25960.5
20867.7
20205.6
18836.9
18249.2
22077.1
14567.8
20037.1
13563.5
17208.9
18502.8
19898.9
19359.3
18718
16458.7
13191.6
11687.6
8405.9
7107.61
5379.89
4838.3
3070.45
2558.19
824.436
769.842
-494.217
-372.273
-1217.07
-1277.59
-1751.49
-1131.94
-2833.72
-603.428
-3166.82
-149.603
-51149.3
23057.3
6576.12
5053.07
3779.77
1346.29
-1032.03
-2159.55
-2992.55
-4488.62
-5560.6
-3636.96
-2282.74
-1295.68
-384.709
578.481
1394.4
1500
185.417
-1229.79
-2217.04
-2870.73
-3415.55
-4011.89
-4711.69
-4647.4
-4511
-4365.47
-4130.92
-3885.12
-3732.46
-3515.21
-3074.8
-2463.15
-1883.96
-1204.31
-872.25
-608.565
-848.074
-1354.05
-2013.16
-2475.07
-3739.34
-5470.35
-12757.3
-21553.2
-136713
-82832.5
-6139.1
-8029.14
-9448.8
-9850.52
-10358.8
-6571.43
-5238.21
1069.29
3317.3
8586.44
10290.5
14708.7
21233.7
19060.1
18512.9
15414.8
9402.31
4765.3
4907.34
829.45
333.067
-46.0432
1907.14
2512.25
2180.74
4171.75
6284.32
9161.13
13357.3
19341.1
31918.9
48698.9
57958.2
40817.9
31759.5
25787.5
25524.3
18729.4
15266.5
17860.3
13328.8
13320.9
17028.2
13580.9
14921.6
15286.9
15026.3
16994.7
18242
18403.4
17990.7
15114.5
13215
9517.12
7387.26
5803.09
4892.22
3107.4
2571.8
1017.32
983.907
-331.782
-247.592
-936.062
-1181.29
-1566.62
-1341.26
-2494.05
-790.474
-3123.24
-334.697
38576.6
-22487.4
-8929.73
-7534.24
-6555.1
-4874.32
-2664.4
-1973.96
-938.993
-312.724
710.306
-467.988
-1695.3
-2401.84
-3237.15
-4060.22
-4662.05
-4944.84
-4311.74
-3559.86
-2915.83
-2549.87
-2215.08
-2020.6
-1997.57
-2041.09
-2055.44
-2252.25
-2674.76
-3149.09
-3622.42
-4127.4
-4524.51
-5470.37
-6287.76
-7091.32
-7765.28
-8161.64
-8060.09
-7831.89
-7407.17
-6271.42
-6481.89
-6414.88
-14674.2
-67297.1
-204809
-52834.4
-15953.7
-12336.7
-12763.5
-6853.94
-8053.69
-1340.44
-1991.48
3758.86
5028.15
10410.9
15769.7
16481
26618.7
30032.9
39594.7
36619.3
27786.6
16860.5
8417.54
7793.09
6609.78
5512.7
5915.86
8391.34
10047
11057.1
15779.2
20560.7
29541.2
43396.5
60649.9
59785.1
46595
22243.3
16599.2
6166.15
12071.6
11472.1
11310.9
9261.51
9184.01
10748.2
10157.9
11512.6
11827.4
8257.47
11144.9
11771.9
12395.7
14844.8
17293
16048.8
13610.3
10866.3
8624.17
6873.86
5936.81
3855.95
3516.15
1935.65
1673.5
419.587
79.6009
-551.742
-1185.35
-1273.65
-1419.73
-2239.24
-1264.73
-3091.28
-576.056
-28049.8
11744.6
2634.85
1684.29
1142.35
142.693
-1392.44
-2126.17
-2680.41
-3165.41
-3773.38
-3046.27
-2463.63
-1984.53
-1695.82
-1234.59
-882.773
-603.063
-1065.14
-1586.33
-2214.02
-2663.95
-2985.82
-3268.93
-3695.53
-3974.25
-4206.13
-4375.94
-4410.02
-4288.75
-4155.67
-4083.72
-3783.9
-3485.57
-2991.58
-2461.4
-1896.84
-1635.67
-1415.39
-1481.38
-1742.42
-2227.74
-3421.6
-7617.63
-21483.5
-126213
-67756.7
-76931.5
-65717.5
-40435.2
-14898.3
-13020.5
-6967.26
-12051.2
-984.432
-5917.04
824.512
6666.12
8762.97
15022.1
18710.4
19479.8
38291.9
51225.1
61741.8
49562.5
25980.4
13480
11220.1
13053.9
14665.6
18175.8
24233.8
30501.2
37352.3
44155.8
55660.8
65887.1
54499.4
36338.6
25665.2
6242.63
6419.91
515.774
-6697.26
-2887.95
-612.895
1530.28
5059.24
6576.73
6959.1
6335.04
6641.01
8476.73
8482.16
11127.3
12344.8
13900.4
16309.5
16210.1
14368.6
11415.1
9176.72
7198.2
5662.34
3672
3333.69
1972.83
1681.77
565.005
325.441
-277.54
-1035.93
-778.205
-1584.36
-2048.79
-1596.6
-2918.84
-717.238
19054.4
-13137.9
-5936
-5042.52
-4660.28
-3526.9
-2592.29
-2204.65
-1698.28
-1196.35
-840.319
-1260.16
-1726.97
-2219.52
-2483.82
-2865.54
-3177.64
-3438.93
-3387.86
-3179.95
-2964.52
-2825.99
-2662
-2558
-2540.75
-2589.9
-2603.44
-2661.06
-2750.98
-3037.37
-3359.59
-3777.63
-4188.02
-4489.63
-5202.49
-5915.09
-6358.97
-6840.78
-7301.05
-7172.65
-6941.47
-5965.93
-6562.16
-12101.2
-48701.9
-139426
-6058.75
-20240
-43734.3
-64102.4
-36684.8
-37839.7
-16171.2
-19014
-12751.5
-4352.27
509.719
5685.25
4786.02
11565.1
14705.6
13957.1
16783.1
24481.6
31147.7
54670.9
61034
42495.2
32266.5
36944.7
46042.2
46585
53739
64577.3
75893.6
72020.8
62088.9
46610.4
34640.6
19292.5
9030.68
-52.2457
172.172
-4749.69
-8506.96
-9468.63
-6830.53
-3860.85
-798.033
-413.028
2710.12
5286.84
5842.41
5709.89
4703.63
4952.06
6228.52
9179.7
13442.2
14317.2
13951.3
11870.4
10191.1
8223.96
6714.65
4826.08
3910.02
2407.44
1977.84
748.035
445.781
-232.26
-1157.43
-589.271
-1838.74
-1785.18
-1905.4
-2638.24
-1019.61
-13325.9
4389.44
27.2798
-565.816
-690.722
-1246.19
-1811.73
-2129.46
-2317.88
-2586.46
-2848.84
-2633.05
-2451.98
-2288.13
-2080.65
-1993.22
-1886.59
-1789.54
-1880.6
-2098.08
-2358.69
-2582.27
-2791.47
-3028.11
-3286.83
-3464.27
-3710.3
-3924.06
-4146.05
-4302.31
-4250.01
-4202.87
-4136.78
-3949.87
-3757.77
-3595.91
-3262.12
-2410.01
-2325.56
-2167.13
-2036.02
-2854.44
-6008.48
-14835.1
-132708
-58605.4
-10945.4
-9180.57
-23841.5
-42745.6
-57318.2
-47743.4
-36681.5
-23892.5
-16370.6
-7682.02
-1861.41
4681.12
5666.22
11658
9640.04
18928.9
14233.6
19806.4
16143.2
36112.3
51002
62791.5
69392.1
73776.3
85610.7
93066.1
88968.6
72644.5
56104.3
49218.9
42701.4
34275.6
25103.8
16646
7660.21
3143.68
-2802.98
-6755.43
-8942.72
-9750.23
-12186.7
-11009.7
-9735.34
-6521.25
-2688.94
-818.213
2728.13
2861.81
2752.62
2851.74
5515.26
8713.14
12476
13281.5
14250.5
12499.4
10580.1
7913.28
6498.61
4796.38
3938.25
2552.44
2002.76
1060.88
641.088
4.8415
-1016.67
-288.666
-1924.43
-1447.52
-2110.54
-2337.53
-1445.31
7401.6
-7353.18
-4040.18
-3381.56
-3128.63
-2793.1
-2402.1
-2237.94
-1936.13
-1818.56
-1723.09
-1749.09
-1926.28
-2139.12
-2274.87
-2446.46
-2603.17
-2717.49
-2812.84
-2850.29
-2799.68
-2789.95
-2791.05
-2805.64
-2836.42
-2849.88
-2931.83
-2994.42
-3040.42
-3164.7
-3197.08
-3504.91
-3760.31
-4052.78
-4327.99
-4664.8
-5040.98
-6248.49
-6426
-6877.71
-6815.04
-7558.54
-11988.1
-38660.3
-163072
-8193.71
-2351.72
-3286.7
-11754.5
-22498.7
-37570.2
-48114.7
-42620.7
-36380.7
-16365.2
-14191.5
-4095.05
306.731
11902.8
11242.3
17264.3
15771.2
17946.8
27613.7
33991
55559.6
71634
94160.6
107964
95535.2
73126.4
72777.1
53620.8
61356
51149
37728
29470.4
22722.3
17899.5
12344.8
8716.29
4284.36
-846.135
-3488.47
-6048.48
-6839.11
-9691.81
-10661.2
-12639.2
-11672.5
-6485.93
-3142.65
-1983
-278.562
2751.49
383.882
2659.08
4944.88
9539.05
12198.3
12248.5
10903.2
9904.65
7993.14
6650.44
5186.56
4080.02
2761.12
2022.86
1352.46
647.013
186.477
-929.276
-170.859
-2203.23
-1056.43
-2501.56
-1794.43
-1710.45
-5817.61
340.774
-1401.79
-1720.84
-1778.48
-1792.33
-2021.76
-2125.12
-2214.42
-2333.99
-2377.47
-2374.45
-2348.57
-2299.9
-2242.41
-2215.74
-2218.65
-2259.54
-2256.87
-2324.43
-2456.24
-2600.9
-2747.41
-2888.1
-3049.13
-3208.37
-3385.83
-3585.21
-3775.17
-3916.67
-4066.27
-4178.77
-4285.13
-4277.55
-4238.75
-4137.13
-4058.69
-3875.19
-3507.91
-3584.14
-1677.92
-3750.26
-9294.32
-93519.1
-83490.1
-13152.9
-4197.12
-6098.42
-9785.8
-12545.1
-25856.6
-33681
-54008.8
-54143.7
-39415.2
-25075.4
-1266.41
7302.53
11966.4
23068.5
20120.3
39857.6
40740.5
64902.6
83460.6
93307.8
77635.1
85250.1
58658.8
68993.9
45922.6
50296.5
38036.6
41191.7
36405.7
38980.6
31823.3
23700.7
17204.6
11791.4
8136
4400.97
2563.48
-29.0131
-2702.33
-4382.96
-6314.92
-9505.11
-10380.1
-11026
-9989.58
-6722.7
-4347.5
-4551.67
-4436.07
-3573.44
-742.763
4369.25
8729.9
10730
10523.3
9906.69
9330.41
7914.37
6721.32
5576.43
4398.45
3230.83
2252.61
1710.93
748.2
495.401
-808.403
147.415
-1975.01
-783.672
-2600.27
-1507.88
-2009.3
1818.32
-4360.49
-2965.1
-2588.06
-2485.76
-2367.7
-2294.17
-2174.85
-2087.72
-2010.88
-2046.77
-2046.1
-2079.87
-2155.22
-2222.06
-2311.57
-2391.2
-2460.98
-2545.67
-2622.13
-2611.43
-2683.12
-2777.96
-2837.31
-2887.74
-2980.68
-3053.02
-3117.52
-3165.74
-3223.88
-3311.12
-3418.73
-3535.37
-3659.37
-3825.5
-4039.64
-4169.49
-4327.17
-4763.69
-5014.79
-6853.16
-11606.6
-24441.9
-133166
-25094.8
-4376.08
-5331.33
-4060.68
-2397.9
-5235.15
-9543.65
-17909.8
-29678.8
-38228.3
-46961.5
-21159.4
3517.99
26856
34546.7
60876.1
66192.3
94039.7
93393.7
87512.7
68853.5
34718.1
43182.6
40772.7
36928.5
39031.7
37444.3
34263.6
33759.5
27467.2
25531.1
25280.1
23537.7
23697
15726.8
10704.8
7022
3890.11
2368.59
1500.64
-108.727
-1898.34
-3892.91
-5391.16
-6950.97
-7814.05
-9366.96
-10139.9
-7493.83
-5617.65
-4171.82
-2746.82
-1317.74
1605.57
5152.85
8893.27
8940.08
8482.1
8460.66
7231.83
6586.59
5482.98
4335.26
3254.99
2302.3
1892.15
872.163
587.738
-724.792
129.444
-1816.98
-639.449
-2531.8
-1044.08
-2694.69
-2725.95
-1484.75
-2021.01
-2108.3
-2105.18
-2043.43
-2080.18
-2109.11
-2148.6
-2192.73
-2211.62
-2226.48
-2236.74
-2223.62
-2231.03
-2248.55
-2293.17
-2319.36
-2352.73
-2386.78
-2485.66
-2586.55
-2693.94
-2795.55
-2890.92
-3013.62
-3164.3
-3313.03
-3470.3
-3639.51
-3798.12
-3991.02
-4201.21
-4372
-4522.17
-4677.83
-4702.06
-4818.56
-4842.9
-4754.78
-5853.55
-9597.68
-49076.4
-111414
-13381
2068.36
2296.69
2512.46
252.528
-2460.32
-4360.04
-6758.76
-12002.3
-19065.7
-19100.4
-71.9536
31698.9
79906.2
103426
102900
92107.1
74818.1
43051.2
48313.6
23623.2
23448.4
19387.7
25404.2
26602.1
23520.9
28684.3
22849.5
23339.6
23262
20218.6
19864.6
19079.5
17706.4
17899.6
11578.3
8632.88
4781.14
3417.65
2376.95
812.218
-266.346
-2243.52
-3064.33
-4300.79
-6106.88
-8298.27
-9040.12
-8935.52
-7384.47
-6803.41
-6211.56
-4105.85
517.115
4486.17
8146.23
7212.08
7270.08
7616.43
6636.43
6341.51
5513.64
4534.89
3606.6
2551.17
2105.74
955.058
738.548
-443.076
201.331
-1606.45
-323.627
-2450.85
-881.787
-2969.11
-328.953
-3045.82
-2483.94
-2303.82
-2248.8
-2180.93
-2164.86
-2117.61
-2093.07
-2069.1
-2103.89
-2103.31
-2102.74
-2145.3
-2187.5
-2241.56
-2301.78
-2352.84
-2416.49
-2421.25
-2502
-2586.31
-2673.88
-2763.18
-2832.89
-2920.06
-3012.17
-3108.45
-3176.91
-3210.39
-3323.43
-3449.51
-3509.41
-3585.34
-3546.42
-3527.96
-3494.46
-3531.12
-3471.35
-3808.83
-6614.91
-15033.3
-106893
-46827
-11165.6
-145.906
1288.24
1702.66
-233.068
538.163
1046.46
905.608
2183.72
4739.7
9497.22
55836.2
111000
112206
84618.1
54671
59896.9
35710.5
33728.7
21432.3
21102.9
20236.3
17824.4
18643.1
20278.2
19201.2
16101.9
18795.2
18801.9
16738.2
18901.8
14950.4
16996.1
13601.7
14965.8
12233
9229.74
6601.52
4303.74
2878.06
1610.41
-148.026
-916.599
-1661.53
-3052.4
-4869.47
-6824.36
-7967.8
-8672.04
-7236.3
-6330.01
-5473.83
-3298.36
517.817
3965.1
5006.68
5519.38
6070.44
6774.71
6039.21
6049.88
5441.75
4628.87
3787.65
2582.89
1965.99
1102.34
877.48
-68.3908
97.837
-1324.84
-148.641
-2242.71
-841.916
-2858.21
-1600.54
-2152.99
-2177.83
-2192.83
-2157.28
-2085.77
-2040.11
-2047.04
-2072.43
-2093.94
-2114.06
-2120.57
-2117.56
-2142.04
-2165.53
-2212.34
-2237.47
-2277.05
-2288.84
-2343.16
-2425.17
-2508.36
-2589.17
-2717.46
-2808.96
-2859.1
-2955.1
-3059.45
-3191
-3344.78
-3518.11
-3700.86
-3871.37
-4098.13
-4354.34
-4601.34
-4945.2
-5303.49
-5636.53
-6530.22
-10074.6
-30118.7
-118299
-8072.7
-3280.65
4156.78
2960.07
1568.27
2601.67
3523.29
4794.4
7068.08
12666.3
31079.5
87600.1
148096
95202.4
61980.3
40750.2
38182.1
23400.4
25706.7
20849.4
14944.7
15516.1
16195.2
16551.1
18524
13828.8
16346.2
18313.2
16116.6
15692.8
17285.6
13390.9
15822.7
11766.7
14124.7
10302.4
12281.6
9479.07
7145
5165.32
3449.25
1917.61
487.621
-556.314
-1381.47
-2152.37
-3301.36
-4786.1
-6911.74
-7586.88
-6775.06
-6267.93
-5416.34
-3839.08
-1210.94
1987.37
3369.05
4619.18
5511.02
5875.39
5340.22
5887.35
4912.87
4849.03
3650.05
2610.17
2098.05
1319.99
1015.01
28.9141
150.564
-1135.29
151.789
-1716.83
-755.055
-3029.56
-993.629
-2516.31
-2247.53
-2174.87
-2125.32
-2093.09
-2039.42
-2036.63
-2016.22
-2032.89
-2046.68
-2059.82
-2050.35
-2060.07
-2111.15
-2163.44
-2200.49
-2240.75
-2266.86
-2313.83
-2399.51
-2455.78
-2541.03
-2644.89
-2745.92
-2802.82
-2878.5
-2981.45
-3130.89
-3234.19
-3342.14
-3467.02
-3607.24
-3715.1
-3690.78
-3584.23
-3485.52
-3521.95
-3571.8
-4473.73
-7738.1
-71036.6
-69155.7
-14742.2
-7277.54
2205.6
2429.76
2954.49
3898.58
5875.09
11237.6
20554.2
40317.2
92913.6
164188
102421
63373.3
38413.4
30108.2
23300.4
14466.7
15827.2
14744.6
12396.3
15060.2
11422
13455
15468
16570.1
15016.9
13948.6
15816.3
14729.6
13437.5
14928.2
10476.3
12919.7
9893.98
10460.5
9780.92
9594.46
7649.31
5885.69
4105.18
2638.52
805.972
-187.751
-1089.9
-1689.14
-2264.79
-3755.85
-5133.78
-6887.76
-6494.34
-6269.83
-5159.78
-3810.18
-1208.02
1534.9
3036.97
3987.94
4664.79
5119.05
4416.03
5161.52
4427.4
4484.64
3623.66
2492.25
2108.56
1329.02
1093.69
163.327
355.657
-962.521
498.932
-1602.85
-770.367
-2614.81
-1299.13
-2233.81
-2095.29
-2090.66
-2075.43
-2044.18
-1990.6
-1963.98
-1972.7
-1991.94
-2000.48
-2022.36
-2023.26
-2026.67
-2064.88
-2107.64
-2120.74
-2169.93
-2209.3
-2263.72
-2320.63
-2384.91
-2448.42
-2529.95
-2635.12
-2724.9
-2803.06
-2850.74
-2986.9
-3080.96
-3137.06
-3261.64
-3384.26
-3584.63
-3835.17
-4019.08
-4253.04
-4469.55
-4990.4
-8111.68
-18553.1
-107809
-21253.7
-8773.09
-6839.27
1376.41
2660.67
4151.92
5509.73
10022.2
20421.4
39780.7
87199
169864
114460
67071
37013.2
27728.2
20384.3
18006.6
16466.4
11570.3
9468.51
10318.4
11406.4
12108
13720.6
12571.7
13650
14938.5
15398
13379.4
13236.1
13225
11640.2
11766.6
9702.23
8978.99
9550.95
7466.94
9104.71
7350.66
6240.09
4034.18
3345.68
2019.22
460.049
-620.034
-1335.68
-1607.68
-2989
-3418.02
-6118.1
-5783.66
-5798.51
-4785.61
-3826.24
-1851.53
322.973
2021.35
3577.83
3369.3
4004.89
3865.66
4277.18
4492.15
4110.09
3549.47
2619.07
2164.08
1654.92
1279.96
294.895
647.788
-616.393
422.316
-1443.65
-565.877
-2485.76
-1153.64
-2235.16
-2063.57
-2030.89
-2003.87
-1972.53
-1955.04
-1926.5
-1928.05
-1935.29
-1923.64
-1962.25
-1958.29
-1970.38
-1998.02
-2045.76
-2055.74
-2111.94
-2129.83
-2204.6
-2263.57
-2321.09
-2377.73
-2464.7
-2531.3
-2638.57
-2716.77
-2808.74
-2940.71
-3085.26
-3218.77
-3341.34
-3509.67
-3675.48
-3896.98
-4035.57
-4181.99
-4321.49
-5075.33
-8175.98
-42429.3
-91883.8
-12932.2
-4677.99
-5100.9
4057.02
4604.76
4873.8
8269.47
18472.9
40618.2
83990
165144
126997
70108.6
40789.9
26258.7
23662.4
15864.4
14294.1
12556
10520.3
11641.4
11141.7
8294.91
9965.46
10782
12005.5
12195.8
12741.5
12504.1
13013.2
12550.4
11361.6
11451.2
10990.3
9323.79
9003.25
6504.05
7871.77
6432.76
7161.68
5962.4
4296.45
2801.51
1815.68
739.091
-288.799
-1223.32
-1799.12
-2770.72
-2857.04
-5508.01
-5539.38
-5448.17
-4410.27
-3645.35
-2218.3
-135.739
1387.74
2123.69
2603.68
3142.86
3645.05
3686.65
4108.68
3847
3343.23
2562.36
2196.37
1741.06
1344.33
426.159
577.081
-279.204
296.03
-1301.62
-252.219
-2126.55
-1192.82
-2111.09
-1949.2
-1935.71
-1927.46
-1914.83
-1884.99
-1862.38
-1867.79
-1879.55
-1876.54
-1884.89
-1895.4
-1910.14
-1937.2
-1975.04
-2012.84
-2010.62
-2064.61
-2127.91
-2195.23
-2250.03
-2278.67
-2347.77
-2414.51
-2495.39
-2577.97
-2725
-2802.57
-2957.72
-2971.88
-3043.17
-3089.36
-3185.85
-3263.09
-3369.93
-3434.93
-3533.46
-5200.34
-11568.7
-81069.3
-42099.5
-10176.9
-5233.44
-4050.24
4401.68
5874.49
8797.79
16590.6
37917.2
80918.9
158364
122390
74615.9
47713
29623.3
22617.3
16928.9
10284.9
11546
10915.5
8596.81
10286.4
9785.93
10177.1
10320.5
9775.77
10281.3
10953.1
11478.2
11431.1
11202.5
11052.3
11212.1
11161.2
10056.2
9345.1
7811.76
7286.87
6364.3
5458.34
6558.43
4865.07
4559.8
3012.35
2173.57
1282.67
1.54743
-939.355
-1621.16
-2199.94
-2399.72
-4352.6
-5241.86
-5079.05
-4241.59
-3713.91
-2388.78
-926.837
642.401
1644.79
2074.81
2899.12
3145.68
3265.46
3748.25
3523.78
3324.28
2621.46
2196.92
1838.27
1347.86
815.452
701.732
-82.0836
384.24
-1142.12
-174.708
-2182.57
-1130.89
-2041.97
-1870.17
-1853.78
-1831.63
-1836.41
-1837.96
-1804.56
-1806.56
-1808.02
-1801.8
-1806.74
-1835.4
-1840.57
-1858.48
-1896.54
-1923.45
-1944.87
-1993.32
-2039.04
-2106.84
-2169.6
-2209.53
-2256.18
-2324.69
-2406.77
-2462.04
-2559.72
-2724.86
-2876.28
-2963.64
-3097.08
-3247.27
-3430.65
-3590.82
-3800.22
-4108.91
-4787.81
-7451.85
-22356.6
-91364.8
-9350.76
-3369.1
-3004.61
-2810.3
5481.24
8620.35
15179.8
33106.6
76802.9
149305
132672
69951.5
43004.7
30597
19410.6
12211.1
9410.75
12230.1
10518.7
8925
9777.63
10718.7
8950.12
9230.77
9463.4
10082.3
9793.32
10540
10031.2
10163.5
9866.81
9902.54
10277.4
9986.31
10019.2
9726.41
7690.07
7640.75
5570.81
5585.56
4222.14
4948.02
4778.97
3233.63
1992.39
1036.28
341.599
-570.326
-1408.68
-2302.29
-2603.49
-3693.95
-4665.03
-4809.97
-4078.41
-3585.64
-2681.43
-1255.75
-227.308
1078.86
1683.61
2393.2
2591.33
2790.45
3295.94
2942.18
2896.05
2424.41
2089.42
1808.21
1264.95
935.314
674.673
-195.184
685.423
-891.422
-170.36
-1882.87
-1093.7
-1929.62
-1763.96
-1770.89
-1756.71
-1737.68
-1737.6
-1740.96
-1737.99
-1725.98
-1750.48
-1738.84
-1753.34
-1777.35
-1779.85