/*--------------------------------*- C++ -*----------------------------------*\
| =========                 |                                                 |
| \\      /  F ield         | OpenFOAM: The Open Source CFD Toolbox           |
|  \\    /   O peration     | Version:  2.2.x                                 |
|   \\  /    A nd           | Web:      www.OpenFOAM.org                      |
|    \\/     M anipulation  |                                                 |
\*---------------------------------------------------------------------------*/
FoamFile
{
    version     2.0;
    format      ascii;
    class       volScalarField;
    location    "1.3";
    object      rho;
}
// * * * * * * * * * * * * * * * * * * * * * * * * * * * * * * * * * * * * * //

dimensions      [1 -3 0 0 0 0 0];

internalField   nonuniform List<scalar> 
14161
(
1.00042
0.996692
0.995493
0.993731
0.994238
0.996069
0.997602
0.998645
0.997929
0.995809
0.994482
0.991071
0.99101
0.991995
0.993491
0.99241
0.992422
0.993069
0.993734
0.994485
0.993708
0.989865
0.9879
0.98734
0.985742
0.984567
0.985062
0.98554
0.985368
0.985294
0.984886
0.984315
0.984615
0.986306
0.987441
0.988294
0.989152
0.989906
0.990743
0.991957
0.993059
0.993063
0.992163
0.989535
0.995546
1.08118
1.71262
2.56235
2.39436
2.33826
2.37109
2.40049
2.42598
2.44515
2.45821
2.47054
2.48141
2.48514
2.48508
2.48296
2.47546
2.46447
2.45608
2.44991
2.44311
2.43695
2.43248
2.43106
2.43037
2.43058
2.42998
2.43275
2.43529
2.43469
2.43239
2.42413
2.40629
2.38515
2.35792
2.32713
2.28689
2.24789
2.21578
2.20016
2.19749
2.21943
2.25239
2.27961
2.32623
2.33442
2.39019
2.53962
2.72788
2.8808
2.97015
3.02777
3.05417
3.08063
3.0981
3.10142
3.11036
3.1217
3.12898
3.13269
3.13267
3.13083
3.12607
3.11824
3.11208
3.11126
3.10644
3.11335
3.12324
3.13925
3.15071
3.16999
3.17931
3.20615
3.19404
0.987595
0.965122
0.969094
0.97741
0.988189
0.996192
1.00215
1.0032
1.00122
0.994402
0.982641
0.968676
0.959528
0.956655
0.957571
0.96097
0.968027
0.976039
0.986603
0.991973
0.992055
0.989682
0.986452
0.982793
0.979052
0.974744
0.973678
0.973222
0.972648
0.972489
0.972481
0.973113
0.974248
0.974577
0.974032
0.973771
0.973587
0.973376
0.973312
0.973186
0.97285
0.972436
0.970765
0.972668
0.959679
1.16741
2.06626
2.46102
2.58517
2.59502
2.58188
2.56385
2.55124
2.53627
2.51884
2.50013
2.48708
2.48054
2.47027
2.45714
2.44289
2.42872
2.41173
2.40001
2.39339
2.3903
2.38668
2.38258
2.37754
2.37104
2.36407
2.35719
2.34971
2.33996
2.32707
2.31326
2.29215
2.2689
2.2394
2.21301
2.18038
2.14994
2.13438
2.15442
2.20151
2.2757
2.34973
2.42104
2.46491
2.55521
2.62926
2.72371
2.81046
2.91405
2.98082
3.02823
3.03896
3.05251
3.06551
3.07679
3.07971
3.08504
3.09263
3.09831
3.1015
3.10222
3.1004
3.09881
3.09988
3.10487
3.10764
3.11615
3.12582
3.13987
3.15249
3.17184
3.18615
3.21709
3.20537
1.04262
1.06771
1.05442
1.03385
1.01102
0.993584
0.987216
0.988266
0.992872
1.00481
1.02313
1.0419
1.0651
1.06871
1.06524
1.0571
1.04381
1.02858
1.01615
1.00815
0.995683
0.991273
0.994049
1.00054
1.0096
1.01696
1.02151
1.02656
1.02675
1.02551
1.0235
1.02076
1.01861
1.01689
1.01627
1.0167
1.01803
1.02027
1.02324
1.02724
1.03277
1.03652
1.04008
1.05049
1.04716
1.54956
2.35481
2.70271
2.79904
2.7571
2.7106
2.67734
2.64954
2.62197
2.58436
2.55501
2.53557
2.53415
2.52756
2.499
2.47505
2.45874
2.4545
2.45043
2.4425
2.43566
2.42832
2.42005
2.41243
2.40465
2.39612
2.3869
2.37713
2.36252
2.34222
2.3186
2.29209
2.26361
2.2386
2.20865
2.18181
2.15906
2.15393
2.18949
2.25522
2.34448
2.44457
2.54149
2.64153
2.74105
2.81445
2.85635
2.88498
2.92723
2.95228
2.98181
3.00226
3.01529
3.02835
3.03213
3.0365
3.04197
3.04483
3.04687
3.04983
3.05405
3.05901
3.06568
3.07412
3.08103
3.08696
3.09784
3.11047
3.12537
3.1383
3.1614
3.1784
3.21287
3.19972
0.942107
0.907173
0.921765
0.944555
0.971216
0.990716
0.998874
0.99961
0.994193
0.978591
0.951073
0.917786
0.90513
0.901417
0.905111
0.914295
0.931607
0.953578
0.975779
0.981204
0.980241
0.976258
0.969118
0.958751
0.947706
0.934606
0.92639
0.924195
0.922698
0.921042
0.92237
0.924798
0.927918
0.930676
0.933047
0.935065
0.937198
0.939837
0.941722
0.943187
0.944225
0.945675
0.947514
0.952063
0.943016
1.7062
2.29003
2.55252
2.62437
2.605
2.60947
2.59006
2.56729
2.56045
2.56475
2.54307
2.5049
2.47787
2.46356
2.46141
2.46868
2.46885
2.45697
2.44228
2.42665
2.41353
2.40194
2.39213
2.38374
2.37401
2.36352
2.35212
2.34139
2.32849
2.30709
2.28571
2.2625
2.2371
2.21364
2.18616
2.15974
2.14326
2.14162
2.18395
2.26355
2.35082
2.44042
2.53196
2.63186
2.6891
2.75833
2.81503
2.86881
2.9194
2.9495
2.97893
2.99976
3.00531
3.01203
3.01666
3.02034
3.02454
3.02496
3.02555
3.02666
3.0302
3.03443
3.04368
3.04918
3.06082
3.0705
3.0803
3.09193
3.10507
3.12232
3.15183
3.16847
3.20332
3.18638
1.06724
1.1173
1.09695
1.06515
1.03172
1.00094
0.992395
0.995475
1.00469
1.02311
1.05017
1.07815
1.11482
1.12126
1.11692
1.10674
1.08844
1.06554
1.04508
1.03205
1.00967
1.00241
1.00537
1.0137
1.02622
1.0379
1.04408
1.05414
1.05797
1.05941
1.05871
1.0566
1.05253
1.04743
1.0464
1.04759
1.04975
1.05174
1.05416
1.05753
1.06182
1.0689
1.07202
1.07843
1.06318
1.29104
2.27464
2.66218
2.75648
2.72879
2.69889
2.66977
2.63687
2.61857
2.60461
2.59136
2.58109
2.56868
2.55406
2.54326
2.53625
2.52251
2.50819
2.49318
2.47813
2.46681
2.45698
2.44997
2.44367
2.43593
2.4252
2.41185
2.39902
2.38534
2.37124
2.35517
2.33555
2.31327
2.29293
2.26705
2.23651
2.21264
2.19627
2.22599
2.3001
2.36682
2.46546
2.52136
2.57449
2.6076
2.66529
2.73435
2.80422
2.86841
2.91855
2.96416
2.99552
3.00188
3.0115
3.01528
3.01928
3.02382
3.02692
3.02513
3.024
3.02422
3.02802
3.0315
3.03552
3.05217
3.05933
3.06968
3.07508
3.0848
3.10636
3.14431
3.16441
3.19131
3.17174
0.907565
0.867591
0.889171
0.919442
0.951386
0.981638
0.990416
0.988033
0.979165
0.958401
0.924427
0.88338
0.87442
0.875423
0.881073
0.892356
0.910119
0.930929
0.953985
0.96273
0.96095
0.955238
0.946481
0.934374
0.918826
0.906326
0.895684
0.890339
0.886191
0.885693
0.887559
0.890573
0.894281
0.897975
0.901868
0.906645
0.911885
0.916921
0.920297
0.922823
0.925266
0.927743
0.927566
0.925517
0.928247
0.960754
1.52774
2.39752
2.42489
2.40089
2.402
2.40869
2.41505
2.4222
2.42688
2.42672
2.427
2.42184
2.41939
2.41343
2.41196
2.40338
2.3963
2.38444
2.3747
2.36464
2.35699
2.35272
2.35048
2.34741
2.34313
2.33757
2.32781
2.31744
2.30128
2.28404
2.2649
2.24594
2.22808
2.20278
2.17532
2.15342
2.13029
2.13803
2.21856
2.29999
2.40382
2.44041
2.48181
2.51301
2.54947
2.60138
2.65977
2.73617
2.82732
2.91736
2.97241
2.9897
3.00511
3.01267
3.02176
3.02541
3.02803
3.02322
3.01945
3.01852
3.02139
3.02764
3.03677
3.04858
3.0528
3.05911
3.06802
3.08
3.10133
3.13982
3.15908
3.18261
3.16361
1.08016
1.14472
1.12343
1.08986
1.05331
1.02137
1.00889
1.00971
1.01635
1.03293
1.05881
1.08815
1.12809
1.13621
1.13211
1.12231
1.10448
1.08032
1.05825
1.04014
1.0156
1.00623
1.00838
1.01511
1.02699
1.03645
1.04464
1.0549
1.05661
1.05724
1.05941
1.05799
1.05524
1.05139
1.05117
1.05287
1.05382
1.0549
1.05527
1.056
1.05741
1.05961
1.06228
1.06406
1.06664
1.08805
1.41742
2.20081
2.53736
2.52905
2.49457
2.46651
2.44743
2.43556
2.42262
2.40959
2.39426
2.37874
2.36374
2.34958
2.33992
2.32848
2.31873
2.30752
2.29791
2.28611
2.27341
2.26524
2.26281
2.25877
2.25292
2.2486
2.239
2.23263
2.22342
2.20391
2.18767
2.17491
2.15996
2.13169
2.10326
2.09681
2.09149
2.12676
2.25621
2.38001
2.44446
2.48825
2.53078
2.54382
2.5666
2.59181
2.61911
2.66026
2.72831
2.83519
2.92672
2.9624
2.99039
3.00355
3.01732
3.02445
3.02829
3.02423
3.01919
3.01647
3.01659
3.02138
3.02584
3.04029
3.04231
3.04794
3.06029
3.07362
3.09523
3.1337
3.15163
3.17263
3.15205
0.893084
0.849263
0.871464
0.900898
0.932582
0.960859
0.966998
0.968144
0.962517
0.946596
0.919181
0.888052
0.882492
0.881885
0.88438
0.891778
0.904434
0.921815
0.939757
0.949077
0.949446
0.94505
0.939059
0.931585
0.921646
0.912049
0.903039
0.899998
0.894885
0.8933
0.894864
0.897386
0.900948
0.905296
0.910247
0.915904
0.921982
0.928178
0.934024
0.939501
0.943427
0.945133
0.946895
0.946004
0.949101
0.965687
1.70232
2.41236
2.44749
2.40644
2.36607
2.34984
2.3308
2.31749
2.3077
2.29524
2.27882
2.2682
2.25648
2.25192
2.24202
2.23103
2.22141
2.21518
2.21095
2.20467
2.19799
2.19378
2.18955
2.18878
2.18544
2.17926
2.17206
2.1609
2.15073
2.13394
2.11809
2.10171
2.0818
2.05075
2.02833
2.012
2.02333
2.09437
2.2156
2.29325
2.32457
2.37785
2.43093
2.45979
2.49247
2.52509
2.55614
2.59169
2.6507
2.7513
2.86268
2.92456
2.97299
2.99142
3.00769
3.01783
3.02428
3.0217
3.01787
3.01446
3.01429
3.01522
3.01766
3.03093
3.03339
3.04072
3.05363
3.06914
3.09311
3.12989
3.14694
3.16628
3.14684
1.07992
1.1454
1.12624
1.0971
1.06549
1.0378
1.02069
1.01767
1.02133
1.03347
1.05318
1.07954
1.10911
1.11325
1.10893
1.09995
1.08494
1.06481
1.04392
1.02704
1.00807
0.996984
0.996871
0.999929
1.0072
1.01576
1.02288
1.02508
1.02912
1.03235
1.03302
1.0323
1.03229
1.03157
1.03002
1.02765
1.02621
1.02571
1.0261
1.02685
1.0279
1.02791
1.02663
1.02566
1.02434
1.05802
2.05251
2.49319
2.57248
2.54986
2.50546
2.47678
2.44207
2.4217
2.39575
2.37321
2.35031
2.32878
2.31349
2.29925
2.28262
2.26937
2.26048
2.25553
2.25014
2.24168
2.23341
2.22431
2.21491
2.20865
2.2003
2.18982
2.18033
2.17073
2.16171
2.14516
2.12459
2.10607
2.08276
2.04788
2.0267
2.02835
2.07018
2.16011
2.25281
2.30744
2.28633
2.31819
2.37583
2.39709
2.41436
2.44733
2.4898
2.53943
2.59218
2.67195
2.78479
2.8761
2.94344
2.9678
2.98821
3.00308
3.01506
3.01602
3.01488
3.01118
3.01045
3.00874
3.01116
3.02236
3.02386
3.03189
3.04476
3.06095
3.0869
3.12262
3.13859
3.15819
3.14097
0.900939
0.854841
0.873099
0.896537
0.920217
0.942892
0.952615
0.95613
0.956233
0.951239
0.939003
0.92022
0.915801
0.911577
0.908467
0.911908
0.919179
0.931761
0.944828
0.956172
0.95992
0.95854
0.954716
0.954315
0.952603
0.948635
0.944142
0.939962
0.935017
0.934384
0.935312
0.937009
0.940281
0.944871
0.950019
0.954286
0.958953
0.96413
0.969266
0.975289
0.977798
0.98157
0.983567
0.986614
0.982103
1.11257
2.26309
2.52048
2.6115
2.60715
2.58216
2.55405
2.5266
2.50952
2.48618
2.45961
2.43806
2.41524
2.40024
2.38499
2.36818
2.35129
2.33956
2.33291
2.32588
2.32058
2.31663
2.31555
2.30638
2.29017
2.27652
2.26723
2.25662
2.24069
2.22195
2.19966
2.17637
2.15185
2.12044
2.09503
2.09224
2.12226
2.20217
2.2921
2.28162
2.28521
2.26416
2.26966
2.30042
2.33432
2.37806
2.42697
2.47479
2.52596
2.56744
2.63219
2.73423
2.83763
2.91261
2.94238
2.96657
2.98176
2.99787
3.00363
3.00529
3.00197
3.00198
2.99952
3.00187
3.01078
3.01289
3.02019
3.03163
3.04754
3.07405
3.10939
3.1251
3.14324
3.12984
1.06351
1.12024
1.10562
1.08373
1.06
1.03811
1.02211
1.01742
1.0197
1.02605
1.03524
1.04897
1.06488
1.06683
1.06285
1.05575
1.04544
1.03241
1.01827
1.00618
0.998351
0.989669
0.98635
0.984247
0.984213
0.98863
0.991319
0.994304
0.995312
0.996393
0.998312
0.998181
0.998614
0.998431
0.997283
0.996254
0.99515
0.993524
0.991314
0.990467
0.988985
0.987349
0.985619
0.987361
0.980158
1.15933
2.46878
2.59718
2.64173
2.63182
2.59969
2.57168
2.54408
2.5314
2.51328
2.50372
2.48147
2.46396
2.45275
2.43842
2.43661
2.43868
2.43454
2.42751
2.4196
2.40922
2.39804
2.38514
2.3725
2.36184
2.35275
2.34293
2.33159
2.32033
2.30679
2.29285
2.27209
2.24108
2.21338
2.20102
2.22436
2.29934
2.38431
2.37863
2.32489
2.30024
2.26922
2.26499
2.24881
2.2545
2.29749
2.35418
2.39957
2.45501
2.50712
2.57267
2.67649
2.79662
2.89558
2.93311
2.9585
2.96564
2.97957
2.98767
2.99182
2.99012
2.99241
2.98927
2.99236
2.9985
3.00103
3.00855
3.01876
3.03465
3.06112
3.09519
3.11226
3.12975
3.1222
0.921804
0.878414
0.892829
0.910993
0.928805
0.944372
0.955325
0.962634
0.966332
0.966739
0.962062
0.952386
0.95
0.94676
0.943026
0.945064
0.949599
0.95757
0.966339
0.976885
0.981966
0.981928
0.982167
0.983613
0.982596
0.979301
0.977851
0.977169
0.976765
0.976018
0.975856
0.97569
0.975447
0.974982
0.976015
0.977727
0.979992
0.982732
0.986074
0.990459
0.995696
1.00036
1.00509
1.01334
1.01905
1.11644
2.41638
2.67133
2.76621
2.75635
2.73031
2.70828
2.68249
2.67524
2.65177
2.63025
2.60334
2.58156
2.55712
2.5321
2.52467
2.52488
2.51882
2.5131
2.51184
2.50931
2.50351
2.49141
2.47579
2.46043
2.44683
2.42741
2.40474
2.38412
2.36381
2.3407
2.31549
2.29096
2.27887
2.28988
2.34597
2.4398
2.46485
2.47146
2.40748
2.3387
2.30288
2.27265
2.24285
2.2285
2.24756
2.2789
2.31268
2.36898
2.43563
2.51162
2.62504
2.76865
2.88818
2.93664
2.96415
2.97034
2.98211
2.98637
2.99002
2.98823
2.99111
2.98599
2.98736
2.98963
2.99109
2.99685
3.00555
3.02093
3.04702
3.07869
3.0974
3.11375
3.10935
1.04885
1.08863
1.07652
1.0595
1.04188
1.02655
1.01603
1.01115
1.00932
1.00882
1.00954
1.01465
1.02204
1.02331
1.02093
1.01815
1.01417
1.00861
1.00155
0.993918
0.985717
0.980166
0.975143
0.974073
0.973527
0.973768
0.973598
0.974367
0.975233
0.975372
0.975499
0.975729
0.976747
0.977899
0.977715
0.977597
0.977481
0.976903
0.975949
0.974924
0.974147
0.973502
0.973844
0.975132
0.975686
0.996244
2.08351
2.58974
2.64496
2.62579
2.62559
2.64582
2.64778
2.65331
2.64309
2.6305
2.61107
2.59126
2.5718
2.55608
2.55046
2.54534
2.54231
2.54746
2.55638
2.56495
2.56646
2.56376
2.55468
2.54184
2.5268
2.50795
2.48556
2.46164
2.43855
2.41509
2.40009
2.38449
2.37182
2.40741
2.46346
2.55221
2.49513
2.48296
2.43739
2.3683
2.32025
2.27858
2.24163
2.21452
2.21533
2.22553
2.2471
2.28852
2.35883
2.44584
2.56733
2.73325
2.87088
2.93008
2.95826
2.96823
2.97938
2.97938
2.98168
2.97939
2.98329
2.97815
2.97986
2.9787
2.97895
2.98336
2.99179
3.00745
3.03246
3.06296
3.08597
3.10222
3.10124
0.950494
0.91626
0.926417
0.939391
0.952245
0.963557
0.973062
0.979127
0.983435
0.985693
0.983465
0.978867
0.975381
0.972691
0.971628
0.973165
0.975865
0.979828
0.985431
0.989518
0.993216
0.994008
0.994005
0.995306
0.994842
0.994021
0.992655
0.990897
0.989118
0.987704
0.987041
0.986295
0.986008
0.985877
0.986103
0.986719
0.987771
0.989204
0.991011
0.993374
0.996109
0.999058
1.00254
1.00553
1.01306
1.02538
1.35681
2.62074
2.58725
2.53581
2.52104
2.51752
2.51983
2.52336
2.51549
2.5137
2.50914
2.49838
2.50105
2.49841
2.50154
2.51568
2.53416
2.55224
2.57086
2.58797
2.59113
2.59132
2.5884
2.5785
2.56464
2.5485
2.52694
2.50402
2.48753
2.46782
2.45044
2.45158
2.47516
2.53541
2.55514
2.61464
2.55151
2.49344
2.47522
2.42325
2.34487
2.29396
2.25781
2.22375
2.20639
2.20488
2.20754
2.23237
2.28685
2.37359
2.50188
2.67955
2.84232
2.92059
2.96398
2.97877
2.98826
2.98689
2.98675
2.98318
2.98761
2.98266
2.98371
2.98098
2.97782
2.97561
2.9789
2.99267
3.01666
3.04127
3.07217
3.08935
3.0898
1.03172
1.05484
1.04579
1.03455
1.02336
1.01404
1.00577
1.00101
1.0001
0.998454
0.99511
0.996087
0.99843
0.999192
0.999683
1.00046
0.999373
0.997301
0.994013
0.989406
0.985017
0.980562
0.977361
0.975154
0.972917
0.972579
0.971657
0.971319
0.971539
0.971892
0.972466
0.97323
0.974103
0.974889
0.975371
0.976148
0.976548
0.976592
0.976094
0.974775
0.972793
0.969871
0.966877
0.961786
0.966103
1.01306
1.58468
2.23597
2.31144
2.31972
2.33656
2.33911
2.34384
2.34565
2.33665
2.33736
2.33131
2.33477
2.31536
2.32595
2.31555
2.36362
2.42584
2.48469
2.55175
2.58187
2.59866
2.60009
2.59879
2.59324
2.58554
2.57356
2.56304
2.55617
2.54904
2.54784
2.56703
2.60645
2.65117
2.71985
2.68601
2.66736
2.60796
2.52827
2.50847
2.4605
2.38121
2.33593
2.29986
2.2586
2.22562
2.20337
2.19848
2.21065
2.25061
2.32291
2.44882
2.63869
2.82313
2.91668
2.96475
2.98821
2.99928
2.99739
2.99585
2.99111
2.99574
2.99066
2.99009
2.98495
2.97726
2.96881
2.96774
2.97804
2.99933
3.01684
3.05659
3.07843
3.08172
0.973172
0.951825
0.958121
0.96688
0.975773
0.983419
0.990265
0.993666
0.996052
0.995952
0.993529
0.990773
0.987471
0.986218
0.986088
0.986903
0.988251
0.989858
0.991777
0.992777
0.993774
0.993608
0.993146
0.992948
0.992227
0.991352
0.990296
0.989204
0.988223
0.987352
0.986599
0.985763
0.984749
0.983695
0.983152
0.982762
0.982509
0.982542
0.982919
0.98355
0.984268
0.985207
0.985415
0.988784
0.99871
1.18941
1.77952
2.03486
2.12886
2.21061
2.26557
2.27059
2.26725
2.25816
2.23931
2.23681
2.21299
2.21878
2.17355
2.16307
2.10547
2.16366
2.20016
2.25702
2.36439
2.49193
2.56272
2.59275
2.60808
2.61334
2.61063
2.61137
2.62243
2.64692
2.67739
2.71697
2.77561
2.83637
2.86716
2.88228
2.83604
2.79207
2.72133
2.62849
2.58513
2.51999
2.4458
2.39779
2.35109
2.30229
2.25734
2.22988
2.21644
2.22012
2.24449
2.29764
2.40242
2.58121
2.77651
2.8921
2.95173
2.9821
2.99743
2.99801
2.99653
2.99117
2.99411
2.9875
2.98713
2.98159
2.97371
2.96072
2.95651
2.96336
2.98144
2.99289
3.03972
3.06669
3.0735
1.01574
1.02729
1.02149
1.0148
1.00876
1.00297
0.999183
0.996062
0.994205
0.992091
0.989622
0.990034
0.990847
0.991536
0.992216
0.993658
0.993635
0.992955
0.991569
0.989396
0.98662
0.983727
0.981164
0.978989
0.976846
0.976248
0.975273
0.974851
0.974744
0.974965
0.975265
0.975784
0.976131
0.976796
0.977252
0.977596
0.977949
0.978322
0.97811
0.977489
0.976313
0.974345
0.970708
0.973401
1.00324
1.56452
1.86034
1.92818
1.95495
2.0547
2.1387
2.19116
2.19291
2.17553
2.19
2.18949
2.17472
2.15978
2.13673
2.10638
2.02821
2.03759
2.05863
2.09076
2.12875
2.24441
2.40867
2.54435
2.60547
2.63922
2.6695
2.71415
2.76202
2.8223
2.89012
2.95998
3.00121
3.02543
2.99522
2.96287
2.9265
2.87033
2.81923
2.75477
2.68771
2.61667
2.54287
2.48101
2.42214
2.36885
2.31414
2.27389
2.25282
2.25002
2.26034
2.30305
2.39677
2.55804
2.74281
2.86826
2.93627
2.97342
2.99712
3.00176
3.00325
2.99954
3.00021
2.9911
2.98779
2.9803
2.97141
2.95439
2.94594
2.95099
2.96392
2.97365
3.02128
3.05267
3.06219
0.986562
0.976276
0.97962
0.984615
0.989766
0.994218
0.997008
0.998855
0.998842
0.997944
0.995433
0.993345
0.991824
0.99104
0.990624
0.990809
0.991135
0.991484
0.991956
0.99184
0.99066
0.98929
0.988399
0.987696
0.986824
0.985885
0.985004
0.984235
0.983476
0.982854
0.982151
0.981314
0.980754
0.979981
0.979193
0.978525
0.977861
0.976933
0.97599
0.975485
0.975213
0.974723
0.977456
0.986598
1.13653
1.8231
1.93887
1.95002
1.95102
1.97274
2.03147
2.10392
2.16971
2.16513
2.18789
2.19555
2.17679
2.1284
2.13228
2.08171
2.06766
2.06148
2.01712
1.973
1.96835
2.02908
2.20795
2.43057
2.58057
2.68418
2.77084
2.8587
2.94392
3.0193
3.05559
3.08863
3.08594
3.07875
3.04862
3.02248
2.99234
2.94333
2.89257
2.84055
2.78104
2.72223
2.64859
2.57616
2.51119
2.45696
2.39465
2.33488
2.29756
2.28501
2.28773
2.31808
2.39978
2.53881
2.70485
2.83089
2.90475
2.94879
2.9811
2.98958
2.99353
2.99184
2.99208
2.98281
2.98212
2.97449
2.96531
2.9467
2.93418
2.93711
2.94524
2.95348
3.00092
3.03563
3.05043
1.00538
1.01031
1.00696
1.00315
1.00037
0.998118
0.996584
0.995333
0.99416
0.992435
0.990446
0.990444
0.990628
0.991036
0.991229
0.991684
0.99201
0.991804
0.99096
0.989293
0.986856
0.984535
0.982809
0.98178
0.980625
0.979085
0.977957
0.97745
0.976911
0.976813
0.976701
0.976908
0.977046
0.977339
0.977581
0.977759
0.978169
0.978625
0.978339
0.977789
0.976566
0.974251
0.976342
0.995833
1.53132
1.9024
1.9375
1.93668
1.9318
1.93578
1.95354
1.99475
2.05412
2.11576
2.13946
2.12635
2.14718
2.06443
2.08834
2.02756
2.02729
1.99241
1.98185
1.94444
1.99772
2.13284
2.33879
2.53409
2.67396
2.76975
2.86482
2.90392
2.96219
3.00542
3.03814
3.05858
3.06259
3.05903
3.03951
3.02035
2.99273
2.95501
2.91465
2.8697
2.82725
2.78349
2.72729
2.66314
2.60111
2.5407
2.47806
2.40354
2.35025
2.32329
2.31586
2.33976
2.41068
2.53299
2.68123
2.80032
2.87009
2.92296
2.96538
2.97847
2.98555
2.98531
2.9838
2.97254
2.97465
2.96834
2.96054
2.94358
2.92653
2.92625
2.92936
2.93653
2.98162
3.01734
3.03768
0.993075
0.989444
0.9909
0.993308
0.995889
0.997152
0.998214
0.998076
0.997544
0.996356
0.9943
0.993304
0.992666
0.99207
0.991531
0.99139
0.991577
0.991497
0.990622
0.988753
0.987191
0.986263
0.985436
0.984706
0.983845
0.98253
0.981169
0.980355
0.979619
0.979047
0.978521
0.978078
0.977649
0.97685
0.976089
0.975597
0.975384
0.974467
0.972608
0.970015
0.966114
0.967053
0.974858
1.05912
1.81484
1.96933
1.96457
1.95002
1.93674
1.9313
1.93071
1.93929
1.96899
2.02741
2.09426
2.11648
2.16763
2.07297
2.12146
2.044
2.06438
2.03318
2.12081
2.19927
2.3449
2.47593
2.61666
2.70963
2.79694
2.85282
2.90835
2.92055
2.95487
2.97256
2.99954
3.01617
3.02632
3.02807
3.01899
3.00724
2.98571
2.95212
2.91999
2.88408
2.85012
2.81521
2.77797
2.7302
2.67706
2.62121
2.54561
2.47305
2.40298
2.36546
2.35583
2.37501
2.43087
2.53337
2.66442
2.76634
2.8337
2.8957
2.94532
2.9639
2.97238
2.9731
2.97267
2.96257
2.96875
2.9647
2.95661
2.93978
2.91835
2.91473
2.91395
2.92083
2.96252
2.99676
3.02406
1.00022
1.0018
1.00036
0.9985
0.997543
0.996939
0.996467
0.995774
0.994765
0.993359
0.992275
0.991873
0.991594
0.991407
0.991316
0.991437
0.991716
0.991413
0.990115
0.987393
0.985676
0.98477
0.983973
0.983056
0.981779
0.979568
0.978069
0.977302
0.976608
0.976153
0.975828
0.975655
0.975644
0.975593
0.975621
0.976031
0.976978
0.976578
0.974621
0.971849
0.969507
0.973262
0.981059
1.33423
1.96437
1.95605
1.9496
1.94337
1.93486
1.92617
1.92018
1.92288
1.92939
1.94968
2.00721
2.08031
2.16724
2.11866
2.20189
2.18996
2.29073
2.36097
2.46953
2.54286
2.60434
2.65689
2.69131
2.74786
2.79189
2.84287
2.88062
2.91274
2.93353
2.94332
2.95715
2.96927
2.98223
2.98678
2.98483
2.98605
2.97605
2.95407
2.93295
2.90666
2.87574
2.83991
2.8089
2.76994
2.72479
2.6744
2.60762
2.53416
2.4692
2.41806
2.40197
2.41341
2.45424
2.53808
2.65071
2.73901
2.80056
2.86716
2.92172
2.94454
2.95502
2.95856
2.96328
2.95539
2.9641
2.96139
2.95231
2.93458
2.91144
2.90234
2.89913
2.90529
2.94376
2.97814
3.00909
0.995569
0.995282
0.995684
0.996339
0.996773
0.997125
0.997284
0.996962
0.996198
0.995083
0.993853
0.993146
0.992515
0.991893
0.991543
0.991577
0.991469
0.990702
0.988756
0.986633
0.985673
0.985112
0.984798
0.984132
0.982766
0.98024
0.978382
0.97739
0.976664
0.97609
0.975635
0.975344
0.974986
0.974458
0.974165
0.97396
0.97385
0.973262
0.971182
0.96627
0.96138
0.96353
1.00334
1.69938
1.94095
1.96305
1.9626
1.96182
1.95787
1.95021
1.94022
1.93132
1.92651
1.94048
1.99234
2.07889
2.22978
2.32025
2.43579
2.49747
2.55989
2.58029
2.59651
2.60864
2.63933
2.65584
2.69351
2.73777
2.77777
2.81033
2.83577
2.86329
2.88581
2.90349
2.92121
2.94113
2.95218
2.95998
2.95602
2.96354
2.96361
2.95281
2.9379
2.91649
2.8913
2.85754
2.82827
2.7958
2.75907
2.71346
2.65532
2.58914
2.52577
2.47248
2.44706
2.45162
2.48303
2.55032
2.64036
2.7144
2.77577
2.84238
2.89713
2.92198
2.93593
2.94329
2.95388
2.94827
2.95919
2.95692
2.94625
2.92761
2.90371
2.89121
2.88475
2.89072
2.9255
2.96112
2.99212
0.997928
0.998751
0.998244
0.997425
0.996856
0.996568
0.996382
0.995963
0.995042
0.994129
0.993403
0.992811
0.992166
0.991711
0.991493
0.991512
0.991166
0.990018
0.987547
0.985834
0.985035
0.984594
0.984404
0.983799
0.9823
0.979381
0.977268
0.975908
0.97455
0.973588
0.973052
0.97273
0.972412
0.972085
0.971982
0.97201
0.97316
0.973735
0.972025
0.965491
0.965817
0.973973
1.15933
1.89875
1.98833
1.99948
1.99539
1.98683
1.97742
1.96845
1.95998
1.95418
1.95394
1.97295
2.06552
2.25668
2.48893
2.59424
2.61643
2.6291
2.61583
2.62441
2.61535
2.62644
2.63687
2.65525
2.68452
2.71398
2.74689
2.77683
2.80024
2.81828
2.83871
2.85763
2.87902
2.90362
2.92089
2.928
2.93042
2.94037
2.94675
2.94193
2.93004
2.91378
2.89075
2.863
2.83271
2.80363
2.7742
2.7366
2.68897
2.63667
2.56775
2.51354
2.48509
2.48508
2.50846
2.55956
2.63116
2.70042
2.75812
2.81614
2.86906
2.89637
2.91522
2.92743
2.94508
2.9415
2.95365
2.95014
2.938
2.91954
2.89493
2.88126
2.87055
2.87648
2.9091
2.94359
2.97241
0.996648
0.996804
0.997087
0.997052
0.997082
0.996846
0.996584
0.996152
0.995248
0.994566
0.993956
0.993262
0.992399
0.991819
0.991532
0.991354
0.990684
0.989144
0.986564
0.98514
0.984372
0.984123
0.984232
0.983948
0.98247
0.979357
0.977548
0.976079
0.974294
0.972708
0.971384
0.97043
0.969924
0.969609
0.969453
0.969319
0.969559
0.969923
0.969712
0.967521
0.97017
0.990468
1.55184
1.93554
1.97369
1.97737
1.97684
1.97564
1.97248
1.96958
1.97115
1.97992
2.0049
2.07034
2.23249
2.50505
2.66021
2.67408
2.65802
2.63084
2.62105
2.6162
2.61435
2.61797
2.62442
2.64048
2.66297
2.69144
2.7215
2.74599
2.76631
2.78274
2.79519
2.80844
2.83265
2.86238
2.8868
2.89872
2.90519
2.91727
2.92592
2.92508
2.91668
2.90433
2.88512
2.85983
2.83041
2.80208
2.77584
2.74556
2.70856
2.66895
2.60139
2.54607
2.51678
2.51569
2.53589
2.57444
2.63232
2.68855
2.7401
2.79097
2.8404
2.86999
2.89497
2.91196
2.93597
2.93326
2.94626
2.94139
2.92873
2.91122
2.88752
2.8722
2.85864
2.86394
2.89174
2.92578
2.9531
0.997143
0.997586
0.997471
0.997268
0.997181
0.996816
0.996402
0.995848
0.994863
0.994305
0.993907
0.993317
0.992345
0.991714
0.991435
0.991191
0.99034
0.988633
0.986232
0.984798
0.983662
0.983044
0.983114
0.983179
0.981949
0.978895
0.977097
0.975759
0.974193
0.971806
0.969422
0.967864
0.966849
0.965829
0.965191
0.964571
0.963863
0.963759
0.963365
0.964867
0.971388
1.05487
1.83167
2.00125
2.00872
2.00131
1.98948
1.98252
1.97941
1.9792
1.98324
2.00385
2.0677
2.21453
2.47072
2.69445
2.70492
2.67877
2.64988
2.63098
2.61818
2.60348
2.5942
2.60042
2.6126
2.62953
2.64718
2.66792
2.6942
2.7167
2.73055
2.74104
2.75208
2.76478
2.78286
2.81208
2.84216
2.86168
2.87584
2.8897
2.90256
2.90547
2.89972
2.88977
2.87425
2.85297
2.82384
2.79595
2.77328
2.74778
2.71958
2.68795
2.63616
2.57967
2.5428
2.53816
2.55285
2.5816
2.62639
2.67587
2.72384
2.76976
2.81433
2.84477
2.87444
2.89691
2.92529
2.92326
2.93724
2.9317
2.91894
2.9025
2.88027
2.86235
2.84512
2.85117
2.87354
2.90477
2.93177
0.996861
0.997116
0.997411
0.997378
0.997312
0.996965
0.99646
0.995874
0.994914
0.994349
0.993983
0.993498
0.992472
0.99172
0.991339
0.99091
0.989791
0.987998
0.986319
0.985082
0.983549
0.982196
0.981621
0.981637
0.980908
0.978516
0.976908
0.975721
0.974194
0.971467
0.967837
0.965851
0.964464
0.963241
0.962366
0.962032
0.961603
0.961808
0.962447
0.966695
0.977712
1.32581
1.99038
1.97901
1.97485
1.97529
1.97753
1.98049
1.98436
1.9918
2.01048
2.06775
2.20711
2.45942
2.70725
2.71549
2.6896
2.66161
2.63667
2.61246
2.60596
2.59691
2.58895
2.58727
2.59266
2.6063
2.62517
2.64672
2.66625
2.68052
2.69479
2.707
2.71741
2.728
2.74293
2.76399
2.79015
2.81647
2.83703
2.85625
2.87411
2.88183
2.88037
2.87083
2.85725
2.83832
2.81293
2.78642
2.76589
2.74517
2.72264
2.69871
2.6598
2.61228
2.56684
2.55453
2.56336
2.58492
2.6215
2.6679
2.71126
2.75087
2.78983
2.82101
2.85396
2.88163
2.91288
2.91127
2.92648
2.92114
2.90879
2.89427
2.8732
2.85345
2.83235
2.83821
2.85476
2.88433
2.91628
0.997033
0.997331
0.997543
0.99745
0.997306
0.996913
0.996274
0.995746
0.994934
0.9943
0.9939
0.993418
0.992395
0.991581
0.991142
0.990575
0.989186
0.987354
0.986166
0.985304
0.984109
0.981945
0.980253
0.979306
0.97876
0.977498
0.976453
0.975638
0.974004
0.970902
0.96585
0.96366
0.962301
0.961001
0.959737
0.958926
0.958041
0.957448
0.957842
0.963186
1.00869
1.70235
1.97467
1.98755
1.98774
1.98999
1.99382
1.99802
2.00636
2.02502
2.07448
2.20705
2.44987
2.69858
2.72985
2.69534
2.65712
2.62736
2.60832
2.59103
2.58482
2.57573
2.57426
2.5765
2.57926
2.58646
2.60002
2.61666
2.63223
2.64441
2.65809
2.67034
2.68247
2.69365
2.70751
2.72496
2.7456
2.76728
2.79009
2.81746
2.84061
2.85618
2.85941
2.85273
2.84223
2.82513
2.80311
2.77851
2.75791
2.74004
2.72133
2.7022
2.67489
2.63894
2.59462
2.57308
2.5752
2.59092
2.62171
2.66259
2.6989
2.73077
2.76622
2.8002
2.83571
2.86616
2.89984
2.89931
2.91606
2.91128
2.90014
2.88681
2.86694
2.84626
2.82082
2.82421
2.83766
2.86536
2.89991
0.99706
0.997361
0.99754
0.997631
0.997526
0.997135
0.996229
0.995631
0.995108
0.99446
0.993863
0.993289
0.992282
0.991352
0.990834
0.990174
0.988587
0.986826
0.98588
0.985263
0.984344
0.982132
0.979172
0.977375
0.97614
0.975657
0.975738
0.97556
0.973972
0.96982
0.963171
0.961012
0.959702
0.958715
0.957883
0.957217
0.956797
0.955904
0.957782
0.96567
1.13841
1.9128
2.00982
2.01077
2.00865
2.00802
2.00932
2.01526
2.03423
2.08333
2.20625
2.4462
2.67899
2.72597
2.70422
2.67125
2.62883
2.60481
2.59637
2.58171
2.57331
2.56409
2.56203
2.56267
2.56427
2.57053
2.57926
2.58933
2.59939
2.6113
2.62566
2.63881
2.64821
2.661
2.67493
2.68927
2.70742
2.72604
2.74817
2.77473
2.80427
2.82716
2.83711
2.83564
2.82749
2.81378
2.79435
2.77294
2.75372
2.73765
2.71996
2.70211
2.68156
2.65306
2.61639
2.59083
2.58734
2.59889
2.62125
2.65386
2.68521
2.71196
2.74611
2.78169
2.81858
2.85016
2.88569
2.88637
2.90441
2.90046
2.89088
2.87835
2.85927
2.83672
2.80722
2.81003
2.82066
2.84716
2.88231
0.997156
0.997433
0.997615
0.997754
0.99762
0.997186
0.996427
0.995477
0.995021
0.994533
0.993882
0.993184
0.992199
0.991121
0.99043
0.989642
0.987995
0.986401
0.985499
0.985019
0.984264
0.982302
0.978466
0.976114
0.974524
0.973676
0.973716
0.974354
0.973328
0.970168
0.962153
0.958241
0.956927
0.956409
0.956335
0.956501
0.956911
0.957005
0.961428
0.984858
1.53138
1.96307
1.99334
1.99317
1.99304
1.9966
2.00553
2.02674
2.07733
2.20054
2.43531
2.66924
2.73104
2.69573
2.65962
2.64346
2.61486
2.59179
2.58271
2.57727
2.56763
2.557
2.55223
2.54966
2.54823
2.55023
2.55458
2.56104
2.57122
2.58457
2.59996
2.61375
2.61923
2.63195
2.64491
2.65712
2.67314
2.6909
2.7129
2.7376
2.76837
2.79549
2.81236
2.81654
2.81304
2.80424
2.78953
2.77146
2.75242
2.73584
2.71813
2.70181
2.68615
2.65994
2.62988
2.60256
2.59554
2.60214
2.61777
2.64356
2.66996
2.69621
2.73002
2.76489
2.8015
2.8335
2.87086
2.87345
2.89227
2.88917
2.88099
2.86867
2.84976
2.82668
2.79414
2.79654
2.80338
2.83047
2.86363
0.997215
0.997409
0.997635
0.997905
0.997789
0.997355
0.996703
0.995634
0.994939
0.994577
0.993932
0.993032
0.992152
0.991059
0.990049
0.989085
0.987512
0.985959
0.985024
0.984562
0.983902
0.982109
0.978232
0.975643
0.973954
0.972613
0.971599
0.971371
0.97111
0.969204
0.963259
0.957112
0.95489
0.953691
0.953258
0.953058
0.952916
0.953927
0.960231
1.03189
1.82193
2.01822
2.02426
2.02049
2.01561
2.01976
2.04186
2.0911
2.208
2.44144
2.67576
2.73748
2.72679
2.68663
2.63677
2.62149
2.60634
2.59255
2.57656
2.56818
2.56036
2.55484
2.54537
2.53795
2.53536
2.53529
2.53703
2.54196
2.55059
2.56319
2.57844
2.59281
2.59768
2.60965
2.61941
2.62917
2.64234
2.66032
2.68209
2.7066
2.73353
2.76193
2.78201
2.7949
2.79572
2.79365
2.78545
2.77083
2.75424
2.73786
2.71877
2.70076
2.68358
2.66065
2.63652
2.60996
2.60048
2.60369
2.614
2.63325
2.65784
2.68364
2.71584
2.74842
2.78299