/*--------------------------------*- C++ -*----------------------------------*\
| =========                 |                                                 |
| \\      /  F ield         | OpenFOAM: The Open Source CFD Toolbox           |
|  \\    /   O peration     | Version:  2.2.x                                 |
|   \\  /    A nd           | Web:      www.OpenFOAM.org                      |
|    \\/     M anipulation  |                                                 |
\*---------------------------------------------------------------------------*/
FoamFile
{
    version     2.0;
    format      ascii;
    class       surfaceScalarField;
    location    "0.15";
    object      cfmax;
}
// * * * * * * * * * * * * * * * * * * * * * * * * * * * * * * * * * * * * * //

dimensions      [0 3 -1 0 0 0 0];

internalField   nonuniform List<scalar> 
28084
(
0.00124379
0.00123839
0.00123376
0.00122986
0.00122666
0.00122413
0.00122221
0.00122088
0.00122009
0.0012198
0.00121995
0.00122051
0.00122143
0.00122266
0.00122416
0.00122589
0.00122781
0.00122987
0.00123204
0.00123428
0.00123657
0.00123887
0.00124114
0.0012434
0.00124557
0.00124764
0.00124966
0.00125155
0.00125323
0.00125478
0.00125625
0.00125748
0.00125846
0.0012592
0.00125983
0.00126029
0.00126043
0.00126033
0.00125991
0.00125927
0.00125851
0.00125764
0.00125639
0.00125494
0.00125318
0.00126909
0.00128564
0.00130268
0.00132083
0.00133921
0.0013574
0.00137659
0.00139593
0.00141472
0.00143454
0.00145366
0.00147266
0.00149197
0.00151064
0.00152811
0.00154656
0.00156437
0.00158065
0.00159608
0.00161234
0.0016269
0.00163965
0.00165283
0.00166497
0.00167623
0.00168701
0.00169564
0.0017048
0.00171296
0.00171991
0.00172622
0.00173153
0.0017367
0.00174183
0.00174503
0.00174783
0.00175378
0.00175904
0.00176387
0.00176466
0.00176028
0.001654
0.00117753
0.00115649
0.00118937
0.00117529
0.00113601
0.00108131
0.00100931
0.000952062
0.000911108
0.000882503
0.00085944
0.000838736
0.000820774
0.00080385
0.000788276
0.000775517
0.000766735
0.00076064
0.000756389
0.000752628
0.000750468
0.00074772
0.000745177
0.00074455
0.000748645
0.00075494
0.000763348
0.000771506
0.00078101
0.000794092
0.000827399
0.00359371
0.00358822
0.00124965
0.00357511
0.00124805
0.00355451
0.00124717
0.00352658
0.00124698
0.00349156
0.00124744
0.00344972
0.00124853
0.00340141
0.0012502
0.00334701
0.00125241
0.00328695
0.00125511
0.00322185
0.00125826
0.00315232
0.00126182
0.00307848
0.00126572
0.00300085
0.00126993
0.00291995
0.0012744
0.00283627
0.00127907
0.00275033
0.00128389
0.00266261
0.00128883
0.00257358
0.00129383
0.00248369
0.00129886
0.00239335
0.00130386
0.00230298
0.00130879
0.00221292
0.00131362
0.00212352
0.0013183
0.00203508
0.00132279
0.00194788
0.00132708
0.00186217
0.00133112
0.00177818
0.00133488
0.0016961
0.00133836
0.00161611
0.00134156
0.00153835
0.00134445
0.00146294
0.00134702
0.00139
0.0013493
0.00131955
0.00135128
0.00125167
0.00135296
0.00118641
0.00135431
0.00112372
0.00135538
0.0010639
0.00135618
0.00100665
0.00135668
0.000951947
0.00135683
0.00089972
0.00135664
0.00084985
0.00135613
0.000802353
0.00135527
0.000757057
0.00135394
0.00071398
0.00135213
0.000721903
0.00134987
0.000721811
0.0013628
0.00072174
0.00137593
0.000721026
0.00138918
0.000720853
0.00140265
0.000720928
0.00141653
0.000720246
0.00142998
0.000719642
0.00144379
0.000720001
0.00145787
0.000720151
0.00147185
0.00071939
0.00148459
0.000719276
0.00149863
0.000720174
0.0015124
0.000720429
0.00152494
0.000719913
0.00153809
0.000720837
0.00155079
0.000722383
0.00156398
0.000722716
0.00157511
0.000722896
0.00158726
0.000725586
0.00159881
0.000728091
0.00161159
0.000729383
0.00162317
0.000730728
0.00163416
0.00073448
0.00164341
0.0007378
0.00165542
0.000740689
0.00166517
0.000743093
0.00167378
0.00074737
0.00168064
0.000751759
0.00168962
0.000756137
0.00169726
0.000760171
0.00170282
0.000764928
0.00170706
0.000771375
0.00171064
0.00077719
0.00171275
0.000783597
0.00171287
0.00079085
0.00171347
0.000800316
0.00171441
0.000812475
0.00171985
0.000829614
0.00173126
0.000850509
0.00175385
0.000886245
0.00177786
0.00103719
0.00182985
0.00079931
0.00124287
0.000711387
0.00101289
0.000712642
0.000990196
0.000713581
0.000973461
0.000709811
0.000942239
0.000709968
0.000907235
0.000711887
0.000880417
0.000700102
0.000859445
0.000693962
0.000840693
0.000684338
0.000824195
0.000680035
0.000810081
0.000678928
0.000798047
0.000677298
0.000786459
0.000675605
0.000775655
0.000673511
0.000764159
0.000672373
0.000752344
0.000672171
0.000743169
0.000674049
0.000737601
0.000676361
0.000734118
0.000678184
0.000732565
0.0006799
0.000732013
0.000682816
0.000733198
0.0006848
0.000734905
0.000687437
0.000736989
0.000690282
0.000741335
0.000695568
0.000748191
0.000701694
0.000756076
0.000710667
0.000764442
0.000723037
0.00077101
0.000738231
0.000778867
0.000763082
0.000794148
0.000791877
0.00082916
0.0035948
0.00358886
0.00125748
0.00357532
0.00125963
0.00355431
0.00126245
0.00352599
0.00126592
0.00349059
0.00127001
0.00344841
0.00127467
0.00340085
0.00127988
0.0033474
0.00128558
0.0032882
0.00129174
0.0032237
0.00129831
0.00315438
0.00130522
0.00308074
0.00131244
0.00300327
0.00131991
0.00292249
0.00132757
0.00283892
0.00133537
0.00275305
0.00134327
0.00266538
0.00135122
0.00257636
0.00135917
0.00248646
0.00136707
0.0023961
0.0013749
0.00230566
0.00138263
0.00221551
0.00139023
0.00212599
0.00139768
0.00203742
0.00140496
0.00195006
0.00141206
0.00186417
0.00141896
0.00177998
0.00142565
0.00169771
0.0014321
0.00161752
0.0014383
0.00153955
0.00144421
0.00146393
0.00144983
0.00139078
0.00145509
0.00132015
0.00145999
0.00125208
0.00146452
0.00118661
0.00146866
0.00112374
0.00147237
0.00106385
0.00147567
0.00100679
0.00147851
0.000952267
0.00148099
0.000900238
0.00148308
0.000850588
0.00148477
0.000803302
0.00148613
0.000758249
0.00148716
0.000715359
0.00148794
0.000729957
0.0014883
0.000729819
0.00150463
0.000729843
0.00152217
0.000728986
0.00154067
0.000728475
0.00155978
0.000728798
0.00157974
0.000728063
0.00159944
0.000726659
0.00161941
0.000726921
0.00164104
0.000727192
0.00166161
0.000725772
0.00168226
0.00072488
0.00170347
0.000726041
0.00172457
0.000725962
0.00174416
0.000724421
0.00176334
0.000724878
0.00178463
0.000726526
0.00180247
0.000726377
0.00181988
0.000725722
0.00183744
0.000727953
0.00185445
0.000730457
0.00186762
0.000731432
0.00188137
0.000732184
0.00189411
0.000735371
0.0019049
0.000738513
0.00191504
0.000740917
0.00192436
0.000742796
0.00193241
0.000746254
0.00193942
0.000750516
0.00194459
0.000754813
0.0019498
0.000760643
0.00195353
0.000768147
0.00195664
0.000775324
0.00196104
0.000781857
0.00196468
0.000789007
0.0019687
0.000796922
0.00197216
0.00080635
0.0019726
0.000817868
0.00196809
0.000832845
0.00195709
0.000849991
0.00193631
0.000903715
0.0019031
0.000922759
0.00186466
0.000771244
0.00114189
0.000689665
0.000993271
0.000683117
0.00095427
0.000689738
0.000935385
0.000690772
0.000913819
0.000692645
0.000890638
0.000690671
0.000868615
0.000693638
0.00085506
0.000691853
0.000843564
0.0006864
0.000832788
0.00068696
0.000822868
0.000688909
0.000813446
0.000688833
0.000803772
0.000688248
0.0007939
0.00068732
0.000782977
0.000686488
0.000771675
0.00068625
0.000761997
0.000687994
0.000754787
0.000689513
0.000749893
0.000692033
0.000747388
0.000694681
0.000746413
0.000698227
0.000746649
0.000700677
0.000747762
0.000704557
0.000749167
0.000709278
0.000751564
0.000717024
0.000755997
0.000724232
0.000760818
0.00073608
0.000767248
0.000747409
0.000776049
0.000761718
0.000787129
0.000785629
0.00080192
0.000814511
0.00083362
0.00359364
0.00358729
0.00126727
0.00357336
0.00127312
0.00355196
0.00127959
0.00352491
0.00128667
0.0034914
0.00129432
0.00345099
0.00130252
0.00340402
0.00131122
0.00335084
0.00132038
0.00329189
0.00132995
0.00322761
0.00133988
0.00315848
0.00135011
0.00308499
0.0013606
0.00300764
0.00137128
0.00292696
0.0013821
0.00284345
0.00139299
0.00275761
0.00140391
0.00266993
0.0014148
0.00258088
0.0014256
0.0024909
0.00143625
0.00240043
0.0014467
0.00230984
0.00145689
0.00221949
0.00146677
0.00212972
0.00147628
0.00204084
0.00148536
0.00195311
0.00149399
0.0018668
0.0015021
0.00178216
0.00150967
0.00169936
0.0015167
0.00161862
0.00152316
0.00154008
0.00152907
0.00146391
0.00153442
0.00139017
0.00153926
0.00131899
0.00154357
0.0012504
0.00154742
0.00118443
0.00155077
0.00112109
0.00155368
0.00106045
0.0015562
0.00100234
0.00155826
0.000946844
0.00155983
0.000893815
0.00156105
0.000843643
0.00156177
0.0007967
0.00156204
0.000752028
0.00156176
0.000709611
0.00156089
0.000735385
0.00155972
0.000735792
0.00156974
0.000736236
0.00157904
0.000735586
0.00158798
0.000734915
0.00159689
0.000735304
0.0016066
0.000734641
0.00161503
0.000732783
0.00162408
0.000732535
0.00163342
0.000733009
0.00164261
0.000730733
0.00164985
0.000728905
0.00165824
0.000729884
0.0016669
0.000729376
0.00167352
0.000725655
0.00168127
0.000725099
0.00168817
0.000727599
0.00169605
0.000726078
0.00170326
0.000722498
0.00171009
0.000722763
0.00171658
0.00072609
0.00172414
0.000725041
0.00173261
0.000722426
0.00173982
0.000723432
0.00174508
0.000726894
0.00175315
0.000727374
0.00176128
0.000726278
0.00176805
0.000726856
0.00177212
0.000730311
0.00177934
0.000733202
0.0017858
0.00073492
0.00179038
0.000738452
0.00179233
0.000745783
0.001792
0.000751409
0.00178712
0.000756241
0.0017797
0.000761365
0.00177092
0.000767656
0.00176162
0.000775717
0.00175413
0.000784259
0.00174782
0.000790836
0.00174003
0.000801166
0.00173043
0.00072969
0.00140223
0.000721309
0.000922553
0.000639791
0.000881392
0.000669067
0.000880078
0.000688245
0.000884609
0.000693003
0.000884021
0.000697588
0.000873896
0.000697436
0.000861071
0.000698352
0.000851443
0.000696453
0.000841249
0.00069172
0.000830521
0.000693153
0.000819408
0.000695762
0.000809413
0.000697083
0.000799417
0.000697755
0.000788866
0.000697912
0.00077719
0.000697302
0.000765336
0.000696877
0.000754649
0.000698235
0.000746965
0.000698527
0.000742304
0.000700199
0.000740271
0.000702745
0.000739925
0.000706095
0.000741445
0.00070845
0.000743088
0.000713039
0.000743028
0.000719628
0.000742279
0.000730274
0.000744403
0.000739365
0.000749046
0.000753401
0.000757848
0.000765391
0.000769524
0.000783295
0.000783056
0.000807121
0.000801314
0.000838253
0.000835238
0.0035903
0.00358479
0.00127903
0.00357382
0.00128852
0.00355526
0.00129858
0.00352929
0.00130921
0.00349611
0.00132038
0.00345601
0.00133205
0.00340931
0.00134419
0.00335639
0.00135675
0.00329766
0.00136968
0.00323357
0.00138292
0.00316459
0.00139643
0.00309122
0.00141014
0.00301397
0.00142399
0.00293334
0.00143792
0.00284984
0.00145187
0.00276398
0.00146579
0.00267625
0.00147961
0.00258712
0.00149329
0.00249703
0.00150679
0.00240639
0.00152006
0.0023156
0.00153308
0.00222501
0.00154583
0.00213495
0.00155829
0.00204575
0.00157046
0.00195767
0.00158232
0.00187097
0.00159386
0.00178591
0.00160509
0.00170269
0.00161596
0.00162153
0.00162646
0.00154256
0.00163657
0.00146598
0.00164624
0.00139185
0.00165541
0.00132032
0.00166409
0.00125138
0.0016722
0.00118509
0.00167973
0.00112147
0.00168665
0.00106058
0.00169288
0.00100223
0.00169848
0.000946505
0.00170344
0.00089342
0.00170772
0.000844309
0.00171139
0.000797615
0.00171447
0.000753229
0.00171689
0.000711045
0.00171888
0.000741796
0.00171997
0.000741622
0.00173497
0.00074141
0.00175222
0.000740171
0.00177022
0.000738855
0.00178953
0.000738725
0.00180888
0.000737406
0.00182888
0.000734645
0.00184851
0.000733796
0.00187006
0.000733361
0.00189043
0.000730393
0.00191065
0.000727473
0.00193209
0.000727611
0.00195397
0.000726175
0.00197366
0.000721768
0.00199282
0.000720125
0.00201313
0.00072192
0.00203279
0.000719732
0.00204979
0.000715353
0.00206567
0.000714978
0.00208126
0.000718214
0.00209608
0.000716847
0.00210741
0.000713806
0.00211697
0.000714522
0.00212538
0.000718006
0.00213335
0.000718828
0.00213849
0.000717973
0.00214188
0.000718972
0.00214384
0.000726169
0.00214434
0.000731717
0.00214054
0.000738965
0.00213721
0.000747324
0.00213624
0.000755951
0.00213672
0.00076377
0.00213866
0.000770908
0.00214278
0.000778073
0.00214612
0.000786242
0.00214967
0.000795696
0.00215223
0.000806132
0.00215206
0.000813129
0.00215762
0.000787696
0.00215024
0.000631057
0.00207518
0.000708494
0.00141535
0.000649962
0.00115834
0.000662107
0.00108509
0.000681618
0.00105193
0.000691091
0.0010132
0.000697832
0.000987131
0.000701377
0.000957456
0.000702735
0.000933686
0.00070193
0.00091298
0.000699011
0.000894884
0.000701379
0.00087859
0.000704955
0.000863379
0.000707225
0.000848303
0.000709005
0.000832862
0.000709927
0.000817047
0.00070932
0.000800365
0.000708477
0.000785593
0.000709868
0.000773704
0.000711342
0.000765561
0.000713693
0.000760649
0.000716195
0.000757846
0.000719419
0.000756255
0.00072222
0.000754068
0.000727071
0.000750766
0.000732919
0.000746773
0.000743934
0.000745825
0.000753213
0.000749293
0.000768904
0.000756931
0.000782015
0.000769264
0.00080219
0.000785462
0.000828883
0.000804357
0.000860198
0.000839854
0.00359329
0.00359034
0.00129276
0.00357972
0.00130582
0.0035615
0.00131941
0.00353586
0.00133353
0.00350299
0.00134815
0.00346317
0.00136324
0.00341673
0.00137876
0.00336403
0.00139466
0.0033055
0.00141089
0.00324157
0.0014274
0.00317272
0.00144412
0.00309944
0.001461
0.00302223
0.00147797
0.00294162
0.00149496
0.00285811
0.00151191
0.0027722
0.00152875
0.00268439
0.00154541
0.00259514
0.00156184
0.00250491
0.00157797
0.00241412
0.00159373
0.00232315
0.00160906
0.00223238
0.00162388
0.00214212
0.00163813
0.0020527
0.00165174
0.00196439
0.00166466
0.00187745
0.00167684
0.00179213
0.00168824
0.00170862
0.00169884
0.00162715
0.00170863
0.00154784
0.00171764
0.00147091
0.00172586
0.00139639
0.00173335
0.00132446
0.00174013
0.00125511
0.00174624
0.00118845
0.00175176
0.00112437
0.0017567
0.00106317
0.00176109
0.00100447
0.00176509
0.000948438
0.00176857
0.0008949
0.00177148
0.000843979
0.00177411
0.000795366
0.00177623
0.000750122
0.0017779
0.000708837
0.00177896
0.000752148
0.00177996
0.00075331
0.00178897
0.000754423
0.00179582
0.000754467
0.00180266
0.000754307
0.00180892
0.000754971
0.0018157
0.000754458
0.00182103
0.000752677
0.00182745
0.000752403
0.00183373
0.000752553
0.00183911
0.000750347
0.00184318
0.000748094
0.00184854
0.000748136
0.00185405
0.00074696
0.00185583
0.000743438
0.0018591
0.000741414
0.00186334
0.000742053
0.0018677
0.000739886
0.00186841
0.000735516
0.00187233
0.000734673
0.00187596
0.000736159
0.00188113
0.000734222
0.00188528
0.000730334
0.00189116
0.000730644
0.00189524
0.000732059
0.00190427
0.00073243
0.00191164
0.000731328
0.00191902
0.000730835
0.00192631
0.00073192
0.00193372
0.000733612
0.001939
0.000743485
0.00194335
0.00075213
0.00194298
0.000758374
0.00193596
0.000763791
0.00192184
0.000768848
0.00190416
0.000772961
0.00188551
0.000776846
0.00186638
0.000780391
0.00184533
0.000783431
0.00182297
0.000787936
0.00179625
0.000773744
0.00178496
0.000731493
0.00135
0.00070852
0.000986874
0.000653424
0.000970606
0.000700364
0.000967038
0.000720372
0.000976577
0.000724597
0.000973937
0.000725651
0.000959697
0.000723906
0.000939799
0.000721763
0.000922659
0.000717234
0.00090623
0.000712527
0.0008915
0.00071342
0.000876134
0.000716396
0.000862813
0.000718738
0.000849921
0.000720657
0.000837285
0.000721634
0.000823753
0.000720008
0.000810409
0.000718139
0.000796595
0.000718556
0.000782598
0.000718323
0.000771503
0.000719687
0.000764164
0.000721837
0.000758904
0.000727199
0.000755154
0.000732575
0.000751713
0.000741207
0.000749048
0.000747241
0.000747269
0.000758871
0.000748429
0.000768227
0.000752944
0.000784311
0.000761586
0.000797273
0.000774777
0.000819282
0.000790341
0.000848114
0.000809429
0.000882724
0.000844036
0.00360074
0.00359812
0.00130848
0.00358783
0.00132503
0.00356993
0.00134208
0.00354459
0.00135962
0.003512
0.00137763
0.00347245
0.00139606
0.00342624
0.0014149
0.00337375
0.00143408
0.00331539
0.00145355
0.00325159
0.00147326
0.00318283
0.00149314
0.00310961
0.00151313
0.00303243
0.00153316
0.00295179
0.00155315
0.00286822
0.00157305
0.00278221
0.00159279
0.00269425
0.0016123
0.00260482
0.00163152
0.00251436
0.00165041
0.0024233
0.00166893
0.00233201
0.00168704
0.00224086
0.00170473
0.00215018
0.00172196
0.00206028
0.00173875
0.00197144
0.00175508
0.00188393
0.00177096
0.00179801
0.00178636
0.00171388
0.00180128
0.00163179
0.00181569
0.00155187
0.00182956
0.00147434
0.00184285
0.00139926
0.0018555
0.0013268
0.00186748
0.00125694
0.00187873
0.00118986
0.00188917
0.00112539
0.00189881
0.00106385
0.0019075
0.00100485
0.00191526
0.00094857
0.00192217
0.000894828
0.00192826
0.000843678
0.00193306
0.000794937
0.00193711
0.00075076
0.00194024
0.000709649
0.00194272
0.000757992
0.00194397
0.000758349
0.00195587
0.00075861
0.00197148
0.000757884
0.00198758
0.000756975
0.002005
0.000756594
0.00202249
0.000755064
0.00204087
0.00075251
0.00205933
0.000751576
0.0020784
0.000750231
0.0020974
0.000746871
0.00211571
0.000743664
0.00213601
0.000742528
0.00215579
0.00073982
0.0021746
0.000735233
0.00219233
0.000732174
0.00221163
0.000731597
0.00222951
0.000728318
0.00224435
0.000723284
0.00225795
0.000721646
0.00227153
0.000722681
0.00228295
0.00072056
0.00228896
0.000717122
0.00229398
0.000717323
0.00229703
0.000719017
0.0022984
0.000720262
0.00229318
0.000720672
0.00228689
0.000724654
0.00227792
0.00073397
0.00226593
0.000743646
0.00225435
0.000754107
0.00224555
0.000764765
0.00224522
0.000773974
0.00224495
0.00078287
0.00224765
0.000791824
0.00225247
0.000799638
0.0022581
0.000807696
0.00226136
0.000815137
0.0022671
0.000823464
0.00227009
0.000831194
0.00228037
0.00080495
0.00227634
0.000649385
0.00216606
0.000699945
0.00139577
0.000649571
0.00120954
0.000699599
0.0011475
0.000721598
0.00110792
0.000728926
0.00106776
0.000733732
0.00103788
0.00073431
0.0010086
0.000733131
0.000978627
0.000729544
0.000953257
0.000724559
0.0009334
0.000724266
0.000915342
0.000726696
0.000898055
0.000728805
0.000881447
0.000730978
0.000865485
0.000731537
0.00084929
0.000730796
0.000832894
0.000730072
0.00081635
0.000728757
0.000801515
0.000728264
0.000789454
0.000729369
0.000780419
0.000731442
0.000773197
0.000737597
0.000767674
0.000743385
0.000763119
0.000753385
0.000759414
0.000760128
0.000756834
0.000773624
0.000756797
0.000782564
0.000761043
0.000798685
0.000769233
0.000812579
0.000781754
0.000835596
0.000796817
0.000865795
0.000816352
0.000905229
0.000848774
0.00361042
0.00360811
0.00132619
0.00359812
0.00134616
0.00358052
0.00136659
0.00355546
0.00138747
0.00352315
0.00140879
0.00348383
0.0014305
0.00343784
0.00145258
0.00338553
0.00147497
0.00332731
0.00149762
0.00326363
0.00152046
0.00319494
0.00154343
0.00312174
0.00156646
0.00304454
0.00158949
0.00296385
0.00161242
0.00288018
0.0016352
0.00279404
0.00165774
0.00270592
0.00167999
0.00261631
0.00170185
0.00252564
0.00172327
0.00243436
0.00174417
0.00234286
0.00176447
0.00225152
0.00178411
0.00216066
0.001803
0.00207061
0.00182109
0.00198164
0.00183831
0.00189403
0.00185461
0.00180803
0.00186994
0.00172382
0.00188428
0.00164163
0.00189762
0.0015616
0.00190997
0.00148392
0.00192136
0.00140866
0.00193183
0.00133597
0.00194141
0.00126585
0.00195018
0.00119847
0.00195823
0.00113368
0.00196566
0.00107167
0.00197239
0.00101235
0.00197853
0.000955611
0.00198435
0.000901414
0.00198958
0.000849754
0.00199425
0.000800694
0.00199834
0.000753828
0.00200245
0.000710014
0.00200576
0.000770085
0.00200847
0.000771993
0.00201664
0.000773604
0.00202268
0.000774425
0.00202834
0.000774937
0.00203347
0.000775681
0.00203838
0.000775197
0.00204246
0.000774012
0.00204695
0.000774033
0.00205135
0.000773742
0.00205382
0.000771146
0.00205726
0.000769178
0.00205953
0.000768865
0.00206249
0.000766803
0.00206204
0.000762954
0.00206342
0.000760786
0.00206511
0.000760473
0.00206634
0.000757413
0.00206582
0.000753046
0.00206783
0.00075134
0.00207103
0.000751642
0.00207525
0.00074975
0.0020787
0.000746618
0.00208541
0.000745163
0.00209274
0.000745602
0.0021009
0.000746726
0.00211008
0.00074656
0.00212063
0.000746334
0.00213074
0.000758275
0.00214012
0.000769699
0.00214492
0.000779385
0.00214207
0.000788265
0.00213324
0.000794282
0.00212029
0.000799667
0.00209609
0.000805421
0.00207284
0.000811374
0.00204974
0.00081693
0.00202567
0.00082245
0.00200152
0.000827076
0.00197705
0.000831102
0.00194761
0.000788093
0.00193551
0.000749606
0.00140644
0.000698235
0.00108924
0.000686724
0.00106438
0.000731976
0.00106134
0.000752313
0.0010639
0.000754983
0.00105509
0.000756094
0.00103644
0.000753188
0.00101201
0.000749558
0.000988145
0.000744496
0.00096624
0.000738675
0.00094951
0.00073798
0.000932616
0.000739578
0.000918015
0.000740347
0.000901013
0.00074012
0.00088033
0.000739782
0.000859584
0.000739643
0.000839978
0.000739552
0.000822494
0.00073897
0.000807513
0.000738804
0.000795443
0.000740611
0.000786126
0.000742792
0.000778024
0.000749627
0.000771458
0.000755699
0.000765449
0.000766308
0.000761651
0.00077365
0.00076054
0.000787615
0.000762199
0.000796103
0.000767225
0.000812932
0.000775757
0.000828202
0.000787836
0.000851874
0.000802177
0.000884228
0.000822304
0.000926778
0.000854442
0.00362231
0.00362029
0.00134592
0.00361058
0.00136922
0.00359326
0.00139294
0.00356847
0.00141708
0.0035364
0.00144162
0.00349731
0.00146654
0.00345151
0.00149178
0.00339936
0.0015173
0.00334127
0.00154304
0.00327766
0.00156895
0.00320901
0.00159494
0.00313581
0.00162095
0.00305856
0.0016469
0.00297778
0.00167271
0.00289397
0.00169831
0.00280764
0.00172362
0.00271929
0.00174858
0.0026294
0.00177311
0.00253841
0.00179717
0.00244676
0.00182069
0.00235483
0.00184365
0.002263
0.001866
0.00217161
0.00188774
0.00208097
0.00190883
0.00199136
0.00192929
0.00190306
0.0019491
0.00181633
0.00196825
0.00173138
0.00198673
0.00164844
0.00200452
0.00156765
0.00202159
0.00148924
0.00203791
0.00141327
0.00205342
0.00133992
0.00206808
0.00126918
0.00208184
0.00120125
0.00209464
0.00113599
0.00210632
0.00107355
0.00211698
0.00101386
0.00212665
0.000956818
0.00213494
0.000902354
0.00214217
0.000850451
0.00214837
0.000801202
0.00215363
0.000754133
0.00215729
0.000709883
0.00216037
0.000775671
0.00216244
0.000777061
0.0021721
0.000777877
0.00218404
0.000778035
0.00219732
0.00077785
0.00221176
0.000777506
0.00222646
0.000776174
0.00224176
0.000774345
0.00225775
0.000773381
0.00227323
0.000771553
0.00228942
0.00076803
0.00230489
0.000765279
0.00232194
0.000763497
0.00233767
0.000759727
0.00235353
0.000754929
0.00236831
0.000752088
0.00238317
0.00075018
0.00239643
0.000745875
0.00240673
0.00074114
0.00241617
0.000739171
0.00242345
0.000738986
0.00242824
0.000737194
0.00242781
0.000734894
0.00242461
0.000734179
0.00242016
0.000735564
0.00240938
0.000737694
0.00239609
0.000739125
0.00238241
0.000752505
0.00236546
0.000765949
0.00234966
0.000778322
0.00233727
0.000790365
0.00232916
0.000802227
0.0023316
0.000812732
0.00233276
0.000822383
0.00233433
0.000831984
0.00233889
0.000841677
0.00234165
0.000851328
0.00234647
0.000860423
0.00234833
0.000869457
0.00234639
0.000874326
0.00234837
0.000822623
0.00233333
0.000692928
0.00213902
0.000695306
0.00134371
0.000684767
0.00121877
0.000734894
0.0011701
0.000764848
0.00114295
0.000767885
0.00111415
0.000768884
0.0010839
0.000766176
0.00105733
0.000762768
0.00102635
0.000757919
0.000997567
0.000751306
0.000976739
0.000750273
0.000958465
0.000754035
0.000941179
0.00075584
0.000922388
0.000755031
0.000901653
0.000753346
0.000879792
0.000752085
0.000859661
0.000751773
0.000840574
0.000751303
0.000824369
0.000751049
0.000812265
0.000753069
0.000802635
0.000755156
0.000793866
0.000762919
0.000785012
0.000768169
0.000777366
0.000778741
0.000771471
0.000786426
0.000769337
0.00080084
0.000770494
0.000809335
0.000774946
0.00082715
0.000783022
0.000843715
0.000794103
0.00086803
0.000808133
0.000903127
0.00082825
0.000946909
0.000861375
0.00363639
0.00363463
0.00136768
0.00362518
0.00139421
0.00360813
0.00142113
0.00358358
0.00144844
0.00355174
0.00147612
0.00351286
0.00150415
0.00346724
0.00153247
0.00341523
0.00156104
0.00335723
0.0015898
0.00329368
0.00161869
0.00322505
0.00164762
0.00315181
0.00167652
0.00307448
0.00170532
0.00299357
0.00173393
0.00290958
0.00176227
0.00282305
0.00179026
0.00273445
0.00181782
0.00264428
0.00184488
0.002553
0.00187135
0.00246104
0.00189716
0.00236883
0.00192224
0.00227673
0.00194652
0.0021851
0.00196992
0.00209426
0.00199238
0.0020045
0.00201383
0.0019161
0.00203423
0.0018293
0.00205354
0.0017443
0.00207172
0.00166131
0.00208877
0.00158047
0.00210468
0.00150198
0.00211949
0.00142588
0.00213323
0.00135232
0.00214593
0.00128138
0.00215768
0.00121302
0.00216851
0.00114745
0.00217858
0.00108445
0.00218795
0.00102414
0.00219652
0.000966487
0.0022043
0.000911386
0.00221181
0.000858725
0.00221853
0.000808542
0.00222453
0.000760739
0.00223003
0.000715151
0.00223496
0.000786871
0.00223893
0.000789268
0.00224597
0.000791235
0.00225129
0.000792634
0.00225641
0.000793667
0.00226075
0.00079445
0.00226481
0.00079425
0.00226839
0.000793744
0.00227155
0.000793745
0.00227456
0.000792881
0.0022764
0.000790554
0.00227883
0.000789025
0.00228008
0.000788144
0.00228082
0.000785256
0.0022812
0.00078152
0.00228143
0.000779729
0.00228221
0.000778288
0.00228179
0.000774402
0.00228321
0.000770538
0.00228384
0.000768813
0.0022882
0.000767819
0.00229246
0.000765848
0.00229692
0.000763217
0.00230411
0.000761184
0.00231303
0.000760954
0.00232047
0.000761599
0.00232995
0.000766762
0.00234227
0.00078202
0.00235129
0.000793895
0.00235374
0.000804454
0.00234875
0.000814509
0.00233761
0.000823496
0.00232158
0.000832469
0.00230097
0.000842304
0.00227854
0.000851299
0.00225634
0.000860046
0.00223336
0.000868946
0.00221087
0.000878969
0.00218887
0.000888143
0.00217055
0.000890162
0.00214878
0.000822456
0.00214697
0.000737241
0.00135816
0.000685445
0.00117452
0.000713407
0.00113817
0.000762982
0.00114207
0.00078528
0.00113702
0.000788761
0.00112173
0.000787205
0.00110609
0.000783169
0.00108355
0.000778406
0.00105699
0.000771559
0.00102631
0.000762
0.000997279
0.0007599
0.000972551
0.000764257
0.000951816
0.000767507
0.000931663
0.000767816
0.000911158
0.000765526
0.000889164
0.000763291
0.000867281
0.000762573
0.000847999
0.000762282
0.000831861
0.00076234
0.000819159
0.000765491
0.000808953
0.000768847
0.000799815
0.00077731
0.000791587
0.000781562
0.000785506
0.000791717
0.000780249
0.000799674
0.000778186
0.000814506
0.000779409
0.000823242
0.000782961
0.000841629
0.000790171
0.000858951
0.000800237
0.00088431
0.000814048
0.00092265
0.000835232
0.000965948
0.000869295
0.00365262
0.0036511
0.00139149
0.00364191
0.00142115
0.00362509
0.00145117
0.00360078
0.00148155
0.00356916
0.00151228
0.00353046
0.00154332
0.003485
0.00157463
0.00343311
0.00160617
0.00337519
0.00163785
0.00331167
0.00166963
0.00324302
0.00170142
0.00316972
0.00173314
0.00309227
0.0017647
0.00301119
0.00179603
0.002927
0.00182704
0.00284019
0.00185765
0.00275128
0.00188777
0.00266075
0.00191734
0.00256905
0.00194628
0.00247663
0.00197455
0.0023839
0.00200207
0.00229124
0.00202883
0.00219899
0.00205477
0.00210749
0.00207988
0.00201702
0.00210414
0.00192787
0.00212755
0.00184028
0.00215007
0.00175446
0.00217171
0.00167065
0.00219245
0.00158899
0.00221227
0.00150968
0.00223113
0.0014328
0.00224902
0.00135848
0.00226587
0.00128683
0.00228167
0.00121782
0.00229637
0.00115167
0.00230992
0.00108813
0.0023222
0.00102734
0.00233329
0.000969281
0.00234327
0.000913785
0.00235208
0.000860756
0.00235943
0.000810273
0.00236573
0.00076214
0.00237096
0.000716336
0.00237528
0.000792123
0.00237827
0.000794228
0.00238539
0.000795742
0.00239478
0.000796595
0.00240492
0.000797067
0.00241604
0.000797072
0.00242728
0.000796244
0.00243882
0.000795137
0.00245091
0.000794131
0.00246262
0.000792178
0.00247481
0.000789192
0.0024867
0.00078686
0.00249863
0.000784455
0.00251
0.000780472
0.00252064
0.000776144
0.00253089
0.000773648
0.00253933
0.000770596
0.00254695
0.000766208
0.00255154
0.000762346
0.00255465
0.000760607
0.00255541
0.000759173
0.00255118
0.000757579
0.00254452
0.000756075
0.00253688
0.000755078
0.002525
0.000755537
0.00251038
0.00075813
0.00249454
0.000772234
0.00247645
0.000786055
0.00245976
0.00079943
0.00245067
0.000812504
0.00244244
0.000826149
0.00243922
0.000838728
0.00243824
0.000850945
0.00243755
0.00086407
0.00243569
0.00087663
0.00243675
0.000888116
0.00243289
0.000899792
0.00242832
0.000912798
0.00242808
0.000923408
0.00243006
0.00091867
0.0024168
0.000783435
0.0024278
0.000716769
0.0017463
0.000684985
0.00131316
0.000727697
0.001236
0.000768548
0.00120346
0.00080109
0.00118455
0.000805114
0.00116294
0.000801639
0.00113881
0.000796187
0.00111146
0.000794994
0.00108171
0.000789521
0.00104984
0.00077819
0.00101964
0.000773752
0.000993608
0.000777056
0.000970542
0.000780691
0.000948632
0.000781651
0.0009275
0.000779464
0.000905473
0.000777033
0.000883164
0.000776091
0.000863656
0.000775675
0.000846844
0.000775361
0.000832962
0.000779004
0.000821738
0.000782493
0.000812076
0.000790537
0.000803567
0.000794643
0.000796983
0.000805202
0.000791298
0.000813211
0.000789097
0.000828202
0.000789653
0.000837695
0.00079188
0.000856186
0.000797243
0.000873842
0.000806027
0.000901008
0.000819321
0.000943041
0.00084139
0.000983753
0.000878152
0.00367097
0.00366968
0.00141737
0.00366072
0.00145005
0.00364413
0.00148307
0.00362004
0.00151642
0.00358862
0.00155009
0.00355009
0.00158405
0.00350477
0.00161825
0.00345298
0.00165264
0.00339512
0.00168717
0.00333161
0.00172174
0.00326292
0.00175629
0.00318952
0.00179073
0.00311193
0.00182497
0.00303065
0.00185893
0.00294621
0.00189252
0.00285911
0.00192565
0.00276986
0.00195822
0.00267895
0.00199017
0.00258685
0.00202141
0.00249402
0.00205186
0.00240088
0.00208146
0.00230781
0.00211012
0.00221518
0.00213779
0.00212332
0.0021644
0.00203255
0.0021899
0.00194312
0.00221424
0.00185529
0.00223738
0.00176927
0.0022593
0.00168526
0.00227999
0.0016034
0.00229943
0.00152386
0.00231766
0.00144673
0.00233466
0.0013721
0.00235051
0.00130006
0.00236523
0.0012306
0.00237888
0.00116384
0.0023915
0.00109969
0.00240327
0.00103817
0.00241406
0.000979247
0.00242389
0.000922919
0.00243293
0.000869026
0.00244131
0.000817579
0.00244876
0.000768467