/*--------------------------------*- C++ -*----------------------------------*\
| =========                 |                                                 |
| \\      /  F ield         | OpenFOAM: The Open Source CFD Toolbox           |
|  \\    /   O peration     | Version:  2.2.x                                 |
|   \\  /    A nd           | Web:      www.OpenFOAM.org                      |
|    \\/     M anipulation  |                                                 |
\*---------------------------------------------------------------------------*/
FoamFile
{
    version     2.0;
    format      ascii;
    class       surfaceScalarField;
    location    "2.55";
    object      cfmax;
}
// * * * * * * * * * * * * * * * * * * * * * * * * * * * * * * * * * * * * * //

dimensions      [0 3 -1 0 0 0 0];

internalField   nonuniform List<scalar> 
28084
(
0.00126099
0.00125146
0.00124796
0.00124391
0.00124102
0.00123864
0.00123696
0.00123583
0.00123525
0.00123516
0.00123552
0.00123628
0.00123738
0.00123877
0.00124042
0.00124229
0.00124433
0.00124647
0.00124869
0.00125095
0.00125323
0.00125549
0.00125771
0.00125984
0.00126186
0.00126375
0.00126552
0.00126713
0.00126848
0.00126965
0.00127066
0.00127148
0.00127205
0.00127231
0.00127228
0.00127215
0.00127182
0.00127131
0.00127066
0.00127001
0.00126947
0.00126955
0.00126911
0.00126518
0.00125654
0.00132878
0.00118476
0.0010229
0.00106664
0.0010999
0.00111421
0.00112532
0.00113909
0.00115274
0.00116484
0.00117631
0.00118722
0.00119715
0.00120603
0.0012145
0.00121931
0.00122333
0.00122621
0.00122744
0.00122891
0.00123048
0.00123189
0.00123336
0.00123526
0.00123722
0.00124035
0.00124307
0.00124613
0.00125058
0.00125412
0.00125853
0.00126169
0.00126295
0.00126382
0.00126328
0.00126226
0.00125903
0.00125247
0.00124531
0.00123374
0.00122518
0.00121776
0.00121141
0.00120641
0.00119947
0.00119138
0.00118127
0.00117342
0.00116287
0.0011536
0.00114624
0.00114063
0.00113471
0.00112739
0.00111202
0.00109018
0.00105817
0.00102525
0.00098318
0.000945574
0.000912547
0.000883958
0.000861909
0.000842275
0.000826127
0.000811029
0.000799912
0.00079028
0.000783547
0.000777747
0.000771682
0.0007621
0.000748073
0.00363846
0.00361704
0.00126693
0.00360817
0.00126122
0.00358673
0.00126153
0.0035593
0.00126122
0.00352436
0.00126205
0.00348265
0.00126335
0.00343438
0.00126529
0.00337993
0.00126775
0.00331974
0.00127069
0.00325445
0.00127411
0.00318461
0.00127793
0.00311039
0.00128208
0.00303226
0.00128652
0.00295077
0.0012912
0.00286644
0.00129606
0.00277978
0.00130107
0.00269126
0.00130618
0.00260135
0.00131132
0.00251054
0.00131645
0.00241926
0.00132155
0.00232794
0.00132657
0.00223696
0.00133148
0.00214664
0.00133625
0.00205731
0.00134084
0.00196925
0.00134521
0.00188276
0.00134936
0.00179801
0.0013533
0.00171518
0.00135695
0.00163445
0.00136026
0.00155605
0.00136329
0.00148002
0.00136607
0.00140642
0.00136857
0.00133529
0.00137074
0.0012667
0.00137248
0.00120079
0.00137392
0.00113751
0.00137522
0.00107713
0.00137633
0.00101929
0.00137725
0.000964251
0.00137818
0.000911842
0.00137872
0.000862219
0.00137931
0.000815204
0.00138006
0.000771027
0.00138478
0.000747429
0.00139108
0.000860378
0.00140425
0.000907347
0.00131059
0.000687754
0.00101569
0.000692697
0.0010088
0.000688126
0.00104071
0.000694113
0.00107287
0.000693756
0.00108497
0.000691373
0.00108963
0.000688703
0.00109542
0.000683959
0.00110003
0.00067721
0.00110239
0.000671484
0.00110561
0.000667592
0.00111155
0.000662977
0.00111752
0.000658854
0.00112498
0.00065657
0.00113374
0.000654653
0.00114265
0.000653313
0.00115266
0.000654255
0.00116405
0.000654952
0.00117488
0.00065611
0.00118656
0.00065782
0.00119836
0.000659428
0.00120951
0.000661553
0.00122022
0.000664163
0.00122986
0.000667194
0.00123837
0.000669632
0.00124608
0.000671422
0.00125306
0.000674465
0.00125993
0.000677891
0.00126637
0.000682261
0.00127143
0.000687132
0.00127628
0.000692321
0.00127991
0.000697441
0.00128224
0.00070302
0.00128323
0.000708067
0.00128274
0.000714362
0.00127981
0.000719146
0.00127437
0.000723793
0.00126391
0.00072903
0.00124863
0.000734218
0.0012349
0.000740924
0.00122458
0.000747332
0.00121552
0.000748782
0.00120579
0.000758004
0.001197
0.000765973
0.00119164
0.000771817
0.00118567
0.000778882
0.00117344
0.000780124
0.00115283
0.000775987
0.00111983
0.000772447
0.00108378
0.000767499
0.00104943
0.00076191
0.00101241
0.000757978
0.0009778
0.000755549
0.00094496
0.000745269
0.000910734
0.000733777
0.00087919
0.000723465
0.000851326
0.000714102
0.000829387
0.000707985
0.000810138
0.000697713
0.000792502
0.000689718
0.000778021
0.000682267
0.000766012
0.000678016
0.000756704
0.000674478
0.00074917
0.000673667
0.000743708
0.000670501
0.000738736
0.000671531
0.000736246
0.000672217
0.000734554
0.000676647
0.000734323
0.000681489
0.000734722
0.000688008
0.000735112
0.000691934
0.000733342
0.000703804
0.000730033
0.00363952
0.00361763
0.00127485
0.00360839
0.00127292
0.00358654
0.00127699
0.0035587
0.00128039
0.0035234
0.00128487
0.00348136
0.00128979
0.00343382
0.00129533
0.00338032
0.00130133
0.003321
0.00130779
0.00325631
0.00131465
0.00318671
0.00132188
0.00311268
0.0013294
0.00303472
0.00133714
0.00295335
0.00134507
0.00286913
0.00135311
0.00278254
0.00136124
0.00269408
0.00136939
0.00260419
0.0013775
0.00251338
0.00138551
0.00242208
0.0013934
0.00233072
0.00140113
0.00223968
0.00140867
0.00214927
0.00141597
0.00205984
0.001423
0.00197167
0.00142972
0.00188506
0.00143611
0.00180017
0.00144218
0.00171719
0.00144792
0.00163631
0.0014532
0.00155775
0.00145807
0.00148155
0.00146258
0.00140779
0.0014667
0.00133645
0.0014704
0.00126763
0.00147351
0.00120143
0.00147608
0.00113782
0.0014783
0.00107686
0.00148009
0.00101832
0.00148144
0.000962632
0.00148227
0.00090972
0.00148236
0.00085895
0.00148261
0.000811966
0.00148187
0.000774484
0.00148395
0.000746971
0.00148355
0.00090578
0.00148937
0.000780389
0.0011774
0.000636375
0.000960583
0.000611722
0.000948946
0.000628972
0.000964985
0.000633658
0.000988783
0.000628664
0.00099739
0.000624297
0.00100255
0.000619381
0.00101039
0.000617146
0.00102089
0.000616431
0.0010343
0.000617983
0.00104901
0.000621587
0.00106512
0.000626134
0.00108338
0.000629494
0.00110104
0.000632705
0.00111818
0.000636622
0.00113388
0.000640493
0.00115004
0.000644313
0.00116569
0.000648111
0.00118006
0.000652353
0.00119401
0.000656658
0.00120712
0.000660635
0.00121898
0.000663901
0.00122907
0.000667262
0.00123745
0.000670488
0.00124476
0.000673544
0.00125098
0.000676633
0.00125605
0.00068022
0.00126067
0.000683803
0.00126539
0.000688086
0.0012688
0.000692682
0.00127229
0.000698073
0.00127528
0.000704464
0.0012778
0.000710151
0.00127811
0.000715066
0.00127519
0.00071851
0.00126922
0.00072141
0.00125838
0.000723288
0.00124487
0.000724385
0.00122693
0.000725768
0.00120655
0.000730509
0.00119194
0.000741714
0.00118327
0.00074974
0.00117963
0.00075334
0.00117177
0.000751255
0.00114912
0.000750624
0.00110902
0.000745306
0.00106553
0.00072381
0.00101018
0.000696539
0.000941266
0.00067893
0.000886865
0.000664404
0.000840447
0.000651514
0.000800331
0.000642863
0.000765658
0.00063864
0.000738197
0.000636258
0.000718993
0.000636323
0.000701533
0.000638507
0.000686443
0.000641623
0.000674298
0.000645113
0.000666677
0.000649994
0.000660079
0.000653971
0.000654733
0.000655691
0.000651482
0.000658802
0.000650967
0.00066055
0.000651873
0.000665637
0.000654069
0.000667844
0.000657206
0.000674734
0.000661851
0.000679419
0.000667283
0.000688038
0.000675401
0.000694424
0.000683692
0.000705414
0.000694939
0.000710632
0.000706348
0.000728696
0.000716921
0.00363834
0.00361602
0.00128477
0.0036064
0.00128655
0.00358418
0.00129433
0.0035576
0.00130138
0.0035242
0.00130947
0.00348396
0.00131797
0.00343703
0.00132705
0.00338382
0.00133655
0.00332473
0.00134647
0.00326027
0.00135676
0.00319085
0.00136735
0.00311697
0.00137818
0.00303914
0.00138919
0.00295788
0.00140032
0.00287371
0.00141151
0.00278716
0.00142271
0.0026987
0.00143387
0.00260878
0.0014449
0.00251792
0.00145575
0.00242655
0.00146641
0.00233509
0.00147681
0.00224393
0.00148694
0.00215339
0.00149674
0.00206381
0.00150615
0.00197548
0.00151517
0.00188868
0.00152376
0.00180359
0.00153195
0.00172041
0.00153966
0.00163932
0.00154682
0.00156053
0.0015535
0.00148412
0.00155975
0.00141014
0.00156555
0.00133855
0.00157083
0.00126951
0.00157547
0.00120306
0.00157969
0.00113923
0.00158364
0.00107799
0.00158722
0.00101929
0.00159037
0.000963151
0.00159322
0.000909548
0.0015962
0.000858806
0.0015993
0.000811109
0.00160114
0.000770928
0.00160308
0.00075772
0.00160113
0.000846774
0.00159953
0.000721209
0.00111014
0.000611117
0.000954819
0.00056385
0.00092553
0.000574894
0.000941706
0.000577334
0.000962984
0.000580413
0.000979492
0.000582233
0.000995709
0.000585924
0.00101311
0.000592469
0.00103446
0.000598619
0.00105844
0.000605074
0.00107963
0.000611381
0.00110286
0.000619927
0.00112606
0.000626174
0.00114822
0.000630864
0.0011693
0.000636937
0.00118834
0.000641963
0.00120688
0.000646721
0.00122348
0.00065115
0.00123828
0.000655076
0.00125192
0.000657968
0.00126378
0.000660053
0.00127356
0.00066198
0.00128162
0.000664315
0.00128856
0.000666951
0.00129467
0.000669664
0.00130049
0.000672596
0.00130613
0.000676049
0.00131074
0.000679364
0.00131462
0.000683317
0.0013177
0.000687516
0.00132016
0.000692657
0.00132192
0.000699074
0.00132158
0.000705287
0.00131987
0.000711363
0.0013153
0.000717783
0.00130893
0.000718566
0.00129767
0.000717659
0.00127671
0.000720063
0.0012532
0.000724173
0.00123324
0.000725779
0.00121392
0.000714222
0.00118965
0.000712032
0.0011635
0.000735719
0.00113938
0.0007314
0.00111258
0.000705433
0.0010524
0.00068632
0.000971864
0.00067489
0.00091148
0.000661808
0.000859031
0.000649032
0.000812403
0.000631739
0.00077213
0.000630422
0.000739708
0.000628604
0.000711654
0.000629373
0.00068699
0.000629838
0.000666971
0.000630569
0.000650911
0.000636095
0.000638228
0.000640657
0.000629174
0.000645364
0.000622272
0.000647708
0.000617742
0.000652271
0.000615011
0.000655445
0.000613288
0.000661229
0.000613492
0.000665203
0.00061482
0.000671695
0.000618427
0.000674116
0.0006232
0.00068079
0.000630413
0.000683614
0.000638683
0.000692657
0.000649433
0.000698352
0.000662007
0.000711377
0.000677676
0.000716987
0.000693434
0.000741038
0.000708918
0.00363489
0.00361362
0.00129666
0.00360684
0.0013021
0.00358748
0.00131353
0.00356202
0.00132417
0.00352896
0.00133583
0.00348904
0.00134785
0.00344239
0.00136042
0.00338942
0.00137337
0.00333057
0.00138669
0.00326629
0.00140033
0.00319704
0.00141426
0.00312328
0.00142837
0.00304554
0.0014426
0.00296433
0.00145688
0.0028802
0.00147117
0.00279364
0.00148541
0.00270513
0.00149953
0.00261514
0.00151344
0.00252418
0.00152711
0.00243268
0.00154049
0.00234107
0.00155354
0.00224973
0.00156622
0.00215899
0.00157849
0.00206919
0.00159029
0.00198063
0.0016016
0.00189359
0.00161239
0.00180826
0.00162268
0.00172481
0.00163244
0.00164345
0.00164152
0.00156438
0.00165001
0.00148769
0.00165793
0.00141341
0.00166533
0.00134161
0.00167201
0.0012722
0.00167797
0.00120543
0.00168306
0.00114119
0.00168762
0.00107945
0.00169141
0.00102005
0.00169438
0.000963179
0.00169614
0.000908378
0.00169692
0.000855992
0.00169614
0.0008055
0.00169223
0.000760291
0.00168972
0.000738017
0.00168248
0.000765149
0.00167406
0.000663137
0.0010978
0.000588111
0.000975612
0.000553443
0.000941607
0.000551708
0.00094999
0.000559182
0.000967711
0.000565515
0.000994882
0.000573173
0.0010204
0.000582593
0.00104686
0.00059152
0.00107331
0.000601258
0.00110254
0.000609636
0.00113213
0.000616384
0.001156
0.000624656
0.00118089
0.00063202
0.00120741
0.00063755
0.00122953
0.000643548
0.00125073
0.000648217
0.00127014
0.000652691
0.00128765
0.000656708
0.00130342
0.000660535
0.00131681
0.00066368
0.00132869
0.000665935
0.0013392
0.000668426
0.00134839
0.000671148
0.00135606
0.000674187
0.00136229
0.000677208
0.00136722
0.000680158
0.00137095
0.000683448
0.00137387
0.000686848
0.00137668
0.000690535
0.00137938
0.000694342
0.00138145
0.000700823
0.00138272
0.000708052
0.00138278
0.000715398
0.00137966
0.00072263
0.00137264
0.000728307
0.00136041
0.000731575
0.00134235
0.000729811
0.0013256
0.000731103
0.0013014
0.000720434
0.0012636
0.000716803
0.00122568
0.000723084
0.00119935
0.000723833
0.00117522
0.000720601
0.00114011
0.00070304
0.00106387
0.000709735
0.00101066
0.000709331
0.000967492
0.000699025
0.000922149
0.000684466
0.00087457
0.000674722
0.000832212
0.000655138
0.000795691
0.000649797
0.000760358
0.000642677
0.000723977
0.00064115
0.000695998
0.000641845
0.000674646
0.000641929
0.000657383
0.000644663
0.000642461
0.000648504
0.000631034
0.000652634
0.000623557
0.000654676
0.000618419
0.000658849
0.000613789
0.000661055
0.000609971
0.000666233
0.000608336
0.000668922
0.000608366
0.000675028
0.000616342
0.000676049
0.000624438
0.000682465
0.000633329
0.000684055
0.000643111
0.000692702
0.000654318
0.000697405
0.000665459
0.000712248
0.00067867
0.000717827
0.00069248
0.000745873
0.000706048
0.00363786
0.00361922
0.00131058
0.00361279
0.00131958
0.00359378
0.0013346
0.00356865
0.00134877
0.00353591
0.00136393
0.00349627
0.00137941
0.00344988
0.0013954
0.00339714
0.00141175
0.00333848
0.00142842
0.00327438
0.00144538
0.00320526
0.00146257
0.00313158
0.00147989
0.00305391
0.00149729
0.00297272
0.00151468
0.00288857
0.00153203
0.00280196
0.00154925
0.00271336
0.00156628
0.00262325
0.00158303
0.00253214
0.00159945
0.00244047
0.00161551
0.00234866
0.00163116
0.0022571
0.00164634
0.00216612
0.00166102
0.00207606
0.00167514
0.00198722
0.00168866
0.00189988
0.00170158
0.00181424
0.0017139
0.00173047
0.00172555
0.00164879
0.00173647
0.00156937
0.0017467
0.00149233
0.00175631
0.00141771
0.00176527
0.00134554
0.00177356
0.00127576
0.00178105
0.00120865
0.00178782
0.00114405
0.00179416
0.00108196
0.00179992
0.00102224
0.00180501
0.000964951
0.00180961
0.000909897
0.00181351
0.000856416
0.00181732
0.000806067
0.00181962
0.000758891
0.00182241
0.000723722
0.00182204
0.000696964
0.00182009
0.000616246
0.00118351
0.000578667
0.00102667
0.000549679
0.000983277
0.000551603
0.000986393
0.000560228
0.00100305
0.000570173
0.0010359
0.000580024
0.00106792
0.000593443
0.00109969
0.000601047
0.0011292
0.000610669
0.00116146
0.000622183
0.0011921
0.000627041
0.00121975
0.000635212
0.00124681
0.000642354
0.00127243
0.000647986
0.00129909
0.000653368
0.0013217
0.000657091
0.00134068
0.000661328
0.00135713
0.000664583
0.00137303
0.000668215
0.00138725
0.00067107
0.00139981
0.000673616
0.00141005
0.000676543
0.0014184
0.00067916
0.00142532
0.000681693
0.00143079
0.000684245
0.00143493
0.00068698
0.00143789
0.000689885
0.00144044
0.000693416
0.00144311
0.000697158
0.00144582
0.000700952
0.00144696
0.000709246
0.0014461
0.000717689
0.00144319
0.000726054
0.00143769
0.000735149
0.00143133
0.000738883
0.00142348
0.000747951
0.00141071
0.000746656
0.001383
0.000742617
0.0013427
0.000733779
0.00130712
0.000727162
0.00127426
0.000733747
0.00123641
0.000723307
0.0011785
0.000735073
0.00112544
0.000734015
0.00109478
0.000741568
0.00105854
0.000740484
0.00101273
0.000732441
0.000970316
0.000718698
0.000926594
0.00070739
0.000880591
0.0006939
0.000836189
0.000678328
0.000797258
0.000664625
0.000762056
0.000657984
0.000735019
0.000657185
0.00070885
0.000656461
0.000685623
0.00065686
0.00066705
0.000657757
0.000651899
0.000661686
0.000638999
0.000663451
0.000630563
0.000665911
0.000623754
0.000665866
0.000617678
0.000670923
0.000613965
0.000671755
0.000617967
0.000677333
0.000624322
0.000676758
0.000631344
0.000682506
0.000638942
0.000683044
0.000647144
0.000691164
0.000657661
0.000695704
0.000668607
0.000711031
0.0006821
0.00071722
0.000694086
0.000748813
0.000706879
0.00364526
0.00362706
0.00132648
0.00362097
0.00133899
0.00360229
0.00135753
0.00357746
0.00137516
0.00354501
0.00139375
0.00350565
0.00141263
0.0034595
0.00143198
0.00340697
0.00145165
0.00334849
0.00147162
0.00328451
0.00149181
0.0032155
0.00151222
0.00314188
0.00153271
0.00306422
0.00155321
0.00298302
0.00157366
0.00289882
0.00159399
0.00281211
0.00161414
0.00272338
0.00163404
0.0026331
0.00165358
0.00254179
0.00167272
0.00244988
0.00169142
0.0023578
0.00170962
0.00226596
0.00172727
0.00217467
0.00174434
0.00208428
0.00176079
0.0019951
0.00177656
0.0019074
0.0017916
0.00182138
0.00180596
0.00173724
0.0018196
0.00165517
0.00183242
0.00157536
0.00184442
0.00149791
0.0018557
0.0014229
0.0018662
0.00135037
0.00187594
0.00128038
0.00188469
0.00121285
0.00189238
0.00114791
0.00189927
0.00108548
0.00190537
0.00102541
0.00191046
0.000967572
0.00191418
0.000911964
0.00191629
0.000858193
0.0019165
0.000806437
0.0019138
0.000756915
0.00190881
0.000708891
0.00189988
0.000654117
0.00189152
0.000569709
0.00123317
0.000549719
0.00105383
0.000552722
0.00102606
0.000562068
0.00103756
0.000577055
0.00106667
0.000586958
0.0011007
0.000598378
0.00114096
0.000613894
0.00117489
0.000619814
0.00120834
0.000627165
0.00124112
0.000639096
0.00126846
0.000644302
0.00129793
0.000652123
0.00132721
0.000657286
0.00135253
0.000661295
0.00137589
0.000666254
0.00139805
0.000668544
0.00141601
0.000672357
0.00143355
0.000674582
0.0014497
0.000677782
0.00146383
0.000679903
0.00147705
0.000681633
0.00148847
0.000683001
0.00149848
0.000684562
0.00150618
0.000686258
0.00151318
0.0006884
0.00151767
0.000691034
0.00152006
0.000694606
0.00152134
0.000698228
0.00152131
0.000701391
0.00152081
0.000706962
0.00151918
0.000715249
0.00151628
0.000723123
0.00151278
0.000732306
0.00150947
0.000746483
0.00150297
0.000754384
0.00149002
0.000762776
0.00146976
0.000761079
0.00145517
0.000760206
0.00143198
0.000759368
0.00138168
0.00074672
0.00131537
0.000751534
0.00126502
0.000745851
0.00122963
0.000763892
0.00119365
0.000777737
0.00113828
0.000785619
0.00109622
0.000781875
0.00106338
0.000776161
0.00102973
0.000765558
0.00099017
0.000749528
0.000947776
0.000728348
0.000908089
0.000713321
0.000869369
0.000699234
0.000826352
0.000690822
0.000788275
0.000682169
0.000755045
0.00067669
0.000727851
0.000675046
0.000703981
0.000673396
0.000683396
0.000672956
0.000667618
0.000672404
0.000656244
0.000673222
0.000645422
0.000671121
0.000635046
0.000673577
0.000627049
0.000672607
0.000621547
0.000679078
0.000628392
0.000676053
0.000634441
0.000681479
0.000641675
0.000681183
0.000649297
0.000689237
0.00065922
0.000694019
0.000669622
0.000708466
0.000682456
0.000714841
0.000693653
0.000751073
0.000707153
0.003655
0.00363714
0.00134442
0.00363136
0.00136034
0.00361299
0.00138232
0.00358844
0.00140333
0.00355626
0.00142527
0.00351715
0.00144748
0.00347123
0.00147012
0.00341888
0.00149305
0.00336055
0.00151624
0.00329668
0.00153962
0.00322774
0.00156316
0.00315417
0.00158674
0.0030765
0.00161029
0.00299523
0.00163373
0.00291093
0.00165699
0.00282409
0.00168001
0.00273519
0.00170271
0.0026447
0.00172499
0.00255315
0.00174678
0.00246097
0.00176806
0.00236859
0.00178875
0.00227641
0.00180882
0.00218478
0.0018282
0.00209404
0.00184686
0.00200445
0.00186477
0.00191633
0.00188183
0.00182989
0.0018981
0.00174533
0.00191356
0.00166279
0.00192813
0.00158254
0.00194174
0.00150463
0.00195459
0.00142916
0.00196662
0.0013562
0.0019778
0.00128566
0.00198805
0.00121765
0.00199723
0.00115221
0.00200571
0.00108934
0.0020133
0.00102876
0.00202019
0.000970499
0.00202658
0.000914384
0.00203244
0.000860358
0.00203833
0.00080756
0.00204336
0.000756838
0.00204753
0.000724048
0.00204715
0.000653937
0.00204978
0.000565278
0.00134772
0.000537511
0.0011426
0.000563181
0.00110538
0.000585282
0.00113444
0.000607081
0.00118352
0.000622783
0.00122739
0.000634493
0.00127259
0.000647916
0.00130849
0.000653797
0.00134035
0.00065867
0.00137176
0.000668052
0.00140276
0.000671615
0.00142754
0.000678826
0.00145405
0.000678806
0.00147907
0.000681597
0.00150132
0.000684134
0.0015259
0.000683882
0.00154208
0.000687651
0.0015587
0.000688349
0.00157221
0.000690536
0.00158334
0.000690734
0.00159274
0.000691884
0.00160039
0.000692511
0.00160837
0.000693916
0.00161394
0.00069533
0.00161895
0.000696701
0.00162117
0.000698278
0.00162168
0.000700077
0.00162139
0.000702117
0.00162105
0.000705431
0.00161909
0.000713512
0.00161558
0.00072256
0.00161121
0.000733231
0.00160614
0.000745545
0.0016013
0.000756574
0.00159115
0.000765174
0.0015787
0.000780719
0.00156843
0.000794274
0.0015533
0.000793183
0.00151044
0.000787469
0.00146303
0.000773856
0.00141654
0.000781659
0.00136406
0.000797271
0.00130047
0.000809293
0.0012496
0.000808402
0.00120898
0.000819188
0.0011774
0.000824557
0.00114427
0.000820836
0.00111167
0.000812143
0.00107304
0.000800626
0.00103076
0.000781434
0.000988831
0.000763606
0.000939187
0.00074315
0.00088803
0.000726292
0.000842918
0.000711398
0.000804402
0.000702468
0.000771589
0.000696813
0.000744328
0.000690917
0.000721377
0.000688637
0.000701812
0.000686793
0.000683605
0.000684482
0.000668563
0.000680305
0.000656393
0.000679707
0.000645668
0.000675768
0.000637092
0.000680289
0.000633461
0.000676282
0.000635688
0.000682059
0.000643567
0.000681939
0.000651653
0.000689698
0.000661174
0.000694556
0.000671124
0.000707355
0.000682959
0.000715531
0.000695062
0.000753692
0.000708524
0.00366688
0.00364941
0.00136438
0.00364392
0.00138363
0.00362585
0.00140896
0.00360157
0.00143327
0.00356964
0.00145849
0.00353076
0.00148394
0.00348504
0.0015098
0.00343287
0.00153591
0.00337468
0.00156225
0.00331089
0.00158873
0.00324199
0.00161534
0.00316841
0.00164195
0.00309069
0.00166847
0.00300933
0.00169483
0.0029249
0.00172096
0.00283787
0.00174679
0.00274876
0.00177223
0.00265801
0.00179719
0.00256616
0.00182158
0.00247365
0.00184538
0.0023809
0.00186852
0.00228832
0.00189096
0.00219626
0.00191265
0.00210507
0.00193353
0.00201502
0.00195355
0.00192642
0.00197271
0.0018395
0.00199096
0.00175444
0.00200837
0.0016714
0.00202479
0.00159064
0.0020402
0.00151223
0.00205473
0.00143624
0.0020683
0.00136275
0.00208091
0.00129175
0.00209244
0.00122343
0.00210287
0.0011577
0.00211255
0.00109462
0.00212145
0.00103405
0.00212943
0.000976094
0.00213654
0.00091993
0.00214188
0.000865841
0.00214506
0.000812289
0.00214456
0.000763579
0.00214637
0.000744353
0.00213678
0.000756057
0.0021373
0.000643389
0.00163656
0.000533119
0.00128747
0.000595517
0.00126547
0.000636972
0.00131704
0.000663701
0.00139546
0.00068259
0.0014452
0.000692136
0.00148491
0.000703138
0.00152278
0.000703248
0.00154943
0.000706064
0.00157402
0.000711304
0.00160116
0.000709443
0.00161745
0.000713523
0.00163666
0.000710557
0.00165196
0.000712897
0.00166464
0.000709419
0.00167972
0.00070619
0.00168904
0.000707369
0.00170789
0.000705484
0.00171346
0.000705955
0.00171947
0.000703893
0.00172495
0.000703864
0.00172916
0.000702683
0.00173391
0.00070304
0.00173478
0.000702903
0.00173745
0.000703391
0.00173709
0.000704456
0.00173605
0.000706075
0.00173265
0.000708482
0.00172797
0.000716698
0.00172257
0.000725557
0.00171663
0.000735402
0.0017101
0.000746878
0.00170331
0.000759366
0.00169565
0.000771075
0.00168639
0.000788834
0.00167311
0.000806036
0.00165503
0.000815292
0.00164049
0.000818417
0.00160945
0.000826853
0.00157965
0.000828584
0.00150767
0.000832375
0.00144975
0.000841197
0.00139932
0.000847687
0.00135827
0.000866717
0.00131071
0.000872602
0.00127012
0.000875009
0.0012316
0.000874811
0.00119567
0.000862306
0.0011559
0.000852687
0.00111153
0.000833487
0.00106521
0.000816353
0.00101256
0.000790278
0.000962447
0.000767164
0.000910058
0.000748131
0.000863682
0.000732218
0.000823254
0.000722539
0.000789503
0.000713891
0.000761493
0.000709066
0.000738264
0.000703069
0.000718435
0.000698463
0.000701297
0.000692429
0.000685849
0.000688859
0.000671151
0.00068258
0.000658574
0.000686013
0.000650735
0.000680643
0.000644876
0.000686073
0.000645511
0.000685029
0.000654379
0.000692472
0.000663671
0.000697315
0.000673377
0.000709256
0.00068437
0.000717922
0.000696881
0.000756574
0.00071031
0.00368104
0.00366387
0.00138642
0.00365866
0.00140889
0.00364086
0.00143748
0.00361684
0.00146499
0.00358514
0.0014934
0.00354646
0.001522
0.00350093
0.00155099
0.00344891
0.0015802
0.00339082
0.0016096
0.00332709
0.00163911
0.00325821
0.0016687
0.00318461
0.00169826
0.00310682
0.00172768
0.00302534
0.00175689
0.00294073
0.00178581
0.00285349
0.00181437
0.00276412
0.00184248
0.00267308
0.00187005
0.00258088
0.00189697
0.00248799
0.00192322
0.00239484
0.00194874
0.00230183
0.00197348
0.00220932
0.00199737
0.00211765
0.00202036
0.0020271
0.00204241
0.00193799
0.00206345
0.00185053
0.00208354
0.00176492
0.00210264
0.00168134
0.00212063
0.0016
0.00213754
0.00152099
0.00215346
0.00144443
0.00216839
0.00137033
0.00218229
0.0012987
0.00219499
0.00122974
0.00220649
0.00116337
0.00221712
0.00109967
0.00222683
0.00103869
0.00223575
0.000980406
0.0022441
0.000924333
0.0022528
0.0008685
0.00226207
0.000816905
0.00227107
0.000765214
0.00228138
0.00073392
0.00229203
0.000856639
0.0023198
0.000748696
0.00225894
0.000581981
0.00158816
0.000688479
0.00153494
0.000736082
0.00159046
0.000761838
0.00166777
0.000769792
0.00169998
0.000771115
0.0017226
0.000775122
0.00174345
0.000769004
0.00175545
0.000771179
0.00176819
0.000766724
0.00178423
0.00076289
0.00178717
0.000760927
0.00180183
0.000753858
0.00180363
0.000752355
0.0018084
0.000744239
0.00181758
0.000744548
0.00182352
0.000738982
0.00183555
0.00073613
0.00184138
0.0007343
0.00184452
0.000731223
0.00184305
0.00072976
0.00184821
0.000726721
0.00184828
0.000725683
0.00184582
0.000723754
0.00184266
0.000723646
0.00184104
0.000723279
0.00183523
0.000724209
0.00182863
0.000731751
0.00182074
0.000739943
0.00181338
0.000748747
0.00180428
0.00075869
0.0017951
0.000769316
0.00178578
0.00078271
0.00177708
0.00079819
0.00176699
0.000810376
0.00175207
0.000826297
0.0017347
0.000840651
0.00172235
0.000863386
0.00168966
0.000863052
0.00165367
0.000869125
0.00158819
0.000881322
0.00154363
0.000902454
0.00149731
0.000914537
0.00144923
0.000920676
0.00141295
0.000924752
0.0013733
0.000923925
0.0013242
0.000922901
0.00127789
0.000914224
0.00123099
0.000906937
0.00118789
0.000888225
0.00114156
0.000870386
0.00108925
0.000841066
0.00103525
0.000813804
0.00097638
0.000790365
0.000920891
0.000767906
0.000873206
0.000752533
0.000835053
0.000738611
0.00080391
0.000731376
0.000779291
0.000723204
0.000758004
0.000717372
0.000739241
0.000709406
0.000720053
0.00070229
0.000700744
0.000693256
0.000684214
0.000694326
0.000670921
0.000687626
0.000661501
0.000691784
0.000656558
0.000689038
0.000657157
0.000696316
0.000667207
0.000701123
0.000677136
0.000712322
0.000687516
0.000722753
0.0006999
0.000759877
0.000712546
0.00369731
0.00368048
0.00141052
0.00367552
0.0014361
0.00365799
0.00146786
0.0036342
0.00149849
0.00360272
0.00152999
0.00356425
0.00156164
0.00351888
0.00159367
0.00346699
0.00162588
0.00340899
0.00165826
0.00334529
0.00169071
0.0032764
0.00172321
0.00320274
0.00175563
0.00312483
0.00178787
0.00304319
0.00181985
0.00295837
0.00185149
0.00287088
0.00188271
0.0027812
0.00191342
0.00268981
0.00194351
0.00259722
0.0019729
0.0025039
0.00200155
0.00241028
0.00202939
0.00231677
0.00205639
0.00222371
0.00208246
0.00213147
0.00210758
0.00204034
0.00213166
0.00195063
0.00215469
0.00186258
0.00217669
0.00177636
0.00219765
0.00169214
0.00221746
0.00161019
0.00223617
0.00153057
0.00225384
0.00145339
0.00227045
0.00137868
0.00228587
0.00130641
0.00230017
0.00123686
0.00231364
0.00116997
0.00232627
0.00110572
0.00233848
0.00104415
0.00234992
0.000985421
0.00236021
0.000930222
0.00236949
0.000877185
0.00237827
0.000827624
0.00239006
0.000776134
0.00240365
0.000743793
0.00242236
0.000812233
0.00243391
0.000906999
0.00245007
0.00070579
0.00219341
0.000773715
0.00175547
0.000808276
0.00178791
0.000822093
0.0018581
0.000824174
0.00188633
0.000823068
0.00190312
0.000820638
0.00190963
0.000811065
0.00190829
0.000811719
0.00191685
0.000800269
0.00191817
0.000797254
0.00191507
0.000787117
0.00191914
0.000780904
0.00191479
0.000774295
0.00192241
0.000768123
0.00191778
0.000763773
0.00192921
0.000759615
0.0019333
0.000755512
0.00194287
0.000751524
0.0019385
0.000748713
0.00194062
0.000745366
0.00193614
0.000741348
0.00193681
0.000738292
0.00193438
0.000736538
0.00193185
0.000734408
0.00192584
0.000734977
0.00191808
0.000742664
0.0019093
0.00075031
0.00189938
0.000758545
0.00188802
0.000767525
0.00187696
0.000777137
0.00186598
0.000788738
0.00185414
0.000801481
0.00184361
0.000816279
0.00182919
0.00083449
0.00181911
0.000851968
0.00180999
0.000872808
0.00178532
0.000881771
0.00176571
0.000896454
0.00170619
0.00090883
0.00165964
0.000934871
0.00160682
0.000958011
0.00157082
0.000963614
0.001538
0.000976959
0.00150403
0.000982518
0.0014612
0.000976413
0.00141061
0.000975037
0.00136386
0.000965521
0.00131946
0.000957267
0.00127223
0.000940368
0.00122113
0.000922314
0.00116398
0.000896549
0.00110877
0.000868629
0.00105107
0.000837322
0.00099283
0.00080498
0.000934854
0.000784093
0.000885197
0.000765195
0.000845114
0.000754843
0.000815422
0.000744147
0.000789865
0.000738239
0.000769367
0.000730501
0.000749914
0.000721193
0.000731247
0.000709613
0.00071293
0.000706484
0.000694666
0.000698272
0.000680819
0.000700079
0.000670884
0.000695938
0.000668205
0.000702261
0.000671456
0.000707127
0.00068184
0.000717656
0.000691949
0.000730383
0.000704214
0.000764403
0.000715984
0.00371579
0.00369921
0.00143675
0.0036945
0.00146531
0.00367722
0.00150013
0.00365365
0.00153376
0.00362238
0.00156825
0.00358408
0.00160286
0.00353886
0.00163782
0.00348708
0.00167295
0.00342913
0.00170821
0.00336546
0.0017435
0.00329653
0.0017788
0.00322279
0.00181399
0.00314475
0.00184896
0.00306293
0.00188363
0.00297786
0.0019179
0.00289007
0.00195169
0.00280004
0.00198491
0.00270826
0.00201745
0.00261523
0.00204923
0.00252144
0.00208018
0.00242733
0.00211026
0.00233328
0.00213942
0.00223969
0.00216757
0.00214687
0.00219468
0.00205515
0.00222068
0.00196482
0.00224549
0.00187611
0.00226916
0.00178925
0.00229169
0.00170437
0.00231298
0.00162173
0.00233297
0.00154139
0.00235184
0.00146347
0.00236948
0.00138798
0.00238579
0.00131504
0.00240067
0.0012447
0.00241438
0.00117695
0.00242685
0.00111184
0.00243797
0.00104961
0.00244839
0.000989741
0.0024576
0.000932962
0.00246601
0.000877984
0.00247295
0.000825522
0.00247909
0.000775199
0.0024812