/*--------------------------------*- C++ -*----------------------------------*\
| =========                 |                                                 |
| \\      /  F ield         | OpenFOAM: The Open Source CFD Toolbox           |
|  \\    /   O peration     | Version:  2.2.x                                 |
|   \\  /    A nd           | Web:      www.OpenFOAM.org                      |
|    \\/     M anipulation  |                                                 |
\*---------------------------------------------------------------------------*/
FoamFile
{
    version     2.0;
    format      ascii;
    class       volScalarField;
    location    "1.45";
    object      Bz;
}
// * * * * * * * * * * * * * * * * * * * * * * * * * * * * * * * * * * * * * //

dimensions      [1 0 -2 0 0 -1 0];

internalField   nonuniform List<scalar> 
14161
(
2.25942e-19
2.25957e-19
2.26223e-19
2.2483e-19
2.25584e-19
2.24508e-19
2.25532e-19
2.25031e-19
2.26401e-19
2.24895e-19
2.26498e-19
2.26298e-19
2.2663e-19
2.27422e-19
2.27524e-19
2.29047e-19
2.29648e-19
2.30625e-19
2.30726e-19
2.31858e-19
2.31616e-19
2.32874e-19
2.33551e-19
2.32921e-19
2.34554e-19
2.34095e-19
2.34352e-19
2.36454e-19
2.35286e-19
2.36112e-19
2.36516e-19
2.37252e-19
2.37331e-19
2.37537e-19
2.37385e-19
2.37482e-19
2.36987e-19
2.3895e-19
2.34746e-19
2.49919e-19
2.16964e-19
2.80748e-19
1.65545e-19
3.264e-19
1.24865e-19
3.70981e-19
4.05967e-21
1.14651e-18
1.06028e-17
1.40626e-17
1.17936e-17
6.91778e-18
4.44521e-18
1.72374e-18
3.11423e-19
-6.37113e-20
5.90562e-20
8.2369e-20
5.88495e-20
4.48586e-20
1.1517e-19
3.74134e-20
-6.76779e-20
-3.8534e-21
1.8784e-19
1.58931e-19
-2.04894e-19
-1.75639e-19
2.77209e-19
2.9996e-19
-1.45044e-19
-1.73329e-19
2.57037e-19
4.01597e-19
3.0417e-19
2.11236e-19
3.86409e-19
4.57909e-19
5.71324e-19
6.3482e-19
5.83462e-19
6.53111e-19
8.16882e-19
9.73674e-19
1.12114e-18
1.08679e-18
1.27731e-18
2.00711e-18
2.22319e-18
2.62196e-18
2.50788e-18
2.70562e-18
3.28983e-18
3.34713e-18
3.74663e-18
4.22103e-18
4.62897e-18
5.21289e-18
5.59571e-18
6.07578e-18
6.3138e-18
6.62574e-18
6.66377e-18
6.35531e-18
3.89771e-18
1.92746e-18
7.06471e-19
5.85695e-19
3.24962e-19
4.55192e-19
6.54359e-20
3.54576e-19
-6.80223e-20
5.46856e-19
1.25662e-19
1.4288e-18
1.31795e-18
7.02808e-18
7.49308e-18
2.26476e-19
2.26439e-19
2.26883e-19
2.26293e-19
2.2625e-19
2.25825e-19
2.26648e-19
2.26032e-19
2.27742e-19
2.26905e-19
2.28021e-19
2.26786e-19
2.2791e-19
2.2905e-19
2.30197e-19
2.3036e-19
2.32367e-19
2.32151e-19
2.34081e-19
2.33768e-19
2.34335e-19
2.35115e-19
2.35036e-19
2.36708e-19
2.36524e-19
2.37465e-19
2.38261e-19
2.38763e-19
2.39498e-19
2.40473e-19
2.39987e-19
2.39757e-19
2.39486e-19
2.38917e-19
2.3864e-19
2.38968e-19
2.38724e-19
2.40557e-19
2.3731e-19
2.42483e-19
2.31968e-19
2.52025e-19
2.243e-19
2.6319e-19
1.92527e-19
3.04983e-19
1.21196e-19
1.54179e-18
1.06481e-17
1.34599e-17
1.10231e-17
6.48185e-18
2.65469e-18
8.68456e-19
-3.05082e-21
1.13701e-19
3.78517e-20
3.00472e-20
8.03362e-21
3.67984e-21
7.42874e-20
2.81728e-20
-6.31286e-20
-4.66173e-20
1.36847e-19
1.69508e-19
-1.5721e-19
-1.57722e-19
2.04583e-19
2.71334e-19
-9.49054e-20
-1.54129e-19
2.01835e-19
3.91551e-19
3.10368e-19
2.17811e-19
3.96348e-19
4.57173e-19
5.62705e-19
6.32541e-19
5.96107e-19
6.50801e-19
8.36417e-19
9.55838e-19
1.11604e-18
1.10641e-18
1.29989e-18
1.96229e-18
2.25218e-18
2.60849e-18
2.5238e-18
2.74098e-18
3.28486e-18
3.42982e-18
3.76352e-18
4.29757e-18
4.66658e-18
5.22134e-18
5.5973e-18
6.17511e-18
6.34658e-18
6.74685e-18
6.67891e-18
6.00232e-18
3.37379e-18
1.76333e-18
7.37747e-19
6.87115e-19
4.08095e-19
5.28254e-19
1.58873e-19
4.41763e-19
1.4688e-21
6.58881e-19
2.25742e-19
1.83519e-18
1.89562e-18
6.04751e-18
6.32686e-18
2.26772e-19
2.27185e-19
2.27718e-19
2.27776e-19
2.27195e-19
2.28501e-19
2.28729e-19
2.28181e-19
2.29931e-19
2.30221e-19
2.29539e-19
2.28759e-19
2.29591e-19
2.32224e-19
2.33532e-19
2.33887e-19
2.35279e-19
2.35242e-19
2.36626e-19
2.37042e-19
2.3764e-19
2.38096e-19
2.38666e-19
2.40503e-19
2.40286e-19
2.40638e-19
2.42196e-19
2.44021e-19
2.44562e-19
2.43818e-19
2.43273e-19
2.42948e-19
2.423e-19
2.42337e-19
2.41935e-19
2.42214e-19
2.41652e-19
2.41731e-19
2.41422e-19
2.40747e-19
2.42468e-19
2.41058e-19
2.42574e-19
2.442e-19
2.42741e-19
2.41473e-19
2.58293e-19
2.1231e-18
1.08798e-17
1.33712e-17
1.05182e-17
6.67833e-18
2.62798e-18
1.14304e-18
2.47406e-19
1.75944e-19
1.18449e-19
7.57477e-20
6.56073e-20
2.12457e-20
5.40893e-20
7.24209e-20
-2.98156e-20
-7.47473e-20
7.41566e-20
1.77467e-19
-6.54768e-20
-1.3075e-19
1.27054e-19
2.28532e-19
-3.50537e-20
-1.1777e-19
1.59315e-19
3.46462e-19
3.19646e-19
2.61228e-19
4.00295e-19
4.62238e-19
5.49698e-19
6.34765e-19
6.04126e-19
6.58699e-19
8.49859e-19
9.53428e-19
1.11145e-18
1.11806e-18
1.31882e-18
1.91308e-18
2.2731e-18
2.5928e-18
2.57024e-18
2.76102e-18
3.33819e-18
3.45964e-18
3.79627e-18
4.31046e-18
4.71375e-18
5.34651e-18
5.75447e-18
6.23373e-18
6.35266e-18
6.71664e-18
6.23401e-18
5.13907e-18
2.8846e-18
1.64846e-18
7.03797e-19
7.41509e-19
4.58242e-19
6.14437e-19
2.09511e-19
5.13923e-19
9.1358e-20
7.01919e-19
2.90794e-19
1.86223e-18
1.93426e-18
5.05047e-18
5.23102e-18
2.32733e-19
2.32022e-19
2.31349e-19
2.30209e-19
2.28566e-19
2.31658e-19
2.31659e-19
2.30394e-19
2.32002e-19
2.33738e-19
2.29684e-19
2.33641e-19
2.33703e-19
2.36474e-19
2.36992e-19
2.39759e-19
2.40585e-19
2.4071e-19
2.39004e-19
2.424e-19
2.43637e-19
2.42893e-19
2.43275e-19
2.44018e-19
2.45603e-19
2.45759e-19
2.47465e-19
2.47934e-19
2.48259e-19
2.47131e-19
2.47329e-19
2.47368e-19
2.47455e-19
2.47546e-19
2.46871e-19
2.46837e-19
2.46883e-19
2.46803e-19
2.48099e-19
2.46768e-19
2.48199e-19
2.44668e-19
2.50559e-19
2.39545e-19
2.65232e-19
2.23937e-19
3.70006e-19
2.35376e-18
1.09366e-17
1.34222e-17
1.0808e-17
7.02358e-18
3.11038e-18
1.62903e-18
4.05549e-19
2.1403e-19
1.00827e-19
9.40554e-21
-2.30258e-20
-6.33394e-20
-7.02099e-20
-1.03104e-20
-4.19559e-20
-6.86651e-20
-4.49495e-20
1.07147e-19
4.09275e-20
-5.8859e-20
3.58676e-20
1.31424e-19
6.02317e-20
-2.49563e-20
1.08634e-19
2.7893e-19
3.26229e-19
3.42376e-19
4.40714e-19
4.82643e-19
5.46696e-19
6.227e-19
6.1922e-19
6.85808e-19
8.8538e-19
9.64012e-19
1.12442e-18
1.16301e-18
1.36706e-18
1.85846e-18
2.2976e-18
2.5453e-18
2.60464e-18
2.8911e-18
3.35862e-18
3.5401e-18
3.79235e-18
4.44978e-18
4.81017e-18
5.47083e-18
5.72487e-18
6.35043e-18
6.29882e-18
6.41219e-18
5.2731e-18
3.82909e-18
2.40597e-18
1.49449e-18
8.01558e-19
8.72155e-19
5.78785e-19
7.13422e-19
3.83793e-19
6.55242e-19
2.68351e-19
8.29944e-19
4.22495e-19
1.60185e-18
1.54416e-18
3.84323e-18
3.9518e-18
2.35776e-19
2.34683e-19
2.35013e-19
2.37518e-19
2.34723e-19
2.35785e-19
2.35462e-19
2.34621e-19
2.35052e-19
2.37904e-19
2.3164e-19
2.39824e-19
2.39365e-19
2.43939e-19
2.41683e-19
2.4532e-19
2.46514e-19
2.49027e-19
2.48898e-19
2.45581e-19
2.48404e-19
2.5029e-19
2.51811e-19
2.52568e-19
2.5281e-19
2.53389e-19
2.52504e-19
2.53466e-19
2.54573e-19
2.55166e-19
2.54068e-19
2.53562e-19
2.53676e-19
2.52537e-19
2.51828e-19
2.53311e-19
2.53748e-19
2.52485e-19
2.53779e-19
2.52327e-19
2.5357e-19
2.51392e-19
2.56581e-19
2.483e-19
2.67106e-19
2.32917e-19
4.19505e-19
2.20653e-18
1.06362e-17
1.40571e-17
1.15935e-17
7.5301e-18
3.8678e-18
2.21302e-18
8.78746e-19
4.03548e-19
2.67302e-19
1.31915e-19
2.79371e-20
1.10382e-21
-4.17442e-20
1.95246e-20
3.94369e-20
7.18132e-20
5.31658e-20
1.3356e-19
1.85231e-19
1.39911e-19
1.53678e-19
1.83647e-19
1.89317e-19
9.16089e-20
1.44391e-19
3.08768e-19
3.54955e-19
4.30371e-19
4.93759e-19
5.42975e-19
5.80178e-19
6.37167e-19
6.41705e-19
7.14838e-19
9.14822e-19
9.83919e-19
1.14896e-18
1.2075e-18
1.41886e-18
1.86703e-18
2.24982e-18
2.53227e-18
2.63007e-18
2.93596e-18
3.36214e-18
3.65062e-18
3.78463e-18
4.63834e-18
4.93515e-18
5.59766e-18
5.80012e-18
6.31674e-18
5.91973e-18
5.37255e-18
3.97057e-18
2.89665e-18
1.91133e-18
1.27477e-18
9.77571e-19
9.7805e-19
7.57357e-19
8.62467e-19
7.12463e-19
8.55881e-19
5.38996e-19
1.01643e-18
4.84894e-19
1.59347e-18
1.42688e-18
2.57414e-18
2.63728e-18
2.43949e-19
2.43919e-19
2.41845e-19
2.41649e-19
2.43004e-19
2.44026e-19
2.41418e-19
2.5006e-19
2.41566e-19
2.43647e-19
2.51888e-19
2.48327e-19
2.50569e-19
2.56053e-19
2.52286e-19
2.64521e-19
2.54751e-19
2.65935e-19
2.62402e-19
2.61541e-19
2.64814e-19
2.65872e-19
2.63761e-19
2.62567e-19
2.62111e-19
2.63047e-19
2.62636e-19
2.62268e-19
2.62403e-19
2.61676e-19
2.6242e-19
2.62887e-19
2.63771e-19
2.6338e-19
2.63162e-19
2.63504e-19
2.63772e-19
2.63773e-19
2.64219e-19
2.63778e-19
2.64555e-19
2.64201e-19
2.66984e-19
2.61438e-19
2.74132e-19
2.42204e-19
4.0016e-19
2.03377e-18
1.03362e-17
1.55521e-17
1.33813e-17
8.34923e-18
5.00249e-18
3.14107e-18
1.89947e-18
1.0791e-18
7.67858e-19
5.52285e-19
3.65779e-19
3.01116e-19
1.99298e-19
1.90114e-19
2.13683e-19
2.11127e-19
1.72479e-19
1.95845e-19
2.19802e-19
2.13014e-19
2.55306e-19
2.15795e-19
2.62067e-19
2.01146e-19
1.4345e-19
3.30019e-19
3.68217e-19
4.57086e-19
5.14683e-19
5.23255e-19
6.08169e-19
6.68375e-19
6.66332e-19
7.26564e-19
8.857e-19
1.06627e-18
1.19901e-18
1.26999e-18
1.49317e-18
1.86833e-18
2.25735e-18
2.50853e-18
2.64232e-18
2.97571e-18
3.20746e-18
3.83061e-18
4.03454e-18
4.65202e-18
5.02714e-18
5.66769e-18
5.71587e-18
5.84958e-18
4.94239e-18
3.90865e-18
2.83839e-18
2.18968e-18
1.55049e-18
1.18701e-18
1.00702e-18
1.11413e-18
8.27924e-19
1.00693e-18
7.58552e-19
1.06706e-18
7.88169e-19
1.19582e-18
8.65845e-19
1.53324e-18
1.31428e-18
2.25352e-18
2.33552e-18
2.52757e-19
2.52004e-19
2.51584e-19
2.51672e-19
2.56658e-19
2.58754e-19
2.51703e-19
2.60805e-19
2.56509e-19
2.57795e-19
2.63355e-19
2.65462e-19
2.78298e-19
2.71283e-19
2.70265e-19
2.76381e-19
2.75215e-19
2.74512e-19
2.74934e-19
2.90069e-19
2.83232e-19
2.85553e-19
2.8809e-19
2.877e-19
2.84049e-19
2.84241e-19
2.85812e-19
2.82468e-19
2.809e-19
2.80757e-19
2.81744e-19
2.82026e-19
2.825e-19
2.81989e-19
2.82949e-19
2.82862e-19
2.82753e-19
2.82167e-19
2.82688e-19
2.83028e-19
2.83253e-19
2.8202e-19
2.82218e-19
2.80296e-19
2.81807e-19
2.76244e-19
3.66937e-19
1.43713e-18
9.119e-18
1.8738e-17
1.67142e-17
9.74695e-18
6.82731e-18
4.95793e-18
3.62831e-18
2.29679e-18
1.68446e-18
1.16922e-18
8.67973e-19
6.9355e-19
5.18017e-19
4.44285e-19
4.17898e-19
3.36841e-19
2.63751e-19
2.33298e-19
1.80098e-19
1.87231e-19
2.3297e-19
1.8611e-19
2.13992e-19
2.21146e-19
1.28577e-19
2.91303e-19
3.19484e-19
4.00071e-19
4.64411e-19
5.02285e-19
6.02454e-19
6.21643e-19
6.03985e-19
7.5315e-19
8.64817e-19
1.02706e-18
1.22368e-18
1.26473e-18
1.64183e-18
1.91e-18
2.23606e-18
2.50404e-18
2.68866e-18
3.0326e-18
3.27292e-18
3.82912e-18
4.11527e-18
4.75193e-18
5.02094e-18
5.46137e-18
5.17938e-18
4.66177e-18
3.56968e-18
2.75138e-18
2.02899e-18
1.69486e-18
1.27695e-18
1.15192e-18
1.04523e-18
1.12703e-18
8.66637e-19
1.0936e-18
9.35782e-19
1.19686e-18
9.12072e-19
1.24632e-18
1.06247e-18
1.45088e-18
1.34508e-18
1.58062e-18
1.62962e-18
2.62675e-19
2.63618e-19
2.62025e-19
2.69465e-19
2.7425e-19
2.75708e-19
2.76651e-19
2.75072e-19
2.8439e-19
2.78409e-19
2.86412e-19
2.88242e-19
2.97742e-19
2.9784e-19
3.03919e-19
2.9743e-19
2.99428e-19
2.99855e-19
3.05888e-19
3.06225e-19
3.01602e-19
3.02325e-19
3.04916e-19
3.07827e-19
3.12025e-19
3.09176e-19
3.05794e-19
3.07777e-19
3.06212e-19
3.10318e-19
3.05132e-19
3.07825e-19
3.03772e-19
3.05772e-19
3.01655e-19
3.00955e-19
3.0233e-19
3.0164e-19
3.0143e-19
3.02702e-19
3.02185e-19
3.02591e-19
3.01985e-19
3.02962e-19
3.06584e-19
3.01227e-19
3.14185e-19
6.91795e-19
6.8164e-19
2.86001e-17
2.47918e-17
1.46878e-17
1.07542e-17
7.72847e-18
5.52078e-18
3.95525e-18
2.56777e-18
1.58467e-18
1.14937e-18
8.01623e-19
5.90187e-19
4.3752e-19
4.6364e-19
3.8476e-19
2.7698e-19
2.26773e-19
1.68289e-19
1.72562e-19
2.06817e-19
1.78303e-19
1.97699e-19
1.72758e-19
1.60994e-19
2.6211e-19
2.82878e-19
3.57782e-19
4.19745e-19
4.37465e-19
5.93012e-19
5.73362e-19
6.22841e-19
7.86626e-19
8.81065e-19
1.00431e-18
1.17222e-18
1.29222e-18
1.67006e-18
1.9114e-18
2.2312e-18
2.40551e-18
2.6704e-18
3.06725e-18
3.37139e-18
3.91795e-18
4.11251e-18
4.70681e-18
4.76241e-18
4.69581e-18
4.04254e-18
3.23556e-18
2.45062e-18
1.94993e-18
1.54821e-18
1.33091e-18
1.1687e-18
1.09982e-18
9.77762e-19
1.05427e-18
9.13435e-19
1.05211e-18
8.99403e-19
1.11314e-18
1.22618e-18
1.483e-18
1.36504e-18
1.3671e-18
1.32978e-18
1.42099e-18
1.43951e-18
2.87776e-19
2.93263e-19
2.93687e-19
3.02498e-19
2.97239e-19
3.02302e-19
3.04894e-19
3.03333e-19
3.11412e-19
3.09291e-19
3.13554e-19
3.1803e-19
3.16989e-19
3.15451e-19
3.21957e-19
3.17104e-19
3.14915e-19
3.27054e-19
3.27258e-19
3.2263e-19
3.25789e-19
3.28121e-19
3.26134e-19
3.27578e-19
3.20757e-19
3.28351e-19
3.26436e-19
3.29062e-19
3.23011e-19
3.31425e-19
3.19959e-19
3.25985e-19
3.21826e-19
3.24027e-19
3.22089e-19
3.23999e-19
3.24317e-19
3.23619e-19
3.23643e-19
3.23186e-19
3.2267e-19
3.22593e-19
3.21107e-19
3.16479e-19
3.22716e-19
3.07514e-19
3.28079e-19
6.5279e-19
6.66571e-18
2.87555e-17
3.02159e-17
1.92286e-17
1.38909e-17
1.03105e-17
7.52064e-18
5.39869e-18
3.27943e-18
2.16137e-18
1.41793e-18
8.95035e-19
6.13296e-19
3.96361e-19
3.84964e-19
2.90425e-19
1.74041e-19
1.28729e-19
8.98135e-20
1.01572e-19
8.31407e-20
7.06064e-20
8.24016e-20
8.55093e-20
1.02919e-19
1.76369e-19
1.90853e-19
2.7639e-19
3.4079e-19
4.01324e-19
4.87184e-19
5.27164e-19
6.17521e-19
6.95333e-19
8.94576e-19
9.85027e-19
1.13258e-18
1.3812e-18
1.60001e-18
1.91355e-18
2.20406e-18
2.44015e-18
2.79394e-18
3.08906e-18
3.3491e-18
3.96356e-18
3.97869e-18
4.28502e-18
3.95254e-18
3.46573e-18
2.72388e-18
2.16329e-18
1.67686e-18
1.38874e-18
1.21442e-18
1.15294e-18
1.04584e-18
1.10068e-18
1.00767e-18
1.0136e-18
7.46627e-19
9.31967e-19
8.17701e-19
1.08643e-18
1.04047e-18
1.43122e-18
1.15798e-18
1.18857e-18
1.17875e-18
1.3949e-18
1.43513e-18
3.28094e-19
3.27739e-19
3.28958e-19
3.34631e-19
3.41544e-19
3.31537e-19
3.3084e-19
3.38194e-19
3.25038e-19
3.50664e-19
3.3673e-19
3.52451e-19
3.45317e-19
3.30551e-19
3.46788e-19
3.37913e-19
3.40779e-19
3.40557e-19
3.43387e-19
3.42227e-19
3.43315e-19
3.40845e-19
3.4504e-19
3.41723e-19
3.38635e-19
3.41015e-19
3.36026e-19
3.38225e-19
3.39664e-19
3.31754e-19
3.35823e-19
3.31866e-19
3.33085e-19
3.32379e-19
3.32791e-19
3.31568e-19
3.30281e-19
3.29159e-19
3.28951e-19
3.27394e-19
3.26657e-19
3.23626e-19
3.20516e-19
3.18547e-19
3.16441e-19
3.20603e-19
2.99238e-19
5.0398e-19
1.92446e-18
2.05516e-17
3.81282e-17
2.41458e-17
1.56868e-17
1.2014e-17
8.22294e-18
5.58636e-18
3.36878e-18
2.10482e-18
1.31487e-18
7.70794e-19
4.56232e-19
2.33347e-19
2.11369e-19
1.77692e-19
4.39159e-20
-1.67223e-20
-3.14271e-21
-3.09193e-20
-2.91035e-20
-1.97384e-20
-2.12969e-20
-9.07339e-21
3.20196e-20
1.07625e-19
1.43009e-19
1.73108e-19
2.90066e-19
3.58482e-19
4.02931e-19
4.98717e-19
5.97212e-19
6.7135e-19
8.91083e-19
9.61737e-19
1.23397e-18
1.38035e-18
1.63312e-18
1.97057e-18
2.218e-18
2.46998e-18
2.88721e-18
3.10239e-18
3.31371e-18
3.65871e-18
3.40865e-18
3.33856e-18
2.78799e-18
2.27403e-18
1.8005e-18
1.45866e-18
1.25147e-18
1.09819e-18
1.00944e-18
9.6392e-19
1.01657e-18
1.0794e-18
9.86875e-19
9.88202e-19
9.36293e-19
1.05078e-18
7.90042e-19
9.80762e-19
9.96186e-19
1.35639e-18
1.14327e-18
9.70856e-19
9.37176e-19
9.19758e-19
9.01481e-19
3.63252e-19
3.61624e-19
3.64193e-19
3.57527e-19
3.55716e-19
3.57114e-19
3.62217e-19
3.58661e-19
3.58108e-19
3.60724e-19
3.61565e-19
3.6405e-19
3.63102e-19
3.60705e-19
3.55487e-19
3.57145e-19
3.5653e-19
3.52595e-19
3.51762e-19
3.61176e-19
3.53452e-19
3.53818e-19
3.54745e-19
3.44539e-19
3.40907e-19
3.36274e-19
3.42855e-19
3.42022e-19
3.33645e-19
3.44152e-19
3.33704e-19
3.36633e-19
3.30765e-19
3.33206e-19
3.28342e-19
3.26187e-19
3.25256e-19
3.2261e-19
3.1961e-19
3.18317e-19
3.14704e-19
3.12422e-19
3.08421e-19
3.08064e-19
3.09656e-19
3.01912e-19
3.1004e-19
5.0825e-19
2.28229e-18
1.32722e-17
3.07467e-17
2.60643e-17
1.96868e-17
1.18042e-17
8.01686e-18
4.91748e-18
3.05242e-18
1.76652e-18
1.11576e-18
5.88547e-19
2.70764e-19
6.01125e-20
3.54206e-20
5.21642e-20
-7.68854e-20
-1.25137e-19
-1.06808e-19
-1.07466e-19
-8.15546e-20
-8.11772e-20
-7.10889e-20
-6.46245e-20
-1.56311e-21
7.90202e-20
1.18585e-19
1.34822e-19
2.66604e-19
3.41957e-19
3.63902e-19
5.43991e-19
6.40546e-19
7.3207e-19
8.96572e-19
1.0338e-18
1.26752e-18
1.41975e-18
1.71182e-18
2.05345e-18
2.29156e-18
2.53112e-18
2.86649e-18
2.87006e-18
2.97463e-18
2.88376e-18
2.50129e-18
2.22412e-18
1.75894e-18
1.46153e-18
1.20996e-18
1.07803e-18
9.31388e-19
8.92251e-19
8.76151e-19
9.09492e-19
9.89257e-19
1.03754e-18
8.29225e-19
9.0262e-19
9.60304e-19
9.54492e-19
9.79042e-19
1.17454e-18
1.06463e-18
9.77953e-19
1.11796e-18
9.9985e-19
1.09958e-18
1.10297e-18
1.10872e-18
3.72498e-19
3.7325e-19
3.78231e-19
3.64189e-19
3.68645e-19
3.64093e-19
3.82179e-19
3.59316e-19
3.71931e-19
3.79185e-19
3.79001e-19
3.63432e-19
3.71764e-19
3.63157e-19
3.6645e-19
3.64274e-19
3.6326e-19
3.57485e-19
3.62249e-19
3.53717e-19
3.59641e-19
3.49989e-19
3.45394e-19
3.37899e-19
3.37462e-19
3.36557e-19
3.34103e-19
3.22594e-19
3.38991e-19
3.25737e-19
3.272e-19
3.25003e-19
3.19523e-19
3.17848e-19
3.12276e-19
3.10128e-19
3.04621e-19
3.02614e-19
3.01183e-19
2.9994e-19
2.97065e-19
2.94892e-19
2.93946e-19
2.94417e-19
2.92111e-19
2.85995e-19
3.00258e-19
4.72276e-19
1.93657e-18
1.00398e-17
1.87193e-17
2.1648e-17
1.99053e-17
1.39032e-17
8.69807e-18
4.40301e-18
2.7033e-18
1.43589e-18
8.21462e-19
4.55787e-19
1.81169e-19
1.46911e-20
-2.88506e-20
4.61529e-20
-8.56869e-20
-1.13876e-19
-9.14484e-20
-1.02926e-19
-7.58613e-20
-9.13392e-20
-5.8905e-20
-5.25612e-20
-1.27378e-20
7.56487e-20
1.36563e-19
1.50697e-19
2.85241e-19
3.41866e-19
4.00242e-19
5.18096e-19
7.17121e-19
8.25739e-19
9.83944e-19
1.14679e-18
1.36986e-18
1.54615e-18
1.81095e-18
2.07485e-18
2.2718e-18
2.424e-18
2.47922e-18
2.28117e-18
2.25812e-18
1.81143e-18
1.61836e-18
1.43393e-18
1.17485e-18
9.55504e-19
8.75317e-19
8.22391e-19
7.36739e-19
7.69841e-19
7.73892e-19
8.31089e-19
9.33733e-19
9.28149e-19
8.12034e-19
8.6586e-19
1.01033e-18
9.05871e-19
1.16433e-18
1.21554e-18
1.23986e-18
1.10098e-18
1.17128e-18
1.31196e-18
1.29416e-18
1.26943e-18
1.30891e-18
3.67267e-19
3.69753e-19
3.75179e-19
3.59048e-19
3.63222e-19
3.66982e-19
3.75249e-19
3.65795e-19
3.762e-19
3.6961e-19
3.68376e-19
3.72151e-19
3.64209e-19
3.73577e-19
3.7149e-19
3.6053e-19
3.57987e-19
3.55259e-19
3.60281e-19
3.48614e-19
3.48537e-19
3.27795e-19
3.26404e-19
3.22208e-19
3.22594e-19
3.27138e-19
3.14862e-19
3.19716e-19
2.99912e-19
2.9413e-19
2.88487e-19
2.85037e-19
2.72902e-19
2.73408e-19
2.66961e-19
2.70173e-19
2.62703e-19
2.68999e-19
2.66324e-19
2.72076e-19
2.77651e-19
2.73454e-19
2.83332e-19
2.6537e-19
2.59424e-19
2.5607e-19
2.84836e-19
5.63163e-19
2.54226e-18
7.00645e-18
1.00029e-17
1.44722e-17
1.71689e-17
1.47798e-17
9.05077e-18
4.58644e-18
2.3642e-18
1.18132e-18
8.03724e-19
3.97971e-19
2.07426e-19
6.44231e-20
2.95024e-20
1.15271e-19
5.79708e-20
-2.33447e-20
-2.65841e-20
-2.69838e-20
5.46496e-21
-1.02111e-21
-2.71864e-20
-1.72993e-20
4.53114e-20
9.85904e-20
1.71571e-19
1.4111e-19
2.71444e-19
3.6953e-19
4.57788e-19
5.89363e-19
7.44817e-19
9.0833e-19
1.11379e-18
1.27473e-18
1.42679e-18
1.55892e-18
1.79668e-18
1.89302e-18
2.00593e-18
1.99898e-18
1.85118e-18
1.60338e-18
1.33126e-18
1.10733e-18
9.89275e-19
8.81279e-19
7.69698e-19
7.00228e-19
6.41461e-19
6.29174e-19
6.28213e-19
6.44634e-19
6.61185e-19
7.75032e-19
8.84433e-19
8.23869e-19
7.90156e-19
9.02359e-19
9.26423e-19
9.73168e-19
1.04885e-18
1.05126e-18
1.30514e-18
1.31319e-18
1.04912e-18
8.9722e-19
9.12054e-19
1.16767e-18
1.25157e-18
3.51394e-19
3.54227e-19
3.57857e-19
3.55594e-19
3.4926e-19
3.66393e-19
3.38388e-19
3.78318e-19
3.76007e-19
3.6006e-19
3.51348e-19
3.63968e-19
3.42519e-19
3.77246e-19
3.58656e-19
3.55511e-19
3.42799e-19
3.35562e-19
3.48234e-19
3.34037e-19
3.12039e-19
2.93688e-19
2.9834e-19
2.89587e-19
2.87892e-19
2.76224e-19
2.68969e-19
2.55165e-19
2.43119e-19
2.35887e-19
2.4553e-19
2.43418e-19
2.30417e-19
2.23571e-19
2.2287e-19
2.25789e-19
2.29636e-19
2.15352e-19
2.19867e-19
2.11672e-19
2.17238e-19
2.07022e-19
1.94797e-19
2.03994e-19
2.08052e-19
2.15365e-19
2.40176e-19
4.993e-19
1.98763e-18
3.37745e-18
4.84458e-18
7.38692e-18
1.06606e-17
1.25785e-17
9.61612e-18
5.32711e-18
2.5239e-18
9.84189e-19
4.27381e-19
1.47956e-19
1.15333e-19
-1.87693e-20
-4.0338e-20
-1.05268e-20
-9.97784e-20
-6.56456e-22
-4.38821e-20
-2.75172e-20
3.73971e-20
1.05381e-19
1.4116e-20
1.04023e-20
6.45405e-20
1.13691e-19
1.89265e-19
2.07308e-19
2.94406e-19
4.00569e-19
5.27308e-19
6.20082e-19
8.36024e-19
9.00503e-19
1.13996e-18
1.2294e-18
1.35802e-18
1.42614e-18
1.47231e-18
1.54576e-18
1.49783e-18
1.38536e-18
1.24505e-18
9.35413e-19
8.79101e-19
6.85692e-19
5.65232e-19
6.2545e-19
6.3155e-19
5.83589e-19
5.54921e-19
5.53938e-19
5.36601e-19
4.9702e-19
5.7633e-19
7.17305e-19
7.59947e-19
9.18854e-19
7.36749e-19
6.82927e-19
8.87894e-19
6.835e-19
9.75909e-19
8.14048e-19
9.68172e-19
8.62708e-19
9.85695e-19
9.33463e-19
9.69707e-19
9.90806e-19
9.35436e-19
3.32034e-19
3.22574e-19
3.1773e-19
3.40416e-19
3.40374e-19
3.60135e-19
3.57007e-19
3.72249e-19
3.25705e-19
3.46763e-19
3.38031e-19
3.24754e-19
3.3174e-19
3.35984e-19
3.33224e-19
3.20934e-19
3.30986e-19
3.11877e-19
2.79198e-19
2.79732e-19
2.66731e-19
2.77915e-19
2.47e-19
2.49756e-19
2.42727e-19
2.37305e-19
2.14169e-19
1.94599e-19
1.99399e-19
1.88207e-19
1.94461e-19
1.75428e-19
1.7584e-19
1.69666e-19
1.60605e-19
1.66713e-19
1.66856e-19
1.7145e-19
1.8052e-19
1.66184e-19
1.78315e-19
1.71031e-19
1.65386e-19
1.64308e-19
1.66505e-19
1.71138e-19
1.89338e-19
3.95391e-19
9.20506e-19
9.32603e-19
8.16756e-19
2.30635e-18
4.50796e-18
6.88261e-18
7.45563e-18
5.7314e-18
2.99482e-18
1.07069e-18
3.2099e-19
6.21524e-20
7.08036e-20
-8.40737e-20
8.75487e-22
6.51514e-20
-1.12872e-19
-5.24402e-20
-7.26311e-20
-2.22197e-20
3.08909e-20
9.87501e-20
1.05797e-19
4.37738e-20
4.93839e-20
8.88231e-20
2.24793e-19
1.88419e-19
3.09548e-19
3.91199e-19
5.14891e-19
6.15287e-19
7.92903e-19
8.48822e-19
1.02759e-18
9.98953e-19
1.14898e-18
1.14451e-18
1.13745e-18
1.11114e-18
1.0063e-18
8.26738e-19
7.3958e-19
5.38165e-19
4.79591e-19
5.06793e-19
5.13637e-19
5.20577e-19
4.68502e-19
4.41725e-19
4.85701e-19
4.51334e-19
4.27482e-19
4.51564e-19
5.14594e-19
5.98851e-19
6.4572e-19
7.18345e-19
6.80325e-19
7.71254e-19
8.24166e-19
7.67522e-19
8.82352e-19
1.01732e-18
1.07649e-18
9.90704e-19
1.08335e-18
1.18121e-18
1.08618e-18
9.36324e-19
9.83427e-19
3.16027e-19
3.06651e-19
3.07378e-19
3.20338e-19
3.28756e-19
3.36462e-19
3.37535e-19
3.54632e-19
3.15512e-19
3.23833e-19
2.7671e-19
2.9287e-19
3.15873e-19
2.82557e-19
2.88965e-19
2.61174e-19
2.77372e-19
2.42843e-19
2.32658e-19
2.3402e-19
2.08818e-19
2.22615e-19
2.0661e-19
1.95334e-19
1.6319e-19
1.63496e-19
1.52884e-19
1.62491e-19
1.50529e-19
1.4074e-19
1.38894e-19
1.27605e-19
1.32745e-19
1.24747e-19
1.28767e-19
1.23068e-19
1.30733e-19
1.18769e-19
1.30576e-19
1.19398e-19
1.26459e-19
1.10998e-19
1.1338e-19
1.11228e-19
1.11812e-19
1.02105e-19
1.06969e-19
2.20171e-19
4.25803e-19
4.01209e-19
4.16621e-19
1.1882e-18
2.0002e-18
3.38017e-18
4.17696e-18
4.21526e-18
2.57866e-18
9.92913e-19
1.20331e-19
-1.53559e-19
-3.0442e-19
-1.23147e-19
-8.45361e-20
-1.41572e-19
-2.1162e-19
-1.14027e-19
-1.63702e-19
-6.5501e-20
-1.55222e-21
9.17758e-21
4.09813e-20
5.35259e-20
4.52861e-21
4.03213e-20
2.04878e-19
1.58414e-19
3.19652e-19
4.64281e-19
4.66441e-19
5.2274e-19
5.7272e-19
7.42007e-19
8.95468e-19
7.76739e-19
8.74735e-19
8.22597e-19
6.60286e-19
7.19887e-19
7.36374e-19
5.97171e-19
4.99872e-19
3.83221e-19
3.71078e-19
3.97284e-19
3.88078e-19
3.99565e-19
3.37783e-19
3.82369e-19
4.34207e-19
4.08958e-19
4.18332e-19
3.89844e-19
4.42758e-19
4.77694e-19
4.44378e-19
7.27159e-19
7.45628e-19
7.68084e-19
5.47939e-19
7.32454e-19
8.8691e-19
9.57054e-19
9.71879e-19
1.29587e-18
1.49788e-18
1.44636e-18
1.35026e-18
1.58285e-18
1.69152e-18
3.26861e-19
3.46525e-19
3.2547e-19
2.84177e-19
2.71707e-19
2.89934e-19
2.97747e-19
2.84301e-19
2.82094e-19
2.79617e-19
2.59907e-19
2.54784e-19
2.50098e-19
2.45441e-19
2.05944e-19
2.14628e-19
1.86441e-19
2.15121e-19
1.96657e-19
1.37919e-19
1.26521e-19
1.64679e-19
1.43561e-19
1.31728e-19
9.6443e-20
9.7098e-20
1.08063e-19
1.05675e-19
9.4946e-20
8.02988e-20
8.24082e-20
6.47897e-20
6.43267e-20
8.17908e-20
7.32132e-20
6.27194e-20
6.81895e-20
5.51831e-20
6.9244e-20
5.36353e-20
6.06286e-20
5.39686e-20
6.58698e-20
6.35057e-20
5.96682e-20
4.90225e-20
-5.76481e-21
-1.64114e-19
-2.77306e-19
-9.12096e-20
-3.24086e-20
1.55764e-19
4.4497e-19
1.12645e-18
1.62943e-18
1.85218e-18
1.46801e-18
4.47197e-19
-1.97793e-19
-4.37055e-19
-3.48339e-19
-2.63336e-19
-1.72232e-19
-2.19587e-19
-3.00819e-19
-1.8564e-19
-1.33979e-19
-6.4461e-20
3.1873e-20
-5.06801e-20
2.11286e-20
-7.36148e-21
2.63231e-21
-1.37084e-21
2.11411e-19
1.29895e-19
3.65848e-19
3.65783e-19
4.04472e-19
4.09395e-19
3.09355e-19
4.29655e-19
6.66238e-19
5.6107e-19
5.54529e-19
5.38846e-19
4.73262e-19
3.89205e-19
4.94343e-19
4.6872e-19
3.27965e-19
2.03173e-19
3.09746e-19
2.65313e-19
3.24058e-19
3.02169e-19
2.81769e-19
3.37685e-19
3.37441e-19
2.62186e-19
3.22196e-19
3.00273e-19
3.54791e-19
4.62226e-19
3.7048e-19
5.51306e-19
7.34152e-19
8.89811e-19
3.19514e-19
2.97677e-19
6.79809e-19
8.53234e-19
7.86393e-19
6.44044e-19
6.41518e-19
6.40677e-19
7.03188e-19
7.0774e-19
5.97254e-19
2.56419e-19
2.59795e-19
2.8685e-19
2.5161e-19
2.93272e-19
2.68631e-19
2.80735e-19
2.36825e-19
2.22481e-19
2.1432e-19
2.20255e-19
1.9733e-19
1.6952e-19
1.75828e-19
1.53986e-19
1.38437e-19
1.18584e-19
1.55109e-19
9.27556e-20
7.99171e-20
6.19255e-20
8.94131e-20
3.22028e-20
3.46638e-20
3.87011e-20
5.75237e-20
3.23178e-20
2.90817e-20
6.70356e-21
1.84515e-20
1.22528e-20
1.16476e-20
1.00727e-20
1.5244e-20
7.15698e-21
-5.97624e-21
-2.94523e-21
-6.20035e-21
-4.25078e-21
-9.30604e-21
-1.12202e-20
-1.53893e-20
-1.0707e-20
-1.85319e-20
-2.15581e-20
-3.90995e-20
-2.47809e-19
-8.06907e-19
-9.34621e-19
-9.64532e-19
-1.00026e-18
-9.49294e-19
-6.78556e-19
-1.68923e-19
-1.72487e-21
1.20375e-19
-7.60647e-20
-5.03512e-19
-8.27349e-19
-8.61953e-19
-6.16754e-19
-4.44203e-19
-3.33105e-19
-3.16722e-19
-3.51304e-19
-1.27076e-19
-9.74651e-20
-2.09567e-20
5.24895e-20
-7.49018e-20
-3.36256e-20
4.80163e-21
8.641e-21
-3.70355e-20
1.97507e-19
1.26589e-19
2.67644e-19
2.57053e-19
2.37207e-19
2.59987e-19
1.97189e-19
3.87278e-19
3.85921e-19
4.83039e-19
4.56103e-19
3.63469e-19
3.91281e-19
4.9002e-19
4.36243e-19
3.96959e-19
2.00539e-19
2.27154e-19
3.11335e-19
2.12932e-19
2.48834e-19
2.71113e-19
2.6848e-19
2.88833e-19
2.84268e-19
2.89777e-19
2.50868e-19
2.50131e-19
2.45276e-19
4.29156e-19
2.61313e-19
2.38963e-19
6.12552e-19
3.46314e-19
5.43293e-19
7.20696e-19
4.27882e-19
6.88937e-19
9.69321e-19
9.8646e-19
7.07268e-19
8.00283e-19
9.13841e-19
9.50554e-19
9.79702e-19
2.60958e-19
2.55204e-19
2.43119e-19
2.28411e-19
2.59531e-19
2.61025e-19
2.16956e-19
1.74776e-19
1.52251e-19
1.68327e-19
1.51626e-19
1.42924e-19
1.21735e-19
9.65064e-20
5.93943e-20
3.79398e-20
5.39352e-20
-5.67155e-23
-5.59374e-21
-1.15677e-21
5.01008e-21
-2.36419e-20
-4.86076e-20
-3.5039e-20
-2.85234e-20
-3.26725e-20
-5.60671e-20
-4.91626e-20
-4.72255e-20
-3.40547e-20
-5.9855e-20
-4.10245e-20
-4.08028e-20
-4.86242e-20
-5.32355e-20
-5.00819e-20
-5.68812e-20
-5.22918e-20
-5.54302e-20
-6.28241e-20
-5.56242e-20
-5.79232e-20
-5.70469e-20
-6.16011e-20
-5.95229e-20
-1.33928e-19
-6.51008e-19
-1.32633e-18
-1.35628e-18
-1.36363e-18
-1.39052e-18
-1.42312e-18
-1.49397e-18
-1.35935e-18
-1.17349e-18
-1.06142e-18
-1.10187e-18
-1.33844e-18
-1.47026e-18
-1.341e-18
-8.53468e-19
-6.0523e-19
-3.7957e-19
-3.61516e-19
-3.27432e-19
-3.94182e-20
-6.73244e-20
5.18707e-20
5.51133e-20
-6.74202e-20
-8.5546e-20
7.84051e-20
-3.90624e-21
-7.50802e-20
1.86383e-19
-2.80681e-22
2.78525e-19
1.36211e-19
5.98526e-20
1.59183e-19
1.65666e-19
2.32803e-19
3.00091e-19
4.03084e-19
4.1032e-19
4.04184e-19
2.73322e-19
2.47767e-19
3.11534e-19
2.43836e-19
2.04441e-19
1.89852e-19
1.82866e-19
1.84788e-19
2.25371e-19
2.38572e-19
2.17806e-19
2.29619e-19
2.11029e-19
2.88799e-19
1.97921e-19
1.87962e-19
1.98036e-19
1.57806e-19
4.19876e-19
3.32388e-19
5.65444e-19
3.56838e-19
5.98651e-20
6.36118e-19
9.46703e-19
5.8317e-19
4.84028e-19
4.86017e-19
6.08765e-19
6.85158e-19
6.41971e-19
7.05088e-19
7.513e-19
2.4187e-19
2.44208e-19
2.43121e-19
1.98597e-19
1.88624e-19
1.78323e-19
1.30978e-19
7.65823e-20
1.01233e-19
1.03579e-19
7.26066e-20
7.48656e-20
1.17292e-20
-6.32853e-21
-1.38628e-20
-3.86883e-20
-5.8071e-20
-1.37482e-19
-9.90738e-20
-8.76312e-20
-1.10253e-19
-1.32846e-19
-8.67874e-20
-1.11431e-19
-9.68634e-20
-1.0171e-19
-8.66528e-20
-1.01137e-19
-8.67885e-20
-1.01697e-19
-9.77044e-20
-6.11819e-20
-9.4563e-20
-8.75348e-20
-1.02507e-19
-8.37442e-20
-8.83121e-20
-8.58473e-20
-7.73826e-20
-9.47245e-20
-9.12604e-20
-8.90596e-20
-9.00231e-20
-9.52337e-20
-1.08006e-19
-2.78468e-19
-1.18905e-18
-1.76518e-18
-1.77192e-18
-1.77905e-18
-1.75536e-18
-1.74589e-18
-1.79438e-18
-1.75591e-18
-1.68981e-18
-1.63874e-18
-1.78961e-18
-1.90749e-18
-1.80758e-18
-1.7415e-18
-1.24221e-18
-7.56113e-19
-4.88856e-19
-3.66787e-19
-4.17819e-19
1.12302e-19
-8.82112e-20
1.10355e-19
8.89229e-21
-1.69046e-19
-2.77705e-21
9.90003e-20
-5.20958e-20
-2.29051e-20
9.79136e-20
2.58731e-20
6.49683e-20
7.50522e-20
1.00624e-19
1.72405e-19
9.90774e-20
1.90505e-19
2.21801e-19
3.67052e-19
3.85923e-19
2.67442e-19
3.35322e-19
-2.01256e-21
2.58958e-19
3.03614e-19
1.606e-19
1.3055e-19
1.19071e-19
1.64013e-19
2.09951e-19
2.04649e-19
1.86424e-19
2.1565e-19
1.96822e-19
2.14177e-19
1.38996e-19
1.95302e-20
1.13831e-20
1.37625e-19
1.47407e-19
-6.18633e-20
1.96136e-19
6.37135e-19
-2.18399e-19
2.58813e-19
2.73228e-19
2.2233e-19
2.80414e-19
1.76371e-19
7.55386e-20
-1.04986e-19
-1.31644e-19
-3.14943e-20
-1.64406e-20
7.84359e-20
1.09244e-19
1.52863e-19
1.83278e-19
1.48283e-19
5.16947e-20
1.04119e-19
2.39879e-20
5.57341e-20
-2.66905e-20
-1.38671e-20
-1.14275e-19
-9.52685e-20
-1.6609e-19
-1.28238e-19
-1.5452e-19
-1.68256e-19
-1.60995e-19
-1.78643e-19
-1.50276e-19
-1.30973e-19
-1.55206e-19
-1.51872e-19
-1.31091e-19
-1.42402e-19
-1.30671e-19
-1.46517e-19
-1.30469e-19
-1.29246e-19
-1.25052e-19
-1.14396e-19
-1.06473e-19
-1.30118e-19
-9.32087e-20
-1.19107e-19
-9.46975e-20
-1.14054e-19
-1.07201e-19
-1.11014e-19
-1.12933e-19
-9.97639e-20
-1.08634e-19
-1.10226e-19
-1.13464e-19
-1.52606e-19
-5.00156e-19