/*--------------------------------*- C++ -*----------------------------------*\
| =========                 |                                                 |
| \\      /  F ield         | OpenFOAM: The Open Source CFD Toolbox           |
|  \\    /   O peration     | Version:  2.2.x                                 |
|   \\  /    A nd           | Web:      www.OpenFOAM.org                      |
|    \\/     M anipulation  |                                                 |
\*---------------------------------------------------------------------------*/
FoamFile
{
    version     2.0;
    format      ascii;
    class       volScalarField;
    location    "1.45";
    object      pB;
}
// * * * * * * * * * * * * * * * * * * * * * * * * * * * * * * * * * * * * * //

dimensions      [1 1 -3 0 0 -1 0];

internalField   nonuniform List<scalar> 
14161
(
-0.000994534
0.000144661
-7.65992e-05
-4.87325e-05
-8.32304e-05
-9.05193e-05
-0.000110393
-0.000131836
-0.000142791
-0.000161104
-0.000186948
-0.000200541
-0.000215768
-0.000239768
-0.000260983
-0.000256227
-0.0002777
-0.000329707
-0.000317149
-0.000279498
-0.000322104
-0.00037434
-0.000396998
-0.000347785
-0.00027965
-0.000284627
-0.000352854
-0.000330507
-0.000253159
-0.000188167
-0.000105633
-1.22326e-05
8.0995e-05
0.000221592
0.000345758
0.000514601
0.000707653
0.00107739
0.00140494
0.00209085
0.00244118
0.00300185
0.00354182
0.00416933
0.00465444
0.0056088
0.00563763
0.00425848
-0.00410598
0.00136697
-0.00311385
0.00629136
0.00418693
0.00373169
0.00319528
0.00308205
0.00255375
0.00256521
0.00227504
0.00218011
0.00208303
0.00174843
0.00165497
0.00116797
0.000893337
0.00064358
0.000123178
-0.000122571
-0.000361413
-0.000674128
-0.00092427
-0.00103246
-0.0011973
-0.00132638
-0.00134521
-0.00123976
-0.00158243
-0.00118777
-0.00172362
-0.00167915
-0.0016396
-0.00197855
-0.00208325
-0.00223292
-0.00231277
-0.00189057
-0.00268818
-0.00251912
-0.00266508
-0.00306654
-0.00253968
-0.00322551
-0.00315764
-0.00277713
-0.00412695
-0.00296171
-0.00505611
-0.00365234
-0.00645185
-0.00586259
-0.00899775
-0.0107116
-0.0168094
-0.0227251
-0.0187103
-0.016404
-0.0113332
-0.00729233
-0.00672909
-0.00273387
-0.00454461
0.000740436
-0.00408605
0.00396769
-0.0076712
0.00856664
-0.0231365
0.0253083
-0.0688247
-0.00099793
0.000145297
-7.69688e-05
-4.88137e-05
-8.29122e-05
-9.13077e-05
-0.000110809
-0.000130748
-0.000143392
-0.000162118
-0.00018633
-0.000200074
-0.000215988
-0.0002413
-0.000259578
-0.000256438
-0.000283835
-0.000326509
-0.000312369
-0.000292111
-0.000318699
-0.000392426
-0.00037785
-0.000327284
-0.000291575
-0.000305192
-0.000348607
-0.000322005
-0.000247822
-0.000182005
-9.48025e-05
-3.91019e-05
7.74971e-05
0.00017878
0.000329225
0.000506181
0.000783332
0.00106795
0.00149991
0.00177767
0.00224989
0.00290651
0.00348329
0.00438875
0.00504546
0.0061538
0.00624755
0.00710869
-0.00280085
-0.0018529
0.00165328
0.00182988
0.00672648
0.0027536
0.00290673
0.00283971
0.00228777
0.00163172
0.000925833
-0.000162834
-0.00088393
-0.00187071
-0.00245823
-0.0029256
-0.00314309
-0.00317136
-0.00318979
-0.00304228
-0.00299586
-0.00297277
-0.00282764
-0.00274671
-0.00256193
-0.0022339
-0.00225974
-0.00228969
-0.00235901
-0.0018544
-0.00239096
-0.00219313
-0.00208065
-0.00256528
-0.00255797
-0.00283218
-0.00275122
-0.00256065
-0.00325998
-0.0032335
-0.00335096
-0.0036747
-0.00319092
-0.00409733
-0.00382575
-0.0035293
-0.00481403
-0.00405935
-0.00540717
-0.0052044
-0.00699174
-0.00562751
-0.00654433
-0.00678883
-0.00531491
-0.00691763
0.00225936
0.00103802
0.000991715
0.000601945
-0.00106638
0.00120001
-0.00142958
0.00280033
-0.0025291
0.00542471
-0.00635731
0.00970847
-0.0216789
0.0248671
-0.0651985
-0.000994603
0.000145209
-7.68178e-05
-4.89071e-05
-8.22111e-05
-9.17814e-05
-0.00011174
-0.000129449
-0.000143956
-0.000162932
-0.000184808
-0.000200481
-0.000215139
-0.000242344
-0.000257886
-0.000255961
-0.000284917
-0.000322225
-0.00030231
-0.00029504
-0.00032056
-0.000395976
-0.000375268
-0.000325838
-0.000311395
-0.000325342
-0.00034757
-0.000319149
-0.000244629
-0.000173623
-0.000118571
-6.15484e-05
4.12229e-05
0.000152606
0.000306334
0.000465484
0.000664825
0.000894212
0.00124666
0.0015969
0.00215191
0.00274251
0.00336098
0.00413091
0.00485466
0.0060234
0.00638849
0.00827309
-0.0118949
0.000561483
0.00518503
0.00468088
0.00450973
0.00408053
0.002071
0.00229817
0.00156061
0.0016425
0.00100453
0.000803083
0.000914969
0.000524228
0.000984676
0.000211176
7.68635e-05
-0.00011053
-0.000390398
-0.000614318
-0.000774046
-0.000858157
-0.00101781
-0.00119739
-0.00130651
-0.0016233
-0.00155441
-0.00166787
-0.0016753
-0.00156874
-0.00222314
-0.00196874
-0.0018199
-0.0024464
-0.00230621
-0.00257285
-0.00249846
-0.00208948
-0.0028849
-0.00252047
-0.00290053
-0.00288217
-0.00261507
-0.0033238
-0.00328884
-0.00237669
-0.00449368
-0.00368201
-0.00607934
-0.0045426
-0.00576103
-0.00628715
-0.00726704
-0.0113279
-0.0153778
-0.00869355
-0.00976183
0.000477787
-4.31251e-05
0.000385676
-0.00146439
0.00100508
-0.00169448
0.00269494
-0.00242204
0.00517039
-0.00627858
0.00918878
-0.0208596
0.0233337
-0.0626532
-0.000993919
0.000144621
-7.6729e-05
-4.88908e-05
-8.14136e-05
-9.35291e-05
-0.000111934
-0.00012714
-0.000146654
-0.000163464
-0.000183411
-0.000201467
-0.000215325
-0.000243939
-0.000255883
-0.000259158
-0.000292341
-0.000317822
-0.000299137
-0.000312224
-0.000342396
-0.000374381
-0.000354707
-0.000324434
-0.000346649
-0.000332293
-0.000315301
-0.000293598
-0.000251746
-0.000209398
-0.000139962
-8.76897e-05
9.88202e-06
0.000128692
0.000223215
0.000367403
0.000575094
0.000851819
0.0010463
0.00141627
0.00187735
0.00239466
0.00302501
0.00379713
0.00470366
0.00563846
0.00538395
0.00918419
-0.0163581
0.00182673
0.00411846
0.00569965
0.00451147
0.00348472
0.00236278
0.00225324
0.00141326
0.00160105
0.00162489
0.000752508
0.000940465
0.000170001
0.000240672
-0.00033202
-0.000965355
-0.000974611
-0.00141445
-0.00166627
-0.00171964
-0.00173934
-0.00163381
-0.00168393
-0.00164015
-0.00186494
-0.00177671
-0.00219702
-0.00164586
-0.00193545
-0.00229097
-0.00207646
-0.00178568
-0.00236335
-0.00221757
-0.00251691
-0.0025337
-0.00233899
-0.00302783
-0.00273744
-0.00320397
-0.00310067
-0.00329429
-0.00378712
-0.00345023
-0.00356206
-0.00472572
-0.00447928
-0.0037868
-0.0053346
-0.00516705
-0.00738128
-0.00408804
-0.0108771
-0.00321221
-0.00809002
-0.00163898
-0.00106775
0.000760787
-0.00107762
-0.00131806
0.00060546
-0.00162892
0.0024458
-0.002467
0.00483841
-0.00608369
0.00846571
-0.0194547
0.021357
-0.0592945
-0.000991943
0.000143891
-7.69492e-05
-4.93087e-05
-8.04481e-05
-9.41382e-05
-0.000111524
-0.000125415
-0.000146959
-0.000163267
-0.000181321
-0.000201907
-0.000216739
-0.000241819
-0.000253113
-0.000259871
-0.000295734
-0.000308314
-0.000295778
-0.000321256
-0.000346294
-0.000362224
-0.00034458
-0.000349122
-0.000376562
-0.000355978
-0.000318167
-0.000299601
-0.000276506
-0.000237788
-0.000185187
-0.000126999
-5.63793e-05
4.75035e-05
0.000153696
0.000282681
0.000447168
0.000633035
0.00077915
0.00103401
0.00130144
0.001738
0.00226251
0.00296023
0.00379088
0.00479933
0.00491038
0.0095927
-0.011725
0.00983299
0.00238478
0.00586104
0.00379961
0.00376285
0.00232573
0.00267602
0.00181483
0.0020606
0.00195896
0.00102404
0.00147264
0.000750606
0.000844444
0.000720558
-4.60198e-05
-6.79732e-05
-0.000259912
-0.000526225
-0.000708547
-0.000895568
-0.00112752
-0.00124775
-0.00137487
-0.00148
-0.00132734
-0.00182667
-0.00128017
-0.00163569
-0.00202511
-0.00195043
-0.00154907
-0.00272182
-0.00235497
-0.0026479
-0.00268842
-0.0023173
-0.00310945
-0.00258066
-0.00300675
-0.00280751
-0.00304269
-0.00317333
-0.00411545
-0.00284396
-0.00355852
-0.00286015
-0.00536802
-0.00590914
-0.00480057
-0.00765829
-0.00851838
-0.00644099
-0.00819329
-0.00279121
-0.00312205
0.00296532
-0.00158563
0.00037492
-0.00101395
0.000767168
-0.00142026
0.00224036
-0.00241073
0.00448095
-0.00606489
0.00762109
-0.018365
0.0192721
-0.0560111
-0.000989903
0.000142798
-7.68166e-05
-4.94033e-05
-8.00462e-05
-9.48699e-05
-0.00011161
-0.000123948
-0.00014828
-0.000163519
-0.000179768
-0.00020229
-0.000217846
-0.000239351
-0.000251107
-0.000266525
-0.00029332
-0.00029936
-0.00030324
-0.000336487
-0.000346748
-0.000346313
-0.000324563
-0.000357357
-0.000392477
-0.000369101
-0.000312295
-0.000278772
-0.000277851
-0.000291406
-0.000242504
-0.000171455
-0.000114632
-2.53015e-05
6.01526e-05
0.000158126
0.000253864
0.000379531
0.0004995
0.000642237
0.000792614
0.001058
0.00136756
0.00191878
0.00239968
0.00319342
0.00380707
0.00620896
0.000915121
0.00923868
0.00499552
0.00570448
0.00514685
0.00289735
0.00385074
0.0018277
0.00118174
0.00146048
0.00103147
0.00126058
0.000964455
0.000478183
0.000354648
-0.000265037
-0.000294572
-0.0009513
-0.000571411
-0.00116129
-0.00108317
-0.00125524
-0.00146219
-0.00132468
-0.00168064
-0.0016199
-0.00140877
-0.00230715
-0.00113698
-0.00233157
-0.00209627
-0.00227528
-0.00143311
-0.00266312
-0.00181551
-0.00233937
-0.00204599
-0.00241642
-0.00268215
-0.00257427
-0.00276153
-0.00231269
-0.00333735
-0.00340236
-0.0027384
-0.00295582
-0.00441307
-0.00549287
-0.00398848
-0.00571375
-0.00330294
-0.0074146
-0.00515282
-0.00597365
-0.00377479
-0.00497275
0.000844648
-0.000998036
-0.000256614
0.000124908
-0.000807034
0.000694794
-0.00126951
0.00190962
-0.00227241
0.00397565
-0.00569635
0.00715907
-0.0166125
0.0175639
-0.0521964
-0.000986654
0.00014173
-7.70459e-05
-4.9295e-05
-7.99774e-05
-9.47831e-05
-0.0001116
-0.0001232
-0.000148906
-0.00016346
-0.000177837
-0.000203255
-0.000219895
-0.000236053
-0.000247966
-0.000277611
-0.000292098
-0.000284556
-0.000302247
-0.000350878
-0.000349764
-0.000336174
-0.00032295
-0.000378156
-0.00040635
-0.000385789
-0.000329259
-0.000279725
-0.000290018
-0.000330168
-0.000300483
-0.000241564
-0.000184201
-0.000130045
-7.14395e-05
-9.35456e-06
6.91258e-05
0.000140823
0.000185714
0.000184331
0.000164338
8.60326e-05
-1.12575e-05
-1.48884e-05
-1.16624e-05
0.000118691
0.000937781
-0.00223925
0.0161284
0.00198449
0.00555875
0.00650466
0.00439575
0.00254604
0.00250945
0.00037527
0.000526495
0.00215655
0.000361517
0.00141572
0.00147729
0.000117622
0.000255476
-0.000526896
-9.85378e-05
-0.000916794
-0.000631186
-0.000933019
-0.000973186
-0.00140268
-0.00157354
-0.00130401
-0.00164912
-0.00153551
-0.00123254
-0.00196979
-0.000578005
-0.00206909
-0.00178309
-0.00180205
-0.00211031
-0.00203759
-0.00248956
-0.00265767
-0.00222377
-0.00229946
-0.00290745
-0.00216447
-0.00331946
-0.00225058
-0.00198962
-0.00168083
-0.00408297
-0.00459338
-0.00440337
-0.00403859
-0.00328087
-0.00606504
-0.00775461
-0.00283266
-0.00528676
-0.003343
-0.00419254
-0.0021614
0.000755942
-0.00215737
0.000442109
-0.000502212
-0.000573877
0.000573294
-0.0011054
0.00165605
-0.00203554
0.0034651
-0.00555493
0.00654873
-0.0161778
0.0151746
-0.0486695
-0.000983392
0.000140565
-7.69337e-05
-4.93717e-05
-8.09004e-05
-9.37169e-05
-0.000111342
-0.000123426
-0.000148779
-0.000162399
-0.000177658
-0.000203363
-0.000221946
-0.000232167
-0.00024794
-0.00028597
-0.000288814
-0.000274764
-0.00031066
-0.00036957
-0.00034606
-0.000307847
-0.000327796
-0.000403925
-0.000416157
-0.000384494
-0.000331546
-0.000298499
-0.000320174
-0.000367354
-0.000345621
-0.0003129
-0.000283362
-0.000250911
-0.00021834
-0.000188162
-0.000170589
-0.000175207
-0.000276491
-0.000401632
-0.000577924
-0.000782678
-0.00112894
-0.00129969
-0.00183209
-0.00170678
-0.00221582
-0.00062251
0.015634
0.0234458
0.00501601
0.0122999
0.00647474
0.0062395
0.00177495
0.00180777
0.00171084
-0.000863391
0.00044474
-0.00143148
0.000277581
-0.00172655
-0.000566479
-0.00118822
-0.000949402
-0.00106969
-0.00122809
-0.00141837
-0.00138713
-0.00140882
-0.0014461
-0.00135133
-0.00153992
-0.00154536
-0.00123462
-0.00186
-0.000853945
-0.00217336
-0.00195253
-0.00167755
-0.00214614
-0.00179737
-0.00191716
-0.00142748
-0.00219203
-0.00201486
-0.00225178
-0.00186664
-0.00134985
-0.00341414
-0.00343691
-0.0042119
-0.00351721
-0.00316335
-0.00226982
-0.00413489
-0.00475601
-0.00502146
-0.00279116
-0.00308453
-0.00363329
-0.00332355
-0.00317131
-0.00128049
-0.00146497
-0.001548
-0.000101745
-0.000610125
-0.000325922
0.000223064
-0.000985905
0.00124441
-0.0017908
0.00280473
-0.00518701
0.00608331
-0.0150472
0.0138322
-0.044646
-0.000979709
0.000139183
-7.68808e-05
-4.95583e-05
-8.11772e-05
-9.30358e-05
-0.000111322
-0.000125201
-0.000147455
-0.000161657
-0.000178645
-0.000201534
-0.000223885
-0.000227674
-0.000246334
-0.000294414
-0.00028042
-0.000265882
-0.000328083
-0.000376179
-0.000338715
-0.000296792
-0.000339592
-0.000426256
-0.000425614
-0.000379991
-0.000338164
-0.000341908
-0.000360174
-0.000388956
-0.000397237
-0.000377932
-0.000368223
-0.000366377
-0.000364639
-0.000357157
-0.000365105
-0.000443345
-0.000590433
-0.000791855
-0.00108955
-0.00152739
-0.00229304
-0.00332534
-0.00462443
-0.0064904
-0.00900456
-0.00858003
-0.0150755
0.0543863
-0.0112137
0.0137303
0.000879113
0.00796306
0.00167312
0.00244584
-0.000265417
-0.00038187
0.00103084
-0.00088341
-0.000180817
-0.00116068
-0.00124828
-0.0015244
-0.00115401
-0.00127965
-0.00123345
-0.00105848
-0.00150727
-0.00133729
-0.0016466
-0.00134298
-0.00174501
-0.00151914
-0.00144386
-0.00147266
-0.00113622
-0.00133348
-0.00144888
-0.00139242
-0.00201749
-0.00164943
-0.00226947
-0.00237172
-0.0011398
-0.00216384
-0.00253676
-0.00307502
-0.00311627
-0.00287005
-0.00245392
-0.00225629
-0.00239971
-0.00400694
-0.00386199
-0.00411472
-0.00357882
-0.000501952
-0.00305856
-0.00291115
-0.00294484
-0.0028106
-0.00316605
0.00029694
-0.00242266
-0.000544165
-0.000851042
-0.000378712
-0.000377491
0.000138949
-0.000804202
0.00101588
-0.00151662
0.00221465
-0.00496073
0.00538773
-0.0142236
0.0122129
-0.0412492
-0.000975527
0.000137947
-7.70343e-05
-4.96909e-05
-8.14856e-05
-9.13295e-05
-0.000111213
-0.000126342
-0.000144363
-0.000162322
-0.000179022
-0.000200439
-0.000224764
-0.000223163
-0.000251307
-0.000295554
-0.000271552
-0.000265453
-0.000346977
-0.000362544
-0.000327899
-0.000311237
-0.000364102
-0.000434385
-0.000412423
-0.000380093
-0.00036348
-0.000393747
-0.000407987
-0.00041494
-0.000422895
-0.00044798
-0.000465819
-0.000482127
-0.000508975
-0.000570908
-0.000666347
-0.0007775
-0.000974581
-0.00129427
-0.00166781
-0.0021187
-0.00267166
-0.00330769
-0.00403349
-0.00435472
-0.00477099
-0.0015806
0.00917744
0.0374912
0.0350309
-0.0022437
-0.00402377
-0.00503562
-0.00392209
-0.00183194
-0.00125497
-0.00102591
-8.02975e-05
-0.0025608
-0.00150664
-0.00186663
-0.00211264
-0.00091448
-0.00183961
-0.0013166
-0.0018113
-0.000890307
-0.00141312
-0.00117395
-0.00108302
-0.000483842
-0.000712505
-0.000702937
-0.000937021
-0.00118767
-0.00139808
-0.0017069
-0.00165514
-0.00122436
-0.0017642
-0.000996928
-0.00107984
-0.00171585
-0.0021816
-0.00228648
-0.00197812
-0.00203729
-0.00177463
-0.00237212
-0.00331573
-0.00279949
-0.00391037
-0.00231349
-0.00446807
0.000819343
-0.00260653
-0.00246169
-0.00226292
-0.00229672
-0.0025921
-0.00292363
-0.000405827
-0.00246135
-0.00108964
-0.00128499
-0.000435467
-0.000478009
-0.000340416
-8.52169e-05
-0.000732112
0.000663937
-0.00130916
0.00147192
-0.00467384
0.00469902
-0.0130878
0.0108696
-0.0374585
-0.000971132
0.000136356
-7.69906e-05
-4.92914e-05
-8.16643e-05
-9.06327e-05
-0.000111107
-0.000127649
-0.000141959
-0.000162682
-0.000179244
-0.000199136
-0.000224154
-0.00022282
-0.000260201
-0.000287425
-0.000264888
-0.00027844
-0.00035428
-0.000352621
-0.000318689
-0.000330471
-0.000389069
-0.000422473
-0.00040192
-0.000384982
-0.000397308
-0.000439936
-0.000456871
-0.000443301
-0.000444
-0.000487717
-0.000541316
-0.000572395
-0.000639018
-0.000735871
-0.000818649
-0.00088838
-0.0010297
-0.00131429
-0.00172081
-0.00231206
-0.00342258
-0.00416045
-0.00539489
-0.00610682
-0.00797925
-0.00753215
-0.000872008
0.0552325
0.0252519
0.00418995
0.00471777
-0.000939283
0.00146978
-0.00287406
-0.000637227
-0.00279217
-0.00354551
-0.00184434
-0.00336848
-0.00176752
-0.00168225
-0.00274913
-0.00139753
-0.00120573
-0.00154788
-0.00141062
-0.00101258
-0.00182677
-0.00145978
-0.0017481
-0.00126511
-0.00156616
-0.00109064
-0.00101511
-0.000758413
-0.00112912
-0.00148545
-0.00101898
-0.00223065
-0.00169701
-0.00224041
-0.00206863
-0.00217803
-0.00180703
-0.00207486
-0.00297512
-0.00179946
-0.00284331
-0.00355791
-0.000462102
-0.00463255
-0.000546471
0.000288162
-0.000678256
-0.00190712
-0.00166238
-0.00188894
-0.00210082
-0.00237384
-0.00122511
-0.0019634
-0.0011601
-0.00167172
-0.000671826
-0.000512036
-0.000411122
-0.000273323
-0.000150603
-0.00054081
0.000508514
-0.00103507
0.00103946
-0.0042127
0.00413027
-0.0120157
0.00959721
-0.0341666
-0.000966437
0.000135058
-7.67856e-05
-4.93889e-05
-8.17421e-05
-9.01592e-05
-0.00011097
-0.000128328
-0.000139115
-0.000164099
-0.000180352
-0.000195649
-0.000222111
-0.000229029
-0.000262051
-0.000276614
-0.000269113
-0.000302282
-0.000340076
-0.000338657
-0.000328542
-0.000362871
-0.000393484
-0.000410877
-0.000410765
-0.000405723
-0.000435096
-0.000482245
-0.000486695
-0.000484634
-0.000487501
-0.000520346
-0.000577131
-0.000656931
-0.000795712
-0.000914805
-0.00100914
-0.00113791
-0.00135254
-0.00162517
-0.00213187
-0.00240633
-0.00279005
-0.00327725
-0.00418994
-0.0049174
-0.00442742
-0.00641491
0.0242833
0.0305708
-0.034865
0.00943052
-0.0156696
-0.00718996
-0.00906551
-0.00415129
-0.00422949
-0.00403655
-0.00353948
-0.00131936
-0.00116784
-0.00112193
-0.00175633
-0.00189891
-0.00166045
-0.00151862
-0.000902355
-0.00119761
-0.000807052
-0.000411916
-0.000126648
-0.000176632
-0.00016968
-0.000498472
-0.00061967
-0.0013209
-0.00128239
-0.00163774
-0.00190888
-0.00117347
-0.00137582
-0.0019091
-0.00135499
-0.0017402
-0.00204965
-0.00167267
-0.00179887
-0.0024588
-0.00174085
-0.00157792
-0.000781291
-0.00206859
0.00133837
0.000893011
-0.00238907
-0.000307863
-0.00149591
-0.00159431
-0.00178461
-0.00185388
-0.00203417
-0.00110851
-0.00179874
-0.00119158
-0.00149209
-0.000493755
-0.00071159
-0.000417108
-0.000371993
-0.000291357
-0.000527998
0.000177657
-0.000973737
0.000293365
-0.0039896
0.00315658
-0.0108259
0.00828501
-0.0307541
-0.000960977
0.000133841
-7.66314e-05
-4.97558e-05
-8.14825e-05
-8.96008e-05
-0.000110569
-0.000127948
-0.000136931
-0.000165137
-0.000180248
-0.000191424
-0.000220015
-0.000235708
-0.000257673
-0.000263375
-0.000278613
-0.000313291
-0.00032734
-0.000321977
-0.000344584
-0.00038501
-0.000388901
-0.000391454
-0.000399871
-0.000420276
-0.000486127
-0.000509719
-0.00050983
-0.00051098
-0.000517802
-0.000529152
-0.000598189
-0.000737825
-0.000885492
-0.000925981
-0.000976307
-0.00107807
-0.00117788
-0.00129735
-0.00145861
-0.00155604
-0.00166838
-0.00161223
-0.00115305
-0.000457403
0.00229015
0.00687209
0.0577253
-0.00619411
0.00121802
-0.00242282
0.000327459
-0.000637024
-0.000808373
-0.00280238
-0.0024782
-0.00313674
-0.00397015
-0.00168848
-0.00224343
-0.00258835
-0.00219432
-0.00252396
-0.00175633
-0.00148501
-0.00131684
-0.00112526
-0.00191325
-0.000787212
-0.00146639
-0.00117445
-0.00141692
-0.0012569
-0.00105231
-0.00131728
-0.00106033
-0.00125238
-0.00112974
-0.00154916
-0.00135872
-0.0021863
-0.00165473
-0.00170401
-0.00255004
-0.00150372
-0.00138346
0.000486196
-0.00105803
-0.00143336
0.00270534
0.0021566
-0.00211823
-5.29905e-05
-0.000289169
-0.00124179
-0.00113895
-0.0013691
-0.00140692
-0.00205765
-0.000708683
-0.00195506
-0.00120014
-0.00129139
-0.000936242
-0.000458269
-0.000382064
-0.000282497
-0.00025129
-0.000246233
-0.000290692
0.000138316
-0.000749292
8.73032e-05
-0.00341312
0.00253976
-0.00962625
0.00706824
-0.0277129
-0.000955653
0.000132276
-7.65757e-05
-4.97636e-05
-8.07457e-05
-9.00396e-05
-0.000110432
-0.000125386
-0.00013953
-0.000164214
-0.00017743
-0.000190659
-0.000218015
-0.000240992
-0.000251297
-0.000253637
-0.000293978
-0.000316843
-0.000313736
-0.000312382
-0.000359382
-0.000401858
-0.000400304
-0.000386519
-0.000391504
-0.000447363
-0.000520169
-0.000529542
-0.000531619
-0.000535007
-0.000547869
-0.000591857
-0.000672765
-0.000797631
-0.000876269
-0.000923809
-0.000982105
-0.00102999
-0.00114285
-0.00125265
-0.00141475
-0.00162872
-0.00201317
-0.00253933
-0.00318578
-0.00482094
-0.00535434
0.00850436
0.0247673
-0.00347978
0.0029625
-0.000525329
0.000745777
0.000121561
-0.00149366
-0.00344243
-0.00212655
-0.00148233
-0.000926015
-0.00188689
-0.00145394
-0.00188571
-0.00131635
-0.00169154
-0.000976604
-0.00118846
-0.00102498
-0.00112231
-0.00137857
8.92982e-05
-0.00129436
-0.000745233
-0.00077341
-0.00114515
-0.000994294
-0.00113124
-0.00151361
-0.00124987
-0.00131638
-0.00156562
-0.00102142
-0.00172005
-0.000628867
-0.000679425
0.00153259
-0.00151673
-0.00223742
0.00121227
0.00359354
0.000315892
-0.00031001
0.000692189
0.000290135
-0.000404809
-0.000656256
-0.000667458
-0.00109492
-0.00101321
-0.00175826
-0.000667279
-0.00177759
-0.000869128
-0.0012795
-0.000761435
-0.000896468
-0.000448388
-0.000559782
-0.000315551
-0.000330885
-0.000326092
-0.000329513
-0.000142417
-0.000838063
-0.000503485
-0.00349818
0.00154451
-0.00849819
0.00598696
-0.0246063
-0.000949577
0.000130898
-7.62843e-05
-4.9402e-05
-8.01399e-05
-9.01524e-05
-0.000110239
-0.000123278
-0.000141595
-0.000162562
-0.000174408
-0.000193934
-0.00021564
-0.000240881
-0.000249041
-0.000251518
-0.000302256
-0.000321862
-0.000305311
-0.000306688
-0.000371035
-0.000423332
-0.000399779
-0.000369031
-0.000389499
-0.000492289
-0.000551412
-0.00054838
-0.000544302
-0.000546998
-0.000569629
-0.000643207
-0.000727591
-0.000763677
-0.000802932
-0.000847472
-0.000884186
-0.00093199
-0.000968603
-0.00103178
-0.00108633
-0.00112295
-0.00101507
-0.000469745
-0.000208805
0.00281078
0.00130121
0.0376481
0.0100887
0.00150454
-0.000371167
-0.00143856
-0.000965409
-9.37333e-05
-0.00211292
-0.00242721
-0.0026171
-0.00365838
-0.00228606
-0.00428647
-0.0037427
-0.00161721
-0.00122429
-0.0011477
-0.0010377
-0.00197435
-0.00107189
-0.00189189
-0.00119126
-0.00161534
-0.00168085
-0.000806709
-0.00105941
-0.00156477
-0.00114744
-0.0015108
-0.00105949
-0.00128154
-0.00173681
-7.02519e-05
0.000837777
-0.000672833
-9.69341e-05
-0.00221056
0.00188977
0.00442728
0.00247412
-0.000491047
0.00143862
0.0012128
0.000309894
0.000283916
-7.67331e-05
-0.0002183
-0.00043842
-0.000692352
-0.000758958
-0.00101095
-0.000888093
-0.00127378
-0.000918518
-0.0011047
-0.000919939
-0.000783406
-0.0006252
-0.000330245
-0.000471669
-0.000291988
-0.000316206
-0.000245161
-0.000185293
-0.000200148
-0.000853016
-0.000523108
-0.00315661
0.00123238
-0.00747171
0.00495991
-0.0220211
-0.00094344
0.000129348
-7.58808e-05
-4.90384e-05
-7.96842e-05
-9.0741e-05
-0.000108256
-0.000121601
-0.000144744
-0.000156903
-0.000174905
-0.000197561
-0.000208174
-0.000240496
-0.000250266
-0.000249713
-0.000303631
-0.000325928
-0.000300668
-0.000308481
-0.000392515
-0.000423378
-0.000389209
-0.000369314
-0.000416193
-0.000504299
-0.000548998
-0.000540198
-0.000548871
-0.000561941
-0.000622114
-0.000703844
-0.000747734
-0.000751926
-0.000775856
-0.000817587
-0.000864171
-0.000852109
-0.000856892
-0.000869493
-0.000844545
-0.000670568
-0.000420793
2.01291e-05
0.000823983
0.00249123
0.00592934
0.0377976
-0.0143418
-0.000200931
-0.00704227
-0.00225837
-0.00464234
-0.00159416
-0.00208983
-0.00166487
0.000133358
-0.00198223
0.0014402
-0.00107442
-0.00140701
-0.00103303
-0.000453588
-0.000585611
-9.59881e-05
-0.00145007
-0.00115874
-0.000530692
-0.00118565
-0.000942911
0.000108924
-0.00261845
-0.00106948
-0.0015579
-0.0017892
-0.00141026
0.000424056
0.00135829
-0.00102132
0.000111735
0.00115059
0.00124979
0.00483052
0.00284135
0.000373855
0.000643251
0.00168575
0.000989955
0.00094074
0.000636899
0.000598982
0.000223645
5.20869e-05
-0.000313229
-0.000431787
-0.000646545
-0.000767034
-0.00094448
-0.000835285
-0.000840614
-0.000833775
-0.000776204
-0.000712086
-0.000572727
-0.000436052
-0.000234793
-0.000329528
-0.000200082
-0.000284402
-0.000218285
-0.000232097
-0.000370903
-0.00124153
-0.000787703
-0.00328619
0.000580554
-0.00660826
0.00399605
-0.0192862
-0.000936647
0.000127985
-7.55389e-05
-4.8851e-05
-7.94859e-05
-9.15272e-05
-0.000106191
-0.000121931
-0.000146894
-0.000149312
-0.000181703
-0.000195451
-0.000198151
-0.000245073
-0.000246663
-0.000247685
-0.000307277
-0.000316722
-0.000294776
-0.000321939
-0.000403603
-0.000404518
-0.000388231
-0.000408882
-0.000463141
-0.000505442
-0.000532156
-0.000549959
-0.000558595
-0.000591797
-0.000661298
-0.000701549
-0.000708778
-0.000719767
-0.00071749
-0.000735608
-0.000757122
-0.000796945
-0.000857631
-0.000925203
-0.00097872
-0.00104779
-0.00123685
-0.00128489
-0.00167427
-0.00115677
0.00794932
0.0217633
-0.00623355
0.00457844
-0.00383291
0.00113455
-0.00234376
7.5454e-05
-0.000452406
0.00167634
-0.000269511
-0.00479296
0.00288565
-0.00115973
-0.00171296
-0.00134326
-0.00154077
-0.00041275
-0.00183542
-0.000617623
-0.00102272
-0.00182009
-0.000506402
-0.00181463
-0.0010481
-0.00190677
-0.000286595
-0.00110684
0.000786169
-0.000726052
-0.00188102
0.00340989
0.00246892
0.00331091
0.00217172
0.000874144
0.00111098
0.00192081
0.00198949
0.000635245
0.00153935
0.000736909
0.00103946
0.000843387
0.00045127
0.000152518
-2.78412e-05
-0.000125821
-0.000359006
-0.000413382
-0.000710716
-0.000498682
-0.000740001
-0.000658475
-0.000768136
-0.000679188
-0.000663443
-0.000619925
-0.000541581
-0.000479114
-0.000518463
-0.000309153
-0.000378628
-0.000250197
-0.00028168
-0.000528382
-0.00145903
-0.000740886
-0.00311487
0.000460671
-0.00572522
0.00321278
-0.0169869
-0.000929495
0.00012661
-7.50496e-05
-4.85322e-05
-7.92791e-05
-8.98618e-05
-0.000104086
-0.000125015
-0.000142668
-0.000147142
-0.00018452
-0.000191477
-0.000199737
-0.000242742
-0.000241568
-0.00025541
-0.00030271
-0.000305421
-0.00031156
-0.000353243
-0.000380909
-0.000391924
-0.000395062
-0.000437846
-0.00047058
-0.000485578
-0.000513086
-0.000545389
-0.000576351
-0.000634753
-0.000688433
-0.000692907
-0.000701798
-0.000686645
-0.000674258
-0.000690385
-0.000731331
-0.000782909
-0.000855063
-0.00084369
-0.00085107
-0.000852262
-0.000801562
-0.000923992
-0.000142963
-0.00226322
0.0200079
0.0172825
-0.00404474
0.00318815
-0.00318189
-0.000310202
-0.00377184
-0.0010742
-0.00248647
-0.00122827
-0.00306825
0.00100288
-0.000185983
-0.0036873
0.000372042
-0.000440627
-0.00123627
-0.000643638
-0.00206507
0.00166698
-0.00311065
0.00108779
-0.000224718
0.000225531
0.000441058
-0.000485648
-8.41721e-05
-2.115e-05
0.00202456
0.00553747
0.000471902
0.00189221
0.0012238
0.00130129
0.0024669
0.00218061
0.00148246
0.00139302
0.00142538
0.00104338
0.00115859
0.00105161
0.00060044
0.000499352
0.000363252
8.20733e-05
-1.36679e-05
-0.000253903
-0.000330674
-0.000647049
-0.000467148
-0.000721241
-0.00049773
-0.000561038
-0.000513441
-0.000502226
-0.000395567
-0.000295162
-0.000107847
-0.000281774
-0.000248475
-0.000248221
-0.000328314
-0.000241736
-0.000313436
-0.000590145
-0.0016801
-0.000756122
-0.00317425
0.000215012
-0.00502949
0.00242442
-0.0145877
-0.000921826
0.000125248
-7.44933e-05
-4.84637e-05
-7.83611e-05
-8.90101e-05
-0.000104134
-0.000125897
-0.000138011
-0.000153696
-0.000180106
-0.000183889
-0.000210368
-0.000233697
-0.00023704
-0.00026996
-0.000293179
-0.000289235
-0.000324123
-0.000357002
-0.000364765
-0.000365998
-0.000408928
-0.000475966
-0.000494496
-0.000479272
-0.000471621
-0.000520974
-0.000615703
-0.000678442
-0.000668396
-0.000672942
-0.000657191
-0.000651899
-0.000675223
-0.000713856
-0.000761717
-0.000766399
-0.000748677
-0.000701636
-0.000567264
-0.000421918
5.67356e-05
0.000363937
0.00212049
0.0033224
0.0297871
-0.00421355
-0.00241704
-0.0009369
-0.00163258
3.74563e-05
-0.00129146
-0.000132737
-0.00169224
0.000702583
-0.00114047
0.00286281
-0.00200451
0.000315877
-0.00292024
-0.00302139
-0.000297816
0.000152787
0.000529707
0.00095059
0.00202477
-0.000144163
-0.00179193
0.000545816
0.00159313
0.00218077
0.00386461
0.000425781
0.00117646
0.00170747
0.00143444
0.00239118
0.00227834
0.00148124
0.00181958
0.00130499
0.00182742
0.00119434
0.0013226
0.00104884
0.00107426
0.000998042
0.000798868
0.000522482
0.000307371
0.00011826
-0.000114531
-8.46755e-05
-0.000374221
1.08844e-05
-0.000414914
-0.000274435
-0.000461547
-0.0004919
-0.000553297
-0.000462423
-0.000455223
-0.000422949
-0.000420462
-0.000375142
-0.000379724
-0.000299537
-0.000360667
-0.000386744
-0.000505664
-0.000736241
-0.00201436
-0.000740093
-0.00308861
0.000157394
-0.00427172
0.001912
-0.0125845
-0.000913709
0.000123884
-7.3803e-05
-4.83002e-05
-7.72787e-05
-8.7844e-05
-0.000105017
-0.000123091
-0.000131933
-0.000160574
-0.000173505
-0.000184071
-0.000216477
-0.000220796
-0.000238841
-0.000280518
-0.000278087
-0.000277881
-0.000352545
-0.000368213
-0.00034549
-0.000347121
-0.000442501
-0.00050617
-0.000480035
-0.000460119
-0.000464089
-0.000539155
-0.000644681
-0.000669484
-0.0006562
-0.000648335
-0.000647539
-0.00067063
-0.000706154
-0.000731491
-0.00073039
-0.000694638
-0.000661315
-0.000618875
-0.000546742
-0.000422184
-0.000133531
0.000309533
0.0011734
0.00468867
0.0307576
-0.00793701
0.00082176
-0.00287942
-0.000798905
-0.0027256
-0.00275149
-0.00389838
-0.00451511
-0.00632106
-0.00746684
-0.00732377
-0.0058309
-0.00622845
-0.00242653
-0.00742383
0.00195452
-0.0023094
0.00200891
-0.00214018
0.00227855
0.00224375
0.00352478
0.00180045
0.00146615
0.000792599
0.0024495
0.00178877
0.00236745
0.00236559
0.00114155
0.00181738
0.00169951
0.00174238
0.00193952
0.00142536
0.00177502
0.00116207
0.00127837
0.00107486
0.000848832
0.000696701
0.000343908
0.000207278
5.89523e-07
-3.88972e-05
-0.000349175
-0.000359811
-0.000294664
-0.00049231
-0.000470719
-0.00049669
-0.000408795
-0.000338399
-0.000183607
-0.000295547
-0.000309723
-0.00041129
-0.000360427
-0.000416422
-0.000428258
-0.000320942
-0.000511224
-0.000443542
-0.000549888
-0.000805566
-0.00200342
-0.000576602
-0.0029601
0.000163816
-0.00367679
0.00126164
-0.0106187
-0.000905054
0.000122537
-7.28018e-05
-4.78587e-05
-7.65277e-05
-8.68069e-05
-0.000106494
-0.000119167
-0.000134923
-0.000161431
-0.000161619
-0.000194941
-0.000212434
-0.000203879
-0.000255073
-0.000278128
-0.000256701