/*--------------------------------*- C++ -*----------------------------------*\
| =========                 |                                                 |
| \\      /  F ield         | OpenFOAM: The Open Source CFD Toolbox           |
|  \\    /   O peration     | Version:  2.2.x                                 |
|   \\  /    A nd           | Web:      www.OpenFOAM.org                      |
|    \\/     M anipulation  |                                                 |
\*---------------------------------------------------------------------------*/
FoamFile
{
    version     2.0;
    format      ascii;
    class       volScalarField;
    location    "0.1";
    object      Bx;
}
// * * * * * * * * * * * * * * * * * * * * * * * * * * * * * * * * * * * * * //

dimensions      [1 0 -2 0 0 -1 0];

internalField   nonuniform List<scalar> 
14161
(
1
1
1
1
1
1
1
1
1
1
1
1
1
1
1
1
1
1
1
1
1
1
1
1.00001
1.00001
1.00002
1.00003
1.00005
1.00007
1.0001
1.00013
1.00017
1.00022
1.00027
1.00034
1.0004
1.00048
1.00057
1.00066
1.00076
1.00086
1.00097
1.00108
1.00119
1.00131
1.00143
1.00156
1.0017
1.00186
1.00202
1.00219
1.00238
1.00258
1.0028
1.00302
1.00326
1.00351
1.00378
1.00407
1.00437
1.0047
1.00504
1.00541
1.0058
1.00621
1.00663
1.00707
1.00755
1.00804
1.00858
1.00909
1.00965
1.01025
1.0109
1.01166
1.01252
1.0132
1.01386
1.01437
1.01492
1.01566
1.01685
1.01853
1.0199
1.02114
1.02125
1.02121
1.02132
1.02263
1.02872
1.03216
1.04496
1.02647
1.10779
1.05718
1.09464
1.02345
0.996193
0.9245
0.892667
0.828784
0.798216
0.748679
0.717057
0.68179
0.652611
0.620134
0.589948
0.557635
0.527064
0.489507
0.464199
0.425977
0.408857
0.3659
0.356012
0.308534
0.303685
0.25455
1
1
1
1
1
1
1
1
1
1
1
1
1
1
1
1
1
1
1
1
1
1
1
1.00001
1.00001
1.00002
1.00003
1.00005
1.00007
1.0001
1.00013
1.00017
1.00022
1.00027
1.00033
1.00041
1.00048
1.00057
1.00066
1.00076
1.00086
1.00097
1.00108
1.00119
1.00131
1.00143
1.00157
1.0017
1.00186
1.00202
1.00219
1.00238
1.00258
1.00279
1.00301
1.00326
1.00351
1.00378
1.00408
1.00438
1.0047
1.00504
1.00541
1.00579
1.0062
1.00661
1.00706
1.00755
1.00806
1.0086
1.00913
1.00967
1.01023
1.01085
1.01155
1.01236
1.01309
1.01381
1.01446
1.01507
1.01581
1.01686
1.01837
1.01967
1.02068
1.02077
1.02026
1.02005
1.02093
1.02535
1.02733
1.035
1.00516
1.00421
0.911207
0.959583
0.889718
0.904533
0.878328
0.878359
0.83015
0.811425
0.764522
0.735045
0.699957
0.67355
0.640398
0.610152
0.576504
0.546335
0.507239
0.481445
0.439726
0.421029
0.374273
0.363848
0.31507
0.309104
0.259249
1
1
1
1
1
1
1
1
1
1
1
1
1
1
1
1
1
1
1
1
1
1
1
1.00001
1.00001
1.00002
1.00003
1.00005
1.00007
1.0001
1.00013
1.00017
1.00022
1.00027
1.00033
1.0004
1.00048
1.00057
1.00066
1.00076
1.00086
1.00097
1.00108
1.00119
1.00131
1.00143
1.00157
1.0017
1.00186
1.00202
1.00219
1.00238
1.00258
1.00279
1.00301
1.00326
1.00351
1.00378
1.00408
1.00438
1.00471
1.00505
1.00541
1.0058
1.00619
1.00662
1.00706
1.00753
1.00804
1.00858
1.00915
1.0097
1.01026
1.01084
1.01151
1.01231
1.01309
1.01386
1.01459
1.0153
1.01605
1.01702
1.0183
1.01938
1.02023
1.02052
1.02047
1.02095
1.02285
1.02756
1.02776
1.03351
1.00127
1.00558
0.939427
0.97681
0.915031
0.931267
0.88625
0.88007
0.826511
0.807482
0.76199
0.736647
0.697906
0.669497
0.634525
0.604831
0.568007
0.53944
0.503451
0.482211
0.444125
0.430109
0.383874
0.375601
0.325952
0.321168
0.272677
1
1
1
1
1
1
1
1
1
1
1
1
1
1
1
1
1
1
1
1
1
1
1
1.00001
1.00001
1.00002
1.00003
1.00005
1.00007
1.0001
1.00013
1.00017
1.00022
1.00027
1.00034
1.0004
1.00048
1.00057
1.00066
1.00075
1.00086
1.00097
1.00108
1.00119
1.00131
1.00143
1.00156
1.0017
1.00186
1.00202
1.00219
1.00238
1.00258
1.0028
1.00302
1.00326
1.00351
1.00378
1.00407
1.00437
1.0047
1.00504
1.00541
1.00581
1.0062
1.00662
1.00706
1.00754
1.00806
1.00858
1.00914
1.00968
1.01025
1.01084
1.01147
1.01223
1.01301
1.01378
1.01453
1.01529
1.01613
1.01701
1.018
1.01893
1.01991
1.02064
1.02144
1.02277
1.02477
1.02833
1.02803
1.04062
1.01589
1.08059
1.04646
1.05927
0.978396
0.973977
0.917017
0.894378
0.83532
0.815901
0.76637
0.734205
0.695605
0.665237
0.630193
0.603388
0.568926
0.543578
0.507457
0.487669
0.449296
0.434221
0.387459
0.379337
0.329956
0.324866
0.276441
1
1
1
1
1
1
1
1
1
1
1
1
1
1
1
1
1
1
1
1
1
1
1
1.00001
1.00001
1.00002
1.00003
1.00005
1.00007
1.0001
1.00013
1.00017
1.00022
1.00027
1.00034
1.0004
1.00048
1.00056
1.00066
1.00075
1.00086
1.00096
1.00108
1.00119
1.00131
1.00143
1.00156
1.0017
1.00186
1.00202
1.00219
1.00238
1.00258
1.00279
1.00302
1.00326
1.00351
1.00378
1.00407
1.00437
1.0047
1.00505
1.00541
1.0058
1.00619
1.00661
1.00705
1.00754
1.00806
1.00861
1.00915
1.0097
1.01027
1.01087
1.0115
1.01221
1.01299
1.0138
1.01462
1.01545
1.01634
1.01723
1.01817
1.01899
1.01987
1.02059
1.02162
1.02361
1.02634
1.03014
1.02902
1.03861
1.01328
1.0808
1.0487
1.06233
0.984518
0.978087
0.918834
0.893106
0.827281
0.808207
0.756418
0.72552
0.689039
0.658275
0.625111
0.596102
0.562018
0.535898
0.501255
0.480841
0.442534
0.429238
0.386268
0.378353
0.332451
0.326671
0.279091
1
1
1
1
1
1
1
1
1
1
1
1
1
1
1
1
1
1
1
1
1
1
1
1.00001
1.00001
1.00002
1.00003
1.00005
1.00007
1.0001
1.00013
1.00017
1.00022
1.00027
1.00033
1.0004
1.00048
1.00056
1.00066
1.00075
1.00085
1.00096
1.00107
1.00119
1.0013
1.00143
1.00156
1.0017
1.00186
1.00202
1.00219
1.00238
1.00257
1.00279
1.00301
1.00326
1.00351
1.00378
1.00407
1.00437
1.00471
1.00504
1.00539
1.00579
1.0062
1.00662
1.00707
1.00753
1.00804
1.00857
1.00911
1.00967
1.01026
1.01089
1.01155
1.01223
1.01295
1.01373
1.01448
1.01525
1.01605
1.01688
1.01776
1.0186
1.01956
1.02073
1.02217
1.02372
1.02483
1.02637
1.02374
1.02978
1.01002
1.01158
1.00094
1.02665
0.955688
0.948931
0.887864
0.865117
0.814549
0.79096
0.744705
0.719264
0.680372
0.652309
0.619494
0.592829
0.558308
0.534693
0.498622
0.480489
0.443352
0.429186
0.387524
0.378809
0.334659
0.328663
0.281468
1
1
1
1
1
1
1
1
1
1
1
1
1
1
1
1
1
1
1
1
1
1
1
1.00001
1.00001
1.00002
1.00003
1.00005
1.00007
1.0001
1.00013
1.00017
1.00022
1.00027
1.00033
1.0004
1.00048
1.00056
1.00065
1.00075
1.00085
1.00096
1.00107
1.00119
1.0013
1.00143
1.00156
1.0017
1.00185
1.00201
1.00219
1.00237
1.00257
1.00279
1.00301
1.00326
1.00351
1.00378
1.00408
1.00438
1.00471
1.00504
1.00539
1.00578
1.0062
1.00664
1.00709
1.00755
1.00802
1.00853
1.00908
1.00967
1.0103
1.01095
1.01162
1.01229
1.01301
1.01373
1.01447
1.01526
1.01613
1.01707
1.01812
1.01924
1.02028
1.02129
1.02206
1.02283
1.02348
1.02525
1.02391
1.02764
1.02991
0.980596
0.97983
1.01959
0.952454
0.939141
0.886498
0.867152
0.817082
0.790861
0.746562
0.7146
0.678203
0.648358
0.615283
0.589945
0.556658
0.534255
0.500678
0.482153
0.444854
0.431116
0.388234
0.3793
0.336
0.330991
0.28377
1
1
1
1
1
1
1
1
1
1
1
1
1
1
1
1
1
1
1
1
1
1
1
1.00001
1.00001
1.00002
1.00003
1.00005
1.00007
1.0001
1.00013
1.00017
1.00022
1.00027
1.00033
1.0004
1.00048
1.00056
1.00065
1.00075
1.00085
1.00096
1.00107
1.00118
1.0013
1.00142
1.00156
1.0017
1.00185
1.00201
1.00219
1.00237
1.00257
1.00279
1.00301
1.00326
1.00351
1.00378
1.00407
1.00437
1.0047
1.00504
1.0054
1.00578
1.00619
1.00663
1.00708
1.00754
1.00801
1.00854
1.00911
1.0097
1.0103
1.0109
1.01154
1.0122
1.01287
1.01355
1.01433
1.01516
1.01606
1.01701
1.01798
1.01895
1.01983
1.02075
1.02164
1.02268
1.02315
1.02493
1.02399
1.02279
1.03601
0.970909
0.991652
0.991031
0.942898
0.9162
0.87339
0.844701
0.811171
0.780008
0.743222
0.714793
0.678773
0.651543
0.617843
0.592772
0.561027
0.539624
0.506304
0.488033
0.451241
0.436695
0.395301
0.385989
0.34318
0.337553
0.28966
1
1
1
1
1
1
1
1
1
1
1
1
1
1
1
1
1
1
1
1
1
1
1
1.00001
1.00001
1.00002
1.00003
1.00005
1.00007
1.0001
1.00013
1.00017
1.00022
1.00027
1.00033
1.0004
1.00048
1.00056
1.00065
1.00075
1.00085
1.00096
1.00107
1.00118
1.0013
1.00142
1.00155
1.00169
1.00185
1.00201
1.00218
1.00237
1.00257
1.00279
1.00301
1.00325
1.00351
1.00378
1.00407
1.00437
1.0047
1.00504
1.00541
1.00579
1.00618
1.00662
1.00707
1.00754
1.00805
1.00856
1.00911
1.0097
1.0103
1.01093
1.01157
1.01225
1.01297
1.01373
1.01456
1.01545
1.01632
1.01719
1.01805
1.01892
1.01986
1.02095
1.02195
1.0234
1.02393
1.02554
1.02643
1.02302
1.05207
0.98925
1.02051
0.976341
0.951247
0.912408
0.871661
0.834001
0.796031
0.765418
0.732263
0.70353
0.672467
0.645287
0.616542
0.593775
0.5627
0.541782
0.509142
0.490543
0.454495
0.440055
0.399465
0.390086
0.347411
0.342715
0.293747
1
1
1
1
1
1
1
1
1
1
1
1
1
1
1
1
1
1
1
1
1
1
1
1.00001
1.00001
1.00002
1.00003
1.00005
1.00007
1.0001
1.00013
1.00017
1.00021
1.00027
1.00033
1.0004
1.00048
1.00056
1.00065
1.00075
1.00085
1.00096
1.00106
1.00118
1.00129
1.00141
1.00155
1.00169
1.00185
1.002
1.00218
1.00237
1.00256
1.00278
1.003
1.00325
1.0035
1.00377
1.00407
1.00437
1.0047
1.00504
1.00539
1.00579
1.00619
1.00661
1.00705
1.00753
1.00805
1.00856
1.00909
1.00965
1.01023
1.01086
1.01151
1.01222
1.01296
1.01376
1.01452
1.01529
1.01599
1.01672
1.01748
1.01841
1.01958
1.02126
1.02261
1.02397
1.02449
1.02478
1.02851
1.02019
1.07877
0.950436
1.01657
0.941795
0.934561
0.882568
0.860185
0.82113
0.794317
0.761476
0.732784
0.70522
0.675362
0.650213
0.621756
0.598715
0.568473
0.546907
0.513882
0.494851
0.459061
0.443547
0.406514
0.395989
0.354502
0.350967
0.301484
1
1
1
1
1
1
1
1
1
1
1
1
1
1
1
1
1
1
1
1
1
1
1
1.00001
1.00001
1.00002
1.00003
1.00005
1.00007
1.0001
1.00013
1.00017
1.00021
1.00027
1.00033
1.0004
1.00048
1.00056
1.00065
1.00074
1.00084
1.00095
1.00106
1.00118
1.00129
1.00141
1.00155
1.00169
1.00184
1.002
1.00218
1.00236
1.00256
1.00278
1.003
1.00325
1.0035
1.00377
1.00407
1.00437
1.0047
1.00504
1.0054
1.00579
1.00619
1.00662
1.00707
1.00754
1.00804
1.00856
1.0091
1.00967
1.01026
1.0109
1.01157
1.01228
1.01304
1.01383
1.01456
1.01533
1.01608
1.01689
1.01782
1.01904
1.0204
1.02187
1.02278
1.02383
1.02497
1.02506
1.02918
1.00768
1.04484
0.920407
0.987528
0.907346
0.911059
0.874664
0.854558
0.813311
0.789886
0.755975
0.728837
0.703092
0.674701
0.651477
0.624731
0.603024
0.572901
0.551854
0.519229
0.499394
0.464436
0.449325
0.413165
0.403076
0.36156
0.358672
0.308903
1
1
1
1
1
1
1
1
1
1
1
1
1
1
1
1
1
1
1
1
1
1
1
1.00001
1.00001
1.00002
1.00003
1.00005
1.00007
1.00009
1.00013
1.00017
1.00021
1.00027
1.00033
1.00039
1.00047
1.00055
1.00064
1.00074
1.00084
1.00095
1.00106
1.00117
1.00129
1.00141
1.00154
1.00168
1.00184
1.00199
1.00217
1.00236
1.00256
1.00277
1.003
1.00324
1.0035
1.00377
1.00407
1.00437
1.0047
1.00504
1.0054
1.00579
1.00619
1.00661
1.00706
1.00753
1.00802
1.00853
1.00907
1.00966
1.01028
1.01093
1.01158
1.01225
1.01289
1.01358
1.01429
1.01508
1.01594
1.01699
1.01819
1.01941
1.02031
1.02068
1.02079
1.02057
1.02099
1.01959
1.02563
1.00917
1.02172
0.939683
0.976672
0.900812
0.902315
0.864653
0.847023
0.809617
0.783809
0.7516
0.723757
0.69809
0.66993
0.647112
0.621378
0.600763
0.573235
0.553373
0.521896
0.502143
0.469071
0.454097
0.420053
0.409408
0.369912
0.36684
0.320051
1
1
1
1
1
1
1
1
1
1
1
1
1
1
1
1
1
1
1
1
1
1
1
1.00001
1.00001
1.00002
1.00003
1.00005
1.00007
1.00009
1.00013
1.00016
1.00021
1.00026
1.00033
1.00039
1.00047
1.00055
1.00064
1.00074
1.00084
1.00095
1.00105
1.00117
1.00128
1.0014
1.00154
1.00168
1.00183
1.00199
1.00217
1.00235
1.00255
1.00277
1.00299
1.00324
1.00349
1.00376
1.00406
1.00436
1.00469
1.00504
1.00539
1.00579
1.00619
1.00662
1.00706
1.00752
1.00803
1.00855
1.00911
1.0097
1.0103
1.01093
1.01156
1.01223
1.01292
1.01368
1.01452
1.01546
1.01648
1.01737
1.01816
1.01866
1.01914
1.0196
1.02067
1.02227
1.02558
1.0272
1.03266
1.0421
1.00234
0.958823
0.965456
0.912341
0.892352
0.865545
0.836684
0.811064
0.774841
0.753064
0.71648
0.69294
0.664168
0.642986
0.617521
0.598538
0.571649
0.553896
0.523245
0.504535
0.475455
0.460211
0.42815
0.418433
0.38009
0.377048
0.33318
1
1
1
1
1
1
1
1
1
1
1
1
1
1
1
1
1
1
1
1
1
1
1
1.00001
1.00001
1.00002
1.00003
1.00005
1.00007
1.00009
1.00012
1.00016
1.00021
1.00026
1.00032
1.00039
1.00047
1.00055
1.00064
1.00073
1.00083
1.00094
1.00105
1.00116
1.00127
1.00139
1.00153
1.00167
1.00182
1.00198
1.00216
1.00235
1.00254
1.00276
1.00299
1.00323
1.00349
1.00376
1.00405
1.00435
1.00469
1.00503
1.00539
1.00578
1.00619
1.00661
1.00706
1.00752
1.00803
1.00856
1.00912
1.00967
1.01024
1.01085
1.01149
1.01217
1.01291
1.01374
1.01463
1.01542
1.01613
1.0167
1.01729
1.01805
1.01921
1.02099
1.02341
1.0251
1.02793
1.03071
1.02762
1.03347
0.94324
0.968388
0.930424
0.907384
0.882872
0.861746
0.831538
0.809162
0.773646
0.755086
0.719363
0.694157
0.666008
0.644937
0.618196
0.599472
0.574115
0.556692
0.527389
0.509781
0.482352
0.468306
0.437167
0.426626
0.39068
0.386467
0.350206
1
1
1
1
1
1
1
1
1
1
1
1
1
1
1
1
1
1
1
1
1
1
1
1.00001
1.00001
1.00002
1.00003
1.00005
1.00007
1.00009
1.00012
1.00016
1.00021
1.00026
1.00032
1.00039
1.00046
1.00054
1.00063
1.00073
1.00083
1.00093
1.00104
1.00115
1.00127
1.00139
1.00152
1.00166
1.00182
1.00198
1.00215
1.00234
1.00254
1.00276
1.00298
1.00322
1.00348
1.00375
1.00405
1.00435
1.00469
1.00503
1.00539
1.00579
1.00618
1.00661
1.00706
1.00755
1.00805
1.00857
1.0091
1.00967
1.01026
1.01091
1.0116
1.01233
1.01308
1.01377
1.01447
1.01513
1.01584
1.01668
1.01779
1.01911
1.02075
1.02257
1.02392
1.02442
1.02385
1.02426
1.0127
1.03996
0.894436
0.986908
0.900811
0.910763
0.874408
0.858335
0.825689
0.806854
0.772646
0.753192
0.718156
0.696221
0.665369
0.646399
0.618764
0.600794
0.574225
0.557505
0.530087
0.512528
0.488012
0.47454
0.444843
0.434528
0.403051
0.398863
0.36707
1
1
1
1
1
1
1
1
1
1
1
1
1
1
1
1
1
1
1
1
1
1
1
1.00001
1.00001
1.00002
1.00003
1.00005
1.00007
1.00009
1.00012
1.00016
1.0002
1.00026
1.00032
1.00038
1.00046
1.00054
1.00063
1.00072
1.00082
1.00093
1.00103
1.00114
1.00126
1.00138
1.00152
1.00165
1.00181
1.00197
1.00214
1.00233
1.00253
1.00275
1.00297
1.00322
1.00348
1.00375
1.00404
1.00435
1.00468
1.00502
1.00538
1.00577
1.00618
1.00662
1.00707
1.00754
1.00803
1.00854
1.00909
1.00967
1.01029
1.01094
1.01162
1.01225
1.01291
1.01356
1.01428
1.01508
1.01609
1.01721
1.01846
1.01965
1.02032
1.02047
1.02031
1.0201
1.01784
1.02081
1.0071
1.02478
0.928638
0.960898
0.895637
0.903172
0.86666
0.850975
0.821353
0.802149
0.769722
0.749364
0.716833
0.695232
0.665845
0.647454
0.620571
0.602171
0.576203
0.559963
0.534281
0.518417
0.494922
0.483532
0.453882
0.44454
0.41564
0.411952
0.384782
1
1
1
1
1
1
1
1
1
1
1
1
1
1
1
1
1
1
1
1
1
1
1
1.00001
1.00001
1.00002
1.00003
1.00005
1.00006
1.00009
1.00012
1.00016
1.0002
1.00025
1.00031
1.00038
1.00045
1.00054
1.00062
1.00072
1.00081
1.00092
1.00103
1.00114
1.00125
1.00137
1.00151
1.00165
1.0018
1.00196
1.00213
1.00233
1.00252
1.00274
1.00297
1.00321
1.00347
1.00374
1.00404
1.00434
1.00468
1.00502
1.00539
1.00578
1.00619
1.00663
1.00708
1.00755
1.00804
1.00858
1.00914
1.00974
1.01035
1.01095
1.01158
1.01221
1.0129
1.01365
1.01452
1.01548
1.01642
1.01727
1.01783
1.01822
1.01849
1.01893
1.01934
1.02181
1.02398
1.03013
1.04213
0.986277
0.935296
0.936933
0.902277
0.890692
0.869188
0.848825
0.825976
0.798219
0.774675
0.748906
0.719292
0.696609
0.668367
0.649235
0.623277
0.604772
0.579028
0.564501
0.540701
0.523883
0.502724
0.491102
0.463967
0.455118
0.427441
0.424777
0.40262
1
1
1
1
1
1
1
1
1
1
1
1
1
1
1
1
1
1
1
1
1
1
1
1.00001
1.00001
1.00002
1.00003
1.00004
1.00006
1.00009
1.00012
1.00016
1.0002
1.00025
1.00031
1.00037
1.00045
1.00053
1.00061
1.00071
1.00081
1.00091
1.00102
1.00113
1.00124
1.00136
1.0015
1.00163
1.00179
1.00195
1.00212
1.00232
1.00251
1.00273
1.00296
1.0032
1.00346
1.00373
1.00404
1.00435
1.00467
1.00502
1.00539
1.00578
1.0062
1.00662
1.00707
1.00756
1.00807
1.00861
1.00916
1.00972
1.01029
1.01089
1.01155
1.01226
1.01305
1.01389
1.01463
1.01532
1.01591
1.01645
1.01708
1.01803
1.01935
1.02162
1.0247
1.0292
1.03282
1.03171
1.04415
0.901434
0.958986
0.903739
0.899304
0.876655
0.867095
0.840438
0.826543
0.800907
0.777143
0.748899
0.720422
0.696043
0.668965
0.65052
0.622848
0.606483
0.582766
0.570426
0.546223
0.530578
0.512263
0.499508
0.474582
0.467272
0.440063
0.438229
0.421488
1
1
1
1
1
1
1
1
1
1
1
1
1
1
1
1
1
1
1
1
1
1
1
1.00001
1.00001
1.00002
1.00003
1.00004
1.00006
1.00009
1.00012
1.00015
1.0002
1.00025
1.00031
1.00037
1.00044
1.00052
1.00061
1.0007
1.0008
1.0009
1.00101
1.00112
1.00123
1.00135
1.00149
1.00163
1.00178
1.00194
1.00211
1.00231
1.0025
1.00272
1.00295
1.0032
1.00346
1.00373
1.00403
1.00434
1.00467
1.00503
1.0054
1.00579
1.0062
1.00664
1.00711
1.0076
1.0081
1.00863
1.00917
1.00973
1.01034
1.011
1.01171
1.01246
1.01312
1.01375
1.01431
1.01492
1.01567
1.01669
1.01805
1.01985
1.02173
1.02244
1.02227
1.01952
1.01747
0.999078
1.01761
0.883794
0.973387
0.890009
0.907133
0.877257
0.866147
0.84419
0.829431
0.79993
0.780961
0.749555
0.722885
0.698573
0.671589
0.653834
0.626141
0.608775
0.591522
0.574479
0.552196
0.539911
0.520526
0.507009
0.487671
0.479449
0.453023
0.45246
0.439233
1
1
1
1
1
1
1
1
1
1
1
1
1
1
1
1
1
1
1
1
1
1
1
1.00001
1.00001
1.00002
1.00003
1.00004
1.00006
1.00008
1.00011
1.00015
1.00019
1.00024
1.0003
1.00036
1.00044
1.00052
1.0006
1.00069
1.00079
1.00089
1.001
1.00111
1.00122
1.00134
1.00147
1.00161
1.00176
1.00193
1.0021
1.00229
1.00249
1.00271
1.00294
1.00318
1.00345
1.00373
1.00403
1.00434
1.00467
1.00503
1.0054
1.0058
1.00622
1.00666
1.00713
1.00761
1.00811
1.00863
1.0092
1.00981
1.01044
1.01111
1.01172
1.01236
1.01297
1.01363
1.01441
1.01542
1.01657
1.01764
1.01856
1.01877
1.01847
1.01722
1.01648
1.01505
1.01997
1.02432
1.01625
0.928098
0.938916
0.90389
0.897301
0.87678
0.864374
0.844846
0.827159
0.802435
0.778477
0.75288
0.72555
0.701268
0.674871
0.655879
0.630693
0.614301
0.597496
0.5793
0.559464
0.550186
0.52755
0.515255
0.500656
0.49029
0.470003
0.469009
0.456566
1
1
1
1
1
1
1
1
1
1
1
1
1
1
1
1
1
1
1
1
1
1
1
1.00001
1.00001
1.00002
1.00003
1.00004
1.00006
1.00008
1.00011
1.00015
1.00019
1.00024
1.0003
1.00036
1.00043
1.00051
1.00059
1.00068
1.00078
1.00088
1.00099
1.00109
1.00121
1.00133
1.00146
1.0016
1.00175
1.00192
1.00209
1.00229
1.00248
1.0027
1.00293
1.00318
1.00345
1.00372
1.00403
1.00434
1.00468
1.00504
1.00542
1.00582
1.00624
1.00669
1.00715
1.00764
1.00816
1.00872
1.0093
1.00991
1.01049
1.0111
1.0117
1.01237
1.01312
1.01405
1.015
1.01575
1.01628
1.01651
1.01654
1.01654
1.01744
1.0194
1.02453
1.03264
1.03728
1.0506
0.923597
0.94655
0.922521
0.909664
0.89376
0.884647
0.861673
0.851154
0.828188
0.811099
0.779512
0.75949
0.730341
0.707811
0.679328
0.661876
0.637184
0.620434
0.604501
0.586529
0.569226
0.5585
0.538413
0.526267
0.512855
0.501321
0.489043
0.482965
0.474852
1
1
1
1
1
1
1
1
1
1
1
1
1
1
1
1
1
1
1
1
1
1
1
1.00001
1.00001
1.00002
1.00003
1.00004
1.00006
1.00008
1.00011
1.00014
1.00018
1.00023
1.00029
1.00035
1.00042
1.0005
1.00058
1.00067
1.00077
1.00087
1.00097
1.00108
1.0012
1.00131
1.00145
1.00158
1.00173
1.0019
1.00207
1.00227
1.00247
1.00269
1.00292
1.00317
1.00344
1.00372
1.00402
1.00434
1.00468
1.00505
1.00543
1.00584
1.00626
1.00671
1.00718
1.0077
1.00823
1.00879
1.00933
1.00991
1.0105
1.01117
1.0119
1.0127
1.01351
1.01418
1.01472
1.01513
1.01559
1.01633
1.01762
1.01971
1.02303
1.02567
1.02491
1.02307
1.00847
1.02032
0.87312
0.977346
0.890368
0.916004
0.882938
0.883607
0.860871
0.853872
0.83102
0.81372
0.784483
0.765649
0.734571
0.713048
0.684849
0.665762
0.643371
0.626717
0.611704
0.594781
0.578677
0.567866
0.549684
0.534822
0.525946
0.515566
0.507892
0.500201
0.493658
1
1
1
1
1
1
1
1
1
1
1
1
1
1
1
1
1
1
1
1
1
1
1
1.00001
1.00001
1.00002
1.00003
1.00004
1.00006
1.00008
1.00011
1.00014
1.00018
1.00023
1.00028
1.00034
1.00041
1.00049
1.00057
1.00066
1.00076
1.00086
1.00096
1.00107
1.00118
1.0013
1.00143
1.00157
1.00172
1.00189
1.00207
1.00226
1.00246
1.00268
1.00291
1.00317
1.00343
1.00372
1.00403
1.00435
1.0047
1.00506
1.00545
1.00586
1.00629
1.00676
1.00725
1.00776
1.00829
1.00883
1.0094
1.01002
1.0107
1.0114
1.01212
1.01276
1.01335
1.01392
1.0146
1.01546
1.01667
1.01811
1.01922
1.01971
1.01882
1.01559
1.01029
1.01066
1.00192
1.01891
0.931812
0.955961
0.913027
0.917942
0.88594
0.885963
0.865481
0.857475
0.835997
0.819021
0.793769
0.773031
0.740862
0.72109
0.689654
0.67433
0.65007
0.633853
0.619583
0.604153
0.588542
0.577495
0.560361
0.545872
0.540542
0.52968
0.524593
0.517523
0.512948
1
1
1
1
1
1
1
1
1
1
1
1
1
1
1
1
1
1
1
1
1
1
1
1.00001
1.00001
1.00002
1.00002
1.00004
1.00005
1.00008
1.0001
1.00014
1.00018
1.00022
1.00028
1.00034
1.0004
1.00048
1.00056
1.00065
1.00074
1.00084
1.00095
1.00105
1.00116
1.00128
1.00141
1.00155
1.0017
1.00187
1.00205
1.00224
1.00244
1.00266
1.0029
1.00315
1.00342
1.00371
1.00402
1.00435
1.0047
1.00508
1.00547
1.00589
1.00633
1.0068
1.0073
1.0078
1.00834
1.00892
1.00954
1.01018
1.01084
1.01145
1.01209
1.01274
1.01348
1.01439
1.01544
1.01646
1.01716
1.0174
1.01718
1.01643
1.0162
1.01844
1.02455
1.03628
1.06785
0.944753
0.949071
0.92842
0.927777
0.903915
0.902652
0.88337
0.874877
0.85893
0.842863
0.824335
0.801436
0.778087
0.750123
0.727769
0.699112
0.681641
0.658342
0.641538
0.626174
0.611862
0.597811
0.586397
0.571127
0.558296
0.554236
0.545945
0.541948
0.536207
0.532404
1
1
1
1
1
1
1
1
1
1
1
1
1
1
1
1
1
1
1
1
1
1
1
1.00001
1.00001
1.00002
1.00002
1.00004
1.00005
1.00007
1.0001
1.00013
1.00017
1.00022
1.00027
1.00033
1.0004
1.00047
1.00055
1.00064
1.00073
1.00083
1.00093
1.00104
1.00114
1.00126
1.00139
1.00154
1.00169
1.00185
1.00203
1.00223
1.00243
1.00265
1.00289
1.00315
1.00342
1.00372
1.00403
1.00436
1.00472
1.0051
1.0055
1.00593
1.00638
1.00685
1.00735
1.00789
1.00847
1.00906
1.00968
1.01027
1.0109
1.01155
1.0123
1.01314
1.01403
1.01489
1.01553
1.01589
1.01616
1.01677
1.01762
1.01977
1.02367
1.02754
1.03052
1.02249
1.03747
0.873268
0.993345
0.91301
0.932308
0.908717
0.910345
0.888873
0.884402
0.862324
0.851746
0.827202
0.813315
0.782222
0.760774
0.737061
0.708383
0.690046
0.665336
0.648914
0.633352
0.620003
0.608293
0.596779
0.584725
0.571952
0.569088
0.562398
0.558795
0.554241
0.551997
1
1
1
1
1
1
1
1
1
1
1
1
1
1
1
1
1
1
1
1
1
1
1
1
1.00001
1.00001
1.00002
1.00003
1.00005
1.00007
1.0001
1.00013
1.00016
1.00021
1.00026
1.00032
1.00038
1.00046
1.00054
1.00062
1.00071
1.00081
1.00091
1.00101
1.00112
1.00124
1.00137
1.00151
1.00166
1.00183
1.00201
1.0022
1.00241
1.00263
1.00287
1.00313
1.00341
1.00371
1.00402
1.00436
1.00472
1.00511
1.00552
1.00596
1.00641
1.00691
1.00743
1.00798
1.00856
1.00914
1.00975
1.01039
1.01111
1.01189
1.01266
1.01343
1.01407
1.01465
1.0153
1.01619
1.01742
1.01916
1.02112
1.02186
1.02116
1.01689
1.01114
0.989977
1.03324
0.936146
0.971498
0.926512
0.941075
0.90611
0.912198
0.89265
0.889027
0.868204
0.859679
0.836308
0.822004
0.791311
0.774266
0.744405
0.718786
0.697522
0.674834
0.657769
0.642002
0.629203
0.619302
0.60776
0.598189
0.586021
0.583195
0.57782
0.576306
0.572008
0.571468
1
1
1
1
1
1
1
1
1
1
1
1
1
1
1
1
1
1
1
1
1
1
1
1
1.00001
1.00001
1.00002
1.00003
1.00005
1.00007
1.00009
1.00012
1.00016
1.0002
1.00025
1.00031
1.00037
1.00045
1.00052
1.00061
1.0007
1.00079
1.00089
1.001
1.0011
1.00122
1.00135
1.00149
1.00164
1.00181
1.00199
1.00219
1.00239
1.00262
1.00286
1.00313
1.00341
1.00371
1.00403
1.00438
1.00474
1.00514
1.00555
1.006
1.00648
1.00698
1.00752
1.00807
1.00864
1.00925
1.00993
1.01066
1.01137
1.01209
1.01274
1.0134
1.01414
1.01509
1.01633
1.01757
1.0186
1.01898
1.01858
1.01691
1.01595
1.01594
1.02432
1.05465
0.97658
0.967193
0.963617
0.94928
0.932515
0.921159
0.915301
0.899031
0.894057
0.877133
0.869154
0.844807
0.830994
0.802876
0.783469
0.751906
0.730816
0.705509
0.683816
0.667316
0.651742
0.640211
0.629341
0.620347
0.61352
0.599592
0.597764
0.593848
0.59342
0.588643
0.591024
1
1
1
1
1
1
1
1
1
1
1
1
1
1
1
1
1
1
1
1
1
1
1
1
1.00001
1.00001
1.00002
1.00003
1.00005
1.00006
1.00009
1.00012
1.00015
1.00019
1.00024
1.0003
1.00036
1.00043
1.00051
1.00059
1.00068
1.00077
1.00087
1.00097
1.00108
1.00119
1.00132
1.00146
1.00162
1.00178
1.00196
1.00215
1.00236
1.00259
1.00283
1.0031
1.00338
1.0037
1.00402
1.00437
1.00475
1.00514
1.00558
1.00604
1.00653
1.00704
1.00757
1.00814
1.00878
1.00946
1.01013
1.01081
1.01146
1.01216
1.0129
1.01386
1.01497
1.01598
1.0168
1.01717
1.01728
1.01737
1.01836
1.02065
1.02639
1.0343
1.03554
1.07492
0.88494
1.00609
0.938776
0.956988
0.932668
0.935557
0.91357
0.912665
0.896139
0.890734
0.874117
0.856434
0.842358
0.814851
0.792035
0.760874
0.740876
0.714871
0.695172
0.677596
0.661642
0.651003
0.639279
0.634373
0.627263
0.612824
0.613159
0.609899
0.610993
0.604887
0.609825
1
1
1
1
1
1
1
1
1
1
1
1
1
1
1
1
1
1
1
1
1
1
1
1
1.00001
1.00001
1.00002
1.00003
1.00004
1.00006
1.00008
1.00011
1.00015
1.00019
1.00023
1.00029
1.00035
1.00042
1.00049
1.00057
1.00066
1.00075
1.00085
1.00095
1.00105
1.00117
1.0013
1.00144
1.00159
1.00176
1.00194
1.00213
1.00234
1.00257
1.00282
1.00309
1.00338
1.00369
1.00403
1.00438
1.00476
1.00517
1.00561
1.00608
1.00658
1.0071
1.00767
1.00828
1.00891
1.00957
1.01021
1.01089
1.01165
1.01252
1.01352
1.01447
1.01521
1.01567
1.01615
1.01692
1.01827
1.02054
1.02369
1.02619
1.02513
1.02158
0.998992
1.04632
0.925278
1.01167
0.945812
0.967937
0.937047
0.943248
0.922234
0.91952
0.904394
0.900898
0.881803
0.872039
0.849208
0.826879
0.803552
0.772612
0.752995
0.724655
0.706846
0.687448
0.672259
0.663209
0.650935
0.646772
0.641388
0.628262
0.629321
0.624886
0.628266
0.621149
0.629144
1
1
1
1
1
1
1
1
1
1
1
1
1
1
1
1
1
1
1
1
1
1
1
1
1.00001
1.00001
1.00002
1.00003
1.00004
1.00006
1.00008
1.00011
1.00014
1.00018
1.00022
1.00028
1.00033
1.0004
1.00047
1.00055
1.00064
1.00072
1.00082
1.00092
1.00102
1.00114
1.00126
1.0014
1.00156
1.00172
1.0019
1.0021
1.00231
1.00254
1.00279
1.00306
1.00335
1.00367
1.004
1.00436
1.00475
1.00518
1.00563
1.00611
1.00662
1.00717
1.00777
1.00839
1.00901
1.00965
1.01034
1.01116
1.0121
1.01294
1.01375
1.01437
1.01497
1.01584
1.01722
1.01921
1.02096
1.02195
1.02132
1.01846
1.014
1.01359
1.01975
1.03434
0.985086
0.987949
0.969753
0.968202
0.947035
0.951231
0.931618
0.931419
0.914481
0.908947
0.892941
0.883486
0.857508
0.841969
0.812958
0.786358
0.764468
0.735003
0.718747
0.698004
0.683934
0.676041
0.663492
0.660929
0.656043
0.64324
0.645477
0.640952
0.645647
0.637448
0.648171
1
1
1
1
1
1
1
1
1
1
1
1
1
1
1
1
1
1
1
1
1
1
1
1
1.00001
1.00001
1.00002
1.00003
1.00004
1.00005
1.00007
1.0001
1.00013
1.00017
1.00021
1.00026
1.00032
1.00038
1.00045
1.00053
1.00061
1.0007
1.00079
1.00089
1.00099
1.00111
1.00123
1.00137
1.00152
1.00169
1.00187
1.00207
1.00228
1.00251
1.00277
1.00304
1.00334
1.00365
1.00399
1.00436
1.00476
1.00519
1.00566
1.00615
1.00668
1.00725
1.00784
1.00845
1.0091
1.00983
1.01065
1.01153
1.01227
1.01301
1.01372
1.01451
1.01576
1.0174
1.01873
1.01948
1.01927
1.0183
1.0173
1.01927
1.02583
1.03782
1.08587
0.940128
1.02192
0.983385
0.988779
0.96581
0.964371
0.95042
0.943665
0.940147
0.923168
0.918706
0.903453
0.891804
0.870831
0.854824
0.825655
0.802041
0.774776
0.747567
0.730486
0.710411
0.69648
0.690548
0.676275
0.673444
0.669829
0.658588
0.662704
0.656491
0.662912
0.654421
0.666638
1
1
1
1
1
1
1
1
1
1
1
1
1
1
1
1
1
1
1
1
1
1
1
1
1.00001
1.00001
1.00002
1.00002
1.00004
1.00005
1.00007
1.00009
1.00012
1.00016
1.0002
1.00025
1.0003
1.00036
1.00043
1.00051
1.00059
1.00067
1.00076
1.00086
1.00096
1.00107
1.00119
1.00133
1.00148
1.00164
1.00182
1.00202
1.00223
1.00246
1.00272
1.00299
1.00329
1.00361
1.00396
1.00434
1.00475
1.00519
1.00567
1.00617
1.00672
1.00729
1.00789
1.00853
1.00926
1.01005
1.01088
1.01156
1.01234
1.01316
1.01413
1.01554
1.01684
1.01772
1.0179
1.01794
1.01824
1.01995
1.02474
1.0309
1.0366
1.03072
1.0702
0.907145
1.04537
0.982589
1.00259
0.974302
0.974201
0.959274
0.957053
0.944192
0.935401
0.928882
0.914701
0.905524
0.886372
0.867841
0.83924
0.817112
0.78614
0.762085
0.743948
0.724219
0.710873
0.702659
0.690117
0.684357
0.682264
0.674577
0.679958
0.673362
0.679851
0.671959
0.68504
1
1
1
1
1
1
1
1
1
1
1
1
1
1
1
1
1
1
1
1
1
1
1
1
1
1.00001
1.00001
1.00002
1.00003
1.00005
1.00006
1.00009
1.00012
1.00015
1.00019
1.00024
1.00029
1.00035
1.00041
1.00048
1.00056
1.00064
1.00073
1.00083
1.00092
1.00103
1.00116
1.00129
1.00144
1.0016
1.00178
1.00198
1.0022
1.00243
1.00269
1.00296
1.00326
1.00358
1.00394
1.00432
1.00474
1.00519
1.00568
1.0062
1.00675
1.00733
1.00796
1.00866
1.00941
1.0102
1.01092
1.0117
1.0126
1.01368
1.0149
1.016
1.01668
1.01702
1.01771
1.01901
1.022
1.02581
1.02841
1.02564
1.0202
0.995176
1.08469
0.98177
1.03516
0.991947
1.01358
0.982532
0.987637
0.96901
0.968547
0.953716
0.952312
0.940025
0.927435
0.918773
0.899692
0.880203
0.85508
0.830714
0.800796
0.776597
0.75792
0.737644
0.723907
0.715056
0.702936
0.695653
0.698762
0.687786
0.696883
0.690486
0.696634
0.689995
0.703067
1
1
1
1
1
1
1
1
1
1
1
1
1
1
1
1
1
1
1
1
1
1
1
1
1
1.00001
1.00001
1.00002
1.00003
1.00004
1.00006
1.00008
1.00011
1.00014
1.00018
1.00022
1.00027
1.00033
1.00039
1.00046
1.00053
1.00061
1.0007
1.00079
1.00088
1.00099
1.00111
1.00124
1.00139
1.00155
1.00173
1.00192
1.00213
1.00237
1.00262
1.0029
1.0032
1.00353
1.00389
1.00427
1.0047
1.00516
1.00566
1.00619
1.00676
1.00736
1.00803
1.00875
1.0095
1.01026
1.01107
1.01198
1.01309
1.01414
1.01514
1.01588
1.01653
1.01754
1.01947
1.02215
1.02418
1.02414
1.02079
1.01548
1.01504
1.02747
1.05896
1.02969
1.0273
1.01653
1.01733
0.993912
0.997885
0.979459
0.979926
0.967183
0.966786
0.949474
0.940202
0.930159
0.913002
0.894817
0.871043
0.847711
0.815332
0.793216
0.772406
0.751915
0.737266
0.728727
0.718321
0.708282
0.713287
0.700857
0.715117
0.706747
0.713059
0.710766
0.721094
1
1
1
1
1
1
1
1
1
1
1
1
1
1
1
1
1
1
1
1
1
1
1
1
1
1.00001
1.00001
1.00002
1.00003
1.00004
1.00005
1.00007
1.0001
1.00013
1.00016
1.00021
1.00025
1.00031
1.00037
1.00043
1.0005
1.00058
1.00066
1.00075
1.00084
1.00094
1.00106
1.00119
1.00134
1.0015
1.00168
1.00187
1.00208
1.00231
1.00257
1.00284
1.00315
1.00348
1.00384
1.00424
1.00467
1.00514
1.00565
1.00619
1.00676
1.00738
1.00808
1.0088
1.00958
1.01039
1.01128
1.01233
1.01333
1.01432
1.01515
1.01603
1.01721
1.01919
1.02118
1.02218
1.02177
1.01986
1.01937
1.02235
1.03917
1.09081
0.977612
1.0704
1.03583
1.03184
1.0166
1.01189
1.00745
0.991942
0.992367
0.978536
0.976802
0.960223
0.955
0.942741
0.928004
0.910741
0.887932
0.862749
0.831157
0.80764
0.788269
0.765328
0.751606
0.741431
0.734615
0.721593
0.726095
0.71567
0.73143
0.72153
0.729952
0.730967
0.7403
1
1
1
1
1
1
1
1
1
1
1
1
1
1
1
1
1
1
1
1
1
1
1
1
1
1.00001
1.00001
1.00002
1.00002
1.00004
1.00005
1.00007
1.00009
1.00012