/*--------------------------------*- C++ -*----------------------------------*\
| =========                 |                                                 |
| \\      /  F ield         | OpenFOAM: The Open Source CFD Toolbox           |
|  \\    /   O peration     | Version:  2.2.x                                 |
|   \\  /    A nd           | Web:      www.OpenFOAM.org                      |
|    \\/     M anipulation  |                                                 |
\*---------------------------------------------------------------------------*/
FoamFile
{
    version     2.0;
    format      ascii;
    class       surfaceScalarField;
    location    "0.35";
    object      phi;
}
// * * * * * * * * * * * * * * * * * * * * * * * * * * * * * * * * * * * * * //

dimensions      [1 0 -1 0 0 0 0];

internalField   nonuniform List<scalar> 
28084
(
0.00174119
0.00173364
0.00172716
0.00172171
0.00171724
0.0017137
0.00171103
0.00170917
0.00170807
0.00170766
0.00170788
0.00170867
0.00170996
0.00171169
0.0017138
0.00171622
0.0017189
0.00172179
0.00172482
0.00172796
0.00173114
0.00173433
0.00173749
0.00174057
0.00174355
0.00174639
0.00174907
0.00175155
0.00175382
0.00175585
0.00175764
0.00175915
0.00176039
0.00176133
0.00176197
0.00176229
0.00176229
0.00176197
0.00176131
0.00176031
0.00175896
0.00175727
0.00175521
0.00175279
0.00175
0.00177156
0.00179394
0.00181704
0.00184076
0.00186499
0.00188962
0.00191455
0.00193966
0.00196539
0.00193582
0.00194817
0.00196009
0.00196884
0.00197332
0.00197711
0.00197969
0.00198744
0.00199825
0.00201188
0.00202262
0.00201783
0.00199615
0.00196832
0.00194446
0.00192355
0.00191356
0.00190554
0.00188979
0.00187165
0.0018555
0.00184013
0.00182392
0.00180352
0.00177597
0.00174608
0.00171236
0.0016774
0.00164251
0.00160932
0.001577
0.0015441
0.00150845
0.00146746
0.00142147
0.00137175
0.00133052
0.00129805
0.00126606
0.00122841
0.00118443
0.00113887
0.00110161
0.00107445
0.00105872
0.00104553
0.00102838
0.00100359
0.000969736
0.000929781
0.000895969
0.000870406
0.000848154
0.000827718
0.000807545
0.000786075
0.00076362
0.00074113
0.000719753
0.000696405
0.000664291
0.000610268
0.000513992
0.000385912
8.66109e-06
7.54863e-06
0.00174939
6.47668e-06
0.00174716
5.44921e-06
0.00174594
4.47006e-06
0.00174568
3.54277e-06
0.00174633
2.67052e-06
0.00174786
1.85605e-06
0.0017502
1.10164e-06
0.0017533
4.09011e-07
0.00175709
-2.20687e-07
0.00176151
-7.86861e-07
0.00176649
-1.2895e-06
0.00177197
-1.72913e-06
0.00177786
-2.10681e-06
0.00178412
-2.42407e-06
0.00179066
-2.68288e-06
0.00179743
-2.88556e-06
0.00180435
-3.03476e-06
0.00181137
-3.13337e-06
0.00181842
-3.18447e-06
0.00182546
-3.19125e-06
0.00183243
-3.15699e-06
0.00183929
-3.08497e-06
0.00184598
-2.97845e-06
0.00185247
-2.84059e-06
0.00185872
-2.67445e-06
0.0018647
-2.48295e-06
0.00187039
-2.26884e-06
0.00187574
-2.03466e-06
0.00188075
-1.78276e-06
0.00188539
-1.5153e-06
0.00188965
-1.23418e-06
0.0018935
-9.41099e-07
0.00189695
-6.37555e-07
0.00189998
-3.24805e-07
0.00190257
-3.92175e-09
0.00190474
3.24238e-07
0.00190646
6.58997e-07
0.00190773
9.99864e-07
0.00190855
1.34651e-06
0.00190892
1.69876e-06
0.00190884
2.05661e-06
0.00190829
2.42016e-06
0.00190729
2.78967e-06
0.00190582
-2.15602e-05
0.00190388
-2.23806e-05
0.00192428
-2.31001e-05
0.00194544
-2.37167e-05
0.00196727
-2.42283e-05
0.00198966
-2.4633e-05
0.0020125
-2.4929e-05
0.00203569
-2.51135e-05
0.00205913
-2.56342e-05
0.0020827
-2.12509e-05
0.00210639
-1.17209e-05
0.00203312
-9.42086e-06
0.00202591
-8.77743e-06
0.00201452
-7.60849e-06
0.00199647
-8.03118e-06
0.0019737
-1.08984e-05
0.00194486
-1.25373e-05
0.00190918
-1.26692e-05
0.00186835
-1.02678e-05
0.00182275
-5.92842e-06
0.0017878
2.90826e-06
0.0017612
1.44166e-05
0.00174156
1.96995e-05
0.00173185
1.94152e-05
0.00173559
2.13541e-05
0.00174827
2.40569e-05
0.00175556
2.15743e-05
0.00175015
1.98129e-05
0.00173198
1.75653e-05
0.00170645
1.34066e-05
0.00167151
1.06477e-05
0.00162384
1.13013e-05
0.00157702
1.64681e-05
0.00154006
2.55878e-05
0.00150919
3.12975e-05
0.00148603
3.8123e-05
0.0014743
4.16909e-05
0.00146454
4.1228e-05
0.00144293
3.80332e-05
0.00141168
3.37448e-05
0.00137356
3.07547e-05
0.00132803
3.04737e-05
0.001286
3.32604e-05
0.00124715
3.77287e-05
0.0012106
4.33647e-05
0.00117772
4.2567e-05
0.00114451
3.79918e-05
0.00110963
3.26616e-05
0.00107469
3.32012e-05
0.00103801
3.66256e-05
0.000998725
3.63143e-05
0.000958704
3.33676e-05
0.000920515
3.03859e-05
0.000887688
2.91215e-05
0.000862092
2.74764e-05
0.000845089
2.62612e-05
0.000830447
2.63805e-05
0.000814863
2.83391e-05
0.000795255
3.20206e-05
0.000771202
2.80375e-05
0.00075116
2.50271e-05
0.000725486
2.41787e-05
0.000699496
2.30486e-05
0.000674233
2.16674e-05
0.000648163
2.07178e-05
0.000619634
2.02628e-05
0.000587552
2.03759e-05
0.000551615
2.17282e-05
0.00051201
2.59402e-05
0.00047015
3.48798e-05
0.000424714
5.39044e-05
0.000371334
9.29174e-05
0.000303434
0.000123206
0.000218467
0.000382521
0.000131025
1.19281e-05
9.77838e-06
0.00176035
7.7027e-06
0.00176337
5.71085e-06
0.00176733
3.81222e-06
0.00177219
2.01555e-06
0.00177791
3.28676e-07
0.00178445
-1.24153e-06
0.00179175
-2.68939e-06
0.00179974
-4.01043e-06
0.00180837
-5.20151e-06
0.00181756
-6.26081e-06
0.00182725
-7.1878e-06
0.00183736
-7.98325e-06
0.00184782
-8.6491e-06
0.00185855
-9.1884e-06
0.00186948
-9.60519e-06
0.00188053
-9.90436e-06
0.00189165
-1.00915e-05
0.00190276
-1.01728e-05
0.00191379
-1.01549e-05
0.0019247
-1.00447e-05
0.00193541
-9.84931e-06
0.00194589
-9.57582e-06
0.00195608
-9.2313e-06
0.00196594
-8.82267e-06
0.00197543
-8.35657e-06
0.00198452
-7.83937e-06
0.00199318
-7.27704e-06
0.00200138
-6.67513e-06
0.00200909
-6.03876e-06
0.00201631
-5.37258e-06
0.00202301
-4.68076e-06
0.00202919
-3.96698e-06
0.00203482
-3.23445e-06
0.00203991
-2.4859e-06
0.00204444
-1.72362e-06
0.00204842
-9.49449e-07
0.00205184
-1.64815e-07
0.00205469
6.29244e-07
0.00205698
1.43206e-06
0.0020587
2.24332e-06
0.00205986
3.06302e-06
0.00206046
3.89146e-06
0.00206049
4.72922e-06
0.00205996
-4.19603e-05
0.00205886
-4.35447e-05
0.00207808
-4.49276e-05
0.00209801
-4.61048e-05
0.00211855
-4.70727e-05
0.00213959
-4.78274e-05
0.00216103
-4.83657e-05
0.00218277
-4.86834e-05
0.00220469
-4.92376e-05
0.0022267
-1.63147e-06
0.0022487
-3.92112e-06
0.0022147
1.14954e-06
0.00222508
6.12656e-06
0.00223826
1.02902e-05
0.00224934
1.18651e-05
0.00225724
1.13321e-05
0.00226243
1.10543e-05
0.00226492
1.12896e-05
0.00226755
1.20009e-05
0.00227208
1.5137e-05
0.00228256
1.91831e-05
0.00228534
2.51901e-05
0.00227109
2.87384e-05
0.00224601
3.2272e-05
0.00221362
3.44195e-05
0.00218137
3.75941e-05
0.00215021
3.95336e-05
0.00212649
4.23733e-05
0.00210689
4.31238e-05
0.00208226
4.19753e-05
0.00204962
4.08587e-05
0.0020116
4.18414e-05
0.00196924
4.55672e-05
0.0019265
5.31468e-05
0.00188376
6.16385e-05
0.00184059
6.74272e-05
0.00180279
7.18949e-05
0.00176745
7.50866e-05
0.00172835
7.36387e-05
0.00168449
6.90756e-05
0.00163703
6.52106e-05
0.00158544
6.34376e-05
0.00153151
6.63326e-05
0.00147832
7.21501e-05
0.00142639
7.70241e-05
0.00137929
7.73059e-05
0.0013362
7.22091e-05
0.00129095
6.66288e-05
0.00124324
6.65301e-05
0.00119442
6.84311e-05
0.00114354
6.73089e-05
0.00109032
6.37417e-05
0.00103892
6.00465e-05
0.000993071
5.77782e-05
0.000955338
5.48874e-05
0.000923226
5.1293e-05
0.000892723
4.84158e-05
0.000862486
4.68201e-05
0.000829779
4.54349e-05
0.000794137
4.92297e-05
0.000759106
5.07439e-05
0.000724305
5.14521e-05
0.000690133
5.16493e-05
0.00065615
5.15672e-05
0.000621024
5.19491e-05
0.000583003
5.35711e-05
0.000541296
5.67165e-05
0.000495465
6.23317e-05
0.000445853
7.30515e-05
0.00039388
9.06671e-05
0.000339639
0.000122823
0.000282388
0.000176191
0.000218166
0.000206883
0.000146698
0.000510147
7.37391e-05
9.87125e-06
6.75719e-06
0.00177405
3.74382e-06
0.00178225
8.48654e-07
0.00179132
-1.91163e-06
0.00180123
-4.52152e-06
0.00181195
-6.96697e-06
0.00182343
-9.23574e-06
0.00183562
-1.13175e-05
0.00184844
-1.32041e-05
0.00186184
-1.48895e-05
0.00187575
-1.63702e-05
0.00189008
-1.76445e-05
0.00190477
-1.87131e-05
0.00191973
-1.95789e-05
0.00193488
-2.02462e-05
0.00195014
-2.07213e-05
0.00196544
-2.1012e-05
0.00198069
-2.11271e-05
0.00199584
-2.10764e-05
0.00201081
-2.08707e-05
0.00202552
-2.05211e-05
0.00203994
-2.00389e-05
0.00205399
-1.94358e-05
0.00206764
-1.87232e-05
0.00208082
-1.79122e-05
0.00209351
-1.70137e-05
0.00210567
-1.60379e-05
0.00211726
-1.49946e-05
0.00212827
-1.38928e-05
0.00213866
-1.27407e-05
0.00214842
-1.15459e-05
0.00215754
-1.03151e-05
0.002166
-9.05429e-06
0.00217379
-7.76862e-06
0.00218091
-6.46247e-06
0.00218736
-5.13952e-06
0.00219313
-3.80269e-06
0.00219822
-2.45426e-06
0.00220263
-1.09583e-06
0.00220637
2.71567e-07
0.00220943
1.64748e-06
0.00221182
3.03197e-06
0.00221354
4.4256e-06
0.00221459
5.82936e-06
0.00221498
-6.1183e-05
0.00221471
-6.34747e-05
0.00223274
-6.54644e-05
0.00225142
-6.71463e-05
0.00227065
-6.85149e-05
0.00229033
-6.95648e-05
0.00231035
-7.02914e-05
0.00233062
-7.06895e-05
0.00235101
-7.11486e-05
0.00237144
-2.81278e-05
0.00239186
-1.32117e-05
0.00229322
-8.7169e-06
0.0022745
-5.14333e-06
0.00225128
-1.15305e-06
0.00222314
1.24792e-06
0.00219123
3.34671e-06
0.00215422
5.78217e-06
0.00211176
9.55977e-06
0.00206283
1.6091e-05
0.00201515
2.19357e-05
0.00198204
3.23377e-05
0.00195743
4.36449e-05
0.00194145
5.16478e-05
0.00193582
5.63698e-05
0.00194059
6.04038e-05
0.00195324
6.51583e-05
0.00195726
6.97064e-05
0.00195176
7.25098e-05
0.00193563
7.59358e-05
0.00191421
7.81924e-05
0.0018854
7.98954e-05
0.0018464
8.29091e-05
0.0018074
8.86039e-05
0.00177454
9.66927e-05
0.00174614
0.000106698
0.00172331
0.00011192
0.00170921
0.000117626
0.0017011
0.000122726
0.00168723
0.000121196
0.00166901
0.000116608
0.00163912
0.000112424
0.0015963
0.000111202
0.00154593
0.000114101
0.00149783
0.000118209
0.00145163
0.000121212
0.00140828
0.000123325
0.00136705
0.000119662
0.0013247
0.000113252
0.00127767
0.00011167
0.00122585
0.000111776
0.00117167
0.000110392
0.00111793
0.000106368
0.00106843
0.000102588
0.00102571
0.000100398
0.000989526
9.71185e-05
0.00095515
9.12188e-05
0.00092006
8.46803e-05
0.000879161
7.88655e-05
0.000832894
7.51055e-05
0.000785431
8.14297e-05
0.000744722
8.54715e-05
0.00070877
8.7701e-05
0.000674414
8.91584e-05
0.000639734
9.06287e-05
0.00060324
9.29218e-05
0.000563865
9.70272e-05
0.000520755
0.000102859
0.000472753
0.000111742
0.000419207
0.000126611
0.000361927
0.000148193
0.000301272
0.00018735
0.000240211
0.000247481
0.000180347
0.000279082
0.000119973
0.000581536
5.4169e-05
2.56937e-06
-1.43874e-06
0.00179051
-5.32607e-06
0.0018038
-9.06565e-06
0.0018179
-1.26318e-05
0.00183278
-1.60005e-05
0.00184842
-1.91502e-05
0.00186477
-2.2062e-05
0.00188176
-2.47196e-05
0.00189935
-2.71103e-05
0.00191745
-2.92245e-05
0.001936
-3.1056e-05
0.00195492
-3.26019e-05
0.00197411
-3.38625e-05
0.00199351
-3.48411e-05
0.00201301
-3.55437e-05
0.00203254
-3.59789e-05
0.00205202
-3.61575e-05
0.00207136
-3.60918e-05
0.00209048
-3.5796e-05
0.00210932
-3.52851e-05
0.0021278
-3.4575e-05
0.00214586
-3.3682e-05
0.00216344
-3.26226e-05
0.00218049
-3.14132e-05
0.00219695
-3.00698e-05
0.0022128
-2.8608e-05
0.00222798
-2.70424e-05
0.00224247
-2.53869e-05
0.00225623
-2.36545e-05
0.00226926
-2.18571e-05
0.00228153
-2.00053e-05
0.00229303
-1.81089e-05
0.00230374
-1.61762e-05
0.00231366
-1.42148e-05
0.00232278
-1.22307e-05
0.00233111
-1.02293e-05
0.00233865
-8.21463e-06
0.00234539
-6.18987e-06
0.00235133
-4.15729e-06
0.00235649
-2.11825e-06
0.00236087
-7.33513e-08
0.00236447
1.9776e-06
0.0023673
4.03546e-06
0.00236936
6.10174e-06
0.00237066
-7.92128e-05
0.0023712
-8.21548e-05
0.00238803
-8.46946e-05
0.00240544
-8.68249e-05
0.00242335
-8.85384e-05
0.00244166
-8.98287e-05
0.00246025
-9.06895e-05
0.00247902
-9.11151e-05
0.00249788
-9.14914e-05
0.00251671
1.05948e-05
0.00253541
5.05513e-06
0.0024843
1.12707e-05
0.00248806
1.80957e-05
0.0024904
2.35453e-05
0.00248993
2.71133e-05
0.00248607
2.91436e-05
0.00247743
3.19151e-05
0.0024708
3.4159e-05
0.0024642
3.81936e-05
0.00246161
4.13369e-05
0.00245612
4.68481e-05
0.00243633
5.34838e-05
0.0024072
6.14787e-05
0.00237098
6.9159e-05
0.00233474
7.28818e-05
0.00229955
7.75688e-05
0.00227348
8.50062e-05
0.00225275
9.10777e-05
0.00222695
9.71656e-05
0.00219277
0.000102067
0.00215457
0.000105832
0.0021115
0.000109584
0.00206156
0.000115202
0.00201355
0.000122389
0.00196645
0.000132297
0.00191859
0.000137778
0.00186676
0.000141365
0.00182119
0.000145517
0.00177733
0.000152399
0.00172759
0.000154614
0.00167899
0.000153626
0.00163055
0.000152337
0.00158011
0.000155384
0.00153341
0.000160992
0.00148821
0.000165293
0.00144521
0.00016722
0.00140357
0.000164289
0.00136075
0.000159456
0.00131263
0.000157818
0.00126025
0.000156207
0.00120539
0.000152744
0.00115037
0.000147952
0.00109879
0.000144811
0.00105442
0.000143505
0.00101656
0.000142191
0.000980374
0.000139419
0.000944031
0.000132568
0.000902917
0.000122414
0.00085443
0.00011268
0.00080105
0.000117276
0.000750855
0.00012152
0.000710129
0.000124797
0.00067283
0.000127543
0.00063565
0.000130815
0.000596896
0.00013563
0.0005564
0.000142908
0.000512859
0.000152571
0.000464416
0.000164974
0.000409948
0.000182984
0.000350964
0.00020633
0.000287593
0.000246803
0.000224252
0.000309469
0.000164938
0.000347408
0.000108092
0.000635961
4.62957e-05
-9.88994e-06
-1.47245e-05
0.00180973
-1.94246e-05
0.00182801
-2.3952e-05
0.00184705
-2.82702e-05
0.00186682
-3.23454e-05
0.00188729
-3.61469e-05
0.00190842
-3.96477e-05
0.00193014
-4.28248e-05
0.00195241
-4.56597e-05
0.00197514
-4.81385e-05
0.00199825
-5.02519e-05
0.00202167
-5.19951e-05
0.0020453
-5.33677e-05
0.00206906
-5.43735e-05
0.00209285
-5.50202e-05
0.00211658
-5.53186e-05
0.00214017
-5.52829e-05
0.00216352
-5.49294e-05
0.00218656
-5.42767e-05
0.00220921
-5.33447e-05
0.00223139
-5.21548e-05
0.00225303
-5.07285e-05
0.00227408
-4.90879e-05
0.00229448
-4.72549e-05
0.00231417
-4.52509e-05
0.00233311
-4.30966e-05
0.00235126
-4.08116e-05
0.00236859
-3.84147e-05
0.00238508
-3.59229e-05
0.0024007
-3.33522e-05
0.00241543
-3.0717e-05
0.00242927
-2.80299e-05
0.00244219
-2.53025e-05
0.00245421
-2.25444e-05
0.0024653
-1.97639e-05
0.00247548
-1.69679e-05
0.00248475
-1.41618e-05
0.00249311
-1.13498e-05
0.00250057
-8.5349e-06
0.00250713
-5.71875e-06
0.0025128
-2.90206e-06
0.00251759
-8.44952e-08
0.00252151
2.73519e-06
0.00252456
5.55909e-06
0.00252675
-9.6036e-05
0.0025281
-9.95711e-05
0.0025437
-0.000102604
0.00255984
-0.000105126
0.00257642
-0.000107129
0.00259333
-0.000108605
0.00261048
-0.000109546
0.00262775
-0.000109946
0.00264506
-0.000110117
0.00266228
-5.63737e-06
0.00267936
4.39816e-06
0.00262134
1.13893e-05
0.0026204
1.43452e-05
0.0026139
2.11508e-05
0.00260138
2.65852e-05
0.00258658
3.13884e-05
0.00256829
3.65424e-05
0.00255475
4.47564e-05
0.00254237
5.27471e-05
0.00253257
6.138e-05
0.00251467
7.21373e-05
0.00248381
8.30435e-05
0.00244491
9.2113e-05
0.00240715
9.88737e-05
0.00237402
0.000103122
0.00234872
0.000111003
0.00233204
0.000118095
0.00231796
0.000126135
0.00229426
0.000133901
0.00226093
0.000140615
0.00222203
0.000147357
0.00217682
0.000156962
0.00213003
0.000165274
0.00208475
0.000174652
0.00203646
0.00018447
0.0019962
0.00019039
0.00196298
0.000194155
0.00192908
0.00019945
0.00188727
0.000203127
0.00183833
0.000200176
0.00178934
0.000195216
0.00174071
0.0001927
0.00168853
0.000195784
0.0016325
0.000202921
0.00157748
0.000209082
0.00152645
0.000211161
0.00147902
0.0002092
0.00143201
0.000205633
0.00138187
0.000204051
0.00132819
0.000201579
0.00127078
0.000197121
0.00120991
0.000191965
0.00115026
0.000189265
0.00109711
0.000188319
0.00105367
0.000187498
0.00101499
0.00018598
0.000977267
0.000180879
0.000936726
0.000172899
0.000890441
0.000160726
0.0008387
0.000160136
0.000783896
0.000162383
0.000736275
0.000165029
0.000692802
0.00016817
0.000650064
0.000172509
0.000605991
0.000179346
0.000561808
0.000189249
0.000515907
0.000202249
0.000465652
0.000217958
0.000409473
0.000239325
0.000348965
0.000265148
0.000285291
0.00030587
0.000221899
0.000369306
0.000162576
0.000413728
0.000105431
0.000683936
4.41607e-05
-2.74098e-05
-3.30063e-05
0.00183173
-3.84606e-05
0.00185491
-4.37216e-05
0.00187878
-4.87404e-05
0.00190333
-5.34718e-05
0.00192854
-5.78744e-05
0.00195435
-6.19121e-05
0.00198072
-6.55539e-05
0.00200758
-6.87748e-05
0.00203484
-7.15556e-05
0.00206244
-7.38833e-05
0.00209027
-7.57509e-05
0.00211826
-7.71572e-05
0.00214629
-7.81063e-05
0.00217429
-7.86072e-05
0.00220214
-7.86736e-05
0.00222976
-7.83231e-05
0.00225706
-7.75763e-05
0.00228394
-7.64567e-05
0.00231033
-7.49898e-05
0.00233614
-7.32024e-05
0.0023613
-7.11222e-05
0.00238575
-6.87774e-05
0.00240943
-6.61959e-05
0.00243229
-6.3405e-05
0.00245427
-6.04311e-05
0.00247534
-5.72994e-05
0.00249547
-5.40336e-05
0.00251462
-5.06558e-05
0.00253278
-4.7186e-05
0.00254993
-4.36428e-05
0.00256606
-4.00423e-05
0.00258116
-3.6399e-05
0.00259522
-3.27253e-05
0.00260825
-2.90318e-05
0.00262025
-2.5327e-05
0.00263121
-2.1618e-05
0.00264116
-1.79098e-05
0.0026501
-1.42062e-05
0.00265803
-1.05093e-05
0.00266497
-6.81975e-06
0.00267093
-3.13713e-06
0.00267592
5.40271e-07
0.00267994
4.21526e-06
0.00268301
-0.000111641
0.00268514
-0.000115712
0.00269952
-0.000119181
0.00271437
-0.000122039
0.00272961
-0.000124275
0.00274512
-0.000125881
0.00276081
-0.000126849
0.00277658
-0.000127171
0.00279232
-0.00012713
0.00280793
-1.75261e-05
0.00282338
7.58499e-06
0.00270131
1.47248e-05
0.00267532
2.07972e-05
0.00264564
2.69131e-05
0.00261313
3.24451e-05
0.00257723
3.85486e-05
0.00253589
4.60302e-05
0.00249456
5.6456e-05
0.00245682
6.92159e-05
0.00241959
8.59303e-05
0.00237972
0.000100992
0.00234612
0.000112232
0.00231882
0.000119321
0.00230076
0.000123538
0.00229453
0.000133609
0.00229624
0.000142289
0.00229554
0.000149074
0.002283
0.000159869
0.00225866
0.000171867
0.00223065
0.000181347
0.0021981
0.000188742
0.00216113
0.000195634
0.00212463
0.00020431
0.00209347
0.000214505
0.00206196
0.000225206
0.00202702
0.000233679
0.00199178
0.000243314
0.00195804
0.000250776
0.00192653
0.000251769
0.00188941
0.000248207
0.00184475
0.000244892
0.00179462
0.000243794
0.0017404
0.000246423
0.00168204
0.000252253
0.00162168
0.000258042
0.00156303
0.000259426
0.00150884
0.000257086
0.00145617
0.000253931
0.00140159
0.000253274
0.00134438
0.000252519
0.00128508
0.000249199
0.00122533
0.000244166
0.00117057
0.000240043
0.00112437
0.000236474
0.00108636
0.000233359
0.00104986
0.000230599
0.00101309
0.000226053
0.000971614
0.000221305
0.000923299
0.000213221
0.000869942
0.000210485
0.000814337
0.000211238
0.000761491
0.000212156
0.000712302
0.000214667
0.000664677
0.000218728
0.000617647
0.000226164
0.000571126
0.000237309
0.000523712
0.00025249
0.000472143
0.000271246
0.000414604
0.00029537
0.000353243
0.00032397
0.000289783
0.000364537
0.000226367
0.000428552
0.000165748
0.000480113
0.000106646
0.000731982
4.35465e-05
-4.98839e-05
-5.61806e-05
0.00185652
-6.23335e-05
0.00188448
-6.82765e-05
0.00191308
-7.39469e-05
0.00194231
-7.92862e-05
0.00197215
-8.42414e-05
0.00200255
-8.87658e-05
0.00203345
-9.28193e-05
0.0020648
-9.63695e-05
0.0020965
-9.93914e-05
0.00212848
-0.000101868
0.00216065
-0.000103789
0.00219289
-0.000105152
0.00222512
-0.000105962
0.00225723
-0.000106229
0.00228913
-0.00010597
0.0023207
-0.000105206
0.00235185
-0.000103962
0.0023825
-0.000102267
0.00241254
-0.000100153
0.00244191
-9.76531e-05
0.00247052
-9.48006e-05
0.0024983
-9.16307e-05
0.00252519
-8.81779e-05
0.00255114
-8.4476e-05
0.0025761
-8.05577e-05
0.00260003
-7.64541e-05
0.00262289
-7.21944e-05
0.00264465
-6.7806e-05
0.0026653
-6.33138e-05
0.00268481
-5.87403e-05
0.00270319
-5.41058e-05
0.00272041
-4.94279e-05
0.00273648
-4.47221e-05
0.0027514
-4.00011e-05
0.00276517
-3.52757e-05
0.00277781
-3.05542e-05
0.00278931
-2.5843e-05
0.00279969
-2.11464e-05
0.00280897
-1.6467e-05
0.00281715
-1.18056e-05
0.00282425
-7.1615e-06
0.00283028
-2.53237e-06
0.00283526
2.08528e-06
0.00283919
-0.000126017
0.00284209
-0.000130566
0.00285523
-0.000134415
0.00286879
-0.000137552
0.00288268
-0.000139966
0.00289678
-0.000141648
0.00291101
-0.000142589
0.00292526
-0.00014278
0.00293943
-0.000142519
0.00295342
3.06404e-05
0.00296711
3.26511e-05
0.00290174
3.84512e-05
0.00289693
4.55396e-05
0.00288624
5.15838e-05
0.00287086
5.84152e-05
0.00285001
6.55489e-05
0.00283192
7.38931e-05
0.00282329
8.33636e-05
0.00281996
9.52767e-05
0.00280202
0.000109589
0.00276849
0.000120839
0.0027235
0.000129726
0.00267316
0.000137247
0.00262984
0.000146967
0.0025914
0.000155408
0.00256638
0.000164315
0.00254819
0.000173386
0.00252041
0.000186449
0.00248112
0.000199872
0.00243715
0.000208843
0.0023852
0.00021356
0.00232564
0.000218049
0.00226012
0.000229469
0.0021924
0.000248697
0.00212643
0.000266571
0.00207275
0.00027894
0.00203147
0.000288993
0.00199759
0.000294515
0.00196876
0.000295603
0.00193144
0.000294272
0.00188578
0.00029408
0.00183488
0.000296551
0.00177831
0.000301411
0.00171699
0.000307513
0.0016549
0.000311921
0.0015971
0.000312133
0.00154404
0.000308411
0.00149213
0.000304354
0.0014359
0.000303213
0.00137582
0.000301761
0.00131294
0.000297587
0.00125141
0.000291887
0.00119618
0.000287115
0.00114987
0.000283085
0.00111163
0.000279357
0.00107404
0.000276347
0.00103516
0.000272633
0.000991147
0.000269949
0.000940856
0.000265823
0.00088683
0.000264305
0.000832699
0.000265067
0.000781983
0.000265145
0.000734046
0.000265965
0.000686826
0.00026897
0.000639052
0.000275467
0.00059082
0.000286862
0.000540897
0.000303617
0.000486523
0.000325324
0.000426032
0.000351645
0.000363023
0.000383411
0.000299293
0.000423491
0.000234726
0.00048773
0.000172123
0.00054623
0.000110803
0.000781956
4.59009e-05
-7.71956e-05
-8.41346e-05
0.00188413
-9.09334e-05
0.00191674
-9.75096e-05
0.00194995
-0.000103785
0.00198374
-0.000109686
0.0020181
-0.000115148
0.00205297
-0.00012011
0.00208831
-0.000124525
0.00212404
-0.000128349
0.00216007
-0.000131553
0.00219634
-0.000134114
0.00223272
-0.000136019
0.00226913
-0.000137264
0.00230545
-0.000137854
0.00234159
-0.000137801
0.00237742
-0.000137125
0.00241285
-0.00013585
0.00244777
-0.000134008
0.00248209
-0.000131633
0.00251571
-0.000128762
0.00254855
-0.000125435
0.00258052
-0.000121694
0.00261156
-0.000117581
0.00264159
-0.000113136
0.00267056
-0.000108402
0.00269843
-0.000103417
0.00272514
-9.82185e-05
0.00275066
-9.28425e-05
0.00277498
-8.73216e-05
0.00279805
-8.16859e-05
0.00281987
-7.59627e-05
0.00284044
-7.01761e-05
0.00285973
-6.43475e-05
0.00287776
-5.84954e-05
0.00289453
-5.26351e-05
0.00291003
-4.67794e-05
0.00292429
-4.09385e-05
0.00293731
-3.51197e-05
0.00294911
-2.93282e-05
0.0029597
-2.3567e-05
0.00296909
-1.7837e-05
0.00297731
-1.2137e-05
0.00298436
-6.46431e-06
0.00299026
-8.14503e-07
0.00299503
-0.000139157
0.00299869
-0.000144127
0.00301058
-0.000148299
0.00302285
-0.000151658
0.00303537
-0.000154195
0.00304807
-0.000155899
0.00306083
-0.000156759
0.00307356
-0.000156768
0.00308615
-0.000156158
0.00309851
1.53292e-05
0.00311056
3.76489e-05
0.00303542
4.56593e-05
0.0030255
5.13652e-05
0.00301003
5.89863e-05
0.0029824
6.83097e-05
0.00295263
7.98456e-05
0.00293207
9.47456e-05
0.00292031
0.000108803
0.00290954
0.000127117
0.00288031
0.000144606
0.00283698
0.000157518
0.00278265
0.000166302
0.0027318
0.000173427
0.00268783
0.000182176
0.00265439
0.000192559
0.0026368
0.000202089
0.00262253
0.000213245
0.00259459
0.000229438
0.00255746
0.000249006
0.00251801
0.0002615
0.00247492
0.000268335
0.00242138
0.000278105
0.0023594
0.000291452
0.00229518
0.000303801
0.00223405
0.000314601
0.00217833
0.00032585
0.00212753
0.000333828
0.00208614
0.000338559
0.00205062
0.000340298
0.00200853
0.00034114
0.00195869
0.000344305
0.00190356
0.00035046
0.00184272
0.000357236
0.00177727
0.000362465
0.00171309
0.000365639
0.00165493
0.000364879
0.00160204
0.000360831
0.00154928
0.000356251
0.00148909
0.000353978
0.00142192
0.000351453
0.00134925
0.000346666
0.00128115
0.000340891
0.00122168
0.000336338
0.00117338
0.000332363
0.00113423
0.000328377
0.00109548
0.00032493
0.00105461
0.000321014
0.00100836
0.00031867
0.000956147
0.000316047
0.000901104
0.000315404
0.000847007
0.000315888
0.000796027
0.000316418
0.0007473
0.000318313
0.000699468
0.000321938
0.000651582
0.000328364
0.00060278
0.000340093
0.000551463
0.000358356
0.000496031
0.000382245
0.000435131
0.000409386
0.000371979
0.000444471
0.000307666
0.000484211
0.00024136
0.000548244
0.000176846
0.000612113
0.000113787
0.000834415
4.8574e-05
-0.000109218
-0.000116745
0.00191458
-0.00012414
0.00195171
-0.000131304
0.0019894
-0.00013814
0.00202763
-0.00014456
0.00206637
-0.000150483
0.0021056
-0.000155838
0.00214525
-0.000160564
0.00218524
-0.000164611
0.0022255
-0.000167939
0.00226593
-0.000170522
0.00230643
-0.000172343
0.00234689
-0.000173396
0.0023872
-0.000173688
0.00242725
-0.000173231
0.00246692
-0.000172048
0.00250611
-0.000170169
0.0025447
-0.000167629
0.0025826
-0.000164469
0.0026197
-0.000160733
0.00265592
-0.00015647
0.00269116
-0.000151727
0.00272536
-0.000146554
0.00275845
-0.000141
0.00279037
-0.000135114
0.00282106
-0.000128943
0.00285048
-0.00012253
0.0028786
-0.000115918
0.00290539
-0.000109146
0.00293083
-0.000102248
0.0029549
-9.52584e-05
0.00297759
-8.82046e-05
0.00299891
-8.11119e-05
0.00301884
-7.40021e-05
0.0030374
-6.68934e-05
0.00305459
-5.98007e-05
0.00307043
-5.27358e-05
0.00308493
-4.57076e-05
0.0030981
-3.87219e-05
0.00310997
-3.1782e-05
0.00312054
-2.4889e-05
0.00312984
-1.80413e-05
0.00313789
-1.12355e-05
0.00314469
-4.46635e-06
0.00315028
-0.000151056
0.00315467
-0.000156389
0.00316532
-0.000160826
0.00317628
-0.000164353
0.00318745
-0.000166957
0.00319873
-0.000168628
0.00321002
-0.000169354
0.00322122
-0.000169128
0.00323224
-0.000168154
0.00324297
6.9748e-06
0.00325335
4.35218e-05
0.0030988
5.36501e-05
0.00306566
6.14224e-05
0.00302845
7.08797e-05
0.00297943
8.12885e-05
0.00292663
9.7653e-05
0.00288698
0.000116873
0.00285262
0.000139677
0.00281756
0.000164379
0.00277824
0.000181422
0.00273478
0.000192823
0.00269966
0.000200376
0.00267278
0.000206137
0.00265783
0.000217463
0.00265406
0.000228606
0.00265175
0.000239136
0.00263685
0.000251325
0.00260851
0.000268491
0.00257575
0.000289725
0.00254292
0.000308482
0.00250788
0.000322064
0.00246697
0.000335854
0.0024169
0.000349698
0.00236029
0.000359558
0.00230349
0.000367182
0.00224987
0.000376052
0.00219787
0.00038334
0.00215524
0.000388153
0.00211816
0.000390338
0.00207362
0.000392673
0.00201989
0.000398259
0.00196023
0.000407214
0.00189362
0.000415209
0.00182141
0.000419714
0.00175061
0.000421612
0.00168717
0.000419724
0.00163083
0.000416272
0.00157469
0.000413351
0.00151282
0.000410896
0.00144632
0.00040634
0.00137532
0.000399804
0.00130729
0.000393262
0.00124745
0.000388795
0.00119886
0.00038452
0.00115821
0.000379889
0.00111736
0.000375546
0.00107366
0.00037103
0.00102453
0.000368214
0.000969677
0.000366053
0.000912452
0.000365669
0.00085699
0.000365815
0.000804826
0.000367031
0.000755022
0.000370021
0.000706445
0.000374806
0.00065771
0.000382597
0.000607565
0.000395446
0.000554899
0.000415251
0.000498616
0.00044123
0.000438219
0.000469349
0.000376249
0.000507583
0.000313
0.000546349
0.000246068
0.000609544
0.000180212
0.00067689
0.000115985
0.000888344
5.08491e-05
-0.000145815
-0.000153878
0.0019479
-0.000161824
0.00198942
-0.000169532
0.00203144
-0.000176888
0.00207396
-0.000183786
0.00211697
-0.000190129
0.00216041
-0.000195832
0.00220424
-0.000200823
0.00224837
-0.00020504
0.00229273
-0.000208438
0.0023372
-0.000210982
0.00238169
-0.000212654
0.00242609
-0.000213445
0.00247027
-0.000213362
0.00251412
-0.000212419
0.00255752
-0.000210642
0.00260036
-0.000208065
0.00264251
-0.00020473
0.00268388
-0.000200684
0.00272436
-0.00019598
0.00276386
-0.000190671
0.00280228
-0.000184815
0.00283956
-0.000178469
0.00287561
-0.000171692
0.00291038
-0.000164538
0.00294382
-0.000157064
0.00297587
-0.00014932
0.00300651
-0.000141355
0.0030357
-0.000133215
0.00306343
-0.000124942
0.00308968
-0.000116571
0.00311444
-0.000108138
0.00313771
-9.96711e-05
0.00315949
-9.11953e-05
0.00317979
-8.2732e-05
0.00319862
-7.42985e-05
0.00321599
-6.59083e-05
0.00323192
-5.75715e-05
0.00324643
-4.9295e-05
0.00325953
-4.10824e-05
0.00327125
-3.29347e-05
0.0032816
-2.48501e-05
0.00329061
-1.68243e-05
0.0032983
-8.85111e-06
0.00330468
-0.000161708
0.00330978
-0.000167348
0.00331918
-0.000171994
0.00332884
-0.000175632
0.00333864
-0.000178249
0.00334851
-0.000179833
0.00335833
-0.000180373
0.00336801
-0.000179861
0.00337745
-0.000178487
0.00338656
7.43198e-05
0.00339522
6.98921e-05
0.00333572
8.01322e-05
0.0033111
9.0391e-05
0.0032796
0.000101387
0.00324464
0.000113703
0.00322825
0.000129153
0.00322084
0.00014845
0.00319534
0.000171852
0.00315491
0.000192833
0.00310269
0.000206057
0.00303933
0.000214808
0.0029879
0.000224091
0.00294583
0.00023444
0.00291215
0.000246496
0.00289163
0.000256779
0.00287043
0.000267762
0.00283323
0.000280121
0.00278568
0.000296244
0.00273353
0.000316735
0.0026791
0.000339123
0.00262461
0.000363597
0.00256674
0.000385455
0.00250466
0.000401844
0.00244235
0.000412016
0.00238247
0.000419201
0.00232593
0.000427059
0.00227109
0.000434982
0.00222503
0.000440705
0.00218301
0.000444949
0.00213324
0.000449506
0.00207581
0.000457626
0.0020126
0.000469121
0.00194203
0.000477907
0.00186613
0.00048104
0.00179319
0.000480764
0.0017279
0.000477494
0.0016712
0.000472773
0.00161519
0.000468759
0.00155295
0.000465351
0.00148531
0.000460937
0.00141238
0.000454361
0.00134372
0.000448322
0.00128305
0.000444152
0.00123325
0.000439736
0.00118869
0.000434454
0.00114312
0.000428967
0.00109363
0.000423398
0.00103962
0.000419643
0.000981701
0.000416879
0.000922987
0.000415989
0.000866297
0.000416098
0.000812606
0.000417922
0.000761117
0.000421941
0.000710864
0.000428147
0.000660842
0.000437362
0.000609477
0.000451613
0.000555489
0.000472857
0.000498131
0.00050124
0.000438158
0.000530637
0.000377548
0.000572052
0.000316184
0.000608667
0.000249692
0.000670597
0.000183799
0.000740361
0.000119083
0.000942079
5.34412e-05
-0.000186837
-0.00019539
0.00198413
-0.000203844
0.00202987
-0.000212057
0.00207607
-0.000219894
0.00212275
-0.000227231