/*--------------------------------*- C++ -*----------------------------------*\
| =========                 |                                                 |
| \\      /  F ield         | OpenFOAM: The Open Source CFD Toolbox           |
|  \\    /   O peration     | Version:  2.2.x                                 |
|   \\  /    A nd           | Web:      www.OpenFOAM.org                      |
|    \\/     M anipulation  |                                                 |
\*---------------------------------------------------------------------------*/
FoamFile
{
    version     2.0;
    format      ascii;
    class       volScalarField;
    location    "2";
    object      pB;
}
// * * * * * * * * * * * * * * * * * * * * * * * * * * * * * * * * * * * * * //

dimensions      [1 1 -3 0 0 -1 0];

internalField   nonuniform List<scalar> 
14161
(
-0.00408385
0.000399719
-0.000230195
-0.000179429
-0.000240679
-0.000277187
-0.000312931
-0.000357839
-0.000393543
-0.00040621
-0.00046146
-0.000493674
-0.000469541
-0.000530991
-0.000520543
-0.000518038
-0.000508142
-0.000492669
-0.000458512
-0.000418442
-0.000371835
-0.00031761
-0.000249286
-0.000176179
-0.000104682
-3.03702e-05
1.35303e-05
0.000106841
0.000189693
0.000283369
0.000373579
0.000406766
0.000314681
0.000139129
-0.000663294
-0.0031735
-0.00766823
-0.0169215
0.0687349
0.045947
-0.0107702
-0.00420098
-0.00373243
0.00104819
0.000661841
0.00185203
0.000951717
0.00150984
0.00158241
0.000992374
0.00140441
0.000458013
0.000986628
0.000248287
0.00037874
-0.000321878
-0.000204982
-0.000384841
-0.000435661
-0.000363889
-0.000363656
-0.000438985
-0.000409755
-0.000422691
-0.000287887
-0.000138865
-0.00016286
-6.64832e-05
4.8782e-05
4.9062e-05
5.90523e-05
0.000397365
0.000826616
0.000699676
0.000222879
-0.000341155
2.59786e-05
0.000977337
0.000904463
-0.000234658
-0.000682542
-0.000197131
0.000294328
0.0012445
0.000708984
-3.75028e-05
0.00128239
0.00191707
-1.77303e-05
0.000489785
0.000648114
0.000483159
0.00103704
0.000697829
0.00129202
5.63382e-05
-0.0010696
-0.00196939
-0.00123159
-0.00079171
-0.00157562
-0.000757165
0.0010655
0.000965617
-0.00155069
0.00201959
8.6791e-05
0.000970754
-0.000552718
0.00189911
-0.00104108
0.00125459
-0.00102842
0.00144312
-0.00185027
0.0017683
-0.00497066
0.00411938
-0.00944426
-0.00408907
0.000402644
-0.000230276
-0.000179989
-0.000240045
-0.000276935
-0.000314361
-0.000356716
-0.000392239
-0.000407982
-0.000461971
-0.000492027
-0.000474751
-0.000529604
-0.00052463
-0.000520338
-0.000507991
-0.000494797
-0.000459349
-0.000418228
-0.000372825
-0.000318631
-0.000250786
-0.000177638
-0.000107405
-3.52495e-05
2.95928e-05
0.000134055
0.00022872
0.000359898
0.000513613
0.000659268
0.000734211
0.00062738
0.000621822
-0.000721566
0.000420052
-0.0183909
0.0580958
0.0142574
-0.00848963
0.00514722
-0.00253455
0.00446656
-0.000259656
0.00211607
-0.000257087
0.000970004
1.47638e-05
0.000134592
0.00100306
-0.00110511
0.000346513
0.000118529
0.000631183
-0.000354313
0.000384372
-2.45717e-05
0.00051042
0.000183803
-4.78349e-05
-3.58631e-05
-0.000354926
-8.98678e-05
6.93152e-05
-0.000110003
-5.85836e-05
-3.37784e-05
-8.87953e-05
-5.53165e-05
-0.000253101
-0.000155669
-3.23571e-05
-0.000452706
-0.000800873
-0.000226509
0.0012229
0.00209287
-0.00147645
-0.00400744
0.00225291
0.00756999
0.00142863
-0.00434278
-0.000258916
0.00667407
-0.00112699
-0.00815427
0.00956487
0.00959808
-0.010183
6.57239e-05
0.00557536
0.00142458
-0.000486494
-0.000246722
-0.000251727
0.000481406
-0.000776905
-0.000335839
-0.00026446
0.00240742
-0.000440428
-0.000838866
0.00191683
0.00131856
-0.000414769
0.00214539
-0.000297083
0.0026217
-0.000360459
0.00231509
0.0001151
0.002896
-0.000242561
0.00340461
-0.00230338
0.00359203
-0.00401579
-0.00408737
0.000401743
-0.000230516
-0.000180255
-0.000241314
-0.000277102
-0.00031377
-0.0003559
-0.000393676
-0.000413279
-0.000458602
-0.000489804
-0.000483109
-0.000524366
-0.000523575
-0.000519571
-0.000510471
-0.000487712
-0.000464121
-0.000422339
-0.000372233
-0.000320179
-0.000254196
-0.000179955
-0.000112397
-3.72925e-05
4.21319e-06
6.67027e-05
0.00013605
0.000206151
0.000227429
0.000208146
0.000218065
3.19207e-05
5.65905e-05
0.000167485
0.00156004
0.00327322
0.00784419
0.045332
0.00588778
0.00647926
-9.89256e-05
0.00641083
0.00102215
0.00224056
0.00112631
0.00114721
0.00222634
0.00087157
0.00134436
0.000518046
0.000845417
-2.82542e-05
-0.000113689
-0.000536982
4.63736e-05
-0.00174049
0.000407752
-0.00110439
-0.00176616
-0.000768648
-0.0018083
-0.000279248
-0.000607178
-0.000476033
-0.000145639
6.30091e-05
6.44012e-05
0.00027151
0.000519656
0.00052608
0.000313775
0.000230625
0.000463023
0.000620063
0.000132957
-0.000845504
-0.000199776
0.00255394
-0.000455535
-0.0101972
0.00715934
0.0103716
-0.010022
-0.0170403
0.0254303
0.015193
-0.0333437
-0.010139
0.0293574
-0.00118301
-0.0106096
-0.00016841
0.00364361
0.00210809
0.00158294
0.000697415
0.00216385
0.00306341
0.000580367
-0.00292756
0.000992517
0.00392088
-0.00196435
0.000389294
-0.000674649
0.00147022
-0.00117435
0.00143949
-0.00146002
0.00108504
-0.00189678
0.000746476
-0.00281042
0.000791135
-0.00361086
0.00221472
-0.00352241
-0.00408882
0.000400865
-0.000231058
-0.000180916
-0.000240791
-0.000277315
-0.000317755
-0.000355642
-0.000389844
-0.0004188
-0.000453904
-0.000486821
-0.000489028
-0.000518371
-0.000526966
-0.00052475
-0.00051
-0.000496752
-0.000464998
-0.000422574
-0.000375994
-0.000323018
-0.000254049
-0.000178962
-0.00010438
-2.49176e-05
2.77893e-05
0.000150954
0.000263507
0.000452917
0.000671111
0.00103885
0.00144102
0.00219439
0.00349851
0.00532613
0.00973232
0.00819015
0.00056473
0.036592
-0.00579614
0.0128209
-0.00394984
0.0070212
-0.00140526
0.00367774
-0.00207975
-2.53276e-05
-0.000237166
-0.00332906
-0.000268722
-0.000386997
-0.00171563
-0.00231031
-0.000363836
-0.000860982
-0.00117041
-0.000858758
-0.00160784
2.59395e-05
0.000186016
0.000700997
0.00105836
-0.000616179
0.000431085
0.000580097
-0.000370151
1.10582e-05
0.000381728
-0.000389197
-0.000207395
0.000350137
-2.35303e-05
5.18758e-06
-0.000413962
-0.000482618
0.00226852
-0.00141755
-0.00445287
-0.000202184
0.0132747
0.00424947
-0.0204053
-0.0166011
0.0422601
0.0145811
-0.0429524
-0.0155984
0.0651335
0.0029873
-0.0577251
0.0309913
0.0264683
-0.0124967
-0.00590002
0.00451523
0.000464959
0.00086021
-0.00206569
-0.000850389
0.00297633
0.00144292
-0.00339782
0.000227607
0.000250334
-0.000266996
-0.00127442
0.00112508
-0.00162931
0.00127268
-0.00161163
0.00157496
-0.00150059
0.00190256
-0.00159028
0.00217881
-0.00195421
0.00225829
-0.00169811
-0.00408573
0.000398777
-0.000231775
-0.000181466
-0.000242286
-0.000277365
-0.000316207
-0.000354753
-0.000390548
-0.000428785
-0.000446476
-0.000482919
-0.000503334
-0.000517931
-0.000528633
-0.000528135
-0.000514769
-0.000492274
-0.000467251
-0.000425815
-0.000377959
-0.000324325
-0.000261797
-0.000187195
-0.000129401
-5.75729e-05
-2.50279e-06
3.28023e-05
8.47312e-05
0.0001089
0.000109289
6.09152e-05
7.10936e-05
0.000102407
0.000357515
0.00101204
0.00291284
-0.00346536
-0.00568594
0.0479129
0.00687963
0.0118202
-0.00263113
0.00799155
-0.00121378
0.00151978
0.00267861
0.0024273
0.00148302
0.00166285
0.00234271
-0.00012445
0.00205446
0.000575569
0.00101214
-0.000919739
0.000649555
-0.000936624
-0.000270991
-0.00116613
-0.00197268
-0.000664725
-0.00130653
-0.00176796
-0.000569196
-0.000542151
-0.000775469
8.80855e-06
-0.000111078
-9.76393e-05
-0.000273663
-0.00037149
0.000180976
0.00030799
0.000573045
0.000568201
-0.00126709
-0.00179594
0.00425201
0.00407064
-0.00676235
-0.0104371
0.0148617
0.0178604
-0.0153322
-0.0256745
0.0398125
0.0193366
-0.0510506
0.00849957
0.0465513
-0.0218253
-0.0308804
0.0217669
0.00924694
-0.00279873
0.000481689
0.00239917
0.00336143
0.00215419
-0.00205749
-0.000869915
0.00474017
-2.90439e-05
-0.00266827
0.00160428
-0.000505388
0.000543304
-0.00155972
0.00180031
-0.00170658
0.00138373
-0.00186005
0.00136228
-0.00214167
0.00141438
-0.00246199
0.00186658
-0.00210645
-0.00408517
0.000396762
-0.000232761
-0.000182801
-0.000242351
-0.000278181
-0.000321422
-0.000352247
-0.00039289
-0.000430767
-0.000446256
-0.000487324
-0.000509187
-0.000507945
-0.000532478
-0.000531258
-0.000519016
-0.000499292
-0.000472814
-0.000433642
-0.000383509
-0.000328303
-0.000261796
-0.000186118
-0.000111911
-2.89742e-05
1.92534e-05
0.000153378
0.000278459
0.000490903
0.000772117
0.00122015
0.00185705
0.00291823
0.00482005
0.00803339
0.0117919
0.0152368
-0.00990991
0.0392507
-0.00251833
0.0113204
-0.00356197
0.00739093
-0.00221619
0.00375983
0.00066597
-0.000442684
0.000705973
-0.0015707
-0.00054771
-0.00198808
-0.000444844
-0.0012886
-0.000134779
-0.00103406
0.000412439
-0.000636795
0.000368476
0.000993046
7.90277e-05
0.00089218
0.000568915
-2.4468e-05
0.00086881
1.93663e-06
-4.40679e-05
0.00053696
-8.31377e-05
7.81009e-05
0.000181418
-3.56287e-05
0.000177486
0.000519302
-0.000122481
-0.000403502
0.000957621
0.00155066
6.06746e-05
-0.00205723
-0.000872937
0.00573185
0.00190472
-0.00651842
-0.00523826
0.0162734
-0.00620923
-0.00622279
0.00719409
0.00741169
-0.0244312
0.00419389
0.0182527
-0.00774356
-0.00216683
-0.000761689
0.0020836
0.000519207
-0.00238904
-0.00110431
9.22861e-05
0.00188699
-0.00323072
-0.000911987
0.000788782
6.47429e-05
-0.00208947
0.00138421
-0.00196804
0.000973896
-0.0018206
0.0015484
-0.00171728
0.00191566
-0.00184477
0.00212417
-0.00187477
0.00233442
-0.00180424
-0.00408132
0.0003941
-0.000234015
-0.000183555
-0.000244114
-0.000277893
-0.000321487
-0.000351725
-0.000392187
-0.000436706
-0.000444517
-0.000481757
-0.000518875
-0.000504679
-0.000539577
-0.000533922
-0.000525925
-0.000492721
-0.000477457
-0.000438619
-0.000387154
-0.00033129
-0.000273459
-0.000205285
-0.000142413
-8.34411e-05
-2.75067e-05
4.37624e-06
2.30439e-05
1.13209e-05
-4.32163e-05
-0.000158858
-0.000327131
-0.000540176
-0.000769876
-0.00094599
-0.000440441
-0.000299774
-0.0136189
0.0504978
0.0137727
0.00995585
-0.000425934
0.00487418
-0.00277515
0.00026636
-0.00111333
-0.00367258
-0.000665325
-0.00166733
-9.66345e-05
-0.00185537
0.000320801
-0.00155706
-5.65588e-06
-0.00104214
-0.00041989
-0.000716451
3.50469e-05
-0.000646832
-0.000100117
-0.000492593
-0.000402619
-0.000217171
-0.00037421
-0.000485908
-0.000492182
-0.000474411
-2.05036e-05
-0.000363303
-2.44862e-05
-0.000250114
-3.73503e-05
-0.000386902
-7.79003e-05
0.000149934
-0.000277015
-0.000428047
-0.000904404
0.00146023
0.000521139
9.99431e-05
-0.00130499
0.00451822
0.00100713
0.00312336
-0.00111136
0.00537002
-0.00113448
-0.0006401
0.00340776
0.00414872
-0.00825177
-0.00118814
0.00957085
0.000945356
0.00215998
0.000312731
0.00152975
0.00303062
0.00103279
-0.000389744
2.53966e-06
0.00187756
-0.00106628
0.000220254
0.000114724
0.000705471
-0.00117423
0.00159063
-0.0018758
0.00161217
-0.00197827
0.00153688
-0.00216951
0.00168843
-0.00223256
0.00193157
-0.00209339
-0.00408026
0.000391583
-0.00023558
-0.00018526
-0.000244714
-0.000277622
-0.000325419
-0.000352321
-0.000394114
-0.000434368
-0.000445835
-0.00048673
-0.000524653
-0.000500513
-0.000544702
-0.000536862
-0.000529969
-0.000506247
-0.000483273
-0.000446605
-0.000399379
-0.000344536
-0.000277425
-0.000200198
-0.000126363
-4.0261e-05
1.1199e-05
0.000130443
0.000258449
0.000456383
0.000715592
0.00102249
0.00148882
0.00216601
0.00300511
0.00336545
0.00481676
-0.00720592
0.0407366
0.051654
-0.00303799
-0.00101236
0.00290962
0.00924672
0.00248992
0.00551287
0.0044629
0.00247015
0.00290856
0.000135878
0.000489573
-0.000621981
-0.000219993
-0.00045366
-0.000190481
-0.000329952
-8.49959e-05
-0.000214249
-0.000249591
3.58007e-05
-2.94417e-06
-3.86889e-05
0.000259652
0.00012698
6.54938e-05
0.000155618
1.92293e-05
2.10896e-05
0.000156705
-0.000138384
0.000101661
-0.000336848
-0.000116194
-9.01264e-05
0.000167408
0.000124558
-0.000339353
-3.44503e-05
-0.000704825
0.000651952
-0.00163592
0.000558092
-0.00163733
0.00113086
-0.00209469
0.00214633
-0.00028852
0.00211891
-0.00340354
0.00166936
-0.00103462
-0.00766894
0.00517219
-0.00419513
0.000389645
-0.00248647
0.000531256
0.000861421
-0.000767454
-0.00178686
-0.00136188
0.000740181
-0.000810752
-0.000374151
-0.000900708
4.73747e-05
-0.00126102
-0.000501227
-0.00114119
0.00103386
-0.00199927
0.00178264
-0.0021012
0.00201376
-0.00201582
0.00221923
-0.00196796
0.00216424
-0.00192553
-0.0040763
0.000388826
-0.000237086
-0.000186264
-0.000246459
-0.000279262
-0.000324461
-0.000353542
-0.000393522
-0.000442295
-0.000447524
-0.000483894
-0.000531215
-0.000503371
-0.000547731
-0.000544625
-0.00053201
-0.0005139
-0.000486873
-0.000452467
-0.000405977
-0.000353007
-0.000289864
-0.000227579
-0.000161609
-0.000107889
-5.11465e-05
-2.6054e-05
-1.32491e-05
-5.44935e-05
-0.000191801
-0.000376188
-0.000845427
-0.00178156
-0.0033116
-0.00626799
-0.0085791
-0.0185005
0.0354931
0.0164022
0.00793599
-0.00947161
-0.00776704
-0.00568299
-0.00685713
-0.00184198
-0.00348896
-0.00298771
-0.000484544
-0.00156212
-0.000231857
-0.00105022
6.53179e-05
-0.00106438
-0.000764511
-0.000950275
-0.000625412
-0.00102308
-0.000827546
-0.000919213
-0.000807197
-0.000793891
-0.00078601
-0.000780353
-0.000641351
-0.000580061
-0.000602444
-0.00026653
-0.000466686
-0.000277033
-0.000387712
-0.000380639
-0.000120092
2.80426e-05
4.94012e-05
0.000319658
-0.00035133
-6.00992e-05
-0.00081169
0.000502796
-0.0011121
0.000159007
-0.00295951
-0.000568377
-0.000986884
-3.06546e-05
-0.000766348
0.00121722
0.0030383
-0.00121941
0.00289379
-0.0058026
0.00817457
-0.0048929
0.00718998
-0.00223193
0.00225866
-0.000339198
0.000668653
0.001884
0.0010326
0.000888944
-5.31944e-05
0.000985075
-0.000319588
0.000479177
-0.000591632
0.000948472
-0.00121071
0.00157061
-0.00152443
0.00180139
-0.00213182
0.00188287
-0.00228201
0.0019778
-0.00249132
0.00224505
-0.00256794
-0.00407517
0.000386308
-0.000239128
-0.000188143
-0.000247589
-0.000279772
-0.000326968
-0.000355888
-0.000395331
-0.00043964
-0.000460259
-0.000479444
-0.000536599
-0.000519646
-0.000541712
-0.000555365
-0.000538761
-0.000525547
-0.00049344
-0.00046811
-0.000420819
-0.000365746
-0.000300898
-0.000227646
-0.000149877
-6.59816e-05
-4.03791e-07
8.98961e-05
0.000218285
0.000368638
0.00054042
0.000712053
0.000967827
0.00116081
0.0016161
0.00143411
0.00395556
0.00964486
0.0672062
0.0855098
-0.0155879
-0.0128729
-0.00800249
0.00232566
-0.00374392
0.00216818
0.00143064
-5.28847e-05
0.0016447
-0.00132373
-0.00182737
-0.00167562
-0.002145
-0.00155916
-0.00183292
-0.000627777
-0.00157522
-0.000295173
-0.00105126
-7.03415e-05
-0.000616985
9.1215e-05
-0.000582326
2.15227e-05
-0.000376961
-5.3606e-05
-0.000254776
-4.30675e-06
-0.000172544
-0.000115124
-0.000110415
-1.53563e-06
0.000110563
0.000490784
0.000444982
0.000930799
0.000225434
0.00104179
-7.05296e-05
0.00236155
-0.000893419
0.00304229
-0.000913591
-0.000208164
0.00110053
-0.00494296
-0.000728586
-0.000680819
-0.000737635
-0.00179451
0.00316151
-0.00715807
0.00488686
-0.00729657
0.00520101
-0.00326044
0.00276993
-0.000876971
-0.00132245
-0.000160117
-0.0016289
-0.000594952
-0.00121871
-2.6712e-05
-0.0010688
0.000371477
-0.000875945
5.82799e-05
-0.000869578
0.00087455
-0.00237186
0.001619
-0.0024168
0.0022106
-0.00238505
0.00223327
-0.00247548
0.00255603
-0.00261965
-0.00407169
0.000383733
-0.000240911
-0.000189492
-0.000249271
-0.000281983
-0.000326753
-0.000357212
-0.000396473
-0.000442722
-0.000462331
-0.000480839
-0.000536387
-0.000531904
-0.000535079
-0.000567453
-0.000543557
-0.000537572
-0.000502216
-0.000476412
-0.000430866
-0.00037798
-0.000324361
-0.000259353
-0.000184663
-0.000129781
-6.58639e-05
-2.30832e-05
2.36419e-06
-4.60136e-06
-4.4491e-05
-0.000139712
-0.000326464
-0.000688885
-0.00134816
-0.00256934
-0.00355288
-0.00376717
0.0362743
0.0603708
0.011723
-0.0253942
-0.00534958
-0.00624595
-0.00582789
-0.00695503
-0.00560818
-0.00405223
-0.00417046
0.000515169
-0.00291147
-0.000113976
-0.00111491
0.000228711
-0.000747328
-0.0002136
-0.000957333
-0.000222144
-0.000917686
-1.51904e-05
-0.000854748
-6.82031e-05
-0.00102034
-0.000133382
-0.00109559
-0.000148418
-0.000740865
-0.000317377
-0.000397575
-0.000596752
-0.000212659
-0.000903207
-3.75875e-06
-0.000504669
-0.000183883
-0.000472165
-0.000626036
-0.000887853
-0.000968495
0.000301737
-0.00148242
-0.00036998
-0.000229924
0.000720998
0.00166841
-0.000129103
0.00377418
-0.000956445
0.00196415
-0.0023665
0.00398825
-0.0044681
0.00492154
-0.00279382
0.00493855
-0.00204322
0.00201849
0.000194721
0.00155592
0.0011999
0.000744913
0.000602972
-8.94867e-05
0.000636699
-2.4492e-05
8.87083e-06
7.94712e-05
-0.000105844
-0.000539137
0.000153003
-0.00148482
0.00158984
-0.002396
0.00226944
-0.00261339
0.00231415
-0.00280968
0.00256808
-0.00294288
-0.00407086
0.000381514
-0.00024321
-0.000191494
-0.00025075
-0.00028303
-0.000327223
-0.000366513
-0.000393618
-0.000441554
-0.000473464
-0.000480351
-0.000539918
-0.000543974
-0.000538453
-0.000573255
-0.000561291
-0.000544244
-0.000522539
-0.00048805
-0.000452641
-0.000398284
-0.000341575
-0.000263833
-0.000184211
-9.74862e-05
-1.46661e-05
6.41446e-05
0.000177081
0.000308856
0.000448385
0.000523177
0.000587365
0.000498192
0.000399944
-0.000918087
0.000919029
-0.0117491
0.0498032
0.0475172
-0.0028503
-0.00429364
-5.10621e-05
0.000392919
-0.000419417
0.00254644
0.000337231
0.00153599
-0.00159094
0.000797837
-0.00245111
0.000421708
-0.0019547
-0.000488694
-0.00222103
-0.000622489
-0.00171276
-0.000597933
-0.0018343
-0.000701739
-0.00131839
-0.00066382
-0.000995801
-0.000611607
-0.000795253
-0.000201668
-0.000406055
-9.08024e-05
-0.0004317
8.47738e-05
-0.000574996
0.000379973
-0.000189879
0.00019161
0.000256327
-0.000276006
0.000907727
-0.00111164
0.00282869
-0.0015678
0.00443724
-0.00115164
0.00268322
0.0013697
0.000816652
-0.00120839
6.74457e-05
-0.00197099
-0.000635121
-0.00311525
0.000616486
-0.00634588
0.00318196
-0.00314862
0.00394196
-0.000118444
0.000316018
-0.000764941
-0.00100936
-0.00019397
-0.00103784
-0.000689162
-0.000995519
-0.000431112
-0.000640041
-0.000411463
-0.000783386
-0.000317559
-0.000276473
-0.000433676
-0.000232722
0.000857913
-0.00192435
0.00234462
-0.00294029
0.00275418
-0.00301821
0.00290839
-0.00304513
-0.00406842
0.000379344
-0.000245198
-0.000193031
-0.000252782
-0.000285481
-0.000328077
-0.000367126
-0.000396589
-0.000440684
-0.000478453
-0.000493506
-0.000528434
-0.00055939
-0.000549847
-0.000570492
-0.000575431
-0.000549484
-0.000537145
-0.000501364
-0.000470577
-0.000414044
-0.000364376
-0.000306182
-0.000227131
-0.00015402
-7.91255e-05
-3.90511e-06
4.48776e-05
0.000165942
0.000290077
0.000393903
0.000687501
0.000942335
0.00139558
0.00173056
0.00606551
-0.00189908
0.0522621
0.0582636
-0.0148742
0.0031455
-0.0052495
-0.000274783
-0.00376069
-0.00128856
-0.00389288
-0.00227687
-0.00445764
-0.00224213
-0.00636888
-0.00103608
-0.00342301
-0.000379649
-0.00171621
-0.00024627
-0.00135671
0.000124747
-0.000667709
2.75834e-05
-0.000387188
-0.000486298
-0.000434245
-0.00062001
-0.000473445
-0.000415891
-0.000410894
-0.000402961
-0.000426577
-0.000212088
-0.000585457
-0.000289372
-0.000650859
-0.000640953
-0.000407756
-0.00137106
-0.000799438
-0.00253577
4.02408e-06
-0.00503248
0.00135485
-0.00128877
0.000639961
0.00334737
0.00194212
-0.000513083
0.00376884
0.000509206
0.00486166
0.000143834
0.00255047
-0.000624878
0.000607665
-0.000558023
0.000886185
2.64974e-05
2.47604e-05
0.000287432
0.00139059
0.000410642
-0.000578152
0.000359936
-0.000584718
3.03654e-05
-0.00046371
-0.000162982
-0.000573907
-0.000236165
-0.000170672
-0.000264283
-0.000577567
0.000161212
-0.00168872
0.00134668
-0.00285181
0.0026456
-0.00328506
0.00314506
-0.00340245
-0.0040684
0.000377563
-0.000247614
-0.00019515
-0.000254714
-0.000286993
-0.000328058
-0.000371965
-0.000401031
-0.000441037
-0.000487077
-0.000499466
-0.000525891
-0.000576549
-0.000564582
-0.000562245
-0.000602363
-0.000563996
-0.000556595
-0.000532463
-0.000493166
-0.000439954
-0.000387607
-0.000325336
-0.000237317
-0.000147523
-4.57308e-05
1.669e-05
0.000170813
0.000321999
0.000521873
0.000730707
0.000877008
0.000981774
0.00172547
0.00156776
0.00417106
-0.0029012
0.0330552
0.0564028
-0.0143627
0.00487555
-0.00336686
5.60207e-05
-0.00219037
-0.000608608
-0.00419828
-5.27304e-05
-0.00337812
0.000792349
-0.00522666
0.000632437
-0.00336322
0.000576613
-0.00170259
0.000469839
-0.000829322
0.000595584
-0.000406874
0.000343362
-0.000235376
0.000333184
0.00022402
0.000535367
0.000615975
0.00055809
0.000628298
0.000127059
0.000212477
-0.000198232
3.5374e-05
-5.99741e-05
0.000591257
0.000505814
0.00200506
0.00167843
0.00381132
0.00296671
0.0074851
0.00267067
0.0104327
0.00356224
0.00222819
0.000824219
0.000112739
-0.00362755
0.00162234
-0.00599981
0.000797634
-0.00400818
0.00147828
-0.000623613
0.000880456
-0.000369607
-0.00097937
0.00146117
-5.25733e-05
0.000183854
-0.000828053
-0.00101153
-0.000257769
-0.00128707
-0.00145795
-0.000769953
-0.000684884
-0.000403094
-0.000776553
-0.000442824
-0.000610725
0.000392007
-0.00108768
0.00043187
-0.00152747
0.00194741
-0.00259185
0.00269655
-0.00313463
0.00328982
-0.00353292
-0.00406732
0.000375988
-0.000249762
-0.000196892
-0.000256956
-0.000289485
-0.000328646
-0.000375721
-0.000406603
-0.000436918
-0.000493271
-0.000515403
-0.000518011
-0.000587722
-0.000588304
-0.000558284
-0.00061566
-0.000593191
-0.000563308
-0.0005539
-0.000512867
-0.000468621
-0.000419534
-0.000373396
-0.000302573
-0.00021324
-0.00011829
-3.37218e-05
5.37269e-05
0.000208371
0.000407937
0.000815227
0.00149628
0.00293675
0.00446509
0.00754454
0.0127969
0.00602304
0.0479409
0.0479494
-0.0211625
0.00199676
0.000620696
0.000149224
-0.00157801
0.000599337
-0.00297811
0.00164665
-0.00276205
0.0027396
-0.00295088
0.00226602
-0.000954427
0.00151272
-0.000577282
0.000817338
-0.000679794
0.000604622
-0.0003935
0.000192315
-0.000647904
-0.000470169
-0.000492749
-0.000397001
-0.000481906
-0.000654164
-0.000309409
-0.000856804
-0.000546432
-0.000636918
-0.000301719
-0.000462985
8.2334e-05
-0.000717767
-0.00030852
-0.000601131
-0.00188694
-0.000905489
-0.000567495
-0.00264621
-0.0018217
0.00355591
-0.0055802
0.00161661
-0.000256307
-0.00196025
0.00281151
-0.00105488
0.00104181
-0.00143801
-0.000169161
-0.000984189
-0.0004945
0.00043613
0.00164795
0.000821381
0.000660488
0.000468309
0.00120894
0.00217613
-0.000276205
0.000770819
0.000233058
-0.000141602
-0.000324609
-0.000438242
3.75376e-06
-0.000431507
-0.000530173
0.000673233
-0.00139359
0.000727609
-0.00129148
0.00143913
-0.00254388
0.00241046
-0.00310725
0.00330006
-0.00382345
-0.00406845
0.000374666
-0.000252109
-0.000198753
-0.000259474
-0.000291577
-0.000330814
-0.000378795
-0.000414162
-0.00043629
-0.000501125
-0.000524292
-0.000520541
-0.000596506
-0.00060201
-0.000572319
-0.000624047
-0.000621122
-0.000574532
-0.000576929
-0.000552779
-0.000507246
-0.000449137
-0.000398935
-0.000330903
-0.000248896
-0.000159008
-3.39374e-05
3.9536e-05
0.000129805
0.000313547
0.00046546
0.000646181
0.000700223
0.00104506
-0.000169758
0.00302189
-0.0096144
0.0474507
0.052215
-0.0241432
0.0148155
-0.00847572
0.00464964
-0.00152509
0.00226785
-0.00281249
0.00194283
-0.00449362
0.00158042
-0.0033538
-0.000753137
-0.00274244
-0.00104231
-0.00223843
-0.00143672
-0.00158126
-0.00185955
-0.00130627
-0.00058467
-0.00120065
-0.000761699
-0.000564246
-0.000287667
-0.000358752
-0.000131739
0.000284479
-0.00024021
-0.000130378
-0.000737873
0.000252989
-0.000936636
0.000799313
-0.00049611
0.000719495
4.27313e-05
0.000209608
0.00289818
-0.00236021
0.00546086
-0.00592838
0.0106578
-0.00378865
-0.00068402
-0.00312536
-0.00596062
-0.00372141
-0.00427425
-0.00331087
-0.00160973
-0.00256617
0.00046905
-0.0044273
0.000462316
-0.000369152
-0.00135452
0.00189253
-0.00033474
-0.000851445
-0.00157296
-0.00136063
-0.0001054
-0.000505711
-0.000603273
-8.43539e-05
-0.000292173
-0.000214639
-0.000345754
-0.000505904
0.00051543
-0.00138528
0.00026366
-0.00137896
0.000767507
-0.00211776
0.00243308
-0.00279807
0.00326181
-0.00394355
-0.00406893
0.000373641
-0.000254328
-0.000200584
-0.000262011
-0.000294481
-0.000332618
-0.000380931
-0.000419469
-0.000437295
-0.000504782
-0.000535139
-0.000530769
-0.000595858
-0.000616734
-0.00060314
-0.000616904
-0.000648788
-0.000612656
-0.000595303
-0.00058623
-0.000545188
-0.000496283
-0.000438527
-0.00041307
-0.000339076
-0.000262347
-0.000172414
-5.44504e-05
-1.64908e-07
0.000182609
0.000408214
0.00065802
0.000815273
0.00099162
0.000455426
0.00281446
-0.0154145
0.0825892
0.0767237
-0.0186846
0.00941947
-0.010305
-0.00359584
-0.00550364
-0.00358883
-0.00837578
0.000220743
-0.00756315
0.000220394
-0.00493656
-0.000407971
-0.00434821
-0.000860081
-0.0024125
0.000355773
-0.000992151
-0.00164965
-0.00127046
-0.000160167
-0.00122103
-0.000397009
-0.000503327
-9.25388e-05
-0.000823769
-0.000516329
-0.000220784
-0.000523436
-0.000446379
-0.000625823
-0.000630447
-0.0010512
-9.60999e-05
-0.00144798
-0.00028794
-0.00196039
-0.000807909
-0.00377685
0.00458055
-0.00671764
0.00297695
0.0026831
-0.000165247
-0.00526464
0.00305238
0.00240983
-0.00224888
0.00304281
-0.00478498
0.00204385
-0.00343093
0.000441868
0.000716642
-0.00125329
0.00137456
-0.00333283
0.00315164
0.000274496
0.000999571
0.000468176
0.000563893
5.48592e-05
-0.000339668
-0.000119532
-0.000588909
-0.00013744
-0.000855471
4.93421e-05
-0.000824356
0.000133694
-0.000857751
0.000759381
-0.00103836
0.000564955
-0.00132931
0.00180949
-0.00258176
0.00298675
-0.00413752
-0.00407158
0.000372959
-0.000256472
-0.000202493
-0.000264309
-0.000297294
-0.000336062
-0.00038152
-0.000427085
-0.000445666
-0.000503196
-0.000543296
-0.000555025
-0.000587519
-0.00063449
-0.000646931
-0.000602667
-0.000680556
-0.0006564
-0.000607961
-0.000619036
-0.000607872
-0.000542542
-0.000482854
-0.00044889
-0.000409054
-0.000339644
-0.000252722
-0.000200556
-0.000134551
-0.0002888
-0.000464262
-0.000958082
-0.00183702
-0.00341687
-0.00593297
-0.00499284
-0.0227921
0.091239
0.0686076
-0.0250686
-0.0027438
-0.00518236
-0.000792453
-0.000637839
-0.000389796
0.000802888
0.00138845
-0.000443153
-0.00115973
0.00137437
-0.00301522
0.000278397
-0.0023125
-0.00123674
-0.00277266
-0.00125911
0.000211315
-0.00161182
-0.000723389
-0.00148536
-0.00116111
-0.000248786
-0.000576428
6.39753e-05
-0.000462185
-6.91276e-06
2.63029e-05
-0.000104203
0.000241714
-0.000127585
-2.50609e-05
3.62991e-05
-0.000136096
0.00049296
0.000180561
-0.000580304
0.00014303
0.0047236
0.00295954
-0.00300543
0.00381586
-0.0049984
-0.00301854
0.00458509
0.00206
-0.00105152
-0.000288794
-0.00515237
0.00374119
0.000345991
0.000609498
-0.00062401
-0.00179525
5.75834e-05
0.00133287
-0.00344132
0.000367549
-0.00195758
-0.000537125
0.000384183
-0.000101889
0.000570448
-0.000137973
-0.000458748
-3.80507e-05
-0.00101691
0.000347195
-0.00076705
0.000906115
-0.00170247
0.00195043
-0.00225962
0.00133672
-0.0015201
0.00163108
-0.00241204
0.00261807
-0.00404071
-0.00407398
0.000372653
-0.000258769
-0.000204709
-0.000266104
-0.000301677
-0.000338724
-0.000383088
-0.000430972
-0.000460378
-0.000497775
-0.000553793
-0.000578815
-0.000580737
-0.000653659
-0.000669932
-0.000620294
-0.000692102
-0.00069823
-0.00065142
-0.000639009
-0.000651347
-0.000629529
-0.000544644
-0.000509048
-0.000514897
-0.00048589
-0.000436753
-0.000371901
-0.000241282
-0.000221676
-9.2094e-05
0.000126181
0.000418331
0.00114288
0.00135225
0.00589999
-0.00257407
0.0860202
0.0426587
-0.0127604
-0.00300977
-0.00218997
-0.000753505
-0.00389256
-0.00869265
-0.00220293
-0.0087469
7.1932e-05
-0.00541643
-0.000393081
-8.88698e-05
-0.00487385
0.00420806
-0.00401763
0.000819528
-0.00185066
-0.00022417
-0.00138743
-0.00103858
0.000455107
-0.00103205
0.000205951
0.000291717
-0.000419072
-0.000303306
-0.000137957
-0.0001394
-0.000581859
-0.000606749
-0.00037462
-0.000698936
0.000400255
-0.00127507
0.00101091
-0.00199552
0.0021541
0.00266098
-0.0046747
0.0109906
-0.00446599
0.000456513
0.00816288
0.00203669
-0.00371589
-0.00739518
0.00287099
-0.00157571
-0.000576532
-0.00330062
-0.00056781
-0.0035275
0.000176554
-0.0038121
0.00200964
-0.00142363
0.00110276
-4.89528e-05
0.000294649
0.000471405
-0.000205874
-0.000729517
-0.000347559
-0.000535414
-0.00094958
-3.44683e-05
-0.000856503
0.000430889
-0.000981558
0.000374637
-0.00154123
0.00255505
-0.0036094
0.00217154
-0.00204126
0.00173907
-0.00221702
0.00229679
-0.00388648
-0.00407845
0.000372692
-0.000260899
-0.000207346
-0.000267604
-0.000304282
-0.000343525
-0.000383307
-0.000436707
-0.000475807
-0.000491767
-0.000566904
-0.000599122
-0.000583819
-0.000666234
-0.000693518
-0.000665508
-0.000687098
-0.000742779
-0.000716168
-0.000652572
-0.000716403
-0.000696544
-0.000649521
-0.00054894
-0.000576988
-0.000614251
-0.000562146
-0.000536286
-0.000507951
-0.000502061
-0.000668004
-0.000757611
-0.000624422
-0.000440222
0.000383307
0.00393807
0.00622567
0.0656986
0.045439
-0.00689269
0.00435416
-0.00169496
0.000379584
-0.00356304
-7.48443e-05
-0.00121009
-0.000455635
-0.000647214
-0.00129154
0.00144527
-0.00155161
0.000724681
-0.00218207
-0.000958165
-0.00124406
0.000805979
-0.000298405
0.000629656
0.00123845
-0.000993592
0.00069132
0.000570551
0.000776538
-0.00074965
-0.000271631
0.000163482
0.000174058
-0.000139858
-0.000204092
8.22813e-05
0.000383819
-0.000333619
0.000333804
-0.000164569
0.00192715
0.00356779
0.00277601
-0.000236591
0.00519315
-0.00504326
0.00121629
-0.0102831
0.00359628
0.000377552
0.00236351
-0.000935722
0.00418918
-0.0012074
-0.000864006
-0.000885269
-0.00140778
-0.00150514
-0.000906379
-0.00148334
0.00128047
-0.00168257
0.000866913
0.000174105
0.000214791
4.53238e-05
0.000952771
-0.000205309
-3.70041e-05
-0.000171274
0.000308319
-0.00064629
-9.5376e-05
-0.000733909
0.000150876
-0.000364678
-0.000181692
-0.000884979
0.00155027
-0.00192515
0.00248179
-0.00244892
0.00216228
-0.00394468
-0.0040831
0.000373173
-0.000263217
-0.000209996
-0.000269015
-0.000307103
-0.000350593
-0.000383576
-0.000441733
-0.000488443
-0.000495325
-0.000571954
-0.000614281
-0.000607738
-0.000666912
-0.000714957
-0.000720402
-0.000684987
-0.000780573
-0.000770637
-0.000704514
-0.000755831
-0.000759908
-0.000767301
-0.000675768
-0.000613569