/*--------------------------------*- C++ -*----------------------------------*\
| =========                 |                                                 |
| \\      /  F ield         | OpenFOAM: The Open Source CFD Toolbox           |
|  \\    /   O peration     | Version:  2.2.x                                 |
|   \\  /    A nd           | Web:      www.OpenFOAM.org                      |
|    \\/     M anipulation  |                                                 |
\*---------------------------------------------------------------------------*/
FoamFile
{
    version     2.0;
    format      ascii;
    class       surfaceScalarField;
    location    "1.25";
    object      cfmax;
}
// * * * * * * * * * * * * * * * * * * * * * * * * * * * * * * * * * * * * * //

dimensions      [0 3 -1 0 0 0 0];

internalField   nonuniform List<scalar> 
28084
(
0.000746278
0.000743044
0.000740277
0.000737956
0.000736062
0.000734574
0.00073347
0.000732726
0.000732319
0.000732224
0.000732418
0.000732875
0.000733571
0.000734482
0.000735584
0.000736853
0.000738265
0.000739805
0.000741424
0.00074313
0.000744908
0.000746667
0.000748467
0.000750262
0.000751958
0.000753608
0.000755106
0.000756506
0.000757703
0.000758685
0.000759481
0.000760085
0.000760437
0.000760558
0.000760369
0.000759697
0.000758627
0.000757174
0.000755175
0.000752473
0.000749459
0.000746771
0.00074242
0.000737181
0.000732541
0.000737546
0.000744017
0.000531961
0.000409498
0.000402911
0.000405842
0.000411517
0.000420189
0.000429197
0.000439689
0.000449843
0.000460711
0.000471015
0.000481238
0.000491065
0.000500429
0.000509493
0.00051786
0.000525989
0.000533346
0.000539816
0.000545532
0.000551209
0.000556792
0.000563158
0.00056739
0.000570939
0.000573571
0.000576053
0.000578602
0.000581565
0.000583484
0.0005845
0.000584537
0.000583957
0.000583618
0.000585079
0.000584374
0.000583386
0.000581731
0.000579652
0.000577448
0.000575086
0.000572287
0.000579915
0.000580432
0.000581036
0.00058881
0.000594521
0.000600923
0.000605555
0.00061157
0.000613803
0.000614507
0.000616454
0.00061508
0.000601677
0.000585074
0.000551577
0.000514379
0.000480436
0.000456616
0.000442469
0.000433689
0.000428411
0.000425206
0.00042333
0.000423208
0.000424743
0.000426935
0.000428833
0.0004305
0.000431617
0.00144517
0.00144291
0.000749795
0.0014376
0.00074884
0.00142929
0.000748324
0.00141804
0.000748227
0.00140396
0.000748532
0.00138715
0.000749217
0.00136775
0.000750262
0.00134592
0.000751643
0.00132182
0.000753335
0.00129575
0.000755313
0.00126793
0.000757551
0.00123841
0.000760023
0.00120737
0.000762702
0.00117504
0.000765561
0.00114161
0.000768575
0.00110728
0.000771718
0.00107226
0.000774964
0.00103672
0.000778291
0.00100085
0.000781658
0.000964814
0.000785068
0.000928756
0.000788491
0.000892848
0.000791851
0.000857211
0.000795206
0.000821929
0.000798495
0.000787114
0.00080165
0.000752883
0.000804666
0.000719304
0.00080751
0.000686436
0.000810155
0.000654335
0.00081255
0.000623092
0.000814678
0.000592745
0.00081655
0.000563315
0.000818177
0.000534855
0.000819481
0.0005073
0.000820471
0.000480698
0.000821085
0.000455069
0.000821167
0.000430535
0.000820755
0.000406906
0.000819975
0.000384237
0.000818477
0.0003626
0.000816263
0.000341864
0.000813548
0.000321898
0.000811104
0.00030296
0.000807017
0.000285045
0.000801569
0.000288199
0.000796627
0.000286681
0.000800562
0.000280038
0.000805549
0.00028871
0.000569
0.000287592
0.000441707
0.000286664
0.000433062
0.000289979
0.000436323
0.000291545
0.000442868
0.000294455
0.00045176
0.000296452
0.000460602
0.000298879
0.000470949
0.000300988
0.000480886
0.000302976
0.000491514
0.000304846
0.000501696
0.000306685
0.000511787
0.000308513
0.000521515
0.000310213
0.000530791
0.000311889
0.000539828
0.000313746
0.00054818
0.000315432
0.000555944
0.000316751
0.000563181
0.000318098
0.000569522
0.00031989
0.000575236
0.000322188
0.000580733
0.000324877
0.000585577
0.000326468
0.000590364
0.000327744
0.000594764
0.000329642
0.000597834
0.000332049
0.000600357
0.000334879
0.000602567
0.000337666
0.00060457
0.000339963
0.000606637
0.00034151
0.000608489
0.00034355
0.000608897
0.000346607
0.000608782
0.000349491
0.000608039
0.000352898
0.000607077
0.000356056
0.000606377
0.000359019
0.00060551
0.000361947
0.000604023
0.000365463
0.000602498
0.000369277
0.000600346
0.000372373
0.000598384
0.000376429
0.00059577
0.000380786
0.000592571
0.000385533
0.000600406
0.000389951
0.000600348
0.000394235
0.000600449
0.000398294
0.000608575
0.000402144
0.000613082
0.000406412
0.000618541
0.000411811
0.000622823
0.00041577
0.000627875
0.000419707
0.000629157
0.000423754
0.000628978
0.000426908
0.000625997
0.000429715
0.000614345
0.000430316
0.000591911
0.000428438
0.000566344
0.000424944
0.000541536
0.000413527
0.000505621
0.000401919
0.000475972
0.00039189
0.000455862
0.000384767
0.000442639
0.000380644
0.000433545
0.000378283
0.000427886
0.000376973
0.000424166
0.000376973
0.000421819
0.000378488
0.000421163
0.000381447
0.000422043
0.000385478
0.000423305
0.00039061
0.000424733
0.000394294
0.000426592
0.000406198
0.00042789
0.00144574
0.00144326
0.000754491
0.00143774
0.000755786
0.00142922
0.000757492
0.00141778
0.000759591
0.00140351
0.000762068
0.00138652
0.000764902
0.00136749
0.000768071
0.00134614
0.000771552
0.00132248
0.00077532
0.0012967
0.000779348
0.00126899
0.000783608
0.00123956
0.000788072
0.00120861
0.000792711
0.00117634
0.000797498
0.00114296
0.000802404
0.00110867
0.000807401
0.00107367
0.000812461
0.00103814
0.000817557
0.00100227
0.000822659
0.000966223
0.000827755
0.000930152
0.000832788
0.000894213
0.000837754
0.000858523
0.000842652
0.00082322
0.000847401
0.000788333
0.000851987
0.000754047
0.000856361
0.000720433
0.000860561
0.000687469
0.000864436
0.000655291
0.000868026
0.000623981
0.000871318
0.000593557
0.000874269
0.000564043
0.000876921
0.000535487
0.000879184
0.000507853
0.000881035
0.000481171
0.000882449
0.000455472
0.000883311
0.000430698
0.000883636
0.00040685
0.000883613
0.000384267
0.000882713
0.000362715
0.000881037
0.000342078
0.00087872
0.000322221
0.000876436
0.000303346
0.000872681
0.000285456
0.000867177
0.000292574
0.000862055
0.000289749
0.000864236
0.000282448
0.000868034
0.000292262
0.000607711
0.000290047
0.000473885
0.000288314
0.000463356
0.000293922
0.000466832
0.000296898
0.0004741
0.000300814
0.000483544
0.000302852
0.000492558
0.000305428
0.000503417
0.000307659
0.000513773
0.00030946
0.000524416
0.000311157
0.000534574
0.00031282
0.000544693
0.000314431
0.000554356
0.000316019
0.000563545
0.000317595
0.000572477
0.000319206
0.0005809
0.00032056
0.000588521
0.000321836
0.000595455
0.000322847
0.000601646
0.000324112
0.00060722
0.000325853
0.000612451
0.000328097
0.000616908
0.000330067
0.000620568
0.000331009
0.000623982
0.000332404
0.000626761
0.000334488
0.000629211
0.000337213
0.000631178
0.000340284
0.000632643
0.000342894
0.000633702
0.000344266
0.000634467
0.000345353
0.000634625
0.000348541
0.000634407
0.000351639
0.000633692
0.000354328
0.000632328
0.000356944
0.000630565
0.000359896
0.000628524
0.000362558
0.000626304
0.000366149
0.000624106
0.000369724
0.000621631
0.000373721
0.000619753
0.00037853
0.00061795
0.000382808
0.000615317
0.000388094
0.000622012
0.000392791
0.000622414
0.000397315
0.000622197
0.000401387
0.00062902
0.000404521
0.000632535
0.000406746
0.000636146
0.000410806
0.000639528
0.00041495
0.000641137
0.000419067
0.000639724
0.000422407
0.000635493
0.00042357
0.000618276
0.000425465
0.000594894
0.000423463
0.000568042
0.000421609
0.000539074
0.000422501
0.000507543
0.000420271
0.000483339
0.000410168
0.000463729
0.00040014
0.000449252
0.000393262
0.000439053
0.000388764
0.00043179
0.000385828
0.000426818
0.000384136
0.000423065
0.000384244
0.000420269
0.000386301
0.000419014
0.000390681
0.000419117
0.000396047
0.000419997
0.000403172
0.00042147
0.000408673
0.00042394
0.000422248
0.000426766
0.00144519
0.0014425
0.000760364
0.00143678
0.000763877
0.00142807
0.000767774
0.00141726
0.000772039
0.00140394
0.000776658
0.00138784
0.00078161
0.0013691
0.000786876
0.00134788
0.00079243
0.00132435
0.000798246
0.00129868
0.000804297
0.00127107
0.000810553
0.00124171
0.000816985
0.00121082
0.000823561
0.0011786
0.000830252
0.00114525
0.000837026
0.00111098
0.000843853
0.00107598
0.000850707
0.00104044
0.000857549
0.00100454
0.000864364
0.000968454
0.000871125
0.000932343
0.000877755
0.00089635
0.00088431
0.000860581
0.000890725
0.000825202
0.000896912
0.000790249
0.000902918
0.000755881
0.000908647
0.00072217
0.000914172
0.000689103
0.000919277
0.000656841
0.000924061
0.000625433
0.00092852
0.000594906
0.000932567
0.000565284
0.000936237
0.00053661
0.00093947
0.000508876
0.000942229
0.000482096
0.000944469
0.000456315
0.000946139
0.000431474
0.000947247
0.000407539
0.000948076
0.000384583
0.000947957
0.000362725
0.000946939
0.000342189
0.000945259
0.00032247
0.000943039
0.000303758
0.000939598
0.000285934
0.000934643
0.000296837
0.000929365
0.000292327
0.000930479
0.000289373
0.000934012
0.000299007
0.000656825
0.000291853
0.000508906
0.000290488
0.000494774
0.000298081
0.000498059
0.000303049
0.000506704
0.00030798
0.000516775
0.000310776
0.000526744
0.000313369
0.000538092
0.000315558
0.000548974
0.000317099
0.00055981
0.0003185
0.00057016
0.000319916
0.000580375
0.000321229
0.000589868
0.000322566
0.000598932
0.000323955
0.00060749
0.000325194
0.000615699
0.000326317
0.000623263
0.000327266
0.000629949
0.000328284
0.000636016
0.00032935
0.000641362
0.000330401
0.000646272
0.000331925
0.000650043
0.000333735
0.000652723
0.000335056
0.000654912
0.000336038
0.000657251
0.000337652
0.000659656
0.000339963
0.000661198
0.000342281
0.000662307
0.000344556
0.000662504
0.000346238
0.000662063
0.00034761
0.000661631
0.000349484
0.000661172
0.000352126
0.000660321
0.000355104
0.000658345
0.000358115
0.00065583
0.000361649
0.000652945
0.00036588
0.000650202
0.000369191
0.000647455
0.000372687
0.000645035
0.000376662
0.000644485
0.000380758
0.000644032
0.000384394
0.000641136
0.000389254
0.000646652
0.000393989
0.000646681
0.00039819
0.000645522
0.000401639
0.000650732
0.000405026
0.000651601
0.000408404
0.000652966
0.000412039
0.00065293
0.000414914
0.000651796
0.000417551
0.000640046
0.000418313
0.000623575
0.000418408
0.000597471
0.000418567
0.000566
0.000417376
0.000531771
0.000420247
0.00049888
0.000426891
0.000475571
0.000427337
0.00045917
0.000419293
0.000448537
0.000410062
0.000440437
0.000403697
0.000433443
0.000399021
0.000428182
0.000395699
0.000424107
0.000393574
0.000420635
0.000393696
0.000417986
0.000396069
0.000416569
0.000400885
0.000416509
0.000406893
0.000417505
0.000415241
0.000419228
0.000421621
0.000422268
0.000435322
0.000426441
0.00144354
0.00144127
0.000767418
0.00143703
0.000773113
0.00142974
0.000779166
0.00141948
0.000785562
0.00140631
0.000792289
0.00139037
0.000799328
0.00137177
0.000806658
0.00135068
0.000814253
0.00132725
0.000822088
0.00130168
0.000830132
0.00127414
0.000838356
0.00124485
0.000846726
0.001214
0.000855211
0.00118181
0.000863778
0.00114847
0.000872394
0.00111419
0.000881027
0.00107917
0.000889647
0.0010436
0.000898214
0.00100765
0.000906716
0.000971505
0.000915108
0.000935321
0.000923328
0.000899245
0.000931443
0.000863379
0.000939356
0.000827887
0.000946968
0.000792853
0.000954394
0.000758365
0.000961494
0.000724506
0.000968257
0.000691352
0.00097464
0.000658998
0.000980631
0.000627449
0.000986206
0.000596782
0.000991357
0.000567045
0.00099604
0.000538235
0.0010003
0.000510387
0.00100401
0.000483498
0.00100716
0.00045761
0.00100972
0.00043271
0.0010117
0.000408693
0.00101327
0.000385627
0.00101416
0.000363493
0.00101414
0.000342334
0.00101315
0.0003228
0.00101137
0.000304272
0.00100838
0.000286614
0.00100422
0.00030128
0.000999381
0.000295347
0.000999941
0.000298416
0.0010018
0.000306511
0.000717776
0.000294524
0.000546102
0.000293068
0.00052829
0.000303004
0.00053122
0.000309996
0.00054188
0.000315754
0.000552057
0.00031949
0.000563658
0.000322252
0.000575602
0.000324554
0.000587106
0.000325964
0.000598256
0.000327197
0.000608845
0.00032822
0.000619542
0.000329227
0.000629093
0.000330238
0.000637745
0.000331058
0.000646017
0.000332265
0.000653385
0.000332847
0.000660051
0.00033346
0.000666263
0.000334156
0.000672356
0.000335171
0.000677336
0.000336291
0.000681334
0.00033648
0.000684206
0.000337566
0.000686854
0.000339112
0.00068843
0.000340323
0.000689414
0.000340986
0.000690876
0.000342494
0.000691598
0.000344727
0.000692163
0.000346806
0.000692216
0.000348723
0.000691223
0.000350238
0.000690017
0.00035192
0.000688748
0.000354572
0.000687477
0.000356919
0.00068508
0.00035986
0.000681944
0.00036445
0.000678655
0.000369357
0.00067578
0.000373326
0.000675184
0.000377491
0.00067521
0.000381332
0.000674634
0.000384732
0.00067247
0.000387089
0.000669168
0.000391622
0.000672988
0.000395644
0.000672304
0.000399376
0.000669989
0.000403232
0.000672484
0.000407479
0.000670348
0.000410728
0.000668566
0.000413139
0.000661974
0.000414531
0.000650092
0.00041454
0.000625839
0.00041322
0.00060239
0.000411176
0.000570796
0.000412373
0.000529632
0.000420183
0.000495014
0.000425752
0.000471025
0.000428309
0.000454657
0.000426687
0.000443717
0.000421437
0.000437333
0.000415417
0.000433013
0.00041011
0.00042864
0.000406173
0.000424919
0.000403622
0.000421765
0.000402073
0.000418807
0.00040235
0.000416347
0.000404843
0.000414774
0.000410429
0.000414591
0.000417113
0.000415801
0.000426405
0.000418031
0.000433364
0.00042176
0.000446643
0.000426705
0.00144505
0.00144406
0.000775657
0.00144
0.000783493
0.00143288
0.000791662
0.00142277
0.000800151
0.00140976
0.00080895
0.00139396
0.000818039
0.00137549
0.000827398
0.00135451
0.000837001
0.00133118
0.00084682
0.00130569
0.000856824
0.00127822
0.000866982
0.00124897
0.00087726
0.00121815
0.000887622
0.00118596
0.000898035
0.00115262
0.000908464
0.00111831
0.000918873
0.00108325
0.00092923
0.00104762
0.000939498
0.0010116
0.000949658
0.000975365
0.000959654
0.000939085
0.000969449
0.000902891
0.000979086
0.000866918
0.000988473
0.000831286
0.000997504
0.000796132
0.00100632
0.000761503
0.00101475
0.000727478
0.00102274
0.0006942
0.00103038
0.000661726
0.00103763
0.00063003
0.00104432
0.000599206
0.00105054
0.000569322
0.00105631
0.000540372
0.00106156
0.000512403
0.00106636
0.000485398
0.00107052
0.000459379
0.00107402
0.000434375
0.00107693
0.000410316
0.00107924
0.000387185
0.001081
0.000364926
0.00108248
0.000343649
0.00108291
0.000323281
0.00108205
0.000304923
0.00108043
0.000287533
0.00107661
0.000306131
0.00107274
0.000299366
0.00107298
0.000309161
0.00107186
0.000315688
0.000801722
0.000297809
0.000587521
0.000297188
0.000565034
0.0003094
0.000567898
0.000318474
0.00057858
0.000324626
0.000590782
0.000329454
0.000604023
0.000332387
0.000615855
0.000334591
0.000628942
0.000335936
0.000640713
0.000337429
0.00065157
0.000338169
0.000661749
0.000338341
0.000671306
0.000338887
0.000679267
0.000339159
0.00068686
0.000339283
0.000693435
0.000339409
0.000699173
0.000339307
0.000703802
0.000339433
0.000709033
0.000340201
0.000714159
0.000341376
0.000717531
0.000341951
0.000720398
0.000341936
0.000722017
0.0003426
0.000723176
0.000344032
0.00072372
0.000344754
0.000723776
0.000345294
0.0007244
0.000346674
0.000723353
0.000348484
0.000723006
0.000350385
0.000721822
0.000351863
0.000719819
0.000353499
0.00071754
0.000355749
0.000714994
0.000358438
0.00071632
0.00036251
0.000715173
0.000367286
0.000712892
0.000371983
0.000712369
0.000376407
0.000712054
0.000380866
0.00071103
0.000385057
0.00070832
0.000388222
0.000703988
0.000390086
0.000698513
0.000394205
0.000700372
0.000398014
0.000698072
0.000402025
0.00069459
0.000405286
0.000692473
0.000409554
0.000686766
0.000411455
0.000679749
0.000412734
0.000653038
0.000413166
0.000636174
0.000410455
0.000606228
0.000409534
0.000568171
0.000414922
0.000530041
0.000423594
0.00049653
0.000428261
0.000471955
0.000430583
0.000455506
0.00043
0.000443614
0.000426926
0.000436261
0.000422559
0.0004322
0.000418544
0.000428711
0.000414744
0.000425331
0.000412137
0.000422716
0.000410546
0.000420235
0.000409661
0.000417932
0.000410522
0.00041538
0.000413548
0.000413612
0.000419565
0.000413455
0.000426798
0.000414883
0.000436491
0.000417578
0.000444031
0.000421823
0.000456699
0.000427136
0.00144878
0.00144796
0.000785085
0.00144405
0.000795018
0.0014371
0.00080526
0.00142714
0.000815801
0.00141428
0.00082663
0.0013986
0.00083773
0.00138025
0.000849078
0.00135938
0.00086065
0.00133613
0.000872416
0.00131071
0.000884345
0.00128328
0.000896401
0.00125406
0.00090855
0.00122325
0.000920756
0.00119106
0.000932981
0.00115768
0.000945188
0.00112333
0.000957342
0.00108821
0.000969405
0.00105249
0.000981344
0.00101637
0.000993132
0.000980035
0.0010047
0.000943626
0.00101606
0.00090729
0.00102718
0.000871186
0.00103798
0.000835396
0.00104844
0.000800072
0.0010586
0.000765298
0.00106836
0.000731107
0.00107761
0.000697665
0.00108644
0.000664991
0.00109493
0.000633157
0.00110278
0.00060219
0.0011101
0.000572134
0.00111691
0.000543032
0.00112329
0.00051491
0.00112912
0.000487789
0.00113438
0.000461637
0.00113906
0.00043649
0.00114287
0.00041236
0.00114617
0.000389201
0.00114906
0.000367067
0.00115165
0.000345588
0.00115395
0.000325087
0.00115552
0.000305853
0.00115568
0.000288819
0.00115276
0.000311887
0.00115018
0.0003054
0.00115284
0.000316093
0.00115387
0.000326858
0.000922136
0.000301433
0.000633281
0.000303294
0.000604742
0.000317237
0.000607402
0.000329077
0.000621596
0.000335642
0.000635755
0.000341255
0.000651024
0.000344765
0.000663834
0.000347091
0.000676655
0.00034778
0.000688174
0.000348392
0.000698206
0.00034823
0.000706344
0.000347392
0.000715629
0.000347131
0.000723682
0.000346775
0.000730464
0.00034584
0.000737145
0.000344868
0.000741827
0.000344576
0.000746444
0.000344279
0.000749215
0.000344018
0.000753896
0.0003449
0.000757408
0.00034595
0.000759495
0.000345913
0.000760665
0.000345701
0.000761295
0.000346612
0.000761347
0.000347618
0.00076026
0.000348386
0.000760919
0.000349228
0.000761759
0.000350203
0.000763109
0.000351674
0.000764036
0.000353085
0.000763969
0.00035554
0.00076364
0.000358743
0.000763187
0.00036227
0.000762203
0.000366295
0.000760243
0.000370976
0.000758299
0.000375338
0.00075536
0.000379555
0.000751976
0.000383646
0.000748985
0.000387591
0.000743806
0.000390942
0.00073697
0.000393769
0.000729292
0.000398074
0.000726696
0.000401503
0.000724214
0.000404568
0.000713948
0.000407789
0.000705042
0.000410375
0.000685865
0.00041078
0.000671339
0.000410367
0.000638364
0.000410481
0.000609418
0.000409422
0.000567961
0.00042016
0.00052977
0.00042881
0.000500445
0.000433455
0.000478246
0.000434927
0.00046121
0.000434383
0.000448665
0.000431731
0.000439831
0.000427982
0.000434567
0.000424194
0.000430597
0.000420977
0.000426842
0.000418498
0.000423955
0.000416965
0.000421677
0.000416347
0.000419471
0.000416668
0.000417234
0.000418381
0.000415024
0.000421772
0.000413295
0.000428192
0.000413253
0.000435889
0.000414805
0.000445697
0.000417733
0.000453684
0.000422274
0.00046569
0.000427752
0.00145362
0.00145295
0.000795711
0.0014492
0.000807693
0.00144239
0.000819961
0.00143258
0.000832507
0.00141984
0.000845322
0.00140429
0.000858388
0.00138605
0.000871683
0.00136526
0.000885182
0.00134209
0.000898853
0.00131672
0.000912665
0.00128933
0.00092658
0.00126013
0.000940562
0.00122931
0.000954572
0.00119709
0.000968572
0.00116366
0.000982521
0.00112925
0.000996382
0.00109404
0.00101012
0.00105822
0.00102369
0.00102198
0.00103707
0.000985508
0.00105019
0.000948942
0.00106308
0.00091244
0.00107565
0.00087616
0.00108784
0.000840207
0.00109974
0.000804679
0.00111122
0.0007697
0.00112222
0.000735362
0.00113279
0.000701716
0.00114284
0.000668836
0.00115241
0.000636811
0.00116149
0.000605694
0.00117
0.000575494
0.0011779
0.000546219
0.00118525
0.000517938
0.00119214
0.000490656
0.00119865
0.000464371
0.0012045
0.000439079
0.00120968
0.000414871
0.0012141
0.000391673
0.00121808
0.000369517
0.00122159
0.000348394
0.00122485
0.000327716
0.00122943
0.000308024
0.00123248
0.000290528
0.00123394
0.000318602
0.0012334
0.000313218
0.00123825
0.000320375
0.00124639
0.00034058
0.00110452
0.000304909
0.000689269
0.000311818
0.000647679
0.000328819
0.00065252
0.000343095
0.000671423
0.00035115
0.000687728
0.000356519
0.000705142
0.000359763
0.00071817
0.000360813
0.000730689
0.000360173
0.000741939
0.000359113
0.000751102
0.000357708
0.000757886
0.00035635
0.000765978
0.000355306
0.000773567
0.000354408
0.000779562
0.000352647
0.000785364
0.000351392
0.000788832
0.000349699
0.000792238
0.000348883
0.000793893
0.000348658
0.000799897
0.000348681
0.000806413
0.000349121
0.000811296
0.000349343
0.000815651
0.000348751
0.000817991
0.000348958
0.000819233
0.000350021
0.000819999
0.000350535
0.000819817
0.000351095
0.000819458
0.00035198
0.000818806
0.000353143
0.000819486
0.000354567
0.00081842
0.000358393
0.000816201
0.000362746
0.000812686
0.000366659
0.000808281
0.000370631
0.000803972
0.000374453
0.000799369
0.000377777
0.000795555
0.000381702
0.000790176
0.000386084
0.000784193
0.000390755
0.000775559
0.000394653
0.000766334
0.000397129
0.000757299
0.000401596
0.00074585
0.000404417
0.000739205
0.00040642
0.000712877
0.000407404
0.000695905
0.000408203
0.000672352
0.00040869
0.000648765
0.000408169
0.000607892
0.000414664
0.000568134
0.000425339
0.000533039
0.000433643
0.000506339
0.000439168
0.000486711
0.000441085
0.00047057
0.00044044
0.000457733
0.000437804
0.00044807
0.000433707
0.000441112
0.00042965
0.0004358
0.000426101
0.000431174
0.000423523
0.000427193
0.000421888
0.000424359
0.000421539
0.000421983
0.000421882
0.000419728
0.000423008
0.000417511
0.000425639
0.000415482
0.000429631
0.000413855
0.000436326
0.000413808
0.000444307
0.000415307
0.00045413
0.00041829
0.00046253
0.000422962
0.00047401
0.000428511
0.00145955
0.00145902
0.000807543
0.00145541
0.000821521
0.00144874
0.000835764
0.00143906
0.000850265
0.00142645
0.000865017
0.00141101
0.000880001
0.00139287
0.000895196
0.00137216
0.000910575
0.00134905
0.000926107
0.00132372
0.000941757
0.00129635
0.000957488
0.00126715
0.00097326
0.00123631
0.000989033
0.00120404
0.00100476
0.00117055
0.00102042
0.00113604
0.00103595
0.00110073
0.00105131
0.00106478
0.00106649
0.0010284
0.00108141
0.00099177
0.00109606
0.000955029
0.00111043
0.000918333
0.00112443
0.000881867
0.00113799
0.000845725
0.00115128
0.000809955
0.00116405
0.000774762
0.00117625
0.000740225
0.00118815
0.000706372
0.0011994
0.000673259
0.00121002
0.000641037
0.00122016
0.000609703
0.00123002
0.000579326
0.0012391
0.000549874
0.0012475
0.00052143
0.00125535
0.000494018
0.00126279
0.000467601
0.00127007
0.000442186
0.00127693
0.000417773
0.00128294
0.000394496
0.00128829
0.000372312
0.00129275
0.000351147
0.0012971
0.000331212
0.00130181
0.000311262
0.00130966
0.000292676
0.00131499
0.000325473
0.00131975
0.00032324
0.00132749
0.000322577
0.00133451
0.000355545
0.00131116
0.000308966
0.000768289
0.000323457
0.000695866
0.000344481
0.000706221
0.00035923
0.000730995
0.00036744
0.000748964
0.000372618
0.000769383
0.000374719
0.00078328
0.000374552
0.000794594
0.000372974
0.00080286
0.000369921
0.000811412
0.000367396
0.000816893
0.000365094
0.000821685
0.000363207
0.000828476
0.000360895
0.000831682
0.000358829
0.000837501
0.000356552
0.000842529
0.000354499
0.000851175
0.000353626
0.000858225
0.000352081
0.000865754
0.000352038
0.000869997
0.000352737
0.0008735
0.000352235
0.000876072
0.000351457
0.000877871
0.000351262
0.000878135
0.000351508
0.000876779
0.00035227
0.000875408
0.0003529
0.000872583
0.00035344
0.000871036
0.00035419
0.000869111
0.000357951
0.000866117
0.000362234
0.000861381
0.00036674
0.000855748
0.000370665
0.000849945
0.000374613
0.000840967
0.000378225
0.000833746
0.000381942
0.000828552
0.000385948
0.000818811
0.000389643
0.000811057
0.000393942
0.000797205
0.000398923
0.000782296
0.000401298
0.000768866
0.000403434
0.000743988
0.000404885
0.00072847
0.000406165
0.0006964
0.000406777
0.000676319
0.000405605
0.000646159
0.000407769
0.000604682
0.0004191
0.000566225
0.000429963
0.00053591
0.000438189
0.000513493
0.000443849
0.000496163
0.000446615
0.000481679
0.0004468
0.000469124
0.000444744
0.000458887
0.000440837
0.000451291
0.000435913
0.000444444
0.000431872
0.000438572
0.000428615
0.000433293
0.000426584
0.0004291
0.000425644
0.000425992
0.000426049
0.000423413
0.000427077
0.000420874
0.000429072
0.000418641
0.000432591
0.00041674
0.000437162
0.000415248
0.000444
0.000415059
0.000452119
0.000416387
0.000461958
0.000419283
0.000470704
0.000423933
0.000481726
0.000429429
0.00146656
0.00146616
0.000820594
0.00146268
0.00083651
0.00145614
0.000852672
0.00144659
0.000869074
0.00143409
0.000885709
0.00141875
0.000902559
0.0014007
0.000919603
0.00138006
0.000936813
0.001357
0.000954156
0.0013317
0.000971596
0.00130434
0.000989094
0.00127512
0.00100661
0.00124424
0.0010241
0.0012119
0.00104152
0.00117833
0.00105883
0.00114372
0.00107599
0.00110827
0.00109294
0.00107218
0.00110967
0.00103563
0.00112612
0.000998815
0.00114224
0.000961874
0.00115804
0.000924964
0.00117345
0.000888281
0.00118838
0.000851901
0.00120298
0.000815896
0.00121702
0.000780474
0.00123045
0.00074567
0.00124357
0.000711588
0.00125605
0.000678261
0.00126783
0.000645817
0.00127902
0.000614267
0.00128988
0.000583588
0.00130027
0.000553948
0.00130995
0.000525319
0.00131889
0.000497751
0.00132724
0.000471279
0.00133528
0.000445719
0.00134334
0.000421167
0.00135161
0.000397567
0.00135876
0.000375179
0.00136517
0.000354136
0.0013704
0.000334015
0.00137602
0.000315462
0.00138329
0.000296553
0.00139453
0.000333324
0.00140578
0.000332036
0.00141848
0.00031565
0.00142733
0.000362589
0.00143591
0.000312351
0.000966811
0.000340476
0.000751901
0.000364821
0.000766201
0.00037845
0.000800082
0.000385378
0.000816889
0.000389588
0.000837336
0.000389922
0.000850615
0.0003876
0.000860199
0.000384293
0.000866817
0.000379968
0.000872731
0.000376365
0.000875889
0.000373253
0.000877497
0.000369816
0.000886085
0.000367483
0.000888068
0.000363517
0.000902895
0.000361286
0.000908619
0.000359224
0.00091277
0.000357445
0.000921963
0.000355643
0.000926205
0.000354927
0.000928742
0.000355379
0.000930196
0.000355453
0.000930769
0.00035407
0.000931149
0.000353421
0.000930574
0.000353297
0.000927911
0.000353595
0.000924718
0.000354158
0.000919609
0.000354327
0.000915489
0.00035837
0.000910671
0.000362593
0.00090534
0.000366707
0.000899023
0.000371447
0.000891415
0.000375523
0.000883725
0.000379539
0.000869971
0.000383511
0.000859971
0.000386467
0.000852157
0.000390163
0.000833772
0.000394188
0.000821773
0.000396917
0.000800421
0.000401181
0.000774108
0.000402657
0.000758178
0.000404022
0.000723409
0.000405348
0.000707101
0.000404417
0.000671875
0.000405093
0.00063646
0.000411158
0.000599562
0.000423338
0.000565566
0.000433114
0.000539092
0.000441423
0.000520378
0.000447536
0.000505432
0.000451181
0.000492768
0.000452387
0.000481353
0.000451432
0.000471487
0.000448536
0.000463468
0.000443966
0.000455778
0.000438615
0.000448756
0.000434585
0.000442412
0.000431574
0.000436733
0.000430054
0.000432224
0.000429636
0.00042872
0.000430646
0.000425815
0.00043224
0.000422976
0.000434958
0.000420671
0.000439278
0.0004188
0.000444321
0.000417321
0.000451244
0.000416951
0.000459469
0.000418074
0.000469318
0.000420739
0.000478308
0.000425214
0.00048901
0.000430584
0.00147462
0.00147434
0.000834876
0.00147099
0.000852668
0.00146457
0.000870689
0.00145514
0.000888933
0.00144275
0.000907393
0.0014275
0.000926053
0.00140952
0.00094489
0.00138895
0.000963876
0.00136593
0.000982976
0.00134064
0.00100215
0.00131328
0.00102137
0.00128402
0.00104058
0.00125309
0.00105973
0.00122068
0.00107879
0.001187
0.00109771
0.00115226
0.00111645
0.00111666
0.00113495
0.0010804
0.00115319
0.00104366
0.00117111
0.00100664
0.00118868
0.000969475
0.00120586
0.000932336
0.00122263
0.000895391
0.00123894
0.000858738
0.00125473
0.000822499
0.00127004
0.000786811
0.00128481
0.00075172
0.00129898
0.00071735
0.00131257
0.000683799
0.0013257
0.000651091
0.00133804
0.000619243
0.00134967
0.000588424
0.00136085
0.000558504
0.00137219
0.000529629
0.0013825
0.000501802
0.00139198
0.000475086
0.00140076
0.000449561
0.00140921
0.000424817
0.00141859
0.000401122
0.0014282
0.000378451
0.00143658
0.000356899
0.00144424
0.000336972
0.00145055
0.000318236
0.00145801
0.000300766
0.00146851
0.000341925
0.00148592
0.000346486
0.00151232
0.00033894
0.00153735
0.000367967
0.00158631
0.00032397
0.00142239
0.000358885
0.000861146
0.000380653
0.000823152
0.000390661
0.000868909
0.000397368
0.000886632
0.000400724
0.000902639
0.000401828
0.00091399
0.000399986
0.000922508
0.000396041
0.00092996
0.000388957
0.000934341
0.000383741
0.000935901
0.000380374
0.000932278
0.00037534
0.000948018
0.000373148
0.000952843
0.0003678
0.000964447
0.000365268
0.00096879
0.000364186
0.000970987
0.000362039
0.000979254
0.000359234
0.000981191
0.000357679
0.000982493
0.000357849
0.00098128
0.000357957
0.0009803
0.000357154
0.000977878
0.000355472
0.000975782
0.000354659
0.000971403
0.000354053
0.000965566
0.000354197
0.000959186
0.00035877
0.000951266
0.000363207
0.00094439
0.000367659
0.000935863
0.000372082
0.000927804
0.00037653
0.000917729
0.000380111
0.000908835
0.000384128
0.000887015
0.00038879
0.000872912
0.0003902
0.000861155
0.000393286
0.000825488
0.000396491
0.000802876
0.00039873
0.000784399
0.000402035
0.00075238
0.000402761
0.00073382
0.00040167
0.000696179
0.00040259
0.000662504
0.00040649
0.00062535
0.000416342
0.000592355
0.000427201
0.000565697
0.000436163
0.000544359
0.000443439
0.000527496
0.000449689
0.000514643
0.000454081
0.000503294
0.000456304
0.000493023
0.000456486
0.000483856
0.00045498
0.000475952
0.000451809
0.000468148
0.000446591
0.000460616
0.000441484
0.000453413
0.000437647
0.000446692
0.000434981
0.000440799
0.000433821
0.000436041
0.000433851
0.000432249
0.000435303
0.00042898
0.000437383
0.000425904
0.000440707
0.000423457
0.000445667
0.000421567
0.000451118
0.000419965
0.000458199
0.000419591
0.000466474
0.000420372
0.000476312
0.000422593
0.000485525
0.000426727
0.000496021
0.000431912
0.00148373