/*--------------------------------*- C++ -*----------------------------------*\
| =========                 |                                                 |
| \\      /  F ield         | OpenFOAM: The Open Source CFD Toolbox           |
|  \\    /   O peration     | Version:  2.2.x                                 |
|   \\  /    A nd           | Web:      www.OpenFOAM.org                      |
|    \\/     M anipulation  |                                                 |
\*---------------------------------------------------------------------------*/
FoamFile
{
    version     2.0;
    format      ascii;
    class       volScalarField;
    location    "0.7";
    object      Ma;
}
// * * * * * * * * * * * * * * * * * * * * * * * * * * * * * * * * * * * * * //

dimensions      [0 0 0 0 0 0 0];

internalField   nonuniform List<scalar> 
14161
(
2.59815
2.59815
2.59817
2.59818
2.5982
2.59825
2.5983
2.59836
2.59843
2.59854
2.59862
2.59872
2.59877
2.59878
2.59877
2.59871
2.59858
2.59829
2.59784
2.59717
2.59622
2.59491
2.59324
2.59108
2.58839
2.58512
2.58122
2.57667
2.57142
2.56548
2.55884
2.55152
2.5436
2.53511
2.52606
2.51663
2.50681
2.4967
2.4864
2.47606
2.46559
2.45525
2.44505
2.435
2.42499
2.41487
2.40456
2.39448
2.38405
2.37268
2.35721
2.33029
2.25234
1.98782
1.261
0.773902
0.634978
0.609116
0.61074
0.627625
0.646533
0.663712
0.680096
0.696063
0.711692
0.727041
0.742033
0.756621
0.770548
0.783731
0.796224
0.808294
0.819949
0.831196
0.842133
0.852954
0.863902
0.875296
0.887464
0.900399
0.913903
0.927901
0.941423
0.952926
0.962161
0.968825
0.970307
0.96876
0.960855
0.943155
0.914798
0.873547
0.818784
0.749084
0.671529
0.59732
0.53212
0.477932
0.433299
0.395054
0.361647
0.332821
0.307706
0.284844
0.263655
0.244651
0.227157
0.21028
0.194027
0.178473
0.163198
0.14786
0.131973
0.115218
0.0971911
0.0780203
0.0582751
0.0378672
0.0240543
2.59815
2.59815
2.59817
2.59818
2.5982
2.59825
2.5983
2.59836
2.59843
2.59854
2.59862
2.59872
2.59877
2.59878
2.59878
2.59872
2.59858
2.5983
2.59786
2.59718
2.59623
2.59496
2.59327
2.5911
2.58844
2.58517
2.58129
2.57674
2.5715
2.56556
2.55893
2.55165
2.54372
2.53521
2.52619
2.51676
2.50693
2.49682
2.48654
2.47617
2.46573
2.4553
2.44499
2.43501
2.42504
2.41492
2.40461
2.39454
2.38411
2.37292
2.3575
2.33139
2.25885
2.00762
1.28607
0.788838
0.649229
0.621763
0.622308
0.637692
0.655701
0.672885
0.689479
0.705646
0.721275
0.73659
0.751477
0.765837
0.779547
0.792661
0.80523
0.817332
0.829023
0.840305
0.851441
0.862762
0.874417
0.886792
0.899935
0.913401
0.926551
0.938772
0.948678
0.95623
0.961362
0.964485
0.963539
0.955898
0.939488
0.91215
0.87166
0.818158
0.754129
0.682074
0.609312
0.543887
0.488953
0.443785
0.405479
0.371991
0.342495
0.316727
0.293841
0.272662
0.25279
0.234773
0.217978
0.201683
0.185951
0.170869
0.156046
0.141135
0.125824
0.109769
0.0930456
0.0759555
0.0599261
0.0441311
0.041663
2.59815
2.59815
2.59817
2.59818
2.5982
2.59825
2.5983
2.59836
2.59844
2.59854
2.59862
2.59872
2.59877
2.59879
2.59878
2.59873
2.59859
2.59831
2.59788
2.59722
2.59628
2.595
2.59333
2.5912
2.58852
2.5853
2.58143
2.5769
2.5717
2.56577
2.55916
2.55191
2.544
2.53552
2.52652
2.51707
2.50726
2.49717
2.48687
2.47646
2.46605
2.45564
2.44527
2.43512
2.4252
2.41517
2.40486
2.39462
2.38416
2.37289
2.35701
2.33161
2.26048
2.01495
1.29655
0.796067
0.656467
0.627618
0.627437
0.641883
0.659378
0.676547
0.693352
0.709957
0.726088
0.741845
0.75721
0.771995
0.786099
0.799357
0.812023
0.824295
0.836343
0.848031
0.859733
0.871761
0.883995
0.897046
0.910826
0.924209
0.935823
0.944844
0.950761
0.954207
0.955932
0.953222
0.944831
0.928835
0.901472
0.860933
0.808669
0.743901
0.67481
0.608159
0.548883
0.499226
0.45763
0.422137
0.390524
0.361792
0.335288
0.311172
0.289184
0.268554
0.249075
0.231258
0.214516
0.198253
0.182515
0.16736
0.152485
0.137661
0.122841
0.108097
0.0941513
0.0803116
0.069392
0.0590071
0.0627897
2.59815
2.59815
2.59817
2.59819
2.59821
2.59825
2.5983
2.59837
2.59844
2.59854
2.59862
2.59873
2.59878
2.59882
2.59881
2.59876
2.59861
2.59836
2.59794
2.59728
2.59635
2.59511
2.59345
2.59134
2.5887
2.5855
2.58167
2.57721
2.57202
2.56617
2.55961
2.55239
2.54452
2.5361
2.52712
2.51771
2.50788
2.49785
2.4875
2.47701
2.46659
2.45623
2.44575
2.43539
2.42556
2.41577
2.4053
2.39468
2.38441
2.37316
2.35726
2.33238
2.25686
1.98873
1.26049
0.782309
0.64693
0.619006
0.619408
0.634892
0.653382
0.671272
0.688997
0.706847
0.724536
0.741823
0.758609
0.774919
0.790721
0.805512
0.819195
0.832454
0.845511
0.858571
0.871656
0.884802
0.898046
0.910793
0.922562
0.932776
0.94021
0.945096
0.94663
0.947312
0.941189
0.928134
0.905206
0.870389
0.821297
0.758277
0.688655
0.619802
0.55589
0.507186
0.468694
0.436184
0.408194
0.382898
0.358859
0.33623
0.314718
0.294499
0.275255
0.256609
0.238794
0.22221
0.206241
0.190468
0.175271
0.16087
0.147172
0.133797
0.121298
0.108933
0.0988202
0.0882552
0.0818766
0.0751817
0.0817134
2.59815
2.59815
2.59817
2.59819
2.59821
2.59825
2.5983
2.59837
2.59844
2.59854
2.59864
2.59873
2.59881
2.59884
2.59883
2.59879
2.59866
2.59842
2.59801
2.59739
2.59648
2.59526
2.59364
2.59157
2.589
2.58585
2.58208
2.57766
2.57256
2.56676
2.56029
2.55313
2.54535
2.53699
2.52807
2.5187
2.5089
2.49889
2.48854
2.47801
2.46749
2.45716
2.44658
2.4361
2.42634
2.41646
2.40564
2.39486
2.38468
2.37352
2.35822
2.33188
2.24849
1.95439
1.20089
0.757501
0.628241
0.602204
0.603671
0.621306
0.642478
0.663274
0.684132
0.704768
0.725098
0.744682
0.763482
0.781824
0.799581
0.816397
0.832687
0.848429
0.863638
0.878408
0.892782
0.906245
0.917857
0.927187
0.933921
0.938645
0.941074
0.942101
0.937801
0.927738
0.909293
0.879517
0.836735
0.779852
0.711884
0.638229
0.568271
0.512703
0.470995
0.439768
0.413968
0.391176
0.370206
0.349934
0.330507
0.312234
0.294704
0.277585
0.260822
0.24453
0.228871
0.213805
0.198974
0.184358
0.170473
0.157142
0.144504
0.132685
0.12214
0.11243
0.10567
0.0980499
0.0954115
0.091079
0.0989585
2.59815
2.59815
2.59817
2.59819
2.59821
2.59825
2.59831
2.59837
2.59844
2.59854
2.59865
2.59876
2.59883
2.59887
2.59888
2.59884
2.59872
2.59849
2.59811
2.59752
2.59665
2.59547
2.59391
2.59191
2.5894
2.58632
2.58265
2.57831
2.57333
2.56762
2.56127
2.5542
2.54654
2.53826
2.52944
2.52012
2.51041
2.50039
2.4901
2.47954
2.46892
2.45851
2.44792
2.43735
2.42728
2.41725
2.40631
2.39526
2.38471
2.37334
2.3571
2.3286
2.23861
1.93108
1.15509
0.739981
0.614855
0.591029
0.594094
0.615832
0.641221
0.667115
0.691803
0.715726
0.739144
0.761447
0.78265
0.803268
0.82305
0.841985
0.859454
0.875865
0.891069
0.904531
0.915911
0.925788
0.933966
0.939141
0.940601
0.94067
0.938289
0.929254
0.914019
0.888053
0.848613
0.795818
0.728821
0.655387
0.583973
0.522756
0.477336
0.444556
0.418799
0.397125
0.377519
0.359682
0.341755
0.324543
0.308576
0.293248
0.278093
0.263016
0.248252
0.233838
0.219886
0.206301
0.192902
0.179682
0.167064
0.155095
0.143979
0.13355
0.125318
0.118056
0.114089
0.108836
0.108862
0.106203
0.114695
2.59815
2.59815
2.59817
2.59819
2.59821
2.59825
2.59831
2.59837
2.59845
2.59855
2.59866
2.59877
2.59885
2.5989
2.59891
2.5989
2.59881
2.5986
2.59824
2.59769
2.59687
2.59575
2.59426
2.59233
2.58992
2.58695
2.58339
2.5792
2.57432
2.56878
2.56257
2.55566
2.54815
2.53999
2.5313
2.52207
2.51245
2.50247
2.4922
2.48168
2.47104
2.46041
2.44981
2.43913
2.42865
2.41844
2.40756
2.39617
2.38508
2.3734
2.35662
2.32815
2.23924
1.92095
1.13064
0.730119
0.609393
0.59169
0.598668
0.625007
0.654397
0.684242
0.712399
0.73927
0.765643
0.791105
0.815101
0.83747
0.858734
0.878572
0.895664
0.910801
0.923397
0.933142
0.940158
0.945844
0.948359
0.947078
0.943332
0.934557
0.919973
0.896988
0.861908
0.813472
0.750135
0.678479
0.60697
0.540483
0.491582
0.457073
0.430265
0.407841
0.388565
0.370612
0.354262
0.337962
0.321684
0.306518
0.292385
0.278484
0.264524
0.251049
0.238015
0.225292
0.212831
0.200394
0.188089
0.176266
0.165256
0.154602
0.144983
0.136246
0.130165
0.125136
0.123293
0.119897
0.121866
0.12045
0.129117
2.59815
2.59815
2.59817
2.59819
2.59821
2.59826
2.59831
2.59837
2.59845
2.59855
2.59867
2.59878
2.59889
2.59895
2.59899
2.59897
2.5989
2.59875
2.59842
2.59791
2.59715
2.5961
2.5947
2.59289
2.59058
2.58776
2.58434
2.58031
2.57562
2.57028
2.56425
2.55755
2.55021
2.54224
2.53371
2.52466
2.51517
2.50524
2.49504
2.48458
2.47391
2.46313
2.45238
2.4416
2.43087
2.4201
2.40905
2.3973
2.3857
2.37338
2.35572
2.326
2.23229
1.9149
1.13287
0.730717
0.611194
0.598641
0.613145
0.644366
0.678908
0.714526
0.74788
0.779191
0.809778
0.839046
0.865055
0.887336
0.907861
0.925362
0.93905
0.950282
0.959277
0.96381
0.967179
0.965433
0.961369
0.950037
0.935111
0.911165
0.877291
0.831175
0.770522
0.700534
0.630391
0.563192
0.511864
0.475722
0.448976
0.427224
0.407454
0.38912
0.371557
0.355269
0.339479
0.323691
0.308745
0.294874
0.281523
0.268173
0.2551
0.242742
0.23079
0.219134
0.207755
0.196448
0.185489
0.174776
0.164862
0.155512
0.147526
0.140187
0.136163
0.132981
0.132893
0.130852
0.134208
0.133795
0.142397
2.59816
2.59815
2.59818
2.59819
2.59821
2.59826
2.59831
2.59838
2.59847
2.59856
2.59868
2.5988
2.59891
2.59901
2.59906
2.59907
2.59902
2.5989
2.59863
2.59817
2.5975
2.59655
2.59525
2.59356
2.59139
2.58873
2.58551
2.58168
2.57722
2.57211
2.56631
2.55989
2.55278
2.54507
2.53678
2.52796
2.51862
2.50885
2.49875
2.48831
2.47766
2.46683
2.45592
2.44495
2.43398
2.42286
2.41122
2.39906
2.38707
2.37404
2.35546
2.32518
2.23309
1.92314
1.15975
0.742137
0.623536
0.616915
0.642196
0.680835
0.722605
0.765564
0.804707
0.841678
0.875399
0.906283
0.930067
0.948994
0.965345
0.977563
0.985741
0.992372
0.993795
0.99184
0.986817
0.972593
0.956585
0.932134
0.895482
0.849322
0.789952
0.722304
0.651524
0.58414
0.531632
0.49494
0.468753
0.448399
0.431317
0.414712
0.397653
0.380249
0.362925
0.346261
0.329958
0.31436
0.299971
0.28651
0.273426
0.260876
0.249073
0.237771
0.226534
0.215294
0.204396
0.193872
0.184033
0.174553
0.166045
0.157918
0.151388
0.145266
0.142801
0.141352
0.142525
0.141528
0.145832
0.146268
0.154649
2.59816
2.59815
2.59818
2.59819
2.59821
2.59826
2.59832
2.59838
2.59848
2.59859
2.5987
2.59883
2.59896
2.59907
2.59916
2.59918
2.59918
2.5991
2.59887
2.5985
2.59791
2.59707
2.59591
2.59436
2.59237
2.58992
2.58692
2.58334
2.57916
2.57433
2.56887
2.56274
2.55597
2.54859
2.54059
2.53206
2.52297
2.51344
2.50348
2.49316
2.48257
2.47171
2.46069
2.44951
2.43826
2.42676
2.41458
2.40166
2.38895
2.37459
2.35396
2.32254
2.23758
1.95212
1.2147
0.768049
0.651939
0.653461
0.693149
0.743661
0.796665
0.847234
0.888744
0.9256
0.954233
0.977782
0.994513
1.00757
1.01756
1.02163
1.02265
1.02282
1.01199
0.996521
0.976393
0.949013
0.910206
0.863511
0.802974
0.736263
0.666541
0.600397
0.545717
0.508648
0.48424
0.466686
0.452171
0.438776
0.424885
0.410341
0.394745
0.378044
0.360367
0.343074
0.326388
0.311141
0.296979
0.283371
0.270269
0.257795
0.246049
0.234874
0.224109
0.213619
0.203555
0.193852
0.184905
0.176178
0.168577
0.161476
0.156244
0.151135
0.149901
0.149863
0.152068
0.151839
0.156785
0.157923
0.165971
2.59817
2.59815
2.59818
2.59819
2.59821
2.59826
2.59832
2.59839
2.59849
2.5986
2.59872
2.59885
2.59901
2.59914
2.59925
2.59933
2.59935
2.59931
2.59916
2.59888
2.5984
2.59769
2.59667
2.59531
2.59353
2.59133
2.5886
2.58532
2.58147
2.57701
2.57192
2.56618
2.55984
2.55285
2.54525
2.53709
2.5284
2.51918
2.50951
2.4994
2.48896
2.47817
2.46712
2.45584
2.44435
2.43259
2.41997
2.40631
2.39277
2.37669
2.35413
2.32082
2.24265
1.98607
1.30946
0.819994
0.707508
0.719126
0.771477
0.832244
0.889933
0.940059
0.975327
1.00177
1.02025
1.03052
1.04084
1.04657
1.04902
1.04251
1.03483
1.01782
0.994019
0.958723
0.917245
0.866227
0.804364
0.737343
0.668683
0.604923
0.551392
0.515215
0.492407
0.477774
0.467049
0.457376
0.44766
0.436908
0.424259
0.41051
0.395115
0.377853
0.359341
0.341092
0.323986
0.308567
0.294377
0.281088
0.268608
0.256751
0.245409
0.234448
0.223822
0.213643
0.204142
0.195155
0.187039
0.179117
0.172475
0.166237
0.162043
0.157737
0.157402
0.15848
0.161454
0.161804
0.167156
0.168835
0.176474
2.59818
2.59817
2.59818
2.59819
2.59823
2.59827
2.59832
2.59841
2.5985
2.59861
2.59874
2.59889
2.59906
2.5992
2.59936
2.59948
2.59955
2.59957
2.59951
2.59932
2.59896
2.59839
2.59757
2.59641
2.59491
2.59296
2.59055
2.58765
2.58418
2.58016
2.57554
2.5703
2.56445
2.55796
2.55091
2.54324
2.53504
2.52627
2.51705
2.50732
2.49721
2.48664
2.47576
2.46455
2.45297
2.44109
2.42825
2.41416
2.39989
2.38162
2.358
2.32039
2.24219
1.98079
1.42224
0.925358
0.824592
0.835556
0.882173
0.940723
0.988768
1.0226
1.04412
1.05196
1.06224
1.05561
1.06097
1.0574
1.0511
1.02796
1.00059
0.960315
0.914387
0.855999
0.791373
0.723837
0.657662
0.59413
0.543703
0.510325
0.49024
0.478427
0.470963
0.465604
0.460636
0.454974
0.447334
0.437603
0.426573
0.413657
0.398639
0.381477
0.362844
0.3442
0.326916
0.311183
0.296575
0.282912
0.270258
0.258276
0.246906
0.236096
0.225768
0.215991
0.206927
0.198404
0.19078
0.183422
0.177542
0.171967
0.168609
0.164965
0.165237
0.167136
0.170652
0.171444
0.177035
0.179105
0.186295
2.59818
2.59817
2.59818
2.5982
2.59824
2.59827
2.59833
2.59842
2.59851
2.59863
2.59878
2.59894
2.59911
2.5993
2.59948
2.59965
2.5998
2.59987
2.59988
2.59981
2.5996
2.5992
2.59858
2.59768
2.59644
2.59484
2.59281
2.59033
2.58734
2.58382
2.57975
2.5751
2.56985
2.56404
2.55762
2.55064
2.54309
2.53499
2.52636
2.51726
2.5077
2.49766
2.48724
2.47643
2.46512
2.4536
2.44103
2.4276
2.41318
2.39346
2.37118
2.33005
2.24157
1.94584
1.47322
1.07884
0.978554
0.97567
1.00057
1.04053
1.06316
1.071
1.07678
1.0657
1.07347
1.05332
1.04991
1.02608
0.997014
0.948962
0.893899
0.831388
0.766312
0.698578
0.63244
0.573403
0.529559
0.498584
0.480957
0.471148
0.466199
0.46365
0.461857
0.45966
0.457525
0.453395
0.446861
0.4389
0.428894
0.416572
0.401808
0.384801
0.365957
0.346857
0.329275
0.313406
0.298907
0.285511
0.273064
0.261183
0.249891
0.239202
0.22904
0.21953
0.2108
0.202702
0.195518
0.188691
0.183537
0.178541
0.17588
0.172811
0.173425
0.175829
0.179709
0.180838
0.186526
0.188836
0.195578
2.59818
2.59817
2.59818
2.5982
2.59824
2.59827
2.59835
2.59843
2.59854
2.59866
2.5988
2.59897
2.59918
2.59938
2.59961
2.59983
2.60005
2.60022
2.60034
2.60038
2.60032
2.60013
2.59973
2.5991
2.5982
2.59698
2.5954
2.5934
2.59098
2.58804
2.58463
2.58067
2.57618
2.57114
2.56556
2.55941
2.55274
2.54551
2.53778
2.52957
2.52086
2.51168
2.5021
2.49216
2.48164
2.47109
2.45981
2.44846
2.43463
2.41774
2.39805
2.34943
2.25396
1.88107
1.54488
1.19626
1.12134
1.09553
1.09346
1.10157
1.10479
1.08233
1.072
1.04599
1.03977
0.999601
0.972429
0.917783
0.860434
0.790332
0.719955
0.655741
0.591773
0.542079
0.505498
0.481232
0.467396
0.459782
0.457142
0.4571
0.45772
0.458667
0.458931
0.457794
0.455974
0.452106
0.446877
0.439974
0.43093
0.419599
0.405915
0.389931
0.371906
0.352828
0.334718
0.318341
0.303599
0.290158
0.27777
0.26601
0.254856
0.244341
0.234324
0.22501
0.21645
0.208576
0.201566
0.195093
0.190451
0.185895
0.183741
0.181171
0.181947
0.184558
0.188653
0.190032
0.195716
0.19815
0.204469
2.59818
2.59817
2.59818
2.5982
2.59824
2.59829
2.59836
2.59844
2.59855
2.59868
2.59884
2.59903
2.59925
2.59949
2.59976
2.60005
2.60033
2.60061
2.60085
2.60103
2.60114
2.60114
2.60102
2.60072
2.60018
2.59939
2.5983
2.59689
2.59506
2.59284
2.59019
2.58706
2.58346
2.57937
2.57477
2.56966
2.5641
2.55801
2.55147
2.54441
2.53692
2.52903
2.52067
2.51221
2.50317
2.49432
2.48581
2.47619
2.46385
2.45212
2.43103
2.36889
2.19451
1.76466
1.40052
1.22106
1.17188
1.14437
1.11966
1.10269
1.07036
1.04206
1.00929
0.974564
0.920238
0.86799
0.800863
0.729763
0.663743
0.597686
0.546115
0.508134
0.479045
0.461501
0.451872
0.448096
0.448247
0.449092
0.450393
0.452233
0.453892
0.455086
0.455811
0.455941
0.454346
0.451118
0.446669
0.440281
0.431841
0.421266
0.408485
0.393588
0.376696
0.358487
0.340674
0.324306
0.309455
0.295797
0.283179
0.271307
0.260154
0.249772
0.239917
0.230863
0.222505
0.214891
0.208129
0.202065
0.197889
0.193736
0.191996
0.189874
0.190732
0.193293
0.197496
0.199061
0.204669
0.207139
0.213037
2.59818
2.59817
2.59818
2.5982
2.59824
2.5983
2.59837
2.59845
2.59856
2.59872
2.59889
2.59909
2.59933
2.59961
2.59993
2.60026
2.60063
2.601
2.60139
2.60176
2.60207
2.60233
2.60249
2.60251
2.60239
2.60207
2.60157
2.60077
2.59966
2.59824
2.59644
2.59429
2.59172
2.58877
2.58537
2.58154
2.57726
2.57257
2.56751
2.56203
2.5561
2.54986
2.5432
2.53661
2.52976
2.52363
2.51733
2.50959
2.50356
2.49386
2.47149
2.38175
2.15893
1.63268
1.35295
1.25062
1.21703
1.19171
1.16399
1.13382
1.05598
0.97912
0.893757
0.811851
0.734622
0.665812
0.597345
0.54144
0.500771
0.471365
0.453163
0.442787
0.437661
0.435814
0.436104
0.436777
0.440491
0.444944
0.449081
0.452464
0.454473
0.45568
0.456035
0.455798
0.454089
0.451413
0.447309
0.441452
0.433682
0.423798
0.411716
0.397556
0.381459
0.363883
0.346343
0.330135
0.315592
0.302227
0.289815
0.278109
0.267077
0.256834
0.247059
0.238147
0.229798
0.222256
0.215591
0.209787
0.205853
0.201964
0.200511
0.198752
0.199698
0.202023
0.206259
0.207949
0.213425
0.215868
0.221365
2.59818
2.59818
2.59818
2.5982
2.59825
2.5983
2.59837
2.59848
2.5986
2.59874
2.59894
2.59915
2.59943
2.59974
2.60011
2.60052
2.60096
2.60146
2.60198
2.60252
2.60307
2.60361
2.60409
2.60453
2.60486
2.60508
2.60515
2.60504
2.60474
2.60421
2.6034
2.60238
2.60101
2.59932
2.59729
2.59492
2.59217
2.58913
2.58593
2.58232
2.57833
2.57404
2.56959
2.56529
2.56073
2.55685
2.55257
2.54905
2.5446
2.53338
2.49889
2.35823
2.06513
1.55251
1.33089
1.25427
1.21728
1.18629
1.14197
1.07199
0.955858
0.823548
0.703171
0.604989
0.537819
0.495989
0.466985
0.446886
0.435082
0.428667
0.425673
0.42561
0.425449
0.429438
0.434288
0.438545
0.442759
0.446399
0.44982
0.452503
0.454671
0.455615
0.456292
0.455916
0.454323
0.451804
0.447927
0.442556
0.435407
0.426365
0.415312
0.402266
0.387317
0.370692
0.353549
0.337153
0.322392
0.308855
0.296364
0.284713
0.273781
0.263704
0.254088
0.245394
0.237145
0.229798
0.223299
0.217799
0.214023
0.210344
0.209133
0.20769
0.208783
0.210759
0.214928
0.216712
0.222013
0.224389
0.229524
2.59818
2.59818
2.59819
2.59821
2.59825
2.59831
2.59838
2.59849
2.59861
2.59878
2.59898
2.59924
2.59954
2.59989
2.60031
2.60078
2.60134
2.60194
2.60263
2.60337
2.60415
2.60498
2.60584
2.6067
2.60755
2.60836
2.60911
2.60978
2.61038
2.61087
2.61119
2.6113
2.61123
2.61098
2.6106
2.60989
2.60891
2.60784
2.6067
2.60522
2.60342
2.60136
2.59933
2.59745
2.59509
2.59325
2.59246
2.59037
2.58628
2.57154
2.51608
2.31476
1.90094
1.47066
1.30592
1.23185
1.18887
1.14222
1.06222
0.938591
0.783736
0.626927
0.506885
0.448135
0.426432
0.418899
0.416374
0.415502
0.415915
0.416728
0.419669
0.424034
0.428118
0.43213
0.436439
0.440422
0.444454
0.447694
0.451381
0.453781
0.456
0.456931
0.457464
0.457077
0.455626
0.453296
0.449736
0.444745
0.437951
0.429298
0.418763
0.406449
0.392376
0.376706
0.360314
0.344355
0.329877
0.316477
0.304025
0.292431
0.281542
0.271559
0.26201
0.253419
0.245187
0.237992
0.231562
0.226275
0.222483
0.218922
0.21788
0.216677
0.217929
0.219506
0.223501
0.225366
0.23047
0.232754
0.23756
2.59818
2.59818
2.59819
2.59821
2.59826
2.59831
2.59839
2.5985
2.59865
2.59883
2.59903
2.59931
2.59965
2.60006
2.60053
2.60108
2.60174
2.60248
2.60333
2.60427
2.60532
2.60647
2.6077
2.60905
2.61044
2.61189
2.61339
2.61493
2.61646
2.61806
2.61961
2.62104
2.62239
2.62383
2.62516
2.62635
2.62733
2.6283
2.62943
2.63039
2.63109
2.63138
2.63156
2.63194
2.63272
2.63392
2.63469
2.6348
2.63133
2.61244
2.53105
2.28456
1.77749
1.43339
1.2813
1.20368
1.13955
1.05771
0.930317
0.765525
0.592153
0.460391
0.402431
0.389161
0.392154
0.397527
0.402857
0.407784
0.413329
0.41846
0.423248
0.427985
0.432844
0.437409
0.442013
0.445366
0.4491
0.451081
0.454444
0.4565
0.458472
0.459412
0.459846
0.459504
0.458095
0.455771
0.452469
0.447876
0.44167
0.433676
0.423804
0.412072
0.398584
0.383546
0.367545
0.351739
0.337284
0.323917
0.311483
0.299957
0.289152
0.279307
0.269891
0.261444
0.253331
0.24635
0.240022
0.23493
0.23106
0.227602
0.226705
0.225659
0.227062
0.228243
0.232016
0.233944
0.238828
0.240982
0.245491
2.59818
2.59818
2.59819
2.59821
2.59826
2.59832
2.59842
2.59853
2.59867
2.59886
2.59909
2.59941
2.59977
2.60021
2.60076
2.60141
2.60217
2.60305
2.60408
2.60525
2.60657
2.60806
2.60971
2.61154
2.61353
2.61567
2.61798
2.62044
2.62304
2.62577
2.62866
2.6316
2.63451
2.63757
2.64085
2.6442
2.64736
2.65033
2.65322
2.65666
2.66006
2.66305
2.66548
2.66827
2.67186
2.67572
2.67755
2.67831
2.67466
2.63976
2.53939
2.17055
1.73095
1.40394
1.25308
1.15422
1.06349
0.928963
0.762722
0.583954
0.446153
0.389657
0.374908
0.382361
0.389938
0.398295
0.405998
0.412177
0.41737
0.422462
0.427695
0.432728
0.437871
0.442717
0.447759
0.45106
0.454798
0.456118
0.459012
0.460685
0.462505
0.463388
0.463705
0.463322
0.46189
0.459488
0.456135
0.451633
0.44571
0.438191
0.428939
0.417908
0.405175
0.390956
0.375664
0.360234
0.345775
0.332385
0.319878
0.308332
0.297513
0.287715
0.278344
0.269967
0.261941
0.255118
0.248832
0.243831
0.239835
0.236442
0.235642
0.23463
0.236142
0.236967
0.240499
0.242464
0.247112
0.2491
0.253312
2.59819
2.59818
2.59819
2.59821
2.59826
2.59833
2.59843
2.59855
2.59871
2.5989
2.59917
2.59949
2.5999
2.6004
2.60101
2.60173
2.60261
2.60365
2.60487
2.60628
2.6079
2.60976
2.61186
2.6142
2.6168
2.61969
2.62283
2.62628
2.62997
2.6339
2.63812
2.64266
2.64727
2.65207
2.65696
2.66233
2.66788
2.67339
2.67848
2.68351
2.68908
2.69527
2.70071
2.70594
2.71186
2.7187
2.7227
2.72489
2.72478
2.66687
2.58595
2.00508
1.69842
1.36176
1.19564
1.07088
0.934537
0.764114
0.582831
0.442812
0.387103
0.371955
0.382638
0.392407
0.402418
0.411089
0.418117
0.423784
0.428158
0.432023
0.436234
0.440545
0.445082
0.449429
0.454225
0.457215
0.460907
0.461835
0.464483
0.465606
0.46728
0.468089
0.468305
0.467915
0.46655
0.464131
0.46073
0.456261
0.450511
0.44329
0.434455
0.423945
0.411817
0.39822
0.383557
0.368587
0.35421
0.34083
0.328294
0.316775
0.305969
0.296221
0.286891
0.278606
0.270698
0.264015
0.257783
0.252844
0.248734
0.245392
0.244625
0.243568
0.245127
0.245692
0.248988
0.250956
0.255338
0.257115
0.261019
2.59819
2.59818
2.5982
2.59823
2.59827
2.59835
2.59844
2.59856
2.59873
2.59896
2.59924
2.59959
2.60003
2.60059
2.60126
2.60208
2.6031
2.60428
2.6057
2.60737
2.6093
2.61153
2.61407
2.61695
2.62021
2.62382
2.62783
2.63226
2.63707
2.64223
2.64786
2.65386
2.66023
2.66701
2.67381
2.6807
2.6884
2.69658
2.70441
2.71155
2.71887
2.72735
2.73562
2.74366
2.75282
2.76119
2.76552
2.76654
2.75816
2.65812
2.55976
1.77205
1.66974
1.28029
1.09143
0.943092
0.763959
0.582523
0.441387
0.387013
0.372589
0.384247
0.394177
0.404981
0.414694
0.423067
0.430095
0.435728
0.440166
0.443366
0.446103
0.44902
0.452296
0.455659
0.460208
0.463514
0.467656
0.469059
0.471826
0.472113
0.473661
0.474301
0.474398
0.473867
0.472491
0.470013
0.466485
0.461964
0.456279
0.44925
0.440735
0.430651
0.419014
0.405979
0.391917
0.377447
0.363216
0.349801
0.337193
0.325664
0.314819
0.305081
0.295759
0.287547
0.279726
0.27312
0.266923
0.262007
0.257776
0.254451
0.253638
0.252509
0.254007
0.254425
0.257482
0.259401
0.263493
0.265049
0.268636
2.59819
2.59819
2.5982
2.59824
2.59829
2.59836
2.59845
2.5986
2.59877
2.59901
2.59931
2.59968
2.60018
2.60078
2.60154
2.60246
2.60358
2.60494
2.60656
2.60846
2.61072
2.61332
2.61632
2.61974
2.62363
2.628
2.63288
2.6383
2.64416
2.65065
2.65772
2.66512
2.67315
2.6819
2.691
2.69967
2.70898
2.71967
2.73046
2.74079
2.75021
2.75998
2.77029
2.78189
2.79515
2.8044
2.80876
2.80704
2.77768
2.63931
2.42581
1.75697
1.51125
1.15017
0.95645
0.774199
0.585371
0.442951
0.389953
0.376131
0.388672
0.398859
0.409707
0.419553
0.428057
0.435473
0.441732
0.447042
0.451242
0.454704
0.456865
0.458816
0.460939
0.463329
0.467144
0.470424
0.474634
0.4766
0.479637
0.479542
0.481159
0.481468
0.481703
0.480904
0.479534
0.476985
0.473338
0.468719
0.463015
0.45607
0.447749
0.437954
0.426691
0.414074
0.400466
0.386484
0.372497
0.35915
0.346438
0.334877
0.323946
0.314166
0.30483
0.296665
0.288907
0.282335
0.276174
0.271253
0.266897
0.263571
0.262658
0.261479
0.262836
0.263188
0.266007
0.267812
0.271571
0.272902
0.276157
2.59819
2.59819
2.5982
2.59824
2.5983
2.59837
2.59848
2.59861
2.5988
2.59906
2.59938
2.59979
2.60032
2.60099
2.60182
2.60283
2.60408
2.60559
2.60741
2.60958
2.61212
2.61511
2.61857
2.62254
2.62706
2.63216
2.6379
2.64425
2.65124
2.65898
2.66742
2.6763
2.6859
2.69638
2.70759
2.7189
2.72996
2.74216
2.75581
2.76941
2.78236
2.7934
2.80648
2.82132
2.83869
2.84901
2.85343
2.85216
2.766
2.73363
1.95505
1.77499
1.20514
0.947427
0.772382
0.585359
0.44488
0.392503
0.379899
0.393403
0.404085
0.414859
0.424383
0.432824
0.440194
0.446722
0.452351
0.457352
0.461481
0.465068
0.467734
0.469549
0.470739
0.471942
0.474705
0.477558
0.481493
0.483771
0.487104
0.487016
0.488832
0.488895
0.489682
0.48882
0.487712
0.485204
0.481513
0.476716
0.470845
0.463829
0.455536
0.445871
0.434829
0.422539
0.409317
0.395734
0.381985
0.368785
0.356003
0.344407
0.333356
0.32352
0.314145
0.305982
0.298241
0.291657
0.285523
0.280542
0.276077
0.272755
0.271694
0.270481
0.27165
0.272002
0.274553
0.276142
0.279519
0.280666
0.283644
2.59819
2.59819
2.5982
2.59825
2.5983
2.59838
2.59849
2.59865
2.59884
2.59912
2.59945
2.5999
2.60047
2.60119
2.60209
2.60322
2.60459
2.60626
2.60829
2.6107
2.61355
2.6169
2.62081
2.62531
2.63044
2.63628
2.64283
2.65012
2.6582
2.66709
2.67681
2.68724
2.69845
2.71044
2.72341
2.73723
2.75098
2.76469
2.78009
2.79668
2.81223
2.82492
2.84174
2.86366
2.88352
2.89439
2.904
2.87784
2.81031
2.40744
1.97512
1.39986
0.986753
0.785163
0.597844
0.455808
0.401096
0.387599
0.401565
0.411852
0.422111
0.43123
0.438826
0.445514
0.451457
0.457104
0.462109
0.466769
0.470747
0.474477
0.477325
0.47998
0.48132
0.481599
0.483137
0.485368
0.488602
0.490805
0.494176
0.494342
0.496431
0.496193
0.497244
0.496588
0.496137
0.494119
0.490714
0.485833
0.47979
0.47258
0.464177
0.4545
0.443555
0.431487
0.418548
0.405274
0.391736
0.378702
0.365877
0.354251
0.343042
0.333127
0.323669
0.315453
0.307676
0.301039
0.294913
0.289833
0.285312
0.282012
0.28075
0.279522
0.280482
0.280891
0.283099
0.284436
0.287432
0.288429
0.291123
2.5982
2.59819
2.59821
2.59825
2.59831
2.59838
2.5985
2.59867
2.59889
2.59915
2.59954
2.60001
2.60062
2.60141
2.60237
2.60359
2.6051
2.60693
2.60914
2.61182
2.61497
2.61869
2.62303
2.62803
2.63377
2.6403
2.64765
2.65585
2.66495
2.67497
2.68589
2.69775
2.71057
2.72414
2.73857
2.75424
2.77079
2.78682
2.80345
2.82186
2.83996
2.85666
2.87754
2.90355
2.92116
2.92969
2.93497
2.86245
2.83068
2.15445
1.66686
1.01753
0.782875
0.60416
0.463971
0.408271
0.394824
0.409611
0.420504
0.431052
0.440069
0.447583
0.453747
0.459017
0.463639
0.468065
0.472172
0.476208
0.479815
0.483345
0.486476
0.489244
0.491408
0.492006
0.492315
0.493941
0.496302
0.497981
0.501098
0.501582
0.503956
0.503472
0.504723
0.504069
0.504248
0.502916
0.500206
0.495597
0.489562
0.482284
0.473736
0.463933
0.452964
0.440995
0.428193
0.415122
0.401708
0.38882
0.376001
0.364377
0.352979
0.342961
0.333357
0.32504
0.317192
0.310477
0.304335
0.299155
0.294609
0.291334
0.289827
0.288594
0.289343
0.289795
0.291607
0.292714
0.295308
0.296185
0.298633
2.5982
2.59819
2.59821
2.59825
2.59831
2.59841
2.59853
2.59868
2.59891
2.59921
2.59961
2.60012
2.60077
2.60161
2.60266
2.60397
2.6056
2.60759
2.61
2.6129
2.61635
2.62043
2.62518
2.63069
2.63699
2.64417
2.65227
2.66132
2.67137
2.68243
2.69452
2.70764
2.72182
2.73699
2.75298
2.77005
2.78832
2.80723
2.82572
2.84521
2.86349
2.88599
2.91448
2.93811
2.94966
2.95886
2.92061
2.91448
2.41404
2.04593
1.13377
0.799894
0.621887
0.482895
0.423492
0.408245
0.423258
0.43369
0.443563
0.45199
0.458857
0.464457
0.469108
0.473151
0.476548
0.479782
0.482947
0.486272
0.489477
0.492627
0.495672
0.498317
0.500744
0.502129
0.502041
0.50348
0.505015
0.505906
0.508475
0.509081
0.511564
0.510971
0.51243
0.511674
0.5122
0.511271
0.509328
0.505251
0.499603
0.492585
0.484083
0.474211
0.463153
0.45114
0.438305
0.425315
0.411925
0.399148
0.386325
0.374717
0.363139
0.352998
0.343209
0.334769
0.326809
0.319991
0.313783
0.308501
0.303944
0.300695
0.298937
0.297734
0.298273
0.298682
0.300099
0.301007
0.303208
0.30402
0.306228
2.5982
2.5982
2.59821
2.59826
2.59832
2.59842
2.59854
2.59872
2.59896
2.59927
2.59968
2.60024
2.60092
2.60182
2.60294
2.60435
2.60609
2.60824
2.61084
2.61397
2.6177
2.62211
2.62725
2.63322
2.64005
2.64785
2.65662
2.66646
2.67735
2.68934
2.70247
2.71671
2.73209
2.74848
2.76603
2.78442
2.80405
2.82421
2.8455
2.86577
2.8869
2.9128
2.94388
2.96669
2.98073
2.97474
2.95975
2.64491
2.35972
1.34741
0.833555
0.632181
0.493763
0.432675
0.419094
0.434692
0.445711
0.456007
0.464248
0.470839
0.476258
0.480756
0.484441
0.487708
0.490549
0.492813
0.49494
0.497325
0.499835
0.502448
0.505142
0.507568
0.509901
0.511781
0.511894
0.513299
0.514493
0.514739
0.516554
0.516844
0.51915
0.518765
0.520469
0.51943
0.520165
0.519243
0.518093
0.514765
0.509627
0.502967
0.494757
0.485053
0.474032
0.461941
0.448975
0.435928
0.422453
0.409736
0.396864
0.385253
0.373505
0.363228
0.353213
0.344613
0.336493
0.329547
0.323251
0.317883
0.313348
0.310094
0.30811
0.306885
0.307204
0.307499
0.308542
0.309336
0.311129
0.311895
0.313817
2.5982
2.5982
2.59823
2.59826
2.59832
2.59843
2.59856
2.59874
2.599
2.59932
2.59977
2.60033
2.60108
2.60202
2.60321
2.60472
2.60657
2.60886
2.61164
2.61499
2.61899
2.6237
2.62923
2.63561
2.64293
2.65128
2.66069
2.67119
2.68283
2.69566
2.70964
2.72484
2.74115
2.75866
2.7772
2.79689
2.81752
2.839
2.86071
2.88085
2.90619
2.93839
2.96258
2.97448
2.98032
2.94959
2.84385
2.5108
1.60474
0.889629
0.642667
0.502508
0.441872
0.429101
0.446247
0.458114
0.468823
0.477487
0.484333
0.489437
0.493562
0.497008
0.499946
0.502361
0.504629
0.506901
0.508248
0.509862
0.51144
0.513311
0.51548
0.517531
0.519537
0.521496
0.52239
0.52272
0.524286
0.524691
0.525681
0.525196
0.527003
0.52696
0.528919
0.527508
0.528366
0.527153
0.526566
0.524018
0.519721
0.513335
0.505381
0.495962
0.48518
0.473173
0.460157
0.446974
0.433278
0.420539
0.407556
0.395923
0.384028
0.373634
0.363373
0.354583
0.346284
0.339194
0.332782
0.327323
0.3228
0.319495
0.3173
0.316004
0.316145
0.316347
0.317032
0.317731
0.319081
0.319904
0.321425
2.59821
2.5982
2.59823
2.59826
2.59833
2.59844
2.59859
2.59878