/*--------------------------------*- C++ -*----------------------------------*\
| =========                 |                                                 |
| \\      /  F ield         | OpenFOAM: The Open Source CFD Toolbox           |
|  \\    /   O peration     | Version:  2.2.x                                 |
|   \\  /    A nd           | Web:      www.OpenFOAM.org                      |
|    \\/     M anipulation  |                                                 |
\*---------------------------------------------------------------------------*/
FoamFile
{
    version     2.0;
    format      ascii;
    class       volScalarField;
    location    "0.7";
    object      p;
}
// * * * * * * * * * * * * * * * * * * * * * * * * * * * * * * * * * * * * * //

dimensions      [1 -1 -2 0 0 0 0];

internalField   nonuniform List<scalar> 
14161
(
0.199989
0.19999
0.199989
0.199986
0.199983
0.199978
0.199972
0.199963
0.199953
0.199941
0.199929
0.199917
0.199911
0.199909
0.19991
0.199919
0.199938
0.199975
0.200034
0.200122
0.200246
0.200416
0.200638
0.200921
0.201275
0.201706
0.202221
0.202827
0.203528
0.204326
0.205221
0.206214
0.207299
0.208472
0.209727
0.211051
0.212442
0.213887
0.215372
0.216881
0.218422
0.21996
0.221492
0.223023
0.224556
0.22612
0.227717
0.229313
0.230988
0.232848
0.235556
0.240762
0.257354
0.322972
0.672582
1.2033
1.45836
1.53258
1.54238
1.51597
1.48649
1.4606
1.43841
1.41671
1.39453
1.37248
1.35187
1.33253
1.31416
1.29703
1.28112
1.26627
1.25228
1.23892
1.22581
1.2129
1.20055
1.18874
1.17718
1.16247
1.14659
1.13053
1.1155
1.10359
1.09574
1.09411
1.09297
1.09382
1.10255
1.12342
1.15822
1.21087
1.28136
1.37241
1.47622
1.57277
1.65564
1.7251
1.78125
1.82427
1.85736
1.88609
1.91153
1.93184
1.94722
1.96225
1.97618
1.98699
1.99578
2.00492
2.01345
2.02117
2.02818
2.03467
2.04041
2.04586
2.05004
2.05177
2.05657
0.199989
0.19999
0.199989
0.199986
0.199983
0.199978
0.199971
0.199963
0.199953
0.199941
0.199929
0.199917
0.199911
0.199908
0.19991
0.199918
0.199937
0.199973
0.200032
0.20012
0.200244
0.200413
0.200634
0.200917
0.201269
0.201699
0.202213
0.202818
0.203517
0.204314
0.205208
0.206199
0.207283
0.208455
0.209708
0.211033
0.212424
0.213867
0.215352
0.216863
0.218401
0.219952
0.221498
0.223016
0.224547
0.226113
0.22771
0.229304
0.230978
0.232808
0.235512
0.240586
0.256128
0.318151
0.65934
1.18953
1.44358
1.51646
1.5273
1.50312
1.47478
1.44879
1.42602
1.4041
1.38218
1.36036
1.33996
1.32089
1.30291
1.28574
1.26967
1.25486
1.24102
1.22778
1.21455
1.2012
1.18806
1.175
1.16235
1.14744
1.13209
1.11791
1.10669
1.0993
1.09529
1.09532
1.09879
1.10877
1.12904
1.1625
1.21366
1.28447
1.37156
1.46836
1.56588
1.64955
1.7149
1.76895
1.81329
1.84777
1.87537
1.9
1.9223
1.94053
1.95482
1.96902
1.98206
1.99235
2.00085
2.00975
2.0179
2.02531
2.03185
2.0377
2.04282
2.04781
2.05072
2.05097
2.05696
0.199989
0.19999
0.199989
0.199986
0.199983
0.199978
0.199971
0.199963
0.199953
0.199941
0.199928
0.199916
0.19991
0.199907
0.199908
0.199916
0.199935
0.19997
0.200028
0.200115
0.200238
0.200405
0.200625
0.200906
0.201256
0.201683
0.202194
0.202796
0.203492
0.204285
0.205176
0.206162
0.207243
0.208413
0.209663
0.210987
0.212375
0.213817
0.215305
0.21682
0.218354
0.219904
0.221459
0.222997
0.224518
0.226072
0.22768
0.229299
0.230969
0.232809
0.235597
0.240562
0.255899
0.316974
0.656003
1.1859
1.43755
1.50967
1.52087
1.49793
1.47049
1.44427
1.42071
1.39808
1.37576
1.35356
1.33236
1.3127
1.29452
1.27709
1.26021
1.24495
1.23069
1.21729
1.20386
1.18995
1.17592
1.16149
1.14707
1.13277
1.12043
1.11058
1.10437
1.10095
1.10023
1.10459
1.11631
1.13646
1.16899
1.21728
1.28236
1.36718
1.46147
1.55318
1.6354
1.70224
1.75334
1.79639
1.83308
1.86315
1.88769
1.90944
1.92937
1.94605
1.95964
1.97316
1.98533
1.99505
2.00326
2.01182
2.01961
2.02672
2.03289
2.03833
2.04264
2.0465
2.04871
2.04774
2.05397
0.199989
0.19999
0.199988
0.199986
0.199983
0.199978
0.199971
0.199963
0.199953
0.199941
0.199928
0.199916
0.199908
0.199905
0.199906
0.199913
0.199931
0.199966
0.200022
0.200107
0.200227
0.200392
0.200609
0.200886
0.201232
0.201654
0.202161
0.202756
0.203446
0.204232
0.205118
0.206096
0.207172
0.208333
0.20958
0.210899
0.212286
0.213721
0.215212
0.216738
0.218271
0.219813
0.221388
0.222953
0.224451
0.225977
0.227621
0.229297
0.230925
0.23276
0.235552
0.240413
0.256509
0.32351
0.676945
1.19959
1.44523
1.51619
1.52691
1.50234
1.47414
1.44684
1.42188
1.39749
1.37359
1.35005
1.32697
1.30532
1.28525
1.26639
1.24824
1.23136
1.21556
1.20065
1.18611
1.17126
1.15626
1.14217
1.12968
1.11965
1.11344
1.10999
1.10821
1.10793
1.11439
1.12928
1.15703
1.20047
1.26172
1.34107
1.4326
1.52465
1.60984
1.67737
1.73097
1.77679
1.81281
1.84246
1.86661
1.88859
1.90881
1.92732
1.94383
1.95766
1.96974
1.98203
1.99274
2.00105
2.00839
2.01617
2.0233
2.02927
2.03422
2.03827
2.04136
2.04415
2.04577
2.04356
2.05057
0.199989
0.19999
0.199988
0.199986
0.199983
0.199978
0.199971
0.199963
0.199952
0.19994
0.199927
0.199914
0.199906
0.199902
0.199903
0.199908
0.199925
0.199958
0.200012
0.200094
0.200212
0.200372
0.200584
0.200855
0.201195
0.20161
0.202108
0.202695
0.203375
0.204151
0.205026
0.205995
0.20706
0.208211
0.20945
0.210761
0.212142
0.213572
0.215063
0.216595
0.218135
0.219672
0.221263
0.222844
0.224325
0.225873
0.227567
0.229267
0.230882
0.232702
0.235389
0.240495
0.2581
0.333195
0.710878
1.22197
1.45651
1.52829
1.53925
1.51172
1.48041
1.45022
1.42161
1.39368
1.36692
1.34101
1.31534
1.29136
1.26975
1.24959
1.22962
1.21036
1.19245
1.17644
1.16186
1.14839
1.13596
1.1253
1.11731
1.11202
1.11169
1.114
1.11929
1.12975
1.14925
1.18263
1.23412
1.30494
1.3926
1.48717
1.57902
1.65659
1.71166
1.75343
1.79022
1.82209
1.84824
1.86959
1.88834
1.90729
1.92507
1.94093
1.95459
1.96647
1.97766
1.98864
1.99768
2.00479
2.01187
2.01901
2.02529
2.03055
2.03438
2.03734
2.03938
2.04086
2.04178
2.03888
2.04667
0.199989
0.19999
0.199988
0.199986
0.199982
0.199977
0.199971
0.199962
0.199952
0.19994
0.199926
0.199912
0.199903
0.199898
0.199898
0.199902
0.199918
0.199947
0.199998
0.200077
0.200189
0.200344
0.200549
0.200812
0.201142
0.201547
0.202033
0.202608
0.203273
0.204036
0.204893
0.205849
0.206896
0.208035
0.209258
0.210561
0.21193
0.213357
0.214841
0.216373
0.217928
0.219472
0.221063
0.222656
0.224182
0.225748
0.227462
0.229205
0.230876
0.232729
0.235574
0.241073
0.260092
0.341279
0.740625
1.24147
1.4666
1.53864
1.54704
1.51357
1.47641
1.44209
1.40901
1.37739
1.34765
1.31974
1.2923
1.26565
1.24166
1.22065
1.20038
1.18082
1.16264
1.14732
1.13575
1.12743
1.12046
1.11432
1.11139
1.11114
1.11628
1.12943
1.1473
1.17645
1.22099
1.28337
1.3664
1.45875
1.55148
1.63501
1.69695
1.73937
1.77294
1.80358
1.83108
1.85322
1.87173
1.88865
1.90645
1.92332
1.93823
1.95106
1.96281
1.97368
1.9839
1.99342
2.00136
2.00819
2.01456
2.0209
2.02626
2.03063
2.03354
2.03555
2.03654
2.03684
2.03724
2.03402
2.04226
0.199989
0.199989
0.199988
0.199986
0.199982
0.199977
0.19997
0.199962
0.199951
0.199939
0.199925
0.199911
0.199899
0.199893
0.199891
0.199894
0.199907
0.199933
0.19998
0.200054
0.20016
0.200307
0.200503
0.200756
0.201074
0.201465
0.201935
0.202492
0.203139
0.203882
0.204718
0.205652
0.206678
0.207797
0.209
0.210286
0.211641
0.213062
0.214535
0.216061
0.217619
0.219193
0.220779
0.222391
0.22398
0.22556
0.227266
0.229064
0.230824
0.232723
0.235662
0.241167
0.259974
0.345425
0.760899
1.25657
1.47132
1.5405
1.54286
1.50253
1.46067
1.42141
1.38508
1.3499
1.31683
1.28644
1.25702
1.22868
1.20265
1.18052
1.16216
1.14547
1.13085
1.11928
1.11151
1.10811
1.10802
1.10921
1.11243
1.12207
1.13962
1.16755
1.20901
1.26693
1.34382
1.43214
1.52152
1.60786
1.67453
1.72086
1.75586
1.78302
1.80821
1.83291
1.85407
1.87196
1.88713
1.90319
1.91963
1.93426
1.94619
1.95741
1.9683
1.97855
1.98814
1.99665
2.00347
2.00987
2.0159
2.02142
2.02597
2.02969
2.03193
2.033
2.03303
2.03229
2.03232
2.02915
2.03744
0.199989
0.199989
0.199988
0.199986
0.199982
0.199977
0.19997
0.199961
0.19995
0.199938
0.199923
0.199908
0.199895
0.199887
0.199883
0.199885
0.199894
0.199916
0.199958
0.200025
0.200123
0.200261
0.200445
0.200684
0.200986
0.201359
0.20181
0.202344
0.202968
0.203683
0.204494
0.205397
0.206397
0.207488
0.208665
0.209924
0.211261
0.212667
0.214125
0.215643
0.217202
0.218791
0.220394
0.22202
0.223654
0.225308
0.227031
0.228884
0.230729
0.23273
0.235822
0.241561
0.26144
0.346872
0.761391
1.25807
1.47377
1.53701
1.5272
1.48151
1.43473
1.38956
1.34839
1.30819
1.27047
1.23689
1.20632
1.17915
1.15483
1.13562
1.12177
1.11077
1.1019
1.0958
1.09202
1.09546
1.10292
1.117
1.13406
1.16045
1.19845
1.2522
1.3253
1.41219
1.49955
1.58464
1.65317
1.69849
1.73253
1.76053
1.78491
1.80608
1.82756
1.84803
1.86709
1.88311
1.89769
1.91329
1.92809
1.94016
1.95058
1.96172
1.97213
1.98166
1.99036
1.99789
2.0042
2.01036
2.01582
2.02078
2.02477
2.02788
2.02962
2.02965
2.02897
2.02749
2.0272
2.02421
2.0322
0.199989
0.199989
0.199988
0.199986
0.199982
0.199976
0.199969
0.19996
0.199949
0.199937
0.199922
0.199906
0.199891
0.19988
0.199873
0.199872
0.199878
0.199895
0.199931
0.19999
0.200078
0.200204
0.200374
0.200596
0.200879
0.20123
0.201656
0.202162
0.202756
0.203437
0.204214
0.205082
0.206045
0.207098
0.208242
0.209467
0.210775
0.212155
0.213598
0.215101
0.216653
0.218246
0.219868
0.221517
0.223181
0.22489
0.226697
0.228603
0.230509
0.232632
0.235876
0.241728
0.261306
0.343507
0.743993
1.24489
1.46831
1.52271
1.49706
1.44404
1.39012
1.33826
1.29173
1.24779
1.2083
1.17483
1.14832
1.12718
1.1101
1.09626
1.08713
1.08134
1.08144
1.08304
1.08746
1.10301
1.1235
1.15232
1.19343
1.24584
1.31558
1.3981
1.48321
1.56578
1.63618
1.68324
1.71451
1.73745
1.75801
1.77864
1.79879
1.81755
1.83658
1.85612
1.87428
1.88975
1.90445
1.91915
1.93189
1.94256
1.95352
1.96444
1.97428
1.98277
1.99049
1.99752
2.00362
2.00949
2.01457
2.01922
2.02276
2.02533
2.02663
2.0257
2.02456
2.02252
2.02199
2.01917
2.0266
0.199988
0.199989
0.199988
0.199985
0.199981
0.199976
0.199969
0.199959
0.199948
0.199935
0.19992
0.199903
0.199886
0.199871
0.199861
0.199857
0.199859
0.19987
0.199899
0.199948
0.200024
0.200135
0.200288
0.200491
0.20075
0.201074
0.201469
0.201942
0.202497
0.20314
0.203871
0.204696
0.205612
0.206618
0.207716
0.208898
0.210165
0.211506
0.212922
0.214402
0.215938
0.217528
0.219161
0.220831
0.222534
0.224292
0.226178
0.228194
0.230218
0.232555
0.23615
0.242217
0.260472
0.3349
0.711137
1.22029
1.44954
1.49534
1.44876
1.38317
1.31978
1.26079
1.2128
1.1719
1.13993
1.11516
1.09681
1.0831
1.07342
1.06719
1.06332
1.06479
1.07724
1.09434
1.11586
1.14494
1.18633
1.23948
1.31101
1.39284
1.47738
1.55853
1.62781
1.67489
1.70525
1.72639
1.74102
1.75395
1.76948
1.78674
1.80376
1.82097
1.84027
1.85967
1.87737
1.89298
1.90787
1.92133
1.93312
1.94405
1.95482
1.96492
1.97383
1.98152
1.98893
1.99594
2.0021
2.00778
2.01262
2.01685
2.01994
2.02204
2.02299
2.02133
2.01988
2.01745
2.01671
2.01396
2.02073
0.199988
0.199989
0.199988
0.199985
0.199981
0.199975
0.199968
0.199958
0.199947
0.199933
0.199917
0.199899
0.19988
0.199863
0.199848
0.199839
0.199837
0.199841
0.199861
0.199898
0.199961
0.200055
0.200188
0.200367
0.200599
0.200891
0.201249
0.201681
0.202191
0.202785
0.203463
0.204232
0.20509
0.206039
0.207075
0.208202
0.209409
0.210701
0.212067
0.213508
0.215014
0.216585
0.218211
0.219887
0.221615
0.223405
0.225348
0.227471
0.229616
0.232243
0.236165
0.242589
0.259704
0.325822
0.658457
1.17205
1.40386
1.44008
1.37816
1.30007
1.22998
1.17269
1.13404
1.10578
1.08592
1.07372
1.06148
1.05484
1.05171
1.05339
1.05929
1.0789
1.10716
1.14522
1.18845
1.24371
1.31566
1.39792
1.48154
1.56038
1.62995
1.67704
1.70427
1.72137
1.73339
1.74294
1.75122
1.76139
1.77438
1.78835
1.80402
1.82145
1.84111
1.86055
1.87813
1.89388
1.90809
1.92057
1.93212
1.94303
1.95341
1.96306
1.97152
1.97914
1.98659
1.99359
1.99967
2.00509
2.00965
2.01354
2.01633
2.01812
2.01883
2.01672
2.01498
2.01226
2.01134
2.00864
2.01478
0.199988
0.199989
0.199987
0.199985
0.199981
0.199975
0.199967
0.199957
0.199945
0.199931
0.199914
0.199894
0.199874
0.199853
0.199834
0.199818
0.199809
0.199808
0.199817
0.199841
0.199889
0.199963
0.200072
0.200223
0.200422
0.200676
0.200992
0.201375
0.201832
0.202365
0.202982
0.203682
0.204469
0.205345
0.206305
0.207356
0.208487
0.209707
0.211002
0.212381
0.213828
0.215355
0.216943
0.218597
0.220324
0.222115
0.224082
0.226253
0.228498
0.231483
0.235601
0.242818
0.260428
0.32818
0.601727
1.07469
1.28793
1.31813
1.26594
1.19532
1.13887
1.10106
1.07638
1.06486
1.05362
1.05449
1.04567
1.0474
1.0551
1.07387
1.09665
1.13911
1.19378
1.26335
1.3384
1.41758
1.49565
1.5744
1.64028
1.68576
1.71213
1.72622
1.73395
1.73922
1.74394
1.74895
1.75569
1.76427
1.77401
1.78667
1.8017
1.81895
1.83815
1.85743
1.87515
1.8909
1.90483
1.91749
1.92958
1.94043
1.95047
1.95982
1.96812
1.97573
1.98326
1.99027
1.99627
2.00146
2.00576
2.00938
2.01203
2.01366
2.01423
2.01184
2.00986
2.00694
2.00589
2.00317
2.00881
0.199988
0.199989
0.199987
0.199985
0.19998
0.199974
0.199966
0.199956
0.199943
0.199928
0.19991
0.199889
0.199866
0.199842
0.199818
0.199796
0.199778
0.199768
0.199766
0.199776
0.199805
0.199857
0.19994
0.200058
0.20022
0.20043
0.200696
0.201022
0.201416
0.201881
0.202422
0.203041
0.203742
0.204525
0.205394
0.206344
0.20738
0.208498
0.209698
0.210976
0.212332
0.213769
0.215275
0.216852
0.218521
0.22024
0.222135
0.224187
0.226435
0.229659
0.233608
0.241536
0.262014
0.342096
0.581336
0.940031
1.12506
1.16041
1.14274
1.09742
1.07127
1.05984
1.04996
1.05329
1.04573
1.05669
1.05484
1.07594
1.10805
1.15645
1.21281
1.28329
1.36436
1.44716
1.52398
1.5998
1.65917
1.69977
1.7223
1.73505
1.74187
1.74405
1.74524
1.7469
1.74868
1.75221
1.75783
1.76415
1.77332
1.78553
1.80031
1.81712
1.83578
1.85478
1.87242
1.88763
1.90109
1.91366
1.92576
1.93637
1.94619
1.95542
1.96382
1.9715
1.97907
1.98607
1.99187
1.99685
2.00097
2.00448
2.00709
2.00873
2.00918
2.00668
2.00451
2.0015
2.00035
1.99761
2.00288
0.199988
0.199988
0.199987
0.199984
0.19998
0.199974
0.199965
0.199954
0.199941
0.199925
0.199905
0.199883
0.199858
0.19983
0.199802
0.199772
0.199745
0.199722
0.199707
0.199703
0.199711
0.199737
0.19979
0.199872
0.19999
0.20015
0.200357
0.20062
0.20094
0.201325
0.201776
0.202301
0.202898
0.203572
0.204323
0.205154
0.206063
0.20705
0.208117
0.209259
0.210479
0.211773
0.213139
0.21457
0.216097
0.217648
0.219322
0.221026
0.223182
0.225938
0.229526
0.238958
0.262768
0.368485
0.565303
0.852526
0.974022
1.01838
1.02974
1.0243
1.02301
1.04124
1.04943
1.06619
1.07305
1.10362
1.12443
1.18217
1.24937
1.32994
1.40926
1.48546
1.56582
1.63218
1.68161
1.71438
1.73431
1.74423
1.7488
1.75055
1.75058
1.74953
1.74892
1.74961
1.75097
1.75441
1.75841
1.76425
1.77296
1.78427
1.79778
1.81344
1.83085
1.84929
1.86701
1.88227
1.89581
1.90854
1.92065
1.93107
1.94082
1.95005
1.95857
1.96638
1.97402
1.98087
1.98644
1.99137
1.99547
1.999
2.00163
2.00333
2.00366
2.0012
1.99893
1.99594
1.99471
1.99194
1.99687
0.199988
0.199988
0.199987
0.199984
0.199979
0.199973
0.199964
0.199953
0.199939
0.199921
0.1999
0.199876
0.199848
0.199816
0.199782
0.199746
0.199709
0.199673
0.199641
0.199617
0.199604
0.199604
0.199622
0.199661
0.199732
0.199836
0.199978
0.200166
0.200403
0.200695
0.201045
0.201457
0.201933
0.202478
0.20309
0.203774
0.204526
0.20535
0.206242
0.207208
0.208244
0.209343
0.210512
0.211708
0.213
0.214269
0.215508
0.216943
0.218849
0.220798
0.224664
0.236879
0.277812
0.426483
0.657172
0.834683
0.913282
0.949392
0.976608
0.995976
1.02951
1.05907
1.09138
1.12826
1.18129
1.23343
1.3032
1.38776
1.46519
1.54325
1.60932
1.66322
1.70345
1.7272
1.74119
1.74984
1.7538
1.75476
1.75412
1.75293
1.75154
1.75039
1.74998
1.75037
1.75227
1.75525
1.75893
1.7649
1.77308
1.78341
1.79591
1.81053
1.82702
1.84472
1.86182
1.87666
1.89013
1.90298
1.91499
1.92527
1.93508
1.94431
1.95296
1.96077
1.96836
1.97482
1.98028
1.98532
1.98952
1.99312
1.99574
1.99746
1.99769
1.99548
1.99318
1.99026
1.98894
1.98612
1.99078
0.199987
0.199988
0.199986
0.199983
0.199979
0.199972
0.199963
0.199951
0.199936
0.199917
0.199895
0.199868
0.199836
0.199801
0.199761
0.199717
0.19967
0.199621
0.199571
0.199524
0.199483
0.199451
0.199432
0.199428
0.199446
0.199487
0.199554
0.199659
0.199803
0.199991
0.200225
0.200508
0.200844
0.201236
0.201685
0.202195
0.202766
0.203394
0.204073
0.204815
0.205621
0.206474
0.207387
0.208298
0.209255
0.210118
0.21102
0.21217
0.21311
0.214766
0.218958
0.236181
0.29158
0.495961
0.705507
0.820029
0.875359
0.905709
0.929559
0.959281
1.03368
1.1156
1.20962
1.29805
1.38505
1.45972
1.53544
1.60222
1.65601
1.69279
1.71701
1.7337
1.74503
1.75041
1.7529
1.75424
1.75276
1.75069
1.74869
1.74738
1.74658
1.74654
1.74729
1.74864
1.75113
1.75413
1.75838
1.7643
1.77192
1.78152
1.79326
1.80712
1.82288
1.8398
1.85628
1.87078
1.88408
1.89673
1.90841
1.91854
1.9284
1.93766
1.94641
1.95423
1.96171
1.96792
1.97354
1.9788
1.9832
1.98686
1.98944
1.99111
1.99134
1.98952
1.98725
1.98441
1.983
1.98016
1.98458
0.199987
0.199988
0.199986
0.199983
0.199978
0.199971
0.199961
0.199949
0.199933
0.199913
0.199889
0.199859
0.199824
0.199783
0.199737
0.199684
0.199626
0.199563
0.199495
0.199424
0.199354
0.199285
0.199222
0.199167
0.199124
0.199097
0.199088
0.199104
0.199144
0.199214
0.199319
0.199454
0.199633
0.199855
0.200121
0.200435
0.200796
0.201196
0.201621
0.202103
0.202639
0.203213
0.203811
0.204393
0.205017
0.205551
0.206159
0.206675
0.207388
0.209301
0.215549
0.24251
0.323881
0.549574
0.738484
0.827102
0.880432
0.910608
0.949032
1.01443
1.1336
1.27968
1.42029
1.53409
1.61152
1.66077
1.69526
1.71722
1.73112
1.73969
1.74501
1.74801
1.74874
1.74588
1.74423
1.7439
1.74306
1.74224
1.74146
1.74151
1.74185
1.74296
1.74424
1.74619
1.74898
1.75227
1.7568
1.76252
1.7698
1.77888
1.79
1.80312
1.81798
1.83385
1.84984
1.86442
1.87778
1.89031
1.90181
1.91187
1.92174
1.93093
1.93961
1.94728
1.95446
1.96056
1.96651
1.97202
1.9766
1.98026
1.98274
1.98437
1.98471
1.9833
1.98114
1.97834
1.97687
1.97414
1.97825
0.199987
0.199988
0.199986
0.199983
0.199977
0.19997
0.19996
0.199947
0.19993
0.199908
0.199882
0.19985
0.199811
0.199764
0.19971
0.199648
0.199578
0.199499
0.199411
0.199316
0.199214
0.199107
0.198997
0.198886
0.198777
0.198673
0.198578
0.198491
0.198416
0.198353
0.198314
0.198301
0.198312
0.198343
0.198396
0.198492
0.198617
0.198757
0.198907
0.199105
0.199349
0.199619
0.199889
0.200137
0.200448
0.200704
0.200822
0.201133
0.201807
0.204256
0.213807
0.253069
0.38073
0.609017
0.766106
0.855757
0.910844
0.952948
1.02778
1.15194
1.31859
1.49592
1.63949
1.7114
1.73225
1.74072
1.74376
1.74616
1.74718
1.74641
1.7434
1.74037
1.73771
1.73513
1.73366
1.7336
1.73328
1.7336
1.73343
1.73442
1.73547
1.73728
1.73921
1.74163
1.74473
1.74838
1.75318
1.75899
1.7664
1.77546
1.78632
1.79878
1.81278
1.82775
1.84331
1.85765
1.87084
1.88309
1.89435
1.90436
1.91427
1.92347
1.93209
1.93961
1.94661
1.95279
1.95913
1.9649
1.96954
1.9732
1.97563
1.97739
1.97787
1.97678
1.97478
1.97205
1.97059
1.96804
1.97179
0.199987
0.199987
0.199986
0.199982
0.199977
0.199969
0.199958
0.199944
0.199926
0.199903
0.199875
0.199839
0.199796
0.199744
0.199682
0.19961
0.199526
0.199429
0.19932
0.199198
0.199063
0.198915
0.198755
0.198584
0.198404
0.198217
0.198025
0.197829
0.197633
0.197431
0.197233
0.197053
0.196879
0.196699
0.196532
0.196388
0.196265
0.196141
0.195999
0.195885
0.195804
0.19577
0.195753
0.195697
0.195604
0.195466
0.195388
0.195436
0.196083
0.199182
0.212775
0.263034
0.433202
0.644336
0.798813
0.89592
0.958303
1.03522
1.16278
1.33906
1.53392
1.6944
1.76139
1.77132
1.7651
1.75777
1.7516
1.7456
1.74049
1.73635
1.73274
1.7292
1.72585
1.72308
1.72138
1.7211
1.72112
1.72345
1.72442
1.72653
1.72845
1.73084
1.73327
1.73593
1.73914
1.74298
1.7477
1.75367
1.76122
1.77031
1.78088
1.79293
1.80645
1.82089
1.83628
1.85067
1.86384
1.87589
1.88695
1.89686
1.9067
1.91578
1.92424
1.93154
1.93851
1.94485
1.95154
1.95742
1.96204
1.96571
1.96821
1.97018
1.97078
1.96994
1.96814
1.96555
1.96418
1.96192
1.96521
0.199986
0.199987
0.199985
0.199982
0.199976
0.199968
0.199957
0.199942
0.199923
0.199898
0.199867
0.199828
0.19978
0.199722
0.199652
0.199569
0.19947
0.199355
0.199223
0.199072
0.1989
0.198709
0.198496
0.198262
0.198007
0.197732
0.197438
0.197124
0.196794
0.196447
0.196083
0.195713
0.195345
0.194959
0.194552
0.194138
0.193747
0.19338
0.193016
0.19259
0.19218
0.191817
0.191527
0.191169
0.190738
0.190289
0.190088
0.190075
0.19084
0.196103
0.213803
0.291293
0.465626
0.683568
0.843666
0.94987
1.03567
1.17156
1.35028
1.55168
1.71767
1.78444
1.79208
1.7774
1.76518
1.75346
1.74361
1.73605
1.7301
1.72509
1.72068
1.71699
1.71372
1.71129
1.70951
1.70905
1.70901
1.71237
1.71355
1.71625
1.71873
1.72181
1.72495
1.72825
1.73197
1.73631
1.74148
1.7477
1.75531
1.76432
1.77473
1.78651
1.79963
1.81352
1.82837
1.84258
1.85577
1.8677
1.87869
1.88864
1.89852
1.90755
1.91589
1.92304
1.93011
1.93662
1.94351
1.94946
1.95418
1.95792
1.96055
1.96262
1.96336
1.96283
1.96128
1.95898
1.9577
1.95567
1.95852
0.199986
0.199987
0.199985
0.199981
0.199975
0.199966
0.199955
0.199939
0.199919
0.199892
0.199859
0.199816
0.199764
0.199699
0.19962
0.199525
0.199412
0.199277
0.19912
0.198938
0.198728
0.19849
0.198221
0.19792
0.197586
0.197219
0.196818
0.196381
0.195915
0.195419
0.194888
0.194323
0.193747
0.193152
0.192544
0.191885
0.191207
0.190542
0.189932
0.18932
0.188641
0.187906
0.18727
0.186642
0.185954
0.185184
0.184749
0.184605
0.185122
0.19337
0.211319
0.337764
0.49459
0.738515
0.909945
1.03219
1.17146
1.35359
1.55772
1.72677
1.79324
1.80064
1.78215
1.76764
1.7535
1.74121
1.73122
1.72319
1.71686
1.7118
1.70734
1.70363
1.70045
1.69829
1.69638
1.69606
1.69605
1.69973
1.70095
1.70433
1.70744
1.71117
1.71504
1.71909
1.7234
1.7283
1.73399
1.74065
1.74846
1.75752
1.76787
1.77948
1.79232
1.80598
1.82044
1.83449
1.84764
1.85937
1.87031
1.88036
1.89025
1.89909
1.90724
1.91436
1.92158
1.92818
1.93506
1.94107
1.94602
1.9499
1.95262
1.95471
1.95561
1.95545
1.95421
1.95237
1.95116
1.94926
1.95169
0.199986
0.199986
0.199984
0.19998
0.199974
0.199965
0.199953
0.199936
0.199914
0.199886
0.19985
0.199804
0.199746
0.199675
0.199586
0.199479
0.19935
0.199195
0.199013
0.198798
0.198549
0.198263
0.197936
0.197567
0.197152
0.196691
0.196183
0.195624
0.195019
0.194374
0.19367
0.192928
0.192143
0.191314
0.190487
0.189646
0.188716
0.187746
0.186827
0.185999
0.185124
0.184133
0.18319
0.182254
0.181231
0.180328
0.179888
0.179963
0.181626
0.195678
0.219693
0.414635
0.533545
0.822194
1.00749
1.16082
1.35454
1.56012
1.73225
1.79699
1.80325
1.78352
1.76868
1.75351
1.73996
1.7283
1.71858
1.71058
1.70392
1.69864
1.69445
1.691
1.68816
1.68637
1.68389
1.68286
1.6821
1.68464
1.68554
1.68983
1.69337
1.69786
1.7025
1.70738
1.71255
1.71821
1.7246
1.73184
1.74003
1.74931
1.75971
1.77126
1.78397
1.79749
1.81173
1.82562
1.83876
1.85039
1.86142
1.87166
1.88154
1.89017
1.89823
1.90548
1.91286
1.91951
1.92628
1.93236
1.93755
1.94155
1.94434
1.94652
1.94763
1.9478
1.94695
1.94573
1.94452
1.94261
1.94473
0.199985
0.199986
0.199984
0.19998
0.199973
0.199964
0.199951
0.199933
0.19991
0.19988
0.19984
0.199791
0.199728
0.199649
0.199551
0.199432
0.199286
0.199111
0.198902
0.198656
0.198367
0.198033
0.197648
0.19721
0.196715
0.196162
0.195545
0.194865
0.19413
0.193323
0.192452
0.191542
0.190561
0.189503
0.188419
0.187385
0.18627
0.185019
0.183776
0.182607
0.181538
0.180425
0.179261
0.177947
0.17652
0.175566
0.175171
0.175686
0.179917
0.200433
0.24737
0.438141
0.639649
0.9481
1.14735
1.34414
1.56074
1.73385
1.79711
1.80189
1.78044
1.76533
1.75006
1.73636
1.72445
1.7142
1.70556
1.69838
1.69217
1.68688
1.68242
1.67873
1.67578
1.67384
1.67081
1.66909
1.66772
1.66873
1.66936
1.67435
1.67766
1.68263
1.68767
1.69354
1.69965
1.70627
1.71344
1.72136
1.7301
1.73977
1.75042
1.76211
1.77485
1.78834
1.8025
1.81622
1.82941
1.84108
1.85231
1.8627
1.8725
1.88095
1.88909
1.8965
1.90395
1.9106
1.91727
1.9233
1.92858
1.93272
1.93574
1.93814
1.93944
1.93998
1.9396
1.93882
1.93761
1.93578
1.93768
0.199985
0.199986
0.199983
0.199979
0.199972
0.199962
0.199949
0.19993
0.199905
0.199873
0.199831
0.199777
0.199709
0.199622
0.199515
0.199383
0.199221
0.199026
0.198791
0.198512
0.198184
0.197802
0.19736
0.196854
0.19628
0.195635
0.194913
0.194119
0.193248
0.192293
0.19126
0.190179
0.189017
0.187766
0.186442
0.185123
0.183832
0.18242
0.180872
0.179362
0.177946
0.176745
0.175288
0.173659
0.17186
0.170827
0.17051
0.171211
0.182102
0.194118
0.347097
0.47219
0.873374
1.1454
1.33592
1.55588
1.72913
1.79456
1.79844
1.77606
1.76013
1.74458
1.73089
1.71911
1.70902
1.70035
1.69298
1.68663
1.68095
1.67576
1.67113
1.66698
1.66372
1.66161
1.65874
1.65641
1.65429
1.65387
1.65382
1.65851
1.66136
1.66653
1.67155
1.67807
1.68463
1.69219
1.70016
1.70889
1.71841
1.72871
1.73987
1.75194
1.76495
1.77853
1.79269
1.80634
1.8196
1.83139
1.84283
1.8533
1.86304
1.87148
1.87981
1.88734
1.89474
1.90136
1.90796
1.91386
1.9192
1.92358
1.92687
1.92954
1.93105
1.93216
1.93213
1.93152
1.93043
1.92885
1.9305
0.199985
0.199985
0.199983
0.199978
0.199971
0.199961
0.199946
0.199927
0.1999
0.199866
0.199821
0.199763
0.199689
0.199596
0.199479
0.199334
0.199156
0.198939
0.198679
0.198368
0.198001
0.197572
0.197074
0.196502
0.195851
0.195117
0.194296
0.193388
0.192388
0.191298
0.190116
0.188857
0.187519
0.1861
0.184586
0.182997
0.181435
0.179879
0.178158
0.176353
0.174689
0.173353
0.171511
0.169249
0.167279
0.166254
0.165572
0.168977
0.17983
0.244169
0.370197
0.705697
1.09137
1.31615
1.54594
1.72151
1.78971
1.79382
1.76994
1.75371
1.7381
1.72427
1.71245
1.70226
1.69344
1.68583
1.67937
1.67378
1.66873
1.66398
1.65961
1.65559
1.65224
1.64996
1.6474
1.64454
1.6419
1.64069
1.63967
1.64334
1.64533
1.65043
1.65527
1.66196
1.66876
1.67684
1.68521
1.69465
1.70501
1.71609
1.72794
1.7406
1.75404
1.76784
1.78218
1.79593
1.80933
1.82131
1.83289
1.84338
1.8532
1.86175
1.87029
1.87784
1.88516
1.89178
1.89831
1.90412
1.90952
1.91419
1.91779
1.92074
1.92261
1.92422
1.92437
1.92386
1.923
1.92171
1.92315
0.199984
0.199985
0.199982
0.199978
0.19997
0.199959
0.199944
0.199923
0.199895
0.199859
0.199811
0.199749
0.199669
0.199569
0.199442
0.199284
0.19909
0.198853
0.198567
0.198225
0.19782
0.197344
0.196792
0.196156
0.195431
0.194612
0.193696
0.192679
0.191561
0.19034
0.189022
0.187605
0.186092
0.184505
0.182839
0.181057
0.17921
0.177439
0.175614
0.173639
0.171741
0.170007
0.167813
0.165248
0.163575
0.162861
0.162828
0.171565
0.182053
0.300943
0.512989
1.02802
1.31023
1.52676
1.71118
1.78203
1.78828
1.76319
1.74585
1.72913
1.71481
1.70279
1.69275
1.6843
1.6771
1.67067
1.66497
1.65994
1.65544
1.65124
1.64727
1.64363
1.6405
1.63818
1.63601
1.63299
1.63016
1.62865
1.62682
1.62925
1.6301
1.63496
1.63919
1.64585
1.65239
1.66063
1.66926
1.67935
1.6902
1.70196
1.71457
1.72793
1.74195
1.75617
1.7709
1.78492
1.79861
1.8108
1.82247
1.83298
1.843
1.85171
1.86036
1.86795
1.87529
1.88192
1.88832
1.89409
1.8996
1.90457
1.90853
1.91188
1.91412
1.91591
1.91623
1.91591
1.91532
1.91435
1.9155
0.199984
0.199985
0.199982
0.199977
0.199969
0.199958
0.199942
0.19992
0.199891
0.199852
0.199801
0.199735
0.19965
0.199542
0.199406
0.199236
0.199026
0.198769
0.198458
0.198085
0.197642
0.197122
0.196518
0.195821
0.195027
0.194128
0.193123
0.192006
0.190779
0.189439
0.187992
0.186437
0.184778
0.183026
0.181204
0.179287
0.177271
0.175225
0.173243
0.171196
0.169312
0.166952
0.164149
0.16191
0.160876
0.160268
0.164666
0.16913
0.239164
0.355259
0.877944
1.282
1.50607
1.69633
1.77441
1.78292
1.7566
1.7387
1.72174
1.70722
1.69487
1.68454
1.67581
1.66836
1.66201
1.65634
1.65084
1.64573
1.64122
1.63729
1.63384
1.6307
1.62792
1.62595
1.62422
1.62105
1.6182
1.61685
1.61468
1.61589
1.61576
1.62013
1.62345
1.62985
1.63604
1.64415
1.65285
1.66317
1.6744
1.68669
1.69987
1.71392
1.72863
1.74343
1.75877
1.77324
1.78736
1.79981
1.81165
1.82222
1.83241
1.84126
1.85004
1.85771
1.86512
1.87175
1.87807
1.88388
1.88959
1.89479
1.8992
1.90295
1.90541
1.90718
1.90779
1.90769
1.90735
1.90673
1.90748
0.199983
0.199984
0.199981
0.199976
0.199968
0.199956
0.199939
0.199916
0.199886
0.199845
0.199791
0.199721
0.19963
0.199515
0.199369
0.199187
0.198962
0.198686
0.198351
0.197948
0.197471
0.196909
0.196256
0.195502
0.194643
0.193672
0.192585
0.191379
0.190054
0.188611
0.187049
0.185377
0.183594
0.181719
0.179744
0.177702
0.175565
0.173406
0.171174
0.169082
0.166923
0.164293
0.161326
0.159243
0.158064
0.159031
0.162453
0.201854
0.267115
0.686564
1.21169
1.4878
1.67933
1.76519
1.77186
1.74502
1.7271
1.71029
1.69654
1.68507
1.67527
1.66671
1.65932
1.65295
1.64718
1.64202
1.63701
1.63197
1.62744
1.6235
1.62013
1.61735
1.61483
1.61301
1.61161
1.60917
1.60608
1.60462
1.60248
1.60311
1.60252
1.60588
1.608
1.61412
1.61973
1.62777
1.63629
1.64651
1.65777
1.67042
1.68424
1.6989
1.7142
1.72964
1.74567
1.76071
1.77542
1.78824
1.80041
1.81111
1.82148
1.83047
1.83943
1.84721
1.85472
1.86138
1.86768
1.87358
1.87946
1.8849
1.88974
1.89375
1.89639
1.89815
1.89908
1.89913
1.89902
1.89883
1.89929
0.199983
0.199984
0.199981
0.199976
0.199967
0.199955
0.199937
0.199913
0.199881
0.199837
0.199781
0.199707
0.199611
0.199489
0.199334
0.19914
0.1989
0.198605
0.198247
0.197817
0.197307
0.196706
0.196007
0.195202
0.194284
0.193246
0.192088
0.190802
0.189394
0.187859
0.186206
0.184433
0.182557
0.180573
0.178505
0.176346
0.174126
0.171854
0.169612
0.167567
0.164952
0.161858
0.159626
0.158587
0.158312
0.162144
0.176366
0.229153
0.519119
1.10323
1.45531
1.65808
1.75017
1.75542
1.72726
1.70821
1.69147
1.678
1.66714
1.65856
1.65141
1.64515
1.63957
1.63473
1.63025
1.62554
1.62135
1.61675
1.61264
1.60902
1.60569
1.60304
1.60087
1.59896
1.59765
1.59653
1.59376
1.59168
1.58961
1.59031
1.5898
1.59194
1.59271
1.59854
1.60338
1.61132
1.61954
1.62971
1.64052
1.65343
1.66776
1.68304
1.69896
1.71507
1.7317
1.74743
1.76292
1.77626
1.78888
1.7997
1.81025
1.81938
1.82848
1.83637
1.84398
1.85071
1.85711
1.86317
1.86924
1.8749
1.88009
1.88424
1.88706
1.88884
1.89007
1.89031
1.89063
1.89057
1.89084
0.199983
0.199983
0.19998
0.199975
0.199966
0.199953
0.199935
0.19991
0.199876
0.19983
0.199771
0.199693
0.199592
0.199463
0.199299
0.199094
0.19884
0.198527
0.198148
0.197692
0.197151
0.196514
0.195773
0.194921
0.19395
0.192855
0.191632
0.19028
0.188799
0.18719
0.18546
0.18361