/*--------------------------------*- C++ -*----------------------------------*\
| =========                 |                                                 |
| \\      /  F ield         | OpenFOAM: The Open Source CFD Toolbox           |
|  \\    /   O peration     | Version:  2.2.x                                 |
|   \\  /    A nd           | Web:      www.OpenFOAM.org                      |
|    \\/     M anipulation  |                                                 |
\*---------------------------------------------------------------------------*/
FoamFile
{
    version     2.0;
    format      ascii;
    class       volScalarField;
    location    "0.7";
    object      rho;
}
// * * * * * * * * * * * * * * * * * * * * * * * * * * * * * * * * * * * * * //

dimensions      [1 -3 0 0 0 0 0];

internalField   nonuniform List<scalar> 
14161
(
0.999991
0.999991
0.99999
0.999989
0.999986
0.999982
0.999977
0.999971
0.999963
0.999953
0.999942
0.999932
0.999927
0.999926
0.999928
0.999935
0.999953
0.999983
1.00003
1.00011
1.00021
1.00035
1.00054
1.00077
1.00107
1.00143
1.00186
1.00237
1.00296
1.00363
1.00439
1.00523
1.00615
1.00715
1.00822
1.00935
1.01055
1.01179
1.01307
1.01438
1.01572
1.01706
1.0184
1.01976
1.02112
1.02249
1.02384
1.02527
1.02688
1.02887
1.03222
1.04122
1.07386
1.19574
1.67152
2.29245
2.56344
2.63329
2.63619
2.61675
2.59043
2.56433
2.54167
2.51901
2.49571
2.47285
2.45092
2.43014
2.41062
2.39257
2.3755
2.35954
2.34502
2.33148
2.31826
2.30519
2.29206
2.27859
2.26546
2.24957
2.2313
2.2135
2.1984
2.18772
2.18251
2.1854
2.18883
2.19512
2.21168
2.243
2.29058
2.35824
2.44957
2.56389
2.69339
2.8153
2.90634
2.96981
3.01779
3.05399
3.08041
3.10192
3.11954
3.13225
3.14111
3.15049
3.15992
3.16715
3.17246
3.17652
3.17858
3.1792
3.17871
3.1767
3.17163
3.16306
3.15344
3.14724
3.14867
0.999991
0.999991
0.99999
0.999989
0.999986
0.999982
0.999977
0.999971
0.999962
0.999953
0.999942
0.999932
0.999927
0.999926
0.999928
0.999935
0.999952
0.999983
1.00003
1.00011
1.00021
1.00035
1.00053
1.00077
1.00107
1.00142
1.00186
1.00236
1.00295
1.00362
1.00438
1.00522
1.00614
1.00714
1.0082
1.00934
1.01053
1.01178
1.01306
1.01437
1.0157
1.01705
1.01839
1.01974
1.0211
1.02248
1.02384
1.02527
1.02688
1.02886
1.03218
1.04099
1.07311
1.19303
1.66858
2.2903
2.56414
2.6332
2.63678
2.61818
2.59177
2.56494
2.54133
2.5181
2.49448
2.47133
2.44914
2.42793
2.40798
2.38933
2.37187
2.35567
2.3408
2.32667
2.31286
2.2993
2.28553
2.27128
2.25776
2.24207
2.22477
2.2095
2.19727
2.18952
2.18664
2.18885
2.19601
2.20994
2.23542
2.27607
2.33486
2.41498
2.51618
2.63096
2.74407
2.84161
2.91678
2.97295
3.01695
3.0521
3.0786
3.09994
3.11744
3.1304
3.13989
3.14976
3.15933
3.16681
3.17239
3.17674
3.17893
3.17961
3.17906
3.17687
3.17162
3.16349
3.15362
3.14643
3.14968
0.999991
0.999991
0.99999
0.999989
0.999986
0.999982
0.999977
0.999971
0.999962
0.999953
0.999942
0.999932
0.999926
0.999925
0.999927
0.999934
0.999951
0.999981
1.00003
1.0001
1.00021
1.00035
1.00053
1.00076
1.00106
1.00141
1.00184
1.00235
1.00294
1.0036
1.00436
1.00519
1.00611
1.00711
1.00818
1.00931
1.0105
1.01174
1.01303
1.01434
1.01567
1.01703
1.01838
1.01973
1.02106
1.02243
1.02384
1.0253
1.0269
1.02885
1.03213
1.04094
1.07309
1.19361
1.67184
2.29349
2.56618
2.63426
2.63814
2.61984
2.59361
2.56618
2.54108
2.51686
2.49259
2.46872
2.44582
2.42426
2.40415
2.38464
2.36606
2.34911
2.33362
2.31885
2.30429
2.28971
2.27473
2.25888
2.24308
2.22775
2.21477
2.20548
2.19898
2.19566
2.19712
2.20349
2.21776
2.24289
2.28167
2.3364
2.41001
2.50545
2.61172
2.70972
2.78785
2.85327
2.91078
2.96288
3.00647
3.04173
3.06937
3.09136
3.10926
3.12305
3.13379
3.14472
3.15496
3.16315
3.16918
3.17358
3.17572
3.17653
3.1762
3.17459
3.16986
3.16223
3.15234
3.14393
3.1483
0.999991
0.999991
0.99999
0.999989
0.999986
0.999982
0.999977
0.99997
0.999962
0.999953
0.999942
0.999931
0.999925
0.999923
0.999925
0.999932
0.999948
0.999977
1.00002
1.0001
1.0002
1.00034
1.00052
1.00075
1.00104
1.00139
1.00182
1.00232
1.0029
1.00357
1.00431
1.00514
1.00606
1.00705
1.00811
1.00924
1.01043
1.01167
1.01296
1.01427
1.01559
1.01696
1.01834
1.01968
1.02097
1.02235
1.02383
1.02533
1.02689
1.0288
1.03207
1.04105
1.07429
1.19911
1.68302
2.2986
2.56419
2.63047
2.63342
2.61408
2.58822
2.56051
2.53354
2.50744
2.48179
2.45655
2.43224
2.40951
2.38836
2.36786
2.34791
2.32943
2.3123
2.29589
2.27938
2.26282
2.24676
2.2318
2.21885
2.20971
2.20472
2.20338
2.20302
2.20627
2.21539
2.23304
2.26347
2.31068
2.37664
2.46264
2.56216
2.66065
2.74062
2.8061
2.85333
2.89251
2.93032
2.96997
3.00445
3.03304
3.05841
3.08032
3.09846
3.11292
3.12533
3.13795
3.14926
3.15797
3.16423
3.16892
3.17151
3.17235
3.17229
3.1708
3.16662
3.15986
3.15015
3.14036
3.14635
0.999991
0.999991
0.99999
0.999989
0.999986
0.999982
0.999977
0.99997
0.999962
0.999953
0.999941
0.99993
0.999923
0.999921
0.999922
0.999929
0.999943
0.999971
1.00002
1.00009
1.00018
1.00032
1.0005
1.00072
1.00101
1.00136
1.00178
1.00227
1.00284
1.0035
1.00424
1.00506
1.00596
1.00695
1.008
1.00913
1.01031
1.01154
1.01283
1.01415
1.01547
1.01684
1.01824
1.01958
1.02086
1.02227
1.0238
1.02529
1.02685
1.02875
1.0321
1.04157
1.07715
1.21272
1.70267
2.30644
2.55989
2.62362
2.62454
2.60234
2.57338
2.54222
2.51196
2.48337
2.45574
2.42827
2.40172
2.37772
2.35569
2.33357
2.31147
2.29079
2.27211
2.25521
2.24014
2.22736
2.21583
2.20679
2.20159
2.20026
2.20212
2.20795
2.2167
2.23004
2.25304
2.29031
2.34663
2.42546
2.52404
2.62562
2.71041
2.77843
2.82876
2.86906
2.90205
2.92897
2.95312
2.97775
3.00274
3.02706
3.04906
3.06828
3.0849
3.09958
3.11379
3.12801
3.14016
3.14981
3.15743
3.16289
3.16587
3.16697
3.16687
3.16553
3.16202
3.15584
3.14653
3.13622
3.1436
0.999991
0.999991
0.99999
0.999989
0.999986
0.999982
0.999977
0.99997
0.999962
0.999952
0.99994
0.999928
0.999921
0.999918
0.999918
0.999923
0.999936
0.999962
1.00001
1.00007
1.00017
1.0003
1.00047
1.00069
1.00096
1.0013
1.00171
1.0022
1.00276
1.0034
1.00413
1.00494
1.00583
1.0068
1.00784
1.00896
1.01013
1.01136
1.01264
1.01396
1.01529
1.01665
1.01806
1.01944
1.02073
1.02215
1.02369
1.02523
1.02681
1.02877
1.03226
1.04225
1.07996
1.22658
1.72711
2.32336
2.56241
2.62216
2.6194
2.59153
2.5561
2.5211
2.48713
2.45515
2.42514
2.3958
2.36666
2.33869
2.31293
2.28895
2.2656
2.24483
2.22714
2.21327
2.20374
2.19917
2.19712
2.19612
2.19648
2.19987
2.20992
2.22674
2.24966
2.28178
2.32896
2.39611
2.48687
2.58864
2.68332
2.75713
2.80968
2.84915
2.88227
2.91175
2.93624
2.95597
2.97289
2.9886
3.00683
3.02654
3.04404
3.05934
3.07354
3.08723
3.10137
3.11598
3.12942
3.14066
3.1494
3.15566
3.15902
3.16014
3.16014
3.15903
3.15607
3.15026
3.14178
3.13172
3.14005
0.999991
0.999991
0.99999
0.999988
0.999986
0.999982
0.999976
0.999969
0.999961
0.999951
0.999939
0.999927
0.999918
0.999913
0.999913
0.999917
0.999927
0.999951
0.99999
1.00005
1.00014
1.00026
1.00043
1.00064
1.00091
1.00124
1.00163
1.0021
1.00264
1.00327
1.00398
1.00477
1.00564
1.00659
1.00762
1.00872
1.00988
1.0111
1.01237
1.01369
1.01503
1.0164
1.01779
1.0192
1.02055
1.02195
1.0235
1.02511
1.02677
1.0288
1.03239
1.0426
1.08078
1.2354
1.74674
2.34079
2.56391
2.62126
2.616
2.58197
2.54072
2.50106
2.46315
2.42602
2.39124
2.35762
2.32453
2.29323
2.26609
2.24357
2.22443
2.20921
2.19826
2.19187
2.18941
2.1909
2.19454
2.19871
2.20483
2.21698
2.23873
2.27205
2.31823
2.37943
2.4607
2.55636
2.65133
2.72722
2.78379
2.8249
2.85769
2.88562
2.912
2.9357
2.95543
2.97173
2.98491
2.99837
3.01267
3.02671
3.03911
3.05157
3.06432
3.07713
3.09037
3.10397
3.11743
3.12993
3.13998
3.14683
3.15063
3.15207
3.15233
3.15145
3.14889
3.14338
3.13617
3.12709
3.13588
0.999991
0.999991
0.99999
0.999988
0.999985
0.999981
0.999976
0.999969
0.99996
0.99995
0.999938
0.999926
0.999914
0.999908
0.999906
0.999908
0.999916
0.999936
0.999972
1.00003
1.00011
1.00023
1.00038
1.00058
1.00083
1.00115
1.00152
1.00197
1.0025
1.0031
1.00379
1.00455
1.0054
1.00633
1.00733
1.0084
1.00955
1.01075
1.01201
1.01332
1.01467
1.01604
1.01743
1.01885
1.02027
1.0217
1.02325
1.0249
1.02665
1.02879
1.03251
1.04297
1.08205
1.23598
1.75181
2.34937
2.56458
2.61408
2.6024
2.56375
2.51799
2.47473
2.43183
2.38851
2.34818
2.3131
2.28118
2.25294
2.23028
2.21401
2.2026
2.19533
2.19123
2.18902
2.19018
2.19598
2.20629
2.22135
2.24148
2.27048
2.31262
2.37124
2.44929
2.54124
2.6339
2.71135
2.76693
2.80466
2.83411
2.8599
2.88323
2.90548
2.92744
2.94807
2.96597
2.97981
2.99172
3.00385
3.01548
3.02555
3.03484
3.04572
3.0573
3.06892
3.08086
3.09298
3.10553
3.11843
3.12925
3.13681
3.14126
3.14301
3.14374
3.14279
3.14051
3.13551
3.13
3.12232
3.13119
0.999991
0.999991
0.99999
0.999988
0.999985
0.999981
0.999975
0.999968
0.99996
0.999949
0.999937
0.999924
0.999911
0.999901
0.999897
0.999897
0.999902
0.999919
0.999949
0.999998
1.00007
1.00018
1.00032
1.00051
1.00074
1.00104
1.00139
1.00182
1.00232
1.00289
1.00355
1.00428
1.00509
1.00599
1.00696
1.00801
1.00912
1.0103
1.01154
1.01284
1.01418
1.01555
1.01696
1.01839
1.01984
1.02132
1.02291
1.02457
1.0264
1.02867
1.03253
1.04298
1.08146
1.22925
1.74485
2.34867
2.561
2.5981
2.57677
2.53148
2.48007
2.43221
2.3841
2.34019
2.30172
2.27189
2.24734
2.22727
2.21268
2.20252
2.19721
2.19712
2.19877
2.20166
2.20837
2.22388
2.24942
2.28371
2.32729
2.38245
2.45697
2.54712
2.63784
2.71337
2.7694
2.80526
2.82733
2.84443
2.86198
2.88017
2.89794
2.91543
2.93416
2.95353
2.9698
2.98239
2.9936
3.00441
3.01417
3.02257
3.03171
3.04198
3.05204
3.0617
3.07179
3.08261
3.09409
3.10654
3.1179
3.12615
3.13121
3.13325
3.13437
3.13325
3.13106
3.12677
3.12355
3.11742
3.12604
0.999991
0.999991
0.99999
0.999988
0.999985
0.999981
0.999975
0.999968
0.999959
0.999948
0.999935
0.999921
0.999907
0.999894
0.999886
0.999884
0.999886
0.999898
0.999922
0.999963
1.00003
1.00012
1.00025
1.00042
1.00063
1.0009
1.00124
1.00163
1.0021
1.00264
1.00325
1.00395
1.00472
1.00557
1.00651
1.00751
1.00859
1.00974
1.01095
1.01222
1.01354
1.01491
1.01632
1.01776
1.01923
1.02075
1.02239
1.02412
1.02604
1.02849
1.03254
1.04285
1.07932
1.21632
1.72763
2.34023
2.54843
2.57373
2.53972
2.48354
2.42485
2.37491
2.33043
2.29475
2.26621
2.24364
2.22784
2.21676
2.20973
2.20549
2.20351
2.20919
2.22296
2.24165
2.26575
2.29823
2.34293
2.40334
2.48186
2.57179
2.66167
2.73804
2.79211
2.8254
2.84309
2.85363
2.86119
2.8692
2.87975
2.8925
2.90598
2.92046
2.93779
2.95623
2.97151
2.98394
2.99484
3.00417
3.01249
3.0205
3.02914
3.03801
3.04635
3.05447
3.0634
3.07324
3.08373
3.0951
3.10641
3.11504
3.12058
3.12283
3.12421
3.12298
3.12118
3.11791
3.11699
3.11238
3.12056
0.99999
0.99999
0.99999
0.999988
0.999985
0.99998
0.999974
0.999967
0.999957
0.999946
0.999933
0.999918
0.999903
0.999887
0.999875
0.999868
0.999867
0.999873
0.999889
0.999921
0.999973
1.00005
1.00016
1.00031
1.00051
1.00075
1.00105
1.00141
1.00184
1.00233
1.0029
1.00355
1.00427
1.00508
1.00595
1.00691
1.00794
1.00904
1.01021
1.01144
1.01273
1.01407
1.01547
1.01691
1.0184
1.01994
1.02162
1.02342
1.02545
1.02808
1.0324
1.04277
1.07761
1.20243
1.69287
2.30404
2.51017
2.52875
2.48787
2.42576
2.36323
2.31766
2.28416
2.26015
2.24496
2.2312
2.22172
2.21768
2.21767
2.22064
2.2298
2.25181
2.28507
2.3258
2.37282
2.43461
2.51312
2.60477
2.69491
2.77126
2.82455
2.85709
2.87219
2.87869
2.88113
2.88233
2.88414
2.888
2.89372
2.90118
2.91139
2.92381
2.9393
2.95596
2.97047
2.98253
2.99288
3.00158
3.00954
3.0174
3.0254
3.03317
3.0404
3.04764
3.05579
3.06474
3.07412
3.08392
3.0945
3.10344
3.10944
3.11193
3.11357
3.11265
3.11201
3.10981
3.11034
3.10702
3.11482
0.99999
0.99999
0.999989
0.999988
0.999984
0.99998
0.999974
0.999966
0.999956
0.999944
0.99993
0.999915
0.999898
0.99988
0.999863
0.999849
0.999843
0.999844
0.999851
0.999873
0.999912
0.999973
1.00006
1.00019
1.00036
1.00057
1.00083
1.00115
1.00153
1.00198
1.00249
1.00308
1.00374
1.00448
1.00529
1.00618
1.00714
1.00818
1.00928
1.01045
1.01169
1.013
1.01435
1.01576
1.01724
1.01877
1.02046
1.0223
1.02441
1.02723
1.03191
1.043
1.0789
1.19853
1.63702
2.20709
2.43619
2.46644
2.42981
2.3747
2.32119
2.28383
2.25981
2.2444
2.23815
2.23231
2.22873
2.23346
2.24705
2.26608
2.29184
2.33461
2.39801
2.47721
2.56107
2.64765
2.73162
2.80208
2.85211
2.88409
2.89837
2.90328
2.9036
2.90265
2.90131
2.90107
2.90165
2.90239
2.90428
2.90938
2.91751
2.92795
2.94108
2.95548
2.96871
2.97991
2.98937
2.99764
3.00572
3.01315
3.02049
3.02778
3.03467
3.04143
3.04885
3.05681
3.06496
3.07315
3.08262
3.09144
3.09784
3.10085
3.10319
3.10304
3.10358
3.10224
3.10358
3.10118
3.10877
0.99999
0.99999
0.999989
0.999987
0.999984
0.999979
0.999973
0.999965
0.999954
0.999942
0.999927
0.99991
0.999892
0.999872
0.999851
0.999831
0.999816
0.999809
0.999808
0.999817
0.999841
0.999884
0.999953
1.00005
1.00018
1.00036
1.00058
1.00085
1.00118
1.00156
1.00202
1.00253
1.00312
1.00378
1.00451
1.00532
1.00619
1.00714
1.00815
1.00924
1.01039
1.01162
1.0129
1.01425
1.01567
1.01712
1.01873
1.02053
1.02268
1.02561
1.03078
1.04372
1.08535
1.21597
1.59933
2.07379
2.30066
2.34709
2.3357
2.30609
2.27683
2.25701
2.24965
2.24496
2.24813
2.25083
2.2543
2.27461
2.31239
2.36398
2.42687
2.50408
2.59647
2.68826
2.76612
2.82764
2.87459
2.90155
2.91333
2.918
2.91852
2.9172
2.91455
2.91216
2.91168
2.91188
2.91168
2.91145
2.91344
2.91814
2.92489
2.93342
2.94406
2.95567
2.96667
2.9761
2.98457
2.99278
3.00104
3.00826
3.01545
3.02263
3.02929
3.0356
3.04221
3.04908
3.05597
3.06278
3.07106
3.07933
3.08599
3.08963
3.09298
3.09419
3.09568
3.09486
3.09673
3.09497
3.10244
0.99999
0.99999
0.999989
0.999987
0.999984
0.999979
0.999972
0.999963
0.999953
0.999939
0.999923
0.999905
0.999884
0.999862
0.999838
0.999813
0.999788
0.999769
0.999757
0.999754
0.999761
0.999784
0.999826
0.999893
0.99999
1.00012
1.00029
1.00051
1.00077
1.00109
1.00147
1.0019
1.0024
1.00297
1.0036
1.0043
1.00506
1.0059
1.0068
1.00777
1.0088
1.0099
1.01106
1.01228
1.01358
1.01489
1.01632
1.01794
1.01995
1.02285
1.02877
1.04511
1.09994
1.25541
1.61911
1.97381
2.14103
2.19462
2.20673
2.20948
2.21844
2.23206
2.2474
2.25814
2.27735
2.30125
2.32879
2.38207
2.45987
2.54982
2.63458
2.71376
2.7822
2.83651
2.87639
2.90026
2.91392
2.91991
2.92176
2.92228
2.92163
2.92007
2.91818
2.91665
2.91668
2.91654
2.91627
2.91726
2.92029
2.92494
2.93085
2.93816
2.94699
2.9564
2.9653
2.97298
2.98042
2.98833
2.99666
3.00389
3.01105
3.01804
3.02437
3.03019
3.03605
3.04179
3.04735
3.05303
3.06019
3.06765
3.07437
3.07858
3.08284
3.0856
3.08804
3.08758
3.08979
3.0885
3.0958
0.99999
0.99999
0.999989
0.999987
0.999983
0.999978
0.999971
0.999962
0.999951
0.999936
0.999919
0.999899
0.999876
0.99985
0.999822
0.999793
0.99976
0.999728
0.9997
0.99968
0.99967
0.99967
0.999683
0.999716
0.999772
0.999855
0.99997
1.00012
1.00032
1.00056
1.00085
1.00119
1.00158
1.00203
1.00254
1.00312
1.00375
1.00444
1.00519
1.00601
1.00689
1.00782
1.0088
1.00984
1.01094
1.01201
1.01318
1.01456
1.01633
1.0192
1.02645
1.04977
1.12826
1.35551
1.69968
1.9284
2.03946
2.08434
2.1123
2.14396
2.18288
2.22569
2.26921
2.31837
2.37308
2.43245
2.50336
2.58482
2.6674
2.73616
2.78969
2.83419
2.86205
2.88091
2.89624
2.90738
2.91477
2.91849
2.91921
2.91907
2.91849
2.91734
2.91637
2.9164
2.91669
2.91715
2.91789
2.92018
2.92363
2.92815
2.93371
2.94043
2.94841
2.95704
2.96485
2.97142
2.97802
2.98551
2.99341
3.00009
3.00672
3.01316
3.019
3.02428
3.02945
3.03412
3.0387
3.04368
3.05001
3.05645
3.06298
3.06777
3.07291
3.07704
3.08036
3.08039
3.08282
3.08183
3.08893
0.99999
0.99999
0.999989
0.999986
0.999983
0.999977
0.99997
0.99996
0.999948
0.999933
0.999915
0.999893
0.999867
0.999837
0.999804
0.999768
0.999729
0.999686
0.999643
0.999601
0.999566
0.999538
0.999522
0.999519
0.999529
0.999557
0.999611
0.999695
0.99981
0.99996
1.00015
1.00038
1.00065
1.00098
1.00135
1.00177
1.00225
1.00277
1.00334
1.00397
1.00465
1.00538
1.00614
1.00693
1.00777
1.00856
1.00945
1.01048
1.01189
1.01496
1.02472
1.05762
1.16962
1.4654
1.78072
1.92444
1.99973
2.04081
2.07872
2.13117
2.20904
2.30337
2.4106
2.50368
2.57586
2.64487
2.70723
2.75809
2.79687
2.82117
2.83892
2.85524
2.86829
2.87942
2.88986
2.89743
2.90301
2.90703
2.90943
2.91121
2.9121
2.91259
2.91326
2.9146
2.91588
2.91682
2.91849
2.92119
2.92469
2.92914
2.93456
2.94094
2.94837
2.95633
2.96353
2.96937
2.97553
2.98267
2.99012
2.9964
3.00255
3.0084
3.01366
3.01838
3.02279
3.02649
3.0304
3.03502
3.04067
3.0459
3.05192
3.0571
3.06304
3.0683
3.07251
3.07332
3.07597
3.07512
3.08196
0.999989
0.999989
0.999988
0.999986
0.999982
0.999977
0.999969
0.999959
0.999946
0.99993
0.99991
0.999885
0.999856
0.999823
0.999784
0.99974
0.999692
0.999639
0.999581
0.99952
0.999458
0.999397
0.999342
0.999293
0.999255
0.999229
0.99922
0.999226
0.99925
0.999298
0.999373
0.99948
0.999623
0.999804
1.00002
1.00028
1.00057
1.00088
1.00124
1.00166
1.00212
1.00261
1.00311
1.00364
1.00419
1.00469
1.00524
1.00591
1.00719
1.01105
1.02511
1.07407
1.241
1.56979
1.82569
1.9299
1.99227
2.03734
2.08917
2.16746
2.29476
2.46223
2.61373
2.70207
2.74977
2.78319
2.80524
2.81716
2.82642
2.83416
2.8407
2.84897
2.85695
2.86461
2.87312
2.8805
2.8868
2.89229
2.89682
2.90061
2.90371
2.90618
2.9088
2.91147
2.91374
2.9155
2.91777
2.92052
2.92404
2.92852
2.93402
2.94048
2.94787
2.95544
2.96248
2.96827
2.97416
2.98056
2.98704
2.99258
2.99809
3.00324
3.00784
3.01193
3.01552
3.01856
3.02212
3.02661
3.03171
3.03582
3.04125
3.04651
3.05312
3.05936
3.0645
3.06623
3.06918
3.06848
3.07496
0.999989
0.999989
0.999988
0.999986
0.999982
0.999976
0.999968
0.999957
0.999943
0.999926
0.999904
0.999877
0.999845
0.999807
0.999762
0.99971
0.999652
0.999586
0.999512
0.999431
0.999343
0.99925
0.999153
0.999056
0.99896
0.99887
0.998784
0.998702
0.998628
0.998568
0.998526
0.998506
0.998504
0.998516
0.998557
0.998626
0.998711
0.998801
0.998926
0.999102
0.999329
0.999554
0.999768
1.00001
1.00026
1.00044
1.00067
1.00115
1.00258
1.00785
1.02772
1.09756
1.31781
1.64958
1.85399
1.94169
2.00751
2.07237
2.16114
2.29352
2.48513
2.66982
2.76872
2.80489
2.81351
2.81639
2.81935
2.82124
2.82373
2.82645
2.82933
2.83312
2.83754
2.84314
2.85082
2.85925
2.8672
2.87435
2.88106
2.88708
2.89241
2.897
2.90134
2.90532
2.90883
2.91188
2.91513
2.91843
2.9223
2.92691
2.93246
2.93882
2.94599
2.95339
2.96065
2.96649
2.97242
2.97837
2.98402
2.98887
2.99363
2.99802
3.0018
3.00519
3.00806
3.01078
3.01422
3.01857
3.02301
3.02623
3.03106
3.0362
3.04317
3.05012
3.05634
3.05906
3.06243
3.06192
3.06799
0.999989
0.999989
0.999988
0.999985
0.999981
0.999975
0.999966
0.999955
0.99994
0.999921
0.999898
0.999869
0.999833
0.99979
0.999738
0.999678
0.999608
0.999527
0.999435
0.999332
0.999217
0.99909
0.998952
0.998804
0.998647
0.998484
0.998316
0.998143
0.997966
0.997786
0.997614
0.997447
0.997276
0.997109
0.996962
0.99684
0.996719
0.996573
0.996434
0.99634
0.996298
0.996267
0.996222
0.99612
0.995982
0.995908
0.995968
0.996393
0.998281
1.00576
1.03295
1.12681
1.38789
1.70526
1.88067
1.97814
2.06451
2.16717
2.31492
2.52281
2.71698
2.81619
2.84083
2.8374
2.82767
2.81853
2.81333
2.81079
2.81006
2.81015
2.81094
2.81257
2.81525
2.81933
2.82617
2.8345
2.84423
2.85368
2.86262
2.87102
2.87848
2.8851
2.89107
2.89652
2.90137
2.90573
2.91002
2.91437
2.91904
2.9241
2.92974
2.9361
2.94324
2.9507
2.95829
2.96436
2.97029
2.97578
2.98069
2.98479
2.98877
2.99235
2.99534
2.99805
3.00043
3.00301
3.00642
3.01049
3.01427
3.01687
3.0213
3.02623
3.03334
3.04075
3.04797
3.0518
3.05566
3.05542
3.06103
0.999989
0.999989
0.999987
0.999985
0.99998
0.999974
0.999965
0.999953
0.999937
0.999917
0.999891
0.999859
0.99982
0.999771
0.999713
0.999643
0.999561
0.999465
0.999353
0.999226
0.99908
0.998917
0.998735
0.998534
0.998314
0.998076
0.99782
0.997548
0.997258
0.996952
0.996635
0.996315
0.99598
0.995625
0.995262
0.994914
0.994586
0.994256
0.993884
0.993486
0.99313
0.992828
0.992545
0.99215
0.991669
0.991409
0.99143
0.991915
0.994581
1.00528
1.04452
1.1669
1.45452
1.75465
1.9201
2.04575
2.17568
2.34108
2.55806
2.75782
2.85171
2.8736
2.86474
2.84642
2.8289
2.81452
2.8042
2.79738
2.79314
2.79096
2.79041
2.79083
2.79257
2.79574
2.80184
2.80931
2.81932
2.83024
2.84066
2.851
2.86033
2.86919
2.87718
2.88457
2.89121
2.89725
2.9029
2.90845
2.91408
2.91984
2.92591
2.93248
2.93974
2.94747
2.95542
2.96187
2.96782
2.97288
2.97712
2.98053
2.9838
2.98668
2.98897
2.99103
2.99308
2.99555
2.99875
3.00237
3.00557
3.00777
3.01195
3.01653
3.02374
3.03156
3.03966
3.0445
3.04879
3.04887
3.05404
0.999989
0.999988
0.999987
0.999984
0.99998
0.999973
0.999963
0.99995
0.999934
0.999912
0.999884
0.999849
0.999806
0.999752
0.999686
0.999607
0.999512
0.999399
0.999267
0.999113
0.998935
0.998733
0.998503
0.998246
0.997959
0.997644
0.997297
0.996921
0.996516
0.996082
0.995617
0.995135
0.994635
0.99411
0.993551
0.992965
0.992383
0.991826
0.991305
0.990738
0.990058
0.98941
0.988878
0.988267
0.987544
0.987114
0.987123
0.987792
0.991829
1.00692
1.06558
1.22273
1.51786
1.81237
1.99328
2.16221
2.35301
2.57983
2.77636
2.86982
2.892
2.88237
2.8633
2.84512
2.82734
2.81242
2.80073
2.79132
2.78346
2.77774
2.77465
2.77367
2.77424
2.77563
2.7796
2.7849
2.79327
2.80361
2.81468
2.8267
2.83821
2.84948
2.85972
2.86938
2.87812
2.88611
2.89339
2.90034
2.90711
2.91389
2.92072
2.92775
2.9353
2.94344
2.95183
2.95882
2.96481
2.96941
2.97307
2.97597
2.97862
2.98083
2.98245
2.98403
2.98583
2.98814
2.99095
2.99409
2.99688
2.99883
3.00279
3.00697
3.01432
3.0226
3.03154
3.03726
3.04175
3.04213
3.04692
0.999988
0.999988
0.999987
0.999984
0.999979
0.999972
0.999962
0.999948
0.99993
0.999907
0.999877
0.999839
0.999791
0.999732
0.999658
0.999569
0.99946
0.999331
0.999177
0.998996
0.998785
0.998542
0.998264
0.997949
0.997595
0.9972
0.996763
0.996285
0.995766
0.995201
0.994595
0.993954
0.993275
0.992576
0.991865
0.991089
0.990236
0.989401
0.988664
0.987965
0.987126
0.986197
0.985371
0.984445
0.983492
0.983031
0.983153
0.984421
0.991039
1.01418
1.10227
1.28503
1.59425
1.90149
2.1166
2.34695
2.59172
2.78542
2.87823
2.89963
2.8904
2.87236
2.85475
2.83684
2.82059
2.8066
2.79476
2.78447
2.77556
2.76797
2.76266
2.75955
2.75845
2.75812
2.75975
2.76249
2.76816
2.77572
2.78534
2.79758
2.81102
2.82515
2.83795
2.85014
2.86134
2.87163
2.88094
2.88951
2.89765
2.90565
2.91353
2.92143
2.92966
2.93847
2.9475
2.95496
2.96102
2.96522
2.96848
2.97104
2.97316
2.97477
2.97591
2.97724
2.97882
2.98086
2.98316
2.98582
2.98824
2.98999
2.99366
2.9976
3.00509
3.01369
3.02341
3.03005
3.03465
3.03518
3.03966
0.999988
0.999988
0.999986
0.999983
0.999978
0.999971
0.99996
0.999946
0.999926
0.999901
0.999869
0.999828
0.999776
0.99971
0.999629
0.999529
0.999407
0.99926
0.999084
0.998876
0.998633
0.99835
0.998023
0.997651
0.99723
0.996757
0.99623
0.995653
0.995018
0.994324
0.993586
0.992796
0.991943
0.991045
0.990164
0.989251
0.988196
0.987079
0.986041
0.985144
0.984232
0.983194
0.982027
0.980601
0.979407
0.978993
0.979337
0.981897
0.992705
1.02981
1.15214
1.37685
1.71065
2.0399
2.32101
2.58368
2.78631
2.88114
2.90326
2.89372
2.87541
2.85794
2.84047
2.82464
2.81067
2.79833
2.78727
2.77739
2.7686
2.7608
2.75375
2.74815
2.74434
2.74197
2.74188
2.7426
2.74598
2.75078
2.75813
2.76846
2.78095
2.79614
2.81157
2.8267
2.84071
2.85367
2.86528
2.87582
2.88568
2.89515
2.90437
2.91352
2.92285
2.93262
2.94239
2.95023
2.95645
2.96046
2.96349
2.96581
2.96745
2.96854
2.96941
2.97059
2.97191
2.97359
2.97544
2.97762
2.97949
2.98095
2.98445
2.98843
2.99599
3.0048
3.01516
3.02264
3.0274
3.02812
3.0324
0.999988
0.999988
0.999986
0.999983
0.999977
0.999969
0.999958
0.999943
0.999923
0.999896
0.999861
0.999817
0.99976
0.999688
0.999599
0.999488
0.999353
0.999189
0.998991
0.998756
0.99848
0.998156
0.997782
0.997353
0.996866
0.996316
0.995703
0.995025
0.994278
0.993461
0.99259
0.991656
0.990642
0.989565
0.988469
0.987392
0.986228
0.9849
0.983556
0.982336
0.981276
0.980165
0.978708
0.976768
0.975412
0.975098
0.975863
0.980802
0.998005
1.06608
1.21906
1.53569
1.92214
2.26468
2.55159
2.7657
2.87016
2.89649
2.88921
2.87141
2.85382
2.83674
2.82165
2.80886
2.7978
2.78779
2.77847
2.7698
2.76162
2.75384
2.74654
2.73964
2.73397
2.72916
2.72687
2.72624
2.72779
2.73017
2.73545
2.74339
2.75328
2.7664
2.78182
2.79913
2.81614
2.83206
2.8463
2.85915
2.87099
2.88224
2.89311
2.90384
2.9147
2.92571
2.93628
2.94455
2.95095
2.95495
2.95787
2.96003
2.96133
2.96216
2.96292
2.96401
2.96498
2.96629
2.96777
2.96947
2.97067
2.97188
2.97528
2.97939
2.98695
2.99602
3.00672
3.01471
3.01985
3.0211
3.02525
0.999988
0.999987
0.999986
0.999982
0.999976
0.999968
0.999956
0.99994
0.999919
0.99989
0.999853
0.999805
0.999744
0.999666
0.999569
0.999448
0.999299
0.999117
0.998899
0.998637
0.998328
0.997966
0.997545
0.997061
0.996509
0.995886
0.99519
0.994417
0.993565
0.992635
0.991632
0.990557
0.989404
0.988176
0.986884
0.985582
0.984284
0.982868
0.98129
0.979766
0.978485
0.977196
0.975232
0.972995
0.97186
0.971832
0.973779
0.982385
1.01626
1.12172
1.35554
1.77875
2.20548
2.54068
2.76571
2.87456
2.90125
2.89069
2.86953
2.84977
2.83078
2.81471
2.80155
2.79086
2.782
2.77433
2.76713
2.76019
2.75313
2.74592
2.7388
2.73236
2.72587
2.71943
2.71474
2.71231
2.71258
2.71322
2.71653
2.72199
2.72946
2.73995
2.75302
2.76956
2.78822
2.80735
2.82426
2.83964
2.8537
2.8669
2.87968
2.89231
2.90497
2.91739
2.92891
2.93776
2.94447
2.94864
2.95152
2.95362
2.95481
2.95562
2.9564
2.95731
2.95793
2.95892
2.96004
2.96127
2.96195
2.96306
2.9663
2.97046
2.97801
2.98735
2.99802
3.00627
3.01197
3.01403
3.01813
0.999987
0.999987
0.999985
0.999982
0.999976
0.999967
0.999954
0.999937
0.999915
0.999884
0.999845
0.999793
0.999727
0.999644
0.999538
0.999407
0.999245
0.999047
0.998807
0.99852
0.998179
0.997779
0.997314
0.996778
0.996166
0.995474
0.994699
0.993838
0.99289
0.991856
0.990736
0.98953
0.988248
0.986891
0.98545
0.983939
0.982448
0.980938
0.979282
0.97756
0.975948
0.974251
0.971868
0.969772
0.96909
0.969685
0.973798
0.98909
1.0513
1.21387
1.60236
2.09129
2.48342
2.73342
2.85922
2.8943
2.88623
2.86588
2.84488
2.82455
2.80709
2.79296
2.78156
2.7725
2.76528
2.75917
2.75341
2.74778
2.74204
2.73606
2.72992
2.72393
2.71806
2.71152
2.70495
2.70058
2.69922
2.69844
2.70025
2.70354
2.70894
2.71708
2.72777
2.74204
2.75904
2.77943
2.79954
2.81777
2.83395
2.84927
2.86415
2.87886
2.89346
2.90742
2.9201
2.92973
2.93693
2.94141
2.9444
2.94662
2.9479
2.94886
2.9496
2.95035
2.95076
2.95152
2.9522
2.95297
2.95338
2.95447
2.95753
2.9617
2.96916
2.97852
2.98899
2.99752
3.00382
3.00682
3.01086
0.999987
0.999987
0.999985
0.999981
0.999975
0.999966
0.999952
0.999935
0.99991
0.999878
0.999836
0.999782
0.999711
0.999621
0.999508
0.999366
0.999191
0.998977
0.998716
0.998404
0.998033
0.997597
0.997089
0.996504
0.995835
0.995079
0.994232
0.993291
0.992255
0.991125
0.989901
0.988586
0.987185
0.985709
0.984148
0.982508
0.980822
0.97916
0.977437
0.975653
0.973835
0.971339
0.968746
0.967454
0.967401
0.969259
0.97709
1.01118
1.10876
1.40916
1.93679
2.4237
2.71283
2.85219
2.89209
2.88283
2.86096
2.84005
2.82024
2.80299
2.7883
2.77589
2.76552
2.75695
2.74977
2.74373
2.73832
2.73325
2.72835
2.72344
2.71858
2.71359
2.70862
2.70308
2.69633
2.69038
2.68718
2.68495
2.68573
2.68727
2.69101
2.69713
2.70563
2.71751
2.73201
2.75068
2.77202
2.79331
2.81206
2.82958
2.84651
2.86345
2.8801
2.89571
2.90971
2.92033
2.92824
2.93324
2.93657
2.93909
2.94055
2.94172
2.94246
2.94316
2.94343
2.94397
2.94426
2.94469
2.94496
2.94607
2.94897
2.95313
2.96035
2.96942
2.97975
2.98866
2.99548
2.99936
3.00315
0.999987
0.999986
0.999984
0.99998
0.999974
0.999964
0.999951
0.999932
0.999906
0.999873
0.999828
0.99977
0.999695
0.9996
0.999478
0.999327
0.999139
0.998909
0.998629
0.998293
0.997893
0.997423
0.996876
0.996244
0.995524
0.994709
0.993796
0.992783
0.99167
0.990455
0.989142
0.987733
0.986237
0.984654
0.982993
0.981254
0.979467
0.97764
0.97582
0.973962
0.971829
0.968998
0.966686
0.965931
0.96665
0.970754
0.989982
1.05444
1.25526
1.76194
2.32386
2.6751
2.83243
2.87401
2.86709
2.84607
2.82495
2.80651
2.79107
2.77798
2.76653
2.75656
2.74786
2.74036
2.73364
2.72759
2.72229
2.71743
2.71301
2.70888
2.70499
2.70112
2.69719
2.69303
2.6872
2.68112
2.67611
2.67277
2.67262
2.67264
2.67506
2.67939
2.68593
2.69556
2.70784
2.72415
2.74376
2.76613
2.7878
2.80793
2.82718
2.84626
2.86488
2.88223
2.89766
2.90938
2.91827
2.92409
2.92804
2.93102
2.93275
2.93422
2.9351
2.93581
2.93587
2.93623
2.93622
2.93646
2.93666
2.93779
2.94049
2.94457
2.95145
2.9601
2.97046
2.97981
2.98701
2.99151
2.99489
0.999986
0.999986
0.999984
0.99998
0.999973
0.999963
0.999949
0.999929
0.999902
0.999867
0.99982
0.999759
0.999679
0.999578
0.99945
0.999288
0.999089
0.998843
0.998545
0.998187
0.99776
0.997259
0.996675
0.996002
0.995233
0.994366
0.993395
0.99232
0.991139
0.989854
0.988468
0.986984
0.985409
0.983748
0.982009
0.980199
0.978337
0.976433
0.974555
0.972602
0.969808
0.967122
0.966044
0.966162
0.968176
0.977944
1.01772
1.15222
1.5835
2.1907
2.62095
2.80449
2.85285
2.84527
2.82221
2.8004
2.78183
2.76734
2.75625
2.74733
2.73981
2.73314
2.72694
2.72099
2.71541
2.70982
2.7045
2.69964
2.69556
2.69208
2.68901
2.68609
2.68327
2.68033
2.67645
2.67105
2.6655
2.66147
2.66011
2.65888
2.66058
2.66326
2.668
2.67549
2.68568
2.69968
2.71665
2.73783
2.76103
2.78422
2.80606
2.82739
2.84803
2.86713
2.88397
2.89701
2.90717
2.91407
2.91888
2.92244
2.92458
2.92639
2.92737
2.92808
2.928
2.9282
2.92803
2.92814
2.92834
2.92945
2.93198
2.93587
2.94248
2.95084
2.96118
2.97102
2.97856
2.98315
2.98594
0.999986
0.999985
0.999983
0.999979
0.999972
0.999962
0.999947
0.999926
0.999898
0.999861
0.999812
0.999747
0.999664
0.999557
0.999422
0.999251
0.99904
0.99878
0.998465
0.998086
0.997635
0.997104
0.996487
0.995776
0.994966
0.994052
0.993031
0.991902
0.990665
0.989323
0.987877
0.986335
0.9847
0.982984
0.981184
0.979329
0.977411
0.975497
0.973509
0.971128
0.968284
0.966295
0.965759
0.966767
0.971704
0.994915
1.07731
1.41872
2.04657
2.56372
2.77596
2.83401
2.82733
2.80304
2.77902
2.75955
2.7441
2.732
2.72293
2.71609
2.71065
2.70601
2.70167
2.69789
2.69368
2.68938
2.68499
2.68067
2.67656
2.67352
2.67101
2.66903
2.66709
2.66514
2.66287
2.65912
2.65452
2.65058
2.64825
2.64604
2.64695
2.64817
2.6513
2.65681
2.66507
2.67675
2.69134
2.7104
2.73279
2.75788
2.78271
2.80668
2.82937
2.85032
2.86869
2.88319
2.89474
2.90298
2.90888
2.91326
2.91596
2.91817
2.91922
2.91996
2.91984
2.91998
2.91974
2.91978
2.92005
2.9211
2.92344
2.92715
2.93343
2.94159
2.9519
2.96211
2.96986
2.97436