/*--------------------------------*- C++ -*----------------------------------*\
| =========                 |                                                 |
| \\      /  F ield         | OpenFOAM: The Open Source CFD Toolbox           |
|  \\    /   O peration     | Version:  2.2.x                                 |
|   \\  /    A nd           | Web:      www.OpenFOAM.org                      |
|    \\/     M anipulation  |                                                 |
\*---------------------------------------------------------------------------*/
FoamFile
{
    version     2.0;
    format      ascii;
    class       volScalarField;
    location    "2.65";
    object      Bx;
}
// * * * * * * * * * * * * * * * * * * * * * * * * * * * * * * * * * * * * * //

dimensions      [1 0 -2 0 0 -1 0];

internalField   nonuniform List<scalar> 
14161
(
1.00384
1.00339
1.0034
1.00334
1.00323
1.00306
1.00281
1.00246
1.00203
1.00149
1.00084
1.00005
0.999105
0.997992
0.996695
0.995217
0.99353
0.991639
0.989568
0.987314
0.984858
0.98221
0.979423
0.976501
0.973463
0.970345
0.96718
0.964046
0.960948
0.957908
0.954947
0.952075
0.949356
0.946675
0.944212
0.941397
0.941301
0.94878
0.961612
0.976399
0.992826
1.00879
1.02378
1.03726
1.04951
1.06108
1.07217
1.08289
1.09309
1.10317
1.11264
1.12153
1.1301
1.13808
1.14651
1.15437
1.16168
1.169
1.17544
1.18214
1.18919
1.19567
1.20223
1.20874
1.2144
1.22031
1.22664
1.23277
1.23918
1.2454
1.25063
1.25593
1.26191
1.26798
1.27377
1.27924
1.28434
1.2897
1.29556
1.30116
1.30615
1.31184
1.31802
1.32408
1.32992
1.33576
1.34115
1.34695
1.35313
1.35898
1.36476
1.37103
1.37749
1.38365
1.38995
1.39617
1.40244
1.40915
1.41601
1.4219
1.42649
1.43021
1.43276
1.43338
1.43078
1.42431
1.40903
1.37872
1.32272
1.22988
1.09997
0.951406
0.799786
0.661513
0.532205
0.409578
0.281942
0.172891
0.0484279
1.00384
1.0034
1.0034
1.00334
1.00324
1.00306
1.00281
1.00246
1.00203
1.0015
1.00084
1.00004
0.999099
0.997984
0.996689
0.995209
0.993522
0.991632
0.98956
0.987307
0.984844
0.982201
0.979412
0.976496
0.973454
0.970333
0.967164
0.964024
0.960918
0.95789
0.954938
0.952084
0.949361
0.946747
0.944259
0.941902
0.942406
0.94957
0.962973
0.977705
0.99438
1.01139
1.02791
1.04291
1.05602
1.06786
1.07899
1.08963
1.09979
1.10966
1.11894
1.12761
1.13608
1.14404
1.15233
1.15997
1.16708
1.17424
1.18065
1.18743
1.19444
1.20083
1.2072
1.21345
1.21893
1.22471
1.23083
1.23681
1.24304
1.24907
1.25431
1.25952
1.26537
1.27122
1.27684
1.28235
1.28744
1.29272
1.29839
1.3039
1.30871
1.31411
1.32018
1.32624
1.3321
1.33795
1.3435
1.3493
1.35552
1.36163
1.36771
1.37403
1.38041
1.38637
1.3926
1.3989
1.40484
1.4103
1.41551
1.42002
1.4235
1.42595
1.42559
1.422
1.41373
1.39757
1.36814
1.31861
1.24033
1.1288
0.986358
0.838969
0.704579
0.581469
0.462488
0.351814
0.239508
0.149029
0.0506107
1.00385
1.0034
1.00341
1.00335
1.00324
1.00307
1.00281
1.00247
1.00204
1.00151
1.00085
1.00006
0.999114
0.998001
0.99671
0.995227
0.993547
0.991662
0.989595
0.987325
0.984867
0.982234
0.979447
0.976536
0.973492
0.970369
0.967179
0.964034
0.960924
0.957888
0.954931
0.95208
0.949451
0.947093
0.945031
0.944122
0.946156
0.953911
0.968761
0.98412
1.00176
1.01982
1.03694
1.05179
1.06454
1.076
1.08676
1.09705
1.1068
1.11607
1.12478
1.13316
1.14157
1.14943
1.15732
1.16455
1.17143
1.17867
1.18536
1.19224
1.19923
1.20547
1.21184
1.21832
1.22429
1.2304
1.23653
1.2422
1.24801
1.25393
1.25951
1.26509
1.27095
1.27642
1.28178
1.28748
1.2928
1.29813
1.30366
1.30917
1.31412
1.31933
1.32501
1.33064
1.33617
1.34188
1.34753
1.35354
1.35992
1.36619
1.3725
1.37872
1.3848
1.39034
1.39531
1.4
1.40435
1.40825
1.41193
1.41447
1.41539
1.41291
1.40648
1.39403
1.37108
1.33286
1.27077
1.17696
1.04862
0.907859
0.776315
0.662044
0.562181
0.46971
0.3803
0.293744
0.203577
0.129865
0.0485457
1.00387
1.00342
1.00342
1.00337
1.00325
1.00307
1.00282
1.00249
1.00206
1.00152
1.00087
1.00008
0.999137
0.998026
0.99674
0.995255
0.993582
0.991713
0.98964
0.98735
0.984899
0.982282
0.979499
0.976599
0.973554
0.97042
0.967218
0.964053
0.96093
0.957884
0.954903
0.952068
0.949607
0.94769
0.946972
0.948939
0.952838
0.960287
0.975246
0.990286
1.00648
1.02211
1.03684
1.0503
1.06239
1.07352
1.0841
1.09432
1.10404
1.11311
1.12184
1.13027
1.13881
1.14692
1.15465
1.16199
1.16892
1.17626
1.18337
1.19034
1.1973
1.20363
1.21002
1.21688
1.22378
1.23087
1.23775
1.24362
1.24943
1.25565
1.2618
1.26789
1.27384
1.27899
1.28436
1.29017
1.29566
1.30129
1.30677
1.31215
1.31777
1.32304
1.32861
1.33423
1.33994
1.3457
1.3515
1.35708
1.36246
1.3679
1.37333
1.37888
1.38434
1.38925
1.39337
1.39717
1.40021
1.4023
1.40275
1.40022
1.39435
1.38309
1.36342
1.33112
1.27896
1.20081
1.08873
0.94939
0.808632
0.696966
0.606911
0.526709
0.455318
0.384909
0.31428
0.244829
0.175543
0.116074
0.0502621
1.00389
1.00344
1.00345
1.00339
1.00327
1.00309
1.00284
1.00251
1.00209
1.00156
1.00091
1.00012
0.99918
0.998073
0.996786
0.995311
0.993648
0.991793
0.989708
0.987421
0.984964
0.982349
0.979575
0.976684
0.973645
0.970493
0.967288
0.964098
0.960969
0.957902
0.954885
0.95208
0.949632
0.94827
0.950157
0.956609
0.964234
0.972444
0.988003
1.00234
1.01764
1.03201
1.0454
1.05745
1.06835
1.07848
1.08849
1.09801
1.10707
1.11557
1.12399
1.13242
1.14058
1.14854
1.15588
1.16313
1.17043
1.17769
1.18511
1.19215
1.19879
1.20552
1.21212
1.21909
1.22633
1.23315
1.23991
1.24638
1.25238
1.25882
1.2652
1.27111
1.27685
1.28213
1.28745
1.29331
1.29887
1.30433
1.30981
1.31508
1.32076
1.32619
1.3318
1.33732
1.34296
1.34877
1.35454
1.36001
1.36506
1.36971
1.37408
1.37805
1.38177
1.38533
1.38818
1.39015
1.39002
1.38732
1.38136
1.37066
1.3526
1.32401
1.27857
1.21065
1.11081
0.977612
0.830848
0.707993
0.616539
0.544059
0.482576
0.427966
0.376191
0.320066
0.263271
0.208389
0.155413
0.109307
0.0564786
1.00392
1.00347
1.00347
1.00341
1.00329
1.00311
1.00287
1.00255
1.00213
1.0016
1.00095
1.00017
0.999239
0.998134
0.996851
0.995391
0.993736
0.99189
0.989808
0.987528
0.98507
0.982456
0.979694
0.976801
0.973777
0.970611
0.967413
0.9642
0.961045
0.957931
0.954866
0.952129
0.949816
0.949303
0.951893
0.961043
0.97135
0.982012
0.999448
1.01377
1.02895
1.043
1.0559
1.06719
1.07736
1.08688
1.09621
1.10522
1.11361
1.12183
1.12978
1.13798
1.14574
1.15314
1.16047
1.16743
1.17481
1.1821
1.18891
1.19585
1.20232
1.20877
1.21549
1.22194
1.22819
1.23435
1.23997
1.24586
1.25176
1.25751
1.26355
1.26942
1.27484
1.28049
1.28612
1.29192
1.29775
1.30315
1.30858
1.31413
1.31977
1.32553
1.33109
1.33645
1.34187
1.3475
1.35318
1.35864
1.36353
1.36772
1.37127
1.37396
1.37598
1.37713
1.37652
1.37356
1.36751
1.35695
1.33968
1.31299
1.27182
1.21148
1.1244
1.00623
0.864907
0.734743
0.631114
0.551516
0.491493
0.442795
0.399163
0.360565
0.319337
0.273193
0.226235
0.182508
0.141887
0.105227
0.0631743
1.00395
1.0035
1.0035
1.00344
1.00332
1.00315
1.00291
1.00259
1.00218
1.00166
1.00102
1.00024
0.999318
0.998222
0.99695
0.995496
0.993847
0.992005
0.989946
0.987671
0.985213
0.982595
0.979845
0.976955
0.973939
0.970793
0.967597
0.964356
0.96116
0.957996
0.954907
0.951959
0.949268
0.948186
0.94902
0.95638
0.967327
0.982148
1.00191
1.01703
1.03224
1.04615
1.05872
1.0696
1.07976
1.08951
1.0989
1.10797
1.11632
1.12465
1.13279
1.14068
1.14835
1.15533
1.16256
1.1697
1.1766
1.18366
1.19012
1.19636
1.20302
1.20931
1.21571
1.22226
1.22817
1.23409
1.24016
1.24574
1.25147
1.25738
1.26296
1.26869
1.27431
1.27979
1.28572
1.29179
1.2976
1.30355
1.30926
1.31515
1.32127
1.3272
1.33251
1.33767
1.34293
1.34783
1.35213
1.35577
1.3595
1.36253
1.36449
1.36453
1.36289
1.35907
1.35209
1.34083
1.32382
1.29821
1.2599
1.20489
1.12721
1.02214
0.892292
0.765877
0.658847
0.572413
0.505117
0.453518
0.412685
0.377364
0.345035
0.314172
0.279217
0.240657
0.201255
0.165503
0.133539
0.103417
0.0696558
1.00398
1.00353
1.00354
1.00347
1.00336
1.00319
1.00296
1.00264
1.00224
1.00173
1.0011
1.00033
0.999417
0.998333
0.997071
0.995625
0.993986
0.992147
0.990118
0.987863
0.985418
0.982793
0.980038
0.977156
0.974152
0.971028
0.967825
0.964567
0.961306
0.958064
0.954908
0.951777
0.948844
0.947384
0.947354
0.953227
0.961096
0.975026
0.995544
1.01119
1.02663
1.04077
1.05323
1.0641
1.07447
1.08457
1.09438
1.10355
1.11222
1.12071
1.12924
1.13723
1.14494
1.15234
1.15968
1.16725
1.17445
1.18134
1.18819
1.19443
1.20095
1.20769
1.21403
1.22035
1.22652
1.23229
1.23846
1.24464
1.25051
1.25652
1.26247
1.26826
1.27447
1.28062
1.28678
1.29323
1.29966
1.30592
1.31224
1.31844
1.32436
1.32978
1.33439
1.33823
1.34178
1.34492
1.34779
1.34981
1.3512
1.35087
1.34867
1.34403
1.33617
1.32391
1.30575
1.27932
1.24173
1.1895
1.11787
1.02329
0.906314
0.788108
0.684227
0.598094
0.528531
0.473249
0.429377
0.393832
0.363745
0.335981
0.310279
0.283197
0.25232
0.218923
0.185171
0.155028
0.129005
0.103376
0.0755424
1.00402
1.00357
1.00357
1.00352
1.00341
1.00324
1.00302
1.00271
1.00232
1.00182
1.0012
1.00044
0.999539
0.998469
0.997221
0.995775
0.994154
0.992334
0.990332
0.98811
0.98567
0.983059
0.980312
0.977447
0.974473
0.971344
0.968113
0.964821
0.961504
0.95818
0.954967
0.951701
0.948727
0.947514
0.94784
0.95685
0.964357
0.979949
1.00064
1.01661
1.0317
1.04523
1.0567
1.06658
1.07609
1.08531
1.09432
1.10274
1.11107
1.11942
1.12762
1.13563
1.14314
1.15083
1.15826
1.16569
1.17323
1.18017
1.18712
1.19388
1.20027
1.20706
1.21349
1.21956
1.22591
1.23195
1.2383
1.24509
1.25163
1.25802
1.26466
1.27119
1.27785
1.28485
1.29183
1.2987
1.30537
1.31138
1.31661
1.32172
1.32631
1.32968
1.33262
1.33517
1.33751
1.33865
1.33844
1.33671
1.33336
1.32738
1.31803
1.30447
1.28473
1.25652
1.21814
1.16609
1.0977
1.01034
0.903658
0.796625
0.700669
0.619716
0.551364
0.495895
0.451034
0.414177
0.383285
0.356667
0.333008
0.310879
0.288577
0.263627
0.235479
0.205757
0.176217
0.150101
0.128062
0.105702
0.0822214
1.00406
1.0036
1.00362
1.00356
1.00346
1.0033
1.00309
1.00279
1.00241
1.00192
1.00131
1.00057
0.999685
0.998636
0.997406
0.995981
0.994381
0.992586
0.990597
0.988398
0.985973
0.983382
0.980641
0.977778
0.974823
0.971711
0.968473
0.965146
0.961794
0.958393
0.955137
0.951794
0.949055
0.947915
0.948588
0.961198
0.969645
0.987481
1.00599
1.02098
1.03478
1.04704
1.0575
1.06687
1.07679
1.08631
1.09534
1.10412
1.11284
1.12156
1.13003
1.13802
1.14593
1.15367
1.16142
1.16885
1.17622
1.1833
1.19026
1.19728
1.20404
1.21071
1.2173
1.22356
1.22982
1.23626
1.24272
1.24972
1.25702
1.26421
1.27154
1.27893
1.28636
1.29339
1.29982
1.30549
1.31038
1.31492
1.31854
1.32147
1.32433
1.32659
1.32813
1.32838
1.32697
1.32367
1.31808
1.30995
1.29837
1.28202
1.25929
1.22893
1.18871
1.13573
1.06771
0.9843
0.886203
0.792789
0.70698
0.632978
0.569032
0.516151
0.472213
0.435449
0.404784
0.378813
0.355975
0.335238
0.315147
0.296195
0.275435
0.25242
0.226237
0.19936
0.173247
0.15027
0.131103
0.111175
0.0909439
1.00411
1.00365
1.00366
1.00362
1.00352
1.00337
1.00317
1.00288
1.00251
1.00204
1.00145
1.00072
0.999851
0.998827
0.99762
0.996222
0.994636
0.992867
0.9909
0.988725
0.986337
0.983775
0.981043
0.97817
0.975215
0.972133
0.968907
0.965544
0.962147
0.958699
0.955423
0.952228
0.950141
0.950001
0.952068
0.966208
0.97461
0.99036
1.00674
1.02081
1.03384
1.04496
1.05407
1.06272
1.0724
1.08114
1.08991
1.09871
1.10762
1.11657
1.12518
1.13357
1.14186
1.15013
1.1583
1.1665
1.17471
1.18274
1.19069
1.19856
1.20647
1.21423
1.22179
1.22876
1.23573
1.24263
1.24999
1.25775
1.2657
1.27389
1.28214
1.28952
1.2958
1.30099
1.30514
1.30891
1.31193
1.31448
1.31663
1.31853
1.3192
1.31843
1.31558
1.31074
1.30325
1.29264
1.27761
1.25723
1.23072
1.19638
1.15187
1.09602
1.02914
0.948263
0.860112
0.778723
0.704524
0.638703
0.581223
0.532149
0.490642
0.455373
0.425339
0.40003
0.378381
0.358739
0.340245
0.323022
0.306055
0.289139
0.269635
0.248736
0.224665
0.200285
0.17662
0.15582
0.138313
0.119741
0.101693
1.00416
1.0037
1.00372
1.00367
1.00359
1.00345
1.00326
1.00299
1.00263
1.00217
1.0016
1.00089
1.00004
0.999042
0.997869
0.996513
0.994946
0.993185
0.991245
0.989113
0.986776
0.984247
0.981526
0.978645
0.975675
0.972621
0.969424
0.966037
0.962596
0.959136
0.955763
0.952462
0.950118
0.948893
0.948319
0.95756
0.963434
0.97794
0.994404
1.00918
1.02254
1.03351
1.0424
1.05151
1.06116
1.06993
1.0787
1.08808
1.09741
1.10677
1.11595
1.12509
1.13435
1.14345
1.15256
1.16177
1.17099
1.18
1.18885
1.19758
1.20626
1.21502
1.22374
1.23273
1.24154
1.24991
1.25841
1.2669
1.27579
1.284
1.29106
1.29702
1.30126
1.30445
1.30677
1.30867
1.31029
1.31142
1.31084
1.3086
1.30416
1.2973
1.28733
1.27335
1.25449
1.23004
1.19881
1.15856
1.1096
1.05088
0.980922
0.900796
0.825901
0.756283
0.69478
0.638456
0.588126
0.544291
0.506441
0.473371
0.444378
0.420039
0.398854
0.380325
0.363933
0.348418
0.332947
0.317963
0.302977
0.287094
0.268805
0.249606
0.227517
0.205216
0.18324
0.163338
0.146736
0.129167
0.112804
1.00422
1.00376
1.00378
1.00374
1.00367
1.00354
1.00336
1.0031
1.00276
1.00233
1.00177
1.00108
1.00025
0.999296
0.998172
0.996843
0.995309
0.993569
0.991677
0.989598
0.987306
0.984792
0.98209
0.979213
0.976237
0.9732
0.970046
0.966659
0.963176
0.959681
0.956184
0.952732
0.950318
0.948312
0.946205
0.947806
0.950814
0.961589
0.978081
0.993582
1.0079
1.01962
1.03034
1.04157
1.05227
1.06218
1.07211
1.08251
1.09252
1.10283
1.1129
1.12345
1.1341
1.14505
1.15581
1.16626
1.17661
1.18659
1.19617
1.20588
1.21539
1.22503
1.23459
1.24423
1.25439
1.26386
1.27273
1.28083
1.28764
1.29329
1.29783
1.30097
1.30303
1.30489
1.30606
1.30607
1.3041
1.29986
1.2931
1.28357
1.27029
1.25232
1.22895
1.1993
1.16154
1.11597
1.062
0.998742
0.926459
0.857545
0.793448
0.7348
0.680993
0.633429
0.590586
0.552906
0.519356
0.489314
0.462446
0.439181
0.418532
0.400653
0.384648
0.370195
0.357134
0.344256
0.330995
0.317973
0.304144
0.288871
0.271464
0.253033
0.232039
0.211159
0.190312
0.171367
0.155649
0.139318
0.124712
1.0043
1.00382
1.00385
1.00382
1.00375
1.00364
1.00347
1.00323
1.00291
1.0025
1.00197
1.0013
1.00052
0.999595
0.998507
0.997214
0.995718
0.994007
0.992152
0.990123
0.987892
0.985407
0.982733
0.979869
0.976901
0.973851
0.970749
0.967391
0.963886
0.960336
0.956739
0.953139
0.950461
0.947962
0.945337
0.943886
0.945689
0.955034
0.970851
0.986433
1.00112
1.01423
1.02777
1.04113
1.05355
1.06504
1.07614
1.08724
1.09769
1.10822
1.11855
1.12901
1.13951
1.14983
1.16008
1.1706
1.18099
1.1919
1.20287
1.21371
1.22489
1.23554
1.24613
1.25731
1.26805
1.27843
1.28611
1.29206
1.29611
1.29894
1.30107
1.30283
1.30385
1.30264
1.29919
1.29305
1.28398
1.27072
1.25288
1.22996
1.20085
1.16427
1.12023
1.06858
1.00884
0.941495
0.876983
0.817235
0.762785
0.712771
0.668567
0.628294
0.591958
0.559257
0.530168
0.503645
0.478815
0.457415
0.438339
0.420733
0.404677
0.39083
0.378203
0.366264
0.355221
0.344054
0.332355
0.320452
0.307082
0.292273
0.275243
0.257007
0.237109
0.217474
0.197788
0.180069
0.165346
0.150315
0.137295
1.00437
1.0039
1.00392
1.0039
1.00385
1.00375
1.0036
1.00338
1.00308
1.00269
1.00219
1.00157
1.00081
0.999924
0.998871
0.997624
0.996171
0.994522
0.992679
0.990697
0.988533
0.986106
0.983466
0.980619
0.977667
0.974604
0.97154
0.968249
0.964716
0.961109
0.957409
0.953665
0.950808
0.948322
0.945852
0.945452
0.948233
0.958167
0.973389
0.988365
1.00261
1.01472
1.02716
1.03911
1.05071
1.06192
1.07372
1.0857
1.09785
1.11046
1.12257
1.13506
1.14699
1.15888
1.17057
1.18206
1.19386
1.20555
1.21767
1.23011
1.24201
1.25413
1.26526
1.27622
1.28551
1.29292
1.29772
1.30046
1.30201
1.30312
1.30265
1.30049
1.29559
1.28764
1.27549
1.25864
1.23629
1.20751
1.17094
1.12725
1.07597
1.01754
0.951941
0.890366
0.833799
0.782994
0.736906
0.695506
0.657862
0.623713
0.593097
0.565799
0.540525
0.516707
0.494353
0.475601
0.457621
0.440279
0.425585
0.412129
0.398887
0.387224
0.376812
0.366518
0.356646
0.346274
0.335465
0.323993
0.31089
0.296369
0.279507
0.261591
0.242892
0.22456
0.206136
0.189621
0.175886
0.162064
0.150464
1.00446
1.00398
1.00401
1.00399
1.00395
1.00387
1.00374
1.00354
1.00326
1.00291
1.00245
1.00187
1.00114
1.00028
0.999269
0.998082
0.996687
0.995114
0.993308
0.991367
0.989261
0.98691
0.984319
0.98151
0.97857
0.9755
0.97244
0.969242
0.965724
0.962059
0.958255
0.954389
0.951441
0.949042
0.946972
0.949333
0.954006
0.964795
0.980285
0.995587
1.01006
1.02195
1.03422
1.04586
1.05709
1.06825
1.08017
1.09192
1.10421
1.11706
1.12988
1.14304
1.15625
1.16964
1.18299
1.19661
1.20999
1.22372
1.23774
1.25213
1.2654
1.27723
1.28696
1.2947
1.3
1.30397
1.30553
1.30653
1.3056
1.30177
1.29464
1.28359
1.26801
1.24703
1.21918
1.18377
1.14042
1.08868
1.03039
0.965261
0.90414
0.849419
0.800545
0.756615
0.717653
0.682139
0.650395
0.622046
0.595956
0.572401
0.550476
0.529003
0.510404
0.493691
0.476142
0.460309
0.446925
0.432738
0.420111
0.409432
0.398159
0.387671
0.378599
0.36952
0.360362
0.35037
0.339949
0.328649
0.31579
0.301611
0.28504
0.267577
0.249794
0.232323
0.214945
0.19953
0.186794
0.174244
0.164045
1.00456
1.00407
1.00411
1.0041
1.00407
1.00401
1.0039
1.00372
1.00347
1.00315
1.00273
1.00219
1.00152
1.00069
0.99972
0.998599
0.99728
0.995775
0.994037
0.992125
0.990076
0.987824
0.985293
0.982566
0.97962
0.976581
0.97349
0.970345
0.966925
0.963278
0.959396
0.955488
0.952524
0.950139
0.947886
0.952513
0.959089
0.972722
0.98912
1.00512
1.01999
1.03189
1.04435
1.0562
1.06786
1.07957
1.09224
1.10481
1.11813
1.13197
1.14576
1.16008
1.17458
1.18924
1.2043
1.21948
1.23471
1.25032
1.26544
1.27914
1.29037
1.29878
1.30475
1.30795
1.3098
1.31067
1.30916
1.30443
1.2959
1.28257
1.26296
1.23662
1.20223
1.16008
1.10795
1.04935
0.9845
0.922538
0.867925
0.819821
0.776893
0.739093
0.705101
0.674869
0.648018
0.623254
0.600875
0.580408
0.56102
0.542269
0.526622
0.510948
0.494823
0.481496
0.467923
0.454378
0.443151
0.431492
0.419937
0.410652
0.401078
0.391132
0.382398
0.374026
0.365068
0.35507
0.344638
0.333327
0.320652
0.306746
0.291091
0.274563
0.257767
0.241098
0.224713
0.210317
0.198586
0.187193
0.178243
1.00466
1.00417
1.00422
1.00422
1.0042
1.00415
1.00407
1.00392
1.00371
1.00342
1.00303
1.00254
1.00193
1.00115
1.00024
0.99918
0.997945
0.996509
0.994865
0.992985
0.99098
0.988823
0.986397
0.983755
0.980848
0.977804
0.974692
0.971538
0.96828
0.964786
0.960947
0.957175
0.954319
0.952145
0.949934
0.955783
0.96243
0.97546
0.991384
1.00765
1.02271
1.03498
1.04833
1.06111
1.07383
1.08662
1.1004
1.1145
1.12964
1.14556
1.16202
1.17922
1.19718
1.21521
1.23369
1.25164
1.2684
1.28353
1.29611
1.30564
1.31224
1.3154
1.31658
1.31669
1.31464
1.30849
1.29749
1.2807
1.25777
1.22693
1.1864
1.13582
1.07663
1.01226
0.946452
0.890476
0.842368
0.800075
0.7626
0.729172
0.699713
0.67382
0.650092
0.628314
0.608772
0.590205
0.572551
0.55711
0.543177
0.52802
0.513757
0.502112
0.488771
0.476848
0.466252
0.454062
0.443735
0.434279
0.423284
0.414159
0.405951
0.396422
0.387484
0.379473
0.370603
0.360484
0.349911
0.338652
0.326183
0.312422
0.297879
0.282123
0.266185
0.250252
0.234718
0.221278
0.210528
0.200289
0.192604
1.00478
1.00428
1.00434
1.00435
1.00435
1.00432
1.00426
1.00414
1.00397
1.00371
1.00337
1.00293
1.00238
1.00166
1.00081
0.999826
0.998687
0.997331
0.995784
0.993981
0.992018
0.989935
0.98765
0.98508
0.982274
0.979236
0.976124
0.972916
0.969765
0.966511
0.962844
0.959439
0.956778
0.954653
0.951249
0.951852
0.955025
0.966458
0.983244
1.00065
1.01691
1.03139
1.04697
1.06253
1.0777
1.0932
1.10983
1.12717
1.14556
1.1647
1.18462
1.20555
1.22723
1.24861
1.26951
1.28776
1.3025
1.31347
1.32048
1.32415
1.3262
1.32627
1.32203
1.31372
1.30041
1.28084
1.25255
1.21452
1.16793
1.11062
1.04722
0.977185
0.917319
0.867313
0.824467
0.786359
0.753827
0.72511
0.700053
0.676981
0.655967
0.637045
0.619262
0.602102
0.58686
0.573463
0.559249
0.545242
0.534245
0.522463
0.509521
0.499529
0.488466
0.477096
0.468351
0.457782
0.447488
0.439411
0.429339
0.419773
0.411999
0.402836
0.393331
0.385242
0.376277
0.365896
0.354959
0.343711
0.331471
0.318021
0.30479
0.290104
0.275438
0.260564
0.245951
0.233429
0.223437
0.214218
0.207585
1.0049
1.00439
1.00446
1.0045
1.00451
1.0045
1.00446
1.00438
1.00424
1.00403
1.00374
1.00336
1.00287
1.00223
1.00145
1.00055
0.999499
0.998249
0.99679
0.995116
0.993233
0.991207
0.989041
0.986589
0.983876
0.980915
0.977799
0.974615
0.971476
0.968357
0.964978
0.961961
0.95927
0.956587
0.951598
0.947642
0.945674
0.952007
0.970631
0.990839
1.01093
1.03025
1.05044
1.07038
1.08953
1.1093
1.13027
1.15214
1.17522
1.19906
1.2241
1.24973
1.27417
1.29504
1.31341
1.32534
1.33306
1.33571
1.33684
1.33673
1.33217
1.3227
1.30511
1.281
1.24696
1.20413
1.14776
1.0837
1.01296
0.946783
0.893131
0.848508
0.809464
0.776601
0.748231
0.723198
0.70097
0.68168
0.664197
0.647325
0.631104
0.616407
0.603527
0.589919
0.576254
0.565084
0.554067
0.541299
0.531474
0.52194
0.509847
0.500854
0.491682
0.480492
0.472469
0.463475
0.452869
0.445171
0.435973
0.425835
0.41803
0.409322
0.399281
0.391194
0.382297
0.371878
0.360846
0.349881
0.338233
0.325283
0.313087
0.299173
0.285446
0.27118
0.257231
0.245556
0.236216
0.228069
0.222523
1.00504
1.00451
1.0046
1.00465
1.0047
1.00471
1.00469
1.00464
1.00455
1.00438
1.00414
1.00384
1.00341
1.00287
1.00216
1.00135
1.00039
0.999252
0.99791
0.996382
0.9946
0.992644
0.990563
0.988273
0.985646
0.982834
0.979739
0.976589
0.973465
0.970374
0.967141
0.96428
0.96156
0.958576
0.953212
0.946541
0.939802
0.944186
0.964571
0.988366
1.01317
1.03811
1.06384
1.08896
1.11303
1.13789
1.16382
1.19065
1.21821
1.24653
1.27452
1.29956
1.31956
1.3339
1.34432
1.34752
1.35004
1.34907
1.34356
1.33091
1.31057
1.28077
1.23984
1.18855
1.12552
1.05854
0.981467
0.92131
0.871757
0.830009
0.795058
0.766137
0.741414
0.720087
0.701513
0.685061
0.669333
0.655124
0.643018
0.630773
0.618367
0.60573
0.595448
0.585034
0.573004
0.563029
0.553525
0.541827
0.532778
0.524265
0.512888
0.504361
0.496318
0.485416
0.477738
0.469735
0.459044
0.451469
0.443056
0.432555
0.424791
0.416393
0.406008
0.397864
0.38888
0.378287
0.367005
0.356113
0.344751
0.332243
0.320948
0.30799
0.295594
0.282489
0.269883
0.259022
0.25024
0.24299
0.238296
1.00518
1.00464
1.00474
1.00482
1.00489
1.00493
1.00495
1.00494
1.00488
1.00477
1.0046
1.00436
1.00401
1.00356
1.00295
1.00224
1.00138
1.00037
0.999179
0.997781
0.996151
0.994296
0.99228
0.990136
0.987675
0.984964
0.981973
0.978819
0.975623
0.972516
0.969293
0.966349
0.9636
0.960475
0.955781
0.948249
0.941197
0.946953
0.970868
0.998683
1.02888
1.05893
1.08917
1.11883
1.1475
1.17801
1.21006
1.24294
1.27463
1.30265
1.32492
1.34133
1.35085
1.35489
1.35784
1.35835
1.35313
1.33787
1.31243
1.27503
1.22862
1.16611
1.09628
1.01784
0.947296
0.892398
0.848175
0.809782
0.779436
0.753734
0.732318
0.714085
0.698096
0.684263
0.671739
0.660528
0.64945
0.638553
0.629273
0.620393
0.611181
0.600585
0.591893
0.583422
0.572889
0.564092
0.555423
0.544527
0.535928
0.527898
0.517032
0.508883
0.5013
0.490723
0.483316
0.475794
0.465139
0.457772
0.449727
0.439117
0.431372
0.423217
0.412656
0.404556
0.395625
0.385024
0.3738
0.363423
0.352676
0.340895
0.330458
0.318321
0.30697
0.294746
0.282832
0.272237
0.263793
0.257547
0.253724
1.00533
1.00479
1.00489
1.005
1.0051
1.00518
1.00523
1.00526
1.00525
1.00519
1.00509
1.00492
1.00467
1.00431
1.00384
1.00322
1.0025
1.00162
1.00058
0.999332
0.997865
0.996175
0.994264
0.992219
0.989958
0.987343
0.984487
0.981378
0.978105
0.974887
0.971528
0.968415
0.965645
0.96257
0.958999
0.953308
0.949901
0.956084
0.98562
1.01756
1.05326
1.0893
1.12548
1.16202
1.19784
1.23506
1.27085
1.30283
1.32754
1.34762
1.35771
1.36268
1.36516
1.36621
1.35871
1.34097
1.30942
1.26605
1.20967
1.13883
1.06383
0.97992
0.916987
0.865872
0.823395
0.789145
0.761818
0.739325
0.720542
0.705041
0.69142
0.679761
0.669333
0.65967
0.651479
0.643592
0.63581
0.62732
0.620157
0.613343
0.606401
0.597625
0.590568
0.583332
0.573965
0.56626
0.558356
0.548142
0.540049
0.532293
0.521777
0.513973
0.506586
0.496245
0.489075
0.481911
0.471486
0.464345
0.456708
0.44627
0.438592
0.430718
0.420127
0.412101
0.403271
0.392544
0.381249
0.37116
0.360745
0.349421
0.339667
0.328318
0.318062
0.307057
0.296144
0.286119
0.27834
0.273075
0.269894
1.0055
1.00494
1.00506
1.00519
1.00532
1.00544
1.00554
1.00561
1.00565
1.00565
1.00562
1.00553
1.00538
1.00513
1.00479
1.00431
1.00372
1.003
1.0021
1.00103
0.999754
0.998265
0.996521
0.994571
0.992472
0.990063
0.987296
0.984277
0.980977
0.977546
0.973951
0.97067
0.967916
0.965377
0.963714
0.961676
0.963881
0.976066
1.01349
1.05272
1.09377
1.13729
1.18053
1.22345
1.2607
1.29341
1.32086
1.34426
1.35651
1.36507
1.36748
1.37045
1.36061
1.34022
1.30147
1.25207
1.18141
1.10479
1.01562
0.939824
0.881373
0.835842
0.796948
0.767233
0.742745
0.722875
0.707129
0.693684
0.682426
0.672551
0.663983
0.655974
0.649097
0.642131
0.636158
0.63061
0.62518
0.618817
0.613057
0.607849
0.602631
0.595334
0.589755
0.58362
0.575177
0.568451
0.561462
0.551948
0.544461
0.537042
0.526831
0.51918
0.511951
0.501789
0.494654
0.487888
0.477789
0.47055
0.463393
0.453225
0.445525
0.437867
0.427275
0.418982
0.410571
0.400236
0.389239
0.379969
0.370403
0.35987
0.350902
0.340235
0.330645
0.320401
0.309753
0.300219
0.292615
0.287977
0.285389
1.00569
1.00511
1.00524
1.00539
1.00555
1.00571
1.00585
1.00599
1.0061
1.00617
1.0062
1.0062
1.00615
1.00603
1.00581
1.0055
1.00506
1.00451
1.00379
1.0029
1.00186
1.00058
0.999066
0.997273
0.995309
0.993122
0.990517
0.987592
0.984325
0.980755
0.976806
0.973346
0.970498
0.968644
0.968721
0.973861
0.990672
1.0163
1.06238
1.11274
1.15935
1.20888
1.253
1.28882
1.31619
1.33664
1.35088
1.35886
1.36244
1.36529
1.35605
1.33132
1.28985
1.23035
1.15158
1.0654
0.971295
0.902569
0.848133
0.803999
0.769687
0.742945
0.721585
0.704615
0.691057
0.679776
0.67058
0.66277
0.656054
0.650088
0.64479
0.639539
0.634696
0.629653
0.625112
0.620603
0.616747
0.612001
0.607303
0.603319
0.599513
0.593357
0.589103
0.584059
0.576469
0.570687
0.564558
0.555756
0.54885
0.542037
0.532264
0.524393
0.517432
0.507783
0.500177
0.493882
0.484603
0.476959
0.470486
0.461013
0.453138
0.445968
0.435688
0.426859
0.418908
0.409272
0.398482
0.389641
0.38043
0.370153
0.36163
0.351392
0.342347
0.332934
0.323104
0.31453
0.307609
0.303674
0.301544
1.00589
1.0053
1.00544
1.0056
1.00579
1.00599
1.00618
1.00638
1.00656
1.00673
1.00685
1.00695
1.007
1.007
1.00693
1.00679
1.00653
1.00616
1.00567
1.005
1.00418
1.00316
1.00189
1.00035
0.998567
0.996585
0.994261
0.99146
0.988261
0.984675
0.980443
0.976938
0.974159
0.973408
0.97481
0.988425
1.02479
1.07101
1.13026
1.19319
1.24788
1.29078
1.32416
1.34516
1.35513
1.36044
1.36331
1.36384
1.35386
1.32384
1.27862
1.20667
1.12054
1.01885
0.930346
0.864825
0.815997
0.775565
0.74547
0.721284
0.702056
0.687217
0.674959
0.665368
0.657452
0.65088
0.645434
0.640683
0.636651
0.632892
0.629672
0.626453
0.623539
0.620065
0.616708
0.613257
0.610067
0.60673
0.602895
0.599702
0.596871
0.591629
0.588254
0.584315
0.577571
0.57266
0.567471
0.559551
0.552773
0.546605
0.537795
0.529302
0.522544
0.514011
0.505697
0.499525
0.491705
0.483547
0.477437
0.469165
0.460772
0.45397
0.444328
0.434647
0.427095
0.418258
0.407808
0.39968
0.391178
0.381601
0.373856
0.364293
0.355659
0.346652
0.337224
0.329291
0.322614
0.318779
0.317132
1.0061
1.0055
1.00565
1.00584
1.00606
1.00629
1.00654
1.00679
1.00706
1.00731
1.00754
1.00775
1.00793
1.00808
1.00816
1.00818
1.00813
1.00798
1.00772
1.00731
1.00674
1.00601
1.00504
1.00383
1.00233
1.00056
0.998515
0.996045
0.993025
0.989497
0.985424
0.982355
0.980308
0.981622
0.989375
1.0134
1.06364
1.12991
1.19922
1.26172
1.30956
1.34288
1.35909
1.36575
1.37007
1.36866
1.35595
1.32405
1.27333
1.19068
1.09422
0.983389
0.898404
0.836118
0.788583
0.752674
0.724929
0.703424
0.686132
0.672867
0.662206
0.653912
0.647149
0.641605
0.637041
0.63315
0.629843
0.626915
0.624292
0.621788
0.619442
0.617146
0.615004
0.612785
0.61034
0.607861
0.605249
0.602687
0.59979
0.597092
0.594974
0.590663
0.58771
0.584714
0.578834
0.574202
0.56989
0.563397
0.556653
0.550898
0.543563
0.534855
0.52811
0.520847
0.512198
0.505967
0.499376
0.490995
0.485108
0.47778
0.469063
0.462514
0.454132
0.44402
0.436864
0.42862
0.418337
0.41061
0.402445
0.393076
0.385678
0.376345
0.367962
0.359448
0.350995
0.343504
0.337689
0.334039
0.333397
1.00634
1.00571
1.00589
1.00609
1.00635
1.00662
1.00692
1.00723
1.00758
1.00793
1.00827
1.00859
1.00893
1.00924
1.00951
1.00972
1.00989
1.00996
1.00994
1.00984
1.00959
1.00917
1.00857
1.00773
1.00661
1.00519
1.00345
1.00143
0.99892
0.995732
0.992593
0.990705
0.990495
0.99539
1.01309
1.04637
1.10497
1.17093
1.23068
1.28452
1.31945
1.33692
1.34556
1.34929
1.34098
1.31045
1.25755
1.1702
1.06734
0.951935
0.870127
0.812166
0.767434
0.734425
0.708661
0.689721
0.67525
0.664289
0.655536
0.648397
0.642518
0.637642
0.633537
0.630018
0.626803
0.62418
0.621665
0.619603
0.617473
0.615633
0.613611
0.611935
0.609984
0.608234
0.60632
0.604288
0.602275
0.599946
0.597623
0.59524
0.593502
0.590081
0.587365
0.585083
0.580465
0.575941
0.572133
0.567127
0.560953
0.555624
0.549237
0.540733
0.53404
0.527571
0.518954
0.512655
0.506682
0.498279
0.492517
0.48611
0.47729
0.470893
0.463261
0.452986
0.446057
0.438303
0.428328
0.421218
0.413767
0.405083
0.398422
0.389783
0.38192
0.373854
0.365818
0.358468
0.353102
0.349394
0.34957
1.00659
1.00595
1.00613
1.00637
1.00666
1.00698
1.00733
1.00771
1.00814
1.00858
1.00904
1.00949
1.00997
1.01047
1.01094
1.01138
1.01177
1.01214
1.01243
1.01263
1.01273
1.01267
1.01249
1.01211
1.01147
1.01052
1.00932
1.0078
1.00587
1.00379
1.00247
1.00261
1.00569
1.01659
1.04501
1.09101
1.14397
1.18896
1.23287
1.26136
1.27756
1.28594
1.28559
1.26406
1.22037
1.1439
1.04173
0.929431
0.850565
0.795063
0.752307
0.721891
0.699677
0.683389
0.67082
0.661054
0.653335
0.647221
0.642195
0.637912
0.634093
0.630773
0.627664
0.625262
0.622672
0.620854
0.618698
0.617056
0.615115
0.613532
0.611603
0.610016
0.608263
0.606477
0.604901
0.602895
0.601229
0.599066
0.59692
0.594691
0.592896
0.590212
0.58761
0.585501
0.58231
0.578273
0.574899
0.571064
0.565792
0.561025
0.555215
0.547124
0.540833
0.534713
0.526319
0.520102
0.514253
0.505863
0.500135
0.494419
0.486097
0.479779
0.472877
0.463014
0.456606
0.44941
0.439765
0.433087
0.426015
0.417555
0.411261
0.402798
0.395009
0.387145
0.380089
0.373046
0.368516
0.365074
0.366041
1.00687
1.0062
1.0064
1.00666
1.00698
1.00736
1.00777
1.00823
1.00872
1.00928
1.00985
1.01045
1.01107
1.01177
1.01246
1.01314
1.0138
1.01447
1.01514