/*--------------------------------*- C++ -*----------------------------------*\
| =========                 |                                                 |
| \\      /  F ield         | OpenFOAM: The Open Source CFD Toolbox           |
|  \\    /   O peration     | Version:  2.2.x                                 |
|   \\  /    A nd           | Web:      www.OpenFOAM.org                      |
|    \\/     M anipulation  |                                                 |
\*---------------------------------------------------------------------------*/
FoamFile
{
    version     2.0;
    format      ascii;
    class       surfaceScalarField;
    location    "1.8";
    object      cfmax;
}
// * * * * * * * * * * * * * * * * * * * * * * * * * * * * * * * * * * * * * //

dimensions      [0 3 -1 0 0 0 0];

internalField   nonuniform List<scalar> 
28084
(
0.00124558
0.00124012
0.00123549
0.00123159
0.00122838
0.00122583
0.00122388
0.00122249
0.00122161
0.00122116
0.00122111
0.00122138
0.00122192
0.00122266
0.00122354
0.00122451
0.00122552
0.00122648
0.00122736
0.00122811
0.00122872
0.00122913
0.00122929
0.00122919
0.00122882
0.00122819
0.00122727
0.00122602
0.00122448
0.00122268
0.00122062
0.00121822
0.0012155
0.00121249
0.00120926
0.00120586
0.00120212
0.00119751
0.00119028
0.00117203
0.00111224
0.000905241
0.000822248
0.000802236
0.00080213
0.000817364
0.000834838
0.000853047
0.000869811
0.000885715
0.000901013
0.000916133
0.000931364
0.000946011
0.000960402
0.000974586
0.000988647
0.00100257
0.00101584
0.00102868
0.00104126
0.00105348
0.00106554
0.00107673
0.00108727
0.00109752
0.0011072
0.00111567
0.00112405
0.00113146
0.00113833
0.00114494
0.0011504
0.00115535
0.00115974
0.00116339
0.00116632
0.00116857
0.00116964
0.00117076
0.00117073
0.00117022
0.00116894
0.00116699
0.0011648
0.00116342
0.00116566
0.00116795
0.00116998
0.00117171
0.00117443
0.00117688
0.00117878
0.00118021
0.00118014
0.00117888
0.00117837
0.00117437
0.00116947
0.00116259
0.00114904
0.00112343
0.00108149
0.00104058
0.00100334
0.000956245
0.000918077
0.000889098
0.000870062
0.0008576
0.000849644
0.000846005
0.000845301
0.000846757
0.000849075
0.000851066
0.000850624
0.000854196
0.00289253
0.00288784
0.00125145
0.00287722
0.0012498
0.00286056
0.00124892
0.002838
0.00124874
0.00280972
0.0012492
0.00277596
0.00125027
0.00273697
0.00125191
0.00269304
0.00125406
0.00264451
0.00125667
0.00259194
0.00125967
0.00253577
0.00126302
0.00247606
0.00126663
0.00241321
0.00127044
0.00234762
0.0012744
0.00227971
0.00127842
0.00220987
0.00128245
0.00213849
0.00128644
0.00206596
0.00129031
0.00199269
0.00129397
0.00191901
0.00129742
0.00184524
0.00130062
0.0017717
0.00130352
0.00169873
0.00130607
0.00162655
0.00130823
0.00155542
0.00131001
0.00148555
0.00131142
0.00141715
0.00131241
0.0013504
0.00131297
0.00128542
0.00131313
0.00122229
0.0013129
0.0011611
0.00131231
0.00110196
0.00131129
0.00104495
0.00130984
0.0009901
0.00130798
0.000937395
0.00130581
0.00088676
0.00130338
0.000838613
0.00130049
0.000792582
0.00129662
0.000747665
0.00129077
0.00069822
0.00127371
0.000649961
0.00121676
0.000638812
0.000986422
0.000617442
0.000898357
0.000591331
0.000876506
0.000601423
0.000875971
0.00060276
0.000890015
0.000603676
0.000906391
0.000605044
0.000923936
0.000606415
0.000940118
0.000608024
0.000955543
0.000609804
0.000970497
0.000611758
0.000985133
0.00061363
0.000999833
0.0006155
0.00101391
0.000617378
0.00102768
0.000619363
0.0010413
0.000621299
0.00105468
0.000623017
0.00106781
0.000624796
0.00108029
0.000626819
0.00109225
0.000629068
0.00110403
0.000631307
0.00111542
0.000633396
0.00112664
0.000635688
0.00113701
0.000638354
0.00114668
0.000641195
0.00115604
0.000644057
0.00116471
0.000647009
0.00117225
0.000650051
0.00117968
0.000653501
0.00118626
0.000657185
0.00119234
0.000660947
0.00119812
0.000664775
0.00120263
0.000668849
0.00120646
0.000673032
0.00120996
0.000677354
0.00121266
0.000681806
0.00121465
0.000686449
0.00121596
0.00069138
0.00121602
0.000696415
0.00121618
0.000701756
0.0012152
0.000707624
0.00121383
0.000713892
0.00121184
0.000720528
0.00120925
0.000727337
0.00120654
0.000734331
0.00120445
0.000741263
0.00120538
0.000747953
0.00120703
0.000754784
0.00120908
0.000761864
0.00121063
0.000769301
0.00121216
0.00077723
0.00121253
0.000785442
0.00121227
0.000793302
0.0012121
0.000801103
0.0012103
0.000808102
0.00120695
0.000814267
0.00120405
0.000819949
0.00119642
0.000825148
0.00118599
0.000829276
0.00117073
0.000831449
0.00114628
0.000831232
0.0011109
0.000827827
0.00107741
0.000820577
0.00104373
0.000808301
0.00100127
0.000790048
0.000955795
0.000774734
0.00091775
0.000763143
0.000889622
0.000755265
0.000869878
0.000750571
0.000856305
0.00074842
0.000847368
0.000749238
0.000842626
0.000752767
0.000840797
0.000759167
0.000841252
0.000767171
0.000842433
0.00077668
0.000844199
0.000783545
0.000844221
0.000804626
0.000847767
0.00289369
0.00288855
0.00125929
0.0028775
0.00126139
0.00286042
0.00126423
0.00283747
0.00126771
0.00280882
0.00127179
0.00277471
0.00127645
0.00273647
0.00128163
0.0026935
0.00128729
0.00264584
0.00129335
0.00259385
0.00129977
0.0025379
0.00130647
0.00247839
0.00131339
0.0024157
0.00132045
0.00235024
0.00132758
0.00228242
0.00133471
0.00221266
0.00134178
0.00214133
0.00134871
0.00206882
0.00135543
0.00199555
0.00136186
0.00192183
0.00136798
0.00184802
0.00137375
0.00177443
0.00137912
0.00170137
0.001384
0.00162909
0.0013884
0.00155784
0.00139232
0.00148785
0.00139573
0.00141933
0.00139862
0.00135243
0.00140096
0.00128729
0.0014028
0.001224
0.00140413
0.00116264
0.00140501
0.00110333
0.00140536
0.00104615
0.00140517
0.000991121
0.00140447
0.000938258
0.00140337
0.000887463
0.00140191
0.000839327
0.00139988
0.000793508
0.00139715
0.000749614
0.00139209
0.000701656
0.00137684
0.000655477
0.00132425
0.000646755
0.00107389
0.000625967
0.000975585
0.000597807
0.000951428
0.000610563
0.000950397
0.000610601
0.000963029
0.000610551
0.000978125
0.000611373
0.000994254
0.000612482
0.00100939
0.000613931
0.00102401
0.000615593
0.00103843
0.000617563
0.00105252
0.000619364
0.00106655
0.000621163
0.00108008
0.000623099
0.00109335
0.000625144
0.00110661
0.000627095
0.00111947
0.000628658
0.00113194
0.00063028
0.00114383
0.000632294
0.0011553
0.000634617
0.00116662
0.000636822
0.00117736
0.000638732
0.00118762
0.000640761
0.00119726
0.000643257
0.00120612
0.000646063
0.00121461
0.000648732
0.00122241
0.000651376
0.00122909
0.000654119
0.00123562
0.000657277
0.00124137
0.000660766
0.00124666
0.000664308
0.00125152
0.000667855
0.00125501
0.000671577
0.00125761
0.000675352
0.00126018
0.000679292
0.00126203
0.000683427
0.00126331
0.000687794
0.00126381
0.000692341
0.00126285
0.000696926
0.00126202
0.000703302
0.00126018
0.000709582
0.00125802
0.000716265
0.00125541
0.000723417
0.00125232
0.000730781
0.00124956
0.000738366
0.00124821
0.000745873
0.00124914
0.000752865
0.00125064
0.000759668
0.00125233
0.000766492
0.001253
0.000774041
0.00125238
0.000781438
0.00125001
0.000788677
0.0012464
0.000796344
0.00124155
0.000803649
0.00123501
0.000809799
0.00122819
0.000814996
0.00121837
0.000819217
0.00120319
0.000822442
0.00118221
0.000824582
0.00115438
0.000825732
0.00112295
0.000825274
0.00108982
0.000824909
0.00105223
0.000823246
0.00100821
0.000821596
0.000967989
0.000813186
0.000934365
0.000797934
0.000905838
0.000784622
0.000882751
0.000774911
0.000865737
0.000768619
0.000853207
0.000765387
0.000844224
0.000766369
0.000838723
0.000770875
0.000835733
0.000780557
0.000835302
0.00078999
0.000836612
0.000802448
0.000839214
0.000811554
0.000839809
0.000836549
0.000845361
0.0028926
0.00288705
0.00126911
0.00287559
0.00127491
0.00285813
0.0012814
0.00283645
0.00128849
0.0028097
0.00129615
0.00277737
0.00130435
0.00273971
0.00131303
0.00269701
0.00132213
0.0026496
0.00133161
0.00259783
0.0013414
0.00254207
0.00135142
0.00248271
0.0013616
0.00242014
0.00137186
0.00235478
0.00138213
0.00228703
0.00139234
0.0022173
0.0014024
0.00214597
0.00141224
0.00207343
0.00142178
0.0020001
0.00143095
0.0019263
0.00143971
0.00185242
0.00144801
0.0017787
0.0014558
0.0017055
0.001463
0.00163306
0.00146961
0.00156164
0.00147564
0.00149147
0.00148105
0.00142275
0.00148579
0.00135565
0.00148988
0.00129029
0.00149338
0.00122678
0.00149625
0.0011652
0.00149859
0.00110567
0.00150032
0.00104826
0.0015014
0.000993024
0.00150185
0.000939937
0.00150184
0.000889005
0.00150133
0.000840818
0.00150011
0.000795481
0.00149782
0.000753401
0.00149265
0.000711711
0.00147483
0.000671389
0.0014156
0.000662509
0.00115408
0.000638124
0.00104958
0.000607173
0.00102461
0.000621633
0.00102298
0.000619849
0.00103496
0.000618313
0.00104887
0.000618109
0.00106389
0.000618547
0.00107809
0.000619599
0.00109185
0.000621129
0.00110545
0.000622801
0.00111871
0.000624471
0.00113184
0.000626234
0.00114479
0.000628333
0.00115763
0.000630547
0.00117059
0.000632476
0.00118302
0.000634015
0.00119499
0.000635738
0.00120656
0.000638043
0.00121776
0.000640481
0.00122873
0.000642522
0.00123888
0.000644155
0.0012482
0.000645903
0.00125694
0.000648278
0.00126502
0.000650927
0.00127266
0.000653429
0.00127996
0.00065572
0.00128588
0.000658141
0.00129157
0.00066103
0.00129658
0.000664299
0.00130104
0.000667583
0.00130503
0.000670879
0.00130771
0.000674396
0.00130919
0.000677984
0.00131081
0.000681776
0.00131182
0.000685745
0.00131237
0.000689738
0.00131187
0.000693797
0.00131016
0.000699411
0.00130845
0.000706307
0.00130583
0.000712999
0.00130309
0.000720126
0.00129984
0.000727824
0.0012971
0.000735757
0.00129589
0.000743979
0.00129651
0.000752076
0.00129766
0.000759471
0.00129773
0.000765933
0.00129667
0.000772346
0.00129347
0.00077885
0.00128905
0.000785857
0.00128306
0.000792743
0.00127469
0.000799203
0.00126496
0.000805348
0.00125257
0.000809993
0.00123593
0.000813726
0.00121401
0.000815796
0.00118649
0.000816717
0.00115615
0.000816928
0.00112392
0.000816842
0.00108544
0.000817713
0.00104048
0.000820682
0.000995066
0.000827484
0.000954771
0.000835574
0.000924807
0.000833913
0.000903592
0.000819871
0.000886805
0.000806094
0.00087037
0.00079594
0.000857403
0.000789266
0.000847324
0.000785509
0.000839718
0.000786371
0.000834386
0.000791309
0.000831448
0.000801353
0.000831038
0.000811894
0.000832433
0.000826662
0.000835581
0.000837379
0.000836808
0.000863559
0.000844706
0.0028893
0.00288458
0.00128089
0.00287609
0.00129034
0.00286148
0.00130043
0.00284089
0.00131108
0.00281447
0.00132226
0.00278245
0.00133393
0.00274507
0.00134605
0.00270263
0.00135857
0.00265544
0.00137141
0.00260386
0.00138452
0.00254826
0.00139781
0.00248902
0.0014112
0.00242654
0.00142463
0.00236123
0.001438
0.0022935
0.00145123
0.00222376
0.00146425
0.00215239
0.00147695
0.00207978
0.00148927
0.00200633
0.00150115
0.00193242
0.00151252
0.00185838
0.00152331
0.0017845
0.00153347
0.00171109
0.00154297
0.00163843
0.00155178
0.00156678
0.00155988
0.00149639
0.00156725
0.00142741
0.00157381
0.00136003
0.00157964
0.00129441
0.00158477
0.00123063
0.00158917
0.00116877
0.00159298
0.00110898
0.00159607
0.0010513
0.00159843
0.000995797
0.00160007
0.000942436
0.00160115
0.000891257
0.00160164
0.000842928
0.00160131
0.000797959
0.00159966
0.000757007
0.00159454
0.000721281
0.0015741
0.000689526
0.00150536
0.000677987
0.0012339
0.000651242
0.0011212
0.000616736
0.00109409
0.000631735
0.00109188
0.000627955
0.0011032
0.000625714
0.00111655
0.000624956
0.00113102
0.000625008
0.00114459
0.000625659
0.00115767
0.000626811
0.00117059
0.00062819
0.00118323
0.000629729
0.00119583
0.00063157
0.00120846
0.000633846
0.00122122
0.000636194
0.00123386
0.000638065
0.0012459
0.000639607
0.00125741
0.000641413
0.0012687
0.000643783
0.00127965
0.000646128
0.00129003
0.000647855
0.00129955
0.000649335
0.00130798
0.000650985
0.00131595
0.000653312
0.00132349
0.000656017
0.00133034
0.000658425
0.00133684
0.00066042
0.00134227
0.000662575
0.00134716
0.000665323
0.00135154
0.000668437
0.00135509
0.000671427
0.00135814
0.000674336
0.00136047
0.000677511
0.00136146
0.000680969
0.00136235
0.00068471
0.0013627
0.000688639
0.00136268
0.000692445
0.00136131
0.000696048
0.00135898
0.000703517
0.00135688
0.000711072
0.0013539
0.000718305
0.00135072
0.000725962
0.00134717
0.00073437
0.00134563
0.000742943
0.00134606
0.000751325
0.00134575
0.000759547
0.00134405
0.000766509
0.00134027
0.000772313
0.00133516
0.000778224
0.00132831
0.000784765
0.00131982
0.000790878
0.00130946
0.000796712
0.00129544
0.000801679
0.00127684
0.00080575
0.00125387
0.000808532
0.00122634
0.000809669
0.00119577
0.000808934
0.00116224
0.000807176
0.00112229
0.000803533
0.00107477
0.000803547
0.00102555
0.000814565
0.00097905
0.000825885
0.000941886
0.000834585
0.000913653
0.00084034
0.000893065
0.000839217
0.000879284
0.000830492
0.000868569
0.000819932
0.000859001
0.000811076
0.000849603
0.00080554
0.000841755
0.000802954
0.000835643
0.000804616
0.000831099
0.000809527
0.000828201
0.000821148
0.000827991
0.000832593
0.000829884
0.000849256
0.00083345
0.000861274
0.000835979
0.000887478
0.000845458
0.00289231
0.00289018
0.00129466
0.00288204
0.00130768
0.00286777
0.0013213
0.0028475
0.00133545
0.00282139
0.00135009
0.00278966
0.00136518
0.00275254
0.00138069
0.00271033
0.00139656
0.00266334
0.00141271
0.00261193
0.00142908
0.00255645
0.00144559
0.0024973
0.00146215
0.00243488
0.00147869
0.0023696
0.0014951
0.00230185
0.00151132
0.00223205
0.00152723
0.00216059
0.00154277
0.00208786
0.00155784
0.00201427
0.00157238
0.00194018
0.0015863
0.00186592
0.00159954
0.00179181
0.00161206
0.00171814
0.00162383
0.00164524
0.0016348
0.00157331
0.00164495
0.00150261
0.00165423
0.0014333
0.00166259
0.0013656
0.00167013
0.00129966
0.00167685
0.00123555
0.00168281
0.00117339
0.00168807
0.0011133
0.0016925
0.00105528
0.00169616
0.000999456
0.00169902
0.000945769
0.00170121
0.000894337
0.00170275
0.000845853
0.00170337
0.000801099
0.00170257
0.000761341
0.00169814
0.000729999
0.00167662
0.000702539
0.00160335
0.000690659
0.00131549
0.000662256
0.00119269
0.000624437
0.00116265
0.000640661
0.00115871
0.000635416
0.00116801
0.000632243
0.00118026
0.000630882
0.00119383
0.000630539
0.00120704
0.000630893
0.00122003
0.000631978
0.00123294
0.000633492
0.0012458
0.00063525
0.00125862
0.000637491
0.0012715
0.000639947
0.00128422
0.000642228
0.00129624
0.000644001
0.00130791
0.000645675
0.00131915
0.000647644
0.0013302
0.000649874
0.00134084
0.000651908
0.00135034
0.000653491
0.00135918
0.000654969
0.00136734
0.000656727
0.00137506
0.000658995
0.00138268
0.000661524
0.00138903
0.000663681
0.00139466
0.000665456
0.00139974
0.000667411
0.00140411
0.000669965
0.00140807
0.000673047
0.00141106
0.000676092
0.00141296
0.000678817
0.00141477
0.000681654
0.00141566
0.000684899
0.00141618
0.00068872
0.0014162
0.000692707
0.00141567
0.000696411
0.00141422
0.000700235
0.00141161
0.000709297
0.00140877
0.000717907
0.00140493
0.000726144
0.00140085
0.000734482
0.00139782
0.000742691
0.00139643
0.000750843
0.00139467
0.000759043
0.0013908
0.000766291
0.00138531
0.000772874
0.00137779
0.000779147
0.00136823
0.000785084
0.00135668
0.000790764
0.00134303
0.000795552
0.00132468
0.00079971
0.00130159
0.000802699
0.00127434
0.000804253
0.00124363
0.00080446
0.00120858
0.000803066
0.00116646
0.000799233
0.00111679
0.000796903
0.0010632
0.000803728
0.00101298
0.000816307
0.000970688
0.000827264
0.000937674
0.000836098
0.000911459
0.000842688
0.000891264
0.000845881
0.000876728
0.000844046
0.000866636
0.000837593
0.000858327
0.000829622
0.00085075
0.000823522
0.000843738
0.000820108
0.000838404
0.000818598
0.000833301
0.000821135
0.000829261
0.000827149
0.000826277
0.000839476
0.000826164
0.000852175
0.000828488
0.000870072
0.000832521
0.000883541
0.000836297
0.000909224
0.000846816
0.0028998
0.00289799
0.00131041
0.00289018
0.00132693
0.00287624
0.00134402
0.00285628
0.0013616
0.00283046
0.00137963
0.00279899
0.00139808
0.00276211
0.00141691
0.0027201
0.00143606
0.00267329
0.00145546
0.00262202
0.00147504
0.00256664
0.00149471
0.00250756
0.00151438
0.00244515
0.00153398
0.00237986
0.00155339
0.00231205
0.00157253
0.00224215
0.0015913
0.00217056
0.00160962
0.00209769
0.00162739
0.00202389
0.00164454
0.00194956
0.00166098
0.00187504
0.00167664
0.00180066
0.00169147
0.00172672
0.00170545
0.00165347
0.00171855
0.00158117
0.00173072
0.00151011
0.00174189
0.00144044
0.00175202
0.00137237
0.00176123
0.00130605
0.00176955
0.00124158
0.00177701
0.00117905
0.0017837
0.00111858
0.00178949
0.00106019
0.00179443
0.00100402
0.00179854
0.000949933
0.0018019
0.000898214
0.00180448
0.000849634
0.00180619
0.000805079
0.00180648
0.000766028
0.00180247
0.00073943
0.0017771
0.000716253
0.00168862
0.000700985
0.00139106
0.00067099
0.00126068
0.000630332
0.00122731
0.000647653
0.00122189
0.000641735
0.00122976
0.000638111
0.00124116
0.000636622
0.0012539
0.000636336
0.00126712
0.000637011
0.00128031
0.000638466
0.0012935
0.000640338
0.00130674
0.000642549
0.0013201
0.000644923
0.00133335
0.000647236
0.00134612
0.000649197
0.00135813
0.000650862
0.00136965
0.000652457
0.00138098
0.000654369
0.0013919
0.000656381
0.0014024
0.00065819
0.00141177
0.000659712
0.00142057
0.000661262
0.00142896
0.00066318
0.00143678
0.000665316
0.00144423
0.000667483
0.00145054
0.000669546
0.00145565
0.000671314
0.00146022
0.000673253
0.00146422
0.000675638
0.00146779
0.000678607
0.00147072
0.000681625
0.00147196
0.000684394
0.00147343
0.000687064
0.00147438
0.000690181
0.00147471
0.000694072
0.00147407
0.000698484
0.0014727
0.000702031
0.00147055
0.000707448
0.00146678
0.00071687
0.00146202
0.000725842
0.00145639
0.000734118
0.00145123
0.000742406
0.00144754
0.000750389
0.00144383
0.000758227
0.00143874
0.000766079
0.00143159
0.000773521
0.0014219
0.000780023
0.00140947
0.000786175
0.00139478
0.00079136
0.00137613
0.000795665
0.00135342
0.00079897
0.00132703
0.000800931
0.00129643
0.000801706
0.00126107
0.000800836
0.00121844
0.000797875
0.00116749
0.000795564
0.00111092
0.000800097
0.00105641
0.000809978
0.00100959
0.000820637
0.000972061
0.000830988
0.000941744
0.000839564
0.000917164
0.000846203
0.000897596
0.000850169
0.000882321
0.00085128
0.000870941
0.000848805
0.000861834
0.000843161
0.000854174
0.000837837
0.00084709
0.000834274
0.000841346
0.00083246
0.000836391
0.000832847
0.000831944
0.000836928
0.00082862
0.000843549
0.000825819
0.000856684
0.00082577
0.00087067
0.000828372
0.000889279
0.000832739
0.000904348
0.000837413
0.000929219
0.00084852
0.0029095
0.002908
0.00132817
0.0029005
0.00134811
0.00288686
0.00136859
0.00286719
0.00138951
0.00284164
0.00141086
0.00281041
0.0014326
0.00277375
0.00145468
0.00273193
0.00147705
0.00268527
0.00149963
0.00263411
0.00152235
0.00257881
0.00154512
0.00251976
0.00156785
0.00245735
0.00159044
0.002392
0.00161278
0.0023241
0.00163479
0.00225405
0.00165637
0.00218231
0.00167742
0.00210923
0.00169784
0.00203518
0.00171754
0.00196055
0.00173647
0.00188574
0.00175451
0.00181105
0.0017716
0.00173674
0.00178775
0.0016631
0.00180294
0.00159039
0.00181708
0.0015189
0.00183012
0.00144881
0.00184199
0.00138031
0.00185285
0.00131357
0.00186272
0.00124868
0.00187167
0.00118571
0.00187978
0.00112478
0.00188692
0.00106601
0.00189316
0.0010094
0.00189851
0.000954931
0.00190297
0.00090287
0.00190649
0.000854069
0.00190931
0.000809483
0.00191061
0.000770444
0.00190622
0.000746232
0.00187514
0.000728792
0.00176521
0.0007092
0.00146136
0.00067689
0.0013263
0.000634122
0.00128896
0.000653804
0.0012833
0.000648291
0.00129017
0.000644507
0.00130143
0.000643023
0.00131454
0.000642899
0.00132763
0.000643814
0.00134142
0.00064566
0.00135513
0.000648005
0.00136887
0.000650365
0.00138256
0.000652769
0.00139617
0.000654957
0.00140931
0.000656864
0.001422
0.000658576
0.00143404
0.00066016
0.00144564
0.00066187
0.00145683
0.000663617
0.00146732
0.000665381
0.00147717
0.000666982
0.00148594
0.000668771
0.00149401
0.000670878
0.00150173
0.000672724
0.00150875
0.00067434
0.00151494
0.000676136
0.00151972
0.000677968
0.00152401
0.000680035
0.00152814
0.00068243
0.00153149
0.000685431
0.00153406
0.00068842
0.00153582
0.000691132
0.00153679
0.000693505
0.00153671
0.000696157
0.00153589
0.000699672
0.00153367
0.000703266
0.00153013
0.000706181
0.00152504
0.000714045
0.00151872
0.000723619
0.00151169
0.000732686
0.00150517
0.000741478
0.00149942
0.000749678
0.00149372
0.000757913
0.00148656
0.000765997
0.00147733
0.000773677
0.00146532
0.000780489
0.00145109
0.000786748
0.00143264
0.000791902
0.00140995
0.000795889
0.00138365
0.000798675
0.00135285
0.00080023
0.0013168
0.000800235
0.00127348
0.000798331
0.00122208
0.000796559
0.00116479
0.000799943
0.0011079
0.00080903
0.00105727
0.000818868
0.0010159
0.000828282
0.000982018
0.000837016
0.00095384
0.000844607
0.000930165
0.000850779
0.000910574
0.000855268
0.000894997
0.00085751
0.000882335
0.000856946
0.00087186
0.000853856
0.000862867
0.000849613
0.000854807
0.000845531
0.000847597
0.000844076
0.000841824
0.000844122
0.000836791
0.000846059
0.000832408
0.000851489
0.000829538
0.000859145
0.000826922
0.000872885
0.000826648
0.00088784
0.000829145
0.000907045
0.000833704
0.000923679
0.000839089
0.000947695
0.000850563
0.0029214
0.00292018
0.00134794
0.00291296
0.00137121
0.0028996
0.001395
0.0028802
0.00141919
0.00285491
0.00144378
0.00282391
0.00146872
0.00278745
0.00149398
0.0027458
0.0015195
0.00269927
0.00154519
0.0026482
0.00157097
0.00259295
0.00159677
0.0025339
0.00162248
0.00247145
0.00164801
0.00240601
0.00167322
0.00233797
0.00169804
0.00226778
0.00172238
0.00219582
0.00174609
0.00212248
0.0017691
0.00204814
0.00179132
0.00197317
0.00181269
0.00189803
0.00183303
0.00182293
0.00185235
0.00174822
0.00187063
0.00167413
0.00188786
0.00160095
0.00190395
0.001529
0.0019188
0.00145844
0.0019324
0.00138945
0.00194488
0.00132221
0.00195626
0.00125681
0.00196668
0.00119337
0.00197614
0.00113199
0.0019846
0.00107275
0.0019921
0.00101558
0.00199864
0.000960678
0.0020041
0.000908216
0.00200858
0.000859094
0.0020125
0.000814049
0.0020146
0.000774331
0.00200934
0.000749309
0.00197184
0.000734923
0.00183907
0.000712265
0.00152767
0.000679375
0.00139179
0.000636823
0.00135203
0.000660141
0.00134698
0.000655663
0.00135313
0.000652267
0.00136435
0.000650896
0.00137751
0.000650884
0.00139101
0.000652135
0.00140528
0.000654236
0.00141984
0.000656699
0.00143438
0.00065914
0.0014488
0.000661417
0.00146283
0.000663415
0.00147644
0.000665403
0.00148956
0.000667348
0.00150223
0.000669237
0.00151418
0.000671066
0.00152534
0.000672974
0.00153578
0.000674278
0.00154503
0.000675558
0.00155381
0.000676993
0.00156189
0.000678962
0.00156907
0.000680835
0.00157587
0.000682091
0.00158121
0.000683625
0.0015863
0.000685841
0.00159074
0.000688309
0.00159445
0.000691015
0.00159759
0.000694039
0.00159932
0.000696824
0.00159989
0.000699023
0.00159895
0.000700502
0.0015968
0.000702162
0.00159351
0.000704292
0.00158924
0.000706236
0.00158262
0.000710933
0.00157521
0.000720434
0.00156719
0.000729925
0.0015593
0.000739411
0.00155223
0.00074862
0.0015444
0.000757778
0.00153477
0.000765972
0.00152271
0.00077355
0.00150853
0.000780504
0.00149064
0.000786649
0.0014688
0.000791757
0.00144284
0.000795505
0.00141204
0.000797872
0.00137544
0.00079898
0.00133109
0.000798665
0.00127877
0.00079824
0.00122057
0.000801458
0.00116267
0.000809974
0.00111068
0.000819426
0.00106679
0.000828304
0.00103
0.000836911
0.000998893
0.000844585
0.000972533
0.000850962
0.000949754
0.000856437
0.000930231
0.000860561
0.000913696
0.000863149
0.000899654
0.000863441
0.000887742
0.00086216
0.000877043
0.000859588
0.000867402
0.000856535
0.000858604
0.000853783
0.000851058
0.000853937
0.000844786
0.000855174
0.000839462
0.000858442
0.000834931
0.000865342
0.000832141
0.000874129
0.00082943
0.000888179
0.00082885
0.000903824
0.000830911
0.000923585
0.00083545
0.000941634
0.000841241
0.00096496
0.000852931
0.00293545
0.00293449
0.00136975
0.00292755
0.00139626
0.00291446
0.00142326
0.00289531
0.00145063
0.00287025
0.00147837
0.00283946
0.00150644
0.00280319
0.00153479
0.00276169
0.00156336
0.00271526
0.00159208
0.00266426
0.00162087
0.00260903
0.00164962
0.00254996
0.00167824
0.00248744
0.00170662
0.00242188
0.00173465
0.00235369
0.00176223
0.00228329
0.00178923
0.00221107
0.00181554
0.00213742
0.00184109
0.00206273
0.00186578
0.00198742
0.00188953
0.00191185
0.00191214
0.00183631
0.00193363
0.00176111
0.00195402
0.00168653
0.00197323
0.00161288
0.00199122
0.0015404
0.00200781
0.00146929
0.00202313
0.00139974
0.00203722
0.00133192
0.00205011
0.00126599
0.00206189
0.00120206
0.0020726
0.00114017
0.00208226
0.00108036
0.00209089
0.00102256
0.00209851
0.000967092
0.00210507
0.000914154
0.00211063
0.000864467
0.00211538
0.000818687
0.00211782
0.000777787
0.00211118
0.000751126
0.00206685
0.000736893
0.00191122
0.000712374
0.00159329
0.000680348
0.00145796
0.000639396
0.00141774
0.000666786
0.00141374
0.000663931
0.00141955
0.000661459
0.00143035
0.000660051
0.00144306
0.000659641
0.00145781
0.000661388
0.001473
0.000663843
0.00148852
0.000666617
0.00150416
0.000669363
0.00151929
0.000671906
0.00153391
0.000674133
0.00154774
0.00067613
0.00156107
0.000677912
0.00157367
0.000679602
0.00158549
0.000681149
0.00159673
0.000682387
0.00160668
0.000683641
0.00161605
0.000684611
0.00162458
0.000685957
0.00163251
0.000687773
0.00163952
0.000689341
0.00164538
0.000690732
0.00165086
0.000692223
0.001656
0.000694429
0.00165987
0.00069696
0.00166242
0.000699339
0.00166396
0.00070131
0.00166359
0.000702778
0.00166159
0.000703451
0.00165796
0.000703791
0.00165331
0.000704374
0.00164837
0.000704968
0.0016411
0.000707822
0.00163303
0.000717538
0.00162445
0.000727353
0.00161517
0.000736824
0.00160552
0.000746593
0.00159522
0.000755894
0.00158284
0.000764666
0.00156818
0.00077273
0.00155004
0.000779646
0.0015279
0.00078566
0.00150164
0.000790673
0.00147069
0.000794295
0.00143358
0.000796668
0.00138871
0.000797483
0.00133635
0.000798096
0.00127771
0.000802701
0.00121878
0.000811511
0.00116625
0.000820594
0.00112135
0.00082942
0.00108306
0.000838108
0.00105015
0.000845573
0.0010217
0.000852273
0.000996677
0.000858059
0.000974529
0.000862429
0.000954776
0.000865995
0.000937375
0.000868854
0.000922351
0.00087036
0.000908836
0.000870387
0.000896792
0.000869109
0.000885799
0.000866901
0.000875402
0.00086443
0.000865738
0.000862569
0.000857371
0.000863785
0.000850182
0.000865983
0.00084433
0.000870505
0.000839327
0.000878812
0.00083646
0.000888439
0.000833426
0.000902631
0.000832247
0.000918938
0.000833778
0.000939158
0.000838189
0.000958318
0.000844158
0.000981086
0.00085599
0.00295163
0.00295091
0.00139362
0.00294422
0.00142327
0.00293138
0.00145337
0.00291247
0.00148383
0.00288764
0.00151463
0.00285705
0.00154573
0.00282093
0.00157708
0.00277956
0.00160863
0.00273323
0.00164029
0.00268228
0.00167199
0.00262705
0.00170361
0.00256793
0.00173506
0.00250531
0.00176623
0.00243959
0.001797
0.00237121
0.00182726
0.00230056
0.00185685
0.00222803
0.00188572
0.00215404
0.00191375
0.002079
0.00194085
0.00200328
0.00196691
0.00192722
0.00199173
0.00185118
0.00201537
0.00177546
0.00203781
0.00170035
0.00205896
0.00162615
0.00207873
0.00155309
0.00209705
0.00148136
0.00211406
0.0014112
0.00212974
0.00134274
0.00214416
0.00127619
0.00215723
0.00121167
0.00216906
0.00114914
0.00217981
0.00108875
0.00218936
0.00103036
0.00219794
0.000974241
0.00220562
0.000920682
0.00221233
0.000870352
0.00221796
0.000823715
0.00222081
0.000781282
0.00221337
0.00075074
0.00216393
0.000736593
0.00198779
0.000711585
0.00166053
0.000680991
0.00152651
0.000642187
0.00148743
0.000673674
0.00148444
0.000672985
0.00149014
0.000671749
0.00150026
0.000670241
0.00151351
0.000671511
0.00152909
0.000673823
0.0015452
0.000676427
0.00156146
0.000679103
0.00157748
0.000681635
0.0015933
0.000683859
0.0016085
0.000685848
0.00162317
0.000687576
0.00163711
0.000689149
0.00165014
0.000690657
0.00166216
0.000691869
0.00167287
0.00069312
0.00168293
0.000693904
0.001692
0.000694876
0.00170071
0.000695958
0.00170818
0.000697166
0.00171482
0.00069909
0.00172023
0.000700741
0.00172446
0.00070199
0.00172803
0.000703115
0.00173039
0.000704195
0.00173092
0.000705313
0.00172919
0.000705847
0.00172606
0.000705671
0.00172168
0.000704958
0.00171643
0.000704374
0.00171001
0.000703799
0.00170265
0.000704531
0.00169361
0.000714231
0.00168346
0.000723803
0.00167247
0.000733577
0.0016605
0.000743207
0.00164664
0.00075252
0.00163016
0.000761721
0.00161103
0.000770168
0.00158834
0.000777254
0.00156097
0.000783252
0.00152846
0.000788048
0.00148969
0.000792215
0.00144374
0.000794595
0.00139122
0.000796484
0.0013334
0.000802436
0.00127517
0.000812029
0.00122276
0.000821516
0.00117743
0.000830531
0.00113859
0.000839296
0.00110488
0.000846898
0.00107517
0.000853905
0.00104866
0.000859987
0.00102495
0.000864943
0.00100344
0.000869147
0.000983709
0.000872696
0.000965688
0.000875465
0.000949465
0.000877278
0.00093474
0.000878
0.000921213
0.000877641
0.000908784
0.000876667
0.000897043
0.000875008
0.000885964
0.000873347
0.000875639
0.000872198
0.000866493
0.000874064
0.000858305
0.00087696
0.000851671
0.000882519
0.000846074
0.000891929
0.000842804
0.000902153
0.000839278
0.000916491
0.00083736
0.000933398
0.000838209
0.000954013
0.000842209
0.000974079
0.000847983
0.000996595
0.000859621
0.0029699
0.00296941
0.00141958
0.00296295
0.00145224
0.00295035
0.00148535
0.00293167
0.0015188
0.00290704
0.00155255
0.00287663
0.00158658
0.00284066
0.00162084
0.00279941
0.00165527
0.00275315
0.00168978
0.00270222
0.0017243
0.00264697
0.00175871
0.00258777
0.00179291
0.00252503
0.00182678
0.00245914
0.0018602
0.00239051
0.00189305
0.00231956
0.0019252
0.00224671
0.00195655
0.00217239
0.00198699
0.00209692
0.00201642
0.00202071
0.00204471
0.00194414
0.00207173
0.00186754
0.00209748
0.00179124
0.00212191
0.00171555
0.00214496
0.00164075
0.00216639
0.00156705
0.00218641
0.00149466
0.00220506
0.00142381
0.00222242
0.00135465
0.00223826
0.0012874
0.00225258
0.00122216
0.00226553
0.00115899
0.00227682
0.00109792
0.00228728
0.00103893
0.00229687
0.000982129
0.00230568
0.000927887
0.00231336
0.000876772
0.00231969
0.000829138
0.00232275
0.000785288
0.00231435
0.000751035
0.00226023
0.000734711
0.00206826
0.000711621
0.00172989
0.000682334
0.00159564