/*--------------------------------*- C++ -*----------------------------------*\
| =========                 |                                                 |
| \\      /  F ield         | OpenFOAM: The Open Source CFD Toolbox           |
|  \\    /   O peration     | Version:  2.2.x                                 |
|   \\  /    A nd           | Web:      www.OpenFOAM.org                      |
|    \\/     M anipulation  |                                                 |
\*---------------------------------------------------------------------------*/
FoamFile
{
    version     2.0;
    format      ascii;
    class       volScalarField;
    location    "2";
    object      divBf;
}
// * * * * * * * * * * * * * * * * * * * * * * * * * * * * * * * * * * * * * //

dimensions      [1 -3 -2 0 0 -1 0];

internalField   nonuniform List<scalar> 
14161
(
1337.01
214.32
361.494
289.702
271.121
234.125
206.538
175.851
146.394
120.925
82.0534
81.284
26.8846
-15.2148
16.6746
-42.4752
-96.6474
-121.007
-59.526
-131.378
-204.56
-257.766
-198.199
-184.687
-260.018
-357.469
-404.55
-386.71
-324.869
-418.018
-443.859
-528.871
-617.115
-601.74
-713.071
-789.507
-787.896
-971.843
-962.84
-1073.17
-1124.28
-2009.75
-1994.3
-1829.54
-1157.29
-27796.8
-18586.6
-24703.1
-24581.4
-31710.2
-28569
-32777.7
-33410.9
-32983.9
-33534.3
-32934.2
-32953.4
-31840
-31375.1
-30680.6
-28388.3
-27186.7
-25351.6
-23373.6
-21630.4
-19760
-17870.3
-16024.6
-14053
-12176.1
-9950.78
-8357.18
-6768.79
-4970.6
-3420.39
-1710.85
66.3299
1566.81
3249.16
4451.34
6363.05
7920.13
8468.19
10195.4
11377.6
12086.2
12868.7
13577.6
14055.6
14016.1
14350.3
14310.5
13781.5
13236.1
12676.2
11526.3
10456.2
8964.3
7128
5229.39
3680.02
1051.58
-1051.45
-3878.51
-6126.46
-8525.76
-11566.2
-14376.8
-22966
-26170.3
-24183.1
-23481.2
-14887.6
-18215.8
-5105.98
-13493.1
10740.4
-13839.3
40612.2
1086.43
-32.197
115.317
43.0709
22.8853
-16.5208
-46.7763
-81.605
-114.663
-146.655
-188.824
-201.298
-257.761
-302.151
-279.096
-363.169
-421.58
-434.541
-402.3
-502.384
-572.73
-614.682
-591.447
-584.505
-705.239
-805.838
-851.955
-838.933
-858.101
-949.587
-978.104
-1056.58
-1162.82
-1256.38
-1341.66
-1423.11
-1565.18
-1724.37
-2036.34
-2123.78
-2268.78
-2275.01
-2658.8
-2278.2
-700.545
-23446.2
-8417.74
-22305.4
-21299.4
-31819.4
-29002.5
-31023.5
-32978.9
-32181.7
-32214.7
-30767.2
-29664
-28451.7
-26908.8
-25903.6
-24056.4
-22957.1
-21222.6
-19529.9
-17781.1
-16141.4
-14540.9
-12813.7
-10979.8
-9215.8
-7785.38
-5902.49
-4011.41
-2456.41
-972.779
476.313
2163.29
3562.14
5137.12
6211.26
8179.22
9694.49
10613.7
11772.8
12748.2
13462.5
14252
14889
15355
15416.3
15632.9
15544.7
15135
14651.9
14086.4
12934.6
11807.5
10421.4
8570.27
6923
5395.65
2346.57
217.594
-2597.32
-6060.22
-10054.2
-16690
-21385.6
-29296.2
-29474.1
-23609.7
-22386.3
-14323.4
-17229.6
-5390.86
-13185.1
9516.53
-13817.6
36891.9
837.994
-271.815
-123.947
-195.231
-215.551
-254.367
-286.755
-323.758
-360.04
-394.599
-437.602
-462.369
-519.602
-561.015
-569.308
-637.358
-693.29
-725.657
-733.413
-816.325
-889.778
-922.248
-947.105
-979.792
-1081.43
-1180.15
-1195.25
-1261.93
-1302.31
-1381.42
-1441.56
-1540.97
-1638.46
-1741.17
-1810.08
-1980.47
-2156.69
-2235.55
-2325.64
-2217.85
-2343.98
-2112.04
-1959.98
-1986.62
-957.379
-20112.4
-967.188
-21678.8
-21045.8
-30983.7
-30107.3
-32581.9
-32310.1
-32036.2
-31871.8
-30502.5
-29543.8
-28457.4
-26485.6
-25273.6
-23642.6
-22227.5
-20540.6
-18732.4
-16769.4
-14853.8
-13000.5
-11149.4
-9389.04
-7725.26
-5988.61
-4390.79
-2506.26
-899.245
537.798
2014.36
3712.43
5134.17
6372.85
7510.92
9364.27
10636.9
11699.5
12753.4
13563.7
14344.9
15178.7
15910.7
16150.1
16306.5
16428.6
16217.1
15804.6
15273.9
14678.8
13720.9
12544
11141
9500.24
7429.01
6470.15
3099.04
1816.03
-1188.72
-4300.94
-7863.8
-10677.9
-19881.8
-18034.5
-21068.8
-16898
-17120.7
-10649.6
-14209
-3765.23
-11479.2
8861.91
-12639.3
34032.5
595.267
-503.369
-354.61
-422.738
-442.576
-480.095
-512.62
-551.528
-586.4
-626.328
-666.021
-703.587
-755.705
-793.284
-831.288
-893.342
-934.138
-988.999
-1025.05
-1093.49
-1163.39
-1190.31
-1281.38
-1316.05
-1404.7
-1488.58
-1508.09
-1626.74
-1692.18
-1758.9
-1838.23
-1963.86
-2007.97
-2099.34
-2205.38
-2336.54
-2464.6
-2483.56
-2502.02
-2448.65
-2619.31
-2497.17
-2640.69
-2634.17
-653.225
-16789.7
6034.86
-20815.9
-21756.2
-31604.7
-31719.1
-35220.2
-33260.9
-33681.3
-32953.5
-31213.4
-28006
-26910.2
-24220.7
-22634.7
-21172.7
-19002
-17085.3
-15327.4
-13483
-11590.3
-9931.22
-8362.4
-6742.06
-5077.44
-3745.96
-2112.26
-343.163
1105.56
2804.68
3840.85
5554.28
6982.12
7987.77
9241.54
10903.5
11728.8
13169.6
13983.9
14776.6
15590.8
16131.2
17063.9
16922.2
17532.7
17613.2
17093.6
16921.5
16320.7
15973.4
14829.6
13690.4
12537.7
10870.3
9277.97
7130.06
5488.26
2273.28
149.981
-5154.72
-8010.57
-15862.5
-13951.7
-13427.8
-13771.7
-12673.8
-12863.3
-8324
-11824.4
-2946.43
-10009.8
7830.2
-11298.2
30615.7
357.505
-726.047
-574.925
-639.287
-657.335
-692.219
-724.944
-763.619
-798.119
-840.178
-877.637
-923.642
-970.324
-1008.46
-1062.32
-1126.78
-1153.31
-1221.53
-1282.72
-1352.83
-1384.92
-1450.99
-1546.16
-1611.63
-1702.78
-1736.76
-1800.54
-1924.84
-2017.41
-2095.77
-2189.87
-2259.37
-2328.9
-2421.78
-2516.2
-2613.5
-2713.43
-2819.53
-2844.93
-2947.1
-3031.73
-3025.85
-2955.67
-3182.7
-1434.01
-21377.9
7458.55
-19616.7
-24951.2
-33719.2
-33861.4
-36947.1
-35096
-33882.7
-31684.5
-30999.6
-27107.8
-26043.5
-23002.9
-21396.8
-19982.4
-17608.2
-14518.5
-12668.1
-10991.3
-9634.38
-7780.11
-6145.39
-4855.54
-3044.92
-1692.98
-236.702
1319.81
2590.32
4467.83
5293.03
7066.6
8704.96
9719.45
10938
12540.3
13136.8
14552.7
15486.3
15890.6
16827.7
17116.9
18121.7
17793.3
18388.3
18442.1
17938.4
17982.5
17157.6
16528.4
16248.5
14879.6
13301.3
11699.2
9783.65
9141.52
7024.51
3873.81
1890.69
-1793.7
-6749.2
-7599.21
-9113.35
-8526.81
-10973.3
-9211.52
-10061.4
-6687.47
-9930.68
-2623.79
-8982.14
5914.56
-10084.3
26501.3
126.847
-937.876
-784.905
-844.435
-858.966
-891.162
-922.576
-959.705
-993.056
-1035
-1071.69
-1124.26
-1164.67
-1204.92
-1268.2
-1335.2
-1347.3
-1431.63
-1504.13
-1581.22
-1594.24
-1673.53
-1785.02
-1871.34
-1956.7
-1974.11
-2064.33
-2172.29
-2295.77
-2399.27
-2463.61
-2542.64
-2634.28
-2708.86
-2806.61
-2900.58
-2959.95
-2968.7
-2990.17
-3004.93
-2859.57
-2837.73
-2444.38
-2561.42
-859.556
-18294
2500.87
-19846
-29209.5
-36379
-38569.3
-40336.9
-36279.4
-34981.5
-30439.4
-28547.9
-25757.6
-24647.6
-19857.4
-18401
-15811.8
-13856.6
-11816
-9373.53
-7864.15
-6847.1
-5120.83
-3614.9
-2281.95
-933.28
526.809
2024.78
3393.95
4395.69
6229.67
7321.41
8885.87
9969.99
11440.9
12548
13818.2
14595.8
15939.8
16655.8
16871.3
17622.3
18309.8
18967.2
18869.3
19605.6
19266.6
18710.1
19076.8
18368.7
17774.3
16994.7
15602.5
14711.2
13646
12363.5
9913.23
9929.27
6041.12
5501.04
21.8618
-1843.88
-4000.21
-4893.47
-6120.07
-7828.63
-6596.37
-8052.99
-5397.62
-8079.17
-2231.83
-7716.15
5084.93
-8574.83
23001.5
-94.6042
-1138.65
-982.98
-1036.96
-1047.91
-1076.59
-1105.45
-1139.57
-1172.71
-1212.38
-1250.47
-1306.51
-1340.04
-1384.57
-1451.82
-1523.81
-1520.11
-1620.39
-1702.97
-1782.07
-1786.31
-1854.92
-1987.87
-2100.58
-2177.52
-2184.69
-2286.39
-2392.84
-2521.1
-2623.28
-2733.25
-2790.36
-2848.54
-2942.27
-3022.92
-3090.48
-3123.83
-3138.87
-3127.1
-3120.43
-3018.04
-3112.11
-2812.65
-2746.27
-2527.14
-14904.9
-10799.7
-24788
-41645.6
-42386.8
-43797.5
-41631.8
-33949.3
-30990.4
-26018.7
-24059.1
-22211.2
-18803.1
-16493.4
-14434.5
-12379.9
-11056.9
-9789.55
-7102.65
-6031.31
-4097.67
-2518.58
-1300.99
-142.785
1212.99
2525.33
3850.77
5113.27
5952.91
7799.68
9250.8
10227.1
11297.2
12860.2
13962.4
14966.3
15789.5
17169.4
17619.1
18474.6
19298.3
19986.1
20283.3
20230.2
20789.3
20446.9
20362.8
20172.5
19516
18415
18026.7
16834.2
16889.4
16172.5
14171.9
13521.8
14321.8
12715.7
8272.63
3675
531.339
-1495.23
-3104.4
-4610
-5500.74
-5398.44
-6656.16
-4641.53
-6933.46
-2353.47
-6985.28
3808.3
-7911.67
18995.1
-306.399
-1327.26
-1168.68
-1216.69
-1223.06
-1246.98
-1275.1
-1303.65
-1337.45
-1372.8
-1412.93
-1469.71
-1494.67
-1547.71
-1620.74
-1680.55
-1676.43
-1788.82
-1878.95
-1948.56
-1958.57
-2037.33
-2169.39
-2283.41
-2354.93
-2376.77
-2480.35
-2594.54
-2717.74
-2835.44
-2927.74
-2980.26
-3050.71
-3127.54
-3209.42
-3239.95
-3211.51
-3196.18
-3131.89
-3048.07
-2874.12
-2681.12
-2363.72
-1473.11
-1889.67
-10063.6
-29682.3
-36135.9
-58554
-53342.3
-42725.4
-35220.4
-29819
-24518.8
-23169.3
-18804.9
-16838.7
-12866.1
-11854.2
-9650.67
-9146.86
-6310.34
-5141.92
-4132.93
-3261.14
-1153.23
-209.654
634.307
1848.18
3297.23
4380.01
5515.97
6697.01
7811.27
9232.1
10794.4
11778.9
12920.3
14296.7
15431
16326.8
16860.2
18295.2
18953.1
19641.6
20409.7
20706
21102.3
21337.3
21673.5
21374.8
20962.5
20700.4
20479.7
20770
20225.3
19385.3
18202.5
19598
18693.9
21199.1
19697
15760.2
8594.08
4626.15
1355.81
-323.037
-1965.56
-3820.81
-3499.81
-4597.1
-4904.94
-3884.75
-5543.57
-2186.15
-5873.49
2989.17
-6965.93
16025.4
-507.13
-1503.01
-1341.08
-1382.43
-1383.74
-1404.56
-1430
-1452.98
-1487.76
-1517.96
-1558.69
-1612.79
-1633.81
-1694.96
-1768.53
-1815.96
-1835.04
-1933.68
-2024.5
-2078.94
-2110.61
-2216.27
-2327.41
-2425.56
-2494.74
-2558.4
-2655.35
-2772.25
-2901.29
-3000.52
-3077.55
-3147.05
-3233.62
-3325.77
-3377.96
-3407.62
-3394.68
-3388.87
-3321.82
-3310.38
-3252.77
-3102.17
-2820.92
-3083.47
-4736.47
-15176.3
-74244.6
-60234
-63489
-33869
-27983
-23839.5
-25033.5
-20370.6
-19732.4
-13878.4
-12202.6
-9721.98
-9992.41
-6313.89
-5531.48
-2632.19
-2386.4
-569.171
-252.98
685.915
2111.69
3018.34
3905.57
4732.06
5815.03
7147.27
8337.91
9604.12
10550.5
12198.8
13423.4
14476.4
15579.6
16574.6
17282
17944.1
19078.2
20092
20885.3
21645.3
22047.7
22070.9
22342.4
22653.6
22509.9
22863.3
22981.7
22179.7
22131.5
22470.1
23266.6
23469.1
26594.3
26976.7
29867.3
20027.1
13340.5
7345.2
3933.28
1688.97
79.7045
-2062.67
-2031.82
-3166.51
-3761.42
-4047.86
-3607.64
-4828.71
-2395.54
-5337.32
1782
-6625.54
12744.1
-695.715
-1664.92
-1499.59
-1534.18
-1530.87
-1548.01
-1569.49
-1588.27
-1623.15
-1649.01
-1689.48
-1737.37
-1768.51
-1823.59
-1887.36
-1929.93
-1979.13
-2071.35
-2136.75
-2194.48
-2272.42
-2347.76
-2471.7
-2539.84
-2620.95
-2722.62
-2815.73
-2927.47
-3039.69
-3139.89
-3210.45
-3285.13
-3383.21
-3496.64
-3521.87
-3495.48
-3490.87
-3419.37
-3373.39
-3190.52
-3065.55
-2851.2
-1656.6
-1294.3
-3115.46
-19562.2
-95202.3
-159001
-50123.6
-16670.3
-8059.63
-6690.61
-9011.29
-9132.34
-10826.1
-9235.61
-10095.3
-6359.57
-4736.06
-1920.06
-967.742
-405.621
364.374
461.74
2836.58
3023.97
3661.32
4843.96
5467.29
5831.3
7196.51
8350.77
9567.53
10875.2
11951.7
13362.5
14878.1
15597
16811.6
17770.1
18932.3
19594.1
20573.3
21058.4
21547.4
22522.9
23190.4
22960.1
23793.1
24219
23957.2
23834
25296.9
25126.7
26195.7
27828.6
31314
32809.1
36180.8
33435.7
24935
15398.5
9537.16
5723.72
3300.14
1540.22
-156.678
-1279.35
-1494.67
-2598.96
-2811.43
-3165.1
-3030.29
-3794.05
-2274.86
-4304.65
1134.42
-5960.46
10458.4
-871.496
-1812.46
-1644.09
-1672.13
-1664.31
-1677.51
-1692.88
-1710.36
-1742.51
-1767.69
-1807.76
-1842.63
-1887.25
-1943.82
-1989.75
-2040.2
-2097.89
-2187.63
-2234.99
-2308.62
-2395.02
-2484.64
-2566.98
-2631.86
-2747.6
-2849.6
-2951.9
-3060.48
-3171.95
-3221.05
-3315.67
-3429.45
-3529.75
-3589.2
-3652.15
-3709.18
-3684.96
-3647.4
-3464.52
-3442.98
-3429.7
-2980.55
-3177.14
-3069.81
-4534.07
-28456.4
-139407
-142404
-47109.5
-13618
-7459.87
-5879.72
-2553.21
-5957.98
-6542.16
-6848.35
-4010.25
-2435.22
-27.4178
-34.978
726.028
1521.71
2798.85
2709.75
4115.03
4739.23
4903.57
6153.35
7112.88
8092.64
9193.13
10240.4
11317.3
12599.6
13839.4
15071.2
16313.5
16945
18027.5
18864.9
19756.1
20085.2
20898.5
22718.9
22714.8
23390.5
24628.4
24799.6
25204.7
26749
26914.2
27627.7
30434.6
31254.8
34285.2
37517.2
41911.6
44768
34001.5
23904.9
17469.1
10654.6
6998.21
4183.18
2563.97
1019.38
-453.64
-589.501
-1442.8
-1974.15
-2477.54
-2779.49
-2852.56
-3420.86
-2358.11
-3961.98
150.443
-5723.73
7910.83
-1032.96
-1945.19
-1774.2
-1795.61
-1783.18
-1793.15
-1801.7
-1820.42
-1845.94
-1871.04
-1913.84
-1933.37
-1986.85
-2049.91
-2077.25
-2136.29
-2202.84
-2285.53
-2321.72
-2400.67
-2489.55
-2598.83
-2667.82
-2723.85
-2830.15
-2952.4
-3080.9
-3194.49
-3262.64
-3306.6
-3435.67
-3558.37
-3647.61
-3697.49
-3801.06
-3868.94
-3982.93
-3924.01
-3744.24
-3451.32
-3064.75
-2906.98
-2918.28
-3223.76
-6954.31
-41678.1
-137108
-53215.6
-69389.4
-51293.2
-23837.5
-6144.44
-5483.33
-4890.75
-4359.69
-3440.19
-390.97
-1462.48
-120.25
-565.847
2600.23
2715.07
4311.85
5174.68
4871.9
6146.44
6117.85
6949.65
8045.82
8875.17
9787.82
10909.5
12150.3
13277.4
14424.8
15664.2
17092
17861.9
19001.7
20277.8
21592.1
21888.2
22756.2
24857.9
24439
24967.1
27481.9
27598
28342.4
31295.8
32991.2
34525.8
39405.9
42149.9
46349.5
49538.1
41756.1
31330.5
23428.7
15721.8
11023
7374.95
4547.73
3080.44
1722.68
365.383
76.8759
-626.446
-1036.65
-1558.67
-1914.05
-2179.4
-2350.75
-2813.1
-2000.9
-3405.89
-269
-5275.83
6168.74
-1180.07
-2062.95
-1889.67
-1904.65
-1888.04
-1894.6
-1897.99
-1916.51
-1933.81
-1961.46
-2002.96
-2014.71
-2074.83
-2136.96
-2146.11
-2219.52
-2302.28
-2363.75
-2384.43
-2485.18
-2580.98
-2689.08
-2736.9
-2795.3
-2912.44
-3040.69
-3180.99
-3285.62
-3319.55
-3415.45
-3536.17
-3639.75
-3739.73
-3844.61
-3966.84
-4021.14
-4021
-3926.94
-3968.95
-3961.26
-3787.45
-3664.73
-3444.66
-4567.74
-12692.8
-81022.7
-72421.4
-17577.2
-39691.7
-78108.2
-49667.8
-23322
-12266
-7431.82
-4666.33
-2797.58
-744.523
469.121
-11.5617
1834.5
3476.53
4823.68
4708.14
6146.31
6670.04
7242.24
7969.69
8708.06
9831.06
10663.6
11401.2
12705
13739.3
15196.4
16149.1
17391.6
18801.3
19548.3
20457.2
21484.3
23466.7
23967
25145.2
26489.3
29032
29280.2
31185.6
34196.7
35382.4
39946.6
43836
45481.7
50157.9
54200.8
46189.7
36414.4
27547
20569.2
14138.2
10099.1
6768.53
4517.2
3086.48
1991.66
1018
300.86
24.365
-472.193
-714.298
-1279.19
-1621.4
-1973.15
-2148.01
-2589.85
-1948.89
-3244.64
-850.228
-5049.89
4365.2
-1311.97
-2165.25
-1990.45
-1999.72
-1979.24
-1980.55
-1981.63
-2000.62
-2009.94
-2038.09
-2074.43
-2092.94
-2149.08
-2203.05
-2210.75
-2290.62
-2373.99
-2425.87
-2449.03
-2558.11
-2663.43
-2747.27
-2794.33
-2878.96
-3000.85
-3127.2
-3229.21
-3324.4
-3404.46
-3519.72
-3606.27
-3722.9
-3848.48
-3975.23
-4036.01
-4097.48
-4056.36
-4184.88
-4242.92
-4230.86
-4186.15
-4045.38
-4211.66
-5929.61
-21013.5
-115187
-13918.6
-7118.47
-15784
-34418.6
-59617
-51700.2
-26599.4
-14955.9
-11959
-6186.16
-2374.29
-1125.81
-204.213
2627.92
4105.22
5905.79
6189.68
7302.06
7544.2
8300.56
8907.88
9342.14
10525.5
11400.7
12598.8
13732.4
14783.9
16523.4
17611.3
18625.5
20159.2
22264.1
23234.5
24774.2
27197.8
29203.5
29987.9
31619.4
36443.7
37602.2
40450.7
44731.5
46383.3
50780.1
55440.3
54114.8
44096.8
36014.3
29475.5
22818.9
16167
12193.2
8512.75
5825.7
4083.81
2817.3
1896.79
1278.21
333.313
327.852
-154.798
-345.314
-685.989
-969.045
-1242.62
-1589.52
-1749.12
-2238.82
-1655.9
-2942.25
-1092.74
-4681.74
3065.54
-1428.29
-2251.98
-2076.29
-2080.3
-2056.37
-2052.38
-2052.02
-2069.32
-2075.6
-2105.63
-2127.8
-2158.5
-2211.4
-2246.19
-2282.6
-2352.14
-2419.44
-2462.98
-2524.66
-2617.32
-2707.44
-2777.96
-2856.12
-2944.88
-3065.8
-3172.16
-3274
-3357.89
-3477.33
-3589.38
-3687.51
-3800.93
-3927.32
-4050.69
-4108.43
-4157.83
-4247.65
-4321.71
-4336.49
-4366.57
-4319.16
-4267.3
-4213.61
-7518.95
-40971.4
-83894.3
-9130.04
-7442.79
-8998.81
-17203.9
-32179.4
-60466.8
-56235
-33617.9
-17224.3
-10990.5
-6305.09
-1273.5
2044.79
3571.52
4773.34
7731.62
7666.34
8183.87
9110.17
8985.05
10366.1
10643.5
12505.9
12687.2
14215.6
16219.8
17147.8
18881.5
21534.2
22176.2
24087.1
27447.5
29391.5
30766.1
33832.5
38464.1
40346.4
43183.5
46787.9
50159.9
54541.3
55988.3
53927.5
47452.6
39456.4
34505.5
27965.8
22052.5
16569.5
12977.8
9255.46
6636.15
4731.77
3240.32
2130.73
1503.81
967.611
387.903
344.231
76.2082
-94.8746
-251.574
-453.863
-745.378
-1050.7
-1402.96
-1586.8
-2051.37
-1561.52
-2836.61
-1437.55
-4390.45
1925.81
-1529.07
-2323.21
-2147.3
-2146.43
-2119.64
-2112.34
-2111.63
-2121.27
-2130.52
-2157.94
-2175.53
-2209.55
-2257.47
-2282.95
-2332.37
-2406.26
-2450.8
-2507.83
-2570.5
-2670.21
-2738.39
-2805.96
-2906
-2994.38
-3109.98
-3214.48
-3288.15
-3405.58
-3521.43
-3646.93
-3767.92
-3900.32
-4026.82
-4065.52
-4166.27
-4261.81
-4353.5
-4388.83
-4464.2
-4536.41
-4663.58
-4845.04
-5715.13
-11655.4
-66035.1
-56781.9
-3683.96
-3292.15
-1888.32
-6751.84
-13428.7
-30797.3
-52742.7
-52138.2
-28919.3
-17137.8
-8250.56
-2927.61
2344.88
3350.72
5189.35
7553.85
7842.83
8932.46
10691.4
10241.8
12118.8
13083
15069.8
16046.3
17549
21311.9
22242.4
23797.7
27931.4
30112.6
31698.8
37301.7
41696.3
43482.6
45804.9
51494.2
55290.1
57798.1
57927.2
53014.1
48060.4
39949.9
34888.7
29108
24255.6
20531.7
15373.2
11990.8
9465.33
6824.86
4818.26
3480.69
2344.88
1512.6
975.909
687.161
296.81
176.885
82.4036
-45.3043
-109.283
-241.135
-331.868
-578.32
-772.031
-1116.8
-1301.94
-1767.78
-1374.79
-2644.7
-1657.41
-4079.96
928.519
-1614.02
-2378.85
-2203.65
-2198.82
-2169.49
-2159.96
-2158.27
-2161.9
-2172.83
-2195.14
-2214.48
-2253.98
-2287.01
-2318.26
-2372.46
-2443.23
-2464.79
-2540.06
-2616.81
-2703.63
-2754.97
-2828.44
-2932.19
-3050.21
-3154.52
-3223.56
-3312.73
-3420.3
-3553.57
-3683.66
-3846.09
-3975.74
-4015.31
-4117.21
-4238.06
-4329.55
-4407.6
-4499.11
-4590.44
-4625.29
-4667.81
-4682.95
-6247.69
-15641.6
-96559.6
-24604.7
-208.047
-1665.95
-2308.54
-4771.01
-8030.55
-15269.4
-28892.1
-47320.9
-55590.5
-31229.6
-13129.5
-7796.66
308.383
4861.73
7495.77
7811.91
9566.6
10164.9
13575.9
13748.4
16333.9
17633.8
19603.6
23772.4
25302.9
28286.6
33095.9
35234
40231.6
44837.9
47258.6
51490.9
57658.9
60079.3
61352.2
56077
51442.2
45887.7
37645.9
34184
28381.5
24543.8
21227.4
16597.5
13074.3
11390.6
8452.65
6323.77
4642.09
3486.32
2206.88
1405.88
720.169
340.819
-13.2021
-18.6144
-268.05
-70.9681
-146.462
-121.395
-134.445
-197.161
-210.413
-452.071
-598.598
-943.035
-1109.8
-1586.74
-1261.75
-2533.83
-1794.28
-3685.17
292.857
-1683.16
-2419.15
-2245.7
-2237.78
-2205.97
-2194.9
-2191.75
-2191.28
-2207.86
-2215.18
-2243.94
-2287.11
-2298.07
-2344.57
-2408.05
-2459.08
-2470.03
-2561.77
-2654.66
-2718.57
-2750.62
-2849.55
-2953.44
-3078.39
-3166.91
-3215.57
-3328.83
-3456.6
-3577.63
-3725.11
-3855.6
-3967.76
-4047.86
-4174.25
-4274.58
-4408.29
-4539.54
-4672.21
-4771.66
-4844.21
-4909.15
-5157.16
-6474.68
-22731.2
-85851.9
-2334.33
-509.93
-2172.68
-4137.32
-5115.53
-6615.01
-10462.5
-16726.7
-28057.8
-50509.8
-49437.6
-24042.6
-8327.36
573.2
5955.19
10706.7
10820.7
15907.6
15172.2
18513.1
21426.6
24663.5
26956.4
30182.3
36492.7
39736.8
43478
49650.9
53558.6
58181.3
62464.8
66036.2
58927.5
53793.5
49032
42546
36381.5
32232.2
27453.9
23762.1
20512.4
16938.9
13374.7
11943.9
9749.19
7081.29
5801.73
4386.59
3192.59
2059.7
1272.15
558.507
85.8753
-239.439
-327.24
-475.116
-382.848
-457.474
-266.151
-306.911
-172.799
-117.208
-83.0394
-127.289
-292.713
-374.062
-700.764
-912.772
-1374.7
-1188.54
-2401.85
-1992.36
-3454.43
-431.072
-1736.67
-2444.59
-2273.7
-2263.17
-2229.6
-2217.58
-2211.06
-2211.6
-2230.18
-2228.19
-2261.8
-2301.68
-2305.29
-2360.16
-2424.11
-2458.69
-2494.65
-2573.96
-2658.95
-2716.64
-2764.91
-2863.45
-2974.25
-3072.49
-3149.15
-3225.5
-3347.41
-3465.01
-3607.3
-3728.8
-3820.55
-3959.14
-4087.18
-4190.49
-4307.81
-4429.94
-4564.92
-4667.14
-4719.49
-4730.49
-4732
-4844.76
-8300.26
-37597.1
-59597
-432.81
-738.016
267.494
-1095.33
-1624
-2757.86
-3708.36
-7061.78
-12097.9
-24539.9
-44177.2
-43790.4
-12329.9
1968.31
8863.62
14600.3
16634.9
25574.3
23628.2
28540.9
35621.4
39076.4
43577.1
48480.6
53973.7
61517.1
65131.5
67868.1
64615.6
57584.7
50947.5
45456
39950.7
33998
30234.1
26259
22329.4
18864.3
16333.4
12824.6
11387.2
10482
7872.3
6383.92
5468.62
3970.98
3094.85
1945.42
1210.61
409.837
-19.5405
-472.67
-737.384
-978.394
-1005.34
-1066.65
-799.753
-779.103
-545.644
-444.638
-333.004
-270.757
-203.343
-134.692
-266.565
-259.152
-546.464
-789.913
-1188.99
-1149.17
-2240.95
-1979.82
-3104.18
-887.56
-1774.81
-2455.53
-2287.84
-2275.35
-2240.96
-2229.54
-2220.22
-2218.59
-2235.71
-2240.09
-2270.37
-2296.65
-2318.87
-2369.82
-2417.74
-2450.71
-2502.47
-2586.48
-2642.64
-2701.83
-2773.29
-2872.29
-2965.47
-3044.03
-3141.13
-3236.84
-3342.82
-3473.41
-3596.46
-3703.88
-3822.58
-3935.1
-4081.4
-4203.81
-4352.83
-4493.19
-4618.83
-4708.91
-4791.35
-4876.84
-4971.23
-5908.76
-10859.8
-61500.5
-44340.8
1541.07
1449.68
1562.39
242.939
-286.61
-1947.19
-2672.49
-4425.19
-7339.31
-11412.1
-25149.2
-37692
-27496.9
4068.88
16173.3
26109.1
31209.4
39323.1
41185.7
48432.9
55842.2
61713
65990.4
70510
65550.3
61482.8
55638.2
46890.7
43800.6
37494.2
32286.9
28230.1
24720.9
21020.3
17767.3
15228
12593.7
10752.5
10018.5
8056.73
6665.19
6049.93
4719.97
3474.22
2982.39
2060.42
1417.92
682.375
117.809
-446.537
-871.777
-1149.27
-1261.73
-1298.16
-1150.81
-1156.26
-875.18
-864.798
-629.98
-509.807
-311.743
-170.452
-67.7468
-26.783
-77.4095
-88.1744
-373.78
-628.675
-982.137
-1117.73
-2014.57
-1961.51
-2779.48
-1224.78
-1798.07
-2452.53
-2288.91
-2275.05
-2240.62
-2229.22
-2218.47
-2220.67
-2226.67
-2239.99
-2270.58
-2282.3
-2318.39
-2370.37
-2395.5
-2449.16
-2502.9
-2580.7
-2614.24
-2691.36
-2766.55
-2872.21
-2943.9
-3009.04
-3116.58
-3221.53
-3353.78
-3472.94
-3564.85
-3668.34
-3794.13
-3910.35
-4056.28
-4226.88
-4365.03
-4467.59
-4576.1
-4674.41
-4718.4
-4756.28
-4806.51
-5919.47
-12854.7
-69689.6
-27980.1
2357.15
1755.59
1148.33
312.383
307.407
-472.18
-103.489
102.712
115.019
432.214
-2178.41
-4156.32
701.674
17777.7
33538.4
42829.6
52427
58771
67065.4
72653.9
66629.1
62984.9
57780.2
50942.4
45697.6
40771.8
36504.6
29983.6
27417.5
23799.1
19906.5
17326.8
14366.9
12769.5
11223.1
9280.06
8029.99
6286.58
5565.78
5184.62
4250.08
3608.44
2974.73
2054.25
1655.72
991.358
258.979
-313.053
-705.684
-1102.18
-1311.99
-1501.49
-1581.84
-1637.99
-1531.77
-1453.49
-1202.26
-1132.68
-887.884
-736.455
-514.383
-320.479
-149.245
-50.0312
-17.6212
-83.4348
-236.572
-576.827
-905.778
-1213.59
-1795.55
-1893.5
-2488.53
-1463.2
-1806.94
-2436.09
-2277.36
-2262.84
-2229.39
-2216.53
-2205.53
-2212.35
-2211.51
-2229.32
-2254.03
-2268.39
-2307.68
-2357.22
-2365.12
-2430.87
-2504.33
-2552.36
-2576.26
-2671.1
-2769.67
-2851.09
-2903.99
-2976.59
-3092.93
-3222.54
-3338.4
-3434.16
-3509.38
-3631.04
-3755.82
-3906.01
-4050.3
-4199.27
-4331.12
-4442.58
-4568.68
-4676.02
-4795.94
-4939.55
-5195.09
-6163.2
-18773.9
-66904.6
-5651.15
1737.81
2231.46
1657.55
1560.34
1529.32
1786.41
3040.54
3453.24
4724.91
7787.74
13400.2
21110.1
38006.1
47814
61260.1
66249
66503.1
62042.2
58283.9
53962.1
47453.9
43233.1
38847.2
33436.9
30051.5
26932.2
23298.1
19547.2
16661.2
14987
12972.8
11182
9400.95
8092.66
7022.71
6090.21
5560.3
4472.85
3745.78
3421.75
2893.77
2189.93
1740.81
1043.3
682.312
213.99
-280.198
-673.476
-1083.64
-1443.66
-1711.47
-1881.19
-1886.83
-1846.83
-1694.75
-1572
-1377.2
-1230.06
-964.147
-776.287
-503.168
-268.438
-67.1858
44.3404
69.5333
25.2536
-98.8563
-435.395
-650.91
-1177.57
-1473.39
-1786.23
-2234.28
-1714.51
-1802.13
-2406.85
-2253.68
-2239.31
-2207.51
-2192.81
-2185.73
-2187.26
-2190.86
-2213.68
-2221.22
-2249.02
-2293.38
-2323.11
-2345.36
-2409.34
-2479.5
-2506.54
-2562.32
-2643.71
-2738.94
-2809.89
-2854.01
-2952.79
-3060.47
-3182.98
-3291.17
-3368.61
-3473.75
-3601.24
-3730.34
-3878.31
-4011.46
-4132.43
-4274.48
-4384.27
-4475.56
-4567.49
-4648.17
-4746.64
-5087.99
-7797.99
-32007
-54490.9
-6443.56
1407.52
2168.11
2779.16
3306.83
3311.56
3703.71
5398.14
7945.9
12544.4
27824.1
48906.4
74587.4
93892.4
82473.8
64620
55418.2
48705.7
43132.1
39149.4
34915.9
31253
28792.6
25896.5
22925.5
19751.8
17583
15107.5
14028.1
11773.4
10571
9284.76
8109.91
7372.41
6086.43
5373.91
4161.55
3556.73
2972.38
2447.12
2040
1674.58
1184.82
955.056
523.58
151.443
-314.35
-711.96
-1127.36
-1366.43
-1620.01
-1781.98
-1928.33
-1920.17
-1947.11
-1805.68
-1626.8
-1569.32
-1344.61
-1089.1
-902.247
-644.775
-429.2
-186.612
-19.7732
102.379
75.3774
26.9338
-400.85
-642.87
-1176.02
-1231.04
-1698.66
-1906.21
-1818.88
-1784.39
-2365.5
-2218.65
-2205.01
-2174.88
-2160.19
-2156.47
-2152.86
-2161.53
-2183.97
-2187.49
-2220.52
-2263.09
-2278.31
-2320.89
-2382.94
-2428.54
-2475.46
-2527.68
-2618.01
-2683.8
-2747.55
-2829.71
-2916.9
-3029.96
-3127.5
-3207.3
-3328.75
-3424.74
-3559.69
-3682.78
-3811.63
-3948.86
-4057.63
-4190.07
-4303.7
-4439.18
-4566.29
-4737.75
-4841.56
-5551.3
-10149.3
-52819.3
-43302.6
-5049.21
2894.22
3730.1
4290.33
5411.01
5996.58
7057.57
11491.5
19583.1
33454.6
58392.5
94478.4
125363
97598.6
64464.2
49963.3
39714
33481.6
29083.9
26175.1
23567.3
20987.1
18937.8
17331.1
16462.5
14451.2
13007.4
11636.8
10754.6
9496.61
7852.12
7055.06
6055.68
5594.89
4571
4168.25
3427.68
2813.64
2471.23
2053.62
1531.53
1180.85
771.738
531.922
143.308
-181.658
-504.469
-784.903
-1094.87
-1414.72
-1675.2
-1897.44
-2052.11
-1992.78
-2072.4
-1930.13
-1800.94
-1583.48
-1420.97
-1160.56
-928.363
-612.502
-360.919
-96.401
87.1678
187.302
84.7086
-15.9677
-301.252
-469.226
-1070.03
-954.147
-1628.32
-1581.57
-1980.72
-1754.57
-2312.76
-2172.94
-2160.61
-2132.39
-2119.65
-2115.45
-2114.21
-2124.53
-2139.04
-2152.47
-2186.7
-2213.06
-2242.97
-2285.5
-2343.78
-2371.18
-2433.37
-2498.76
-2575.56
-2618.68
-2696.22
-2778.51
-2891.85
-2979.69
-3045.38
-3140.85
-3247
-3387
-3512.45
-3635.45
-3744.1
-3843.95
-3951.44
-4071.75
-4199.63
-4342.32
-4455.76
-4544.28
-4603.19
-5787.02
-12947.7
-68300.2
-24892.7
-3791.88
3815.9
4146.15
4254.95
5871.12
8600.52
12336.6
23076.5
41970.9
68625.2
105209
143618
103879
68416.7
48953.1
36657
28991
23481.6
19988.7
17511.1
16037.5
14734.6
13721.8
12626
12003.9
11449.5
10367.6
9652.53
8586.11
8119.66
7007.73
6639.28
5559.13
5083.04
4242.6
3597.82
3156.81
2549.47
2092.81
1561.69
987.752
564.543
257.968
49.0741
-186.314
-419.462
-676.267
-939.413
-1197.87
-1441.22
-1576.22
-1747.31
-1904.53
-1875.24
-1987.49
-1887.08
-1789.08
-1578.99
-1435.23
-1186.25
-969.084
-708.01
-496.663
-277.14
-120.681
22.2803
57.2962
73.6338
-187.675
-307.353
-944.837
-744.672
-1538.4
-1178.53
-2036.41
-1713.56
-2249.56
-2117.44
-2106.95
-2080.82
-2070.78
-2065.45
-2067.33
-2080.38
-2087.21
-2108.98
-2145.06
-2155.34
-2196.82
-2250.71
-2284.59
-2317.23
-2381.25
-2465.37
-2512.62
-2545.87
-2640.69
-2741.85
-2838.91
-2906.28
-2957.36
-3073.85
-3187.4
-3327.4
-3445.83
-3553.97
-3644.07
-3747.63
-3862.72
-3987.84
-4150.04
-4310.17
-4470.81
-4631.75
-5059.38
-6357.43
-20446.2
-70256.1
-6569.32
-4270.13
3415.51
3523.31
4518.46
7367.29
13405.4
22726.8
42134.3
75701.2
121778
139793
98611.6
69306.1
48937.3
35794
27409.6
21672.8
17967.9
15161.4
13021.7
11586
10543.1
9710.68
9095.45
8677.08
8641.5
8291.52
8248.41
7691.18
7486.42
6475.25
6150.49
5134.54
4588.52
4008.96
3327.79
3032.57
2475.51
2049.26
1606.8
1065.11
614.116
243.394
114.756
-164.635
-408.401
-638.164
-895.409
-1092.27
-1374.62
-1561
-1812.27
-1973.2
-1984.82
-2043.03
-2039.9
-1870.78
-1685.65
-1508.48
-1263.81
-1042.3
-769.357
-511.459
-230.823
-21.0273
153.125
142.749
97.792
-220.145
-292.787
-774.585
-596.932
-1442.04
-849.845
-2014.34
-1662.34
-2176.9
-2052.95
-2044.64
-2020.91
-2013.11
-2008.66
-2012.99
-2024.18
-2034.11
-2059.71
-2085.04
-2103.25
-2146.06
-2199.41
-2210.33
-2269.29
-2336.29
-2403.07
-2429.17
-2495.23
-2581.19
-2682.32
-2755.99
-2809.08
-2901.69
-3003.77
-3129.51
-3237.4
-3334.7
-3437.89
-3553.56
-3654.94
-3781.59
-3920.44
-4043.17
-4146.9
-4205.31
-4264.89
-4582.89
-7951.09
-36667
-51219.3
-5565.81
-3869.44
4862.28
5200.01
8008.15
13570.4
25905.8
49016.7
80937.9
125436
133013
93390.3
65744
47257.7
34721.5
26506.9
20772
16907.8
14203.6
12242.4
10695.8
9422.05
8686.4
8247.2
8018.92
7687.75
7540.6
7411.4
7461.26
7281.5
7198.04
6910.82
6291.69
5894.24
5032.01
4569.72
3775.28
3175.72
2659.02
2143.1
1767.2
1225.05
648.206
71.4582
-273.452
-480.411
-759.225
-893.043
-1177.01
-1367.31
-1646.92
-1716.28
-1899.87
-2038.87
-1880.13
-2149.58
-2099.93
-1951.61
-1710.6
-1511.41
-1293.66
-1068.89
-811.91
-571.098
-319.773
-160.555
-45.862
25.7189
92.6353
-85.2026
-192.67
-518.644
-434.704
-1241.01
-505.497
-2023.54
-1601.93
-2095.71
-1980.17
-1974.34
-1953.41
-1947.88
-1945.5
-1952.25
-1959.61
-1975.1
-2004.77
-2015.25
-2047.93
-2094.62
-2124.18
-2153.67
-2210.44
-2277.87
-2317.08
-2370.31
-2433.1
-2525.95
-2593.18
-2657.01
-2738.38
-2820.19
-2945.14
-3049.62
-3130.07
-3219.93
-3329.94
-3434.91
-3578.05
-3703.84
-3880.26
-3932.11
-3968.61
-4143.64
-4216.8
-5411.68
-11102.5
-61917.3
-38231.5
-4116.47
-3589.59
5761.36
9792.73
17327.9
27718.6
51764
91344
134798
122027
85040.9
60451.8
43726
32283.8
24809.6
19519.8
15865.6
13302.8
11478.3
10065.4
9073.59
8266.57
7680.77
7276.99
7170.38
7020.84
6929.42
6848.32
6735.54
6769.57
6585.96
6389.2
6037.12
6161.32
5305.05
4904.23
4124.08
3221.9
2714.84
2073.06
1710.96
1228.07
810.627
68.6323
-258.129
-486.297
-783.71
-869.89
-1112.74
-1297.1
-1667.04
-1731.7
-1979.65
-2085.05
-2181.99
-2086.59
-2165.53
-2125.99
-1898.43
-1700.49
-1467.76
-1232.45
-933.175
-653.225
-350.569
-141.49
-38.7927
227.859
202.915
-42.5629
-99.1471
-401.255
-303.061
-1074.01
-270.33
-1943.83
-1533.43
-2006.82
-1899.94
-1896.86
-1879.25
-1876.12
-1875.77
-1884.7
-1892.2
-1909.66
-1934.1
-1951.14
-1985.15
-2025.31
-2052.06
-2089.9
-2153.48
-2195.3
-2239.39
-2294.48
-2380.84
-2450.28
-2489.06
-2569.93
-2651.76
-2768.19
-2866.55
-2936.59
-2998.31
-3104.54
-3217.51
-3351.42
-3491.08
-3643.44
-3707.54
-3822.92
-3942.57
-4057.32
-4496.82
-5473.6
-16462.8
-71648.9
-8460.15
-2738.84
-1664.92
7781.22
15108.1
31911
54606.6
93299.7
143031
114157
78525.6
55555
40241
29697.7
22705.4
17910
14657
12409.5
10772.3
9552.95
8632.95
7962.02
7540.48
7183.42
6919.15
6724.72
6652.51
6539.28
6466.63
6211.24
6184.21
6062.55
6141.13
5947.89
5843.95
5592.62
4828.45
4231.64
3299.63
2646.13
2062.22
1671.58
1154.03
766.456
263.623
-353.759
-691.531
-1074.27
-1208.61
-1401.48
-1564.47
-1997.05
-2058.7
-2220.74
-2434.42
-2366.99
-2303.48
-2342.26
-2279.64
-2056.81
-1836
-1552.45
-1299.52
-1008.3
-732.991