/*--------------------------------*- C++ -*----------------------------------*\
| =========                 |                                                 |
| \\      /  F ield         | OpenFOAM: The Open Source CFD Toolbox           |
|  \\    /   O peration     | Version:  2.2.x                                 |
|   \\  /    A nd           | Web:      www.OpenFOAM.org                      |
|    \\/     M anipulation  |                                                 |
\*---------------------------------------------------------------------------*/
FoamFile
{
    version     2.0;
    format      ascii;
    class       volScalarField;
    location    "1.7";
    object      divBf;
}
// * * * * * * * * * * * * * * * * * * * * * * * * * * * * * * * * * * * * * //

dimensions      [1 -3 -2 0 0 -1 0];

internalField   nonuniform List<scalar> 
14161
(
3155.44
90.2732
504.209
428.699
442.734
429.929
438.625
438.888
430.366
445.903
445.245
425.053
436.833
425.901
387.841
375.321
356.953
310.649
248.807
200.676
112.227
42.7817
-50.4708
-120.199
-224.54
-321.439
-428.848
-480.684
-579.539
-657.893
-732.557
-823.2
-814.272
-735.412
-461.126
114.038
1705.68
6175.82
13203.7
52882.8
-89761.1
28277.8
21865.5
4324.24
6478.49
-31216.4
-31196.7
-32987.4
-33643.3
-33579
-33369.7
-32785.2
-33276
-32878.5
-31993
-31322.5
-30817.9
-29323.7
-27659.2
-27276.1
-26202.2
-24803.2
-22543.4
-20422.1
-18661.8
-16762.5
-15976
-14248.1
-12147.4
-10251.5
-8327.75
-6889.74
-5149.15
-3497.72
-2179.49
-1016.49
877.695
2305.69
3653.71
4846.72
5252.43
6086.69
8019.26
9724.94
9193.03
10397.4
10246.7
10288.5
11886
13230.8
10663.3
13536.8
11066.1
11188
12376.9
10107.9
8046.45
3676.42
104.571
-3184.8
-6145.74
-8216.09
-9191.99
-10655.9
-10925.3
-11808.7
-11372.1
-12674.3
-11846.9
-13416.4
-11275.7
-12630.3
-9853.51
-10302.5
-5082.98
-6743.62
1769.22
-3218.66
6640.11
2902.64
-157.608
256.622
179.123
187.522
177.4
177.087
175.523
162.331
166.613
156.86
132.586
129.845
121.929
69.1579
43.1208
9.81905
-52.0874
-114.322
-168.144
-268.105
-354.438
-462.486
-546.696
-652.824
-760.234
-880.139
-953.124
-1055.42
-1152.21
-1279.37
-1361.27
-1478.89
-1563.71
-1605.73
-1609.77
-1480.65
-345.478
-883.446
14705.9
-51031.4
-1129.33
3097.82
-1060.28
2823.6
-24302
-24140.4
-25420
-26467.3
-27451.5
-28870
-28203.6
-28659.1
-28943.9
-28868.1
-26845.6
-26131.3
-24830.2
-23924.5
-23069.9
-22774.5
-20889.1
-19616.2
-18387.8
-16190.5
-15170.5
-14145.9
-11794.7
-11204.9
-10073.3
-8914.91
-7704.61
-4975.57
-2781.75
-559.098
1555.87
2694.4
2902.12
4540.39
6392.85
8311.79
9377.16
9677.24
9711.16
9685.85
12463.9
11792.5
13060.6
25688.9
4169.99
15708.5
14878.1
11573.5
12869
8860.19
7609.96
5660.1
3891.69
2638.84
-564.18
-2249.8
-2867.02
-2496.96
-6316.4
-8145.2
-7260.93
-7911.33
-11382
-8260.28
-10945
-9382.66
-9876.16
-7158.52
-8755.91
-3936.02
-6077.47
1262.08
-2725.64
5489.67
2647.02
-396.965
13.8864
-62.0298
-52.8475
-66.5247
-66.8411
-74.8038
-92.6826
-94.7346
-104.527
-134.583
-147.881
-170.341
-223.577
-259.103
-298.206
-358.939
-439.687
-506.392
-611.94
-705.741
-816.426
-924.875
-1045.96
-1158.85
-1291.16
-1374.1
-1500.18
-1612.8
-1723.24
-1806.25
-1794.06
-1791.36
-1800.57
-1752.47
-1557.05
-2581.04
1460.25
-34474.9
-28968.9
-21948.4
1784.26
-4746.88
-2607.1
-23699.2
-25371.7
-27045.6
-26084
-27548.4
-29075.7
-27257.9
-25819
-26269.5
-26415.8
-24438.5
-25181.2
-23309
-22701.6
-20155
-21516.8
-19351.7
-17483.5
-15067.5
-12989.5
-12543.4
-10616.6
-8488.69
-8192.76
-5249.45
-3648.56
-3133.49
-1870.49
-162.846
574.956
2021.73
3310.4
6903.86
9311.33
9130.69
9378.41
7342.71
11866.5
15848.2
16937.9
9150.52
18681.2
26834
17468
34271.6
18285.1
18222.2
13261.7
9523.24
8429.88
5870.32
5360.95
3462.17
1974.93
4566.56
3347.18
2653.91
-6204.87
-412.266
4950.71
-10479
-5074.51
-1988.87
-8307.05
-7279.66
-4930.87
-7914.01
-4655.27
-6513.01
-1949.81
-4616.23
1599.12
-2973.96
4691.43
2395.8
-628.483
-219.158
-293.148
-283.839
-294.608
-299.324
-309.815
-328.779
-338.475
-345.739
-382.278
-406.112
-425.466
-491.224
-529.615
-575.078
-641.409
-720.982
-807.684
-908.66
-1016.3
-1133.37
-1242.71
-1358
-1482.77
-1607.05
-1718.83
-1832.24
-1952.22
-2100.39
-2253.7
-2485.87
-2748.68
-3320.41
-4111.7
-5253.38
-7406.45
-9489.03
-15034.8
-21714
-26463.3
-2532.28
-16137.6
-19139.1
-30148.7
-32851.5
-31525.1
-28409.7
-29225
-29006.7
-27970.2
-28214.6
-26333.5
-26314.2
-24938.7
-21557.7
-21895.5
-21390.6
-20941.7
-17881.7
-15357
-14921.5
-14200.6
-12289.1
-10209.5
-8550.08
-6856.38
-5890.78
-4093.46
-2499.65
-1065.57
875.26
1936.27
2851.55
4164.45
6075.65
8052.06
9267.22
11537.9
12379.6
11999.6
9171.64
7671.72
21608.8
30943.1
12555.6
33842.9
33810.9
15495.8
22029.9
19077.2
16610.1
16209.8
6678.13
4538.62
4815.94
4549.92
2849.1
393.557
-2154.42
2706.22
5575.62
-10004
-3908.2
3625.87
-5248.1
-7805
-2970.31
-5025.98
-3942.29
-5528.33
-2278.84
-4498.92
-441.601
-3535.91
1458.37
-2885
2935.18
2145.31
-850.432
-441.986
-512.279
-501.213
-510.978
-523.659
-529.657
-540.294
-560.342
-579.176
-604.673
-638.743
-678.438
-711.201
-765.202
-836.099
-896.908
-976.87
-1071.28
-1171.22
-1291.99
-1407.32
-1521.99
-1656.96
-1792.32
-1937.67
-2041.49
-2177.85
-2311.53
-2416.32
-2481.54
-2492.05
-2525.14
-2464.27
-2401.88
-2843.21
-4544.94
-6115.83
-14030.7
9419
-23845.3
-9150.65
-26764.7
-31465.8
-37186.3
-36891.2
-32316.1
-30069.8
-29251.4
-28370.1
-25483.2
-24492.5
-24208.8
-22047.9
-20510.5
-17742.3
-18132.9
-15915.5
-15370.3
-15066.5
-12391.1
-11410.6
-9651.06
-7373.05
-7127.62
-5592.84
-4154.68
-2305.05
-1589.36
-757.97
942.942
2232.36
2977.44
4100.1
6308.5
10105.1
12369
10339.8
10508.3
7333.46
16072.7
26946.6
28752.2
16379.7
-4275.81
38953
44847.9
15122.6
59555.2
16190.1
30913.9
15272
10023.6
14303.6
10603.1
5112.75
3162.79
4684.76
6308.23
4434.86
-6310.89
534.753
10019.1
490.836
-12595.4
814.503
1622.17
-3100.27
-4565.11
-387.774
-3145.01
-246.694
-3413.77
648.869
-3047.06
1345.73
-2972.68
2233.23
1901.75
-1062
-654.301
-720.3
-707.891
-715.848
-721.972
-732.665
-742.814
-769.279
-782.949
-811.027
-850.513
-888.795
-925.024
-987.445
-1052.75
-1126.89
-1206.37
-1308.03
-1399.62
-1522.21
-1639.61
-1768.8
-1889.02
-2027.22
-2157.51
-2286.6
-2399.06
-2539.04
-2685.09
-2896.56
-3140.94
-3542.35
-3955.09
-4723.39
-5891.62
-8145.55
-4579.41
-36320.1
2861.28
-24898.6
-23545.9
-29653.3
-30973
-41146.4
-38274.1
-34332.8
-29913
-27209.2
-24236.2
-19798.6
-20478.2
-20045.3
-20614.1
-17374.9
-17866.2
-16516.6
-14355.7
-13173.1
-12445
-10421.4
-10406.2
-8713.51
-7701.41
-6806.12
-4981.98
-3832.39
-1771.99
-412.607
818.325
1720.59
2932.12
4182.5
6372.79
8768.82
8313.69
7600.56
10918.3
17167.6
20177.7
18048
13072.7
3355.66
21447.7
49593
20450.3
23195.2
33308.7
21796.5
31479.7
31364.3
23353.8
23703.2
15958.8
10180.5
9599.18
8023.38
2885.28
-1649.1
3260.1
6759.87
1771.59
-12123.3
941.236
9154.79
-5302.64
-7118.7
466.395
-2983.02
-1007.19
-3205.99
446.91
-2986.01
645.863
-2836.52
1042.29
-2758.8
1385.13
1662.71
-1261.94
-854.466
-915.016
-899.512
-905.25
-913.549
-919.84
-928.605
-953.478
-978.038
-994.598
-1039.11
-1087.69
-1114.15
-1184.15
-1258.56
-1324.77
-1408.6
-1517.56
-1610.3
-1727.19
-1848.52
-1981.74
-2121.75
-2265.81
-2409.67
-2540.77
-2677.34
-2803.57
-2930.63
-2908.1
-2911.01
-2623.1
-2229.9
-1353.93
214.851
2534.41
3111.36
11122.9
-62243.3
-31260.9
9740.94
4301.33
3914.85
-11331.3
-10786.8
-13908.4
-15092.1
-16322.2
-15943.2
-14698.3
-16770.5
-15370
-15089.5
-15411.6
-14093.7
-13723.4
-12473.1
-10434.7
-9871.12
-7754.77
-5915.41
-4812.86
-4247.09
-3210.28
-2032.27
-1295.78
-118.566
1372.35
2375.32
3761.15
4910.27
5938.85
6717.14
8307.41
10283.1
13483.8
14213
13667.5
12885.6
17384.9
20399.1
26805.4
27600.2
17292.3
38341.3
33735.4
24807.5
23258.6
28933.7
26427.5
31742.6
26390.6
27037.7
19861.6
12387
7136.75
7234.46
10014.1
2999.11
-4119.25
2155.97
9042.34
748.519
-9055.15
2149.61
3333.64
-1446.96
-3656.54
898.361
-2508.49
591.087
-2607.15
1039.98
-2719.87
976.331
-2807.01
1155.93
1433.23
-1449.65
-1042.38
-1097.23
-1078.62
-1080.69
-1084.95
-1092.74
-1099.38
-1124.94
-1146.07
-1165.46
-1209.3
-1264.62
-1282.77
-1360.61
-1434.7
-1497.75
-1587.64
-1695.27
-1787.45
-1909.59
-2031.16
-2159.61
-2289.96
-2424.66
-2566.08
-2696.63
-2838.57
-2960.57
-3120.79
-3293.53
-3583.38
-3830.58
-4183.41
-4274.75
-4462.29
-4484.4
-4609.95
-17958.1
-138016
-3302.58
5579.88
7433.16
6126.06
-3853.99
-5420.02
-6003.02
-8395.76
-8677.4
-9919.12
-9392.54
-10395.4
-10094.2
-9948.08
-10152.7
-9632.62
-9418.22
-8478.18
-7883.17
-7396.83
-6500.39
-5715.57
-5685.62
-4083.29
-3415.32
-1861.17
-512.632
1207.9
1556.64
3196.34
4922.5
5452.46
6866.7
8298
9680.8
10788.9
12943.9
14159
14803.4
16318
17819.7
19882.1
21237.8
24397.2
37331.9
34508.5
31337.1
29455.8
33231.3
25192.1
31183.6
26581.1
26894.5
24140.4
23572.9
18711.1
14439
8809.93
2176.51
1370.19
5027.45
4504.44
-2820.06
28.2961
4050.91
406.694
-5812.81
202.442
36.3112
-936.336
-3229.01
835.066
-2810.23
997.036
-2732.76
828.633
-2741.7
906.114
1211.26
-1623.96
-1216.86
-1265.38
-1242.91
-1241.62
-1246.35
-1249.01
-1253.54
-1277.88
-1304.42
-1317.09
-1363.81
-1420.98
-1433.75
-1516.73
-1594.1
-1650.57
-1747.41
-1848.97
-1950.71
-2065.07
-2187.08
-2322.61
-2456.98
-2610.12
-2757.84
-2906.09
-3034.4
-3183.65
-3263.56
-3331.85
-3274.06
-3150.65
-2679.08
-1929.17
-1047.33
841.729
-1013.09
9587.04
-91127.5
-59706.9
3712
2748.71
5731.85
-2302.08
-4558.56
-6583.71
-8339.29
-9889.79
-10295.4
-9703.08
-11892.9
-10141.5
-10807.1
-9850.4
-9304.14
-7981.95
-7314.75
-6229.79
-5476.93
-4280.44
-3692.91
-2947.2
-977.377
-488.92
858.948
2472.42
3448.21
4296.09
4822.7
6459.94
7120.49
8678.9
9770.1
10964.7
11558.5
13636.8
14551.1
17107.9
18049.4
18289.8
20339.2
26094.7
35770.5
37004
33970.9
31839.6
23673.3
23652.9
24466.9
30170
23973.5
25078.3
25147.5
23445.8
22292.9
14224.4
9361.36
9805.2
8812.58
3293.76
2072.26
2485.76
2583.34
-367.478
-34.116
1055.87
424.053
-3391.21
1342.12
-1905.42
717.088
-2988.65
929.896
-3003.52
846.605
-2903.57
901.692
1001.14
-1784.64
-1377.77
-1419.98
-1393.93
-1388.74
-1388.45
-1391.44
-1394.25
-1415.93
-1442.82
-1454.9
-1499.58
-1553.61
-1575.99
-1651.36
-1725.85
-1787.05
-1884.43
-1982.99
-2088.03
-2197.39
-2320.97
-2448.77
-2583.5
-2718.37
-2857.18
-2998.6
-3151.43
-3302.01
-3444.18
-3647.25
-3927.85
-4248.09
-4744.15
-5297.7
-6115.11
-6985.93
-8394.99
-9428.23
-25568.6
-49563.9
-18424.6
-23516
-21854.5
-23429.4
-21908.1
-20183
-18281.3
-18429.3
-16327.6
-14705.4
-16302.1
-13136.9
-14545.9
-11559.6
-10593.6
-8412.69
-7617.3
-5908.5
-5389.26
-4313.99
-2845.45
-1516.87
174.009
848.515
1452.81
2696.98
2848.6
4689.38
5657.25
6935.55
7941.56
8862.35
9752.14
10344.7
10542.3
12427.4
14146.8
16844.6
19568.4
24270.2
26425.2
35301.8
41865.8
36321
25945.2
24143.6
21584.3
23693.3
19556.3
24998.5
24744.5
22285
24592.8
19842.4
22307.8
19846.6
17257.9
9374.56
4814.11
4210.24
4424.08
1663.95
1595.55
654.749
225.941
-340.714
129.661
-1195.91
785.815
-3874.44
1317.35
-3028.54
780.695
-3025.67
773.59
-2928.66
821.178
801.241
-1930.6
-1524.39
-1560.18
-1530.17
-1521.87
-1517.57
-1519.47
-1519.81
-1538.99
-1565.36
-1577.72
-1620.98
-1671.39
-1701.5
-1769.11
-1844.25
-1908.67
-2001.8
-2097.77
-2204.06
-2314.93
-2433.81
-2568.53
-2703.6
-2848.17
-3005.75
-3150
-3308.58
-3445
-3572.19
-3676.35
-3757.25
-3759.41
-3786.95
-3737.54
-3825.75
-3450.31
-4920.42
991.578
-12509.4
-39069
-12896.6
-21958.6
-19359.6
-20330
-18706.4
-18800.6
-16137.7
-18149.6
-17099.2
-16096.4
-14588.9
-10899.6
-12055.6
-10574
-10534.6
-8175.28
-8489.54
-5529.27
-4491.34
-2319.16
-1710.98
-619.427
766.691
1656.96
2997.83
4187.79
4754.35
6082.99
7354.41
7926.93
9134.32
10207.4
11181.3
12262.2
13464.5
15524.2
15892.1
19949.8
24804.8
30023.3
36157.8
46081.6
38887.5
29570.5
28191.8
21303.4
20351.8
21013.3
15470.1
19376.2
18557.7
20062.9
21184.9
19552.7
22000.3
18646.6
16412.7
11787.4
9886.5
6940.55
4615.76
2998.6
2478.02
1006
980.487
-502.153
566.298
-1493.83
733.839
-2294.38
1122.48
-3319.23
1061.16
-3131.57
866.504
-3085.55
869.357
614.982
-2061.96
-1656.57
-1686.09
-1652.25
-1640.49
-1630.95
-1633.56
-1632.18
-1646.01
-1670.32
-1689.27
-1721.56
-1769.21
-1818.47
-1864.63
-1940.57
-2019.5
-2096.68
-2194.96
-2299.22
-2411.25
-2526.87
-2657.43
-2786.32
-2926.53
-3060.45
-3206.87
-3374.06
-3528.47
-3704.75
-3916.93
-4224.7
-4587.34
-5107.96
-5720.56
-6537.77
-6805.75
-8591.39
-5801.82
-30015.2
-41862.4
-7626.17
-19073.6
-18121.7
-20664.3
-18964.7
-19220.3
-20811.8
-19862.4
-17617.2
-19518.2
-17951
-15427.7
-15273
-12058
-11871.2
-8883.39
-8328.95
-6132.59
-4318.8
-1834.1
-390.149
1339.26
2809.18
4182.06
5214.18
5998.46
7080.42
7875.05
8945.85
10068.5
10930.2
11671.7
12962.3
14259
15572.3
16661.7
17548.7
21369.2
19817.9
38598.6
38327.7
43584.6
30985.4
27884.1
24721.6
25608
23524.1
23769.2
18907.1
14073.1
21617.5
17044.8
21585.5
17157.2
20700
18019.4
20609.6
16539.3
10634.7
6160.97
4388.71
2722.35
2545.51
1219.63
1341.26
-169.691
802.989
-1318.63
959.374
-2650.65
930.426
-3214.57
628.75
-3283.94
764.622
-3004.89
744.159
441.132
-2177.86
-1773.89
-1797.44
-1759.7
-1745.05
-1732.39
-1731.94
-1730.05
-1741.22
-1762.89
-1784.59
-1813.09
-1855.41
-1910.4
-1954.39
-2025.22
-2109.56
-2180.31
-2278.28
-2378.07
-2491.57
-2608.81
-2733.83
-2867.46
-3011.88
-3162.22
-3320.23
-3478.2
-3635.44
-3789.51
-3917.93
-4043.67
-4136.91
-4216.86
-4226.48
-4010.53
-4220.86
-5463.86
-1405.44
-62052
-40487.7
-12457.3
-16723.2
-13972
-18213.1
-15932.6
-18002.5
-20475.4
-17206.8
-16029.8
-15033
-11590.5
-13365.4
-8973.15
-7219.25
-6198.09
-3200.95
-3214.28
-1751.73
399.373
1470.32
2641.81
3921.45
4557.75
5522.21
6308.42
8039.31
9347.54
10214
11177.3
12494.1
13744.2
14855.2
16253.3
17572.4
20146.6
21337.7
26394.8
31365.4
38795.7
47000.3
50729.6
47609.7
41415.4
32011.3
30832.9
25350.4
24762.1
23427.1
22488.6
16506.5
18025.7
15687.8
17833.5
15412
18276.7
18005.9
17963.3
15028.5
11038.6
7500.78
5480.39
3361.59
3281.95
1433.02
1716.51
-23.1806
873.76
-1281.59
1281.58
-2631.63
1203.1
-3101.04
734.326
-3158.51
697.353
-3150.8
777.226
282.254
-2278.53
-1876.41
-1894.35
-1853.14
-1835.61
-1818.75
-1816.44
-1815.86
-1819.98
-1840.43
-1867.33
-1885.84
-1929
-1989.96
-2021.52
-2097.02
-2182.22
-2244.34
-2342.69
-2444.7
-2549.73
-2668.19
-2788.28
-2921.31
-3053.63
-3189.25
-3343.24
-3505.24
-3685.09
-3879.62
-4055.36
-4364.96
-4716.17
-5136.19
-5674.95
-6097.76
-6085.91
-8214.91
-9705.43
-71724.3
-46762
-13773.1
-15499.8
-15879.5
-18171.6
-16745.3
-19226.2
-18556.8
-15419.5
-16514.7
-9865.79
-13310
-10805.9
-6583.81
-5486.19
-4082.44
-3190.05
744.827
1793.11
1968.4
2708.41
3012.66
4025.09
5201.93
5749.98
7009.15
7881.16
8579.31
10123
11203.8
12586.4
13999.5
15605.1
16213.5
17218.6
19373.6
21509.4
26260.9
34122.9
44999.7
53469.5
54264.9
45660.8
38346.9
32556.8
30681.7
27226.2
24246.6
19849.2
22979.8
17681.4
20463.2
13267.2
18009.9
13296.6
16942.3
15057.3
17021.3
16150.2
12894.4
7739.76
6178.54
3391.54
3410.57
1594.45
2019.1
341.274
1080.42
-1108.06
1462.28
-2770.43
1173.79
-3299.43
609.789
-3050.45
641.943
-3089.5
666.206
137.259
-2363.48
-1963.83
-1976.67
-1932.49
-1912.6
-1892.48
-1887.97
-1887.31
-1887.54
-1905.61
-1936.16
-1949.86
-1989.21
-2052.34
-2084.9
-2151.33
-2233.72
-2306.25
-2391.31
-2496.42
-2601.59
-2709.76
-2832.73
-2964.57
-3104.78
-3247.48
-3406.31
-3563.19
-3745.5
-3918.83
-4069.95
-4238.25
-4394.42
-4551.46
-4798.67
-4954.07
-5033.36
-6994.54
-6691.97
-49725.3
-58439.4
-32802.9
-35121
-29709
-24862.5
-22568.1
-20015.1
-16479.9
-14417.5
-15868.9
-14336.8
-12985.6
-11284.6
-7311.34
-7471.83
-3340.8
-2359.75
-1864.08
2149.83
2547.92
2596.48
5030.56
5023.71
6619.61
7244.66
7501.11
8678.97
9682.35
10465.3
12151.1
12922.5
14147.1
14709.8
16176.2
17382.2
19861.3
21137.2
28947.3
39673.7
58810.8
55178.9
52774.4
49912
45135
34680.6
32163
28333.5
24754.9
23653.2
17854.9
21613
17510.8
17055.6
18111.8
14374.8
16743.7
14575.7
15755.8
14840.4
13899.1
9089.51
7649.58
4661.98
4018.33
1602.97
1965.22
332.516
1119.09
-1036.54
1651.93
-2875.95
1542.38
-3251.09
977.629
-3015.25
514.309
-3285.24
736.244
8.20379
-2433.03
-2036.49
-2044.86
-1998.23
-1975.98
-1952.64
-1945.94
-1946.58
-1941.51
-1959.32
-1990.44
-1999.15
-2039.88
-2097.59
-2134.73
-2193.53
-2273.07
-2357.15
-2423.93
-2528.35
-2640.14
-2735.53
-2859.25
-2978.23
-3131.76
-3252.99
-3396.47
-3552.69
-3737.33
-3943.96
-4142.62
-4423.46
-4796.61
-5158.58
-5649.02
-6222.94
-6651.9
-8640.28
-9030.77
-43796.2
-50801.5
-31107.9
-41373.3
-36439.5
-31354.4
-24682
-21378.6
-16928.5
-15492.2
-14837.9
-12150.8
-10048.2
-7341.1
-6197.19
-2572.66
-1935.33
1527.97
231.007
1594.2
2337.89
3963.18
4504.73
5880.92
7142.88
7662.66
8308.84
9253.6
10008.7
11263
11929.2
12664.5
13015.4
14238
15499.3
17595.7
20955.4
26509.9
36601.6
48100.6
66266.9
59452.4
49567.6
36143.3
43547.5
36375.9
31974.7
28897.7
22145.4
20212.6
15469.8
15280.3
15310.8
14170.6
15135.6
14242.9
15167
13519.9
14892
14127.2
13545.3
9411.94
6832.07
4374.24
3792.82
1664.13
2186.22
367.445
1238.91
-1077.2
1575.71
-2828.26
1574.73
-3602.95
1018.26
-2932.66
191.688
-3317.22
545.976
-106.236
-2486.99
-2094.26
-2098.76
-2050.44
-2026.1
-2000.83
-1990.94
-1992.61
-1985.61
-1999.84
-2028.26
-2041.15
-2077.73
-2129.65
-2174.3
-2223.97
-2300.27
-2388.75
-2449.05
-2546.36
-2655.02
-2766.93
-2864.13
-2994.64
-3129.95
-3291.09
-3418.04
-3571.09
-3735.67
-3904.02
-4069.66
-4271.69
-4414.74
-4509.72
-4645.18
-4782.68
-5034.31
-7048.22
-15827.7
-60036.8
-59394.2
-30009.5
-40987
-32836
-27329.6
-16791.1
-21120.2
-17953.4
-19406.3
-12992.5
-12497
-1814.13
-6110.14
-109.494
-250.437
1428.18
3578.28
3642.85
5302.99
5479.43
6114.95
6978.23
7356.87
8109.83
8881.69
9587.75
10673
11006.6
11660.2
12876.9
13192.2
14079.3
15558.4
17017.7
18955.6
23349.9
33684.5
55075
62137.7
57523.4
47201.1
50927.8
35566.2
33168.1
32513.7
37564.9
25896.8
23519.7
15749
19466.7
11623.7
13620.4
10576.4
12485.3
11920.7
13051.4
12427.1
13563.8
13050.9
13613.3
10718
7806.66
5671.59
4550.2
2567.26
2779.47
863.934
1414.33
-797.167
1640.2
-2649.28
2009.59
-3744.13
1479.92
-3213.9
-50.5794
-3397.21
490.609
-204.374
-2525.83
-2137.82
-2139.15
-2089.35
-2063.37
-2036.7
-2025.03
-2024.84
-2018.19
-2029.5
-2054.44
-2072.53
-2102.66
-2147.91
-2203.21
-2244.65
-2315.16
-2399.65
-2468.63
-2555.6
-2657.27
-2774.85
-2867.39
-2996.95
-3105.26
-3264.87
-3409.29
-3531.98
-3683.94
-3872.01
-4085.13
-4354.62
-4689.75
-5031.54
-5518.34
-5785.61
-7071.31
-10496.5
-31244.1
-83046.6
-50148.1
-36285.5
-36385.9
-36974.3
-21024.9
-16273.4
-17522.7
-14715
-10706.5
-7635.91
-5150.21
-3162.82
-303.014
1252.97
1884.71
4460.42
5193.55
7019.39
6829.63
6171.97
7760.76
7770.12
7871.77
8152.75
9019.41
10274.6
11232.8
11207
11994.4
12884.1
13638
14774.3
15068.4
17929.2
23362.7
32834.7
52690.9
74496.8
73622.3
49673.4
39714.9
50925.3
32479.1
29841
22817.9
20931.9
21879.7
23316.9
22486.7
14033.4
14775.4
9095.7
11050.3
10272
9843.67
10531.4
10235.7
11977.8
11492.6
12729.8
10136.2
7574.22
5672.63
4668.49
2784.21
2993.56
1118.88
1756.65
-670.162
1610.84
-2217.33
2210.09
-3569.42
1600.51
-3397.77
-386.54
-3128.56
120.518
-287.593
-2549.56
-2167.14
-2165.98
-2115.06
-2088.04
-2060.92
-2046.46
-2044.59
-2040.95
-2046.59
-2069.15
-2095.78
-2114.27
-2158.76
-2216.36
-2255.22
-2318.94
-2398.75
-2480.72
-2547.28
-2646.27
-2764.64
-2870.9
-2959.06
-3100.6
-3226
-3406.86
-3527.08
-3631.22
-3781.65
-3933.29
-4051.83
-4078.38
-4008.55
-3708.34
-3218.98
-3591.63
-3908.24
-47874.2
-32803.1
-41438.8
-26596.8
-40060.3
-33486.1
-28169.1
-16346.3
-15505.1
-9707.09
-10170.2
-7141.16
-7391
-3252.81
-4218.41
321.924
1272.33
3555.08
4572.55
7280.95
6766.85
7769.98
7903.03
8090.99
8443.25
9157.02
9875.65
10972.8
11906
12856.2
12785.3
14339.9
16824.6
19066.4
21135.8
29843.5
43535.7
70579.5
84207.5
70710.1
48324.2
42454.5
29891.2
21310.2
30524.2
28268.8
22143.3
14522.2
20932.1
15402.6
16340.2
13178
11512.2
11255.4
8753.91
8580.04
8741.92
9776.48
9492.51
10511.8
10220.8
11757.2
9804.18
8104.78
6226.1
5270.64
3332.13
3417.93
1538.96
1981.45
-453.633
1739.3
-2014.37
2434.44
-3376.12
1690.78
-3672.92
-330.677
-3185.26
47.6897
-354.905
-2558.79
-2182.93
-2179.97
-2128.26
-2100.78
-2073.54
-2056.7
-2053.27
-2053.79
-2053.14
-2072.33
-2104.66
-2119.31
-2158.24
-2215.88
-2257.4
-2312.58
-2388.64
-2478.46
-2533.92
-2625.5
-2732.56
-2864.79
-2929.94
-3061.49
-3174.49
-3318.32
-3541.63
-3584.96
-3746.16
-3951.58
-4197.23
-4445.34
-4813.73
-5283.55
-5746.77
-8020.1
-9124.64
-72535.2
-19559.2
-10321.4
-22979.3
-36128.4
-42672.6
-37969
-33533
-29782.6
-16542.9
-16227.4
-9306.31
-10336.9
-4941.3
-4885.31
-85.2169
215.198
3744.2
4704.5
5959.8
6261.22
6851.75
7418.15
8449.02
9162.35
10480.4
10026.6
11464.2
14227.1
16160.9
16870.8
21466.9
28514.3
45121.8
58210.3
78091.1
91868.8
97338
55709.8
24598
6543.37
11976.8
11932.1
4528.38
7462.55
8934.62
13296.9
17688.3
13970.7
14928.7
11827.8
12060.4
9242.72
7618.61
8633.23
5309.83
5282.62
6328.89
6523.09
7856.44
8345.3
9981.38
9079.55
7472.03
5998.38
5410.87
3714.07
3770.15
1876.16
2172.99
-143.282
1869.64
-1649.14
2662.11
-3270.25
1812.96
-4060.42
-201.313
-3102.68
-181.605
-407.559
-2553.88
-2185.39
-2181.29
-2128.84
-2101.83
-2075.46
-2056.51
-2050.58
-2056
-2049.87
-2067.55
-2100.46
-2114.11
-2149.8
-2203.78
-2249.4
-2295.95
-2367.3
-2459.76
-2511.47
-2597.24
-2696.97
-2832.89
-2902.43
-2998.44
-3140.4
-3256.32
-3448.5
-3562.53
-3661.55
-3763.36
-3932.84
-4073.44
-4188.34
-4398.71
-4502.41
-6407.72
-17134.6
-66831.6
-12291.5
-14164.9
-16558.1
-24831.9
-33986.4
-33665.4
-36366.7
-37897
-35789.7
-26467.8
-24703.6
-10980
-11970.6
-2621.01
-4086.42
3247.21
4193.06
6072.78
6190.95
6842.29
8532.95
9312.75
10896
12380.6
14852.4
14480.6
20881.1
27974
45748.4
54923.7
68997.3
85949.4
107551
111416
89111.2
59918.4
28070.3
12943.3
1973.6
-8467.48
-14848.3
-12370.2
-5590.36
-3573.68
609.816
4451.12
4412.22
4037.41
6075.95
9515.73
9455.3
9127.16
7913.05
6515.89
5818.64
4970.35
5566.1
5985.16
6533.65
6954
8478.08
8024.18
7363.3
6260.55
5970.65
4277.88
4144.81
2148.79
2378.15
288.29
1919.17
-1489.98
2588.02
-3215.98
2017.41
-4197.11
413.362
-3254.55
13.3323
-445.171
-2535.58
-2175.24
-2170.67
-2118.43
-2091.45
-2066.51
-2046.5
-2038.52
-2044.73
-2039.25
-2052.99
-2083.51
-2101.12
-2131.74
-2179.86
-2233.63
-2270.42
-2338.66
-2422.04
-2487.74
-2557.93
-2654.95
-2759.01
-2887.51
-2945.78
-3061.59
-3183.87
-3328.53
-3554.94
-3623.29
-3769.21
-3909.56
-4205.44
-4430.08
-4771.81
-5598.87
-9066.58
-27095.7
-70414.1
-15197.7
-6981.53
-9110.41
-15122.8
-22376
-24704.6
-30161
-36534.9
-45740.6
-30704.3
-35581.9
-15887.7
-21034.3
-6386.67
-3276.51
7018.48
10146.3
8748.86
10102.7
9892.52
15652.1
15368
21602.6
26999.7
45628.9
55857.9
71188.5
88740.7
109193
120917
103867
86030.9
58714.2
46798
34584.7
23345.7
6707.25
-1397.06
-8776.15
-14782.3
-19544.5
-21902.2
-17227.3
-8351.47
-4717.08
-4865.63
-1975.35
-266.012
1648.44
2068.44
2120.86
4148.54
4325.98
3211.14
3021.44
3098.9
3322.2
3681.88
4572.09
5552.47
7274.02
7076.69
6843.82
5889.93
5711.98
4085.56
3979.79
2012.38
2536.7
465.509
2033.38
-1280.22
2518.67
-3245.2
2019.32
-4417.34
762.771
-3528.23
190.055
-468.971
-2504.53
-2152.88
-2148.51
-2097.17
-2070.27
-2047.17
-2026.73
-2018.06
-2021.72
-2020.02
-2030.31
-2056.46
-2080.34
-2103.67
-2147.31
-2204.76
-2237.74
-2300.34
-2372.46
-2459.15
-2506.08
-2599.6
-2691.25
-2836.88
-2888.68
-2976.76
-3127.06
-3223.53
-3408.27
-3577.26
-3622.25
-3665.23
-3788.01
-3812.07
-3694.66
-4550.04
-5314.78
-63305.1
-37467.7
-13326.5
-7856.98
-6240.55
-6347.29
-8833.27
-5823.3
-11215.9
-21991.9
-28275.4
-42397.1
-39344.5
-34002.1
-22933.4
-7171
2041.49
9052.62
12994.1
16236.6
28992.9
29964.2
50196.2
58780.2
78790.4
96958.7
117639
120457
106691
88276.1
65297.1
52923.5
49340.4
39106.7
25322.1
17040.8
12617.4
9038.42
1685.84
-3531.73
-8927.31
-13397.9
-18599.1
-20992.1
-26949.6
-27836
-21551.6
-12859.3
-5997.88
-2434.46
-1678.94
256.839
865.377
2829.14
3189.15
2533.91
2164.3
2078.03
2958.49
3165.74
4231.58
4448.47
6047.9
6111.79
6792.46
5852.55
5683.71
4336.56
4428.54
2324.26
2892.51
723.304
2077.41
-1231.2
2380.69
-2966.79
1871.04
-4089.23
1460.5
-3771.95
464.204
-479.067
-2461.54
-2119.12
-2115.5
-2066.07
-2038.76
-2017.2
-1998.14
-1987.47
-1990.48
-1993.18
-1997.67
-2020.51
-2051.37
-2067.45
-2107.76
-2162.08
-2200.4
-2253.19
-2317.16
-2411.77
-2454.35
-2535.11
-2626.16
-2735.91
-2848.23
-2911.46
-3032.07
-3134.62
-3299.5
-3474.23
-3583.99
-3731.08
-3862.24
-4062.19
-4256.88
-6306.1
-10279.8
-69119.9
-16870.4
-7511.7
-8794.19
-9616.5
-11472.8
-12746.9
-5604.7
-7129.73
-13639.6
-17004.8
-30388.6
-37483
-45735.7
-33574.5
-10285.7
12195.8
29172.6
51855.5
56487.3
86226.2
104506
127124
116562
107381
87523.6
64904
54855.8
56103.4
43706.3
32531.1
23532.8
20694
16990.7
10891.1
7435.17
5054.81
3961.86
1458.34
-1295.95
-4781.08
-8690.54
-12277.3
-15587.4
-19556.9
-23705.8
-20728.7
-12977.8
-9494.69
-10081.7
-6132.96
-2362.46
-1625.5
-1526.9
-334.537
718.488
1162.21
1123.28
1217.85
1621.7
2086.57
3112.11
4691.9
5097.72
6149.72
5355.41
5279.41
4055.84
4132.36
2235.79
2767.92
745.271
2009.79
-1235.72
2321.4
-2858.98
2236.21
-3823.7
1641.66
-4150.09
443.381
-476.656
-2407.37
-2074.55
-2072.15
-2025.12
-1998.66
-1977.19
-1961.01
-1948.8
-1949.76
-1957.85
-1958.06
-1977.09
-2009.7
-2025.35
-2060.35
-2109.07
-2157.58
-2194.94
-2258.05
-2338.53
-2407.49
-2460.84
-2549.42
-2634.7
-2791.13
-2823.61
-2920.18
-3076.19
-3163.12
-3287.01
-3572.8
-3677.64
-3939.82
-4346.98
-4757.24
-8065.58
-20401.2
-66320.8
-16705.7
-4493.67
-4690.82
-6144.58
-7218.72
-7496.29
-771.411
-1819.29
-2191.19
-7678.01
-10208.9
-16682.1
-20280.8
-10790.9
8471.61
58465.4
95477.4
130169
130527
108711
94700.3
68372.9
61964.1
63692.2
49490.2
45102.3
31418.6
30260.2
25173.4
15245.1
10174.8
7733.41
9384.93
6192.47
5199.94
2167.01
2207.49
674.424
-5.96598
-1272.56
-3818.66
-6693.36
-10000.3
-13308.9
-17538.1
-22584
-26089.4
-20483.7
-11359.8
-7888.18
-7442.69
-5653.26
-3168.3
-1804.94
-237.346
320.283
250.541
353.857
342.418
1052.98
2019.81
3709.56
4096.89
5503.24
5077.25
4840.95
4149.56
4128.71
2514.51
2848.41
964.244
1975.09
-550.534
2021.6
-1851.19
2165.71
-3467.81
1608.12
-4492.3
1009.12
-462.245
-2342.83
-2020.17
-2019.3
-1974.96
-1949.58
-1929.2
-1915.4
-1902.61
-1901.99
-1911.92
-1911.92
-1927.89
-1957.12
-1976.85
-2005.88
-2048.24
-2104.83
-2133.08
-2191.83
-2255.13
-2355.18
-2385.9
-2463.18
-2542.26
-2662.27
-2777.41
-2828.92
-2966.17
-3036.89
-3145.88
-3226.44
-3268.75
-3147.54
-3180.14
-3582.21
-4957.06
-39314.6
-47757
-10738.1
-3254.78
-3203.62
-3269.19
-3714.13
-4633.99
2754.13
2585.27
2211.5
3148.02
3397.41
6845.31
13835.5
40440.8
105743
148519
110813
91383
63278.3
62876.2
53392.8
45062.7
39922.8
34369.1
29769.4
22823.7
21979.4
16260.9
17347.6
15819.4
12224.5
10725.1
10159.4
8443.85
6891.49
5233.61
3683.82
2590.77
1027.09
-65.2234
-1151.88
-2433.12
-4985.76
-7846.57
-11415.6
-15445.3
-19643.5
-20125.2
-15639.6
-12921.1
-8910.1
-5103.52
-3271.84
-3158.93
-3088.96
-2487.14
-1673.75
-705.143
-99.5199
349.025
883.369
2547.55
2942.96
5031.29
4649.87
4639.49
4068.06
4028.96
2442.42
2762.96
995.378
2018.17
-371.746
2026.01
-1504.09
1990
-2949.31
1874.22
-4678.25
1190.9
-436.96
-2268.69
-1956.87
-1957.76
-1916.34
-1892.66
-1872.96
-1861.42
-1849.42
-1847.69
-1856.41
-1858.85
-1871.93
-1897.66
-1921.53
-1943.53
-1982.51
-2039.84
-2066.49
-2117
-2176.08
-2267.56
-2310.08
-2375.44
-2456.23
-2529.98
-2694.2
-2730.41
-2854.41
-2958.17
-3149.14
-3233.77
-3423.99
-3719.19
-3999.55
-5607.5
-8261.14
-62034.2
-26629.8
-8858.08
-5864.49
-5635.89
-4909.58
-4526.12
-4442.74
4250.22
5256.46
6916.65
9563.62
16297.1
36634.8
87103.9
166720
143873
78587.6
58222.3
41713.3
39788.4
33052.5
26603.2
26458.7
19922.5
20821
17363.7
14857.2
16375.6
11143.9
14202.5
13876.6
12341
11258.2
10298.8
9487.04
8875.4
7609.2
7504.93
5184.63
3498.48
1447.06
-72.3887
-1365.54
-2319
-4062.46
-7004.04
-10302.1
-14278
-18543.5
-21550.8
-15797.3
-10664.6
-8238.03
-7276.15
-5903.46
-4428.99
-3656.65
-2256.53
-1878.61
-1612.44
-663.123
101.033
1596.18
2157.93
4320.96
4278.07
4232.41
3999.13
3832.6
2538.1
2787.01
1322.38
2101.69
69.1809
1849.87
-1196.33
1771.54
-2570.24
1471.16
-4321.22
1449.07
-401.635
-2186.06
-1885.34
-1888.33
-1849.96
-1828.49
-1809.96
-1799.66
-1789.12
-1787.09
-1793.53
-1799.5
-1809.12
-1831.02
-1858.62
-1876.63
-1911.69
-1959.37
-1996.58
-2037.34
-2097.55
-2152.26
-2253.19
-2280.62
-2361.25
-2421.14
-2538.43
-2644.71
-2749.99
-2801.44
-2976.55
-3094.02
-3130.15
-3480.92
-3534.54
-5456.03
-12784.9
-55216.9
-11918.4
-5713.05
-6432.17
-6321.58
-6598.17
-6177.94
-5139.64
4028.95
6247.39
11386.9
22099.4
44839.4
98688.1
184157
134097
82433.4
53931.5
33390.9
31601.1
22691.9
18694.2
16436.2
12337
14680.9
11981.7
12188.2
14001.9
9035.26
13116.2
11195.1
9668.97
12143.4
11881.3
11347.1
11105.5
10852.3
10257.9
9231.11
7563.8
6649.26
4043.58
2184.41
373.452
-986.573
-2352.33
-3745.22
-6430.77
-9505.45
-13026.1
-16299.5
-18579.8
-15320.2
-11767
-8845.29
-5913.14
-4300.81
-3883.31
-3538.35
-3208.39
-2793.05
-1741.21
-913.778
600.19
1417.41
3570.41
3783.43
3781.06
3844.55
3548.31
2516.88
2704.75
1380.08
2068.17
177.479
1697.4
-1001.84
1675.4
-1988.45
1535.39
-3365.38
1077.49
-357.398
-2095.85
-1806.4
-1811.75
-1776.66
-1757.61
-1740.33
-1731.23
-1722.31
-1719.92
-1725.29
-1733.38
-1740.6
-1759.19
-1787.24
-1805.27
-1835.77
-1872.13
-1924.7
-1951.74
-2005.62
-2057.92
-2142.65
-2198.7
-2266.49
-2349.26
-2377.26
-2516.95
-2634.81
-2723.64
-2883.32
-3063.3
-3411.26
-3920.9
-4424.11
-7631.13
-20637.3
-56342
-8816.95
-923.643
-896.504
-1902.12
-2497.31
-2910.44
-2106.82
6417.45
10460.8
21677.5
46520.1
104251
187241
124432
78769.3
47140.2
32133.8
24162.4
19253.6
15563.2
12931
13064.8
11269.7
9526.5
10097.1
11509.2
7671.49
10253.4
11092.6
7185.73
10939.8
10023
8625.13
9719.23
8865.31
9277.95
9351.61
8444.33
8058.99
8636.21
6626.46
4895.81
2361.68
622.11
-584.42
-2103.39
-3484.44
-5966.1
-8992.32
-12086.9
-15011.1
-16959.5
-12814.4
-9700.32
-7312.94
-6324
-5629.06
-5020.33
-4271.31
-3500.69
-2598.47
-1841.09
-310.427
601.48
2759.08
3350.83
3454.21
3738.65
3034.13
2623.77
2500.99
1472.66
1924.11
411.631
1564.9
-749.699
1732.7
-1451.72
1295.04
-2826.81
1031.43
-305.212
-1999.06
-1720.94
-1728.86
-1697.07