/*--------------------------------*- C++ -*----------------------------------*\
| =========                 |                                                 |
| \\      /  F ield         | OpenFOAM: The Open Source CFD Toolbox           |
|  \\    /   O peration     | Version:  2.2.x                                 |
|   \\  /    A nd           | Web:      www.OpenFOAM.org                      |
|    \\/     M anipulation  |                                                 |
\*---------------------------------------------------------------------------*/
FoamFile
{
    version     2.0;
    format      ascii;
    class       volScalarField;
    location    "1.8";
    object      By;
}
// * * * * * * * * * * * * * * * * * * * * * * * * * * * * * * * * * * * * * //

dimensions      [1 0 -2 0 0 -1 0];

internalField   nonuniform List<scalar> 
14161
(
-4.60168e-06
4.0395e-07
-2.36067e-07
-3.51424e-07
7.71924e-07
2.91826e-07
-9.38338e-07
3.17788e-06
4.15089e-07
-3.71143e-06
1.09937e-06
3.35807e-06
3.36609e-06
3.00972e-06
1.3178e-06
-8.63148e-06
1.02222e-07
9.64776e-06
7.70303e-06
9.77383e-06
3.99761e-06
6.34594e-06
1.22903e-06
-2.773e-08
4.34794e-06
5.01407e-06
6.38639e-06
6.7134e-06
1.37447e-05
2.35735e-05
5.08556e-05
0.000134105
0.00022267
0.000566749
0.000815915
0.00150983
0.00228169
0.00171155
-0.013492
-0.113812
-0.0800484
-0.0023005
0.00252392
0.00363016
0.00366018
0.00724187
0.00847781
0.0100462
0.0097841
0.0106797
0.0105504
0.0114503
0.0113013
0.011806
0.0124989
0.0132732
0.0134985
0.0133809
0.0131112
0.0125488
0.0114878
0.0102745
0.00902664
0.00818496
0.00775575
0.00699589
0.00632556
0.0057583
0.00523865
0.00476387
0.00439915
0.00391286
0.00329096
0.00277014
0.00213301
0.00162182
0.00157074
0.0014943
0.000846611
0.000778057
0.00184017
0.00301463
0.00240447
0.000564696
0.000785387
0.00325305
0.00633237
0.00461151
0.00560314
0.00844469
0.0048917
0.00766859
0.00598504
0.00358766
-0.000798877
-0.00126773
0.000135237
0.00283055
0.00955854
0.0181596
0.0252463
0.0320802
0.0389474
0.0455391
0.0517747
0.0535783
0.0570257
0.0563241
0.0569312
0.054735
0.0560012
0.0538052
0.0553186
0.05553
0.0414359
0.038192
0.0322805
0.032044
0.0207527
-7.69865e-06
2.86579e-08
-9.61033e-07
1.42664e-07
9.92299e-07
-4.53209e-07
-5.35827e-06
9.02869e-06
1.07983e-05
-1.29993e-05
1.39571e-05
1.58109e-05
-2.59833e-05
7.15805e-06
2.94973e-05
-3.38101e-06
1.41814e-09
2.09367e-05
7.93717e-06
1.5468e-05
7.10609e-06
2.20213e-06
1.12682e-05
3.51031e-06
1.45855e-05
2.67488e-05
2.35013e-05
1.96706e-05
1.99748e-05
8.36433e-06
-1.63356e-05
-7.19362e-05
-0.000182769
-0.000466401
-0.00129383
-0.00269236
-0.00642655
-0.0136728
-0.0534448
-0.229529
-0.0612412
0.0203532
0.0106422
0.00996597
0.00133372
-0.000975449
-0.00327731
-0.00433776
-0.00511545
-0.00526835
-0.00410447
-0.0030529
-0.00257164
-0.00108594
-8.70213e-05
0.00118776
0.00218871
0.00283567
0.00311121
0.00321471
0.0022248
0.00166154
0.000615599
-0.00016233
-0.000820634
-0.00169696
-0.00242313
-0.00290726
-0.00313722
-0.00321737
-0.00355999
-0.00402844
-0.00422317
-0.00427895
-0.0045842
-0.00567381
-0.00707572
-0.00754223
-0.0061663
-0.00396233
-0.00453185
-0.0048328
-0.00349768
-0.000552132
-0.00131159
-0.0048763
-0.00180052
0.00730226
0.00723877
0.00302837
0.00633472
0.010228
0.0120909
0.0125162
0.00451287
-0.000665236
0.00567794
0.0239444
0.0408082
0.0505843
0.0530811
0.0576904
0.0637087
0.0678082
0.07187
0.0708976
0.0712479
0.0692098
0.0706827
0.0696193
0.072798
0.0727453
0.077834
0.0830136
0.0907244
0.106728
0.090314
0.104444
0.0522063
-1.16707e-05
-5.89334e-07
-1.30957e-06
-9.54311e-07
2.29134e-06
1.31544e-06
-5.38477e-06
1.36201e-05
7.70034e-06
-1.27996e-05
1.20855e-05
2.05752e-05
-1.97607e-05
1.68516e-05
3.01767e-05
-1.19741e-05
-4.95984e-06
3.90565e-05
2.26942e-05
3.90797e-05
1.29208e-05
1.40812e-05
1.41779e-05
1.35182e-06
1.79479e-05
4.19616e-05
3.57821e-05
3.21053e-05
3.43539e-05
4.89432e-05
9.22047e-05
0.000153113
0.000255393
0.000404096
0.000352407
0.000179222
-0.00158036
-0.00498054
-0.0364714
-0.178549
-0.0869126
-0.01811
-0.0197898
-0.00634871
-0.00588586
-0.0108285
-0.00612474
-0.00418046
-0.00659906
-0.00709792
-0.00765902
-0.00699231
-0.00811337
-0.00876726
-0.0094929
-0.00878387
-0.00812063
-0.00687339
-0.00564604
-0.00452079
-0.0035667
-0.00291975
-0.002363
-0.00106671
-2.21456e-06
0.000979133
0.0013587
0.0016286
0.00194945
0.00227268
0.00238777
0.0024506
0.00219328
0.00158809
0.00197055
0.00298096
0.00436408
0.00532521
0.00702476
0.00949835
0.0111484
0.0105943
0.00642763
0.00442777
0.00828856
0.0144423
0.012662
0.0207039
0.0438592
0.0669943
0.0665078
0.0675033
0.0624363
0.0585878
0.0564799
0.0568319
0.0558254
0.0584505
0.0592922
0.0623658
0.0679847
0.07092
0.0792622
0.0877309
0.0946767
0.098976
0.10744
0.108296
0.115386
0.11326
0.12164
0.118901
0.128536
0.12857
0.127975
0.136406
0.124127
0.13832
0.0848472
-1.23761e-05
-1.23778e-06
-1.85891e-06
4.49367e-09
2.29357e-06
2.57445e-06
-7.21849e-06
1.50531e-05
1.80782e-05
-2.32856e-05
2.16191e-05
2.83898e-05
-2.97315e-05
1.30288e-05
5.38883e-05
-9.77212e-06
3.88889e-06
4.61188e-05
2.96934e-05
3.7668e-05
1.85986e-05
2.23097e-05
2.49423e-05
1.39997e-05
3.9639e-05
6.07399e-05
5.71809e-05
5.19432e-05
4.86345e-05
6.19028e-05
3.63957e-05
3.08318e-05
1.31949e-05
-0.000146744
-0.000545093
-0.00110769
-0.00218768
-0.00371609
-0.0106906
-0.0531935
-0.011936
-0.0097505
-0.0328257
-0.0409181
-0.0547221
-0.070505
-0.0662893
-0.0638854
-0.0656276
-0.0589029
-0.0572219
-0.0506012
-0.0484977
-0.0432515
-0.0393024
-0.0338235
-0.0305746
-0.0265658
-0.0227947
-0.0193935
-0.0171122
-0.0151979
-0.0121026
-0.00914257
-0.0062282
-0.00365006
-0.00217496
-0.0011377
-0.000306893
0.000233293
0.00102327
0.00193866
0.0021287
0.00225514
0.00333845
0.00588284
0.00924279
0.0129505
0.0162372
0.0175761
0.0183938
0.0182132
0.0190764
0.021068
0.0266721
0.0378715
0.0614758
0.0991333
0.150854
0.167332
0.167348
0.15836
0.133754
0.118447
0.0945343
0.0812553
0.0808801
0.0810298
0.0829829
0.0837327
0.0881753
0.094551
0.0964675
0.101038
0.105121
0.104981
0.107107
0.103365
0.108845
0.107522
0.12236
0.123129
0.142064
0.138001
0.144989
0.151778
0.13938
0.154236
0.101239
-1.41889e-05
-1.67759e-06
-2.09287e-06
-1.05028e-06
4.28517e-06
2.44374e-06
-5.63704e-06
1.84418e-05
1.53685e-05
-2.31673e-05
2.30765e-05
3.28036e-05
-1.96472e-05
1.92159e-05
5.64466e-05
-9.62682e-06
3.35174e-06
4.28006e-05
4.26272e-05
5.96e-05
2.74446e-05
3.57797e-05
2.17619e-05
1.40351e-05
3.94693e-05
6.3341e-05
5.80255e-05
5.4109e-05
5.25645e-05
6.54096e-05
9.85354e-05
0.000201508
0.000342513
0.000591495
0.000930663
0.00150849
0.00231924
0.00336379
0.0175089
0.12269
0.0670034
-0.0219455
-0.0890517
-0.130136
-0.140627
-0.155919
-0.148696
-0.135397
-0.12888
-0.108978
-0.100985
-0.0860154
-0.0775599
-0.0660169
-0.0593301
-0.0500234
-0.0437376
-0.0356818
-0.0292269
-0.0242103
-0.0194241
-0.0152508
-0.0118927
-0.00747902
-0.00365341
-0.000863892
0.00186945
0.00268189
0.00353863
0.0041059
0.00441155
0.00485531
0.0056656
0.00682456
0.00815271
0.00982811
0.0139434
0.020033
0.0252233
0.0280743
0.0284681
0.0302298
0.0365219
0.0444759
0.0524626
0.0736884
0.12186
0.189165
0.257157
0.284869
0.284274
0.276271
0.240447
0.212923
0.174651
0.148524
0.128548
0.112885
0.105083
0.101374
0.100596
0.102786
0.110285
0.119968
0.128465
0.135207
0.14043
0.135101
0.140814
0.131083
0.142798
0.141585
0.156049
0.149733
0.157137
0.158018
0.148004
0.161152
0.113394
-1.33318e-05
-1.83981e-06
-3.39354e-06
-6.24345e-07
5.60597e-06
5.04272e-06
-3.88094e-06
1.92219e-05
1.75698e-05
-1.84309e-05
2.7206e-05
3.18862e-05
-1.4468e-05
2.03863e-05
6.34401e-05
-2.31051e-05
3.05386e-05
4.32437e-05
6.34044e-05
6.56604e-05
4.56615e-05
3.5642e-05
4.27253e-05
3.16719e-05
4.31287e-05
8.07396e-05
9.16447e-05
8.6314e-05
8.54494e-05
7.94474e-05
0.000140189
0.000171796
0.00028199
0.000460115
0.000808561
0.00158344
0.00379978
0.00998969
0.0573978
0.264047
0.142812
-0.0302083
-0.134283
-0.178406
-0.189167
-0.195059
-0.182937
-0.160643
-0.147964
-0.125678
-0.114283
-0.0987584
-0.0903509
-0.0789526
-0.071265
-0.0617261
-0.0551934
-0.0460182
-0.0401181
-0.0335239
-0.0275949
-0.0227864
-0.0181803
-0.0131219
-0.00876176
-0.00499845
-0.00211504
5.94594e-05
0.00189131
0.00284292
0.00313668
0.00346557
0.00402133
0.0048804
0.0064432
0.00994769
0.0151635
0.0202081
0.0256388
0.0296109
0.0340452
0.0372422
0.0422543
0.0486919
0.0710691
0.107249
0.164624
0.229219
0.316465
0.370779
0.364852
0.362969
0.317473
0.287017
0.242284
0.209575
0.176838
0.15184
0.13755
0.126901
0.121995
0.121072
0.129978
0.141785
0.151145
0.161018
0.165948
0.161766
0.166121
0.150533
0.158989
0.152707
0.163376
0.157461
0.164201
0.162206
0.152413
0.162942
0.120368
-1.35898e-05
-1.80091e-06
-2.25957e-06
-2.78729e-07
4.74315e-06
5.12893e-06
-2.15886e-06
1.52664e-05
1.85893e-05
-1.20159e-05
2.14986e-05
3.26859e-05
-5.78741e-06
2.62739e-05
6.20651e-05
-1.27367e-05
3.36608e-05
4.21399e-05
6.93454e-05
6.30736e-05
6.072e-05
4.83053e-05
5.1045e-05
4.09024e-05
5.8157e-05
7.88211e-05
9.44645e-05
7.72012e-05
6.98793e-05
7.29848e-05
0.000120795
0.000177628
0.00034058
0.000704445
0.00139548
0.00269084
0.00602587
0.0146815
0.0758231
0.334224
0.200163
-0.10014
-0.215635
-0.259482
-0.259247
-0.245019
-0.225204
-0.198932
-0.177772
-0.152133
-0.134193
-0.115058
-0.101753
-0.0882684
-0.0775629
-0.0674078
-0.0588748
-0.0495161
-0.0425796
-0.0348735
-0.0296035
-0.0234879
-0.0190978
-0.0142329
-0.0106183
-0.0064273
-0.0029806
-0.000296444
0.00199499
0.00353624
0.00417267
0.00429364
0.00457757
0.00555902
0.00759175
0.0115985
0.0163403
0.0225315
0.0292163
0.0342801
0.0390466
0.0412468
0.0477977
0.0617005
0.0885801
0.134952
0.213645
0.294225
0.379034
0.436371
0.442826
0.444752
0.417153
0.395172
0.342353
0.291233
0.238925
0.195228
0.164984
0.143582
0.139181
0.141219
0.148126
0.161912
0.178185
0.194831
0.200647
0.198738
0.198783
0.176832
0.181051
0.167492
0.177604
0.168985
0.173346
0.164382
0.157813
0.162856
0.126962
-1.21821e-05
-1.42592e-06
-2.7165e-06
6.88181e-07
4.73646e-06
8.788e-06
1.84311e-06
1.46836e-05
1.85962e-05
-5.01349e-06
2.35976e-05
2.95852e-05
1.2959e-05
2.14321e-05
6.09207e-05
9.48383e-07
6.15697e-05
2.83792e-05
9.55772e-05
5.86387e-05
9.02257e-05
5.76537e-05
7.52795e-05
5.80128e-05
8.68509e-05
7.25305e-05
0.000130889
0.000102886
9.97861e-05
9.4504e-05
0.000134606
0.000201697
0.000335667
0.000575706
0.000871606
0.0013202
0.00213775
0.00587138
0.0448685
0.216523
0.177378
-0.0891394
-0.218092
-0.257186
-0.263633
-0.250733
-0.227021
-0.205288
-0.17983
-0.157256
-0.137116
-0.119405
-0.105245
-0.0921198
-0.0802565
-0.0694183
-0.0636661
-0.0539325
-0.0467537
-0.0381532
-0.0331919
-0.0267261
-0.0221871
-0.0168638
-0.0134397
-0.00882066
-0.00528727
-0.00241547
0.000102187
0.0019501
0.00268904
0.00307113
0.00358475
0.0045521
0.00671876
0.0104955
0.0163453
0.0233548
0.0306899
0.0358565
0.0415005
0.0457127
0.0547747
0.0724329
0.112997
0.172957
0.277797
0.363203
0.433067
0.484667
0.506587
0.508756
0.493026
0.473365
0.438418
0.38672
0.320273
0.256442
0.212767
0.182535
0.166932
0.159444
0.164556
0.179518
0.19625
0.216571
0.225566
0.228128
0.227309
0.204201
0.203871
0.180536
0.19209
0.17849
0.18279
0.166648
0.163048
0.162426
0.13433
-1.13276e-05
-7.39312e-07
-1.1952e-06
1.46777e-06
3.41219e-06
8.38092e-06
4.09325e-06
1.07465e-05
2.37815e-05
3.96197e-06
1.14904e-05
3.34358e-05
2.33938e-05
1.4503e-05
6.04318e-05
1.92437e-05
4.81516e-05
4.81478e-05
8.76939e-05
5.63611e-05
0.000107486
6.76656e-05
8.35782e-05
7.25678e-05
0.000102848
8.42039e-05
0.000145516
9.76753e-05
7.5541e-05
5.64924e-05
3.88253e-05
1.56529e-05
-7.76602e-06
-5.62313e-05
-0.000135097
-0.000235158
-0.00079653
0.000728552
0.0106383
0.0696107
-0.000665708
-0.118417
-0.194235
-0.218935
-0.232237
-0.225362
-0.209802
-0.190893
-0.170667
-0.150766
-0.137023
-0.1216
-0.109354
-0.0949262
-0.0839504
-0.0738004
-0.0672918
-0.0572439
-0.0492307
-0.0403404
-0.0347646
-0.027949
-0.0235612
-0.0182351
-0.0146673
-0.010235
-0.00715185
-0.00352129
-0.000994158
0.00117674
0.00250977
0.00333439
0.00433176
0.0059624
0.0083428
0.0122516
0.0185529
0.0262894
0.0343471
0.0401565
0.046796
0.0510894
0.0618056
0.0854876
0.137689
0.233879
0.324886
0.428448
0.473391
0.526685
0.556599
0.568751
0.560881
0.552666
0.52741
0.485305
0.423671
0.346099
0.278388
0.220568
0.193999
0.182524
0.18568
0.196342
0.215682
0.240773
0.257437
0.267696
0.269042
0.248647
0.237283
0.202722
0.211232
0.190935
0.194437
0.171524
0.169123
0.163976
0.142776
-9.60791e-06
2.36325e-07
-8.86846e-07
2.884e-06
3.12561e-06
1.09672e-05
1.01122e-05
7.51059e-06
2.26781e-05
1.85318e-05
4.00057e-06
3.12449e-05
4.69739e-05
8.51842e-06
4.90379e-05
5.32329e-05
6.81349e-05
4.5705e-05
0.000100148
5.59531e-05
0.000127847
8.96189e-05
9.71021e-05
0.000110757
0.000122044
0.00010238
0.000150107
0.000118107
9.48587e-05
8.5258e-05
9.24229e-05
0.000117412
0.000157759
0.000222466
0.000335702
0.000400023
0.000279797
0.000468852
-0.0057661
-0.0830412
-0.185673
-0.1367
-0.139285
-0.165527
-0.189395
-0.196219
-0.190469
-0.179085
-0.16312
-0.146617
-0.132833
-0.120143
-0.112909
-0.100364
-0.0910983
-0.0832809
-0.076477
-0.0652202
-0.0571177
-0.0473768
-0.0407338
-0.0330672
-0.0278207
-0.0217304
-0.0175308
-0.0126645
-0.0091557
-0.00517645
-0.00232079
0.000454176
0.0023812
0.00328509
0.00436284
0.00589645
0.00789142
0.0110684
0.017931
0.0282559
0.038501
0.0446636
0.0530316
0.0621052
0.0801403
0.122212
0.197133
0.292042
0.398363
0.458192
0.519638
0.550531
0.590689
0.617759
0.617004
0.610952
0.593292
0.561457
0.509685
0.437597
0.346776
0.276851
0.236999
0.216338
0.210508
0.216523
0.232555
0.256859
0.279135
0.298121
0.303156
0.289932
0.272188
0.231426
0.23391
0.205199
0.206522
0.178888
0.178305
0.167135
0.153588
-8.0815e-06
1.55343e-06
1.00811e-06
4.0314e-06
2.40585e-06
1.05322e-05
1.23983e-05
5.68282e-06
2.44855e-05
2.51951e-05
-4.31448e-06
3.55269e-05
5.43604e-05
9.17763e-06
4.48194e-05
7.05083e-05
4.54204e-05
7.5613e-05
9.0625e-05
6.94051e-05
0.000124027
0.000105258
0.000102271
0.000143297
0.000148885
0.000147349
0.000138968
0.000125869
7.65229e-05
4.20142e-05
-1.31918e-05
-0.000108507
-0.000318613
-0.000653853
-0.00121095
-0.00238007
-0.00429605
-0.00999958
-0.0352268
-0.18906
-0.248543
-0.15463
-0.158153
-0.177781
-0.201237
-0.21155
-0.207845
-0.19828
-0.183822
-0.166089
-0.152501
-0.138053
-0.131724
-0.117335
-0.105542
-0.0966056
-0.0867329
-0.07338
-0.0649295
-0.0539291
-0.0462067
-0.0371834
-0.0312778
-0.0245767
-0.0198555
-0.0148137
-0.0109427
-0.00709597
-0.00385588
-0.000588531
0.00214706
0.00360016
0.00493964
0.00631941
0.00885683
0.0130667
0.0214627
0.0311075
0.0426648
0.0554722
0.0622875
0.0800721
0.102568
0.169737
0.266718
0.371818
0.442104
0.510158
0.54847
0.594503
0.616812
0.652004
0.665746
0.661926
0.65319
0.629533
0.588904
0.528547
0.440009
0.353416
0.291876
0.258085
0.239536
0.238086
0.250622
0.273053
0.29892
0.324828
0.338602
0.336309
0.321292
0.27665
0.265236
0.22686
0.222512
0.191365
0.189065
0.173406
0.166629
-5.94211e-06
3.03959e-06
2.06773e-06
5.9145e-06
2.17214e-06
1.26898e-05
1.93849e-05
1.61847e-06
2.22441e-05
4.05621e-05
-7.1744e-06
3.2022e-05
7.31681e-05
1.40544e-05
2.75132e-05
0.000109207
5.89297e-05
7.26774e-05
9.66033e-05
9.74764e-05
0.000101631
0.000150373
0.00010387
0.000182354
0.000174796
0.000161324
0.000143062
0.000141371
0.000114724
0.000106886
9.08101e-05
6.65761e-05
-1.04313e-05
-7.86025e-05
-0.000137218
-0.000271731
-0.000810424
-0.00482976
-0.0338354
-0.193778
-0.267565
-0.256979
-0.214784
-0.219293
-0.230124
-0.231509
-0.226589
-0.219315
-0.20334
-0.183227
-0.172086
-0.155671
-0.146587
-0.131153
-0.119799
-0.109036
-0.0920997
-0.0774879
-0.0691407
-0.0574306
-0.0481253
-0.0381055
-0.0308187
-0.0230526
-0.0175322
-0.011954
-0.00798589
-0.00393662
-0.000861138
0.00233727
0.00457759
0.00731836
0.00954458
0.0109483
0.0136925
0.0175809
0.0261414
0.039161
0.0520694
0.0712079
0.0830391
0.117641
0.167367
0.259469
0.342945
0.434889
0.482021
0.536922
0.575231
0.617495
0.650619
0.686355
0.709918
0.707867
0.700447
0.684397
0.653684
0.604136
0.529683
0.438183
0.352278
0.297376
0.268182
0.256447
0.265464
0.283797
0.310732
0.34123
0.361033
0.366351
0.361011
0.323526
0.302281
0.253657
0.243854
0.206324
0.199356
0.182197
0.181352
-4.2455e-06
4.72569e-06
4.1447e-06
7.30486e-06
3.00253e-06
1.2539e-05
2.14558e-05
7.97819e-07
2.24216e-05
4.00538e-05
-2.36214e-06
3.2589e-05
6.98216e-05
2.52564e-05
2.90534e-05
0.000110606
5.10845e-05
9.73516e-05
0.000104585
0.000105438
7.91824e-05
0.000165722
0.000129346
0.000212408
0.000217493
0.000186021
0.000177145
0.000180419
0.000139155
0.00010847
7.76768e-05
-5.87912e-05
-0.000141343
-0.000369343
-0.000766345
-0.00162124
-0.00267491
-0.00712885
-0.0320387
-0.167423
-0.29022
-0.319069
-0.281487
-0.275506
-0.269699
-0.266062
-0.257038
-0.24788
-0.225852
-0.204062
-0.190105
-0.171516
-0.160598
-0.144536
-0.134179
-0.120975
-0.10243
-0.0876906
-0.0751106
-0.0635139
-0.0553537
-0.0448076
-0.0372948
-0.0288647
-0.0238312
-0.0177858
-0.0139655
-0.00931515
-0.00630854
-0.00239006
-9.64679e-05
0.00326466
0.00523563
0.00744218
0.0106301
0.0161543
0.0256453
0.0422608
0.0611895
0.0854177
0.107959
0.164444
0.250789
0.361291
0.426757
0.50605
0.537777
0.588156
0.613344
0.654468
0.675493
0.707844
0.737358
0.752617
0.750739
0.73732
0.711071
0.667465
0.603695
0.516334
0.41253
0.338622
0.299197
0.277201
0.280268
0.295738
0.321806
0.354714
0.384473
0.396522
0.403457
0.374579
0.34826
0.290906
0.270903
0.223804
0.213988
0.194418
0.196453
-1.75248e-06
6.64945e-06
5.92368e-06
9.42374e-06
4.03175e-06
1.59752e-05
2.3759e-05
-7.19735e-07
2.36867e-05
4.59308e-05
4.73732e-06
2.99424e-05
7.73915e-05
2.95907e-05
3.72872e-05
0.000129222
7.27221e-05
7.00519e-05
0.000147247
0.000130242
4.97903e-05
0.000185702
0.000153097
0.000222445
0.000224339
0.000189763
0.000214404
0.000203405
0.000200445
0.000201213
0.000195269
0.000189459
0.000297941
0.00039185
0.000465446
0.000587132
0.00095322
-0.001458
-0.0174202
-0.123742
-0.314548
-0.385082
-0.364507
-0.348601
-0.333558
-0.319707
-0.306318
-0.292068
-0.263749
-0.242768
-0.218516
-0.195749
-0.180831
-0.161068
-0.150701
-0.131648
-0.1114
-0.100819
-0.0831764
-0.0696311
-0.059079
-0.0487849
-0.0406391
-0.0317851
-0.0261076
-0.0195556
-0.0156877
-0.0106724
-0.00770573
-0.00382645
-0.00171658
0.00164047
0.00394852
0.00685863
0.0113219
0.0175647
0.028789
0.0446813
0.0711409
0.111026
0.157032
0.243893
0.346527
0.456684
0.506276
0.564349
0.593349
0.64014
0.659793
0.696597
0.717806
0.735055
0.758177
0.775086
0.785377
0.775746
0.759528
0.724526
0.674452
0.596736
0.489496
0.39315
0.336905
0.305332
0.299307
0.310376
0.333354
0.365275
0.399027
0.420929
0.434114
0.417028
0.393381
0.332681
0.301813
0.24548
0.234059
0.20767
0.211296
1.23386e-07
8.5646e-06
8.17593e-06
1.10018e-05
5.89553e-06
1.36638e-05
2.42157e-05
5.49936e-06
1.98202e-05
4.53284e-05
1.27461e-05
3.00406e-05
6.88715e-05
4.7989e-05
2.96267e-05
0.000124568
8.63865e-05
6.7779e-05
0.00013995
0.000161377
6.93895e-05
0.00015905
0.000193958
0.000237547
0.000246053
0.000231334
0.000271035
0.00028354
0.000322455
0.000318766
0.0002908
0.000285396
0.000283414
0.000198619
0.000253999
0.000302609
0.00116525
-0.000424692
-0.0139244
-0.0856223
-0.354378
-0.458796
-0.442813
-0.424339
-0.400015
-0.376295
-0.356745
-0.331547
-0.299801
-0.278801
-0.249377
-0.229689
-0.204463
-0.181667
-0.169331
-0.145343
-0.12571
-0.108898
-0.0899071
-0.0765081
-0.0628079
-0.0524928
-0.0443267
-0.0369775
-0.0306766
-0.0247139
-0.0208243
-0.0162541
-0.0133611
-0.0090538
-0.00653348
-0.00276802
-0.00109509
0.00278165
0.00640542
0.014076
0.0261302
0.0469559
0.0839343
0.137446
0.230408
0.351773
0.454753
0.562371
0.588362
0.627961
0.652291
0.699348
0.717212
0.748411
0.764905
0.779002
0.792414
0.813088
0.82575
0.821633
0.806632
0.776325
0.729903
0.657641
0.556637
0.44174
0.368945
0.329486
0.314608
0.322757
0.343125
0.373938
0.407505
0.440236
0.453286
0.450642
0.434561
0.380709
0.341894
0.276547
0.257133
0.222465
0.227251
2.74601e-06
1.07603e-05
1.03901e-05
1.34278e-05
7.56933e-06
1.55356e-05
2.46904e-05
9.5531e-06
1.80032e-05
4.65432e-05
2.83674e-05
2.5141e-05
7.29164e-05
6.28651e-05
3.81591e-05
0.000109056
0.000123397
7.86175e-05
0.00012522
0.00018271
0.00014268
9.4427e-05
0.000195804
0.000286797
0.000246117
0.000185135
0.000246944
0.000340295
0.000358091
0.000407471
0.000405765
0.000428349
0.000606748
0.000963139
0.00148868
0.00275148
0.00470507
0.00421189
-0.0133532
-0.148579
-0.43085
-0.471142
-0.448665
-0.446863
-0.424708
-0.399464
-0.371056
-0.343162
-0.31257
-0.288992
-0.260257
-0.240918
-0.213007
-0.192513
-0.167711
-0.143991
-0.131488
-0.110155
-0.0893732
-0.0691548
-0.0558313
-0.0481602
-0.0395044
-0.0326461
-0.0261694
-0.0231547
-0.019261
-0.0171157
-0.0139147
-0.0107152
-0.00728896
-0.00493482
-0.00214899
0.00047897
0.00515393
0.0137318
0.0287266
0.0559402
0.103842
0.182229
0.338147
0.468538
0.543335
0.629236
0.669265
0.720198
0.731792
0.763007
0.773382
0.792485
0.802857
0.812268
0.821676
0.832667
0.847642
0.851794
0.843315
0.818658
0.778209
0.713427
0.619779
0.497378
0.407197
0.358728
0.335375
0.337956
0.355388
0.383603
0.416091
0.454916
0.473542
0.481241
0.471036
0.430501
0.384145
0.309004
0.281563
0.238625
0.245439
4.7787e-06
1.27958e-05
1.27118e-05
1.5164e-05
1.01287e-05
1.2373e-05
2.58655e-05
1.71018e-05
8.73496e-06
4.78817e-05
4.11288e-05
1.88042e-05
6.83678e-05
8.59458e-05
3.34603e-05
9.00811e-05
0.000141834
0.000105905
8.97022e-05
0.000207766
0.000189146
0.00010892
0.000178839
0.000322409
0.00029479
0.000198625
0.000207822
0.000414725
0.00054417
0.000601173
0.000538437
0.00054325
0.000495734
0.000592588
0.000630807
0.000795046
-1.07941e-05
-0.00500506
-0.0406268
-0.291887
-0.593175
-0.558312
-0.498257
-0.474883
-0.445454
-0.424643
-0.393875
-0.369893
-0.336388
-0.310802
-0.279687
-0.255917
-0.226555
-0.202861
-0.17351
-0.15316
-0.134395
-0.113968
-0.094471
-0.0735603
-0.0593408
-0.0481663
-0.0406041
-0.0341696
-0.0296913
-0.0251329
-0.0216872
-0.0181338
-0.0144826
-0.0104868
-0.00744482
-0.00504802
-0.00320566
-0.000476224
0.00450411
0.0138648
0.033536
0.0722015
0.14932
0.291245
0.443553
0.600577
0.670505
0.695432
0.741383
0.803877
0.816548
0.836689
0.837332
0.846087
0.850973
0.860139
0.866424
0.872271
0.883537
0.883671
0.870082
0.848504
0.816105
0.76185
0.676749
0.555176
0.446445
0.387773
0.357981
0.354366
0.368732
0.394238
0.426146
0.464453
0.491857
0.502701
0.505206
0.473492
0.42658
0.345957
0.311204
0.259244
0.266676
7.4418e-06
1.52402e-05
1.50087e-05
1.75356e-05
1.30219e-05
1.34595e-05
2.46084e-05
2.51717e-05
6.3835e-06
4.53155e-05
5.88862e-05
1.79951e-05
6.17442e-05
9.66975e-05
5.87257e-05
6.60667e-05
0.00016534
0.00013434
8.30974e-05
0.000185488
0.00024389
0.000154552
0.000128672
0.000302277
0.000351522
0.000230645
0.000114377
0.00033764
0.000592552
0.000605433
0.000608103
0.000491631
0.00030455
0.000189527
-9.56775e-05
-0.000838293
-0.00316097
-0.0122275
-0.0743188
-0.417506
-0.669183
-0.638028
-0.566552
-0.529506
-0.482458
-0.466439
-0.43135
-0.406911
-0.368754
-0.338726
-0.303337
-0.276164
-0.243689
-0.216219
-0.18469
-0.160393
-0.13399
-0.111995
-0.0944493
-0.0769485
-0.0597169
-0.0456145
-0.0387822
-0.0339935
-0.0295191
-0.0250729
-0.0217424
-0.0180517
-0.0137481
-0.00974566
-0.00717245
-0.0058794
-0.00436915
-0.000948093
0.00506637
0.0188349
0.0481468
0.113103
0.265573
0.457414
0.567325
0.665396
0.75858
0.820554
0.823457
0.858244
0.882239
0.897007
0.888449
0.900861
0.897828
0.902343
0.903766
0.903689
0.912998
0.911204
0.898934
0.879197
0.849646
0.801259
0.72309
0.606388
0.483795
0.415581
0.382395
0.372016
0.383716
0.40625
0.437743
0.473047
0.509713
0.520408
0.536122
0.506805
0.469633
0.385662
0.34329
0.281079
0.28844
9.58387e-06
1.7224e-05
1.7049e-05
1.92052e-05
1.65781e-05
1.07352e-05
2.30963e-05
3.40476e-05
1.35389e-06
4.18221e-05
6.77982e-05
2.43204e-05
5.08128e-05
0.00011519
6.61976e-05
5.54099e-05
0.000160206
0.000163301
9.00613e-05
0.000175002
0.000249282
0.000217856
0.000145627
0.000270342
0.000371186
0.000302639
0.000185471
0.000225166
0.00050608
0.000841576
0.000774794
0.000709515
0.000705709
0.000676118
0.000504686
0.000573722
-0.00053705
-0.010965
-0.0996505
-0.530737
-0.728166
-0.724494
-0.668516
-0.612354
-0.554413
-0.517052
-0.47256
-0.433229
-0.392341
-0.356739
-0.320919
-0.290297
-0.259033
-0.230379
-0.197424
-0.168049
-0.139207
-0.116488
-0.0953491
-0.0781203
-0.0602234
-0.0471661
-0.0380187
-0.0334454
-0.0283986
-0.025217
-0.022086
-0.0185693
-0.014339
-0.00959669
-0.00866486
-0.00864718
-0.00717773
-0.00269256
0.00800988
0.0341095
0.0980366
0.228632
0.437403
0.627588
0.731759
0.764545
0.81693
0.881882
0.924682
0.939947
0.947772
0.962868
0.949324
0.954528
0.943421
0.938425
0.932588
0.928369
0.934909
0.931254
0.920134
0.904514
0.879417
0.838425
0.768393
0.659211
0.526137
0.447843
0.409479
0.391988
0.400239
0.420511
0.450718
0.484754
0.52245
0.54038
0.558748
0.537281
0.509595
0.42503
0.376873
0.304988
0.312084
1.22527e-05
1.97326e-05
1.9121e-05
2.14364e-05
2.04433e-05
1.20558e-05
2.03142e-05
3.94997e-05
7.70003e-06
3.14935e-05
7.96115e-05
3.7108e-05
4.07431e-05
0.000115852
9.51503e-05
4.43006e-05
0.000156383
0.000178437
0.000127872
0.000138122
0.000268699
0.000261058
0.000194707
0.000183924
0.000380108
0.000336654
0.000286717
0.000176934
0.000304147
0.000748423
0.000787025
0.000806531
0.000680951
0.000466636
0.000666277
0.00113379
-0.000620934
-0.0169472
-0.157802
-0.656038
-0.768221
-0.765585
-0.731943
-0.673822
-0.62778
-0.568324
-0.524615
-0.469155
-0.427368
-0.379647
-0.345554
-0.307981
-0.27862
-0.245192
-0.212764
-0.176731
-0.144671
-0.117612
-0.0932486
-0.0750783
-0.0593683
-0.0470807
-0.0367882
-0.0319999
-0.025171
-0.0223164
-0.0186346
-0.0173162
-0.0124758
-0.00650305
-0.00412005
-0.0064641
0.00112233
0.0200523
0.0541871
0.127725
0.27653
0.48823
0.640075
0.729905
0.836331
0.890784
0.906073
0.929169
0.952371
0.981222
1.0099
1.00806
1.00999
1.00185
0.986412
0.977482
0.9659
0.958749
0.961893
0.956199
0.945238
0.931422
0.906258
0.869352
0.805584
0.70222
0.567017
0.477263
0.43551
0.413625
0.419058
0.436666
0.464694
0.497251
0.53188
0.55891
0.574416
0.566166
0.545126
0.46516
0.410515
0.329378
0.336208
1.44619e-05
2.1582e-05
2.06043e-05
2.26573e-05
2.53851e-05
1.13366e-05
1.83226e-05
4.25642e-05
1.46517e-05
2.32737e-05
7.8901e-05
5.27595e-05
3.62116e-05
0.000120035
0.000107035
5.90396e-05
0.000129239
0.000203489
0.000150174
0.000130724
0.00025976
0.000299216
0.00024947
0.000145894
0.000323541
0.000396543
0.000349355
0.000277866
0.00019539
0.00055319
0.000740317
0.00082809
0.000546927
0.00062674
0.000315834
0.000186443
-0.00460617
-0.034087
-0.272659
-0.768229
-0.802109
-0.800229
-0.786088
-0.754856
-0.717037
-0.651412
-0.59599
-0.523451
-0.475376
-0.416246
-0.375461
-0.328729
-0.293026
-0.25544
-0.21971
-0.179527
-0.142722
-0.115941
-0.0924476
-0.0728485
-0.0551139
-0.0424079
-0.0322255
-0.0270269
-0.0196703
-0.0147488
-0.0093816
-0.0119801
-0.00545916
0.00858928
0.0316639
0.0400147
0.082653
0.155291
0.294315
0.428874
0.551366
0.651827
0.750366
0.820144
0.872409
0.935238
0.980553
1.0025
1.02061
1.01453
1.01696
1.02514
1.03504
1.03339
1.01888
1.00656
0.991029
0.981924
0.97908
0.972269
0.964074
0.954393
0.933218
0.898114
0.837426
0.738853
0.605082
0.50569
0.460633
0.436966
0.43904
0.454231
0.479604
0.509406
0.540402
0.572895
0.589509
0.592145
0.575587
0.505291
0.443953
0.355295
0.361924
1.70849e-05
2.39476e-05
2.27377e-05
2.37874e-05
2.90996e-05
1.6448e-05
1.44195e-05
4.27317e-05
2.71383e-05
1.21051e-05
7.83846e-05
6.94219e-05
3.25196e-05
0.000107808
0.00013055
6.83761e-05
0.000103144
0.000207798
0.00019236
0.000125092
0.00024838
0.000317338
0.000288017
0.000155001
0.000221404
0.000392243
0.0004102
0.000358958
0.000178323
0.000258339
0.000602629
0.000599572
0.000406782
0.000219874
-0.000602047
-0.0021904
-0.00993159
-0.059605
-0.406305
-0.800569
-0.831016
-0.825104
-0.816426
-0.80185
-0.775478
-0.728102
-0.679726
-0.604396
-0.547086
-0.471862
-0.42503
-0.365739
-0.322907
-0.272392
-0.227321
-0.182246
-0.144414
-0.113394
-0.0902451
-0.068424
-0.0490858
-0.0390552
-0.0277444
-0.0216636
-0.00350132
0.0149197
0.0398761
0.0429329
0.0815256
0.130187
0.243812
0.324321
0.37808
0.469186
0.544057
0.631371
0.687682
0.73852
0.787181
0.832002
0.881291
0.927751
0.968204
0.99745
1.02626
1.05463
1.05977
1.06379
1.06185
1.06049
1.05065
1.03894
1.02217
1.01168
1.00442
0.994848
0.983399
0.970015
0.950566
0.91982
0.865464
0.774206
0.644399
0.534401
0.485931
0.461679
0.459812
0.472188
0.494755
0.521432
0.550431
0.583914
0.607275
0.612276
0.604096
0.544479
0.476207
0.381705
0.387467
1.92709e-05
2.55948e-05
2.46431e-05
2.42624e-05
3.12029e-05
2.27752e-05
1.2092e-05
4.00758e-05
3.85482e-05
1.01995e-05
6.96941e-05
8.57665e-05
3.73694e-05
9.62628e-05
0.000145141
0.000102325
7.30425e-05
0.000206251
0.000213823
0.000147444
0.000228263
0.000342912
0.000308564
0.000205643
0.000120854
0.000369765
0.000449418
0.000399631
0.000271921
7.76775e-05
0.000515939
0.000499393
0.00076035
0.000534009
0.000107315
-0.00171299
-0.0127419
-0.0926148
-0.519855
-0.80907
-0.851883
-0.855253
-0.853349
-0.848194
-0.836232
-0.814274
-0.779792
-0.714233
-0.654201
-0.563638
-0.495561
-0.411566
-0.352155
-0.286238
-0.234074
-0.185457
-0.139974
-0.108122
-0.0772719
-0.0618784
-0.0360927
-0.0258795
0.00203155
0.0222979
0.0738668
0.140767
0.251582
0.310255
0.352087
0.420724
0.492451
0.5608
0.578122
0.616007
0.656797
0.704228
0.735242
0.760533
0.790921
0.823562
0.858335
0.905473
0.966211
1.01087
1.04236
1.04833
1.05428
1.05949
1.06315
1.06447
1.06176
1.05565
1.04311
1.03119
1.02187
1.01163
1.00026
0.988144
0.969263
0.940902
0.889859
0.803533
0.677189
0.561746
0.509513
0.485787
0.480998
0.490735
0.510481
0.534025
0.562232
0.593365
0.624074
0.627342
0.632795
0.577892
0.507585
0.40954
0.414564
2.17285e-05
2.76317e-05
2.69805e-05
2.51249e-05
3.14316e-05
3.02151e-05
1.09575e-05
3.51734e-05
4.86694e-05
8.42658e-06
5.66133e-05
9.76447e-05
4.78628e-05
7.17299e-05
0.000158534
0.000125163
7.01638e-05
0.000184126
0.000226773
0.000167543
0.000213698
0.000349607
0.000330018
0.000228061
5.31241e-05
0.000259147
0.000465943
0.000441688
0.000364385
9.30005e-05
0.000384134
0.000387589
0.000737356
0.000676914