/*--------------------------------*- C++ -*----------------------------------*\
| =========                 |                                                 |
| \\      /  F ield         | OpenFOAM: The Open Source CFD Toolbox           |
|  \\    /   O peration     | Version:  2.2.x                                 |
|   \\  /    A nd           | Web:      www.OpenFOAM.org                      |
|    \\/     M anipulation  |                                                 |
\*---------------------------------------------------------------------------*/
FoamFile
{
    version     2.0;
    format      ascii;
    class       surfaceScalarField;
    location    "1.8";
    object      phi;
}
// * * * * * * * * * * * * * * * * * * * * * * * * * * * * * * * * * * * * * //

dimensions      [1 0 -1 0 0 0 0];

internalField   nonuniform List<scalar> 
28084
(
0.000746239
0.000743028
0.000740275
0.000737961
0.00073607
0.00073457
0.000733444
0.000732707
0.000732237
0.000732045
0.000732211
0.000732587
0.000733091
0.000733885
0.000734849
0.000735853
0.000737034
0.000738319
0.000739672
0.000741005
0.000742373
0.00074377
0.000745184
0.000746577
0.000747874
0.000749067
0.000750216
0.000751289
0.000752286
0.000753159
0.000753917
0.000754565
0.000755121
0.000755462
0.000755803
0.000756147
0.00075684
0.000760171
0.000787094
0.00102951
0.00109595
0.00109542
0.00109032
0.00108825
0.00108597
0.00109706
0.00110829
0.00111974
0.00113165
0.00114314
0.00115467
0.00116612
0.00117785
0.00118965
0.00120136
0.00121278
0.0012242
0.00123602
0.00124817
0.00126028
0.00127234
0.00128413
0.00129504
0.00130504
0.00131427
0.00132296
0.00133136
0.00133904
0.00134584
0.00135203
0.00135757
0.00136229
0.0013661
0.00136892
0.00137113
0.00137323
0.00137498
0.00137568
0.00137552
0.00137354
0.00136945
0.00136405
0.00135841
0.00135105
0.00134274
0.00133453
0.00132551
0.0013145
0.0012988
0.00128341
0.00127055
0.00125729
0.00124366
0.00122831
0.00121689
0.00120923
0.00120163
0.001192
0.00117653
0.00115571
0.00113026
0.00110022
0.00106584
0.00102642
0.00098277
0.000935722
0.000886101
0.00083576
0.000783811
0.000731157
0.000674008
0.000614616
0.00054675
0.000473849
0.000388555
0.000298187
0.000194386
9.32399e-05
3.71716e-06
3.23191e-06
0.000749755
2.77354e-06
0.000748823
2.33414e-06
0.000748321
1.91453e-06
0.000748231
1.5141e-06
0.000748538
1.14415e-06
0.00074921
7.94977e-07
0.000750231
4.71937e-07
0.00075162
1.61876e-07
0.000753252
-9.43395e-08
0.000755129
-3.38986e-07
0.000757339
-5.66487e-07
0.000759726
-7.42556e-07
0.000762205
-9.02107e-07
0.000764938
-1.0477e-06
0.000767808
-1.16062e-06
0.000770683
-1.23726e-06
0.000773677
-1.31149e-06
0.000776736
-1.35093e-06
0.000779808
-1.37963e-06
0.000782815
-1.38284e-06
0.000785809
-1.37226e-06
0.000788778
-1.34915e-06
0.00079171
-1.30195e-06
0.000794562
-1.24168e-06
0.000797262
-1.17136e-06
0.000799799
-1.08571e-06
0.000802238
-1.0052e-06
0.000804548
-8.99639e-07
0.000806721
-8.01065e-07
0.00080875
-6.85426e-07
0.000810561
-5.94823e-07
0.000812234
-4.28812e-07
0.000813698
-4.43237e-07
0.000815018
-3.64057e-07
0.000816151
-6.70774e-07
0.000817119
-3.30477e-06
0.000818687
-2.69174e-05
0.00081932
-0.000247405
0.000822178
-7.28661e-05
0.000821331
-9.44709e-08
0.000845252
3.55315e-06
0.000851729
1.33395e-06
0.00086139
2.0759e-06
0.000863575
-1.08907e-05
0.000866372
-1.05539e-05
0.000878815
-1.05592e-05
0.000889865
-1.14344e-05
0.000902299
-1.0944e-05
0.000916871
-1.11335e-05
0.000931268
-1.08382e-05
0.000946924
-1.09941e-05
0.000963688
-1.0629e-05
0.000981767
-1.0216e-05
0.000999255
-9.56606e-06
0.00101601
-9.05365e-06
0.0010325
-8.75487e-06
0.00104978
-8.74725e-06
0.00106665
-8.74668e-06
0.00108286
-8.72652e-06
0.00109781
-8.60007e-06
0.00111224
-8.24403e-06
0.00112564
-8.08599e-06
0.00113817
-8.04586e-06
0.00114991
-7.5677e-06
0.00115977
-6.95534e-06
0.00116899
-6.38493e-06
0.00117742
-5.63511e-06
0.00118428
-5.08593e-06
0.00119073
-4.41542e-06
0.00119669
-3.7197e-06
0.00120166
-3.20042e-06
0.00120556
-2.51007e-06
0.00120837
-1.74536e-06
0.00120994
-9.74212e-07
0.0012112
-2.78326e-07
0.00121212
-2.54813e-07
0.00121077
-1.01295e-08
0.00120413
2.44647e-06
0.00119828
3.79874e-06
0.00119413
4.8782e-06
0.00118813
4.43583e-06
0.00117761
6.68466e-06
0.00116483
8.06633e-06
0.00115764
8.44708e-06
0.00115559
9.32159e-06
0.00114845
1.09021e-05
0.00113399
1.29658e-05
0.00112231
1.30129e-05
0.00110889
1.32933e-05
0.00108317
1.47819e-05
0.00105763
1.20202e-05
0.0010291
1.17195e-05
0.00100472
8.47056e-06
0.000978585
6.17426e-06
0.000950581
6.98481e-06
0.000922112
8.50432e-06
0.000892322
1.38589e-05
0.000860266
2.02769e-05
0.000831354
2.4445e-05
0.000805649
2.9554e-05
0.000781387
3.49047e-05
0.000758879
4.0429e-05
0.00073669
4.54133e-05
0.000713241
4.86395e-05
0.000688793
5.18031e-05
0.000664191
5.18616e-05
0.000638194
5.28378e-05
0.000610286
5.267e-05
0.000579663
5.66962e-05
0.000546338
5.94404e-05
0.000508413
6.90279e-05
0.000467179
7.49289e-05
0.000418715
8.73266e-05
0.000369104
9.18079e-05
0.000308017
0.000104749
0.000240039
9.9575e-05
0.000160432
8.97362e-05
8.16133e-05
5.12348e-06
4.1849e-06
0.00075445
3.29625e-06
0.000755768
2.44484e-06
0.000757488
1.63018e-06
0.000759595
8.57031e-07
0.000762076
1.39373e-07
0.000764891
-5.35892e-07
0.000768034
-1.15144e-06
0.000771512
-1.73921e-06
0.000775219
-2.23315e-06
0.000779151
-2.69027e-06
0.000783381
-3.10897e-06
0.000787778
-3.42594e-06
0.00079221
-3.70556e-06
0.000796852
-3.95387e-06
0.000801594
-4.14291e-06
0.000806311
-4.25035e-06
0.000811107
-4.34713e-06
0.000815914
-4.37722e-06
0.000820699
-4.38389e-06
0.000825374
-4.3375e-06
0.000829982
-4.26089e-06
0.000834514
-4.16276e-06
0.000838957
-4.01157e-06
0.000843249
-3.82935e-06
0.000847328
-3.632e-06
0.000851182
-3.409e-06
0.00085489
-3.17991e-06
0.000858414
-2.92953e-06
0.000861742
-2.63839e-06
0.00086484
-2.38023e-06
0.000867724
-2.08562e-06
0.000870385
-1.78261e-06
0.0008728
-1.59279e-06
0.000874942
-1.31866e-06
0.000876709
-2.05314e-06
0.00087851
-3.74224e-06
0.00087967
-2.98904e-05
0.000879236
-0.000246527
0.000865684
-9.76865e-05
0.000755375
-6.40369e-06
0.000705923
-6.56748e-06
0.000707209
-1.93216e-06
0.000722468
-1.31066e-06
0.000741893
-2.34596e-05
0.000764456
-2.15492e-05
0.000797923
-2.23364e-05
0.000831136
-2.56959e-05
0.000863505
-2.47965e-05
0.000895162
-2.61093e-05
0.000924638
-2.66151e-05
0.000953374
-2.78715e-05
0.000980216
-2.74609e-05
0.00100479
-2.75887e-05
0.00102767
-2.70723e-05
0.00104966
-2.67716e-05
0.00106993
-2.60223e-05
0.00108909
-2.50633e-05
0.00110649
-2.3956e-05
0.00112309
-2.31735e-05
0.00113801
-2.17318e-05
0.00115254
-2.04289e-05
0.00116462
-1.92769e-05
0.00117474
-1.79098e-05
0.00118386
-1.64328e-05
0.00119206
-1.4479e-05
0.00119948
-1.26637e-05
0.0012056
-1.10722e-05
0.0012107
-9.52242e-06
0.00121464
-8.14495e-06
0.00121714
-6.78236e-06
0.00121904
-5.21216e-06
0.00122051
-3.36119e-06
0.00122111
-1.62258e-06
0.00121998
3.30376e-07
0.00121677
2.89367e-06
0.00121048
5.2821e-06
0.00120518
7.18292e-06
0.00119956
9.99909e-06
0.00119079
1.21147e-05
0.00117445
1.33273e-05
0.00116165
1.38894e-05
0.00115216
1.42417e-05
0.00114041
1.42521e-05
0.00112011
1.76608e-05
0.00109542
1.7385e-05
0.00108367
2.58299e-05
0.00106569
2.86326e-05
0.0010162
3.3371e-05
0.00093177
3.597e-05
0.000854305
4.38097e-05
0.000772856
3.68877e-05
0.000699607
3.7526e-05
0.000640318
3.60115e-05
0.000587285
3.32289e-05
0.000545224
3.58818e-05
0.000510546
3.94734e-05
0.000482029
4.23629e-05
0.000459054
4.58706e-05
0.000440568
4.88988e-05
0.000427474
5.30586e-05
0.000416345
5.90058e-05
0.000405601
6.53115e-05
0.000395758
7.07052e-05
0.000388344
7.46979e-05
0.000381112
7.84424e-05
0.000371541
7.98635e-05
0.000359729
8.32207e-05
0.000346166
8.53667e-05
0.000329881
9.4318e-05
0.000310984
0.000101288
0.000287824
0.000119099
0.000265128
0.000126496
0.00023868
0.000149999
0.000212166
0.000161138
0.000181201
0.0001854
0.000144856
0.000176923
0.00010696
0.000168343
5.79527e-05
4.24825e-06
2.88828e-06
0.000760324
1.59683e-06
0.000763859
3.59306e-07
0.000767769
-8.30623e-07
0.000772041
-1.9413e-06
0.000776659
-2.98809e-06
0.000781602
-3.97122e-06
0.000786847
-4.85162e-06
0.000792392
-5.68556e-06
0.000798144
-6.3882e-06
0.000804097
-7.02987e-06
0.000810301
-7.59042e-06
0.000816662
-8.03879e-06
0.000823032
-8.3983e-06
0.000829564
-8.69802e-06
0.000836182
-8.93074e-06
0.000842756
-9.01775e-06
0.000849299
-9.09075e-06
0.000855825
-9.05763e-06
0.000862277
-8.99346e-06
0.000868607
-8.84833e-06
0.000874807
-8.65193e-06
0.000880879
-8.42554e-06
0.000886811
-8.10609e-06
0.000892528
-7.75563e-06
0.000897975
-7.37788e-06
0.000903142
-6.96695e-06
0.00090811
-6.53464e-06
0.000912837
-6.05183e-06
0.00091731
-5.56543e-06
0.000921543
-5.09379e-06
0.000925541
-4.579e-06
0.000929183
-4.05908e-06
0.000932498
-3.56179e-06
0.00093551
-3.19328e-06
0.000938195
-3.13412e-06
0.000940521
-3.43016e-06
0.000942403
-1.69114e-05
0.000942317
-0.000137761
0.000922026
-4.90428e-05
0.000765815
-8.78931e-06
0.000670742
-2.30989e-05
0.000670313
-2.29858e-05
0.000697254
-2.53333e-05
0.000731393
-5.75123e-05
0.000765433
-5.59696e-05
0.00080926
-5.58701e-05
0.000851525
-5.81538e-05
0.000889765
-5.50973e-05
0.000929246
-5.47186e-05
0.000965794
-5.32506e-05
0.000997332
-5.27973e-05
0.0010262
-5.10406e-05
0.00105705
-4.98555e-05
0.00108401
-4.7827e-05
0.0011078
-4.71068e-05
0.00112884
-4.45017e-05
0.00114909
-4.23505e-05
0.00116651
-3.97e-05
0.00118436
-3.74383e-05
0.00119987
-3.40908e-05
0.00121476
-3.09994e-05
0.00122768
-2.8753e-05
0.00123886
-2.62477e-05
0.00124924
-2.35186e-05
0.0012586
-2.05043e-05
0.00126585
-1.73908e-05
0.00127206
-1.49109e-05
0.00127704
-1.23631e-05
0.00128092
-9.82352e-06
0.0012838
-7.39584e-06
0.00128523
-4.94719e-06
0.00128562
-2.20454e-06
0.00128436
8.13274e-07
0.00128196
4.94737e-06
0.00127924
9.29701e-06
0.00127456
1.28838e-05
0.00126526
1.70332e-05
0.00125192
2.14426e-05
0.00124197
2.50532e-05
0.00123224
2.47971e-05
0.00121946
3.01638e-05
0.00119458
2.57782e-05
0.00117521
2.97344e-05
0.00116346
3.80887e-05
0.00114299
5.12853e-05
0.00108717
7.33426e-05
0.00102051
9.37078e-05
0.000969761
0.000117217
0.000884087
0.000119323
0.000777935
0.000116123
0.00068716
9.89728e-05
0.00059923
8.94887e-05
0.000533286
7.69114e-05
0.000474325
6.90584e-05
0.000419294
6.55255e-05
0.000373772
6.2361e-05
0.000339047
6.07952e-05
0.000314143
6.01775e-05
0.000293439
6.14101e-05
0.000276236
6.39358e-05
0.000263838
6.79479e-05
0.000253981
7.26831e-05
0.000245261
7.86693e-05
0.0002364
8.3991e-05
0.000227453
8.96232e-05
0.000217981
9.33247e-05
0.000207511
9.95806e-05
0.000194935
0.000104316
0.000178205
0.000117598
0.000158013
0.000125231
0.000134633
0.000147455
0.000113932
0.000154737
9.36446e-05
0.000182689
8.07223e-05
0.000199515
6.52744e-05
0.000224434
5.41488e-05
0.000224286
4.29255e-05
0.000223677
2.76538e-05
1.12516e-06
-6.25237e-07
0.000767378
-2.29291e-06
0.000773094
-3.89149e-06
0.000779162
-5.42594e-06
0.000785569
-6.86341e-06
0.000792292
-8.21237e-06
0.000799322
-9.47682e-06
0.000806623
-1.0591e-05
0.000814178
-1.16535e-05
0.000821987
-1.25377e-05
0.000829941
-1.33323e-05
0.000838065
-1.39989e-05
0.000846395
-1.45584e-05
0.000854739
-1.49485e-05
0.000863062
-1.52651e-05
0.000871459
-1.54812e-05
0.000879866
-1.55291e-05
0.000888213
-1.5512e-05
0.000896422
-1.53793e-05
0.000904493
-1.51906e-05
0.000912422
-1.48949e-05
0.000920194
-1.45275e-05
0.00092781
-1.41084e-05
0.000935229
-1.35701e-05
0.000942353
-1.29971e-05
0.000949148
-1.23822e-05
0.000955591
-1.17262e-05
0.000961796
-1.10283e-05
0.000967704
-1.02748e-05
0.000973315
-9.52604e-06
0.00097865
-8.72155e-06
0.000983605
-7.8961e-06
0.000988167
-7.04644e-06
0.000992413
-6.1846e-06
0.000996373
-5.31764e-06
0.000999875
-4.64124e-06
0.0010029
-2.95878e-06
0.00100495
3.22175e-06
0.00100397
1.53157e-05
0.000976346
4.69246e-05
0.000775351
-8.37036e-06
0.00070413
-5.05415e-05
0.000705808
-5.90469e-05
0.000738487
-6.24239e-05
0.000785638
-0.000103139
0.000833647
-0.000101993
0.000885099
-9.80418e-05
0.000934823
-9.77661e-05
0.000980573
-9.11873e-05
0.00102378
-8.98666e-05
0.00106075
-8.45981e-05
0.00109482
-8.26463e-05
0.00112585
-7.82013e-05
0.00115869
-7.50215e-05
0.00118991
-7.13882e-05
0.00121767
-6.83785e-05
0.00124301
-6.41508e-05
0.00126691
-6.07072e-05
0.00128971
-5.64288e-05
0.00130972
-5.20488e-05
0.00132784
-4.81064e-05
0.00134495
-4.29685e-05
0.00135925
-3.8926e-05
0.00137305
-3.44569e-05
0.00138473
-3.0309e-05
0.0013942
-2.66475e-05
0.00140401
-2.18986e-05
0.00141217
-1.83226e-05
0.0014183
-1.49057e-05
0.00142341
-1.09964e-05
0.00142592
-7.50494e-06
0.00142691
-3.76762e-06
0.00142722
1.72753e-07
0.00142649
4.83704e-06
0.00142417
1.02121e-05
0.00141923
1.64743e-05
0.00141081
2.39534e-05
0.00140078
2.97394e-05
0.00138935
3.40147e-05
0.00137691
3.84039e-05
0.00135578
4.12549e-05
0.00133668
4.57806e-05
0.00132099
5.12191e-05
0.00130028
5.90066e-05
0.00126953
7.25218e-05
0.0012234
0.000102798
0.00118088
0.000140907
0.00113007
0.000202668
0.00104082
0.000217463
0.000936259
0.000208991
0.000847745
0.000195875
0.00075076
0.00016708
0.00064533
0.0001541
0.000549666
0.000131984
0.000469616
0.000114557
0.000412885
0.00010065
0.000367302
8.81219e-05
0.000327691
8.1606e-05
0.000293866
7.68003e-05
0.000269677
7.49636e-05
0.000253036
7.37784e-05
0.000236237
7.60543e-05
0.000219132
8.09484e-05
0.000203347
8.75341e-05
0.000187383
9.34326e-05
0.000169555
0.000100311
0.000150896
0.000106905
0.000132782
0.000117096
0.000115128
0.000124931
9.70513e-05
0.000142032
8.03763e-05
0.00014783
6.31986e-05
0.00016967
4.99057e-05
0.000169177
3.96028e-05
0.000199779
3.22977e-05
0.000212189
2.24086e-05
0.000235606
1.82477e-05
0.000237911
1.40537e-05
0.000249516
1.24752e-05
-4.2088e-06
-6.31899e-06
0.000775617
-8.33964e-06
0.000783473
-1.02759e-05
0.000791655
-1.2126e-05
0.000800152
-1.38716e-05
0.000808949
-1.54968e-05
0.000818033
-1.70106e-05
0.000827366
-1.83699e-05
0.000836928
-1.96044e-05
0.000846743
-2.06533e-05
0.000856654
-2.15656e-05
0.000866673
-2.23136e-05
0.000876863
-2.29043e-05
0.000887125
-2.33334e-05
0.00089729
-2.36414e-05
0.000907494
-2.3777e-05
0.0009177
-2.37456e-05
0.000927746
-2.3591e-05
0.000937617
-2.33161e-05
0.000947317
-2.29505e-05
0.000956838
-2.24613e-05
0.00096615
-2.18632e-05
0.000975268
-2.11911e-05
0.000984128
-2.03979e-05
0.000992648
-1.95397e-05
0.00100077
-1.86286e-05
0.00100847
-1.76652e-05
0.00101589
-1.66533e-05
0.00102297
-1.56055e-05
0.00102971
-1.45178e-05
0.0010361
-1.33814e-05
0.0010421
-1.22503e-05
0.00104774
-1.1085e-05
0.00105298
-9.7979e-06
0.00105783
-8.51484e-06
0.0010623
-6.9647e-06
0.00106633
-2.5217e-06
0.00106907
2.94316e-05
0.00107094
0.000209959
0.0010542
0.00011578
0.000930302
-1.06763e-05
0.00085648
-8.30635e-05
0.000866478
-0.000105323
0.000911734
-0.000109776
0.0009596
-0.000154152
0.00100395
-0.000152415
0.00105438
-0.000143509
0.00110721
-0.000140163
0.00115628
-0.000128811
0.00119988
-0.000125428
0.00123953
-0.00011684
0.0012757
-0.000114269
0.00130885
-0.000106838
0.00134012
-0.000103338
0.0013688
-9.7449e-05
0.00139353
-9.23341e-05
0.00141592
-8.63174e-05
0.00143638
-8.09115e-05
0.00145512
-7.42217e-05
0.00147189
-6.86238e-05
0.00148794
-6.2113e-05
0.00150202
-5.61731e-05
0.00151479
-5.0494e-05
0.00152545
-4.42153e-05
0.00153341
-3.82881e-05
0.00154009
-3.35118e-05
0.00154706
-2.75598e-05
0.00155303
-2.15874e-05
0.00155716
-1.74082e-05
0.0015604
-1.23804e-05
0.00156193
-6.98027e-06
0.00156252
-2.29965e-06
0.00156199
2.94598e-06
0.00155929
9.18359e-06
0.00155594
1.65847e-05
0.00155124
2.55383e-05
0.00154406
3.49611e-05
0.00153468
4.27553e-05
0.0015244
5.04705e-05
0.00150993
5.72234e-05
0.00149592
6.15359e-05
0.00148123
6.96791e-05
0.00146311
7.89375e-05
0.00144136
9.47019e-05
0.00141529
0.000122584
0.00138647
0.000167984
0.0013437
0.00022212
0.00127147
0.000290925
0.00120284
0.000320324
0.0011134
0.000313557
0.00100975
0.000298477
0.000896735
0.00026118
0.000785195
0.000230035
0.0006766
0.000189532
0.000573594
0.000164036
0.000485898
0.000139165
0.000412384
0.000118957
0.000356895
0.000105069
0.000316639
9.43753e-05
0.000282895
9.28405e-05
0.000253309
8.90012e-05
0.000232962
9.07741e-05
0.00021642
9.68859e-05
0.000198015
0.000104865
0.000176945
0.000112594
0.000154566
0.000119575
0.000131146
0.00012554
0.00010791
0.000136136
8.66189e-05
0.000142752
6.61905e-05
0.000160639
5.03453e-05
0.000162676
3.51946e-05
0.000181517
2.51396e-05
0.000177792
1.73541e-05
0.000210783
1.14338e-05
0.000216762
6.46338e-06
0.000238718
5.88457e-06
0.000237994
4.58544e-06
0.000261076
5.36643e-06
-1.17121e-05
-1.41532e-05
0.000785046
-1.64998e-05
0.000794999
-1.87511e-05
0.000805254
-2.09014e-05
0.000815802
-2.29261e-05
0.000826631
-2.4813e-05
0.000837729
-2.65547e-05
0.000849042
-2.81247e-05
0.000860557
-2.9502e-05
0.000872323
-3.07001e-05
0.000884205
-3.17015e-05
0.000896088
-3.25049e-05
0.000908141
-3.30972e-05
0.000920249
-3.35181e-05
0.000932209
-3.37726e-05
0.000944178
-3.37943e-05
0.000956125
-3.36381e-05
0.000967854
-3.33089e-05
0.00097936
-3.28438e-05
0.000990667
-3.22457e-05
0.00100175
-3.1522e-05
0.00101257
-3.06327e-05
0.00102316
-2.96549e-05
0.00103345
-2.8552e-05
0.00104334
-2.73515e-05
0.00105275
-2.60942e-05
0.00106166
-2.47604e-05
0.00107027
-2.3383e-05
0.0010785
-2.19609e-05
0.00108632
-2.04754e-05
0.00109373
-1.89407e-05
0.00110072
-1.73978e-05
0.00110732
-1.57313e-05
0.00111332
-1.39788e-05
0.00111891
-1.22551e-05
0.00112435
-9.45469e-06
0.00112919
-4.20444e-06
0.00113381
4.552e-05
0.0011364
0.000329179
0.00113854
0.000184746
0.00108985
-2.30751e-05
0.00108346
-0.000130853
0.00112917
-0.000154856
0.00118199
-0.00015503
0.00122687
-0.000206641
0.00126752
-0.000205226
0.00131647
-0.000191394
0.00135694
-0.000184763
0.00139571
-0.000169631
0.00142586
-0.00016218
0.00145418
-0.000150226
0.00147704
-0.000143727
0.00149867
-0.000134118
0.00151753
-0.00012785
0.00153514
-0.000120046
0.00154981
-0.00011276
0.00156363
-0.000104983
0.00157644
-9.78162e-05
0.00158761
-8.92697e-05
0.00159769
-8.22167e-05
0.00160692
-7.42652e-05
0.00161473
-6.67288e-05
0.00162159
-5.95834e-05
0.00162725
-5.24742e-05
0.00163213
-4.4993e-05
0.00163693
-3.89936e-05
0.00164002
-3.17603e-05
0.0016423
-2.44254e-05
0.00164372
-1.90879e-05
0.00164408
-1.28457e-05
0.00164369
-6.18648e-06
0.00164256
-1.53462e-07
0.0016398
6.20516e-06
0.00163599
1.38119e-05
0.00163083
2.28752e-05
0.00162414
3.33796e-05
0.00161623
4.32455e-05
0.00160701
5.47163e-05
0.0015953
6.38202e-05
0.00158208
7.26792e-05
0.0015674
7.94532e-05
0.00155217
8.92585e-05
0.00153623
0.000103643
0.00151886
0.000128552
0.00149947
0.000168102
0.00146889
0.000235416
0.00142689
0.000303472
0.00136364
0.000381301
0.00130021
0.000419457
0.00122573
0.000423988
0.00114066
0.000411531
0.00104999
0.000372353
0.000956085
0.000332343
0.000850931
0.000276858
0.00072825
0.000237052
0.000601761
0.000194934
0.000502509
0.000160732
0.000425981
0.00013846
0.000366374
0.000120138
0.000322223
0.000110144
0.000290347
0.00010614
0.000263114
0.000109537
0.000237773
0.000116275
0.000214522
0.000126985
0.000192886
0.000136061
0.000168981
0.000143469
0.00014118
0.000147745
0.000112604
0.000157821
8.5856e-05
0.000159725
6.20336e-05
0.000176944
4.48457e-05
0.000173729
3.12288e-05
0.000190225
2.11989e-05
0.000184438
1.24853e-05
0.000216176
6.15286e-06
0.0002165
3.25506e-06
0.000238687
3.43993e-06
0.000236756
2.3419e-06
0.000265963
3.08944e-06
-2.13393e-05
-2.4084e-05
0.000795672
-2.6732e-05
0.000807673
-2.92777e-05
0.000819954
-3.17068e-05
0.000832507
-3.39935e-05
0.00084532
-3.61165e-05
0.00085839
-3.80652e-05
0.00087165
-3.98144e-05
0.000885083
-4.1336e-05
0.000898753
-4.26345e-05
0.000912524
-4.37061e-05
0.000926257
-4.45363e-05
0.000940138
-4.51019e-05
0.000954052
-4.54706e-05
0.000967765
-4.56273e-05
0.00098147
-4.54967e-05
0.000995124
-4.51881e-05
0.0010085
-4.46283e-05
0.00102162
-4.39297e-05
0.00103451
-4.30504e-05
0.00104711
-4.20331e-05
0.00105941
-4.08047e-05
0.00107143
-3.9483e-05
0.0010831
-3.80083e-05
0.00109433
-3.64237e-05
0.00110502
-3.4761e-05
0.00111515
-3.30127e-05
0.00112493
-3.12262e-05
0.00113429
-2.93834e-05
0.0011432
-2.74912e-05
0.00115166
-2.55803e-05
0.00115967
-2.35439e-05
0.00116717
-2.15022e-05
0.00117425
-1.9495e-05
0.00118088
-1.73557e-05
0.00118699
-1.46251e-05
0.00119302
-7.7655e-06
0.00119968
4.23016e-05
0.00120537
0.000369818
0.00123379
0.000186797
0.0014218
-6.97805e-05
0.00151526
-0.000184455
0.00156496
-0.000200331
0.00156481
-0.000195047
0.00156198
-0.00025548
0.00155878
-0.000245261
0.0015686
-0.000230018
0.00157803
-0.00021546
0.00158739
-0.000199054
0.00159617
-0.000185902
0.00160438
-0.000172114
0.00161292
-0.000162385
0.00162282
-0.000151657
0.00163217
-0.000142417
0.00164176
-0.00013373
0.00164998
-0.000125969
0.00165762
-0.000117005
0.00166493
-0.00010825
0.00167148
-9.94262e-05
0.00167688
-9.02564e-05
0.00168099
-8.17862e-05
0.00168453
-7.38241e-05
0.00168754
-6.53318e-05
0.00169021
-5.77062e-05
0.00169292
-4.94554e-05
0.00169534
-4.17393e-05
0.00169604
-3.35646e-05
0.00169612
-2.5881e-05
0.00169507
-1.88628e-05
0.00169205
-1.13945e-05
0.00168908
-4.06409e-06
0.00168597
3.00367e-06
0.00168157
1.05452e-05
0.0016762
1.91504e-05
0.00166946
2.91996e-05
0.00166147
4.10275e-05
0.00165282
5.31135e-05
0.0016434
6.55397e-05
0.0016314
7.61363e-05
0.00161787
8.65589e-05
0.00160383
9.50259e-05
0.00158894
0.000106674
0.00157313
0.000123752
0.00155524
0.00015635
0.00153232
0.00020924
0.00149969
0.00030247
0.0014492
0.000375158
0.00139422
0.000453075
0.00132005
0.000500021
0.00127087
0.000514399
0.00121615
0.000509121
0.00114684
0.000483814
0.00107052
0.000455955
0.000983726
0.000402926
0.000884337
0.000337983
0.000770876
0.000272335
0.000643443
0.000218415
0.000527123
0.00018062
0.000443629
0.000151988
0.000381355
0.000137185
0.000335041
0.000128637
0.000299689
0.00013051
0.000271523
0.00013754
0.000246355
0.000151443
0.000222375
0.000162801
0.000198177
0.000172473
0.000172015
0.000174949
0.000142535
0.000182363
0.000111731
0.000177717
8.31077e-05
0.000191443
6.01887e-05
0.000184327
4.14099e-05
0.000199547
2.87831e-05
0.000190885
1.79346e-05
0.000218669
9.31341e-06
0.000215367
5.10337e-06
0.000239457
3.9778e-06
0.000235925
2.36395e-06
0.000268926
1.93103e-06
-3.30404e-05
-3.60629e-05
0.000807505
-3.8989e-05
0.000821502
-4.18092e-05
0.000835756
-4.44972e-05
0.000850265
-4.70267e-05
0.000865014
-4.93683e-05
0.000880008
-5.14981e-05
0.000895162
-5.34041e-05
0.000910472
-5.50528e-05
0.000925991
-5.64297e-05
0.000941619
-5.75345e-05
0.000957153
-5.83634e-05
0.000972816
-5.8883e-05
0.000988496
-5.91512e-05
0.00100393
-5.91721e-05
0.00101932
-5.88522e-05
0.00103465
-5.83446e-05
0.00104966
-5.75316e-05
0.00106431
-5.65424e-05
0.00107874
-5.53269e-05
0.00109283
-5.39656e-05
0.00110657
-5.23478e-05
0.00111999
-5.06447e-05
0.00113302
-4.87474e-05
0.00114556
-4.67249e-05
0.0011575
-4.45973e-05
0.00116879
-4.23907e-05
0.00117972
-4.01229e-05
0.00119016
-3.77904e-05
0.0012001
-3.54165e-05
0.00120954
-3.29577e-05
0.00121846
-3.04693e-05
0.00122683
-2.79389e-05
0.00123465
-2.53223e-05
0.00124197
-2.28354e-05
0.00124924
-2.03765e-05
0.00125529
-1.3425e-05
0.00126124
1.42451e-05
0.00126987
0.00017105
0.00130394
8.15003e-05
0.00150343
-0.000111595
0.00170894
-0.000178959
0.001726
-0.000192837
0.00171141
-0.000188219
0.00169459
-0.000262456
0.00168503
-0.00025219
0.00168086
-0.000238351
0.00167784
-0.000224136
0.00167665
-0.000207885
0.00167258
-0.00019532
0.00167177
-0.000182368
0.00167012
-0.000172025
0.00167051
-0.000161556
0.00167648
-0.000150854
0.00168065
-0.000142074
0.00168503
-0.000134404
0.00168706
-0.000124532
0.00169142
-0.000114705
0.00169573
-0.000105211
0.0017005
-9.59416e-05
0.00170399
-8.66168e-05
0.00170733
-7.796e-05
0.00170996
-6.8764e-05
0.00171244
-6.04755e-05
0.00171448
-5.13305e-05
0.00171587
-4.29823e-05
0.00171608
-3.37671e-05
0.00171566
-2.52633e-05
0.0017142
-1.69523e-05
0.00171162
-8.6739e-06
0.00170807
-5.1033e-07
0.00170321
7.55164e-06
0.00169734
1.59745e-05
0.00168995
2.54229e-05
0.00168136
3.63341e-05
0.00167258
4.94931e-05
0.00166375
6.335e-05
0.00165403
7.72434e-05
0.00164184
8.89269e-05
0.00162739
0.000100467
0.001613
0.000110074
0.00159721
0.000123845
0.00157835
0.000145992
0.00155611
0.000188996
0.00152557
0.0002605
0.00148113
0.000355776
0.00141851
0.000448898
0.00135299
0.000504004
0.00130609
0.0005549
0.00126039
0.000583864
0.00122394
0.000587373
0.00117585
0.00057256
0.00111261
0.000557244
0.00104102
0.000518132
0.00096077
0.000464147
0.000868324
0.0003868
0.000764561
0.00030219
0.000648521
0.000243244
0.00053165
0.000197492
0.000447301
0.00017119
0.00039001
0.000155418
0.000346631
0.000154569
0.000310329
0.000160385
0.000278497
0.000174764
0.000252753
0.00018926
0.000230099
0.000201754
0.000206745
0.000205608
0.000179401
0.000211055
0.000147871
0.000200546
0.000115046
0.000210305
8.3213e-05
0.000197057
5.77869e-05
0.000210303
3.95346e-05
0.000199081
2.45076e-05
0.000222334
1.43839e-05
0.000216631
9.37543e-06
0.000241326
6.06006e-06
0.000236638
3.79476e-06
0.000270809
1.65379e-06
-4.67611e-05
-5.00372e-05
0.000820555
-5.32193e-05
0.000836491
-5.62949e-05
0.000852664
-5.92242e-05
0.000869073
-6.1988e-05
0.000885706
-6.45091e-05
0.000902566
-6.68121e-05
0.000919577
-6.88524e-05
0.00093671
-7.06003e-05
0.000954033
-7.20366e-05
0.000971456
-7.31414e-05
0.000988754
-7.39416e-05
0.00100614
-7.43928e-05
0.00102354
-7.45214e-05
0.00104066
-7.43615e-05
0.00105769
-7.38388e-05
0.00107463
-7.30662e-05
0.00109124
-7.19805e-05
0.00110742
-7.0647e-05
0.00112335
-6.90462e-05
0.00113887
-6.72903e-05
0.00115402
-6.52332e-05
0.00116879
-6.31009e-05
0.00118314
-6.07371e-05
0.00119694
-5.82262e-05
0.0012101
-5.55892e-05
0.00122255
-5.28763e-05
0.0012346
-5.00795e-05
0.00124613
-4.72109e-05
0.00125711
-4.43134e-05
0.00126754
-4.13533e-05
0.00127739
-3.83727e-05
0.00128668
-3.53956e-05
0.00129544
-3.24558e-05
0.00130375
-2.92403e-05
0.00131153
-2.65826e-05
0.00131971
-2.23428e-05
0.00132599
-1.99693e-05
0.00133552
-3.60759e-05
0.00136037
-0.000132951
0.00155757
-0.000124538
0.0016924
-0.000161904
0.00171929
-0.000174324
0.00170461
-0.000176841
0.00168627
-0.000256383
0.00166753
-0.000247534
0.00165033
-0.000235987
0.00164216
-0.000220499
0.00164001
-0.000207566
0.00164534
-0.000195575
0.00165105
-0.000185046
0.00165889
-0.00017725
0.00166746
-0.000166013
0.00167887
-0.000156174
0.00168957
-0.000147671
0.00170094
-0.000140785
0.0017127
-0.00013006
0.00172373
-0.000120441
0.00173235
-0.000109915
0.00174064
-0.000100725
0.00174733
-9.05081e-05
0.00175305
-8.14404e-05
0.00175744
-7.14595e-05
0.00176115
-6.23266e-05
0.00176354
-5.23586e-05
0.00176496
-4.29948e-05
0.00176516
-3.28903e-05
0.00176468
-2.34273e-05
0.00176328
-1.38141e-05
0.00176074
-4.53791e-06
0.00175748
4.40816e-06
0.00175367
1.32887e-05
0.00174763
2.2588e-05
0.00173982
3.26479e-05
0.001731
4.43565e-05
0.00172156
5.87262e-05
0.00171175
7.4579e-05
0.00170028
9.08898e-05
0.00168641
0.000103162
0.00167004
0.000116027
0.00165194
0.000127993
0.00163321
0.000145473
0.00160807
0.000176431
0.00157796
0.000234525
0.00152837
0.000323868
0.00146073
0.000420434
0.00138545
0.000494665
0.00132644
0.000551045
0.00128009
0.000591897
0.00124163
0.000631256
0.00120384
0.000649748
0.00116957
0.00064394
0.00112387
0.000637793
0.00106361
0.000610874
0.000999816
0.000569467
0.000925502
0.000504082
0.000842161
0.000418911
0.000745932
0.000325748
0.00063912
0.000253941
0.000537971
0.000214746
0.000458959
0.000191449
0.000398697
0.000185222
0.000351038
0.000184813
0.000313117
0.000196755
0.000283166
0.000212505
0.00025916
0.000228748
0.000237139
0.000236931
0.000212486
0.000243171
0.000182649
0.000231572
0.000150444
0.00023449
0.000113785
0.000214591
8.27758e-05
0.000224888
5.74734e-05
0.00020924
3.61622e-05
0.000227621
2.41241e-05
0.000220553
1.73098e-05
0.00024438
1.10583e-05
0.000239272
7.68605e-06
0.000272752
3.21647e-06
-6.24423e-05
-6.595e-05
0.000834837
-6.93678e-05
0.00085265
-7.26803e-05
0.000870681
-7.58333e-05
0.000888932
-7.88095e-05
0.00090739
-8.15083e-05
0.000926057
-8.3952e-05
0.000944857
-8.61106e-05
0.000963774
-8.79351e-05
0.000982846
-8.94094e-05
0.00100201
-9.04817e-05
0.00102102
-9.12243e-05
0.00104009
-9.15793e-05
0.00105914
-9.15438e-05
0.00107792
-9.116e-05
0.00109653
-9.03978e-05
0.00111501
-8.9322e-05
0.00113318
-8.79179e-05
0.00115085
-8.61992e-05
0.00116822
-8.41763e-05
0.00118514
-8.19816e-05
0.00120167
-7.94394e-05
0.00121777
-7.68137e-05
0.00123341
-7.3936e-05
0.00124842
-7.08816e-05
0.00126274
-6.77022e-05
0.0012763
-6.44188e-05
0.00128944
-6.10347e-05
0.00130199
-5.75727e-05
0.00131395
-5.40726e-05
0.00132531
-5.05063e-05
0.00133604
-4.69606e-05
0.00134613
-4.3399e-05
0.00135556
-3.97052e-05
0.00136435
-3.63762e-05
0.00137289
-3.25477e-05
0.00138074
-3.27583e-05
0.00138811
-4.62561e-05
0.00139425
-0.000236309
0.00141138
-0.00026051
0.00142473
-0.000146722
0.00144273
-0.000143581
0.00151287
-0.000154166
0.0015534
-0.000157562
0.00157536
-0.000240687
0.00159187
-0.000240507
0.00160646
-0.000233938
0.0016216
-0.000225086
0.00163895
-0.000212159
0.00165674
-0.000203039
0.00167393
-0.000193062
0.00169264
-0.000188609
0.00171082
-0.000177326
0.00172734
-0.000168064
0.00174215
-0.00015933
0.00175794
-0.000150704
0.00177154
-0.000137705
0.00178266
-0.000128329
0.00179251
-0.000116292
0.00180179
-0.00010622
0.00180941
-9.45566e-05
0.00181534
-8.47289e-05
0.00181963
-7.35797e-05
0.00182271
-6.36245e-05
0.00182449
-5.26222e-05
0.00182524
-4.24415e-05
0.00182491
-3.14698e-05
0.00182361
-2.10176e-05
0.00182155
-1.00043e-05
0.00181865
3.57515e-07
0.00181469
1.03671e-05
0.00180908
2.00443e-05
0.00180141
3.02678e-05
0.00179243
4.14247e-05
0.00178257
5.40688e-05
0.00177161
7.02581e-05
0.00175979
8.82056e-05
0.00174595
0.000106986
0.00172986
0.000121579
0.00171385
0.000135016
0.00168964
0.000152733
0.00166294
0.000175757
0.00162794
0.000227205
0.00158264
0.000302709
0.00151296
0.000399484
0.00142771
0.000480268
0.00134869
0.000541511
0.00130023
0.000589673
0.00125706
0.00062996
0.00122109
0.000665388
0.00118394
0.000695836
0.00114932
0.000703856
0.00111094
0.000701681
0.00105819
0.000684509
0.00100014
0.000653035
0.000935294
0.000600698
0.000863764
0.000526967
0.000781186
0.000427155
0.000689453
0.000332931
0.000586479