/*--------------------------------*- C++ -*----------------------------------*\
| =========                 |                                                 |
| \\      /  F ield         | OpenFOAM: The Open Source CFD Toolbox           |
|  \\    /   O peration     | Version:  2.2.x                                 |
|   \\  /    A nd           | Web:      www.OpenFOAM.org                      |
|    \\/     M anipulation  |                                                 |
\*---------------------------------------------------------------------------*/
FoamFile
{
    version     2.0;
    format      ascii;
    class       volScalarField;
    location    "2.65";
    object      rho;
}
// * * * * * * * * * * * * * * * * * * * * * * * * * * * * * * * * * * * * * //

dimensions      [1 -3 0 0 0 0 0];

internalField   nonuniform List<scalar> 
14161
(
1.04839
1.05114
1.03953
1.04161
1.0545
1.05596
1.06093
1.06014
1.04874
1.04037
1.02446
1.02637
1.03334
1.03744
1.05138
1.05773
1.06432
1.06468
1.06339
1.06367
1.06877
1.07395
1.07638
1.07939
1.09089
1.08167
1.33971
2.08826
2.10155
2.04788
2.02995
2.00968
1.96521
1.94272
1.92921
1.93597
1.97268
2.03906
2.06982
2.0876
2.10541
2.1268
2.14944
2.17491
2.2114
2.25072
2.30191
2.36522
2.42456
2.47973
2.52181
2.54506
2.55706
2.55537
2.55987
2.58653
2.63092
2.6899
2.76536
2.8383
2.88119
2.90662
2.92241
2.93683
2.94752
2.94828
2.93227
2.89229
2.8341
2.7733
2.7302
2.70202
2.68762
2.68011
2.67183
2.66628
2.66224
2.65577
2.65322
2.6415
2.62928
2.62948
2.63715
2.639
2.64767
2.65596
2.66937
2.68518
2.71739
2.76712
2.83319
2.91065
2.98341
3.02829
3.0476
3.04803
3.03334
2.99373
2.94757
2.93307
2.93755
2.94878
2.97185
3.01458
3.06337
3.09998
3.11059
3.10083
3.08055
3.08034
3.10691
3.165
3.18319
3.17326
3.15026
3.15055
3.14678
3.13876
3.21593
0.998561
0.989783
0.999071
1.02591
1.06272
1.09671
1.09614
1.06452
1.02745
0.993927
0.975719
0.989947
1.01275
1.01966
1.0553
1.06432
1.05478
1.04682
1.04054
1.03297
1.03394
1.03257
1.03153
1.03289
1.04791
1.04342
1.41341
2.03907
2.2754
2.51906
2.58866
2.59763
2.5658
2.54912
2.55816
2.59794
2.61062
2.60112
2.57862
2.55822
2.55443
2.56627
2.58715
2.61282
2.64796
2.66535
2.66672
2.66217
2.65436
2.64479
2.64398
2.64415
2.64492
2.64558
2.64176
2.63239
2.62432
2.61743
2.61132
2.60632
2.60322
2.60455
2.6092
2.61721
2.6274
2.64013
2.65233
2.66531
2.6773
2.68538
2.69333
2.70091
2.70145
2.70145
2.70088
2.69966
2.6994
2.69822
2.70069
2.70592
2.71388
2.73175
2.75167
2.76425
2.77599
2.78952
2.80583
2.82567
2.85624
2.89147
2.9339
2.95009
2.96151
2.96549
2.97215
2.98832
3.01699
3.04518
3.06603
3.07874
3.08111
3.07447
3.05843
3.04745
3.03865
3.02916
3.02594
3.03072
3.04624
3.06975
3.09876
3.11604
3.12098
3.13717
3.14632
3.16609
3.18168
3.17315
3.24469
1.09907
1.19368
1.16559
1.08652
0.978893
0.951553
0.978235
1.04356
1.13648
1.16254
1.13597
1.09641
1.06075
1.05736
1.07552
1.09903
1.139
1.16143
1.16711
1.16024
1.14891
1.14118
1.14448
1.1579
1.18571
1.19518
1.68493
2.43656
2.7435
2.98071
3.04273
3.04894
3.04327
3.0422
3.04892
3.056
3.05408
3.04517
3.02728
3.00637
2.98547
2.97119
2.95593
2.93904
2.92123
2.89378
2.8617
2.83945
2.8233
2.80869
2.79449
2.78012
2.76755
2.75573
2.7485
2.74378
2.73646
2.73511
2.73536
2.73847
2.74404
2.75287
2.76446
2.7768
2.7917
2.80746
2.82561
2.84419
2.85951
2.87401
2.88433
2.89609
2.90308
2.90503
2.90263
2.89688
2.89241
2.89216
2.89757
2.90531
2.91928
2.92521
2.9287
2.92968
2.9254
2.9211
2.92108
2.92489
2.93727
2.94405
2.95527
2.95095
2.95714
2.96174
2.97401
2.98866
3.00383
3.01265
3.01516
3.0151
3.01327
3.0123
3.01094
3.01133
3.00742
3.00274
3.00007
3.00682
3.01926
3.03388
3.04785
3.06097
3.07856
3.10072
3.11529
3.13931
3.16036
3.18807
3.20918
0.927636
0.886347
0.907267
0.987814
1.10829
1.16476
1.15182
1.07687
0.959601
0.867373
0.859258
0.905457
0.975312
1.05143
1.09561
1.08859
1.057
1.03306
1.00348
0.989755
0.991775
0.994019
0.994788
0.998362
1.01846
1.03468
1.85225
2.31371
2.61976
2.80264
2.8462
2.87367
2.88133
2.87082
2.85588
2.83629
2.81461
2.79127
2.77011
2.75586
2.74279
2.73581
2.72988
2.72415
2.71749
2.71529
2.70713
2.70294
2.7038
2.70414
2.70564
2.70893
2.71353
2.71906
2.72567
2.73209
2.74735
2.75344
2.76228
2.77022
2.77931
2.78989
2.80205
2.81424
2.8263
2.83906
2.85244
2.86453
2.87794
2.89312
2.9026
2.91559
2.92669
2.93379
2.93586
2.93372
2.92935
2.92677
2.92722
2.93074
2.93778
2.95088
2.96354
2.97388
2.98704
2.99534
3.00129
3.00346
3.00949
3.00682
3.01139
2.9999
3.00269
2.99198
2.98946
2.99414
2.9984
3.00122
3.00925
3.01931
3.02921
3.03106
3.025
3.02346
3.02207
3.01974
3.01761
3.02267
3.02932
3.03986
3.05199
3.06654
3.08077
3.10308
3.1194
3.14332
3.17089
3.21983
3.21116
1.12031
1.24396
1.20773
1.08714
0.914557
0.877093
0.918668
1.01309
1.14708
1.18809
1.16246
1.12199
1.06182
1.03664
1.05666
1.08316
1.13269
1.15824
1.16825
1.16004
1.14562
1.13365
1.13614
1.1448
1.16967
1.19428
1.7211
2.47866
2.70784
2.80597
2.82278
2.83581
2.8488
2.86415
2.8625
2.85218
2.83752
2.82644
2.81891
2.81576
2.80883
2.8045
2.80193
2.79991
2.79567
2.8023
2.79722
2.79646
2.79913
2.79906
2.79901
2.79863
2.79721
2.79385
2.79182
2.78668
2.78568
2.78385
2.78555
2.78736
2.79006
2.79347
2.79704
2.80051
2.8051
2.81252
2.82148
2.83229
2.84151
2.84711
2.8543
2.85328
2.85313
2.85226
2.85461
2.85486
2.85931
2.86516
2.86905
2.87626
2.88561
2.89602
2.90754
2.91976
2.93478
2.94945
2.96785
2.97903
2.99418
3.00107
3.01186
3.00286
3.02168
3.02259
3.02297
3.02127
3.01975
3.02961
3.05077
3.07154
3.08233
3.07908
3.06763
3.06083
3.05605
3.05517
3.05705
3.0628
3.06467
3.06977
3.07489
3.08753
3.09936
3.1211
3.13785
3.16421
3.20353
3.25661
3.22282
0.910876
0.839899
0.859532
0.971474
1.15485
1.22657
1.21876
1.12973
0.968043
0.84156
0.836389
0.89643
0.997269
1.09339
1.14274
1.13886
1.11546
1.08551
1.05641
1.03927
1.04203
1.0487
1.05868
1.06908
1.08375
1.08483
1.39789
2.35437
2.57209
2.77925
2.83535
2.83572
2.84429
2.86839
2.8782
2.8783
2.87423
2.86829
2.86158
2.8534
2.8472
2.84435
2.83886
2.83418
2.8294
2.83833
2.83232
2.82713
2.82945
2.82771
2.82516
2.82197
2.81877
2.81302
2.80575
2.79455
2.78488
2.77352
2.77267
2.76566
2.75713
2.7472
2.74057
2.73355
2.72759
2.72272
2.72042
2.71909
2.71704
2.71602
2.7166
2.71921
2.71994
2.72078
2.72402
2.72709
2.73565
2.74699
2.7658
2.78818
2.81051
2.82891
2.84625
2.85863
2.86941
2.88341
2.90212
2.92304
2.94673
2.96571
2.9849
2.98999
3.01564
3.02179
3.02711
3.02869
3.03211
3.04711
3.06922
3.08443
3.08762
3.08065
3.06942
3.06206
3.05669
3.05881
3.0661
3.08051
3.09114
3.09857
3.10357
3.11563
3.12528
3.14914
3.16875
3.20163
3.24856
3.27567
3.24636
1.12165
1.24103
1.20703
1.07392
0.870798
0.81763
0.869129
0.97253
1.1288
1.17429
1.16188
1.14391
1.0651
1.01047
1.01635
1.03239
1.06975
1.08831
1.10181
1.09393
1.08958
1.09107
1.09562
1.10207
1.11315
1.13402
1.34854
2.36638
2.53338
2.75793
2.87889
2.88196
2.86305
2.863
2.88206
2.9163
2.94883
2.96045
2.96105
2.95645
2.94254
2.92966
2.91306
2.89843
2.87861
2.86837
2.84902
2.82762
2.81298
2.79679
2.77887
2.76121
2.74598
2.72569
2.71028
2.68818
2.66449
2.63779
2.63045
2.6155
2.60278
2.59119
2.58775
2.58088
2.57244
2.56685
2.56084
2.55385
2.54749
2.53969
2.52994
2.52631
2.52661
2.53029
2.53429
2.54303
2.55357
2.56795
2.59651
2.63068
2.67627
2.72257
2.76695
2.8063
2.82744
2.84429
2.84927
2.86906
2.89005
2.91219
2.93655
2.95464
2.99484
3.01701
3.03127
3.03915
3.04615
3.06169
3.08052
3.09182
3.09203
3.08746
3.07348
3.06055
3.0494
3.05189
3.06291
3.08105
3.10247
3.12219
3.13834
3.15067
3.15685
3.18416
3.20882
3.24408
3.27745
3.28775
3.27332
0.921816
0.818877
0.824592
0.94461
1.17161
1.26143
1.27868
1.20339
1.02241
0.873711
0.854372
0.905117
1.01227
1.10707
1.16268
1.16316
1.13501
1.11539
1.08475
1.07604
1.07649
1.07951
1.08781
1.09955
1.11437
1.13078
1.27575
2.31805
2.4538
2.63813
2.84724
2.87754
2.86742
2.84508
2.84203
2.84059
2.85905
2.88033
2.90153
2.90659
2.89576
2.88176
2.86547
2.8447
2.81716
2.79864
2.77058
2.73731
2.70689
2.67421
2.64486
2.61213
2.58338
2.55009
2.53633
2.51513
2.50007
2.48275
2.47667
2.46526
2.45831
2.4532
2.45276
2.45102
2.44918
2.44415
2.4356
2.4265
2.41284
2.39935
2.38555
2.36749
2.34956
2.34324
2.34301
2.35252
2.35239
2.36313
2.39236
2.43123
2.48457
2.54234
2.60267
2.65918
2.69691
2.73628
2.7607
2.79794
2.81811
2.83776
2.86104
2.8884
2.93996
2.98473
3.01692
3.03528
3.04595
3.06165
3.07912
3.09243
3.09912
3.09726
3.08277
3.06397
3.04896
3.03177
3.0311
3.05461
3.08669
3.11793
3.14594
3.17302
3.18948
3.21914
3.24238
3.27197
3.29542
3.30003
3.30129
1.09809
1.1978
1.18078
1.06703
0.84977
0.768443
0.831801
0.924624
1.07806
1.13565
1.14793
1.141
1.05718
0.9788
0.963954
0.956692
0.972105
0.995637
1.00625
1.013
1.01138
1.00756
1.00537
1.00125
1.00107
1.01176
1.07185
2.01329
2.22339
2.38423
2.55701
2.64689
2.69394
2.72988
2.75399
2.75146
2.74778
2.74029
2.72677
2.71093
2.67716
2.64542
2.61814
2.58779
2.56363
2.55291
2.53393
2.51268
2.48974
2.47238
2.45739
2.43942
2.41819
2.39704
2.38823
2.37882
2.37923
2.37618
2.36994
2.36341
2.35454
2.35448
2.35226
2.35529
2.35705
2.35602
2.35343
2.34947
2.33884
2.3364
2.32626
2.31697
2.30498
2.29819
2.28196
2.28219
2.27303
2.27243
2.27555
2.28882
2.32013
2.35338
2.39271
2.45281
2.50989
2.57217
2.60951
2.67358
2.72055
2.74388
2.76459
2.78926
2.84263
2.91144
2.97469
3.01585
3.03759
3.0597
3.07958
3.09344
3.10059
3.10692
3.09675
3.07499
3.05471
3.03485
3.01262
3.00685
3.03662
3.07929
3.1275
3.16712
3.18894
3.2308
3.25747
3.27662
3.29924
3.30513
3.32138
0.942057
0.81326
0.798386
0.90887
1.13497
1.27408
1.33453
1.27425
1.10308
0.938048
0.894505
0.915938
0.982369
1.06046
1.11568
1.11066
1.08634
1.06256
1.04306
1.03369
1.03056
1.03021
1.03597
1.04921
1.06295
1.07834
1.14212
1.89143
2.16751
2.32423
2.50062
2.51388
2.5282
2.55877
2.57465
2.5723
2.54014
2.49533
2.44202
2.40921
2.36958
2.34697
2.33468
2.32813
2.32966
2.33778
2.33436
2.32945
2.32022
2.321
2.32122
2.32347
2.31973
2.31571
2.30992
2.30854
2.30753
2.31085
2.31158
2.31714
2.31571
2.32272
2.32192
2.33076
2.33417
2.33621
2.34025
2.34816
2.34761
2.35209
2.34281
2.33516
2.31868
2.31189
2.29193
2.27934
2.25769
2.24735
2.2365
2.23669
2.23689
2.24911
2.26602
2.30015
2.34566
2.40343
2.43731
2.50527
2.56284
2.61055
2.65337
2.69928
2.75481
2.83472
2.91882
2.97888
3.01632
3.05247
3.0758
3.0972
3.1024
3.11626
3.11192
3.0955
3.06892
3.04774
3.01959
2.99153
2.97984
3.00396
3.05996
3.12694
3.17317
3.22532
3.25546
3.27495
3.29844
3.30392
3.33264
1.06736
1.13135
1.11751
1.03082
0.812668
0.723956
0.79285
0.865504
0.988144
1.07482
1.10452
1.07167
0.989517
0.908179
0.880779
0.863305
0.866208
0.876403
0.889139
0.900466
0.906545
0.905847
0.905179
0.900379
0.889582
0.885574
0.876621
1.29942
1.94621
2.15303
2.38518
2.38563
2.34891
2.31721
2.27145
2.24592
2.20801
2.15609
2.10957
2.11857
2.12029
2.11281
2.11472
2.13448
2.16931
2.2055
2.22157
2.23326
2.23508
2.23955
2.24611
2.25749
2.26877
2.281
2.28762
2.29019
2.29399
2.30232
2.30319
2.31372
2.31216
2.3217
2.31871
2.32838
2.33505
2.34501
2.35376
2.37148
2.37644
2.384
2.3755
2.3733
2.36222
2.35761
2.3378
2.32877
2.30336
2.28406
2.26012
2.25401
2.23986
2.22128
2.20997
2.20861
2.21769
2.23531
2.25247
2.30602
2.34496
2.39105
2.47603
2.55896
2.6355
2.72517
2.81249
2.88282
2.9492
3.01631
3.05873
3.09076
3.10897
3.11704
3.12875
3.11543
3.09837
3.07239
3.03972
3.00247
2.97406
2.96574
2.99047
3.05805
3.13431
3.21134
3.24781
3.26971
3.29487
3.29878
3.33739
0.959522
0.8186
0.788675
0.868748
1.04324
1.2406
1.32964
1.28156
1.15063
1.02779
0.942361
0.900211
0.926734
0.97305
0.986725
0.977517
0.96272
0.950469
0.942221
0.931866
0.930042
0.931159
0.940103
0.956868
0.97493
0.995616
1.04223
1.32905
2.07063
2.34518
2.49603
2.42034
2.16109
2.15065
2.12604
2.10282
2.07626
2.01096
1.97674
1.9889
2.01426
2.02081
2.03666
2.07024
2.10929
2.16116
2.20155
2.22763
2.23958
2.24988
2.25781
2.27084
2.29473
2.31888
2.33892
2.34386
2.35537
2.35625
2.35916
2.36709
2.36244
2.3678
2.36265
2.36681
2.36932
2.37982
2.38935
2.41075
2.41655
2.4258
2.42252
2.42742
2.41874
2.41187
2.39287
2.38894
2.36869
2.3565
2.33211
2.29972
2.25733
2.22265
2.19171
2.16841
2.15486
2.15312
2.15085
2.16923
2.1977
2.23949
2.32135
2.41142
2.49543
2.59892
2.71381
2.82225
2.91321
2.9798
3.03562
3.07801
3.10462
3.11775
3.12561
3.13101
3.12279
3.10178
3.06985
3.02997
2.98692
2.94953
2.94534
2.98218
3.06523
3.16984
3.23255
3.26205
3.29105
3.2903
3.33751
1.00463
1.05194
1.04861
0.974308
0.765068
0.687189
0.718994
0.758329
0.841302
0.936783
0.983471
0.962446
0.916344
0.868263
0.82433
0.801161
0.806299
0.819049
0.837764
0.851979
0.862932
0.869343
0.876524
0.877772
0.870372
0.841724
0.790522
0.788808
1.36895
1.92981
1.88045
1.88682
1.86446
1.866
1.87235
1.89554
1.96552
2.01554
2.01468
2.04506
2.06714
2.08196
2.12584
2.16017
2.17626
2.21347
2.25185
2.27003
2.27765
2.28991
2.30891
2.32983
2.35557
2.37847
2.40274
2.41277
2.42825
2.4366
2.44065
2.43874
2.43847
2.43619
2.42981
2.42271
2.41682
2.42065
2.4235
2.43426
2.42975
2.42731
2.41769
2.4121
2.40068
2.39573
2.38294
2.38377
2.37885
2.38496
2.37556
2.35912
2.32441
2.29011
2.24882
2.21681
2.18678
2.19184
2.13594
2.14535
2.19334
2.18981
2.20218
2.28988
2.35527
2.46558
2.59622
2.71523
2.83043
2.94444
3.0139
3.06382
3.09871
3.10531
3.11772
3.12681
3.13048
3.12108
3.10595
3.07109
3.02077
2.96134
2.93649
2.93488
2.98135
3.10098
3.19902
3.24581
3.28177
3.27733
3.33032
0.973977
0.846138
0.804997
0.847729
0.983398
1.14626
1.21483
1.18323
1.09875
0.988424
0.94485
0.918121
0.909295
0.920178
0.921898
0.910055
0.899776
0.89772
0.897421
0.900808
0.903653
0.909304
0.92127
0.935301
0.947864
0.946118
0.958991
1.06188
1.518
2.42743
2.47468
2.3898
2.23555
2.23972
2.24136
2.27227
2.32677
2.32727
2.30188
2.26546
2.23838
2.25092
2.27477
2.29074
2.30042
2.31149
2.3391
2.34965
2.35339
2.35656
2.38225
2.40612
2.41327
2.4171
2.42855
2.43224
2.43877
2.44857
2.45335
2.45881
2.45654
2.4568
2.45042
2.44327
2.44274
2.44103
2.44988
2.45912
2.45951
2.46024
2.44905
2.43825
2.4259
2.41477
2.39782
2.38849
2.37975
2.38762
2.38255
2.36723
2.33796
2.30426
2.26881
2.23209
2.20952
2.18976
2.17863
2.19945
2.21227
2.19106
2.19825
2.28389
2.32547
2.41041
2.53858
2.67628
2.79863
2.92308
3.01344
3.08091
3.10678
3.10758
3.1094
3.12071
3.12528
3.12309
3.11359
3.09744
3.06407
3.01598
2.95475
2.93377
2.94921
3.03133
3.14786
3.22205
3.27086
3.26235
3.32086
0.950664
0.932465
0.920573
0.876416
0.748968
0.693541
0.709831
0.73765
0.797045
0.864495
0.909775
0.919821
0.906537
0.892221
0.871098
0.861617
0.864526
0.872766
0.88506
0.902517
0.909903
0.911484
0.914022
0.920939
0.922228
0.912613
0.875125
0.89395
1.12159
1.71378
1.98913
2.01126
1.98488
2.01713
2.07343
2.09636
2.13336
2.17151
2.16188
2.17596
2.20528
2.22809
2.25159
2.26897
2.28505
2.29615
2.31871
2.33602
2.34942
2.35685
2.37043
2.38614
2.40141
2.41529
2.43097
2.4417
2.44914
2.45832
2.46521
2.46265
2.46088
2.45082
2.44416
2.43935
2.43557
2.43482
2.43768
2.44141
2.44363
2.44933
2.44499
2.4432
2.43065
2.43736
2.43115
2.42441
2.41675
2.41405
2.40605
2.39027
2.36747
2.33095
2.3005
2.26805
2.24923
2.24617
2.26572
2.24125
2.22293
2.22207
2.23663
2.30016
2.32343
2.38056
2.47738
2.5998
2.73222
2.86695
2.97951
3.05318
3.09046
3.09556
3.09927
3.10638
3.10049
3.09594
3.08997
3.08372
3.06823
3.03711
2.97845
2.93399
2.93068
2.96775
3.07444
3.18611
3.25291
3.24527
3.30751
0.940728
0.920292
0.886799
0.872439
0.95311
1.07311
1.14941
1.12266
1.049
0.96074
0.919073
0.90849
0.917777
0.928949
0.934092
0.933166
0.934326
0.935469
0.941057
0.943971
0.9461
0.94904
0.95269
0.962276
0.974943
0.977542
0.990451
1.07141
1.56739
2.62708
2.50327
2.38998
2.3789
2.40185
2.42718
2.42051
2.42344
2.41901
2.42433
2.41802
2.41602
2.42119
2.43289
2.44526
2.46575
2.47171
2.49296
2.51496
2.5283
2.54117
2.54626
2.54994
2.55315
2.5574
2.55748
2.5574
2.55992
2.5543
2.55118
2.54139
2.52969
2.51388
2.49661
2.48442
2.4765
2.47545
2.48125
2.4905
2.5045
2.52095
2.53622
2.55178
2.55896
2.56575
2.56624
2.56232
2.55234
2.53866
2.51643
2.49159
2.45944
2.42224
2.3901
2.35519
2.34838
2.34331
2.30411
2.29374
2.31034
2.32235
2.24836
2.29049
2.33821
2.40778
2.49865
2.60233
2.73445
2.87467
2.98704
3.06726
3.09799
3.1011
3.10207
3.10831
3.10645
3.09959
3.0892
3.0799
3.06588
3.04491
3.00437
2.94347
2.92669
2.94209
3.01045
3.14041
3.23684
3.23135
3.30009
0.876289
0.826479
0.834049
0.837457
0.812736
0.802156
0.815862
0.830777
0.863605
0.900192
0.92203
0.936132
0.943388
0.942719
0.944645
0.94879
0.955016
0.957445
0.963599
0.973811
0.971642
0.966655
0.966243
0.970728
0.979322
0.976174
0.968471
1.04858
1.8378
2.29303
2.33656
2.34157
2.36818
2.40186
2.40753
2.41388
2.40474
2.39449
2.40071
2.41216
2.4348
2.46238
2.49069
2.51494
2.54456
2.56525
2.59398
2.61885
2.63352
2.64237
2.64841
2.65369
2.65723
2.65825
2.6579
2.65663
2.65689
2.65632
2.65407
2.65494
2.65473
2.6592
2.66415
2.6725
2.68825
2.70478
2.72642
2.74182
2.75159
2.76095
2.76773
2.77712
2.78646
2.79961
2.80646
2.81211
2.80481
2.78911
2.75848
2.71931
2.66876
2.62942
2.56025
2.51111
2.47604
2.42646
2.38377
2.38236
2.37314
2.3412
2.26512
2.30194
2.35266
2.40082
2.4682
2.5723
2.7141
2.88218
3.01647
3.08708
3.11254
3.11969
3.11749
3.11666
3.11435
3.10573
3.09262
3.07837
3.06383
3.0497
3.02721
2.96301
2.93158
2.93061
2.96419
3.09148
3.21667
3.21763
3.29472
0.939449
0.952417
0.941549
0.92759
0.956288
1.01173
1.03078
1.00881
0.961309
0.92911
0.920873
0.923946
0.931987
0.942868
0.953401
0.964026
0.974004
0.976969
0.986273
0.999549
0.998727
0.993422
0.99663
1.0096
1.01765
1.01366
1.01207
1.26311
2.18051
2.55592
2.63027
2.63961
2.63664
2.63323
2.62669
2.62342
2.6184
2.62214
2.63423
2.65211
2.67883
2.70253
2.72154
2.73128
2.74621
2.74988
2.76659
2.78379
2.79555
2.80575
2.81292
2.81848
2.82335
2.82778
2.83169
2.83687
2.84276
2.8502
2.85939
2.86919
2.87742
2.88603
2.89697
2.90723
2.91904
2.92863
2.93902
2.94625
2.95203
2.95956
2.96441
2.96861
2.96935
2.96985
2.96759
2.9623
2.95314
2.93968
2.92293
2.90307
2.87309
2.8272
2.74169
2.66161
2.56774
2.49387
2.43585
2.40462
2.36783
2.35497
2.33962
2.33585
2.33126
2.35665
2.41821
2.53978
2.69674
2.87108
3.01933
3.09268
3.13356
3.14048
3.13563
3.13351
3.13126
3.11605
3.09811
3.08119
3.0647
3.05181
3.03505
2.9864
2.94009
2.91952
2.94146
3.04545
3.1888
3.20289
3.29303
0.865645
0.820496
0.844244
0.8815
0.889345
0.889235
0.898409
0.911937
0.932673
0.939924
0.950712
0.958246
0.959851
0.958613
0.960002
0.969887
0.976921
0.979713
0.996179
1.01065
1.00879
1.00575
1.01297
1.03071
1.03374
1.02947
1.01365
1.41275
2.28331
2.60754
2.7987
2.8367
2.87048
2.8662
2.85057
2.82586
2.81671
2.82288
2.8363
2.85241
2.86484
2.87237
2.87467
2.87488
2.87913
2.87631
2.88432
2.89305
2.90037
2.90862
2.91659
2.92444
2.9322
2.93933
2.94626
2.95351
2.96034
2.96774
2.97599
2.98438
2.99307
3.00228
3.00999
3.01426
3.01576
3.01582
3.01405
3.01467
3.01245
3.01149
3.00498
2.99978
2.99133
2.98329
2.97539
2.96541
2.95192
2.93687
2.92315
2.91439
2.9031
2.876
2.81691
2.74394
2.63346
2.55131
2.47369
2.41639
2.41121
2.39744
2.37726
2.34611
2.31977
2.34063
2.40282
2.51767
2.67229
2.86109
3.01926
3.09795
3.14046
3.14106
3.14163
3.14365
3.1388
3.12327
3.10478
3.08618
3.06839
3.05584
3.0409
3.01094
2.94789
2.90523
2.91407
3.00009
3.15285
3.18219
3.28694
0.940879
0.968781
0.964286
0.949216
0.948265
0.952704
0.960111
0.959876
0.953281
0.946203
0.942145
0.943868
0.948434
0.951337
0.958856
0.973868
0.976439
0.97764
1.00033
1.01595
1.01426
1.01293
1.02302
1.04233
1.04449
1.04304
1.02126
1.58924
2.47286
2.6862
2.84327
2.94525
2.97811
2.96514
2.93034
2.92348
2.92907
2.95139
2.97259
2.98281
2.98419
2.9809
2.97377
2.96763
2.96957
2.96571
2.97195
2.97898
2.98609
2.99344
2.99911
3.00382
3.00717
3.00888
3.00896
3.00992
3.01321
3.01991
3.02916
3.04136
3.05277
3.06026
3.06118
3.06003
3.05537
3.04794
3.04137
3.03438
3.02995
3.02785
3.02235
3.01651
3.0099
2.99922
2.98702
2.97164
2.95358
2.93653
2.9218
2.91209
2.90288
2.88553
2.84246
2.78525
2.69321
2.59679
2.50224
2.43158
2.41409
2.39866
2.37229
2.3467
2.32864
2.3428
2.39562
2.5019
2.65366
2.83986
3.00479
3.10085
3.14846
3.14447
3.15257
3.15987
3.14959
3.13299
3.11306
3.09302
3.07393
3.06026
3.04415
3.01851
2.96056
2.90537
2.89936
2.9671
3.11325
3.15775
3.28276
0.902069
0.886423
0.908497
0.925375
0.934223
0.936527
0.942107
0.949266
0.9579
0.961879
0.961382
0.961675
0.959529
0.956399
0.963205
0.971634
0.969904
0.973587
1.0028
1.01839
1.01679
1.01665
1.02718
1.04335
1.05068
1.05944
1.05764
1.85547
2.73722
2.91014
2.9696
3.06406
3.07398
3.04376
3.00569
2.99959
3.00829
3.01918
3.02312
3.02105
3.01175
3.00044
2.99688
2.99721
2.99991
3.00117
3.01207
3.02419
3.03703
3.04685
3.05058
3.05193
3.05074
3.04553
3.04136
3.04245
3.0479
3.05752
3.07306
3.09263
3.10302
3.10658
3.10453
3.09888
3.08966
3.07855
3.06833
3.05929
3.05256
3.04737
3.04171
3.03264
3.02785
3.01967
3.00886
2.99376
2.9719
2.94964
2.93223
2.9216
2.91364
2.90405
2.8775
2.83538
2.75867
2.66635
2.57321
2.47676
2.44106
2.39962
2.37366
2.34638
2.33389
2.34462
2.39199
2.4897
2.63508
2.81619
2.98093
3.0956
3.14365
3.14319
3.15835
3.16855
3.15738
3.14133
3.12153
3.10101
3.08089
3.0664
3.05036
3.02736
2.98088
2.90478
2.89409
2.93842
3.07924
3.13695
3.27468
0.952708
0.955666
0.949192
0.940698
0.942979
0.945979
0.950608
0.957346
0.961766
0.961589
0.961443
0.960759
0.957807
0.959214
0.973979
0.986987
0.984491
0.988931
1.0187
1.03135
1.02723
1.02507
1.03238
1.04138
1.04767
1.05275
1.04294
2.08387
2.54707
2.74498
2.82914
2.90759
2.9202
2.92731
2.9451
2.96771
2.98361
2.992
2.99768
3.0026
3.00538
3.01006
3.01467
3.01852
3.02291
3.02752
3.0353
3.04579
3.05715
3.0653
3.06814
3.0684
3.06481
3.05675
3.05296
3.05396
3.06118
3.07417
3.09378
3.11516
3.12775
3.13298
3.13162
3.12505
3.11371
3.09796
3.07961
3.06104
3.04648
3.03675
3.02832
3.02161
3.01626
3.00978
3.00183
2.99139
2.979
2.96697
2.95432
2.94319
2.93464
2.92454
2.90423
2.8747
2.81714
2.73309
2.64635
2.52973
2.47745
2.41915
2.38278
2.34265
2.33026
2.33827
2.3845
2.47895
2.61563
2.78237
2.93985
3.07359
3.1256
3.13465
3.1602
3.17327
3.16288
3.1479
3.12993
3.10952
3.08984
3.07371
3.05716
3.03626
2.99693
2.905
2.89138
2.91608
3.04578
3.11862
3.27357
0.934886
0.935583
0.944094
0.950117
0.949715
0.948292
0.950292
0.956125
0.962588
0.963931
0.96576
0.967477
0.965087
0.966118
0.985258
0.99417
0.99045
0.995585
1.02377
1.03401
1.02816
1.02439
1.02564
1.02795
1.02481
1.00396
0.95308
1.30254
2.43623
2.91244
3.03309
3.00288
3.00703
3.02732
3.02695
3.01097
2.99074
2.97174
2.96744
2.97269
2.98619
3.00675
3.02024
3.02883
3.03504
3.03961
3.04792
3.05816
3.07021
3.08124
3.08828
3.09106
3.09125
3.08869
3.0844
3.08076
3.08115
3.08651
3.10056
3.11801
3.13527
3.14669
3.15047
3.14753
3.13893
3.12345
3.10144
3.07519
3.05012
3.03001
3.01418
3.00305
2.99473
2.98952
2.98573
2.98021
2.97241
2.96389
2.95852
2.95662
2.95525
2.9488
2.93245
2.90596
2.8617
2.80372
2.72538
2.60386
2.52835
2.47246
2.40561
2.36639
2.34281
2.35469
2.38397
2.44756
2.56145
2.71728
2.86203
3.01687
3.08061
3.10216
3.14417
3.16259
3.15529
3.14653
3.13467
3.1172
3.09927
3.0816
3.06317
3.04277
3.00965
2.91219
2.8884
2.89099
3.01001
3.09823
3.2692
0.947469
0.951803
0.950049
0.947433
0.947751
0.949539
0.953287
0.958437
0.962764
0.965589
0.966297
0.967079
0.965589
0.968111
0.989782
0.996385
0.992403
0.998389
1.02446
1.03309
1.02628
1.02057
1.01985
1.01834
1.00849
0.980946
0.949484
1.03849
1.99022
2.55702
2.7591
2.79923
2.84932
2.89781
2.9107
2.906
2.89707
2.89509
2.90366
2.91946
2.94532
2.98311
3.0164
3.03944
3.04891
3.0567
3.06766
3.07311
3.07922
3.0886
3.09918
3.10846
3.1168
3.12127
3.12218
3.12037
3.11548
3.11367
3.11434
3.12139
3.13633
3.15526
3.16685
3.17094
3.16773
3.15703
3.13717
3.10754
3.07268
3.03615
3.00979
2.99101
2.9783
2.9654
2.95718
2.94924
2.94483
2.94129
2.94338
2.94743
2.95078
2.95742
2.95383
2.94272
2.91134
2.86198
2.7921
2.68671
2.59927
2.53613
2.46484
2.41173
2.37072
2.37292
2.40095
2.44463
2.52146
2.64352
2.764
2.91538
3.01061
3.04644
3.11078
3.14551
3.14322
3.14231
3.13358
3.12058
3.106
3.08865
3.06873
3.04706
3.01836
2.92271
2.88725
2.87432
2.97607
3.07885
3.26159
0.946634
0.955353
0.957754
0.957432
0.953874
0.95304
0.953955
0.957246
0.959853
0.962187
0.964246
0.967143
0.969179
0.976401
1.00864
1.01746
1.0124
1.0166
1.03526
1.04063
1.03172
1.0218
1.0175
1.01359
1.00227
0.979898
0.965603
1.0427
2.04951
2.39425
2.48634
2.52485
2.57424
2.6394
2.69449
2.73708
2.7814
2.82121
2.85678
2.89686
2.92851
2.9496
2.96732
2.98387
3.00345
3.03486
3.06494
3.07755
3.08454
3.09322
3.10632
3.11811
3.12776
3.13385
3.14156
3.14265
3.13928
3.13419
3.13382
3.13726
3.14435
3.15524
3.16363
3.16941
3.16876
3.16334
3.15259
3.13368
3.10444
3.06482
3.02291
2.9938
2.97144
2.94727
2.92771
2.91505
2.91106
2.90477
2.90772
2.91498
2.92862
2.94409
2.95283
2.95561
2.94506
2.91947
2.8638
2.78455
2.70192
2.62251
2.53805
2.4593
2.40814
2.40084
2.41097
2.4484
2.50109
2.58828
2.69524
2.81173
2.92395
2.97726
3.05578
3.11481
3.12251
3.12784
3.12632
3.11859
3.10767
3.0943
3.0756
3.05381
3.02253
2.93803
2.89005
2.85584
2.93747
3.05751
3.25625
0.952531
0.961639
0.962765
0.958967
0.957175
0.955703
0.956471
0.957347
0.958014
0.958567
0.963112
0.970709
0.974257
0.98299
1.01711
1.02409
1.01781
1.02133
1.0365
1.03984
1.03115
1.01627
1.00768
0.99999
0.988728
0.970449
0.925705
0.934223
1.48091
1.94556
1.90439
1.9146
1.92745
1.9648
2.00155
2.05382
2.15654
2.24245
2.28139
2.28163
2.26954
2.25923
2.26583
2.28974
2.31761
2.35343
2.3907
2.41585
2.43032
2.4411
2.46455
2.51131
2.58772
2.66152
2.72364
2.7798
2.82293
2.85799
2.90015
2.95766
2.9924
3.01098
3.01953
3.03178
3.05379
3.08427
3.11317
3.12411
3.12059
3.10569
3.07785
3.04268
3.0039
2.96609
2.92941
2.89918
2.87806
2.86593
2.86278
2.8636
2.88438
2.91085
2.9311
2.94624
2.95106
2.94869
2.92303
2.87529
2.81217
2.74286
2.66603
2.58134
2.52187
2.46975
2.45367
2.47338
2.50669
2.55144
2.6293
2.71623
2.82305
2.89834
2.97829
3.05279
3.07644
3.09692
3.11009
3.11224
3.10887
3.09904
3.08387
3.06198
3.02709
2.94974
2.88535
2.83764
2.91829
3.03694
3.24853
0.956204
0.96412
0.968641
0.964812
0.962298
0.959902
0.95895
0.959628
0.958816
0.961652
0.960912
0.966462
0.970397
0.981061
1.0179
1.02603
1.02102
1.02351
1.03541
1.03826
1.02969
1.01274
1.00015
0.987917
0.965712
0.936188
0.877707
0.849958
1.00779
1.3933
1.70625
2.08255
2.33058
2.37677
2.3772
2.3685
2.33646
2.29169
2.2566
2.2326
2.22243
2.23054
2.25466
2.29059
2.33551
2.38341
2.41027
2.41901
2.42429
2.43405
2.45103
2.48352
2.53904
2.61849
2.66576
2.6937
2.7136
2.72517
2.73738
2.75726
2.79656
2.84375
2.89177
2.93139
2.96203
2.98014
2.99364
3.0064
3.02002
3.02232
3.01747
3.00335
2.97942
2.94939
2.91888
2.88728
2.85961
2.82732
2.82325
2.80732
2.82355
2.84549
2.87838
2.91075
2.93289
2.94385
2.94451
2.93226
2.89307
2.82935
2.75773
2.68894
2.63475
2.56656
2.52889
2.51144
2.51836
2.53652
2.58412
2.65768
2.74962
2.83644
2.92008
3.00739
3.0455
3.0743
3.0967
3.10677
3.10955
3.10336
3.09054
3.06833
3.03085
2.96025
2.88004
2.81718
2.89873
3.016
3.2408
0.959436
0.967448
0.973183
0.971889
0.966916
0.962229
0.958738
0.959576
0.959983
0.961041
0.96781
0.981039
0.98529
0.998768
1.039
1.0481
1.04023
1.03854
1.04188
1.04026
1.02994
1.01032
0.994558
0.9821
0.962005
0.926156
0.874199
0.866211
1.17142
2.07284
2.03501
1.89249
1.85143
1.85214
1.86334
1.88887
1.8701
1.84126
1.82779
1.81647
1.81799
1.81793
1.81719
1.81589
1.81257
1.81308
1.81118
1.80678
1.81013
1.82128
1.84686
1.92824
2.07847
2.2168
2.29424
2.33439
2.36855
2.40798
2.44896
2.48132
2.53152
2.60213
2.67319
2.73158
2.78333
2.82746
2.86775
2.89122
2.90248
2.90331
2.89072
2.8748
2.86688
2.86483
2.85929
2.85015
2.8266
2.79374
2.77992
2.76111
2.7621
2.7642
2.79135
2.83545
2.88591
2.91247
2.92127
2.91967
2.90618
2.86807
2.81279
2.74987
2.71085
2.64315
2.59129
2.56315
2.53548
2.53772
2.56665
2.61281
2.6848
2.76663
2.85437
2.94086
2.9976
3.03531
3.07093
3.09052
3.10272
3.10093
3.09118
3.07264
3.03464
2.96743
2.87954
2.79633
2.87721
2.99528
3.23182
0.961954
0.969723
0.975254
0.975015
0.972563
0.967402
0.962305
0.961418
0.961169
0.962452
0.971737
0.988548
0.993188
1.00737
1.04583
1.05286
1.04461
1.04139
1.04176
1.0381
1.02713
1.00509
0.980482
0.964032
0.944447
0.916617
0.88118
0.915521
1.35419
2.30217
2.18556
2.0712
2.04046
2.06571
2.09966
2.09102
2.06872
2.02171
1.96566
1.89334
1.8358
1.79921
1.77354
1.75595
1.74431
1.73922
1.74108
1.74866
1.75958
1.76107
1.75749
1.75811
1.76936
1.7966
1.83085
1.85797
1.88733
1.93077
1.99969
2.0557
2.09884
2.15873
2.23248
2.30056
2.37119
2.44544
2.52298
2.58442
2.63898
2.67939
2.70457
2.725
2.73438
2.74043
2.74667
2.75646
2.75489
2.74273
2.73593
2.72743
2.71488
2.70225
2.70422
2.72587
2.7829
2.83632
2.86951
2.87983
2.86844
2.84114
2.80398
2.76028
2.71844
2.68393
2.63841
2.59495
2.55634
2.54239
2.55472
2.58087
2.63249
2.6958
2.77727
2.86499
2.93779
2.99009
3.03964
3.0691
3.0915
3.09465
3.08973
3.07272
3.03704
2.97482
2.88134
2.77745
2.85136
2.9724
3.22514
0.963927
0.970893
0.976573
0.977791
0.976498
0.971831
0.965624
0.963161
0.962907
0.962276
0.969633
0.9875
0.99126
1.00603
1.04379
1.05157
1.04515
1.0417
1.04041
1.0375
1.0275
1.00691
0.977418
0.958661
0.941742
0.929579
0.911341
1.02077
1.80578
2.33053
2.42043
2.38358
2.30046
2.18429
2.08766
2.00805
1.93784
1.88419
1.86919
1.86638
1.88335
1.89681
1.8901
1.8794
1.86989
1.86873
1.87564
1.86993
1.85225
1.8318
1.81242
1.80114
1.79748
1.79631
1.79557
1.79177
1.7775
1.77001
1.76909
1.77575
1.79654
1.83614
1.88911
1.92175
1.95542
2.02164
2.11332
2.18034
2.22557
2.2598
2.28201
2.31833
2.35213
2.36411
2.41012
2.50474
2.57898
2.61747
2.63803
2.64846
2.64049
2.63848
2.65017
2.66078
2.67485
2.70311
2.75208
2.79124
2.81315
2.80449
2.78092
2.7508
2.70782
2.66947
2.63916
2.6085
2.58131
2.55293
2.54373
2.55276
2.59099
2.64235
2.70963
2.79435
2.87134
2.94198
3.00349
3.04348
3.07719
3.08506
3.08658
3.07188
3.03722
2.97517
2.87831
2.75773
2.81998
2.94542
3.21711
0.965156
0.970005
0.975984
0.979542
0.978077
0.97373
0.968772
0.966917
0.966757
0.967876
0.981135
1.00831
1.01394
1.02941
1.05938
1.06303
1.05514
1.04728
1.04354
1.03943
1.0304
1.00901
0.978506
0.959707
0.942822
0.94224
0.937149
1.1989
2.20628
2.61237
2.69217
2.59905
2.52102
2.42032
2.36797
2.3397
2.31801
2.30972
2.30414
2.28582
2.25088
2.21407
2.17506
2.15067
2.133
2.11381
2.09358
2.06969
2.04107
2.0092
1.97339
1.93732
1.89359
1.85025
1.81666
1.79466
1.78385
1.77827
1.77871