/*--------------------------------*- C++ -*----------------------------------*\
| =========                 |                                                 |
| \\      /  F ield         | OpenFOAM: The Open Source CFD Toolbox           |
|  \\    /   O peration     | Version:  2.2.x                                 |
|   \\  /    A nd           | Web:      www.OpenFOAM.org                      |
|    \\/     M anipulation  |                                                 |
\*---------------------------------------------------------------------------*/
FoamFile
{
    version     2.0;
    format      ascii;
    class       volScalarField;
    location    "2.65";
    object      T;
}
// * * * * * * * * * * * * * * * * * * * * * * * * * * * * * * * * * * * * * //

dimensions      [0 0 0 1 0 0 0];

internalField   nonuniform List<scalar> 
14161
(
1.05331
1.10254
1.16218
1.22877
1.23842
1.25439
1.20438
1.14792
1.11757
1.13901
1.18337
1.24631
1.26981
1.26133
1.23978
1.20162
1.17615
1.15816
1.14638
1.13305
1.12553
1.10956
1.08602
1.06126
1.03282
0.886052
1.18581
1.91749
1.76164
1.71162
1.66573
1.66781
1.64101
1.60726
1.58174
1.57184
1.58878
1.60581
1.63465
1.64533
1.6592
1.68751
1.72899
1.78464
1.85359
1.93922
2.03112
2.12616
2.21948
2.31175
2.40083
2.48623
2.56694
2.6243
2.66539
2.67753
2.66848
2.63736
2.58397
2.5268
2.49539
2.48677
2.4879
2.49324
2.50857
2.54078
2.58818
2.65543
2.73866
2.80346
2.83011
2.82988
2.80307
2.76256
2.72107
2.6732
2.62728
2.57754
2.5454
2.5207
2.51389
2.51581
2.5296
2.55792
2.60484
2.65818
2.71616
2.75946
2.79318
2.80146
2.79386
2.76814
2.7378
2.72711
2.7438
2.78189
2.83114
2.90364
2.98324
3.01575
3.02638
3.02476
3.00575
2.97478
2.93822
2.92039
2.94696
3.00072
3.06578
3.10505
3.11623
3.10632
3.14321
3.20491
3.26509
3.30595
3.33611
3.33316
3.33073
1.49953
1.34409
1.14688
1.00083
1.05413
1.123
1.28025
1.42232
1.39054
1.34933
1.23572
1.15962
1.18369
1.24654
1.28316
1.36135
1.37085
1.32889
1.31165
1.27862
1.27815
1.27839
1.27025
1.2547
1.21763
1.02986
1.53562
2.68912
2.92011
3.02785
3.14725
3.26443
3.33979
3.35517
3.33134
3.2684
3.24814
3.2667
3.30052
3.33291
3.34356
3.34506
3.33324
3.30883
3.26987
3.23378
3.21552
3.20489
3.19889
3.19655
3.1848
3.16915
3.15664
3.15045
3.14589
3.14716
3.15311
3.1584
3.16135
3.16503
3.16726
3.16581
3.16573
3.16368
3.16061
3.15736
3.15651
3.16096
3.16728
3.17441
3.17725
3.17933
3.1862
3.19124
3.19454
3.19489
3.19223
3.19059
3.19198
3.19434
3.1962
3.2007
3.2054
3.21569
3.22582
3.23505
3.24216
3.24098
3.22985
3.20681
3.1827
3.19271
3.21789
3.24709
3.27192
3.28979
3.30023
3.30856
3.32188
3.331
3.33768
3.33816
3.33257
3.32499
3.31872
3.31566
3.31577
3.32112
3.32457
3.32441
3.31375
3.31414
3.31994
3.32591
3.33944
3.34508
3.3484
3.34509
3.33402
0.549088
0.987152
1.25204
1.42386
1.35053
1.24969
1.06781
0.84992
0.878459
1.01129
1.20239
1.38219
1.32792
1.25944
1.16029
1.03756
0.970863
1.0076
1.03353
1.04676
1.04626
1.00977
0.977133
0.975608
1.0549
1.10757
2.43037
3.0746
3.1918
3.21065
3.27426
3.3481
3.37237
3.36901
3.34622
3.3164
3.29903
3.29122
3.29106
3.29442
3.30008
3.30322
3.30628
3.3076
3.30727
3.3049
3.30011
3.291
3.2815
3.27835
3.275
3.27508
3.2775
3.28119
3.28034
3.27932
3.27739
3.27575
3.27416
3.27153
3.26791
3.26272
3.25753
3.25177
3.24815
3.24649
3.24718
3.24892
3.25247
3.25511
3.25755
3.25634
3.25369
3.25418
3.25469
3.25474
3.25645
3.25926
3.26456
3.26719
3.27197
3.28472
3.29949
3.31593
3.33363
3.35145
3.37004
3.38263
3.38739
3.39401
3.40613
3.42553
3.45047
3.47271
3.49215
3.50762
3.52448
3.54617
3.56972
3.5828
3.58196
3.56609
3.53815
3.50963
3.4871
3.46643
3.44939
3.43617
3.42289
3.41169
3.40049
3.38694
3.37391
3.36367
3.35842
3.3533
3.3509
3.32333
3.33324
1.675
1.37337
1.04552
0.738169
0.844161
1.05847
1.32612
1.59003
1.53965
1.41912
1.25873
1.07516
1.0965
1.16275
1.32105
1.44217
1.46917
1.38001
1.36433
1.30813
1.30227
1.31637
1.35363
1.38313
1.4601
1.57039
3.29185
3.68627
3.5121
3.46456
3.47701
3.48533
3.47928
3.47322
3.46786
3.46504
3.46528
3.46743
3.46688
3.45815
3.44869
3.43529
3.42146
3.40875
3.39792
3.38228
3.36422
3.35132
3.33536
3.32312
3.31092
3.29974
3.29074
3.28202
3.2741
3.26566
3.25857
3.25203
3.2466
3.24101
3.23521
3.22872
3.22182
3.21581
3.21167
3.21022
3.21116
3.21334
3.21599
3.21727
3.22114
3.22404
3.22706
3.23065
3.23661
3.24164
3.24525
3.24657
3.24823
3.25525
3.26352
3.27298
3.28003
3.28308
3.29179
3.30663
3.31879
3.33603
3.3507
3.36727
3.38526
3.40451
3.43726
3.47251
3.50468
3.53345
3.56256
3.58633
3.59551
3.58969
3.57119
3.5517
3.52921
3.50321
3.47996
3.4586
3.44542
3.43193
3.41978
3.40731
3.39451
3.37768
3.36192
3.35287
3.34722
3.33658
3.33093
3.28765
3.31264
0.307242
0.893806
1.28552
1.58402
1.49059
1.32302
1.06112
0.723335
0.734556
0.899691
1.19493
1.50928
1.47824
1.33231
1.22091
1.06536
0.962919
1.03494
1.07794
1.1036
1.10975
1.09272
1.07549
1.05658
1.07593
1.08507
2.39356
3.11396
3.30755
3.40518
3.48737
3.54991
3.56186
3.52653
3.50147
3.48436
3.47991
3.47763
3.47305
3.46224
3.44912
3.43386
3.4175
3.40196
3.38638
3.36809
3.35175
3.33488
3.31749
3.30314
3.28977
3.27844
3.26831
3.25922
3.25156
3.24651
3.24186
3.23864
3.23586
3.23334
3.22992
3.22487
3.2194
3.21403
3.2088
3.20439
3.20148
3.19811
3.19484
3.19357
3.19157
3.1916
3.19129
3.1909
3.19179
3.19501
3.19969
3.20587
3.21501
3.22875
3.24277
3.25501
3.26878
3.27454
3.28319
3.29402
3.30528
3.32467
3.34101
3.35877
3.37658
3.39357
3.41941
3.44787
3.47849
3.51294
3.54551
3.56028
3.55457
3.53345
3.51324
3.50002
3.48826
3.47179
3.45487
3.43405
3.41759
3.40246
3.39284
3.38258
3.37365
3.3577
3.34592
3.33826
3.33295
3.32084
3.30437
3.25385
3.30012
1.73278
1.39579
1.01686
0.579498
0.674912
0.930458
1.26006
1.61843
1.59807
1.4279
1.25221
0.999393
0.982985
1.06508
1.24787
1.3712
1.4229
1.34577
1.32207
1.26222
1.23815
1.23363
1.23598
1.22826
1.21013
1.08658
1.74017
3.00128
3.26145
3.38229
3.48572
3.56414
3.58177
3.54804
3.50906
3.47889
3.46111
3.44828
3.43601
3.42217
3.408
3.39185
3.37613
3.36253
3.34765
3.33255
3.31935
3.30944
3.29217
3.27553
3.25638
3.23555
3.21272
3.18738
3.16221
3.13651
3.11256
3.09394
3.07659
3.06202
3.05112
3.04302
3.03031
3.02259
3.01447
3.01149
3.00957
3.01147
3.01442
3.01497
3.01927
3.0203
3.02884
3.03147
3.04223
3.05076
3.06326
3.07519
3.09237
3.11227
3.13707
3.15869
3.18588
3.20725
3.23114
3.2606
3.28151
3.30311
3.32226
3.34123
3.35807
3.3767
3.40385
3.43102
3.45993
3.49109
3.51682
3.525
3.51576
3.50103
3.48983
3.47971
3.46941
3.46011
3.44916
3.43053
3.41052
3.38484
3.36556
3.35254
3.34149
3.32842
3.32085
3.31699
3.31122
3.29087
3.26649
3.24111
3.28918
0.235573
0.822936
1.2689
1.69672
1.64103
1.37479
1.13245
0.728456
0.645361
0.824022
1.14842
1.53131
1.58645
1.40934
1.32013
1.17282
1.07576
1.10681
1.15357
1.18004
1.1863
1.18949
1.16386
1.12067
1.05158
0.938086
1.05594
2.69704
3.02113
3.2293
3.35023
3.45067
3.51374
3.52481
3.50459
3.45095
3.3967
3.36747
3.35131
3.33653
3.3241
3.31133
3.29722
3.28205
3.26742
3.24889
3.22315
3.19981
3.17242
3.14882
3.12103
3.09267
3.06295
3.03762
3.01286
2.98767
2.96382
2.9569
2.93585
2.92586
2.90851
2.9044
2.88743
2.87765
2.86353
2.85986
2.85232
2.84924
2.83769
2.83133
2.82245
2.8145
2.80795
2.80481
2.80808
2.81826
2.8365
2.85742
2.89047
2.92202
2.9687
3.00533
3.05266
3.08852
3.1218
3.16489
3.1989
3.24135
3.27154
3.30057
3.32816
3.34849
3.37961
3.40567
3.43936
3.47091
3.49301
3.49933
3.49131
3.48183
3.47466
3.46748
3.45849
3.44997
3.44664
3.43498
3.41741
3.38996
3.35914
3.32767
3.30381
3.2923
3.28973
3.2848
3.27685
3.25437
3.24362
3.23546
3.27506
1.73069
1.4261
1.04184
0.515178
0.548641
0.76523
1.1431
1.55606
1.5776
1.39339
1.22138
0.946953
0.82817
0.947606
1.09106
1.2013
1.23099
1.18328
1.14574
1.08485
1.02147
0.954049
0.908251
0.878142
0.859879
0.834742
0.892731
2.49175
2.83446
3.02133
3.08943
3.23804
3.32871
3.39611
3.40831
3.3902
3.3589
3.30508
3.24509
3.19697
3.15644
3.12073
3.08923
3.06011
3.03607
3.00619
2.97422
2.95218
2.92409
2.90755
2.88634
2.8652
2.83962
2.82459
2.80239
2.79044
2.76788
2.76638
2.74776
2.75201
2.73995
2.74264
2.7269
2.72329
2.7053
2.70259
2.68369
2.68237
2.66214
2.65999
2.64312
2.64792
2.64709
2.65846
2.64855
2.66398
2.67341
2.68418
2.7146
2.73265
2.77708
2.81458
2.85832
2.91045
2.95368
3.0149
3.06103
3.11935
3.17182
3.21613
3.26656
3.2974
3.34121
3.37026
3.4105
3.44933
3.47368
3.48222
3.47709
3.46945
3.46442
3.45754
3.44959
3.4414
3.43136
3.4294
3.42274
3.40262
3.3739
3.33501
3.29718
3.26828
3.25652
3.25079
3.24565
3.23521
3.23404
3.23096
3.25759
0.244504
0.736384
1.17461
1.75147
1.79521
1.40015
1.22232
0.751549
0.507583
0.741438
1.01988
1.42549
1.57177
1.41146
1.31983
1.17672
1.08732
1.09551
1.11711
1.12865
1.14656
1.14174
1.10583
1.03638
0.942419
0.727667
0.707887
2.26963
2.74051
2.90593
2.99266
3.00695
3.03657
3.05051
3.06546
3.07424
3.05444
3.02484
2.98556
2.94919
2.90359
2.87532
2.85163
2.83895
2.83362
2.82504
2.80563
2.79451
2.76839
2.75348
2.72999
2.71265
2.68661
2.67757
2.65379
2.64335
2.6152
2.60323
2.57301
2.57255
2.54851
2.5505
2.53061
2.52411
2.5029
2.49213
2.46375
2.45786
2.4375
2.44124
2.43257
2.43923
2.43779
2.45505
2.46961
2.48541
2.50047
2.51318
2.54212
2.57445
2.60915
2.65911
2.67685
2.73158
2.75254
2.81322
2.85984
2.95325
3.03014
3.1027
3.18317
3.22982
3.28492
3.32402
3.36339
3.41102
3.44987
3.46666
3.46426
3.4617
3.45837
3.45115
3.44564
3.43599
3.42482
3.41834
3.40925
3.40587
3.39068
3.35749
3.31345
3.27375
3.25186
3.24047
3.23495
3.23358
3.23241
3.22536
3.23978
1.65261
1.43854
1.08304
0.530027
0.409289
0.556016
0.982335
1.37526
1.45189
1.28367
1.12497
0.842486
0.605335
0.71146
0.863812
0.94908
0.997351
0.987081
0.936738
0.887862
0.824586
0.737854
0.634801
0.54942
0.463521
0.327924
0.263096
1.66138
2.42849
2.67012
2.7697
2.82691
2.80367
2.80996
2.77403
2.78621
2.74766
2.76019
2.71402
2.70303
2.67793
2.65864
2.63358
2.62334
2.61859
2.62693
2.61401
2.61853
2.60035
2.5903
2.56477
2.5577
2.53943
2.53942
2.52682
2.52802
2.50257
2.50111
2.4741
2.47772
2.45354
2.46714
2.44602
2.46174
2.44699
2.43762
2.40559
2.39561
2.36473
2.36871
2.34344
2.35793
2.33699
2.35558
2.34957
2.37906
2.37658
2.40436
2.40993
2.45714
2.46183
2.52039
2.52219
2.59143
2.60279
2.65932
2.66672
2.7539
2.83838
2.92517
3.03005
3.10508
3.17622
3.24678
3.29933
3.36012
3.41483
3.44719
3.45357
3.45091
3.4494
3.44595
3.44256
3.43424
3.42127
3.40956
3.40151
3.38696
3.39248
3.38283
3.34492
3.2946
3.26036
3.23963
3.23451
3.23402
3.23276
3.22166
3.22504
0.278807
0.682468
1.08346
1.78201
1.90211
1.39339
1.23709
0.741425
0.355016
0.538265
0.815023
1.15117
1.35862
1.27792
1.18186
1.04796
0.964593
0.960612
0.929933
0.936862
0.958105
0.975208
0.965225
0.929026
0.84443
0.668884
0.450566
1.04342
2.3065
2.63895
2.74084
2.84224
2.74222
2.72703
2.63978
2.63325
2.54265
2.54316
2.4596
2.43376
2.44642
2.4647
2.4703
2.47512
2.48322
2.49293
2.48689
2.48726
2.47623
2.46615
2.44606
2.4336
2.42242
2.42468
2.42336
2.42944
2.41677
2.42333
2.4015
2.41001
2.38743
2.40479
2.38555
2.40655
2.39731
2.39254
2.35958
2.34393
2.31248
2.30893
2.28134
2.29301
2.26714
2.28579
2.27171
2.311
2.30807
2.34733
2.3408
2.38488
2.3713
2.42279
2.41154
2.46777
2.45102
2.49684
2.47509
2.54317
2.61755
2.66471
2.76209
2.85192
2.97188
3.09099
3.18157
3.2736
3.3515
3.41482
3.44238
3.44995
3.44837
3.4448
3.43958
3.4342
3.42676
3.41397
3.39959
3.38976
3.36944
3.36923
3.36311
3.32909
3.28273
3.24663
3.23545
3.23556
3.23241
3.21925
3.21392
1.49137
1.40726
1.11441
0.497967
0.193186
0.240385
0.724821
1.05477
1.17158
1.01185
0.99006
0.643238
0.403397
0.468447
0.592891
0.692503
0.759008
0.762509
0.720773
0.682764
0.618035
0.521111
0.390314
0.231634
0.0411133
-0.243211
-0.39618
-0.251917
1.6801
2.16809
2.43395
2.53354
2.30607
2.21871
2.20997
2.22394
2.23613
2.25351
2.24332
2.2272
2.24713
2.26469
2.28734
2.30743
2.3137
2.32798
2.34071
2.35923
2.37597
2.38375
2.38844
2.3781
2.37579
2.36957
2.3752
2.36754
2.37471
2.38325
2.37411
2.38518
2.3668
2.38179
2.36404
2.3728
2.34848
2.33918
2.30195
2.29527
2.26706
2.26846
2.24256
2.2492
2.22335
2.2452
2.22752
2.26763
2.25961
2.31001
2.29599
2.33366
2.30383
2.33346
2.29672
2.34035
2.30137
2.34437
2.30499
2.34598
2.3872
2.40973
2.52044
2.60532
2.72007
2.86339
3.01225
3.14479
3.25569
3.34751
3.41311
3.44033
3.44847
3.44425
3.4396
3.43209
3.42558
3.41952
3.40666
3.38952
3.37227
3.35968
3.36042
3.35692
3.31989
3.26922
3.24264
3.23921
3.23159
3.21776
3.2078
0.376062
0.547926
0.914522
1.69189
1.91616
1.35268
1.18469
0.718244
0.290819
0.371499
0.646208
0.844287
1.00662
0.984172
0.970072
0.842113
0.77639
0.736149
0.734693
0.753774
0.776628
0.81072
0.840846
0.879552
0.954067
1.05966
1.03971
0.785208
1.65609
2.23648
2.31023
2.12443
2.13296
2.19717
2.14768
2.13892
2.08642
2.12175
2.10706
2.08624
2.10164
2.08727
2.09543
2.10383
2.10124
2.13737
2.18435
2.2357
2.29461
2.32336
2.33672
2.33113
2.33567
2.33256
2.34673
2.35073
2.37463
2.38469
2.41035
2.41343
2.42266
2.43819
2.43606
2.44947
2.44008
2.43357
2.40403
2.39321
2.35639
2.3486
2.31584
2.32059
2.2954
2.30678
2.2813
2.3087
2.28838
2.32952
2.29935
2.32404
2.27043
2.29394
2.23669
2.26852
2.22181
2.27798
2.25835
2.24678
2.28136
2.31877
2.40856
2.49869
2.58278
2.71353
2.86373
3.0185
3.16886
3.29222
3.38141
3.4168
3.43787
3.44867
3.44316
3.43241
3.42734
3.41569
3.4056
3.39205
3.37169
3.35957
3.3429
3.3507
3.34857
3.30282
3.2519
3.24268
3.22833
3.21711
3.20356
1.22071
1.2542
1.00158
0.328822
-0.134506
-0.0822618
0.400347
0.711381
0.829575
0.796016
0.744589
0.584466
0.462343
0.504169
0.55929
0.633908
0.682682
0.695631
0.690658
0.652254
0.589118
0.501467
0.386715
0.216884
-0.0324106
-0.454932
-1.06273
-1.20759
-0.0495275
1.47019
1.59569
1.74019
1.66829
1.65963
1.64669
1.65071
1.73721
1.80983
1.88163
1.94267
1.97615
2.00938
2.04035
2.06863
2.09008
2.12107
2.18666
2.24574
2.31264
2.35671
2.39285
2.41593
2.43269
2.4453
2.46788
2.48763
2.50989
2.53682
2.55739
2.5713
2.5895
2.58982
2.59545
2.585
2.58493
2.56631
2.55521
2.54556
2.5275
2.5227
2.49174
2.48019
2.43673
2.43506
2.39203
2.41115
2.37784
2.41018
2.36455
2.37868
2.30741
2.32136
2.23843
2.27253
2.22662
2.31066
2.26482
2.25728
2.35428
2.39163
2.46863
2.51243
2.56133
2.65959
2.77001
2.89353
3.04997
3.20917
3.32566
3.38935
3.42755
3.43978
3.43888
3.43982
3.44585
3.43833
3.42163
3.40576
3.38474
3.3617
3.34514
3.33307
3.33292
3.32503
3.27267
3.25234
3.22667
3.21701
3.20364
0.59505
0.54803
0.778052
1.44625
1.72143
1.28951
1.08067
0.692747
0.386532
0.432152
0.578673
0.710131
0.777264
0.750563
0.760748
0.720816
0.704313
0.678597
0.659277
0.679366
0.694588
0.719564
0.733325
0.766628
0.846585
0.984775
1.15264
1.39414
1.64853
2.13408
2.31599
2.25285
2.20676
2.20097
2.26827
2.2814
2.27247
2.3316
2.37711
2.41195
2.43638
2.46345
2.48954
2.51569
2.53409
2.55167
2.59583
2.62607
2.66145
2.68136
2.69544
2.7035
2.70975
2.71928
2.72733
2.73762
2.74551
2.7486
2.75919
2.7591
2.75926
2.76261
2.74797
2.74322
2.73014
2.72481
2.7171
2.72262
2.71509
2.71297
2.70094
2.69323
2.67168
2.63949
2.62746
2.5847
2.59943
2.56058
2.56174
2.49042
2.48143
2.39167
2.38525
2.30402
2.35742
2.27494
2.33995
2.35723
2.45544
2.46993
2.54193
2.63024
2.69979
2.77482
2.85217
2.93772
3.04099
3.16376
3.28953
3.34553
3.38977
3.42356
3.43271
3.43052
3.42905
3.42331
3.41477
3.40456
3.38961
3.36824
3.34661
3.3306
3.32224
3.33357
3.29607
3.2626
3.22261
3.21481
3.19922
0.711875
0.869397
0.776903
0.297269
-0.0544655
0.0572577
0.510902
0.722739
0.786943
0.771117
0.77294
0.694882
0.649131
0.634419
0.651133
0.678221
0.693053
0.706562
0.689333
0.694117
0.674341
0.647188
0.594635
0.516634
0.412737
0.238735
0.032422
0.0361228
1.00123
2.51121
2.49716
2.40898
2.3096
2.28491
2.31409
2.34427
2.40597
2.45138
2.50045
2.56457
2.60088
2.63689
2.66734
2.68991
2.70517
2.71805
2.74355
2.76185
2.78969
2.80329
2.82171
2.83253
2.84575
2.85277
2.86755
2.8748
2.8926
2.9032
2.9079
2.91459
2.91162
2.91866
2.9174
2.92425
2.92612
2.93065
2.9382
2.94296
2.93986
2.9326
2.92066
2.89566
2.88526
2.85944
2.86274
2.82818
2.8404
2.79378
2.79287
2.71799
2.70763
2.61058
2.60544
2.52036
2.49816
2.41586
2.40614
2.34879
2.33977
2.39514
2.51266
2.58734
2.63968
2.70453
2.78491
2.89185
3.03281
3.17712
3.2947
3.33071
3.38142
3.41644
3.42329
3.42138
3.41856
3.41436
3.40865
3.40224
3.39255
3.37725
3.35322
3.33291
3.32253
3.32548
3.30767
3.27833
3.22161
3.21489
3.19805
0.921214
0.634248
0.825751
1.09722
1.23815
1.09425
0.917814
0.677748
0.545173
0.557757
0.62837
0.67298
0.722272
0.721271
0.715661
0.712486
0.720718
0.725445
0.710216
0.722791
0.7551
0.727031
0.701414
0.662432
0.602417
0.542235
0.436349
0.682967
2.46234
2.70923
2.66778
2.67365
2.69693
2.74684
2.78203
2.80742
2.85273
2.87356
2.8994
2.9162
2.93659
2.95563
2.9645
2.97167
2.97403
2.97663
2.98522
2.99229
3.01106
3.03063
3.04886
3.06384
3.07745
3.09088
3.10313
3.11269
3.11899
3.12221
3.12568
3.12305
3.1242
3.1176
3.11771
3.11049
3.11366
3.11094
3.11757
3.12025
3.13643
3.13958
3.14896
3.14405
3.14175
3.12256
3.11904
3.09734
3.08902
3.05264
3.03038
2.97622
2.94324
2.85763
2.83253
2.72096
2.68008
2.63313
2.5767
2.46596
2.45912
2.5147
2.61588
2.63899
2.68391
2.74423
2.80825
2.88966
3.00522
3.17445
3.30459
3.34139
3.38494
3.41546
3.42146
3.41755
3.41449
3.41179
3.40665
3.40266
3.39547
3.38387
3.3635
3.34237
3.32385
3.31821
3.30593
3.29369
3.21974
3.2149
3.19621
0.258139
0.561426
0.649939
0.53036
0.503615
0.594402
0.737919
0.83909
0.845904
0.809887
0.767547
0.750782
0.731885
0.718881
0.734331
0.730402
0.737831
0.750942
0.732158
0.730662
0.741407
0.729454
0.700365
0.665582
0.617279
0.572549
0.517542
1.2058
2.97054
3.02806
3.03987
3.00423
3.00208
3.02239
3.05205
3.08055
3.1008
3.09805
3.09983
3.08578
3.0811
3.07503
3.07126
3.07752
3.07837
3.08837
3.10849
3.122
3.13909
3.15198
3.16382
3.17362
3.1835
3.19177
3.19841
3.20504
3.21222
3.21966
3.22946
3.23863
3.2507
3.25853
3.26842
3.27403
3.28104
3.28686
3.29365
3.30382
3.31273
3.31906
3.32531
3.32744
3.32938
3.32637
3.32151
3.31077
3.29356
3.26589
3.22911
3.18374
3.12982
3.0551
2.97706
2.86554
2.78253
2.69919
2.63271
2.54033
2.52937
2.53344
2.55501
2.56871
2.62412
2.68882
2.75582
2.85761
2.99638
3.177
3.31311
3.35918
3.3893
3.41825
3.42454
3.41752
3.41986
3.41749
3.41189
3.40625
3.39809
3.38661
3.37164
3.35345
3.3276
3.3138
3.29528
3.30195
3.22209
3.21793
3.19499
1.00583
0.64322
0.811598
0.856844
0.920854
0.884946
0.805747
0.714316
0.680388
0.697094
0.697447
0.72859
0.746552
0.745324
0.722213
0.71448
0.721844
0.723131
0.714381
0.7421
0.75473
0.743604
0.727809
0.714372
0.690798
0.665221
0.566108
1.7898
3.05832
3.20009
3.15658
3.15774
3.15315
3.17557
3.20397
3.23391
3.23745
3.22741
3.21124
3.19484
3.18734
3.18769
3.19359
3.20243
3.21052
3.22314
3.23984
3.25103
3.26072
3.268
3.27441
3.28003
3.28577
3.29284
3.3022
3.31309
3.32505
3.33691
3.34782
3.35705
3.36405
3.37023
3.37529
3.38076
3.38596
3.39225
3.39854
3.40377
3.41177
3.41757
3.42451
3.42616
3.42702
3.42423
3.4206
3.41212
3.39796
3.37466
3.34606
3.30892
3.26062
3.19059
3.10049
2.98571
2.87892
2.75528
2.68228
2.61801
2.56762
2.5602
2.55667
2.57661
2.63064
2.67487
2.73304
2.82227
2.96765
3.17284
3.32066
3.36724
3.39727
3.42521
3.42989
3.41895
3.42119
3.4177
3.41339
3.40917
3.40135
3.3897
3.37764
3.35911
3.33222
3.315
3.28868
3.30519
3.22765
3.22092
3.19345
0.297536
0.581639
0.706742
0.733165
0.722703
0.747157
0.765499
0.796162
0.802427
0.778066
0.766693
0.752727
0.736066
0.717625
0.688984
0.712733
0.730983
0.711187
0.692382
0.732007
0.747628
0.742033
0.741072
0.746432
0.758869
0.768768
0.714147
2.38013
3.13806
3.38057
3.31883
3.26542
3.28355
3.32066
3.35447
3.35198
3.33237
3.30637
3.28604
3.28496
3.29495
3.30943
3.32327
3.33483
3.33927
3.3405
3.34219
3.3392
3.33547
3.3317
3.33215
3.33502
3.34096
3.35077
3.3644
3.37815
3.39034
3.40013
3.40596
3.4076
3.40695
3.40748
3.41126
3.41356
3.41708
3.42006
3.42382
3.42761
3.42992
3.43235
3.43484
3.43378
3.43108
3.43044
3.43076
3.42994
3.42439
3.41103
3.39102
3.36328
3.32569
3.27106
3.1913
3.09127
2.96911
2.82617
2.73587
2.65848
2.60432
2.56021
2.53293
2.54225
2.57886
2.61485
2.6732
2.76806
2.93023
3.15929
3.32049
3.36685
3.4045
3.42762
3.4281
3.41777
3.41808
3.41376
3.41026
3.40772
3.4015
3.39056
3.37945
3.36316
3.33649
3.31597
3.28262
3.2997
3.23496
3.2241
3.19238
0.831051
0.664
0.710396
0.74367
0.78961
0.790854
0.776733
0.760168
0.759485
0.759642
0.749946
0.752621
0.765563
0.732424
0.692265
0.719651
0.736179
0.726882
0.728315
0.774402
0.788861
0.778965
0.76968
0.7559
0.769487
0.815109
0.819783
2.73453
3.1898
3.38203
3.36877
3.30353
3.32032
3.34833
3.37179
3.35501
3.3321
3.31649
3.31736
3.32869
3.34761
3.3691
3.38026
3.38529
3.38809
3.38425
3.38176
3.37568
3.36951
3.36829
3.3736
3.38141
3.39191
3.40561
3.41905
3.42805
3.43432
3.43504
3.42865
3.4171
3.41322
3.41396
3.41551
3.41676
3.41816
3.41964
3.42013
3.42054
3.41898
3.41702
3.41683
3.4165
3.41386
3.41143
3.40901
3.40805
3.40771
3.40366
3.39346
3.37576
3.34972
3.30995
3.24889
3.17293
3.06556
2.91855
2.80945
2.71536
2.64114
2.56517
2.52491
2.53144
2.55369
2.57861
2.62306
2.72081
2.9035
3.14818
3.31496
3.36419
3.40851
3.42496
3.41369
3.40805
3.41072
3.40791
3.40492
3.40327
3.3992
3.39042
3.3804
3.36519
3.34217
3.3154
3.28377
3.2965
3.24058
3.22748
3.19349
0.610928
0.712844
0.71878
0.739176
0.744479
0.762781
0.772821
0.782562
0.789292
0.778956
0.761357
0.763711
0.743946
0.722661
0.686901
0.724799
0.738275
0.729271
0.738248
0.786708
0.795757
0.791871
0.793606
0.828756
0.908639
1.07761
1.27292
3.2355
3.39356
3.51083
3.51028
3.45185
3.45682
3.43589
3.4024
3.36813
3.35233
3.35238
3.36129
3.37557
3.38638
3.39405
3.39975
3.40374
3.40597
3.40397
3.4001
3.39501
3.38809
3.38693
3.39095
3.39745
3.40723
3.42101
3.43077
3.43516
3.43592
3.43031
3.41791
3.40249
3.39499
3.39321
3.39422
3.39544
3.39811
3.40197
3.40663
3.41223
3.41504
3.41452
3.41059
3.40622
3.40143
3.39849
3.39507
3.39195
3.38494
3.37535
3.3663
3.3572
3.34369
3.32186
3.28346
3.22854
3.14603
3.01982
2.88987
2.77383
2.67243
2.58177
2.52182
2.51328
2.52904
2.55815
2.60955
2.70919
2.88748
3.12256
3.29474
3.34998
3.40663
3.41631
3.40119
3.40343
3.40577
3.40076
3.39861
3.39728
3.39462
3.38789
3.37987
3.36796
3.34757
3.3164
3.28313
3.28905
3.24377
3.23267
3.19206
0.695146
0.681879
0.70081
0.743136
0.774952
0.781032
0.783571
0.784261
0.791336
0.775988
0.759426
0.75508
0.758009
0.730176
0.707113
0.758386
0.771241
0.760303
0.764562
0.798319
0.796478
0.773938
0.747656
0.693999
0.627407
0.460487
-0.00503801
0.709314
2.88892
3.00409
3.17823
3.29217
3.31139
3.29356
3.29254
3.29468
3.32115
3.35623
3.37901
3.39358
3.39789
3.39257
3.39264
3.39349
3.39466
3.39481
3.39523
3.39439
3.39216
3.39054
3.39072
3.39247
3.39629
3.40121
3.40711
3.41091
3.41187
3.41018
3.40345
3.3902
3.37672
3.368
3.36771
3.36992
3.37397
3.38026
3.3895
3.40045
3.40861
3.4128
3.41228
3.40559
3.39742
3.38901
3.38292
3.37646
3.36858
3.3592
3.3466
3.33063
3.31375
3.29793
3.28069
3.25588
3.20511
3.12103
2.98957
2.8609
2.73748
2.64472
2.55339
2.51241
2.51685
2.52593
2.59468
2.70909
2.86803
3.07626
3.24669
3.3151
3.38775
3.39847
3.38693
3.39471
3.39714
3.39197
3.38879
3.38606
3.38559
3.38239
3.37698
3.36913
3.35232
3.32192
3.28078
3.28216
3.24442
3.23808
3.19087
0.693047
0.754276
0.763776
0.76002
0.773752
0.777629
0.785674
0.793458
0.793237
0.784317
0.765782
0.750547
0.753854
0.724744
0.72001
0.774522
0.784116
0.769541
0.772855
0.795098
0.790109
0.761281
0.727726
0.697518
0.659147
0.594857
0.479032
0.642042
2.75769
2.88761
2.99947
3.15094
3.22222
3.21816
3.23079
3.25057
3.28193
3.31428
3.34417
3.35961
3.35838
3.34539
3.33002
3.31956
3.32115
3.32584
3.33088
3.3388
3.34375
3.34566
3.34438
3.34138
3.33843
3.33826
3.34075
3.34646
3.35576
3.36448
3.37181
3.37339
3.36664
3.35415
3.34558
3.3431
3.34443
3.34834
3.35789
3.37441
3.39398
3.4111
3.41538
3.41014
3.39783
3.38372
3.3671
3.3552
3.34458
3.33462
3.32506
3.31451
3.29975
3.28141
3.26038
3.24308
3.22073
3.18126
3.0845
2.95492
2.81729
2.71258
2.61688
2.55388
2.57753
2.60624
2.57995
2.62946
2.77073
2.97607
3.16179
3.26498
3.35345
3.37548
3.36852
3.38096
3.38609
3.38119
3.37797
3.3749
3.37411
3.37318
3.371
3.36645
3.35458
3.32798
3.28156
3.27473
3.24026
3.24244
3.18781
0.738767
0.758847
0.759625
0.768243
0.784421
0.789826
0.796729
0.798529
0.788994
0.772239
0.751368
0.725651
0.723301
0.703375
0.709577
0.765272
0.778514
0.769558
0.77593
0.79249
0.783252
0.737801
0.689813
0.634266
0.569852
0.473444
0.39243
0.517141
2.43165
2.76498
2.85186
2.88476
2.88387
2.88536
2.93713
3.00369
3.06802
3.12865
3.16498
3.18282
3.19926
3.2215
3.24476
3.25682
3.25576
3.24908
3.24473
3.25623
3.26763
3.27655
3.28204
3.28268
3.2845
3.28686
3.28519
3.29049
3.29875
3.30908
3.31649
3.32191
3.32378
3.32358
3.3195
3.31637
3.3178
3.31981
3.32428
3.33314
3.35106
3.3755
3.39923
3.40523
3.39992
3.39027
3.37473
3.35394
3.3295
3.3121
3.29651
3.2932
3.28152
3.26616
3.25125
3.23406
3.21548
3.1959
3.15334
3.06725
2.94351
2.81993
2.69738
2.57503
2.52886
2.55489
2.64273
2.66123
2.75706
2.89879
3.05613
3.18242
3.29594
3.34214
3.34436
3.36429
3.37568
3.36735
3.36616
3.36342
3.36182
3.36172
3.36249
3.36127
3.35322
3.33146
3.28201
3.2689
3.23619
3.24636
3.18444
0.752324
0.768436
0.782273
0.790327
0.794766
0.800498
0.801957
0.79782
0.786686
0.771461
0.755268
0.746668
0.751794
0.742291
0.757247
0.810537
0.817671
0.804184
0.800395
0.804104
0.785565
0.730022
0.664041
0.610139
0.560396
0.529695
0.588575
0.74925
2.03618
2.48767
2.46249
2.47726
2.38585
2.26515
2.27688
2.29985
2.40456
2.49436
2.57524
2.67035
2.75611
2.84603
2.93665
3.04814
3.13967
3.22911
3.2897
3.345
3.41683
3.47809
3.51025
3.50964
3.47503
3.42969
3.39626
3.37399
3.37093
3.3747
3.36709
3.34144
3.33877
3.35683
3.37233
3.37432
3.36406
3.34432
3.31514
3.3033
3.30035
3.30209
3.30965
3.32416
3.33766
3.34886
3.35214
3.3452
3.32974
3.30681
3.2866
3.26433
3.25373
3.24613
3.23239
3.21982
3.2131
3.20358
3.18511
3.14765
3.07023
2.96492
2.852
2.72109
2.62153
2.59104
2.61525
2.67747
2.73966
2.84763
2.98595
3.10705
3.22687
3.30261
3.31313
3.3353
3.35355
3.34776
3.34992
3.34948
3.34839
3.34799
3.35062
3.35279
3.34988
3.33053
3.27728
3.26373
3.22192
3.24913
3.17859
0.772057
0.78769
0.807146
0.811785
0.797876
0.806751
0.80236
0.797028
0.784024
0.770072
0.751108
0.740177
0.755796
0.753981
0.778035
0.830016
0.838816
0.823141
0.806693
0.801324
0.772749
0.709835
0.621404
0.525885
0.378596
0.126836
-0.32212
-1.0584
-0.937744
-0.503246
0.579854
1.12972
1.5154
1.54168
1.58522
1.61452
1.60429
1.59065
1.58125
1.57843
1.58938
1.61641
1.65911
1.72141
1.77978
1.84593
1.90463
1.96193
2.02226
2.10097
2.19647
2.32523
2.42504
2.50496
2.56272
2.61617
2.66539
2.72105
2.78266
2.84481
2.91229
2.9686
3.02419
3.07515
3.11769
3.15952
3.18716
3.2083
3.21958
3.23169
3.23723
3.24378
3.25376
3.26451
3.27583
3.28411
3.28372
3.2764
3.26068
3.24602
3.23258
3.2291
3.20991
3.19811
3.18386
3.18314
3.18047
3.16712
3.13255
3.0715
2.98203
2.8754
2.75442
2.68076
2.65851
2.69086
2.74803
2.8226
2.92775
3.03669
3.14629
3.22763
3.26202
3.30069
3.32862
3.33023
3.33547
3.3356
3.33363
3.33155
3.33415
3.3396
3.34127
3.32474
3.27445
3.25429
3.21039
3.2503
3.17515
0.779736
0.794987
0.820239
0.820298
0.817214
0.820413
0.807089
0.796417
0.782784
0.75748
0.716055
0.731279
0.743087
0.74252
0.775118
0.822606
0.834478
0.815765
0.795116
0.786071
0.752954
0.691579
0.593985
0.471806
0.345664
0.155255
-0.127504
-0.177781
0.751425
2.82671
2.67339
2.33379
2.09561
1.96849
1.87127
1.78354
1.7334
1.71527
1.70261
1.70429
1.7249
1.73872
1.7526
1.7647
1.76878
1.77739
1.78487
1.7868
1.79555
1.82128
1.85659
1.92641
2.05915
2.07291
2.09168
2.10947
2.13059
2.17396
2.23823
2.30003
2.37417
2.45839
2.53769
2.62042
2.69308
2.76978
2.84036
2.90253
2.95358
3.00718
3.05089
3.08424
3.11442
3.14194
3.16332
3.18252
3.1958
3.20185
3.20227
3.2057
3.19607
3.18828
3.16806
3.16968
3.16255
3.16023
3.15871
3.15396
3.14175
3.10911
3.04799
2.97289
2.86699
2.76733
2.72008
2.71449
2.75894
2.8101
2.88892
2.97807
3.0733
3.14325
3.1992
3.25492
3.29476
3.30569
3.31614
3.31897
3.31802
3.31849
3.32021
3.32559
3.33014
3.318
3.26921
3.24742
3.19821
3.24827
3.16925
0.793542
0.811054
0.831108
0.832191
0.834461
0.820049
0.799772
0.79294
0.782442
0.758441
0.722464
0.762443
0.788259
0.793364
0.821426
0.851969
0.851319
0.827251
0.806081
0.788733
0.749074
0.696578
0.585121
0.452464
0.320999
0.118795
-0.227907
-0.242678
1.10216
2.76585
2.68109
2.36577
2.19889
2.08039
2.0493
2.04923
2.09813
2.14109
2.11963
2.05791
2.00132
1.94294
1.86467
1.83528
1.82593
1.8428
1.86174
1.88306
1.91066
1.92718
1.94782
1.97256
1.98905
2.02712
2.04469
2.04582
2.0405
2.02815
2.023
2.0505
2.0764
2.13038
2.17943
2.26104
2.3226
2.37544
2.42838
2.48955
2.53905
2.59246
2.66578
2.74043
2.83152
2.90426
2.96923
3.01065
3.04804
3.05831
3.07019
3.10668
3.12156
3.14148
3.15074
3.14038
3.11866
3.10338
3.10576
3.10726
3.10201
3.08516
3.06058
3.01628
2.94756
2.84748
2.77779
2.73999
2.76507
2.80229
2.856
2.92502
3.01122
3.08174
3.14151
3.20209
3.25351
3.2799
3.29882
3.30639
3.30439
3.30542
3.30788
3.31317
3.31796
3.30817
3.26203
3.23388
3.18295
3.24237
3.16709
0.804476
0.823036
0.839294
0.842574
0.839239
0.824916
0.807292
0.789012
0.778088
0.762242
0.719845
0.768688
0.800469
0.807756
0.834674
0.860726
0.856563
0.832558
0.806345
0.781871
0.737321
0.68999
0.589547
0.46372
0.363531
0.295156
0.253082
0.586322
2.57006
2.88561
2.79617
2.72208
2.68744
2.64828
2.60784
2.57285
2.51332
2.44911
2.40362
2.37393
2.39192
2.37945
2.34913
2.29364
2.23364
2.16845
2.11956
2.09269
2.05821
2.02363
1.98663
1.96786
1.95934
1.9591
1.95089
1.95169
1.94817
1.94457
1.94241
1.94151
1.96015
1.97521
2.0135
2.05747
2.09651
2.1456
2.17908
2.20635
2.21285
2.20389
2.20806
2.25633
2.32159
2.39683
2.47034
2.5778
2.69093
2.77061
2.82033
2.90098
2.95832
2.99588
3.04473
3.08898
3.12327
3.12511
3.1
3.0598
3.0362
3.02608
3.00823
2.99721
2.96505
2.90651
2.83156
2.7793
2.76601
2.79268
2.82769
2.87638
2.95289
3.02255
3.08591
3.14372
3.20062
3.24521
3.27807
3.29318
3.29073
3.29255
3.29543
3.29989
3.30553
3.30049
3.2522
3.22028
3.16471
3.23308
3.16127
0.819487
0.83811
0.844873
0.847917
0.841316
0.830749
0.807632
0.782473
0.776447
0.756681
0.708916
0.766449
0.807671
0.816153
0.847143
0.862824
0.860379
0.835418
0.806793
0.773286
0.732983
0.690594
0.588162
0.496333
0.395772
0.357734
0.364576
1.13361
2.92534
2.9715
3.03289
2.86748
2.77334
2.71807
2.70004
2.69766
2.69552
2.69441
2.69208
2.65573