/*--------------------------------*- C++ -*----------------------------------*\
| =========                 |                                                 |
| \\      /  F ield         | OpenFOAM: The Open Source CFD Toolbox           |
|  \\    /   O peration     | Version:  2.2.x                                 |
|   \\  /    A nd           | Web:      www.OpenFOAM.org                      |
|    \\/     M anipulation  |                                                 |
\*---------------------------------------------------------------------------*/
FoamFile
{
    version     2.0;
    format      ascii;
    class       volScalarField;
    location    "2.4";
    object      rho;
}
// * * * * * * * * * * * * * * * * * * * * * * * * * * * * * * * * * * * * * //

dimensions      [1 -3 0 0 0 0 0];

internalField   nonuniform List<scalar> 
14161
(
0.997484
0.997526
0.99755
0.997594
0.997674
0.997781
0.997929
0.998134
0.998406
0.998754
0.999188
0.999724
1.00037
1.00114
1.00205
1.00312
1.00435
1.00578
1.00736
1.00912
1.01108
1.01326
1.01559
1.01805
1.02061
1.02334
1.02628
1.02953
1.03325
1.03685
1.03999
1.04283
1.0461
1.05131
1.06464
1.1137
1.38573
1.97471
2.44182
2.57412
2.59764
2.58587
2.55867
2.53084
2.51013
2.49383
2.47895
2.46533
2.4525
2.44104
2.43044
2.42018
2.41133
2.40245
2.3942
2.38678
2.37908
2.37238
2.36639
2.35978
2.35393
2.34845
2.34263
2.33781
2.33331
2.32731
2.32125
2.31619
2.31028
2.30437
2.29921
2.29254
2.28551
2.27978
2.27202
2.26323
2.25547
2.24803
2.24051
2.2338
2.22616
2.21697
2.2078
2.19922
2.18993
2.18099
2.17378
2.16558
2.15495
2.1442
2.13361
2.12232
2.11105
2.10009
2.08807
2.07628
2.06585
2.05597
2.04705
2.04134
2.03951
2.03916
2.04253
2.05423
2.08039
2.12965
2.21495
2.35148
2.55231
2.78855
2.98396
3.11712
3.20283
3.25989
3.28933
3.29878
3.29892
3.29336
3.30483
0.997482
0.997524
0.997549
0.997595
0.997671
0.997779
0.997928
0.998134
0.998405
0.998754
0.999188
0.999724
1.00037
1.00114
1.00205
1.00312
1.00435
1.00576
1.00734
1.00911
1.01108
1.01325
1.01558
1.01804
1.0206
1.02332
1.02626
1.0295
1.03321
1.03683
1.03997
1.04281
1.04606
1.05123
1.06441
1.11332
1.38449
1.9714
2.43283
2.56713
2.59018
2.57729
2.55087
2.52611
2.50807
2.4929
2.47867
2.46547
2.45306
2.44165
2.43122
2.4212
2.41218
2.40358
2.39521
2.38778
2.38037
2.37335
2.36741
2.36112
2.35482
2.34942
2.34378
2.3383
2.33388
2.3282
2.32198
2.31709
2.31154
2.30507
2.29955
2.29334
2.28628
2.28015
2.27258
2.26388
2.25609
2.2487
2.24077
2.23355
2.22598
2.21703
2.20813
2.19944
2.18987
2.18072
2.17322
2.16536
2.15496
2.14398
2.13325
2.1221
2.11107
2.10045
2.08893
2.07775
2.06801
2.05896
2.05158
2.04842
2.0485
2.05164
2.0617
2.08364
2.12462
2.19549
2.30872
2.47123
2.67482
2.87138
3.01638
3.12834
3.20924
3.26382
3.28781
3.29613
3.29775
3.28684
3.30829
0.997475
0.997519
0.997547
0.997593
0.997664
0.997773
0.997924
0.99813
0.998401
0.998749
0.999184
0.999718
1.00036
1.00113
1.00205
1.00312
1.00434
1.00573
1.00732
1.00909
1.01107
1.01324
1.01557
1.01804
1.0206
1.0233
1.02623
1.02946
1.03315
1.03676
1.03993
1.04281
1.0461
1.05133
1.06457
1.1135
1.38618
1.97205
2.42726
2.55986
2.58175
2.56822
2.54376
2.52276
2.50779
2.49477
2.48218
2.47017
2.45859
2.44773
2.43755
2.42775
2.41876
2.41011
2.40185
2.39439
2.38708
2.38006
2.37378
2.3675
2.36146
2.35597
2.35032
2.34472
2.33969
2.33428
2.32847
2.32309
2.31753
2.31092
2.30429
2.29793
2.29119
2.285
2.27727
2.26805
2.25951
2.25201
2.24425
2.23696
2.229
2.21955
2.21004
2.20125
2.19199
2.18289
2.17509
2.16678
2.15622
2.14517
2.13464
2.12385
2.11323
2.10303
2.09244
2.08244
2.07437
2.06829
2.06559
2.06674
2.07225
2.08504
2.10975
2.1527
2.22183
2.32945
2.47675
2.64396
2.79145
2.90147
2.99774
3.08972
3.17051
3.23041
3.2675
3.28198
3.28732
3.27339
3.30176
0.997464
0.997509
0.997541
0.997587
0.997656
0.997763
0.997916
0.998121
0.998391
0.998738
0.99917
0.9997
1.00035
1.00111
1.00203
1.0031
1.00432
1.00571
1.00728
1.00905
1.01103
1.01321
1.01554
1.01801
1.02057
1.02326
1.02618
1.02937
1.03304
1.03665
1.03984
1.04276
1.0461
1.05138
1.06454
1.11281
1.38519
1.96993
2.42158
2.55513
2.57584
2.56242
2.54051
2.521
2.50721
2.49579
2.48477
2.47392
2.46327
2.45302
2.44326
2.43397
2.42506
2.41642
2.40841
2.40094
2.39366
2.38676
2.38016
2.3738
2.36794
2.36227
2.35656
2.35103
2.34564
2.34005
2.33473
2.32912
2.32287
2.31642
2.30955
2.30227
2.29535
2.28888
2.28086
2.2716
2.26257
2.25439
2.24676
2.23926
2.23069
2.22115
2.21147
2.20227
2.19306
2.18386
2.17565
2.1672
2.15688
2.1462
2.13636
2.12613
2.11609
2.10706
2.09863
2.09195
2.08891
2.08836
2.09165
2.10229
2.12306
2.15841
2.21509
2.30138
2.42704
2.57716
2.72198
2.83284
2.91007
2.95966
3.01436
3.07629
3.13921
3.19727
3.24092
3.26251
3.27168
3.25651
3.28929
0.997449
0.997495
0.99753
0.997575
0.997644
0.997751
0.997903
0.998107
0.998375
0.998719
0.999149
0.999679
1.00033
1.00109
1.002
1.00306
1.00428
1.00567
1.00723
1.009
1.01097
1.01314
1.01548
1.01796
1.02053
1.0232
1.02609
1.02924
1.03285
1.03646
1.0397
1.0427
1.04613
1.05141
1.06426
1.11112
1.38275
1.96762
2.42194
2.55595
2.57694
2.56437
2.54305
2.52344
2.5096
2.49835
2.4875
2.47659
2.46614
2.45573
2.4462
2.43684
2.42764
2.41943
2.41123
2.40366
2.3966
2.3893
2.38265
2.3764
2.37019
2.36465
2.35899
2.35299
2.34778
2.34259
2.33664
2.33105
2.32507
2.31824
2.31181
2.30458
2.29657
2.28954
2.28147
2.27239
2.26327
2.25467
2.24683
2.23916
2.22981
2.22001
2.21049
2.20091
2.19161
2.18292
2.17425
2.16615
2.15706
2.14734
2.1382
2.12943
2.12137
2.11546
2.11234
2.11157
2.11433
2.12359
2.14136
2.17171
2.21983
2.29251
2.4003
2.53817
2.67808
2.78822
2.86778
2.91805
2.95698
2.99089
3.02731
3.06685
3.11687
3.16778
3.21381
3.23962
3.25203
3.23895
3.27285
0.997433
0.997479
0.997513
0.997558
0.997628
0.997734
0.997883
0.998085
0.99835
0.99869
0.999116
0.999641
1.00029
1.00105
1.00194
1.00301
1.00422
1.00561
1.00716
1.00891
1.01086
1.01304
1.0154
1.01787
1.02044
1.02309
1.02596
1.02907
1.03258
1.03616
1.03948
1.04261
1.04612
1.05139
1.06393
1.1098
1.38028
1.96587
2.4227
2.55618
2.57747
2.56605
2.54516
2.52539
2.51112
2.49941
2.48843
2.47752
2.46698
2.45671
2.44671
2.43748
2.4282
2.41997
2.4119
2.40389
2.39697
2.38964
2.38253
2.37647
2.37019
2.36432
2.359
2.35319
2.34766
2.34287
2.33704
2.33104
2.3255
2.31905
2.31268
2.30577
2.29744
2.28899
2.28104
2.27218
2.26299
2.25399
2.24488
2.23621
2.22644
2.21606
2.20649
2.19724
2.18868
2.18091
2.17334
2.16589
2.15828
2.15028
2.14316
2.13781
2.13478
2.13423
2.13709
2.14618
2.16322
2.1912
2.23415
2.29761
2.39211
2.5157
2.64947
2.7668
2.84795
2.89675
2.92836
2.95328
2.97727
3.00149
3.02894
3.05978
3.09929
3.14391
3.18909
3.21575
3.23104
3.2226
3.25355
0.997416
0.997461
0.99749
0.997535
0.997605
0.997709
0.997856
0.998055
0.998316
0.998651
0.999073
0.999595
1.00023
1.00099
1.00188
1.00293
1.00414
1.00553
1.00708
1.0088
1.01073
1.01291
1.01527
1.01775
1.02031
1.02294
1.02578
1.02885
1.03223
1.03573
1.03913
1.04244
1.04607
1.05144
1.06409
1.11
1.37969
1.96521
2.42151
2.55477
2.57679
2.56637
2.54565
2.52559
2.51042
2.49784
2.48644
2.4754
2.4647
2.45453
2.44448
2.43536
2.42647
2.41828
2.41053
2.40232
2.39501
2.38771
2.38029
2.37411
2.36803
2.36202
2.35679
2.35132
2.34592
2.34147
2.33583
2.32938
2.32375
2.3177
2.31096
2.30458
2.29611
2.28659
2.27783
2.26945
2.26076
2.25224
2.24181
2.23046
2.22006
2.21039
2.20158
2.19394
2.18747
2.18145
2.17501
2.16851
2.16306
2.15906
2.15751
2.15786
2.16131
2.17044
2.18668
2.21304
2.25343
2.31172
2.39635
2.50593
2.62818
2.742
2.82767
2.88137
2.91161
2.93177
2.94848
2.96443
2.98244
3.00313
3.02666
3.0522
3.08553
3.12444
3.16722
3.19432
3.21221
3.20756
3.23343
0.997397
0.99744
0.997464
0.997507
0.997575
0.997677
0.997822
0.998017
0.998272
0.998602
0.999017
0.999533
1.00015
1.00091
1.00179
1.00281
1.00403
1.00541
1.00695
1.00867
1.01058
1.01274
1.01508
1.01756
1.02012
1.02276
1.02559
1.02861
1.03181
1.03521
1.03865
1.04213
1.04602
1.05157
1.06447
1.11137
1.38139
1.96776
2.41952
2.55166
2.57408
2.56404
2.54288
2.52221
2.50646
2.49379
2.48252
2.47178
2.46156
2.45165
2.44191
2.43306
2.42434
2.41659
2.40888
2.40065
2.39341
2.38594
2.3789
2.37256
2.36586
2.36006
2.35482
2.34914
2.34407
2.33913
2.3332
2.32674
2.32032
2.31389
2.30786
2.30057
2.29087
2.28044
2.27072
2.26154
2.25251
2.24295
2.23293
2.22304
2.21426
2.20666
2.20006
2.19431
2.18982
2.18543
2.18158
2.17939
2.17893
2.18063
2.18649
2.19749
2.21482
2.24121
2.2802
2.3352
2.41373
2.5132
2.62319
2.72717
2.80925
2.86473
2.89854
2.91901
2.93201
2.94327
2.95473
2.96795
2.98341
3.00096
3.0211
3.04371
3.07301
3.10669
3.14708
3.17534
3.19578
3.19484
3.21602
0.997375
0.997418
0.997437
0.997476
0.99754
0.997639
0.997779
0.997969
0.998219
0.99854
0.998947
0.999452
1.00007
1.00081
1.00168
1.0027
1.0039
1.00526
1.00679
1.0085
1.01038
1.0125
1.01483
1.0173
1.01987
1.02253
1.02534
1.0283
1.03139
1.03466
1.03809
1.04175
1.0459
1.05152
1.0645
1.11219
1.38479
1.97351
2.42219
2.55595
2.58007
2.57152
2.55169
2.53127
2.51445
2.50036
2.48788
2.47594
2.46434
2.45328
2.4428
2.43317
2.42373
2.4149
2.40671
2.39839
2.39083
2.38364
2.37634
2.36986
2.36313
2.35653
2.35099
2.34487
2.33852
2.33292
2.32645
2.31965
2.3127
2.30502
2.29816
2.29023
2.27976
2.26848
2.25826
2.24926
2.24144
2.2339
2.22678
2.22039
2.21382
2.20776
2.20275
2.19963
2.19905
2.19921
2.20046
2.20452
2.21269
2.22592
2.24559
2.27405
2.31414
2.36974
2.44434
2.53596
2.63488
2.72724
2.80115
2.85271
2.88507
2.90493
2.91884
2.93033
2.9395
2.94693
2.95511
2.96629
2.98028
2.99534
3.01413
3.03466
3.06057
3.09003
3.12858
3.15789
3.18092
3.18417
3.20314
0.99735
0.997391
0.997407
0.997441
0.997502
0.997595
0.997729
0.997913
0.998156
0.998469
0.998867
0.999361
0.999963
1.00069
1.00155
1.00255
1.00372
1.00508
1.00661
1.0083
1.01014
1.01221
1.0145
1.01696
1.01955
1.02223
1.02503
1.02796
1.031
1.03416
1.03754
1.0413
1.04554
1.0511
1.064
1.11209
1.38984
1.98199
2.42668
2.55814
2.58389
2.57727
2.55829
2.53795
2.52023
2.50484
2.4911
2.47805
2.46535
2.4531
2.44157
2.43065
2.42024
2.41031
2.40102
2.39242
2.38424
2.37687
2.36986
2.36275
2.35634
2.34987
2.34303
2.33686
2.32986
2.32249
2.31618
2.30878
2.29998
2.29086
2.28137
2.27234
2.2636
2.25463
2.24671
2.24005
2.23429
2.22982
2.22549
2.22099
2.21704
2.21516
2.21472
2.2161
2.22077
2.22877
2.24049
2.25718
2.28066
2.3129
2.35516
2.41283
2.48572
2.57096
2.65827
2.73895
2.80465
2.84974
2.87744
2.89478
2.90662
2.91632
2.92528
2.93225
2.93812
2.94443
2.95305
2.96341
2.9751
2.98866
3.00597
3.024
3.04763
3.07444
3.11189
3.1424
3.1675
3.1745
3.19365
0.99732
0.997361
0.997374
0.997404
0.997459
0.997546
0.997672
0.997847
0.998081
0.998384
0.998771
0.999251
0.999835
1.00055
1.00139
1.00236
1.0035
1.00486
1.00638
1.00805
1.00987
1.01189
1.01412
1.01656
1.01915
1.02184
1.02463
1.02753
1.03053
1.03363
1.03697
1.04069
1.04485
1.05022
1.06324
1.11256
1.3978
1.99417
2.43094
2.55831
2.58467
2.57901
2.56056
2.5402
2.52179
2.50571
2.49113
2.47711
2.46352
2.45045
2.43798
2.42612
2.41485
2.4043
2.39441
2.38523
2.37675
2.36853
2.36102
2.35383
2.34677
2.34066
2.33366
2.32557
2.31758
2.30974
2.30216
2.29466
2.28456
2.27352
2.26387
2.25608
2.2505
2.24608
2.2416
2.23765
2.23383
2.23091
2.22983
2.23016
2.23122
2.23428
2.24109
2.25209
2.26811
2.28979
2.31874
2.35623
2.4052
2.46638
2.53823
2.61606
2.69221
2.76104
2.8158
2.85306
2.87692
2.89129
2.89982
2.90657
2.91295
2.91762
2.923
2.92917
2.93504
2.94096
2.94924
2.95852
2.96874
2.98144
2.99679
3.01257
3.03511
3.0607
3.09745
3.12903
3.15554
3.16517
3.18491
0.997286
0.997326
0.997336
0.997362
0.997412
0.997492
0.99761
0.997777
0.997999
0.998288
0.998658
0.999119
0.999696
1.00039
1.0012
1.00215
1.00327
1.00459
1.00609
1.00773
1.00957
1.01157
1.01374
1.01611
1.01864
1.02133
1.02415
1.02708
1.03009
1.03313
1.03632
1.03984
1.04379
1.04916
1.06294
1.11498
1.40992
2.00945
2.43208
2.55454
2.58111
2.57696
2.56062
2.54112
2.52208
2.50521
2.48994
2.47526
2.46146
2.44858
2.43634
2.4247
2.41363
2.40309
2.39334
2.38396
2.37481
2.36616
2.35733
2.34864
2.34054
2.33245
2.32528
2.31634
2.30598
2.29581
2.28608
2.27691
2.26779
2.25911
2.25232
2.24762
2.24478
2.24384
2.24284
2.2416
2.24117
2.2421
2.24617
2.2538
2.26445
2.27843
2.29794
2.32492
2.35975
2.40357
2.45891
2.52447
2.59622
2.66646
2.73241
2.78853
2.83166
2.86012
2.87995
2.8921
2.89859
2.903
2.90677
2.90837
2.91068
2.91456
2.91922
2.92421
2.92993
2.9362
2.94395
2.95214
2.96179
2.9737
2.98685
3.00075
3.02279
3.04771
3.08401
3.11628
3.14389
3.15572
3.17592
0.997248
0.997286
0.997292
0.997314
0.997358
0.997431
0.997541
0.997697
0.997905
0.998179
0.998533
0.998974
0.999534
1.0002
1.00099
1.00192
1.00301
1.00428
1.00573
1.00735
1.00919
1.01119
1.01331
1.01556
1.01802
1.02069
1.02356
1.02664
1.02968
1.03261
1.03556
1.03875
1.04248
1.04809
1.06326
1.11979
1.42557
2.02686
2.43462
2.55062
2.57583
2.57216
2.55723
2.53951
2.52227
2.50661
2.49236
2.47822
2.46465
2.45168
2.43919
2.42719
2.4156
2.40445
2.39347
2.38272
2.37249
2.36196
2.35183
2.34157
2.33114
2.32175
2.31275
2.30286
2.29144
2.27932
2.26833
2.26074
2.25557
2.25205
2.2493
2.24754
2.24685
2.24803
2.25193
2.25713
2.26332
2.27257
2.28719
2.30717
2.33288
2.36525
2.4059
2.45787
2.51886
2.58588
2.65219
2.71576
2.77244
2.81751
2.84952
2.87006
2.88412
2.8928
2.8984
2.90262
2.90459
2.90442
2.90445
2.90525
2.90701
2.91007
2.91377
2.9178
2.92356
2.9304
2.93762
2.94535
2.95459
2.96542
2.97695
2.98915
3.01073
3.0349
3.07076
3.10349
3.13199
3.14594
3.16669
0.997203
0.99724
0.997243
0.99726
0.997297
0.997363
0.997463
0.997606
0.997799
0.998059
0.998392
0.998809
0.999342
0.999987
1.00076
1.00167
1.00272
1.00392
1.00531
1.00689
1.00874
1.01078
1.01283
1.01497
1.01732
1.01992
1.02286
1.02615
1.02926
1.03203
1.03468
1.03754
1.0411
1.04703
1.06378
1.12505
1.44179
2.04442
2.43897
2.54875
2.57173
2.56742
2.55265
2.53608
2.52121
2.50603
2.49171
2.4772
2.4628
2.44916
2.43594
2.42322
2.41099
2.39886
2.38725
2.37578
2.36421
2.35333
2.34179
2.32945
2.31756
2.30561
2.29459
2.28381
2.27164
2.26236
2.25593
2.2523
2.25194
2.25271
2.25396
2.25535
2.25884
2.26644
2.27871
2.29452
2.31373
2.33877
2.371
2.41061
2.46027
2.51841
2.58275
2.64648
2.70818
2.76425
2.80823
2.84207
2.86493
2.88125
2.89161
2.89629
2.89913
2.90174
2.90265
2.90208
2.90181
2.90124
2.90055
2.90099
2.90234
2.90401
2.9069
2.91103
2.91708
2.92375
2.93056
2.93821
2.94682
2.95646
2.9668
2.9777
2.9987
3.0223
3.05764
3.09058
3.11984
3.13597
3.1571
0.997154
0.997189
0.997187
0.9972
0.99723
0.997285
0.997375
0.997504
0.997684
0.997926
0.998233
0.998622
0.999122
0.99974
1.00048
1.00138
1.00238
1.00353
1.00485
1.00637
1.00819
1.01027
1.01237
1.01437
1.01655
1.01905
1.02208
1.02557
1.02874
1.03143
1.03382
1.03643
1.03989
1.04616
1.06455
1.13083
1.45803
2.05941
2.43939
2.54433
2.56561
2.56081
2.54634
2.53058
2.51736
2.50401
2.49028
2.47585
2.46042
2.44553
2.43068
2.41622
2.40201
2.38786
2.37418
2.36055
2.34766
2.33445
2.3216
2.30762
2.29217
2.27872
2.26681
2.25877
2.25317
2.25123
2.25102
2.25153
2.25492
2.26123
2.26993
2.28031
2.29312
2.31207
2.33874
2.37242
2.41286
2.46286
2.52089
2.58432
2.64643
2.7065
2.76157
2.80436
2.83892
2.86288
2.87967
2.89072
2.89705
2.90027
2.90236
2.903
2.90326
2.90142
2.89979
2.89858
2.89736
2.89642
2.89573
2.89589
2.89649
2.8971
2.89994
2.90478
2.91069
2.91658
2.92308
2.93051
2.93836
2.94691
2.95634
2.9663
2.98658
3.00991
3.04448
3.07757
3.10754
3.12577
3.14713
0.997099
0.99713
0.997125
0.997132
0.997154
0.997198
0.997275
0.99739
0.997555
0.997773
0.998052
0.998422
0.998886
0.999458
1.00016
1.00104
1.00202
1.00311
1.00434
1.00579
1.00755
1.00967
1.01181
1.0137
1.01572
1.01811
1.02113
1.02477
1.02809
1.03081
1.03305
1.03554
1.03904
1.04585
1.06623
1.13838
1.47658
2.07468
2.43811
2.53682
2.55503
2.5487
2.53392
2.51846
2.50633
2.49424
2.48142
2.46774
2.45135
2.43597
2.42001
2.40387
2.38852
2.37215
2.35551
2.33831
2.32097
2.30406
2.28671
2.27088
2.2572
2.24808
2.24302
2.24276
2.24362
2.24704
2.25393
2.2629
2.27406
2.28848
2.30896
2.33569
2.36826
2.40795
2.45763
2.51647
2.58188
2.64693
2.70855
2.7637
2.80549
2.83994
2.86435
2.88069
2.8915
2.89842
2.90314
2.90551
2.90543
2.90592
2.90378
2.9012
2.89987
2.89806
2.89552
2.8934
2.89165
2.89052
2.88997
2.88983
2.88965
2.89041
2.89372
2.89871
2.90398
2.90921
2.91516
2.92201
2.92916
2.93686
2.94568
2.95499
2.97448
2.99755
3.03121
3.06455
3.09515
3.11516
3.13663
0.997038
0.997067
0.997056
0.997057
0.997071
0.997104
0.997166
0.997262
0.997407
0.997602
0.997861
0.998199
0.998619
0.999136
0.999787
1.00063
1.00161
1.00263
1.00377
1.00513
1.00681
1.00895
1.01112
1.01299
1.01484
1.01707
1.01994
1.02366
1.02721
1.03009
1.03237
1.03486
1.03842
1.04575
1.06853
1.14821
1.49916
2.0922
2.43466
2.52493
2.53846
2.529
2.51169
2.49538
2.48439
2.47292
2.4605
2.44683
2.42948
2.41258
2.39465
2.37645
2.35805
2.33865
2.31763
2.29469
2.27352
2.25593
2.24136
2.23272
2.22876
2.22966
2.23232
2.23773
2.24606
2.25819
2.27691
2.29927
2.32408
2.35492
2.39649
2.44882
2.50945
2.5756
2.64213
2.7055
2.76269
2.8079
2.84428
2.86874
2.88437
2.89531
2.90255
2.90752
2.90941
2.90887
2.90944
2.90963
2.90779
2.90373
2.90086
2.89827
2.8962
2.8924
2.88981
2.88735
2.88547
2.88429
2.88362
2.88314
2.88273
2.88401
2.88752
2.8922
2.89666
2.90132
2.90664
2.91282
2.91945
2.92652
2.93504
2.94404
2.96257
2.98517
3.01768
3.0513
3.0826
3.10405
3.12563
0.996972
0.996999
0.996981
0.996973
0.996978
0.996998
0.997043
0.99712
0.997239
0.997408
0.99765
0.997952
0.998319
0.99878
0.999375
1.00017
1.00113
1.0021
1.00315
1.0044
1.00597
1.00806
1.01027
1.01224
1.01397
1.01599
1.01859
1.0221
1.02591
1.02913
1.03179
1.03451
1.03822
1.04606
1.07139
1.16031
1.52534
2.11054
2.42866
2.5083
2.51651
2.50318
2.48284
2.46457
2.45126
2.43858
2.42497
2.41037
2.39251
2.37414
2.35363
2.33163
2.30729
2.28223
2.25825
2.23787
2.22209
2.21473
2.21213
2.21616
2.22021
2.22655
2.23892
2.25471
2.27527
2.30178
2.33752
2.38098
2.43126
2.49188
2.56327
2.63621
2.70291
2.76271
2.81056
2.84839
2.87432
2.89114
2.90261
2.90908
2.9126
2.91452
2.91505
2.91479
2.91494
2.91317
2.90876
2.90731
2.90547
2.90187
2.89674
2.89363
2.8912
2.88669
2.88339
2.88054
2.87868
2.87764
2.87699
2.87632
2.87615
2.87774
2.8811
2.8851
2.88887
2.89293
2.89769
2.90331
2.90948
2.91598
2.92429
2.93305
2.95072
2.97284
3.00412
3.03795
3.07018
3.09273
3.11414
0.996901
0.996928
0.996901
0.996881
0.996874
0.996881
0.996908
0.996964
0.997057
0.997195
0.997406
0.997677
0.998
0.998408
0.998939
0.999652
1.00057
1.00153
1.00249
1.00362
1.00506
1.00698
1.00921
1.0113
1.01316
1.01496
1.01724
1.02021
1.02406
1.02778
1.03097
1.03404
1.03797
1.04636
1.074
1.17187
1.55162
2.12986
2.42395
2.49191
2.4951
2.47873
2.45551
2.43432
2.41705
2.40136
2.38531
2.36694
2.34558
2.32174
2.29311
2.26249
2.23534
2.2127
2.19969
2.19447
2.19457
2.19622
2.20185
2.21573
2.23221
2.25186
2.27988
2.31472
2.35713
2.40839
2.47336
2.5482
2.62528
2.69797
2.76534
2.81855
2.85811
2.8855
2.90268
2.91376
2.91966
2.92252
2.92359
2.92367
2.92213
2.92081
2.91883
2.91536
2.91232
2.91117
2.90895
2.90464
2.90176
2.89834
2.89214
2.88836
2.88512
2.88061
2.87628
2.87355
2.87165
2.87081
2.87013
2.86962
2.8697
2.87128
2.87416
2.87739
2.8805
2.88399
2.88841
2.8937
2.89954
2.90534
2.91291
2.92163
2.93873
2.9606
2.99049
3.02435
3.05767
3.08105
3.10213
0.996824
0.996852
0.996819
0.996783
0.996758
0.99675
0.996758
0.996791
0.996855
0.996958
0.99713
0.997368
0.997646
0.997992
0.998451
0.999076
0.999916
1.00085
1.00174
1.00276
1.00406
1.00574
1.0079
1.01013
1.01214
1.01393
1.0159
1.01843
1.02179
1.02582
1.02973
1.03341
1.03773
1.04662
1.07607
1.18118
1.57336
2.14586
2.41826
2.4749
2.47324
2.45313
2.42628
2.3997
2.37655
2.3555
2.33312
2.3068
2.27686
2.24254
2.20993
2.18511
2.17184
2.1661
2.1704
2.1774
2.1891
2.20368
2.22298
2.25247
2.29017
2.33415
2.38581
2.45108
2.52834
2.61303
2.69476
2.76879
2.82802
2.87119
2.9032
2.92259
2.9335
2.93849
2.93961
2.93977
2.93878
2.93634
2.93248
2.92855
2.924
2.9199
2.91773
2.91509
2.91146
2.90863
2.9062
2.90161
2.89764
2.8935
2.88728
2.88262
2.87858
2.87414
2.86918
2.86649
2.8646
2.86388
2.86324
2.86308
2.86331
2.86449
2.86657
2.86917
2.8717
2.87469
2.87902
2.88421
2.88946
2.89402
2.90076
2.90972
2.92651
2.94828
2.97697
3.01076
3.0449
3.06901
3.08935
0.99674
0.996767
0.996731
0.996683
0.996636
0.996603
0.996592
0.9966
0.996633
0.996701
0.996822
0.997017
0.997255
0.997536
0.997915
0.99844
0.999185
1.00006
1.00092
1.00183
1.00297
1.00444
1.00637
1.00863
1.01079
1.01273
1.01453
1.01671
1.01962
1.02332
1.02773
1.03228
1.0373
1.04683
1.07801
1.18996
1.59263
2.15374
2.40287
2.4489
2.44145
2.41678
2.38631
2.35295
2.32268
2.29699
2.26468
2.22682
2.18969
2.16022
2.14548
2.13886
2.14447
2.15267
2.16812
2.19057
2.21924
2.25788
2.30543
2.36546
2.43471
2.51228
2.59999
2.68911
2.77041
2.83724
2.8858
2.92249
2.94489
2.95667
2.96221
2.96375
2.96393
2.96137
2.95762
2.95249
2.94724
2.94049
2.93387
2.92857
2.92425
2.9194
2.91583
2.91292
2.90964
2.90555
2.90235
2.89776
2.89258
2.8879
2.88265
2.87684
2.872
2.86761
2.86266
2.85937
2.85749
2.8568
2.85645
2.85646
2.85653
2.85705
2.8584
2.86053
2.86263
2.86528
2.86939
2.87409
2.87856
2.88225
2.88867
2.89798
2.91413
2.93546
2.96314
2.99693
3.03177
3.05642
3.07617
0.996648
0.996674
0.996633
0.996577
0.996512
0.99645
0.996407
0.996389
0.996393
0.996424
0.996494
0.996632
0.996817
0.997043
0.99734
0.997761
0.998375
0.999167
0.999981
1.00079
1.0018
1.00309
1.00473
1.00683
1.00908
1.01117
1.013
1.01498
1.01749
1.02079
1.02505
1.03015
1.03617
1.04683
1.08014
1.1977
1.60872
2.15554
2.37952
2.41491
2.40082
2.36941
2.33333
2.29288
2.25022
2.20903
2.16793
2.13512
2.11569
2.10662
2.11355
2.12398
2.14488
2.17491
2.21421
2.26687
2.32712
2.40386
2.49068
2.58674
2.68358
2.77135
2.84501
2.8997
2.94148
2.96734
2.98064
2.98736
2.98887
2.9878
2.98537
2.98183
2.97734
2.97135
2.96331
2.95603
2.94986
2.94288
2.9348
2.92864
2.92329
2.91788
2.91321
2.90989
2.90656
2.9015
2.89745
2.89315
2.88707
2.88227
2.87766
2.87119
2.86599
2.86151
2.85644
2.85209
2.85015
2.8495
2.84924
2.84909
2.84873
2.84888
2.84988
2.85163
2.85334
2.85569
2.85896
2.86269
2.86647
2.87006
2.87666
2.88634
2.90181
2.9224
2.94944
2.98334
3.01872
3.04364
3.06246
0.996547
0.996571
0.996523
0.996459
0.996386
0.996296
0.996212
0.996156
0.996128
0.996122
0.996141
0.996205
0.996327
0.9965
0.99672
0.997032
0.997499
0.998167
0.998908
0.99963
1.00049
1.00159
1.003
1.00478
1.00694
1.00914
1.01119
1.0131
1.01535
1.01823
1.02203
1.02707
1.03388
1.04623
1.08255
1.20742
1.6247
2.14776
2.34291
2.36995
2.34773
2.30833
2.26308
2.20899
2.15428
2.11278
2.08708
2.07816
2.08122
2.09049
2.11344
2.14834
2.19836
2.26903
2.35191
2.4504
2.55704
2.6656
2.76416
2.84749
2.90752
2.9519
2.98166
2.99737
3.00572
3.00874
3.00905
3.00727
3.00353
2.99855
2.99293
2.98669
2.98005
2.9738
2.96559
2.9573
2.95008
2.94293
2.93439
2.92796
2.92208
2.91606
2.9099
2.90611
2.90228
2.89663
2.89226
2.88794
2.88176
2.87669
2.87194
2.86541
2.86
2.85554
2.85032
2.84481
2.84264
2.84176
2.84122
2.84072
2.84003
2.84021
2.84113
2.84259
2.84388
2.84546
2.84766
2.85053
2.85389
2.85765
2.86443
2.87424
2.88918
2.90898
2.93552
2.96964
3.00554
3.03053
3.04854
0.996436
0.996459
0.996405
0.996327
0.996249
0.996136
0.996012
0.995913
0.99584
0.995783
0.995751
0.995748
0.99579
0.995895
0.996035
0.996236
0.996556
0.99707
0.997697
0.998323
0.999037
0.99997
1.00115
1.00263
1.00447
1.00662
1.00883
1.01085
1.01298
1.01559
1.01894
1.02357
1.03054
1.04448
1.08438
1.21712
1.63739
2.12746
2.28631
2.3028
2.27116
2.22083
2.15918
2.10437
2.06769
2.05263
2.05162
2.05967
2.0818
2.12113
2.17742
2.25726
2.36565
2.49216
2.62185
2.73792
2.83697
2.90476
2.95205
2.98428
3.00113
3.01062
3.01572
3.01768
3.01786
3.01756
3.01499
3.01072
3.00494
2.99878
2.99302
2.9868
2.97993
2.97299
2.96523
2.9567
2.94932
2.94219
2.93351
2.92649
2.92021
2.91363
2.90658
2.9022
2.89752
2.89127
2.88681
2.88237
2.87639
2.87103
2.86565
2.85906
2.85342
2.84895
2.84374
2.83768
2.83503
2.83383
2.83304
2.83212
2.83111
2.83129
2.83205
2.83298
2.83368
2.83448
2.83599
2.83823
2.84099
2.84457
2.85105
2.86065
2.87556
2.89499
2.92204
2.95653
2.99254
3.01711
3.03378
0.996316
0.996338
0.996276
0.996184
0.996091
0.995967
0.995808
0.995659
0.995541
0.995427
0.995318
0.99524
0.995212
0.995231
0.995283
0.995372
0.995544
0.995868
0.996353
0.99686
0.997405
0.998132
0.99911
1.00033
1.00183
1.00369
1.00583
1.008
1.01021
1.01281
1.01608
1.0203
1.02698
1.04203
1.08612
1.22985
1.64616
2.0833
2.20302
2.20681
2.16514
2.10638
2.05651
2.03423
2.02877
2.03492
2.054
2.09227
2.15111
2.24042
2.3676
2.51812
2.66781
2.79411
2.88219
2.93819
2.97421
2.99296
3.00323
3.01006
3.01341
3.01548
3.01678
3.01637
3.0153
3.01341
3.00989
3.00566
3.00094
2.99611
2.9908
2.98444
2.97755
2.97068
2.96342
2.95507
2.94785
2.94091
2.93231
2.92457
2.91781
2.91069
2.9031
2.89823
2.89282
2.88596
2.88099
2.87617
2.87065
2.8649
2.8591
2.85224
2.84622
2.84166
2.8366
2.83059
2.82729
2.82577
2.82488
2.82358
2.82209
2.82191
2.82218
2.82217
2.82229
2.82291
2.82427
2.82617
2.82824
2.83151
2.83745
2.84661
2.86129
2.88033
2.9083
2.94326
2.97934
3.00326
3.01868
0.996187
0.996206
0.996137
0.996029
0.995912
0.995783
0.995589
0.995388
0.995221
0.995063
0.994868
0.99469
0.994568
0.994495
0.994451
0.994425
0.994448
0.994577
0.994874
0.995227
0.995578
0.996061
0.99678
0.997742
0.998963
1.00051
1.00235
1.00439
1.00668
1.00949
1.01285
1.0169
1.02349
1.03997
1.09034
1.25722
1.65924
2.01595
2.08699
2.07601
2.03789
2.00441
1.99203
2.00152
2.01986
2.05616
2.11472
2.20615
2.34401
2.51348
2.68534
2.82553
2.90973
2.95831
2.9821
2.99063
2.99567
2.99872
3.00181
3.00446
3.00618
3.00609
3.00605
3.00594
3.00541
3.00426
3.00173
2.99826
2.99441
2.99031
2.98562
2.97985
2.97324
2.96659
2.9602
2.9525
2.94551
2.93892
2.9306
2.92236
2.9151
2.9075
2.89938
2.89397
2.88797
2.8806
2.87479
2.86954
2.8642
2.85772
2.85203
2.84529
2.83886
2.83418
2.82917
2.82355
2.81944
2.81728
2.81617
2.81434
2.81202
2.81145
2.81115
2.81042
2.81008
2.8106
2.81175
2.8134
2.81491
2.81809
2.82382
2.83264
2.84734
2.86647
2.89541
2.93077
2.96626
2.98883
3.00264
0.996047
0.996065
0.995988
0.995864
0.995718
0.995575
0.995356
0.9951
0.99487
0.994668
0.99441
0.994121
0.993881
0.993698
0.993538
0.993368
0.993252
0.993211
0.993278
0.993414
0.993531
0.993734
0.994143
0.994803
0.995736
0.996962
0.998436
1.00018
1.00234
1.00537
1.00895
1.0129
1.01963
1.03817
1.09708
1.29347
1.66518
1.92526
1.96588
1.95628
1.94583
1.95343
1.96948
2.00666
2.06204
2.14899
2.29192
2.47789
2.67186
2.82793
2.91712
2.96339
2.9815
2.98555
2.98711
2.98661
2.98693
2.98752
2.98812
2.98896
2.99004
2.99049
2.9911
2.99148
2.99154
2.99137
2.98999
2.98775
2.98474
2.98134
2.97746
2.97277
2.9672
2.96126
2.95571
2.94901
2.94232
2.93613
2.92852
2.92019
2.91227
2.90422
2.89549
2.88937
2.88286
2.87504
2.86836
2.86274
2.85718
2.85032
2.84469
2.838
2.83113
2.82634
2.82182
2.8167
2.81128
2.80842
2.80685
2.80432
2.80109
2.80016
2.7995
2.79827
2.79753
2.79766
2.79846
2.79981
2.80109
2.80458
2.81058
2.81924
2.83391
2.85316
2.88225
2.91806
2.95288
2.97422
2.98658
0.995896
0.995912
0.995828
0.995688
0.995513
0.995343
0.995106
0.994797
0.994491
0.99423
0.993934
0.99354
0.993154
0.992841
0.992574
0.992265
0.991949
0.991704
0.991533
0.991396
0.991237
0.991138
0.991206
0.991496
0.992072
0.992947
0.99406
0.995434
0.997331
1.00022
1.0038
1.00781
1.01501
1.03613
1.10322
1.32017
1.65924
1.83372
1.87102
1.88864
1.90935
1.94841
2.00411
2.08477
2.21052
2.40172
2.62677
2.81158
2.91956
2.96804
2.98196
2.98284
2.98009
2.97581
2.97237
2.96941
2.9681
2.96785
2.96812
2.96881
2.96983
2.97101
2.97233
2.9735
2.97424
2.97484
2.97458
2.97381
2.97204
2.96962
2.96683
2.9636
2.95967
2.95473
2.94974
2.94408
2.93814
2.93249
2.9258
2.9176
2.90921
2.90088
2.89166
2.88466
2.87754
2.86927
2.86183
2.85581
2.84995
2.84278
2.83696
2.83032
2.8232
2.81815
2.8139
2.80906
2.8027
2.79906
2.79708
2.79405
2.79003
2.78859
2.78759
2.78579
2.78447
2.78422
2.78466
2.78553
2.78655
2.79001
2.79622
2.80486
2.82005
2.83999
2.86928
2.90545
2.93907
2.95926
2.96944
0.995734
0.995748
0.995657
0.9955
0.995296
0.995091
0.99484
0.994476
0.994091
0.993746
0.993409
0.992928
0.992393
0.99193
0.991533
0.991131
0.990597
0.990072
0.989618
0.98921
0.988747
0.988207
0.987891
0.987827
0.98798
0.988425
0.989132
0.990101
0.991617
0.994015
0.997075
1.00096
1.0087
1.03252
1.1066
1.32921
1.6272
1.75768
1.81775
1.86913
1.93181
2.01086
2.13024
2.30478
2.53544
2.76591
2.91535
2.97812
2.99488
2.99204
2.98398
2.97577
2.9683
2.96104
2.95539
2.95122
2.94851
2.94707
2.94667
2.94682
2.94733
2.94838
2.94997
2.95197
2.95382
2.9555
2.95635
2.95663
2.95624
2.95519
2.95388
2.95212
2.94971
2.94603
2.9417
2.93696
2.93204
2.92712
2.92153
2.91386
2.90549
2.89729
2.88781
2.87989
2.87193
2.86304
2.85504
2.84865
2.84244
2.83493
2.82878
2.82225
2.81507
2.80963
2.80538
2.80062
2.79362
2.78918
2.78676
2.78344
2.77877
2.77656
2.77493
2.77259
2.77086
2.77062
2.77101
2.77158
2.77246
2.77568
2.78189
2.79043
2.80591
2.82621
2.85534
2.89168
2.92432
2.94389
2.95276
0.99556
0.995572
0.995474
0.9953
0.995068
0.994819
0.994551
0.994143
0.993672
0.99323
0.992823
0.992281
0.991602
0.990958
0.990398
0.989882
0.989218
0.988379
0.987578
0.986859
0.986139
0.985114
0.984156
0.983614
0.983401
0.983424
0.983605
0.984037
0.984979
0.986592
0.98879
0.99226
1.00093
1.02864
1.11069
1.32767
1.57354
1.71028
1.80984
1.90897
2.02157
2.1795
2.39744
2.66023
2.88213
2.99011
3.01841
3.01721
3.00557
2.99077
2.97902
2.96779
2.95844
2.9506
2.94409
2.93864
2.93425
2.93092
2.92867
2.92735
2.92678
2.92685
2.9274
2.92882
2.93088
2.93322
2.93534
2.93687
2.93779
2.938
2.93807
2.93761
2.93654
2.93441
2.93114
2.92736
2.92339
2.91946
2.91519
2.90841
2.90044
2.89262
2.88316
2.87457
2.86596
2.85653
2.8475
2.84105
2.8347
2.82693
2.82036
2.81375
2.80651
2.80076
2.79652
2.79179
2.78439
2.77914
2.77616
2.77245
2.76716
2.76427
2.76202
2.75921
2.75707
2.75682
2.75704
2.75738
2.7581
2.76094
2.76707
2.77556
2.79165
2.81257
2.84195
2.87792
2.90918
2.92809
2.9353
0.995373
0.995384
0.995279
0.995088
0.994827
0.994533
0.994231
0.993795
0.99324
0.992681
0.992185
0.991597
0.990772
0.989914
0.989171
0.988506
0.987755
0.986638
0.98544
0.984362
0.983315
0.981903
0.980246
0.978999
0.978188
0.97769
0.977415
0.97726
0.97736
0.977773
0.978911
0.982186
0.993416
1.0272
1.12461
1.33131
1.53279
1.7068
1.86029
2.02112
2.21457
2.47639
2.75246
2.94459
3.01911
3.03709
3.02867
3.01347
2.99896
2.98486
2.97267
2.96207
2.95299