/*--------------------------------*- C++ -*----------------------------------*\
| =========                 |                                                 |
| \\      /  F ield         | OpenFOAM: The Open Source CFD Toolbox           |
|  \\    /   O peration     | Version:  2.2.x                                 |
|   \\  /    A nd           | Web:      www.OpenFOAM.org                      |
|    \\/     M anipulation  |                                                 |
\*---------------------------------------------------------------------------*/
FoamFile
{
    version     2.0;
    format      ascii;
    class       volScalarField;
    location    "2.4";
    object      Bx;
}
// * * * * * * * * * * * * * * * * * * * * * * * * * * * * * * * * * * * * * //

dimensions      [1 0 -2 0 0 -1 0];

internalField   nonuniform List<scalar> 
14161
(
1.03704
1.01
1.00818
1.00876
1.01065
1.01184
1.01223
1.01349
1.01438
1.01552
1.0166
1.01788
1.01888
1.01906
1.01917
1.01936
1.01937
1.01963
1.02021
1.02037
1.02047
1.02063
1.02079
1.02086
1.02082
1.02072
1.02059
1.02037
1.02016
1.01991
1.01976
1.0198
1.02012
1.0208
1.0225
1.02725
1.03688
1.06873
1.09069
1.30263
1.39481
1.35516
1.35146
1.34448
1.33465
1.32587
1.31793
1.3118
1.3075
1.30529
1.30388
1.30251
1.30146
1.30041
1.29944
1.29904
1.29922
1.3
1.30028
1.30022
1.29921
1.29683
1.29106
1.28293
1.27311
1.26276
1.25253
1.24283
1.2344
1.22835
1.22419
1.22104
1.21705
1.21376
1.21492
1.21569
1.21133
1.20683
1.20866
1.20958
1.20507
1.20059
1.20265
1.2057
1.20376
1.20253
1.20946
1.21513
1.2155
1.21964
1.22852
1.23287
1.23395
1.23332
1.2313
1.2268
1.21481
1.19907
1.17751
1.14536
1.10348
1.04977
0.983455
0.910969
0.838752
0.770971
0.708509
0.649382
0.593141
0.538672
0.484258
0.42815
0.370877
0.311099
0.250386
0.192886
0.127257
0.0823885
0.0180707
0.902408
0.971222
0.981476
0.987503
0.992191
0.997155
1.00164
1.00434
1.0052
1.00538
1.00397
1.00151
0.99949
0.999648
1.00035
1.00151
1.00312
1.00454
1.00579
1.00687
1.00751
1.0078
1.00801
1.00801
1.00788
1.00757
1.00714
1.00683
1.00663
1.0065
1.00632
1.00597
1.0054
1.00456
1.00307
1.00039
0.99745
0.98686
0.987316
0.952224
0.86356
0.857197
0.8525
0.868259
0.891742
0.920744
0.948293
0.974577
0.995606
1.01083
1.02336
1.03507
1.04647
1.05715
1.06702
1.07601
1.08348
1.09007
1.09509
1.0993
1.10223
1.10459
1.10806
1.11213
1.11641
1.11967
1.12324
1.12706
1.13198
1.13483
1.13237
1.13094
1.13619
1.13957
1.13063
1.11786
1.12422
1.13101
1.11355
1.08905
1.09423
1.09898
1.08053
1.05057
1.0546
1.06017
1.03009
0.992478
0.998715
0.979348
0.916995
0.87985
0.847812
0.792617
0.741718
0.697776
0.652103
0.609289
0.570902
0.534429
0.501603
0.470627
0.44508
0.420773
0.398428
0.375291
0.350251
0.324901
0.296232
0.266756
0.232402
0.199453
0.167035
0.132291
0.104197
0.0678397
0.0449876
0.0286954
0.0128044
1.18858
1.08164
1.05698
1.04694
1.04293
1.03838
1.0345
1.03266
1.03333
1.03533
1.03963
1.04575
1.05169
1.05419
1.05471
1.05374
1.05226
1.05081
1.04934
1.04852
1.04823
1.04802
1.04787
1.0478
1.04777
1.04774
1.04767
1.04749
1.04724
1.04702
1.04688
1.04685
1.04711
1.04758
1.04824
1.04827
1.04703
1.03603
1.03517
0.858855
0.708437
0.747273
0.764405
0.812834
0.850995
0.896951
0.930648
0.961229
0.981892
0.997199
1.01111
1.02521
1.03853
1.05177
1.06383
1.07502
1.0853
1.09416
1.10238
1.10979
1.11611
1.12112
1.12641
1.13197
1.13779
1.14458
1.15032
1.15385
1.15444
1.15419
1.15814
1.15912
1.14894
1.13813
1.14441
1.14603
1.12361
1.09622
1.10362
1.1067
1.07015
1.02947
1.03253
1.03473
0.98343
0.929667
0.937181
0.926379
0.832073
0.772911
0.774448
0.69712
0.613611
0.577573
0.521816
0.469009
0.42538
0.389143
0.353462
0.322933
0.294615
0.268399
0.245677
0.225225
0.206986
0.190043
0.171153
0.153974
0.132658
0.113107
0.0908942
0.0750901
0.0561212
0.041491
0.0226946
0.015042
0.00962822
0.00840006
0.00454242
0.752505
0.90776
0.937656
0.952204
0.959611
0.968084
0.975956
0.980354
0.982096
0.980486
0.976433
0.969949
0.963601
0.961539
0.962377
0.964602
0.967404
0.970166
0.972549
0.974215
0.975156
0.975794
0.976069
0.976133
0.97587
0.97574
0.975253
0.975151
0.974741
0.974744
0.974461
0.97423
0.973409
0.972152
0.969885
0.965717
0.958393
0.942183
0.921794
0.754482
0.663824
0.67685
0.723256
0.764406
0.803378
0.836565
0.867936
0.892216
0.916723
0.942174
0.965409
0.987097
1.00805
1.02704
1.04429
1.05968
1.0736
1.08599
1.09799
1.10845
1.11879
1.12877
1.13857
1.14664
1.15319
1.15755
1.16061
1.16217
1.16348
1.16534
1.16181
1.1549
1.15749
1.15894
1.14252
1.12568
1.12999
1.12544
1.09529
1.06516
1.06833
1.06284
1.02362
0.976816
0.983795
0.974295
0.899509
0.836747
0.848563
0.789903
0.678648
0.641717
0.603042
0.528799
0.479666
0.444308
0.399264
0.363975
0.331111
0.302045
0.272605
0.248522
0.222679
0.199609
0.1756
0.155652
0.13039
0.112304
0.0871629
0.0734674
0.0557053
0.0467072
0.0282151
0.0202197
0.00721552
0.00760884
0.00487541
0.00913885
0.00531928
1.30151
1.13269
1.09388
1.07718
1.07083
1.06448
1.05867
1.05589
1.05583
1.05897
1.06552
1.07464
1.08369
1.08737
1.08892
1.08791
1.08595
1.08378
1.08201
1.08072
1.0799
1.07935
1.07907
1.07891
1.07882
1.07874
1.07857
1.07826
1.07781
1.07729
1.0768
1.07636
1.07605
1.07579
1.07538
1.07444
1.07316
1.06269
1.07768
0.969371
0.857856
0.883975
0.875062
0.898379
0.906542
0.926648
0.948879
0.974019
1.00046
1.02687
1.05088
1.07158
1.09147
1.10842
1.12431
1.13673
1.14885
1.15838
1.16732
1.1738
1.18029
1.18504
1.18915
1.19152
1.19355
1.19411
1.19468
1.195
1.19496
1.19351
1.19094
1.19058
1.18898
1.18156
1.17516
1.17657
1.16805
1.1496
1.14358
1.14095
1.11813
1.08421
1.07319
1.06505
1.02528
0.96814
0.952527
0.932089
0.855279
0.7936
0.774106
0.701256
0.630441
0.586394
0.530668
0.474225
0.424753
0.383854
0.343774
0.311285
0.281607
0.25472
0.227666
0.202692
0.176234
0.153981
0.127267
0.109085
0.0819553
0.0707287
0.0490854
0.041871
0.0192248
0.0200046
0.00483824
0.0114336
0.00479409
0.00767604
0.00557631
0.638629
0.861446
0.905606
0.92651
0.934604
0.943341
0.951776
0.956591
0.958421
0.956576
0.951278
0.94286
0.933625
0.930593
0.930574
0.932927
0.936194
0.939779
0.942819
0.945156
0.946838
0.948059
0.94881
0.949315
0.949657
0.949935
0.95023
0.950637
0.951194
0.951902
0.95264
0.953302
0.953684
0.953856
0.953714
0.952963
0.953165
0.949596
0.970313
0.928575
0.858177
0.915211
0.924462
0.958754
0.980594
1.00261
1.02587
1.04478
1.06608
1.08314
1.10177
1.11472
1.12857
1.13845
1.14866
1.15631
1.16542
1.17205
1.17793
1.1828
1.18703
1.19057
1.19387
1.1968
1.19875
1.20011
1.20154
1.20234
1.20197
1.20274
1.20198
1.20203
1.19856
1.19969
1.19677
1.1933
1.18634
1.1835
1.17844
1.16264
1.15285
1.14781
1.13464
1.10662
1.08812
1.07397
1.03649
0.980155
0.952461
0.908209
0.854324
0.798427
0.754557
0.689347
0.625327
0.567476
0.508219
0.458681
0.411521
0.370925
0.331587
0.298326
0.265579
0.234923
0.203583
0.177547
0.146376
0.125306
0.0941905
0.080855
0.0538526
0.0461351
0.021974
0.0264501
0.00848458
0.0154982
0.00421502
0.00701022
0.003972
1.37476
1.16687
1.11736
1.095
1.08858
1.08185
1.07533
1.072
1.07238
1.07572
1.08248
1.09209
1.1026
1.10756
1.10859
1.10732
1.10504
1.10247
1.09999
1.09798
1.09639
1.09506
1.09374
1.09254
1.09142
1.09035
1.08925
1.08804
1.08666
1.08512
1.08354
1.08206
1.0809
1.08017
1.07976
1.07973
1.08006
1.08232
1.07639
1.11254
1.05409
1.06249
1.07893
1.09232
1.10496
1.11568
1.127
1.13129
1.14271
1.1467
1.15709
1.15954
1.16691
1.1679
1.17405
1.17432
1.18127
1.18174
1.18829
1.1893
1.19474
1.19527
1.19989
1.20165
1.20538
1.2092
1.21239
1.21424
1.21727
1.21764
1.22001
1.2188
1.22145
1.21845
1.22057
1.215
1.21732
1.20849
1.20728
1.19853
1.19557
1.18173
1.17385
1.15728
1.14806
1.11966
1.09738
1.05627
1.03044
0.979742
0.952703
0.907087
0.855275
0.803838
0.747134
0.682458
0.622136
0.558422
0.493487
0.436886
0.387597
0.34702
0.309978
0.277291
0.244676
0.215125
0.182724
0.157053
0.123164
0.104424
0.0716477
0.0622497
0.0355973
0.039389
0.0161211
0.0237625
0.00538766
0.00825161
0.00214941
0.570131
0.833167
0.887742
0.914128
0.923329
0.932291
0.941274
0.94722
0.949771
0.94901
0.944903
0.937852
0.929275
0.925873
0.926281
0.928917
0.932626
0.936929
0.941061
0.944672
0.947713
0.950297
0.952532
0.954504
0.956285
0.95794
0.959577
0.961315
0.963308
0.965555
0.968013
0.970437
0.972716
0.97512
0.977533
0.981119
0.98498
0.997095
0.989792
1.11313
1.15601
1.17691
1.16601
1.16579
1.16159
1.16002
1.16455
1.1609
1.1689
1.16657
1.17579
1.17415
1.18205
1.18165
1.18803
1.18834
1.19563
1.19605
1.20282
1.20324
1.20832
1.20924
1.21473
1.21584
1.21986
1.22382
1.22486
1.22783
1.22799
1.23074
1.22947
1.23216
1.22968
1.23004
1.22994
1.22488
1.22665
1.21905
1.22196
1.21273
1.214
1.20438
1.20322
1.19058
1.18427
1.15823
1.15025
1.11139
1.08976
1.04065
1.0118
0.968676
0.92325
0.877289
0.826852
0.774359
0.718478
0.656165
0.587678
0.522937
0.459084
0.410628
0.367685
0.333391
0.301774
0.27179
0.237521
0.206236
0.168556
0.142221
0.101708
0.0879614
0.0551561
0.0530287
0.0278242
0.0316641
0.00777567
0.0117371
0.0025288
1.41158
1.18515
1.13335
1.10711
1.09891
1.09198
1.08528
1.08094
1.07933
1.08114
1.08561
1.09198
1.09951
1.10285
1.1028
1.10083
1.09775
1.09417
1.09047
1.0869
1.08358
1.08064
1.07796
1.07548
1.07309
1.07083
1.06868
1.06634
1.06367
1.0607
1.05747
1.05409
1.05132
1.04942
1.04836
1.04955
1.05322
1.06324
1.07854
1.15526
1.25684
1.26444
1.2329
1.22885
1.21413
1.20515
1.19987
1.19609
1.1962
1.19252
1.19691
1.19339
1.19849
1.19631
1.20102
1.19973
1.20454
1.2025
1.20681
1.20538
1.21105
1.2105
1.21527
1.21615
1.22025
1.21965
1.22389
1.22463
1.22889
1.22905
1.23239
1.231
1.23435
1.23046
1.23394
1.22758
1.23084
1.22217
1.22434
1.21395
1.21554
1.20445
1.2046
1.19065
1.19126
1.16365
1.15918
1.12514
1.11792
1.07334
1.04408
1.00883
0.966582
0.92623
0.879447
0.83016
0.775331
0.715634
0.651891
0.588306
0.521672
0.465146
0.416954
0.382403
0.351391
0.320919
0.28853
0.255243
0.21955
0.186082
0.144078
0.122253
0.0814097
0.0731605
0.0421002
0.0417841
0.0127822
0.0173562
0.00337551
0.549678
0.824202
0.879978
0.910516
0.921354
0.930542
0.940297
0.948695
0.953712
0.956238
0.955689
0.952638
0.94838
0.948131
0.950327
0.95367
0.957903
0.962539
0.967291
0.97187
0.976083
0.979873
0.983212
0.986162
0.988882
0.991521
0.994061
0.996632
0.999522
1.00268
1.00616
1.00955
1.01248
1.01532
1.01874
1.02168
1.02223
1.01868
1.00652
1.00476
0.953112
1.03362
1.04735
1.07102
1.08698
1.10275
1.11391
1.12571
1.13464
1.14525
1.15037
1.15855
1.16254
1.17094
1.17555
1.18275
1.18534
1.19268
1.19596
1.2026
1.20793
1.21117
1.21708
1.21738
1.2217
1.22161
1.22559
1.22509
1.2284
1.22815
1.23193
1.22992
1.23376
1.22926
1.23322
1.22628
1.22971
1.22016
1.22182
1.21099
1.21129
1.19906
1.1983
1.18035
1.17987
1.15036
1.15078
1.11006
1.10801
1.07294
1.04506
1.02075
0.983259
0.949422
0.904496
0.85898
0.806227
0.751373
0.693448
0.637111
0.577626
0.527377
0.477788
0.439345
0.404878
0.373874
0.343525
0.311152
0.275619
0.239954
0.195151
0.161417
0.111082
0.0957943
0.0579033
0.0517664
0.022234
0.0242765
0.00346205
1.41595
1.1867
1.13591
1.10778
1.09625
1.08737
1.07947
1.07294
1.06862
1.06695
1.0677
1.06982
1.07364
1.07441
1.07298
1.07054
1.0676
1.06421
1.06036
1.0563
1.05231
1.04875
1.04541
1.04235
1.03952
1.03675
1.03446
1.03255
1.03072
1.02848
1.02406
1.01883
1.01311
1.00817
1.00297
0.996342
0.989414
0.982391
0.973773
0.990756
0.915214
0.97351
0.985374
1.00814
1.02172
1.03853
1.05177
1.06437
1.0767
1.09228
1.10427
1.12122
1.13245
1.14692
1.15595
1.1679
1.17415
1.18384
1.18719
1.19472
1.19622
1.19987
1.20148
1.20282
1.20596
1.20583
1.20963
1.2094
1.2131
1.21226
1.21615
1.21403
1.21889
1.21492
1.2207
1.21458
1.22064
1.21298
1.21713
1.20605
1.20703
1.19273
1.19308
1.17021
1.17148
1.13593
1.13879
1.10356
1.08061
1.06919
1.03816
1.02182
0.98778
0.960882
0.918674
0.877353
0.829533
0.779181
0.725469
0.673568
0.615682
0.565017
0.513215
0.473085
0.437299
0.4066
0.377594
0.347894
0.31645
0.282866
0.24656
0.206689
0.153373
0.129513
0.0814466
0.0714319
0.0368302
0.0334132
0.00521177
0.582728
0.839307
0.894256
0.926963
0.939051
0.948973
0.958927
0.968469
0.97586
0.980137
0.982042
0.982621
0.98289
0.984568
0.986975
0.989999
0.993298
0.996794
1.00058
1.0046
1.00857
1.01232
1.01586
1.0182
1.02038
1.02466
1.02706
1.02818
1.02846
1.02859
1.0305
1.0341
1.03818
1.04138
1.04475
1.04868
1.05232
1.06013
1.05412
1.11415
1.03521
1.06266
1.0554
1.06357
1.06331
1.06738
1.0705
1.07785
1.08703
1.10019
1.10865
1.1247
1.13438
1.15031
1.15831
1.17245
1.17946
1.19172
1.1965
1.20666
1.20915
1.21749
1.21935
1.22668
1.22884
1.23245
1.23514
1.23511
1.23809
1.2361
1.23873
1.23473
1.2376
1.23077
1.23517
1.22534
1.23003
1.21757
1.21961
1.20518
1.203
1.18554
1.18043
1.15546
1.15468
1.11858
1.0994
1.08658
1.04778
1.0409
1.0099
0.997345
0.963313
0.944832
0.907106
0.869818
0.823495
0.776766
0.724683
0.672031
0.613393
0.557534
0.504467
0.46556
0.429564
0.400533
0.37655
0.354738
0.331927
0.306295
0.275766
0.243589
0.198684
0.169119
0.110267
0.0946103
0.0484521
0.0401998
0.00822989
1.38207
1.16501
1.11411
1.08683
1.07539
1.06587
1.05714
1.04946
1.04397
1.04058
1.03944
1.04003
1.04102
1.04074
1.03959
1.03792
1.03603
1.03415
1.03191
1.02922
1.02621
1.02296
1.02063
1.02031
1.02006
1.01756
1.01565
1.01466
1.0137
1.01279
1.01133
1.00964
1.00768
1.00586
1.00323
1.00109
0.999154
1.00183
0.991062
1.01709
0.971856
1.00713
1.0219
1.03571
1.0469
1.05857
1.0721
1.08581
1.10161
1.11841
1.12867
1.14576
1.15429
1.1691
1.17598
1.19071
1.19519
1.2088
1.21124
1.22215
1.22304
1.23089
1.23137
1.23745
1.23642
1.24231
1.24098
1.24459
1.2447
1.24502
1.2474
1.24497
1.24862
1.24377
1.24761
1.23965
1.24261
1.23138
1.23224
1.21819
1.21168
1.19865
1.18159
1.16874
1.14054
1.13935
1.09788
1.09619
1.06052
1.05014
1.01496
1.00037
0.965731
0.94564
0.910295
0.873918
0.832185
0.790732
0.746601
0.701049
0.647172
0.589507
0.534562
0.491624
0.452453
0.421743
0.39822
0.380075
0.362403
0.341479
0.31623
0.285796
0.243271
0.205435
0.140004
0.118023
0.060207
0.0480191
0.013966
0.681353
0.883294
0.930752
0.960583
0.971549
0.979917
0.987699
0.994996
1.00102
1.00588
1.00774
1.0086
1.00962
1.01089
1.01272
1.01528
1.01823
1.02075
1.02226
1.02424
1.02656
1.02903
1.03094
1.03183
1.03306
1.03412
1.03475
1.03506
1.03502
1.03483
1.03458
1.03416
1.03356
1.0328
1.03156
1.02926
1.025
1.02092
1.00383
1.01368
0.924
0.976072
1.01776
1.0473
1.06695
1.08532
1.10386
1.12102
1.1402
1.15461
1.16415
1.17834
1.18265
1.19615
1.19898
1.21091
1.21238
1.22424
1.2236
1.23438
1.23324
1.24171
1.24044
1.24614
1.24456
1.24916
1.24779
1.25228
1.25068
1.25542
1.253
1.25831
1.25403
1.26028
1.25271
1.25972
1.24911
1.25472
1.23995
1.24039
1.21672
1.2133
1.17863
1.1738
1.13109
1.12997
1.08803
1.08566
1.0507
1.04423
1.01312
1.00312
0.972258
0.956388
0.926719
0.897304
0.857463
0.819109
0.776544
0.733727
0.682386
0.629715
0.571982
0.517208
0.467252
0.432446
0.407676
0.390795
0.375762
0.358645
0.335588
0.306647
0.266981
0.226403
0.160284
0.1359
0.0697291
0.0555549
0.018738
1.29374
1.12125
1.07388
1.05039
1.04234
1.03647
1.03039
1.02429
1.02023
1.01804
1.01682
1.01856
1.02039
1.02143
1.02178
1.02153
1.02115
1.02046
1.02049
1.02014
1.01954
1.0191
1.01843
1.01829
1.01812
1.01784
1.01777
1.01818
1.01874
1.01911
1.01914
1.01926
1.0205
1.02048
1.01894
1.01744
1.01342
1.00917
0.992891
0.987364
0.880974
0.938522
0.984154
1.01979
1.0465
1.06941
1.09232
1.11142
1.13344
1.14836
1.16733
1.18489
1.1948
1.21249
1.21572
1.22997
1.23095
1.24368
1.24349
1.25556
1.25484
1.26495
1.26382
1.27202
1.2704
1.27665
1.27445
1.27863
1.27536
1.2785
1.27423
1.27752
1.27195
1.27663
1.26841
1.27422
1.26264
1.26997
1.25269
1.25601
1.22656
1.22382
1.18141
1.17328
1.12641
1.12195
1.08043
1.07431
1.03754
1.02886
0.995998
0.985761
0.95412
0.939181
0.912261
0.88899
0.851271
0.817095
0.776586
0.733662
0.684869
0.635281
0.57548
0.515148
0.458582
0.422478
0.397042
0.379799
0.364668
0.350752
0.334037
0.312011
0.280086
0.245802
0.189432
0.162156
0.0869031
0.0694367
0.0263906
0.803362
0.937432
0.972344
0.992944
1.00006
1.00475
1.00898
1.01337
1.01771
1.01832
1.02021
1.0208
1.02103
1.02158
1.02228
1.02293
1.02344
1.02431
1.02558
1.02706
1.02857
1.02976
1.03077
1.03134
1.0315
1.0315
1.03133
1.03084
1.02989
1.02854
1.02685
1.02486
1.02019
1.01492
1.00834
0.99959
0.98901
0.976045
0.95557
0.948185
0.875716
0.956783
1.00199
1.03296
1.0666
1.09521
1.12136
1.14204
1.16595
1.17796
1.2013
1.21142
1.23042
1.24395
1.24929
1.26499
1.26467
1.27898
1.27775
1.29025
1.28793
1.2964
1.29248
1.29847
1.29498
1.30014
1.29681
1.30052
1.29724
1.30029
1.29613
1.29948
1.29272
1.29733
1.28527
1.28981
1.27068
1.27142
1.24258
1.24319
1.20508
1.20144
1.15518
1.14895
1.10171
1.09887
1.06006
1.05488
1.02128
1.01279
0.979796
0.967134
0.934551
0.917518
0.890857
0.871119
0.835672
0.803313
0.76423
0.725748
0.681542
0.636998
0.579715
0.520365
0.466576
0.428564
0.401454
0.383474
0.368907
0.358419
0.345806
0.327698
0.299672
0.270192
0.218843
0.182331
0.0985905
0.0801905
0.032943
1.18835
1.07394
1.0389
1.02109
1.01788
1.01533
1.01224
1.01137
1.00968
1.01041
1.01169
1.0132
1.0146
1.01596
1.01721
1.01837
1.01935
1.02038
1.02132
1.02187
1.0223
1.02279
1.02317
1.02366
1.02405
1.02445
1.025
1.02565
1.02672
1.02817
1.02992
1.03167
1.03358
1.03561
1.03735
1.0401
1.04215
1.04816
1.04735
1.11512
1.03744
1.1357
1.12788
1.14636
1.15653
1.17925
1.19591
1.21683
1.23668
1.24473
1.26661
1.26887
1.2888
1.28978
1.30483
1.31004
1.3115
1.31985
1.31793
1.32749
1.32569
1.33087
1.33401
1.33302
1.33849
1.33622
1.34124
1.33858
1.3422
1.33951
1.34003
1.33909
1.33371
1.33779
1.3281
1.33571
1.32041
1.3275
1.29881
1.30251
1.25908
1.25716
1.20587
1.19988
1.14822
1.13968
1.09692
1.08816
1.05251
1.04022
1.00157
0.982067
0.946668
0.928519
0.901047
0.87777
0.845839
0.815083
0.780458
0.742939
0.698347
0.651285
0.596515
0.538532
0.484418
0.43867
0.405826
0.383602
0.368104
0.357991
0.348993
0.334486
0.310545
0.281694
0.232176
0.194067
0.111742
0.0967862
0.0450908
0.906375
0.980229
1.00196
1.01303
1.01461
1.01611
1.01742
1.01825
1.01948
1.02079
1.02121
1.02124
1.02117
1.02146
1.02202
1.02275
1.02345
1.02417
1.025
1.02594
1.02696
1.02789
1.02862
1.02935
1.02996
1.03017
1.03033
1.03001
1.02968
1.02907
1.02835
1.02715
1.02558
1.02388
1.02235
1.02149
1.02125
1.02717
1.02449
1.13781
1.12957
1.19193
1.19386
1.21551
1.22958
1.24522
1.25615
1.26886
1.28154
1.28312
1.30167
1.29926
1.31691
1.31404
1.32956
1.32805
1.33683
1.34169
1.33857
1.34651
1.34165
1.3508
1.34742
1.35374
1.35096
1.35533
1.35276
1.3562
1.35337
1.35662
1.35175
1.35569
1.34727
1.35162
1.33952
1.34685
1.32848
1.33853
1.3029
1.30637
1.24833
1.2397
1.17739
1.166
1.11197
1.09655
1.05395
1.04216
1.01422
1.00226
0.96684
0.938639
0.901063
0.87861
0.857326
0.838561
0.815436
0.790881
0.762143
0.731726
0.694983
0.651345
0.600549
0.545126
0.4911
0.439935
0.403807
0.381478
0.365157
0.354397
0.346972
0.334678
0.312679
0.285277
0.242157
0.208979
0.130372
0.116817
0.0537178
1.1042
1.04006
1.01941
1.00985
1.00979
1.00987
1.01046
1.0106
1.01113
1.01186
1.01325
1.01475
1.01621
1.01765
1.01906
1.02034
1.02138
1.02236
1.02332
1.02425
1.02513
1.02602
1.02687
1.02772
1.02852
1.02931
1.03008
1.03093
1.03227
1.034
1.03567
1.03777
1.04019
1.04306
1.04657
1.05061
1.05512
1.06314
1.05936
1.11845
1.09408
1.1681
1.19352
1.25068
1.2569
1.27224
1.27823
1.28934
1.30058
1.3003
1.31803
1.31407
1.33205
1.32731
1.34418
1.33951
1.3537
1.3548
1.35375
1.35973
1.35528
1.3634
1.35958
1.36622
1.3631
1.36861
1.366
1.37043
1.36753
1.37183
1.36772
1.37291
1.36679
1.37326
1.3625
1.37004
1.34735
1.351
1.30117
1.29176
1.2078
1.16896
1.10853
1.08873
1.03947
1.0168
0.977227
0.958376
0.927852
0.917781
0.906686
0.88907
0.859318
0.829457
0.804963
0.787376
0.771656
0.750817
0.72615
0.700214
0.670773
0.640603
0.599313
0.553517
0.502025
0.449329
0.412025
0.38798
0.369426
0.356394
0.346478
0.337685
0.321336
0.297924
0.261882
0.235354
0.158242
0.143368
0.0691177
0.971154
1.00375
1.0146
1.01757
1.01738
1.01666
1.01684
1.01709
1.01748
1.01801
1.01856
1.01909
1.01978
1.02053
1.02134
1.02223
1.02304
1.02385
1.02476
1.02582
1.02681
1.02782
1.0288
1.02995
1.03074
1.03161
1.03244
1.03348
1.03455
1.0357
1.03641
1.03675
1.03689
1.03746
1.03793
1.03786
1.03671
1.03759
1.03168
1.06437
1.06501
1.10423
1.14232
1.17263
1.21471
1.22793
1.25702
1.26383
1.28554
1.2859
1.30839
1.30685
1.32859
1.32481
1.34413
1.3388
1.35576
1.3485
1.36172
1.35695
1.36294
1.35897
1.36396
1.36078
1.36658
1.36426
1.36934
1.36766
1.37159
1.37177
1.37292
1.37592
1.37162
1.37875
1.369
1.38015
1.35465
1.36361
1.30144
1.29308
1.24547
1.2091
1.14738
1.11327
1.07062
1.03535
0.98711
0.950623
0.899452
0.860682
0.839241
0.830929
0.821382
0.805464
0.785256
0.770439
0.756909
0.741419
0.716637
0.687878
0.656275
0.624252
0.588923
0.547358
0.498942
0.45093
0.410346
0.381304
0.359677
0.345541
0.338445
0.334453
0.326354
0.308613
0.279826
0.256634
0.181736
0.164966
0.0849237
1.05309
1.02319
1.01343
1.01004
1.01004
1.01081
1.01181
1.01274
1.01358
1.0144
1.01554
1.01672
1.01808
1.01936
1.02053
1.02174
1.02285
1.02383
1.02474
1.02589
1.02698
1.02818
1.02928
1.03039
1.03159
1.03265
1.03391
1.03514
1.03644
1.0379
1.03957
1.04122
1.0432
1.0453
1.04758
1.05026
1.05372
1.0569
1.07176
1.09336
1.09318
1.10977
1.14224
1.16289
1.21853
1.2279
1.26799
1.26822
1.29727
1.29777
1.32399
1.32194
1.34503
1.33947
1.3599
1.35284
1.37055
1.36467
1.37396
1.37506
1.37692
1.37895
1.37768
1.38268
1.37983
1.38393
1.38071
1.38232
1.3811
1.3819
1.38401
1.3807
1.38601
1.37854
1.38402
1.35856
1.35642
1.28663
1.28617
1.18931
1.16532
1.13666
1.07928
1.02989
0.995318
0.970852
0.935492
0.913381
0.891588
0.858875
0.82518
0.794692
0.775085
0.763122
0.745085
0.730411
0.716936
0.704705
0.689477
0.672376
0.650133
0.624903
0.592865
0.554767
0.500907
0.452669
0.408362
0.380116
0.358534
0.344741
0.339324
0.335055
0.331783
0.317856
0.292197
0.272938
0.197806
0.181648
0.101806
1.00228
1.01212
1.01794
1.01755
1.01602
1.01552
1.01543
1.01566
1.01598
1.01652
1.01736
1.0183
1.0193
1.02026
1.02119
1.0222
1.0234
1.02457
1.02559
1.02683
1.02803
1.02936
1.0309
1.03215
1.0339
1.03551
1.03726
1.039
1.04072
1.04253
1.0446
1.04685
1.04946
1.05245
1.05625
1.0606
1.06887
1.06633
1.13768
1.06735
1.08502
1.10144
1.12684
1.14295
1.19404
1.19909
1.24789
1.24491
1.28048
1.27817
1.30681
1.30448
1.3335
1.32903
1.35342
1.34668
1.36717
1.36177
1.37682
1.36967
1.37933
1.37521
1.38028
1.37724
1.38217
1.37814
1.38221
1.37861
1.38229
1.37934
1.38505
1.37987
1.38661
1.37064
1.37152
1.31434
1.29169
1.19486
1.18429
1.1315
1.06729
1.02183
0.995827
0.943454
0.905103
0.875655
0.853695
0.825369
0.813518
0.805808
0.788413
0.775981
0.760197
0.746693
0.734138
0.716438
0.698794
0.68036
0.664017
0.648975
0.628579
0.606971
0.57887
0.546288
0.498357
0.457875
0.412191
0.384774
0.360856
0.346595
0.340576
0.336121
0.33603
0.325134
0.302954
0.283286
0.211609
0.195988
0.117271
1.03044
1.01748
1.01484
1.01226
1.01211
1.0125
1.01319
1.01397
1.01476
1.01567
1.0167
1.01781
1.01901
1.0203
1.02156
1.02266
1.02396
1.02528
1.02643
1.02763
1.02902
1.03042
1.03202
1.03362
1.03554
1.03742
1.03941
1.04131
1.04298
1.04453
1.04621
1.04768
1.04878
1.04917
1.04913
1.04755
1.04871
1.03609
1.08677
1.01686
1.03756
1.04947
1.06275
1.07267
1.11135
1.11846
1.17683
1.18563
1.23914
1.24369
1.2834
1.28685
1.32058
1.31662
1.34634
1.33928
1.36266
1.35431
1.3721
1.36623
1.37652
1.37244
1.37796
1.37598
1.38194
1.37866
1.38195
1.37633
1.37573
1.36739
1.36309
1.34167
1.31778
1.25503
1.20806
1.10863
1.09051
1.00965
0.97592
0.958025
0.936461
0.91234
0.899598
0.885974
0.86622
0.842762
0.827861
0.800297
0.775594
0.753326
0.740689
0.729176
0.715414
0.702124
0.692439
0.680656
0.671325
0.662933
0.651394
0.639799
0.622417
0.601935
0.572792
0.540667
0.496825
0.45511
0.411816
0.381904
0.356227
0.341216
0.334621
0.328808
0.332049
0.324734
0.306316
0.288758
0.224661
0.211746
0.133774
1.01444
1.01482
1.0168
1.01623
1.01493
1.01434
1.01448
1.01484
1.01543
1.01629
1.01732
1.01845
1.01951
1.02081
1.02211
1.0233
1.02445
1.02584
1.0272
1.02855
1.03017
1.03181
1.03373
1.03564
1.03756
1.03945
1.04154
1.04361
1.04529
1.04703
1.04904
1.05105
1.05311
1.05497
1.05685
1.05772
1.05946
1.05543
1.08798
1.04321
1.04828
1.05547
1.06443
1.07586
1.09563
1.11447
1.16653
1.18302
1.25056
1.2585
1.31407
1.30642
1.34149
1.32985
1.35877
1.3465
1.36782
1.3569
1.3729
1.36454
1.37442
1.37065
1.37476
1.36979
1.37135
1.36022
1.35057
1.31878
1.2795
1.23356
1.16278
1.09932
1.01458
0.924208
0.858298
0.802039
0.797805
0.794167
0.793062
0.791373
0.795095
0.791192
0.789071
0.78861
0.778798
0.761273
0.753321
0.751413
0.746533
0.735787
0.723124
0.712676
0.700851
0.686336
0.671447
0.659437
0.6463
0.637821
0.627433
0.618042
0.604098
0.590821
0.56807
0.543409
0.500322
0.461059
0.41322
0.382816
0.356551
0.341097
0.332923
0.326862
0.330536
0.326072
0.310632
0.297304
0.241507
0.229339
0.150175
1.02206
1.01529
1.01496
1.01399
1.01372
1.01358
1.01411
1.01472
1.01546
1.01637
1.01749
1.01875
1.01981
1.02111
1.02256
1.02392
1.02516
1.02663
1.0282
1.02976
1.03147
1.03334
1.03529
1.03737
1.03944
1.04174
1.04413
1.04641
1.04853
1.05054
1.05207
1.05329
1.05428
1.05506
1.05541
1.05552
1.05619
1.05306
1.06234
1.05119
1.04776
1.0474
1.04849
1.05172
1.0562
1.06389
1.08668
1.09652
1.15255
1.16051
1.22956
1.22902
1.28368
1.28013
1.31972
1.30717
1.33032
1.31531
1.32638
1.31155
1.31248
1.2892
1.27021
1.22847
1.18026
1.11795
1.05203
0.975348
0.864694
0.781772
0.71092
0.649017
0.620073
0.59637
0.591926
0.589765
0.604875
0.624061
0.650983
0.677687
0.697024
0.715996
0.723158
0.731973
0.734022
0.729541
0.721059
0.710726
0.703691
0.694311
0.683951
0.674341
0.665092
0.657628
0.652352
0.646128
0.636596
0.629215
0.619657
0.610872
0.59618
0.581325
0.559717
0.537609
0.499048
0.460968
0.414809
0.385012
0.359559
0.342368
0.33348
0.326754
0.331226
0.329407
0.318409
0.308424
0.25958
0.244128
0.168395
1.01664
1.01434
1.01555
1.01576
1.01526
1.01449
1.01466
1.01517
1.01584
1.01671
1.01783
1.01906
1.02027
1.02144
1.02291
1.02445
1.02577
1.02715
1.02894
1.03071
1.03272
1.03474
1.03669
1.03845
1.04083
1.0435
1.04599
1.04843
1.05083
1.05314
1.05516
1.05744
1.06006
1.06312
1.06677
1.07348
1.07446
1.1032
1.07566
1.05495
1.04834
1.04077
1.03805
1.03527
1.03685
1.04203
1.05177
1.06246
1.09324
1.10629
1.17364
1.18404
1.25822
1.24584
1.28888
1.26042
1.26877
1.2285
1.20705
1.14919
1.09334
1.01535
0.922028
0.835449
0.751092
0.680905
0.622311
0.582308
0.549637
0.505385
0.477983
0.459291
0.450796
0.453132
0.460348
0.47158
0.4932
0.513503
0.545852
0.57883
0.612076
0.643184
0.660243
0.672144
0.680931
0.682201
0.686709
0.686194
0.684577
0.680356
0.674801
0.664874
0.652809
0.642617
0.635856
0.628301
0.620649
0.613535
0.605536
0.598655
0.589856
0.578853
0.56045
0.538514
0.503484
0.46512
0.418933
0.388841
0.363208
0.345264
0.335919
0.329917
0.335071
0.333869
0.327111
0.321009
0.273344
0.258187
0.187245
1.01839
1.01433
1.01492
1.01501
1.0147
1.01455
1.01475
1.01541
1.01615
1.01701
1.01802
1.01928
1.02066
1.02195
1.02332
1.0249
1.02644
1.02785
1.02975
1.03167
1.03381
1.03628
1.03867
1.04112
1.04385
1.04638
1.04886
1.05122
1.05357
1.05584
1.05836
1.0611
1.06391
1.06693
1.06966
1.07514
1.06493
1.13093
1.01628
1.01824
1.01095
1.01364
1.01369
1.01772
1.01881
1.02289
1.02961
1.03936
1.05066
1.07537
1.08756
1.1441
1.14621
1.20773
1.16251
1.16927
1.07535
1.03391
0.915562
0.848299
0.753225
0.705379
0.648306
0.597395
0.552987
0.508283
0.480913
0.452705
0.441713
0.419769
0.408006
0.398663
0.3948
0.398296
0.404915
0.418517
0.433615
0.455163
0.480171
0.512965
0.549855
0.588217
0.613613
0.630409
0.642784
0.64963
0.657214
0.65985
0.658908
0.656851
0.653557
0.649232
0.642769
0.637751
0.630683
0.622814
0.615891
0.607306
0.600839
0.593309
0.583046
0.574556
0.558795
0.538411
0.506386
0.467899
0.424102
0.392988
0.368777
0.349933
0.340707
0.335543
0.340928
0.340976
0.336601
0.331774
0.288019
0.274564
0.20592
1.01659
1.01373
1.01491
1.01556
1.01552
1.0158
1.0154
1.01562
1.01632
1.01716
1.01816
1.01949
1.02091
1.02233
1.02361
1.0252
1.02691
1.02853
1.03029
1.03239
1.0347
1.03724
1.03972
1.04289
1.04579
1.04832
1.05087
1.05309
1.05496
1.05677
1.05874
1.06022
1.0617
1.06269
1.06226
1.06509
1.04866
1.11024
0.959296
0.986456
0.993818
1.00104
1.00748
1.01078
1.01528
1.01795
1.02167
1.02483
1.03028
1.03505
1.04889
1.04588
1.06459
1.04123
1.02842
0.925687
0.865787
0.772386
0.73871
0.671655
0.638041
0.590251
0.561296
0.524605
0.498054
0.467561
0.449533
0.427997
0.414212
0.405047
0.391809
0.389976
0.385565
0.389988
0.391562
0.39855
0.409762
0.424978
0.444132
0.466938
0.499124
0.531362
0.568573
0.597051
0.618287
0.634047
0.643225
0.648137
0.649659
0.648841
0.645643
0.642067
0.636099
0.629442
0.623249
0.616622
0.610772
0.604264
0.598555
0.590412
0.583129
0.573697
0.56037
0.541845
0.511469
0.473033
0.431863
0.399947
0.376729
0.357258
0.347729
0.342904
0.348206
0.348275
0.346286
0.342063
0.303349
0.291705
0.223418
1.01692
1.0138
1.01455
1.01519
1.0158
1.01568
1.01593
1.01589
1.01675
1.0176
1.01864
1.01974
1.0212
1.02275
1.0241
1.02557
1.02752
1.02973
1.03198
1.03447
1.03716
1.04001
1.04253
1.04507
1.04773
1.0504
1.05249
1.05473
1.05694
1.05913
1.06109
1.06242
1.06349
1.06406
1.06304
1.06381
1.05009
1.0846
0.995208
1.0163
1.02017
1.02405
1.02475
1.02414
1.02295
1.02074
1.01775
1.01286
1.01054
1.00691
1.00082
0.989924
0.947735
0.906542
0.812655
0.762668
0.71369
0.673222
0.640824
0.611706
0.576121
0.558391
0.534859
0.518825
0.498365
0.482038
0.465137
0.453031
0.435502
0.427203
0.411643
0.404846
0.395982
0.395362
0.39523
0.399813
0.404169
0.413458
0.426199
0.444111
0.466389
0.496094
0.532113
0.566902
0.592898
0.612919
0.625524
0.632733
0.638027
0.641087
0.641226
0.639666
0.63633
0.630373
0.623293
0.616098
0.610185
0.602977
0.598482
0.590687
0.586081
0.574941
0.565282
0.546709
0.519255
0.480653
0.441392
0.408821
0.386361
0.36588
0.355697
0.350724
0.355692
0.35633
0.356687
0.352814
0.319749
0.307981
0.24074
1.01632
1.01333
1.01435
1.01517
1.01608
1.01644
1.01657
1.01686
1.01706
1.01801
1.01905
1.02012
1.02156
1.02313
1.02476
1.02629
1.02841
1.03067
1.03295
1.03532
1.03814
1.0412
1.04394
1.04621
1.04875
1.05117
1.05363
1.05606
1.05837
1.06044
1.06185
1.06285
1.06326
1.06346
1.06286
1.06469
1.06137
1.08535
1.06497
1.06547
1.06438
1.06048
1.05508
1.05005
1.04588
1.04001
1.03472
1.02581
1.01375
0.991772
0.959771
0.894277
0.823605
0.735388
0.693353
0.662459