/*--------------------------------*- C++ -*----------------------------------*\
| =========                 |                                                 |
| \\      /  F ield         | OpenFOAM: The Open Source CFD Toolbox           |
|  \\    /   O peration     | Version:  2.2.x                                 |
|   \\  /    A nd           | Web:      www.OpenFOAM.org                      |
|    \\/     M anipulation  |                                                 |
\*---------------------------------------------------------------------------*/
FoamFile
{
    version     2.0;
    format      ascii;
    class       volScalarField;
    location    "2.4";
    object      By;
}
// * * * * * * * * * * * * * * * * * * * * * * * * * * * * * * * * * * * * * //

dimensions      [1 0 -2 0 0 -1 0];

internalField   nonuniform List<scalar> 
14161
(
-0.0458915
-0.0118848
-0.00484611
-0.00308187
-0.00262821
-0.00119596
0.000138669
0.000708018
0.000646224
0.000260267
-0.000513103
-0.0016111
-0.00220606
-0.00243245
-0.00221844
-0.00169987
-0.00103482
-0.00043624
-2.52355e-05
0.000210822
0.000424191
0.000472272
0.000464399
0.000490218
0.000489259
0.000470238
0.0004703
0.000481998
0.000463252
0.000453996
0.000398995
0.000369156
0.000254287
-3.03766e-05
-0.000992124
-0.00243265
-0.00794052
-0.0119309
-0.0729178
-0.175988
0.00382437
0.0369962
0.0285119
0.0287455
0.0303743
0.0307577
0.0282937
0.0256178
0.0228967
0.0210216
0.0189587
0.0172085
0.0155247
0.0141564
0.012726
0.0113698
0.00972142
0.00855575
0.00771993
0.00727791
0.00766578
0.00928338
0.0115481
0.0139884
0.0149133
0.0144903
0.0123446
0.0100542
0.00818797
0.00681691
0.00499528
0.00203992
0.000488321
0.00223198
0.00258138
-0.000933603
-0.00103315
0.00261038
0.00416988
-0.000718854
-7.93028e-05
0.00315376
0.00503064
-0.00056777
-0.00222824
0.0013812
0.00196629
-0.00592339
-0.00526382
-0.000280658
-0.00293104
-0.00538392
-0.00129202
0.00285252
0.00502956
0.00938383
0.0154284
0.0197207
0.0248968
0.0298746
0.0372425
0.0461338
0.0542062
0.0545475
0.0516502
0.0432564
0.0434158
0.0390022
0.0402189
0.036852
0.0427077
0.0422366
0.0463067
0.0476683
0.0497154
0.053218
0.0507855
0.0549438
0.0231547
0.0477837
0.0123347
0.0044138
0.00261215
0.00193445
0.000734968
-0.000492627
-0.000782295
-0.000746341
-0.000122425
0.000615608
0.001697
0.00254698
0.00257497
0.00223612
0.00165807
0.00102659
0.000225763
-0.000121424
-0.000257778
-0.0004461
-0.00055181
-0.000559604
-0.00053842
-0.000526132
-0.000535582
-0.000528783
-0.000596607
-0.000557704
-0.000651471
-0.000791636
-0.000906966
-0.000989125
-0.00109268
-0.00163285
-0.00297959
-0.00771101
-0.0141246
-0.0784603
-0.188853
0.00285046
-0.00156427
-0.0211203
-0.0145083
-0.015659
-0.0251346
-0.0237195
-0.0239971
-0.0256872
-0.0241304
-0.0219864
-0.0193112
-0.0172096
-0.0150605
-0.0146779
-0.0137939
-0.0132955
-0.0118863
-0.00996502
-0.00850572
-0.0060797
-0.00215553
0.00212763
0.00580875
0.00780973
0.00842159
0.00844025
0.00810356
0.00673392
0.00532976
0.00448843
0.00456668
0.00394672
0.00121552
0.00120944
0.00451244
0.00605046
0.000510011
0.000154613
0.00458076
0.00654838
-0.00323073
-0.00494478
-0.000584855
0.00199729
-0.00839752
-0.00819573
-0.000508211
0.00190898
-0.00881803
-0.00187312
0.0117842
0.00665924
0.0060213
0.0104506
0.00892281
0.0108714
0.0157852
0.0230068
0.0329923
0.0478629
0.0605021
0.0718727
0.0779535
0.0759539
0.0727233
0.0687724
0.0653006
0.0635012
0.0614462
0.0628336
0.0622025
0.0699766
0.0697902
0.0695268
0.0742084
0.060215
0.070383
0.0340578
-0.0453548
-0.00954392
-0.00289322
-0.00295315
-0.00291176
-0.00163723
-0.000504907
0.000448337
0.000336662
8.48938e-05
-0.000394164
-0.00133963
-0.00204834
-0.00219901
-0.00183334
-0.00138814
-0.000923154
-0.000372612
-7.75556e-05
0.000111162
0.000381512
0.000475222
0.000536908
0.000580434
0.000641212
0.000674617
0.000657162
0.000586954
0.000511298
0.000474927
0.000455822
0.000453315
0.000399981
0.000323108
-5.75726e-06
-0.000882841
-0.0031059
-0.00619069
-0.0527391
-0.10413
0.0447134
0.0411316
0.00923803
-0.0115669
-0.0246088
-0.0380686
-0.0373351
-0.0319724
-0.0177111
-0.0132539
-0.0129412
-0.0126515
-0.0137772
-0.0128586
-0.0133656
-0.011774
-0.0102501
-0.00771083
-0.00611981
-0.00352473
-0.00182535
0.00078656
0.00229614
0.00327371
0.00363232
0.00329015
0.00343232
0.0024813
0.00225516
0.00258542
0.00335409
0.00338707
0.00433705
0.00607905
0.00804948
0.0101863
0.0135099
0.0157664
0.0169577
0.0181038
0.0211776
0.0232495
0.0226781
0.019024
0.0217106
0.0256156
0.0296101
0.0295425
0.0405522
0.0547187
0.0615438
0.0679247
0.0759091
0.0808859
0.0772107
0.0784133
0.0790761
0.075576
0.0781487
0.0773383
0.0830437
0.0846348
0.0891034
0.0836824
0.0814297
0.0728181
0.0745518
0.0689687
0.075631
0.0717864
0.08382
0.0778682
0.0907373
0.0820637
0.0950163
0.0928149
0.0773484
0.0740319
0.0406612
0.0387116
0.01254
0.00520777
0.00273716
0.00179473
0.000836474
-2.02563e-06
-0.000513707
-0.000486606
-6.09502e-05
0.000331556
0.000900038
0.00157428
0.0018626
0.00159816
0.00129981
0.000832077
0.000362653
-3.51622e-05
-0.000368986
-0.000625149
-0.000690249
-0.00073654
-0.000767019
-0.000816067
-0.000872337
-0.000920132
-0.000997148
-0.00113234
-0.00131233
-0.00157629
-0.0018701
-0.00200211
-0.00228139
-0.00262551
-0.00293228
-0.00362544
-0.00382837
0.0109215
0.0962533
0.049548
-0.0303001
-0.0739467
-0.103027
-0.109901
-0.110839
-0.0988851
-0.0804536
-0.0663018
-0.058841
-0.05675
-0.0523701
-0.0503358
-0.046018
-0.0442851
-0.040013
-0.0370246
-0.0325817
-0.0292372
-0.025235
-0.0222069
-0.0203747
-0.0165247
-0.0123014
-0.00814387
-0.00465248
-0.00205141
0.000496993
0.00329735
0.00633168
0.00791458
0.00924509
0.0125199
0.0195695
0.0232119
0.0249817
0.0303062
0.0408239
0.0458118
0.0462258
0.0490252
0.0559918
0.0587261
0.0583086
0.0623885
0.07236
0.0809861
0.0901832
0.107385
0.127197
0.140459
0.14262
0.149308
0.147667
0.135037
0.129251
0.1201
0.112066
0.10981
0.108224
0.112834
0.112959
0.115414
0.108606
0.104597
0.0949739
0.0953745
0.0896593
0.0962275
0.0921422
0.0980133
0.0899965
0.103505
0.0952032
0.101802
0.090511
0.0763849
0.0712639
0.0434038
-0.0359952
-0.00713398
-0.00134343
-0.00244394
-0.00289944
-0.00220416
-0.00128414
-0.000326039
0.000172036
0.000215677
-8.19307e-06
-0.000332064
-0.000618719
-0.0011215
-0.00084048
-0.000697859
-0.000343758
-9.45472e-05
9.85513e-05
0.000377239
0.000652447
0.000807498
0.00095798
0.00107811
0.00115548
0.00121886
0.00123437
0.00119592
0.00113848
0.00108837
0.00106785
0.00109381
0.00124111
0.00149411
0.00210418
0.00298582
0.00546449
0.0131048
0.0751729
0.223758
0.0770465
-0.0473101
-0.102115
-0.120036
-0.131701
-0.135999
-0.126659
-0.110861
-0.0958571
-0.082567
-0.0787484
-0.0714566
-0.0685427
-0.0608293
-0.0568423
-0.0480596
-0.0434099
-0.0372324
-0.0342376
-0.0290811
-0.0239155
-0.0187631
-0.0141119
-0.0102091
-0.00699527
-0.00419553
-0.00189607
0.00147069
0.00401402
0.00590032
0.00862957
0.0136731
0.0177197
0.021276
0.0263294
0.0367202
0.0437872
0.0480394
0.0556059
0.065907
0.0694687
0.071646
0.0784225
0.0918556
0.100394
0.108211
0.126778
0.155235
0.181019
0.189197
0.224337
0.233851
0.225339
0.224882
0.204725
0.19489
0.177292
0.162755
0.153336
0.146736
0.147206
0.144879
0.145573
0.138076
0.131859
0.122623
0.12093
0.115974
0.117094
0.10943
0.113427
0.103385
0.117522
0.104312
0.109594
0.0884197
0.0778012
0.0688175
0.046415
0.0256079
0.010692
0.00520989
0.00238115
0.00121891
0.00047826
0.000196004
-0.000217265
-0.00051886
-0.000464854
-0.000392255
-0.000413469
0.000180304
-5.47113e-05
2.07244e-05
-5.4335e-06
-4.8707e-05
-0.000311238
-0.000597549
-0.000863119
-0.00110714
-0.00126053
-0.00138201
-0.00148571
-0.00159536
-0.0017029
-0.00180686
-0.00196185
-0.00218704
-0.00247832
-0.00279343
-0.00305143
-0.00323386
-0.00327034
-0.00315117
-0.00272966
-0.000868381
0.00371645
0.0706914
0.278867
0.0921248
-0.0500016
-0.110106
-0.137994
-0.146854
-0.149985
-0.14499
-0.131502
-0.121735
-0.109129
-0.102027
-0.0928322
-0.0882715
-0.0798881
-0.072882
-0.0643576
-0.0578146
-0.0498616
-0.0436952
-0.0367616
-0.0327214
-0.0265563
-0.0205773
-0.0149501
-0.0089672
-0.00485636
-0.00115526
0.00263608
0.0058228
0.00964065
0.0137697
0.0179293
0.0226313
0.0286668
0.0364215
0.0437343
0.0522064
0.0632046
0.0751496
0.0820072
0.0919101
0.10129
0.112829
0.117686
0.127951
0.150419
0.178406
0.192612
0.223213
0.243807
0.268439
0.26827
0.260804
0.260006
0.234641
0.231851
0.207271
0.192575
0.181719
0.173213
0.171781
0.17022
0.171028
0.163916
0.156544
0.149607
0.145563
0.141792
0.137863
0.128317
0.131745
0.118552
0.131042
0.109725
0.116308
0.087547
0.0818832
0.0650098
0.0480599
-0.0218606
-0.00428084
0.000124025
-0.00105897
-0.00204162
-0.00198685
-0.00139142
-0.000531784
0.000260997
0.000643209
0.000839107
0.00126991
0.00122455
0.00106522
0.000715214
0.000681082
0.000645587
0.000689297
0.000789182
0.000961721
0.00121902
0.0014634
0.00165972
0.00178599
0.0018598
0.00187226
0.0018329
0.0017412
0.0016414
0.00153844
0.00142214
0.00145611
0.00150959
0.00169442
0.00213258
0.00270858
0.00524324
0.00945835
0.0757303
0.296835
0.041725
-0.119063
-0.169237
-0.187533
-0.191103
-0.182942
-0.171093
-0.154404
-0.138996
-0.124954
-0.114928
-0.104018
-0.0964074
-0.0877764
-0.0808338
-0.0725449
-0.0660865
-0.0573639
-0.050739
-0.042591
-0.0372696
-0.0302459
-0.0245271
-0.0181247
-0.0121184
-0.00808683
-0.00398212
0.000483915
0.00397394
0.0082593
0.0118789
0.0162966
0.021324
0.0287548
0.0369466
0.0459834
0.0577453
0.0678254
0.0794199
0.0878309
0.0988994
0.103831
0.115477
0.130455
0.15677
0.177415
0.212381
0.239331
0.279131
0.286879
0.316478
0.340119
0.330385
0.337101
0.317955
0.311859
0.277259
0.259378
0.237909
0.225257
0.21662
0.209394
0.206671
0.197706
0.187253
0.181221
0.172279
0.172012
0.162177
0.153754
0.151383
0.13384
0.142143
0.116662
0.124878
0.0890538
0.0899057
0.0624898
0.0507886
0.0115001
0.00746825
0.00460387
0.00127487
-6.39308e-05
-0.000208851
-0.000256887
-0.000860233
-0.00100146
-0.00116791
-0.00139238
-0.00172308
-0.00186575
-0.00185479
-0.00162194
-0.00146769
-0.00134487
-0.00122064
-0.00131393
-0.00154399
-0.001665
-0.00166955
-0.00170716
-0.00178379
-0.00189962
-0.00205668
-0.00223101
-0.00244968
-0.00271759
-0.00307002
-0.00344275
-0.00375086
-0.00405233
-0.0041688
-0.00370262
-0.00357499
-0.00208179
0.00395117
0.0391128
0.179816
0.101158
-0.0820427
-0.151006
-0.174189
-0.181799
-0.176229
-0.164727
-0.151516
-0.140538
-0.127807
-0.118304
-0.106815
-0.0978417
-0.0883635
-0.0818917
-0.0740137
-0.0679637
-0.0595713
-0.0532686
-0.045483
-0.0392938
-0.0322544
-0.0278099
-0.021599
-0.0170207
-0.0121658
-0.00601085
-0.00129353
0.00386387
0.00827954
0.0130555
0.0180048
0.023747
0.0312112
0.040565
0.0513458
0.0633628
0.0747127
0.0871156
0.097906
0.110512
0.118614
0.133471
0.150338
0.175855
0.205994
0.247866
0.275262
0.316074
0.325957
0.356886
0.382302
0.371779
0.384719
0.363619
0.355636
0.326228
0.314611
0.297865
0.277948
0.260792
0.247588
0.239321
0.229266
0.217416
0.212627
0.206128
0.205481
0.193716
0.186178
0.178192
0.156537
0.157836
0.129036
0.136044
0.0958357
0.100357
0.0626324
0.054772
-0.00509921
-0.00173217
0.00115842
0.000499173
-0.000812153
-0.00140643
-0.0010715
-0.000248282
0.000650431
0.000956263
0.0017572
0.00245069
0.00301013
0.00291361
0.00213254
0.00178527
0.00141169
0.00117767
0.00106048
0.00110049
0.00124875
0.00140146
0.00153431
0.00156685
0.00158713
0.00146813
0.00125345
0.000954383
0.000692163
0.000427431
0.000185735
0.000426978
-0.000170607
-0.000219893
-0.000939329
-0.00209944
-0.00398514
-0.00266491
-0.0166051
-0.0218164
-0.0323182
-0.101069
-0.149962
-0.173911
-0.182724
-0.176589
-0.166504
-0.155128
-0.142763
-0.13278
-0.121283
-0.111588
-0.102395
-0.093972
-0.0868243
-0.0801766
-0.0728763
-0.0651072
-0.0577439
-0.0498771
-0.0444326
-0.0371384
-0.0322586
-0.0256765
-0.0211297
-0.0152255
-0.0106387
-0.00409766
0.000442268
0.00645793
0.0113592
0.0173393
0.024405
0.0326758
0.0435969
0.0547956
0.0680786
0.0799805
0.0937731
0.104415
0.117505
0.127989
0.145473
0.165541
0.201445
0.237846
0.283035
0.318755
0.361781
0.378344
0.406473
0.433067
0.42596
0.440421
0.423245
0.420379
0.397108
0.39113
0.37229
0.353111
0.323534
0.301753
0.282445
0.263847
0.249248
0.245867
0.241286
0.242737
0.230474
0.228949
0.210153
0.187691
0.178934
0.145508
0.151405
0.106848
0.113535
0.0658082
0.0594983
-0.00228334
0.00216463
0.00316696
0.000332525
-0.00131464
-0.00126233
-0.00110997
-0.00149911
-0.00160901
-0.00172616
-0.00173597
-0.00187475
-0.00253585
-0.00239914
-0.00215117
-0.00183214
-0.00152347
-0.00119364
-0.00102225
-0.001005
-0.00106391
-0.000960315
-0.000943493
-0.000901722
-0.00102616
-0.00129935
-0.00140738
-0.00146077
-0.00167464
-0.00201339
-0.00194905
-0.00238372
-0.00319893
-0.00319504
-0.00406754
-0.00599086
-0.00916974
-0.0133592
-0.0285968
-0.149372
-0.0890716
-0.0702178
-0.106882
-0.133568
-0.147129
-0.153485
-0.147302
-0.140095
-0.131043
-0.12451
-0.114216
-0.108403
-0.10019
-0.0961993
-0.0878577
-0.0818027
-0.0730704
-0.0677022
-0.058754
-0.0540984
-0.0482301
-0.0412477
-0.0352856
-0.0283659
-0.0232055
-0.0167841
-0.0120806
-0.00644218
-0.00205424
0.00378638
0.00941983
0.0168487
0.0252231
0.0352412
0.0471435
0.0600718
0.0746979
0.0881576
0.103081
0.113831
0.128047
0.139203
0.15772
0.183397
0.224702
0.26714
0.317733
0.349054
0.398268
0.431244
0.451227
0.477344
0.472189
0.489609
0.477854
0.477084
0.458311
0.454973
0.437978
0.417765
0.383212
0.350253
0.317531
0.292454
0.277802
0.275353
0.276232
0.27795
0.270181
0.265812
0.250988
0.229599
0.21194
0.171417
0.172479
0.122925
0.128715
0.0722371
0.0679611
0.0127906
0.00161045
0.00166316
0.00120622
0.000179888
-0.000840665
-0.00116229
-0.000688422
2.90964e-05
0.000750394
0.0013692
0.00220457
0.00275464
0.00243547
0.00202413
0.00160498
0.00109397
0.000638874
0.000338712
0.000232616
0.000279141
0.000295581
0.000425195
0.000380956
0.000107149
-0.00023373
-0.000784136
-0.00142206
-0.00190144
-0.00241584
-0.0028781
-0.0027112
-0.00272572
-0.00348319
-0.00415399
-0.00415008
-0.00393494
-0.00421654
-0.0135878
-0.0877122
-0.150103
-0.155211
-0.186006
-0.204486
-0.21612
-0.218081
-0.208319
-0.194486
-0.180679
-0.165655
-0.147932
-0.136856
-0.125414
-0.119436
-0.107634
-0.0989416
-0.0877822
-0.0815432
-0.0720665
-0.0658188
-0.0563444
-0.049104
-0.0406945
-0.0336441
-0.0274901
-0.020641
-0.0156673
-0.00906841
-0.00394432
0.00262819
0.00912392
0.0170897
0.0259239
0.0368007
0.0495082
0.0634347
0.078922
0.0940552
0.110071
0.121786
0.137027
0.149094
0.173407
0.204961
0.25281
0.293623
0.354324
0.390109
0.427894
0.472159
0.48756
0.514247
0.515243
0.536108
0.530029
0.532588
0.516216
0.514809
0.495166
0.474389
0.435552
0.402808
0.363341
0.330798
0.310897
0.307095
0.307609
0.311938
0.309238
0.309492
0.295286
0.28064
0.251927
0.206399
0.198423
0.142572
0.145812
0.0833704
0.0822669
-0.0149889
-0.00342456
0.00106036
0.000730395
-0.00092336
-0.00150738
-0.0012403
-0.00101707
-0.00108064
-0.00110688
-0.000681082
-0.000863454
-0.00119781
-0.00115272
-0.00103924
-0.000878241
-0.000602741
-0.000100652
0.000245372
0.000400979
0.000272774
0.000643684
0.00079631
0.000653265
0.000712513
0.000838404
0.00144803
0.000748173
0.00030985
-0.000293516
-0.000395691
-0.00030916
0.000275895
-0.00067437
-0.00113212
-0.00157791
-0.00036047
-0.00387355
-0.024242
-0.122312
-0.183448
-0.184502
-0.195145
-0.211519
-0.220122
-0.220909
-0.214266
-0.205325
-0.197074
-0.187463
-0.172481
-0.163743
-0.149544
-0.142064
-0.127291
-0.117294
-0.103372
-0.0934251
-0.080832
-0.0727457
-0.060924
-0.0525468
-0.0421619
-0.0351063
-0.028086
-0.022966
-0.0176843
-0.0118291
-0.00655865
-0.000198513
0.00686841
0.0143749
0.0243803
0.0357571
0.0505102
0.0665325
0.0853193
0.10294
0.122394
0.136052
0.153704
0.169611
0.195915
0.234416
0.288537
0.334383
0.381776
0.433889
0.461784
0.501774
0.518647
0.548531
0.554674
0.579306
0.582865
0.587122
0.574846
0.576767
0.556833
0.539899
0.502576
0.466271
0.417385
0.375979
0.350543
0.342777
0.342898
0.345833
0.346084
0.345617
0.340146
0.327833
0.299579
0.251613
0.234425
0.171429
0.169732
0.0998839
0.100053
0.0294234
0.00412787
0.00030801
0.000130747
-0.000216543
-0.00113757
-0.00194144
-0.0020101
-0.00136431
-0.000654496
3.17566e-05
0.00028502
0.000698382
0.000777746
0.000698513
0.000741283
0.000371055
-0.000300643
-0.000775377
-0.000993544
-0.00083589
-0.00234638
-0.00253095
-0.00198942
-0.00166534
-0.00199666
-0.00246492
-0.00245886
-0.00282843
-0.00300228
-0.00363964
-0.00483967
-0.0056537
-0.00717686
-0.00818355
-0.00941582
-0.0120976
-0.0162682
-0.0502796
-0.208652
-0.184726
-0.187559
-0.203127
-0.222008
-0.229972
-0.23346
-0.23137
-0.22434
-0.220448
-0.210264
-0.194563
-0.187613
-0.172993
-0.163764
-0.147841
-0.136227
-0.119794
-0.109119
-0.0930983
-0.081768
-0.0687586
-0.059562
-0.0501569
-0.0425527
-0.0330151
-0.0257404
-0.0172925
-0.0105572
-0.00358385
0.00371752
0.0112341
0.0209686
0.0312818
0.0443113
0.0582727
0.0746046
0.0918405
0.111434
0.13124
0.151343
0.168363
0.192971
0.222544
0.268506
0.322273
0.381393
0.424564
0.476782
0.501786
0.541125
0.556576
0.586435
0.590543
0.616544
0.630085
0.639213
0.627213
0.630115
0.610949
0.593664
0.558579
0.520326
0.460181
0.410458
0.379515
0.365593
0.362879
0.364185
0.36607
0.370284
0.36897
0.360422
0.339987
0.301618
0.275911
0.207626
0.199432
0.118219
0.119693
-0.0227764
-0.0055685
-5.58878e-05
0.0016661
0.000747977
-0.000107307
-0.000183616
9.54551e-05
0.00039188
0.000359845
0.000715981
0.000846773
0.000698713
0.000514223
0.00053261
0.000463871
0.000521048
0.00115318
0.00157847
0.00188794
0.00132561
0.00148087
0.00127201
0.000918766
0.000366891
0.000466895
0.0001855
0.00021882
9.82332e-05
-7.1319e-05
-0.00030375
-0.000504628
-0.000359678
-0.000670508
-0.00140705
-0.00286673
-0.00414565
-0.00861665
-0.0345747
-0.172707
-0.239078
-0.271771
-0.261878
-0.264832
-0.267641
-0.266884
-0.26149
-0.252467
-0.245779
-0.227964
-0.2113
-0.198867
-0.182422
-0.174839
-0.159408
-0.147315
-0.130701
-0.117707
-0.101354
-0.0886955
-0.0743395
-0.0641153
-0.0530493
-0.0447044
-0.0358346
-0.02909
-0.0219694
-0.0164974
-0.00941635
-0.00321312
0.00575091
0.0153408
0.0281436
0.0424701
0.0604388
0.0798901
0.101287
0.123758
0.145487
0.170577
0.190277
0.223827
0.256704
0.311614
0.36221
0.422146
0.461769
0.511194
0.537727
0.577621
0.593108
0.622074
0.627988
0.658391
0.672694
0.684954
0.671431
0.674797
0.655655
0.640887
0.610833
0.570821
0.50876
0.454279
0.416959
0.394033
0.384528
0.383551
0.387815
0.396029
0.402384
0.401249
0.388946
0.359548
0.324848
0.25121
0.235113
0.139704
0.140831
0.0367168
0.00548105
-0.00231363
-0.00233526
-0.00186632
-0.00204424
-0.00260433
-0.00263678
-0.00306528
-0.00211433
-0.00219488
-0.00203469
-0.00109327
-0.000505828
-0.000714681
-0.00106104
-0.000777234
-0.000369076
-0.000351832
-0.000450131
-0.000822229
-0.000805197
-0.00113539
-0.00170331
-0.00204466
-0.00229406
-0.00269348
-0.00289842
-0.00309284
-0.00342884
-0.00385307
-0.00466468
-0.00580599
-0.00737006
-0.00820224
-0.00974238
-0.0112115
-0.0145743
-0.0328502
-0.147127
-0.272892
-0.335623
-0.31661
-0.307555
-0.30403
-0.308261
-0.304713
-0.294185
-0.286398
-0.263708
-0.245803
-0.225192
-0.204682
-0.192037
-0.172303
-0.15868
-0.140565
-0.126923
-0.110035
-0.0971704
-0.0814367
-0.070747
-0.057716
-0.0483069
-0.0373901
-0.0287421
-0.0197406
-0.0116133
-0.00381815
0.00435386
0.0125314
0.0223569
0.0337372
0.0480875
0.064488
0.0841888
0.104531
0.128504
0.156025
0.188089
0.215994
0.26169
0.303079
0.363947
0.411317
0.469787
0.504983
0.551633
0.576005
0.614884
0.626651
0.656712
0.664853
0.697204
0.714094
0.732579
0.724624
0.726367
0.709337
0.696145
0.668216
0.630384
0.574529
0.515018
0.461419
0.4247
0.406115
0.401733
0.406763
0.418323
0.429813
0.433437
0.429652
0.40872
0.369793
0.295439
0.273752
0.163132
0.164642
-0.0226065
-0.00332805
0.000742963
0.0024777
0.001822
0.000872304
0.0011517
0.00134634
0.00151184
0.00136615
0.00109555
0.000361578
0.000428998
0.00059672
0.000698376
0.000632886
0.000760678
0.000662202
0.000591092
0.000574592
0.000821268
0.00090028
0.000815317
0.000321752
-0.000157795
-0.000400175
-0.000689992
-0.00115072
-0.00122351
-0.00134162
-0.00155598
-0.00211767
-0.00255807
-0.00309214
-0.00313652
-0.00365029
-0.0025017
-0.00163874
-0.0103305
-0.0548997
-0.329838
-0.43362
-0.41927
-0.390322
-0.37798
-0.367703
-0.350572
-0.335383
-0.321592
-0.296674
-0.280387
-0.253414
-0.234889
-0.211458
-0.19046
-0.175332
-0.15426
-0.138407
-0.119455
-0.103449
-0.0874203
-0.0732007
-0.0607619
-0.0502762
-0.039969
-0.0315792
-0.0230765
-0.0160267
-0.00835158
-0.00152615
0.00740968
0.0175951
0.031028
0.0487367
0.0690671
0.0946764
0.119268
0.152366
0.182311
0.223392
0.256012
0.310659
0.355186
0.417953
0.457975
0.512443
0.545323
0.5908
0.616668
0.654632
0.663575
0.693162
0.701638
0.732779
0.747901
0.769007
0.76885
0.767866
0.756394
0.743647
0.717183
0.681423
0.630998
0.569955
0.501144
0.451708
0.424828
0.416319
0.421764
0.434865
0.449683
0.45851
0.462519
0.447051
0.414813
0.349067
0.318663
0.192485
0.19103
0.0324956
0.00574619
-0.0037477
-0.00424996
-0.00314516
-0.00265287
-0.00312093
-0.00313487
-0.00257527
-0.00220847
-0.00164676
-0.00115072
-0.000740747
-0.000458887
-0.000195322
-0.000183737
-0.000443236
-0.000452393
-0.00031423
-0.000366682
-0.000483838
-0.000569573
-0.000707623
-0.000978363
-0.00138233
-0.00166998
-0.00220879
-0.00260775
-0.00271701
-0.00298259
-0.00311815
-0.00355471
-0.00369801
-0.0036339
-0.0028845
-0.00235246
-0.000363561
-0.00212592
-0.0156342
-0.0944407
-0.423597
-0.461499
-0.446713
-0.437517
-0.422664
-0.413978
-0.391107
-0.371659
-0.348239
-0.31928
-0.298593
-0.270527
-0.248834
-0.22056
-0.197538
-0.175481
-0.155764
-0.139376
-0.121328
-0.104769
-0.0865787
-0.069975
-0.0584541
-0.0470799
-0.0383098
-0.0278853
-0.0195171
-0.0101344
-0.00299355
0.00565428
0.0147452
0.0253402
0.0389386
0.056737
0.077907
0.103247
0.132263
0.167777
0.203421
0.253195
0.294743
0.359667
0.40916
0.472997
0.507029
0.558745
0.588517
0.631533
0.65729
0.695063
0.708917
0.741553
0.751012
0.779074
0.792899
0.813541
0.819433
0.813867
0.803592
0.78877
0.763975
0.731401
0.685778
0.623667
0.542611
0.48281
0.447761
0.433029
0.437086
0.450648
0.469288
0.484405
0.494113
0.485258
0.461561
0.404392
0.359161
0.220516
0.217123
-0.0160927
0.000283898
0.00263399
0.00266277
0.00176611
0.00146593
0.000886383
0.00065697
0.000423733
0.000737937
0.000623182
0.000506932
0.000377603
0.000325868
0.000376992
0.000303255
0.000146679
2.5445e-05
0.000170596
0.000165964
8.35163e-05
0.000167987
-6.30074e-05
-0.000323127
-0.000605101
-0.00108617
-0.00159043
-0.00203601
-0.00261605
-0.00323879
-0.00418952
-0.00439989
-0.0047779
-0.00481483
-0.00537694
-0.00549255
-0.00645072
-0.0121512
-0.052454
-0.283895
-0.547954
-0.505251
-0.447239
-0.448828
-0.442021
-0.431705
-0.413021
-0.392517
-0.366077
-0.335919
-0.311355
-0.283076
-0.260527
-0.233639
-0.210246
-0.182482
-0.157231
-0.140815
-0.123579
-0.108178
-0.0901259
-0.0746876
-0.061189
-0.0510117
-0.0409086
-0.0320198
-0.0228552
-0.0150137
-0.00652414
0.00262323
0.0129828
0.0263109
0.0412435
0.0605223
0.0825304
0.110942
0.14579
0.19169
0.242329
0.31096
0.364417
0.441788
0.49217
0.558589
0.590427
0.63941
0.662777
0.703598
0.729346
0.763956
0.779267
0.802436
0.802995
0.825899
0.842414
0.860403
0.865163
0.857768
0.849466
0.836271
0.813845
0.781896
0.737133
0.674033
0.587181
0.517803
0.473342
0.449836
0.451186
0.464397
0.485652
0.506683
0.521795
0.520434
0.503155
0.454424
0.399492
0.254832
0.249601
0.0221858
0.00534654
-0.00354306
-0.00378321
-0.00303306
-0.00221669
-0.00204106
-0.00223007
-0.00217251
-0.00165166
-0.00115964
-0.000717179
-0.000480849
-0.000367022
-0.000182138
-0.000194013
-0.000267477
-0.000323363
-0.000144685
-0.000279385
-0.000476714
-0.000501459
-0.000660931
-0.00107601
-0.00121681
-0.00157011
-0.00194207
-0.00257547
-0.00300775
-0.00359716
-0.00424143
-0.00427123
-0.00448223
-0.00445959
-0.00483688
-0.00498551
-0.00687432
-0.0186829
-0.103438
-0.507189
-0.653316
-0.603366
-0.518082
-0.493701
-0.472785
-0.453223
-0.430803
-0.406906
-0.379439
-0.349176
-0.323481
-0.294158
-0.270199
-0.242147
-0.217472
-0.188436
-0.166212
-0.14182
-0.121132
-0.105637
-0.0901453
-0.0765291
-0.0620028
-0.0508701
-0.0390203
-0.0299186
-0.0198057
-0.0122063
-0.00251467
0.00664975
0.0187993
0.0316275
0.0488831
0.068388
0.0934781
0.124587
0.169176
0.229132
0.304073
0.393772
0.45779
0.526264
0.56548
0.620465
0.651788
0.689848
0.707717
0.740027
0.761886
0.800511
0.839593
0.858725
0.85568
0.864454
0.872991
0.881392
0.889046
0.886111
0.879906
0.868366
0.853899
0.826729
0.783892
0.718855
0.631047
0.55222
0.497237
0.467491
0.466959
0.480216
0.502326
0.528855
0.547783
0.552229
0.539575
0.497684
0.437015
0.294911
0.287141
-0.00834752
0.00307396
0.003533
0.00188807
0.000861582
0.000561179
0.000295028
-0.000149759
-0.00039935
-0.000195612
-0.000138098
5.37412e-05
2.07046e-05
-7.46986e-05
-7.21297e-05
-8.14787e-07
-8.69237e-05
-0.000249317
-0.000198143
-0.000152044
-0.000347437
-0.000356177
-0.000648423
-0.000867691
-0.00129434
-0.00168889
-0.00232503
-0.00301325
-0.00391978
-0.00460518
-0.00557563
-0.006161
-0.00678252
-0.00769681
-0.00850359
-0.00937041
-0.0124771
-0.0283629
-0.153515
-0.624891
-0.732385
-0.706159
-0.625771
-0.554396
-0.525173
-0.487208
-0.465348
-0.431895
-0.403141
-0.369644
-0.343352
-0.311355
-0.286013
-0.254855
-0.229646
-0.19957
-0.173443
-0.14596
-0.123129
-0.104673
-0.0895088
-0.0766513
-0.0637464
-0.0523977
-0.0425169
-0.0322364
-0.0235892
-0.0141721
-0.00587748
0.00503412
0.0171383
0.0309304
0.0509715
0.0708096
0.102428
0.140033
0.203019
0.294688
0.394656
0.503205
0.593462
0.640252
0.664128
0.711262
0.743343
0.776741
0.794019
0.825938
0.837383
0.849802
0.86749
0.89081
0.915197
0.920158
0.920586
0.923692
0.929026
0.930097
0.923761
0.908901
0.88649
0.85766
0.818108
0.755974
0.673149
0.586122
0.523844
0.487819
0.484527
0.496964
0.518719
0.546991
0.569013
0.579837
0.570587
0.537067
0.475005
0.341771
0.329871
0.0121962
0.00478237
-0.00117729
-0.00225305
-0.0020235
-0.00162146
-0.00142181
-0.00149102
-0.00145287
-0.00117054
-0.000781434
-0.000600589
-0.000414946
-0.000319195
-0.000295868
-0.000201764
-8.88489e-05
-0.000195764
-0.000399856
-0.000398117
-0.000612683
-0.000701262
-0.00122557
-0.00148369
-0.00154465
-0.00204903
-0.00277445
-0.00382211
-0.0047184
-0.0052745
-0.00556123
-0.00585199
-0.00614118
-0.00564322
-0.00548879
-0.00456421
-0.00827649
-0.0307549
-0.223483
-0.748969
-0.792341
-0.778457
-0.721487
-0.646009
-0.601329
-0.544626
-0.506793
-0.461767
-0.431383
-0.395293
-0.368493
-0.332888
-0.303325
-0.26791
-0.238181
-0.205547
-0.178407
-0.150138
-0.125811
-0.104545
-0.0867384
-0.0762182
-0.0630513
-0.0528004
-0.0419291
-0.0321537
-0.0229235
-0.0144766
-0.00552631
0.00434209
0.0176608
0.0344736
0.0533602
0.0799413
0.117077
0.170876
0.269198
0.387304
0.530774
0.597352
0.67996
0.748875
0.783826
0.800693
0.83603
0.866797
0.879116
0.90454
0.920605
0.92276
0.928134
0.932784
0.93129
0.942147
0.942857
0.939879
0.946269
0.951125
0.955646
0.94169
0.920795
0.891701
0.850401
0.790614
0.71014
0.618414
0.55026
0.508867
0.500842
0.511617
0.531529
0.560058
0.585601
0.601
0.597366
0.571978
0.511241
0.388085
0.368967
-0.0028082
0.00410638
0.00306975
0.00171297
0.000473338
-0.000202063
-0.000436702
-0.000670446
-0.000776141
-0.000703554
-0.000507928
-0.000447773
-0.000307829
-0.000198668
-0.000338174
-0.000348524
-0.000123033
-0.000242167
-0.00055987
-0.000520297
-0.000729167
-0.000960729
-0.00129241
-0.00163061
-0.00165138
-0.00249827
-0.00326866
-0.00397653
-0.00501213
-0.00588024
-0.00640821
-0.00717313
-0.00813683
-0.00903851
-0.00969657
-0.0108399
-0.0184875
-0.0592483
-0.351218
-0.819389
-0.835418
-0.830214
-0.80156
-0.74764
-0.695195
-0.620616
-0.565618
-0.505973
-0.470064
-0.427693
-0.397715
-0.355637
-0.322447
-0.280282
-0.248302
-0.212717
-0.184127
-0.153248
-0.127827
-0.104846
-0.0881253
-0.074389
-0.0638341
-0.0526047
-0.0415493
-0.030501
-0.0203757
-0.0121426
-0.00419761
0.0060678
0.0197995
0.0382501
0.0632385
0.0979859
0.160272
0.267319
0.412842
0.548237
0.694237
0.778039
0.80833
0.85102
0.913396
0.904854
0.898337
0.913781
0.931527
0.943478
0.965037
0.985055
0.984353
0.983331
0.976561
0.986486
0.986796
0.979751
0.984595
0.979525
0.97327
0.960181
0.941861
0.913973
0.877775
0.824728
0.747603
0.649485
0.575563
0.53045
0.517201
0.526653
0.544396
0.573155
0.601419
0.619541
0.620388
0.604075
0.545823
0.435003
0.406407
0.00600796
0.00367651
0.00137409
-0.000268394
-0.000949124
-0.00105224
-0.00109753
-0.00109554
-0.00111528
-0.000957922
-0.000730092
-0.000694178
-0.000548067
-0.000313848
-0.000260048
-0.000421498
-0.000317979
-0.000103522
-0.000383429
-0.000598594
-0.000836898
-0.00132735
-0.00168964
-0.00241358
-0.00266373
-0.00336059
-0.00404304
-0.00501327
-0.00619752
-0.00683277
-0.00735595
-0.00813681
-0.00900245
-0.00951683
-0.010511
-0.0129938
-0.0224202
-0.0835935
-0.47425
-0.830676
-0.866094
-0.86132
-0.839875
-0.806716
-0.763551
-0.694001
-0.637146
-0.563714
-0.51861
-0.460489
-0.432906
-0.388012
-0.351749
-0.305322
-0.269012
-0.228623
-0.195296
-0.161698
-0.133945
-0.107019
-0.0885038
-0.0751496
-0.0656306
-0.0541565
-0.0420257
-0.0293038
-0.0171103
-0.0123657
-0.00469717
0.00742425
0.0283839
0.0600991
0.107329
0.191257
0.315999
0.475253
0.657176
0.741676
0.810056
0.899396
0.946741
0.979201
1.0016
1.0214
1.00022
1.00563
1.0188
1.01939
1.00981
1.0038
1.00637
1.00274
0.99571
1.00447
1.00546
1.00636
1.0095
1.00596
1.0006
0.986988
0.968422
0.940079
0.903473
0.850572
0.774283
0.675705
0.598604
0.553275
0.533963
0.541474
0.557008
0.585146
0.614851
0.636391
0.642334
0.634376
0.577463
0.479458
0.439269
-0.000370498
0.00354774
0.00340466
0.00187516
0.000534602
-0.000434729
-0.000771242
-0.000911516
-0.000987343
-0.000906891
-0.000712721
-0.000671425
-0.000669652
-0.000401534
-0.000283029
-0.000413702
-0.000500906
-0.000281202
-0.000486085
-0.000930471
-0.00120073
-0.00162219
-0.00215087
-0.00293159
-0.00322653
-0.00415671
-0.00514466
-0.00573584
-0.00638032
-0.00766053
-0.00836798
-0.00869135
-0.00893269
-0.00942643
-0.00971901
-0.0120634
-0.02487
-0.122929
-0.594889
-0.839534
-0.873364
-0.877812
-0.873655
-0.864034
-0.844221
-0.803616
-0.76078
-0.685573
-0.62875
-0.548121