/*--------------------------------*- C++ -*----------------------------------*\
| =========                 |                                                 |
| \\      /  F ield         | OpenFOAM: The Open Source CFD Toolbox           |
|  \\    /   O peration     | Version:  2.2.x                                 |
|   \\  /    A nd           | Web:      www.OpenFOAM.org                      |
|    \\/     M anipulation  |                                                 |
\*---------------------------------------------------------------------------*/
FoamFile
{
    version     2.0;
    format      ascii;
    class       volScalarField;
    location    "2.4";
    object      T;
}
// * * * * * * * * * * * * * * * * * * * * * * * * * * * * * * * * * * * * * //

dimensions      [0 0 0 1 0 0 0];

internalField   nonuniform List<scalar> 
14161
(
0.93387
0.960566
0.951901
0.949497
0.946139
0.945147
0.945238
0.944525
0.942644
0.93873
0.93467
0.930864
0.928155
0.926161
0.925399
0.923832
0.923155
0.922006
0.920992
0.920368
0.919926
0.919795
0.919941
0.920474
0.921133
0.921819
0.922713
0.923783
0.925221
0.926922
0.928572
0.930263
0.931277
0.931651
0.927274
0.913808
0.879463
0.775637
0.650677
1.30464
2.48521
2.43533
2.41687
2.42214
2.43172
2.43943
2.44343
2.4439
2.44784
2.44752
2.44303
2.43875
2.43453
2.42904
2.42204
2.41486
2.40845
2.40174
2.39568
2.38935
2.38436
2.38383
2.38607
2.39353
2.40341
2.41424
2.42516
2.4376
2.44756
2.45345
2.45766
2.46086
2.46647
2.46725
2.46074
2.46219
2.47211
2.477
2.47711
2.48683
2.50216
2.50945
2.50708
2.51026
2.51803
2.5116
2.49804
2.49529
2.49397
2.48209
2.47248
2.4709
2.47111
2.46765
2.46504
2.46571
2.47984
2.49942
2.52525
2.56482
2.6121
2.66798
2.72768
2.78362
2.83232
2.87076
2.90959
2.94365
2.97273
2.99672
3.02721
3.05904
3.0948
3.12861
3.1556
3.17559
3.18022
3.1787
3.18026
1.1083
0.989442
0.974229
0.9639
0.958261
0.951871
0.948137
0.94827
0.948332
0.947681
0.950126
0.95439
0.954694
0.94955
0.944974
0.940124
0.934907
0.931121
0.929723
0.928025
0.927216
0.92795
0.929044
0.93054
0.931667
0.933233
0.935102
0.936792
0.938417
0.939706
0.941664
0.944469
0.947494
0.951478
0.956658
0.964663
0.973633
0.987497
1.01405
2.7976
2.98974
3.0166
3.01373
2.99887
2.98167
2.96519
2.95145
2.93123
2.91253
2.9035
2.8925
2.88215
2.86943
2.8561
2.84017
2.82671
2.81342
2.80226
2.79181
2.78258
2.77658
2.7694
2.76079
2.75467
2.74943
2.7469
2.74581
2.74347
2.74163
2.74553
2.75787
2.76013
2.75122
2.75381
2.78525
2.79553
2.77607
2.78309
2.83949
2.85878
2.84245
2.84438
2.89492
2.91166
2.88573
2.88511
2.93993
2.94866
2.9198
2.96283
3.00608
3.01923
3.03783
3.06342
3.07885
3.09172
3.10395
3.11287
3.12245
3.1336
3.14038
3.14575
3.14617
3.14363
3.1428
3.15012
3.16313
3.17632
3.18638
3.19561
3.20347
3.2114
3.21496
3.21794
3.21278
3.20379
3.19264
3.18416
3.1835
0.733531
0.949144
0.93094
0.926346
0.930462
0.936728
0.938094
0.931099
0.923883
0.913689
0.902284
0.889959
0.88242
0.885768
0.887297
0.891731
0.894793
0.896467
0.897133
0.896362
0.894461
0.893749
0.893243
0.892725
0.892028
0.891805
0.89241
0.893463
0.894502
0.895653
0.897072
0.89884
0.900482
0.90148
0.903522
0.908639
0.924588
0.94603
1.27949
2.94242
3.10099
3.08645
3.08701
3.05821
3.03739
3.00838
2.97983
2.95054
2.92978
2.90963
2.89031
2.8703
2.85255
2.83531
2.81762
2.80123
2.78699
2.77455
2.76293
2.75206
2.74279
2.73347
2.72481
2.71761
2.71056
2.70094
2.69419
2.69339
2.69986
2.70116
2.69484
2.69883
2.72623
2.73506
2.71331
2.71951
2.77744
2.80247
2.77381
2.78424
2.86882
2.90694
2.87814
2.88656
2.96982
3.00023
2.96048
2.99425
3.08912
3.11624
3.11063
3.18349
3.21844
3.2189
3.23098
3.23339
3.23174
3.23096
3.23438
3.23558
3.23138
3.2251
3.22113
3.22091
3.22977
3.24137
3.25445
3.2647
3.26734
3.26774
3.26141
3.25519
3.23958
3.22597
3.21638
3.20003
3.18794
3.18177
3.18292
1.24456
0.999078
0.99842
0.995526
0.990602
0.980636
0.975991
0.980821
0.98553
0.993602
1.00109
1.01129
1.01316
1.00682
0.995262
0.987178
0.979719
0.973922
0.97065
0.970226
0.971836
0.972529
0.974106
0.975929
0.978188
0.979555
0.981368
0.982292
0.984336
0.985351
0.987757
0.990083
0.993736
0.999263
1.00731
1.02067
1.0496
1.06529
1.81486
3.11314
3.21177
3.19744
3.16723
3.13066
3.10035
3.07059
3.0433
3.02087
3.00251
2.98044
2.95638
2.93242
2.90988
2.88931
2.86547
2.84371
2.82505
2.80714
2.78742
2.77039
2.75435
2.73816
2.72177
2.70884
2.69786
2.68879
2.68396
2.68147
2.67793
2.675
2.68713
2.69396
2.68335
2.68549
2.72497
2.74091
2.72687
2.74195
2.81224
2.83504
2.82758
2.85014
2.93888
2.96638
2.94385
2.96048
3.05601
3.07692
3.04552
3.11222
3.17583
3.18878
3.2083
3.23192
3.23426
3.23844
3.24604
3.24788
3.24959
3.25078
3.25166
3.24943
3.24656
3.24494
3.25304
3.26264
3.27387
3.28017
3.28155
3.27848
3.26873
3.25834
3.23982
3.22125
3.2076
3.19466
3.18947
3.1912
3.19157
0.500315
0.902226
0.893433
0.89418
0.895402
0.901428
0.903773
0.894826
0.884469
0.870905
0.853654
0.834099
0.823563
0.828969
0.8308
0.835963
0.841494
0.844752
0.845499
0.845121
0.842687
0.840801
0.839124
0.837861
0.837045
0.836537
0.837057
0.837991
0.839657
0.841488
0.843499
0.846139
0.847874
0.850534
0.854481
0.859023
0.87528
0.888887
1.12315
2.80281
2.94557
2.95199
2.95811
2.94512
2.94712
2.93977
2.93185
2.92121
2.90484
2.88593
2.86138
2.83509
2.80764
2.789
2.76386
2.73961
2.71483
2.6982
2.67867
2.66218
2.64343
2.62946
2.61579
2.60561
2.59801
2.59193
2.58704
2.58373
2.58231
2.58299
2.58686
2.58538
2.58763
2.60261
2.61128
2.60831
2.63214
2.66548
2.67576
2.68887
2.7381
2.78628
2.79869
2.81843
2.89736
2.9518
2.9449
2.96783
3.04751
3.08179
3.08282
3.14446
3.18152
3.18849
3.20691
3.22147
3.23442
3.24169
3.24669
3.24986
3.25367
3.25661
3.25799
3.25747
3.26474
3.27352
3.28385
3.28783
3.28667
3.2794
3.26757
3.2578
3.23687
3.21927
3.20749
3.19946
3.19756
3.19566
3.1934
1.34036
1.00738
1.02599
1.03616
1.03374
1.02656
1.02337
1.02929
1.03567
1.0444
1.05393
1.06784
1.07167
1.06449
1.05167
1.04233
1.03388
1.02758
1.02451
1.02336
1.02335
1.0239
1.02547
1.02696
1.02818
1.0291
1.02975
1.03006
1.03013
1.03011
1.0305
1.03133
1.0326
1.0343
1.03649
1.03904
1.04271
1.04081
1.0759
2.88676
3.03064
3.02406
3.01258
2.97504
2.95015
2.91661
2.88786
2.86222
2.83669
2.81764
2.79301
2.77237
2.74643
2.73164
2.7108
2.69053
2.66918
2.65634
2.64141
2.627
2.61176
2.60071
2.59148
2.581
2.57281
2.56758
2.56225
2.55675
2.55652
2.55288
2.5536
2.55281
2.55754
2.5538
2.55555
2.56258
2.57521
2.58518
2.59866
2.63626
2.65826
2.67142
2.70848
2.75163
2.78087
2.80159
2.86132
2.90966
2.92081
2.96668
3.00902
3.05664
3.09796
3.13656
3.16792
3.1855
3.21061
3.22459
3.23435
3.23923
3.24721
3.25305
3.25724
3.25917
3.2655
3.27484
3.28543
3.28795
3.28634
3.27762
3.26729
3.2592
3.24008
3.22385
3.21409
3.20723
3.20093
3.19619
3.19337
0.320104
0.853814
0.858766
0.865761
0.859679
0.865103
0.866687
0.859152
0.847493
0.83335
0.818205
0.798376
0.781586
0.783711
0.786452
0.791707
0.796452
0.799722
0.801661
0.802314
0.801894
0.800914
0.801838
0.802871
0.804035
0.805439
0.807371
0.80981
0.812936
0.81675
0.821364
0.824978
0.827337
0.828753
0.829286
0.829323
0.82781
0.825998
0.851207
2.25961
2.76706
2.81041
2.79037
2.77402
2.75472
2.7462
2.73313
2.72772
2.71307
2.71329
2.70056
2.69933
2.6817
2.67457
2.65719
2.65068
2.63259
2.62651
2.60937
2.60385
2.58836
2.58252
2.57
2.56055
2.54875
2.54221
2.53381
2.52991
2.52377
2.52641
2.52299
2.52641
2.52317
2.53051
2.52809
2.54159
2.53785
2.55964
2.56185
2.58201
2.59222
2.61942
2.63844
2.6658
2.68455
2.72724
2.75949
2.80739
2.8276
2.87664
2.89298
2.93636
2.98616
3.02672
3.07575
3.11967
3.16038
3.196
3.22197
3.23166
3.23749
3.24844
3.25607
3.2596
3.26425
3.27356
3.28458
3.28665
3.28375
3.27354
3.26776
3.26405
3.24857
3.23296
3.22067
3.20939
3.20122
3.19347
3.19037
1.39515
1.00812
1.04385
1.06586
1.06492
1.05689
1.04928
1.04881
1.05149
1.05705
1.06527
1.07649
1.08111
1.07362
1.06267
1.05383
1.04601
1.03854
1.03338
1.02998
1.02751
1.02581
1.02474
1.0239
1.02271
1.02139
1.02004
1.01822
1.01569
1.01266
1.00972
1.007
1.00413
1.00119
0.996285
0.989514
0.969149
0.953462
0.913529
1.39571
2.82084
2.78509
2.76662
2.75109
2.74415
2.73734
2.72438
2.72436
2.70553
2.70578
2.68744
2.68691
2.66794
2.6626
2.64564
2.63869
2.61964
2.61204
2.59542
2.58926
2.5735
2.56725
2.55395
2.54736
2.5369
2.52758
2.52657
2.52104
2.5227
2.51682
2.5193
2.51646
2.52051
2.52271
2.5214
2.53389
2.52879
2.54807
2.54512
2.56879
2.57678
2.60088
2.61189
2.63123
2.64004
2.67777
2.6835
2.72588
2.73115
2.78357
2.79444
2.83304
2.88256
2.92427
2.97665
3.0236
3.0713
3.11619
3.16421
3.19977
3.21582
3.23018
3.2436
3.25049
3.25749
3.2676
3.27853
3.2818
3.27837
3.26739
3.26685
3.26781
3.25832
3.24472
3.2269
3.21024
3.19948
3.18653
3.18259
0.218784
0.799844
0.80891
0.823375
0.821766
0.827122
0.831255
0.828979
0.820902
0.810794
0.798338
0.78546
0.77163
0.775218
0.77909
0.784343
0.790382
0.796501
0.801783
0.806244
0.810268
0.814308
0.818279
0.822137
0.825997
0.829923
0.834143
0.839245
0.845279
0.852302
0.860343
0.867642
0.872907
0.875012
0.872867
0.865478
0.851761
0.813614
0.790202
1.23757
2.51613
2.60158
2.62786
2.61398
2.6262
2.64053
2.64909
2.65241
2.65204
2.65487
2.64517
2.64636
2.63274
2.63055
2.62016
2.6186
2.60572
2.60349
2.59099
2.58749
2.57442
2.57143
2.55747
2.55399
2.54541
2.54538
2.53746
2.539
2.53223
2.53428
2.52942
2.53424
2.53013
2.53958
2.53287
2.54642
2.53899
2.5585
2.55487
2.58158
2.58434
2.61161
2.61776
2.64332
2.64057
2.67339
2.67266
2.71379
2.69197
2.73653
2.74316
2.77183
2.81551
2.84639
2.89275
2.93778
2.98729
3.03356
3.08571
3.13865
3.17922
3.20969
3.23408
3.24921
3.26099
3.26884
3.27487
3.27661
3.27399
3.26071
3.2625
3.26825
3.26636
3.25471
3.2316
3.20955
3.19607
3.17732
3.17211
1.40572
1.03135
1.07282
1.09055
1.09071
1.08048
1.06531
1.054
1.04911
1.04748
1.04854
1.05492
1.05496
1.04644
1.03711
1.02814
1.01811
1.00902
1.00079
0.993231
0.986607
0.981293
0.976815
0.972913
0.969428
0.966444
0.964027
0.960838
0.956223
0.950819
0.94536
0.940707
0.937817
0.934164
0.927871
0.92372
0.937926
0.959502
1.04451
2.40791
2.92318
2.92208
2.89566
2.87066
2.85565
2.82974
2.81456
2.7961
2.78652
2.7677
2.7508
2.73016
2.71844
2.69981
2.69043
2.67168
2.66007
2.64062
2.62862
2.61512
2.60238
2.59458
2.58012
2.57728
2.56663
2.56704
2.55994
2.56156
2.55502
2.55582
2.55096
2.5566
2.55012
2.5594
2.55093
2.56497
2.55645
2.57633
2.57095
2.59811
2.60165
2.6275
2.63348
2.66102
2.65536
2.6936
2.67434
2.72134
2.69622
2.72982
2.74733
2.74986
2.77958
2.80084
2.8453
2.88964
2.94103
2.97861
3.02663
3.07368
3.12026
3.15952
3.18774
3.2092
3.22865
3.24772
3.26513
3.27597
3.27566
3.25762
3.25451
3.26207
3.2693
3.26316
3.23743
3.2098
3.19001
3.16748
3.16353
0.206721
0.765473
0.775177
0.798493
0.809272
0.819092
0.828421
0.833238
0.832618
0.829982
0.825644
0.821236
0.814385
0.816822
0.825245
0.833243
0.839613
0.84547
0.8517
0.858383
0.864688
0.870395
0.875362
0.88008
0.885962
0.891291
0.895049
0.898857
0.903241
0.91124
0.923777
0.937838
0.947144
0.959356
0.978051
0.999337
1.01635
1.04408
1.07014
2.41797
2.87778
2.89712
2.87602
2.85263
2.84339
2.82476
2.81259
2.80399
2.79347
2.782
2.76958
2.74608
2.73593
2.71577
2.70014
2.67542
2.66701
2.64775
2.6382
2.61976
2.61308
2.6057
2.59766
2.59336
2.58431
2.58474
2.57678
2.57812
2.57408
2.57783
2.57134
2.57842
2.57261
2.58416
2.57657
2.59167
2.58149
2.60088
2.59476
2.61813
2.6189
2.64722
2.64911
2.68505
2.67174
2.71756
2.69047
2.71717
2.73163
2.72856
2.75219
2.74305
2.76334
2.77055
2.80667
2.84226
2.88917
2.92651
2.97365
3.02344
3.07593
3.11643
3.15296
3.17664
3.1979
3.21824
3.24026
3.25729
3.26492
3.2566
3.24864
3.25042
3.26508
3.26836
3.24619
3.21322
3.18777
3.16571
3.15497
1.38159
1.04892
1.07509
1.08607
1.08254
1.06417
1.04494
1.02814
1.01537
1.00991
1.00545
1.0011
0.997593
0.9906
0.983709
0.974458
0.964701
0.955522
0.946859
0.939153
0.931539
0.92471
0.919597
0.917085
0.911827
0.906046
0.905778
0.904996
0.904683
0.903158
0.896225
0.888556
0.88445
0.882089
0.87807
0.874888
0.863674
0.852986
0.850466
1.7443
2.89298
2.86708
2.85106
2.8274
2.81317
2.8036
2.79824
2.7879
2.78205
2.76924
2.76221
2.73963
2.73295
2.70963
2.69517
2.67082
2.66269
2.6416
2.63809
2.61827
2.61011
2.58652
2.57913
2.56104
2.55417
2.54631
2.53853
2.53757
2.53501
2.54234
2.53854
2.54698
2.54192
2.55329
2.54628
2.56592
2.55715
2.58442
2.57954
2.6134
2.61994
2.65722
2.66877
2.70778
2.69864
2.72768
2.74459
2.73813
2.77261
2.75966
2.77925
2.76146
2.78111
2.77482
2.80051
2.8263
2.86587
2.89657
2.94023
2.98532
3.03814
3.08428
3.13039
3.15706
3.18048
3.20371
3.22716
3.24532
3.25597
3.25632
3.245
3.23744
3.25233
3.26595
3.25284
3.21992
3.18643
3.16377
3.15018
0.292636
0.77477
0.792025
0.818453
0.836298
0.850168
0.864472
0.875406
0.880477
0.883887
0.885136
0.88261
0.881634
0.886806
0.89063
0.893564
0.895931
0.898979
0.902958
0.907718
0.914626
0.917408
0.920351
0.922059
0.925469
0.930229
0.932284
0.935711
0.938851
0.943919
0.949812
0.954994
0.961314
0.966733
0.972406
0.981996
0.985418
0.987522
1.01245
2.51394
2.90609
2.92154
2.90022
2.87361
2.85716
2.83888
2.82339
2.80769
2.79042
2.77238
2.76136
2.73501
2.72428
2.69422
2.67501
2.64667
2.63761
2.61351
2.61356
2.59718
2.59701
2.57707
2.56756
2.54391
2.53771
2.51991
2.5215
2.51674
2.51502
2.51637
2.50948
2.51716
2.51013
2.52267
2.5142
2.53151
2.52465
2.54985
2.5466
2.58221
2.59976
2.62975
2.66172
2.67071
2.70699
2.69066
2.72853
2.70728
2.74385
2.73503
2.76829
2.76642
2.7949
2.78988
2.80136
2.81217
2.84239
2.8669
2.90451
2.94256
2.99288
3.04873
3.10998
3.14492
3.16913
3.18886
3.20914
3.22442
3.23941
3.24692
3.24512
3.23322
3.23837
3.25177
3.25227
3.2284
3.18718
3.16388
3.14648
1.35316
1.03693
1.04937
1.04336
1.03514
1.01479
0.994926
0.97797
0.965016
0.95598
0.956293
0.95307
0.948486
0.943794
0.937707
0.929589
0.920538
0.91405
0.907838
0.90113
0.896325
0.892311
0.888762
0.887788
0.88566
0.884239
0.884581
0.886988
0.890607
0.893872
0.897695
0.901074
0.904857
0.908277
0.915597
0.929857
0.946982
0.969833
1.0106
2.67458
2.91557
2.92328
2.88182
2.8366
2.81471
2.79161
2.76955
2.7536
2.7344
2.71467
2.7092
2.68568
2.67497
2.64529
2.63447
2.60741
2.60218
2.57498
2.5709
2.5429
2.54268
2.5216
2.52389
2.51031
2.512
2.50168
2.50074
2.4879
2.48987
2.47959
2.48548
2.47606
2.48706
2.47586
2.49226
2.47756
2.49781
2.48642
2.51969
2.52477
2.5809
2.59851
2.65747
2.64626
2.69763
2.67298
2.71427
2.69362
2.72964
2.71667
2.74574
2.74022
2.76584
2.76475
2.77311
2.77561
2.8081
2.82696
2.86194
2.8948
2.94121
2.99751
3.0659
3.11822
3.15357
3.17686
3.19926
3.213
3.22581
3.23692
3.23718
3.22991
3.22712
3.23636
3.24603
3.23479
3.19011
3.16505
3.14405
0.457299
0.821754
0.845539
0.869137
0.889451
0.898534
0.910754
0.921541
0.92506
0.930829
0.928134
0.924909
0.921803
0.921068
0.920188
0.92125
0.922424
0.920428
0.920284
0.921472
0.921788
0.923019
0.922867
0.921561
0.921291
0.921923
0.92157
0.921297
0.921992
0.924795
0.927868
0.929288
0.929194
0.936205
0.944707
0.959665
0.973322
1.00535
1.04982
2.7223
2.95003
2.94015
2.90167
2.8614
2.83498
2.8001
2.76433
2.74204
2.71671
2.69481
2.66975
2.64148
2.62575
2.59054
2.58727
2.55938
2.55701
2.52695
2.52107
2.48523
2.48093
2.45446
2.45686
2.44094
2.44739
2.43561
2.44077
2.42817
2.4338
2.42402
2.43347
2.42441
2.43795
2.42559
2.44436
2.42812
2.45372
2.43367
2.4849
2.48884
2.55818
2.5732
2.64384
2.62858
2.68324
2.65938
2.70174
2.68735
2.72426
2.71412
2.74806
2.74454
2.76925
2.76565
2.76877
2.75663
2.78304
2.79438
2.82437
2.85617
2.9042
2.96289
3.03022
3.08726
3.13571
3.16371
3.18951
3.20663
3.22105
3.23409
3.23595
3.23123
3.22177
3.22245
3.23565
3.23572
3.19452
3.16707
3.14266
1.25813
1.0069
0.999067
0.989948
0.981421
0.966817
0.952359
0.938595
0.935145
0.929105
0.925247
0.924091
0.921559
0.918802
0.916058
0.91343
0.910519
0.907923
0.903489
0.898815
0.895079
0.892873
0.890901
0.890057
0.890084
0.891185
0.891875
0.894435
0.90073
0.906996
0.9141
0.921305
0.938239
0.956468
0.980604
1.00818
1.04318
1.09199
1.14965
2.7008
2.92336
2.87062
2.81852
2.78643
2.74269
2.70371
2.671
2.64664
2.61678
2.60536
2.57212
2.56287
2.54835
2.52654
2.52255
2.4902
2.4929
2.46193
2.46346
2.42675
2.42653
2.39931
2.40223
2.38367
2.38905
2.37431
2.38172
2.37002
2.37779
2.36936
2.37955
2.37052
2.38741
2.37425
2.39937
2.3813
2.42595
2.41956
2.49207
2.50094
2.58353
2.58848
2.66054
2.63464
2.6847
2.65706
2.69191
2.67287
2.70061
2.6916
2.73005
2.73462
2.76476
2.75959
2.77547
2.77507
2.7966
2.79919
2.81755
2.83911
2.88115
2.93563
3.00062
3.06353
3.12338
3.1579
3.18434
3.20402
3.21544
3.2226
3.22709
3.22419
3.21803
3.21357
3.22402
3.23123
3.19762
3.16922
3.14187
0.646803
0.88308
0.900329
0.92314
0.931059
0.940915
0.94307
0.949376
0.950439
0.949243
0.944201
0.939581
0.935051
0.931602
0.929113
0.926524
0.922974
0.918769
0.915073
0.912393
0.910458
0.908862
0.90736
0.906068
0.905594
0.904338
0.902682
0.903222
0.902189
0.901649
0.899857
0.897784
0.896501
0.895527
0.895397
0.891861
0.886881
0.875727
0.884524
1.34192
2.79563
2.70318
2.66499
2.62569
2.60598
2.58201
2.5685
2.56267
2.54248
2.54259
2.50401
2.50785
2.47854
2.48322
2.46127
2.44217
2.4409
2.40691
2.41193
2.37523
2.3722
2.36111
2.34659
2.34624
2.3268
2.33146
2.31893
2.32845
2.31603
2.32149
2.32149
2.31946
2.33534
2.31974
2.34482
2.31284
2.36719
2.35618
2.43785
2.4441
2.53176
2.51666
2.5859
2.55762
2.61408
2.59176
2.63108
2.61597
2.63739
2.63086
2.6749
2.68197
2.72056
2.7168
2.73745
2.74033
2.7557
2.76679
2.78624
2.80986
2.84518
2.89033
2.95101
3.02232
3.09766
3.1421
3.17033
3.19395
3.20471
3.21051
3.21475
3.21311
3.21005
3.20528
3.21283
3.22214
3.19927
3.17136
3.14011
1.1307
0.977222
0.957108
0.948125
0.946104
0.942225
0.936698
0.930824
0.926404
0.923868
0.92354
0.922859
0.921765
0.919798
0.917929
0.914858
0.911537
0.908439
0.90505
0.900734
0.897982
0.896099
0.894037
0.89262
0.892406
0.891691
0.892603
0.895493
0.898164
0.903431
0.909019
0.911656
0.917717
0.924211
0.929081
0.931446
0.925136
0.913768
0.959098
1.43478
2.65462
2.63795
2.6328
2.58525
2.54161
2.51802
2.50226
2.50574
2.48845
2.49996
2.45989
2.46912
2.4315
2.44184
2.40516
2.41612
2.3951
2.36648
2.38016
2.34174
2.34992
2.31427
2.33135
2.30609
2.31673
2.296
2.3069
2.29057
2.30196
2.28958
2.30622
2.29172
2.3158
2.29721
2.32623
2.29407
2.35269
2.3292
2.42118
2.42151
2.52441
2.50127
2.57395
2.53472
2.5901
2.57282
2.62121
2.61171
2.61787
2.60467
2.63657
2.65334
2.70647
2.71729
2.73042
2.72299
2.73239
2.74705
2.76633
2.78761
2.81969
2.86399
2.92097
2.99393
3.07421
3.12843
3.1589
3.18299
3.19625
3.2023
3.20562
3.20567
3.20202
3.19725
3.20252
3.21026
3.19842
3.1755
3.13872
0.792127
0.930706
0.936321
0.945017
0.948832
0.950563
0.949751
0.948004
0.944543
0.942833
0.939674
0.935706
0.931158
0.926868
0.923009
0.918854
0.914982
0.911517
0.908247
0.904177
0.901707
0.899302
0.896578
0.894891
0.894156
0.89257
0.890579
0.891193
0.889763
0.886859
0.882821
0.879385
0.876353
0.871065
0.863534
0.853357
0.835033
0.816181
0.918969
1.84957
2.51015
2.54481
2.57249
2.51321
2.48828
2.47014
2.45944
2.46673
2.45205
2.46839
2.42968
2.44212
2.39858
2.41015
2.36771
2.38858
2.34998
2.33938
2.35234
2.32103
2.32995
2.28921
2.31137
2.28904
2.30232
2.28149
2.29167
2.2759
2.28743
2.27268
2.28789
2.27006
2.29148
2.26656
2.29321
2.25664
2.32608
2.31108
2.42268
2.41757
2.53733
2.53236
2.61292
2.59613
2.63312
2.61739
2.65727
2.65744
2.68624
2.66059
2.64409
2.64109
2.67661
2.69951
2.72795
2.74657
2.76009
2.77338
2.78692
2.80228
2.82264
2.84606
2.88755
2.96007
3.04507
3.11119
3.14522
3.1674
3.18327
3.19027
3.19573
3.19697
3.19241
3.18659
3.19276
3.19805
3.19572
3.17578
3.13667
1.02812
0.960174
0.944869
0.939002
0.936346
0.937882
0.936381
0.933916
0.931495
0.929403
0.928621
0.926711
0.923782
0.920548
0.917547
0.913889
0.910171
0.907073
0.90399
0.899503
0.896827
0.89438
0.891507
0.890018
0.889802
0.888843
0.886691
0.884608
0.884947
0.884575
0.883985
0.883945
0.883408
0.88357
0.883101
0.882196
0.88468
0.889789
0.974828
2.1851
2.39636
2.50609
2.50488
2.5655
2.52046
2.53686
2.49318
2.49671
2.46024
2.47328
2.42841
2.43856
2.38648
2.39749
2.34524
2.36202
2.31645
2.34756
2.31209
2.33481
2.29694
2.30056
2.29242
2.30629
2.28606
2.29283
2.2759
2.27964
2.27607
2.27396
2.27843
2.26742
2.28402
2.25747
2.28622
2.24023
2.32923
2.31446
2.44226
2.42099
2.44744
2.41276
2.49318
2.50984
2.53839
2.53803
2.58313
2.58967
2.64315
2.67309
2.68816
2.67977
2.65164
2.65392
2.68148
2.70828
2.72501
2.73841
2.75859
2.78227
2.81055
2.84484
2.89138
2.95653
3.02561
3.09674
3.13321
3.15966
3.17679
3.1823
3.18472
3.18329
3.17917
3.17169
3.17897
3.18354
3.18908
3.17531
3.13378
0.883455
0.950379
0.950362
0.949276
0.949375
0.946998
0.945766
0.943385
0.940085
0.937165
0.934057
0.931094
0.926292
0.922163
0.918124
0.914079
0.909565
0.906144
0.903418
0.898592
0.895349
0.892796
0.889689
0.887558
0.886953
0.886224
0.882536
0.879257
0.878167
0.875398
0.872515
0.867871
0.862042
0.858552
0.854597
0.841948
0.832633
0.841025
0.929685
2.16594
2.29242
2.36326
2.4015
2.49297
2.45512
2.50269
2.45051
2.47547
2.42617
2.44103
2.38842
2.40112
2.34823
2.36374
2.31518
2.34713
2.29968
2.30377
2.29098
2.29871
2.27555
2.26793
2.27287
2.26518
2.2771
2.26263
2.26367
2.25665
2.26232
2.26213
2.25349
2.26558
2.24207
2.25675
2.23144
2.30264
2.32049
2.45253
2.40899
2.48975
2.50687
2.47086
2.49752
2.5146
2.53602
2.52957
2.55861
2.54456
2.56148
2.59715
2.6333
2.66651
2.68129
2.6841
2.69784
2.72523
2.73821
2.74709
2.7467
2.7601
2.7849
2.82043
2.87024
2.93327
3.00464
3.07715
3.12159
3.1435
3.16059
3.16768
3.1705
3.16918
3.16946
3.16158
3.16665
3.17096
3.18432
3.17617
3.131
0.971896
0.953114
0.944482
0.938882
0.940665
0.93904
0.938274
0.936767
0.934741
0.932675
0.929571
0.927351
0.923523
0.919689
0.916758
0.913302
0.907801
0.903571
0.900779
0.896761
0.892943
0.890049
0.886666
0.882783
0.881162
0.880427
0.876324
0.87306
0.868259
0.863871
0.859374
0.851667
0.842605
0.830958
0.823539
0.804766
0.783012
0.809918
1.07177
2.23556
2.26719
2.28158
2.30512
2.3659
2.36974
2.47084
2.42704
2.48116
2.43748
2.46553
2.41416
2.42855
2.36778
2.38364
2.33318
2.36537
2.30577
2.34324
2.29303
2.32362
2.27565
2.29985
2.2809
2.29645
2.2779
2.29076
2.27234
2.28517
2.27261
2.28316
2.26338
2.28215
2.2546
2.30066
2.28963
2.44722
2.43985
2.5425
2.49449
2.42911
2.48377
2.51139
2.49803
2.54803
2.59801
2.61362
2.60269
2.60311
2.58949
2.57355
2.58826
2.6167
2.64009
2.6471
2.65707
2.68353
2.70049
2.72614
2.74965
2.77031
2.79229
2.82127
2.8616
2.91355
2.97938
3.05532
3.10438
3.12205
3.14171
3.15182
3.15696
3.15825
3.15713
3.14932
3.15255
3.15439
3.17505
3.17192
3.12782
0.921133
0.951932
0.951702
0.948193
0.947056
0.944185
0.94233
0.939971
0.937655
0.933906
0.930575
0.927234
0.923653
0.918762
0.914708
0.911156
0.905863
0.900407
0.896572
0.893519
0.888923
0.886027
0.882764
0.878699
0.875891
0.875025
0.869879
0.865516
0.860707
0.854855
0.852013
0.848035
0.846091
0.843901
0.845405
0.849609
0.857212
0.93513
1.82468
2.283
2.27044
2.28073
2.296
2.33555
2.35139
2.45612
2.44214
2.53289
2.47505
2.50626
2.43354
2.44483
2.3744
2.39182
2.33344
2.36961
2.30572
2.35261
2.28903
2.32652
2.27964
2.30449
2.28577
2.30441
2.28489
2.29988
2.27619
2.29901
2.30026
2.32591
2.32743
2.3901
2.44433
2.59295
2.59885
2.70457
2.64021
2.60811
2.59854
2.54489
2.49704
2.48617
2.46443
2.45464
2.49677
2.53158
2.52149
2.53969
2.56033
2.58686
2.59766
2.62324
2.65141
2.66028
2.66885
2.67953
2.68972
2.70597
2.72405
2.74629
2.76989
2.80187
2.84568
2.90166
2.96917
3.04445
3.09098
3.10614
3.13188
3.14389
3.14976
3.1501
3.14449
3.13668
3.13848
3.14043
3.16523
3.16469
3.12257
0.946882
0.950385
0.948119
0.94465
0.944144
0.942571
0.940355
0.938143
0.936198
0.932086
0.928409
0.924786
0.922081
0.917469
0.912636
0.908849
0.904843
0.898586
0.894024
0.890625
0.885998
0.882311
0.878837
0.874578
0.869615
0.868423
0.86427
0.857798
0.852607
0.847552
0.842951
0.837326
0.832033
0.826238
0.820511
0.821231
0.824491
0.915447
2.08676
2.28009
2.2612
2.24965
2.24833
2.25304
2.26502
2.30201
2.29655
2.39308
2.3455
2.41423
2.34559
2.39522
2.32245
2.35853
2.29607
2.34655
2.28163
2.32915
2.26992
2.30698
2.2708
2.29305
2.28545
2.31141
2.30866
2.3413
2.34618
2.43438
2.53723
2.61043
2.70932
2.77649
2.80887
2.87438
2.86826
2.87497
2.85114
2.75109
2.65146
2.61042
2.56922
2.55555
2.54847
2.54269
2.55965
2.58118
2.57756
2.54825
2.53116
2.53924
2.55553
2.57738
2.60393
2.61834
2.64323
2.67217
2.69521
2.71388
2.72974
2.74979
2.77275
2.79638
2.83068
2.88157
2.95081
3.0282
3.07697
3.09175
3.11968
3.13361
3.13962
3.13989
3.13315
3.12302
3.1265
3.12481
3.15579
3.1553
3.11619
0.936759
0.950863
0.951132
0.949644
0.946229
0.944209
0.940978
0.937741
0.935151
0.931809
0.927016
0.923098
0.91985
0.915583
0.910115
0.905601
0.901793
0.897271
0.891346
0.887132
0.883009
0.877778
0.87466
0.870563
0.864097
0.859425
0.854271
0.84786
0.842675
0.838542
0.836366
0.833887
0.82911
0.825521
0.820288
0.819323
0.831789
0.931897
2.24764
2.3021
2.28358
2.27217
2.26139
2.25932
2.26907
2.28649
2.29908
2.36479
2.36318
2.47083
2.4069
2.48878
2.40893
2.45064
2.36703
2.41345
2.34774
2.40466
2.37382
2.42438
2.39842
2.47542
2.54817
2.62749
2.70121
2.77999
2.83804
2.89471
2.97962
3.02053
3.05468
3.08208
3.05049
3.01965
2.97598
2.93661
2.89572
2.83228
2.74021
2.65529
2.58832
2.55643
2.53316
2.51872
2.51438
2.52049
2.53944
2.56388
2.56384
2.56541
2.5773
2.59762
2.61692
2.62442
2.63992
2.65634
2.6757
2.69439
2.71064
2.73147
2.75739
2.78841
2.82661
2.87468
2.93938
3.01299
3.06348
3.07827
3.10837
3.12377
3.12893
3.12927
3.12243
3.11065
3.11462
3.11083
3.14495
3.14366
3.10788
0.945282
0.95182
0.949942
0.947201
0.945162
0.942809
0.940347
0.936704
0.933963
0.930759
0.925691
0.92152
0.91778
0.914127
0.90856
0.903493
0.899204
0.895862
0.889372
0.88413
0.879902
0.874385
0.870337
0.866564
0.860751
0.855081
0.848948
0.843213
0.836435
0.829467
0.825765
0.820182
0.807825
0.797335
0.778438
0.757064
0.775237
0.891812
2.23289
2.29736
2.31621
2.32197
2.31789
2.31123
2.29996
2.2975
2.29854
2.31514
2.31933
2.39783
2.38113
2.47721
2.39553
2.47873
2.41364
2.4973
2.4732
2.56595
2.61872
2.70497
2.77329
2.84053
2.91969
2.97035
3.0157
3.03666
3.07032
3.07027
3.07696
3.10139
3.10715
3.1028
3.07888
3.04894
3.0099
2.97362
2.93545
2.89713
2.85687
2.79103
2.70019
2.64416
2.61765
2.59456
2.57474
2.56296
2.53412
2.52761
2.52903
2.53635
2.55201
2.56823
2.58895
2.61665
2.63796
2.65612
2.67463
2.6945
2.71303
2.73161
2.74979
2.77594
2.81218
2.8602
2.92518
2.99817
3.05221
3.06747
3.09771
3.11428
3.11886
3.11923
3.11205
3.09966
3.10419
3.09871
3.13284
3.13018
3.09901
0.943087
0.952139
0.950867
0.949231
0.946607
0.943207
0.940375
0.93629
0.93261
0.929174
0.925364
0.919959
0.915469
0.911501
0.907514
0.901597
0.896655
0.892924
0.886875
0.880287
0.875533
0.869881
0.863735
0.857983
0.854407
0.852183
0.844177
0.836922
0.828479
0.818746
0.813988
0.807131
0.794037
0.784708
0.771348
0.762681
0.819252
1.12824
2.36277
2.38663
2.38522
2.37217
2.35941
2.34192
2.32756
2.30844
2.30086
2.29362
2.30344
2.30976
2.37285
2.37392
2.51084
2.50156
2.63704
2.6515
2.78144
2.84386
2.96129
2.97563
3.05293
3.06114
3.08447
3.0913
3.10836
3.11597
3.11347
3.1139
3.08756
3.08743
3.08368
3.08304
3.07666
3.06355
3.03732
3.00367
2.96507
2.93272
2.90267
2.85202
2.77812
2.69788
2.63671
2.59207
2.55946
2.5502
2.54444
2.55101
2.55247
2.5576
2.56565
2.56683
2.5772
2.59202
2.61286
2.6322
2.65374
2.67731
2.70191
2.72726
2.75023
2.77452
2.80566
2.84867
2.91184
2.98432
3.04162
3.05845
3.08697
3.10489
3.10903
3.10945
3.10196
3.08865
3.09337
3.08719
3.11856
3.11674
3.0897
0.945777
0.952782
0.95022
0.948399
0.945655
0.941951
0.938897
0.936551
0.932204
0.928411
0.924688
0.91908
0.913832
0.909356
0.905736
0.900343
0.895159
0.890718
0.885348
0.877689
0.873089
0.86792
0.861416
0.854117
0.848997
0.845534
0.83823
0.830763
0.823249
0.815834
0.813807
0.809935
0.80086
0.798951
0.79871
0.797296
0.888745
1.68938
2.43324
2.40025
2.37997
2.35852
2.34007
2.32465
2.30874
2.30162
2.29309
2.29206
2.295
2.31741
2.34684
2.44008
2.56073
2.75362
2.80475
2.94157
2.96731
3.01521
3.03029
3.04539
3.06523
3.07526
3.09094
3.09234
3.09658
3.09624
3.08601
3.08721
3.07717
3.07035
3.06878
3.06603
3.06553
3.0598
3.04655
3.02251
2.99022
2.95803
2.93252
2.90195
2.86525
2.78652
2.70437
2.64897
2.60192
2.57683
2.56085
2.5414
2.53873
2.54446
2.55234
2.56074
2.57109
2.58589
2.60601
2.62847
2.65033
2.67204
2.69599
2.72208
2.7454
2.77073
2.79881
2.83816
2.89887
2.97027
3.03106
3.05003
3.07611
3.09557
3.09925
3.09999
3.0923
3.07748
3.08259
3.07404
3.10395
3.10273
3.08011
0.945008
0.952453
0.950379
0.948623
0.945618
0.943482
0.938277
0.936064
0.931778
0.92729
0.922971
0.91878
0.912046
0.907033
0.902762
0.898977
0.892081
0.886849
0.881163
0.872884
0.868701
0.863978
0.856825
0.847992
0.844064
0.840524
0.831514
0.823557
0.816435
0.810189
0.807289
0.803619
0.797932
0.795494
0.798407
0.801478
0.907595
2.08828
2.39195
2.35533
2.33352
2.31416
2.30144
2.29441
2.289
2.29002
2.2968
2.31204
2.33174
2.3708
2.44819
2.58354
2.78661
2.92066
3.02171
3.01906
3.03396
3.03647
3.04032
3.0397
3.04899
3.04951
3.05126
3.0608
3.0616
3.06811
3.06323
3.06087
3.05924
3.05135
3.05447
3.05277
3.05535
3.05291
3.04428
3.03085
3.00939
2.98083
2.9528
2.92829
2.90223
2.85359
2.77587
2.69798
2.63659
2.59341
2.56754
2.55056
2.54445
2.54517
2.54782
2.55321
2.55978
2.57154
2.5924
2.61767
2.6422
2.66331
2.68431
2.7111
2.73836
2.76424
2.79098
2.83022
2.88698
2.95569
3.01977
3.04107
3.06449
3.08531
3.08912
3.09021
3.08215
3.06661
3.07177
3.06077
3.08878
3.08866
3.07045
0.946022
0.951932
0.951076
0.94822
0.945825
0.942598
0.937789
0.933868
0.931384
0.926174
0.921506
0.917366
0.911708
0.904861
0.899702
0.896208
0.889396
0.883225
0.878532
0.8712
0.865665
0.861493
0.853666
0.846508
0.841732
0.837594
0.827523
0.819812
0.812527
0.805967
0.80308
0.79975
0.796436
0.789326
0.787888
0.79172
0.900002
2.17912
2.30564
2.2898
2.2817
2.27134
2.26797
2.26444
2.26139
2.26968
2.28526
2.31574
2.36911
2.46426
2.61017
2.8199
2.99655
3.06289
3.07537
3.06217
3.04711
3.04061
3.03098
3.02461
3.02064
3.02153
3.02211
3.02392
3.02635
3.02935
3.0328
3.03508
3.04005
3.03748
3.04541
3.04086
3.04474
3.0432
3.03897
3.03137
3.01902
3.00047
2.97423
2.94452
2.92114
2.89236
2.84207
2.76019
2.68706
2.63361
2.59533
2.56865
2.55269
2.54596
2.54768
2.55031
2.55508
2.56562
2.58553
2.6085
2.63235
2.65315
2.67518
2.70173
2.73023
2.75592
2.78496
2.82127
2.87516
2.94099
3.0079
3.03145
3.05246
3.07471
3.07894