/*--------------------------------*- C++ -*----------------------------------*\
| =========                 |                                                 |
| \\      /  F ield         | OpenFOAM: The Open Source CFD Toolbox           |
|  \\    /   O peration     | Version:  2.2.x                                 |
|   \\  /    A nd           | Web:      www.OpenFOAM.org                      |
|    \\/     M anipulation  |                                                 |
\*---------------------------------------------------------------------------*/
FoamFile
{
    version     2.0;
    format      ascii;
    class       volVectorField;
    location    "0.3";
    object      U;
}
// * * * * * * * * * * * * * * * * * * * * * * * * * * * * * * * * * * * * * //

dimensions      [0 1 -1 0 0 0 0];

internalField   nonuniform List<vector> 
14161
(
(1.5 7.97274e-17 3.11099e-22)
(1.5 -6.22138e-17 8.59293e-22)
(1.5 8.20991e-17 1.07366e-21)
(1.5 4.63651e-17 5.88272e-22)
(1.5 -2.45368e-17 3.17746e-23)
(1.5 -4.74574e-18 -1.4282e-21)
(1.5 -4.12216e-16 -1.30231e-21)
(1.5 -5.34127e-16 -2.7642e-21)
(1.5 -1.59109e-15 -2.72521e-21)
(1.5 -4.34043e-15 -4.21384e-21)
(1.5 -1.12183e-14 -4.79322e-21)
(1.5 -2.3981e-14 -6.09766e-21)
(1.5 -5.5685e-14 -7.19711e-21)
(1.5 -1.12714e-13 -8.06269e-21)
(1.5 -2.72382e-13 -9.32074e-21)
(1.5 3.11802e-13 -9.69037e-21)
(1.5 -4.60757e-12 -1.08801e-20)
(1.5 -3.42171e-12 -1.1325e-20)
(1.5 -3.09303e-12 -1.20103e-20)
(1.5 -1.00459e-11 -1.30057e-20)
(1.5 -1.95418e-11 -1.36764e-20)
(1.5 -3.35426e-11 -1.43244e-20)
(1.5 -5.51166e-11 -1.52573e-20)
(1.5 -8.9512e-11 -1.58585e-20)
(1.5 -1.43465e-10 -1.67006e-20)
(1.5 -2.24676e-10 -1.68463e-20)
(1.5 -3.41442e-10 -1.78469e-20)
(1.5 -5.0541e-10 -1.84056e-20)
(1.50001 -6.89523e-10 -1.7284e-20)
(1.50001 -1.16072e-09 -1.17003e-20)
(1.50002 -1.65547e-09 -5.30704e-20)
(1.50003 -4.29664e-10 -1.25907e-20)
(1.50004 -2.52738e-09 2.7885e-19)
(1.50006 -2.07285e-08 -5.2902e-19)
(1.50009 1.55232e-08 -1.27863e-18)
(1.50013 9.04071e-08 5.73996e-18)
(1.50018 -1.90195e-07 -2.93548e-18)
(1.50025 -2.60253e-07 -2.26752e-17)
(1.50033 7.6541e-07 4.52723e-17)
(1.50043 -7.04006e-08 4.87286e-17)
(1.50056 -1.40283e-06 -1.68616e-16)
(1.50071 5.68026e-07 -1.34092e-16)
(1.50089 -3.19621e-07 3.18254e-16)
(1.5011 -2.60303e-07 7.02188e-16)
(1.50133 4.47379e-07 -2.77914e-16)
(1.50163 -1.6284e-06 -1.18204e-15)
(1.50195 -1.14967e-06 -2.007e-16)
(1.50229 3.20202e-07 1.05407e-15)
(1.5028 -3.79525e-06 1.49278e-15)
(1.50331 -1.51749e-06 -3.67301e-16)
(1.50383 3.16366e-06 -1.31655e-15)
(1.50466 -1.71962e-06 -7.27495e-16)
(1.50546 -1.59949e-06 9.52524e-16)
(1.50624 5.19574e-06 1.2639e-15)
(1.50753 2.23251e-06 9.91074e-17)
(1.50875 -2.0941e-06 -1.21695e-15)
(1.50989 4.85674e-06 -1.04334e-15)
(1.51176 5.8933e-06 3.51209e-16)
(1.51351 -4.32458e-06 1.18407e-15)
(1.51508 1.45943e-05 8.83053e-16)
(1.51731 -6.18586e-06 -6.0089e-16)
(1.51978 -1.13766e-05 -1.61042e-15)
(1.52256 7.18124e-05 -8.27345e-17)
(1.52471 5.79529e-05 1.33538e-15)
(1.5261 5.50331e-05 6.47775e-16)
(1.52723 5.37335e-05 -5.21391e-16)
(1.52863 0.000182032 -7.34963e-16)
(1.52624 0.000247842 -1.55842e-16)
(1.5216 0.000983783 3.49394e-16)
(1.50877 0.00525319 4.47542e-16)
(0.921119 0.01338 7.0062e-17)
(0.463023 0.00711473 -3.7534e-17)
(0.431054 -0.0195234 -8.17549e-18)
(0.490204 -0.0292752 2.50137e-17)
(0.544242 -0.0371763 4.94706e-17)
(0.610619 -0.0328971 -1.47183e-16)
(0.667637 -0.0270875 -1.95459e-16)
(0.719348 -0.0211606 1.86909e-16)
(0.771572 -0.0195575 4.02135e-16)
(0.819777 -0.0144178 -6.51307e-17)
(0.85536 -0.00634607 -4.39435e-16)
(0.880528 -0.00227454 -2.64817e-16)
(0.904229 -0.00236447 1.36715e-16)
(0.934066 -0.00401199 2.68279e-16)
(0.954553 -0.00696767 1.4436e-16)
(0.979382 -0.0063682 5.53936e-17)
(0.994819 -0.00152559 -7.52159e-17)
(0.99734 0.0133909 -1.32068e-16)
(0.878174 0.0310693 -9.46574e-17)
(0.739962 0.0406351 4.64833e-17)
(0.628345 0.0346447 4.56158e-17)
(0.552198 0.0257519 -1.29789e-17)
(0.498777 0.0181944 1.22431e-18)
(0.462403 0.0131795 8.71274e-18)
(0.434721 0.0109027 3.12005e-18)
(0.408253 0.0100455 3.51045e-18)
(0.382449 0.00866254 5.40763e-18)
(0.361736 0.0081424 2.97215e-18)
(0.342711 0.00798435 -6.24842e-19)
(0.325644 0.00762629 -2.45437e-18)
(0.310798 0.00729731 -2.14346e-18)
(0.297814 0.00718089 -1.03684e-18)
(0.285551 0.00710853 -3.7582e-19)
(0.273774 0.00701806 -2.75181e-19)
(0.262641 0.00693369 -3.36774e-19)
(0.250693 0.00690674 -3.13063e-19)
(0.235862 0.00702188 -1.30756e-19)
(0.218498 0.00725491 8.23097e-20)
(0.201831 0.00752414 9.40803e-20)
(0.18795 0.00786031 7.69295e-20)
(0.175576 0.00832048 1.61406e-19)
(0.163611 0.00890943 1.9359e-19)
(0.150811 0.00964176 1.46287e-19)
(0.134897 0.0105471 9.15933e-20)
(0.115296 0.0117126 1.32244e-19)
(0.0921879 0.013417 1.80037e-19)
(0.0670902 0.0140755 2.50211e-19)
(0.0414075 0.0132629 2.72667e-19)
(0.0209299 0.0233943 4.95185e-19)
(1.5 1.45781e-16 3.06539e-22)
(1.5 1.02583e-16 1.25391e-21)
(1.5 -1.53871e-16 1.18327e-21)
(1.5 7.31965e-17 3.88495e-22)
(1.5 3.92677e-17 -1.1894e-22)
(1.5 -1.54402e-16 -1.38779e-21)
(1.5 -2.20655e-16 -1.89888e-21)
(1.5 -1.60431e-15 -2.93558e-21)
(1.5 -4.10172e-15 -2.93644e-21)
(1.5 -1.13385e-14 -4.36907e-21)
(1.5 -2.82501e-14 -4.79684e-21)
(1.5 -6.61707e-14 -6.62881e-21)
(1.5 -1.50388e-13 -7.20149e-21)
(1.5 -3.23003e-13 -9.12547e-21)
(1.5 -6.5679e-13 -9.702e-21)
(1.5 -6.57871e-13 -9.82633e-21)
(1.5 -7.83385e-12 -1.09794e-20)
(1.5 -1.34469e-11 -1.19069e-20)
(1.5 -1.58138e-11 -1.21635e-20)
(1.5 -4.81065e-11 -1.34619e-20)
(1.5 -9.02708e-11 -1.40193e-20)
(1.5 -1.6048e-10 -1.51529e-20)
(1.5 -2.77664e-10 -1.58265e-20)
(1.5 -4.67298e-10 -1.63884e-20)
(1.5 -7.70789e-10 -1.68877e-20)
(1.5 -1.24608e-09 -1.7308e-20)
(1.5 -1.95892e-09 -1.85468e-20)
(1.5 -3.01849e-09 -1.87838e-20)
(1.50001 -4.36901e-09 -1.73768e-20)
(1.50001 -6.58505e-09 -1.31163e-20)
(1.50002 -9.73942e-09 -5.41823e-20)
(1.50003 -1.16081e-08 5.92454e-21)
(1.50004 -1.15525e-08 2.46817e-19)
(1.50006 -3.58816e-08 -6.39966e-19)
(1.50009 -3.17134e-08 -9.88213e-19)
(1.50013 1.01349e-07 5.71868e-18)
(1.50018 -7.00916e-08 -3.23241e-18)
(1.50025 -4.43973e-07 -2.15572e-17)
(1.50033 6.05253e-07 3.91893e-17)
(1.50043 5.90857e-07 5.00475e-17)
(1.50056 -1.5659e-06 -7.29158e-17)
(1.50071 5.6971e-07 -2.52189e-16)
(1.50089 -5.29861e-07 -1.88903e-16)
(1.50109 -1.09761e-06 1.72461e-15)
(1.50133 1.31273e-06 3.07474e-16)
(1.50161 -4.2804e-06 -2.86019e-15)
(1.50194 -2.21303e-06 -1.57012e-15)
(1.50228 2.65853e-06 1.40372e-15)
(1.50278 -4.01485e-06 3.13347e-15)
(1.50331 -4.76391e-06 -3.31844e-16)
(1.50384 7.27153e-06 -3.29365e-15)
(1.50462 2.89083e-07 -2.05081e-15)
(1.50547 -5.35521e-06 1.52085e-15)
(1.5063 8.67206e-06 2.48741e-15)
(1.50744 4.97388e-07 8.81504e-16)
(1.50873 -8.35464e-06 -1.84999e-15)
(1.51003 1.99195e-05 -1.85476e-15)
(1.51162 2.96457e-06 -1.0413e-16)
(1.51347 -4.1261e-06 1.82264e-15)
(1.51531 3.42416e-05 1.16261e-15)
(1.51725 1.50197e-05 -1.32415e-16)
(1.51992 -8.28304e-06 -1.47859e-15)
(1.52274 6.97342e-05 -1.02617e-15)
(1.52507 0.000185583 1.44304e-15)
(1.52688 9.24665e-05 1.11347e-15)
(1.52848 6.16738e-05 -2.51479e-16)
(1.53018 1.70866e-05 -8.87102e-16)
(1.52998 0.000433338 -3.32833e-16)
(1.52821 0.00151236 2.27171e-16)
(1.51902 0.010673 4.25382e-16)
(0.980389 0.0480015 1.21557e-16)
(0.48254 0.0042718 -1.67749e-17)
(0.456336 -0.0493298 2.94209e-18)
(0.534433 -0.0632807 -5.46599e-18)
(0.589878 -0.0719543 9.60632e-17)
(0.650311 -0.0595418 -7.3666e-17)
(0.70265 -0.0418078 -2.31649e-16)
(0.748436 -0.0257466 6.29045e-17)
(0.787329 -0.0152273 3.05669e-16)
(0.827319 -0.0158345 5.28578e-17)
(0.860141 -0.00898724 -2.84258e-16)
(0.887154 -0.00291788 -2.19243e-16)
(0.911898 -0.00128314 2.66429e-17)
(0.939213 -0.00323348 2.13045e-16)
(0.958885 -0.00958019 1.31431e-16)
(0.977515 -0.0108923 3.32006e-17)
(0.983687 -0.00693914 -5.55207e-17)
(0.974906 0.0128155 -1.12056e-16)
(0.867349 0.061073 -7.39017e-17)
(0.74169 0.0926576 6.12195e-17)
(0.636706 0.0907433 2.91612e-17)
(0.564837 0.0707291 -2.48079e-17)
(0.507789 0.0540755 -6.65537e-18)
(0.465735 0.0420325 2.87222e-18)
(0.433268 0.0354985 1.77221e-18)
(0.402739 0.0310875 4.85887e-18)
(0.376795 0.0264245 6.47339e-18)
(0.355773 0.0238153 3.43396e-18)
(0.336153 0.0225118 -2.37554e-19)
(0.318645 0.0207427 -2.24437e-18)
(0.303768 0.0193688 -2.26371e-18)
(0.290814 0.0187585 -1.3429e-18)
(0.278628 0.0183334 -5.97037e-19)
(0.266786 0.0179393 -3.02658e-19)
(0.255401 0.0175819 -2.45537e-19)
(0.243049 0.0170857 -1.76977e-19)
(0.227746 0.016684 5.15574e-21)
(0.210096 0.0168392 1.58209e-19)
(0.193124 0.0173938 1.32046e-19)
(0.178891 0.0182075 1.14204e-19)
(0.166031 0.01938 2.04794e-19)
(0.153462 0.0209886 2.07859e-19)
(0.139942 0.0230779 1.36452e-19)
(0.123191 0.0256935 9.95976e-20)
(0.103067 0.0291801 1.31896e-19)
(0.0793871 0.0333522 1.7316e-19)
(0.0556542 0.0357323 2.72822e-19)
(0.0314696 0.0360971 2.65299e-19)
(0.0142928 0.0486885 3.95078e-19)
(1.5 1.49387e-17 3.63549e-22)
(1.5 2.50878e-16 3.43397e-22)
(1.5 1.26641e-16 7.88005e-22)
(1.5 -7.71921e-17 3.37056e-22)
(1.5 -2.68586e-16 -4.01058e-22)
(1.5 -3.43067e-16 -1.62547e-21)
(1.5 1.9718e-16 -2.40049e-21)
(1.5 -2.17125e-15 -3.58693e-21)
(1.5 -6.14328e-15 -3.67502e-21)
(1.5 -1.70348e-14 -5.02023e-21)
(1.5 -4.29927e-14 -4.59084e-21)
(1.5 -9.2162e-14 -8.91918e-21)
(1.5 -2.08512e-13 -8.76996e-21)
(1.5 -4.62354e-13 -9.12397e-21)
(1.5 -8.05578e-13 -8.72486e-21)
(1.5 -8.63517e-13 -1.01276e-20)
(1.5 -1.26826e-11 -1.13562e-20)
(1.5 -2.09748e-11 -1.22781e-20)
(1.5 -1.32428e-11 -1.21266e-20)
(1.5 -6.28099e-11 -1.34919e-20)
(1.5 -1.11228e-10 -1.5098e-20)
(1.5 -1.82436e-10 -1.66396e-20)
(1.5 -3.15578e-10 -1.56068e-20)
(1.5 -5.33647e-10 -1.71466e-20)
(1.5 -8.59461e-10 -1.9155e-20)
(1.5 -1.33298e-09 -1.85137e-20)
(1.5 -1.98518e-09 -1.91737e-20)
(1.5 -2.92101e-09 -1.94386e-20)
(1.50001 -4.15763e-09 -1.63624e-20)
(1.50001 -5.9386e-09 -1.52775e-20)
(1.50002 -7.84665e-09 -6.10423e-20)
(1.50003 -1.1009e-08 5.5917e-20)
(1.50004 -1.45049e-08 2.01967e-19)
(1.50006 -2.27575e-08 -1.06498e-18)
(1.50009 -8.09797e-09 1.92924e-19)
(1.50013 1.34112e-08 6.2092e-18)
(1.50018 -1.6498e-07 -9.46781e-18)
(1.50024 -2.92608e-07 -1.4585e-17)
(1.50033 5.51566e-07 5.67512e-18)
(1.50043 3.75102e-07 9.54437e-17)
(1.50056 -1.47705e-06 2.2658e-16)
(1.50071 -1.97298e-07 -8.60381e-16)
(1.50088 3.02927e-07 -1.23035e-15)
(1.50109 -9.25392e-07 3.40443e-15)
(1.50132 2.52536e-06 3.5382e-15)
(1.5016 -5.97771e-06 -4.91741e-15)
(1.50192 -7.59662e-06 -6.51541e-15)
(1.5023 6.16942e-06 4.19563e-15)
(1.50274 -2.93059e-06 9.27897e-15)
(1.50327 -1.19088e-05 1.00109e-15)
(1.50389 2.03946e-06 -6.93038e-15)
(1.50454 -9.55106e-07 -5.46922e-15)
(1.50542 -4.96992e-06 2.42631e-15)
(1.50637 8.69591e-06 5.49269e-15)
(1.50731 2.75693e-07 2.92697e-15)
(1.50872 -6.46867e-06 -1.83538e-15)
(1.51013 1.18942e-05 -3.4951e-15)
(1.51149 8.50139e-06 -1.48788e-15)
(1.5135 8.26475e-06 1.90016e-15)
(1.5155 2.59468e-05 2.49631e-15)
(1.51737 5.8923e-06 8.43019e-16)
(1.52023 3.09206e-05 -1.99504e-15)
(1.52303 5.08496e-05 -2.14141e-15)
(1.52564 0.000174518 4.2156e-16)
(1.52849 0.000179581 1.63165e-15)
(1.53101 6.85135e-05 7.44149e-16)
(1.53354 0.000104732 -7.24482e-16)
(1.53656 0.000436072 -9.64386e-16)
(1.54202 0.00139557 -2.29349e-16)
(1.54139 0.010782 3.8374e-16)
(1.11687 0.0682983 2.29056e-16)
(0.514657 -0.017339 5.00413e-19)
(0.4773 -0.101933 3.10733e-17)
(0.577468 -0.127333 4.09082e-18)
(0.642899 -0.129309 3.39623e-17)
(0.695073 -0.103154 1.63812e-17)
(0.747749 -0.0756243 -1.76457e-16)
(0.784593 -0.0485701 -5.106e-17)
(0.818313 -0.0289309 2.22127e-16)
(0.848706 -0.0254569 7.96022e-17)
(0.875094 -0.0184656 -1.88066e-16)
(0.899128 -0.0105425 -2.02098e-16)
(0.92051 -0.00617124 -1.40893e-17)
(0.946903 -0.0076637 9.49537e-17)
(0.954409 -0.0151662 7.34932e-17)
(0.969557 -0.0123588 4.02513e-17)
(0.954156 -0.00324464 -2.30342e-17)
(0.91158 0.0333077 -7.78572e-17)
(0.80441 0.100911 -1.6609e-17)
(0.70192 0.144551 5.32826e-17)
(0.614355 0.141933 -1.04593e-17)
(0.553007 0.11573 -2.66124e-17)
(0.500067 0.0908244 -2.78097e-18)
(0.46209 0.0723469 1.14901e-18)
(0.431334 0.0620761 2.43995e-18)
(0.40201 0.0540096 6.36664e-18)
(0.376857 0.0457932 6.85281e-18)
(0.354805 0.0414876 3.50779e-18)
(0.33362 0.039159 9.76447e-20)
(0.314895 0.0360607 -1.74521e-18)
(0.299647 0.0337603 -1.79953e-18)
(0.28631 0.0327175 -1.07979e-18)
(0.273783 0.0319245 -5.11236e-19)
(0.261576 0.0312695 -2.6271e-19)
(0.24973 0.0309042 -1.81164e-19)
(0.236774 0.0303407 -1.10541e-19)
(0.221081 0.0299512 7.44064e-20)
(0.203478 0.0304455 1.59149e-19)
(0.186271 0.0314963 1.5121e-19)
(0.171649 0.0330324 1.40667e-19)
(0.158322 0.0350387 2.09723e-19)
(0.145206 0.0377191 1.65088e-19)
(0.130972 0.0410834 9.00929e-20)
(0.11299 0.0448053 5.79823e-20)
(0.0924759 0.049835 7.16491e-20)
(0.0691854 0.0546243 1.56735e-19)
(0.0475312 0.0578426 1.95402e-19)
(0.0260172 0.0594334 1.79684e-19)
(0.0132189 0.0723258 2.52473e-19)
(1.5 -6.53523e-17 -3.99324e-22)
(1.5 5.47497e-16 8.71612e-24)
(1.5 5.66427e-17 5.48151e-22)
(1.5 -7.00727e-16 -1.41598e-22)
(1.5 -5.65558e-16 -1.15067e-21)
(1.5 -3.7839e-16 -2.05411e-21)
(1.5 -9.25453e-16 -2.85706e-21)
(1.5 -3.06526e-15 -4.36301e-21)
(1.5 -9.69033e-15 -5.01414e-21)
(1.5 -2.59959e-14 -6.63603e-21)
(1.5 -6.48273e-14 -1.00679e-20)
(1.5 -1.48289e-13 -1.1266e-20)
(1.5 -3.3381e-13 -1.11977e-20)
(1.5 -7.35334e-13 -1.17397e-20)
(1.5 -1.35179e-12 -9.14167e-21)
(1.5 -2.39156e-12 -1.10589e-20)
(1.5 -1.45461e-11 -1.27179e-20)
(1.5 -3.22233e-11 -1.3607e-20)
(1.5 -2.98999e-11 -1.74573e-20)
(1.5 -1.05872e-10 -1.3789e-20)
(1.5 -1.90807e-10 -1.46512e-20)
(1.5 -3.31145e-10 -1.39088e-20)
(1.5 -5.72708e-10 -1.62802e-20)
(1.5 -9.72583e-10 -1.5447e-20)
(1.5 -1.61162e-09 -1.58848e-20)
(1.5 -2.59694e-09 -1.87773e-20)
(1.5 -4.05648e-09 -1.68561e-20)
(1.5 -6.16802e-09 -1.63052e-20)
(1.50001 -9.19641e-09 -1.10197e-20)
(1.50001 -1.35733e-08 -2.11623e-20)
(1.50002 -1.85892e-08 -9.23985e-20)
(1.50003 -2.49481e-08 2.16292e-19)
(1.50004 -3.9943e-08 8.3141e-20)
(1.50006 -5.46111e-08 -2.09328e-18)
(1.50009 -3.6035e-08 2.25407e-18)
(1.50013 -3.59563e-08 1.00794e-17)
(1.50018 -1.6361e-07 -2.44233e-17)
(1.50024 -2.83317e-07 -8.1343e-18)
(1.50032 1.01816e-07 -1.7948e-17)
(1.50043 3.85612e-07 8.71824e-17)
(1.50055 -4.17482e-07 6.82714e-16)
(1.5007 -1.04801e-06 -1.43463e-15)
(1.50088 -2.08566e-07 -2.76374e-15)
(1.50108 1.34835e-06 4.75055e-15)
(1.50132 9.93555e-07 6.98131e-15)
(1.50157 -4.65894e-06 -5.69175e-15)
(1.5019 -1.84977e-06 -9.42741e-15)
(1.50231 4.74702e-06 3.41816e-16)
(1.50269 -1.50128e-07 1.12385e-14)
(1.50324 -7.82408e-06 4.48512e-15)
(1.50388 -5.13797e-06 -5.92451e-15)
(1.50449 1.08697e-06 -8.63584e-15)
(1.50537 3.81376e-06 1.11441e-16)
(1.50635 6.37468e-06 6.22307e-15)
(1.50728 5.13955e-06 5.81313e-15)
(1.50866 -2.5355e-06 -7.56786e-16)
(1.51012 5.22956e-06 -5.74946e-15)
(1.51149 1.7745e-05 -3.03723e-15)
(1.51349 1.73782e-05 1.16796e-15)
(1.51561 2.22833e-05 4.20681e-15)
(1.51762 2.14587e-05 1.61668e-15)
(1.52044 2.42728e-05 -1.41144e-15)
(1.52354 9.18576e-05 -3.13873e-15)
(1.52638 9.78572e-05 -7.52501e-16)
(1.53034 0.000110107 1.23278e-15)
(1.53421 0.000270658 1.92595e-15)
(1.5384 0.000222569 -3.4106e-16)
(1.54374 0.000214627 -1.064e-15)
(1.55701 0.0005846 -7.59191e-16)
(1.57252 0.00140869 1.40468e-16)
(1.38105 0.0260757 4.36488e-16)
(0.605427 -0.0656602 8.06099e-17)
(0.535793 -0.153425 3.26553e-17)
(0.64258 -0.173835 8.04872e-17)
(0.70534 -0.16946 1.04405e-17)
(0.745606 -0.138767 9.38699e-18)
(0.789014 -0.101696 -5.21485e-17)
(0.812773 -0.0607554 -9.67935e-17)
(0.85845 -0.0315494 7.1917e-17)
(0.875577 -0.0242415 4.54441e-17)
(0.893517 -0.0175738 -9.6245e-17)
(0.909737 -0.0100884 -1.40905e-16)
(0.921416 -0.00665979 -7.58078e-17)
(0.949524 -0.00640637 2.09628e-17)
(0.937022 -0.0130508 2.97137e-17)
(0.939583 -0.00461991 1.82261e-17)
(0.889449 0.0191348 -1.31284e-17)
(0.81 0.079843 -5.0209e-17)
(0.714071 0.155574 3.1177e-17)
(0.64325 0.18967 1.53073e-17)
(0.586542 0.187003 -2.33342e-17)
(0.543998 0.158598 -1.40054e-17)
(0.499998 0.12714 -6.42693e-19)
(0.464366 0.102465 1.03498e-18)
(0.432617 0.0889242 4.70462e-18)
(0.403259 0.076847 7.68461e-18)
(0.378272 0.0657286 6.71114e-18)
(0.354191 0.0604634 3.28546e-18)
(0.331586 0.0569719 2.45145e-19)
(0.311857 0.0523015 -1.21993e-18)
(0.295938 0.0488196 -1.23227e-18)
(0.281559 0.0470919 -7.63098e-19)
(0.267826 0.0456625 -3.80452e-19)
(0.254439 0.0445568 -1.52723e-19)
(0.241026 0.0436301 -8.28141e-20)
(0.2263 0.0422265 2.35029e-20)
(0.209584 0.0413497 1.71845e-19)
(0.19153 0.0418147 1.90104e-19)
(0.174032 0.0432007 7.33795e-20)
(0.158747 0.045333 1.71619e-19)
(0.144851 0.0480184 1.09053e-19)
(0.13129 0.0514935 9.69745e-20)
(0.117197 0.0562142 -4.71094e-20)
(0.10056 0.0619096 -5.67564e-20)
(0.081244 0.0680791 -1.72434e-20)
(0.0599422 0.0727041 -3.16897e-20)
(0.040601 0.0770588 5.43624e-20)
(0.0224876 0.0793341 3.1643e-20)
(0.0138174 0.0912591 4.4813e-20)
(1.5 -3.00465e-16 -2.45226e-22)
(1.5 -2.40131e-17 4.02181e-24)
(1.5 -4.52255e-16 -5.98484e-22)
(1.5 -7.47964e-16 -1.66243e-22)
(1.5 -6.59469e-16 -1.47607e-21)
(1.5 -3.62366e-16 -4.90052e-22)
(1.5 -1.44923e-15 -3.43948e-21)
(1.5 -5.00014e-15 -6.28335e-21)
(1.5 -1.30366e-14 -5.16655e-21)
(1.5 -3.28562e-14 -7.63348e-21)
(1.5 -8.62495e-14 -1.67037e-20)
(1.5 -1.91727e-13 -7.29729e-21)
(1.5 -4.41318e-13 -1.11967e-20)
(1.5 -9.91765e-13 -1.15288e-20)
(1.5 -1.46135e-12 -1.57793e-20)
(1.5 -4.84877e-12 -1.54785e-20)
(1.5 -1.51764e-11 -1.35221e-20)
(1.5 -4.46414e-11 -1.41641e-20)
(1.5 -3.73183e-11 -1.32244e-20)
(1.5 -1.40814e-10 -1.97879e-20)
(1.5 -2.39325e-10 -1.90104e-20)
(1.5 -4.19368e-10 -1.82414e-20)
(1.5 -7.35182e-10 -2.08432e-20)
(1.5 -1.24943e-09 -2.04445e-20)
(1.5 -2.06241e-09 -1.82075e-20)
(1.5 -3.31049e-09 -1.69963e-20)
(1.5 -5.14821e-09 -1.81122e-20)
(1.5 -7.75728e-09 -2.29895e-20)
(1.50001 -1.14759e-08 -1.21892e-20)
(1.50001 -1.65422e-08 -1.45454e-20)
(1.50002 -2.32966e-08 -1.38751e-19)
(1.50002 -3.17995e-08 3.65392e-19)
(1.50004 -4.25681e-08 3.65888e-20)
(1.50006 -5.6337e-08 -2.97632e-18)
(1.50009 -7.64026e-08 3.73213e-18)
(1.50012 -9.99135e-08 1.37702e-17)
(1.50017 -2.83685e-08 -3.20759e-17)
(1.50024 -6.57052e-08 -9.43224e-18)
(1.50032 -4.39762e-07 -1.04472e-17)
(1.50042 -2.16485e-07 2.72553e-17)
(1.50055 4.67103e-07 9.95137e-16)
(1.50069 -1.19825e-06 -1.01806e-15)
(1.50087 -3.70468e-07 -4.8239e-15)
(1.50107 3.33547e-06 3.84475e-15)
(1.5013 -3.33992e-06 1.21764e-14)
(1.50156 -6.20829e-06 -2.81144e-15)
(1.50188 5.97437e-07 -1.79132e-14)
(1.50228 1.60395e-06 -6.41717e-15)
(1.50266 2.34181e-06 1.77701e-14)
(1.50321 -7.25384e-06 1.257e-14)
(1.50385 -1.59129e-05 -8.09155e-15)
(1.50447 9.61872e-06 -1.58529e-14)
(1.50529 1.139e-05 -5.99092e-15)
(1.50628 4.77484e-06 1.02032e-14)
(1.50731 7.35135e-06 9.49066e-15)
(1.50853 -6.25631e-06 1.38507e-15)
(1.51005 -6.1781e-06 -8.74291e-15)
(1.51156 2.48954e-05 -6.14008e-15)
(1.51339 2.03193e-05 -3.86022e-16)
(1.51564 8.09057e-06 5.50852e-15)
(1.51789 3.87875e-05 3.75843e-15)
(1.52044 2.16656e-05 -3.32935e-16)
(1.52392 6.99852e-06 -4.26907e-15)
(1.52733 0.000118911 -2.30811e-15)
(1.53131 0.000106969 6.10981e-16)
(1.53666 0.000216046 2.52997e-15)
(1.54209 0.000237878 5.02583e-16)
(1.54871 0.000445256 -9.10401e-16)
(1.56531 -0.000317128 -1.01895e-15)
(1.57855 -0.0114292 -2.20058e-16)
(1.54572 -0.0812138 5.2845e-16)
(0.773499 -0.202505 1.31109e-16)
(0.611091 -0.208705 2.2503e-18)
(0.693823 -0.202054 1.02319e-16)
(0.746762 -0.182458 7.16799e-17)
(0.771411 -0.148133 3.70037e-17)
(0.815771 -0.106825 -2.18597e-17)
(0.827351 -0.0627645 -6.52924e-17)
(0.880582 -0.032602 1.20369e-17)
(0.89065 -0.0229474 1.8454e-17)
(0.898222 -0.0171914 -6.11036e-17)
(0.912681 -0.00456104 -1.12047e-16)
(0.912401 0.000720052 -8.41433e-17)
(0.929101 0.00288578 -2.18968e-17)
(0.892183 0.00225647 -2.21238e-18)
(0.869817 0.0215171 -2.50445e-18)
(0.780553 0.0683156 -2.6483e-17)
(0.688029 0.145042 -8.92463e-18)
(0.610039 0.19507 3.02607e-17)
(0.568616 0.216875 -9.38954e-18)
(0.535171 0.208752 -2.05349e-17)
(0.51 0.185512 -7.64977e-18)
(0.476646 0.156455 -1.41191e-18)
(0.447502 0.130909 3.00862e-18)
(0.418111 0.115883 6.93813e-18)
(0.392127 0.100229 8.02718e-18)
(0.368965 0.0865581 6.06636e-18)
(0.345167 0.0798156 2.78842e-18)
(0.322401 0.0743318 1.94746e-19)
(0.303294 0.0681296 -8.8697e-19)
(0.287732 0.0641806 -8.08642e-19)
(0.273331 0.0622921 -5.50046e-19)
(0.259317 0.0605105 -3.48061e-19)
(0.245533 0.0591482 -2.05693e-19)
(0.231264 0.0579821 -1.53988e-19)
(0.215557 0.0564473 -3.68824e-21)
(0.198595 0.0557962 1.80842e-19)
(0.180268 0.0566735 1.49005e-19)
(0.162363 0.0581356 2.24406e-20)
(0.14636 0.060269 1.05281e-19)
(0.132294 0.0632319 1.38038e-19)
(0.119122 0.0674 -3.23788e-20)
(0.105974 0.0729041 -4.60498e-20)
(0.090625 0.0785236 -8.36441e-20)
(0.0721556 0.0847268 -5.12764e-20)
(0.0523505 0.0887435 -1.36916e-19)
(0.0354089 0.093706 -3.6164e-20)
(0.0204698 0.0965083 -1.59591e-20)
(0.0149812 0.10695 -4.40544e-21)
(1.5 -3.21042e-16 3.20944e-22)
(1.5 -3.44342e-16 -4.69691e-22)
(1.5 -5.92489e-16 -3.62444e-22)
(1.5 -9.47138e-16 -2.75911e-21)
(1.5 -1.07236e-15 -4.019e-21)
(1.5 -9.97266e-16 -8.5757e-21)
(1.5 -2.10144e-15 -6.61004e-21)
(1.5 -6.51192e-15 -2.28441e-21)
(1.5 -1.7489e-14 -1.60103e-20)
(1.5 -4.3258e-14 -1.55235e-20)
(1.5 -1.07025e-13 -7.77589e-21)
(1.5 -2.41833e-13 -2.20893e-20)
(1.5 -5.58223e-13 -2.3873e-20)
(1.5 -1.25708e-12 -1.45843e-20)
(1.5 -1.79348e-12 -1.87835e-20)
(1.5 -7.83355e-12 -1.79725e-20)
(1.5 -6.29735e-12 -1.71047e-20)
(1.5 -5.42523e-11 -1.1617e-20)
(1.5 -6.33318e-11 -1.84295e-20)
(1.5 -1.88334e-10 -1.96366e-20)
(1.5 -3.02868e-10 -1.92746e-20)
(1.5 -5.43328e-10 -1.98231e-20)
(1.5 -9.62109e-10 -1.70304e-20)
(1.5 -1.62928e-09 -1.86683e-20)
(1.5 -2.6908e-09 -1.74167e-20)
(1.5 -4.36153e-09 -1.70162e-20)
(1.5 -6.88312e-09 -1.70893e-20)
(1.5 -1.05194e-08 -2.32677e-20)
(1.50001 -1.56173e-08 -1.13002e-20)
(1.50001 -2.26099e-08 -3.67226e-20)
(1.50002 -3.18223e-08 -9.16956e-20)
(1.50002 -4.63776e-08 2.71335e-19)
(1.50004 -5.99079e-08 -2.37847e-19)
(1.50006 -6.60374e-08 -1.16459e-18)
(1.50008 -1.11323e-07 4.94715e-19)
(1.50012 -2.12246e-07 8.89047e-18)
(1.50017 -6.69494e-08 -8.06011e-18)
(1.50023 6.52472e-08 3.59895e-19)
(1.50031 -6.03007e-07 -1.30731e-16)
(1.50041 -6.13238e-07 1.30857e-17)
(1.50054 3.89054e-07 1.42211e-15)
(1.50068 -1.12449e-06 -3.79941e-16)
(1.50085 1.09167e-07 -6.34712e-15)
(1.50105 4.06902e-06 5.51844e-16)
(1.50127 -3.99823e-06 1.64369e-14)
(1.50154 -7.28892e-06 6.86056e-15)
(1.50185 3.06668e-07 -2.89079e-14)
(1.50222 -7.0516e-07 -1.78792e-14)
(1.50265 1.27472e-05 2.52551e-14)
(1.50315 -2.29965e-06 3.43674e-14)
(1.50375 -2.60445e-05 -1.2021e-14)
(1.50447 -1.60539e-06 -2.58186e-14)
(1.5052 1.08173e-05 -1.20189e-14)
(1.50618 4.7645e-06 1.16488e-14)
(1.50729 5.41261e-06 1.72855e-14)
(1.50838 -7.71776e-06 5.90334e-15)
(1.50993 -1.6095e-05 -9.70067e-15)
(1.51157 1.94256e-05 -1.03951e-14)
(1.51322 1.94248e-05 -2.87676e-15)
(1.51562 1.04595e-05 5.95276e-15)
(1.51803 1.80186e-05 5.92428e-15)
(1.5204 2.21624e-05 1.13404e-15)
(1.52408 -9.25099e-06 -3.86932e-15)
(1.52795 3.97943e-05 -3.23714e-15)
(1.53174 0.000101303 -1.10361e-16)
(1.53756 9.17316e-05 2.43616e-15)
(1.5436 0.000308644 1.07549e-15)
(1.54954 0.000200725 -6.8887e-16)
(1.56274 -0.0021936 -1.09629e-15)
(1.56697 -0.0282269 -5.0247e-16)
(1.53899 -0.231182 4.17195e-16)
(0.834998 -0.466136 2.368e-16)
(0.660032 -0.317903 -5.40155e-17)
(0.714006 -0.252132 1.29009e-17)
(0.763476 -0.196637 9.93353e-17)
(0.765531 -0.145729 6.49184e-17)
(0.82404 -0.104978 5.31402e-18)
(0.82834 -0.0579705 -2.66463e-17)
(0.885966 -0.0266103 1.33834e-17)
(0.892067 -0.0095014 1.65764e-18)
(0.889266 -0.003615 -5.30773e-17)
(0.901475 0.0129542 -9.03508e-17)
(0.884915 0.0190855 -7.7137e-17)
(0.876592 0.0222855 -3.84125e-17)
(0.807829 0.0337673 -2.33002e-17)
(0.742989 0.0665072 -2.40261e-17)
(0.651522 0.141393 -2.71161e-17)
(0.573767 0.199324 2.43337e-17)
(0.528961 0.227263 5.30101e-18)
(0.50115 0.236258 -2.12102e-17)
(0.480649 0.225076 -1.78948e-17)
(0.462836 0.20222 -6.04053e-18)
(0.439224 0.175106 2.6678e-18)
(0.415732 0.150656 7.11171e-18)
(0.392072 0.135774 8.46904e-18)
(0.372909 0.119421 7.85012e-18)
(0.353522 0.10651 4.81906e-18)
(0.331492 0.100882 1.52127e-18)
(0.310046 0.0928551 -4.62999e-19)
(0.292884 0.0852099 -9.31625e-19)
(0.277371 0.0808981 -6.6344e-19)
(0.262532 0.0782165 -6.02751e-19)
(0.248051 0.0755455 -3.83642e-19)
(0.233401 0.0737538 -2.58392e-19)
(0.217621 0.0715047 -2.0218e-19)
(0.201501 0.0695552 5.5012e-20)
(0.184421 0.0692224 1.38308e-19)
(0.166217 0.070259 8.87847e-20)
(0.148736 0.0718755 5.83701e-20)
(0.133689 0.0744093 1.26113e-20)
(0.120523 0.0774894 7.81094e-20)
(0.108345 0.0820703 -2.03283e-19)
(0.0964877 0.0882679 -1.53269e-19)
(0.0824206 0.0935288 -6.3654e-20)
(0.0648374 0.09951 -5.75857e-20)
(0.0464538 0.102978 3.0344e-20)
(0.0318264 0.108098 -6.81861e-20)
(0.0196527 0.111296 -3.58248e-20)
(0.0165186 0.120207 -1.65773e-20)
(1.5 -1.22938e-16 1.02245e-21)
(1.5 -6.22971e-16 -2.53942e-22)
(1.5 -6.29525e-16 -1.5093e-21)
(1.5 -9.54242e-16 -3.26681e-21)
(1.5 -1.08059e-15 2.58026e-22)
(1.5 -1.46557e-15 4.89607e-22)
(1.5 -2.75691e-15 -6.98691e-21)
(1.5 -7.25105e-15 3.2287e-21)
(1.5 -2.07897e-14 -1.00487e-20)
(1.5 -5.2479e-14 -1.18739e-20)
(1.5 -1.30921e-13 -1.24663e-20)
(1.5 -2.88638e-13 -8.76792e-21)
(1.5 -6.96175e-13 -1.59077e-21)
(1.5 -1.48869e-12 -1.86196e-20)
(1.5 -2.24438e-12 -2.34329e-20)
(1.5 -1.07299e-11 -2.15245e-20)
(1.5 7.56262e-12 -8.54193e-21)
(1.5 -8.67772e-11 -1.34631e-20)
(1.5 -7.40916e-11 -1.29125e-20)
(1.5 -2.01824e-10 -6.90412e-21)
(1.5 -3.62423e-10 -9.58308e-21)
(1.5 -6.65495e-10 -1.30247e-20)
(1.5 -1.16716e-09 -1.56256e-20)
(1.5 -1.96392e-09 -1.61725e-20)
(1.5 -3.22438e-09 -2.60035e-20)
(1.5 -5.22639e-09 -2.66557e-20)
(1.5 -8.26058e-09 -2.60919e-20)
(1.5 -1.27255e-08 -2.55213e-20)
(1.50001 -1.87192e-08 -2.09743e-20)
(1.50001 -2.72378e-08 -3.65044e-20)
(1.50001 -3.78301e-08 -5.15093e-20)
(1.50002 -5.41236e-08 1.66313e-20)
(1.50004 -6.99069e-08 -2.41018e-19)
(1.50006 -9.01397e-08 2.03085e-18)
(1.50008 -1.10234e-07 -5.84103e-18)
(1.50012 -2.08252e-07 -4.1387e-18)
(1.50017 -1.47558e-07 3.96857e-17)
(1.50023 -2.63164e-08 2.8314e-17)
(1.50031 -3.66948e-07 -3.18922e-16)
(1.5004 -6.46659e-07 -1.15705e-16)
(1.50052 -6.90808e-08 1.821e-15)
(1.50066 -7.90185e-07 2.78975e-16)
(1.50083 1.63413e-07 -7.03528e-15)
(1.50103 3.10184e-06 -2.46898e-15)
(1.50125 -1.50056e-06 1.43242e-14)
(1.50151 -8.2228e-06 1.21908e-14)
(1.50181 -3.46943e-06 -2.44753e-14)
(1.50216 4.96086e-06 -1.43708e-14)
(1.50261 1.28567e-05 1.12947e-14)
(1.50311 -3.28088e-08 2.16178e-14)
(1.50364 -1.20384e-05 5.11322e-15)
(1.50439 -1.83449e-05 -1.56927e-14)
(1.50514 6.59987e-07 -1.17601e-14)
(1.50603 5.02615e-06 7.07624e-16)
(1.50718 6.16377e-06 1.25338e-14)
(1.50828 4.28085e-06 9.74517e-15)
(1.50976 -8.04662e-06 -4.37005e-15)
(1.51144 5.30306e-07 -8.82912e-15)
(1.51304 1.13612e-05 -5.17377e-15)
(1.51542 1.86885e-05 3.12697e-15)
(1.51785 2.78966e-05 5.74898e-15)
(1.52017 2.56286e-05 2.31876e-15)
(1.52387 -1.48185e-05 -2.45466e-15)
(1.52763 -4.28078e-05 -3.30498e-15)
(1.53129 2.18645e-05 3.48603e-17)
(1.53629 -1.48761e-06 1.80459e-15)
(1.54331 0.000288838 1.43963e-15)
(1.55048 -0.000309302 -3.45018e-16)
(1.56056 -0.0063474 -1.13945e-15)
(1.55733 -0.0614477 -6.79527e-16)
(1.44447 -0.404186 5.08493e-16)
(0.836079 -0.626814 2.54817e-16)
(0.71175 -0.441241 -8.69067e-17)
(0.709878 -0.309229 -8.80656e-17)
(0.762018 -0.218201 8.06705e-17)
(0.748257 -0.147157 5.02428e-17)
(0.818109 -0.103163 8.38755e-18)
(0.818251 -0.0538797 1.76247e-17)
(0.880412 -0.0176875 4.23442e-17)
(0.875285 0.00649901 1.02333e-17)
(0.861783 0.017086 -4.65481e-17)
(0.861915 0.0363741 -6.52356e-17)
(0.817113 0.0399186 -6.1987e-17)
(0.775141 0.0515239 -4.67424e-17)
(0.685917 0.0926667 -4.27782e-17)
(0.604897 0.147295 -4.04533e-17)
(0.532577 0.202462 7.97183e-18)
(0.488968 0.235341 1.76187e-17)
(0.46435 0.249552 -2.11348e-17)
(0.444355 0.24902 -2.59139e-17)
(0.431466 0.236113 -1.12285e-17)
(0.414712 0.215006 2.14531e-18)
(0.399392 0.188659 7.83173e-18)
(0.379904 0.168156 9.60362e-18)
(0.364284 0.152273 9.65212e-18)
(0.350304 0.136054 6.673e-18)
(0.331934 0.125567 3.01772e-18)
(0.310245 0.117993 5.61882e-19)
(0.291966 0.108157 -5.02637e-19)
(0.277383 0.099722 -6.26212e-19)
(0.26246 0.0960297 -6.78735e-19)
(0.248149 0.0933463 -5.7051e-19)
(0.234285 0.0911029 -3.89449e-19)
(0.218838 0.0885739 -2.42129e-19)
(0.202832 0.0857273 -1.8219e-19)
(0.187338 0.084082 3.03096e-20)
(0.170993 0.0838131 7.76604e-20)
(0.153503 0.0846119 5.5512e-20)
(0.136919 0.0862478 -4.3082e-20)
(0.122715 0.0886487 -7.12465e-21)
(0.110373 0.0915427 -6.98737e-20)
(0.0995541 0.0963085 -4.62009e-20)
(0.0886063 0.102489 -2.24923e-19)
(0.075467 0.107386 -8.01401e-20)
(0.0590533 0.112603 8.24039e-21)
(0.0421719 0.115568 -4.43556e-20)
(0.0296275 0.12047 -4.53799e-20)
(0.0198154 0.123942 9.69455e-21)
(0.0183355 0.131493 9.16314e-20)
(1.5 -3.42288e-17 -3.72698e-21)
(1.5 -3.27687e-16 -1.50736e-21)
(1.5 -6.38286e-16 -1.99743e-21)
(1.5 -8.12452e-16 -5.17564e-21)
(1.5 -9.89579e-16 -6.37985e-21)
(1.5 -1.71093e-15 -5.28151e-21)
(1.5 -4.64e-15 -2.59784e-21)
(1.5 -1.00972e-14 -1.781e-20)
(1.5 -2.60059e-14 -1.33725e-20)
(1.5 -6.21125e-14 -1.62159e-20)
(1.5 -1.51748e-13 -1.3051e-20)
(1.5 -3.45626e-13 -1.23026e-20)
(1.5 -8.21685e-13 6.95261e-22)
(1.5 -1.74647e-12 2.15016e-20)
(1.5 -3.15886e-12 2.24518e-20)
(1.5 -1.09255e-11 1.39183e-20)
(1.5 -7.23731e-13 6.25642e-21)
(1.5 -9.12849e-11 -7.98313e-21)
(1.5 -1.3654e-10 -6.00919e-21)
(1.5 -1.62405e-10 4.15682e-21)
(1.5 -4.73921e-10 -1.19882e-20)
(1.5 -8.10742e-10 -1.89115e-20)
(1.5 -1.39349e-09 -1.9014e-20)
(1.5 -2.33995e-09 -1.97648e-20)
(1.5 -3.81518e-09 -9.27863e-21)
(1.5 -6.17888e-09 -1.49679e-20)
(1.5 -9.84094e-09 -1.81697e-20)
(1.5 -1.52367e-08 -2.07134e-20)
(1.5 -2.26943e-08 -1.39988e-20)
(1.50001 -3.27701e-08 -2.94406e-20)
(1.50001 -4.61386e-08 4.65618e-20)
(1.50002 -6.39809e-08 -3.23898e-19)
(1.50004 -8.38764e-08 3.00055e-19)
(1.50005 -1.15267e-07 1.7136e-18)
(1.50008 -1.44618e-07 -2.94374e-18)
(1.50011 -1.74847e-07 -1.18931e-17)
(1.50016 -2.5586e-07 1.69775e-17)
(1.50022 -2.16212e-07 8.06159e-17)
(1.5003 -1.04267e-07 -6.49366e-17)