/*--------------------------------*- C++ -*----------------------------------*\
| =========                 |                                                 |
| \\      /  F ield         | OpenFOAM: The Open Source CFD Toolbox           |
|  \\    /   O peration     | Version:  2.2.x                                 |
|   \\  /    A nd           | Web:      www.OpenFOAM.org                      |
|    \\/     M anipulation  |                                                 |
\*---------------------------------------------------------------------------*/
FoamFile
{
    version     2.0;
    format      ascii;
    class       volScalarField;
    location    "1.9";
    object      p;
}
// * * * * * * * * * * * * * * * * * * * * * * * * * * * * * * * * * * * * * //

dimensions      [1 -1 -2 0 0 0 0];

internalField   nonuniform List<scalar> 
14161
(
0.191613
0.192285
0.191951
0.191586
0.191114
0.190579
0.18994
0.189207
0.188475
0.187602
0.186694
0.185812
0.184843
0.183837
0.182901
0.181924
0.181
0.180174
0.179395
0.178665
0.178056
0.177553
0.177083
0.176744
0.176574
0.176501
0.176469
0.176484
0.176529
0.176589
0.176659
0.17667
0.176662
0.176376
0.175631
0.173474
0.171315
0.173034
0.200755
0.641647
1.17449
1.07106
1.00937
1.04326
1.06789
1.08988
1.11274
1.13147
1.15024
1.16983
1.18283
1.18507
1.18651
1.18474
1.17798
1.16995
1.16232
1.15407
1.14551
1.13631
1.12838
1.12098
1.11358
1.10647
1.09997
1.09422
1.08915
1.08496
1.08195
1.07916
1.0768
1.07563
1.07491
1.07412
1.07242
1.07112
1.07128
1.0742
1.07832
1.08762
1.10432
1.12756
1.14761
1.16587
1.18114
1.19112
1.19731
1.20964
1.2248
1.24377
1.25433
1.25962
1.26728
1.27002
1.27491
1.27816
1.27641
1.27455
1.28113
1.29742
1.31925
1.34597
1.37791
1.41668
1.45995
1.50824
1.5616
1.62101
1.67661
1.73227
1.78226
1.83255
1.87309
1.91411
1.94462
1.97095
1.98891
2.00405
2.01903
0.191599
0.192273
0.191938
0.191566
0.191108
0.190565
0.189927
0.189197
0.188459
0.187596
0.186678
0.185784
0.184824
0.183821
0.18288
0.181914
0.180979
0.18015
0.179363
0.178637
0.178019
0.177508
0.177037
0.176702
0.176537
0.176441
0.17638
0.176355
0.176327
0.176264
0.176114
0.175808
0.175179
0.174197
0.172113
0.168
0.159805
0.148246
0.253452
1.01131
1.32065
1.33151
1.32226
1.36406
1.38427
1.39529
1.40181
1.40213
1.39995
1.39252
1.38659
1.37102
1.3519
1.33485
1.31872
1.29972
1.28072
1.26351
1.24715
1.23122
1.21697
1.20373
1.19115
1.17949
1.17036
1.16283
1.15651
1.15132
1.14751
1.14464
1.14238
1.14156
1.14152
1.14274
1.1443
1.14688
1.15287
1.1573
1.16732
1.19388
1.2223
1.23998
1.25346
1.27022
1.28757
1.28638
1.27921
1.29228
1.32183
1.34742
1.38921
1.4322
1.46561
1.49092
1.51987
1.5436
1.564
1.58644
1.61226
1.63204
1.65015
1.67085
1.69702
1.72172
1.7453
1.77581
1.80336
1.83118
1.85616
1.88237
1.90539
1.93116
1.95198
1.97476
1.99097
2.00384
2.0105
2.01773
2.02856
0.191596
0.192267
0.191934
0.191567
0.191103
0.190557
0.189921
0.189193
0.18844
0.18758
0.186671
0.185781
0.184832
0.183822
0.18286
0.181874
0.180956
0.180144
0.179385
0.178656
0.178011
0.177483
0.177001
0.17666
0.176506
0.176441
0.176438
0.176524
0.176657
0.176857
0.177141
0.177588
0.178268
0.179296
0.181194
0.18397
0.188775
0.191714
0.506102
1.3331
1.54938
1.60275
1.60313
1.60388
1.59212
1.5721
1.54386
1.52718
1.49245
1.46091
1.43939
1.42059
1.38727
1.35852
1.33941
1.31569
1.29227
1.2706
1.25282
1.23537
1.21952
1.20543
1.19512
1.18628
1.17878
1.17237
1.16752
1.16378
1.16085
1.15894
1.1579
1.15832
1.16085
1.16348
1.16792
1.17089
1.1773
1.18841
1.20732
1.22307
1.23233
1.26593
1.30246
1.30333
1.30625
1.34032
1.38354
1.39829
1.45169
1.56684
1.63516
1.6953
1.75474
1.78902
1.81575
1.84071
1.86094
1.87194
1.87797
1.8867
1.89784
1.90558
1.91019
1.92452
1.93825
1.94286
1.95104
1.95817
1.9618
1.96692
1.97132
1.9782
1.98262
1.99086
1.99448
1.99936
2.00121
2.00585
2.01552
0.191585
0.192255
0.191922
0.191554
0.191076
0.190542
0.189911
0.189194
0.188409
0.187571
0.186646
0.185737
0.184819
0.183819
0.182829
0.181826
0.180908
0.180084
0.179325
0.178608
0.177971
0.177421
0.176935
0.176579
0.176401
0.176288
0.176202
0.176142
0.176061
0.175903
0.175576
0.175055
0.174294
0.173164
0.171647
0.169652
0.169717
0.165949
0.664151
1.46438
1.65034
1.72037
1.69424
1.66989
1.63553
1.60234
1.56514
1.54768
1.51018
1.46782
1.44079
1.4298
1.39158
1.35703
1.33482
1.31101
1.28501
1.26266
1.24256
1.22548
1.20989
1.19601
1.18201
1.1695
1.15908
1.15117
1.14546
1.14047
1.13725
1.13567
1.13463
1.13508
1.13781
1.13937
1.14185
1.14419
1.14787
1.15768
1.17076
1.20426
1.23445
1.25241
1.27977
1.34
1.37357
1.37562
1.40264
1.51829
1.5984
1.62653
1.70491
1.76834
1.80453
1.84978
1.88312
1.89632
1.9148
1.93044
1.93789
1.94004
1.94424
1.95253
1.95891
1.96252
1.96868
1.97139
1.97593
1.97855
1.97991
1.98348
1.98492
1.98692
1.98694
1.9896
1.9907
1.99394
1.99554
1.99702
2.0079
0.191584
0.192249
0.191916
0.191549
0.19108
0.190516
0.189897
0.189186
0.188403
0.18756
0.186644
0.185711
0.184775
0.183823
0.182819
0.181851
0.18092
0.180055
0.179222
0.178503
0.177911
0.177389
0.176909
0.176534
0.176363
0.176287
0.176308
0.176416
0.176621
0.176921
0.177415
0.178221
0.17955
0.181721
0.185313
0.19105
0.201913
0.196959
0.866259
1.50781
1.68363
1.72127
1.68788
1.65421
1.6174
1.5958
1.53986
1.50121
1.48596
1.4578
1.4148
1.38075
1.36171
1.33443
1.30518
1.27995
1.25622
1.23623
1.21799
1.20131
1.18692
1.17357
1.16244
1.15314
1.14494
1.1391
1.13449
1.1319
1.13054
1.1301
1.13068
1.13256
1.13603
1.1393
1.14268
1.14646
1.15375
1.15991
1.16866
1.18408
1.20334
1.23656
1.26902
1.28967
1.31319
1.37636
1.45141
1.47046
1.50887
1.61835
1.67073
1.71698
1.79539
1.83363
1.87038
1.90468
1.92772
1.93722
1.94439
1.95302
1.95953
1.95959
1.96357
1.97126
1.97334
1.97347
1.97674
1.97756
1.9785
1.982
1.9824
1.98502
1.98496
1.98856
1.98845
1.99246
1.99466
1.99614
2.00427
0.191576
0.192239
0.191905
0.191535
0.191065
0.190506
0.189877
0.189156
0.18835
0.187543
0.186639
0.185677
0.184737
0.183774
0.182751
0.181789
0.180865
0.179984
0.17915
0.178421
0.177816
0.177284
0.176787
0.176397
0.176185
0.176044
0.175945
0.175854
0.175734
0.175517
0.175114
0.174477
0.173577
0.172296
0.170763
0.168754
0.168953
0.15983
0.730508
1.42455
1.6458
1.69899
1.63654
1.59052
1.54404
1.51383
1.47044
1.43197
1.39541
1.37013
1.34957
1.3228
1.29855
1.28348
1.2626
1.24768
1.23155
1.21847
1.20362
1.19337
1.18146
1.17266
1.16203
1.15441
1.14797
1.14301
1.13936
1.1372
1.13601
1.13564
1.13686
1.13847
1.14311
1.14625
1.14989
1.15207
1.1601
1.16209
1.17311
1.17857
1.2043
1.22526
1.24571
1.27192
1.30755
1.34454
1.3664
1.42951
1.45957
1.51626
1.57486
1.63504
1.69462
1.75893
1.82676
1.86332
1.89607
1.92245
1.93712
1.94285
1.94851
1.95875
1.96546
1.96281
1.96447
1.97073
1.9735
1.97516
1.97803
1.98248
1.98301
1.98612
1.98531
1.98852
1.98789
1.99207
1.99386
1.99568
2.00202
0.191576
0.192234
0.191899
0.191528
0.191055
0.190489
0.189866
0.189151
0.188335
0.187509
0.186624
0.185641
0.184706
0.183757
0.182701
0.181748
0.180823
0.179918
0.179099
0.178356
0.177738
0.177177
0.176656
0.176269
0.176088
0.176009
0.176029
0.176146
0.176364
0.176677
0.177184
0.177981
0.179187
0.180919
0.183723
0.187633
0.193289
0.193805
0.523882
1.23994
1.51241
1.53737
1.46772
1.42554
1.39098
1.36513
1.34329
1.3242
1.29898
1.28652
1.26961
1.25725
1.24339
1.23436
1.21774
1.21002
1.19425
1.18749
1.17196
1.16592
1.15262
1.14733
1.13587
1.13131
1.12418
1.12123
1.1184
1.11705
1.11672
1.11859
1.11948
1.12381
1.12649
1.13271
1.13446
1.13783
1.1371
1.14905
1.15045
1.17059
1.17841
1.2072
1.2264
1.25563
1.26922
1.31119
1.32872
1.3845
1.38844
1.43229
1.4802
1.51653
1.57626
1.63994
1.72183
1.798
1.8559
1.89003
1.91135
1.92906
1.94319
1.94864
1.95298
1.95368
1.95499
1.95609
1.96126
1.96716
1.97194
1.97851
1.98067
1.98277
1.98243
1.98646
1.98661
1.99215
1.99404
1.99608
2.00141
0.191569
0.192225
0.191887
0.191513
0.191038
0.19047
0.189842
0.189128
0.188307
0.187483
0.18659
0.185591
0.184658
0.183709
0.182621
0.18167
0.180747
0.179812
0.178998
0.178223
0.17759
0.177017
0.176486
0.176073
0.175825
0.175669
0.175568
0.175489
0.175373
0.175135
0.174719
0.174052
0.1729
0.171124
0.168137
0.163099
0.153513
0.142715
0.222663
0.818601
1.21064
1.22731
1.19573
1.19416
1.19843
1.21144
1.21533
1.22246
1.21303
1.22536
1.21307
1.22446
1.21023
1.21119
1.1943
1.19157
1.17515
1.17097
1.1558
1.15085
1.13815
1.13391
1.12276
1.11899
1.1127
1.11032
1.10858
1.10859
1.10914
1.11138
1.11278
1.11638
1.1197
1.12613
1.12775
1.12968
1.12751
1.13924
1.13879
1.16041
1.16726
1.1975
1.21067
1.24127
1.25842
1.28931
1.30517
1.33965
1.35413
1.36448
1.39527
1.42726
1.47792
1.52931
1.60515
1.68716
1.76904
1.83537
1.87897
1.90496
1.9221
1.93288
1.94222
1.94288
1.94156
1.94096
1.94378
1.95171
1.96119
1.97197
1.97657
1.98018
1.98038
1.98485
1.98577
1.99184
1.99454
1.99721
2.00233
0.191569
0.19222
0.19188
0.191505
0.191027
0.190454
0.189823
0.18911
0.188283
0.187447
0.186569
0.18555
0.184613
0.183666
0.182559
0.181604
0.180674
0.179725
0.178901
0.178108
0.177458
0.176855
0.1763
0.175893
0.175648
0.175549
0.175545
0.175669
0.17585
0.176117
0.176529
0.177107
0.177832
0.178659
0.179368
0.178812
0.177282
0.177212
0.201956
0.415836
1.30764
1.25388
1.18841
1.18984
1.19361
1.19923
1.2047
1.21432
1.20955
1.21992
1.20893
1.21706
1.19962
1.19857
1.18436
1.17921
1.16397
1.15861
1.14406
1.13827
1.12596
1.12036
1.10975
1.10478
1.09855
1.09561
1.09347
1.09293
1.09271
1.09329
1.0955
1.09737
1.10267
1.10673
1.10955
1.11064
1.11024
1.12147
1.12233
1.14717
1.15584
1.18813
1.20228
1.23181
1.24836
1.28023
1.30434
1.32184
1.33721
1.33691
1.34522
1.36847
1.40603
1.44583
1.50935
1.58494
1.6763
1.76251
1.83207
1.87376
1.90428
1.92001
1.93142
1.93372
1.9339
1.93047
1.92848
1.93482
1.94468
1.95749
1.96707
1.97559
1.9773
1.98164
1.98401
1.99088
1.9945
1.99751
2.00298
0.191563
0.192212
0.191869
0.19149
0.191009
0.190437
0.189795
0.189081
0.188256
0.187411
0.186532
0.1855
0.18455
0.183598
0.182487
0.181517
0.180569
0.179601
0.178751
0.177922
0.177256
0.176634
0.176062
0.175615
0.175295
0.175112
0.175018
0.174977
0.174909
0.174781
0.174586
0.174262
0.173664
0.172615
0.171198
0.169187
0.165897
0.164892
0.17076
0.746132
1.49136
1.35799
1.30376
1.27569
1.26807
1.25847
1.25808
1.25364
1.25227
1.25124
1.2417
1.24103
1.22609
1.22115
1.20389
1.19578
1.17858
1.17001
1.15412
1.14581
1.13237
1.12594
1.11469
1.10972
1.10491
1.10215
1.10065
1.09984
1.09959
1.09956
1.10217
1.10423
1.10927
1.11231
1.1141
1.11431
1.1134
1.12439
1.12332
1.14807
1.1565
1.19201
1.20885
1.23896
1.24961
1.30375
1.30672
1.33966
1.33149
1.34126
1.32457
1.32883
1.35819
1.38903
1.44163
1.50665
1.58863
1.68025
1.77196
1.83894
1.88029
1.90217
1.9186
1.92431
1.9264
1.92408
1.91853
1.92157
1.92737
1.9397
1.95161
1.96686
1.97182
1.97855
1.98232
1.98962
1.99438
1.99753
2.00376
0.191561
0.192207
0.191861
0.191479
0.190995
0.190421
0.189771
0.189059
0.188234
0.187371
0.186494
0.185463
0.184488
0.183522
0.18244
0.181427
0.180452
0.179494
0.178602
0.177776
0.177058
0.176406
0.175799
0.175342
0.175012
0.174878
0.174861
0.174949
0.175095
0.175377
0.175815
0.176384
0.177189
0.178414
0.179927
0.181623
0.183905
0.187831
0.209995
1.10131
1.53912
1.51839
1.44668
1.39464
1.37108
1.34993
1.33878
1.32705
1.32045
1.30367
1.29666
1.27839
1.26789
1.25037
1.23722
1.21553
1.20185
1.18642
1.1683
1.15736
1.14114
1.13323
1.1214
1.11587
1.10882
1.10494
1.1015
1.09918
1.09748
1.09652
1.09617
1.0997
1.10253
1.10613
1.10682
1.10775
1.10636
1.11501
1.11542
1.14281
1.15378
1.19004
1.21858
1.25205
1.28887
1.30454
1.34329
1.33565
1.35379
1.33845
1.33764
1.31633
1.33141
1.35584
1.39895
1.45268
1.52254
1.60905
1.70562
1.78865
1.85068
1.88253
1.90411
1.91442
1.91817
1.91631
1.91088
1.90582
1.90743
1.91879
1.93029
1.95044
1.96176
1.97415
1.98055
1.98753
1.99418
1.99674
2.00447
0.191555
0.192199
0.19185
0.191463
0.190975
0.190401
0.189741
0.189025
0.188207
0.18732
0.186427
0.185424
0.184406
0.183411
0.182382
0.181304
0.180316
0.179353
0.178393
0.177562
0.176791
0.176098
0.175473
0.174957
0.174557
0.174339
0.174229
0.174206
0.174241
0.174356
0.174489
0.174749
0.175203
0.175764
0.17688
0.179006
0.182959
0.190593
0.237767
1.23223
1.54632
1.54154
1.47047
1.42561
1.40017
1.37964
1.36365
1.3501
1.33957
1.32051
1.31177
1.29083
1.28004
1.25742
1.24436
1.2232
1.20856
1.18696
1.1723
1.15945
1.1414
1.13291
1.12149
1.1176
1.11078
1.10904
1.10433
1.1029
1.10116
1.10037
1.1003
1.1022
1.10609
1.1087
1.11217
1.11309
1.1163
1.11367
1.13758
1.14422
1.18649
1.20013
1.25669
1.27451
1.33207
1.32869
1.36099
1.35038
1.36534
1.35236
1.3526
1.33778
1.32956
1.34181
1.37208
1.41406
1.47044
1.54235
1.63285
1.72998
1.81293
1.8605
1.8893
1.90753
1.91584
1.91523
1.90953
1.90013
1.89455
1.89922
1.90743
1.9292
1.94722
1.96699
1.97796
1.9848
1.99396
1.99537
2.00481
0.191552
0.192193
0.191841
0.19145
0.190959
0.190381
0.189708
0.188988
0.188177
0.187275
0.186357
0.185397
0.184326
0.183312
0.182298
0.18117
0.180172
0.179213
0.178203
0.177343
0.17653
0.175795
0.175135
0.174573
0.17416
0.173941
0.173884
0.173946
0.174097
0.174434
0.174897
0.175727
0.176852
0.178186
0.180239
0.183091
0.187093
0.192646
0.237651
1.22297
1.52745
1.52624
1.47477
1.4292
1.40584
1.38732
1.36822
1.35118
1.33841
1.31747
1.30709
1.2841
1.27317
1.24919
1.23665
1.21159
1.19867
1.17266
1.16023
1.13721
1.1267
1.108
1.09869
1.09123
1.08343
1.07969
1.07497
1.07412
1.07201
1.07265
1.07313
1.0755
1.07975
1.08257
1.08728
1.08815
1.09021
1.08336
1.1124
1.12103
1.17443
1.19396
1.25877
1.27289
1.32001
1.31322
1.34301
1.33408
1.35805
1.35008
1.36203
1.34614
1.35309
1.34653
1.36206
1.39196
1.43778
1.49945
1.58011
1.67741
1.7729
1.8404
1.8763
1.8975
1.90894
1.9101
1.90531
1.89494
1.8833
1.88337
1.88587
1.90439
1.92396
1.95183
1.96803
1.97983
1.99382
1.99357
2.00367
0.191544
0.192184
0.191828
0.191432
0.190936
0.190357
0.189675
0.188938
0.188145
0.187216
0.186289
0.185338
0.184223
0.183201
0.182192
0.181009
0.179988
0.179021
0.177966
0.177038
0.176223
0.175444
0.1747
0.174092
0.173608
0.173257
0.173105
0.173077
0.173151
0.173355
0.173761
0.174432
0.175305
0.176404
0.178106
0.180684
0.18271
0.185742
0.220385
1.17725
1.49597
1.49689
1.45098
1.40629
1.38031
1.35867
1.33607
1.31609
1.30082
1.27892
1.26772
1.24199
1.2312
1.2064
1.19673
1.17133
1.16169
1.1336
1.12364
1.09887
1.09309
1.07258
1.06844
1.05532
1.05246
1.04542
1.04314
1.04083
1.03922
1.039
1.03973
1.0434
1.04645
1.0526
1.0573
1.06039
1.06414
1.06231
1.09815
1.11021
1.1799
1.2059
1.26512
1.27506
1.32014
1.30728
1.33555
1.3285
1.35187
1.35059
1.37498
1.37005
1.36126
1.37141
1.36776
1.38524
1.41662
1.46714
1.53808
1.62443
1.72338
1.80736
1.85706
1.88339
1.89947
1.90358
1.90127
1.89332
1.87746
1.87153
1.86978
1.88222
1.89928
1.9341
1.9575
1.97632
1.99256
1.99154
2.00294
0.191539
0.192176
0.191817
0.191417
0.190915
0.190331
0.189643
0.188895
0.188108
0.187157
0.186222
0.185277
0.184127
0.183086
0.182075
0.18087
0.179784
0.1788
0.177753
0.176714
0.175868
0.175071
0.174229
0.173577
0.173062
0.172666
0.172469
0.172434
0.17254
0.172822
0.173355
0.174219
0.175178
0.176357
0.177913
0.179666
0.180564
0.182943
0.220656
1.16782
1.45785
1.46132
1.41326
1.36802
1.33747
1.31988
1.30001
1.27788
1.26382
1.24474
1.23503
1.20791
1.1991
1.1728
1.16548
1.13982
1.13323
1.10153
1.09273
1.06595
1.06316
1.04215
1.04004
1.02659
1.02617
1.01753
1.01871
1.01322
1.01168
1.01116
1.01043
1.01092
1.01499
1.01825
1.02452
1.02585
1.03208
1.03122
1.06976
1.08507
1.17374
1.20729
1.23618
1.23803
1.27549
1.27287
1.30431
1.30445
1.32104
1.32464
1.34492
1.35363
1.37305
1.36987
1.38364
1.38837
1.41038
1.44447
1.49639
1.57129
1.66366
1.76099
1.8289
1.86467
1.88723
1.8964
1.89765
1.89009
1.87551
1.86218
1.85556
1.86213
1.87384
1.91258
1.94324
1.96714
1.98859
1.98906
2.00195
0.191529
0.192165
0.191803
0.191397
0.190888
0.190303
0.18961
0.188847
0.188062
0.187091
0.186141
0.185191
0.184026
0.182945
0.181912
0.180725
0.179558
0.178543
0.1775
0.176343
0.175439
0.174622
0.173722
0.172944
0.172377
0.171905
0.171535
0.171331
0.171358
0.171505
0.171831
0.172481
0.173465
0.174526
0.176259
0.179257
0.183449
0.189795
0.237314
1.19983
1.45766
1.45844
1.40965
1.36048
1.32725
1.30689
1.28358
1.25792
1.24485
1.22606
1.21735
1.188
1.18045
1.15108
1.14521
1.11661
1.1147
1.07794
1.07277
1.03994
1.03877
1.02012
1.0184
1.00413
1.00434
0.996916
0.998889
0.994645
0.993794
0.992392
0.992078
0.991914
0.995641
0.998672
1.00239
1.00423
0.996193
1.01916
1.03477
1.11747
1.17594
1.21374
1.25282
1.24328
1.26046
1.25262
1.27739
1.28752
1.30267
1.32132
1.33651
1.3452
1.36379
1.37025
1.36711
1.38042
1.39678
1.42663
1.47265
1.53459
1.62043
1.72427
1.80963
1.85486
1.88068
1.89039
1.89384
1.88546
1.8733
1.85284
1.84346
1.84435
1.85297
1.88983
1.92447
1.95814
1.98389
1.98461
1.99946
0.19152
0.192155
0.191789
0.191379
0.190864
0.190274
0.189576
0.188796
0.188006
0.187032
0.186053
0.185085
0.183943
0.182805
0.181732
0.180573
0.17932
0.178258
0.177211
0.175995
0.174976
0.174109
0.173219
0.172269
0.171602
0.171123
0.170687
0.170304
0.170242
0.170351
0.170557
0.171034
0.171853
0.17285
0.173878
0.175585
0.178878
0.183798
0.222646
1.16263
1.43196
1.42796
1.38209
1.32871
1.29739
1.27305
1.2517
1.22331
1.21302
1.18781
1.18215
1.1509
1.14692
1.11433
1.11208
1.0835
1.09245
1.05642
1.05178
1.01426
1.00999
1.00584
0.996162
0.990185
0.986051
0.983932
0.983634
0.981895
0.98124
0.980824
0.981131
0.980889
0.984165
0.984286
0.989937
0.984169
0.985121
0.996727
1.06257
1.14824
1.20786
1.19816
1.23599
1.24648
1.26204
1.25549
1.24657
1.24918
1.26618
1.28907
1.30821
1.32861
1.34083
1.3608
1.37276
1.36834
1.38678
1.40918
1.4489
1.5024
1.58284
1.683
1.7812
1.84193
1.8727
1.88542
1.8905
1.8826
1.87033
1.84887
1.83402
1.83108
1.83436
1.86745
1.9014
1.94182
1.97307
1.97664
1.99276
0.191508
0.192142
0.191772
0.191357
0.190834
0.190241
0.18954
0.188742
0.187938
0.186979
0.185957
0.184954
0.183862
0.182643
0.181535
0.180393
0.17906
0.17792
0.176851
0.175662
0.174475
0.173521
0.172619
0.171576
0.170714
0.170096
0.169613
0.169018
0.168531
0.168382
0.168372
0.168466
0.168829
0.169366
0.170224
0.171204
0.172585
0.174534
0.204909
1.00866
1.3192
1.31452
1.28948
1.24762
1.2364
1.20965
1.20129
1.17584
1.17034
1.14349
1.14274
1.11301
1.11223
1.08125
1.08711
1.05702
1.07072
1.03582
1.0341
0.985444
0.995923
0.983514
0.986559
0.971896
0.971716
0.972268
0.971577
0.969971
0.970227
0.971566
0.973039
0.97468
0.976321
0.976221
0.982581
0.982122
0.991195
1.01685
1.1212
1.19597
1.2267
1.24885
1.2182
1.21016
1.23432
1.24858
1.24794
1.25557
1.25208
1.25633
1.259
1.28336
1.30771
1.3309
1.34804
1.36423
1.37251
1.3966
1.42602
1.47396
1.54332
1.63793
1.74417
1.81821
1.85595
1.87485
1.88245
1.87715
1.86453
1.84604
1.82633
1.82021
1.81732
1.8458
1.87616
1.92416
1.96116
1.96922
1.98705
0.191495
0.192128
0.191755
0.191334
0.190804
0.190203
0.189501
0.18869
0.187854
0.18693
0.185854
0.18482
0.183754
0.18248
0.181315
0.180159
0.178818
0.177562
0.176446
0.175282
0.173933
0.172857
0.171927
0.1709
0.169767
0.168986
0.168427
0.167843
0.167103
0.166514
0.166318
0.166146
0.165959
0.165899
0.16545
0.163227
0.157157
0.155109
0.182301
0.874433
1.14809
1.1776
1.19083
1.17996
1.18601
1.16364
1.16941
1.13795
1.13788
1.10752
1.11967
1.08589
1.0907
1.05772
1.06923
1.04118
1.05645
1.02254
1.02084
0.972133
0.984287
0.974743
0.975593
0.960917
0.963663
0.962217
0.96103
0.958811
0.959871
0.962894
0.966748
0.967619
0.969132
0.975115
0.979167
0.994326
1.02236
1.13973
1.22013
1.25245
1.21247
1.24126
1.24573
1.20897
1.1882
1.18917
1.20291
1.21262
1.23686
1.24612
1.25469
1.26363
1.28274
1.29831
1.31581
1.33681
1.3515
1.37069
1.40118
1.44615
1.51387
1.60336
1.71252
1.79931
1.84433
1.86709
1.8762
1.87239
1.86082
1.84489
1.82165
1.81143
1.80469
1.82637
1.8526
1.90545
1.94735
1.96112
1.97909
0.191479
0.192112
0.191736
0.191309
0.190773
0.190156
0.189461
0.188638
0.187773
0.186865
0.185744
0.18468
0.183613
0.182321
0.18108
0.179893
0.178574
0.177184
0.176006
0.174832
0.173396
0.172132
0.171122
0.17008
0.168798
0.167755
0.166893
0.166386
0.165538
0.164224
0.163375
0.162761
0.16198
0.161072
0.160295
0.157716
0.15557
0.16254
0.199423
0.907464
1.09196
1.15581
1.16934
1.1893
1.1681
1.17219
1.14476
1.14173
1.11466
1.1202
1.09215
1.10316
1.06944
1.07812
1.04417
1.06016
1.02635
1.03929
1.00037
0.986187
0.978592
0.98526
0.974436
0.966163
0.966906
0.968754
0.966761
0.964408
0.964931
0.970364
0.972222
0.969186
0.982842
1.00076
1.02265
1.10194
1.21503
1.32683
1.30549
1.32879
1.26015
1.21673
1.22485
1.23337
1.21692
1.19743
1.18211
1.18768
1.20864
1.21986
1.22525
1.24009
1.26039
1.2868
1.30873
1.33533
1.34829
1.36583
1.38749
1.42785
1.48705
1.57162
1.6788
1.77717
1.83178
1.85935
1.87138
1.8693
1.85875
1.8445
1.82115
1.80412
1.79579
1.8082
1.8299
1.88409
1.93118
1.95186
1.97146
0.191462
0.192094
0.191716
0.191283
0.190739
0.190106
0.189419
0.188579
0.187687
0.18678
0.185643
0.184528
0.18344
0.18217
0.180828
0.179596
0.178298
0.176783
0.175502
0.174288
0.172877
0.1714
0.170204
0.169139
0.167875
0.166438
0.165392
0.164633
0.163851
0.162621
0.161056
0.16024
0.159729
0.159303
0.15964
0.160049
0.161386
0.177743
0.353647
0.946005
1.02522
1.0778
1.11518
1.15617
1.156
1.17006
1.1469
1.155
1.12675
1.13559
1.10375
1.11237
1.07486
1.08699
1.04542
1.05699
1.02249
1.03655
0.99188
0.987725
0.978034
0.987973
0.974098
0.966816
0.970567
0.972107
0.9729
0.968298
0.974948
0.992343
1.00603
1.01389
1.09352
1.18829
1.30366
1.41716
1.46946
1.48042
1.41818
1.37611
1.32517
1.25663
1.21295
1.19584
1.19975
1.20588
1.20395
1.19998
1.20796
1.21168
1.21305
1.22131
1.24037
1.26757
1.2938
1.32114
1.34052
1.35917
1.38246
1.41547
1.46627
1.5427
1.64661
1.75085
1.81389
1.8443
1.86
1.86027
1.85278
1.83922
1.81874
1.79654
1.78573
1.79138
1.80967
1.86234
1.91331
1.94003
1.96041
0.19144
0.192073
0.191692
0.191254
0.190703
0.190054
0.189368
0.188518
0.187596
0.186674
0.185549
0.184372
0.183245
0.182004
0.180558
0.179277
0.177974
0.176388
0.174972
0.173695
0.1723
0.17061
0.169232
0.168092
0.166827
0.165091
0.163756
0.16256
0.161907
0.160708
0.158568
0.156974
0.156127
0.155498
0.155179
0.156447
0.159974
0.181858
0.595532
0.918937
0.954442
0.964863
0.988412
1.02934
1.04789
1.0982
1.10146
1.12597
1.10322
1.11961
1.08684
1.09939
1.05637
1.07065
1.03009
1.02705
1.01119
1.01552
0.975948
0.976109
0.973541
0.984074
0.964946
0.955972
0.972117
0.98722
0.997984
1.00063
1.0607
1.14086
1.23934
1.32422
1.44642
1.54986
1.62766
1.64024
1.60884
1.56525
1.50395
1.43826
1.3749
1.32421
1.27941
1.23488
1.19597
1.18545
1.18201
1.18039
1.18857
1.20302
1.21039
1.21886
1.23458
1.25748
1.28096
1.30555
1.32515
1.34653
1.36886
1.39975
1.44691
1.52038
1.61938
1.72763
1.79855
1.83178
1.851
1.85286
1.84729
1.83403
1.81613
1.78913
1.77471
1.77725
1.79009
1.8395
1.89456
1.92638
1.94826
0.191417
0.192051
0.191666
0.191222
0.190667
0.190001
0.189308
0.188462
0.187504
0.186546
0.185459
0.184207
0.183038
0.181809
0.180286
0.178919
0.177581
0.176018
0.174426
0.173041
0.171621
0.169835
0.168236
0.166892
0.165574
0.163868
0.162051
0.16061
0.159598
0.15857
0.156956
0.154285
0.152874
0.151486
0.149675
0.148213
0.150041
0.17982
0.720069
0.886018
0.900058
0.90194
0.90605
0.917544
0.926501
0.97276
0.98562
1.03861
1.03281
1.06486
1.035
1.05992
1.01459
1.03919
0.980747
0.993798
0.985265
0.986906
0.952952
0.965185
0.977174
0.986358
0.994911
0.98601
1.06478
1.14023
1.22993
1.3021
1.4197
1.51014
1.62361
1.67127
1.69358
1.69853
1.6917
1.67203
1.64172
1.60675
1.55929
1.51061
1.45561
1.3889
1.31592
1.26792
1.24184
1.2287
1.21378
1.19556
1.18394
1.18443
1.18934
1.19922
1.21313
1.23256
1.25973
1.29138
1.31782
1.34107
1.36436
1.39306
1.43589
1.50126
1.59435
1.70386
1.78205
1.81807
1.83903
1.843
1.84019
1.82825
1.81106
1.78332
1.76429
1.76399
1.76986
1.81632
1.87409
1.91265
1.93433
0.19139
0.192025
0.191636
0.191187
0.190627
0.18995
0.189234
0.188404
0.187411
0.186415
0.185351
0.184037
0.182813
0.181569
0.180037
0.178549
0.177152
0.175625
0.173848
0.172319
0.170845
0.169081
0.167201
0.165597
0.164273
0.162584
0.16025
0.158598
0.157011
0.156189
0.154521
0.151597
0.148795
0.146377
0.142726
0.139847
0.147372
0.207007
0.785696
0.873552
0.879299
0.870448
0.861226
0.858565
0.856922
0.866889
0.864804
0.908979
0.915047
0.966072
0.944718
0.993498
0.954775
1.00117
0.939117
0.98919
0.956419
0.992893
0.943235
0.997503
1.0783
1.13937
1.22969
1.31442
1.41865
1.51744
1.62601
1.68041
1.70143
1.71493
1.72994
1.72265
1.70601
1.68244
1.67212
1.66322
1.64778
1.62574
1.59874
1.56614
1.52712
1.48103
1.41684
1.35587
1.28576
1.24151
1.21916
1.20596
1.20214
1.20005
1.19974
1.20409
1.21247
1.22728
1.25042
1.27651
1.30228
1.32643
1.35058
1.38029
1.421
1.48197
1.5706
1.68133
1.76617
1.80542
1.82759
1.8327
1.83144
1.82031
1.80521
1.77927
1.7567
1.75089
1.75283
1.79481
1.8543
1.89914
1.92247
0.191361
0.191998
0.191604
0.191149
0.190585
0.189904
0.189154
0.188337
0.187315
0.186277
0.185214
0.18388
0.182574
0.181296
0.179794
0.178166
0.176697
0.175173
0.173261
0.171574
0.170032
0.168271
0.166106
0.164315
0.162832
0.161158
0.158599
0.15647
0.154647
0.153497
0.152097
0.150045
0.14615
0.144406
0.143562
0.142575
0.159237
0.414088
0.857556
0.865334
0.86481
0.859438
0.854542
0.851076
0.848886
0.849713
0.848058
0.863599
0.861329
0.901314
0.892719
0.93901
0.929412
0.971242
0.950897
1.00995
1.10091
1.13816
1.2358
1.32358
1.44154
1.53964
1.62844
1.67412
1.68984
1.70826
1.73143
1.73981
1.72491
1.70165
1.69497
1.69055
1.68432
1.67597
1.6666
1.65999
1.64981
1.63702
1.62044
1.60031
1.57433
1.53681
1.48655
1.41958
1.35115
1.29785
1.2656
1.23772
1.2047
1.19083
1.18906
1.19237
1.20127
1.21939
1.24281
1.26938
1.29559
1.32008
1.34451
1.37297
1.411
1.46747
1.55208
1.66114
1.75095
1.79337
1.81606
1.82242
1.82272
1.81264
1.7985
1.77385
1.74885
1.73677
1.73871
1.77218
1.83222
1.88386
1.90907
0.191328
0.191967
0.191568
0.191107
0.190538
0.189854
0.189073
0.188255
0.187224
0.186132
0.185046
0.183736
0.182338
0.181002
0.179528
0.177765
0.176208
0.174644
0.172716
0.170825
0.169163
0.167387
0.165019
0.163008
0.161244
0.159572
0.157205
0.154353
0.152286
0.150466
0.149506
0.147475
0.144061
0.140446
0.139552
0.142256
0.168241
0.663475
0.872395
0.872089
0.865042
0.856814
0.850243
0.845525
0.840171
0.833369
0.830413
0.818587
0.826444
0.818192
0.860442
0.85721
0.984548
1.02992
1.20036
1.2561
1.41751
1.51058
1.57893
1.64023
1.67047
1.68389
1.70814
1.71114
1.71132
1.70146
1.69585
1.69649
1.69291
1.68508
1.67789
1.67489
1.67058
1.66623
1.66121
1.65643
1.65023
1.64304
1.63389
1.62222
1.60407
1.57862
1.54013
1.49105
1.42467
1.34766
1.2857
1.24718
1.2252
1.2116
1.20638
1.20512
1.20465
1.2107
1.22939
1.25439
1.28055
1.30589
1.33227
1.36102
1.3986
1.45395
1.53558
1.64115
1.73537
1.78018
1.8035
1.81087
1.81227
1.8032
1.78997
1.76708
1.74017
1.72498
1.72661
1.74902
1.80972
1.86633
1.89602
0.191291
0.191934
0.191529
0.191062
0.190487
0.189799
0.188989
0.188156
0.187144
0.185991
0.184857
0.183587
0.182088
0.180697
0.179226
0.177368
0.175682
0.174073
0.172175
0.170053
0.168236
0.16639
0.164029
0.161673
0.1596
0.157995
0.1558
0.152351
0.14994
0.147622
0.146517
0.144152
0.14128
0.132579
0.127712
0.131581
0.175421
0.749985
0.871225
0.878631
0.874861
0.864823
0.855009
0.846992
0.840277
0.834025
0.830114
0.8249
0.832287
0.83933
0.899133
0.96913
1.20873
1.37992
1.53188
1.59841
1.62147
1.64194
1.66239
1.67554
1.67559
1.68208
1.67545
1.67522
1.67287
1.66875
1.667
1.66547
1.66619
1.66794
1.6649
1.66217
1.66084
1.65916
1.65645
1.65286
1.64817
1.64446
1.63887
1.63252
1.6221
1.6056
1.57963
1.54374
1.49195
1.41689
1.34386
1.29417
1.26008
1.23241
1.2106
1.203
1.205
1.21322
1.22648
1.24517
1.26831
1.29354
1.31958
1.34871
1.38592
1.43852
1.51728
1.62002
1.71715
1.76612
1.79074
1.7993
1.80157
1.793
1.77938
1.75945
1.73129
1.71349
1.71196
1.72689
1.7859
1.84709
1.88338
0.191251
0.191897
0.191487
0.191015
0.190429
0.18974
0.188912
0.188045
0.187059
0.185847
0.184668
0.183414
0.18184
0.18037
0.178873
0.17701
0.175168
0.173469
0.171606
0.169265
0.167255
0.165407
0.16307
0.160283
0.158028
0.15615
0.154102
0.150936
0.147794
0.145343
0.143792
0.142208
0.140362
0.137225
0.136663
0.152342
0.338693
0.879349
0.888109
0.887092
0.882512
0.876488
0.870776
0.866449
0.861971
0.858573
0.857895
0.86535
0.888196
0.94854
1.07875
1.32954
1.55614
1.65135
1.66466
1.66442
1.66077
1.65872
1.65473
1.64814
1.64133
1.63741
1.63686
1.63351
1.63384
1.63323
1.63409
1.63358
1.63744
1.64637
1.64804
1.64812
1.64818
1.6479
1.64823
1.64764
1.64534
1.64252
1.63929
1.63526
1.62866
1.61922
1.60242
1.57707
1.53908
1.48259
1.40888
1.33827
1.28404
1.24695
1.22548
1.21519
1.21529
1.21814
1.22619
1.23936
1.25758
1.28018
1.30632
1.3362
1.3728
1.42306
1.49786
1.59803
1.69663
1.75144
1.77795
1.78764
1.79039
1.78236
1.76917
1.75105
1.72356
1.70084
1.69841
1.70465
1.76109
1.82828
1.86996
0.191208
0.191857
0.191443
0.190965
0.190365
0.189677
0.18884
0.187932
0.186956
0.185705
0.184469
0.183208
0.181615
0.18003
0.178489
0.176665
0.174639
0.172835
0.170965
0.168527
0.166296
0.164378
0.162126
0.158886
0.15639
0.154078
0.152411
0.149797
0.145944
0.143283
0.141166
0.140082
0.138397
0.135968
0.13772
0.161852
0.631763
0.899515
0.90023
0.893183
0.88622
0.881306
0.878831
0.877612
0.878043
0.882394
0.893848
0.928372
1.00213
1.16075
1.41652
1.64504
1.68743
1.68267
1.66946
1.65385
1.63662
1.63459
1.62746
1.61903
1.61497
1.60842
1.60296
1.60256
1.60089
1.60373
1.60454
1.60525
1.60682
1.61295
1.61752
1.62234
1.62483
1.62814
1.6324
1.63628
1.63675
1.63549
1.63322
1.63121
1.62783
1.62239
1.61203
1.59535
1.56953
1.52932
1.46942
1.39525
1.32791
1.28058
1.24971
1.23124
1.22272
1.22146
1.22606
1.2363
1.2513
1.27128
1.295
1.32399
1.35958
1.40777
1.47907
1.57689
1.67655
1.73625
1.76462
1.77524
1.77832
1.77125
1.75872
1.74089
1.71398
1.68837
1.68425
1.6831
1.73781
1.80769
1.85705
0.191161
0.191814
0.191396
0.190912
0.190296
0.189609
0.188764
0.187813
0.18683
0.185581
0.184264
0.182967
0.181416
0.1797
0.178084
0.176302
0.174102
0.172158
0.170244
0.167877
0.165348
0.163261
0.16102
0.157891
0.154672
0.152167
0.150261
0.148161
0.144901
0.141148
0.138222
0.135796
0.132593
0.125373
0.126781
0.153653
0.747284
0.920257
0.926725
0.922984
0.914578
0.909527
0.906814
0.906209
0.910928
0.924553
0.961151
1.04806
1.22819
1.48069
1.68317
1.70586
1.68918
1.66447
1.64431
1.62646
1.61742
1.60763
1.60079
1.60057
1.59234
1.58374
1.582
1.57819
1.57604
1.57774
1.57693
1.57899