/*--------------------------------*- C++ -*----------------------------------*\
| =========                 |                                                 |
| \\      /  F ield         | OpenFOAM: The Open Source CFD Toolbox           |
|  \\    /   O peration     | Version:  2.2.x                                 |
|   \\  /    A nd           | Web:      www.OpenFOAM.org                      |
|    \\/     M anipulation  |                                                 |
\*---------------------------------------------------------------------------*/
FoamFile
{
    version     2.0;
    format      ascii;
    class       volScalarField;
    location    "1.9";
    object      pB;
}
// * * * * * * * * * * * * * * * * * * * * * * * * * * * * * * * * * * * * * //

dimensions      [1 1 -3 0 0 -1 0];

internalField   nonuniform List<scalar> 
14161
(
-0.00361733
0.000350593
-0.000218053
-0.000174534
-0.000235006
-0.000265664
-0.000307785
-0.000355896
-0.000374113
-0.000417849
-0.000461596
-0.000466182
-0.00049627
-0.000537712
-0.000506878
-0.000539066
-0.000523739
-0.000504977
-0.000482663
-0.000441027
-0.00039783
-0.000345486
-0.000290688
-0.000234412
-0.000181846
-0.000129541
-8.01326e-05
-5.37979e-05
-2.95436e-05
-1.10688e-05
-5.21325e-06
-3.66931e-05
-0.000130787
-0.000320123
-0.000716496
-0.00186729
-0.00290648
-0.000402086
0.0542043
0.0967934
-0.0294608
-0.0267202
-0.00731459
-0.00265154
-0.00144326
-0.000598583
8.21675e-05
0.00212903
-0.000649583
-0.00096594
0.002244
0.000320989
-0.00219918
-0.00101345
0.00112587
0.00012052
-0.000621512
-0.000544607
1.50759e-05
0.00013396
0.000202946
0.00014743
6.36549e-06
-0.000184674
-0.000183265
-0.000128533
-8.96602e-05
-9.2629e-05
-0.000253964
-0.000270385
-0.000310351
3.81821e-05
0.000262556
0.000171863
-0.000258487
-0.000115121
0.000688757
0.000449426
4.74207e-05
-0.00046557
-0.000665662
0.00156948
0.00154473
0.000751003
-0.000407096
-0.000150547
0.00020414
0.000644617
0.000341104
0.000787811
0.00169371
0.000585863
0.00118519
-0.000711202
0.000407909
0.00113773
2.46409e-06
-0.00307947
-0.00309574
-0.00127752
0.000218397
-0.000311767
-0.00109461
0.000305136
0.00122058
0.000858664
-0.00141134
0.00215875
-0.00148196
0.00144857
-0.00124097
0.00125503
-0.00164258
0.00138483
-0.00223573
0.00250639
-0.00336385
0.00318417
-0.00593395
-0.00362193
0.000353546
-0.000218549
-0.000174721
-0.000234781
-0.000266537
-0.000308096
-0.000355452
-0.000377743
-0.000417003
-0.000463344
-0.000467594
-0.000492918
-0.000538787
-0.000515543
-0.00053701
-0.000526115
-0.000504223
-0.000482468
-0.000442503
-0.000400509
-0.000347687
-0.000290823
-0.000237002
-0.000184485
-0.00014122
-0.000105613
-9.6995e-05
-8.45752e-05
-0.000112508
-0.000184464
-0.000338657
-0.000589045
-0.00109092
-0.00203939
-0.0041092
-0.00594359
-0.0143039
0.0114415
0.0505663
-0.00515334
0.00696265
0.00603578
0.00482203
0.0023653
0.000993875
-9.34152e-05
0.000200709
0.000983621
-0.00275447
-0.00193354
0.00207193
-0.00119886
-0.00307361
0.000182065
0.000805477
-5.2662e-07
-0.000882333
4.06844e-05
0.000221862
-0.000108858
2.89961e-05
0.000518743
0.000311173
-0.000156477
-0.000376519
-0.00029954
-0.000301178
-0.000485264
-0.000373568
-0.00038862
-0.000272716
-0.000210306
-0.000752987
-0.000508276
-0.000352468
0.00152896
-0.00178406
-0.00439688
0.00349941
0.00820764
-0.00010476
-0.0065974
-0.00179115
0.00937269
0.0042878
-0.00556921
-0.00191274
0.0148755
-0.000278846
-0.00540415
0.00493983
0.00155707
-0.000881086
0.000883689
0.00127809
-0.00110294
-0.000484729
0.00180862
0.00131472
-0.00240628
-0.00276065
0.0036847
0.00369172
-0.00460994
0.00271025
0.000661905
0.00149482
-7.0545e-05
0.00209895
-0.000519952
0.00251889
-0.000448761
0.00288465
-0.0013756
0.00348406
-0.00264568
0.00265362
-0.00469645
-0.00362045
0.00035262
-0.000218616
-0.000174722
-0.000234971
-0.000267112
-0.000309996
-0.000350558
-0.00037891
-0.000418134
-0.000458559
-0.000469761
-0.000503712
-0.000529396
-0.000511951
-0.000538489
-0.000524312
-0.000509927
-0.000480249
-0.000447668
-0.000401096
-0.000347049
-0.000290481
-0.000234777
-0.000178048
-0.00011592
-5.84304e-05
-1.78336e-05
4.19451e-05
0.000113518
0.000218707
0.000370581
0.000618596
0.000985238
0.00173502
0.00219303
0.00570967
-0.00642166
0.0622529
0.0345508
0.0112664
0.00240453
-0.00145903
0.00295184
-0.00161467
0.00281552
-0.00590923
-0.00139773
0.00221919
-0.0042217
-0.00551543
0.00235566
0.00140641
-0.00406382
-0.0019279
0.000942552
0.000542904
-0.00121278
-0.000713009
-6.72267e-05
0.000216836
-0.000548937
-0.000256598
-0.000320257
0.000467814
0.000411606
0.000288218
0.000705215
0.000284511
0.000399955
0.000418309
0.000679933
0.000208572
0.000405873
0.000388441
0.000201776
-0.000929735
-0.000127913
0.00471879
-0.000359822
-0.00716721
-0.000253434
0.0138651
-0.00301243
-0.0184648
0.00362391
0.0290742
-0.00664528
-0.0358512
0.0208474
0.00602372
-0.0104007
0.00501528
0.0037196
-0.00249404
1.48901e-05
0.00339952
0.00313328
-0.00208028
-0.00359163
0.00649452
0.00451899
-0.00709259
-0.000744221
0.00292116
0.000883648
-0.00119394
0.00125092
-0.00160213
0.00131102
-0.00189649
0.00117485
-0.00229183
0.00125791
-0.00277528
0.00142392
-0.0028993
0.00203552
-0.00264527
-0.00362166
0.000351894
-0.000219454
-0.00017569
-0.000234902
-0.000268428
-0.000310772
-0.000350859
-0.000384118
-0.000413363
-0.000461038
-0.000474533
-0.000497046
-0.000535591
-0.000518321
-0.000538804
-0.000528392
-0.000507787
-0.000485952
-0.000448445
-0.000402278
-0.000356186
-0.000295957
-0.000245137
-0.000191025
-0.000153766
-0.000136648
-0.000119406
-0.000138882
-0.000208086
-0.000335827
-0.000545358
-0.000842325
-0.00129639
-0.00168403
-0.00211396
-0.000807939
-0.00558598
-0.00206994
0.0544339
0.00481813
0.0159787
-0.00254674
0.00629523
-0.00071379
0.00633426
-0.00389129
0.000822348
0.00835361
-0.00115981
-0.0103378
0.000867217
0.00808865
-0.00173696
-0.00418199
0.00054264
0.000309357
-0.000584201
-0.000428835
5.94939e-05
-0.000699964
-0.000579425
-1.48297e-05
-0.000756219
-8.6632e-05
-0.00075795
-0.00127484
-0.000334687
-0.000824229
-0.000935807
-0.000577047
-0.000410487
-0.000301295
-0.000314511
0.000378239
-0.000488291
0.000644827
-0.000543406
-0.00184852
0.00544433
0.00260247
-0.00809427
-0.00845048
0.0187595
0.0212811
-0.0170213
-0.043694
0.0359206
0.0369584
-0.0201204
-0.00669195
0.0189378
-0.00983599
-0.00372466
0.0133958
5.75807e-06
-0.00476027
0.00160555
0.00652527
3.97222e-05
-0.0095079
0.00237785
0.00767969
-0.00474731
-0.00631254
0.00677952
-0.002199
-0.000867567
-0.000337483
0.00197961
-0.00169365
0.00169658
-0.00146611
0.00219755
-0.00197045
0.00280398
-0.00253449
0.00263498
-0.0024828
-0.00361896
0.000349948
-0.000219799
-0.000175964
-0.000235757
-0.000269813
-0.000310035
-0.000349288
-0.000386034
-0.000418144
-0.00045502
-0.000478753
-0.000500162
-0.000523878
-0.000531407
-0.000531143
-0.000532733
-0.000510686
-0.000487443
-0.000452251
-0.000405906
-0.000360074
-0.000296123
-0.000240749
-0.000173851
-0.000108949
-3.85007e-05
4.64878e-06
0.00010204
0.000233734
0.000432961
0.000735323
0.00128041
0.00212482
0.00385839
0.00596848
0.0105249
0.0124931
0.0338105
0.0324078
0.0114227
0.00837306
0.000236826
0.00717856
-0.00308503
0.000598292
0.0056022
-0.00417493
-0.00576713
0.00345159
0.00380381
-0.00632641
-0.00243501
0.00223659
0.000598231
-0.0011394
-0.000192499
-0.00101373
-1.53969e-06
-0.000449695
-0.000312394
-0.000488085
-0.00103244
-0.000153115
-0.000659258
-0.000145128
5.57303e-05
-0.000480172
-0.00013949
-8.18403e-06
-1.04611e-05
0.000332776
0.000150872
0.000200956
0.000128513
0.000489856
0.00130766
-0.000545217
0.00190587
-0.000325029
-0.00378547
0.00489408
0.00849606
-0.00745785
-0.0169957
0.00460302
0.035345
-0.00806018
-0.0429204
0.0308746
0.00944829
-0.0260603
0.0243292
0.00263599
-0.0148553
0.00242431
0.00852395
-0.00112794
-0.00826139
0.00448606
0.0102711
-0.00500951
-0.011703
0.0130891
0.0035679
-0.00834272
-0.00134549
0.00429237
-0.00230369
0.000871866
-0.0022306
0.00167685
-0.0023382
0.00182682
-0.00242669
0.00179347
-0.00217457
0.00154837
-0.00148148
-0.00361841
0.000348211
-0.00022107
-0.000177355
-0.000235269
-0.00027149
-0.000310994
-0.000347603
-0.000392066
-0.000414874
-0.000452713
-0.000486712
-0.000499612
-0.000523337
-0.000537997
-0.000533246
-0.000538912
-0.000516528
-0.00049129
-0.00045865
-0.000416215
-0.00036587
-0.000305829
-0.000256758
-0.00020096
-0.000167443
-0.000146602
-0.00014182
-0.000169319
-0.000261021
-0.00041669
-0.000669253
-0.00103663
-0.00150717
-0.00183073
-0.00225501
-0.000715888
-0.00572412
-0.00439964
0.0426301
0.0107048
0.0102697
-0.00186926
0.00371749
-0.001632
-0.00228295
-0.000489481
-0.00346871
-0.00263204
-0.00304359
-0.00192998
-0.00357021
-0.00221825
-0.0013573
-0.000620614
-0.000869017
-0.000488328
-6.68121e-05
0.000492262
0.000175048
2.90777e-05
0.000569303
3.81065e-05
0.000152906
0.000210183
-0.000187639
-6.63857e-05
-0.000162843
-0.000225381
7.96421e-05
-0.000274083
0.000110515
3.64778e-05
-2.07694e-05
0.000107504
0.000492749
0.000459215
0.00125703
-0.000429624
-0.000773915
0.00344309
0.00125887
-0.00244897
-0.00249322
0.00926559
0.00869753
-0.013818
0.00509764
0.00820642
-0.00439204
-0.00927551
0.0100741
-0.00398952
-0.0101299
0.0117408
0.000907644
-0.00708488
0.000695461
0.00616159
-0.00102682
-0.0096776
0.00406321
0.00577672
-0.00452018
-0.00627776
0.00674192
-0.000667116
-0.00229279
-0.000344252
0.00161519
-0.00194124
0.00168772
-0.00190972
0.00206139
-0.00206819
0.00242014
-0.0022263
0.0023901
-0.00211752
-0.00361509
0.000345864
-0.000221865
-0.000178145
-0.000235732
-0.000273565
-0.000310605
-0.000346552
-0.000393359
-0.000420967
-0.000442183
-0.000492148
-0.000511673
-0.000508971
-0.000551694
-0.000533899
-0.000536915
-0.000524115
-0.000492951
-0.000467041
-0.000422512
-0.000369385
-0.000312864
-0.000249427
-0.000178382
-0.000109225
-2.82028e-05
2.25206e-05
0.000137514
0.000281614
0.000502848
0.000812133
0.00126236
0.00200588
0.00306422
0.003594
0.00802225
-0.0108493
0.0987854
-0.00156329
0.0296505
0.00130082
0.00574094
0.00690465
0.00427804
0.0060613
0.00397436
0.00367014
0.00284908
0.000392845
0.00123373
-0.00151624
0.00108084
-0.00143459
0.000391861
-0.00166849
6.41321e-05
-0.000758196
-0.000736121
-0.00110868
-0.000830802
-0.0010746
-0.00101199
-0.00084079
-0.0008831
-0.00046645
-0.000628897
-0.000619378
-0.000569366
-0.000495582
-0.000538727
-0.000391503
-0.000283953
8.91486e-05
-0.000366091
-0.000587925
0.000391067
0.000184645
0.00106549
0.000572224
-0.00243504
0.000673764
-0.000733436
0.00651026
-0.00289328
0.00103318
0.000819732
0.00518733
0.000396155
-0.00210111
0.00299226
-0.0041309
0.00144864
0.00207491
-0.00454809
0.000806075
0.00576135
0.00302824
-0.00371595
-0.00160768
0.00315924
0.00334299
-0.00305313
-0.000624732
0.00250663
-0.000829612
-0.00269877
0.00326379
-0.00242562
-0.000153845
-0.00113386
0.00184192
-0.00238788
0.00202298
-0.00230287
0.00206441
-0.00206531
0.00203225
-0.00186273
-0.00361411
0.000343706
-0.000223653
-0.00017969
-0.000236344
-0.000274702
-0.000311881
-0.000346071
-0.000396799
-0.000420401
-0.000446424
-0.000497812
-0.000515338
-0.00050381
-0.000561451
-0.000545007
-0.000534685
-0.00053771
-0.000500695
-0.000476801
-0.000433413
-0.000378817
-0.000326527
-0.000272084
-0.000218834
-0.00018133
-0.000143848
-0.000132518
-0.000163454
-0.000248138
-0.000408501
-0.000711435
-0.00119245
-0.00201443
-0.00322355
-0.00567081
-0.00882571
-0.0115531
-0.0224087
0.0367496
0.0137154
-0.0137915
-0.00941101
-0.00597179
-0.00620603
-0.00249808
-0.00290882
-0.00364745
-0.00127752
-0.0015412
-0.000868572
-0.00116487
0.000149977
-0.000666835
0.000461124
0.000156461
9.4617e-05
0.000254295
0.000243259
3.13789e-05
0.000296841
-3.24311e-05
-0.000172439
-7.93428e-05
-0.000349529
-7.24129e-05
-0.000150516
-5.21771e-05
3.72916e-05
0.000172207
0.000268362
-0.000226415
5.18415e-05
8.42878e-05
-0.00015511
-0.000774038
-4.4527e-05
-0.000908397
-8.17567e-05
-0.000374271
-0.000462903
0.00107912
-0.00246731
-0.00247309
-1.88829e-05
0.00220852
0.00251439
-0.00176499
-0.000348435
0.000241682
0.00141031
-0.00580496
0.0051145
-0.00453566
0.00486261
-0.000478737
-0.00485527
-0.00265488
0.00172662
0.00317749
-0.00299109
-0.00240312
1.0079e-05
0.000894254
-0.00147453
-0.000312209
5.50947e-05
-0.000172455
-0.00290209
0.00273855
-0.00225027
0.00145454
-0.00192976
0.00210555
-0.00227729
0.00232327
-0.002022
0.00208789
-0.002279
-0.00361077
0.000341329
-0.000224779
-0.000180736
-0.000237048
-0.000276205
-0.000312385
-0.000347089
-0.000397875
-0.000428969
-0.000439355
-0.000503336
-0.000521082
-0.000497212
-0.000568432
-0.000550411
-0.000534584
-0.000542585
-0.000509205
-0.000483757
-0.000444196
-0.000392073
-0.000339131
-0.00026636
-0.00019386
-0.000119936
-3.27851e-05
2.34919e-05
0.000145202
0.000281578
0.000467257
0.000677529
0.000910271
0.000990047
0.000996591
0.000216498
8.11929e-05
0.000531376
0.00672479
0.15122
-0.0231671
-0.00376798
-0.0100422
-0.000897921
-0.0070662
-0.0022385
-0.00183642
-0.00286138
-0.00035885
-0.00243346
-0.00133605
-0.00173696
-0.00127003
-0.00236567
-0.000949478
-0.00149969
-0.00124611
-0.00117931
-0.000964908
-0.00113401
-0.00095385
-0.000864253
-0.00116466
-0.000700572
-0.000991854
-0.000748171
-0.000959437
-0.000759005
-0.000721513
-0.000640795
-0.000633776
-0.000481514
-0.000129754
-0.000770493
0.000233934
-0.00111065
0.000631698
-0.000917458
-0.000122238
0.000699635
-0.000897993
0.00248938
-0.00336091
0.00357896
-0.00625666
0.00678918
-0.00631608
0.00556331
-0.00360777
-0.000968105
0.000722922
-0.00263579
0.00385273
-0.0030927
0.003723
-0.00159025
0.00308098
0.00307944
-0.00016404
-0.00217782
-0.000257093
0.00275106
-0.000561271
-9.99851e-05
-0.0010852
0.00101132
-0.000446359
0.000810118
-0.000783247
0.001626
-0.0031195
0.00241702
-0.00274959
0.00224499
-0.00258018
0.0023562
-0.00252189
0.00248831
-0.00242934
-0.00360976
0.000339144
-0.00022679
-0.000182471
-0.00023857
-0.000276502
-0.000315458
-0.000348513
-0.000397917
-0.000428546
-0.000443235
-0.000505752
-0.000522069
-0.000506477
-0.000572715
-0.000558556
-0.000539048
-0.000557099
-0.000523417
-0.000497756
-0.000460645
-0.000407353
-0.000356956
-0.000290683
-0.00024098
-0.000184985
-0.000139606
-9.75743e-05
-9.36485e-05
-0.000123211
-0.000200976
-0.000352757
-0.000682548
-0.00114235
-0.00194573
-0.00279927
-0.00405155
-0.00391669
0.00362721
0.112933
0.0244726
-0.0366178
-0.00871981
-0.010464
-0.00705802
-0.00670659
-0.00469483
-0.0053692
-0.00196008
-0.0030176
-0.00169893
-0.00112986
-0.00105286
0.000122136
-0.00123187
-9.19313e-06
-0.000878644
-0.00106835
-0.000263966
-0.00101644
-0.000477212
-0.000792453
-0.000865036
-0.000459903
-0.000647137
-0.00033969
-0.000536924
-0.000257605
-0.000269461
5.45521e-05
-0.000219825
-0.000239881
0.000106042
-0.000640203
0.000257049
-0.00108029
0.00096154
-0.0010085
0.00116479
0.000267259
-0.000635405
0.00225948
-0.000823138
0.000756271
0.000253884
-0.00238958
0.00667296
-0.00209175
0.00404441
-0.00395994
3.92935e-07
-0.00389278
0.00454496
-0.00341666
0.00325038
-0.00136156
0.00119418
-0.00215707
-0.00083237
0.0015489
-0.000654594
-0.00107683
-0.0013216
0.000137772
-0.00109696
-0.000496446
-0.00107441
0.00014662
-0.00146928
0.000144963
-0.00183604
0.00202946
-0.00294917
0.00247894
-0.00250873
0.00260189
-0.00268822
0.00273213
-0.00297206
-0.00360684
0.000336916
-0.000228217
-0.000183696
-0.000239634
-0.000277199
-0.000317195
-0.00034938
-0.000398843
-0.000431778
-0.000447227
-0.000504122
-0.000522329
-0.000524703
-0.000566546
-0.000567149
-0.000551156
-0.000557294
-0.000539612
-0.000505935
-0.000477244
-0.0004231
-0.00037565
-0.000295054
-0.000220059
-0.000136312
-4.00488e-05
2.38033e-05
0.000153963
0.000289887
0.000491961
0.000720288
0.001033
0.00135539
0.00173808
0.00216261
0.00238881
0.00461112
0.00722231
0.0441122
0.0435987
-0.0158576
-0.000849322
0.000829206
0.000340282
0.00312293
-0.000968649
0.0021843
-0.0022083
0.00166403
-0.00127438
0.000903402
-0.00133808
0.00014242
-0.000924593
-0.00183
0.000725712
-0.00253248
4.04093e-05
-0.0015251
-0.000466445
-0.00120113
-0.00118458
-0.000999582
-0.00140915
-0.00112587
-0.00115106
-0.00107287
-0.00105436
-0.00103728
-0.000501997
-0.000615529
-0.000889541
-0.000646518
-0.000799147
-0.00100676
0.000116862
-0.00201267
-0.000208262
-0.000215736
-0.000997137
0.00193337
-0.00316301
0.00341701
-0.000902556
0.00312158
0.00365985
-0.00100773
0.00435344
-0.00236864
0.00368773
-0.00358146
0.00353012
-0.000402238
0.00302772
-0.00119758
0.00264742
-0.000640178
0.00198412
-0.000308387
-0.000917361
0.000106823
-0.000357797
0.000225997
-0.000202532
0.000354411
-0.00072822
0.000539626
-0.00092251
0.00131041
-0.0022421
0.00226062
-0.00268286
0.00320713
-0.00329972
0.00302479
-0.00316469
0.00299168
-0.00320011
-0.00360615
0.000335007
-0.000230374
-0.000185687
-0.000241839
-0.000276821
-0.00032138
-0.000352188
-0.000396744
-0.000433584
-0.000459706
-0.000501716
-0.00052864
-0.000540834
-0.000556878
-0.000583543
-0.000566571
-0.000559549
-0.000568628
-0.000521209
-0.000494567
-0.000449874
-0.000395546
-0.000332758
-0.000268692
-0.000197341
-0.000129883
-4.21671e-05
2.15796e-06
6.62166e-05
0.00015631
0.000239747
0.000373879
0.000579087
0.000986158
0.00203456
0.00359091
0.00626711
0.0194443
0.0348509
0.0434992
-0.0176072
-0.00384027
-0.00147317
-0.00299189
-0.0018849
-0.00373919
-0.00151249
-0.00418263
-0.00191632
-0.00335859
-0.0021169
-0.00297613
-0.00176683
-0.00271431
-0.00123224
-0.00233885
-0.00272055
0.000275669
-0.00234232
-0.000589997
-0.0014051
-0.00030274
-0.000426541
0.000106646
0.000164029
7.03445e-05
0.000415457
-0.000336297
0.000382171
-0.000286088
0.000225873
0.000115093
-1.92821e-05
0.000442682
0.000508843
-0.000141826
0.0020797
0.00286335
-0.000179984
0.00873031
-0.00381921
0.0106245
-0.00556272
0.00772543
-0.00213713
0.00206909
-0.00238373
4.28894e-05
-0.00363093
0.00118688
-0.00515025
0.00270874
-0.000280513
0.00273798
-0.000223618
0.000564957
-0.000474656
-0.000613944
0.00106501
-0.000597535
5.54169e-05
-0.000821848
2.17644e-05
-0.000849381
5.32058e-06
-0.00109001
0.000531589
-0.000881845
0.000788504
-0.00204112
0.00141125
-0.00252142
0.0022623
-0.00289084
0.00311656
-0.0034499
0.00326045
-0.00353695
-0.00360412
0.000333168
-0.000232084
-0.000187101
-0.000243267
-0.000277963
-0.000321972
-0.000355354
-0.000397808
-0.000436137
-0.000469141
-0.000493591
-0.000533011
-0.000555784
-0.000552607
-0.000594524
-0.000589654
-0.000551289
-0.000584733
-0.000545572
-0.00050982
-0.000479955
-0.000413579
-0.000351383
-0.000262438
-0.000173369
-5.38014e-05
2.7612e-05
0.000149765
0.000347434
0.000570114
0.000896777
0.0012849
0.00173627
0.00247199
0.00302396
0.00441484
0.00530914
0.0124242
0.0423397
0.0322883
-0.0164972
-0.00170204
-0.00267825
-0.00298055
-0.000396912
-0.00260976
0.000368898
-0.00307174
0.000316479
-0.00200479
-0.000173347
-0.00133476
-0.000329213
-0.00122997
-0.00011244
-0.00144522
-0.000193243
-0.0014273
-0.000531613
-0.00117119
-0.0013934
-0.000602215
-0.00119917
-0.000627163
-0.00102625
-0.000918673
-0.000865381
-0.000875154
-0.000646052
-0.000694569
-0.000423487
-0.000532417
-0.000650074
-0.000855472
-0.000835249
-0.00254574
-0.000870617
-0.000797304
-0.00277992
0.00334065
-0.00494911
0.00169222
-0.000581882
0.000661309
-0.00134871
0.00214949
-0.00441987
0.00328223
-0.00200567
0.00201905
0.000865294
0.00230597
-0.000627164
0.0016257
-0.000221113
0.00254015
-0.00053914
0.00270849
-0.000301913
0.000271211
0.000599274
-0.000378672
-3.49427e-05
-0.000673562
0.000415938
-0.00121657
0.000324489
-0.00095754
0.00160544
-0.00317502
0.00189205
-0.00279737
0.00293814
-0.00313558
0.00305831
-0.00349679
0.00345387
-0.0037458
-0.00360413
0.000331635
-0.000234395
-0.000189186
-0.000245998
-0.000278312
-0.000324545
-0.000362284
-0.000392137
-0.000445322
-0.000476002
-0.000491295
-0.000544539
-0.00057041
-0.000549586
-0.000610855
-0.000605884
-0.000556802
-0.000602514
-0.000582482
-0.000523929
-0.000509144
-0.000456685
-0.00040058
-0.000309112
-0.000235748
-0.000134757
-2.66612e-05
5.06252e-05
0.000215973
0.000407973
0.00064638
0.00100964
0.00136246
0.00206726
0.00258994
0.0026314
0.00310231
0.00605123
0.0505282
0.0353393
-0.00571619
-0.00208365
0.00251249
-0.0014111
0.002354
-0.00204821
0.0016152
-0.00339858
0.000935865
-0.00263875
-0.000231146
-0.00203454
-0.000730793
-0.00165017
-0.000673281
-0.00150482
-0.000742996
-0.00126847
-0.000635052
-0.000945959
-0.000524486
-0.000460852
-0.0004966
-0.000184047
-0.00028341
5.06699e-05
-0.000121728
-0.000165875
-0.000459864
4.7843e-05
-0.000233912
-0.000381653
0.000120964
-0.000637982
0.000471198
-0.0012926
0.00172528
0.00168661
-0.00177049
0.00915181
-0.00331237
0.00471437
-0.00239722
0.00287996
-0.00144131
0.000712358
-0.00601881
0.00350715
-0.00415934
0.00114197
-0.00306384
-0.000636727
0.0012568
-0.00152391
0.0018301
-0.000434351
0.000456574
-0.00100662
8.04414e-05
-0.000742027
-0.000817128
-0.00118641
-0.000565351
-0.000562082
-8.1879e-05
-0.000368442
-0.000224997
-0.000837129
0.00159255
-0.00297086
0.00193115
-0.00225417
0.00259392
-0.00294416
0.00266222
-0.00335006
0.00325608
-0.00369439
-0.00360324
0.000330307
-0.000236322
-0.000190899
-0.000247599
-0.000279661
-0.000326779
-0.000365449
-0.000392052
-0.000447568
-0.000487179
-0.000486366
-0.000552599
-0.000584305
-0.000553412
-0.000615536
-0.000626268
-0.00058508
-0.000606614
-0.000604495
-0.000559694
-0.000529817
-0.000493083
-0.000437922
-0.00033405
-0.000238308
-0.000125349
-1.49789e-05
0.000111722
0.000338133
0.000573381
0.000916414
0.00124711
0.00161037
0.00186622
0.00177458
0.00166184
0.000461431
0.00501861
0.0484775
0.0290098
-0.00874428
-0.00508468
0.000603514
-0.0062113
0.000348054
-0.00364103
0.00113948
-0.00515604
0.00138577
-0.00351246
0.000683841
-0.00186431
8.40776e-05
-0.00164019
-0.000351585
-0.00154816
-0.000849375
-0.00112749
-0.000397235
-0.000979521
-0.00061992
-0.000696041
-0.000383534
-0.000280725
-0.000866775
-0.000642816
-0.000636004
-0.000268011
-0.000453471
-0.000681971
-0.000151055
-0.000635047
-0.000718164
-0.000949193
-0.000486656
-0.00163158
0.000986238
-0.00214282
0.00116
0.00102529
0.0026047
-0.00423693
0.0015989
-0.00106178
-0.00292081
0.00172849
-0.00256982
-0.000138518
-0.000609222
0.00247458
0.00118236
0.00221828
-0.00219464
0.0032678
-0.00202755
0.00215812
-0.00210255
0.00226533
-0.000256531
9.57308e-05
0.000496484
-0.00024824
-2.29586e-05
-0.000481089
0.000110784
-0.000836043
0.000118225
-0.00158716
0.00166111
-0.00249106
0.00175918
-0.00227919
0.00258184
-0.00299191
0.00269423
-0.00322116
0.00339247
-0.00381182
-0.00360427
0.000329232
-0.000238638
-0.000193036
-0.00025015
-0.000280788
-0.000329128
-0.000370282
-0.00039162
-0.000454982
-0.000491927
-0.000490567
-0.000558988
-0.000593712
-0.000571822
-0.000616562
-0.000646329
-0.000621645
-0.000602673
-0.000637056
-0.000618035
-0.000540162
-0.000531668
-0.000486238
-0.000416193
-0.000312684
-0.000215469
-9.63808e-05
1.25972e-05
0.000187704
0.000374938
0.000694938
0.00104124
0.00155524
0.00219526
0.00350868
0.00421
0.00466542
0.0169332
0.0425618
0.0304713
-0.00851292
-0.00440136
0.00123524
-0.00490302
0.00180841
-0.00401867
0.00227485
-0.00412741
0.00255681
-0.0031496
0.0018007
-0.0017817
0.001139
-0.000764742
0.000647182
-0.000974439
-0.000527902
-0.00078045
3.56178e-05
-9.29508e-05
-0.00107797
0.000124708
-0.00073367
-0.000238058
-0.000629068
-0.000330119
-0.000584518
-0.000164462
-0.000488855
-0.00055617
-0.000399013
-0.000333293
-0.000753112
-6.07922e-06
-0.00147945
-0.000846258
-0.00140749
0.00116746
0.00678379
-0.00434016
0.0101422
-0.00125409
0.00222709
-0.00433652
-0.00557026
0.000172877
0.00332555
-0.00218512
0.00134141
-0.00530855
-0.00574986
-0.000805151
-0.000105667
-0.00416224
0.00361269
-0.00208667
0.00198027
-0.000299613
-0.000189143
-0.000745258
0.00108798
-0.000581484
-0.000215898
-0.00054929
-0.000373931
-0.000772286
-0.000243424
-0.000832053
0.000636468
-0.00079277
0.00095478
-0.00189791
0.00140157
-0.00271745
0.00248489
-0.00286338
0.00317627
-0.00392763
-0.00360484
0.00032845
-0.000240704
-0.000194886
-0.000252039
-0.000282828
-0.000330565
-0.000374213
-0.000397048
-0.000454927
-0.000496499
-0.000505467
-0.000559036
-0.000600166
-0.000599424
-0.000617949
-0.000663588
-0.00065649
-0.000614003
-0.000663732
-0.000654518
-0.000588887
-0.000564824
-0.00052751
-0.000475893
-0.000358336
-0.000253705
-0.00011914
-1.80722e-05
0.000138303
0.000340015
0.000595257
0.000946241
0.00130396
0.00172952
0.00210448
0.00284609
0.00304414
0.0127172
0.0475959
0.0328185
-0.00831573
-0.00532255
0.00358385
-0.00533304
0.00418804
-0.00326334
0.00365271
-0.00247962
0.00270733
-0.00117963
0.00172801
-0.000752339
0.000531787
-0.000794839
-0.000314099
0.000175136
-0.000865363
0.000368808
-0.00247607
0.00214568
-0.000848297
-0.000989267
-0.00030896
-0.00048153
-0.000146673
-0.000268131
-0.000555466
-0.000161346
-0.000528819
-0.000374961
-0.000335305
-0.000630166
-0.000776265
-0.00100673
-0.0022824
-0.00102913
-0.000193308
0.00184639
0.010389
-0.00480756
0.00563958
0.000811436
0.00611918
-0.0046966
-0.00117997
-0.00527993
0.00328513
-0.00666206
0.00412096
-0.00100139
0.00482774
-7.33612e-05
-3.43231e-05
0.00179947
-0.00457676
0.0034541
-0.00236651
0.00211406
-0.00155904
0.00169604
-0.000910321
-0.000723176
1.06914e-06
-0.000622218
-0.000122591
-0.00102687
0.000331735
-0.00107817
0.000381823
-0.000935633
0.00141246
-0.00220873
0.00117103
-0.00223137
0.00253903
-0.00280795
0.00316782
-0.00398196
-0.00360714
0.000327952
-0.000242798
-0.000196741
-0.000254703
-0.000284777
-0.00033224
-0.000376339
-0.000405901
-0.000455197
-0.000502099
-0.000524325
-0.000553941
-0.000612474
-0.000622946
-0.000618152
-0.000681833
-0.000688378
-0.00064799
-0.000681602
-0.000687111
-0.000665414
-0.000601915
-0.000582627
-0.000542247
-0.00047549
-0.000377041
-0.000281211
-0.00019629
-9.11983e-05
3.59899e-05
0.000221486
0.000413378
0.000707656
0.00115449
0.00174402
0.00225213
0.00573659
0.00481026
0.0618324
0.04768
-0.000506717
0.00148605
0.00451
-0.00297286
0.00284626
-0.00473259
0.00383698
-0.00357663
0.00266341
-0.00311362
0.00293726
-0.00233671
0.00242784
-0.00145808
0.000810249
-0.000688904
-2.65392e-05
-0.00169772
-0.00122397
0.000253654
0.000517159
2.75591e-05
-0.000769937
0.000376768
-0.0001392
-0.000362247
-0.000420191
-0.000430784
-0.00018544
-0.000449682
-0.000617706
-0.00107118
-0.000965795
-0.000897443
-0.000806291
-0.00149285
0.00199894
0.00554123
-0.00017498
0.00309372
0.00131567
-0.0107672
0.00031992
0.00421772
-0.000110364
-0.00259195
-0.00105217
-0.00406073
-0.000449871
-0.00521821
0.00060732
-0.000113484
-0.000494656
-0.00117976
0.00289702
-0.0034575
0.00210399
-0.00247363
-3.05396e-05
-0.000852231
-0.000811829
-0.000255234
3.5615e-05
-0.00082725
-0.000104686
-0.000929157
0.000281636
-0.000777776
8.49492e-05
-0.0011244
0.00253879
-0.0036657
0.00208285
-0.00265928
0.00216246
-0.00233619
0.00293808
-0.00397648
-0.00360941
0.000327709
-0.000244847
-0.000198468
-0.000257169
-0.000288188
-0.000333376
-0.000379958
-0.000417412
-0.000452409
-0.000507769
-0.000543735
-0.00055421
-0.000618573
-0.000648435
-0.000638023
-0.000686542
-0.000720532
-0.000705894
-0.000680379
-0.000732712
-0.000728974
-0.000656565
-0.000625008
-0.000626836
-0.000567774
-0.000466808
-0.000371058
-0.000273577
-0.000224998
-0.000143202
4.6513e-06
9.70046e-05
-9.05456e-06
-0.00010255
-0.00109317
-0.0025956
-0.00575745
0.00950754
0.0532682
0.0148485
-0.00799362
-0.00418871
-0.00375843
-0.000417783
-0.00520146
0.00400881
-0.00541521
0.00514503
-0.00626469
0.00577185
-0.00599981
0.00425603
-0.00396258
0.00291405
-0.00217897
0.000419898
-0.000707209
-0.00124096
-0.00145756
0.000997135
-0.000377808
-0.000241776
-0.000743606
-0.000281914
-0.000497822
-1.92577e-05
-6.91112e-05
-2.08516e-05
9.28571e-05
0.000119622
-0.000547506
-0.000411427
-0.000633829
-0.000604155
-0.00122124
0.00441422
0.00230408
0.0113528
-0.00522324
-0.00125694
0.00705177
0.00138797
-0.00236552
-0.00182849
-0.00462857
-0.000557999
-0.00353643
6.83337e-05
-0.00346424
0.0012632
-0.00453816
0.00110549
-0.00268616
0.000145542
-0.000971413
0.00058709
-0.00217011
0.000389065
-0.000110406
0.00119906
-0.000642415
0.000616636
0.000323413
-0.000459119
0.000646064
-0.000826207
0.000432459
-0.000809808
0.000120395
-0.00134765
0.00202522
-0.00373086
0.00275913
-0.0030302
0.00282037
-0.00226275
0.00269792
-0.00385423
-0.00361327
0.000327519
-0.00024674
-0.000199876
-0.000259946
-0.000292497
-0.000334106
-0.000382755
-0.000427459
-0.000450118
-0.000516859
-0.000557101
-0.000561468
-0.000627231
-0.000667284
-0.000664158
-0.000693328
-0.00075273
-0.00075068
-0.00070502
-0.000775247
-0.000781316
-0.000757585
-0.000667182
-0.000713052
-0.000679511
-0.000676459
-0.000542802
-0.000443778
-0.000557882
-0.00060498
-0.000606771
-0.000674118
-0.00099975
-0.00161163
-0.00216773
-0.00115826
-0.00654313
0.0410356
0.0415421
0.0317404
0.00927546
0.0155542
-0.00428635
0.00582688
-0.00464678
0.00185347
-0.00394551
0.000688432
-0.000743596
-0.000682085
0.000320432
-0.00140824
-0.000135302
-0.00128176
-0.000491197
-0.000800108
-0.000489096
-0.000704125
-0.00026721
-3.26053e-06
-0.000959176
-0.000561833
0.000615682
0.000436623
0.000154922
0.000466138
-2.40651e-05
0.000452332
0.000995373
4.67534e-05
-0.00044716
0.000805044
-0.000679265
0.00155488
0.00349577
0.00544403
0.000611102
0.00701975
-0.000234453
0.00120585
-0.00771139
0.00133635
-0.00318485
0.00284188
-0.000625042
0.00552697
-0.00382828
0.00193733
-0.00246682
-0.00272204
-0.000443188
-0.00236898
-0.000849707
-0.000816411
-0.000172144
-0.00176619
0.00152202
-1.58205e-05
0.000707503
-0.000561063
-4.97889e-05
0.000311887
-0.000181977
-0.000581115
-0.000221588
-0.000839488
9.40066e-05
-0.000622034
-1.57708e-05
-0.00104875
0.000941491
-0.00182333
0.00184085
-0.00285826
0.00250549
-0.00219758
0.00242276
-0.00383324
-0.00361745
0.000327675
-0.000248792
-0.000201238
-0.000262128
-0.000297961
-0.000334133
-0.00038638
-0.000437112
-0.000453764
-0.000520151
-0.000570798
-0.000578309
-0.000629623
-0.000687462
-0.00069934
-0.000700654
-0.00078135
-0.000793978
-0.000765582
-0.000798218
-0.000838365
-0.000834885
-0.000769734
-0.000764677
-0.000810111
-0.000757344
-0.000736566
-0.00062855
-0.000623622
-0.000678254