/*--------------------------------*- C++ -*----------------------------------*\
| =========                 |                                                 |
| \\      /  F ield         | OpenFOAM: The Open Source CFD Toolbox           |
|  \\    /   O peration     | Version:  2.2.x                                 |
|   \\  /    A nd           | Web:      www.OpenFOAM.org                      |
|    \\/     M anipulation  |                                                 |
\*---------------------------------------------------------------------------*/
FoamFile
{
    version     2.0;
    format      ascii;
    class       volScalarField;
    location    "0.75";
    object      p;
}
// * * * * * * * * * * * * * * * * * * * * * * * * * * * * * * * * * * * * * //

dimensions      [1 -1 -2 0 0 0 0];

internalField   nonuniform List<scalar> 
14161
(
0.197295
0.19776
0.197572
0.197551
0.197427
0.197279
0.197104
0.196906
0.196682
0.196447
0.196186
0.195918
0.195633
0.195349
0.195046
0.19475
0.194464
0.194147
0.19386
0.19358
0.193298
0.193031
0.192797
0.192579
0.192375
0.192182
0.192017
0.191876
0.191746
0.191662
0.191604
0.191575
0.191554
0.191564
0.191616
0.191694
0.191808
0.191929
0.192088
0.192289
0.192515
0.192805
0.193136
0.19354
0.193764
0.194052
0.194267
0.194587
0.194122
0.194059
0.189931
0.189504
0.18827
0.371586
1.38421
1.35894
1.36481
1.37169
1.38691
1.40174
1.40745
1.39394
1.38556
1.3684
1.34608
1.32489
1.29821
1.27488
1.25952
1.25526
1.24744
1.24056
1.26316
1.31226
1.34558
1.36452
1.41144
1.51168
1.60589
1.72217
1.82756
1.87838
1.93428
1.96122
1.97049
1.98952
1.99521
1.993
1.99803
2.00123
2.00148
1.99961
1.99637
1.99459
1.99467
1.99308
1.99259
1.99238
1.99277
1.99266
1.99171
1.99003
1.98798
1.98578
1.98348
1.98204
1.98034
1.97951
1.97903
1.97822
1.9789
1.97731
1.9794
1.97707
1.98067
1.97759
1.97882
1.97958
1.98027
0.197298
0.197761
0.19757
0.197547
0.197426
0.197283
0.197104
0.196906
0.196684
0.196444
0.196186
0.195911
0.195646
0.195343
0.195041
0.194756
0.194462
0.194163
0.193857
0.193562
0.19328
0.193024
0.192798
0.192587
0.192383
0.19218
0.192014
0.191866
0.191736
0.191641
0.19158
0.191541
0.191517
0.191508
0.191542
0.191598
0.191658
0.191766
0.1919
0.192061
0.192268
0.192509
0.192792
0.193089
0.193362
0.193767
0.194154
0.195017
0.195478
0.196078
0.196231
0.198212
0.196675
0.787878
1.52945
1.62387
1.6399
1.57943
1.53519
1.48951
1.45882
1.41432
1.37879
1.33726
1.29566
1.26716
1.24039
1.22043
1.20328
1.1844
1.19496
1.25452
1.28567
1.29564
1.33326
1.4139
1.49954
1.54934
1.63656
1.72738
1.78621
1.83918
1.90186
1.9354
1.95995
1.97862
1.99077
1.99408
1.99402
1.99787
1.99955
1.99832
1.99661
1.99618
1.99614
1.99509
1.99492
1.99509
1.99556
1.99551
1.99485
1.9933
1.99166
1.98979
1.98779
1.98606
1.9847
1.98375
1.98351
1.9822
1.98285
1.98116
1.98272
1.98062
1.98353
1.98142
1.98249
1.98403
1.98497
0.197301
0.197762
0.197574
0.197553
0.197429
0.197285
0.197104
0.196907
0.196683
0.196444
0.196191
0.195907
0.195636
0.195351
0.195049
0.194752
0.194447
0.194137
0.193849
0.193582
0.193312
0.193036
0.192795
0.192571
0.192362
0.19217
0.192008
0.191861
0.191736
0.191657
0.191606
0.191585
0.191578
0.191604
0.191673
0.191761
0.191882
0.192064
0.192272
0.1925
0.192725
0.192956
0.193322
0.193682
0.19406
0.194323
0.194619
0.195231
0.196027
0.198122
0.200453
0.204134
0.19542
1.06405
1.61925
1.71112
1.71447
1.62411
1.56446
1.50414
1.45379
1.39639
1.34657
1.29215
1.25253
1.22312
1.19364
1.16625
1.1439
1.13221
1.12752
1.15533
1.18402
1.2377
1.34919
1.41884
1.44907
1.51903
1.57645
1.61063
1.67207
1.72922
1.79646
1.85668
1.9106
1.94295
1.95832
1.9757
1.98543
1.9885
1.99077
1.99183
1.99193
1.99031
1.98995
1.98851
1.98808
1.98821
1.98866
1.98837
1.98797
1.98661
1.98503
1.98309
1.98112
1.97932
1.97763
1.97681
1.97686
1.97538
1.97624
1.97442
1.97589
1.97461
1.97749
1.97672
1.97646
1.97856
1.98005
0.197303
0.197761
0.197575
0.197553
0.197429
0.197286
0.197105
0.196905
0.196678
0.196448
0.196189
0.195919
0.195631
0.195336
0.195049
0.194761
0.194456
0.194136
0.193845
0.193568
0.193289
0.193024
0.192793
0.192573
0.192362
0.192161
0.191991
0.191836
0.191701
0.191601
0.191532
0.191484
0.191436
0.191414
0.191412
0.191426
0.191452
0.191511
0.191596
0.191728
0.191862
0.192006
0.192157
0.192341
0.192557
0.192916
0.193488
0.194211
0.195043
0.196168
0.199615
0.20634
0.201313
1.02616
1.62211
1.69867
1.69602
1.59456
1.5372
1.46666
1.41269
1.35946
1.31012
1.27388
1.23717
1.20088
1.17548
1.13693
1.11871
1.1081
1.1023
1.09238
1.13833
1.18425
1.25451
1.31053
1.36698
1.41576
1.43843
1.47407
1.51495
1.55581
1.63605
1.71032
1.79831
1.87215
1.91613
1.94249
1.96508
1.97365
1.97862
1.98084
1.98387
1.98515
1.98571
1.98457
1.98406
1.98424
1.98484
1.98462
1.98462
1.9839
1.98313
1.98183
1.98088
1.98019
1.98051
1.98056
1.98002
1.9791
1.97894
1.97756
1.97808
1.9778
1.97877
1.97798
1.9761
1.97728
1.98022
0.197308
0.197762
0.197576
0.197554
0.19743
0.197287
0.197106
0.196908
0.196684
0.196445
0.196183
0.195916
0.195632
0.195346
0.195048
0.194752
0.194438
0.194135
0.193852
0.193574
0.193288
0.193021
0.192781
0.192557
0.192345
0.192147
0.191979
0.191828
0.191707
0.191628
0.191584
0.191564
0.191559
0.191594
0.191663
0.191758
0.191898
0.192098
0.192319
0.192525
0.192757
0.193011
0.193342
0.193594
0.193821
0.193979
0.194271
0.194737
0.195615
0.196664
0.197731
0.198265
0.201862
0.761562
1.52743
1.61661
1.54932
1.47075
1.41974
1.37103
1.32361
1.28768
1.24162
1.22039
1.17486
1.14814
1.13207
1.08974
1.07718
1.0582
1.06255
1.04839
1.08895
1.10614
1.17584
1.24087
1.26886
1.29802
1.31881
1.33422
1.35857
1.39728
1.46528
1.52599
1.61966
1.72075
1.81129
1.88025
1.92367
1.9483
1.96311
1.97071
1.97355
1.97528
1.97602
1.97582
1.97595
1.97555
1.97605
1.97605
1.97633
1.97594
1.97586
1.97518
1.97451
1.97436
1.97457
1.97456
1.97428
1.97307
1.97296
1.9717
1.97219
1.97103
1.97116
1.97093
1.96775
1.96977
1.97331
0.19731
0.197762
0.197577
0.197554
0.19743
0.197286
0.197106
0.196904
0.196684
0.196441
0.19619
0.195915
0.195625
0.195335
0.195052
0.194768
0.194441
0.194133
0.193837
0.19355
0.193271
0.193009
0.192772
0.192548
0.19233
0.192122
0.191946
0.191785
0.191644
0.191534
0.191453
0.191391
0.191322
0.191262
0.191231
0.191206
0.191196
0.191208
0.191234
0.191274
0.191283
0.191305
0.191328
0.191344
0.19145
0.191548
0.191701
0.191653
0.191423
0.191315
0.189917
0.188533
0.193514
0.311068
1.26614
1.4871
1.3508
1.2965
1.26611
1.24544
1.2095
1.19244
1.15832
1.14645
1.10577
1.10077
1.06156
1.04205
1.02302
1.02142
1.00032
1.01754
1.00587
1.06912
1.09342
1.17336
1.18716
1.20291
1.22798
1.24056
1.25958
1.27671
1.31875
1.36565
1.42753
1.51435
1.63294
1.74588
1.84412
1.89945
1.9326
1.95037
1.95646
1.96049
1.96386
1.96564
1.96685
1.96788
1.96939
1.97058
1.97234
1.97389
1.97488
1.97546
1.97518
1.97488
1.97554
1.97534
1.97605
1.9744
1.97519
1.97303
1.97313
1.9708
1.96976
1.96875
1.96384
1.96497
1.96707
0.197316
0.197763
0.197578
0.197555
0.197431
0.197287
0.197107
0.196908
0.196684
0.196437
0.19619
0.195916
0.195626
0.19533
0.195052
0.194749
0.194431
0.194132
0.193843
0.19356
0.193269
0.192996
0.192744
0.192509
0.192301
0.192108
0.191934
0.191772
0.191643
0.19156
0.19151
0.191489
0.191485
0.191505
0.191577
0.191666
0.191803
0.191981
0.192169
0.192356
0.192572
0.192843
0.193056
0.193204
0.193312
0.193199
0.193263
0.193411
0.193533
0.193011
0.191388
0.19075
0.190014
0.195629
0.840212
1.36665
1.30697
1.23391
1.18944
1.163
1.14305
1.12505
1.12658
1.06945
1.06697
1.03133
1.02885
0.971927
0.983506
0.958007
0.966288
0.94635
0.988091
0.998459
1.09422
1.11689
1.15236
1.15116
1.17859
1.17435
1.19796
1.20193
1.23081
1.25849
1.29284
1.34906
1.43566
1.5344
1.66074
1.79057
1.87295
1.91437
1.93476
1.94231
1.94814
1.95093
1.95373
1.95692
1.95991
1.96322
1.96582
1.96823
1.97129
1.97318
1.9735
1.97349
1.97431
1.97397
1.97581
1.97482
1.97581
1.97315
1.97294
1.96909
1.96739
1.96532
1.95886
1.95822
1.96014
0.197318
0.197763
0.197578
0.197555
0.197431
0.197288
0.197106
0.196908
0.196683
0.196436
0.196183
0.195916
0.195619
0.19533
0.195052
0.194738
0.194418
0.194123
0.193835
0.193532
0.193251
0.192993
0.192742
0.192497
0.192276
0.192071
0.191885
0.191706
0.191549
0.191415
0.191312
0.191235
0.191148
0.191069
0.190991
0.19094
0.190884
0.19084
0.190807
0.190757
0.190671
0.190569
0.190489
0.190425
0.190234
0.1901
0.189838
0.189489
0.188911
0.18803
0.186611
0.186393
0.190009
0.221291
0.961455
1.38667
1.33105
1.239
1.18948
1.14209
1.12744
1.10628
1.11182
1.05028
1.05088
1.0127
1.01358
0.956319
0.970837
0.944061
0.954531
0.928483
0.979322
0.996249
1.07955
1.08229
1.1167
1.10422
1.12616
1.12275
1.13391
1.14345
1.16996
1.19241
1.21331
1.24723
1.29686
1.36448
1.45027
1.57976
1.73002
1.83726
1.88793
1.90747
1.92147
1.93083
1.93675
1.94131
1.94673
1.95227
1.95688
1.96066
1.96515
1.96805
1.97116
1.9727
1.97408
1.97383
1.97689
1.97609
1.97761
1.97392
1.97269
1.96686
1.96469
1.96042
1.9551
1.95204
1.95429
0.197324
0.197765
0.19758
0.197556
0.197432
0.197288
0.197107
0.196907
0.196683
0.196434
0.196181
0.195916
0.195614
0.195329
0.195046
0.194731
0.194412
0.194121
0.193832
0.193517
0.193229
0.192971
0.192716
0.192468
0.192249
0.192046
0.19186
0.191683
0.191538
0.191425
0.191358
0.191319
0.1913
0.191307
0.191346
0.191435
0.191536
0.191674
0.191855
0.192036
0.192228
0.192418
0.192661
0.192905
0.193141
0.193202
0.193265
0.193297
0.193398
0.193516
0.193813
0.194424
0.202347
0.261179
0.949521
1.23522
1.31082
1.25322
1.22782
1.15789
1.13804
1.11494
1.11587
1.05269
1.05311
1.01332
1.01528
0.958844
0.972166
0.944581
0.959514
0.936423
0.994706
1.0198
1.08665
1.06721
1.10029
1.08589
1.11056
1.10916
1.12338
1.11879
1.13338
1.14046
1.15393
1.17264
1.19494
1.22931
1.28048
1.37044
1.50625
1.67497
1.79422
1.84504
1.87405
1.8911
1.90406
1.91629
1.92742
1.93598
1.94249
1.94988
1.95693
1.96252
1.96772
1.97047
1.97371
1.97313
1.97618
1.97541
1.97748
1.97426
1.97316
1.96646
1.96247
1.95579
1.94973
1.94283
1.94609
0.197327
0.197766
0.19758
0.197556
0.197432
0.197288
0.197106
0.196906
0.196682
0.196431
0.196179
0.195912
0.195612
0.195324
0.195046
0.194718
0.1944
0.194106
0.193815
0.193498
0.193215
0.192959
0.192697
0.192432
0.192201
0.191986
0.191786
0.191591
0.191421
0.191263
0.19113
0.19102
0.190913
0.190804
0.190696
0.190601
0.190505
0.190416
0.190323
0.190214
0.190119
0.190073
0.189996
0.189853
0.189553
0.189387
0.189239
0.189247
0.189459
0.189817
0.189648
0.188229
0.203633
0.385087
0.931334
1.10528
1.26657
1.26541
1.25064
1.18128
1.16373
1.127
1.12628
1.06308
1.06459
1.02199
1.02435
0.973526
0.982391
0.948858
0.967167
0.945518
1.0205
1.05106
1.10131
1.07574
1.09952
1.0717
1.08741
1.0818
1.09509
1.08838
1.09723
1.10125
1.11006
1.11951
1.12819
1.14121
1.16905
1.2239
1.3059
1.46744
1.62903
1.74532
1.79423
1.83207
1.86403
1.88397
1.89591
1.91429
1.93067
1.94008
1.94769
1.95553
1.96258
1.96695
1.97309
1.97289
1.97696
1.97601
1.97805
1.97399
1.97358
1.96576
1.96023
1.95064
1.94349
1.93479
1.93795
0.197332
0.197768
0.197581
0.197556
0.197432
0.197288
0.197106
0.196906
0.196681
0.19643
0.196177
0.195911
0.19561
0.195319
0.195038
0.194707
0.194393
0.194099
0.193802
0.193477
0.193188
0.192926
0.192665
0.192398
0.192163
0.19194
0.191734
0.191547
0.191387
0.191251
0.191146
0.191076
0.191035
0.191008
0.191012
0.191038
0.191112
0.191214
0.191378
0.191515
0.191656
0.191822
0.192097
0.192531
0.193006
0.193161
0.19322
0.193425
0.194001
0.195446
0.19801
0.20187
0.221069
0.656597
0.877593
0.983754
1.12723
1.22128
1.25521
1.20215
1.19182
1.13636
1.13682
1.07077
1.07331
1.02906
1.03035
0.989309
0.987186
0.952004
0.977078
0.969044
1.04477
1.07606
1.11516
1.08867
1.10573
1.08377
1.09233
1.08185
1.08346
1.0731
1.07648
1.07612
1.0772
1.07588
1.07536
1.07273
1.08438
1.11723
1.17393
1.28952
1.48132
1.62734
1.72259
1.78635
1.81716
1.84186
1.87328
1.89629
1.90447
1.92174
1.93854
1.94919
1.95715
1.96366
1.97284
1.9747
1.97964
1.97915
1.98051
1.97351
1.97155
1.96345
1.95766
1.94667
1.93775
1.92799
1.92933
0.197335
0.197769
0.197582
0.197557
0.197432
0.197288
0.197105
0.196905
0.196679
0.196429
0.196174
0.195907
0.195605
0.195314
0.19503
0.194698
0.194381
0.194081
0.193781
0.193459
0.193169
0.192897
0.192629
0.192353
0.192102
0.191866
0.191642
0.191431
0.191241
0.191063
0.190894
0.190743
0.190602
0.190474
0.190347
0.19023
0.190076
0.189956
0.189818
0.189708
0.189554
0.189466
0.189336
0.189064
0.188871
0.188846
0.188787
0.188752
0.188743
0.18766
0.185029
0.186257
0.209431
0.773392
0.874255
0.925135
0.975547
1.07842
1.18968
1.17956
1.18881
1.13091
1.13267
1.06922
1.0706
1.02881
1.02546
1.00025
0.98815
0.960703
0.992513
0.991172
1.09007
1.08516
1.12081
1.08936
1.10558
1.09234
1.09518
1.08468
1.08065
1.06712
1.06436
1.06255
1.05934
1.05562
1.05453
1.04909
1.05937
1.08291
1.12477
1.22003
1.39539
1.55524
1.68129
1.75682
1.80768
1.84059
1.86553
1.89344
1.91493
1.92419
1.93678
1.95345
1.96801
1.97395
1.98024
1.97932
1.98184
1.98143
1.98287
1.97408
1.97147
1.96163
1.95549
1.94121
1.93089
1.91891
1.91898
0.197339
0.197771
0.197582
0.197557
0.197432
0.197287
0.197104
0.196904
0.196679
0.196429
0.196171
0.195905
0.195602
0.195306
0.195019
0.194694
0.19437
0.194067
0.193765
0.193438
0.193132
0.192843
0.192573
0.192305
0.192054
0.191811
0.191581
0.191371
0.191186
0.191016
0.190871
0.19075
0.190658
0.1906
0.19057
0.190547
0.190556
0.190607
0.190661
0.190742
0.190821
0.190996
0.191292
0.191493
0.191715
0.191766
0.192005
0.192185
0.192986
0.193215
0.193938
0.208314
0.315306
0.870511
0.894509
0.90956
0.92727
0.98514
1.04836
1.16907
1.13561
1.16499
1.104
1.10379
1.05005
1.04163
1.01494
1.00573
0.993422
0.981008
1.03317
1.06191
1.14547
1.11878
1.1474
1.11342
1.12264
1.10664
1.10923
1.09874
1.09643
1.08072
1.0697
1.06241
1.05604
1.05232
1.05003
1.04982
1.06228
1.09111
1.13981
1.23959
1.39698
1.53883
1.6651
1.73806
1.78801
1.83844
1.87067
1.88781
1.90213
1.9189
1.93281
1.94156
1.95338
1.96177
1.97213
1.97247
1.97664
1.9785
1.98123
1.97374
1.97118
1.9598
1.95256
1.93457
1.92559
1.90659
1.91003
0.197342
0.197772
0.197583
0.197557
0.197432
0.197287
0.197103
0.196903
0.196678
0.196429
0.196167
0.1959
0.195599
0.195299
0.195007
0.194686
0.194356
0.194042
0.193734
0.193423
0.193108
0.192801
0.192514
0.192243
0.191991
0.191731
0.191473
0.191241
0.191024
0.190804
0.190595
0.190399
0.19022
0.190046
0.189889
0.189743
0.189577
0.189406
0.18923
0.189024
0.188838
0.188707
0.188566
0.188387
0.18803
0.187664
0.187491
0.187145
0.187251
0.187228
0.186519
0.206405
0.588119
0.896227
0.911436
0.905669
0.897732
0.908433
0.998269
1.03785
1.13867
1.11521
1.14838
1.07895
1.0687
1.02966
1.03783
1.02414
1.03772
1.04434
1.1551
1.1817
1.24139
1.21558
1.23051
1.2023
1.19932
1.18086
1.17422
1.16018
1.15072
1.13457
1.12269
1.11455
1.10704
1.10421
1.10431
1.11212
1.13802
1.18159
1.24958
1.35716
1.47468
1.58888
1.69171
1.74078
1.79411
1.83276
1.86468
1.88803
1.90749
1.92264
1.93116
1.9394
1.94936
1.9573
1.96727
1.96812
1.97379
1.97771
1.98021
1.97373
1.97064
1.95753
1.94902
1.93002
1.91826
1.89461
1.90243
0.197345
0.197773
0.197583
0.197557
0.197432
0.197287
0.197103
0.196901
0.196677
0.19643
0.196164
0.195895
0.195599
0.195293
0.19499
0.194682
0.194349
0.194019
0.193695
0.193384
0.193073
0.192752
0.192458
0.192188
0.191924
0.191645
0.191384
0.191155
0.190937
0.190716
0.190504
0.19033
0.190199
0.190083
0.19001
0.189964
0.189891
0.189833
0.189783
0.189764
0.189797
0.189928
0.190038
0.19012
0.190131
0.190078
0.190139
0.190455
0.190787
0.191445
0.191395
0.211365
0.771622
0.920346
0.924779
0.920879
0.900394
0.896029
0.923322
0.997054
1.02706
1.13022
1.09261
1.1465
1.07717
1.07563
1.14361
1.19009
1.27844
1.3477
1.42039
1.42389
1.44155
1.42509
1.41718
1.39384
1.37636
1.35247
1.33491
1.31827
1.29983
1.28506
1.27449
1.26552
1.26054
1.26215
1.26971
1.28428
1.31271
1.34612
1.39759
1.46113
1.54765
1.64211
1.72069
1.77135
1.80773
1.83353
1.86094
1.8823
1.9056
1.92195
1.93271
1.94
1.94916
1.95513
1.96521
1.96526
1.97222
1.97689
1.97921
1.97261
1.96952
1.9562
1.94676
1.92508
1.90858
1.88618
1.89384
0.197347
0.197774
0.197583
0.197557
0.197432
0.197286
0.197103
0.196899
0.196675
0.196427
0.19616
0.195881
0.195598
0.195283
0.194969
0.19466
0.194337
0.193992
0.193666
0.193353
0.193026
0.192705
0.192405
0.192134
0.191845
0.191519
0.19124
0.190994
0.190757
0.190502
0.190219
0.18998
0.189756
0.189534
0.189373
0.189202
0.188975
0.1887
0.188401
0.188163
0.187965
0.18776
0.187395
0.187091
0.186843
0.18675
0.186456
0.18605
0.184239
0.181839
0.189031
0.219192
0.845941
0.933139
0.933284
0.916779
0.912137
0.925166
0.948852
0.933694
0.957873
1.07642
1.19315
1.19084
1.29566
1.33645
1.44938
1.54728
1.61211
1.64343
1.64768
1.64118
1.64033
1.62901
1.61828
1.60032
1.58347
1.56491
1.54784
1.53244
1.51793
1.50692
1.49685
1.48841
1.48401
1.48207
1.48223
1.4864
1.49404
1.51021
1.52809
1.56341
1.61849
1.68198
1.74022
1.78229
1.81509
1.8426
1.86414
1.88317
1.90299
1.91641
1.92868
1.93644
1.94591
1.95043
1.96108
1.96083
1.96949
1.97479
1.97627
1.97038
1.96724
1.95469
1.94424
1.91993
1.89979
1.87986
1.88004
0.197349
0.197775
0.197584
0.197557
0.197432
0.197286
0.197102
0.196898
0.19667
0.196425
0.196153
0.195874
0.195594
0.195271
0.194954
0.194644
0.194318
0.193969
0.193642
0.193325
0.192976
0.192643
0.192332
0.192066
0.191761
0.19141
0.191126
0.190868
0.190642
0.190383
0.190088
0.189857
0.189655
0.189487
0.189365
0.189294
0.189147
0.188993
0.188815
0.188725
0.188651
0.188576
0.188459
0.188395
0.188246
0.188276
0.188152
0.188606
0.187771
0.186429
0.203359
0.373882
0.942355
0.944795
0.937427
0.935467
0.938298
0.949838
0.952527
0.938916
0.992745
1.20406
1.35377
1.46826
1.56422
1.62255
1.65621
1.68628
1.70178
1.70442
1.69693
1.6925
1.69213
1.68615
1.68076
1.67376
1.66766
1.66116
1.65372
1.64289
1.63261
1.62264
1.61186
1.60236
1.59221
1.5835
1.57233
1.56587
1.5609
1.56503
1.57861
1.6057
1.65136
1.70378
1.75694
1.78822
1.81961
1.84095
1.86317
1.88149
1.89892
1.91353
1.92464
1.93321
1.94026
1.94492
1.95493
1.95436
1.9641
1.9699
1.97192
1.9659
1.96351
1.95134
1.9405
1.91307
1.8943
1.8671
1.86873
0.197351
0.197776
0.197584
0.197556
0.197432
0.197285
0.197101
0.196894
0.196667
0.196423
0.196146
0.195867
0.195587
0.195258
0.194939
0.194626
0.194292
0.19394
0.193615
0.193293
0.192926
0.192585
0.192267
0.191994
0.191671
0.191286
0.190973
0.190681
0.190434
0.190141
0.189789
0.189488
0.189211
0.18896
0.188719
0.188571
0.188303
0.188037
0.187614
0.187378
0.18717
0.187
0.186792
0.186648
0.18646
0.186677
0.186958
0.187545
0.187969
0.188471
0.212215
0.693303
0.939412
0.949337
0.943818
0.943377
0.957727
0.976939
0.987146
1.00658
1.16809
1.45729
1.61465
1.67317
1.67753
1.68653
1.69247
1.69755
1.69791
1.69945
1.70196
1.70089
1.69891
1.69318
1.68848
1.68736
1.68592
1.6836
1.67797
1.67292
1.66535
1.65473
1.64489
1.6338
1.62296
1.61381
1.60548
1.6004
1.59543
1.59824
1.61029
1.63426
1.67211
1.71822
1.76236
1.79473
1.82088
1.84203
1.86032
1.87437
1.89197
1.90521
1.91818
1.92761
1.93467
1.93972
1.95001
1.9497
1.96029
1.96541
1.96798
1.9611
1.9611
1.94686
1.93643
1.90445
1.88955
1.85206
1.86064
0.197353
0.197776
0.197584
0.197556
0.197431
0.197285
0.1971
0.196891
0.196662
0.19642
0.19614
0.195861
0.195579
0.195246
0.194922
0.194612
0.194264
0.19391
0.193583
0.193256
0.192864
0.192516
0.192186
0.191914
0.191587
0.191188
0.190847
0.190532
0.190272
0.189967
0.189623
0.189314
0.18905
0.188812
0.188609
0.188503
0.188358
0.188142
0.187926
0.187667
0.187487
0.187288
0.186905
0.186614
0.186429
0.186218
0.186095
0.185308
0.183012
0.182696
0.20864
0.828284
0.942813
0.947751
0.946251
0.949797
0.970619
0.995817
1.02222
1.12153
1.41387
1.63523
1.70128
1.70226
1.69461
1.68976
1.68548
1.67858
1.67748
1.67398
1.67514
1.67363
1.67405
1.67764
1.67852
1.68073
1.6785
1.67736
1.67692
1.67362
1.66553
1.65732
1.65068
1.64124
1.63272
1.62403
1.61762
1.61452
1.61351
1.6174
1.62854
1.64915
1.6824
1.72227
1.7592
1.79112
1.81625
1.83864
1.85578
1.8702
1.88688
1.89796
1.9122
1.91987
1.92824
1.9317
1.94325
1.94429
1.95449
1.96015
1.96132
1.95689
1.95557
1.94223
1.93076
1.89984
1.87751
1.84303
1.852
0.197354
0.197776
0.197584
0.197556
0.197431
0.197284
0.197098
0.196887
0.196658
0.196416
0.196134
0.195853
0.195571
0.195233
0.194906
0.194597
0.194239
0.19388
0.193548
0.193217
0.192814
0.192448
0.192101
0.191813
0.191481
0.191092
0.190706
0.190353
0.19005
0.189707
0.189317
0.188944
0.188614
0.188302
0.188016
0.187784
0.187604
0.187271
0.186903
0.186479
0.186097
0.18582
0.185628
0.185496
0.185568
0.185435
0.185504
0.184584
0.183139
0.198826
0.298853
0.914134
0.95395
0.9519
0.950133
0.956845
0.988431
1.0408
1.11871
1.35772
1.61978
1.70453
1.70345
1.69341
1.68263
1.67296
1.66549
1.66035
1.66091
1.65748
1.65353
1.65021
1.6507
1.65372
1.65287
1.65569
1.65766
1.66263
1.66429
1.6625
1.65887
1.65481
1.6489
1.64313
1.63706
1.63075
1.62537
1.62243
1.6231
1.62806
1.6385
1.65741
1.68731
1.72413
1.75961
1.78838
1.81137
1.82993
1.84608
1.8602
1.87628
1.89014
1.90394
1.91342
1.92144
1.92548
1.93726
1.93862
1.94872
1.9544
1.95517
1.95185
1.94925
1.93818
1.9248
1.89361
1.86557
1.83624
1.83631
0.197354
0.197776
0.197584
0.197555
0.19743
0.197283
0.197097
0.196884
0.196654
0.196412
0.196128
0.195846
0.195561
0.195219
0.194891
0.194578
0.194218
0.193848
0.193504
0.193164
0.19277
0.192379
0.19202
0.191689
0.191358
0.190976
0.190577
0.190213
0.189903
0.189566
0.189172
0.188759
0.188413
0.188102
0.187859
0.187646
0.187542
0.187271
0.186982
0.186709
0.186404
0.186105
0.185774
0.185257
0.185167
0.185062
0.185685
0.186049
0.185576
0.207842
0.607512
0.921324
0.956136
0.957478
0.952466
0.969487
1.03232
1.1327
1.31665
1.60257
1.71866
1.70882
1.68675
1.67318
1.66745
1.6593
1.65303
1.65004
1.64762
1.6434
1.63834
1.63413
1.62936
1.6281
1.62559
1.62544
1.62735
1.6326
1.63812
1.64252
1.64375
1.64196
1.6393
1.63711
1.63555
1.63275
1.62921
1.62716
1.62743
1.63193
1.64236
1.66037
1.68806
1.72047
1.75419
1.78262
1.80617
1.82449
1.84034
1.85364
1.86831
1.88125
1.89393
1.90513
1.9132
1.91904
1.93065
1.93212
1.94239
1.94699
1.94997
1.94364
1.94449
1.93085
1.91971
1.88498
1.85961
1.82034
1.82424
0.197354
0.197776
0.197583
0.197555
0.19743
0.197282
0.197096
0.196882
0.19665
0.196408
0.196124
0.195838
0.195553
0.195209
0.194875
0.194554
0.194201
0.193817
0.193456
0.193113
0.192729
0.192316
0.191937
0.191572
0.191218
0.190813
0.190396
0.190007
0.189671
0.189317
0.188879
0.188367
0.187952
0.187579
0.187264
0.186989
0.186845
0.186547
0.186118
0.18573
0.18528
0.184946
0.184635
0.184139
0.183997
0.184001
0.183922
0.18407
0.185883
0.207513
0.806504
0.94281
0.965872
0.969822
0.960956
0.992698
1.1129
1.30424
1.55469
1.71244
1.7159
1.68887
1.6685
1.65838
1.65487
1.64948
1.6426
1.63912
1.63559
1.63232
1.62567
1.62186
1.61589
1.61271
1.60861
1.60521
1.60486
1.60834
1.6131
1.61853
1.62243
1.62538
1.62851
1.6279
1.6276
1.62683
1.62733
1.62718
1.62907
1.63309
1.64352
1.66127
1.686
1.71579
1.74642
1.77348
1.79522
1.81502
1.83126
1.84534
1.85968
1.87169
1.88504
1.89558
1.90489
1.91058
1.92226
1.9247
1.93435
1.93901
1.94186
1.93597
1.93717
1.92329
1.91309
1.87597
1.85072
1.80513
1.81489
0.197354
0.197776
0.197583
0.197555
0.197429
0.197281
0.197094
0.196881
0.196645
0.196404
0.19612
0.195826
0.195538
0.195202
0.194858
0.194523
0.194179
0.193784
0.193409
0.193046
0.192667
0.192244
0.191854
0.191482
0.191103
0.190653
0.190241
0.189855
0.189526
0.189199
0.188764
0.188209
0.187795
0.187454
0.187193
0.186946
0.186825
0.186562
0.186178
0.185805
0.185228
0.184775
0.184028
0.18325
0.18227
0.181964
0.181625
0.181178
0.19537
0.291615
0.908695
0.955596
0.974946
0.985597
0.992951
1.07117
1.27771
1.54755
1.69621
1.70299
1.68979
1.68381
1.66547
1.65312
1.64852
1.64164
1.63247
1.62778
1.62287
1.61887
1.61416
1.611
1.60644
1.60199
1.59699
1.59172
1.58889
1.58664
1.58916
1.59202
1.59767
1.60163
1.60887
1.61275
1.61697
1.61945
1.62326
1.62425
1.62811
1.63353
1.64381
1.65907
1.6808
1.70848
1.73713
1.76433
1.78568
1.80588
1.82145
1.83562
1.84934
1.86113
1.87505
1.88503
1.89587
1.90122
1.91389
1.91711
1.92661
1.93116
1.93285
1.92939
1.92857
1.91738
1.90448
1.86891
1.83847
1.7964
1.80135
0.197352
0.197775
0.197582
0.197554
0.197428
0.19728
0.197093
0.196881
0.196641
0.196399
0.196115
0.195817
0.195524
0.195196
0.19484
0.194492
0.19415
0.193756
0.193366
0.192989
0.192603
0.192166
0.191763
0.191389
0.190991
0.190491
0.190055
0.189644
0.189287
0.188941
0.188449
0.187766
0.187266
0.186842
0.186494
0.186181
0.186016
0.185664
0.185196
0.184766
0.184346
0.184186
0.184348
0.184706
0.185116
0.186186
0.187422
0.189271
0.216685
0.635703
0.921201
0.953015
0.984089
1.02203
1.06852
1.24125
1.5375
1.69319
1.71765
1.68358
1.66397
1.66081
1.64633
1.63362
1.62889
1.62761
1.62161
1.61721
1.61193
1.60714
1.60255
1.59945
1.59569
1.59158
1.58785
1.58186
1.57767
1.57417
1.57288
1.574
1.57842
1.58284
1.58995
1.59782
1.60417
1.60959
1.61283
1.61958
1.6224
1.63116
1.63988
1.65473
1.67355
1.69857
1.72597
1.75259
1.77555
1.79549
1.81141
1.82543
1.83888
1.85098
1.86352
1.87444
1.88563
1.89257
1.90517
1.90939
1.91877
1.92259
1.92486
1.92025
1.92024
1.90912
1.89593
1.86049
1.82836
1.78384
1.78788
0.197351
0.197774
0.197581
0.197553
0.197427
0.197278
0.197091
0.196879
0.196636
0.196393
0.19611
0.195807
0.195508
0.195188
0.19482
0.194466
0.194119
0.193721
0.193319
0.192936
0.192546
0.192097
0.191681
0.191303
0.190894
0.190369
0.189915
0.189508
0.189154
0.188831
0.188375
0.187738
0.187329
0.187008
0.18674
0.186458
0.18636
0.186054
0.185632
0.185024
0.184441
0.184072
0.183829
0.183213
0.181593
0.178001
0.175226
0.182047
0.213404
0.813815
0.941677
0.957708
0.983042
1.0737
1.21314
1.48202
1.69382
1.70194
1.69309
1.6641
1.64408
1.64177
1.6336
1.62259
1.61555
1.61302
1.61208
1.60798
1.60199
1.59637
1.5919
1.58802
1.58524
1.58057
1.57663
1.57115
1.56773
1.56342
1.55967
1.55987
1.5597
1.56483
1.5681
1.57807
1.5845
1.59505
1.59914
1.60974
1.61535
1.62516
1.63519
1.64939
1.66665
1.68854
1.71396
1.74025
1.76432
1.78394
1.80051
1.81473
1.82835
1.84037
1.8524
1.86382
1.87524
1.88357
1.89565
1.90068
1.9095
1.91376
1.91652
1.91121
1.9121
1.8996
1.88757
1.8506
1.81823
1.76963
1.77578
0.197348
0.197772
0.19758
0.197552
0.197426
0.197276
0.197089
0.196877
0.196632
0.196386
0.196106
0.195799
0.195494
0.195177
0.194803
0.194443
0.194093
0.193688
0.193276
0.192884
0.192489
0.192023
0.191589
0.191192
0.190773
0.190251
0.189749
0.189297
0.188881
0.188504
0.187969
0.187228
0.186661
0.18616
0.185691
0.18521
0.184906
0.184406
0.183779
0.183014
0.182151
0.181753
0.181907
0.182025
0.182019
0.181751
0.179874
0.199789
0.371563
0.962752
0.976361
0.978992
1.03314
1.21421
1.47561
1.65226
1.69727
1.67829
1.6675
1.64288
1.62371
1.62483
1.62635
1.6183
1.60442
1.59751
1.5977
1.59805
1.59407
1.5878
1.58214
1.57795
1.57557
1.57127
1.56806
1.56211
1.55717
1.55147
1.54705
1.54607
1.54496
1.54872
1.55063
1.55941
1.56594
1.57777
1.58677
1.59632
1.60493
1.61573
1.62809
1.641
1.65729
1.6782
1.70305
1.72796
1.75213
1.77204
1.78861
1.80375
1.81737
1.82958
1.84152
1.85241
1.86479
1.87313
1.88558
1.89063
1.89994
1.90457
1.90691
1.90284
1.90239
1.89033
1.87773
1.84141
1.80726
1.75753
1.76305
0.197346
0.197771
0.197579
0.197551
0.197425
0.197275
0.197086
0.196874
0.196627
0.196379
0.196102
0.195789
0.195481
0.195163
0.194785
0.194419
0.194067
0.193653
0.193232
0.192837
0.192444
0.191966
0.191512
0.191088
0.190676
0.190175
0.18965
0.189187
0.188763
0.188414
0.187946
0.187337
0.186936
0.186655
0.186437
0.186191
0.186182
0.186056
0.186015
0.185866
0.185645
0.185449
0.185564
0.186149
0.186109
0.185446
0.185283
0.216215
0.746211
0.97315
1.01709
1.04546
1.16867
1.44581
1.65202
1.69781
1.67564
1.65254
1.65186
1.63566
1.61412
1.60563
1.60653
1.60081
1.58918
1.58037
1.57934
1.57851
1.57429
1.56786
1.56371
1.56041
1.55898
1.55499
1.55114
1.54686
1.54248
1.5389
1.53385
1.53205
1.5311
1.53221
1.5348
1.54114
1.5474
1.55816
1.56999
1.58164
1.59192
1.6033
1.61567
1.63118
1.64761
1.66769
1.69023
1.71588
1.73949
1.75961
1.77671
1.79224
1.80603
1.81849
1.83079
1.84147
1.85434
1.86266
1.87542
1.88086
1.89054
1.89482
1.89743
1.89299
1.8923
1.88068
1.86764
1.83147
1.79577
1.74514
1.75032
0.197343
0.197769
0.197578
0.19755
0.197423
0.197273
0.197083
0.196873
0.196625
0.196373
0.196099
0.195781
0.195469
0.195151
0.194769
0.194396
0.194041
0.193628
0.193191
0.192777
0.192383
0.191915
0.191429
0.190973
0.190557
0.190065
0.189503
0.189005
0.18851
0.1881
0.18754
0.186766
0.186097
0.185468
0.18486
0.184254
0.183777
0.18303
0.182106
0.181157
0.179313
0.177687
0.175991
0.175469
0.17434
0.174108
0.184941
0.259095
0.874785
0.985486
1.03438
1.15134
1.38187
1.64261
1.69167
1.68606
1.65221
1.63321
1.63445
1.62577
1.60898
1.5939
1.59068
1.58599
1.57802
1.56975
1.56775
1.56644
1.56194
1.55538
1.55086
1.54732
1.54507
1.54115
1.53682
1.53362
1.53013
1.52895
1.52431
1.52102
1.51908
1.51823
1.52041
1.52496
1.53015
1.53955
1.55149
1.56545
1.57693
1.59144
1.60368
1.61895
1.63426
1.65606
1.67822
1.703
1.72705
1.74753
1.76471
1.7806
1.79442
1.80695
1.81943
1.83047
1.84322
1.85222
1.8648
1.87118
1.88018
1.88436
1.88754
1.88246
1.88253
1.87037
1.85802
1.82096
1.78569
1.73221
1.73784
0.19734
0.197767
0.197576
0.197549
0.197422
0.197271
0.197081
0.196871
0.196622
0.196366
0.196094
0.195772
0.195455
0.195139
0.194753
0.194374
0.194012
0.193608
0.193154
0.19273
0.19233
0.191875
0.191366
0.190897
0.19046
0.189988
0.189419
0.188914
0.18842
0.188058
0.187594
0.187035
0.186522
0.186207
0.186053
0.185966
0.18617
0.186331
0.186541
0.187179
0.187521
0.188386
0.189484
0.191192
0.192561
0.193815
0.227965
0.593151
0.947551
1.03784
1.1243
1.38927
1.5964
1.68749
1.67176
1.66127
1.6287
1.60803
1.60358
1.60086
1.5906
1.57537
1.56772
1.56497
1.56047
1.55341
1.54952
1.54757
1.54448
1.53987
1.53673
1.53434
1.53133
1.52854
1.5235
1.52113
1.51833
1.51694
1.51411
1.51065
1.50812
1.50638
1.5075
1.51023
1.51323
1.52185
1.53026
1.54668
1.56017
1.5762
1.58856
1.60555
1.62192
1.64235
1.66419
1.69015
1.71352
1.7344
1.75236
1.76853
1.78251
1.79517
1.80781
1.81918
1.8318
1.84135
1.85396
1.86123
1.86943
1.87384
1.87668
1.87275
1.87236
1.86094
1.84776
1.81153
1.77363
1.71926
1.7252
0.197336
0.197764
0.197575
0.197547
0.19742
0.197269
0.197078
0.19687
0.196621
0.196362
0.196091
0.195766
0.195445
0.195128
0.194747
0.194359
0.193983
0.19359
0.193122
0.192685
0.192269
0.191819
0.191292
0.190812