/*--------------------------------*- C++ -*----------------------------------*\
| =========                 |                                                 |
| \\      /  F ield         | OpenFOAM: The Open Source CFD Toolbox           |
|  \\    /   O peration     | Version:  2.2.x                                 |
|   \\  /    A nd           | Web:      www.OpenFOAM.org                      |
|    \\/     M anipulation  |                                                 |
\*---------------------------------------------------------------------------*/
FoamFile
{
    version     2.0;
    format      ascii;
    class       volScalarField;
    location    "2.75";
    object      Ma;
}
// * * * * * * * * * * * * * * * * * * * * * * * * * * * * * * * * * * * * * //

dimensions      [0 0 0 0 0 0 0];

internalField   nonuniform List<scalar> 
14161
(
2.62723
2.62016
2.62154
2.62203
2.62292
2.62395
2.62509
2.62631
2.62773
2.62921
2.63069
2.63229
2.63391
2.63571
2.63724
2.63867
2.64013
2.64145
2.64306
2.64443
2.64541
2.64601
2.64637
2.64674
2.64681
2.64654
2.64596
2.64498
2.64364
2.64166
2.63916
2.63676
2.63302
2.62833
2.62268
2.61731
2.61196
2.60577
2.59576
2.58356
2.57459
2.56153
2.55948
1.96327
0.65499
0.531258
0.550202
0.570756
0.596906
0.619917
0.641839
0.662352
0.683184
0.70382
0.723882
0.741938
0.758782
0.773594
0.78615
0.796221
0.804417
0.811689
0.818214
0.824093
0.829229
0.833321
0.836632
0.839059
0.840673
0.841746
0.842298
0.842649
0.842062
0.840615
0.838774
0.837641
0.837433
0.838159
0.83802
0.839086
0.841817
0.844056
0.850745
0.854161
0.856518
0.857409
0.866381
0.871796
0.877485
0.886348
0.890811
0.894889
0.901129
0.905521
0.913435
0.921233
0.927094
0.930961
0.92722
0.954481
0.974615
0.996105
1.02557
1.05988
1.10389
1.12381
1.13179
1.13738
1.14329
1.15507
1.08108
1.0083
0.818254
0.666692
0.548229
0.441111
0.345647
0.244049
0.161956
2.62728
2.62019
2.62163
2.62215
2.62294
2.62381
2.62513
2.62648
2.62777
2.62913
2.63073
2.63237
2.63394
2.63574
2.63728
2.63873
2.64016
2.64153
2.6431
2.64448
2.64545
2.64605
2.64642
2.64679
2.64687
2.64663
2.64606
2.64507
2.64369
2.64184
2.63936
2.63648
2.6335
2.62829
2.62288
2.61733
2.61224
2.60645
2.59667
2.58471
2.57554
2.56459
2.55533
2.11313
0.689675
0.562965
0.581476
0.600945
0.623617
0.64424
0.664675
0.683825
0.703711
0.722392
0.741094
0.758042
0.773578
0.78714
0.798592
0.807633
0.815412
0.822077
0.828074
0.833533
0.838068
0.841752
0.844747
0.847105
0.848842
0.850039
0.850776
0.851159
0.851126
0.849565
0.848023
0.847283
0.847324
0.848931
0.850221
0.850917
0.85416
0.856481
0.862133
0.864929
0.866715
0.868424
0.876959
0.882259
0.887336
0.895604
0.900493
0.905158
0.911379
0.916154
0.92421
0.931525
0.937472
0.940642
0.939648
0.967853
0.98704
1.00358
1.04025
1.07573
1.11535
1.13702
1.14663
1.15346
1.15974
1.07697
0.864163
0.663176
0.502536
0.374768
0.298274
0.235863
0.197995
0.165989
0.232871
2.62728
2.62018
2.62161
2.62213
2.62297
2.62398
2.62511
2.62628
2.6278
2.6293
2.63073
2.63223
2.63401
2.63572
2.63731
2.63877
2.64014
2.64151
2.64312
2.64451
2.6455
2.64613
2.64652
2.64688
2.64695
2.64669
2.64617
2.64525
2.64393
2.64218
2.63993
2.63707
2.63395
2.6292
2.62402
2.6182
2.61335
2.60763
2.59839
2.58693
2.57895
2.57556
2.57314
2.14415
0.691039
0.559546
0.577245
0.595136
0.616467
0.635378
0.65699
0.677267
0.698024
0.71845
0.737742
0.755172
0.771734
0.786105
0.798024
0.807863
0.816207
0.823783
0.83069
0.836937
0.842324
0.846876
0.850728
0.853742
0.856257
0.858176
0.859555
0.860625
0.861733
0.859902
0.858689
0.858275
0.858466
0.860371
0.860994
0.861305
0.864704
0.867111
0.87214
0.874795
0.876996
0.879086
0.88726
0.892481
0.897039
0.905408
0.910363
0.914988
0.920984
0.925578
0.93275
0.939262
0.944801
0.947688
0.947217
0.975064
0.992058
1.01059
1.04794
1.07775
1.11875
1.13639
1.13904
1.14218
1.03408
0.820154
0.636507
0.471327
0.376093
0.283572
0.227309
0.188995
0.185447
0.182625
0.300528
2.62728
2.62019
2.62163
2.62217
2.62295
2.62383
2.62516
2.62648
2.62778
2.62911
2.63078
2.63241
2.63401
2.6357
2.63732
2.63885
2.6402
2.64164
2.6431
2.64459
2.64558
2.64625
2.6467
2.64701
2.64707
2.64688
2.64641
2.64555
2.64433
2.64254
2.64029
2.63799
2.63495
2.63062
2.62561
2.61993
2.61538
2.60967
2.60134
2.59041
2.57992
2.57065
2.56102
2.10831
0.685791
0.554286
0.575264
0.59639
0.619852
0.641011
0.664364
0.684708
0.706562
0.726199
0.746315
0.763743
0.780527
0.794959
0.807163
0.816954
0.825234
0.832944
0.839642
0.845704
0.850975
0.855415
0.859056
0.861891
0.864109
0.865963
0.867451
0.868378
0.869185
0.868012
0.866623
0.866483
0.866551
0.869089
0.870693
0.869613
0.873951
0.876879
0.881236
0.884251
0.886948
0.890516
0.897962
0.903297
0.907849
0.917339
0.923242
0.929281
0.935348
0.940838
0.946034
0.953943
0.95979
0.962997
0.963294
0.992844
1.00689
1.03398
1.06157
1.08786
1.12852
1.14127
1.13674
0.998981
0.776061
0.58586
0.46179
0.396525
0.348438
0.283899
0.229273
0.19532
0.200298
0.20192
0.335662
2.62726
2.6202
2.62157
2.62203
2.623
2.62406
2.62515
2.62632
2.62784
2.62934
2.63077
2.63227
2.63407
2.63571
2.6374
2.63895
2.64028
2.64172
2.64312
2.64467
2.64574
2.64649
2.64698
2.64723
2.64733
2.64722
2.6468
2.646
2.6449
2.64354
2.64157
2.63881
2.63631
2.6329
2.6281
2.62297
2.61725
2.61218
2.60537
2.59464
2.58481
2.57753
2.57336
2.15464
0.694109
0.555282
0.578424
0.600025
0.624158
0.644926
0.67104
0.693209
0.717281
0.737803
0.757195
0.773775
0.788762
0.802083
0.812886
0.821668
0.829124
0.836253
0.84249
0.848043
0.852849
0.856865
0.860219
0.862875
0.864656
0.86597
0.866981
0.867599
0.867903
0.866738
0.864855
0.864131
0.863524
0.866018
0.868139
0.866371
0.871228
0.874547
0.877796
0.881016
0.884156
0.888967
0.894936
0.90034
0.904539
0.913619
0.919004
0.925258
0.931108
0.936741
0.942383
0.950146
0.956155
0.959893
0.961239
0.991407
1.00916
1.03062
1.06011
1.08423
1.1225
1.11352
0.955779
0.725066
0.533335
0.42401
0.388974
0.370137
0.346338
0.304456
0.258914
0.215419
0.226496
0.223114
0.363241
2.62725
2.62019
2.62164
2.62218
2.62297
2.62384
2.62517
2.62652
2.62783
2.62916
2.6308
2.63247
2.63407
2.6357
2.63746
2.63904
2.64037
2.64179
2.64317
2.64475
2.64591
2.64674
2.64728
2.64748
2.64758
2.64761
2.64726
2.6467
2.64577
2.6444
2.64255
2.64058
2.63797
2.63518
2.63158
2.62693
2.62155
2.61549
2.60917
2.60064
2.5894
2.57872
2.57003
2.2772
0.721938
0.561967
0.580431
0.603821
0.627266
0.647659
0.67264
0.691709
0.716132
0.731874
0.756035
0.774076
0.791442
0.806314
0.818351
0.827096
0.834791
0.842204
0.848744
0.854904
0.859717
0.864032
0.867664
0.870628
0.872669
0.874242
0.875525
0.876276
0.876738
0.876148
0.87403
0.873099
0.872364
0.875393
0.877845
0.875765
0.880274
0.883741
0.886416
0.889512
0.892595
0.898432
0.902763
0.907923
0.911807
0.921064
0.92626
0.9335
0.938831
0.944138
0.949533
0.956661
0.963151
0.967114
0.9686
1.00076
1.0169
1.03918
1.05942
1.09469
1.10666
0.943194
0.710403
0.518856
0.471446
0.412965
0.391529
0.370789
0.34807
0.315577
0.28099
0.233377
0.247577
0.243399
0.386744
2.6272
2.62019
2.62161
2.62214
2.62301
2.62404
2.62515
2.62634
2.62786
2.62937
2.63081
2.63238
2.63413
2.63572
2.63751
2.63913
2.64049
2.64186
2.64329
2.64482
2.64613
2.64707
2.64768
2.64792
2.648
2.64807
2.64792
2.64738
2.64681
2.64589
2.64429
2.64253
2.64027
2.63799
2.63557
2.63169
2.62671
2.6206
2.61351
2.6059
2.59388
2.57399
2.55576
2.01103
0.665237
0.527084
0.557634
0.586056
0.616348
0.643337
0.671483
0.696807
0.722371
0.742166
0.770202
0.787487
0.807832
0.825622
0.838692
0.850073
0.856789
0.86563
0.872632
0.880495
0.885158
0.889891
0.893372
0.896527
0.898384
0.899824
0.901069
0.901488
0.901398
0.900546
0.898307
0.896666
0.895662
0.895383
0.898331
0.898934
0.898745
0.902673
0.905593
0.907912
0.909614
0.91623
0.919855
0.925011
0.928383
0.936009
0.939822
0.947233
0.95249
0.958109
0.964722
0.971889
0.979094
0.983539
0.986662
1.01978
1.03457
1.05269
1.0735
1.08746
0.948283
0.710208
0.550394
0.450645
0.425057
0.441377
0.416571
0.385867
0.359365
0.328437
0.29864
0.249706
0.266004
0.259443
0.406808
2.62715
2.62016
2.6216
2.62213
2.623
2.62399
2.62511
2.62649
2.62786
2.62928
2.63081
2.63248
2.63411
2.63571
2.63758
2.6392
2.64064
2.642
2.64344
2.64481
2.64634
2.64744
2.64811
2.64848
2.64854
2.64856
2.64872
2.64834
2.64785
2.6472
2.64634
2.64486
2.64325
2.6415
2.6401
2.63818
2.63501
2.63054
2.62581
2.6198
2.6137
2.60329
2.59264
2.33238
0.720489
0.541585
0.574968
0.603503
0.637303
0.667842
0.70131
0.733364
0.762745
0.791107
0.821922
0.837638
0.86158
0.875839
0.901122
0.913445
0.924499
0.930623
0.935954
0.945302
0.951351
0.955835
0.959425
0.96247
0.964532
0.966201
0.967535
0.968201
0.967506
0.965649
0.96221
0.959627
0.95756
0.955748
0.957534
0.957229
0.955563
0.956041
0.957283
0.957035
0.955707
0.959814
0.961892
0.963567
0.965325
0.971621
0.97333
0.978171
0.981671
0.983918
0.991239
0.997137
1.00305
1.00648
1.01073
1.03607
1.04693
1.05435
1.07398
0.924571
0.71996
0.557874
0.543652
0.497015
0.479395
0.458724
0.440775
0.403925
0.372613
0.341864
0.315942
0.268038
0.282477
0.272876
0.424906
2.62711
2.62013
2.6216
2.62216
2.62295
2.62388
2.62513
2.6265
2.62785
2.62933
2.63084
2.63246
2.63414
2.63576
2.6376
2.63928
2.64081
2.64218
2.64358
2.64495
2.64657
2.64784
2.6486
2.64911
2.64928
2.64936
2.64945
2.64959
2.64944
2.64904
2.64831
2.64764
2.64664
2.64582
2.64489
2.64408
2.643
2.64072
2.63811
2.63329
2.62715
2.6136
2.59437
2.33417
0.723217
0.530499
0.594605
0.639682
0.689834
0.725339
0.770223
0.800615
0.841417
0.874315
0.904359
0.917864
0.945631
0.947008
0.989921
0.993923
1.00977
1.01481
1.01928
1.02257
1.03234
1.03593
1.03579
1.04171
1.04339
1.04459
1.0444
1.04391
1.04283
1.04035
1.03841
1.03487
1.03191
1.03033
1.03119
1.03078
1.03099
1.02884
1.02864
1.0278
1.0266
1.02646
1.02931
1.02927
1.02718
1.03303
1.0337
1.03504
1.03637
1.03654
1.03833
1.04226
1.04363
1.04319
1.04327
1.06122
1.067
1.07493
0.93544
0.736852
0.61632
0.521492
0.514884
0.534687
0.517339
0.496571
0.467295
0.424916
0.389523
0.35755
0.332664
0.285442
0.297264
0.285814
0.440996
2.62705
2.62012
2.62153
2.62204
2.62295
2.62404
2.62513
2.62632
2.62785
2.62939
2.6309
2.63246
2.63416
2.63583
2.6376
2.63937
2.64098
2.6424
2.64376
2.64516
2.64668
2.64822
2.64918
2.64973
2.65012
2.65022
2.65042
2.65085
2.65099
2.6509
2.65081
2.6505
2.65037
2.65054
2.65084
2.65193
2.65358
2.65626
2.65923
2.66571
2.67048
2.68371
2.69355
2.66375
1.06003
0.626697
0.751294
0.796688
0.839716
0.867586
0.90705
0.913411
0.959734
0.986514
0.983662
1.02003
1.0407
1.01901
1.06239
1.06744
1.07033
1.08137
1.08184
1.08368
1.09132
1.09191
1.09203
1.09515
1.09597
1.09634
1.09545
1.09508
1.09345
1.09199
1.09011
1.08869
1.08379
1.08074
1.08507
1.08469
1.08544
1.08385
1.08528
1.08433
1.08371
1.08418
1.0868
1.08772
1.08675
1.09324
1.09383
1.09531
1.09586
1.09448
1.0922
1.09545
1.09051
1.08763
1.08317
1.09678
1.07721
0.915354
0.74864
0.62936
0.587118
0.604668
0.580201
0.573528
0.548573
0.521114
0.48672
0.441321
0.404032
0.371886
0.347992
0.301637
0.31065
0.298368
0.455868
2.62698
2.62006
2.62154
2.62211
2.62293
2.62389
2.62511
2.62645
2.62781
2.62926
2.63086
2.63255
2.63418
2.63585
2.63759
2.63949
2.64116
2.64266
2.64395
2.64537
2.64685
2.64864
2.64977
2.65049
2.65104
2.6513
2.65157
2.6522
2.65285
2.65309
2.65332
2.65383
2.65451
2.65525
2.65633
2.65818
2.66206
2.66705
2.67228
2.68008
2.69216
2.70588
2.7501
2.7526
1.75645
0.998822
0.969119
0.952069
0.94759
0.976304
1.00104
0.997751
1.04131
1.02417
1.06751
1.05947
1.08163
1.07615
1.08865
1.10271
1.1005
1.11238
1.1159
1.11094
1.11859
1.12132
1.12002
1.1223
1.12238
1.12336
1.12241
1.12165
1.12147
1.11842
1.11573
1.11434
1.11382
1.1065
1.10987
1.11106
1.11068
1.11025
1.11094
1.10974
1.10875
1.10967
1.11236
1.11462
1.1157
1.1176
1.11868
1.1196
1.11637
1.1147
1.11036
1.1103
1.10481
1.09566
1.0846
1.02259
0.86808
0.700427
0.626236
0.565527
0.58982
0.609975
0.619372
0.609735
0.585377
0.550279
0.508087
0.457607
0.418803
0.386012
0.362563
0.316566
0.323158
0.310162
0.469035
2.62689
2.62002
2.62149
2.62206
2.62288
2.62393
2.62507
2.62634
2.62779
2.62933
2.63091
2.63246
2.63418
2.6359
2.63761
2.6396
2.64132
2.64292
2.64417
2.64559
2.64709
2.64905
2.65036
2.65133
2.65206
2.65248
2.65286
2.65339
2.65477
2.65538
2.65605
2.65693
2.65837
2.66027
2.66218
2.66534
2.67185
2.68242
2.69575
2.71872
2.75636
2.81509
2.90938
3.00384
2.00058
1.1992
1.11304
1.1309
1.00141
1.00354
1.01004
1.00024
1.03993
1.01772
1.06324
1.04215
1.05964
1.07775
1.06735
1.09116
1.08814
1.09927
1.10367
1.09998
1.10647
1.10845
1.10843
1.11114
1.11051
1.11231
1.11201
1.11166
1.11392
1.11454
1.10992
1.11022
1.11548
1.10573
1.10992
1.11421
1.11464
1.11435
1.11578
1.11666
1.11253
1.11551
1.11587
1.11691
1.11683
1.11791
1.11786
1.11862
1.11551
1.10845
1.10262
1.08979
1.05828
1.00893
0.905123
0.769916
0.62839
0.562353
0.520427
0.614201
0.648695
0.657016
0.641087
0.625117
0.602121
0.566303
0.522438
0.470004
0.430754
0.398362
0.375771
0.330122
0.334576
0.321206
0.481135
2.62681
2.62001
2.62142
2.62194
2.62286
2.62392
2.62506
2.62633
2.62775
2.62931
2.63092
2.63248
2.63416
2.63595
2.63768
2.63966
2.64151
2.64318
2.64447
2.64588
2.64743
2.64952
2.65102
2.65219
2.65317
2.65384
2.6543
2.6549
2.65679
2.65785
2.65882
2.66005
2.66168
2.66396
2.66685
2.66915
2.67288
2.67848
2.68291
2.68881
2.67836
2.68098
2.57302
2.13492
1.4097
1.21115
1.10186
1.06322
0.991013
0.944139
0.975634
0.960227
1.01231
0.99675
1.02392
1.02451
1.03738
1.06412
1.05802
1.06871
1.07955
1.08189
1.09254
1.08841
1.09522
1.09274
1.09258
1.0956
1.09396
1.09638
1.09585
1.09472
1.0974
1.09798
1.09074
1.09152
1.09562
1.0882
1.09108
1.09441
1.09553
1.09522
1.09651
1.09718
1.09529
1.09975
1.102
1.10425
1.10529
1.10056
1.09582
1.08901
1.07602
1.04246
1.0131
0.950958
0.864258
0.750646
0.641556
0.527958
0.483796
0.492256
0.544532
0.594062
0.652006
0.673481
0.670495
0.650221
0.624452
0.583677
0.535523
0.480341
0.441907
0.409932
0.387985
0.342464
0.345103
0.331374
0.491457
2.62672
2.61993
2.6214
2.62194
2.62285
2.62382
2.62502
2.62629
2.62769
2.62927
2.6309
2.63246
2.63411
2.63601
2.63782
2.63972
2.64167
2.64343
2.64481
2.64623
2.64784
2.65007
2.65171
2.65308
2.65426
2.65528
2.65585
2.65668
2.65843
2.66025
2.66145
2.66288
2.66455
2.66685
2.66945
2.6719
2.67475
2.67872
2.68445
2.69349
2.69203
2.7027
2.63587
1.55116
1.25004
1.22448
1.22138
1.1156
1.08907
0.935765
0.958071
0.921064
0.993567
0.966316
1.00873
0.997081
1.03117
1.04818
1.05761
1.04624
1.06972
1.07485
1.08193
1.08447
1.08632
1.08779
1.08914
1.09018
1.08777
1.09117
1.08997
1.08863
1.09071
1.09327
1.08184
1.08624
1.08833
1.08305
1.08372
1.08434
1.08671
1.08372
1.08229
1.07857
1.07318
1.06982
1.06474
1.05627
1.04662
1.02428
0.99742
0.960595
0.903074
0.830372
0.748048
0.664711
0.580924
0.485836
0.448038
0.418814
0.433962
0.511274
0.560307
0.630904
0.675057
0.683259
0.668235
0.651073
0.627094
0.592729
0.544602
0.488835
0.451428
0.42033
0.399156
0.353738
0.355057
0.341029
0.50132
2.62662
2.61985
2.62135
2.62193
2.62275
2.62377
2.62496
2.62623
2.62763
2.62923
2.63088
2.63248
2.63411
2.63603
2.63792
2.63977
2.64184
2.64369
2.64519
2.64666
2.64835
2.65069
2.65245
2.65405
2.65548
2.6568
2.65751
2.6586
2.66023
2.66262
2.66407
2.6655
2.66711
2.6689
2.67096
2.67244
2.67417
2.67732
2.68449
2.69589
2.71991
2.75268
2.84332
1.42019
1.23498
1.22328
1.21676
1.17112
1.15832
0.986247
0.924402
0.871656
0.928369
0.904164
0.965401
0.964206
1.00539
1.03131
1.01553
1.03681
1.04817
1.05117
1.06135
1.06522
1.06966
1.07221
1.07406
1.07501
1.07316
1.0764
1.07579
1.0758
1.075
1.07597
1.06708
1.06868
1.06677
1.06247
1.06222
1.05626
1.05378
1.04348
1.03579
1.02075
1.0013
0.979238
0.953158
0.914737
0.86743
0.804263
0.738766
0.672042
0.610636
0.543311
0.480039
0.418132
0.395862
0.374099
0.375396
0.413525
0.449353
0.51739
0.57308
0.63087
0.673745
0.691808
0.681735
0.661363
0.634987
0.596109
0.549402
0.494948
0.459758
0.42986
0.409315
0.363897
0.364303
0.350099
0.509696
2.62651
2.61978
2.62125
2.62182
2.62274
2.62371
2.62488
2.62618
2.62758
2.62917
2.63084
2.63245
2.6341
2.63607
2.638
2.63987
2.64197
2.64392
2.6456
2.64715
2.64895
2.65141
2.65327
2.65504
2.65671
2.65829
2.6594
2.66064
2.66201
2.66491
2.66663
2.66809
2.66948
2.67078
2.67199
2.67264
2.67271
2.67224
2.67064
2.66033
2.65672
2.59763
2.12175
1.2274
1.15483
1.16196
1.16916
1.1725
1.13756
1.11672
0.957979
0.891752
0.876314
0.887988
0.936275
0.934903
1.00188
0.992146
1.02477
1.02245
1.03454
1.03491
1.04919
1.05007
1.05412
1.05663
1.05772
1.05824
1.05491
1.05608
1.05163
1.05109
1.046
1.04273
1.03125
1.02589
1.01345
1.00351
0.987197
0.966558
0.946208
0.913471
0.879929
0.841222
0.788183
0.73673
0.685826
0.634443
0.587984
0.532181
0.477826
0.426206
0.391255
0.36142
0.356673
0.342344
0.343938
0.359147
0.384166
0.421697
0.460738
0.522521
0.579206
0.639575
0.681746
0.684814
0.673795
0.655231
0.630675
0.599411
0.551958
0.499949
0.466964
0.438593
0.41884
0.37332
0.373235
0.358898
0.518521
2.62639
2.61972
2.62119
2.62177
2.62258
2.62364
2.62487
2.62612
2.6275
2.62911
2.63079
2.63244
2.63411
2.63606
2.63809
2.64001
2.6421
2.64419
2.64605
2.64768
2.64964
2.65221
2.6542
2.65601
2.65789
2.65972
2.66136
2.6628
2.66425
2.66694
2.66921
2.67077
2.67178
2.6726
2.6731
2.67241
2.67036
2.66649
2.65959
2.64487
2.62642
2.56595
1.62699
1.11707
1.11126
1.13071
1.14904
1.15802
1.16559
1.15593
1.08113
0.976522
0.878231
0.915891
0.886039
0.954119
0.987364
0.972006
1.02378
1.01458
1.01756
1.02218
1.02791
1.0303
1.0304
1.03372
1.02933
1.02806
1.0185
1.01668
1.00184
0.992634
0.97406
0.950699
0.930901
0.8967
0.86923
0.829589
0.786781
0.742377
0.696933
0.654131
0.610716
0.571545
0.52825
0.485511
0.445701
0.409724
0.384478
0.366515
0.353984
0.342731
0.336487
0.325661
0.326031
0.33669
0.353866
0.371094
0.395715
0.432103
0.469106
0.527042
0.579872
0.632465
0.670789
0.68491
0.676125
0.656248
0.629168
0.596921
0.552257
0.502999
0.473183
0.446486
0.42765
0.382114
0.381753
0.367698
0.525178
2.62629
2.61963
2.62109
2.62165
2.62254
2.62358
2.62475
2.62606
2.62743
2.629
2.63073
2.63241
2.63411
2.63602
2.63819
2.64016
2.64219
2.64445
2.64647
2.64828
2.65041
2.65308
2.65524
2.65723
2.65904
2.66108
2.66316
2.66515
2.66683
2.6689
2.67176
2.67355
2.67464
2.67547
2.67625
2.67675
2.6768
2.67594
2.67745
2.67647
2.68616
2.65826
1.41912
1.11323
1.10724
1.12337
1.13119
1.14854
1.1604
1.16609
1.15891
1.08671
1.01339
0.904332
0.889048
0.929171
0.968707
0.958597
1.01788
0.991468
1.00038
0.988459
0.995819
0.991315
0.980398
0.974745
0.955599
0.937303
0.911796
0.885846
0.852538
0.813539
0.772646
0.730032
0.68782
0.649778
0.609926
0.575164
0.534905
0.497146
0.459223
0.427578
0.399336
0.378869
0.364427
0.351968
0.345719
0.341383
0.33476
0.331435
0.32791
0.327856
0.337088
0.335209
0.340973
0.34834
0.364772
0.382562
0.405533
0.439204
0.474959
0.527159
0.580651
0.633049
0.668828
0.676427
0.668169
0.649898
0.623225
0.592676
0.550289
0.504821
0.477786
0.453455
0.43589
0.391179
0.390173
0.376561
0.532776
2.62617
2.61955
2.62101
2.62157
2.62246
2.62343
2.62465
2.62599
2.62734
2.62887
2.63066
2.63239
2.63408
2.636
2.63826
2.64033
2.64238
2.64467
2.6469
2.6489
2.65118
2.65405
2.65637
2.65857
2.66037
2.66255
2.66513
2.66751
2.66947
2.67137
2.67402
2.67645
2.67793
2.67903
2.68027
2.682
2.68375
2.68916
2.69656
2.71496
2.74739
2.81177
1.33122
1.12294
1.11314
1.11959
1.11874
1.13495
1.13961
1.15227
1.15754
1.16635
1.05355
1.03173
0.853703
0.932627
0.902322
0.963769
0.945082
0.935709
0.935821
0.907615
0.890524
0.883251
0.838241
0.804204
0.759366
0.716654
0.678528
0.637994
0.601718
0.560391
0.521856
0.48444
0.450697
0.421187
0.397262
0.377339
0.363049
0.350176
0.342026
0.335269
0.333915
0.330001
0.330019
0.326292
0.325851
0.330781
0.337476
0.33975
0.340807
0.33898
0.344212
0.346439
0.352374
0.360071
0.375374
0.39295
0.413943
0.445699
0.478367
0.528039
0.576807
0.626809
0.662096
0.671246
0.662847
0.644475
0.617236
0.587811
0.546793
0.505187
0.481772
0.459836
0.443484
0.400992
0.397961
0.385147
0.536924
2.62603
2.61945
2.62091
2.62149
2.62232
2.62334
2.62453
2.62588
2.62723
2.62874
2.63058
2.63235
2.63405
2.63597
2.63832
2.6405
2.6426
2.64485
2.64732
2.64952
2.65193
2.65503
2.6576
2.66006
2.66189
2.66413
2.6673
2.66999
2.67238
2.67424
2.67627
2.6791
2.6813
2.68273
2.68367
2.6845
2.68414
2.68506
2.68154
2.68589
2.65095
2.36133
1.21659
1.09668
1.09206
1.09091
1.089
1.10216
1.10789
1.12054
1.14064
1.15258
1.14571
1.10127
0.910575
0.881905
0.815359
0.895299
0.834091
0.79718
0.776124
0.726458
0.689399
0.652945
0.614616
0.571919
0.532243
0.490455
0.453491
0.420744
0.395497
0.375051
0.357733
0.343313
0.33314
0.325121
0.322178
0.319871
0.318926
0.317397
0.316866
0.315521
0.318352
0.324653
0.3318
0.333952
0.334074
0.33786
0.343642
0.347009
0.34995
0.34946
0.355368
0.357364
0.363281
0.370671
0.384864
0.401029
0.41996
0.449097
0.480618
0.526619
0.574122
0.62236
0.656587
0.665613
0.657265
0.638326
0.610548
0.582921
0.54381
0.50518
0.483472
0.465803
0.450896
0.410295
0.406009
0.393776
0.543834
2.6259
2.61937
2.6208
2.62135
2.62225
2.62321
2.6244
2.62576
2.62711
2.62859
2.63048
2.6323
2.63401
2.63594
2.63835
2.64064
2.64279
2.6451
2.64774
2.65017
2.65268
2.6559
2.65886
2.6615
2.66364
2.66597
2.66932
2.67269
2.67537
2.67757
2.67939
2.68142
2.68479
2.68651
2.68698
2.68696
2.68566
2.68327
2.67732
2.67321
2.63492
1.84299
1.09083
1.061
1.06854
1.07531
1.08179
1.09189
1.10267
1.11528
1.13086
1.14533
1.14979
1.04927
0.909288
0.751333
0.701836
0.676567
0.6312
0.591973
0.543746
0.50525
0.466173
0.435019
0.409436
0.389102
0.370834
0.355522
0.342859
0.332458
0.325317
0.318489
0.313453
0.306851
0.303529
0.300914
0.30177
0.305386
0.312828
0.315988
0.321729
0.322616
0.326103
0.329378
0.336716
0.342711
0.34311
0.346771
0.352942
0.356978
0.359785
0.359052
0.364679
0.36779
0.372606
0.379389
0.392472
0.408029
0.425497
0.452692
0.481855
0.525094
0.57015
0.617367
0.650862
0.659074
0.651344
0.633271
0.605258
0.57786
0.540627
0.505573
0.487831
0.472052
0.457977
0.419324
0.413608
0.402554
0.54669
2.62576
2.61926
2.62069
2.62125
2.62208
2.62308
2.62424
2.6256
2.62699
2.62847
2.63036
2.63222
2.63395
2.63591
2.6384
2.64073
2.64298
2.64536
2.64819
2.65085
2.65346
2.65661
2.66013
2.66311
2.66553
2.66798
2.67127
2.6754
2.67846
2.68116
2.68296
2.68532
2.6879
2.69134
2.6931
2.6941
2.69385
2.69372
2.68861
2.68473
2.661
1.47866
1.05062
1.04572
1.06044
1.06944
1.07722
1.08538
1.09285
1.0951
1.09231
1.08177
1.06781
0.909104
0.743705
0.573182
0.508203
0.470462
0.442942
0.419711
0.393493
0.374059
0.355061
0.341778
0.332847
0.326188
0.322348
0.316394
0.312619
0.310201
0.310114
0.309386
0.310622
0.308318
0.30849
0.307685
0.308695
0.309792
0.315115
0.318953
0.324853
0.327349
0.331408
0.334843
0.34103
0.348478
0.350165
0.353251
0.358982
0.364136
0.367773
0.367643
0.373217
0.377405
0.381771
0.388089
0.399868
0.414412
0.43032
0.455029
0.482687
0.52442
0.566893
0.612117
0.643588
0.65159
0.643855
0.625707
0.597825
0.574531
0.540511
0.508809
0.490661
0.477923
0.464549
0.42785
0.42136
0.411324
0.553299
2.6256
2.61916
2.62056
2.62108
2.62198
2.62295
2.62406
2.62545
2.62686
2.62832
2.63021
2.63211
2.63388
2.63586
2.63843
2.64083
2.64312
2.64558
2.64866
2.65155
2.6542
2.6572
2.66133
2.66466
2.66761
2.67014
2.67332
2.67785
2.68141
2.68477
2.68706
2.68986
2.69245
2.69675
2.70051
2.70386
2.70788
2.71095
2.71241
2.72217
2.70343
1.37758
1.07102
1.06377
1.06875
1.06935
1.07213
1.07505
1.07757
1.07562
1.05744
1.00682
0.944713
0.700902
0.536082
0.424986
0.400658
0.391499
0.381463
0.372329
0.359158
0.349292
0.33901
0.332492
0.327104
0.321856
0.318093
0.317063
0.315928
0.316198
0.318667
0.318086
0.320595
0.319987
0.321158
0.320738
0.321823
0.321565
0.324722
0.327556
0.33284
0.336189
0.340175
0.343191
0.348215
0.35521
0.358966
0.361064
0.365994
0.371271
0.375288
0.375466
0.380793
0.385735
0.389664
0.395453
0.406027
0.419615
0.434422
0.457694
0.48438
0.523087
0.562774
0.606852
0.638795
0.646532
0.638959
0.620925
0.593606
0.569564
0.538863
0.510449
0.496427
0.48482
0.47141
0.436368
0.428685
0.420122
0.555143
2.62545
2.61904
2.62041
2.62094
2.6218
2.6228
2.6239
2.62524
2.6267
2.62815
2.63005
2.63196
2.63377
2.6358
2.63846
2.64093
2.64325
2.64577
2.64915
2.65225
2.65499
2.658
2.66207
2.6662
2.66974
2.67266
2.67599
2.6803
2.68412
2.68771
2.69092
2.69489
2.6994
2.7045
2.71028
2.71697
2.72725
2.74015
2.76505
2.79754
2.8864
1.30514
1.09195
1.07421
1.06918
1.06426
1.06006
1.05437
1.04704
1.0368
0.990411
0.853933
0.718633
0.501827
0.392169
0.364776
0.364719
0.364951
0.364553
0.362323
0.357141
0.352679
0.349477
0.347861
0.346732
0.346467
0.343253
0.34142
0.340632
0.339997
0.341834
0.340492
0.342253
0.341249
0.341783
0.340387
0.340481
0.337951
0.338675
0.339444
0.343289
0.346322
0.349912
0.351876
0.355098
0.360685
0.366571
0.367325
0.371285
0.376494
0.381159
0.381797
0.386984
0.392576
0.396427
0.401893
0.411817
0.425179
0.439733
0.461632
0.48718
0.523618
0.560266
0.602353
0.630555
0.637396
0.62982
0.612388
0.586412
0.567582
0.540482
0.515174
0.501595
0.491074
0.477467
0.444179
0.436372
0.428949
0.561455
2.62528
2.61889
2.62027
2.62077
2.62161
2.62264
2.62371
2.62502
2.62652
2.62798
2.62985
2.6318
2.63363
2.63569
2.63847
2.641
2.64334
2.64594
2.64961
2.65292
2.65603
2.65889
2.66244
2.66758
2.67179
2.67557
2.67909
2.68341
2.68735
2.69028
2.69425
2.69871
2.70589
2.71027
2.7141
2.71701
2.71859
2.71559
2.7205
2.68431
2.28629
1.18124
1.0649
1.05674
1.05128
1.04646
1.04418
1.03482
1.01447
0.966421
0.875045
0.664557
0.496171
0.388775
0.362259
0.365005
0.369261
0.372264
0.372793
0.372444
0.371383
0.369592
0.368702
0.36807
0.367732
0.367735
0.367156
0.365358
0.36481
0.362444
0.363166
0.36128
0.362261
0.36112
0.361317
0.359302
0.358493
0.354954
0.353867
0.351702
0.353424
0.3555
0.358504
0.360592
0.362137
0.366165
0.3717
0.373088
0.376604
0.381602
0.386807
0.388027
0.393236
0.399585
0.403909
0.409288
0.418733
0.431647
0.445245
0.464889
0.488284
0.5218
0.5566
0.596726
0.6267
0.633493
0.625735
0.608479
0.58397
0.563772
0.53934
0.517476
0.508026
0.498487
0.484243
0.45269
0.443614
0.437615
0.562602
2.6251
2.61876
2.6201
2.6206
2.62143
2.62245
2.62352
2.62476
2.62631
2.6278
2.62962
2.63161
2.63348
2.63555
2.63842
2.64102
2.64341
2.64601
2.64994
2.65358
2.65715
2.65979
2.66325
2.66778
2.67354
2.67828
2.68271
2.6871
2.69123
2.69355
2.6978
2.70208
2.71062
2.71418
2.71586
2.71598
2.71533
2.71133
2.70765
2.67104
1.75967
1.05876
1.03491
1.03912
1.04102
1.03677
1.03257
1.0089
0.958207
0.829694
0.658861
0.481665
0.389293
0.364122
0.371784
0.378261
0.384749
0.388601
0.390453
0.390503
0.390577
0.389154
0.389077
0.388083
0.387978
0.387126
0.387408
0.386627
0.387549
0.38671
0.387345
0.38533
0.38534
0.38413
0.384848
0.383972
0.383611
0.380522
0.37755
0.372354
0.371443
0.371585
0.373106
0.374431
0.373989
0.375873
0.380426
0.382357
0.383915
0.387844
0.393089
0.394271
0.399069
0.405615
0.410357
0.415483
0.4243
0.43679
0.450435
0.469357
0.493131
0.524708
0.556824
0.594662
0.61914
0.6252
0.617171
0.601246
0.578567
0.564019
0.541777
0.521741
0.512198
0.505399
0.491078
0.460838
0.450879
0.446326
0.568633
2.62491
2.6186
2.61993
2.6204
2.62121
2.62222
2.6233
2.62452
2.62604
2.62759
2.62935
2.63137
2.63328
2.63536
2.63832
2.64101
2.6435
2.64616
2.64982
2.65412
2.65797
2.66119
2.66409
2.66798
2.6753
2.6811
2.68628
2.69098
2.69549
2.69746
2.70172
2.70618
2.71428
2.72115
2.72398
2.72571
2.72691
2.72444
2.72492
2.70271
1.38844
1.02378
1.02082
1.03074
1.03379
1.02932
1.01077
0.95549
0.837607
0.637315
0.474009
0.391585
0.368949
0.379392
0.387493
0.394519
0.400172
0.402826
0.40512
0.405218
0.406162
0.405576
0.405989
0.405146
0.40524
0.40452
0.404804
0.40466
0.405316
0.40564
0.407409
0.406716
0.406887
0.404384
0.404202
0.402725
0.403322
0.402598
0.39926
0.392475
0.38846
0.385264
0.384945
0.385949
0.385015
0.384253
0.387236
0.390174
0.390673
0.394067
0.399574
0.40146
0.406447
0.41344
0.418705
0.423739
0.432122
0.444047
0.457234
0.473966
0.494207
0.522357
0.553206
0.589767
0.617853
0.623393
0.615059
0.599828
0.577643
0.561516
0.540956
0.523685
0.518355
0.513511
0.498935
0.469389
0.458036
0.454637
0.56937
2.62469
2.61843
2.61972
2.6202
2.62099
2.62195
2.62307
2.62425
2.62575
2.62734
2.62905
2.63109
2.63306
2.63517
2.63809
2.6409
2.6436
2.64619
2.64968
2.6545
2.65856
2.66257
2.66514
2.66922
2.67599
2.68364
2.6898
2.69483
2.69986
2.70232
2.70643
2.71207
2.71742
2.7279
2.73302
2.73687
2.74112
2.74805
2.75753
2.7792
1.31322
1.03645
1.03163
1.03536
1.03251
1.01241
0.961138
0.818681
0.636386
0.468034
0.396043
0.374212
0.388549
0.395982
0.405224
0.410554
0.415217
0.417504
0.41941
0.419894
0.420535
0.420759
0.420879
0.420807
0.420483
0.420595
0.420218
0.420702
0.421247
0.421393
0.423372
0.423756
0.425129
0.423282
0.422391
0.420999
0.420546
0.421178
0.42046
0.417738
0.412701
0.407238
0.404682
0.404314
0.402909
0.399728
0.400838
0.403507
0.402647
0.404196
0.408541
0.409902
0.4135
0.4199
0.42533
0.430037
0.437817
0.448904
0.46202
0.478358
0.5
0.526816
0.55562
0.589351
0.611523
0.616543
0.608915
0.595399
0.574587
0.563465
0.544559
0.52816
0.521627
0.518709
0.505423
0.477688
0.464481
0.463822
0.575252
2.62446
2.61825
2.61953
2.61998
2.62075
2.62169
2.62279
2.62397
2.62543
2.62704
2.62872
2.63076
2.63281
2.63494
2.63776
2.64075
2.64364
2.64607
2.64931
2.65469
2.65906
2.6635
2.66627
2.67057
2.67649
2.68577
2.6928
2.69866
2.70405
2.70881
2.71225
2.71859
2.72441
2.73312
2.74205
2.74612
2.74647
2.75257
2.7387
2.59005
1.1815
1.04086
1.03983
1.03578
1.01746
0.947125
0.825047
0.612997
0.456587
0.395671
0.37599
0.392491
0.400867
0.410163
0.416798
0.422014
0.425216
0.428257
0.429955
0.431611
0.432182
0.433388
0.433377
0.434194
0.433682
0.43457
0.434445
0.435067
0.436527
0.436174
0.438185
0.438418
0.440594
0.43994
0.439535
0.4378
0.436992
0.437366
0.436792
0.436663
0.432936
0.42635
0.421067
0.418468
0.416583
0.413165
0.41217
0.413905
0.412878
0.413013
0.416587
0.419202
0.422666
0.429259
0.435075
0.439378
0.446683
0.456907
0.469606
0.484239
0.501927
0.525248
0.552616
0.585104
0.612168
0.617168
0.609374
0.595974
0.57575
0.561747
0.544376
0.5301
0.527653
0.526441
0.513751
0.486716
0.471731
0.472706
0.575509
2.62422
2.61804
2.6193
2.61971
2.62048
2.62139
2.62246
2.62366
2.6251
2.62668
2.62834
2.63038
2.63249
2.63464
2.63736
2.6405
2.64357
2.64603
2.6493
2.65456
2.6594
2.66419
2.66762
2.67167
2.67705
2.6872
2.69525
2.70275
2.70953
2.71635
2.71999
2.72596