/*--------------------------------*- C++ -*----------------------------------*\
| =========                 |                                                 |
| \\      /  F ield         | OpenFOAM: The Open Source CFD Toolbox           |
|  \\    /   O peration     | Version:  2.2.x                                 |
|   \\  /    A nd           | Web:      www.OpenFOAM.org                      |
|    \\/     M anipulation  |                                                 |
\*---------------------------------------------------------------------------*/
FoamFile
{
    version     2.0;
    format      ascii;
    class       volScalarField;
    location    "2.75";
    object      p;
}
// * * * * * * * * * * * * * * * * * * * * * * * * * * * * * * * * * * * * * //

dimensions      [1 -1 -2 0 0 0 0];

internalField   nonuniform List<scalar> 
14161
(
0.19622
0.197156
0.196973
0.196909
0.196797
0.196671
0.196522
0.196364
0.196184
0.196002
0.195811
0.19561
0.195404
0.195179
0.194988
0.194808
0.194621
0.194454
0.19425
0.194081
0.193958
0.193887
0.193844
0.193795
0.193789
0.193824
0.193896
0.19402
0.194189
0.194434
0.194738
0.195044
0.195527
0.196119
0.196825
0.197487
0.198116
0.198971
0.20033
0.201917
0.203067
0.204844
0.204811
0.334351
1.34536
1.63669
1.60378
1.57647
1.53947
1.50565
1.47612
1.4469
1.41794
1.38887
1.36157
1.33523
1.31138
1.29052
1.27356
1.25959
1.24811
1.23849
1.22975
1.22212
1.21545
1.2101
1.20608
1.20289
1.20069
1.19935
1.19861
1.19845
1.19956
1.20234
1.20611
1.20867
1.20976
1.20891
1.2095
1.2087
1.20542
1.20329
1.19479
1.19099
1.18964
1.19011
1.17812
1.17243
1.16614
1.15519
1.15018
1.14581
1.13833
1.13379
1.12457
1.11582
1.11049
1.10775
1.1153
1.07942
1.05671
1.03389
0.998513
0.958508
0.910291
0.891921
0.886037
0.88374
0.88292
0.884412
0.971423
1.07413
1.33059
1.54019
1.71152
1.83739
1.94771
2.02642
2.13614
0.196216
0.197156
0.196968
0.196903
0.196801
0.196681
0.196516
0.196355
0.196187
0.196009
0.195807
0.195607
0.195403
0.195178
0.194987
0.194804
0.194624
0.19445
0.194249
0.194079
0.193958
0.193884
0.19384
0.193793
0.193786
0.193818
0.19389
0.194015
0.194187
0.194417
0.194721
0.19507
0.195467
0.196126
0.196798
0.197478
0.198083
0.198882
0.200215
0.201773
0.202942
0.204331
0.205515
0.302254
1.32093
1.62288
1.58742
1.55907
1.52576
1.49539
1.46796
1.43971
1.41199
1.38388
1.35661
1.33138
1.30849
1.28853
1.27221
1.25874
1.24723
1.23794
1.22946
1.2217
1.21486
1.20943
1.20533
1.20233
1.20006
1.19847
1.19751
1.19712
1.19763
1.2006
1.20396
1.2062
1.20702
1.20549
1.20516
1.20531
1.2012
1.19913
1.19157
1.18854
1.18711
1.18628
1.17497
1.16922
1.1637
1.15335
1.14799
1.14328
1.13629
1.13168
1.12263
1.11474
1.1093
1.1069
1.11187
1.07587
1.05602
1.03559
0.992574
0.954254
0.911132
0.890569
0.883968
0.881462
0.888775
0.976403
1.22517
1.45763
1.65286
1.76976
1.85974
1.91614
1.9851
2.01856
2.1046
0.196214
0.197156
0.196968
0.196902
0.196795
0.196671
0.196525
0.196367
0.196178
0.195996
0.195811
0.195616
0.195394
0.19518
0.194984
0.194799
0.194626
0.194448
0.194245
0.194073
0.193951
0.193874
0.193827
0.193783
0.193777
0.193808
0.193875
0.193993
0.194155
0.194376
0.19466
0.195009
0.19541
0.196018
0.196663
0.197384
0.19796
0.198741
0.200002
0.201474
0.202506
0.202939
0.203316
0.2945
1.31504
1.62977
1.59624
1.57072
1.53891
1.50701
1.47276
1.441
1.40936
1.37867
1.35031
1.3249
1.30239
1.28284
1.26709
1.25496
1.24454
1.23474
1.226
1.21828
1.21144
1.20599
1.20159
1.19843
1.19604
1.19436
1.19331
1.19271
1.19276
1.19645
1.19948
1.20139
1.20205
1.20029
1.20012
1.20052
1.19575
1.19333
1.18675
1.18399
1.1823
1.1808
1.17025
1.16478
1.16008
1.14971
1.14438
1.13971
1.13295
1.12832
1.12003
1.11269
1.10738
1.10506
1.10895
1.07315
1.05487
1.03221
0.989281
0.955504
0.909892
0.894466
0.892587
0.899508
1.01399
1.25616
1.48682
1.67696
1.77708
1.83038
1.87639
1.8947
1.9472
1.96842
2.01337
0.196215
0.197155
0.196966
0.196901
0.196798
0.196678
0.196513
0.196353
0.196185
0.196008
0.195802
0.195601
0.195397
0.195184
0.19498
0.194787
0.194618
0.194437
0.194249
0.194064
0.193941
0.193859
0.193804
0.193768
0.193762
0.193785
0.193845
0.193954
0.194107
0.194326
0.194597
0.194893
0.195287
0.195837
0.196462
0.197164
0.197724
0.198489
0.199634
0.20106
0.20241
0.203591
0.204729
0.299891
1.31034
1.62633
1.58831
1.56091
1.52926
1.4986
1.46707
1.43798
1.40824
1.3788
1.35015
1.32464
1.30122
1.28081
1.26399
1.24969
1.23786
1.22789
1.21892
1.21111
1.20447
1.19886
1.19438
1.19102
1.18854
1.18654
1.18517
1.18448
1.18427
1.18732
1.19066
1.19207
1.19301
1.19034
1.18949
1.19174
1.18597
1.18311
1.17786
1.17473
1.17247
1.16965
1.16048
1.15489
1.15085
1.13992
1.13429
1.1289
1.12303
1.11834
1.11297
1.10434
1.09891
1.09691
1.10005
1.06352
1.04727
1.01842
0.985382
0.955132
0.909589
0.896741
0.910285
1.05578
1.31355
1.55659
1.70122
1.77231
1.81691
1.85012
1.87246
1.87568
1.92468
1.93853
1.96714
0.196217
0.197153
0.196971
0.196906
0.196788
0.196662
0.196521
0.196364
0.196175
0.195993
0.195809
0.195611
0.195388
0.195182
0.194972
0.194778
0.194612
0.194429
0.194248
0.194054
0.193923
0.193831
0.193772
0.193743
0.193733
0.193748
0.193802
0.193899
0.194034
0.19421
0.194459
0.194793
0.195111
0.195556
0.196159
0.196794
0.197484
0.198149
0.199094
0.200483
0.201765
0.202666
0.203234
0.289195
1.2997
1.62804
1.59146
1.56402
1.53235
1.49907
1.46134
1.42895
1.39479
1.36411
1.33588
1.31147
1.29022
1.27104
1.25416
1.24106
1.22983
1.21932
1.21011
1.20197
1.19516
1.18936
1.18444
1.18085
1.17814
1.17591
1.17435
1.17334
1.17312
1.17513
1.1784
1.18007
1.1814
1.17879
1.17717
1.18005
1.17396
1.17105
1.16741
1.1642
1.16153
1.15746
1.15019
1.14455
1.14063
1.13015
1.12517
1.11939
1.11398
1.10872
1.10319
1.09537
1.09029
1.08794
1.09038
1.05333
1.03419
1.01018
0.977471
0.945838
0.904988
0.919882
1.08395
1.35319
1.58598
1.70137
1.74423
1.78248
1.81234
1.8411
1.8637
1.851
1.89718
1.9126
1.93845
0.19622
0.197155
0.196964
0.196899
0.196797
0.196676
0.19651
0.196349
0.196182
0.196004
0.195799
0.195594
0.195391
0.195185
0.194964
0.194768
0.194602
0.194422
0.194242
0.194043
0.193899
0.193799
0.193733
0.193711
0.193697
0.193696
0.193738
0.19381
0.193928
0.194098
0.194323
0.194571
0.194898
0.195254
0.195714
0.196306
0.19698
0.19773
0.198572
0.199723
0.20117
0.20254
0.203706
0.265966
1.269
1.62545
1.59524
1.56137
1.53026
1.49369
1.45629
1.42482
1.39035
1.36165
1.3251
1.29826
1.27262
1.25078
1.2333
1.2207
1.20953
1.19926
1.19051
1.18239
1.17579
1.16995
1.16518
1.16176
1.15919
1.15713
1.15555
1.15455
1.15419
1.15558
1.15913
1.16086
1.16252
1.15936
1.15736
1.16083
1.15528
1.1518
1.14928
1.14628
1.14359
1.13806
1.13307
1.12761
1.12402
1.11341
1.10871
1.10183
1.09731
1.09291
1.08835
1.08154
1.07618
1.07332
1.07499
1.03619
1.01764
0.993943
0.966608
0.931896
0.919823
1.09162
1.36302
1.58964
1.68362
1.7167
1.73353
1.76919
1.80255
1.83067
1.85044
1.84053
1.87952
1.89302
1.91813
0.196224
0.197155
0.196967
0.1969
0.196791
0.196663
0.196521
0.196362
0.196172
0.195988
0.195803
0.195601
0.195383
0.195182
0.194957
0.194757
0.194587
0.194414
0.194229
0.194035
0.193871
0.193758
0.193684
0.19366
0.193649
0.193642
0.19366
0.193722
0.193794
0.193918
0.194118
0.194336
0.19461
0.194891
0.195208
0.19571
0.196336
0.197093
0.19796
0.198969
0.200546
0.203166
0.205385
0.316872
1.30292
1.61918
1.57946
1.5447
1.50712
1.46562
1.42491
1.39051
1.35814
1.33093
1.29697
1.27409
1.24821
1.22965
1.20783
1.19323
1.18383
1.17289
1.16474
1.15595
1.1492
1.14324
1.13888
1.13502
1.13277
1.13092
1.12977
1.1294
1.1294
1.13053
1.13325
1.13544
1.13745
1.13806
1.1346
1.13483
1.13473
1.13061
1.12767
1.12567
1.12456
1.11732
1.11337
1.10828
1.10526
1.09648
1.09313
1.08578
1.08137
1.07632
1.07024
1.0622
1.05584
1.05267
1.05233
1.01314
0.997083
0.980148
0.955123
0.944771
1.09057
1.37383
1.57484
1.64884
1.67452
1.68217
1.71198
1.74983
1.78771
1.81854
1.83856
1.83155
1.86383
1.87147
1.89918
0.19623
0.197159
0.196969
0.196902
0.196792
0.196667
0.196522
0.196351
0.196176
0.195993
0.195799
0.195591
0.195386
0.195182
0.194949
0.194745
0.194569
0.194396
0.194212
0.194034
0.193843
0.19371
0.19363
0.19359
0.193588
0.19358
0.19356
0.193602
0.19366
0.193743
0.193856
0.194045
0.194244
0.194457
0.19463
0.194887
0.195308
0.195866
0.196456
0.197196
0.19801
0.199433
0.200884
0.253024
1.23709
1.63425
1.59063
1.55578
1.51818
1.46609
1.4229
1.38079
1.33935
1.30148
1.26503
1.24108
1.21331
1.19942
1.16319
1.14975
1.13859
1.13324
1.12941
1.11932
1.11086
1.10541
1.10129
1.09792
1.09588
1.09449
1.09396
1.09366
1.09441
1.09622
1.09906
1.10135
1.1043
1.10525
1.10322
1.1026
1.10342
1.102
1.09894
1.09806
1.09766
1.09156
1.08789
1.08412
1.08078
1.07214
1.06945
1.06315
1.05925
1.05688
1.04913
1.04214
1.0365
1.03372
1.03131
1.00169
0.991615
0.981692
0.964608
1.12726
1.36232
1.5539
1.61477
1.63284
1.62361
1.64967
1.67877
1.72726
1.77124
1.80468
1.82478
1.82112
1.8482
1.85778
1.88296
0.196237
0.197162
0.196971
0.196901
0.196799
0.196676
0.196517
0.196349
0.196176
0.195989
0.195798
0.195591
0.195381
0.195176
0.194945
0.194735
0.194547
0.194373
0.194197
0.194018
0.193816
0.193661
0.193568
0.19351
0.1935
0.193488
0.193467
0.193446
0.193466
0.193521
0.193612
0.193701
0.193825
0.193926
0.194036
0.194133
0.194278
0.194556
0.194871
0.195445
0.196173
0.197821
0.200103
0.247544
1.1779
1.6068
1.51976
1.47077
1.43447
1.38717
1.34377
1.31326
1.26703
1.23101
1.2081
1.18772
1.1596
1.16239
1.10769
1.10485
1.08921
1.08463
1.08166
1.0778
1.06524
1.06202
1.06241
1.05622
1.05553
1.05533
1.05573
1.05596
1.05687
1.05919
1.06098
1.0648
1.06801
1.07058
1.06887
1.06802
1.06712
1.0691
1.0671
1.06651
1.06586
1.06333
1.0576
1.05507
1.05394
1.04517
1.04219
1.03757
1.03455
1.03263
1.02831
1.02194
1.0197
1.02065
1.02172
1.00054
0.993618
0.993826
1.15368
1.38774
1.54607
1.58977
1.5955
1.58069
1.58919
1.61293
1.65006
1.70375
1.7541
1.79015
1.81167
1.81073
1.83453
1.845
1.86731
0.196245
0.197164
0.196979
0.196911
0.196794
0.196664
0.196524
0.196366
0.196173
0.195982
0.195794
0.195592
0.195377
0.195169
0.194944
0.194723
0.194522
0.194348
0.194177
0.193994
0.193799
0.19361
0.193495
0.193427
0.193392
0.193382
0.193351
0.193287
0.193267
0.193281
0.193304
0.193341
0.193357
0.193338
0.193299
0.193158
0.192958
0.192636
0.192293
0.19152
0.190962
0.189367
0.188352
0.193709
0.840612
1.53664
1.40771
1.37073
1.34557
1.29989
1.25997
1.24794
1.18878
1.16154
1.15878
1.11643
1.09354
1.11839
1.06076
1.05923
1.05278
1.03971
1.03732
1.03502
1.02516
1.02471
1.02462
1.02114
1.02121
1.02116
1.02215
1.02252
1.02415
1.02596
1.0287
1.03134
1.03703
1.04056
1.03667
1.03702
1.03625
1.03791
1.03564
1.0361
1.03646
1.03481
1.03035
1.02801
1.02721
1.01924
1.01739
1.01439
1.01234
1.01335
1.01393
1.01034
1.01442
1.01808
1.02358
1.00938
1.03826
1.23221
1.42966
1.5814
1.61051
1.56738
1.5346
1.53532
1.54792
1.57794
1.62185
1.68259
1.73648
1.77474
1.79797
1.79996
1.82197
1.83287
1.85327
0.196254
0.19717
0.196978
0.196907
0.196803
0.196676
0.196521
0.196356
0.196181
0.195994
0.195792
0.195583
0.195377
0.195165
0.194944
0.194708
0.1945
0.194315
0.194154
0.193971
0.193776
0.193556
0.193419
0.193333
0.193272
0.193252
0.193209
0.193117
0.193039
0.193009
0.192984
0.192927
0.192854
0.192759
0.19262
0.192372
0.191884
0.191276
0.190613
0.189586
0.188014
0.186192
0.18071
0.181325
0.466026
1.17525
1.2154
1.24802
1.25801
1.20395
1.17794
1.16961
1.11975
1.1298
1.07962
1.08844
1.05418
1.06806
1.04575
1.02892
1.02849
1.0118
1.00787
1.01287
1.00267
0.999241
1.00084
0.998202
0.998183
0.997301
0.998368
0.999106
0.99926
1.0025
1.00557
1.00799
1.00991
1.01785
1.01459
1.01375
1.01384
1.01438
1.01336
1.01442
1.01567
1.0144
1.01113
1.00843
1.00742
1.00494
1.00366
1.0024
1.00542
1.00785
1.01295
1.01209
1.02004
1.0327
1.05231
1.12707
1.31715
1.51606
1.64092
1.64389
1.57673
1.52663
1.49356
1.5012
1.51571
1.54707
1.59774
1.66226
1.72038
1.76063
1.78548
1.78986
1.81065
1.82134
1.8393
0.196264
0.197175
0.196983
0.196913
0.196807
0.196674
0.196527
0.196365
0.196182
0.195988
0.195791
0.195592
0.195375
0.195158
0.19494
0.194693
0.194478
0.194283
0.194126
0.193944
0.193745
0.193502
0.193343
0.193228
0.193144
0.193105
0.19305
0.192961
0.192795
0.19272
0.19264
0.192537
0.192371
0.192159
0.191922
0.191512
0.190704
0.189419
0.18785
0.185155
0.180874
0.174476
0.165164
0.164867
0.418113
0.936599
1.00573
1.03069
1.18627
1.16933
1.16278
1.15012
1.10013
1.11254
1.05349
1.08055
1.04838
1.03062
1.0369
1.01106
1.01113
0.99646
0.990651
0.994658
0.986231
0.984023
0.985322
0.982936
0.984099
0.9828
0.983739
0.984894
0.983467
0.985067
0.991624
0.993359
0.990841
1.00279
0.999655
0.996912
0.997601
0.999383
0.999022
0.999946
1.0053
1.00327
1.0031
1.00201
1.0024
1.00046
1.00159
1.0014
1.00602
1.01628
1.025
1.04224
1.08056
1.14403
1.2743
1.44073
1.6003
1.70901
1.69407
1.60589
1.53813
1.49004
1.46444
1.47372
1.48882
1.52519
1.57813
1.64584
1.70549
1.74658
1.77271
1.7797
1.7998
1.81064
1.8273
0.196275
0.197179
0.196992
0.196923
0.196809
0.196676
0.196531
0.196368
0.196187
0.195991
0.195789
0.195592
0.195378
0.195153
0.194932
0.194684
0.194455
0.194249
0.19409
0.193911
0.193704
0.193444
0.193261
0.19312
0.193006
0.192936
0.192874
0.192772
0.192543
0.192412
0.192296
0.192152
0.191959
0.191699
0.19138
0.191087
0.190604
0.189901
0.189355
0.188575
0.189957
0.189161
0.203882
0.322088
0.693861
0.854595
0.947064
1.01065
1.12653
1.17579
1.15106
1.15849
1.09368
1.11768
1.0714
1.07847
1.05333
1.02337
1.02807
1.01384
1.00235
0.998068
0.985881
0.988912
0.980451
0.982712
0.982538
0.979309
0.981382
0.978898
0.979718
0.981187
0.978633
0.979452
0.988625
0.988849
0.986024
0.996439
0.993921
0.992169
0.992385
0.995001
0.995816
0.997869
1.00305
1.00134
1.00215
1.00283
1.00652
1.01169
1.01922
1.02898
1.04792
1.08956
1.12712
1.20658
1.31683
1.45733
1.58752
1.70826
1.77107
1.74363
1.66315
1.58826
1.51153
1.46318
1.44206
1.44907
1.46692
1.5065
1.56252
1.6321
1.6921
1.734
1.76114
1.7704
1.79009
1.80066
1.81562
0.196287
0.197188
0.196996
0.196926
0.196814
0.196687
0.196534
0.196373
0.196194
0.195995
0.19579
0.195594
0.195383
0.195143
0.194916
0.194677
0.194435
0.194216
0.194047
0.193868
0.193652
0.193377
0.193174
0.193009
0.192866
0.192749
0.192681
0.192557
0.192327
0.192109
0.191967
0.191797
0.191602
0.19134
0.191056
0.190765
0.190401
0.189878
0.189138
0.188076
0.188327
0.186853
0.19686
0.551819
0.825789
0.848593
0.856906
0.951932
1.01897
1.19617
1.18992
1.2127
1.12331
1.15109
1.0991
1.1029
1.05989
1.03126
1.02489
1.0334
1.00443
1.00081
0.991439
0.988886
0.985948
0.983955
0.98268
0.981592
0.984273
0.980725
0.982524
0.984072
0.982324
0.981273
0.994374
0.990817
0.989599
0.998039
0.99745
0.99786
0.99662
1.00192
1.0045
1.00971
1.01753
1.02295
1.03085
1.04254
1.05688
1.08526
1.11922
1.16778
1.24189
1.33563
1.43568
1.53451
1.63008
1.73043
1.79327
1.81183
1.76994
1.69947
1.62544
1.54133
1.48163
1.45038
1.44016
1.44113
1.45821
1.49668
1.55283
1.62139
1.68053
1.72226
1.74991
1.76131
1.78076
1.79133
1.80552
0.196299
0.197197
0.197003
0.19693
0.196825
0.196694
0.196543
0.196381
0.196203
0.196
0.195794
0.195594
0.195384
0.195139
0.194904
0.194669
0.194413
0.194183
0.194
0.193816
0.193589
0.193298
0.193082
0.192888
0.192716
0.192559
0.192473
0.192326
0.1921
0.191813
0.19164
0.191472
0.191289
0.191086
0.190863
0.190689
0.190468
0.19003
0.189129
0.1878
0.184945
0.18144
0.179744
0.663782
0.84921
0.8523
0.854861
0.889799
0.911243
1.10147
1.20475
1.24368
1.18975
1.20747
1.13088
1.12947
1.0692
1.04505
1.05632
1.03024
1.01759
1.01524
1.00231
0.999567
0.995907
0.992859
0.99047
0.989385
0.991503
0.988144
0.989402
0.990723
0.992481
0.993124
1.00496
1.00432
1.00812
1.01601
1.01699
1.02551
1.02997
1.04418
1.05478
1.07373
1.09812
1.1259
1.15922
1.20786
1.26626
1.34465
1.42157
1.49759
1.56744
1.64896
1.71965
1.78098
1.81822
1.83435
1.82035
1.79254
1.74237
1.67771
1.6033
1.53
1.47515
1.44081
1.43405
1.43643
1.4544
1.4913
1.54723
1.61305
1.67029
1.71127
1.73926
1.75275
1.77197
1.78241
1.79514
0.196313
0.197205
0.197013
0.196942
0.196828
0.196702
0.196553
0.196388
0.196209
0.196008
0.195798
0.195596
0.195385
0.195136
0.194893
0.194656
0.194395
0.194153
0.193948
0.193754
0.193516
0.193209
0.19298
0.192764
0.192564
0.192373
0.192235
0.192079
0.191878
0.191531
0.191323
0.191152
0.190993
0.190846
0.190715
0.190658
0.190633
0.190708
0.190851
0.192236
0.192342
0.200602
0.315744
0.825775
0.910883
0.896184
0.885874
0.882815
0.906027
0.942544
1.12849
1.22942
1.26245
1.2189
1.1647
1.14917
1.07518
1.08253
1.04444
1.04851
1.03429
1.0329
1.01607
1.01536
1.01072
1.00764
1.0062
1.00599
1.00988
1.009
1.01453
1.01619
1.02329
1.02943
1.04526
1.05414
1.07036
1.08367
1.10477
1.13097
1.15713
1.19967
1.2408
1.29054
1.35603
1.41611
1.47309
1.5283
1.57987
1.64591
1.70644
1.76266
1.79753
1.81961
1.83608
1.84234
1.83738
1.824
1.79926
1.76857
1.72112
1.66028
1.58873
1.52028
1.47134
1.44882
1.44244
1.44362
1.45978
1.49112
1.54489
1.60688
1.66171
1.70136
1.72938
1.74474
1.76358
1.77368
1.7861
0.196327
0.197215
0.197022
0.19695
0.196844
0.19671
0.196556
0.196396
0.19622
0.196017
0.195804
0.195599
0.195385
0.195136
0.194881
0.19464
0.194379
0.194118
0.193892
0.193688
0.193431
0.193114
0.192866
0.192642
0.192415
0.192193
0.191988
0.191812
0.191612
0.191277
0.191007
0.190825
0.190709
0.190619
0.190575
0.190681
0.190933
0.191401
0.192217
0.194058
0.196196
0.20466
0.493168
0.922249
0.94309
0.920041
0.903892
0.891619
0.885697
0.893763
0.971362
1.11322
1.22046
1.2086
1.22394
1.13075
1.09629
1.11038
1.04693
1.06043
1.05588
1.05199
1.04352
1.03926
1.03857
1.03482
1.04101
1.04353
1.05637
1.06064
1.08016
1.09238
1.11673
1.14642
1.17253
1.2163
1.25208
1.30208
1.35432
1.40639
1.45803
1.50552
1.54993
1.59347
1.64394
1.6945
1.74008
1.7762
1.80141
1.81741
1.83129
1.84112
1.84365
1.84186
1.83994
1.83136
1.81969
1.80395
1.77957
1.7507
1.70695
1.65021
1.58398
1.52261
1.48093
1.45259
1.44393
1.4472
1.46328
1.49517
1.54474
1.60268
1.65431
1.69212
1.71989
1.73727
1.75519
1.7646
1.77641
0.196342
0.197225
0.197033
0.196963
0.196851
0.19672
0.196571
0.196404
0.196229
0.196029
0.195811
0.195601
0.195386
0.195139
0.194869
0.194621
0.194364
0.194086
0.193836
0.193611
0.193335
0.193006
0.192741
0.192499
0.192275
0.192019
0.191757
0.191513
0.191307
0.191036
0.190696
0.190483
0.190358
0.190269
0.190188
0.190155
0.190155
0.190252
0.190015
0.190168
0.188847
0.193334
0.618963
0.945043
0.958781
0.941347
0.930699
0.911661
0.899156
0.890071
0.897131
0.960966
1.06242
1.19102
1.22705
1.16399
1.12229
1.12384
1.05288
1.08668
1.07513
1.08695
1.07787
1.08298
1.09727
1.10446
1.12919
1.15234
1.18628
1.21909
1.26366
1.31342
1.36482
1.41679
1.46552
1.50927
1.55243
1.59186
1.63691
1.67942
1.7243
1.759
1.78645
1.80523
1.81766
1.82813
1.8352
1.83919
1.83995
1.83735
1.83781
1.8358
1.83329
1.82939
1.82362
1.81525
1.80479
1.78842
1.76547
1.73811
1.69809
1.64506
1.5825
1.52354
1.48472
1.46345
1.45565
1.45813
1.47282
1.50191
1.54809
1.60036
1.64838
1.68412
1.71104
1.72915
1.74686
1.75602
1.76842
0.196357
0.197236
0.197045
0.196975
0.196862
0.196737
0.196582
0.196415
0.196242
0.196043
0.19582
0.195604
0.195389
0.195142
0.19486
0.194601
0.194343
0.194056
0.19378
0.193534
0.193239
0.192885
0.192601
0.192336
0.192114
0.191838
0.191517
0.191223
0.190986
0.190743
0.190417
0.190128
0.189957
0.189834
0.189701
0.189518
0.189302
0.188611
0.18769
0.185437
0.181899
0.17975
0.710092
0.947994
0.958853
0.950536
0.946574
0.928563
0.920452
0.904579
0.892457
0.888411
0.975273
1.05402
1.25248
1.16971
1.18613
1.10245
1.12521
1.13643
1.13597
1.17156
1.18879
1.19846
1.26033
1.30177
1.35925
1.41083
1.45654
1.50196
1.54469
1.59163
1.63437
1.68125
1.72068
1.75369
1.78067
1.80099
1.81511
1.82639
1.8346
1.84076
1.84449
1.84527
1.8432
1.84169
1.83889
1.83519
1.8305
1.8267
1.82431
1.8215
1.82266
1.81784
1.81091
1.80119
1.791
1.77593
1.7549
1.729
1.69288
1.64379
1.58632
1.53164
1.49449
1.47056
1.46267
1.46586
1.48087
1.50848
1.55196
1.59965
1.64426
1.67688
1.70233
1.71941
1.7388
1.74779
1.76064
0.196374
0.197247
0.197056
0.196985
0.196879
0.196751
0.196597
0.196428
0.196257
0.196061
0.19583
0.195608
0.195394
0.195146
0.194853
0.194581
0.194317
0.194031
0.193726
0.193453
0.193145
0.192764
0.192448
0.192153
0.191933
0.191643
0.19125
0.190921
0.190631
0.190408
0.190144
0.189803
0.189545
0.189376
0.189273
0.189187
0.189244
0.189103
0.189579
0.188774
0.193613
0.258087
0.826418
0.975201
0.976346
0.973503
0.969048
0.954415
0.946628
0.930462
0.911064
0.896575
0.895796
0.959985
1.16213
1.22834
1.26745
1.16973
1.25423
1.29563
1.31863
1.38758
1.43086
1.46879
1.51662
1.56526
1.60781
1.65604
1.69687
1.72958
1.75651
1.77823
1.79648
1.81108
1.82222
1.83083
1.83739
1.84273
1.84546
1.84773
1.84756
1.84636
1.84321
1.8388
1.83496
1.83113
1.82758
1.82309
1.81947
1.81597
1.81305
1.80963
1.80956
1.80554
1.79888
1.78946
1.77969
1.76634
1.74731
1.7234
1.68984
1.64318
1.58802
1.53543
1.50113
1.4781
1.47071
1.47477
1.48995
1.51661
1.55703
1.60037
1.64091
1.67
1.69365
1.71048
1.7303
1.73978
1.75264
0.196391
0.197259
0.197071
0.197002
0.196889
0.196766
0.196615
0.196443
0.196273
0.196079
0.195842
0.195614
0.195399
0.195149
0.194846
0.194563
0.194294
0.194002
0.193671
0.193371
0.193053
0.192654
0.19229
0.19197
0.191721
0.191421
0.191
0.190592
0.190269
0.190009
0.189784
0.189514
0.189113
0.188909
0.188854
0.188866
0.189042
0.189332
0.190091
0.190511
0.195655
0.400937
0.943532
0.99561
0.986686
0.980426
0.973223
0.963656
0.954381
0.942409
0.927429
0.910138
0.900982
0.998656
1.1435
1.33819
1.40444
1.42461
1.48317
1.52816
1.5787
1.62403
1.66564
1.69488
1.72097
1.74067
1.75875
1.77483
1.78854
1.79992
1.80964
1.81922
1.82661
1.83194
1.83552
1.83804
1.83947
1.83937
1.84037
1.84171
1.84012
1.83904
1.83573
1.83135
1.82727
1.82237
1.81891
1.81335
1.80934
1.80588
1.80281
1.79893
1.79902
1.79494
1.78886
1.77968
1.7706
1.75839
1.74127
1.7191
1.68818
1.64482
1.59275
1.5423
1.50726
1.49054
1.48123
1.48428
1.49843
1.52347
1.56041
1.59956
1.63601
1.66289
1.68533
1.70165
1.72174
1.73179
1.7453
0.19641
0.197272
0.197085
0.197016
0.196909
0.196783
0.196634
0.196461
0.196288
0.196096
0.195858
0.195624
0.195406
0.195153
0.194841
0.19455
0.194272
0.193969
0.193616
0.193286
0.192959
0.192561
0.192132
0.191772
0.191488
0.191179
0.190755
0.19026
0.189893
0.189577
0.18936
0.189061
0.188715
0.188311
0.188108
0.187996
0.188052
0.188082
0.18878
0.189128
0.192385
0.565306
0.986916
1.00634
0.993707
0.987928
0.981036
0.973747
0.967569
0.964274
0.967257
0.97411
0.977718
1.14767
1.33103
1.55839
1.62839
1.65943
1.67976
1.70533
1.72857
1.74541
1.75922
1.76688
1.77472
1.77944
1.78427
1.79062
1.7968
1.80262
1.80778
1.81366
1.81852
1.8227
1.82545
1.82701
1.82878
1.82865
1.83045
1.83126
1.83105
1.8297
1.82637
1.82218
1.81791
1.81405
1.81089
1.80542
1.80134
1.79754
1.79405
1.79025
1.78917
1.78469
1.77912
1.77032
1.76191
1.75107
1.73576
1.71567
1.68703
1.646
1.59699
1.54925
1.51782
1.50073
1.49137
1.4945
1.50745
1.52959
1.56233
1.59685
1.63109
1.65576
1.67712
1.69302
1.71316
1.72394
1.73699
0.196429
0.197286
0.197103
0.197035
0.196923
0.196801
0.196657
0.196482
0.196305
0.196115
0.195875
0.195638
0.195417
0.195158
0.194837
0.194539
0.194255
0.19394
0.193556
0.193197
0.19287
0.192484
0.191981
0.191575
0.191229
0.190915
0.190501
0.189956
0.189531
0.189139
0.188868
0.188525
0.188161
0.187644
0.187196
0.186814
0.186358
0.186018
0.185879
0.184623
0.187825
0.641791
0.986838
1.00475
0.999959
0.999225
0.995446
0.991383
0.987403
0.985646
1.00395
1.04962
1.09895
1.3845
1.58917
1.71901
1.73803
1.74387
1.75221
1.7616
1.77077
1.77664
1.78038
1.78302
1.78473
1.78381
1.78325
1.78286
1.78584
1.78933
1.7942
1.80057
1.80503
1.80961
1.81263
1.81504
1.81728
1.81831
1.82108
1.82217
1.82261
1.82136
1.81869
1.81537
1.81117
1.80769
1.80301
1.79847
1.79404
1.78989
1.78579
1.78188
1.77982
1.77554
1.77051
1.76247
1.75478
1.74486
1.73051
1.71144
1.68455
1.64707
1.60152
1.55593
1.52715
1.50948
1.50048
1.50276
1.51477
1.53523
1.5633
1.59399
1.62379
1.64783
1.66878
1.6844
1.70455
1.71615
1.73011
0.196449
0.197302
0.19712
0.197055
0.196945
0.196818
0.196679
0.196507
0.196325
0.196136
0.195897
0.195656
0.195431
0.195167
0.194834
0.194526
0.194241
0.193916
0.193496
0.19311
0.192775
0.192391
0.191882
0.191383
0.19096
0.19061
0.190186
0.189661
0.189201
0.188775
0.18839
0.187894
0.187332
0.186726
0.186048
0.185275
0.184075
0.182631
0.179816
0.176499
0.172723
0.729959
0.982549
1.0013
1.00442
1.00684
1.00716
1.01157
1.01508
1.02031
1.06201
1.20546
1.35411
1.63376
1.75321
1.77569
1.77297
1.7701
1.76934
1.77076
1.77276
1.77307
1.7724
1.77244
1.77085
1.76876
1.76526
1.76166
1.76027
1.76071
1.76459
1.77018
1.77519
1.7817
1.78704
1.79247
1.7967
1.80023
1.80434
1.80667
1.80909
1.8099
1.80895
1.80732
1.80392
1.80124
1.79671
1.79322
1.7884
1.78416
1.77957
1.77548
1.77209
1.76756
1.76269
1.75471
1.74709
1.73743
1.72378
1.70622
1.6819
1.6479
1.60578
1.56411
1.53991
1.52021
1.51213
1.51341
1.52272
1.53953
1.56319
1.58903
1.61617
1.64002
1.66064
1.67612
1.69561
1.70837
1.72155
0.196471
0.197319
0.197139
0.197076
0.196969
0.196839
0.196702
0.196535
0.196348
0.196158
0.195922
0.195676
0.195448
0.195181
0.194834
0.194519
0.194231
0.193896
0.193438
0.193031
0.19265
0.192293
0.191832
0.191212
0.190706
0.190258
0.18982
0.189298
0.188828
0.18848
0.187979
0.187387
0.186544
0.186039
0.185602
0.185307
0.185094
0.18553
0.184738
0.189693
0.27452
0.8583
0.999966
1.00636
1.0093
1.01213
1.01265
1.02306
1.0432
1.08676
1.18056
1.43242
1.63465
1.76571
1.78521
1.77877
1.77243
1.76758
1.76481
1.76358
1.76239
1.76104
1.75899
1.75732
1.75456
1.75208
1.74868
1.74474
1.74119
1.73809
1.73888
1.74145
1.74527
1.75158
1.75819
1.76659
1.77324
1.77973
1.78547
1.78948
1.79409
1.7964
1.79738
1.79698
1.79544
1.79322
1.79027
1.78725
1.78202
1.77742
1.77273
1.76859
1.76399
1.75951
1.75452
1.74682
1.73935
1.73037
1.71781
1.70159
1.67911
1.64842
1.60954
1.57039
1.54673
1.52722
1.519
1.5203
1.52848
1.54324
1.56354
1.5853
1.60872
1.63139
1.65187
1.66723
1.68692
1.70082
1.71494
0.196494
0.197338
0.19716
0.197098
0.196993
0.196864
0.196727
0.196566
0.196374
0.196182
0.195951
0.195701
0.195469
0.195198
0.194838
0.194516
0.194224
0.193885
0.193395
0.192949
0.192515
0.19219
0.191748
0.191165
0.19047
0.189905
0.189385
0.188873
0.188406
0.188132
0.187587
0.186953
0.185952
0.185543
0.18535
0.185373
0.185476
0.186025
0.186426
0.191244
0.433696
0.972615
1.01709
1.01268
1.01137
1.01699
1.02129
1.04573
1.09853
1.23959
1.43879
1.66078
1.7718
1.78796
1.77794
1.76981
1.76154
1.75641
1.75327
1.75176
1.75031
1.74912
1.74728
1.74551
1.7429
1.74007
1.73651
1.73183
1.72711
1.72203
1.71775
1.71544
1.71538
1.71755
1.72296
1.7315
1.73996
1.74928
1.75654
1.76341
1.7709
1.7765
1.7807
1.78301
1.78388
1.78304
1.782
1.77932
1.77528
1.77076
1.76603
1.76195
1.75658
1.75181
1.74662
1.73919
1.73172
1.72295
1.71089
1.6955
1.67451
1.64636
1.61115
1.57587
1.55543
1.53702
1.52885
1.52852
1.53422
1.54479
1.56207
1.58046
1.60136
1.62185
1.64252
1.65849
1.67801
1.6933
1.70605
0.196519
0.197358
0.197183
0.197123
0.19702
0.196893
0.196755
0.196598
0.196406
0.196209
0.195984
0.19573
0.195492
0.195221
0.194851
0.194516
0.194212
0.193872
0.193403
0.192878
0.192411
0.192027
0.191662
0.191133
0.190246
0.189556
0.188952
0.188417
0.187931
0.187701
0.18716
0.186492
0.185471
0.184687
0.184377
0.184209
0.18412
0.184489
0.184397
0.187617
0.62012
1.01281
1.02936
1.02075
1.0203
1.02562
1.04505
1.10256
1.23164
1.47417
1.67473
1.7795
1.79091
1.77725
1.76749
1.75745
1.75005
1.74517
1.74211
1.74015
1.73852
1.73702
1.73517
1.73302
1.73029
1.72706
1.72342
1.7189
1.71406
1.7084
1.70303
1.69864
1.69483
1.69334
1.69605
1.70059
1.70829
1.71808
1.72798
1.73808
1.74793
1.75631
1.76315
1.76743
1.77079
1.77177
1.77246
1.77002
1.76744
1.76268
1.75808
1.75411
1.74818
1.74323
1.73804
1.73097
1.72353
1.71536
1.70423
1.69044
1.67171
1.64654
1.61375
1.58049
1.55837
1.54132
1.53419
1.5334
1.53813
1.54715
1.56161
1.57675
1.59441
1.61305
1.63285
1.64951
1.66965
1.68606
1.69946
0.196546
0.197379
0.197208
0.197149
0.197048
0.196925
0.196785
0.196632
0.196442
0.196241
0.196022
0.195764
0.195518
0.195246
0.194878
0.194527
0.1942
0.193871
0.193416
0.192827
0.192333
0.19186
0.191544
0.191
0.190142
0.189234
0.188522
0.187955
0.187413
0.187161
0.186642
0.185894
0.185072
0.183869
0.183297
0.182863
0.18242
0.181667
0.18064
0.181078
0.694647
1.02437
1.03524
1.03096
1.03344
1.05315
1.10465
1.26331
1.48038
1.68979
1.78419
1.79197
1.77624
1.7658
1.75479
1.7466
1.74052
1.73638
1.73359
1.73154
1.72986
1.72805
1.72619
1.7235
1.7206
1.71704
1.71322
1.70826
1.70344
1.6975
1.69164
1.68612
1.67977
1.67595
1.67445
1.67546
1.67993
1.6867
1.69632
1.70628
1.71757
1.72754
1.73728
1.74534
1.75117
1.75381
1.75682
1.75596
1.75549
1.75197
1.74888
1.74543
1.7398
1.7348
1.72962
1.72297
1.71563
1.7078
1.69715
1.684
1.66587
1.642
1.61276
1.58377
1.56475
1.54873
1.54099
1.5386
1.5412
1.54672
1.55851
1.57138
1.58772
1.60482
1.62346
1.64028
1.66129
1.67764
1.68996
0.196574
0.197403
0.197234
0.197178
0.19708
0.19696
0.19682
0.196669
0.196482
0.19628
0.196064
0.195805
0.195551
0.195276
0.194917
0.194546
0.194194
0.193892
0.193457
0.192798
0.192268
0.19174
0.191409
0.190857
0.190065
0.188963
0.188144
0.187485
0.18689
0.186423
0.185993
0.185187
0.184363
0.183204
0.182222
0.181745
0.181784
0.180982
0.182989
0.213689
0.828019
1.02762
1.02972
1.03341
1.05048
1.12184
1.25429
1.51551
1.70574
1.78804
1.79222
1.7736
1.76257
1.75007
1.7408
1.73378
1.72877
1.72495
1.72249
1.7205
1.71901
1.71734
1.71583
1.71321
1.71075
1.70753
1.70406
1.6992
1.69431
1.68869
1.68264
1.67669
1.66949
1.66367
1.65858
1.65608
1.65684
1.6607
1.66819
1.67673
1.68881
1.70088
1.71347
1.72465
1.73265
1.73828
1.74215
1.74335
1.74434
1.74178
1.73974
1.73533
1.73006
1.72468
1.71958
1.71368
1.7064
1.69919
1.68959
1.6778
1.66216
1.64142
1.61419
1.5862
1.56583
1.55042
1.54342
1.54075
1.54215
1.54751
1.5569
1.56739
1.58084
1.5961
1.6139
1.63107
1.6527
1.6697
1.68337
0.196606
0.197428
0.197263
0.19721
0.197114
0.196997
0.196861
0.196708
0.196524
0.196325
0.196111
0.195852
0.19559
0.195316
0.194966
0.194576
0.194201
0.193899
0.193465
0.192809
0.192225
0.191653
0.191248
0.190734
0.189994
0.188784
0.187839
0.186986
0.186234
0.18553
0.185115
0.184381
0.183469
0.182557
0.181442
0.180774
0.181219
0.181061
0.185396
0.333468
0.930273
1.026
1.02506
1.05729
1.11576
1.3046
1.52293
1.72454
1.78975
1.78992
1.76995
1.75799