/*--------------------------------*- C++ -*----------------------------------*\
| =========                 |                                                 |
| \\      /  F ield         | OpenFOAM: The Open Source CFD Toolbox           |
|  \\    /   O peration     | Version:  2.2.x                                 |
|   \\  /    A nd           | Web:      www.OpenFOAM.org                      |
|    \\/     M anipulation  |                                                 |
\*---------------------------------------------------------------------------*/
FoamFile
{
    version     2.0;
    format      ascii;
    class       volScalarField;
    location    "2.75";
    object      rho;
}
// * * * * * * * * * * * * * * * * * * * * * * * * * * * * * * * * * * * * * //

dimensions      [1 -3 0 0 0 0 0];

internalField   nonuniform List<scalar> 
14161
(
0.996784
0.997405
0.997273
0.997204
0.997113
0.997016
0.996882
0.996728
0.996574
0.996424
0.99625
0.996072
0.995879
0.995685
0.995533
0.995373
0.995194
0.995013
0.994783
0.994636
0.994548
0.994505
0.994459
0.99441
0.994399
0.994427
0.994486
0.994585
0.994714
0.994891
0.995085
0.995315
0.995755
0.996299
0.996783
0.997119
0.997339
0.998121
0.999733
1.0009
1.00157
1.00208
1.00212
1.23596
2.44093
2.72679
2.6981
2.66876
2.63289
2.59716
2.56964
2.53963
2.50972
2.4799
2.45208
2.42183
2.39541
2.37304
2.35533
2.34076
2.32852
2.31864
2.30959
2.30162
2.29492
2.28901
2.28506
2.28244
2.27995
2.27829
2.27694
2.27589
2.27632
2.27865
2.28207
2.28528
2.28724
2.28739
2.28949
2.28942
2.28814
2.28742
2.28004
2.27962
2.28195
2.28199
2.26978
2.26525
2.25861
2.24698
2.24153
2.23575
2.2271
2.22259
2.2137
2.20514
2.19901
2.1996
2.20643
2.1682
2.14235
2.11949
2.07786
2.02928
1.97379
1.94985
1.94602
1.94795
1.95253
1.97223
2.0792
2.23064
2.52731
2.76252
2.91139
3.0632
3.13991
3.20553
3.27818
0.996787
0.997412
0.997286
0.997236
0.997136
0.997002
0.996866
0.996751
0.9966
0.996423
0.996254
0.996092
0.995897
0.995702
0.995548
0.995389
0.995217
0.995033
0.994798
0.994651
0.994564
0.994519
0.994473
0.994426
0.994413
0.994441
0.9945
0.994596
0.994725
0.994896
0.995094
0.995317
0.995705
0.996277
0.99677
0.997059
0.997307
0.998065
0.999656
1.00085
1.00152
1.00184
1.0022
1.21163
2.43524
2.74483
2.71287
2.68352
2.64958
2.61587
2.5879
2.55676
2.52701
2.49491
2.46443
2.43496
2.40989
2.38688
2.36776
2.35178
2.33853
2.32757
2.31673
2.30739
2.29908
2.29239
2.28777
2.28509
2.28333
2.28198
2.28112
2.28105
2.28188
2.28553
2.28999
2.29394
2.29761
2.29834
2.30165
2.30311
2.30047
2.29887
2.2907
2.28734
2.28717
2.28599
2.27346
2.26827
2.26208
2.25017
2.2453
2.24052
2.23347
2.22974
2.2221
2.21464
2.20943
2.20947
2.21529
2.17701
2.15761
2.13206
2.08051
2.03788
1.98799
1.96331
1.95851
1.96351
1.98617
2.08854
2.33194
2.58065
2.7386
2.80624
2.86112
2.93051
3.02076
3.11974
3.23246
0.996781
0.997405
0.997274
0.997215
0.997129
0.997033
0.996892
0.996718
0.996564
0.996434
0.996265
0.996068
0.995877
0.995699
0.995541
0.995379
0.995208
0.995016
0.994792
0.994639
0.994547
0.994499
0.994457
0.994413
0.994404
0.994427
0.99448
0.994572
0.994694
0.994863
0.995081
0.995328
0.995663
0.996212
0.996704
0.997032
0.99727
0.997989
0.999475
1.0007
1.00111
1.00151
1.00206
1.20312
2.43712
2.75104
2.71576
2.68506
2.65081
2.61354
2.57745
2.54368
2.51084
2.47849
2.44791
2.42142
2.39868
2.37886
2.3621
2.34878
2.33656
2.32526
2.31541
2.30788
2.30115
2.29574
2.29228
2.28916
2.28776
2.28742
2.28759
2.28798
2.28949
2.29442
2.29907
2.30293
2.30585
2.30565
2.30677
2.30759
2.30335
2.30133
2.29417
2.29109
2.2908
2.28925
2.27749
2.27349
2.26862
2.2574
2.25278
2.2479
2.24093
2.23649
2.22887
2.22064
2.21532
2.21547
2.21978
2.18214
2.16282
2.13427
2.08455
2.0461
1.99704
1.97213
1.9727
1.99261
2.12298
2.37342
2.65489
2.79923
2.874
2.87819
2.87976
2.89793
2.94902
3.04893
3.14757
0.996782
0.997407
0.99728
0.99723
0.997129
0.996994
0.99686
0.996747
0.996592
0.996408
0.996237
0.996081
0.995896
0.995701
0.995526
0.995367
0.995206
0.995022
0.994798
0.99463
0.994534
0.994483
0.994439
0.994401
0.994391
0.994407
0.994455
0.994539
0.994655
0.994809
0.994961
0.995195
0.995566
0.996046
0.996521
0.99686
0.99716
0.997851
0.999212
1.00038
1.00132
1.00166
1.0019
1.19749
2.41408
2.73263
2.69591
2.67076
2.64138
2.60845
2.57795
2.54494
2.51505
2.48154
2.45061
2.42224
2.39911
2.37644
2.35692
2.34366
2.3329
2.32419
2.31633
2.30983
2.30409
2.29858
2.29374
2.28968
2.28622
2.28403
2.28302
2.28301
2.28347
2.28774
2.29212
2.29564
2.29762
2.29571
2.29717
2.29947
2.29379
2.29204
2.28699
2.28452
2.28384
2.282
2.27208
2.26892
2.26549
2.25445
2.2509
2.24711
2.24174
2.23807
2.23264
2.22229
2.2183
2.21897
2.22247
2.18395
2.16449
2.13396
2.09584
2.05789
2.00065
1.98645
2.01242
2.17101
2.44385
2.71295
2.82503
2.88392
2.90439
2.90921
2.88056
2.88048
2.90872
3.01283
3.09139
0.996779
0.997406
0.997271
0.997192
0.997104
0.997022
0.996889
0.996719
0.996566
0.996435
0.996266
0.996064
0.995876
0.9957
0.995528
0.995365
0.995208
0.995025
0.99481
0.994625
0.994518
0.994458
0.994429
0.994403
0.994385
0.994393
0.994433
0.9945
0.99459
0.994747
0.994951
0.995153
0.995394
0.995811
0.996297
0.996701
0.996991
0.997499
0.998532
0.999848
1.00074
1.00116
1.00163
1.18429
2.40617
2.73502
2.70451
2.67705
2.6457
2.60725
2.56915
2.53047
2.49928
2.4688
2.43993
2.41596
2.39319
2.37066
2.34818
2.33117
2.31584
2.30254
2.28986
2.27861
2.26974
2.2627
2.25632
2.2515
2.24789
2.24552
2.24409
2.24363
2.244
2.24664
2.25063
2.25347
2.25584
2.25363
2.25511
2.25889
2.25311
2.25271
2.25049
2.24889
2.24811
2.24598
2.23874
2.23584
2.23268
2.22228
2.21978
2.21622
2.21182
2.20807
2.20387
2.1952
2.19282
2.19345
2.19634
2.15682
2.13611
2.11058
2.07336
2.03082
1.98117
2.00441
2.17717
2.48175
2.68767
2.77063
2.81463
2.86816
2.8953
2.91279
2.89466
2.8604
2.87674
2.97372
3.06083
0.996783
0.997404
0.997278
0.997229
0.997128
0.996991
0.996858
0.996745
0.996592
0.99641
0.996238
0.996077
0.995895
0.995708
0.995515
0.995361
0.99521
0.99503
0.994817
0.994609
0.994488
0.994414
0.994387
0.994372
0.994352
0.994343
0.994362
0.994414
0.994505
0.994631
0.994781
0.99497
0.995201
0.995493
0.995897
0.996375
0.996841
0.997279
0.997973
0.999056
1.00028
1.001
1.00186
1.15904
2.38495
2.73909
2.70825
2.6751
2.64316
2.60072
2.56215
2.52187
2.4844
2.4425
2.39735
2.36659
2.33637
2.31446
2.29512
2.28073
2.26784
2.25635
2.24639
2.23798
2.22954
2.22226
2.21686
2.21328
2.21094
2.20973
2.20959
2.20949
2.20977
2.21189
2.21597
2.21923
2.2203
2.2167
2.21751
2.22065
2.21454
2.21259
2.21043
2.208
2.20585
2.20183
2.19644
2.19305
2.19038
2.18049
2.17854
2.17425
2.17248
2.17048
2.16763
2.16079
2.15754
2.15783
2.15887
2.11819
2.09702
2.07216
2.03613
1.9886
1.99165
2.17152
2.47807
2.65561
2.77466
2.76177
2.78399
2.83722
2.88073
2.90778
2.89408
2.8607
2.86694
2.94909
3.0388
0.996785
0.997408
0.997275
0.997213
0.997123
0.997025
0.996892
0.996726
0.99657
0.996432
0.996268
0.996073
0.99589
0.995706
0.9955
0.99534
0.995199
0.995028
0.994826
0.994606
0.994459
0.994373
0.994346
0.994348
0.994338
0.994314
0.994307
0.994324
0.994378
0.994507
0.994669
0.994831
0.995009
0.995178
0.99546
0.995928
0.996419
0.996906
0.997271
0.997973
0.999057
1.00075
1.00196
1.19579
2.37408
2.68461
2.65437
2.62553
2.58989
2.54541
2.50034
2.46128
2.4308
2.39705
2.36754
2.33828
2.31122
2.29643
2.26692
2.25349
2.2442
2.23506
2.22874
2.22213
2.21386
2.2069
2.20118
2.19706
2.19569
2.19555
2.19629
2.19689
2.19711
2.19856
2.20163
2.20406
2.20639
2.20571
2.20124
2.20237
2.20085
2.19647
2.19298
2.19114
2.18864
2.18195
2.17683
2.17198
2.16873
2.15923
2.15613
2.1491
2.14641
2.14263
2.13741
2.12773
2.12209
2.12215
2.12083
2.0798
2.06353
2.04535
2.00778
2.01341
2.17229
2.48248
2.67181
2.66824
2.6936
2.72495
2.75769
2.80753
2.86491
2.90243
2.89272
2.86054
2.85623
2.92175
3.01679
0.996789
0.997406
0.997274
0.997214
0.997123
0.997018
0.996882
0.996743
0.996589
0.996422
0.996251
0.996074
0.995888
0.9957
0.995487
0.995325
0.995179
0.995014
0.994826
0.994603
0.994416
0.99431
0.99427
0.99428
0.994301
0.994276
0.994225
0.994221
0.994239
0.994312
0.994435
0.994605
0.994755
0.994868
0.995002
0.99528
0.995735
0.996189
0.996537
0.996867
0.997461
0.998653
1.00022
1.13326
2.34675
2.72643
2.68562
2.65365
2.61487
2.55519
2.50969
2.47286
2.43107
2.38811
2.36142
2.33164
2.30935
2.29893
2.25744
2.24748
2.2416
2.24155
2.24168
2.23347
2.22198
2.21502
2.20975
2.20447
2.20346
2.20415
2.20664
2.20743
2.2085
2.20943
2.21036
2.21113
2.2133
2.21235
2.20855
2.20717
2.206
2.20309
2.19833
2.19591
2.19279
2.18503
2.17932
2.17346
2.16849
2.15807
2.15386
2.14534
2.14077
2.13765
2.13028
2.12134
2.11608
2.11475
2.11252
2.08054
2.0699
2.05118
2.05325
2.2191
2.47826
2.60261
2.70758
2.66652
2.66013
2.68326
2.71872
2.77614
2.84548
2.8923
2.88776
2.85826
2.84395
2.90358
2.99489
0.996794
0.997409
0.99728
0.997229
0.99713
0.997001
0.996869
0.996738
0.996585
0.996424
0.996255
0.996071
0.995886
0.995698
0.99548
0.995307
0.995154
0.994998
0.994819
0.994611
0.994383
0.994252
0.9942
0.994206
0.994245
0.99423
0.99414
0.994084
0.994099
0.99416
0.994239
0.994334
0.994443
0.994516
0.994571
0.994627
0.994783
0.994989
0.995142
0.995379
0.995532
0.996044
0.996691
1.1029
2.26918
2.64816
2.57546
2.55987
2.54398
2.49426
2.47715
2.45367
2.40785
2.38411
2.37108
2.34743
2.32441
2.32887
2.27254
2.27311
2.25936
2.25768
2.25772
2.2545
2.23942
2.23678
2.23658
2.23013
2.23095
2.23247
2.234
2.23449
2.23522
2.23705
2.23821
2.24118
2.24372
2.246
2.24294
2.23983
2.23574
2.23578
2.23149
2.22735
2.22348
2.2166
2.20644
2.20093
2.1948
2.18192
2.17584
2.16734
2.16092
2.15621
2.14907
2.13799
2.13543
2.13765
2.13831
2.11188
2.10742
2.12168
2.29145
2.53097
2.7177
2.63544
2.63732
2.61947
2.6238
2.64708
2.69045
2.75258
2.8263
2.88091
2.88115
2.85461
2.83555
2.88559
2.97642
0.9968
0.997416
0.997279
0.997205
0.997114
0.997022
0.996892
0.996726
0.996565
0.996418
0.996258
0.996073
0.995884
0.995693
0.995474
0.995286
0.99513
0.994981
0.994809
0.994609
0.994352
0.994188
0.994116
0.994105
0.994134
0.994146
0.994068
0.993919
0.993897
0.993916
0.993987
0.994046
0.994066
0.994068
0.99404
0.993909
0.993778
0.993645
0.993557
0.993325
0.992913
0.992152
0.991723
1.0034
1.83539
2.63238
2.56891
2.5506
2.54657
2.49379
2.48481
2.47091
2.40408
2.39993
2.38698
2.33613
2.32448
2.34877
2.27722
2.28228
2.26929
2.25202
2.24954
2.24753
2.2372
2.23796
2.23696
2.23309
2.23445
2.23554
2.23706
2.23837
2.24068
2.2432
2.2473
2.25189
2.25935
2.26099
2.25782
2.25833
2.25656
2.25717
2.25385
2.25254
2.25153
2.24754
2.23929
2.23451
2.22985
2.21793
2.21336
2.20701
2.2002
2.19949
2.19681
2.18908
2.19178
2.19514
2.20173
2.18862
2.23169
2.42715
2.63561
2.79015
2.76259
2.70333
2.60766
2.59037
2.57668
2.60087
2.65422
2.72696
2.8052
2.86739
2.8728
2.85009
2.82669
2.86929
2.95796
0.996807
0.997415
0.997283
0.99723
0.997136
0.997013
0.996881
0.996746
0.996587
0.996409
0.996238
0.996069
0.995883
0.995688
0.995469
0.995263
0.9951
0.994955
0.994794
0.994598
0.994328
0.994128
0.994034
0.994004
0.99401
0.99404
0.993974
0.993766
0.993683
0.993679
0.993686
0.993696
0.993721
0.993679
0.993563
0.993273
0.992806
0.992403
0.991871
0.990939
0.989188
0.986849
0.981416
0.985433
1.43307
2.41461
2.47382
2.52228
2.54215
2.47359
2.45499
2.42451
2.37371
2.36426
2.30908
2.31781
2.27042
2.29643
2.25764
2.23589
2.2315
2.20945
2.20927
2.21542
2.20176
2.19921
2.20117
2.19808
2.19873
2.19904
2.20123
2.20296
2.20476
2.21007
2.21472
2.22082
2.22689
2.23759
2.23497
2.23608
2.23684
2.23866
2.23786
2.23894
2.24082
2.2392
2.23464
2.23187
2.23074
2.2265
2.22467
2.22193
2.22373
2.22656
2.23111
2.22874
2.23857
2.25529
2.28664
2.37245
2.56816
2.76531
2.92554
2.83645
2.70569
2.63019
2.5793
2.56335
2.55621
2.57875
2.63206
2.70467
2.78706
2.85383
2.86425
2.84471
2.81949
2.85659
2.94257
0.996814
0.99742
0.997288
0.997232
0.997135
0.997024
0.996892
0.996741
0.99658
0.996417
0.996255
0.996075
0.995882
0.995682
0.995464
0.995239
0.995069
0.994928
0.99478
0.994587
0.994307
0.994073
0.993955
0.993898
0.993882
0.9939
0.993849
0.993611
0.993415
0.993378
0.993352
0.993318
0.993262
0.993256
0.993163
0.992809
0.992165
0.9913
0.990447
0.98899
0.986699
0.983674
0.979944
1.02366
1.52183
2.14887
2.19197
2.28378
2.45161
2.4145
2.40655
2.35762
2.30091
2.2933
2.23512
2.26966
2.21613
2.20637
2.20352
2.17983
2.17697
2.15542
2.15109
2.15487
2.14306
2.14213
2.14551
2.14303
2.14438
2.14323
2.14474
2.14705
2.14733
2.1525
2.16328
2.16816
2.17036
2.18703
2.18447
2.18591
2.1892
2.19469
2.19785
2.20315
2.21301
2.21306
2.2139
2.21416
2.21612
2.2148
2.21698
2.21859
2.22574
2.23961
2.25471
2.27816
2.32392
2.40042
2.5374
2.7073
2.88412
2.97113
2.89272
2.83382
2.73235
2.63055
2.53943
2.5208
2.52032
2.55002
2.60728
2.68695
2.76974
2.84017
2.85541
2.83917
2.81313
2.84629
2.92826
0.996823
0.99743
0.997295
0.997225
0.997131
0.997025
0.996898
0.996752
0.996588
0.996416
0.996253
0.996083
0.995887
0.995675
0.995461
0.995227
0.995042
0.994901
0.994756
0.994568
0.994281
0.994021
0.993877
0.99379
0.993746
0.993749
0.993709
0.993475
0.993163
0.993075
0.993026
0.992964
0.992886
0.992797
0.992777
0.992603
0.992129
0.991456
0.990729
0.989673
0.989499
0.9889
0.993155
1.23531
1.76797
1.95496
2.01757
2.12577
2.2895
2.32816
2.32306
2.31854
2.2577
2.28912
2.22883
2.24944
2.2097
2.17751
2.18039
2.16095
2.15104
2.14353
2.12939
2.12934
2.1182
2.11899
2.11711
2.11319
2.11592
2.11389
2.11548
2.1179
2.11643
2.11963
2.13205
2.134
2.13315
2.14741
2.14384
2.14417
2.14519
2.14955
2.15293
2.1589
2.16934
2.17193
2.17636
2.18186
2.19041
2.19994
2.21268
2.22949
2.25854
2.30695
2.35832
2.44967
2.56953
2.71467
2.84498
2.95644
2.98447
2.94715
2.85243
2.77698
2.692
2.6121
2.54443
2.51495
2.5159
2.53757
2.59405
2.67066
2.75445
2.82765
2.84674
2.83311
2.80787
2.83702
2.91639
0.996832
0.997429
0.997296
0.997238
0.997148
0.997032
0.996902
0.996759
0.996595
0.996416
0.996247
0.996081
0.995882
0.995664
0.995458
0.995224
0.99502
0.994868
0.994721
0.994534
0.994247
0.993966
0.993798
0.993683
0.993612
0.993575
0.99352
0.993328
0.992911
0.992747
0.992683
0.992607
0.99253
0.992439
0.992443
0.992365
0.992031
0.99145
0.990413
0.989632
0.989678
0.988703
0.995923
1.52291
1.92119
1.94567
1.97973
2.07107
2.20966
2.3824
2.39528
2.38225
2.30496
2.33091
2.27384
2.26873
2.21549
2.17153
2.16955
2.16882
2.13281
2.13131
2.11855
2.11663
2.11267
2.10824
2.10467
2.10193
2.10403
2.10008
2.10272
2.10444
2.10301
2.10474
2.12032
2.11756
2.11843
2.13159
2.13132
2.13298
2.13386
2.14134
2.14737
2.15682
2.16994
2.18075
2.1945
2.21225
2.23389
2.26856
2.30929
2.36788
2.44895
2.55016
2.6425
2.7385
2.84271
2.91877
2.99551
2.98697
2.94682
2.89972
2.81252
2.74149
2.67589
2.60154
2.53297
2.50069
2.50411
2.52978
2.58432
2.66
2.74127
2.81586
2.83833
2.82748
2.80319
2.82856
2.90533
0.996843
0.997438
0.997304
0.997249
0.997153
0.99704
0.996911
0.996766
0.9966
0.996418
0.996246
0.996083
0.995885
0.995656
0.995448
0.995219
0.994994
0.994832
0.994682
0.994492
0.994199
0.993909
0.99372
0.99357
0.993472
0.993403
0.993321
0.993152
0.992713
0.992447
0.992355
0.992289
0.992226
0.992185
0.992201
0.992162
0.991952
0.991425
0.990569
0.989692
0.988539
0.986587
1.02276
1.73865
1.9813
1.9725
1.97394
1.99432
2.04466
2.23468
2.39475
2.38127
2.35422
2.34592
2.27305
2.26975
2.18585
2.17529
2.17703
2.14792
2.13283
2.12995
2.11369
2.11466
2.11264
2.10962
2.10685
2.10499
2.10677
2.10319
2.10531
2.10809
2.10993
2.11276
2.12763
2.12758
2.13423
2.14546
2.14961
2.16079
2.16973
2.18888
2.20407
2.22806
2.25721
2.29092
2.3315
2.38602
2.44579
2.52499
2.59384
2.65704
2.72573
2.80385
2.88121
2.92617
2.97524
2.96787
2.96579
2.9575
2.9081
2.86562
2.78732
2.70723
2.65813
2.60297
2.5396
2.50661
2.50856
2.52695
2.57923
2.65039
2.73015
2.80475
2.82973
2.8215
2.79857
2.82056
2.89481
0.996854
0.997446
0.997312
0.997248
0.997161
0.997051
0.996916
0.996773
0.996611
0.996427
0.99625
0.996087
0.99589
0.995652
0.995439
0.995216
0.994975
0.994789
0.994634
0.99444
0.994143
0.993848
0.993652
0.99347
0.993332
0.993223
0.993093
0.992921
0.992538
0.992167
0.992029
0.991962
0.991924
0.991911
0.991926
0.991975
0.991915
0.991759
0.991771
0.992031
0.992495
0.994575
1.21957
1.91922
2.01474
1.99022
1.97307
1.97576
1.99206
2.05972
2.26595
2.40448
2.42895
2.34509
2.3143
2.27066
2.2035
2.20763
2.16875
2.17534
2.16108
2.15686
2.13693
2.13506
2.12843
2.12391
2.12077
2.1186
2.12152
2.11967
2.12469
2.12755
2.13672
2.14688
2.16883
2.1821
2.20328
2.2222
2.24833
2.27921
2.31152
2.3614
2.40372
2.45624
2.52135
2.57253
2.62006
2.66586
2.71815
2.78064
2.84569
2.89095
2.93645
2.9423
2.95275
2.94557
2.95473
2.94857
2.92934
2.92231
2.88337
2.83817
2.76811
2.70486
2.66153
2.60958
2.54567
2.51328
2.51377
2.53092
2.57704
2.64495
2.72118
2.79475
2.82191
2.81646
2.79382
2.81266
2.88486
0.996865
0.997454
0.997322
0.997265
0.997165
0.99705
0.996923
0.996783
0.996621
0.996435
0.996256
0.996091
0.995895
0.995649
0.99543
0.995211
0.994962
0.99475
0.994584
0.994387
0.994082
0.99378
0.993578
0.993388
0.993194
0.993027
0.992855
0.992665
0.992382
0.991931
0.991729
0.991653
0.99164
0.991652
0.991705
0.991824
0.991939
0.992094
0.992377
0.993164
0.994211
0.997881
1.42667
2.01311
2.04616
2.02087
2.0088
1.98935
1.98556
1.99573
2.08543
2.268
2.36107
2.3824
2.37068
2.25617
2.2364
2.23883
2.1691
2.18897
2.18232
2.17721
2.1636
2.1551
2.15322
2.14982
2.15615
2.16196
2.17892
2.18858
2.21369
2.2294
2.25802
2.28936
2.32129
2.36703
2.40746
2.45907
2.50822
2.55662
2.59998
2.64144
2.6773
2.71816
2.76613
2.81466
2.85953
2.89003
2.92083
2.92556
2.9328
2.93271
2.93671
2.93575
2.93857
2.93086
2.92965
2.92436
2.90632
2.89904
2.86531
2.82389
2.76062
2.69886
2.66483
2.6176
2.55403
2.52218
2.52033
2.53715
2.57764
2.64047
2.71424
2.78568
2.81413
2.81125
2.7886
2.8051
2.87438
0.996878
0.997463
0.99733
0.997267
0.997176
0.997068
0.996934
0.996792
0.996635
0.996446
0.996259
0.996094
0.995901
0.995649
0.995417
0.995202
0.994956
0.994714
0.994521
0.994313
0.994006
0.993696
0.993485
0.993311
0.99311
0.99286
0.992601
0.992373
0.992145
0.991755
0.99144
0.991323
0.991302
0.991309
0.991343
0.991451
0.991474
0.991433
0.990988
0.990811
0.990133
0.993243
1.61516
2.0585
2.07719
2.06183
2.04537
2.02171
2.00633
1.98846
1.99835
2.06032
2.20477
2.34647
2.36638
2.2826
2.26674
2.24991
2.17405
2.21556
2.20097
2.20827
2.1992
2.20512
2.21936
2.22907
2.25485
2.28053
2.31841
2.35537
2.40469
2.45569
2.5086
2.56089
2.60355
2.64631
2.68434
2.72328
2.76434
2.80479
2.83974
2.87283
2.89445
2.91208
2.91771
2.91893
2.92055
2.92249
2.92115
2.92114
2.92428
2.92092
2.92487
2.92194
2.92101
2.91303
2.91167
2.90524
2.88708
2.87905
2.85463
2.81503
2.75898
2.70158
2.66929
2.62662
2.56816
2.536
2.53206
2.54578
2.58104
2.63945
2.70851
2.77728
2.80631
2.80492
2.78311
2.79854
2.86641
0.996891
0.997474
0.997342
0.997283
0.997193
0.99708
0.996944
0.996805
0.996651
0.996458
0.996264
0.996095
0.995905
0.995653
0.995402
0.995189
0.994951
0.994689
0.994464
0.994237
0.993923
0.993594
0.993367
0.99319
0.992995
0.992703
0.992361
0.992112
0.991879
0.991603
0.991205
0.990981
0.990911
0.9909
0.990912
0.990961
0.990859
0.990413
0.98957
0.988093
0.985697
1.00631
1.77661
2.08015
2.08769
2.07873
2.06411
2.04255
2.02607
1.99827
1.98047
1.98947
2.04664
2.20259
2.37898
2.31596
2.31227
2.22673
2.2515
2.26589
2.26946
2.309
2.31431
2.33041
2.39466
2.43483
2.49136
2.53538
2.58085
2.62239
2.66333
2.70144
2.73874
2.77845
2.81019
2.84342
2.86905
2.88611
2.90113
2.91423
2.92181
2.92458
2.92613
2.92367
2.92015
2.91548
2.91263
2.91235
2.91126
2.91068
2.91172
2.90548
2.91191
2.9105
2.9074
2.89718
2.89505
2.89256
2.8785
2.86999
2.84674
2.81339
2.76017
2.70813
2.67859
2.63412
2.57544
2.54384
2.54004
2.55294
2.58486
2.63967
2.70433
2.7691
2.79827
2.79718
2.77731
2.79263
2.85766
0.996905
0.997485
0.997353
0.997299
0.997205
0.997092
0.996957
0.996818
0.996668
0.996473
0.99627
0.996097
0.99591
0.995659
0.995393
0.995174
0.994945
0.994673
0.99441
0.994162
0.993842
0.993478
0.993229
0.993041
0.99285
0.992536
0.992107
0.991837
0.991603
0.991379
0.991065
0.990681
0.990475
0.990404
0.990403
0.990462
0.990493
0.990427
0.990237
0.990158
0.990595
1.14909
1.92705
2.09568
2.09103
2.08452
2.0721
2.05622
2.04551
2.02618
2.00617
1.9832
1.98883
2.09869
2.29057
2.43216
2.40139
2.32398
2.42094
2.44188
2.47284
2.552
2.58856
2.62917
2.68467
2.72099
2.75804
2.79929
2.82587
2.84462
2.86416
2.88312
2.8863
2.88639
2.88853
2.89424
2.90388
2.90704
2.91015
2.91455
2.91734
2.91742
2.91683
2.91535
2.91336
2.90745
2.89909
2.8965
2.89753
2.89777
2.89958
2.89562
2.89921
2.89761
2.89564
2.88682
2.88455
2.88208
2.86976
2.86023
2.84202
2.80927
2.7601
2.70997
2.68357
2.64278
2.58506
2.55344
2.54932
2.56136
2.59103
2.64126
2.69925
2.76074
2.79024
2.79055
2.77104
2.78699
2.84984
0.99692
0.997497
0.997366
0.997305
0.997217
0.997109
0.996972
0.996828
0.996684
0.996493
0.99628
0.996103
0.995917
0.995667
0.995387
0.995159
0.994932
0.994655
0.994359
0.99409
0.993773
0.993362
0.993069
0.992857
0.992672
0.992364
0.991842
0.991515
0.991293
0.9911
0.990867
0.990459
0.990022
0.989877
0.989864
0.989875
0.99001
0.990228
0.990532
0.990983
0.992843
1.32916
2.03067
2.09512
2.08584
2.08234
2.07732
2.07096
2.06606
2.05758
2.04433
2.02308
2.03083
2.11849
2.28196
2.49431
2.57644
2.59158
2.64936
2.68691
2.72768
2.77373
2.79408
2.80972
2.82738
2.84845
2.87248
2.89117
2.90209
2.90785
2.91419
2.91589
2.91416
2.90879
2.90534
2.90084
2.90133
2.90101
2.90576
2.90822
2.90845
2.90765
2.90711
2.90573
2.90504
2.90074
2.89319
2.88744
2.88927
2.89008
2.8906
2.88482
2.8879
2.88755
2.88508
2.8766
2.87493
2.87421
2.8651
2.85623
2.83916
2.80959
2.76335
2.71547
2.68959
2.65758
2.59858
2.56557
2.5606
2.56818
2.59348
2.64011
2.69311
2.75189
2.78235
2.78365
2.76439
2.78169
2.84114
0.996935
0.997509
0.99738
0.997325
0.997231
0.997123
0.996988
0.996839
0.996697
0.996513
0.996294
0.996111
0.995926
0.995674
0.995384
0.995149
0.994919
0.994632
0.994308
0.994022
0.993713
0.993273
0.99291
0.992678
0.992483
0.992179
0.991608
0.99118
0.990942
0.990764
0.990545
0.990212
0.989603
0.98918
0.989028
0.989002
0.989062
0.9892
0.989645
0.990132
0.991046
1.50026
2.08731
2.11482
2.10568
2.10442
2.09952
2.09334
2.08818
2.08346
2.08698
2.08497
2.10553
2.26435
2.47596
2.72318
2.76139
2.76318
2.7744
2.80644
2.83022
2.84426
2.84775
2.85058
2.85981
2.87046
2.87972
2.8865
2.89302
2.89865
2.90632
2.90837
2.9079
2.90476
2.90148
2.89604
2.89261
2.8883
2.89377
2.89433
2.89475
2.89301
2.89281
2.89235
2.89197
2.89105
2.88557
2.87762
2.87965
2.88165
2.88159
2.87746
2.87819
2.87737
2.87585
2.86808
2.86617
2.86619
2.85938
2.85126
2.83606
2.80989
2.76698
2.72149
2.69949
2.66801
2.60923
2.57487
2.56755
2.57557
2.59781
2.63797
2.68537
2.74261
2.7745
2.77667
2.75809
2.77658
2.83347
0.996952
0.997524
0.997395
0.997336
0.997248
0.997145
0.99701
0.996856
0.996711
0.996533
0.996311
0.996124
0.995938
0.995681
0.995383
0.995143
0.994911
0.994606
0.994253
0.993956
0.993652
0.993219
0.99275
0.99246
0.992244
0.99196
0.991426
0.990913
0.990592
0.990365
0.990132
0.989799
0.989204
0.988507
0.98816
0.987832
0.987575
0.987431
0.987374
0.986559
0.989493
1.64961
2.10903
2.13203
2.12929
2.12683
2.12121
2.11516
2.1075
2.10838
2.13089
2.1761
2.25359
2.50932
2.71933
2.81189
2.81825
2.82479
2.83445
2.84761
2.84993
2.85098
2.85171
2.85664
2.8635
2.86497
2.86713
2.86918
2.8737
2.8794
2.89065
2.89585
2.89925
2.89894
2.89694
2.89268
2.88883
2.88419
2.88805
2.88795
2.88964
2.88922
2.88953
2.8896
2.88863
2.88792
2.88277
2.87584
2.87524
2.87526
2.8738
2.86962
2.8688
2.86754
2.86607
2.85889
2.85712
2.8576
2.85234
2.84475
2.83193
2.80986
2.77067
2.72829
2.71161
2.68008
2.6219
2.58553
2.57738
2.5801
2.59803
2.63457
2.67599
2.73294
2.76657
2.76951
2.75147
2.77138
2.82451
0.99697
0.997538
0.997412
0.997354
0.997262
0.997162
0.997036
0.996879
0.99673
0.996556
0.996331
0.996141
0.995954
0.99569
0.995383
0.995142
0.994912
0.994586
0.994192
0.99389
0.993597
0.993203
0.992646
0.992242
0.991969
0.991695
0.991256
0.990742
0.99037
0.990025
0.98961
0.989055
0.988311
0.987797
0.987324
0.98685
0.986193
0.985388
0.984232
0.982377
1.0068
1.80662
2.12015
2.13564
2.13518
2.13316
2.12918
2.13136
2.1304
2.13371
2.18435
2.31759
2.48792
2.75022
2.83088
2.83864
2.83581
2.83312
2.83241
2.83457
2.83472
2.83525
2.83783
2.84424
2.84896
2.84956
2.84693
2.84443
2.84508
2.84904
2.86122
2.86852
2.87611
2.87896
2.87953
2.8781
2.87603
2.87256
2.87559
2.87591
2.87981
2.88144
2.88277
2.88329
2.88273
2.88231
2.87927
2.87328
2.86983
2.86838
2.86594
2.86117
2.85879
2.8569
2.85544
2.84859
2.84717
2.84805
2.84468
2.83857
2.82835
2.81054
2.77625
2.73908
2.7246
2.68951
2.63164
2.59292
2.58186
2.58625
2.60042
2.62982
2.66528
2.72311
2.75848
2.76263
2.74467
2.76617
2.81686
0.996989
0.997554
0.997429
0.997374
0.997283
0.997181
0.997061
0.996905
0.99675
0.99658
0.996355
0.996159
0.995973
0.9957
0.995381
0.995141
0.994916
0.994573
0.994135
0.99382
0.993543
0.993198
0.992629
0.99204
0.991683
0.991399
0.991016
0.990572
0.990233
0.98986
0.989273
0.988196
0.987368
0.986973
0.986742
0.986635
0.98665
0.986676
0.986812
0.987782
1.17353
1.96097
2.11887
2.12214
2.12441
2.12401
2.12445
2.13571
2.16052
2.20424
2.31706
2.56611
2.7574
2.86096
2.85849
2.85161
2.84415
2.83677
2.82902
2.82157
2.81851
2.81812
2.81991
2.82427
2.82617
2.82654
2.82521
2.82363
2.82383
2.82418
2.83003
2.8346
2.84256
2.84747
2.85173
2.85397
2.8559
2.85597
2.85948
2.86049
2.86606
2.86918
2.87207
2.87324
2.87434
2.87405
2.87375
2.86942
2.86309
2.86063
2.8583
2.8536
2.85016
2.848
2.84592
2.83986
2.83835
2.83923
2.83678
2.83151
2.82215
2.80842
2.7782
2.74452
2.73565
2.70081
2.64181
2.60207
2.58971
2.58854
2.59986
2.62466
2.6561
2.71269
2.74963
2.7552
2.73762
2.76077
2.80753
0.997008
0.997571
0.997448
0.997395
0.997306
0.997203
0.997087
0.996935
0.996772
0.996604
0.996383
0.99618
0.995992
0.995715
0.995381
0.995139
0.994918
0.994569
0.99407
0.993726
0.993466
0.993167
0.992697
0.991918
0.991315
0.990919
0.990577
0.990293
0.990117
0.989818
0.989176
0.987719
0.986425
0.986119
0.98609
0.986189
0.986413
0.986877
0.987519
0.989657
1.36757
2.0632
2.12217
2.1181
2.11994
2.12532
2.13342
2.16115
2.22441
2.36819
2.5702
2.7943
2.87511
2.86943
2.85869
2.84961
2.84133
2.83417
2.82671
2.81862
2.81537
2.81255
2.81176
2.81054
2.80861
2.80537
2.80373
2.80258
2.8041
2.80447
2.80695
2.80751
2.80815
2.80915
2.81519
2.82262
2.82987
2.83299
2.8373
2.83929
2.84637
2.85249
2.85812
2.86124
2.86446
2.86528
2.86749
2.86437
2.85842
2.85375
2.85072
2.84565
2.84069
2.8381
2.83531
2.82991
2.82842
2.82926
2.82806
2.82437
2.81755
2.80666
2.78125
2.75265
2.741
2.70781
2.64716
2.60626
2.59296
2.59341
2.60004
2.61886
2.64471
2.70059
2.73997
2.74793
2.73054
2.75552
2.79944
0.99703
0.99759
0.997469
0.997417
0.99733
0.997227
0.997114
0.996967
0.996799
0.99663
0.996415
0.996203
0.996012
0.995738
0.995388
0.995135
0.994917
0.994587
0.994033
0.993607
0.993342
0.993104
0.992709
0.991939
0.991009
0.990469
0.990086
0.989888
0.989887
0.989731
0.989128
0.987774
0.985695
0.985072
0.985004
0.985087
0.985289
0.985852
0.985994
0.988367
1.56273
2.12885
2.14632
2.13881
2.1397
2.14598
2.17045
2.23397
2.37272
2.60936
2.80645
2.88661
2.87598
2.86014
2.85063
2.84007
2.8337
2.82677
2.82151
2.81458
2.81182
2.80851
2.80582
2.80109
2.79599
2.78966
2.78706
2.78418
2.78382
2.78308
2.78389
2.78532
2.78646
2.78626
2.78909
2.79164
2.80121
2.80787
2.81466
2.8177
2.82423
2.83132
2.83976
2.84537
2.85111
2.85347
2.85783
2.85627
2.85222
2.84601
2.84333
2.83874
2.83321
2.83051
2.82721
2.82206
2.82002
2.82081
2.82004
2.81703
2.81053
2.8016
2.77928
2.75408
2.74713
2.71675
2.65473
2.61374
2.59902
2.59471
2.5983
2.61257
2.63687
2.69116
2.73031
2.74018
2.72364
2.74961
2.78958
0.997053
0.99761
0.997491
0.997441
0.997357
0.997254
0.997142
0.997
0.99683
0.996661
0.996454
0.996232
0.996035
0.995769
0.995403
0.995133
0.994912
0.994607
0.994047
0.993521
0.993197
0.992986
0.992674
0.992001
0.990791
0.990056
0.989626
0.989464
0.989516
0.989492
0.988951
0.987877
0.985665
0.984121
0.983738
0.98362
0.983494
0.983537
0.98318
0.994052
1.74836
2.15758
2.16354
2.1584
2.16236
2.18402
2.24435
2.40306
2.61388
2.81652
2.89175
2.87923
2.86311
2.84915
2.83865
2.82843
2.8238
2.81807
2.81434
2.8096
2.80717
2.8041
2.80068
2.7952
2.78918
2.78371
2.77952
2.77528
2.7716
2.76617
2.76402
2.76257
2.76315
2.76551
2.76647
2.76833
2.77247
2.77997
2.78946
2.79427
2.79976
2.80608
2.81673
2.82633
2.83488
2.83781
2.84448
2.84561
2.84351
2.83713
2.83499
2.83051
2.82403
2.82095
2.8171
2.8122
2.80988
2.81083
2.8108
2.80904
2.80481
2.79751
2.77909
2.75769
2.7475
2.71835
2.65701
2.61726
2.60174
2.59779
2.59634
2.60544
2.62616
2.67944
2.71971
2.73201
2.71641
2.74305
2.78056
0.997078
0.997632
0.997516
0.997468
0.997386
0.997285
0.997172
0.997035
0.996867
0.996697
0.996497
0.996268
0.996063
0.995808
0.995433
0.99514
0.994912
0.994632
0.994099
0.993476
0.993105
0.992867
0.992592
0.992
0.990739
0.989725
0.989179
0.988925
0.988895
0.98901
0.988653
0.987706
0.986119
0.98354
0.982507
0.982377
0.982309
0.982403
0.98263
1.07609
1.91423
2.15164
2.15398
2.15813
2.17927
2.25168
2.39991
2.65527
2.82276
2.88236
2.8677
2.84835
2.8358
2.82165
2.81301
2.80676
2.8029
2.80047
2.7994
2.7983
2.79734
2.79582
2.79309
2.78829
2.78248
2.77776
2.77336
2.76862
2.76405
2.75699
2.75219
2.74685
2.74406
2.74466
2.74613
2.74754
2.74979
2.75545
2.76397
2.77102
2.77742
2.78256
2.79229
2.80434
2.81588
2.82258
2.82971
2.834
2.83358
2.82823
2.82645
2.82206
2.81599
2.81274
2.80862
2.80388
2.80094
2.80172
2.80199
2.80066
2.79746
2.7915
2.7761
2.75569
2.74879
2.72187
2.66247
2.62333
2.60643
2.59629
2.59209
2.59802
2.61868
2.67045
2.71102
2.72381
2.70843
2.73599
2.76943
0.997105
0.997656
0.997542
0.997497
0.997417
0.99732
0.997206
0.997069
0.996908
0.996741
0.996543
0.996311
0.9961
0.995852
0.995478
0.995159
0.994919
0.994656
0.994173
0.993479
0.993042
0.992773
0.992515
0.991968
0.990803
0.989565
0.988826
0.98836
0.988196
0.988303
0.988141
0.987359
0.986104
0.983826
0.981598
0.981015
0.981028
0.981373
0.982431
1.24142
2.02175
2.14471
2.15275
2.18901
2.2593
2.44822
2.68258
2.85442
2.90138
2.88376
2.86217
2.84698
2.83073
2.81451
2.80346
2.79635
2.78963
2.78446
2.78083
2.78018
2.7803
2.7805
2.77943
2.77697
2.77326
2.76946
2.76612
2.76136
2.75678
2.74995
2.74402
2.73728
2.73264
2.72768
2.7269
2.72809
2.72934
2.7339
2.73774
2.74587
2.75374
2.75857
2.76724
2.7797
2.79443
2.80432
2.81169