/*--------------------------------*- C++ -*----------------------------------*\
| =========                 |                                                 |
| \\      /  F ield         | OpenFOAM: The Open Source CFD Toolbox           |
|  \\    /   O peration     | Version:  2.2.x                                 |
|   \\  /    A nd           | Web:      www.OpenFOAM.org                      |
|    \\/     M anipulation  |                                                 |
\*---------------------------------------------------------------------------*/
FoamFile
{
    version     2.0;
    format      ascii;
    class       surfaceScalarField;
    location    "1.3";
    object      phi;
}
// * * * * * * * * * * * * * * * * * * * * * * * * * * * * * * * * * * * * * //

dimensions      [1 0 -1 0 0 0 0];

internalField   nonuniform List<scalar> 
28084
(
0.000746225
0.000742992
0.000740218
0.000737885
0.000735972
0.000734456
0.000733314
0.000732522
0.000732053
0.000731881
0.000731979
0.00073232
0.000732875
0.00073362
0.000734525
0.000735566
0.000736719
0.000737958
0.000739259
0.000740605
0.000741972
0.000743344
0.000744701
0.000746019
0.000747286
0.000748498
0.00074966
0.000750735
0.000751698
0.000752534
0.00075328
0.000753941
0.000754522
0.000754989
0.000755242
0.00075527
0.000755117
0.000754917
0.000754676
0.000754496
0.000754159
0.000753438
0.000752448
0.000751329
0.000750275
0.00076006
0.000770528
0.000784992
0.000807182
0.000837192
0.000866606
0.000893423
0.000918175
0.000940737
0.000962568
0.000983736
0.00100425
0.00102447
0.00104423
0.00106333
0.001082
0.0010997
0.00111664
0.00113303
0.00114812
0.00116276
0.00117602
0.00118806
0.00120003
0.00121059
0.00122015
0.00122873
0.00123596
0.00124285
0.00125035
0.00125497
0.00125764
0.00125983
0.00126193
0.00126433
0.00126718
0.0012668
0.00126481
0.00126186
0.00125898
0.00125712
0.00125609
0.00125373
0.00124944
0.00124379
0.00123717
0.00123117
0.00122687
0.00122398
0.00121769
0.001208
0.00119573
0.00117935
0.00115475
0.00111545
0.00105531
0.000980397
0.000898029
0.000819237
0.000747991
0.000684806
0.000629758
0.000580963
0.000536269
0.000495023
0.000456625
0.000419252
0.000380034
0.00033768
0.000288967
0.000233242
0.000168266
9.98256e-05
3.71281e-06
3.2359e-06
0.000749742
2.77646e-06
0.000748788
2.33519e-06
0.000748265
1.91545e-06
0.000748155
1.51852e-06
0.00074844
1.14446e-06
0.000749097
7.94792e-07
0.000750103
4.71299e-07
0.000751434
1.7361e-07
0.000753061
-9.6132e-08
0.000754959
-3.38936e-07
0.000757097
-5.54249e-07
0.000759447
-7.43973e-07
0.000761978
-9.05872e-07
0.000764661
-1.04231e-06
0.000767468
-1.15509e-06
0.000770369
-1.2415e-06
0.00077334
-1.30362e-06
0.000776351
-1.34985e-06
0.000779375
-1.37325e-06
0.000782394
-1.37631e-06
0.000785383
-1.35878e-06
0.000788326
-1.32515e-06
0.000791196
-1.28057e-06
0.000793974
-1.22557e-06
0.000796648
-1.15867e-06
0.000799209
-1.07825e-06
0.000801656
-9.82655e-07
0.000803958
-8.78616e-07
0.000806095
-7.72825e-07
0.000808047
-6.61117e-07
0.000809852
-5.39088e-07
0.000811518
-4.1023e-07
0.000813055
-2.7893e-07
0.000814422
-1.45393e-07
0.000815508
-1.44293e-08
0.000816308
1.22412e-07
0.00081689
2.62971e-07
0.00081738
4.06504e-07
0.000817778
5.67356e-07
0.000818219
7.1698e-07
0.000818415
8.59489e-07
0.000818175
9.21909e-07
0.000817645
7.66739e-07
0.000817036
-1.0426e-05
0.000816534
-1.22316e-05
0.000826798
-1.81914e-05
0.000840224
-2.5131e-05
0.000862589
-3.08066e-05
0.000891417
-2.93741e-05
0.000922939
-2.65793e-05
0.000949931
-2.45522e-05
0.000973837
-2.24463e-05
0.000996323
-2.1618e-05
0.00101771
-2.10286e-05
0.00103862
-2.05517e-05
0.00105905
-2.01927e-05
0.00107904
-1.98352e-05
0.00109846
-1.93894e-05
0.00111763
-1.85726e-05
0.00113601
-1.77796e-05
0.00115346
-1.7059e-05
0.00117042
-1.60937e-05
0.00118593
-1.52652e-05
0.00120117
-1.43488e-05
0.00121517
-1.31945e-05
0.00122792
-1.21845e-05
0.00124048
-1.13238e-05
0.00125142
-1.06223e-05
0.00126151
-9.90214e-06
0.00127159
-8.72545e-06
0.00127984
-7.65554e-06
0.00128683
-6.94198e-06
0.00129356
-6.34224e-06
0.00129915
-6.13294e-06
0.00130442
-5.34146e-06
0.00130928
-4.04189e-06
0.00131083
-2.74853e-06
0.001311
-1.90436e-06
0.00131187
-1.34391e-06
0.00131246
-9.67135e-07
0.00131373
3.29085e-07
0.00131299
1.90685e-06
0.00130974
2.8739e-06
0.0013066
2.98648e-06
0.00130379
2.54659e-06
0.0013006
3.24049e-06
0.00129694
4.3896e-06
0.00129185
5.76251e-06
0.00128586
6.5612e-06
0.00128012
6.4597e-06
0.00127257
6.136e-06
0.00126552
6.26166e-06
0.00125968
7.04781e-06
0.00125303
8.69184e-06
0.00124308
1.18994e-05
0.00122897
1.74762e-05
0.00120968
2.65084e-05
0.00118327
4.07189e-05
0.00114567
6.04056e-05
0.00108975
7.5251e-05
0.00100933
8.3238e-05
0.000921452
8.02252e-05
0.000842015
7.14472e-05
0.000770654
6.28571e-05
0.000705653
5.55482e-05
0.000647309
4.92742e-05
0.000596162
4.42778e-05
0.000550068
4.04425e-05
0.000507263
3.78044e-05
0.000467129
3.69802e-05
0.000429211
3.89354e-05
0.000391773
4.21175e-05
0.000352158
4.84713e-05
0.000309254
5.55029e-05
0.000259719
6.48744e-05
0.000205979
6.84908e-05
0.000144811
9.98438e-05
7.78305e-05
5.1138e-06
4.19235e-06
0.000754437
3.30262e-06
0.000755734
2.4472e-06
0.000757432
1.63325e-06
0.000759519
8.64192e-07
0.000761975
1.40708e-07
0.000764779
-5.33419e-07
0.000767908
-1.1543e-06
0.000771338
-1.72206e-06
0.000775038
-2.2324e-06
0.000778982
-2.6869e-06
0.000783138
-3.08405e-06
0.000787475
-3.42684e-06
0.000791959
-3.71254e-06
0.000796562
-3.94516e-06
0.000801249
-4.12823e-06
0.000805992
-4.25478e-06
0.000810758
-4.33044e-06
0.000815523
-4.37357e-06
0.000820256
-4.37025e-06
0.00082493
-4.3218e-06
0.000829522
-4.23204e-06
0.000834017
-4.11421e-06
0.000838389
-3.97075e-06
0.000842613
-3.80127e-06
0.000846676
-3.60671e-06
0.000850569
-3.38559e-06
0.000854293
-3.14161e-06
0.000857813
-2.88044e-06
0.000861109
-2.60894e-06
0.00086416
-2.32414e-06
0.000867013
-2.02649e-06
0.000869674
-1.71595e-06
0.000872159
-1.39812e-06
0.000874412
-1.07977e-06
0.000876324
-7.65664e-07
0.000877899
-4.48104e-07
0.000879207
-1.17607e-07
0.000880375
2.26004e-07
0.000881403
5.94885e-07
0.000882447
9.44515e-07
0.000883167
1.2461e-06
0.000883399
1.3175e-06
0.0008833
9.56167e-07
0.000883057
-2.13885e-05
0.00088299
-2.75674e-05
0.00089344
-4.45774e-05
0.000911155
-5.71121e-05
0.000940332
-6.31211e-05
0.000973089
-5.63395e-05
0.00100261
-5.02358e-05
0.00102863
-4.68608e-05
0.00105062
-4.37041e-05
0.00107122
-4.23184e-05
0.00109142
-4.12786e-05
0.00111134
-4.04604e-05
0.00113101
-3.97215e-05
0.00115032
-3.89669e-05
0.00116918
-3.78036e-05
0.00118761
-3.62352e-05
0.00120529
-3.45449e-05
0.00122184
-3.26867e-05
0.00123767
-3.1172e-05
0.00125234
-2.92462e-05
0.0012662
-2.7203e-05
0.00127904
-2.53707e-05
0.00129063
-2.30774e-05
0.00130171
-2.14452e-05
0.00131223
-2.00295e-05
0.00132126
-1.84197e-05
0.00132993
-1.66262e-05
0.00133746
-1.42372e-05
0.00134363
-1.2563e-05
0.00134977
-1.18642e-05
0.00135444
-1.07397e-05
0.00135788
-9.12558e-06
0.00136227
-6.88907e-06
0.0013648
-4.38665e-06
0.00136502
-2.45039e-06
0.0013647
-1.47106e-06
0.00136373
-2.85325e-07
0.00136244
1.76165e-06
0.00136125
3.94081e-06
0.00135831
6.25359e-06
0.0013543
7.36101e-06
0.00135041
7.40632e-06
0.00134565
8.96432e-06
0.0013392
1.07576e-05
0.00133233
1.22354e-05
0.0013239
1.38654e-05
0.00131538
1.36204e-05
0.00130688
1.36701e-05
0.00129723
1.53417e-05
0.0012863
1.81717e-05
0.00127324
2.28434e-05
0.00125549
3.12934e-05
0.00123036
4.47385e-05
0.00119518
6.5632e-05
0.00114828
9.77299e-05
0.00108185
0.000141081
0.000996275
0.000163522
0.000913061
0.00016348
0.000837315
0.000152777
0.000771266
0.000136716
0.000713674
0.000120908
0.000660994
0.000107123
0.000611923
9.57726e-05
0.000566783
8.65996e-05
0.000524414
7.97743e-05
0.000483615
7.51803e-05
0.000444186
7.40687e-05
0.000405399
7.82871e-05
0.000366493
8.47766e-05
0.000325644
9.77416e-05
0.000282189
0.000109
0.000234525
0.000125929
0.000183756
0.000135535
0.000126798
0.000177688
6.56557e-05
4.23316e-06
2.89821e-06
0.00076031
1.60661e-06
0.000763825
3.63266e-07
0.000767714
-8.20247e-07
0.000771966
-1.93723e-06
0.000776563
-2.98624e-06
0.000781485
-3.96049e-06
0.000786709
-4.85328e-06
0.00079221
-5.66388e-06
0.000797957
-6.38619e-06
0.00080392
-7.02207e-06
0.000810068
-7.5682e-06
0.000816366
-8.02847e-06
0.00082278
-8.40056e-06
0.000829276
-8.68901e-06
0.000835822
-8.89574e-06
0.000842383
-9.02109e-06
0.000848922
-9.06749e-06
0.000855417
-9.05343e-06
0.000861839
-8.96887e-06
0.000868145
-8.81939e-06
0.00087432
-8.60918e-06
0.000880348
-8.35299e-06
0.000886204
-8.05069e-06
0.000891853
-7.70614e-06
0.000897286
-7.32826e-06
0.000902498
-6.91119e-06
0.00090748
-6.46137e-06
0.0009122
-5.98397e-06
0.000916637
-5.49229e-06
0.000920775
-4.97998e-06
0.000924663
-4.45464e-06
0.000928308
-3.90761e-06
0.00093173
-3.3478e-06
0.000934853
-2.79122e-06
0.00093758
-2.24366e-06
0.000939921
-1.69231e-06
0.000941956
-1.12442e-06
0.000943799
-5.36843e-07
0.000945464
8.90825e-08
0.000947082
6.85524e-07
0.000948304
1.18732e-06
0.000949014
1.33675e-06
0.000949366
6.90414e-07
0.00094955
-3.25836e-05
0.000949769
-4.73447e-05
0.000958929
-7.80558e-05
0.000973114
-9.30593e-05
0.000999813
-9.3285e-05
0.00102948
-8.24105e-05
0.00105866
-7.20527e-05
0.0010846
-6.72504e-05
0.00110773
-6.37375e-05
0.00112907
-6.20324e-05
0.00114982
-6.06686e-05
0.00116987
-5.96187e-05
0.00118954
-5.86621e-05
0.00120885
-5.72708e-05
0.00122779
-5.53714e-05
0.00124609
-5.29563e-05
0.00126341
-5.01398e-05
0.00127959
-4.74331e-05
0.00129464
-4.48556e-05
0.0013089
-4.19143e-05
0.0013222
-3.89228e-05
0.0013345
-3.61847e-05
0.00134578
-3.3282e-05
0.0013563
-3.0509e-05
0.00136633
-2.82835e-05
0.0013749
-2.60743e-05
0.00138229
-2.336e-05
0.00138926
-2.03194e-05
0.00139553
-1.7622e-05
0.00140076
-1.59588e-05
0.00140463
-1.46731e-05
0.00140718
-1.21129e-05
0.00140949
-8.95982e-06
0.00141275
-5.55611e-06
0.00141475
-2.4229e-06
0.00141347
-4.0071e-07
0.0014109
1.47715e-06
0.00140828
4.29239e-06
0.00140559
7.63523e-06
0.00140225
1.05337e-05
0.0013982
1.27181e-05
0.00139231
1.44515e-05
0.00138565
1.65232e-05
0.00137756
1.9568e-05
0.00136789
2.13055e-05
0.00135794
2.28098e-05
0.0013475
2.39069e-05
0.00133544
2.59597e-05
0.00131985
2.98437e-05
0.00129985
3.65823e-05
0.00127313
4.82324e-05
0.0012369
6.71113e-05
0.00118807
9.29921e-05
0.00112222
0.000133485
0.00103289
0.000184189
0.000932947
0.000224723
0.000846934
0.000239709
0.000780185
0.000230195
0.000724885
0.000211224
0.000676742
0.000189701
0.000634068
0.000169946
0.000593555
0.000152693
0.000554522
0.000138425
0.000516774
0.000126928
0.000479865
0.0001185
0.00044286
0.000113514
0.000406519
0.000112693
0.00037069
0.000118916
0.000334441
0.000127993
0.000296178
0.000145129
0.000256005
0.000159515
0.000211547
0.000182745
0.000164084
0.000196736
0.000111359
0.000243367
5.63882e-05
1.10456e-06
-6.13827e-07
0.000767364
-2.27997e-06
0.00077306
-3.88592e-06
0.000779104
-5.41514e-06
0.000785487
-6.85674e-06
0.000792193
-8.20799e-06
0.0007992
-9.45854e-06
0.000806488
-1.05983e-05
0.000814028
-1.16251e-05
0.000821791
-1.25318e-05
0.000829744
-1.33188e-05
0.000837855
-1.39817e-05
0.000846086
-1.45247e-05
0.000854401
-1.49466e-05
0.000862764
-1.52504e-05
0.00087114
-1.54365e-05
0.000879492
-1.55187e-05
0.000887783
-1.54929e-05
0.000895985
-1.53655e-05
0.000904064
-1.51498e-05
0.000911983
-1.48496e-05
0.000919722
-1.44725e-05
0.000927267
-1.40192e-05
0.000934579
-1.35023e-05
0.000941631
-1.29256e-05
0.000948413
-1.23076e-05
0.000954928
-1.16383e-05
0.000961155
-1.09259e-05
0.000967059
-1.01767e-05
0.000972615
-9.41079e-06
0.00097783
-8.61783e-06
0.000982744
-7.81348e-06
0.000987363
-6.97403e-06
0.0009917
-6.11862e-06
0.000995655
-5.26943e-06
0.000999188
-4.43778e-06
0.0010023
-3.60405e-06
0.00100506
-2.75143e-06
0.00100757
-1.87687e-06
0.00100991
-9.57004e-07
0.00101206
-7.14195e-08
0.00101372
6.68818e-07
0.00101489
9.2116e-07
0.00101566
1.20688e-07
0.00101609
-4.25236e-05
0.00101627
-6.37275e-05
0.00102388
-0.00010933
0.00103149
-0.000126015
0.00104705
-0.000123072
0.00106731
-0.000108385
0.00109362
-9.5062e-05
0.00111999
-8.83389e-05
0.00114601
-8.42422e-05
0.00117062
-8.18367e-05
0.00119367
-8.00185e-05
0.00121512
-7.8668e-05
0.00123601
-7.74705e-05
0.00125647
-7.53794e-05
0.00127606
-7.25693e-05
0.00129447
-6.91217e-05
0.0013119
-6.5119e-05
0.0013283
-6.15634e-05
0.00134387
-5.79881e-05
0.00135887
-5.4066e-05
0.00137282
-5.0168e-05
0.00138602
-4.63905e-05
0.00139767
-4.29772e-05
0.00140808
-3.90594e-05
0.00141801
-3.5552e-05
0.00142609
-3.2837e-05
0.00143334
-2.96126e-05
0.00143944
-2.57682e-05
0.00144503
-2.21766e-05
0.00145078
-1.9321e-05
0.00145369
-1.71477e-05
0.00145487
-1.45118e-05
0.00145644
-1.06096e-05
0.00145873
-6.27841e-06
0.00146212
-2.24974e-06
0.00146088
1.29142e-06
0.00145731
4.35879e-06
0.00145416
7.96813e-06
0.00145093
1.23566e-05
0.00144657
1.6558e-05
0.00144144
1.95166e-05
0.00143422
2.2849e-05
0.00142445
2.64715e-05
0.00141281
3.0028e-05
0.00140003
3.29187e-05
0.00138688
3.62564e-05
0.00137144
4.0417e-05
0.00135202
4.67074e-05
0.00132505
5.73819e-05
0.0012875
7.35254e-05
0.00123683
9.78175e-05
0.00116864
0.000134122
0.00107535
0.00018366
0.000964111
0.000234197
0.000861079
0.000270755
0.000778607
0.000291922
0.000714628
0.000295349
0.000666629
0.000278742
0.000630132
0.000254217
0.000597135
0.000230411
0.000565099
0.000209178
0.000533252
0.000190897
0.000501419
0.000175618
0.000469389
0.000163417
0.000437029
0.000154011
0.000404087
0.000148809
0.000370647
0.000148683
0.000337093
0.000157005
0.000303263
0.000167967
0.000267885
0.000189347
0.000230117
0.000206734
0.000189291
0.000235314
0.000145627
0.000251723
9.84024e-05
0.000299754
4.89769e-05
-4.23432e-06
-6.30713e-06
0.000775602
-8.32181e-06
0.000783439
-1.02658e-05
0.0007916
-1.2118e-05
0.000800075
-1.38617e-05
0.000808852
-1.54926e-05
0.000817909
-1.69963e-05
0.000827224
-1.83593e-05
0.000836769
-1.95767e-05
0.000846514
-2.06405e-05
0.000856425
-2.15488e-05
0.000866465
-2.22965e-05
0.000876598
-2.28877e-05
0.000886783
-2.33217e-05
0.000896983
-2.36026e-05
0.000907158
-2.37287e-05
0.000917272
-2.37238e-05
0.000927288
-2.35759e-05
0.000937164
-2.32904e-05
0.000946873
-2.28941e-05
0.000956384
-2.23987e-05
0.000965667
-2.17959e-05
0.000974696
-2.10884e-05
0.000983434
-2.03035e-05
0.000991865
-1.94421e-05
0.000999976
-1.85295e-05
0.00100777
-1.75534e-05
0.00101523
-1.65217e-05
0.00102229
-1.545e-05
0.00102895
-1.43536e-05
0.00103522
-1.32282e-05
0.00104114
-1.20819e-05
0.00104673
-1.08974e-05
0.00105195
-9.70375e-06
0.00105673
-8.50188e-06
0.00106106
-7.3343e-06
0.00106492
-6.17156e-06
0.0010684
-5.00352e-06
0.00107161
-3.79036e-06
0.00107463
-2.52269e-06
0.00107725
-1.31268e-06
0.00107933
-2.74702e-07
0.00108092
2.53266e-07
0.00108208
-4.16774e-07
0.00108283
-5.09133e-05
0.0010831
-7.38077e-05
0.00108942
-0.000129861
0.00109414
-0.00014973
0.00110021
-0.000150126
0.0011117
-0.000134818
0.00113017
-0.000120971
0.00115339
-0.000112689
0.00118123
-0.000107042
0.00120884
-0.000103047
0.00123435
-0.000100596
0.00125766
-9.87923e-05
0.00127984
-9.6764e-05
0.00130133
-9.36298e-05
0.00132174
-8.98044e-05
0.00134119
-8.54453e-05
0.00136004
-8.06467e-05
0.00137846
-7.6233e-05
0.00139598
-7.19744e-05
0.0014123
-6.711e-05
0.00142705
-6.15812e-05
0.00144018
-5.68566e-05
0.0014525
-5.23212e-05
0.00146306
-4.73703e-05
0.00147333
-4.25266e-05
0.00148199
-3.85669e-05
0.00148891
-3.52971e-05
0.00149547
-3.10516e-05
0.00150106
-2.61975e-05
0.00150736
-2.21454e-05
0.00151112
-1.86102e-05
0.001512
-1.49705e-05
0.00151336
-1.08392e-05
0.00151555
-6.48876e-06
0.00151775
-1.78178e-06
0.00151657
2.88011e-06
0.00151243
7.63693e-06
0.00150725
1.31234e-05
0.00150108
1.89078e-05
0.00149428
2.40941e-05
0.00148637
2.90938e-05
0.00147531
3.41742e-05
0.00146178
3.90031e-05
0.0014462
4.39913e-05
0.00142818
5.02203e-05
0.00140729
5.77637e-05
0.00138038
6.87791e-05
0.00134339
8.47547e-05
0.00129098
0.000108517
0.00122207
0.00014268
0.00112702
0.000192283
0.00100813
0.000246407
0.000892955
0.00028759
0.000798896
0.000317097
0.000723201
0.000334975
0.000664123
0.000339996
0.000618795
0.000331933
0.000584504
0.000311829
0.000557712
0.000286243
0.000532926
0.000262609
0.000507587
0.00024145
0.000481662
0.000223238
0.000454701
0.000207957
0.000426375
0.000195631
0.000397099
0.000186669
0.000367301
0.000182006
0.000337061
0.00018241
0.000305961
0.000192303
0.000274159
0.00020559
0.000240942
0.000229977
0.000205701
0.000250209
0.000168394
0.000282395
0.000128662
0.000301091
8.67487e-05
0.000348667
4.2514e-05
-1.1742e-05
-1.41414e-05
0.00078503
-1.64796e-05
0.000794964
-1.87383e-05
0.000805198
-2.08915e-05
0.000815724
-2.29164e-05
0.00082653
-2.48044e-05
0.000837598
-2.65389e-05
0.000848901
-2.8102e-05
0.000860413
-2.94849e-05
0.000872102
-3.06794e-05
0.000883932
-3.16797e-05
0.000895868
-3.2481e-05
0.000907866
-3.30868e-05
0.000919887
-3.34958e-05
0.00093189
-3.3717e-05
0.000943832
-3.37468e-05
0.000955677
-3.36029e-05
0.000967382
-3.32888e-05
0.000978904
-3.28078e-05
0.000990214
-3.21822e-05
0.00100128
-3.14327e-05
0.00101208
-3.05468e-05
0.00102257
-2.95412e-05
0.00103271
-2.84341e-05
0.00104249
-2.72361e-05
0.00105191
-2.59751e-05
0.00106097
-2.46336e-05
0.00106962
-2.3232e-05
0.00107782
-2.17842e-05
0.00108556
-2.03034e-05
0.00109288
-1.87921e-05
0.00109979
-1.72492e-05
0.00110632
-1.56667e-05
0.0011124
-1.40778e-05
0.00111797
-1.24839e-05
0.00112303
-1.09286e-05
0.00112766
-9.3928e-06
0.00113192
-7.8642e-06
0.00113589
-6.23899e-06
0.00113947
-4.59587e-06
0.0011425
-3.0225e-06
0.00114496
-1.63584e-06
0.00114692
-7.44892e-07
0.00114842
-1.01777e-06
0.00114946
-5.78828e-05
0.00114998
-8.09933e-05
0.00115517
-0.000141239
0.00115735
-0.000165249
0.00115726
-0.000169768
0.00116178
-0.000158264
0.0011738
-0.000148691
0.00119432
-0.000140088
0.00121993
-0.000132355
0.00124754
-0.000126104
0.00127434
-0.000122416
0.00129986
-0.000119874
0.00132552
-0.000116821
0.00135118
-0.000112863
0.00137628
-0.000108457
0.00140008
-0.000103577
0.00142225
-9.80034e-05
0.00144294
-9.2209e-05
0.00146189
-8.67325e-05
0.00147905
-8.03136e-05
0.00149428
-7.35217e-05
0.00150791
-6.74481e-05
0.00152011
-6.216e-05
0.00153088
-5.60693e-05
0.00154043
-4.97521e-05
0.00154897
-4.4542e-05
0.00155581
-4.06221e-05
0.00156145
-3.6114e-05
0.00156637
-3.05731e-05
0.00157069
-2.51194e-05
0.00157378
-2.0546e-05
0.00157369
-1.60214e-05
0.00157329
-1.06898e-05
0.00157232
-5.05448e-06
0.00157098
9.72747e-07
0.00156944
6.89863e-06
0.00156512
1.37335e-05
0.00155813
2.08099e-05
0.00154946
2.80888e-05
0.00153938
3.54917e-05
0.00152806
4.22967e-05
0.00151454
4.91756e-05
0.00149636
5.69759e-05
0.00147321
6.62884e-05
0.00144396
7.92953e-05
0.00140609
9.65478e-05
0.00135374
0.000122359
0.00128525
0.000154648
0.00119048
0.000204639
0.00106732
0.000262616
0.000941866
0.000308278
0.000836656
0.000341113
0.000750806
0.000363709
0.000682445
0.000376306
0.000628371
0.000380192
0.000585612
0.000374126
0.000552607
0.000358706
0.000526858
0.000336727
0.00050518
0.000311798
0.000484206
0.000289145
0.000462022
0.000268812
0.000438841
0.000251516
0.00041453
0.000237
0.000388895
0.000224915
0.00036249
0.000216448
0.000335279
0.000212887
0.000306973
0.000214135
0.000277285
0.000225473
0.000247216
0.000240749
0.000216067
0.000267168
0.000183387
0.00028982
0.000149177
0.000324158
0.00011341
0.000345175
7.63109e-05
0.000391038
3.68954e-05
-2.13729e-05
-2.40727e-05
0.000795655
-2.67105e-05
0.000807638
-2.92614e-05
0.000819897
-3.16951e-05
0.000832428
-3.39809e-05
0.00084522
-3.61043e-05
0.000858254
-3.80478e-05
0.000871502
-3.97887e-05
0.000884939
-4.13129e-05
0.000898531
-4.26125e-05
0.000912241
-4.36763e-05
0.00092603
-4.45008e-05
0.000939855
-4.50888e-05
0.000953674
-4.5438e-05
0.000967442
-4.55625e-05
0.000981116
-4.54534e-05
0.000994651
-4.51281e-05
0.00100801
-4.46032e-05
0.00102115
-4.38837e-05
0.00103403
-4.2981e-05
0.00104662
-4.19232e-05
0.0010589
-4.07043e-05
0.00107081
-3.93485e-05
0.00108233
-3.78709e-05
0.00109344
-3.62852e-05
0.00110413
-3.46174e-05
0.00111442
-3.28566e-05
0.00112424
-3.10258e-05
0.00113356
-2.91546e-05
0.00114236
-2.72405e-05
0.0011507
-2.52901e-05
0.00115861
-2.32948e-05
0.00116604
-2.12645e-05
0.00117294
-1.92185e-05
0.00117927
-1.72042e-05
0.00118508
-1.5223e-05
0.00119047
-1.32764e-05
0.00119547
-1.12773e-05
0.00120018
-9.20719e-06
0.00120428
-7.14766e-06
0.0012077
-5.18698e-06
0.00121055
-3.38822e-06
0.0012129
-2.03712e-06
0.0012148
-1.76216e-06
0.0012163
-6.35103e-05
0.00121749
-8.56323e-05
0.00122361
-0.00014732
0.00122332
-0.000174506
0.00121436
-0.000183057
0.00121392
-0.000179054
0.00122307
-0.000174206
0.00124291
-0.000167481
0.00126791
-0.000159015
0.00129599
-0.000151498
0.00132614
-0.000147864
0.00135927
-0.000145271
0.00139162
-0.000141665
0.00142198
-0.000136517
0.00145008
-0.000130386
0.00147586
-0.000123822
0.0014995
-0.000116624
0.00152116
-0.000109213
0.00154096
-0.00010186
0.00155855
-9.41048e-05
0.00157372
-8.57979e-05
0.00158716
-7.82219e-05
0.00159897
-7.15214e-05
0.00160907
-6.44367e-05
0.0016175
-5.66824e-05
0.0016251
-5.00095e-05
0.00163169
-4.49622e-05
0.00163666
-4.00218e-05
0.00164063
-3.34715e-05
0.00164347
-2.656e-05
0.00164561
-2.08957e-05
0.00164514
-1.54296e-05
0.00164365
-9.02177e-06
0.00163983
-2.13049e-06
0.00163509
5.3146e-06
0.00162944
1.32785e-05
0.00162222
2.1941e-05
0.00161209
3.09396e-05
0.00159962
4.00437e-05
0.00158545
4.96483e-05
0.0015682
6.03161e-05
0.00154618
7.20168e-05
0.00151716
8.66154e-05
0.00147853
0.000105571
0.00142583
0.000133436
0.00135668
0.000166492
0.00126322
0.000218413
0.00113789
0.000279142
0.00100535
0.00033114
0.000890848
0.000368622
0.000796754
0.000394662
0.000719894
0.000409912
0.00065736
0.000418078
0.000606896
0.000419048
0.000566258
0.000412991
0.000533526
0.000399798
0.000507523
0.000380525
0.000486022
0.000358114
0.000466656
0.000334528
0.000447404
0.000313064
0.000427166
0.000293307
0.00040524
0.000276736
0.000381672
0.000262995
0.000356563
0.000251957
0.000331303
0.000244471
0.00030584
0.000242253
0.000279313
0.000244043
0.000251438
0.000256577
0.000222892
0.000273442
0.000193405
0.000301379
0.000163492
0.000325485
0.00013261
0.000361066
0.000100061
0.000384369
6.69074e-05
0.000427725
3.19027e-05
-3.30773e-05
-3.60524e-05
0.000807487
-3.89674e-05
0.000821466
-4.17893e-05
0.0008357
-4.44839e-05
0.000850186
-4.70118e-05
0.000864913
-4.93497e-05
0.000879864
-5.1481e-05
0.000895012
-5.33783e-05
0.000910328
-5.50205e-05
0.000925777
-5.63989e-05
0.000941322
-5.74994e-05
0.00095692
-5.83172e-05
0.00097253
-5.8856e-05
0.000988104
-5.91123e-05
0.0010036
-5.9099e-05
0.00101896
-5.88124e-05
0.00103415
-5.82674e-05
0.00104912
-5.74898e-05
0.00106384
-5.64833e-05
0.00107825
-5.52546e-05
0.00109233
-5.38396e-05
0.00110605
-5.22404e-05
0.00111936
-5.04863e-05
0.00113222
-4.85858e-05
0.00114462
-4.65627e-05
0.00115657
-4.44312e-05
0.00116805
-4.21962e-05
0.001179
-3.98919e-05
0.0011894
-3.75374e-05
0.00119927
-3.51394e-05
0.00120862
-3.26946e-05
0.00121749
-3.02029e-05
0.00122579
-2.7672e-05
0.00123351
-2.51464e-05
0.00124056
-2.2642e-05
0.0012471
-2.01973e-05
0.00125324
-1.7736e-05
0.00125902
-1.52182e-05
0.00126433
-1.2713e-05
0.00126893
-1.0206e-05
0.0012728
-7.82131e-06
0.00127606
-5.57614e-06
0.00127881
-3.73671e-06
0.00128111
-2.93223e-06
0.00128312
-6.91311e-05
0.00128493
-8.82062e-05
0.00129121
-0.000145682
0.00129122
-0.000179503
0.00127884
-0.000193592
0.00127479
-0.000199243
0.00128575
-0.000199177
0.00130877
-0.000195444
0.00133693
-0.00018909
0.00136774
-0.000184636
0.00140181
-0.000180236
0.00143823
-0.000175587
0.00147317
-0.0001696
0.00150581
-0.000162193
0.00153656
-0.000153861
0.00156523
-0.000145132
0.0015914
-0.000135991
0.0016152
-0.000126574
0.00163648
-0.000117146
0.00165489
-0.000107592
0.0016703
-9.79567e-05
0.0016834
-8.86235e-05
0.00169487
-8.0028e-05
0.00170354
-7.1862e-05
0.00171055
-6.31084e-05
0.00171657
-5.49045e-05
0.00172137
-4.86535e-05
0.00172493
-4.26119e-05
0.00172714
-3.48946e-05
0.00172717
-2.68848e-05
0.00172689
-1.95254e-05
0.0017256
-1.26619e-05
0.00172244
-4.71171e-06
0.00171552
4.10089e-06
0.00170616
1.34098e-05
0.00169545
2.38586e-05
0.00168415
3.4271e-05
0.00167142
4.46992e-05
0.00165424
5.74508e-05
0.00163006
7.2184e-05
0.00159905
8.95667e-05
0.00155966
0.000110912
0.00150677
0.000140043
0.00143714
0.000175874
0.00134429
0.000228186
0.0012186
0.000293118
0.00107934
0.000352209
0.000956742
0.000394718
0.00085614
0.000426049
0.00077265
0.000446049
0.000704031
0.000457522
0.00064693
0.000460819
0.000599749
0.0004591
0.000561217
0.00045183
0.000529505
0.000438994
0.000502767
0.000421501
0.000480036
0.000400347
0.000459773
0.000378076
0.000440734
0.000355532
0.000420959
0.000335456
0.000400073
0.000316697
0.00037776
0.00030111
0.000354635
0.000287846
0.000330354
0.000277469
0.000305938
0.000270858
0.000281385
0.000269779
0.000255726
0.000272376
0.000228909
0.000286096
0.000201765
0.000303515
0.000173946
0.000332343
0.000146257
0.00035791
0.000118239
0.000393977
8.83307e-05
0.000419114
5.83637e-05
0.00045938
2.73199e-05
-4.68007e-05
-5.00277e-05
0.000820537
-5.31986e-05
0.000836454
-5.62721e-05
0.000852607
-5.92084e-05
0.000868993
-6.19604e-05
0.000885603
-6.44948e-05
0.00090242
-6.6793e-05
0.000919417
-6.88244e-05
0.00093656
-7.05632e-05
0.000953817
-7.19952e-05
0.000971149
-7.3106e-05
0.00098851
-7.38886e-05
0.00100586
-7.43474e-05
0.00102314
-7.44765e-05
0.00104031
-7.42875e-05
0.00105732
-7.37848e-05
0.00107412
-7.29861e-05
0.00109067
-7.19121e-05
0.00110692
-7.05678e-05
0.00112282
-6.89672e-05
0.00113835
-6.71505e-05
0.00115347
-6.51233e-05
0.00116814
-6.29212e-05
0.00118232
-6.0548e-05
0.00119598
-5.80365e-05
0.00120916
-5.53848e-05
0.00122179
-5.26305e-05
0.00123384
-4.98044e-05
0.00124531
-4.69103e-05
0.00125619
-4.39717e-05
0.00126654
-4.0986e-05
0.00127634
-3.79562e-05
0.00128549
-3.48791e-05
0.00129397
-3.18221e-05
0.00130173
-2.87813e-05
0.001309
-2.57978e-05
0.00131582
-2.2766e-05
0.00132233
-1.97226e-05
0.00132827
-1.67477e-05
0.00133334
-1.37711e-05
0.00133771
-1.09149e-05
0.0013414
-8.1628e-06
0.00134456
-5.8506e-06
0.0013473
-4.55555e-06
0.00134968
-7.46222e-05
0.00135162
-9.09709e-05
0.00135578
-0.0001411
0.0013551
-0.000181347
0.001347
-0.000206091
0.00134365
-0.000222697
0.00135895
-0.000227425
0.00138536
-0.000226259
0.001419
-0.000223179
0.00145549
-0.000221154
0.00149599
-0.000215359
0.00153759
-0.000208372
0.00157691
-0.000200251
0.00161353
-0.000190581
0.00164716
-0.000179823
0.00167807
-0.00016845
0.00170643
-0.000156647
0.00173156
-0.00014474
0.00175453
-0.000132588
0.00177348
-0.00012103
0.0017892
-0.000109645
0.00180257
-9.81736e-05
0.0018117
-8.77156e-05
0.00181907
-7.79006e-05
0.00182443
-6.80859e-05
0.00182711
-5.86897e-05
0.00182965
-5.04619e-05
0.00183017
-4.27326e-05
0.00182877
-3.38952e-05
0.00182593
-2.51142e-05
0.00182172
-1.60665e-05
0.00181717
-6.80617e-06
0.0018091
3.86128e-06
0.00179759
1.44379e-05
0.00178323
2.58617e-05
0.00176664
3.85318e-05
0.00175029
5.20777e-05
0.00172882
6.79591e-05
0.00169672
8.78624e-05
0.00165334
0.000111926
0.00159672
0.000143234
0.00152582
0.000181423
0.00143248
0.000233866
0.00130667
0.00030261
0.00116108
0.000368554
0.00102986
0.000416865
0.000922437
0.000453942
0.000833406
0.000479117
0.000760621
0.000495263
0.000699728
0.000503444
0.000648646
0.000504789
0.000604898
0.000499874
0.000566831
0.000491373
0.000534013
0.000478757
0.000506147
0.000461874
0.00048195
0.000442077
0.000460204
0.000419983
0.000440209
0.000398501
0.000421193
0.000376836
0.000401394
0.00035764
0.000380294
0.000339374
0.000357105
0.00032455
0.000333469
0.000311901
0.000309138
0.000302161
0.000285074
0.000296414
0.000261124
0.000296319
0.000236104
0.000299439
0.000210127
0.0003141
0.000184079
0.000331473
0.000157701
0.00036047
0.00013153
0.00038767
0.000105482
0.000423668
7.80114e-05
0.000449863
5.09393e-05
0.000486421
2.37532e-05
-6.24842e-05
-6.59413e-05
0.000834818
-6.93483e-05
0.000852612
-7.26554e-05
0.000870623
-7.58148e-05
0.000888851
-7.87739e-05
0.000907286
-8.14892e-05
0.000925911
-8.39333e-05
0.000944701
-8.60776e-05
0.00096362
-8.78922e-05
0.000982632
-8.93547e-05
0.0010017
-9.04497e-05
0.00102077
-9.11697e-05
0.0010398
-9.1517e-05
0.00105875
-9.1486e-05
0.00107755
-9.10875e-05
0.00109615
-9.03338e-05
0.00111452
-8.92415e-05
0.0011326
-8.78232e-05
0.00115034
-8.60967e-05
0.00116768
-8.40835e-05
0.00118461
-8.18252e-05
0.0012011
-7.93207e-05
0.0012171
-7.66147e-05
0.00123254
-7.37267e-05
0.00124744
-7.0667e-05
0.00126179
-6.74538e-05
0.00127553
-6.41333e-05
0.00128865
-6.07303e-05
0.00130115
-5.72424e-05
0.00131303
-5.37211e-05
0.00132435
-5.01423e-05
0.00133506
-4.65143e-05
0.00134502
-4.28581e-05
0.00135421
-3.92214e-05
0.00136268
-3.55918e-05
0.00137065
-3.19937e-05
0.00137814
-2.84046e-05
0.00138538
-2.48225e-05
0.00139187
-2.13127e-05
0.00139741
-1.77899e-05
0.00140223
-1.44082e-05
0.00140634
-1.11259e-05
0.00140996
-8.26992e-06
0.00141322
-6.32137e-06
0.00141608
-7.82844e-05
0.00141831
-9.32689e-05
0.00142121
-0.000140832
0.001423
-0.000184158
0.00142006
-0.00022296
0.0014232
-0.000249659
0.00144536
-0.000261318
0.00147926
-0.000262767
0.00151986
-0.00026355
0.00156442
-0.000262698
0.00161259
-0.000254784
0.00165893
-0.000245329
0.00170314
-0.000233875
0.00174497
-0.000221311
0.00178263
-0.000207635
0.00181753
-0.000193023
0.00184719
-0.000178918
0.00187323
-0.000162999
0.00189468
-0.000148454
0.00191071
-0.000133939
0.00192486
-0.000119513
0.00193351
-0.00010652
0.00193983
-9.3185e-05
0.00194443
-8.18132e-05
0.00194525
-7.06532e-05
0.00194604
-5.96657e-05
0.00194459
-4.98368e-05
0.00194038
-3.9951e-05
0.00193455
-2.96587e-05
0.00192612
-1.87954e-05
0.00191684
-7.2934e-06
0.00190663
3.80184e-06
0.00189283
1.68919e-05
0.00187628
3.04309e-05
0.00185619
4.36695e-05
0.00182956
6.26875e-05
0.00179406
8.54752e-05
0.00175074
0.000110915
0.00169288
0.000144131
0.00161912
0.00018358
0.00152199
0.000237974
0.00139411
0.000308416
0.00124566
0.000380316
0.00110746
0.000434561
0.000993322
0.000476822
0.00089845
0.000506877
0.000820652
0.000527783
0.000756333
0.000540801
0.000702447
0.000546538
0.000656282
0.000547204
0.000615673
0.000543004
0.000580402
0.000533174
0.000549772
0.000519831
0.000522184
0.000503301
0.000497
0.000483693
0.000473335