/*--------------------------------*- C++ -*----------------------------------*\
| =========                 |                                                 |
| \\      /  F ield         | OpenFOAM: The Open Source CFD Toolbox           |
|  \\    /   O peration     | Version:  2.2.x                                 |
|   \\  /    A nd           | Web:      www.OpenFOAM.org                      |
|    \\/     M anipulation  |                                                 |
\*---------------------------------------------------------------------------*/
FoamFile
{
    version     2.0;
    format      ascii;
    class       volScalarField;
    location    "1.6";
    object      Bx;
}
// * * * * * * * * * * * * * * * * * * * * * * * * * * * * * * * * * * * * * //

dimensions      [1 0 -2 0 0 -1 0];

internalField   nonuniform List<scalar> 
14161
(
1.0065
1.00521
1.00558
1.00594
1.00641
1.00694
1.00758
1.00829
1.00908
1.00997
1.0109
1.01188
1.01296
1.01405
1.01511
1.01627
1.01734
1.0184
1.01941
1.02037
1.02124
1.022
1.02263
1.02315
1.02355
1.02383
1.024
1.02412
1.02414
1.0241
1.02402
1.02392
1.02384
1.02384
1.02394
1.02439
1.0256
1.02821
1.0337
1.04721
1.10352
1.2951
1.35236
1.33817
1.32426
1.31342
1.30295
1.29243
1.28269
1.2734
1.26524
1.25883
1.25489
1.25276
1.25132
1.25196
1.25388
1.25723
1.26038
1.26391
1.26726
1.27038
1.27306
1.27529
1.2775
1.27937
1.28078
1.28124
1.28062
1.27906
1.27671
1.27347
1.26981
1.26559
1.26079
1.25567
1.2511
1.24753
1.24463
1.24199
1.23981
1.23773
1.23572
1.23371
1.23107
1.22865
1.22559
1.22229
1.22042
1.22335
1.22953
1.23927
1.24532
1.23534
1.19271
1.11554
1.00983
0.902634
0.809771
0.736274
0.676973
0.628959
0.589038
0.555095
0.523919
0.495509
0.468513
0.442067
0.414899
0.385844
0.354593
0.32071
0.28348
0.246469
0.195145
0.16096
0.0977915
0.0774676
0.00272131
1.00652
1.00521
1.00558
1.00594
1.00641
1.00696
1.00758
1.0083
1.00909
1.00998
1.01092
1.0119
1.01298
1.01406
1.01512
1.01626
1.01736
1.01845
1.01946
1.02039
1.02124
1.02202
1.02265
1.02319
1.02357
1.02384
1.02404
1.02418
1.02424
1.02425
1.02424
1.02426
1.02435
1.0246
1.02508
1.02606
1.02774
1.03032
1.03959
1.04516
1.10603
1.07768
1.08828
1.06731
1.05927
1.05412
1.05544
1.05754
1.06432
1.07602
1.08997
1.1039
1.117
1.12992
1.1412
1.15087
1.15909
1.16606
1.17202
1.17692
1.18115
1.1847
1.18725
1.18969
1.19164
1.19281
1.19384
1.19457
1.19487
1.19532
1.19619
1.19735
1.19856
1.20042
1.20257
1.2046
1.20609
1.20672
1.20768
1.20867
1.20894
1.20777
1.20696
1.20725
1.2047
1.19862
1.19453
1.19101
1.18314
1.16558
1.12894
1.08336
1.01972
0.955756
0.877338
0.815491
0.764168
0.722788
0.686577
0.65176
0.620671
0.594111
0.570093
0.546225
0.521681
0.496365
0.470746
0.444719
0.416578
0.386794
0.354234
0.319698
0.28239
0.245581
0.196912
0.160583
0.102919
0.079089
0.0100119
1.00652
1.00522
1.00559
1.00595
1.00641
1.00696
1.0076
1.00831
1.00909
1.00998
1.01092
1.01192
1.01298
1.01406
1.01513
1.01625
1.01736
1.01845
1.01946
1.0204
1.02127
1.02203
1.02268
1.02321
1.02361
1.02389
1.02406
1.02417
1.02417
1.02409
1.02394
1.02373
1.02346
1.02311
1.02263
1.02196
1.02076
1.01836
1.017
0.997021
1.02019
0.852142
0.826621
0.840268
0.86691
0.88571
0.916981
0.944589
0.9724
0.999823
1.02514
1.04675
1.06665
1.08561
1.1028
1.11731
1.12975
1.14035
1.14923
1.15646
1.16266
1.1681
1.17157
1.17505
1.17688
1.17808
1.17905
1.17929
1.17937
1.18018
1.18141
1.18368
1.18619
1.18904
1.19161
1.19398
1.19609
1.19679
1.19682
1.19549
1.19514
1.19637
1.19663
1.19002
1.18146
1.16904
1.1445
1.11937
1.06349
0.964622
0.871214
0.777345
0.690779
0.626713
0.587193
0.5665
0.555771
0.55848
0.557203
0.555355
0.546952
0.534726
0.51859
0.499767
0.480039
0.459765
0.436977
0.412885
0.386405
0.357093
0.32449
0.289168
0.252102
0.216918
0.172073
0.139188
0.0893821
0.06575
0.0106542
1.00653
1.00522
1.0056
1.00596
1.00642
1.00696
1.0076
1.00832
1.00912
1.01001
1.01094
1.01192
1.01299
1.01409
1.01519
1.01629
1.01737
1.01846
1.01951
1.02046
1.02131
1.02208
1.02274
1.02328
1.02369
1.02398
1.02424
1.0244
1.02449
1.02455
1.02462
1.02473
1.02495
1.02526
1.02571
1.02619
1.02658
1.02575
1.02315
1.00803
0.948938
0.696753
0.707812
0.731951
0.783811
0.816244
0.866778
0.906683
0.944813
0.979968
1.01008
1.03511
1.05664
1.07587
1.09313
1.10764
1.12064
1.13207
1.14191
1.15
1.1556
1.15955
1.16232
1.16396
1.16543
1.16601
1.16669
1.16733
1.16782
1.16844
1.16906
1.16961
1.17114
1.17262
1.17381
1.17462
1.17407
1.17309
1.17391
1.17312
1.16968
1.16323
1.16385
1.16392
1.14567
1.11857
1.11024
1.03718
0.934337
0.860503
0.749798
0.667843
0.599146
0.548756
0.515895
0.495325
0.491272
0.494614
0.493826
0.490183
0.483888
0.472115
0.45849
0.444633
0.426898
0.404617
0.381325
0.353954
0.323245
0.292067
0.257665
0.224776
0.189374
0.159578
0.123633
0.102411
0.0658939
0.0541243
0.0100317
1.00653
1.00523
1.0056
1.00598
1.00643
1.00697
1.0076
1.00833
1.00912
1.01
1.01095
1.01195
1.01299
1.01409
1.01521
1.01629
1.01739
1.01847
1.01953
1.02049
1.02134
1.02211
1.02279
1.02335
1.02379
1.02408
1.02426
1.02436
1.02435
1.02425
1.02406
1.02376
1.02333
1.02274
1.022
1.02069
1.01871
1.01486
1.00838
0.987137
0.915383
0.69102
0.694763
0.718897
0.791018
0.841538
0.903385
0.945869
0.986215
1.02197
1.05026
1.07089
1.09035
1.10691
1.12108
1.13085
1.14129
1.1485
1.15597
1.16145
1.16542
1.16908
1.17099
1.17214
1.17298
1.17295
1.17296
1.17287
1.17252
1.17174
1.17134
1.17072
1.16964
1.16891
1.16791
1.1673
1.16705
1.16533
1.16194
1.15998
1.16452
1.16734
1.15514
1.13158
1.12878
1.13204
1.06202
0.981742
0.931178
0.819875
0.744828
0.668435
0.59574
0.546518
0.50453
0.486482
0.471116
0.464626
0.449596
0.439786
0.42628
0.412074
0.393938
0.371906
0.349727
0.327391
0.299106
0.273154
0.244058
0.21661
0.18387
0.159295
0.13058
0.110506
0.0847417
0.0709046
0.0478442
0.0431154
0.0135249
1.00653
1.00523
1.00561
1.00597
1.00644
1.00698
1.00762
1.00835
1.00915
1.01001
1.01098
1.01199
1.01303
1.01414
1.01527
1.01635
1.01747
1.01853
1.01955
1.02053
1.02143
1.02222
1.02291
1.02348
1.02393
1.02424
1.02451
1.02469
1.02481
1.0249
1.02502
1.02521
1.0255
1.02595
1.02655
1.02725
1.02802
1.0277
1.02815
1.01007
1.02939
0.842763
0.842508
0.883696
0.95475
0.995312
1.03802
1.06537
1.09269
1.10978
1.12658
1.13599
1.14725
1.15545
1.16246
1.16736
1.17359
1.17595
1.18188
1.18324
1.18693
1.18878
1.19103
1.19204
1.19231
1.19167
1.19142
1.19094
1.19078
1.19047
1.19023
1.18987
1.18977
1.18949
1.18922
1.18785
1.1849
1.18326
1.18298
1.1805
1.17588
1.16582
1.16161
1.16973
1.1471
1.08068
1.05225
1.01935
0.942331
0.889256
0.81706
0.74259
0.673764
0.601444
0.538099
0.498375
0.462496
0.435026
0.415696
0.397106
0.380409
0.363083
0.346111
0.331
0.306444
0.279447
0.253585
0.227124
0.194571
0.171502
0.1382
0.115382
0.0908351
0.0805268
0.0630703
0.0569622
0.0378576
0.039017
0.0149366
1.00654
1.00524
1.00562
1.00598
1.00645
1.00699
1.00763
1.00836
1.00916
1.01003
1.01099
1.01201
1.01304
1.01416
1.0153
1.01639
1.01753
1.0186
1.01962
1.0206
1.02149
1.02231
1.023
1.02361
1.02406
1.0244
1.0246
1.02469
1.02469
1.02458
1.02437
1.02404
1.02361
1.02314
1.0227
1.02246
1.02282
1.02415
1.02966
1.04495
1.0853
1.17277
1.17951
1.21292
1.20035
1.19972
1.20078
1.19752
1.20299
1.19427
1.20282
1.19718
1.20591
1.20314
1.21001
1.20789
1.21382
1.21335
1.21871
1.21789
1.22244
1.22149
1.2248
1.22497
1.22529
1.22484
1.22477
1.224
1.22349
1.22252
1.22159
1.22098
1.22025
1.21947
1.21857
1.21835
1.21685
1.21627
1.21201
1.20928
1.20766
1.2107
1.21164
1.19891
1.17177
1.15258
1.11654
1.02703
1.00197
0.949093
0.890714
0.831237
0.757541
0.676045
0.597299
0.528059
0.476746
0.438535
0.399964
0.376281
0.352881
0.33809
0.321862
0.301304
0.282746
0.262329
0.230749
0.206548
0.175287
0.153681
0.118636
0.101664
0.0745558
0.068164
0.0500505
0.0491876
0.0335278
0.0367967
0.01578
1.00654
1.00525
1.00562
1.00599
1.00646
1.00701
1.00764
1.00837
1.00919
1.01005
1.01102
1.01205
1.01308
1.0142
1.01535
1.01645
1.0176
1.01869
1.01972
1.02072
1.02161
1.02243
1.02315
1.0238
1.02429
1.02471
1.02498
1.02516
1.02528
1.02539
1.02551
1.02571
1.02602
1.02653
1.02731
1.02838
1.03018
1.03276
1.03719
1.04309
1.07167
1.25593
1.28522
1.29237
1.27466
1.26185
1.25396
1.24463
1.24256
1.23383
1.23596
1.23026
1.23391
1.22955
1.23423
1.23143
1.23577
1.23334
1.23907
1.23828
1.24359
1.24314
1.24745
1.24738
1.24981
1.25015
1.25113
1.25135
1.25166
1.25237
1.25284
1.25316
1.25337
1.25369
1.25404
1.25371
1.25379
1.2503
1.24874
1.24696
1.24349
1.23809
1.23019
1.21934
1.21959
1.14499
1.11374
1.0527
1.01005
0.967387
0.917242
0.868499
0.809103
0.745183
0.668498
0.589529
0.511087
0.454315
0.410253
0.378282
0.34838
0.323926
0.303712
0.289668
0.270924
0.25024
0.227662
0.205059
0.171937
0.153946
0.11892
0.102793
0.0707345
0.0651765
0.0453368
0.0470641
0.0316655
0.0360129
0.0175142
1.00654
1.00525
1.00563
1.006
1.00647
1.00702
1.00766
1.00839
1.0092
1.01007
1.01104
1.01207
1.01311
1.01424
1.0154
1.01652
1.01767
1.01878
1.01981
1.02081
1.02175
1.0226
1.02333
1.02402
1.02452
1.02495
1.02515
1.02528
1.02528
1.02519
1.02499
1.02466
1.02419
1.02372
1.02326
1.02314
1.02372
1.02521
1.02916
1.04135
1.06515
1.15673
1.20797
1.23005
1.22414
1.214
1.20367
1.20149
1.19943
1.20362
1.20278
1.2095
1.2115
1.21816
1.22198
1.22964
1.2357
1.23789
1.24363
1.24505
1.24891
1.24975
1.2524
1.25291
1.25473
1.25533
1.25613
1.25633
1.25696
1.25743
1.25789
1.25811
1.25867
1.25903
1.25949
1.2591
1.26015
1.25805
1.25824
1.25613
1.25475
1.25244
1.24718
1.22853
1.18913
1.12584
1.06701
1.03685
0.987212
0.958949
0.91454
0.871987
0.821028
0.767057
0.696819
0.61706
0.530806
0.461343
0.408367
0.37247
0.345374
0.326129
0.305879
0.28543
0.269316
0.25546
0.233451
0.213886
0.186696
0.166894
0.13144
0.116176
0.0793304
0.0723592
0.0484261
0.0500385
0.0327627
0.0380211
0.0209274
1.00654
1.00526
1.00564
1.00601
1.00648
1.00704
1.00767
1.0084
1.00923
1.0101
1.01108
1.01211
1.01317
1.01428
1.01545
1.0166
1.01773
1.01888
1.01994
1.02096
1.02192
1.02278
1.02357
1.02426
1.02483
1.02532
1.02563
1.02588
1.02603
1.02613
1.0262
1.02628
1.02638
1.02658
1.02691
1.02725
1.02784
1.028
1.02988
1.02058
1.06322
0.967104
0.995836
1.02322
1.06009
1.07095
1.08174
1.09299
1.10944
1.12011
1.13568
1.14598
1.15915
1.16901
1.18128
1.19079
1.20047
1.20682
1.21609
1.2193
1.22564
1.22848
1.23097
1.23352
1.23529
1.23722
1.23815
1.23941
1.24069
1.24187
1.24306
1.24391
1.24541
1.24805
1.25125
1.2539
1.25578
1.25625
1.25397
1.25189
1.24899
1.24645
1.22698
1.19126
1.13527
1.089
1.02938
1.00678
0.970842
0.951407
0.918674
0.886559
0.84033
0.79334
0.733709
0.669175
0.583129
0.505443
0.441296
0.400114
0.366747
0.341504
0.317715
0.300289
0.283643
0.267638
0.250249
0.231475
0.203631
0.183772
0.149953
0.133852
0.0944699
0.0866349
0.0565979
0.056407
0.0379202
0.0420583
0.0251993
1.00655
1.00526
1.00564
1.00602
1.00649
1.00705
1.00769
1.00842
1.00925
1.01014
1.0111
1.01215
1.01323
1.01433
1.01551
1.01668
1.01782
1.01899
1.02009
1.02111
1.02212
1.02299
1.02382
1.02451
1.02515
1.02562
1.02596
1.02615
1.02622
1.02616
1.02595
1.02557
1.025
1.02416
1.02295
1.02128
1.01895
1.01559
1.01124
0.995202
1.01172
0.87927
0.901532
0.923004
0.971813
0.995764
1.0186
1.03963
1.06295
1.07998
1.10157
1.11587
1.13533
1.14815
1.16459
1.17343
1.18693
1.19289
1.20472
1.20674
1.21566
1.21663
1.2232
1.22367
1.22811
1.22932
1.23057
1.23161
1.23306
1.2343
1.23541
1.2363
1.23711
1.23913
1.24193
1.24509
1.24772
1.25224
1.25068
1.24538
1.23445
1.22684
1.18416
1.14248
1.06539
1.05511
1.00449
0.989517
0.952132
0.936453
0.905667
0.88345
0.842888
0.802799
0.752055
0.697648
0.626194
0.557715
0.480685
0.423587
0.381582
0.356718
0.335414
0.316664
0.298725
0.282812
0.266146
0.248626
0.224419
0.206115
0.173883
0.157874
0.118289
0.105933
0.0683575
0.065647
0.0448179
0.0463506
0.029187
1.00655
1.00527
1.00565
1.00603
1.0065
1.00707
1.00771
1.00844
1.00928
1.01018
1.01113
1.0122
1.0133
1.01441
1.01558
1.01678
1.01794
1.01911
1.02026
1.02131
1.02236
1.02329
1.02414
1.02485
1.02554
1.02608
1.02655
1.02686
1.02711
1.02722
1.02722
1.02718
1.02703
1.02676
1.02624
1.02541
1.02405
1.02167
1.01915
1.00824
1.01289
0.883459
0.890886
0.915629
0.955051
0.976913
1.00624
1.03023
1.05567
1.07404
1.09841
1.11344
1.13636
1.14855
1.16654
1.17392
1.18997
1.19347
1.20587
1.20677
1.2166
1.21622
1.22371
1.22334
1.22871
1.22898
1.23071
1.23164
1.23285
1.23402
1.23521
1.23617
1.2375
1.23959
1.24088
1.24204
1.24203
1.24298
1.23951
1.23493
1.20617
1.1894
1.11558
1.09732
1.03343
1.02465
0.986821
0.973869
0.940302
0.922537
0.890327
0.868009
0.835778
0.803245
0.761
0.713184
0.65236
0.581913
0.501078
0.437272
0.389475
0.361413
0.337652
0.320677
0.305358
0.292534
0.278555
0.264508
0.244289
0.226736
0.198607
0.182055
0.140442
0.124839
0.0823297
0.0774538
0.053024
0.0518186
0.0342448
1.00655
1.00528
1.00566
1.00604
1.00652
1.00708
1.00774
1.00846
1.0093
1.01022
1.01118
1.01224
1.01336
1.01447
1.01567
1.01689
1.01807
1.01924
1.02043
1.02153
1.02259
1.0236
1.02449
1.02524
1.02596
1.02653
1.02701
1.02731
1.02752
1.02752
1.02738
1.02703
1.0264
1.02543
1.0239
1.02183
1.019
1.01514
1.01109
1.00481
1.00726
0.935679
0.950903
0.981224
1.01349
1.02733
1.05961
1.07907
1.10502
1.11926
1.14384
1.15545
1.17817
1.18651
1.20575
1.21139
1.22919
1.23056
1.24456
1.24375
1.25501
1.2534
1.26188
1.26038
1.26669
1.26583
1.26837
1.26792
1.26821
1.26797
1.26736
1.26671
1.26637
1.26621
1.26609
1.26656
1.26566
1.2638
1.24943
1.24348
1.19583
1.16062
1.08097
1.0719
1.0132
1.01345
0.979615
0.971496
0.939524
0.924737
0.890904
0.864583
0.828768
0.793751
0.751954
0.706712
0.648043
0.582613
0.504261
0.435972
0.386953
0.360493
0.340622
0.325495
0.312726
0.302361
0.291431
0.280045
0.265587
0.247529
0.222055
0.202086
0.160968
0.143755
0.0982839
0.0907624
0.0617038
0.0580435
0.0396077
1.00656
1.00529
1.00567
1.00605
1.00653
1.0071
1.00776
1.00849
1.00934
1.01026
1.01122
1.0123
1.01344
1.01457
1.01577
1.01701
1.01822
1.0194
1.02063
1.02179
1.02287
1.02397
1.02492
1.02574
1.0265
1.0272
1.02774
1.02816
1.02852
1.02877
1.02888
1.02886
1.02871
1.0284
1.02788
1.02733
1.02685
1.02665
1.0275
1.02786
1.04288
1.02876
1.04179
1.07862
1.10068
1.11293
1.14001
1.15477
1.1783
1.18694
1.21029
1.21702
1.23852
1.24266
1.26176
1.2632
1.28074
1.27804
1.29199
1.28785
1.29755
1.29437
1.30214
1.29944
1.30503
1.30398
1.30666
1.3066
1.30699
1.30676
1.30642
1.30569
1.30486
1.30338
1.30144
1.30109
1.29946
1.30147
1.28642
1.27863
1.21698
1.1782
1.09772
1.08322
1.0273
1.01247
0.979505
0.967598
0.936414
0.918466
0.888434
0.868039
0.840072
0.81321
0.776579
0.732544
0.677622
0.618651
0.540884
0.474163
0.412516
0.380541
0.355862
0.339347
0.326053
0.316247
0.304545
0.292538
0.279232
0.261836
0.237556
0.218538
0.180717
0.161596
0.113305
0.10453
0.070585
0.0651803
0.0456241
1.00656
1.00529
1.00568
1.00606
1.00655
1.00712
1.00779
1.00852
1.00937
1.01031
1.01128
1.01236
1.01351
1.01467
1.01588
1.01715
1.0184
1.0196
1.02085
1.02207
1.0232
1.02433
1.02538
1.0263
1.02709
1.02785
1.02844
1.02891
1.02923
1.02949
1.02954
1.02941
1.02902
1.02827
1.02723
1.02587
1.02422
1.02181
1.01805
1.01323
1.01657
1.02697
1.09333
1.13926
1.1558
1.17452
1.19897
1.21159
1.232
1.23957
1.26301
1.26629
1.28664
1.28731
1.30488
1.30185
1.31735
1.3107
1.32437
1.31779
1.32602
1.32115
1.32664
1.32302
1.32692
1.32533
1.3269
1.32665
1.32763
1.32806
1.32871
1.3287
1.32915
1.32942
1.32981
1.33011
1.33107
1.32676
1.31425
1.2746
1.23374
1.18285
1.09273
1.067
1.02069
1.0035
0.966303
0.941513
0.915097
0.89261
0.868938
0.844677
0.822703
0.796679
0.765755
0.731292
0.68946
0.641401
0.572972
0.509052
0.43698
0.394536
0.36703
0.347964
0.333304
0.32373
0.312006
0.298853
0.288272
0.272808
0.251615
0.2347
0.200667
0.182012
0.13085
0.12076
0.0813407
0.0742188
0.0530119
1.00657
1.0053
1.00569
1.00608
1.00657
1.00714
1.00781
1.00856
1.00941
1.01036
1.01136
1.01243
1.0136
1.01479
1.016
1.0173
1.01858
1.01982
1.0211
1.02238
1.02357
1.0247
1.02585
1.0269
1.02779
1.02862
1.02942
1.03001
1.03047
1.0309
1.03127
1.03155
1.03164
1.03144
1.03106
1.03051
1.03001
1.02943
1.02845
1.02853
1.0344
1.07065
1.14805
1.18113
1.19611
1.20953
1.23429
1.24251
1.26383
1.26977
1.29331
1.29621
1.31676
1.31323
1.33202
1.32496
1.33877
1.32928
1.34194
1.33423
1.34224
1.33673
1.34078
1.3376
1.33931
1.33859
1.33851
1.33814
1.33833
1.33858
1.33877
1.33902
1.33946
1.34109
1.34205
1.34339
1.34276
1.34768
1.32273
1.28439
1.18383
1.18503
1.11267
1.06762
1.00608
0.973856
0.942237
0.919471
0.894284
0.875028
0.85064
0.828164
0.806606
0.78471
0.757397
0.726851
0.691715
0.648065
0.590925
0.523636
0.454819
0.405292
0.377768
0.356691
0.340615
0.330591
0.32015
0.307527
0.299917
0.287439
0.268469
0.253281
0.222294
0.203468
0.150802
0.139984
0.0934669
0.0855536
0.0617117
1.00657
1.00531
1.0057
1.00609
1.00659
1.00716
1.00784
1.0086
1.00945
1.0104
1.01143
1.0125
1.01368
1.01491
1.01614
1.01746
1.01879
1.02008
1.02138
1.02272
1.02398
1.02517
1.02637
1.02754
1.02854
1.02945
1.03033
1.0311
1.03168
1.03213
1.03252
1.0329
1.03309
1.03328
1.0336
1.03425
1.03532
1.03686
1.04298
1.04645
1.09932
1.11137
1.14765
1.18837
1.22163
1.24167
1.26559
1.26556
1.28564
1.28574
1.30637
1.30733
1.32321
1.32318
1.33873
1.33028
1.34535
1.33743
1.34463
1.34039
1.34604
1.3421
1.34502
1.34265
1.34276
1.34248
1.34245
1.34225
1.34191
1.34171
1.34137
1.34156
1.3421
1.34311
1.34305
1.34462
1.34004
1.3359
1.28428
1.26147
1.17223
1.11334
1.09677
1.07155
1.02044
0.987008
0.9556
0.932309
0.90522
0.885002
0.860413
0.840675
0.816127
0.791273
0.761217
0.729877
0.694002
0.650866
0.598056
0.529805
0.466731
0.410995
0.381075
0.358475
0.342123
0.332343
0.324002
0.312995
0.307345
0.297226
0.280853
0.26823
0.24125
0.224287
0.174046
0.160288
0.10866
0.0981972
0.0704629
1.00658
1.00532
1.00571
1.00611
1.00661
1.00719
1.00787
1.00865
1.00949
1.01046
1.0115
1.01259
1.01378
1.01503
1.0163
1.01763
1.01901
1.02036
1.02169
1.02308
1.02443
1.0257
1.02691
1.0282
1.02939
1.0304
1.03137
1.03237
1.03324
1.03391
1.03449
1.03508
1.03566
1.03623
1.03654
1.03668
1.03646
1.03522
1.03705
1.02369
1.10629
1.02805
1.06082
1.08847
1.14022
1.1818
1.21907
1.23369
1.26349
1.26931
1.29328
1.29856
1.31564
1.31684
1.33657
1.32865
1.34643
1.33946
1.34709
1.34284
1.34752
1.34356
1.34571
1.34367
1.34494
1.34424
1.34431
1.34415
1.34416
1.34408
1.34366
1.34367
1.34344
1.34304
1.3401
1.33556
1.3111
1.26886
1.20368
1.15665
1.13651
1.07827
1.03754
1.01295
0.98515
0.953139
0.924569
0.897845
0.875129
0.855774
0.8388
0.819406
0.801752
0.781217
0.759624
0.737457
0.707721
0.668516
0.621685
0.554686
0.494404
0.43263
0.399852
0.374443
0.355721
0.343869
0.336344
0.32528
0.319912
0.311891
0.296144
0.284362
0.259036
0.242822
0.195629
0.183264
0.123153
0.111057
0.0799216
1.00659
1.00533
1.00573
1.00613
1.00663
1.00721
1.0079
1.00869
1.00954
1.01052
1.01158
1.01269
1.01389
1.01517
1.01648
1.01781
1.01924
1.02066
1.02204
1.02349
1.02492
1.02628
1.02758
1.02892
1.03027
1.03144
1.03254
1.03364
1.0347
1.03561
1.03636
1.03698
1.0378
1.03859
1.03942
1.04002
1.04029
1.03933
1.04037
1.03433
1.08503
1.04339
1.06094
1.08492
1.10515
1.16116
1.19266
1.23008
1.26317
1.27318
1.29703
1.30018
1.31964
1.3179
1.33869
1.33097
1.34886
1.34119
1.34695
1.34243
1.34664
1.3444
1.34489
1.34474
1.34657
1.34526
1.3457
1.34616
1.34632
1.34506
1.34161
1.3373
1.32848
1.31948
1.29009
1.24785
1.16952
1.09879
1.02946
1.01125
0.99458
0.993444
0.973201
0.960998
0.944079
0.919114
0.895193
0.869257
0.846569
0.825856
0.809383
0.793394
0.778797
0.764875
0.747875
0.728607
0.703715
0.673949
0.6352
0.575885
0.519043
0.456469
0.418929
0.390063
0.367871
0.353234
0.345441
0.333108
0.325265
0.317905
0.304835
0.294207
0.272416
0.257475
0.215758
0.198687
0.134717
0.120693
0.0902807
1.00661
1.00534
1.00574
1.00615
1.00665
1.00724
1.00794
1.00873
1.0096
1.01058
1.01167
1.0128
1.01401
1.01532
1.01667
1.01803
1.0195
1.02099
1.02244
1.02393
1.02544
1.0269
1.02831
1.02968
1.03116
1.03258
1.03382
1.03503
1.03634
1.03757
1.0386
1.03952
1.04041
1.04134
1.04226
1.04301
1.04336
1.04412
1.04591
1.05148
1.09301
1.07817
1.07645
1.08204
1.08908
1.11872
1.13188
1.18802
1.20339
1.25696
1.26899
1.29664
1.31928
1.32497
1.34816
1.33981
1.36124
1.35198
1.36276
1.35648
1.36014
1.35541
1.35646
1.35452
1.35756
1.35632
1.35278
1.34831
1.34083
1.33119
1.30341
1.26253
1.20266
1.12846
1.0429
0.941065
0.844792
0.799159
0.795743
0.803319
0.821148
0.846999
0.857124
0.860358
0.862443
0.861844
0.855198
0.848258
0.836044
0.822469
0.806161
0.789772
0.771961
0.755554
0.739677
0.723161
0.703704
0.677594
0.642666
0.588252
0.533235
0.4724
0.432284
0.401184
0.375736
0.357953
0.347854
0.337347
0.330275
0.323515
0.313642
0.304689
0.285547
0.270475
0.231752
0.210245
0.141967
0.130934
0.101301
1.00662
1.00536
1.00576
1.00617
1.00668
1.00727
1.00797
1.00878
1.00966
1.01065
1.01175
1.01292
1.01414
1.01548
1.01687
1.01827
1.01979
1.02133
1.02287
1.0244
1.026
1.02758
1.0291
1.03058
1.03216
1.03374
1.0352
1.03663
1.03803
1.03948
1.04088
1.04207
1.04322
1.04447
1.04609
1.04845
1.05224
1.05909
1.05895
1.11601
1.09412
1.08539
1.0856
1.09006
1.09592
1.11209
1.13311
1.18447
1.19245
1.25604
1.25824
1.31506
1.30767
1.34866
1.33663
1.3646
1.34969
1.36866
1.3577
1.36661
1.3629
1.36202
1.35706
1.35397
1.34299
1.33302
1.30131
1.25976
1.20067
1.12982
1.04691
0.940628
0.81778
0.726767
0.65099
0.615242
0.582535
0.57977
0.587132
0.615608
0.649498
0.694608
0.728392
0.758519
0.778016
0.795026
0.804453
0.802823
0.797953
0.787976
0.778594
0.767976
0.756487
0.744287
0.733454
0.721303
0.705235
0.680226
0.648666
0.59906
0.54548
0.486351
0.444022
0.412567
0.385681
0.366319
0.35458
0.344467
0.337438
0.330206
0.320973
0.31165
0.291906
0.276835
0.239558
0.218329
0.150554
0.144196
0.112791
1.00664
1.00537
1.00578
1.00619
1.00671
1.00731
1.00801
1.00883
1.00973
1.01072
1.01185
1.01304
1.01428
1.01566
1.01709
1.01855
1.02007
1.02169
1.02332
1.02491
1.0266
1.0283
1.02994
1.03157
1.03322
1.03496
1.03667
1.03825
1.03979
1.04149
1.04308
1.04459
1.04574
1.0467
1.04764
1.04857
1.04844
1.05214
1.03892
1.12473
1.00396
1.03888
1.04962
1.06166
1.07231
1.08241
1.10091
1.11268
1.15922
1.1719
1.24117
1.24747
1.31272
1.30839
1.35529
1.33915
1.36738
1.35147
1.36255
1.34774
1.34767
1.32438
1.2891
1.24486
1.18085
1.10185
1.02356
0.905026
0.798956
0.704639
0.63567
0.585104
0.53442
0.494757
0.467901
0.459338
0.453701
0.457414
0.467854
0.489456
0.516907
0.556951
0.602332
0.656368
0.700688
0.728839
0.745759
0.755196
0.759457
0.760592
0.75546
0.747705
0.739232
0.729819
0.720491
0.709931
0.696981
0.678723
0.652827
0.608466
0.557201
0.49882
0.456213
0.424572
0.3962
0.37447
0.359864
0.349034
0.341094
0.332232
0.322223
0.313412
0.294246
0.282007
0.248058
0.231022
0.168306
0.161881
0.124569
1.00665
1.00539
1.0058
1.00621
1.00674
1.00734
1.00805
1.00888
1.0098
1.0108
1.01194
1.01317
1.01445
1.01584
1.01732
1.01884
1.02039
1.02208
1.02379
1.02548
1.02725
1.02906
1.03084
1.03261
1.03435
1.03629
1.03819
1.03999
1.04167
1.04335
1.04528
1.04714
1.04861
1.04974
1.05046
1.05117
1.05071
1.05106
1.04283
1.07977
1.03233
1.0464
1.0562
1.0627
1.06782
1.07546
1.0845
1.10233
1.11451
1.15784
1.17322
1.24678
1.25332
1.32512
1.30673
1.35106
1.32224
1.32524
1.27832
1.24657
1.16239
1.10765
1.00175
0.890731
0.790205
0.703204
0.640126
0.595841
0.540469
0.502905
0.471017
0.457508
0.434862
0.418432
0.403258
0.39839
0.396808
0.399177
0.405877
0.418792
0.436923
0.460907
0.499446
0.546661
0.597923
0.637309
0.670177
0.700317
0.717086
0.724134
0.728449
0.729407
0.72766
0.723371
0.717039
0.707265
0.694815
0.677273
0.654036
0.614255
0.56421
0.509386
0.465375
0.432759
0.40269
0.379339
0.362361
0.350478
0.34155
0.332683
0.324035
0.3169
0.300506
0.291721
0.262818
0.252171
0.191987
0.181056
0.135443
1.00668
1.00541
1.00582
1.00623
1.00677
1.00739
1.0081
1.00893
1.00988
1.0109
1.01205
1.01331
1.01462
1.01604
1.01757
1.01914
1.02075
1.02249
1.02429
1.02609
1.02791
1.02984
1.03178
1.0337
1.03561
1.03768
1.03977
1.04178
1.04361
1.04546
1.04734
1.04937
1.05138
1.05318
1.05466
1.05626
1.05796
1.06179
1.06707
1.10743
1.08575
1.0802
1.07808
1.07833
1.0797
1.08287
1.08842
1.09795
1.1116
1.12664
1.15835
1.17309
1.24138
1.2346
1.29275
1.23049
1.22682
1.10857
1.05561
0.917194
0.84009
0.737354
0.691458
0.630598
0.587197
0.541684
0.503421
0.485051
0.460883
0.443888
0.42576
0.417115
0.407547
0.400265
0.389506
0.385711
0.383852
0.38367
0.385519
0.390088
0.398542
0.412302
0.434351
0.463561
0.505317
0.553737
0.610453
0.64754
0.672468
0.686067
0.696903
0.705742
0.707378
0.706506
0.703215
0.696542
0.686797
0.672576
0.654048
0.617589
0.571079
0.516198
0.473341
0.440496
0.411423
0.387283
0.368291
0.355055
0.346113
0.337594
0.330545
0.324748
0.310936
0.303756
0.279628
0.271296
0.214199
0.200221
0.14838
1.0067
1.00543
1.00584
1.00626
1.0068
1.00743
1.00815
1.00899
1.00995
1.01099
1.01216
1.01345
1.01481
1.01624
1.01782
1.01946
1.02114
1.02292
1.02481
1.02672
1.02864
1.03067
1.03275
1.03482
1.03692
1.03903
1.04132
1.04356
1.04574
1.0477
1.04975
1.05199
1.05444
1.05695
1.05952
1.06231
1.06824
1.06772
1.12149
1.0948
1.08426
1.08128
1.07962
1.08076
1.08183
1.08443
1.08668
1.09169
1.09823
1.10874
1.12191
1.14406
1.1457
1.16802
1.11966
1.06601
0.9219
0.852618
0.757287
0.713478
0.654606
0.61603
0.576246
0.550244
0.523949
0.505751
0.48729
0.472095
0.458795
0.449533
0.437037
0.428824
0.418881
0.411269
0.400664
0.393224
0.387286
0.384741
0.384618
0.386037
0.388567
0.393535
0.40396
0.421441
0.446759
0.483858
0.53106
0.574632
0.62025
0.651742
0.671831
0.681197
0.687728
0.690475
0.691227
0.689558
0.68403
0.673001
0.653911
0.620174
0.574826
0.523236
0.480473
0.446963
0.418564
0.394208
0.373943
0.359631
0.350461
0.342445
0.337119
0.332497
0.320774
0.3142
0.294234
0.285502
0.234095
0.218535
0.162093
1.00672
1.00545
1.00586
1.00629
1.00683
1.00747
1.0082
1.00906
1.01003
1.0111
1.01228
1.01359
1.015
1.01647
1.01809
1.01979
1.02154
1.02338
1.02534
1.02736
1.02941
1.03154
1.03375
1.03598
1.03823
1.04048
1.04288
1.04532
1.04768
1.05009
1.05235
1.0545
1.05702
1.05944
1.06219
1.06391
1.06862
1.05589
1.14021
1.02071
1.04924
1.05795
1.06597
1.07065
1.0738
1.07456
1.07582
1.07522
1.07431
1.07412
1.07371
1.06522
1.03988
0.977115
0.872383
0.777473
0.735879
0.685779
0.653988
0.616009
0.603281
0.575361
0.562732
0.546281
0.530416
0.520545
0.509614
0.497912
0.487599
0.477151
0.465808
0.456218
0.446277
0.436684
0.425346
0.414857
0.404239
0.396476
0.391645
0.389672
0.39043
0.39216
0.395492
0.402266
0.417082
0.441021
0.472628
0.514966
0.56574
0.608235
0.633167
0.649804
0.665733
0.675406
0.677971
0.678015
0.675298
0.66793
0.653221
0.62188
0.579879
0.529017
0.488256
0.454718
0.426982
0.402286
0.381061
0.365739
0.356246
0.348681
0.34468
0.340924
0.330845
0.324698
0.307056
0.297614
0.251772
0.234417
0.176501
1.00675
1.00547
1.00589
1.00632
1.00687
1.00751
1.00826
1.00912
1.01012
1.01121
1.0124
1.01375
1.01519
1.01671
1.01837
1.02013
1.02196
1.02386
1.0259
1.02802
1.0302
1.03244
1.03477
1.03715
1.03957
1.042
1.04447
1.04702
1.04961
1.05221
1.05474
1.05719
1.0595
1.0616
1.06346
1.06457
1.06625
1.05988
1.09597
1.05933
1.0676
1.0722
1.07505
1.07811
1.08
1.08092
1.08123
1.08028
1.07779
1.06883
1.04994
0.997953
0.907361
0.783895
0.712157
0.676393
0.64546
0.622483
0.608801
0.595315
0.579189
0.575318
0.564541
0.554171
0.54888
0.540683
0.530915
0.526767
0.51606
0.508792
0.499383
0.489742
0.478859
0.468977
0.456932
0.445407
0.431668
0.420502
0.410088
0.402913
0.398631
0.39775
0.398647
0.401313
0.406517
0.420317
0.439825
0.469598
0.508301
0.554165
0.599035
0.629038
0.649558
0.658993
0.666144
0.66796
0.666762
0.662725
0.651081
0.624029
0.583089
0.534274
0.494892
0.461398
0.434906
0.411529
0.390172
0.373632
0.363882
0.356078
0.352315
0.348154
0.338737
0.332231
0.317179
0.307729
0.266356
0.248836
0.190008
1.00678
1.0055
1.00592
1.00635
1.0069
1.00756
1.00832
1.00919
1.0102
1.01132
1.01254
1.01391
1.01539
1.01696
1.01866
1.02048
1.02239
1.02437
1.02648
1.02869
1.03098
1.03335
1.03581
1.03833
1.04089
1.0435
1.04612
1.04881
1.05155
1.05434
1.05717
1.06022
1.06325
1.06684
1.0714
1.07839
1.08586
1.10229
1.13114
1.09985
1.09552
1.08875
1.089
1.08743
1.08824
1.08802
1.08737
1.08219
1.07179
1.04851
0.99155
0.895497
0.765528
0.698442
0.66166
0.636541
0.619396
0.609801
0.600489
0.592289
0.589031
0.581955
0.574644
0.572545
0.566673
0.558667
0.556721
0.549648
0.541553
0.536939
0.528372
0.520048
0.510305
0.502062
0.492071
0.481847
0.468782
0.456208
0.441506
0.429734
0.418989
0.412586
0.409214
0.407911
0.410271
0.414222
0.425133
0.444272
0.47102
0.507381
0.552576
0.595401
0.619806
0.637491
0.650386
0.658517
0.658949
0.655977
0.64758
0.624059
0.586329
0.53992
0.503005
0.469271
0.443449
0.420208
0.398566
0.381073
0.370113
0.361757
0.357639
0.35342
0.344841
0.33941
0.326534
0.318305
0.281186
0.264675
0.204014
1.00681
1.00552
1.00595
1.00639
1.00694
1.00761
1.00838
1.00926
1.01029
1.01144
1.01268
1.01408
1.0156
1.01722
1.01896
1.02085
1.02283
1.02489
1.02707
1.02937
1.03175
1.03425
1.03684
1.0395
1.04219
1.04494
1.04776
1.05063
1.05346
1.05639
1.0593
1.06223
1.06504
1.06745
1.06836
1.07165
1.06265
1.13497
1.05635
1.07348
1.07982
1.08305
1.08541
1.08704
1.08783
1.08628
1.0828
1.07185
1.04942
0.988202
0.887259
0.758651
0.693396
0.661412
0.637016
0.622334
0.615891
0.60928
0.602658
0.599913
0.595302
0.590698
0.589146
0.585561
0.579597
0.578865
0.574469
0.56762
0.564746
0.558392
0.551521
0.545623
0.536978
0.52974
0.520368
0.512039
0.500969
0.490036
0.476112
0.462404
0.447479
0.435644
0.426963
0.421747
0.419911
0.420485
0.425395
0.435485
0.453064
0.47803
0.511329
0.553678
0.592051
0.621359
0.637141
0.648025
0.652862
0.649474
0.64408
0.622003
0.589197
0.544945
0.510453
0.476985
0.451745
0.428897
0.407808
0.389359
0.377257
0.368687
0.365121
0.361041
0.353784
0.348698
0.336929
0.329576
0.295508
0.280998
0.217995
1.00685
1.00555
1.00598
1.00642
1.00699
1.00766
1.00845
1.00934
1.01038
1.01155
1.01283
1.01425
1.01582
1.01748
1.01927
1.02121
1.02327
1.02541
1.02768
1.03006
1.03253
1.03514
1.03787
1.04067
1.0435
1.04637
1.04939
1.05245
1.05548
1.05846
1.06141
1.06442
1.06744
1.06987
1.07171
1.07336
1.07012
1.11053
1.07021
1.07562
1.07911
1.08106
1.08298
1.08343
1.0826
1.07917
1.06607
1.04327
0.969441
0.871165
0.750645
0.694309
0.665766
0.643835
0.629563
0.625667
0.620987
0.61454
0.612708
0.609207
0.60485
0.602686
0.600825
0.596753
0.59549
0.593611
0.588398
0.586866
0.583251
0.576989
0.573651
0.567918