/*--------------------------------*- C++ -*----------------------------------*\
| =========                 |                                                 |
| \\      /  F ield         | OpenFOAM: The Open Source CFD Toolbox           |
|  \\    /   O peration     | Version:  2.2.x                                 |
|   \\  /    A nd           | Web:      www.OpenFOAM.org                      |
|    \\/     M anipulation  |                                                 |
\*---------------------------------------------------------------------------*/
FoamFile
{
    version     2.0;
    format      ascii;
    class       surfaceScalarField;
    location    "0.2";
    object      cfmax;
}
// * * * * * * * * * * * * * * * * * * * * * * * * * * * * * * * * * * * * * //

dimensions      [0 3 -1 0 0 0 0];

internalField   nonuniform List<scalar> 
28084
(
0.000746224
0.000742988
0.000740213
0.000737877
0.000735962
0.000734443
0.000733299
0.000732503
0.000732031
0.000731856
0.00073195
0.000732288
0.00073284
0.000733581
0.000734484
0.000735523
0.000736673
0.00073791
0.00073921
0.000740553
0.000741918
0.000743286
0.000744639
0.000745961
0.000747237
0.000748455
0.000749601
0.000750665
0.000751637
0.000752509
0.000753273
0.000753923
0.000754452
0.000754855
0.000755128
0.000755267
0.000755269
0.00075513
0.000754847
0.000754419
0.000753842
0.000753114
0.000752233
0.000751196
0.00075
0.000759241
0.000768834
0.000778736
0.000788902
0.000799289
0.000809851
0.000820541
0.000831314
0.000842122
0.000852918
0.000863656
0.000874288
0.000884769
0.000895053
0.000905096
0.000914856
0.000924295
0.000933375
0.000942064
0.000950334
0.000958164
0.000965538
0.000972449
0.000978899
0.000984905
0.000990494
0.000995718
0.00100063
0.00100534
0.0010099
0.00101441
0.00101883
0.00102388
0.00103002
0.00103812
0.00103932
0.00102858
0.000550531
0.000509659
0.000524571
0.000536737
0.000536732
0.000532309
0.000528447
0.000506576
0.000492635
0.000474329
0.000459956
0.000448759
0.000439732
0.000431786
0.000425342
0.000419521
0.000413571
0.000409126
0.000405113
0.000400146
0.000396917
0.000395278
0.000394997
0.000395842
0.000397487
0.000399884
0.000402197
0.000403994
0.000406496
0.000411022
0.000417376
0.000425242
0.000435102
0.000446867
0.000456655
0.000464132
0.00144509
0.00144283
0.00074974
0.00143752
0.000748785
0.0014292
0.000748259
0.00141793
0.000748147
0.00140381
0.000748429
0.00138695
0.000749083
0.0013675
0.000750087
0.0013456
0.000751415
0.00132142
0.000753039
0.00129524
0.000754933
0.00126731
0.000757068
0.00123765
0.000759414
0.00120646
0.000761942
0.00117395
0.000764622
0.00114033
0.000767426
0.00110579
0.000770325
0.00107054
0.000773292
0.00103476
0.0007763
0.000998644
0.000779324
0.000962354
0.000782341
0.000926057
0.000785328
0.000889901
0.000788266
0.000854024
0.000791134
0.000818551
0.000793916
0.000783594
0.000796595
0.000749254
0.000799159
0.000715618
0.000801594
0.000682761
0.00080389
0.000650748
0.000806036
0.000619631
0.000808025
0.000589453
0.000809849
0.000560249
0.000811502
0.000532043
0.000812979
0.00050485
0.000814276
0.000478681
0.000815389
0.000453539
0.000816315
0.000429559
0.000817052
0.000406598
0.000817598
0.000384642
0.000817951
0.000363674
0.00081811
0.000343674
0.000818073
0.00032462
0.00081784
0.000306486
0.000817409
0.000289245
0.000816778
0.000293351
0.000815947
0.000293578
0.000824691
0.000293831
0.000833763
0.000294112
0.000843119
0.000294419
0.000852716
0.000294752
0.00086251
0.000295112
0.000872456
0.000295497
0.000882507
0.000295908
0.000892618
0.000296344
0.000902743
0.000296807
0.000912834
0.000297297
0.000922847
0.000297813
0.000932734
0.000298358
0.000942451
0.000298931
0.000951953
0.000299536
0.000961198
0.000300173
0.000970145
0.000300846
0.000978756
0.000301556
0.000986996
0.000302309
0.000994835
0.000303111
0.00100224
0.000303965
0.00100921
0.000304878
0.00101571
0.00030586
0.00102174
0.000306928
0.00102732
0.000308088
0.00103245
0.000309355
0.00103717
0.000310752
0.00104153
0.000312316
0.00104559
0.00031405
0.00104945
0.000316011
0.00105321
0.000318312
0.00105699
0.000321647
0.00106085
0.000325261
0.00106515
0.000329782
0.00107036
0.000333796
0.00107757
0.000341709
0.0010838
0.000358779
0.00108127
0.000373484
0.000593249
0.000374882
0.000535597
0.000371415
0.000546181
0.000371155
0.000556519
0.000374535
0.000555816
0.000374544
0.000550394
0.000374063
0.000544186
0.000373798
0.000522224
0.000372156
0.000508578
0.000368181
0.000490708
0.000365839
0.000475727
0.000365088
0.000463402
0.000363962
0.000453561
0.00036242
0.000445017
0.000362539
0.000437574
0.000363756
0.000430904
0.000364946
0.000424287
0.0003659
0.00041901
0.000366851
0.000414166
0.000368153
0.000408498
0.000370008
0.000404605
0.00037203
0.00040242
0.000374348
0.000401549
0.000376878
0.000401767
0.000379578
0.000402737
0.000382389
0.000404409
0.000384994
0.000405946
0.000387564
0.000406976
0.00039084
0.000408801
0.000395
0.000412551
0.000400055
0.0004181
0.000406192
0.000425125
0.000414231
0.000434211
0.000422403
0.000445316
0.000427727
0.000455293
0.000436369
0.000462499
0.00144566
0.00144319
0.000754435
0.00143766
0.00075573
0.00142913
0.000757426
0.00141766
0.00075951
0.00140336
0.000761963
0.00138633
0.000764765
0.00136724
0.000767892
0.00134582
0.000771318
0.00132207
0.000775016
0.0012962
0.000778956
0.00126837
0.000783108
0.0012388
0.00078744
0.0012077
0.000791922
0.00117525
0.00079652
0.00114168
0.000801204
0.00110718
0.000805943
0.00107195
0.000810708
0.00103618
0.000815468
0.00100006
0.000820197
0.000963764
0.00082487
0.000927444
0.000829463
0.000891257
0.000833953
0.00085534
0.00083832
0.000819819
0.000842545
0.000784807
0.000846613
0.000750406
0.000850509
0.000716703
0.000854219
0.000683774
0.000857733
0.000651685
0.00086104
0.000620488
0.000864134
0.000590228
0.000867006
0.000560938
0.000869651
0.000532644
0.000872066
0.000505362
0.000874246
0.000479102
0.00087619
0.000453867
0.000877894
0.000429655
0.000879358
0.000406456
0.00088058
0.000384529
0.000881562
0.00036366
0.000882301
0.000343761
0.000882798
0.000324807
0.000883054
0.000306775
0.000883067
0.000289636
0.000882838
0.000297878
0.000882367
0.000298272
0.000890607
0.000298671
0.000899149
0.000299074
0.000907952
0.000299482
0.000916973
0.000299892
0.000926166
0.000300305
0.000935487
0.000300719
0.000944891
0.000301135
0.000954333
0.000301552
0.000963766
0.000301971
0.000973144
0.000302392
0.000982423
0.000302816
0.000991557
0.000303243
0.0010005
0.000303675
0.00100921
0.000304114
0.00101765
0.000304563
0.00102578
0.000305025
0.00103355
0.000305502
0.00104094
0.000306001
0.00104792
0.000306529
0.00105446
0.000307092
0.00106054
0.000307698
0.00106616
0.000308354
0.0010713
0.000309081
0.00107599
0.000309889
0.00108023
0.0003108
0.00108406
0.00031182
0.00108752
0.000313008
0.00109071
0.000314351
0.00109369
0.000315955
0.00109661
0.000319
0.00109957
0.000322698
0.00110277
0.000326688
0.0011064
0.000331424
0.00111073
0.000335357
0.00111629
0.000355579
0.00111954
0.000388676
0.00112688
0.000390005
0.000618004
0.000381478
0.000563611
0.000370693
0.000568706
0.000372135
0.000575644
0.000378283
0.000574209
0.000380097
0.000568254
0.000381145
0.000556795
0.000381496
0.000535369
0.000380989
0.000521563
0.000377164
0.000504893
0.000374669
0.00048984
0.000373292
0.000476984
0.00037063
0.000466104
0.000367556
0.00045688
0.000367355
0.000448909
0.000368998
0.000441779
0.000369718
0.000435037
0.00036987
0.000429026
0.000370499
0.000422751
0.000371769
0.000416764
0.000373513
0.000412414
0.000375489
0.000409821
0.000377793
0.000408539
0.000380331
0.000408246
0.000383083
0.000408566
0.000385997
0.000409561
0.000388726
0.000410211
0.000391584
0.00041067
0.0003953
0.000411851
0.00040001
0.00041492
0.000405723
0.000419741
0.00041289
0.000425956
0.000422043
0.000434704
0.000430757
0.000445228
0.000436798
0.000455338
0.000446505
0.000462494
0.00144511
0.00144243
0.000760308
0.0014367
0.000763821
0.00142798
0.000767708
0.00141715
0.000771957
0.00140379
0.000776551
0.00138764
0.000781471
0.00136885
0.000786692
0.00134757
0.000792189
0.00132395
0.000797933
0.00129817
0.000803893
0.00127044
0.000810036
0.00124095
0.00081633
0.00120991
0.000822741
0.00117751
0.000829233
0.00114396
0.000835774
0.00110948
0.00084233
0.00107425
0.000848869
0.00103847
0.00085536
0.00100233
0.000861774
0.000965989
0.000868082
0.000929621
0.00087426
0.000893375
0.000880283
0.00085739
0.00088613
0.000821793
0.000891781
0.000786698
0.00089722
0.000752206
0.00090243
0.000718407
0.000907399
0.000685378
0.000912115
0.000653184
0.000916569
0.000621879
0.000920753
0.000591507
0.00092466
0.000562104
0.000928285
0.000533694
0.000931625
0.000506296
0.000934678
0.000479918
0.00093744
0.000454565
0.000939912
0.000430234
0.000942094
0.000406916
0.000943984
0.000384599
0.000945585
0.000363384
0.000946897
0.000343607
0.000947921
0.000324776
0.000948659
0.000306866
0.000949111
0.000289851
0.000949279
0.000302245
0.000949162
0.000302796
0.00095689
0.00030333
0.000964897
0.000303845
0.00097314
0.000304342
0.000981577
0.000304818
0.000990162
0.000305273
0.000998852
0.000305705
0.0010076
0.000306115
0.00101637
0.000306502
0.0010251
0.000306865
0.00103376
0.000307206
0.0010423
0.000307525
0.00105067
0.000307824
0.00105883
0.000308104
0.00106675
0.000308367
0.00107437
0.000308617
0.00108167
0.000308858
0.0010886
0.000309094
0.00109513
0.000309331
0.00110124
0.000309575
0.0011069
0.000309838
0.00111209
0.000310129
0.00111681
0.000310457
0.00112105
0.000310835
0.00112483
0.000311286
0.00112816
0.000311827
0.00113107
0.000312478
0.00113363
0.000313275
0.00113589
0.000314229
0.00113795
0.000316407
0.00113994
0.000320182
0.00114197
0.000324184
0.00114429
0.00032869
0.00114703
0.000333292
0.00115063
0.000334987
0.00115438
0.00037433
0.00115737
0.000432961
0.00111972
0.000405432
0.000639582
0.000381899
0.000587824
0.000368831
0.000590772
0.000373675
0.000593559
0.000382993
0.000591039
0.000388254
0.00058211
0.000390377
0.000569048
0.000391099
0.000551259
0.00039133
0.000538446
0.000387462
0.000520184
0.000383847
0.000505062
0.000382068
0.000491439
0.000378086
0.000479551
0.000373569
0.000469348
0.000372975
0.000460638
0.000374474
0.000452758
0.000374527
0.000445614
0.000374234
0.000438882
0.000374612
0.000431104
0.000375967
0.000424497
0.000377669
0.000419861
0.000379608
0.000416683
0.000381911
0.00041482
0.000384455
0.000413801
0.000387237
0.000413286
0.000390232
0.000413489
0.000393133
0.000413101
0.00039636
0.000412803
0.00040057
0.000413428
0.000405981
0.00041596
0.000412594
0.000420227
0.000420675
0.000426603
0.000430278
0.000435174
0.000439418
0.000445463
0.000445734
0.000455897
0.000455765
0.000463231
0.00144346
0.0014412
0.000767362
0.00143695
0.000773056
0.00142965
0.000779098
0.00141936
0.000785478
0.00140616
0.00079218
0.00139017
0.000799185
0.00137152
0.000806469
0.00135036
0.000814006
0.00132685
0.000821766
0.00130117
0.000829715
0.00127352
0.000837821
0.00124409
0.000846048
0.00121308
0.000854359
0.00118071
0.000862719
0.00114718
0.00087109
0.00111269
0.000879437
0.00107744
0.000887725
0.00104162
0.000895922
0.00100543
0.000903995
0.000969027
0.000911915
0.000932584
0.000919655
0.000896252
0.000927189
0.000860171
0.000934495
0.00082447
0.000941552
0.000789262
0.000948341
0.000754652
0.000954847
0.000720728
0.000961056
0.000687569
0.000966958
0.000655241
0.000972541
0.000623799
0.000977799
0.000593288
0.000982725
0.000563744
0.000987316
0.000535191
0.000991568
0.000507649
0.000995479
0.000481127
0.000999049
0.00045563
0.00100228
0.000431154
0.00100517
0.000407692
0.00100771
0.000385233
0.00100993
0.000363758
0.0010118
0.00034325
0.00101334
0.000324531
0.00101456
0.000306765
0.00101544
0.000289893
0.001016
0.000306441
0.00101623
0.000307138
0.00102344
0.000307796
0.00103091
0.000308413
0.00103858
0.000308987
0.00104643
0.000309518
0.0010544
0.000310003
0.00106245
0.000310442
0.00107054
0.000310834
0.00107862
0.000311178
0.00108665
0.000311475
0.00109458
0.000311725
0.00110238
0.000311929
0.00110998
0.000312088
0.00111736
0.000312204
0.00112447
0.000312282
0.00113127
0.000312323
0.00113773
0.000312333
0.00114381
0.000312318
0.00114947
0.000312285
0.0011547
0.00031224
0.00115947
0.000312195
0.00116376
0.000312163
0.00116757
0.000312154
0.0011709
0.000312184
0.00117375
0.000312269
0.00117615
0.000312438
0.00117813
0.000312706
0.00117974
0.000313113
0.00118105
0.000313845
0.00118212
0.000317637
0.0011831
0.000321765
0.0011841
0.000326054
0.00118545
0.00033097
0.00118719
0.000335505
0.00119019
0.000334608
0.00119384
0.000405263
0.00119504
0.000470064
0.00104603
0.000425256
0.000657106
0.000386903
0.000611471
0.000366939
0.000603
0.000377448
0.000605749
0.000388859
0.000604289
0.000396346
0.000591987
0.000399144
0.000579681
0.00040039
0.000563766
0.000400307
0.000551629
0.000396733
0.000533067
0.000392487
0.000518474
0.000390145
0.000504001
0.000385011
0.000491474
0.000379519
0.00048057
0.000378763
0.000470964
0.000380119
0.000461776
0.00037927
0.000453933
0.000378229
0.000446588
0.000378468
0.000437795
0.000379882
0.000431005
0.000381504
0.00042612
0.000383514
0.000422579
0.000385883
0.000420223
0.000388502
0.000418597
0.00039142
0.000417434
0.000394672
0.000417033
0.000397844
0.000415688
0.000401527
0.000414721
0.000406318
0.000415152
0.00041238
0.000417479
0.000419627
0.000421525
0.000428497
0.000428004
0.000438334
0.000436277
0.00044785
0.000446438
0.000454344
0.000456719
0.000464398
0.000464396
0.00144497
0.00144399
0.0007756
0.00143992
0.000783435
0.00143278
0.000791593
0.00142265
0.000800066
0.00140961
0.000808839
0.00139376
0.000817893
0.00137524
0.000827205
0.00135419
0.000836747
0.00133078
0.000846488
0.00130518
0.000856394
0.00127759
0.00086643
0.00124821
0.000876558
0.00121723
0.000886739
0.00118486
0.000896934
0.00115132
0.000907106
0.0011168
0.000917214
0.00108151
0.000927224
0.00104563
0.000937098
0.00100936
0.000946804
0.000972872
0.00095631
0.000936328
0.000965586
0.000899883
0.000974606
0.000863678
0.000983347
0.000827844
0.000991785
0.000792496
0.000999903
0.000757738
0.00100768
0.00072366
0.00101511
0.000690343
0.00102218
0.000657853
0.00102887
0.000626246
0.00103519
0.000595567
0.00104111
0.000565853
0.00104665
0.000537131
0.0010518
0.000509418
0.00105656
0.000482726
0.00106092
0.000457058
0.00106489
0.000432413
0.00106848
0.000408783
0.00107167
0.000386156
0.00107448
0.000364516
0.00107691
0.000343842
0.00107897
0.000324113
0.00108064
0.000306474
0.00108195
0.000289766
0.00108289
0.000310457
0.00108347
0.000311289
0.00109016
0.000312059
0.00109708
0.000312765
0.00110418
0.000313406
0.00111143
0.00031398
0.00111879
0.000314484
0.0011262
0.000314917
0.00113362
0.00031528
0.00114101
0.00031557
0.00114833
0.000315788
0.00115553
0.000315936
0.00116257
0.000316013
0.0011694
0.000316021
0.00117599
0.000315964
0.00118229
0.000315845
0.00118826
0.000315668
0.00119388
0.000315439
0.0011991
0.000315164
0.00120389
0.000314853
0.00120823
0.000314512
0.0012121
0.000314153
0.00121549
0.000313789
0.00121838
0.000313439
0.00122077
0.000313113
0.00122268
0.000312834
0.00122413
0.000312619
0.00122515
0.000312505
0.00122579
0.000312508
0.0012261
0.000315249
0.00122615
0.000319375
0.00122607
0.000323831
0.00122602
0.00032848
0.00122622
0.000333662
0.00122667
0.000338179
0.00122669
0.000337925
0.00122441
0.00043548
0.00121131
0.000490388
0.000938849
0.000435437
0.000677916
0.000388881
0.000632146
0.000362902
0.000610023
0.000380783
0.000612254
0.000395898
0.000610736
0.000403968
0.000599122
0.000406898
0.000588686
0.000408214
0.000571223
0.000408353
0.000559555
0.00040511
0.000542822
0.000400861
0.00052902
0.000398041
0.000514257
0.00039226
0.000501379
0.000386147
0.000490486
0.000385358
0.000480218
0.000386073
0.000470273
0.000384296
0.000462079
0.000382637
0.000453529
0.000382991
0.000444413
0.000384357
0.000437337
0.000385896
0.00043202
0.000387965
0.000428072
0.000390362
0.000425028
0.000393049
0.000422713
0.000396104
0.00042082
0.000399771
0.000419776
0.000403119
0.000417676
0.000407194
0.00041641
0.000412507
0.000416884
0.000419105
0.000419233
0.000426998
0.000423342
0.000436532
0.000429956
0.000446444
0.000437879
0.00045605
0.000447867
0.00046271
0.000457623
0.000472608
0.000465929
0.0014487
0.00144789
0.000785028
0.00144398
0.00079496
0.001437
0.000805191
0.00142703
0.000815714
0.00141413
0.000826517
0.00139841
0.000837581
0.00138
0.000848881
0.00135905
0.000860389
0.00133573
0.000872075
0.0013102
0.000883901
0.00128265
0.000895831
0.0012533
0.000907824
0.00122233
0.00091984
0.00118995
0.000931838
0.00115638
0.000943776
0.00112181
0.000955614
0.00108645
0.000967312
0.00105049
0.000978833
0.00101412
0.000990141
0.00097752
0.0010012
0.000940847
0.00101199
0.000904262
0.00102247
0.000867907
0.00103261
0.000831912
0.00104241
0.000796395
0.00105183
0.00076146
0.00106086
0.000727201
0.00106949
0.000693697
0.00107769
0.000661016
0.00108548
0.000629215
0.00109283
0.000598341
0.00109974
0.00056843
0.00110621
0.000539511
0.00111224
0.000511601
0.00111782
0.000484712
0.00112296
0.000458848
0.00112766
0.000434009
0.00113193
0.000410186
0.00113576
0.000387368
0.00113916
0.000365538
0.00114213
0.000344677
0.00114468
0.000324762
0.00114682
0.000305999
0.00114855
0.000289473
0.00114986
0.000314283
0.00115078
0.000315237
0.00115694
0.000316108
0.0011633
0.000316893
0.00116984
0.000317588
0.00117649
0.000318192
0.00118321
0.000318703
0.00118998
0.000319119
0.00119673
0.00031944
0.00120343
0.000319664
0.00121003
0.000319793
0.0012165
0.000319826
0.00122278
0.000319766
0.00122883
0.000319613
0.00123463
0.000319372
0.00124011
0.000319047
0.00124525
0.000318643
0.00125002
0.000318166
0.00125437
0.000317623
0.00125829
0.000317024
0.00126174
0.000316382
0.0012647
0.000315703
0.00126717
0.000315005
0.00126913
0.000314305
0.00127058
0.000313622
0.00127154
0.000312971
0.00127202
0.000312379
0.00127206
0.00031187
0.0012717
0.000312883
0.00127098
0.00031718
0.00127002
0.000321666
0.00126883
0.000326403
0.00126763
0.000331441
0.00126624
0.00033621
0.00126443
0.000338711
0.00125977
0.000348933
0.00125379
0.000470984
0.00122182
0.000490326
0.000825254
0.000441929
0.000691012
0.000389576
0.000646645
0.000361773
0.000617987
0.000383489
0.000610792
0.000400216
0.00060982
0.000409415
0.000602797
0.00041432
0.000591101
0.000415222
0.000577358
0.000415065
0.000564533
0.00041256
0.000550155
0.000408606
0.000536887
0.000405365
0.000522138
0.000399128
0.000509538
0.000392917
0.000499247
0.000392281
0.000487981
0.000391839
0.000477292
0.000389143
0.000468221
0.00038742
0.00045896
0.000387999
0.000449812
0.00038926
0.000442802
0.000390756
0.000437196
0.000392927
0.000432906
0.000395342
0.0004294
0.000398066
0.000426432
0.000401282
0.000424186
0.000404912
0.000422429
0.000408418
0.000419677
0.000413007
0.0004184
0.000418792
0.000418845
0.000425913
0.000421273
0.000434525
0.000425626
0.000444529
0.000432075
0.000454505
0.000440112
0.000463942
0.000449558
0.000470895
0.000458655
0.000480619
0.000467764
0.00145354
0.00145288
0.000795653
0.00144912
0.000807633
0.00144229
0.00081989
0.00143246
0.000832419
0.00141969
0.000845207
0.0014041
0.000858235
0.0013858
0.000871481
0.00136494
0.000884914
0.00134168
0.000898502
0.00131621
0.000912208
0.0012887
0.000925991
0.00125935
0.000939811
0.00122838
0.000953624
0.00119597
0.000967386
0.00116235
0.000981054
0.00112771
0.000994585
0.00109226
0.00100794
0.0010562
0.00102107
0.00101971
0.00103395
0.000982963
0.00104653
0.000946137
0.00105879
0.000909385
0.0010707
0.000872851
0.00108223
0.000836668
0.00109335
0.000800954
0.00110404
0.000765815
0.0011143
0.000731345
0.00112409
0.000697625
0.00113342
0.000664725
0.00114227
0.000632703
0.00115063
0.000601605
0.00115851
0.00057147
0.00116589
0.000542326
0.00117278
0.000514192
0.00117917
0.000487081
0.00118507
0.000460996
0.00119049
0.000435937
0.00119542
0.000411897
0.00119987
0.000388864
0.00120384
0.000366822
0.00120735
0.000345751
0.00121039
0.000325629
0.00121298
0.00030643
0.00121511
0.000289021
0.0012168
0.00031791
0.00121804
0.000318976
0.00122367
0.000319935
0.00122948
0.000320784
0.00123543
0.000321522
0.00124148
0.000322144
0.00124758
0.000322649
0.00125369
0.000323036
0.00125977
0.000323304
0.00126578
0.000323451
0.00127166
0.000323478
0.00127739
0.000323386
0.00128291
0.000323177
0.00128819
0.000322854
0.00129318
0.000322419
0.00129785
0.000321878
0.00130215
0.000321238
0.00130607
0.000320505
0.00130955
0.000319687
0.00131258
0.000318795
0.00131513
0.000317842
0.00131719
0.000316841
0.00131873
0.000315805
0.00131975
0.000314753
0.00132025
0.000313705
0.00132024
0.000312683
0.00131975
0.000311713
0.00131879
0.000310804
0.00131741
0.000315011
0.00131567
0.000319645
0.00131365
0.000324484
0.00131131
0.000329477
0.00130881
0.000334605
0.00130582
0.000339434
0.00130299
0.000340837
0.00129902
0.000370404
0.00129578
0.000484766
0.0012311
0.000486538
0.000787327
0.000437442
0.000704804
0.000384685
0.000658464
0.000361565
0.000623851
0.000387417
0.000614712
0.000403365
0.000611087
0.000414522
0.000606299
0.000420459
0.000594624
0.000421495
0.000583146
0.000421204
0.000571827
0.000419784
0.000556945
0.000416028
0.00054359
0.000412186
0.000529003
0.0004056
0.000516636
0.000399704
0.00050611
0.000398927
0.000493851
0.000396689
0.000483035
0.000393486
0.000473439
0.000392681
0.000463837
0.000393407
0.000455082
0.00039442
0.000447965
0.000396012
0.000442218
0.000398117
0.000437382
0.00040047
0.000433288
0.00040337
0.000429911
0.000406903
0.000427747
0.000410228
0.00042455
0.000414009
0.000421686
0.00041901
0.000420533
0.000425198
0.000421147
0.000432793
0.00042368
0.000441877
0.000428243
0.000452326
0.000434522
0.000462347
0.000442601
0.000471458
0.000451457
0.000478982
0.000460211
0.000488333
0.000469852
0.00145947
0.00145895
0.000807485
0.00145533
0.000821461
0.00144865
0.000835692
0.00143894
0.000850176
0.0014263
0.000864899
0.00141082
0.000879845
0.00139261
0.000894989
0.00137183
0.000910301
0.00134864
0.000925746
0.00132321
0.000941287
0.00129572
0.000956881
0.00126637
0.000972484
0.00123537
0.000988052
0.00120292
0.00100354
0.00116922
0.00101889
0.0011345
0.00103408
0.00109894
0.00104905
0.00106275
0.00106375
0.0010261
0.00107816
0.000989196
0.00109224
0.000952191
0.00110594
0.000915245
0.00111924
0.000878506
0.00113211
0.000842107
0.00114453
0.000806167
0.00115647
0.000770796
0.00116792
0.000736087
0.00117886
0.000702124
0.00118928
0.000668976
0.00119916
0.000636704
0.00120852
0.000605356
0.00121733
0.00057497
0.0012256
0.000545574
0.00123333
0.00051719
0.00124051
0.00048983
0.00124716
0.000463499
0.00125327
0.000438196
0.00125885
0.000413914
0.0012639
0.000390643
0.00126844
0.000368366
0.00127247
0.000347063
0.00127599
0.000326712
0.00127901
0.000307287
0.00128154
0.000288762
0.00128358
0.000321331
0.00128515
0.000322494
0.00129025
0.000323529
0.0012955
0.000324432
0.00130087
0.000325198
0.00130632
0.000325827
0.00131179
0.000326315
0.00131725
0.00032666
0.00132265
0.000326862
0.00132796
0.00032692
0.00133312
0.000326835
0.0013381
0.000326607
0.00134286
0.000326239
0.00134736
0.000325733
0.00135155
0.000325095
0.0013554
0.00032433
0.00135887
0.000323445
0.00136192
0.000322448
0.00136454
0.000321349
0.00136668
0.000320159
0.00136833
0.00031889
0.00136946
0.00031756
0.00137007
0.000316185
0.00137015
0.000314779
0.00136969
0.000313368
0.00136871
0.00031197
0.00136723
0.000310625
0.00136528
0.000312856
0.00136289
0.000317671
0.00136012
0.000322678
0.00135702
0.000327838
0.00135364
0.000333187
0.00135007
0.000338675
0.00134645
0.000343852
0.00134356
0.000342238
0.00134038
0.00041141
0.00133824
0.000494562
0.0011282
0.000477556
0.000773634
0.000431195
0.000712051
0.00037645
0.000666343
0.00036545
0.000630594
0.000391425
0.000619298
0.000407898
0.000615914
0.000419689
0.000609445
0.000425807
0.000600087
0.000427781
0.000589138
0.000427652
0.000578994
0.000426244
0.000564179
0.000422672
0.000550623
0.000418075
0.000535829
0.000411253
0.000523211
0.000406426
0.00051158
0.000404443
0.000499088
0.000401308
0.00048839
0.000398746
0.000478449
0.000398568
0.000468826
0.000399048
0.000460355
0.000399894
0.00045323
0.000401343
0.000447118
0.000403399
0.000441856
0.000405922
0.000437448
0.000408963
0.000433977
0.000412229
0.00043094
0.000415592
0.000426659
0.000419653
0.000423865
0.0004251
0.000422833
0.000431667
0.000423699
0.000439671
0.00042641
0.000448939
0.000431179
0.000459938
0.000437406
0.000469902
0.000445194
0.000478816
0.000453487
0.000486789
0.000462073
0.000495919
0.000472127
0.00146648
0.00146609
0.000820535
0.0014626
0.000836449
0.00145605
0.000852599
0.00144647
0.000868983
0.00143394
0.000885589
0.00141856
0.0009024
0.00140044
0.000919391
0.00137973
0.000936531
0.00135659
0.000953785
0.00133118
0.000971112
0.0013037
0.000988469
0.00127433
0.00100581
0.00124329
0.00102309
0.00121077
0.00104025
0.001177
0.00105725
0.00114216
0.00107405
0.00110647
0.00109059
0.00107012
0.00110683
0.00103331
0.00112273
0.000996213
0.00113825
0.000959001
0.00115336
0.000921836
0.00116801
0.000884865
0.00118219
0.000848222
0.00119587
0.00081203
0.00120903
0.000776398
0.00122164
0.000741422
0.00123369
0.000707187
0.00124517
0.000673765
0.00125607
0.000641215
0.00126639
0.000609588
0.00127611
0.000578923
0.00128525
0.00054925
0.00129379
0.000520589
0.00130174
0.000492955
0.00130911
0.000466352
0.0013159
0.000440781
0.00132211
0.000416234
0.00132776
0.000392701
0.00133284
0.000370166
0.00133737
0.000348609
0.00134136
0.000328008
0.00134481
0.000308337
0.00134772
0.000289569
0.00135012
0.000324537
0.001352
0.000325786
0.00135656
0.000326884
0.00136126
0.000327826
0.00136605
0.00032861
0.00137088
0.000329232
0.00137572
0.00032969
0.00138053
0.000329982
0.00138525
0.000330106
0.00138986
0.000330064
0.00139431
0.000329854
0.00139855
0.000329479
0.00140254
0.000328942
0.00140625
0.000328245
0.00140964
0.000327395
0.00141267
0.000326397
0.0014153
0.00032526
0.0014175
0.000323992
0.00141924
0.000322605
0.00142049
0.000321111
0.00142124
0.000319524
0.00142145
0.00031786
0.00142112
0.000316142
0.00142025
0.000314383
0.00141883
0.000312611
0.00141688
0.00031084
0.00141441
0.000310691
0.00141146
0.000315708
0.00140806
0.000320895
0.00140428
0.000326293
0.00140017
0.00033183
0.00139588
0.000337626
0.00139145
0.00034353
0.0013871
0.000348827
0.00138174
0.000341402
0.00137441
0.000442446
0.00135193
0.000493963
0.000957544
0.00046421
0.000767778
0.000416562
0.000714298
0.000360736
0.000664352
0.000372107
0.000639596
0.000396744
0.000626806
0.0004128
0.000623138
0.000424236
0.000614554
0.000430509
0.000606313
0.00043328
0.00059581
0.000433552
0.000585672
0.000431631
0.000571391
0.000428082
0.000557865
0.000422648
0.000542745
0.000416286
0.000529281
0.000412294
0.00051656
0.000409368
0.000504415
0.000406174
0.000493562
0.000404455
0.000483204
0.000404124
0.000473553
0.000404346
0.000465259
0.000405309
0.000458094
0.000406896
0.000451891
0.000409152
0.000446628
0.000411742
0.000442232
0.000414548
0.000438462
0.000417674
0.00043352
0.000421013
0.000429068
0.000425481
0.000426461
0.000431183
0.000425592
0.000438109
0.000426653
0.000446371
0.000429618
0.000455911
0.000434361
0.000467091
0.000440256
0.000477127
0.000447853
0.000485996
0.000455611
0.000494426
0.000464207
0.000503522
0.000474451
0.00147454
0.00147427
0.000834816
0.00147091
0.000852607
0.00146448
0.000870615
0.00145502
0.00088884
0.00144259
0.000907271
0.00142731
0.000925891
0.00140927
0.000944674
0.00138862
0.000963588
0.00136551
0.000982597
0.00134012
0.00100166
0.00131263
0.00102073
0.00128324
0.00103975
0.00125214
0.00105869
0.00121954
0.00107748
0.00118565
0.00109608
0.00115069
0.00111444
0.00111484
0.00113251
0.00107832
0.00115024
0.00104131
0.00116758
0.001004
0.00118451
0.000966561
0.00120098
0.000929151
0.00121695
0.00089192
0.0012324
0.000855006
0.00124731
0.000818534
0.00126164
0.000782613
0.00127537
0.000747343
0.0012885
0.000712809
0.00130102
0.000679084
0.0013129
0.000646229
0.00132415
0.000614297
0.00133476
0.000583326
0.00134473
0.000553349
0.00135407
0.000524386
0.00136277
0.000496451
0.00137084
0.000469552
0.00137828
0.000443688
0.00138511
0.000418852
0.00139133
0.000395035
0.00139694
0.00037222
0.00140196
0.000350387
0.0014064
0.000329515
0.00141026
0.000309577
0.00141355
0.000290547
0.00141629
0.000327522
0.00141847
0.000328844
0.0014225
0.000329992
0.00142664
0.000330961
0.00143084
0.000331749
0.00143507
0.000332352
0.00143928
0.000332768
0.00144343
0.000332994
0.00144748
0.000333029
0.00145139
0.000332874
0.00145511
0.00033253
0.00145861
0.000331998
0.00146184
0.000331281
0.00146477
0.000330384
0.00146736
0.000329313
0.00146956
0.000328074
0.00147135
0.000326677
0.0014727
0.000325132
0.00147356
0.000323451
0.00147393
0.000321649
0.00147376
0.000319741
0.00147305
0.000317743
0.00147179
0.000315678
0.00146996
0.000313567
0.00146758
0.000311433
0.00146465
0.0003093
0.00146119
0.000313708
0.00145724
0.00031911
0.00145284
0.000324687
0.00144807
0.000330485
0.001443
0.000336418
0.00143775
0.00034267
0.00143218
0.000348649
0.0014266
0.000352549
0.00141972
0.000339519
0.0014102
0.000463919
0.0013686
0.000486729
0.000875594
0.000449382
0.000770448
0.000398486
0.000721581
0.000345038
0.000664951
0.000380921
0.000645195
0.000403199
0.000636746
0.000418262
0.000632183
0.000428581
0.000622129
0.000434473
0.000613331
0.000437598
0.000602847
0.000437997
0.000592322
0.000436154
0.00057841
0.000433111
0.000565162
0.000427896
0.000550343
0.000422184
0.000536326
0.00041813
0.000523076
0.000414349
0.000511018
0.000411469
0.000499586
0.000410265
0.000488649
0.000409708
0.000478877
0.000409858
0.000470498
0.000410971
0.000463188
0.00041284
0.000456869
0.000415017
0.000451398
0.000417215
0.000446465
0.000420052
0.000441621
0.000422904
0.000436008
0.000426622
0.000431876
0.000431421
0.000429396
0.000437309
0.000428846
0.000444462
0.000430039
0.000452835
0.000433083
0.000462626
0.000437523
0.000473841
0.000443372
0.00048388
0.000450559
0.00049296
0.000457846
0.000501916
0.00046655
0.000511312
0.000476831
0.00148365
0.00148349
0.000850343
0.00148025
0.000869944
0.00147393
0.000889746
0.00146457
0.000909749
0.00145225
0.000929943
0.00143705
0.00095031
0.00141908
0.000970825
0.00139848
0.000991455
0.00137541
0.00101216
0.00135002
0.0010329
0.00132251
0.00105362
0.00129307
0.00107428