/*--------------------------------*- C++ -*----------------------------------*\
| =========                 |                                                 |
| \\      /  F ield         | OpenFOAM: The Open Source CFD Toolbox           |
|  \\    /   O peration     | Version:  2.2.x                                 |
|   \\  /    A nd           | Web:      www.OpenFOAM.org                      |
|    \\/     M anipulation  |                                                 |
\*---------------------------------------------------------------------------*/
FoamFile
{
    version     2.0;
    format      ascii;
    class       surfaceScalarField;
    location    "0.06";
    object      phi;
}
// * * * * * * * * * * * * * * * * * * * * * * * * * * * * * * * * * * * * * //

dimensions      [1 0 -1 0 0 0 0];

internalField   nonuniform List<scalar> 
1023
(
10
10
10
10
10
10
10
10
10
10
10
10
10
10
10
10
10
10
10
10
10
10
10
10
10
10
10
10
10
10
10
10
10
10
10
10
10
10
10
10
10
10
10
10
10
10
10
10
10
10
10
10
10
10
10
10
10
10
10
10
10
10
10
10
10
10
10
10
10
10
10
10
10
10
10
10
10
10
10
10
10
10
10
10
10
10
10
10
10
10
10
10
10
10
10
10
10
10
10
10
10
10
10
10
10
10
10
10
10
10
10
10
10
10
10
10
10
10
10
10
10
10
10
10
10
10
10
10
10
10
10
10
10
10
10
10
10
10
10
10
10
10
10
10
10
10
10
10
10
10
10
10
10
10
10
10
10
10
10
10
10
10
10
10
10
10
10
10
10
10
10
10
10
10
10
10
10
10
10
10
10
10
10
10
10
10
10
10
10
10
10
10
10
10
10
10
10
10
10
10
10
10
10
10
10
10
10
10
10
10
10
10
10
10
10
10
10
10
10
10
10
10
10
10
10
10
10
10
3.68678
-1.62627
-2.38521
-2.62717
-2.64623
-2.64195
-2.64324
-2.64351
-2.64242
-2.64219
-2.64237
-2.64243
-2.64262
-2.64276
-2.6427
-2.64269
-2.64267
-2.64258
-2.64255
-2.64252
-2.64248
-2.64251
-2.64258
-2.64264
-2.64268
-2.64269
-2.64264
-2.64261
-2.64259
-2.64257
-2.64258
-2.64262
-2.64264
-2.64266
-2.64263
-2.64257
-2.64254
-2.64255
-2.64259
-2.64268
-2.64277
-2.64278
-2.64275
-2.6427
-2.64263
-2.64259
-2.64258
-2.6426
-2.64265
-2.64272
-2.64276
-2.64277
-2.64276
-2.64272
-2.64267
-2.64263
-2.64261
-2.6426
-2.6426
-2.64259
-2.6426
-2.6426
-2.6426
-2.6426
-2.6426
-2.64261
-2.6426
-2.64259
-2.64258
-2.64258
-2.64258
-2.64258
-2.6426
-2.64262
-2.64265
-2.64267
-2.64268
-2.64267
-2.64266
-2.64265
-2.64264
-2.64264
-2.64265
-2.64267
-2.6427
-2.64272
-2.64272
-2.64271
-2.64269
-2.64266
-2.64263
-2.64259
-2.64257
-2.64256
-2.64256
-2.64256
-2.64257
-2.64258
-2.64258
-2.64259
-2.6426
-2.64259
-2.64259
-2.64259
-2.64259
-2.64259
-2.64259
-2.64261
-2.64262
-2.64263
-2.64264
-2.64265
-2.64265
-2.64265
-2.64264
-2.64264
-2.64265
-2.64267
-2.64269
-2.6427
-2.64271
-2.64271
-2.64271
-2.6427
-2.64269
-2.64266
-2.64263
-2.64261
-2.64259
-2.64258
-2.64258
-2.64258
-2.64259
-2.6426
-2.64261
-2.6426
-2.6426
-2.64258
-2.64257
-2.64256
-2.64255
-2.64255
-2.64254
-2.64254
-2.64254
-2.64254
-2.64254
-2.64255
-2.64255
-2.64255
-2.64255
-2.64254
-2.64254
-2.64256
-2.64258
-2.64261
-2.64263
-2.64264
-2.64262
-2.64261
-2.64262
-2.64263
-2.64267
-2.64269
-2.64269
-2.64266
-2.64263
-2.64261
-2.64262
-2.64265
-2.64268
-2.64267
-2.64263
-2.64255
-2.6425
-2.6425
-2.64257
-2.64267
-2.64271
-2.6427
-2.64263
-2.64251
-2.64248
-2.64252
-2.64269
-2.64296
-2.64304
-2.64283
-2.64272
-2.64332
-2.6447
-2.6467
-2.65012
-2.6568
-2.66889
-2.68923
-2.71958
-2.74189
-2.75768
-2.76939
-2.77721
-2.78138
-2.78326
-2.78467
-2.78628
-2.78715
-2.78678
-2.78616
-2.78604
-2.78631
-2.78676
-2.78685
-2.78677
-2.78646
-2.78624
-2.78616
-2.78614
-2.78619
-2.78619
-2.78613
-2.78606
-2.78612
-2.78637
-2.78664
-2.78678
-2.78678
-2.78671
-2.78644
-2.78579
-2.78433
-2.78137
-2.77574
-2.76565
-2.74831
-2.71953
-2.67338
-2.60197
-2.4961
-2.35251
-2.2274
-2.12939
-2.05701
-2.00663
-1.97368
-1.95354
-1.94216
-1.93635
-1.9338
-1.93296
-1.93289
-1.9331
-1.93378
-1.93419
-1.93434
-1.93437
-1.93434
-1.93422
-1.93398
-1.93379
-1.93364
-1.93352
-1.93341
-1.93333
-1.93328
-1.93325
-1.93323
-1.93321
-1.93321
-1.93323
-1.93326
-1.93328
-1.9333
-1.93331
-1.93333
-1.93339
-1.93342
-1.93341
-1.93341
-1.9335
-1.9336
-1.93356
-1.93334
-1.93336
-1.93362
-1.93371
-1.9333
-1.93301
-1.93323
-1.93337
-1.93293
-1.93284
-1.93271
-1.93261
-1.9325
-1.9324
-1.93238
-1.93239
-1.93239
-1.93239
-1.93238
-1.93238
-1.93238
-1.93239
-1.93239
-1.9324
-1.9324
-1.93241
-1.93243
-1.93244
-1.93245
-1.93246
-1.93244
-1.93243
-1.93242
-1.93243
-1.93245
-1.93247
-1.93249
-1.9325
-1.9325
-1.9325
-1.93249
-1.93248
-1.93247
-1.93247
-1.93246
-1.93246
-1.93247
-1.93248
-1.93249
-1.93249
-1.93249
-1.93247
-1.93245
-1.93243
-1.93241
-1.9324
-1.93239
-1.93239
-1.93238
-1.93238
-1.93238
-1.93239
-1.9324
-1.93241
-1.93242
-1.93242
-1.93242
-1.93241
-1.93239
-1.93238
-1.93237
-1.93236
-1.93236
-1.93237
-1.93239
-1.9324
-1.93242
-1.93243
-1.93243
-1.93242
-1.93241
-1.93241
-1.9324
-1.9324
-1.9324
-1.93241
-1.93243
-1.93244
-1.93245
-1.93245
-1.93245
-1.93245
-1.93244
-1.93244
-1.93244
-1.93244
-1.93244
-1.93245
-1.93246
-1.93247
-1.93247
-1.93247
-1.93246
-1.93244
-1.93243
-1.93242
-1.9324
-1.93239
-1.93239
-1.93239
-1.93239
-1.93239
-1.93241
-1.93242
-1.93243
-1.93243
-1.93243
-1.93243
-1.93241
-1.9324
-1.93238
-1.93238
-1.93238
-1.93239
-1.93241
-1.93243
-1.93246
-1.93247
-1.93248
-1.93248
-1.93247
-1.93245
-1.93243
-1.93242
-1.93241
-1.93241
-1.93242
-1.93243
-1.93245
-1.93246
-1.93246
-1.93246
-1.93245
-1.93243
-1.9324
-1.93238
-1.93236
-1.93236
-1.93236
-1.93237
-1.93238
-1.93241
-1.93243
-1.93244
-1.93244
-1.93244
-1.93243
-1.9324
-1.93238
-1.93237
-1.93237
-1.93237
-1.93238
-1.93241
-1.93245
-1.93248
-1.93249
-1.93249
-1.93249
-1.93247
-1.93244
-1.93241
-1.9324
-1.93239
-1.9324
-1.93242
-1.93245
-1.9325
-1.93253
-1.93254
-1.93253
-1.93252
-1.93249
-1.93243
-1.93238
-1.93236
-1.93235
-1.93235
-1.93236
-1.9324
-1.93246
-1.93249
-1.9325
-1.9325
-1.93249
-1.93246
-1.9324
-1.93234
-1.93232
-1.93231
-1.93231
-1.93233
-1.93238
-1.93246
-1.9325
-1.93252
-1.93253
-1.93252
-1.93249
-1.93242
-1.93236
-1.93233
-1.93232
-1.93233
-1.93234
-1.93241
-1.93249
-1.93254
-1.93255
-1.93255
-1.93255
-1.93251
-1.93242
-1.93235
-1.93232
-1.93231
-1.93232
-1.93234
-1.93242
-1.93251
-1.93256
-1.93257
-1.93257
-1.93255
-1.93249
-1.93238
-1.93229
-1.93225
-1.93224
-1.93225
-1.93229
-1.9324
-1.93251
-1.93257
-1.93259
-1.9326
-1.93258
-1.93251
-1.93237
-1.93227
-1.93223
-1.93221
-1.93223
-1.93229
-1.93245
-1.93258
-1.93264
-1.93266
-1.93267
-1.93265
-1.93256
-1.93238
-1.93226
-1.93221
-1.93219
-1.93219
-1.93226
-1.93247
-1.93263
-1.93268
-1.93269
-1.93266
-1.93263
-1.93251
-1.93237
-1.93224
-1.93217
-1.93211
-1.93209
-1.93214
-1.93245
-1.93277
-1.93285
-1.93278
-1.93255
-1.93245
-1.93252
-1.93253
-1.93213
-1.93174
-1.93281
-1.93292
-1.92957
-1.92922
-1.96073
-2.00984
-2.18174
-4.44151
-9.9997
-10
-10
-10
-10
-10
-10
-10
-10
-10
-10
-10
-10
-10
-10
-10
-10
-10
-10
-10
-10
-10
-10
-10
-10
-10
-10
-10
-10
-10
-10
-10
-10
-10
-10
-10
-10
-10
-10
-10
-10
-10
-10
-10
-10
-10
-10
-10
-10
-10
-10
-10
-10
-10
-10
-10
-10
-10
-10
-10
-10
-10
-10
-10
-10
-10
-10
-10
-10
-10
-10
-10
-10
-10
-10
-10
-10
-10
-10
-10
-10
-10
-10
-10
-10
-10
-10
-10
-10
-10
-10
-10
-10
-10
-10
-10
-10
-10
-10
-10
-10
-10
-10
-10
-10
-10
-10
-10
-10
-10
-10
-10
-10
-10
-10
-10
-10
-10
-10
-10
-10
-10
-10
-10
-10
-10
-10
-10
-10
-10
-10
-10
-10
-10
-10
-10
-10
-10
-10
-10
-10
-10
-10
-10
-10
-10
-10
-10
-10
-10
-10
-10
-10
-10
-10
-10
-10
-10
-10
-10
-10
-10
-10
-10
-10
-10
-10
-10
-10
-10
-10
-10
-10
-10
-10
-10
-10
-10
-10
-10
-10
-10
-10
-10
-10
-10
-10
-10
-10
-10
-10
-10
-10
-10
-10
-10
-10
-10
-10
-10
-10
-10
-10
-10
-10
-10
-10
-10
-10
-10
-10
-10
-10
-10
-10
-10
)
;

boundaryField
{
    front-back
    {
        type            empty;
        value           nonuniform 0();
    }
    inlet-outlet
    {
        type            calculated;
        value           uniform -10;
    }
    top-down
    {
        type            empty;
        value           nonuniform 0();
    }
}


// ************************************************************************* //
