/*--------------------------------*- C++ -*----------------------------------*\
| =========                 |                                                 |
| \\      /  F ield         | OpenFOAM: The Open Source CFD Toolbox           |
|  \\    /   O peration     | Version:  2.2.x                                 |
|   \\  /    A nd           | Web:      www.OpenFOAM.org                      |
|    \\/     M anipulation  |                                                 |
\*---------------------------------------------------------------------------*/
FoamFile
{
    version     2.0;
    format      ascii;
    class       volScalarField;
    location    "0.25";
    object      divBf;
}
// * * * * * * * * * * * * * * * * * * * * * * * * * * * * * * * * * * * * * //

dimensions      [1 -3 -2 0 0 -1 0];

internalField   nonuniform List<scalar> 
14161
(
659.588
262.554
379.388
387.884
397.639
240.871
92.73
-58.516
-63.8162
-119.829
-51.376
-44.0054
-26.3727
-56.1499
-26.5072
29.4968
72.3294
158.352
21.3652
-266.485
-530.626
-661.823
-758.515
-781.569
-863.744
-715.041
-700.111
-622.061
-485.081
-226.805
-243.946
-147.562
9.15503
62.6364
191.87
319.46
483.567
678.563
881.825
1216.54
1632.37
2122.57
2741.71
3535.13
4305.05
-23395
-23790.1
-24090.3
-24649.3
-23976.6
-24501.3
-24341
-24288.7
-23076
-23049.9
-22428.4
-22139.6
-20631.1
-19782.3
-19526.3
-18143.3
-16719.2
-15386.8
-14628.7
-13443.6
-11945.5
-10566.3
-10328.2
-9855.19
-8342.9
-6489.1
-4927.12
-2397.76
-1921.13
-2798.98
-48424.2
-163649
5834.93
6940.5
15108.1
11870.4
9739
11380.1
12486.6
17968.2
17061.6
19292.2
16587.7
17658
11403.7
12183.1
11648
7585.79
4632.64
4769.41
3209.37
2479.56
954.586
-1374.84
-1331.74
-3498.09
-4102.88
-5277.41
-7059.54
-7763.87
-8951.51
-10654.3
-11077.2
-11090.2
-12131
-11588
-12692.2
-9147.08
-11146.5
-3286.82
-8221.31
2846.36
-5487.09
5975.38
-970.546
331.509
-213.305
-520.131
-883.357
-757.997
-189.835
-29.1374
168.971
366.248
114.36
-177.883
-360.373
-544.934
-824.278
-1193.16
-1612.75
-2112.52
-2325.11
-1326.51
-640.743
-198.735
111.933
490.187
766.847
816.113
594.391
177.015
-253.217
-614.852
-836.131
-958.387
-1040.86
-1117.22
-1041.67
-868.784
-646.961
-441.134
-96.384
198.382
516.244
979.247
1369.28
1981.41
2615.13
-20822.7
-21700.6
-22403
-22700.3
-22654.1
-22769.5
-22378.6
-22299.5
-21782.5
-21249.5
-20590.8
-20157.9
-19137.9
-17934.3
-17039.7
-15810.7
-15045.4
-13812.7
-12340.4
-11180.8
-10190.2
-8702.9
-5605.12
-3223.28
-2801.66
-2229.71
-807.813
1007.7
2210.96
7224.72
-36545.7
-75053.7
-3168.57
-14070.1
12943.3
5254.78
16520.3
11719.1
13622.6
19191.7
13173
13055.5
13763.1
13272
14913.5
11354.8
9407.75
11512.5
8996.42
7351.09
5043.58
5809.32
4900.56
1871.36
95.0412
-1097.99
705.831
-6097.82
-4622.55
-4362.49
-9310.33
-7823.78
-8968.2
-9818.03
-9820.6
-9208.22
-10150.3
-6276.13
-8928.02
-1982.43
-6777.84
3126.83
-4214.73
5690.98
1800.27
-493.555
259.305
650.217
1123.46
923.84
-136.196
-571.771
-1105.62
-1459.72
-1246.15
-846.434
-628.391
-407.573
-101.161
359.446
907.673
1560.48
1833.3
496.97
-991.478
-1706.14
-2378.11
-3201.16
-3717.39
-3809.06
-3575.92
-3027.01
-2402.4
-1830.97
-1391.32
-1172.44
-910.208
-719.849
-599.731
-597.089
-592.023
-552.311
-447.423
-328.905
-102.172
264.716
687.48
1247.24
1930.71
-17343.1
-17149.8
-17147.6
-17220.8
-17337.2
-17357.6
-17325.5
-17043.3
-16761.7
-16347.1
-15873.4
-15254.5
-14790.7
-14185.2
-13680.9
-12754.2
-11923
-11041
-9836.61
-8213.08
-7376.9
-7583.95
-7513.11
-7706.39
-6219.4
-5642.42
-4598.43
-3675.36
-4074.11
2598.45
-33727.8
-68340.3
3687.53
931.449
11809.2
11447.9
16468.9
16412.9
14520.9
22961.5
20705.3
17954.8
17032.8
17212.4
14954.9
14820.8
12947.2
11308.5
10306.9
9170.54
8737.75
7003.29
5025.73
5341.41
5096.26
3198.26
-4308.53
1203.19
-1647.17
-5977.77
-4268.27
-6856.55
-7070.59
-7589.83
-8076.07
-6899.84
-8776.69
-4787.06
-7875.32
-1413.78
-6817.9
2579.28
-4673.18
5140.16
-2795.68
105.016
-983.483
-1574
-2273.49
-2119.59
-931.169
-424.872
152.149
451.57
78.2213
-496.441
-826.722
-1170.76
-1684.19
-2371.75
-3176.88
-4063.81
-4669.47
-3042.82
-1365.95
-765.567
294.404
992.836
1409.05
1584.19
1247.43
583.654
-239.621
-999.224
-1528.69
-1920.61
-2134.82
-2294.08
-2383.55
-2235.03
-2014.88
-1789.66
-1481.8
-1210.68
-814.72
-354.097
78.0906
460.728
1130.47
-15544.7
-16818.2
-17597.2
-17772.4
-17755.5
-17859.8
-17605.8
-17375.5
-16761.4
-16700.5
-16030.3
-15449
-14320.7
-13433.9
-12611.2
-11622.3
-10709.5
-9550.64
-8509.46
-7145.96
-5870.6
-3936.25
-2067.68
771.306
1499.97
2412.77
3070.56
4474.32
4005.97
11774
-30533.5
-51174.1
17218.4
-13166.9
12751.9
11619.2
15379.7
12300.8
12677.1
16813
13439.8
15296.3
13246.6
13826.3
12196.8
13432.4
11641.9
12876.2
11172.2
9739.55
8539.24
7504.7
6227.21
5830.76
1326.96
1012.66
944.829
-309.533
-4896.03
-2303.46
-3516.99
-6907.5
-5599.83
-6151.46
-7501.05
-5281.55
-7158.63
-3738.17
-6774.01
-1114.74
-5959.12
2241.74
-4624.51
4446.01
2376.88
-1151.28
32.8885
628.493
1334.28
1167.98
-276.205
-1045.23
-1819.36
-2186.91
-1970.52
-1418.04
-1107.48
-809.957
-353.355
282.456
1055.09
1896.34
2522.91
693.378
-1205.42
-2160.92
-3397.85
-4345.51
-4952.21
-5329.04
-5116.98
-4463.19
-3725.52
-2971.93
-2408.51
-2125.27
-1803.34
-1633.9
-1510.42
-1459.12
-1560.94
-1625.68
-1670.71
-1643.76
-1605.48
-1401.85
-1158.38
-694.771
-69.7418
-13440.6
-12476.2
-12413.5
-12184
-12334.2
-12401.5
-12339.6
-12040.6
-11811.8
-11334.9
-10981
-10515.8
-10086.2
-9613.68
-9127.75
-8268.25
-7391.42
-6627.3
-5047.63
-4370.64
-4613.15
-4290.07
-3698.65
-3211.81
-2511.47
-1209.65
-1542.49
-850.221
-1478.32
1464.72
-47750.6
-83000.2
13222.3
-3571.39
17970
16359.1
20001.3
15734.3
18512.3
22432.3
21606.6
20051.1
20009
20725
16867.8
15457.2
15991.8
14199.4
13052.1
11798.1
11633.8
8042.63
7700.83
9655.79
5431.24
4760.43
3152.81
-635.874
1004.74
-2226.93
-3638.88
-3465.11
-5123.77
-4473.79
-6009.23
-4334.63
-6074.4
-2896.56
-6108.37
-782.184
-5727.17
1745.57
-4657.5
3794.7
-3966.29
-186.942
-1550.72
-2253.61
-3061.03
-3063.12
-1597.44
-812.059
-142.565
189.785
-127.187
-785.888
-1191.06
-1586.52
-2164.96
-2921.99
-3826.37
-4817.71
-5696.43
-4048.77
-2278.72
-1260.8
-135.559
611.346
1245.74
1436.55
1171.15
533.677
-286.987
-1079.71
-1846.04
-2401.68
-2640.96
-2788.54
-2970.94
-2970.26
-2802.6
-2643.37
-2337.12
-2062.34
-1669.24
-1322.28
-819.661
-334.967
201.765
-11398.9
-12512.3
-13108.2
-13326.3
-13350.1
-13369.6
-12991
-12675
-12296.4
-12012.5
-11294
-10775.6
-9845.83
-9177.37
-8369.04
-7568.39
-7165.46
-5703.59
-5011.74
-3835.63
-2526.63
-882.825
435.49
2206.32
4603.47
6434.26
8507.71
12958.6
8691.72
12219
-78335.3
-55750.7
22059.8
-2686.89
25345.4
17348.9
21719.6
24988.9
27946.6
18409.7
25183
26587.6
25381.3
23272.9
18785.3
15629.6
15009.1
14389.3
14037
12465.2
10233.6
9658.14
6864.3
6560.44
6460.77
3564.44
1405.56
1903.88
301.728
-1670.04
-1220.81
-2602.36
-4200.85
-3416.5
-4586.8
-3787.1
-5473.73
-2590.16
-5699.65
-957.834
-5541.47
1098.69
-4512.87
3165.42
2303.58
-1641.55
-309.481
329.783
1043.73
1090.64
-444.58
-1384.93
-2088.32
-2644.79
-2392.56
-1849.7
-1527.29
-1299.77
-840.231
-218.273
520.082
1342.09
2141.96
536.243
-1206.8
-2499.09
-3587.78
-4514.06
-5373.39
-5686.02
-5671.31
-5265.46
-4646.99
-4012.96
-3399.8
-3010.5
-2800.87
-2640.76
-2544.13
-2442.48
-2409.1
-2537.65
-2652.33
-2696.36
-2673.65
-2560.46
-2366.53
-2027.57
-1466.03
-10048.3
-9321.67
-9203.03
-9036.19
-8972.77
-9058.65
-8883.48
-8670.54
-8509.57
-8341.15
-7831.32
-7752.48
-7382.88
-7075.61
-6494.91
-5717.26
-4939.32
-3750.4
-3013.69
-1743.26
-424.742
340.345
746.159
1256.07
813.939
1094.99
-62.7565
2824.5
-680.863
26832.9
-108380
-59694.2
17637.1
9059.86
27904.7
19912.2
24674.2
23674.8
24200.3
19521.2
27361.6
24769.7
23435.4
22962.7
19846
17926.2
16798.9
15780.9
16724.7
14815.7
11707.1
12118.7
9975.3
7957.66
7752.78
6378.35
4324.63
2698.51
1416.7
667.641
-1393.49
-1484.47
-2564.53
-2713.91
-4165.85
-2835.47
-4681.97
-2146.3
-5140.54
-923.901
-5307.33
482.216
-4349.99
2503.5
-4389.26
-579.181
-1913.62
-2565.18
-3257.56
-3502.57
-2102.66
-1203.68
-629.339
-208.568
-440.543
-1039.78
-1461.83
-1756.56
-2234.2
-2934.09
-3704.55
-4563
-5476.39
-4372.73
-2955.19
-1779.87
-1016.53
-190.623
414.253
566.644
479.469
123.663
-508.923
-1179.67
-1818.16
-2366.88
-2780.35
-3036.7
-3187.77
-3266.76
-3252.47
-3136.72
-2981.93
-2753.73
-2517.78
-2186.16
-1816.66
-1427.5
-992.974
-7989.47
-8865.57
-9181.38
-9243.07
-9205.58
-9070.51
-8815.12
-8346.64
-7872.33
-7472.5
-6816.2
-6060.82
-5648.59
-5153.62
-4726.82
-4052.5
-3246.97
-2455.54
-1521.18
-799.282
582.835
1667.83
2357.49
3556.4
5497.03
8685.3
12404.5
18746.9
5696.02
7966.35
-121710
-31721.1
897.874
13417.2
34060
17362.5
31834.4
24238.2
32461.5
26593.1
25577.7
26309.1
27734
26339.1
23440.8
19560.1
16631.4
16233.1
17097.8
15748.8
13177.9
12248.8
10471.6
8559.28
6967.8
5482.5
3855.31
2662.71
2171.55
1173.07
-659.913
-733.795
-1891.62
-1963.26
-3430.9
-2235.64
-4148.87
-2166.87
-4730.99
-1325.76
-4947.75
-130.122
-4143.17
1592.14
1625.67
-1954.33
-751.425
-199.881
348.863
623.655
-702.369
-1637.4
-2185.62
-2797.92
-2633.68
-2221.43
-1923.5
-1765.51
-1475.87
-973.058
-439.512
192.201
866.353
22.9107
-1368.05
-2623.94
-3390.17
-4298.89
-4970.33
-5297.01
-5472.13
-5395.53
-5073.01
-4682.62
-4286.78
-3930.06
-3629.14
-3409.4
-3323.55
-3251.69
-3183.02
-3211.18
-3276.12
-3277.06
-3247.24
-3088.25
-2942.13
-2557.62
-2180.69
-7305.01
-6948.83
-6951.52
-6928.1
-6875.09
-6719.44
-6577.25
-6367.95
-6007.16
-5974.92
-5893.67
-5732.45
-5908.15
-6598.15
-5003.1
-4244.61
-2787.5
-622.46
-17.5326
968.585
1804.31
2938.79
4067.06
5170.08
7417.64
8940.16
7668.75
6822.09
1727.92
-21063.9
-116150
-24961
646.691
14141.3
28148.6
26745.2
32170.4
25743.9
29557.8
27561.8
25078.5
20711.3
20532.8
22351
19820.7
17642.7
18414.6
19500.6
18057.7
17233.3
14719.2
12810.3
11627.2
10487.1
8691.29
7213.96
5449.45
4075.74
2552.01
2044.04
750.919
126.779
-1226.85
-1307.96
-2664.97
-1608.71
-3620.79
-1856.03
-4065.83
-1296.6
-4577.14
-452.676
-4183.96
671.212
-4212.87
-1024.77
-2097.49
-2595.3
-3069.55
-3436.93
-2349.99
-1548.94
-1130.44
-696.591
-817.097
-1242.67
-1614.69
-1864.76
-2171.7
-2668.61
-3212.52
-3834.06
-4521.13
-4174.47
-3182.12
-2290.46
-1844.03
-1225.34
-788.426
-602.855
-568.464
-725.434
-1085.54
-1524.89
-1962.64
-2370.09
-2765.19
-3100.53
-3384.76
-3571.87
-3649.21
-3662.25
-3512.89
-3327.96
-3136.14
-2933.29
-2695.45
-2402.32
-2105.43
-5743.19
-5912.61
-5968.39
-5836.2
-5866.01
-5616.66
-5334.65
-4815.06
-4273.69
-3753.52
-3218.72
-2684.76
-1007.97
1296.72
1547.92
2737.39
2250.87
2799.42
3162.41
3733.18
4340.58
4840.16
6169.82
7261.75
6752.49
6544
6463.87
6706.79
3892.42
-41492.9
-90642.5
2922
8263.71
4216.55
38060.4
35480.5
33637.8
32931
38659.7
27197
25151
21891.2
23954.7
24333.7
22882.6
20463.1
17903.7
17156.1
14385
18153.8
16086.6
14724
11827.7
9837.03
8388.7
7605.83
5918.7
4219.63
3049.79
2322.24
924.419
542.188
-796.722
-782.132
-2119.65
-1331.2
-3179.84
-1896.51
-3724.95
-1752.25
-4205.09
-918.128
-4102.79
-235.9
589.164
-2136.31
-1230.53
-829.715
-465.1
-158.027
-1088.93
-1839.35
-2262.33
-2677.42
-2720.24
-2520.81
-2261.66
-2091.62
-1981.48
-1726.83
-1381.89
-1022.62
-626.382
-814.25
-1750.17
-2619.28
-3132.52
-3787.75
-4281.32
-4661.52
-4891.95
-4989.63
-4930.36
-4793.45
-4643.03
-4460.34
-4202.12
-3908
-3709.98
-3535.84
-3577.2
-3649.51
-3734.6
-3747.27
-3795.15
-3697.18
-3534.92
-3141.24
-2678.15
-4869.31
-4943.94
-5077.83
-5194.52
-5080.94
-5033.47
-4787.09
-4794.41
-4742.95
-4538.27
-4221.51
-3717.82
-3055.19
-3011.57
-2542.12
-2016.75
-1037.22
-239.438
1074.11
2699.24
4604.89
5443.18
6314.92
7156.34
8762.96
11245.5
13891.4
11447
9682.38
-132481
-8909.32
14663.9
6649.96
26948.7
37032.1
38555
30850.3
26090.1
37322.9
27694.6
26482.8
26488.1
26309.8
24595.8
23110.5
19037.3
19988.1
19958.6
19966.5
17725.9
13808.7
13756.2
12017.2
11196.1
9613.46
7912.95
6184.02
5077.56
4046.39
3268.42
1648.65
1193.29
-392.493
-187.098
-1539.84
-1016.13
-2746.26
-1598.91
-3236.48
-1773.43
-3782.09
-1366.63
-3839.67
-1037.44
-3724.12
-1459.97
-2175.77
-2492.8
-2786.13
-3063.68
-2383.62
-1836.67
-1543.82
-1208.07
-1241.23
-1460.12
-1761.65
-1996.75
-2167.96
-2426.5
-2800.75
-3182.3
-3576.07
-3700.15
-3161.77
-2668.45
-2445.12
-2115.32
-1887.21
-1747.83
-1695.99
-1750.8
-1906.26
-2153.74
-2400.41
-2654.99
-2978.31
-3445.73
-3848.05
-4044.9
-4130.57
-4066.82
-3915.17
-3866.38
-3639.04
-3518.06
-3355.83
-3097.25
-2906.13
-3757.36
-3679.15
-3457.55
-3210.19
-2952.39
-2596.49
-2386.79
-1958.13
-1416.65
-936.462
-181.756
657.591
1419.8
2369.65
3186.74
4169.72
5078.93
5301.24
5429.94
5499.1
5822.59
6114.6
7073.82
7917.64
8711.42
8762.58
9658.83
4500.5
-7436.28
-102734
6151.85
4714.32
17823.6
30440.2
45171.6
35722.2
22096.6
30489.8
25327.8
27800.4
26287.4
22919.7
23755.5
24546.5
19992.4
16369.3
19566.1
18241.2
15558.9
14642.8
13266.4
12918.4
12041.2
10789.2
9281.39
8171.92
6697.77
5256.97
3950.66
3381.08
1863.52
1456.18
156.804
127.297
-1134.53
-877.079
-2418.64
-1530.97
-3006.4
-1987.58
-3719
-1834.11
-3623.06
-1808.82
-487.468
-2241.41
-1661.49
-1409.1
-1193.71
-984.796
-1507.14
-1987.12
-2273.5
-2563.19
-2667.75
-2605.54
-2445.12
-2329.29
-2269.93
-2208.66
-2051.21
-1888.58
-1735.63
-1672.05
-2168.76
-2683.73
-2989.48
-3370.83
-3722.91
-4003.68
-4235.63
-4408.24
-4507.16
-4486.45
-4464.7
-4452.74
-4466.21
-4373.47
-4145.23
-4106.12
-4030.06
-4070.37
-4112.62
-4095.76
-4053.78
-3859.77
-3650.21
-3356.85
-2904.02
-2821.98
-2946.98
-3025.17
-3079.54
-3100.85
-3028.62
-2934.77
-2764.97
-2536.4
-2285.6
-1969.99
-1593.84
-1181.2
-715.895
-195.141
413.98
1090.73
2086.3
3329.86
4435.72
6418.01
7666.12
8839.33
9980.91
11206.4
12905.2
12717.3
10493.1
-30336
-50338.6
18765.2
19002
20404.9
33983.5
51229.7
32206.6
15568.8
26230.7
21073.9
26672.6
21298.4
18780
21227.9
22313.3
19430.5
20632.1
20816
16055.6
15757.7
13864.2
13410.7
13024.5
11789.2
10931.5
9396.77
8790.34
7328.14
5855.93
4391.89
3836.85
2370.79
1925.23
679.177
732.51
-724.54
-643.237
-1837.08
-1244.01
-2561.92
-1900.7
-3343.48
-1946.77
-3446.1
-2231.78
-3210.84
-1828.59
-2220.89
-2386.3
-2534.32
-2694.06
-2336.16
-2035.4
-1860.1
-1667.89
-1653.15
-1743.95
-1932.69
-2115.29
-2270.76
-2391.4
-2583.83
-2817.42
-3037.83
-3234.76
-3050.39
-2866.94
-2808.34
-2710.17
-2625.6
-2595.02
-2587.55
-2626.71
-2711.02
-2850.38
-3026.76
-3166.86
-3344.07
-3496.36
-3809.94
-4000.38
-4160.6
-4266.93
-4289.84
-4299.39
-4251.57
-4138.39
-3966.65
-3732.51
-3371.53
-2152.26
-2028.47
-1923.12
-1637.5
-1455.72
-1102.46
-668.522
-292.351
210.739
862.486
1471.53
2141.52
2889.23
3633.36
4452.03
5297.53
6104.7
6776.21
7115.97
7373.24
7528.93
7920.29
7915.18
9136.84
9209.56
10230.1
7831.51
9881.32
-104470
-17786.2
30024.2
53056.5
47254.6
53696.7
38597.3
17472.6
16878.8
27720.9
16095
26771.8
18518.7
19236
19986.3
18686.1
16197.7
17902.5
17206.3
13103.2
14095.8
11906.5
12299.8
12183.4
11387.1
10326.8
8987.34
8209.57
7270.14
5736.43
4519.14
4134.33
2648.69
2256.48
1139.6
826.643
-468.899
-389.194
-1530.37
-1219.36
-2443.59
-2101.43
-3127.72
-2316.3
-3358.61
-2711.4
-1360.25
-2309.72
-1985.31
-1841.14
-1728.44
-1616.31
-1862.83
-2109.67
-2276.33
-2451.83
-2544
-2558.52
-2495.02
-2450.33
-2409.85
-2420.51
-2405.09
-2351.93
-2334.04
-2300.86
-2516.92
-2771.56
-2967.85
-3173.21
-3397.37
-3589.84
-3770.81
-3931.08
-4062.86
-4148.66
-4226.11
-4278.52
-4276.03
-4311.29
-4370.27
-4357.08
-4343.48
-4321.99
-4278.02
-4238.09
-4134.32
-4039.64
-3845.85
-3617.34
-3301.39
-1287.27
-1317.95
-1296.93
-1262.21
-1121.38
-922.594
-734.667
-442.476
-156.821
123.158
526.304
1009.77
1476.22
1997.47
2593.24
3293.6
4070.56
4750.81
5649.95
6653.72
7855.96
9358.03
11459.5
12649.1
14325.8
16699.5
10528.3
10464.9
-126782
6803.96
27880.1
69857.6
65722.4
42280.6
26308.2
14121.3
20720.9
25469.3
19430.8
16442
18345.1
18733.1
18429.2
20614.6
20051.1
16136.9
15066.9
12519.5
13657
13179.7
13520.6
11758.2
11615.7
9738.33
8588.38
8065.38
7874.57
6105.75
4748.36
4247.56
2920.94
2414.43
1406.28
1015.61
-339.991
-184.659
-1171.78
-1284.49
-1937.42
-2102.77
-2730.85
-2193.8
-3473.2
-2860.4
-2836.92
-2099.18
-2267.14
-2330.81
-2386.73
-2453.8
-2294.81
-2165.53
-2076.84
-1998.35
-1981.61
-2016.98
-2124.43
-2245
-2356.47
-2448.59
-2553.28
-2679.99
-2818.89
-2953.84
-2969.1
-2951.08
-2979.46
-3002.39
-3024.7
-3066.1
-3118.24
-3184.95
-3270.48
-3377.9
-3490.39
-3640.91
-3768.09
-3896.01
-4036.84
-4173.37
-4286.37
-4393.85
-4453.12
-4474.25
-4458.64
-4385.45
-4271.36
-4127.09
-3838.23
-860.615
-817.605
-677.301
-423.864
-253.457
14.3936
285.132
761.31
1352.69
1681.44
2207.98
2761.11
3541.46
4135.13
4999.16
5697.02
6200.11
6962.76
8078.79
8972.07
10068.8
10696.7
11149.9
11070.3
11793.9
10786
10143.2
-32020.8
-95189.9
12079.4
51180.5
76121.6
63085.3
50953.9
18208.4
20334.5
32446.3
26157.6
20548.5
8725.87
18863.3
15179.2
17101.6
15252.1
16209.2
14963.1
14976
14331.2
14258.9
12193.1
12442.8
11085.2
11200.8
10006
8497.18
7888.52
6913.87
5652.58
4969.29
4585.37
3104.88
2477.86
1541.8
1380.61
5.69502
28.4723
-1007.39
-1233.35
-1928.48
-2334.89
-2296.27
-2539.17
-3402.91
-2762.34
-1936.84
-2357.6
-2189.12
-2107.66
-2050.03
-1999.13
-2095.11
-2198.84
-2279.66
-2377.08
-2437.38
-2474.24
-2476.81
-2473.81
-2471.79
-2495.33
-2537.79
-2573.21
-2591.18
-2635.99
-2719.38
-2862.03
-2998.14
-3120.51
-3266.38
-3403.91
-3540.41
-3672.85
-3797.4
-3901.87
-3998.93
-4093.9
-4184.62
-4246.74
-4312.74
-4357.56
-4406.15
-4440.36
-4457.18
-4397.08
-4281.4
-4122.11
-4048.98
-3764.52
-3436.7
182.808
296.675
441.057
666.055
856.607
1083.56
1424.4
1765.51
1939.32
2462.29
2906.98
3406.66
3877.9
4547.57
5260.11
5954.45
6709.51
7329.16
7993.37
8387.92
9251.96
10096.4
11865.9
12350.7
13235.5
12733
11589.8
-70807.2
-2877.86
20278.3
72388.6
81884.2
57185
32333.2
21277.3
21687.3
20855.7
17294.2
6638.62
19148.7
14088.3
15523
15305.4
12569.8
13691.6
12368.5
13539
12503.9
11544.5
11096
11030.3
11004.5
10570.3
8618.65
8235.98
7785.74
6598.25
6028.44
5202.37
4574.88
3226.29
2757.52
1717.59
1507.89
319.613
376.052
-771.575
-1288.43
-1563.47
-1651.51
-2388.52
-2303.54
-3248.13
-2787.76
-2624.2
-2266.58
-2309.23
-2316.91
-2324.94
-2339.6
-2280.48
-2237.9
-2203.27
-2185.58
-2184.87
-2207.45
-2269.85
-2343.71
-2425.99
-2503.37
-2575.81
-2654.21
-2739.45
-2836.98
-2914.2
-2970.59
-3034.03
-3101.91
-3180.79
-3263.06
-3346.53
-3440.05
-3539.7
-3648.82
-3761.16
-3876.59
-4003.03
-4125.59
-4236.27
-4347.89
-4455.77
-4562.37
-4594.58
-4612.23
-4657.52
-4643.86
-4479.12
-4238.03
-4027.21
168.292
242.306
362.409
467.769
693.417
926.248
1144.07
1396.37
1771.14
2183.39
2664.1
3145.79
3735.79
4318.54
4949.31
5549.17
6662.49
7587.9
8459.38
9209.97
10137.1
11443.7
12846.4
14742.3
15535.6
12225.2
14849.2
-146168
7011.43
71404.8
94196.2
94995.2
37321.4
18633.4
18930.2
18010.2
15617.2
9970.37
10180.4
17034.2
10764.7
14738.9
12830.6
11472.9
11765.3
11981.8
14429
13135.1
11838.2
11571.6
10777.7
8821.26
9393.3
8407.77
8878.11
7489.62
6037.78
5868.23
4960.19
4335.7
3505.78
2952.31
1928.43
1735.62
490.303
368.569
-477.703
-929.05
-1462.71
-1201.78
-2774.02
-2494.74
-3215.18
-2828.59
-2246.28
-2382.68
-2291.27
-2239.28
-2205.22
-2182.59
-2211.22
-2247.43
-2282.01
-2333.2
-2371.61
-2407.21
-2436.84
-2459.23
-2488.83
-2524.22
-2571.35
-2625.32
-2689.3
-2743.15
-2820.26
-2913.23
-3012.56
-3114.63
-3225.65
-3335.58
-3447.81
-3563.7
-3676.7
-3786.2
-3892.13
-3991.92
-4093.46
-4183.71
-4250.04
-4330.8
-4365.83
-4370.33
-4382.08
-4403.66
-4352.14
-4264.35
-4084.83
-3886.67
-3622.53
1214.37
1459.61
1695.64
2007.4
2352.46
2795.41
3225.77
3705.06
4190.11
4744.46
5316.84
5941.16
6546.76
7029.03
7538.81
7941.85
8408.75
8988.37
9478.47
10204.6
10906
11158.5
11268.2
11462.9
11602.8
10102.5
-25246
-68784.9
40494.5
86645.8
90323.3
47685.6
23979.4
19715.1
22729
20222.1
10104
8973.66
16866.9
14680.3
17352.7
14203.8
10764.9
13659.2
14726
12621.4
12050.6
11012.4
10539.8
9749.61
9413.16
8882.25
9385.31
8426.94
8116.55
6788.79
6230.61
5908.4
5171.85
4676
4131.43
2962.74
1954.39
1888.17
628.199
438.523
-336.651
-831.79
-1083.93
-1756.15
-2043.24
-2350.76
-2745.67
-2980.23
-2514.08
-2342.34
-2327.59
-2309.75
-2296.91
-2290.71
-2271.03
-2261.12
-2254.04
-2261.63
-2272.78
-2297.4
-2339.17
-2392
-2451.59
-2511.86
-2573.2
-2641.46
-2714.72
-2789.59
-2872.31
-2947.08
-3028.23
-3117.02
-3203.32
-3299.64
-3399.79
-3502.08
-3610.31
-3722.45
-3837.84
-3954.19
-4073.25
-4193.17
-4314.39
-4424.31
-4532.33
-4625.58
-4709.87
-4759.07
-4776
-4743.92
-4657.04
-4462.89
-4187.58
986.666
1014.54
1106.55
1174.9
1313.77
1455.61
1643.25
1811.62
2168.4
2391.86
2654.33
3067.2
3634.28
4397.85
5134.35
6274.18
7408.15
8554.09
9559.95
10933.3
12450.7
13486.3
14275
14817.7
12671.6
9217.73
-74067.2
-9926.11
56122.9
101528
67970.1
36576.7
27304.3
19060.2
17911
14723.2
11155.2
12029.1
12586.9
12320.4
14957.9
10907.1
11596.7
13917.2
13041.8
10629.4
10735.5
9628.72
9887.23
9633.36
9216.4
8092.2
9084.51
7905.31
7211.06
6278.31
6235.48
5194.06
4474.48
4540.4
4224.9
2663.05
2029.63
1971.47
775.734
687.324
-4.62638
-542.813
-1235.18
-1545.23
-1999.99
-2258.8
-2687.1
-2933.06
-2365.11
-2375.15
-2315.61
-2276.59
-2251.34
-2237.24
-2240.98
-2252.89
-2270.18
-2296.78
-2325.32
-2356.61
-2391.53
-2424.35
-2464.48
-2510.37
-2561.48
-2620.19
-2683.81
-2754.21
-2826.22
-2910.41
-2997.1
-3090.9
-3187.53
-3289.71
-3395.18
-3501.4
-3610.15
-3717.93
-3826.74
-3930.91
-4030.4
-4117.77
-4206.61
-4274.42
-4330.55
-4347.68
-4363.98
-4347.17
-4301.04
-4201.53
-4073.04
-3863.82
-3592.89
2216.08
2538.53
2853.54
3276.11
3663.64
4188.87
4701.64
5273.41
5934.39
6658.55
7244.45
8014.77
8655.13
9070.12
9484.92
9842.38
9924.47
9806.61
9672.97
9931.04
10583.6
11443.6
13444.4
15094.2
14112
5742.33
-101577
23827.4
111364
89260.1
53751.4
25759.7
27784
26317.9
16091
9025.4
13584
16591.3
14332.8
15207.8
5607.88
9113.91
13889.3
12193.4
10993.2
10367.6
9920.82
8366.5
8710.74
7955.36
9609.02
8271.52
8529.05
7029.78
7068.9
6390.61
6072.59
5127.26
5431.47
4240.61
4006.2
2870.47
2335.84
1917.16
1150.48
463.544
168.615
-466.848
-961.053
-1537.51
-1616.72
-2303.1
-2349.99
-2945.73
-2436.66
-2342.73
-2308.37
-2280.91
-2261.61
-2249.09
-2243.11
-2242.64
-2246.74
-2261.06
-2279.84
-2305.95
-2340.91
-2383.06
-2432.11
-2485.05
-2541.92
-2603.18
-2670.34
-2741.59
-2817.06
-2898.34
-2981.29
-3071.97
-3164.58
-3259.99
-3362.63
-3467.63
-3576.73
-3688.56
-3802.55
-3921.05
-4039.48
-4158.89
-4278.68
-4392.4
-4508.39
-4616.09
-4706.3
-4779.16
-4807.13
-4813.87
-4754.49
-4635.84
-4397.35
1682.33
1705.09
1760.56
1851.64
1932.14
2056.24
2190.96
2333.12
2532.57
2786.51
3187.17
3607.43
4096.28
4743.84
5791.87
6910.21
8282.57
10127.3
11715.7
12340.9
11949
12102.6
14115.2
14096.2
7321.59
-58147.4
-32244.4
88771.7
107238
62368
33749.6
25771.5
25633.9
21705.2
11521.5
8939.81
11267.3
12021.3
11306.2
8021.93
7252.91
11496.1
11703.4
10187.4
9989.35
9412.26
8276.37
7694.59
8277.54
8225.55
9620.98
7452
7329.9
5771.92
6406.32
5516.24
5566.9
5118.8
5012.17
3296.11
3864.86
2635.59
2526.83
1726.82
1285.33
570.209
80.742
-234.798
-952.924
-1237.77
-1701.61
-2044.06
-2242.21
-2696.7
-2361.92
-2327.11
-2280.66
-2247.67
-2226.85
-2215.27
-2211.45
-2217.38
-2229.26
-2247.55
-2271.5
-2300.04
-2333.29
-2370.53
-2413.43
-2460.87
-2513.84
-2571.58
-2635.82
-2705.2
-2778.82
-2857.96
-2941.47
-3030.77
-3124.37
-3221.77
-3322.66
-3425.97
-3531.5
-3638.48
-3745.64
-3848.93
-3949.75
-4042.48
-4129.54
-4202.96
-4259.42
-4293.31
-4306.93
-4281.5
-4229.06
-4122.38
-3994.6
-3784.35
-3511.15
3009.61
3386.56
3706.77
4190.6
4629.5
5210.49
5765.16
6428.54
7078.43
7742.48
8457.56
9277.32
9880.35
10192.4
10396.5
10360.6
10221.3
10387.2
10660.9
11563.2
13126.8
14710.6
15394
14387.2
12091.5
-67211.3
35050.4
98085.8
77597.6
52448.8
27195.6
24254.3
19372.8
12739.5
8970.68
11367.2
12694.3
13706.3
10605.5
3631.65
12345.4
9863.74
9405.79
9855.94
8400.69
9111.49
8087.33
8490.56
8101.07
7401.52
7978.5
6075.53
6695.66
5622.11
6394.5
5624.88
5585.51
4746.89
4017.04
3320.32
4129.77
2891.28
2687.33
1701.41
1692.31
359.046
520.951
-131.254
-775.8
-1171.47
-1362.53
-1995.92
-1911.81
-2557.14
-2346.36
-2283.05
-2245.35
-2217.15
-2198.09
-2186.85
-2183.11
-2186.35
-2194.87
-2210.54
-2231.79
-2258.39
-2291.53
-2330.03
-2373.85
-2422.73
-2476.54
-2535.24
-2598.77
-2667.19
-2740.75
-2818.59
-2901.14
-2988.98
-3080.75
-3176.54
-3275.61
-3379.57
-3485.56
-3595.89
-3707.35
-3821.64
-3937.38
-4054.47
-4168.32
-4279.97
-4392.79
-4502.41
-4600.73
-4684.9
-4736.56
-4756.5
-4694.02
-4627.42
-4417.96
2270.42
2333.77
2454.97
2523.43
2687.64
2778.5
2931.07
3110
3262.63
3493.2
3861.26
4347.36
4853.43
5912.11
6938.12
7948.56
9300.17
10053.5
10485.7
11069.6
11472
11321
11320.4
6635.63
-28090
12713.3
82064.9
59908.1
53591.9
25562.8
25609.5
23660.3
18277.3
11785.4
12498.3
11771.4
11788.2
11796.7
7511.82
8888.74
10593.2
8608.37
8825.27
7872.97
7243.57
8501.44
8089.52
7669.22
6296.54
5394.57
6869.33
5308.48
6451.49
5040.16
6168.76
4764.36
4927.86
3819.54
3640.69
3367.76
4052.94
2421.11
2806.6
1678.82
1795.66
394.153
558.175
-42.9082
-890.048
-864.041
-1340.54
-1627.91
-1687.31
-2170.49
-2280.86
-2236.46
-2197.72
-2169.96
-2152.12
-2142.42
-2139.92
-2144.66
-2155.82
-2172.4
-2194.73
-2221.88
-2254.56
-2291.29
-2333.58
-2380.8
-2433.03
-2490.06
-2552.03
-2618.84
-2690.78
-2766.97
-2848.21
-2934.09
-3024.88
-3119.17
-3216.63
-3317.92
-3420.86
-3525.74
-3630.88
-3734.41
-3837.2
-3932.65
-4023.42
-4099.09
-4160.11
-4200.77
-4225.8
-4207.48
-4172.18
-4073.75
-3945.19
-3729.29
-3464.3
3618.83
3961.39
4306.53
4749.91
5206.24
5752.31
6301.34
6952.2
7587.98
8255.95
8960.56
9509.02
10071.7
10431.4
10600.3
10350
10570
11111.1
11860.4
13187.1
14782.6
18214.7
15993.3
23696.5
-37373.5
15356.2
79338.8
53789.3
34081.2
25567.9
21690.6
18848.4
14436.9
8549.81
12686
16283.9
14541.3
8590.36
5432.95
13551.2
8668.17
8462.74
7778.21
5804.4
7015.52
7368.56
7168.49
5246.38
5532.67
4814.34
6043.91
4702.56
6051.83
4411.97
5522.02
4106.88
4425.21
3380.65
3685.13
3552.68
3624.76
2478.31
3120.53
1286.76
2024.38
733.549
561.076
-66.0776
-499.793
-700.088
-1290.51
-1373.62
-1389.98
-1947.76
-2223.52
-2174.89
-2140.95
-2116.38
-2100.52
-2092.21
-2091.07
-2096.06
-2107.02
-2123.44
-2145.32
-2172.22
-2204.25
-2241.15
-2283.09
-2329.49
-2380.79
-2437.25
-2498.25
-2564.35
-2634.97
-2710.14
-2790.37
-2874.89
-2962.79
-3055.44
-3151.55
-3251.86
-3355.02
-3460.24
-3567.9
-3677.32
-3786.68
-3897.78
-4007.58
-4114.48
-4217.19
-4313.5
-4404.52
-4481.09
-4536.83
-4562.04
-4536.06
-4456.79
-4281.74
2880.31
3009.85
3158.01
3330.77
3500.62
3681.57
3876.32
4105.24
4366.01
4642.45
5082.84
5571.9
6173.46
7152.16
7970.4
9012.52
10252.1
9959.41
9741.63
9095.39
7443.14
7544.28
9675.41
-15897
8072.77
50046.2
78899.7
49757.7
37940.5
23523.7
26693.8
22667.3
17050.1
14896.9
15585.6
12610.3
10925.1
5988.23
9965.16
9708.35
6421
5424.93
5062.8
5286.48
6072.72
5763.38
6024.81
4470.87
5223.24
4265.63
5035.14
4146.08
5324.75
3882.18
4867.22
3654.54
3748.83
2993.73
3781.33
3272.01
3590.39
2329.92
3038.29
1135.84
2121.66
832.267
674.457
-32.2969
-351.868
-499.471
-1265.17
-951.528
-1014.4
-1584.43
-2146.63
-2106.1
-2074.78
-2052.81
-2039.23
-2032.88
-2033.13
-2039.48
-2051.51
-2068.7
-2091
-2117.94
-2149.93
-2186.27
-2227.37
-2272.95
-2323.23
-2378.29
-2438.1
-2502.51
-2571.32
-2644.84
-2723.1
-2805.06
-2891.53
-2982.62
-3077.23
-3174.35
-3274.62
-3376.28
-3478.42
-3581.02
-3681.6
-3779.23
-3870.16
-3951.88
-4021.91
-4072
-4104.74
-4107.14
-4074.37
-4003.67
-3876.97
-3705.91
-3442.09
4011.23
4324.92
4659.97
5065.8
5503.88
5968.01
6481.78
6985.08
7524.74
8127.81
8715.48
9202.92
9710.97
10209.4
10518.1
10846.9
11415
11653.1
12462.3
13255.9
15863.3
17930.5
21901.7
-7633.17
8456.68
81213.4
35493.3
49391.5
23309.2
22151.8
18143.2
14799.1
11134.5
13554.7
13548.1
10531.8
8953.77
4915.35
10522
4567.42
7065.58
2460.63
4093.26
5771.13
5096.4
4598.66
4747.08
3432.82
3957.28
3641.44
4528.02
3672.49
4456.65
3784.43
4018.88
3158.61
3233.33
2749.97
3376.79
3145.3
3796.58
2026.7
2693.25
1213.18
1956.03
745.935
880.4
-37.0223
-163.117
-364.501
-973.633
-613.88
-726.408
-1416.53
-2065.2
-2027.58
-2000.53
-1981.92
-1970.94
-1966.67
-1968.62
-1976.11
-1988.92
-2006.65
-2029.25
-2056.27
-2087.95
-2123.99
-2164.6
-2209.54
-2259
-2312.85
-2371.23
-2433.99
-2501.49
-2573.5
-2649.99
-2730.76
-2815.5
-2903.77
-2995.91
-3091.13
-3189.17
-3289.66
-3392.36
-3496.26
-3599.95
-3703.09
-3804.76
-3903.22
-3997.62
-4084.68
-4161.77
-4223.26
-4262.53
-4274.68
-4241.66
-4155.79
-3995.23
3485.07
3670.29
3868.47
4091.67
4337.26
4597.91
4899.12
5252.24
5595.07
6023.38
6462.95
6890.51
7491.79
8129.72
8728.57
9579.36
10071.5
11010.4
11677.2
10876.6
10062.3
6297.72
-166.682
8009.85
30434.2
70945.4
41766.9
44434.5
29203.8
27117.7
17001.3
14029
10195.1
11521.8
10349.5
7462.73
6229.74
6859.26
8316.8
4437.91
4940.42
2840.08
3998.11
4073.27
4525.46
3466.8
3555.56
3123.34
4592.38
3978.84
3134.01
2510.13
3771.05
3347.93
2973.4
2650.17
2895.42
2755.82
3153.85
2988.99
3206.3
1617.57
2365.52
1563.61
1579.03
860.598
1033.03
-104.947
79.0031
-228.866
-731.055
-433.031
-549.514
-877.907
-1973.74
-1941.95
-1918.88
-1903.69
-1895.52
-1893.6
-1897.37
-1906.35
-1920.27
-1938.75
-1961.74
-1988.95
-2020.51
-2056.27
-2096.24
-2140.32
-2188.8
-2241.45
-2298.53
-2359.85
-2425.59
-2495.73
-2570.09
-2648.52
-2730.93
-2816.87
-2906.48
-2999.04
-3094.46
-3192.02
-3290.65
-3389.41
-3486.92
-3580.98
-3671.95
-3755.49
-3828.34
-3888.49
-3927.44
-3942.62
-3931.03
-3878.68
-3778.66
-3619.17
-3396.02
4283.14
4565.78
4903.56
5257.98
5672.58
6064.76
6499.61
6948.48
7399.04
7890.92
8403.72
8945.82
9551.28
10155.2
10564.4
11537.8
12420.8
12616.3
12103.2
12592.9
12802.2
16146.7
6647.1
18758.9
70727
35728.6
55172.3
26066.9
18072.4
16203.6
13536.4
9269.26
7517.49
9444.73
8638.98
5786.74
4963.03
7041.48
5069.78
5927.61
1712.5
3614.04
3738.99
2765.28
4329.81
2953.39
3834.28
3423.64
2786.42
2199.12
1992.94
1907.89
2177.39
2408.18
2395.27
2679.09
2566.28
2893.5
2799.43
2387.35
2275.59
1576.45
2383.03
1639.92
1329.9
954.297
987.474
-193.046
325.447
-139.272
-312.702
-149.144
-146.171
-571.849
-1876.3
-1849.39
-1830.77
-1819.25
-1814.09
-1814.61
-1820.33
-1830.84
-1845.89
-1865.16
-1888.63
-1916.07
-1947.53
-1982.95
-2022.35
-2065.71