/*--------------------------------*- C++ -*----------------------------------*\
| =========                 |                                                 |
| \\      /  F ield         | OpenFOAM: The Open Source CFD Toolbox           |
|  \\    /   O peration     | Version:  2.2.x                                 |
|   \\  /    A nd           | Web:      www.OpenFOAM.org                      |
|    \\/     M anipulation  |                                                 |
\*---------------------------------------------------------------------------*/
FoamFile
{
    version     2.0;
    format      ascii;
    class       surfaceScalarField;
    location    "2.2";
    object      cfmax;
}
// * * * * * * * * * * * * * * * * * * * * * * * * * * * * * * * * * * * * * //

dimensions      [0 3 -1 0 0 0 0];

internalField   nonuniform List<scalar> 
28084
(
0.00126049
0.00124738
0.00124353
0.00124138
0.00124145
0.00124008
0.00123881
0.00123809
0.00123687
0.00123638
0.00123677
0.00123833
0.00124016
0.00124184
0.00124428
0.0012476
0.00125076
0.00125362
0.00125648
0.00125929
0.00126173
0.00126406
0.00126621
0.00126817
0.00126959
0.0012709
0.00127225
0.00127366
0.00127481
0.00127576
0.00127686
0.00127792
0.00127888
0.00127996
0.00128103
0.00128442
0.00129001
0.00130476
0.00132696
0.001392
0.00118613
0.000959872
0.000970999
0.000968736
0.000959668
0.000968232
0.000977351
0.000986155
0.000992622
0.00100004
0.00100645
0.00101475
0.00102465
0.00103346
0.00104329
0.00105451
0.00106669
0.00107941
0.00109031
0.00110116
0.00111263
0.00112423
0.0011367
0.00114871
0.00115894
0.00116825
0.00117753
0.00118636
0.00119456
0.0012013
0.00120799
0.00121569
0.00122405
0.00123174
0.00123703
0.00123948
0.00123941
0.00123434
0.00122748
0.00121657
0.00120331
0.00119232
0.00118317
0.00117711
0.00117192
0.00116646
0.00116135
0.00115726
0.00115234
0.00114922
0.00114809
0.00114509
0.00114029
0.00113314
0.00112256
0.00110427
0.00108302
0.00105635
0.00102468
0.000988538
0.000950283
0.000918189
0.000891009
0.000869026
0.000850397
0.000835908
0.000823397
0.000813104
0.000803988
0.000797115
0.000790425
0.000785348
0.000780271
0.000775184
0.000769098
0.000763954
0.000757097
0.0007469
0.00348242
0.00358187
0.00121851
0.00358344
0.0012515
0.00356605
0.00125319
0.00353596
0.00125386
0.00350281
0.00125407
0.00346515
0.00125672
0.00342435
0.00126074
0.00337803
0.00126654
0.00332167
0.00127277
0.00325599
0.00127938
0.00318882
0.00128487
0.00311624
0.00128963
0.00303843
0.0012944
0.00295755
0.00129925
0.00287524
0.00130455
0.00279112
0.00131
0.00270388
0.0013151
0.00261445
0.00132036
0.00252339
0.0013255
0.00243142
0.00133047
0.00233968
0.00133552
0.00224904
0.00134065
0.00215881
0.00134598
0.0020683
0.00135128
0.00197896
0.00135667
0.00189144
0.00136203
0.00180607
0.00136679
0.00172285
0.0013705
0.00164179
0.00137318
0.00156304
0.0013742
0.00148537
0.00137473
0.00140909
0.00137381
0.00133536
0.00137323
0.00126434
0.00137217
0.00119712
0.00137111
0.001132
0.00136986
0.00107272
0.00136847
0.00101481
0.00136719
0.000984736
0.00136072
0.000984328
0.0013593
0.000679152
0.000879297
0.000619689
0.000781571
0.000578541
0.000761591
0.000544851
0.00075802
0.000549395
0.000761811
0.000553269
0.00078096
0.000558745
0.000803288
0.00056416
0.000825166
0.000569409
0.000848896
0.000574257
0.000874623
0.000579469
0.000897715
0.00058415
0.000918518
0.000589318
0.000939334
0.000595583
0.000961142
0.000602433
0.000983554
0.00061029
0.00100496
0.000617861
0.00102684
0.000624558
0.0010485
0.000631612
0.00106824
0.000640281
0.00108977
0.000646124
0.00111061
0.000647668
0.0011263
0.000649362
0.00114055
0.000651363
0.00115485
0.000654062
0.00117044
0.000656672
0.00118138
0.000659141
0.00119069
0.000661811
0.00119749
0.00066469
0.00120247
0.000668201
0.00120684
0.000673356
0.00121017
0.000679353
0.00121181
0.000683408
0.00121078
0.000684087
0.00120725
0.000682199
0.00119999
0.000680752
0.00118959
0.000678496
0.00117775
0.000678937
0.00116596
0.000678885
0.00115336
0.000680373
0.00114109
0.000681689
0.00113068
0.000683102
0.00112052
0.00068468
0.00111223
0.000688087
0.00110491
0.000696426
0.00109902
0.000702928
0.00109149
0.000696579
0.00107757
0.000689303
0.00104777
0.000686497
0.00101232
0.000682373
0.000974677
0.000673417
0.000935812
0.000664249
0.000901822
0.000655799
0.000869305
0.00065105
0.00084218
0.000647962
0.00081747
0.000644389
0.000794734
0.000641676
0.000774546
0.000642367
0.000758527
0.000645417
0.000745636
0.000649441
0.000735092
0.000649736
0.000726569
0.000650069
0.000719292
0.000650188
0.000713017
0.000651317
0.000707452
0.000651036
0.000701973
0.000651666
0.000696896
0.000652216
0.000693078
0.000653409
0.000690049
0.000653123
0.0006877
0.000655701
0.000687154
0.000657192
0.000687354
0.000661832
0.000688665
0.00066528
0.000691011
0.000672281
0.000694185
0.000675697
0.000697758
0.000684175
0.000704007
0.00069045
0.00071274
0.000703155
0.000727674
0.00349454
0.00357643
0.00129614
0.00358387
0.00127139
0.00356806
0.00127695
0.0035382
0.0012832
0.00350302
0.00129552
0.00346429
0.00129969
0.00342527
0.0013034
0.00337819
0.00130679
0.00332362
0.00130968
0.00325101
0.00131225
0.00317738
0.00131721
0.00310411
0.00132498
0.0030292
0.00133408
0.00295179
0.0013438
0.0028704
0.00135421
0.00278706
0.00136444
0.00270097
0.00137463
0.00261271
0.00138427
0.00252194
0.00139351
0.00243026
0.00140246
0.0023386
0.00141054
0.00224705
0.0014172
0.00215571
0.00142378
0.00206548
0.00143008
0.00197555
0.00143562
0.0018872
0.0014402
0.00180111
0.00144459
0.00171782
0.00144978
0.00163738
0.00145547
0.00156059
0.00146117
0.00148435
0.00146792
0.00140849
0.00147631
0.00133498
0.0014838
0.00126409
0.0014911
0.00119619
0.0014967
0.00113125
0.00150067
0.00107096
0.00150093
0.00100947
0.00149719
0.000968232
0.00148268
0.000846762
0.00145111
0.000610463
0.000859632
0.000576627
0.000770846
0.000535232
0.000755763
0.000515249
0.000761424
0.000532804
0.000776855
0.000542122
0.000804115
0.000549873
0.000833896
0.000560639
0.000861067
0.000568602
0.000886934
0.000576185
0.000913338
0.000581556
0.00093807
0.000590156
0.000964303
0.000596414
0.000989954
0.000602982
0.001015
0.000609307
0.00103796
0.000616194
0.00105924
0.000623338
0.00107965
0.000629695
0.00110026
0.000634296
0.00111868
0.000641514
0.00113612
0.000645007
0.00115231
0.000648425
0.00117035
0.000650989
0.00118592
0.000651764
0.00119784
0.000653424
0.0012082
0.000655885
0.0012175
0.000658088
0.00122524
0.000660645
0.00123158
0.00066317
0.00123655
0.000665641
0.00123955
0.000668377
0.00124058
0.000669872
0.00124054
0.00067075
0.00123873
0.00067221
0.00123616
0.000675088
0.00123267
0.000677556
0.00122676
0.000679888
0.00121573
0.000681791
0.00120366
0.000682993
0.0011913
0.000684096
0.0011778
0.000685528
0.0011646
0.000687187
0.00115133
0.000689152
0.00113736
0.000691554
0.0011244
0.000697224
0.00111333
0.000699406
0.00109491
0.000692708
0.0010591
0.000682074
0.0010148
0.000664008
0.000961572
0.000645797
0.000907626
0.000633974
0.000861783
0.000624749
0.000823562
0.000616414
0.000788562
0.000607993
0.000755596
0.000601691
0.00072763
0.000600367
0.000705116
0.000601416
0.000686872
0.000603092
0.000671803
0.000605634
0.000660362
0.00061037
0.000652097
0.000615021
0.000646328
0.000619672
0.000642201
0.00062319
0.000638872
0.000627706
0.000636966
0.000632261
0.000636323
0.000637041
0.000635653
0.000641484
0.000635975
0.000646846
0.000636819
0.000650426
0.000637963
0.000656472
0.000639294
0.000661032
0.000641109
0.00066756
0.000644212
0.000672657
0.000648034
0.000682066
0.000656344
0.000686506
0.000666828
0.000694661
0.000679418
0.000696756
0.000696029
0.000721389
0.000713667
0.00332697
0.00355082
0.00118525
0.00357852
0.00127297
0.00355579
0.00128357
0.00352151
0.00129032
0.00348388
0.00129144
0.00345217
0.00130281
0.00341144
0.00131575
0.00336596
0.00133019
0.00331657
0.00134589
0.00324876
0.00136305
0.00317706
0.0013777
0.00310605
0.00138927
0.00303168
0.00139974
0.00295651
0.00141053
0.00287656
0.0014218
0.00279329
0.00143265
0.00270707
0.00144287
0.00261648
0.00145291
0.00252429
0.00146292
0.0024317
0.00147266
0.00233887
0.00148269
0.00224685
0.00149298
0.00215651
0.00150304
0.00206725
0.00151327
0.0019786
0.0015237
0.00188949
0.00153461
0.00180314
0.00154515
0.00172016
0.00155361
0.00164039
0.00156022
0.00156395
0.00156417
0.00148577
0.00156666
0.00140902
0.00156737
0.00133489
0.00156611
0.00126159
0.00156461
0.00119234
0.00156318
0.00112535
0.00156176
0.00106065
0.00155964
0.00099326
0.00155212
0.000924138
0.00154068
0.000716409
0.00145696
0.000639075
0.000899665
0.000575825
0.000836214
0.00054234
0.000826924
0.000525757
0.000837884
0.000547555
0.000857424
0.0005576
0.000884249
0.000565599
0.00091558
0.000576578
0.000943671
0.000583527
0.000969113
0.000590483
0.000995894
0.000595647
0.00102017
0.00060382
0.00104218
0.000610264
0.001065
0.000617604
0.00108858
0.000622866
0.0011082
0.000627626
0.0011283
0.000631206
0.00114778
0.000636026
0.0011672
0.000639355
0.0011852
0.000640789
0.00120154
0.000643647
0.001217
0.000645541
0.00123171
0.000648199
0.00124649
0.000650966
0.00125978
0.000653338
0.00127124
0.000655044
0.00128042
0.000655961
0.00128705
0.00065583
0.00129129
0.000655304
0.00129472
0.000654502
0.00129703
0.000654367
0.00129769
0.00065438
0.00129793
0.000654664
0.00129674
0.000658149
0.00129384
0.000662128
0.00128878
0.000666048
0.0012815
0.000668821
0.00127159
0.000672012
0.00125907
0.000673263
0.00124622
0.000674216
0.0012302
0.000674309
0.00121358
0.000673652
0.00119547
0.000672058
0.00117445
0.000667157
0.00114927
0.000669791
0.00111741
0.000677629
0.00109019
0.000686875
0.00106436
0.000684695
0.00102753
0.000677132
0.000983232
0.000667117
0.000940706
0.000651823
0.000892905
0.000643214
0.000845244
0.000631738
0.000805586
0.000622862
0.000773706
0.000617148
0.000746397
0.00061211
0.000719564
0.000609047
0.000697432
0.000610282
0.000682277
0.00061249
0.000670513
0.00061551
0.000660125
0.000616907
0.000650435
0.000619316
0.000643463
0.000622349
0.000638318
0.000627123
0.000633972
0.00063193
0.00063085
0.000638514
0.000628592
0.000644241
0.000627196
0.000651344
0.000626022
0.000656291
0.000626036
0.000663035
0.000627413
0.000667686
0.000630345
0.000674489
0.00063506
0.00067798
0.000640407
0.000686973
0.000649712
0.000691186
0.000661611
0.000698583
0.000676225
0.000700225
0.000692507
0.000727277
0.000712261
0.00333796
0.0035462
0.00133487
0.00357484
0.00130304
0.00355438
0.00131428
0.00351754
0.00132818
0.00348253
0.00135261
0.00345121
0.0013627
0.00341271
0.00137197
0.00336992
0.00138123
0.00332311
0.00138901
0.00325452
0.00139592
0.00317911
0.00140565
0.00310551
0.00141936
0.00303327
0.00143589
0.00295636
0.00145307
0.00287611
0.00147031
0.00279365
0.00148813
0.00270691
0.00150538
0.00261654
0.00152203
0.00252449
0.0015383
0.00243221
0.00155395
0.00234049
0.00156803
0.00224964
0.00158095
0.00215955
0.00159251
0.00207101
0.00160301
0.00198404
0.00161226
0.00189702
0.00161969
0.00180902
0.00162608
0.00172425
0.00163379
0.00164326
0.00164259
0.00156522
0.00165272
0.00148628
0.00166408
0.00140837
0.0016777
0.00133332
0.00169171
0.00125983
0.00170437
0.00119027
0.00171442
0.00112336
0.001722
0.00105815
0.00172434
0.000991818
0.00171985
0.000956614
0.00170884
0.000817994
0.00168874
0.000668437
0.00109491
0.000580058
0.00096618
0.000556698
0.000941631
0.000546294
0.000952419
0.000573817
0.00096933
0.000583644
0.000989476
0.000591588
0.00101713
0.000600983
0.00104245
0.000605917
0.00106545
0.000613424
0.00108892
0.000617137
0.00111113
0.000623776
0.00113423
0.000627193
0.00115571
0.000632177
0.00117632
0.000634557
0.00119683
0.000636895
0.00121687
0.000638788
0.00123757
0.000641102
0.001257
0.000643047
0.00127444
0.000645271
0.00129171
0.000647075
0.00130806
0.000648924
0.00132328
0.000650749
0.00133645
0.000652532
0.00134864
0.000654291
0.00135969
0.000655406
0.00136899
0.000656451
0.00137611
0.000657571
0.00138253
0.000657321
0.00138756
0.000656344
0.00139101
0.000655797
0.00139412
0.000655411
0.00139374
0.000658178
0.00139136
0.000662997
0.00138742
0.000667734
0.00138177
0.000672911
0.00137379
0.000676404
0.00136422
0.000680485
0.00134985
0.000682071
0.00133612
0.000683299
0.00131916
0.000684017
0.00130204
0.000684474
0.00128368
0.000684581
0.00126322
0.000683471
0.00123898
0.00068523
0.00121019
0.000694275
0.00117824
0.000710016
0.00114748
0.00071109
0.00111323
0.000711251
0.00107264
0.000704304
0.00102642
0.000683957
0.000974873
0.000671574
0.000922772
0.000657354
0.000875323
0.000645398
0.000831563
0.000636318
0.000792826
0.000627943
0.000759338
0.000620538
0.000732574
0.000619985
0.000711375
0.000620675
0.000692908
0.000622664
0.000678651
0.00062245
0.000666843
0.000624753
0.000657965
0.000627994
0.000651116
0.000632742
0.00064536
0.000637215
0.000640784
0.000643333
0.000636632
0.000649892
0.000633038
0.000657541
0.0006302
0.000662669
0.000629287
0.000669403
0.000630441
0.000673544
0.000633312
0.000679808
0.000638124
0.000682423
0.000643419
0.000690682
0.000652408
0.000694122
0.000663034
0.000702147
0.000678332
0.000703518
0.000696316
0.000730067
0.000715188
0.00321071
0.00352111
0.00116352
0.00356884
0.00130485
0.00356033
0.00132351
0.0035295
0.00133745
0.00349342
0.0013421
0.00344994
0.00135933
0.00340826
0.00137901
0.00336333
0.0014009
0.00331535
0.00142459
0.00325444
0.00145017
0.00318065
0.00147323
0.00311045
0.0014914
0.0030409
0.00150793
0.00296567
0.00152433
0.00288677
0.00154038
0.00279946
0.00155624
0.00271014
0.00157157
0.00261976
0.00158661
0.00252749
0.00160154
0.00243433
0.00161587
0.00234138
0.00163053
0.00224942
0.00164551
0.0021581
0.00166035
0.0020691
0.00167517
0.00198211
0.0016914
0.00189695
0.00170835
0.0018129
0.00172515
0.00172835
0.00173935
0.00164779
0.00175055
0.00156897
0.00175819
0.00149092
0.00176363
0.00141479
0.00176661
0.00134066
0.00176752
0.00126876
0.00176766
0.00119913
0.00176753
0.00113228
0.00176879
0.00106909
0.00177087
0.00100674
0.00177632
0.000993402
0.00178612
0.000933405
0.00180734
0.000741416
0.00124621
0.000616051
0.00110449
0.000593944
0.00108118
0.000581587
0.00109637
0.000611277
0.0011145
0.00062218
0.0011348
0.000629497
0.00115647
0.00063676
0.00117729
0.000639525
0.00119554
0.00064398
0.00121395
0.000644088
0.0012314
0.000646703
0.00125069
0.000646566
0.00126821
0.000646964
0.00128554
0.000645603
0.00130367
0.00064732
0.0013219
0.000648163
0.00133708
0.000650255
0.00135336
0.000651658
0.00136906
0.000653607
0.00138359
0.000654521
0.00139746
0.000656103
0.00141076
0.000657096
0.0014221
0.000658038
0.00143161
0.000658977
0.00144063
0.000659719
0.00144816
0.0006601
0.00145458
0.000660732
0.00146006
0.000661876
0.00146411
0.000663449
0.001466
0.00066436
0.00146551
0.000664917
0.00146294
0.000670095
0.00145908
0.000676397
0.00145338
0.000681565
0.00144521
0.000688445
0.00143679
0.000692336
0.00142553
0.000697024
0.00140961
0.000699307
0.00139438
0.000702156
0.00137593
0.000704914
0.00135795
0.000708614
0.00133982
0.000712211
0.0013207
0.000714859
0.00129774
0.000720103
0.00127061
0.000727305
0.00123759
0.000746609
0.00120345
0.000756105
0.00116912
0.000762666
0.00113854
0.000761586
0.00110575
0.000744624
0.00106781
0.000726053
0.00102117
0.000707416
0.000971753
0.000686864
0.000922452
0.000668381
0.000874375
0.000653735
0.000827923
0.000642456
0.000788201
0.000637393
0.000758552
0.000633167
0.000735013
0.000632655
0.000716017
0.000631532
0.000698938
0.00063293
0.000685129
0.000635145
0.000674968
0.00063979
0.000666912
0.000644907
0.000659703
0.000651398
0.000653179
0.000657844
0.000647893
0.000664715
0.000643131
0.000669497
0.000640703
0.000675738
0.000640553
0.000679023
0.000642191
0.000685428
0.000646002
0.000687174
0.000649869
0.00069501
0.000657468
0.000697512
0.000666333
0.000706486
0.000682027
0.000706967
0.000699
0.000731838
0.000717002
0.00319582
0.00353812
0.00138152
0.00357848
0.00134141
0.00355768
0.00135618
0.00351851
0.00137731
0.00348323
0.00140913
0.00345082
0.00142766
0.00341293
0.00144549
0.00337182
0.00146219
0.00332784
0.00147627
0.00327501
0.001489
0.0032003
0.00150477
0.00312661
0.00152487
0.00305257
0.00154769
0.00297544
0.001571
0.00289226
0.00159479
0.00280384
0.00161927
0.00271389
0.00164322
0.00262325
0.00166685
0.00253053
0.00168939
0.0024373
0.00171114
0.00234516
0.00173153
0.00225419
0.00175016
0.00216361
0.00176675
0.00207549
0.00178173
0.00198962
0.00179479
0.00190571
0.00180519
0.00182243
0.00181401
0.00173863
0.00182324
0.00165546
0.00183438
0.00157362
0.00184664
0.00149307
0.00185965
0.00141467
0.00187501
0.0013394
0.00189038
0.00126699
0.0019092
0.00119758
0.00192539
0.00113046
0.00194159
0.0010676
0.00195674
0.00100644
0.0019752
0.000996393
0.00199054
0.00102093
0.00202391
0.000794434
0.00169975
0.000646101
0.0012989
0.000644762
0.00129959
0.000632961
0.001319
0.00066771
0.00133321
0.000675261
0.00134382
0.000677578
0.00135141
0.000678692
0.0013588
0.000676242
0.00136497
0.000674634
0.00137255
0.000670407
0.00138026
0.000670739
0.00139014
0.000668456
0.00140054
0.000668708
0.00141113
0.000667552
0.00142431
0.000667043
0.00143674
0.000665972
0.0014511
0.000667289
0.00146581
0.000667531
0.00147945
0.000668919
0.00149267
0.000668952
0.001505
0.000669808
0.00151578
0.000669334
0.00152568
0.000670024
0.00153426
0.000670187
0.00154156
0.000670233
0.0015468
0.000669916
0.00155119
0.000669641
0.00155423
0.000668817
0.00155583
0.000668198
0.00155555
0.000667235
0.00155306
0.000671379
0.00154808
0.000677135
0.00154183
0.000684896
0.00153432
0.000691271
0.00152503
0.000699103
0.00151324
0.000704169
0.00150048
0.000710029
0.00148244
0.000713305
0.00146553
0.00071719
0.00144416
0.000720796
0.00142471
0.000726321
0.00140505
0.000732775
0.00138353
0.000739208
0.00135963
0.000751687
0.00133231
0.000758511
0.00129929
0.000782723
0.00126434
0.000790732
0.00123783
0.000803981
0.0012119
0.000809963
0.0011889
0.000800053
0.00115771
0.000786962
0.00111711
0.00076731
0.00107463
0.000746115
0.00102764
0.000723842
0.000975942
0.000699339
0.000921732
0.00067682
0.00086834
0.000664762
0.000822209
0.00065556
0.000786238
0.000651753
0.000758623
0.000647773
0.000736738
0.000646417
0.000718501
0.000646804
0.000704562
0.000650737
0.000693288
0.000654998
0.000683358
0.000661055
0.00067516
0.000667973
0.000668488
0.000673904
0.000662321
0.0006781
0.000658333
0.00068371
0.000656167
0.000685872
0.000656235
0.000691674
0.000658153
0.000692261
0.000659596
0.000700302
0.000665375
0.000701825
0.000672167
0.000711312
0.000683806
0.000711318
0.00070032
0.000733034
0.000717461
0.00314409
0.00350167
0.00115805
0.00357945
0.00134583
0.00357954
0.00137477
0.00354926
0.0013959
0.00350949
0.00140617
0.00346931
0.00142758
0.00342578
0.00145358
0.0033789
0.00148105
0.00333
0.00151026
0.00327675
0.00154297
0.00320681
0.00157381
0.00313608
0.00159972
0.00306477
0.00162301
0.00298918
0.00164544
0.00290862
0.00166818
0.00282092
0.00168945
0.00273072
0.00170996
0.0026387
0.00172941
0.00254506
0.00174877
0.0024511
0.00176728
0.0023577
0.00178611
0.00226596
0.00180604
0.00217467
0.00182613
0.00208568
0.00184682
0.00199885
0.00186835
0.0019142
0.00189097
0.00183101
0.00191368
0.00174435
0.0019348
0.00166162
0.00195222
0.00158246
0.00196587
0.00150839
0.0019757
0.00143404
0.00198466
0.00136244
0.00199231
0.0012915
0.0019988
0.00122372
0.00200303
0.00115862
0.00200885
0.00109784
0.00201658
0.00103675
0.00202556
0.000993475
0.00203957
0.00109044
0.00205484
0.000856972
0.00204578
0.000711773
0.0015356
0.000715227
0.00145699
0.000688188
0.00147203
0.000721445
0.00147613
0.000717558
0.00147029
0.000711935
0.0014701
0.000707559
0.00147006
0.000702384
0.00147023
0.00069744
0.00147665
0.000692727
0.00148387
0.00069048
0.00149157
0.000687059
0.0015008
0.000687076
0.00151033
0.000685586
0.00152222
0.000687481
0.0015337
0.000687138
0.00154524
0.000688577
0.00155726
0.000688283
0.00156919
0.000689859
0.00158095
0.000689406
0.00159109
0.000690218
0.00160116
0.000689267
0.00160929
0.000689458
0.001617
0.00068817
0.00162304
0.000687688
0.00162714
0.00068635
0.00163033
0.000684872
0.00163243
0.00068317
0.00163314
0.000682329
0.00163219
0.000682555
0.00162927
0.000689897
0.00162338
0.000695564
0.00161618
0.000703136
0.00160734
0.000708928
0.00159688
0.000717028
0.0015832
0.000722354
0.00156879
0.000728538
0.001549
0.000731202
0.00153016
0.000735158
0.00150541
0.000739212
0.00148338
0.000745571
0.00146202
0.000753479
0.00144035
0.000766984
0.00141772
0.000775973
0.00138723
0.000795095
0.00135072
0.00080517
0.0013128
0.000824139
0.00128549
0.00083088
0.00125981
0.000843851
0.0012404
0.00083951
0.0012204
0.000831938
0.00118365
0.000821458
0.00114629
0.000803844
0.00110459
0.000782978
0.00105594
0.000757238
0.00100309
0.00072867
0.000948806
0.000705477
0.000892095
0.000685486
0.000843456
0.000674637
0.000807263
0.000667349
0.000777382
0.000663839
0.000753212
0.000661965
0.000735421
0.000664527
0.000721561
0.000667596
0.000710119
0.000673292
0.000700551
0.000680152
0.000693303
0.000685507
0.000687283
0.000689253
0.000682501
0.000693491
0.000677774
0.000694341
0.000674516
0.0006998
0.000672239
0.000698623
0.000670309
0.000706555
0.000673534
0.000707439
0.000678339
0.000717415
0.000687887
0.000716757
0.000701372
0.000735351
0.000717898
0.00308027
0.00354507
0.00143427
0.00359868
0.00139231
0.00358089
0.00141024
0.00354187
0.00143753
0.00350324
0.00147502
0.00347146
0.00150312
0.00343184
0.00152858
0.00338927
0.00155217
0.00334501
0.00157191
0.00329485
0.00159112
0.00323372
0.0016128
0.00316165
0.00163887
0.00308609
0.0016675
0.00300547
0.00169753
0.00292025
0.00172778
0.0028311
0.00175702
0.00273932
0.0017861
0.00264617
0.00181471
0.00255191
0.00184274
0.00245689
0.00186963
0.00236402
0.00189502
0.00227293
0.00191835
0.00218306
0.0019403
0.00209506
0.00196073
0.00200964
0.00197815
0.00192661
0.00199257
0.00184415
0.00200451
0.00175906
0.00201504
0.00167297
0.00202588
0.00158926
0.00203755
0.00151034
0.00205099
0.00143539
0.00206618
0.00136632
0.00208105
0.00129312
0.00209796
0.00122368
0.00211551
0.00115804
0.00212936
0.00109651
0.0021413
0.00103739
0.00215268
0.000972015
0.00216616
0.000954964
0.00218432
0.000800063
0.00214572
0.000708188
0.00154114
0.000703561
0.00148047
0.000674312
0.00150488
0.000712763
0.001509
0.000714296
0.00151006
0.000713095
0.00151151
0.000710454
0.00151412
0.000708488
0.00151816
0.00070664
0.00152648
0.000704904
0.00153605
0.000704114
0.00154423
0.000704307
0.00155608
0.000705843
0.00156803
0.000706777
0.00158139
0.00070801
0.00159525
0.000707654
0.0016067
0.000708752
0.00161953
0.000708135
0.00163108
0.00070924
0.00164292
0.000707921
0.00165326
0.000708711
0.00166346
0.000707051
0.00167173
0.000706853
0.00167925
0.000704868
0.00168512
0.000703787
0.00168906
0.00070165
0.00169178
0.000700147
0.00169263
0.000697493
0.00169201
0.000695457
0.0016897
0.000700094
0.001686
0.000707774
0.00167965
0.000714336
0.00167269
0.000722523
0.00166278
0.000729279
0.00165267
0.000737698
0.0016392
0.000742949
0.001625
0.000749107
0.00160407
0.000752278
0.00158413
0.00075677
0.0015589
0.000760421
0.00153549
0.000767407
0.00151188
0.000777405
0.00148648
0.000795521
0.00145934
0.000809794
0.00142893
0.0008332
0.00140397
0.00083557
0.00136871
0.000855252
0.00133677
0.000858232
0.00131492
0.000879049
0.00129535
0.000881332
0.00127591
0.000875392
0.00124735
0.000868037
0.00121047
0.000852364
0.00117053
0.000834667
0.00112408
0.000810595
0.00107493
0.000782496
0.00102328
0.000751383
0.000968919
0.000722148
0.000912178
0.000705237
0.000865434
0.000692253
0.00082737
0.000684475
0.000797434
0.00068004
0.000774198
0.000681044
0.000755765
0.000682503
0.000741509
0.000687034
0.00073082
0.00069393
0.000722991
0.000699617
0.000717349
0.000703453
0.00071157
0.000706412
0.000704497
0.000706143
0.000697216
0.000710798
0.000688841
0.000707013
0.000683471
0.000714038
0.000682727
0.000714068
0.000684781
0.000724246
0.000693034
0.000723078
0.000702274
0.000738721
0.000718126
0.00314655
0.00352872
0.0011798
0.00360409
0.00139457
0.00360589
0.00143333
0.00357692
0.00146015
0.00354391
0.00147719
0.00350553
0.00150564
0.00346084
0.0015379
0.00341327
0.00157117
0.00336291
0.00160698
0.00330886
0.00164463
0.00324796
0.00168181
0.00317626
0.00171554
0.00310392
0.0017463
0.00303001
0.00177607
0.00294704
0.00180472
0.00285947
0.00183232
0.00276852
0.00185866
0.00267621
0.00188393
0.00258249
0.00190842
0.00248754
0.00193183
0.00239348
0.00195524
0.00230088
0.0019797
0.00220917
0.0020045
0.00211901
0.00202936
0.00203091
0.00205524
0.00194459
0.0020824
0.00185735
0.00210919
0.00176635
0.0021357
0.00167909
0.00216043
0.00159814
0.00218296
0.00152188
0.00220154
0.00144847
0.00221776
0.00137844
0.00222867
0.00130918
0.00223838
0.00124254
0.00224635
0.00117752
0.00225514
0.00111523
0.00226541
0.0010559
0.00227691
0.00099868
0.00228775
0.000991782
0.00229591
0.000765469
0.00174734
0.000685709
0.00137285
0.000663253
0.00137643
0.000639552
0.00141626
0.000686258
0.00144475
0.000693652
0.00146945
0.000696887
0.00148992
0.000700749
0.00151081
0.00070361
0.00152968
0.000704015
0.00154547
0.000705227
0.00156489
0.000706111
0.00158404
0.000708344
0.00160099
0.000708409
0.00161615
0.000711212
0.00163345
0.000711172
0.00164819
0.000713428
0.00166471
0.000714033
0.00168097
0.000715554
0.00169542
0.000715536
0.00170974
0.000715792
0.00172209
0.000715293
0.00173389
0.000714301
0.0017445
0.000713035
0.00175245
0.000711164
0.00175865
0.000709483
0.00176275
0.000706392
0.00176443
0.000704068
0.00176423
0.000700616
0.00176147
0.000700231
0.00175855
0.00070763
0.00175391
0.000716335
0.00174701
0.000723825
0.00173938
0.000733173
0.00172819
0.000740914
0.00171662
0.00075093
0.00170137
0.000757453
0.00168632
0.000764773
0.00166321
0.000768413
0.00164034
0.000773991
0.00160955
0.000776839
0.00158014
0.000785045
0.00154914
0.000794503
0.00151664
0.000817847
0.00147875
0.000835976
0.00145092
0.000860847
0.00143452
0.000864889
0.00140788
0.000878349
0.00138308
0.000884696
0.00136072
0.000899979
0.00133523
0.000909383
0.00131628
0.000905737
0.00129199
0.00090071
0.00125478
0.000886521
0.00121266
0.000871571
0.00116484
0.000851202
0.00111784
0.000825983
0.00106773
0.000796205
0.00101392
0.000761689
0.000958304
0.000738302
0.000903033
0.000718896
0.000859265
0.000707205
0.000826516
0.000699486
0.000801085
0.000697513
0.000781151
0.00069696
0.000766261
0.000700628
0.00075491
0.000707093
0.000746583
0.000713911
0.000740803
0.000719635
0.000734462
0.000723697
0.000726609
0.000723356
0.000718364
0.000724825
0.000706335
0.000718177
0.000698137
0.000723332
0.00069314
0.000721549
0.000692078
0.000731789
0.000698998
0.000730329
0.000706678
0.000744134
0.00071843
0.00303989
0.00357268
0.00149449
0.00363273
0.00145461
0.00361677
0.00147356
0.00357911
0.00150802
0.0035464
0.00154926
0.00351202
0.00158382
0.00347105
0.00161567
0.00342834
0.00164454
0.00338325
0.00167139
0.00333297
0.00169808
0.00327421
0.0017261
0.00320659
0.00175719
0.00313068
0.00179109
0.00305096
0.00182617
0.00296631
0.00186214
0.00287733
0.00189689
0.00278519
0.00193076
0.00269125
0.00196457
0.00259609
0.00199723
0.00250011
0.00202855
0.00240604
0.00205868
0.00231369
0.00208679
0.0022222
0.00211314
0.0021328
0.00213773
0.00204587
0.00215977
0.00196078
0.00217866
0.00187706
0.00219497
0.00178634
0.00220878
0.00169785
0.00222105
0.00161271
0.00223299
0.00153072
0.00224573
0.00145364
0.00225778
0.00137737
0.00227116
0.00130515
0.00228323
0.00123513
0.00229357
0.00116664
0.00230107
0.00110043
0.00230467
0.00103586
0.00230409
0.000973207
0.00229362
0.000859114
0.00228321
0.000699956
0.00148884
0.000662991
0.00136838
0.000638376
0.00137946
0.000617422
0.0014191
0.000663776
0.00145391
0.000674127
0.00148519
0.000682216
0.00151411
0.000690656
0.00154119
0.000696776
0.00156555
0.000699338
0.00158632
0.000704061
0.0016103
0.000705887
0.00163201
0.000710343
0.0016529
0.000711073
0.00167161
0.000714478
0.00169052
0.000714611
0.00170817
0.000717314
0.00172534
0.000716587
0.00174004
0.000718397
0.00175537
0.000716451
0.00176951
0.000716984
0.00178047
0.000714154
0.00178994
0.000713575
0.00179874
0.000710977
0.00180675
0.000709592
0.00181311
0.000706849
0.00181654
0.000703966
0.00181707
0.00070025
0.00181578
0.0006965
0.00181174
0.000700611
0.00180854
0.00070931
0.00180348
0.000719335
0.00179643
0.000727904
0.00178899
0.000738178
0.0017776
0.000746367
0.00176587
0.000756935
0.00174913
0.000763818
0.00173278
0.000774102
0.0017094
0.00077833
0.00168618
0.000786843
0.00165401
0.000789853
0.00162397
0.0008014
0.00158803
0.00081133
0.00155099
0.000838537
0.00151556
0.000855084
0.00148583
0.000880835
0.00146584
0.000887257
0.00144496
0.000903445
0.001416
0.000912898
0.00139649
0.00092134
0.00136916
0.000934594
0.00134435
0.000938025
0.00132555
0.000935498
0.00129403
0.000924019
0.00125759
0.000909647
0.0012133
0.000893403
0.00116971
0.000868853
0.00112266
0.000841833
0.00107145
0.000806663
0.00101577
0.000774227
0.000956454
0.00074672
0.00090135
0.000730152
0.000860656
0.000719064
0.000831574
0.000713659
0.000809824
0.00071079
0.000793553
0.000713569
0.000781192
0.000720007
0.000771124
0.000728481
0.000763516
0.000736246
0.000755652
0.000741855
0.000747162
0.000744439
0.00073868
0.000741227
0.000728633
0.00073212
0.000718662
0.000734641
0.000709106
0.000729698
0.00070338
0.000740031
0.000707458
0.0007384
0.000712306
0.000751307
0.000722114
0.00323504
0.00360406
0.00124255
0.00366116
0.00146026
0.0036671
0.0015094
0.00363852
0.00154198
0.00360319
0.00156866
0.00356393
0.00159989
0.00351982
0.00163641
0.00347233
0.00167487
0.00342045
0.00171587
0.0033636
0.00175721
0.00330053
0.00179813
0.00322619
0.00183688
0.00315133
0.00187389
0.00307671
0.00190981
0.00299652
0.00194462
0.00291056
0.00197851
0.00281983
0.00201123
0.00272696
0.00204227
0.00263217
0.00207233
0.00253613
0.00210137
0.00244096
0.00212925
0.00234671
0.00215816
0.00225295
0.00218718
0.00216066
0.00221551
0.00206987
0.00224425
0.00198068
0.00227324
0.0018885
0.0023019
0.00179564
0.00233027
0.001706
0.00235771
0.00161911
0.00238358
0.00153709
0.00240594
0.00145872
0.00242571
0.00138302
0.00244294
0.00130901
0.00245672
0.00123694
0.00246866
0.00116734
0.00247956
0.00109951
0.00248772
0.00103132
0.00249559
0.000964925
0.00249622
0.00077595
0.00251544
0.000702683
0.00188824
0.000680131
0.00146336