/*--------------------------------*- C++ -*----------------------------------*\
| =========                 |                                                 |
| \\      /  F ield         | OpenFOAM: The Open Source CFD Toolbox           |
|  \\    /   O peration     | Version:  2.2.x                                 |
|   \\  /    A nd           | Web:      www.OpenFOAM.org                      |
|    \\/     M anipulation  |                                                 |
\*---------------------------------------------------------------------------*/
FoamFile
{
    version     2.0;
    format      ascii;
    class       surfaceScalarField;
    location    "2.2";
    object      phi;
}
// * * * * * * * * * * * * * * * * * * * * * * * * * * * * * * * * * * * * * //

dimensions      [1 0 -1 0 0 0 0];

internalField   nonuniform List<scalar> 
28084
(
0.000747246
0.000742453
0.000740422
0.000736284
0.000734048
0.000732408
0.000731574
0.000732256
0.000732807
0.000732542
0.000732142
0.000732325
0.000733196
0.000734298
0.000734919
0.000735279
0.000736501
0.000737974
0.000739355
0.00074079
0.000742177
0.000743511
0.000744841
0.000746372
0.000747897
0.000748995
0.000750018
0.000751233
0.000752751
0.000754249
0.000755516
0.000756822
0.000757844
0.000758905
0.000759391
0.000760165
0.000761083
0.000764097
0.00076962
0.000802043
0.00106503
0.00110404
0.00109209
0.00109012
0.00108572
0.00109422
0.00110066
0.00110844
0.00111641
0.00112295
0.00113047
0.00114103
0.00115045
0.00115748
0.00116288
0.00117217
0.00118331
0.00119398
0.00120374
0.00121127
0.00122143
0.00123282
0.00124373
0.00125436
0.00126184
0.00126831
0.00127691
0.00128707
0.0012972
0.00130424
0.00130958
0.00131406
0.00131758
0.00132041
0.00132264
0.00132432
0.00132479
0.00132186
0.00131513
0.00130748
0.00129976
0.00129407
0.00128976
0.00128725
0.00128392
0.00128029
0.00127571
0.00127139
0.00126897
0.0012675
0.00126217
0.00125696
0.00125158
0.00124073
0.00122584
0.00120605
0.00118262
0.00115423
0.00111878
0.00107512
0.00102435
0.000975675
0.00092791
0.000883841
0.000841743
0.000802474
0.00076252
0.000723607
0.000683122
0.00064415
0.000600487
0.000555075
0.000500994
0.000442561
0.000373577
0.000302301
0.000216794
0.000121848
2.61051e-06
5.29733e-06
0.000737631
2.45206e-06
0.000744226
2.42158e-06
0.000743934
1.90697e-06
0.000741131
1.29849e-06
0.000738431
8.82577e-07
0.000738709
7.55083e-07
0.000740096
6.10851e-07
0.000742431
3.60742e-07
0.000745747
-5.19541e-08
0.000749923
-7.09406e-07
0.000754535
-1.14907e-06
0.000759646
-8.67821e-07
0.000763421
-6.5755e-07
0.000766212
-5.402e-07
0.00076828
-1.04711e-06
0.000770091
-1.30281e-06
0.000771957
-1.32251e-06
0.000774054
-1.3063e-06
0.000776408
-1.35281e-06
0.000778861
-1.25426e-06
0.000781429
-1.28995e-06
0.000784024
-1.33943e-06
0.000786433
-1.33466e-06
0.000789112
-1.17354e-06
0.000792043
-1.13211e-06
0.000795149
-1.15212e-06
0.000798369
-1.26462e-06
0.000801656
-1.29305e-06
0.000805214
-1.18188e-06
0.000809239
-1.22021e-06
0.000811945
-8.36586e-07
0.000813009
-7.41714e-07
0.000813589
-3.962e-07
0.000813743
-8.74104e-07
0.000813541
-9.60509e-07
0.00081317
-2.72208e-06
0.000812093
-5.57451e-06
0.000810817
-3.26702e-05
0.000807417
-0.000264789
0.00079295
-4.46451e-05
0.000693914
1.27802e-05
0.000643454
3.33376e-06
0.000634869
5.18741e-06
0.000640176
-9.05214e-06
0.000652387
-7.521e-06
0.0006795
-7.86355e-06
0.000707277
-7.82688e-06
0.00073588
-6.59783e-06
0.000768499
-5.41382e-06
0.000801846
-1.04128e-05
0.000829248
-1.00531e-05
0.00085023
-8.03525e-06
0.000874662
-7.11486e-06
0.000900272
-7.63817e-06
0.000925487
-9.86485e-06
0.00094855
-1.08312e-05
0.000970701
-1.00375e-05
0.000992348
-8.54233e-06
0.00101307
-8.96618e-06
0.00103873
-1.08471e-05
0.00106226
-1.13665e-05
0.00107471
-1.04505e-05
0.00108556
-8.73247e-06
0.00110037
-8.13471e-06
0.00111982
-7.67041e-06
0.00113124
-6.9725e-06
0.00113798
-6.6107e-06
0.00114187
-6.28879e-06
0.00114407
-5.95218e-06
0.00114761
-6.3794e-06
0.00115076
-6.69547e-06
0.00115221
-6.60232e-06
0.00115144
-5.70866e-06
0.00114889
-4.12372e-06
0.00114316
-2.41288e-06
0.00113505
6.22277e-07
0.00112247
3.58821e-06
0.00111004
6.22985e-06
0.00109878
8.77882e-06
0.0010899
8.15901e-06
0.00108159
7.08117e-06
0.00107365
4.33014e-06
0.0010667
4.76668e-06
0.00106159
7.3204e-06
0.00105853
8.06251e-06
0.00105021
2.96589e-06
0.00103289
-3.14646e-06
0.000995513
-1.19665e-06
0.000956125
2.09288e-06
0.000907628
4.3759e-06
0.000853155
6.83725e-06
0.000800661
1.039e-05
0.000748275
1.43605e-05
0.0007039
1.91845e-05
0.000663403
2.32373e-05
0.000623876
2.85627e-05
0.000586652
3.62293e-05
0.000554985
4.50777e-05
0.000528521
5.2911e-05
0.000506482
5.14224e-05
0.000487362
4.809e-05
0.000468347
4.37188e-05
0.000449236
4.20641e-05
0.000429803
3.8694e-05
0.000408007
3.91879e-05
0.000385061
3.86002e-05
0.000362784
4.11685e-05
0.000340553
4.03779e-05
0.000317229
4.52896e-05
0.000293399
4.67431e-05
0.000266596
5.47318e-05
0.00023838
5.86877e-05
0.000208906
7.03739e-05
0.000177498
7.29862e-05
0.000142301
8.65441e-05
0.000108826
9.32864e-05
7.61652e-05
0.00011966
5.74614e-05
1.65231e-05
-2.22411e-07
0.000783677
2.95705e-06
0.000770207
4.69998e-06
0.00076589
4.40894e-06
0.00076883
1.8037e-06
0.000777325
-3.42148e-07
0.000786397
-1.83291e-06
0.000791143
-3.15717e-06
0.000793949
-4.58749e-06
0.000794974
-5.32565e-06
0.00079435
-5.35642e-06
0.000793623
-4.61214e-06
0.00079454
-3.88541e-06
0.000797044
-3.32709e-06
0.000800376
-3.0961e-06
0.000805058
-3.33148e-06
0.000810554
-3.32633e-06
0.000816776
-3.33416e-06
0.00082364
-3.27691e-06
0.000830644
-3.42226e-06
0.000837692
-3.53631e-06
0.000844825
-3.84744e-06
0.000851495
-4.15112e-06
0.000856524
-4.35922e-06
0.000860688
-4.38305e-06
0.000864081
-4.43992e-06
0.000866534
-4.35969e-06
0.00086841
-3.9803e-06
0.000870335
-3.41354e-06
0.000872723
-3.05723e-06
0.000875341
-1.94575e-06
0.000877634
-1.11806e-06
0.000881089
-4.84523e-07
0.000884754
2.54044e-07
0.000888587
-5.54223e-08
0.000892678
3.11881e-07
0.000896787
-1.2287e-06
0.000900462
-1.87184e-06
0.000902972
-1.83766e-05
0.000902464
-0.000167909
0.0008827
3.41897e-06
0.000694431
2.1244e-05
0.000611742
-1.18067e-06
0.000605023
-6.54745e-06
0.000623883
-3.55916e-05
0.000654901
-3.44852e-05
0.000698206
-3.48693e-05
0.000742378
-4.1094e-05
0.000783545
-3.89155e-05
0.000821194
-3.82563e-05
0.00085451
-3.29286e-05
0.000887791
-3.56372e-05
0.000922145
-3.26913e-05
0.000954369
-3.15503e-05
0.000982685
-3.07244e-05
0.00100784
-3.26806e-05
0.00102926
-3.41128e-05
0.00105137
-3.20019e-05
0.00107427
-2.76962e-05
0.00108807
-3.14821e-05
0.00109721
-2.9887e-05
0.00110749
-2.69719e-05
0.00112642
-2.39387e-05
0.00114125
-1.97642e-05
0.00114913
-1.71492e-05
0.00115561
-1.50563e-05
0.00116226
-1.27494e-05
0.00116869
-1.09807e-05
0.00117551
-9.58799e-06
0.00118175
-8.14433e-06
0.00118723
-6.48903e-06
0.00119097
-4.50671e-06
0.00119357
-1.93526e-06
0.00119497
1.95273e-06
0.00119415
4.49969e-06
0.00119067
7.89007e-06
0.0011827
1.12336e-05
0.00117243
1.46909e-05
0.00116214
1.65744e-05
0.00115151
1.73459e-05
0.00114086
1.59562e-05
0.00112969
1.39034e-05
0.00111732
1.19379e-05
0.00110312
1.23113e-05
0.00109085
1.75403e-05
0.00108038
2.40099e-05
0.00105368
3.58576e-05
0.00100279
4.28001e-05
0.000943448
4.89974e-05
0.000859307
5.47373e-05
0.000762075
5.4794e-05
0.000678733
5.91632e-05
0.000608801
5.8512e-05
0.000541565
5.63122e-05
0.000475394
5.596e-05
0.000419154
5.85245e-05
0.000375512
6.16297e-05
0.000340156
6.48076e-05
0.000310897
6.73322e-05
0.000286658
7.18633e-05
0.000269482
7.04516e-05
0.00025614
6.77721e-05
0.000243392
6.32763e-05
0.000229706
6.22018e-05
0.000216442
5.97054e-05
0.000202857
6.11135e-05
0.000187959
6.15089e-05
0.000173179
6.61333e-05
0.000158391
6.59444e-05
0.000141568
7.2852e-05
0.000123293
7.5277e-05
0.000102366
8.51558e-05
8.18802e-05
9.14601e-05
6.18448e-05
0.000107732
4.70667e-05
0.00010827
3.44731e-05
0.000119761
2.31216e-05
0.000111045
1.55888e-05
0.000174889
9.46203e-06
-1.3263e-05
1.29379e-05
0.000719165
5.53486e-06
0.000740272
3.32081e-07
0.000748708
-5.00139e-06
0.000750974
-5.72856e-06
0.000747878
-4.14868e-06
0.000747353
-3.63077e-06
0.000752145
-3.2418e-06
0.000759212
-2.8929e-06
0.000768531
-3.12923e-06
0.000780315
-5.07539e-06
0.000793256
-6.59316e-06
0.000805414
-8.0125e-06
0.000814034
-8.80921e-06
0.000820658
-8.89514e-06
0.000826239
-9.37273e-06
0.000830821
-9.83241e-06
0.000834886
-1.01035e-05
0.000838854
-1.01526e-05
0.000842808
-1.01006e-05
0.000847066
-9.50071e-06
0.000852098
-9.02703e-06
0.000857911
-8.71483e-06
0.000864072
-8.20514e-06
0.000870796
-7.27639e-06
0.000877836
-6.60573e-06
0.000885204
-6.29388e-06
0.000892822
-6.24388e-06
0.000900295
-6.35768e-06
0.000907181
-6.50759e-06
0.000912682
-6.69846e-06
0.000915797
-6.45962e-06
0.000917562
-6.33568e-06
0.000918166
-5.58568e-06
0.000917831
-5.60748e-06
0.000917365
-4.53478e-06
0.000917035
-4.62243e-06
0.000916741
-2.20319e-06
0.000915911
7.1792e-08
0.000913876
1.84899e-05
0.000880368
8.45298e-05
0.000689866
2.59892e-05
0.000640616
-2.16239e-05
0.000643744
-3.88487e-05
0.000670056
-7.7787e-05
0.000707709
-7.74008e-05
0.000756046
-7.51338e-05
0.000803403
-7.97466e-05
0.000843183
-7.5047e-05
0.00087863
-7.25614e-05
0.000912158
-6.50551e-05
0.000944077
-6.45156e-05
0.000972541
-6.04588e-05
0.0010064
-5.98942e-05
0.00104309
-5.59213e-05
0.00107449
-5.47221e-05
0.00109907
-5.13736e-05
0.00112364
-4.95887e-05
0.00114958
-4.65202e-05
0.00117322
-4.41863e-05
0.00119118
-4.04168e-05
0.00120767
-3.59903e-05
0.00122439
-3.27251e-05
0.00124309
-2.96039e-05
0.00125955
-2.67153e-05
0.00127081
-2.35016e-05
0.00127923
-1.97467e-05
0.00128533
-1.61678e-05
0.00128986
-1.31885e-05
0.00129365
-1.05518e-05
0.00129902
-7.3215e-06
0.00130356
-3.44924e-06
0.00130698
5.19219e-07
0.00130828
5.41662e-06
0.00130671
1.10322e-05
0.00130273
1.62291e-05
0.00129617
2.11034e-05
0.00128683
2.57009e-05
0.00127568
2.74951e-05
0.00126235
2.85209e-05
0.00124662
2.8145e-05
0.00122882
2.72853e-05
0.00120774
2.68595e-05
0.00118225
2.47778e-05
0.00114962
4.33303e-05
0.00110737
7.07026e-05
0.00106978
0.000106762
0.00102753
0.000132531
0.000957635
0.000136578
0.000878489
0.00013554
0.000797388
0.0001284
0.000701995
0.000131791
0.000607
0.000123964
0.000526766
0.000111621
0.000465747
0.000102794
0.000413268
9.56134e-05
0.000360816
8.93052e-05
0.000317921
8.77266e-05
0.000288491
8.51167e-05
0.000265063
8.69922e-05
0.000244901
8.35284e-05
0.000226038
8.03996e-05
0.00021035
7.62085e-05
0.000194597
7.60317e-05
0.000178283
7.35416e-05
0.000160301
7.57949e-05
0.00014045
7.74523e-05
0.000120003
8.49172e-05
9.96812e-05
8.58624e-05
8.057e-05
9.47413e-05
6.34692e-05
9.67204e-05
4.79276e-05
0.000106301
3.48484e-05
0.000107634
2.26517e-05
0.000121881
1.39182e-05
0.000120886
7.56857e-06
0.000127818
4.50176e-06
0.000116757
2.88566e-07
0.000183127
-1.26124e-06
2.41537e-05
-8.66581e-06
0.000824257
-2.09505e-06
0.000807309
-1.2853e-06
0.000804789
-1.47673e-06
0.000813025
-5.06171e-06
0.000830324
-8.68461e-06
0.000848116
-1.1264e-05
0.000857404
-1.3584e-05
0.000863636
-1.60243e-05
0.000866941
-1.74147e-05
0.000867812
-1.75798e-05
0.000868301
-1.65635e-05
0.000870287
-1.59168e-05
0.000874122
-1.55635e-05
0.000881071
-1.46088e-05
0.000890107
-1.4081e-05
0.000900249
-1.39579e-05
0.000911124
-1.39754e-05
0.000922145
-1.37667e-05
0.000933356
-1.36803e-05
0.00094496
-1.37573e-05
0.000956163
-1.37599e-05
0.00096594
-1.39998e-05
0.000974603
-1.40018e-05
0.000981785
-1.3803e-05
0.000987753
-1.38552e-05
0.00099243
-1.34987e-05
0.000995912
-1.26126e-05
0.00099901
-1.14855e-05
0.0010022
-1.00926e-05
0.00100557
-8.79402e-06
0.00100953
-6.91731e-06
0.00101211
-5.54604e-06
0.00101774
-4.09331e-06
0.00102439
-3.81545e-06
0.00103167
-2.78932e-06
0.00103844
-2.36233e-06
0.00104461
8.52795e-07
0.0010492
3.25979e-05
0.00104951
0.000203398
0.0010357
0.000131809
0.00095718
2.3828e-05
0.00086923
-4.82764e-05
0.000848628
-7.82031e-05
0.000874131
-0.000126811
0.000893642
-0.000124558
0.000919006
-0.000119474
0.000951151
-0.000119879
0.000986587
-0.00011119
0.00102036
-0.000109142
0.00105485
-9.58927e-05
0.00108769
-9.35209e-05
0.00112357
-8.92183e-05
0.00115552
-8.75665e-05
0.00118606
-8.1769e-05
0.00121604
-7.83256e-05
0.00124656
-7.28324e-05
0.00127811
-6.93692e-05
0.00130383
-6.50922e-05
0.00132579
-6.06074e-05
0.00134483
-5.48727e-05
0.00136249
-4.94734e-05
0.00137826
-4.51328e-05
0.00139245
-4.07485e-05
0.0014053
-3.61674e-05
0.0014162
-3.13377e-05
0.00142583
-2.60935e-05
0.00143293
-2.04973e-05
0.00143817
-1.51962e-05
0.00144287
-1.04683e-05
0.00144663
-6.56573e-06
0.00145132
-1.73558e-06
0.00145347
4.09802e-06
0.00145211
1.08265e-05
0.00144788
1.78981e-05
0.00144042
2.61042e-05
0.00143231
3.2898e-05
0.00142344
3.99244e-05
0.00141342
4.39337e-05
0.00140225
4.71311e-05
0.00138919
5.01354e-05
0.00137369
5.40998e-05
0.00135555
6.01144e-05
0.00133426
6.74588e-05
0.00130708
8.1826e-05
0.00127226
0.000113118
0.00122456
0.000164977
0.00117365
0.000200706
0.00110849
0.000224683
0.00102988
0.000231139
0.000932343
0.000213828
0.000828957
0.000206358
0.000726184
0.000191231
0.000634648
0.000170663
0.000548599
0.000152774
0.000473594
0.000136841
0.000412109
0.00011812
0.000362485
0.000111672
0.000319169
0.000106088
0.000280361
0.000105763
0.000251687
9.86252e-05
0.000231115
9.54626e-05
0.000213156
9.21416e-05
0.000194284
9.29354e-05
0.000175199
9.14732e-05
0.000155339
9.51533e-05
0.000134017
9.77623e-05
0.000110714
0.000104875
8.64071e-05
0.000104596
6.53957e-05
0.000111301
4.7902e-05
0.000110876
3.3834e-05
0.000119726
2.38898e-05
0.000117597
1.44698e-05
0.000129221
7.49079e-06
0.000124599
7.67435e-07
0.000132318
-2.19559e-06
0.000118253
-6.69318e-06
0.000180972
-7.56857e-06
-3.77865e-05
8.558e-06
0.000704305
-1.75533e-07
0.000738439
-1.0117e-05
0.000755365
-1.87789e-05
0.000761196
-2.05064e-05
0.000759804
-1.75622e-05
0.000762338
-1.7261e-05
0.000771986
-1.63613e-05
0.000783543
-1.57078e-05
0.000797563
-1.5821e-05
0.000814552
-1.7763e-05
0.000832933
-2.0282e-05
0.000849867
-2.24033e-05
0.000862941
-2.37179e-05
0.000873926
-2.40943e-05
0.000883603
-2.44668e-05
0.000892245
-2.49624e-05
0.000900151
-2.52405e-05
0.000906801
-2.52028e-05
0.000913729
-2.49368e-05
0.000920733
-2.3931e-05
0.000928498
-2.29505e-05
0.000937074
-2.18447e-05
0.000946235
-2.05431e-05
0.000956007
-1.89284e-05
0.00096638
-1.75284e-05
0.000977586
-1.64002e-05
0.000989513
-1.5863e-05
0.00100112
-1.53106e-05
0.00101154
-1.54381e-05
0.00101999
-1.49734e-05
0.0010258
-1.48177e-05
0.00102985
-1.41526e-05
0.00103215
-1.32649e-05
0.00103279
-1.25781e-05
0.00103257
-1.0727e-05
0.00103203
-8.59292e-06
0.00103172
-1.22357e-06
0.00103188
4.42864e-05
0.0010323
0.000274549
0.00103542
0.000215713
0.00100861
4.59378e-05
0.000968951
-7.29623e-05
0.000970575
-9.87276e-05
0.0010001
-0.000154448
0.00102313
-0.00015843
0.00105736
-0.000155306
0.00109518
-0.00015466
0.00113711
-0.000145947
0.0011775
-0.00014069
0.00121837
-0.000129078
0.00125626
-0.000125151
0.00129532
-0.000118976
0.00132817
-0.000115224
0.00135765
-0.000107466
0.00138642
-0.000102827
0.00141679
-9.54329e-05
0.00144091
-9.0603e-05
0.00145984
-8.43545e-05
0.0014739
-7.87802e-05
0.00148649
-7.10199e-05
0.00149858
-6.45258e-05
0.00150998
-5.84863e-05
0.00151938
-5.2349e-05
0.00152643
-4.56655e-05
0.00153227
-3.93454e-05
0.00153729
-3.27261e-05
0.00154291
-2.57668e-05
0.00154735
-1.88763e-05
0.00155004
-1.23613e-05
0.001551
-5.97913e-06
0.00154917
1.0568e-06
0.00154529
7.99734e-06
0.00153923
1.64157e-05
0.00152941
2.48021e-05
0.00151595
3.49452e-05
0.00150333
4.36625e-05
0.00149183
5.18884e-05
0.00147941
5.73626e-05
0.00146579
6.24541e-05
0.00145032
6.84416e-05
0.00143273
7.69515e-05
0.00141413
8.93872e-05
0.0013929
0.000103353
0.00136571
0.000129662
0.00133037
0.000164517
0.00127852
0.000229547
0.00122153
0.000274881
0.00115639
0.000316313
0.00109236
0.000335715
0.00102143
0.000317236
0.000950475
0.000299397
0.000866951
0.000274995
0.000778723
0.000244064
0.000690952
0.000215818
0.000605672
0.000189545
0.0005236
0.000160765
0.000454198
0.000147054
0.00039729
0.000133485
0.000349836
0.000127707
0.000310394
0.000118783
0.00027727
0.000114388
0.000249459
0.000109699
0.000224167
0.000111066
0.000200039
0.000111729
0.000175273
0.000117035
0.000149721
0.000121007
0.000124285
0.000125192
9.72535e-05
0.00012267
7.2664e-05
0.000126477
5.21187e-05
0.000122264
3.62259e-05
0.000130474
2.52964e-05
0.000125625
1.51476e-05
0.000136595
7.92206e-06
0.000127815
1.26715e-07
0.000136934
-4.63721e-06
0.000119423
-9.98172e-06
0.000174453
-1.0957e-05
2.36423e-05
-2.69949e-05
0.000870745
-1.71157e-05
0.000851207
-1.61071e-05
0.00085022
-1.69303e-05
0.0008627
-2.08168e-05
0.000884669
-2.54063e-05
0.000905536
-2.87074e-05
0.000918541
-3.13699e-05
0.000928949
-3.45429e-05
0.000936263
-3.64293e-05
0.00093965
-3.65862e-05
0.000941805
-3.60839e-05
0.000945958
-3.5074e-05
0.00095339
-3.45949e-05
0.000964225
-3.3505e-05
0.000976584
-3.26559e-05
0.000989639
-3.21094e-05
0.00100336
-3.18879e-05
0.00101788
-3.12812e-05
0.00103306
-3.07058e-05
0.00104809
-3.02156e-05
0.00106225
-2.99342e-05
0.00107509
-2.95916e-05
0.00108676
-2.91275e-05
0.00109679
-2.86607e-05
0.00110523
-2.82813e-05
0.00111186
-2.74318e-05
0.00111682
-2.60893e-05
0.00112104
-2.4171e-05
0.00112535
-2.20592e-05
0.00113012
-1.96598e-05
0.00113474
-1.74452e-05
0.00113994
-1.50087e-05
0.00114442
-1.30034e-05
0.00115031
-1.1616e-05
0.00115749
-9.43431e-06
0.00116516
-7.54287e-06
0.00117335
-9.91484e-07
0.00118246
4.09996e-05
0.00119196
0.000296039
0.00121148
0.000247837
0.00131372
3.9455e-05
0.00129651
-0.00010227
0.00133017
-0.000121585
0.00133643
-0.000188486
0.00134358
-0.000195614
0.0013705
-0.000194548
0.00139772
-0.000192043
0.00142455
-0.000182713
0.00144674
-0.000172484
0.00146885
-0.000161979
0.00148825
-0.000153516
0.00150702
-0.000145309
0.00152178
-0.000138109
0.00153618
-0.000129601
0.00154854
-0.000121405
0.00155999
-0.000113087
0.00156913
-0.000106131
0.00157725
-9.83003e-05
0.00158438
-9.10985e-05
0.00159219
-8.27644e-05
0.00159976
-7.52955e-05
0.00160512
-6.70862e-05
0.00160951
-5.9809e-05
0.00161444
-5.20655e-05
0.00161989
-4.44228e-05
0.00162366
-3.63593e-05
0.00162603
-2.76601e-05
0.00162769
-1.87313e-05
0.0016274
-1.01802e-05
0.00162497
-2.53052e-06
0.00162088
5.87688e-06
0.00161479
1.36973e-05
0.00160676
2.38047e-05
0.00159772
3.351e-05
0.00158821
4.52524e-05
0.00157763
5.55386e-05
0.00156571
6.49698e-05
0.00155259
7.22254e-05
0.00153974
7.96184e-05
0.0015255
8.74559e-05
0.00150963
9.92916e-05
0.0014918
0.000117878
0.00147109
0.000138871
0.00144556
0.000181015
0.00140632
0.000221694
0.00136603
0.000295976
0.0013015
0.000339558
0.00125797
0.000387636
0.0012047
0.000405592
0.00116511
0.000398796
0.00110543
0.000386216
0.00103578
0.00036256
0.000958664
0.000331393
0.000871456
0.0002961
0.000779355
0.000257455
0.000683563
0.000219614
0.000587671
0.000196872
0.000502445
0.000171374
0.000431101
0.000159213
0.000375616
0.000147498
0.000331833
0.000140831
0.000296599
0.000132887
0.000265003
0.000133607
0.000235685
0.000134935
0.000207097
0.000141298
0.000179914
0.000146801
0.000153025
0.000148852
0.000124136
0.000143487
9.66581e-05
0.000143698
7.17759e-05
0.000134593
5.25174e-05
0.000141733
3.83029e-05
0.00013349
2.49227e-05
0.000144721
1.59653e-05
0.000132769
6.28725e-06
0.000142646
-7.88989e-07
0.000121286
-7.59819e-06
0.000165775
-1.02739e-05
-7.09511e-05
-5.26711e-06
0.000697595
-1.52557e-05
0.00074268
-2.86624e-05
0.00076726
-3.85008e-05
0.000778339
-4.19152e-05
0.000784856
-3.97168e-05
0.000791917
-3.92236e-05
0.000805495
-3.83176e-05
0.000821827
-3.73666e-05
0.000840099
-3.75345e-05
0.000860912
-3.899e-05
0.000883511
-4.18518e-05
0.000904739
-4.38288e-05
0.000921747
-4.4954e-05
0.000935969
-4.57461e-05
0.000949408
-4.6228e-05
0.000962359
-4.65422e-05
0.000975074
-4.66503e-05
0.000987302
-4.62597e-05
0.000999277
-4.5633e-05
0.00101077
-4.4113e-05
0.0010219
-4.2519e-05
0.00103367
-4.05383e-05
0.00104571
-3.85062e-05
0.00105824
-3.6186e-05
0.00107113
-3.39466e-05
0.00108431
-3.16009e-05
0.00109789
-2.97806e-05
0.00111141
-2.85651e-05
0.00112435
-2.73535e-05
0.00113607
-2.60371e-05
0.00114481
-2.47181e-05
0.00115148
-2.43301e-05
0.001157
-2.30162e-05
0.0011619
-2.17559e-05
0.00116542
-1.95254e-05
0.00116786
-1.79849e-05
0.00117046
-1.22556e-05
0.0011728
2.12388e-05
0.0011761
0.000189863
0.00119661
0.00025451
0.00135209
-2.95145e-06
0.00160502
-0.000116603
0.00162983
-0.000131505
0.00161942
-0.000213811
0.00161588
-0.00021778
0.0016181
-0.000215153
0.00162164
-0.000209686
0.00162427
-0.000201221
0.00162474
-0.000188096
0.00162592
-0.000177587
0.00162855
-0.000165628
0.00163184
-0.000157527
0.0016352
-0.000148299
0.00163828
-0.000140234
0.00164184
-0.000132064
0.00164465
-0.000123736
0.00164705
-0.000115125
0.00164978
-0.000106568
0.00165256
-9.85034e-05
0.00165512
-8.95274e-05
0.00165766
-8.1411e-05
0.0016603
-7.22929e-05
0.00166306
-6.35303e-05
0.00166574
-5.43492e-05
0.00166859
-4.5685e-05
0.00167066
-3.6374e-05
0.00167248
-2.65634e-05
0.00167452
-1.64446e-05
0.00167481
-6.69102e-06
0.00167205
1.9753e-06
0.00166622
1.15243e-05
0.00165834
2.05746e-05
0.00164903
3.16669e-05
0.00163926
4.29332e-05
0.00162923
5.56537e-05
0.00161774
6.74989e-05
0.00160459
7.82912e-05
0.00159073
8.72508e-05
0.00157672
9.61973e-05
0.00156089
0.000105396
0.00154424
0.000119679
0.00152663
0.000143429
0.00150581
0.000179244
0.00147991
0.000223357
0.00143875
0.000285775
0.00137899
0.000341018
0.00131253
0.000396201
0.00126524
0.000428553
0.00121737
0.000464157
0.00118425
0.000468314
0.00114061
0.000462895
0.00108509
0.00044818
0.00102298
0.000421855
0.00095106
0.000392368
0.000871779
0.000352417
0.000784495
0.000305991
0.000690735
0.000268058
0.000595737
0.000225939
0.000516194
0.000202707
0.000450512
0.000183398
0.00039349
0.000172199
0.000346884
0.000160928
0.000307994
0.0001613
0.000274387
0.000161024
0.000243981
0.000167156
0.000216529
0.000174404
0.000190594
0.000175671
0.000164039
0.000167971
0.000136332
0.000163575
0.000106238
0.000149814
7.90781e-05
0.000156403
5.56903e-05
0.000143175
3.61081e-05
0.000154504
2.37412e-05
0.000139729
1.22702e-05
0.000149657
3.49134e-06
0.000124702
-4.36394e-06
0.000157143
-8.03968e-06
1.14368e-05
-5.31654e-05
0.00091412
-4.26311e-05
0.000896268
-3.97561e-05
0.000897608
-4.15485e-05
0.000913319
-4.61743e-05
0.000935247
-5.05699e-05
0.000956868
-5.38106e-05
0.000972994
-5.69947e-05
0.00098732
-6.01246e-05
0.000998343
-6.24433e-05
0.0010054
-6.28383e-05
0.00101083
-6.27579e-05
0.00101781
-6.14648e-05
0.00102727
-6.03043e-05
0.0010383
-5.95587e-05
0.00105233
-5.86488e-05
0.00106819
-5.76867e-05
0.00108492
-5.6711e-05
0.00110132
-5.55782e-05
0.00111828
-5.41871e-05
0.00113566
-5.30697e-05
0.00115244
-5.21351e-05
0.00116795
-5.07856e-05
0.00118179
-4.95494e-05
0.00119445
-4.84272e-05
0.00120528
-4.75093e-05
0.00121394
-4.59168e-05
0.0012205
-4.3955e-05
0.00122565
-4.1641e-05
0.00123009
-3.87599e-05
0.00123395
-3.58131e-05
0.00123754
-3.28177e-05
0.0012411
-3.04824e-05
0.00124377
-2.68465e-05
0.00124833
-2.41109e-05
0.00125611
-2.14396e-05
0.0012634
-1.9443e-05
0.00127086
-1.5374e-05
0.00127782
1.19241e-06
0.00128525
3.55921e-05
0.00130648
-2.53206e-06
0.00146528
-2.90005e-05
0.00164419
-0.000106888
0.00169862
-0.000125504
0.00168998
-0.000211254
0.00167249
-0.000215143
0.00165339
-0.00021295
0.00163897
-0.000207895
0.00162512
-0.000201426
0.00161454
-0.00019013
0.00161066
-0.00018012
0.00161033
-0.000168722
0.00161361
-0.000161366
0.00162
-0.000152824
0.00162887
-0.000144852
0.00163657
-0.000136714
0.00164394
-0.000128331
0.00165055
-0.00012025
0.00165812
-0.000111247
0.00166361
-0.000102493
0.0016694
-9.29442e-05
0.00167382
-8.4407e-05
0.00167861
-7.47529e-05
0.00168211
-6.51205e-05
0.00168507
-5.48878e-05
0.00168719
-4.50393e-05
0.0016885
-3.43672e-05
0.00168863
-2.39607e-05
0.00168809
-1.3114e-05
0.00168733
-1.99049e-06
0.00168505
7.58768e-06
0.00168032
1.80122e-05
0.00167349
2.8362e-05
0.00166536
4.06515e-05
0.00165624
5.33965e-05
0.00164588
6.74353e-05
0.00163452
8.05697e-05
0.00162174
9.25619e-05
0.0016082
0.000103626
0.00159442
0.000114099
0.00157807
0.000124341
0.0015595
0.000141335
0.00154064
0.000170158
0.00151787
0.000220526
0.00148573
0.000280376
0.00143828
0.000349838
0.0013855
0.000391544
0.00134146
0.000447691
0.00130148
0.000462935
0.00126831
0.000507382
0.00122966
0.0005225
0.00119664
0.00052241
0.00115264
0.000518503
0.00110091
0.000499883
0.00103993
0.000478627
0.000972309
0.000444635
0.000897095
0.000400164
0.000813913
0.000348462
0.000723643
0.000292294
0.00063049
0.000258832
0.000546982
0.000228452
0.000474369
0.000210139
0.000415206
0.000193868
0.000366166
0.000190566
0.000324843
0.000187093
0.000291218
0.000192087
0.00026395
0.000200463
0.000240011
0.000202949
0.000216072
0.000197771
0.000188418
0.000190154
0.00015437
0.000172988
0.000116417
0.000177104
7.86545e-05
0.000156768
5.15076e-05
0.000166563
3.31466e-05
0.000148732
1.81059e-05
0.000157872
8.75585e-06
0.000129162
3.62114e-07
0.000150603
-4.27872e-06
-0.000107277
-3.15803e-05
0.000703564
-4.10518e-05
0.000753883
-5.48351e-05
0.000787241
-6.41653e-05
0.000806387
-6.93857e-05
0.00081896
-6.83628e-05
0.000831797
-6.80063e-05
0.000849586
-6.76037e-05
0.000870546
-6.72637e-05
0.00089414
-6.7373e-05
0.000918825
-6.82843e-05
0.0009436
-7.04435e-05
0.000967316
-7.20005e-05
0.000988568
-7.30572e-05
0.00100774
-7.38136e-05
0.00102602
-7.41295e-05
0.0010436
-7.37944e-05
0.0010609
-7.35373e-05
0.00107779
-7.26694e-05
0.00109394
-7.13514e-05
0.00110921
-6.92698e-05
0.00112348
-6.6885e-05
0.0011379
-6.42363e-05
0.00115237
-6.13036e-05
0.00116692
-5.80926e-05
0.00118133
-5.49281e-05
0.00119595
-5.14727e-05
0.0012112
-4.82586e-05
0.00122657
-4.51785e-05
0.00124153
-4.27955e-05
0.00125617
-4.04747e-05
0.00126933
-3.88747e-05
0.00128069
-3.72619e-05
0.00129118
-3.47135e-05
0.00129947
-3.20986e-05
0.00130763
-2.93074e-05
0.00131466
-2.67212e-05
0.00132087
-2.36148e-05
0.00132691
-2.09588e-05
0.00133431
-0.000125998
0.00134791
-0.000186083
0.00135893
-8.06368e-05
0.00130435
-9.56358e-05
0.00135234
-0.000106594
0.00139358
-0.000191245
0.0014266
-0.000198633
0.0014568
-0.000199116
0.00148411
-0.000199476
0.00150931
-0.000199226
0.00153423
-0.000190719
0.00155695
-0.000183289
0.00157804
-0.000174444
0.00160089
-0.000170143
0.00162174
-0.000160953
0.001643
-0.000154535
0.001661
-0.000144895
0.00167599
-0.000136788
0.00168855
-0.000127249
0.00170142
-0.000118258
0.00171121
-0.000108039
0.00172229
-9.847e-05
0.0017315
-8.81503e-05
0.00174088
-7.76987e-05
0.00174747
-6.6771e-05
0.00175268
-5.56512e-05
0.001755
-4.47911e-05
0.00175583
-3.27457e-05
0.00175565
-2.15215e-05
0.00175624
-9.7529e-06
0.00175716
2.2192e-06
0.00175594
1.32689e-05
0.00175066
2.50425e-05
0.00174228
3.70231e-05
0.00173273
5.03425e-05
0.00172307
6.43552e-05
0.0017121
7.95706e-05
0.00169948
9.40185e-05
0.00168451
0.00010691
0.00166716
0.000119156
0.00164767
0.000132533
0.00162555
0.000144634
0.00159895
0.000166668
0.00156934
0.000203555
0.00152883
0.00026819
0.00147775
0.000333614
0.00141579
0.000396147
0.00136774
0.000435909
0.00132802
0.000482655
0.00129461
0.000501946
0.00126572
0.000540452
0.00122471
0.00056578
0.0011937
0.000572593
0.00115805
0.000579013
0.00110766
0.000567712
0.00104979
0.000554248
0.000982557
0.000528023
0.000910309
0.000488921
0.000830012
0.000438635
0.000745983
0.000374355
0.000655495
0.00033087
0.000565183
0.000285968
0.000490555
0.000257475
0.000432311
0.000233724
0.00038579
0.000222644
0.000347588
0.000213189
0.000316775
0.000215977
0.000291611
0.000224457
0.0002695
0.000230804
0.000247021
0.000231939
0.000219321
0.000227393
0.000185247
0.000209617
0.000146829
0.000204531
0.000100055
0.000175579
6.79047e-05
0.000182317
4.36895e-05
0.000158593
2.48138e-05
0.000167072
1.53411e-05
0.000135228
6.53532e-06
0.000148676
4.29788e-07
-1.03484e-05
-8.53111e-05
0.000946104
-7.6159e-05
0.000932158
-7.35883e-05
0.000933722
-7.40142e-05
0.000948822
-7.98782e-05
0.000971826
-8.33948e-05
0.000992931
-8.61657e-05
0.00101072
-8.95832e-05
0.00102624
-9.26888e-05
0.00103901
-9.47462e-05
0.00104989
-9.54086e-05
0.0010602
-9.5318e-05
0.00107135
-9.39316e-05
0.00108418
-9.31267e-05
0.00109799
-9.21831e-05
0.00111381
-9.09437e-05
0.00113158
-8.91059e-05
0.00114985
-8.74527e-05
0.00116864
-8.55555e-05
0.00118785
-8.33098e-05
0.00120727
-8.13556e-05
0.0012258
-7.93553e-05
0.00124329
-7.7077e-05
0.00125949
-7.48099e-05
0.00127448
-7.26076e-05
0.00128789
-7.03074e-05
0.00129938
-6.78767e-05
0.001309
-6.52179e-05
0.00131706
-6.21271e-05
0.00132376
-5.86541e-05
0.00132915
-5.4646e-05
0.00133368
-5.22021e-05
0.00133847
-4.77224e-05
0.00134215
-4.34333e-05
0.00134747
-3.96533e-05
0.00135336
-3.64058e-05
0.00135879
-3.35802e-05
0.00136326
-3.16356e-05
0.00136645
-3.45189e-05
0.00136707
-0.000147893
0.00135942
-0.000134611
0.00119039
-0.000130099
0.00120458
-0.000136147
0.00125577
-0.00013776
0.00130956
-0.000218726
0.00135475
-0.000224425
0.00139814
-0.000224204
0.00144077
-0.000224724
0.00148015
-0.000222359
0.00151812
-0.000211753
0.0015534
-0.000205427
0.00158472
-0.000194199
0.00161458
-0.000188852
0.00164252
-0.000177276
0.00166819
-0.000170963
0.00169045
-0.000159689
0.0017125
-0.000152144
0.00173288
-0.00013955
0.0017484
-0.000130241
0.00176039
-0.000117125
0.00177344
-0.000107405
0.00178615
-9.40932e-05
0.00179752
-8.22604e-05
0.00180634
-6.94258e-05
0.00181165
-5.70989e-05
0.00181387
-4.4452e-05
0.00181394
-3.12266e-05
0.00181325
-1.85474e-05
0.001814
-5.71872e-06
0.00181465
7.30873e-06
0.00181329
1.98267e-05
0.00180681
3.3166e-05
0.00179726
4.71042e-05
0.00178695
6.24623e-05
0.0017764
7.80852e-05
0.00176518
9.50954e-05
0.00175234
0.000111672
0.00173648
0.000128316
0.00171839
0.000143397
0.00169621
0.000161364
0.00167324
0.000176547
0.001643
0.000208005
0.00160813
0.000253547
0.0015553
0.000327667
0.00149396
0.00038218
0.00142491
0.000438972
0.00137719
0.000472523
0.00133025
0.00051326
0.00128386
0.000544128
0.00124709
0.000572513
0.00120754
0.000603462
0.00117603
0.000625626
0.00114401
0.000638435
0.00110797
0.000634438
0.00106233
0.000623827
0.00100925
0.000605381
0.000953783
0.000569375
0.000888755
0.000526152
0.000816423
0.000464033
0.000731219
0.000404863