/*--------------------------------*- C++ -*----------------------------------*\
| =========                 |                                                 |
| \\      /  F ield         | OpenFOAM: The Open Source CFD Toolbox           |
|  \\    /   O peration     | Version:  2.2.x                                 |
|   \\  /    A nd           | Web:      www.OpenFOAM.org                      |
|    \\/     M anipulation  |                                                 |
\*---------------------------------------------------------------------------*/
FoamFile
{
    version     2.0;
    format      ascii;
    class       volScalarField;
    location    "1.7";
    object      By;
}
// * * * * * * * * * * * * * * * * * * * * * * * * * * * * * * * * * * * * * //

dimensions      [1 0 -2 0 0 -1 0];

internalField   nonuniform List<scalar> 
14161
(
3.73105e-07
8.86413e-07
8.53247e-07
9.45687e-07
9.94629e-07
9.93592e-07
1.05458e-06
1.17234e-06
1.23214e-06
9.01423e-07
6.21342e-07
1.18167e-06
1.80215e-06
2.38123e-06
2.11539e-06
1.37244e-06
2.57909e-06
1.38721e-06
1.22285e-06
3.1546e-06
5.73201e-06
5.3027e-06
3.25312e-06
5.47307e-07
4.43869e-06
5.14045e-06
4.20673e-06
4.87454e-06
3.87753e-06
5.9996e-06
1.21224e-05
1.08752e-05
1.03066e-05
6.36234e-06
8.7438e-06
2.11028e-05
1.44478e-06
-2.27713e-05
-7.86164e-05
-0.000225843
-0.00135521
-0.0032794
-0.00543493
-0.0120735
-0.0151328
-0.0164598
-0.0161438
-0.0123843
-0.00897473
-0.00682595
-0.00527361
-0.00423066
-0.00345592
-0.00307746
-0.00302906
-0.0029807
-0.00288418
-0.00273148
-0.00278281
-0.00291023
-0.00288175
-0.00276278
-0.00247996
-0.00232028
-0.00241551
-0.00249705
-0.00239768
-0.00223235
-0.00222388
-0.00240192
-0.00265547
-0.0027064
-0.00263619
-0.00265264
-0.00275609
-0.00305495
-0.0032766
-0.00337091
-0.00326295
-0.00305416
-0.00304024
-0.0030919
-0.00295824
-0.00275925
-0.00259677
-0.00262371
-0.00266274
-0.00253817
-0.0026198
-0.00293356
-0.00351096
-0.00385544
-0.00295677
-0.00247108
-0.0017975
-0.000860538
-1.69739e-05
0.00162886
0.00472308
0.00936281
0.0158598
0.0250049
0.0375067
0.0503526
0.0603174
0.0672437
0.0638961
0.0539316
0.0458158
0.0398572
0.0356555
0.0328266
0.0318906
0.0326668
0.0345262
0.0381252
0.0450652
0.0492455
0.0481758
1.46213e-06
2.52411e-06
2.5241e-06
2.77329e-06
2.77601e-06
2.67718e-06
2.7547e-06
2.83979e-06
3.04128e-06
3.21752e-06
3.60378e-06
4.22743e-06
5.7148e-06
6.40124e-06
7.49685e-06
5.95696e-06
7.89512e-06
3.5751e-06
6.51693e-06
1.10381e-05
1.36301e-05
1.2034e-05
9.80579e-06
1.06133e-05
1.29118e-05
1.6167e-05
1.396e-05
1.69482e-05
1.2904e-05
2.57955e-05
3.0068e-05
3.79738e-05
3.31526e-05
3.16886e-05
1.41346e-05
3.67941e-05
1.38985e-05
-6.33671e-05
-1.68345e-05
-0.00114559
-0.003525
-0.00936096
-0.0137059
-0.0304531
-0.0354745
-0.0363855
-0.0318482
-0.0255649
-0.0202048
-0.0163998
-0.0136438
-0.0116341
-0.0100204
-0.00905958
-0.00886388
-0.00853176
-0.00794042
-0.00723112
-0.00726628
-0.00794331
-0.00804392
-0.00752935
-0.00694178
-0.00677673
-0.00724205
-0.00743809
-0.00693477
-0.00644969
-0.00649177
-0.00710765
-0.00781496
-0.00781833
-0.00758008
-0.00767564
-0.00800226
-0.00849939
-0.00907646
-0.00929811
-0.0093151
-0.00921463
-0.00929611
-0.0095054
-0.00887854
-0.007935
-0.00765968
-0.00783978
-0.00814446
-0.00831145
-0.00831966
-0.00826744
-0.00859007
-0.00854216
-0.00741249
-0.0057434
-0.00365699
-0.00192783
0.000376636
0.00388341
0.00912686
0.0182048
0.0317308
0.0532546
0.0859523
0.13085
0.174452
0.188024
0.173793
0.151685
0.131007
0.114515
0.102433
0.0945479
0.0914031
0.0925953
0.096835
0.10692
0.116629
0.119272
0.117364
2.72879e-06
3.97089e-06
4.08999e-06
4.47791e-06
4.57636e-06
4.36002e-06
4.53939e-06
4.74391e-06
5.09547e-06
5.69112e-06
6.51983e-06
7.80602e-06
8.05911e-06
9.25076e-06
1.06528e-05
1.14863e-05
1.10675e-05
9.06413e-06
1.34622e-05
2.05737e-05
2.31497e-05
1.57827e-05
1.69016e-05
2.3028e-05
2.41199e-05
2.916e-05
2.02913e-05
2.41056e-05
2.12807e-05
4.1649e-05
5.1909e-05
6.19329e-05
5.34744e-05
5.44647e-05
4.77895e-06
5.33298e-05
2.12239e-05
5.8841e-05
-0.000304747
-0.00251004
-0.00794656
-0.0222809
-0.0334462
-0.0589918
-0.0645253
-0.0597774
-0.049226
-0.0384525
-0.0305652
-0.0252325
-0.0215282
-0.0188745
-0.0169009
-0.0157878
-0.0155095
-0.0151077
-0.0139457
-0.0128205
-0.0127634
-0.0135775
-0.0136212
-0.0125169
-0.0116046
-0.0118149
-0.012613
-0.0128192
-0.0119166
-0.0109803
-0.0112654
-0.0123866
-0.0134003
-0.0134008
-0.0128692
-0.0130307
-0.013848
-0.0146311
-0.0153082
-0.0153728
-0.0152825
-0.0155093
-0.0159695
-0.0161624
-0.0149753
-0.0131391
-0.0127566
-0.0133975
-0.0141018
-0.0144545
-0.0138529
-0.0129498
-0.0122639
-0.0120821
-0.0105822
-0.00813532
-0.0047148
-0.000552597
0.00536405
0.0135016
0.0270004
0.048018
0.0787328
0.118976
0.175904
0.232817
0.264166
0.264924
0.242171
0.214732
0.190078
0.170042
0.154792
0.145217
0.142624
0.146848
0.156424
0.173068
0.183505
0.185446
0.185982
4.61599e-06
5.61116e-06
5.75451e-06
6.17792e-06
6.35399e-06
6.07596e-06
6.34597e-06
6.56146e-06
6.9166e-06
7.58966e-06
8.60052e-06
1.05375e-05
1.1894e-05
1.37895e-05
1.4256e-05
1.40999e-05
1.57193e-05
1.80929e-05
2.08099e-05
2.40152e-05
2.74204e-05
2.07513e-05
2.38438e-05
3.46848e-05
3.49865e-05
3.59642e-05
2.93586e-05
3.42395e-05
3.18537e-05
5.47598e-05
7.35666e-05
8.1636e-05
7.18535e-05
8.27963e-05
-8.232e-06
8.44137e-05
2.56047e-05
0.000158948
-0.000679845
-0.00384842
-0.0127341
-0.0368885
-0.0584662
-0.0906827
-0.0976821
-0.086178
-0.0676609
-0.0521639
-0.0417894
-0.0347737
-0.0300146
-0.0266002
-0.0241794
-0.02305
-0.0226685
-0.0219126
-0.020184
-0.0186539
-0.0185888
-0.0194674
-0.0189957
-0.0170092
-0.015808
-0.0164778
-0.0178231
-0.0180822
-0.016816
-0.0156739
-0.0164025
-0.0182562
-0.0196524
-0.0196769
-0.0190494
-0.0193895
-0.0207816
-0.0220715
-0.0228544
-0.0226345
-0.0220653
-0.0225214
-0.0235182
-0.0237087
-0.0220041
-0.0195511
-0.018665
-0.0191987
-0.0197162
-0.0197437
-0.018062
-0.0162763
-0.0145988
-0.0129699
-0.00989373
-0.00574895
9.27982e-06
0.00760816
0.018823
0.0359295
0.0610375
0.09849
0.151316
0.221597
0.282729
0.329555
0.349394
0.337656
0.304094
0.269342
0.240704
0.218709
0.20285
0.192783
0.190643
0.196402
0.208644
0.230392
0.24153
0.242741
0.246004
5.9585e-06
7.1395e-06
7.5489e-06
8.12525e-06
8.50831e-06
8.19239e-06
8.37372e-06
8.6687e-06
9.19009e-06
1.0732e-05
1.19572e-05
1.41427e-05
1.61257e-05
1.80449e-05
1.99742e-05
1.8775e-05
2.18428e-05
2.70192e-05
2.97104e-05
3.28157e-05
3.27717e-05
3.11707e-05
3.78047e-05
5.17168e-05
5.37907e-05
5.01991e-05
3.49481e-05
4.62079e-05
4.71415e-05
6.93122e-05
8.9748e-05
0.000115899
8.30408e-05
0.000106975
-6.50571e-06
0.000119167
4.60245e-05
0.000275045
-0.000936274
-0.00497356
-0.0166334
-0.0484516
-0.0810938
-0.122448
-0.128653
-0.112218
-0.0856397
-0.0644423
-0.0509827
-0.0424379
-0.03693
-0.0332344
-0.0307887
-0.0298425
-0.0295821
-0.0286635
-0.0268537
-0.0253937
-0.0253855
-0.0259448
-0.0251594
-0.0230951
-0.021926
-0.0229837
-0.024581
-0.0244641
-0.0228081
-0.0216389
-0.0226367
-0.0249192
-0.0265157
-0.0265395
-0.0258154
-0.0260492
-0.0278361
-0.0297023
-0.0305633
-0.0300067
-0.028503
-0.0285889
-0.030056
-0.0305536
-0.0291889
-0.0270683
-0.0254822
-0.0253318
-0.024407
-0.0228588
-0.0204122
-0.0174618
-0.0139363
-0.00956321
-0.0048134
0.00221926
0.0135751
0.0307302
0.0546748
0.0902046
0.137813
0.202495
0.268843
0.33295
0.375927
0.399497
0.402489
0.381515
0.347018
0.311603
0.282366
0.259818
0.24373
0.234271
0.232751
0.239891
0.255317
0.280092
0.292151
0.293202
0.29887
8.12621e-06
8.9541e-06
9.23809e-06
9.88783e-06
1.02722e-05
1.03505e-05
1.04605e-05
1.08903e-05
1.13406e-05
1.29409e-05
1.49456e-05
1.79369e-05
1.90947e-05
2.08235e-05
2.30996e-05
2.39168e-05
2.74462e-05
3.46264e-05
3.74453e-05
3.78931e-05
3.79924e-05
3.972e-05
4.84786e-05
6.28846e-05
6.73201e-05
5.52623e-05
4.33316e-05
6.215e-05
6.57132e-05
8.20101e-05
9.22006e-05
0.000128404
9.88344e-05
0.000123429
3.71259e-05
0.000181648
8.01727e-05
0.000251225
-0.001293
-0.00600717
-0.020075
-0.059261
-0.102518
-0.153355
-0.156051
-0.137569
-0.10762
-0.0816896
-0.0656287
-0.0555147
-0.0491429
-0.0449283
-0.0426109
-0.0419259
-0.0415665
-0.0402742
-0.0380526
-0.0363027
-0.0355931
-0.0352488
-0.0337974
-0.0311889
-0.0295053
-0.0300088
-0.0313312
-0.0309409
-0.028999
-0.028195
-0.0295313
-0.0319827
-0.0339901
-0.034411
-0.0338836
-0.0342173
-0.0362403
-0.0387664
-0.0402624
-0.0400407
-0.0382813
-0.0373947
-0.0383636
-0.0387617
-0.0371577
-0.0341758
-0.0311069
-0.0285523
-0.0261621
-0.0233694
-0.0194457
-0.0141943
-0.00826511
-0.00115792
0.00941472
0.025732
0.0493815
0.0833617
0.128231
0.190812
0.259389
0.326531
0.380064
0.418112
0.439553
0.445965
0.437082
0.412646
0.379925
0.345861
0.317411
0.295723
0.280296
0.271243
0.270668
0.279212
0.296464
0.322458
0.336016
0.337939
0.345492
9.54611e-06
1.05369e-05
1.10962e-05
1.19167e-05
1.24146e-05
1.2777e-05
1.27211e-05
1.34599e-05
1.42872e-05
1.60807e-05
1.83014e-05
2.17701e-05
2.44999e-05
2.6145e-05
2.93493e-05
3.2452e-05
3.53253e-05
4.21123e-05
4.86333e-05
5.14799e-05
4.52796e-05
5.10151e-05
6.40628e-05
7.87945e-05
8.66983e-05
6.84145e-05
6.16293e-05
7.86353e-05
8.75935e-05
9.61912e-05
9.29106e-05
0.00011887
0.000116169
0.000149327
9.89889e-05
0.000230689
0.000162041
7.01308e-05
-0.00176592
-0.0071111
-0.0230493
-0.0672584
-0.119105
-0.175972
-0.175166
-0.156399
-0.126531
-0.0987292
-0.0815764
-0.0710021
-0.0642477
-0.0594535
-0.0571227
-0.0556514
-0.0542529
-0.0521544
-0.0495435
-0.0471024
-0.0457984
-0.0450449
-0.0434369
-0.0411343
-0.0392876
-0.039461
-0.0404808
-0.0396092
-0.0377889
-0.0374992
-0.0389993
-0.0410981
-0.0428444
-0.0435586
-0.0433696
-0.0437106
-0.045473
-0.0478126
-0.0489746
-0.0480309
-0.0454983
-0.0436657
-0.0435715
-0.0437834
-0.0416703
-0.0378262
-0.0335454
-0.0292193
-0.0244901
-0.0192281
-0.0128235
-0.00438606
0.00675594
0.0223607
0.0445887
0.0776077
0.122758
0.185062
0.255613
0.323009
0.383586
0.427886
0.45759
0.475451
0.482021
0.477424
0.460897
0.435243
0.405976
0.375142
0.348613
0.327996
0.313645
0.30537
0.305402
0.31493
0.333457
0.359355
0.374104
0.377564
0.386383
1.19749e-05
1.26622e-05
1.29057e-05
1.36853e-05
1.44678e-05
1.5023e-05
1.4739e-05
1.56088e-05
1.68294e-05
1.85999e-05
2.0858e-05
2.47466e-05
2.75271e-05
3.04157e-05
3.39718e-05
3.87563e-05
4.26668e-05
4.78679e-05
5.53696e-05
5.55889e-05
5.57208e-05
6.43119e-05
7.51512e-05
8.93965e-05
9.03523e-05
7.90108e-05
7.54729e-05
9.52089e-05
0.00012538
0.000107624
8.38e-05
9.13334e-05
0.000116716
0.000195834
0.000147953
0.000246374
0.000168075
-0.000180768
-0.00218213
-0.00776331
-0.0244184
-0.0710406
-0.128033
-0.190258
-0.190891
-0.176637
-0.15073
-0.123216
-0.104342
-0.0919232
-0.0828371
-0.0774916
-0.0747782
-0.0727034
-0.0709761
-0.0689174
-0.0662194
-0.063563
-0.0612537
-0.0591714
-0.0569018
-0.0541986
-0.0519032
-0.0509151
-0.0509359
-0.05025
-0.0486318
-0.0481839
-0.0494593
-0.0510006
-0.0524799
-0.0536733
-0.0539429
-0.0543563
-0.0559941
-0.0584073
-0.0593998
-0.0579075
-0.0550958
-0.052098
-0.0497015
-0.0467629
-0.0429262
-0.0380748
-0.0323553
-0.0254834
-0.017685
-0.00841316
0.00340949
0.0199653
0.042889
0.0750412
0.118782
0.179819
0.253312
0.321576
0.387082
0.436008
0.471522
0.495325
0.509101
0.514448
0.512423
0.500426
0.481127
0.4561
0.428831
0.40106
0.37724
0.358296
0.344974
0.337142
0.337552
0.347584
0.366806
0.391885
0.40764
0.413122
0.422866
1.36221e-05
1.43148e-05
1.43309e-05
1.55033e-05
1.67819e-05
1.7656e-05
1.76998e-05
1.84748e-05
1.98333e-05
2.2311e-05
2.54047e-05
3.01445e-05
3.26292e-05
3.59238e-05
4.05694e-05
4.62563e-05
5.02343e-05
5.60213e-05
6.71402e-05
7.00017e-05
6.55753e-05
7.75109e-05
8.68944e-05
0.000105802
0.000101141
0.000102649
0.000109247
0.000117785
0.000138831
0.000116414
8.47681e-05
5.04998e-05
0.000111055
0.000246183
0.000209464
0.000245378
0.000122866
-0.000407357
-0.0025079
-0.00816495
-0.024781
-0.0719611
-0.131136
-0.198287
-0.200846
-0.192156
-0.1718
-0.148421
-0.128177
-0.115054
-0.106271
-0.10203
-0.0991279
-0.0964473
-0.0935241
-0.0898333
-0.0857512
-0.081738
-0.0777487
-0.0739916
-0.070571
-0.0677294
-0.0648711
-0.0627325
-0.0620926
-0.0615211
-0.0606992
-0.0610202
-0.0625282
-0.0635107
-0.0638088
-0.0643143
-0.0645416
-0.0645474
-0.0649745
-0.065397
-0.0648833
-0.0628751
-0.0599839
-0.0561559
-0.051581
-0.0463451
-0.0407967
-0.033653
-0.0247678
-0.0136295
-3.02147e-05
0.0178141
0.0415186
0.0741357
0.118005
0.178026
0.251091
0.321097
0.390333
0.443758
0.483535
0.511538
0.530595
0.541929
0.54577
0.543911
0.534987
0.519606
0.499594
0.476042
0.451466
0.426623
0.404847
0.387353
0.375157
0.367782
0.368454
0.378205
0.397406
0.421468
0.437757
0.445249
0.455615
1.59228e-05
1.6492e-05
1.63902e-05
1.69263e-05
1.88545e-05
1.94689e-05
2.04153e-05
2.10326e-05
2.21194e-05
2.4733e-05
2.8383e-05
3.34833e-05
3.66468e-05
4.0051e-05
4.61021e-05
5.07868e-05
5.91917e-05
6.61554e-05
7.42637e-05
7.04648e-05
7.70219e-05
9.14065e-05
0.000105976
0.000115386
0.000101084
0.000111966
0.000139912
0.000149755
0.000164652
0.000140885
9.06678e-05
3.23399e-05
4.12966e-05
0.000249593
0.000271509
0.00024552
6.41304e-05
-0.000535202
-0.00262864
-0.00810658
-0.0238652
-0.0696839
-0.129419
-0.199856
-0.209499
-0.206914
-0.194643
-0.177641
-0.158303
-0.144913
-0.135528
-0.131191
-0.126993
-0.122823
-0.118363
-0.113525
-0.108524
-0.103508
-0.0984388
-0.0929985
-0.088578
-0.0848752
-0.081443
-0.078611
-0.0769835
-0.0757966
-0.0746509
-0.074556
-0.0750295
-0.0746896
-0.0739964
-0.0740752
-0.0738307
-0.072921
-0.0724225
-0.0717645
-0.06936
-0.0654517
-0.0609227
-0.0555897
-0.049389
-0.0414618
-0.0318129
-0.019647
-0.00435092
0.0153964
0.0411821
0.0751402
0.119349
0.179514
0.252787
0.323608
0.393958
0.449856
0.492869
0.524342
0.547389
0.562986
0.571983
0.574822
0.573037
0.566481
0.554601
0.538075
0.518877
0.496701
0.474268
0.45189
0.431848
0.415622
0.404361
0.39726
0.398297
0.407462
0.425991
0.448938
0.465436
0.474705
0.485805
1.78567e-05
1.82155e-05
1.80318e-05
1.80989e-05
2.09245e-05
2.19485e-05
2.39378e-05
2.42557e-05
2.58938e-05
2.81186e-05
3.28647e-05
3.71018e-05
4.15749e-05
4.79988e-05
5.29002e-05
5.78885e-05
6.7479e-05
7.67584e-05
8.49895e-05
7.97406e-05
9.1094e-05
0.000110085
0.000132338
0.000134101
0.000100427
0.000121888
0.000169433
0.000197571
0.000186421
0.000112722
6.79711e-05
4.64817e-05
3.03287e-05
0.000201746
0.00032179
0.00026508
-1.26171e-05
-0.000648908
-0.00269956
-0.00793834
-0.0227474
-0.0661918
-0.12557
-0.200067
-0.220753
-0.223742
-0.218474
-0.207494
-0.191835
-0.180049
-0.171069
-0.166951
-0.161084
-0.15471
-0.147622
-0.140192
-0.132732
-0.125712
-0.118717
-0.112102
-0.106676
-0.102306
-0.0983958
-0.0948579
-0.09193
-0.0895969
-0.0874617
-0.0864664
-0.0860915
-0.0847397
-0.0826829
-0.0811274
-0.0802867
-0.0785993
-0.0759735
-0.0724395
-0.0682054
-0.0631652
-0.0569806
-0.0483888
-0.0378223
-0.0246023
-0.00775083
0.0132773
0.0411013
0.0776406
0.124271
0.185613
0.258032
0.328269
0.399301
0.456527
0.500759
0.534416
0.560108
0.578978
0.59141
0.598658
0.601946
0.600573
0.594992
0.585925
0.572788
0.556659
0.538509
0.518209
0.498142
0.478052
0.459481
0.444294
0.433616
0.426631
0.427986
0.436247
0.453568
0.475191
0.491589
0.501991
0.513758
2.02303e-05
2.04989e-05
2.01826e-05
1.97172e-05
2.21209e-05
2.4549e-05
2.62719e-05
2.76746e-05
2.87924e-05
3.09499e-05
3.49882e-05
4.11189e-05
4.60296e-05
5.25098e-05
5.87742e-05
6.22919e-05
7.3028e-05
8.89004e-05
8.88033e-05
8.43124e-05
0.000108745
0.000126919
0.000153984
0.000137695
0.000108077
0.000135619
0.000194968
0.000244829
0.000213893
0.000123749
5.36094e-05
4.7356e-05
6.12266e-05
0.00011747
0.000266575
0.000332055
-6.22123e-06
-0.000681169
-0.0027259
-0.00780052
-0.021729
-0.0627602
-0.12225
-0.202286
-0.23456
-0.243162
-0.244708
-0.236818
-0.225842
-0.217598
-0.209888
-0.204999
-0.19724
-0.188932
-0.180068
-0.170626
-0.161147
-0.152252
-0.14328
-0.134907
-0.127449
-0.120615
-0.114912
-0.110188
-0.105674
-0.101762
-0.0987037
-0.0956952
-0.0933392
-0.0911394
-0.0888257
-0.0860652
-0.0819903
-0.0781534
-0.0740739
-0.0691328
-0.0621076
-0.0527024
-0.0411593
-0.0268721
-0.0080873
0.0148724
0.0445625
0.0825678
0.131732
0.195998
0.268281
0.336462
0.406279
0.463437
0.508705
0.543796
0.570733
0.590957
0.605853
0.616117
0.622626
0.625171
0.624812
0.620558
0.613314
0.603308
0.590558
0.575606
0.558763
0.540428
0.522463
0.504383
0.487189
0.472891
0.462617
0.455651
0.457379
0.46462
0.480499
0.500486
0.516784
0.527872
0.540043
2.2021e-05
2.22325e-05
2.19197e-05
2.13051e-05
2.30373e-05
2.65635e-05
2.87018e-05
3.21775e-05
3.3144e-05
3.58633e-05
3.92622e-05
4.51813e-05
5.15318e-05
5.84286e-05
6.45148e-05
7.345e-05
8.51016e-05
9.87209e-05
9.26641e-05
9.92601e-05
0.000122889
0.000153307
0.000164016
0.000145433
0.000134873
0.000141023
0.000203131
0.000265468
0.000228119
0.000155191
8.02147e-05
3.18273e-05
5.65696e-05
0.000103913
0.000141776
0.000327465
7.62639e-05
-0.000596616
-0.00265977
-0.00765738
-0.0210389
-0.0606312
-0.121348
-0.209779
-0.255331
-0.27022
-0.277838
-0.272229
-0.265212
-0.261812
-0.25541
-0.248028
-0.237153
-0.225919
-0.214327
-0.202036
-0.190088
-0.178038
-0.166139
-0.155959
-0.145324
-0.136376
-0.12868
-0.121075
-0.115753
-0.110092
-0.105317
-0.101811
-0.0974412
-0.0935898
-0.088744
-0.084086
-0.0788724
-0.0723986
-0.0638461
-0.0535324
-0.041118
-0.0251178
-0.00475421
0.0208562
0.0533754
0.0943033
0.147467
0.21208
0.279817
0.347578
0.415623
0.470716
0.51538
0.551105
0.579613
0.601366
0.617458
0.628834
0.637346
0.643063
0.645507
0.645064
0.642346
0.636809
0.629062
0.61923
0.607286
0.593644
0.578569
0.562407
0.546423
0.530171
0.514529
0.501078
0.491093
0.48432
0.486636
0.492809
0.507219
0.525243
0.541114
0.552328
0.564521
2.47404e-05
2.46656e-05
2.42261e-05
2.34411e-05
2.40687e-05
2.78081e-05
3.10742e-05
3.48554e-05
3.67523e-05
3.88211e-05
4.29875e-05
4.83515e-05
5.45484e-05
6.29921e-05
7.25754e-05
8.01676e-05
9.24889e-05
0.000101789
0.000101049
0.000116577
0.000137396
0.00017017
0.000168589
0.000164775
0.000182653
0.000153726
0.000196396
0.000281427
0.000259484
0.000205113
0.00015742
6.76437e-05
1.57413e-05
6.3512e-05
3.95483e-05
0.000249827
0.00015278
-0.000443745
-0.002521
-0.00766072
-0.0212398
-0.0609506
-0.124903
-0.223989
-0.283514
-0.306985
-0.318498
-0.315502
-0.31186
-0.312279
-0.306333
-0.296253
-0.282305
-0.267896
-0.251399
-0.236027
-0.218893
-0.203309
-0.188288
-0.172889
-0.160866
-0.147404
-0.137791
-0.128059
-0.120852
-0.114431
-0.107853
-0.102006
-0.0953443
-0.0889689
-0.0814425
-0.072681
-0.0626626
-0.0510087
-0.0362275
-0.0176111
0.00528256
0.0339131
0.0694857
0.114794
0.172499
0.236301
0.299059
0.364873
0.427119
0.477533
0.520935
0.556178
0.585063
0.607981
0.625826
0.639379
0.649106
0.655355
0.660182
0.663011
0.663207
0.661134
0.657325
0.65143
0.643941
0.634685
0.623854
0.611641
0.598374
0.584198
0.570049
0.555425
0.541458
0.528872
0.518946
0.512395
0.515348
0.520465
0.533348
0.549022
0.56433
0.575474
0.587704
2.6507e-05
2.64452e-05
2.60491e-05
2.53323e-05
2.57096e-05
2.80671e-05
3.34003e-05
3.80571e-05
4.32394e-05
4.40305e-05
4.68724e-05
5.28501e-05
5.95711e-05
6.91793e-05
7.92512e-05
8.8264e-05
0.000103353
0.000107608
0.000118417
0.000133995
0.000153128
0.000182908
0.000179859
0.000179933
0.00021958
0.000183189
0.000183977
0.000264863
0.000297549
0.000261641
0.000242871
0.00013307
-4.69341e-06
5.1448e-05
-1.93014e-05
0.000174071
0.000208382
-0.000253276
-0.00244616
-0.00800741
-0.0227387
-0.0648354
-0.135498
-0.25037
-0.326031
-0.356175
-0.370531
-0.370447
-0.369222
-0.366991
-0.356305
-0.341242
-0.324318
-0.306065
-0.28787
-0.266786
-0.247092
-0.224825
-0.204715
-0.184631
-0.167941
-0.152588
-0.141119
-0.129289
-0.120556
-0.110844
-0.102144
-0.0930024
-0.0829805
-0.0716979
-0.059404
-0.0445089
-0.0260815
-0.0038288
0.0234402
0.0563911
0.0973405
0.14895
0.207021
0.263445
0.324089
0.38737
0.441599
0.486764
0.526415
0.559341
0.587265
0.610953
0.629827
0.644691
0.656204
0.664956
0.67121
0.67421
0.676939
0.678169
0.677132
0.674405
0.670426
0.664858
0.658001
0.649683
0.640175
0.629472
0.617916
0.605523
0.59306
0.580021
0.567682
0.556186
0.546104
0.539891
0.543469
0.547511
0.559056
0.5722
0.586775
0.597644
0.609554
2.91157e-05
2.88257e-05
2.83096e-05
2.75892e-05
2.79696e-05
2.87875e-05
3.39182e-05
4.04673e-05
4.53987e-05
5.00211e-05
5.20955e-05
5.63817e-05
6.36068e-05
7.44571e-05
8.49081e-05
9.20649e-05
0.000109913
0.000115908
0.00013539
0.000149739
0.000158485
0.000187843
0.00020367
0.000204141
0.000252299
0.000233442
0.000183204
0.000231293
0.00032643
0.0003421
0.000349664
0.000246644
3.04337e-05
4.10233e-05
2.16139e-05
0.000133029
0.000285134
-0.0001178
-0.00257719
-0.00907239
-0.0265477
-0.0746704
-0.159222
-0.294589
-0.384158
-0.420097
-0.436231
-0.435942
-0.433293
-0.426173
-0.412063
-0.393485
-0.373245
-0.350313
-0.325453
-0.297415
-0.268768
-0.240076
-0.21323
-0.190409
-0.170005
-0.152074
-0.136829
-0.12188
-0.109586
-0.09624
-0.0837648
-0.0699316
-0.0538061
-0.0339874
-0.0103255
0.0175915
0.0502512
0.0903351
0.139698
0.194303
0.246817
0.300949
0.357891
0.411214
0.455967
0.497066
0.53277
0.562646
0.589206
0.61119
0.629839
0.645629
0.658597
0.668855
0.676821
0.682717
0.687022
0.688463
0.690063
0.690395
0.688973
0.686324
0.682596
0.67753
0.671457
0.664217
0.656063
0.646853
0.636931
0.626216
0.615341
0.603933
0.593188
0.583005
0.572734
0.56697
0.57097
0.573815
0.584139
0.594577
0.608102
0.618632
0.630296
3.11941e-05
3.07655e-05
3.01446e-05
2.95779e-05
2.98449e-05
3.05301e-05
3.37655e-05
4.15793e-05
4.97121e-05
5.58766e-05
5.89804e-05
6.27854e-05
6.79672e-05
7.88612e-05
9.18034e-05
0.00010152
0.000118513
0.000126372
0.000145739
0.00017067
0.000168152
0.000190629
0.000221884
0.000234035
0.000265447
0.000292537
0.000221086
0.000203602
0.000318757
0.000423576
0.000399055
0.000411334
0.000157321
5.47418e-05
0.000107754
0.000166648
0.000432984
-2.13978e-05
-0.00306107
-0.0113124
-0.0339125
-0.0949883
-0.213776
-0.37185
-0.457654
-0.490625
-0.498837
-0.491974
-0.485254
-0.472044
-0.453779
-0.432807
-0.409025
-0.381787
-0.350595
-0.315635
-0.280006
-0.245534
-0.214306
-0.187566
-0.162869
-0.141721
-0.121666
-0.103427
-0.0847765
-0.0653633
-0.0438049
-0.0184355
0.011137
0.0462037
0.0882152
0.13815
0.191872
0.240994
0.292227
0.344643
0.3947
0.436623
0.474018
0.508122
0.538536
0.56478
0.589723
0.610077
0.628393
0.64381
0.656883
0.667994
0.677262
0.684804
0.690806
0.695202
0.69836
0.699349
0.700406
0.700408
0.699096
0.696968
0.693783
0.689528
0.684457
0.67842
0.671629
0.663875
0.655478
0.646301
0.636896
0.627075
0.617767
0.608895
0.59872
0.593557
0.597524
0.59904
0.608258
0.61632
0.628567
0.63876
0.649906
3.36923e-05
3.32221e-05
3.25706e-05
3.18366e-05
3.24047e-05
3.26524e-05
3.5209e-05
4.08041e-05
4.96857e-05
5.87949e-05
6.77915e-05
6.87423e-05
7.42612e-05
8.26757e-05
9.72935e-05
0.000108703
0.000122767
0.000140617
0.000154814
0.000190913
0.000183606
0.000196723
0.000233083
0.000266351
0.000273739
0.000328059
0.000274901
0.00021986
0.00028877
0.000466265
0.000461248
0.000511494
0.000326618
0.00016041
0.000195682
0.000156247
0.000519258
-0.000395698
-0.00437404
-0.0155034
-0.0461965
-0.127701
-0.305926
-0.485246
-0.548573
-0.571584
-0.570333
-0.552595
-0.538065
-0.518629
-0.496997
-0.472836
-0.444531
-0.410637
-0.371217
-0.327116
-0.282304
-0.24216
-0.206537
-0.174085
-0.143398
-0.114677
-0.086477
-0.0594395
-0.0296016
0.00337713
0.0410441
0.086783
0.138365
0.192792
0.239965
0.290911
0.342085
0.38871
0.427371
0.462538
0.492895
0.520265
0.545181
0.567255
0.589209
0.607435
0.624958
0.640022
0.65328
0.66468
0.674447
0.682817
0.68996
0.695864
0.700682
0.704329
0.706929
0.70813
0.709218
0.709235
0.708306
0.706701
0.704212
0.700884
0.696888
0.692072
0.686562
0.680194
0.673254
0.66558
0.657663
0.649417
0.64146
0.633696
0.624201
0.619904
0.623051
0.6232
0.631281
0.637415
0.648167
0.657743
0.668403
3.5789e-05
3.5118e-05
3.43091e-05
3.37326e-05
3.42945e-05
3.4733e-05
3.75433e-05
4.20042e-05
4.80363e-05
6.19508e-05
7.0479e-05
7.91713e-05
8.12277e-05
9.23788e-05
0.000102913
0.000118134
0.000131476
0.000150686
0.000168731
0.000201689
0.000213209
0.000206808
0.000239772
0.000290878
0.000299347
0.000345221
0.000343059
0.000256929
0.000274381
0.000438231
0.000546319
0.000577421
0.000495192
0.000447956
0.000315745
0.000274317
0.000508622
-0.00126023
-0.00680065
-0.0230376
-0.0693278
-0.190033
-0.417028
-0.590718
-0.636395
-0.652096
-0.644225
-0.620494
-0.598943
-0.572918
-0.54611
-0.516221
-0.480809
-0.437774
-0.388897
-0.33645
-0.282084
-0.233547
-0.184669
-0.140427
-0.0972044
-0.0558566
-0.0150477
0.0305172
0.0810102
0.137147
0.191205
0.241216
0.291383
0.342844
0.385545
0.422044
0.455923
0.485334
0.510604
0.533913
0.554385
0.571426
0.588914
0.603418
0.619584
0.63371
0.647011
0.658668
0.668935
0.677902
0.68575
0.692614
0.698583
0.703608
0.707796
0.711198
0.713844
0.715346
0.716699
0.717085
0.716685
0.715759
0.714115
0.711851
0.709007
0.705411
0.701101
0.696029
0.69042
0.684129
0.677623
0.670844
0.664068
0.657239
0.648894
0.645758
0.647316
0.646364
0.653292
0.657821
0.667177
0.67587
0.685831
3.83179e-05
3.7539e-05
3.67105e-05
3.5999e-05
3.66873e-05
3.70924e-05
4.04083e-05
4.41834e-05
4.68986e-05
6.01549e-05
7.59305e-05
7.89771e-05
9.13987e-05
0.000101493
0.000114694
0.000123837
0.000139448
0.000157535
0.000181911
0.000203354
0.000238061
0.000230967
0.000243381
0.000289366
0.000330898
0.000345631
0.000411169
0.000319729
0.000288479
0.000379915
0.000561979
0.00067407
0.000624709
0.000715445
0.000465376
0.000596936
-0.000222787
-0.00300112
-0.0110505
-0.0347982
-0.101826
-0.269909
-0.519228
-0.661045
-0.698002
-0.710595
-0.701206
-0.677688
-0.653706
-0.62404
-0.596634
-0.563946
-0.521663
-0.469672
-0.405323
-0.336611
-0.264601
-0.196051
-0.128126
-0.0624957
-0.000820725
0.0625097
0.127127
0.186308
0.238995
0.290311
0.341433
0.383224
0.419284
0.452201
0.479883
0.50412
0.52564
0.545245
0.562266
0.577059
0.591676
0.602283
0.615438
0.626749
0.63893
0.65021
0.66082
0.670412
0.678994
0.686655
0.693486
0.699564
0.704889
0.709365
0.713236
0.716642
0.719555
0.721595
0.723278
0.724015
0.724267
0.724049
0.723306
0.722119
0.720431
0.718018
0.714921
0.711149
0.706866
0.701956
0.696831
0.691382
0.685612
0.679708
0.672511
0.670804
0.670356
0.668582
0.674358
0.677347
0.685399
0.692911
0.702131
4.03919e-05
3.95447e-05
3.85124e-05
3.78786e-05
3.83382e-05
3.88524e-05
4.3413e-05
4.79121e-05
4.74814e-05
5.91757e-05
7.25791e-05
8.61889e-05
8.96266e-05
0.0001127
0.000130921
0.000137808
0.000150281
0.000163402
0.000189232
0.000217345
0.000249857
0.000263876
0.00025497
0.000285575
0.000348955
0.000362842
0.000436281
0.000399618
0.000337534
0.000355238
0.000521641
0.000723505
0.000764979
0.000840741
0.000599222
0.000322364
-0.00127631
-0.00537813
-0.0168587
-0.0494121
-0.138295
-0.344228
-0.590269
-0.708419
-0.744593
-0.759407
-0.758691
-0.74707
-0.730391
-0.703769
-0.672516
-0.625922
-0.56524
-0.490989
-0.400376
-0.299312
-0.197662
-0.0982025
-0.00101266
0.0910271
0.164567
0.226902
0.285231
0.337002
0.378814
0.415126
0.447228
0.474894
0.498792
0.5199
0.538489
0.55448
0.569345
0.583122
0.595448
0.605197
0.615477
0.623102
0.632639
0.64155
0.651432
0.660858
0.669744
0.677989
0.685561
0.692549
0.698932
0.704728
0.70987
0.714212
0.718024
0.721531
0.724676
0.727237
0.729353
0.730535
0.731594
0.732168
0.732349
0.732188
0.731527
0.730177
0.728219
0.725664
0.722605
0.719011
0.715179
0.710932
0.706124
0.701199
0.694925
0.694871
0.692331
0.689936
0.694783
0.696151
0.702904
0.709211
0.717526
4.28346e-05
4.18474e-05
4.07376e-05
4.02281e-05
4.06239e-05
4.07901e-05
4.62354e-05
5.16685e-05
4.86982e-05
5.90207e-05
7.35055e-05
8.6422e-05
9.42836e-05
0.00011554
0.000133936
0.000163773
0.000162555
0.000181573
0.000195854
0.000218098
0.000249533
0.000286472
0.000286729
0.000293439
0.000345888
0.000382377
0.00041585
0.000469467
0.00039526
0.000378775
0.000465992
0.000630388
0.000847334
0.000801148
0.000685799
-4.00924e-05
-0.00215903
-0.00763087
-0.0225897
-0.0636884
-0.172692
-0.408453
-0.652634
-0.759157
-0.79491
-0.811961
-0.818958
-0.81546
-0.802266
-0.776458
-0.737008
-0.675514
-0.590494
-0.480755
-0.345923
-0.194021
-0.0386608
0.0853094
0.181467
0.259777
0.321728
0.369132
0.407962
0.440756
0.468723
0.492404
0.51333
0.531703
0.549059
0.564739
0.57834
0.589765
0.599636
0.60828
0.617255
0.623879
0.631968
0.638106
0.645718
0.652926
0.660996
0.668911
0.676622
0.683933
0.690865
0.697414
0.703526
0.709099
0.714065
0.71827
0.722015
0.725672
0.729159
0.73222
0.734814
0.736487
0.738291
0.7396
0.740737
0.741596
0.741963
0.741707
0.740906
0.739575
0.737743
0.735446
0.732838
0.729674
0.72575
0.721684
0.716058
0.717153
0.713351
0.710502
0.714172
0.713917
0.719291
0.724465
0.731846
4.49178e-05
4.38376e-05
4.25535e-05
4.20995e-05
4.21642e-05
4.21419e-05
4.80164e-05
5.51464e-05
5.26582e-05
5.91088e-05
7.39365e-05
8.81749e-05
9.88101e-05
0.0001111
0.000139398
0.000167534
0.000182388
0.000204831
0.000208042
0.000234544
0.000264721
0.000286926
0.000317792
0.000324126
0.000337148
0.000381115
0.00041865
0.000501721
0.000481636
0.000386271
0.000442182
0.000518226
0.000736201
0.000710466
0.000466921
-0.000645122
-0.00334613
-0.0102525
-0.0293986
-0.0811288
-0.213369
-0.480338
-0.711011
-0.805566
-0.840006
-0.858465
-0.867268
-0.862469
-0.844678
-0.813488
-0.76307
-0.684452
-0.566734
-0.402954
-0.196663
0.00123848
0.147625
0.256909
0.332862
0.387145
0.427748
0.459213
0.484399
0.505818
0.524527
0.541929
0.557802
0.571586
0.583978
0.595249
0.605645
0.614594
0.622773
0.628821
0.635676
0.64051
0.646585
0.651295
0.657182
0.662801
0.669328
0.675849
0.682617
0.689179
0.695694
0.701995
0.707985
0.7135
0.71845
0.722646
0.72635
0.72999
0.733638
0.737088
0.740137
0.742416
0.744975
0.746922
0.748942
0.750712
0.752022
0.752809
0.753072
0.752844
0.752151
0.751031
0.749481
0.747246
0.744171
0.740999
0.736187
0.737993
0.734178
0.730772
0.732667
0.730913
0.734949
0.739126
0.745415
4.72295e-05
4.60523e-05
4.46371e-05
4.44262e-05
4.43511e-05
4.37368e-05
4.9168e-05
5.58382e-05
6.03051e-05
6.04215e-05
7.40743e-05
9.37685e-05
0.000102009
0.000115891
0.000126764
0.00017369
0.000200543
0.00020761
0.000218594
0.000253989
0.000276832
0.000311575
0.0003289
0.000342371
0.000342492
0.000369071
0.00042845
0.00047573
0.000536729