/*--------------------------------*- C++ -*----------------------------------*\
| =========                 |                                                 |
| \\      /  F ield         | OpenFOAM: The Open Source CFD Toolbox           |
|  \\    /   O peration     | Version:  2.2.x                                 |
|   \\  /    A nd           | Web:      www.OpenFOAM.org                      |
|    \\/     M anipulation  |                                                 |
\*---------------------------------------------------------------------------*/
FoamFile
{
    version     2.0;
    format      ascii;
    class       volScalarField;
    location    "1.7";
    object      T;
}
// * * * * * * * * * * * * * * * * * * * * * * * * * * * * * * * * * * * * * //

dimensions      [0 0 0 1 0 0 0];

internalField   nonuniform List<scalar> 
14161
(
0.995416
0.995858
0.995797
0.995756
0.995727
0.995728
0.995764
0.995845
0.99599
0.996247
0.996645
0.997229
0.998045
0.999128
1.00052
1.00225
1.00441
1.00698
1.00997
1.01362
1.01773
1.02237
1.02751
1.03321
1.03954
1.0463
1.05346
1.06105
1.0692
1.07764
1.08647
1.0955
1.10397
1.11259
1.12144
1.13099
1.14071
1.15041
1.16217
1.17627
1.19998
1.24932
1.7134
2.48776
2.79894
2.89668
2.91688
2.87722
2.84498
2.82
2.79898
2.78175
2.76634
2.75451
2.74337
2.73332
2.72433
2.7157
2.70921
2.70181
2.695
2.68791
2.68013
2.67291
2.66463
2.65581
2.64856
2.64029
2.63136
2.62353
2.61432
2.60711
2.59936
2.58828
2.57853
2.56818
2.55762
2.54631
2.53257
2.51976
2.50789
2.49321
2.47751
2.4611
2.4435
2.42634
2.41061
2.39376
2.38035
2.36593
2.35055
2.3335
2.31624
2.30019
2.28912
2.28257
2.27405
2.26528
2.25909
2.26166
2.27797
2.31646
2.38023
2.47693
2.5831
2.66629
2.75927
2.84346
2.90514
2.95115
2.98284
3.00617
3.02566
3.04618
3.06922
3.09247
3.11294
3.12759
3.14283
0.99541
0.995855
0.995793
0.995751
0.995722
0.995722
0.995756
0.995836
0.995979
0.996236
0.996644
0.997232
0.99804
0.999115
1.00051
1.00225
1.00438
1.00696
1.01
1.01363
1.01773
1.02232
1.02743
1.03324
1.03956
1.0463
1.05343
1.06101
1.06917
1.07764
1.08647
1.09543
1.1039
1.11253
1.12131
1.13084
1.14055
1.15049
1.16271
1.17657
1.19626
1.23143
1.65798
2.43721
2.75172
2.84546
2.86653
2.8368
2.81278
2.79463
2.77935
2.7659
2.75383
2.74293
2.73311
2.72303
2.71452
2.70645
2.69961
2.69297
2.68564
2.67952
2.67278
2.66503
2.65751
2.64853
2.64145
2.63441
2.62545
2.61789
2.6093
2.60166
2.59452
2.58431
2.57436
2.56522
2.55522
2.54497
2.53257
2.51963
2.50803
2.49386
2.47754
2.46292
2.44768
2.43083
2.41447
2.39701
2.38049
2.36682
2.35246
2.33755
2.32284
2.30928
2.29697
2.28968
2.28501
2.28544
2.29494
2.31754
2.36443
2.44016
2.54068
2.65225
2.75458
2.83447
2.89922
2.94329
2.97578
3.00192
3.02084
3.03586
3.04957
3.06525
3.08425
3.1033
3.11774
3.12682
3.14107
0.995398
0.995844
0.995782
0.995738
0.995709
0.995708
0.995741
0.99582
0.995962
0.996218
0.996618
0.997201
0.99801
0.999081
1.00047
1.0022
1.00431
1.00692
1.00998
1.01355
1.01763
1.02222
1.02734
1.03314
1.03945
1.04615
1.0533
1.06087
1.06903
1.07749
1.0863
1.09525
1.10371
1.11232
1.121
1.13057
1.1404
1.15031
1.1629
1.17528
1.19212
1.21223
1.61176
2.40355
2.71779
2.81307
2.83529
2.81146
2.79206
2.77619
2.76322
2.75185
2.74194
2.73228
2.72321
2.71396
2.70574
2.69855
2.69131
2.68511
2.67832
2.67336
2.66835
2.66169
2.65506
2.64744
2.641
2.63506
2.62661
2.6187
2.61085
2.60289
2.59571
2.58628
2.57488
2.56533
2.55519
2.54421
2.53215
2.51857
2.50562
2.49203
2.4752
2.46026
2.44556
2.42901
2.41187
2.39494
2.37692
2.36158
2.3477
2.33511
2.32578
2.3173
2.31055
2.30863
2.31496
2.32821
2.35308
2.39853
2.46737
2.56572
2.66927
2.77777
2.89081
2.96924
3.00903
3.0276
3.04072
3.05263
3.06069
3.06697
3.073
3.08162
3.09291
3.10513
3.11525
3.12062
3.13215
0.995379
0.995827
0.995764
0.995719
0.995687
0.995685
0.995717
0.995793
0.995932
0.996183
0.996578
0.997153
0.997959
0.999024
1.0004
1.00212
1.00421
1.00683
1.00988
1.01342
1.01748
1.02203
1.02718
1.03297
1.03926
1.04595
1.05308
1.06066
1.06884
1.07729
1.08606
1.09494
1.10334
1.1119
1.12055
1.13012
1.14011
1.15009
1.16335
1.17674
1.19783
1.23844
1.65538
2.43017
2.73411
2.82332
2.84435
2.81906
2.80013
2.78419
2.77097
2.75952
2.74933
2.73978
2.73072
2.72208
2.71373
2.70636
2.69894
2.69212
2.68517
2.67957
2.67423
2.66778
2.66069
2.6533
2.64674
2.64014
2.63215
2.62372
2.61562
2.60756
2.59944
2.59032
2.57847
2.56784
2.55771
2.54642
2.53436
2.51983
2.50499
2.49097
2.47425
2.4577
2.44133
2.42486
2.40679
2.39011
2.37498
2.36215
2.35349
2.34408
2.33722
2.33253
2.33684
2.34973
2.37647
2.41761
2.48263
2.56363
2.66282
2.77125
2.88198
2.96728
3.0292
3.07513
3.09769
3.10567
3.11064
3.11311
3.11095
3.10626
3.10173
3.1002
3.10185
3.10658
3.11218
3.11377
3.12313
0.995357
0.995806
0.995741
0.995692
0.995654
0.995647
0.995677
0.99575
0.995883
0.996124
0.99651
0.997078
0.997867
0.998916
1.00027
1.00198
1.00407
1.00664
1.00969
1.0132
1.01722
1.02173
1.02694
1.03268
1.03892
1.04559
1.05268
1.06027
1.06844
1.07691
1.08567
1.09436
1.10268
1.11114
1.11998
1.12955
1.13983
1.14962
1.16255
1.17589
1.19914
1.26043
1.70696
2.46246
2.75912
2.84507
2.86654
2.83948
2.82104
2.80532
2.79227
2.78062
2.76959
2.75924
2.74931
2.7395
2.73029
2.72109
2.71213
2.70373
2.69575
2.68866
2.68123
2.67372
2.66537
2.65698
2.65031
2.6426
2.63446
2.62636
2.6176
2.60955
2.60095
2.59126
2.58055
2.56917
2.55775
2.54709
2.53561
2.52149
2.5082
2.49324
2.47668
2.45827
2.44042
2.42547
2.40972
2.39613
2.38315
2.37162
2.36317
2.35783
2.36081
2.37207
2.39336
2.43023
2.48696
2.55928
2.6435
2.74338
2.85126
2.95697
3.0278
3.06557
3.09349
3.12048
3.13787
3.1478
3.15222
3.15236
3.1469
3.1368
3.1255
3.11637
3.11016
3.10767
3.10839
3.1076
3.11496
0.995328
0.995777
0.99571
0.995657
0.995613
0.995599
0.995623
0.995691
0.995816
0.996048
0.996422
0.996974
0.997745
0.998776
1.0001
1.00181
1.00388
1.0064
1.00943
1.01292
1.0169
1.02138
1.02659
1.03229
1.03848
1.0451
1.05214
1.05982
1.06793
1.07641
1.08512
1.09354
1.10179
1.11007
1.11918
1.12912
1.13914
1.14837
1.1597
1.17139
1.19248
1.26983
1.73916
2.47737
2.76869
2.8586
2.88345
2.86173
2.84449
2.82875
2.81479
2.8024
2.78997
2.77704
2.76462
2.75285
2.74142
2.73059
2.72007
2.71046
2.70168
2.69249
2.6837
2.67537
2.66737
2.65975
2.6526
2.64493
2.63725
2.62953
2.6219
2.61325
2.60433
2.59491
2.58527
2.57403
2.56131
2.5501
2.53802
2.52432
2.509
2.49271
2.47478
2.4567
2.44046
2.42777
2.41608
2.40563
2.39453
2.38761
2.38506
2.39394
2.41279
2.44543
2.4973
2.56669
2.64767
2.73974
2.83516
2.94263
3.02502
3.07087
3.09774
3.11511
3.13135
3.14846
3.16214
3.17282
3.17785
3.17752
3.17209
3.1601
3.14442
3.12967
3.11819
3.10908
3.10485
3.10225
3.10733
0.995294
0.995744
0.995674
0.995612
0.995563
0.99554
0.995555
0.995614
0.995728
0.995948
0.996304
0.996832
0.997576
0.99858
0.999884
1.00157
1.00362
1.0061
1.00904
1.01251
1.01644
1.02094
1.02608
1.03174
1.03785
1.04438
1.05141
1.05911
1.06717
1.07563
1.0843
1.09256
1.10072
1.10885
1.11804
1.1283
1.13767
1.14673
1.15686
1.16903
1.19402
1.2947
1.80786
2.51607
2.79704
2.8845
2.90783
2.89464
2.87478
2.85844
2.84332
2.83011
2.81657
2.80271
2.78934
2.77693
2.76495
2.75318
2.74199
2.73149
2.72103
2.7101
2.69895
2.6887
2.67914
2.66984
2.66083
2.65084
2.64176
2.63285
2.62417
2.61458
2.60508
2.59497
2.58507
2.57252
2.55832
2.54494
2.53049
2.51404
2.49783
2.48209
2.4679
2.45555
2.44396
2.43373
2.42327
2.41798
2.41495
2.41915
2.43301
2.4619
2.50922
2.57436
2.65076
2.73881
2.82593
2.92853
3.01228
3.06453
3.09838
3.11839
3.13126
3.14301
3.15617
3.16809
3.17878
3.18748
3.19312
3.19385
3.18895
3.17685
3.15947
3.14118
3.12512
3.11043
3.10176
3.0977
3.1005
0.995254
0.995706
0.995631
0.995559
0.995501
0.995466
0.995469
0.99552
0.995623
0.995818
0.996154
0.996662
0.997381
0.998356
0.999633
1.00125
1.00327
1.0057
1.00859
1.01201
1.01588
1.02034
1.02543
1.03103
1.03705
1.04349
1.05054
1.05824
1.06626
1.07464
1.08324
1.09154
1.09961
1.10764
1.11672
1.12672
1.13565
1.14422
1.15332
1.16591
1.19412
1.31701
1.86756
2.54961
2.81501
2.89658
2.921
2.91736
2.89583
2.8817
2.8693
2.85648
2.843
2.82978
2.81634
2.80201
2.78755
2.77294
2.75847
2.74543
2.7327
2.71977
2.70656
2.69423
2.68327
2.67193
2.6603
2.64889
2.63793
2.62774
2.61844
2.60723
2.5969
2.58589
2.57494
2.5637
2.54902
2.53505
2.52003
2.50447
2.49088
2.47843
2.46899
2.45997
2.45065
2.44465
2.43967
2.44417
2.45913
2.48438
2.52588
2.58503
2.65794
2.74311
2.82404
2.91849
3.00046
3.05276
3.08784
3.11131
3.12845
3.14045
3.14943
3.15914
3.16835
3.17735
3.18691
3.19536
3.20133
3.20307
3.1995
3.18886
3.172
3.15104
3.13048
3.11134
3.09908
3.09357
3.09438
0.995206
0.995661
0.995581
0.9955
0.995429
0.995379
0.995367
0.995407
0.995498
0.995667
0.995979
0.996457
0.997137
0.998064
0.999305
1.00087
1.00283
1.00523
1.00807
1.01136
1.01513
1.01959
1.02465
1.0302
1.0361
1.04243
1.04942
1.05713
1.06513
1.07338
1.08188
1.0904
1.09848
1.10642
1.11518
1.12468
1.13369
1.14211
1.15148
1.16463
1.19856
1.33766
1.92834
2.58013
2.83131
2.90491
2.93502
2.93859
2.91857
2.90409
2.89205
2.87533
2.85814
2.84131
2.82448
2.80755
2.79017
2.7731
2.75634
2.74121
2.72659
2.71204
2.69799
2.68455
2.6719
2.65988
2.64812
2.6361
2.62455
2.61375
2.60236
2.58855
2.57496
2.56153
2.54928
2.53702
2.52321
2.51079
2.4996
2.49075
2.48293
2.47642
2.47012
2.46815
2.46711
2.46967
2.48188
2.5059
2.54594
2.60149
2.66959
2.74995
2.82782
2.91532
2.99136
3.03961
3.07406
3.09741
3.11447
3.12766
3.13824
3.1477
3.15727
3.16532
3.17275
3.18034
3.189
3.19817
3.20565
3.2087
3.20633
3.19715
3.18126
3.15838
3.13374
3.11142
3.09663
3.08944
3.08894
0.995154
0.99561
0.995525
0.995434
0.995347
0.99528
0.995249
0.995272
0.995346
0.995497
0.995768
0.996206
0.996839
0.997734
0.99891
1.00043
1.0023
1.00465
1.0074
1.01059
1.01427
1.01875
1.02371
1.02915
1.0349
1.04115
1.04812
1.0558
1.06376
1.07177
1.08011
1.0888
1.09729
1.10519
1.11356
1.12231
1.1313
1.13997
1.14982
1.16349
1.20168
1.35477
1.98481
2.60614
2.84942
2.91281
2.94286
2.94465
2.92618
2.90651
2.89105
2.87026
2.8508
2.83108
2.81154
2.79296
2.77515
2.7573
2.74031
2.72348
2.70775
2.69226
2.67704
2.66287
2.64872
2.63551
2.62194
2.60768
2.59353
2.57966
2.56664
2.55313
2.53951
2.52704
2.51621
2.50651
2.4984
2.49319
2.48842
2.48501
2.48193
2.48188
2.48538
2.49231
2.50655
2.5307
2.56818
2.62021
2.68429
2.76056
2.83259
2.91389
2.98624
3.032
3.06291
3.08451
3.10007
3.11122
3.12106
3.132
3.14121
3.14909
3.15674
3.16374
3.17117
3.17872
3.18802
3.19823
3.20699
3.21093
3.20981
3.20231
3.18708
3.16276
3.13515
3.11067
3.09412
3.08527
3.08389
0.995091
0.995551
0.995461
0.995359
0.995253
0.99517
0.995117
0.995114
0.995166
0.995294
0.995526
0.995916
0.996504
0.997347
0.998454
0.999899
1.00169
1.00396
1.00661
1.00964
1.01334
1.01772
1.02255
1.02776
1.03343
1.03966
1.04666
1.05414
1.06192
1.0698
1.07814
1.08705
1.09586
1.10393
1.11196
1.12049
1.12876
1.13784
1.14866
1.16295
1.20378
1.36434
2.0219
2.61908
2.85419
2.91282
2.93668
2.93267
2.91473
2.89431
2.87622
2.85345
2.83303
2.81199
2.79029
2.76868
2.74773
2.72745
2.70778
2.68879
2.67067
2.65426
2.63833
2.6219
2.60655
2.59153
2.57646
2.56237
2.54865
2.53475
2.52188
2.51036
2.50056
2.4929
2.48757
2.48552
2.48383
2.48352
2.48776
2.4906
2.49654
2.50774
2.52416
2.55357
2.59366
2.64425
2.70325
2.77321
2.83906
2.91593
2.98191
3.02455
3.05407
3.07425
3.08761
3.09752
3.10616
3.11489
3.12137
3.12865
3.13662
3.14428
3.1522
3.16055
3.16854
3.17586
3.18464
3.19456
3.20383
3.20835
3.20859
3.2028
3.18831
3.16364
3.13454
3.10885
3.09122
3.08133
3.07931
0.995021
0.995484
0.995388
0.995278
0.995154
0.995044
0.994965
0.994933
0.994963
0.995053
0.99525
0.995592
0.996123
0.996881
0.997901
0.999277
1.001
1.00315
1.00566
1.00856
1.01228
1.01648
1.02112
1.02613
1.0317
1.03809
1.04494
1.05213
1.05957
1.06737
1.07594
1.08521
1.0942
1.10269
1.11026
1.11871
1.12687
1.13597
1.14761
1.16329
1.20749
1.37567
2.04209
2.62399
2.84972
2.90658
2.92423
2.91092
2.89125
2.86767
2.84626
2.82154
2.79924
2.77664
2.75396
2.73128
2.70859
2.68511
2.66437
2.64069
2.61903
2.60218
2.58343
2.56801
2.55262
2.53762
2.52403
2.51082
2.50054
2.49055
2.48224
2.47695
2.47507
2.47443
2.47538
2.48016
2.48557
2.49247
2.50357
2.52046
2.53947
2.57324
2.61649
2.66961
2.72724
2.78871
2.84764
2.92134
2.98021
3.0181
3.04446
3.06317
3.07598
3.0857
3.0931
3.10008
3.10628
3.11165
3.11728
3.12414
3.13079
3.13775
3.14525
3.1533
3.16131
3.16901
3.17761
3.18713
3.19663
3.20202
3.20367
3.19974
3.18644
3.16249
3.13288
3.10659
3.08799
3.0772
3.07459
0.994943
0.995409
0.995307
0.995188
0.995046
0.994904
0.994797
0.994728
0.994724
0.994784
0.994933
0.995219
0.995673
0.99635
0.997288
0.998566
1.00021
1.0022
1.00452
1.00739
1.01099
1.01501
1.01944
1.02422
1.02975
1.03621
1.04296
1.04976
1.05683
1.06463
1.07352
1.08312
1.09234
1.10122
1.10861
1.11685
1.12546
1.13503
1.14694
1.16431
1.21152
1.38503
2.04985
2.62448
2.84431
2.90349
2.91631
2.89101
2.86758
2.83925
2.81323
2.78467
2.75916
2.73066
2.70371
2.67714
2.64997
2.62705
2.60058
2.57916
2.55933
2.5406
2.52497
2.50797
2.49536
2.48247
2.47258
2.46495
2.45877
2.45763
2.45744
2.45894
2.4652
2.47164
2.48058
2.49149
2.50863
2.52769
2.55589
2.5943
2.64083
2.69278
2.74898
2.80506
2.86517
2.93203
2.98166
3.01364
3.03699
3.05355
3.06439
3.07211
3.07908
3.08614
3.09218
3.09755
3.10322
3.10924
3.11493
3.12064
3.12682
3.13351
3.14078
3.14845
3.15622
3.16373
3.17165
3.18042
3.18979
3.19577
3.1985
3.19597
3.18336
3.16038
3.13071
3.10378
3.08427
3.07266
3.06986
0.994853
0.995324
0.995215
0.995085
0.994928
0.994757
0.994608
0.994502
0.994448
0.994475
0.994577
0.994787
0.995172
0.995761
0.996608
0.997765
0.999252
1.00108
1.00323
1.00609
1.00948
1.0133
1.01749
1.02209
1.02742
1.03389
1.04064
1.04711
1.05383
1.06158
1.07043
1.08047
1.09003
1.09929
1.10707
1.11498
1.12395
1.1345
1.14672
1.16524
1.21299
1.38786
2.03845
2.60998
2.83255
2.89509
2.89433
2.85956
2.82903
2.7939
2.76174
2.73053
2.69876
2.66798
2.63466
2.60596
2.57744
2.5504
2.52665
2.50549
2.48831
2.47141
2.4592
2.44764
2.43914
2.43325
2.4314
2.43193
2.43444
2.43862
2.44629
2.45729
2.46948
2.48775
2.50845
2.53681
2.57485
2.61911
2.66839
2.71765
2.77037
2.8223
2.88417
2.94117
2.98406
3.01334
3.03295
3.04612
3.05418
3.06021
3.0661
3.07125
3.07678
3.08308
3.08806
3.09347
3.09946
3.10578
3.11169
3.11761
3.12367
3.13004
3.13679
3.14391
3.15129
3.15853
3.1658
3.17361
3.18257
3.18889
3.19245
3.19077
3.17856
3.15702
3.12783
3.10057
3.0803
3.06806
3.06503
0.994756
0.995233
0.995115
0.994971
0.994796
0.994601
0.994403
0.994252
0.994138
0.994109
0.994173
0.994318
0.994603
0.9951
0.995823
0.996827
0.998185
0.999826
1.00183
1.00455
1.00774
1.0113
1.01524
1.01967
1.02473
1.03112
1.03784
1.04414
1.05054
1.05795
1.06663
1.0771
1.08693
1.09655
1.10556
1.11322
1.1222
1.13415
1.1474
1.16714
1.21568
1.38875
2.00864
2.58478
2.81577
2.8764
2.85612
2.81179
2.76971
2.72262
2.6818
2.64282
2.60975
2.57367
2.54338
2.5134
2.48749
2.46261
2.44691
2.43076
2.42088
2.41083
2.40523
2.40354
2.40327
2.40476
2.40952
2.41641
2.42873
2.44025
2.46078
2.48352
2.51292
2.55161
2.59616
2.64561
2.69379
2.74445
2.79356
2.85046
2.91028
2.95494
2.98889
3.01298
3.0291
3.03911
3.04604
3.04937
3.05368
3.05822
3.06314
3.06772
3.07301
3.08022
3.08463
3.08958
3.09557
3.10184
3.1082
3.11442
3.12043
3.12636
3.1324
3.1388
3.14553
3.15246
3.15932
3.16639
3.17487
3.1812
3.1856
3.18432
3.17233
3.15248
3.12407
3.09699
3.07614
3.06311
3.0599
0.994648
0.99513
0.995003
0.994845
0.99465
0.994428
0.99419
0.993972
0.993802
0.993692
0.993697
0.993786
0.993972
0.994337
0.994919
0.995801
0.996992
0.99844
1.00026
1.00275
1.00577
1.00907
1.01272
1.01691
1.02171
1.0278
1.03437
1.04089
1.04693
1.05371
1.06218
1.07276
1.08282
1.09294
1.10289
1.11084
1.11967
1.13269
1.1472
1.16818
1.21567
1.38442
1.94662
2.53483
2.77564
2.83171
2.79033
2.7314
2.67854
2.62704
2.5841
2.54774
2.51533
2.48152
2.4534
2.42821
2.40746
2.39428
2.38828
2.37928
2.38128
2.37639
2.38026
2.38245
2.38787
2.40035
2.41383
2.43543
2.46016
2.49095
2.53031
2.57531
2.62571
2.67413
2.72533
2.77487
2.8279
2.88597
2.93416
2.97147
3.00009
3.01713
3.02758
3.03476
3.03809
3.04149
3.0444
3.04667
3.0496
3.05359
3.05842
3.06375
3.06921
3.07652
3.08115
3.08583
3.09136
3.0976
3.10409
3.11054
3.11674
3.12276
3.12867
3.1346
3.14068
3.14707
3.15348
3.15984
3.16751
3.17327
3.17834
3.17729
3.16515
3.14683
3.11922
3.09316
3.07189
3.05804
3.05463
0.994527
0.995017
0.994882
0.994707
0.994488
0.994238
0.99396
0.99368
0.993431
0.993243
0.99315
0.993167
0.993269
0.993491
0.993915
0.994667
0.99566
0.996903
0.998506
1.0007
1.00354
1.0066
1.00995
1.01385
1.01836
1.02383
1.03034
1.03692
1.04283
1.04926
1.05727
1.06672
1.07758
1.08794
1.09827
1.10787
1.11607
1.12983
1.14486
1.16779
1.21708
1.39279
1.87947
2.4511
2.6648
2.70212
2.6591
2.60367
2.55048
2.50509
2.46775
2.438
2.41257
2.38903
2.37254
2.36133
2.35695
2.36053
2.35999
2.35728
2.36468
2.36602
2.38196
2.3934
2.41587
2.44243
2.47715
2.51826
2.56603
2.61513
2.66501
2.71818
2.76871
2.82354
2.88054
2.92808
2.96394
2.99147
3.01164
3.02405
3.03063
3.03674
3.03618
3.03875
3.03832
3.03918
3.04052
3.04224
3.04494
3.04887
3.05389
3.05987
3.06601
3.073
3.07787
3.08239
3.08748
3.0932
3.09947
3.10596
3.1123
3.11839
3.12423
3.12988
3.13543
3.14122
3.14714
3.15288
3.15967
3.16478
3.17031
3.16956
3.15749
3.14037
3.11362
3.08901
3.06746
3.05264
3.04855
0.994397
0.994894
0.994746
0.994554
0.994309
0.994023
0.993704
0.993376
0.993043
0.992756
0.992555
0.992453
0.992453
0.992558
0.992832
0.993372
0.994159
0.995184
0.996548
0.998372
1.00092
1.0038
1.00682
1.01039
1.01453
1.01936
1.02562
1.03207
1.03817
1.04418
1.05113
1.05982
1.07107
1.08153
1.09211
1.10219
1.11056
1.12441
1.13814
1.16178
1.21941
1.40009
1.87875
2.32254
2.50552
2.53905
2.52095
2.48753
2.43999
2.409
2.38337
2.36567
2.35334
2.34186
2.34473
2.34136
2.34755
2.3579
2.35297
2.37353
2.37902
2.40539
2.43067
2.47069
2.51493
2.5653
2.61699
2.66974
2.72649
2.77638
2.83627
2.89215
2.93704
2.97201
2.99821
3.01497
3.02846
3.03789
3.04174
3.04517
3.0408
3.04193
3.03795
3.0376
3.03623
3.03582
3.03628
3.03756
3.04006
3.04403
3.04946
3.05616
3.06302
3.06985
3.07514
3.07992
3.08461
3.08972
3.09569
3.10207
3.10839
3.11448
3.12028
3.12572
3.13084
3.13595
3.14113
3.14602
3.15185
3.15636
3.16171
3.16099
3.14971
3.13339
3.10755
3.08435
3.06277
3.04682
3.04213
0.994252
0.994757
0.994598
0.994386
0.994112
0.993787
0.993427
0.99304
0.99263
0.992234
0.991909
0.99167
0.991513
0.991495
0.991626
0.991926
0.992472
0.993273
0.994361
0.995827
0.997961
1.00058
1.00334
1.00646
1.01013
1.01445
1.02007
1.02631
1.03266
1.03819
1.04411
1.0523
1.06279
1.07343
1.08362
1.09307
1.10207
1.11378
1.12511
1.14996
1.21754
1.42479
1.85133
2.2405
2.39084
2.42409
2.4304
2.43908
2.40899
2.40278
2.38836
2.38112
2.37983
2.36503
2.3787
2.36514
2.38414
2.38083
2.40298
2.42906
2.46842
2.51404
2.57081
2.62157
2.68234
2.74051
2.7962
2.85816
2.91237
2.95338
2.98969
3.01556
3.03027
3.04056
3.04808
3.05106
3.05195
3.05433
3.04906
3.05032
3.04388
3.04284
3.03821
3.03603
3.03425
3.0333
3.03328
3.03412
3.03605
3.0395
3.04474
3.05151
3.05885
3.06599
3.07143
3.0764
3.08094
3.08535
3.0905
3.09643
3.10264
3.10884
3.1148
3.1203
3.12532
3.13003
3.13462
3.13887
3.14389
3.14779
3.15256
3.15132
3.1417
3.12607
3.10109
3.07922
3.05791
3.04082
3.03501
0.994093
0.994609
0.994437
0.994203
0.993898
0.993531
0.993115
0.992668
0.992192
0.991692
0.99122
0.990816
0.990492
0.990293
0.990247
0.99037
0.990634
0.991178
0.991955
0.993055
0.994662
0.996892
0.999437
1.0021
1.00527
1.00907
1.01369
1.01974
1.02588
1.03137
1.03671
1.04395
1.05245
1.06299
1.07215
1.08072
1.0902
1.09767
1.10591
1.12851
1.22026
1.45483
1.97367
2.28082
2.37491
2.41444
2.43271
2.4545
2.4448
2.46043
2.43923
2.42332
2.40809
2.38009
2.40167
2.39712
2.43655
2.45614
2.51161
2.55852
2.62184
2.68861
2.75044
2.8119
2.87732
2.9318
2.97291
3.00654
3.03017
3.04402
3.0551
3.06223
3.06383
3.06349
3.06264
3.06279
3.05822
3.05892
3.0513
3.04897
3.04252
3.04011
3.03627
3.0341
3.03219
3.03108
3.03081
3.03149
3.03319
3.03639
3.04104
3.04729
3.05453
3.06187
3.0679
3.07341
3.07809
3.08221
3.08667
3.09192
3.09781
3.10385
3.10972
3.11514
3.11995
3.12414
3.12804
3.13168
3.13592
3.13919
3.14303
3.14046
3.13319
3.11868
3.09465
3.07355
3.05258
3.0345
3.02804
0.993923
0.994447
0.994261
0.994003
0.993664
0.99325
0.992779
0.992254
0.991697
0.991108
0.99049
0.989901
0.989405
0.988984
0.988687
0.988574
0.988619
0.988835
0.989275
0.990007
0.991081
0.992775
0.99492
0.997268
0.999884
1.00299
1.00685
1.01216
1.01783
1.02344
1.02824
1.03386
1.0412
1.0505
1.0585
1.06622
1.07482
1.08105
1.09342
1.13115
1.2671
1.65646
2.14432
2.33428
2.3998
2.41241
2.4084
2.39637
2.36539
2.34904
2.30436
2.31502
2.31029
2.35884
2.39102
2.44675
2.51409
2.5944
2.66877
2.73931
2.81462
2.88184
2.9383
2.98176
3.01451
3.03765
3.0531
3.06425
3.07114
3.07417
3.07498
3.07481
3.07325
3.0676
3.0627
3.06125
3.05607
3.05633
3.05058
3.04828
3.0422
3.03884
3.0347
3.03237
3.03025
3.02887
3.02832
3.02877
3.03014
3.03293
3.03697
3.04228
3.04885
3.05605
3.06241
3.06843
3.07313
3.07727
3.08129
3.0858
3.09111
3.09689
3.10277
3.10839
3.11339
3.11766
3.12135
3.12449
3.12789
3.1304
3.13312
3.12876
3.12408
3.11124
3.08816
3.0673
3.04647
3.02803
3.02097
0.993735
0.994272
0.99407
0.993787
0.99341
0.992949
0.99241
0.991793
0.991147
0.990473
0.989716
0.988947
0.988231
0.987608
0.987017
0.986575
0.986304
0.986222
0.986293
0.986636
0.987261
0.988256
0.989799
0.991764
0.99384
0.996233
0.999361
1.00359
1.00876
1.01398
1.0184
1.02322
1.02938
1.03594
1.0435
1.05115
1.05795
1.06666
1.08333
1.13905
1.31214
1.80582
2.23388
2.35814
2.38318
2.35089
2.30773
2.26488
2.23217
2.21826
2.21361
2.27488
2.32558
2.42146
2.50488
2.60081
2.69746
2.79789
2.87543
2.93608
2.98112
3.01361
3.03707
3.05402
3.06529
3.07282
3.0782
3.08081
3.08074
3.07737
3.07346
3.07003
3.06832
3.06608
3.06147
3.06081
3.05561
3.0552
3.04996
3.04763
3.04183
3.03807
3.03323
3.03036
3.02755
3.02584
3.0249
3.0254
3.02699
3.02996
3.03393
3.03865
3.04436
3.05118
3.0577
3.06417
3.06894
3.07326
3.07703
3.08081
3.08531
3.09055
3.09625
3.10185
3.10694
3.11116
3.11458
3.1172
3.1197
3.12137
3.12335
3.11736
3.11449
3.10343
3.08141
3.0606
3.03983
3.02131
3.01402
0.993532
0.994082
0.993863
0.993553
0.993135
0.99262
0.992011
0.991299
0.990533
0.989778
0.988881
0.987925
0.98699
0.986131
0.985273
0.984446
0.983786
0.983297
0.982945
0.982884
0.983041
0.983438
0.98419
0.985483
0.987107
0.988859
0.991172
0.994182
0.998434
1.00298
1.00734
1.01152
1.01637
1.02178
1.0276
1.03442
1.04045
1.04885
1.06569
1.14268
1.32165
1.9293
2.25989
2.33485
2.33945
2.29205
2.23912
2.19439
2.17847
2.18663
2.24888
2.33967
2.46369
2.59579
2.71741
2.8469
2.94207
2.99308
3.02355
3.04308
3.0559
3.06491
3.07145
3.07614
3.07878
3.07933
3.07749
3.07597
3.07415
3.07218
3.06976
3.0671
3.06381
3.06243
3.05773
3.05644
3.05182
3.05063
3.04631
3.04454
3.0397
3.03651
3.03153
3.02833
3.02467
3.02252
3.02085
3.02097
3.02229
3.02515
3.02919
3.03388
3.03908
3.04533
3.05177
3.05827
3.06306
3.0677
3.07133
3.0748
3.07865
3.08317
3.08832
3.09379
3.09905
3.10344
3.10687
3.10932
3.11127
3.11219
3.11355
3.10653
3.1043
3.09472
3.0743
3.05378
3.03284
3.01453
3.00681
0.993313
0.993876
0.99364
0.9933
0.992836
0.992264
0.991583
0.990775
0.989879
0.989005
0.987964
0.986819
0.98565
0.984523
0.983429
0.982206
0.981088
0.98014
0.979304
0.978674
0.978225
0.978133
0.978281
0.978595
0.979411
0.980717
0.982229
0.984245
0.986902
0.990541
0.994465
0.998169
1.00216
1.00697
1.01222
1.01843
1.02721
1.04132
1.07126
1.18185
1.41465
2.01349
2.27443
2.3011
2.28422
2.24298
2.19463
2.17694
2.19759
2.25374
2.34738
2.49479
2.64505
2.79715
2.95395
3.03286
3.05924
3.07128
3.07565
3.07886
3.08086
3.08086
3.07965
3.07683
3.07474
3.07383
3.07115
3.0697
3.0667
3.06392
3.06073
3.05815
3.05471
3.05475
3.05125
3.05091
3.04765
3.04655
3.04321
3.04208
3.03806
3.03581
3.03098
3.02759
3.02309
3.02027
3.0176
3.01697
3.01763
3.02001
3.0239
3.02854
3.03336
3.0392
3.04543
3.05211
3.05713
3.06208
3.06579
3.06921
3.07268
3.07636
3.08071
3.08563
3.09064
3.0951
3.09863
3.10108
3.10273
3.10311
3.10364
3.09579
3.09359
3.08547
3.067
3.04678
3.02546
3.00771
3.00019
0.993076
0.993655
0.993401
0.993028
0.99251
0.991879
0.991128
0.990217
0.989181
0.988155
0.986988
0.98563
0.984188
0.98275
0.981389
0.979905
0.978244
0.976747
0.975358
0.974153
0.973125
0.972188
0.971552
0.971223
0.971098
0.971417
0.972169
0.973214
0.974734
0.976639
0.979728
0.983223
0.986512
0.990714
0.99512
1.00054
1.00965
1.02428
1.06131
1.1907
1.55059
2.03755
2.2052
2.22586
2.21036
2.17471
2.16037
2.1808
2.23939
2.34406
2.49662
2.65917
2.83627
3.00615
3.06951
3.08605
3.08608
3.08578
3.08457
3.08215
3.08007
3.07796
3.07541
3.0737
3.0706
3.06852
3.06482
3.06119
3.05742
3.05421
3.05131
3.04942
3.04658
3.04825
3.04544
3.04532
3.04257
3.04117
3.03826
3.03714
3.03375
3.03219
3.0277
3.02489
3.02051
3.01764
3.01413
3.01268
3.0125
3.01423
3.01784
3.02249
3.02723
3.03275
3.03859
3.04519
3.05042
3.0556
3.05962
3.06289
3.06614
3.06916
3.07279
3.07684
3.08132
3.08579
3.08956
3.0922
3.09376
3.09371
3.09341
3.08485
3.08282
3.07566
3.05892
3.03901
3.0176
3.00102
2.99375
0.992822
0.993417
0.993142
0.992734
0.992158
0.991471
0.990645
0.989631
0.988456
0.987218
0.985929
0.984366
0.982635
0.980856
0.979145
0.977363
0.975261
0.973137
0.971159
0.969288
0.967616
0.96592
0.964209
0.962882
0.961895
0.961116
0.96072
0.961029
0.961468
0.962216
0.963444
0.965981
0.969065
0.972563
0.975628
0.979844
0.989123
1.00642
1.05922
1.21203
1.68397
2.02408
2.12662
2.15105
2.15008
2.13578
2.15158
2.21192
2.33199
2.48947
2.66463
2.86008
3.03052
3.08036
3.09181
3.08433
3.08131
3.0777
3.07429
3.07198
3.07048
3.06935
3.06802
3.06669
3.06488
3.06289
3.0598
3.05622
3.05231
3.04851
3.04468
3.04184
3.03808
3.0384
3.03489
3.03442
3.03155
3.03125
3.02946
3.02924
3.0278
3.02713
3.02387
3.02187
3.01771
3.01518
3.01145
3.00915
3.00772
3.00834
3.01123
3.01571
3.02036
3.02537
3.03091
3.03744
3.04322
3.04861
3.0531
3.05629
3.05955
3.06174
3.06492
3.06805
3.07171
3.07593
3.07995
3.0829
3.08462
3.08448
3.08342
3.07414
3.07199
3.06531
3.05044
3.03079
3.00985
2.99458
2.98812
0.992548
0.993162
0.992865
0.992419
0.991786
0.991031
0.990126
0.989006
0.987688
0.98623
0.984765
0.983023
0.980999
0.978838
0.97665
0.974559
0.972151
0.969318
0.966623
0.964025
0.961664
0.959245
0.956428
0.953833
0.951698
0.949887
0.948279
0.947384
0.946593
0.946122
0.946098
0.946697
0.948507
0.950556
0.952394
0.955348
0.963092
0.982047
1.04649
1.23013
1.66418
1.93041
2.02092
2.09176
2.10421
2.12291
2.1863
2.3225
2.49121
2.67859
2.88488
3.04365
3.08596
3.09169
3.07923
3.07271
3.06807
3.06431
3.06129
3.05929
3.05806
3.05725
3.0566
3.05603
3.05516
3.05415
3.05256
3.05036
3.04755
3.04378
3.03958
3.03606
3.03162
3.03015
3.02603
3.02502
3.02155
3.02237
3.02023
3.02031
3.0197
3.0193
3.01782
3.0163
3.01284
3.01067
3.00727
3.00489
3.00274
3.00229
3.00422
3.00832
3.01288
3.01738
3.02257
3.02896
3.03539
3.04095
3.04594
3.04907
3.05255
3.05412
3.05686
3.0591
3.06194
3.06537
3.06969
3.07299
3.07485
3.07494
3.07332
3.06339
3.0611
3.05465
3.04133
3.02167
3.00165
2.98787
2.98228
0.992255
0.992887
0.992568
0.992085
0.991397
0.990555
0.98957
0.988342
0.98687
0.985201
0.983492
0.981586
0.979274
0.976716
0.974041
0.971473
0.968699
0.96537
0.961778
0.958368
0.954973
0.951899
0.948484
0.944368
0.940663
0.937632
0.934735
0.93258
0.930373
0.927971
0.925867
0.924824
0.924732
0.925017
0.925495
0.927989
0.937263
0.964299
1.06115
1.27173
1.66438
1.86607
1.99864
2.06936
2.10259
2.17169
2.32159
2.49977
2.69927
2.91271
3.04942
3.08874
3.0865
3.07549
3.06756
3.06069
3.05561
3.05175
3.0489
3.04683
3.04558
3.04506
3.04493
3.04496
3.04511
3.04459
3.04442
3.04316
3.04156
3.0388
3.03513
3.03117
3.02635
3.02353
3.01924
3.01749
3.01344
3.0142
3.01094
3.01102
3.01015
3.01004
3.00971
3.00885
3.00691
3.00502
3.00222
3.00007
2.99771
2.99666
2.99753
3.00097
3.00523
3.00918
3.01386
3.01986
3.02682
3.03257
3.03808
3.04129
3.04503
3.04617
3.04874
3.05002
3.05217
3.05464
3.05904
3.06241
3.0646
3.06541
3.06352
3.05321
3.05056
3.04376
3.03157
3.01254
2.99391
2.98151
2.97738
0.99194
0.992595
0.992252
0.991732
0.990992
0.990056
0.988957
0.987635
0.986021
0.984153
0.98212
0.980009
0.977462
0.974515
0.971332
0.968064
0.964919
0.961256
0.956781
0.952251
0.94783
0.943705
0.939609
0.934873
0.929253
0.924093
0.919676
0.915551
0.912513
0.908929
0.904131
0.900275
0.897852
0.896827
0.895635
0.896042
0.901735
0.938147
1.04012
1.32221
1.62271
1.82988
1.9896
2.07964
2.16058
2.31646
2.50301
2.71724
2.94023
3.0519
3.08255
3.07616
3.06947
3.06245
3.05529
3.04904
3.04406
3.04024
3.03733
3.0353
3.03406
3.03335
3.03328
3.0333
3.0341
3.03392
3.03463
3.03444
3.03393
3.03259
3.03004
3.02678
3.02203
3.01788
3.01344
3.01093
3.00675
3.00735
3.00358
3.00378
3.00151
3.00057
3.00023
2.9997
2.99879
2.99736
2.99541
2.99361
2.99148
2.99031
2.99058
2.99343
2.99726
3.00071
3.0048
3.01015
3.01742
3.02344
3.02957
3.03301
3.03689
3.03785
3.04032
3.0408
3.04205
3.0435
3.04807
3.05103
3.05363
3.0554
3.05385
3.04352
3.04028
3.03316
3.02155
3.00293
2.98551
2.97459
2.97164
0.991606
0.992283
0.991917
0.991357
0.990563
0.98954
0.988286
0.986884
0.985127
0.98305
0.9807
0.97828
0.975552
0.972233
0.968516
0.964576
0.96068
0.956625
0.951817
0.945969
0.940218
0.934725
0.929689
0.924275
0.917971
0.910241
0.903105
0.897009
0.891641
0.887318
0.881892
0.87419
0.868274
0.865606
0.863058
0.862376
0.864035
0.91914
0.981271
1.46607
1.5684
1.81855
2.02622
2.14586
2.3163
2.5038
2.73118
2.96125
3.05249
3.07435
3.06501
3.05989
3.05477
3.04879
3.04271
3.03716
3.03258
3.02901
3.0261
3.02394
3.02263
3.02149
3.02142
3.02124
3.02191
3.02227
3.02304
3.02418
3.0241
3.02433
3.02329
3.02139
3.01793
3.01343
3.00823
3.00461
3.00041
3.0006
2.99671
2.99751
2.99452
2.99288
2.99146
2.9904
2.98989
2.98862
2.98745
2.98623
2.9847
2.98354
2.98337
2.9859
2.98941
2.99215
2.99544
2.99993
3.00734
3.01365
3.02042
3.02424
3.02814
3.0291
3.03135
3.03154
3.03193
3.03215
3.03712
3.03915
3.04209
3.04494
3.04413
3.03399
3.02989
3.02218
3.01056
2.99298
2.97781
2.96873
2.96682
0.991252
0.991954
0.991564
0.990957
0.990106
0.988993
0.987604
0.986054
0.984184
0.981906
0.979273
0.976413
0.973435
0.969884
0.965641
0.961001
0.95618
0.951522
0.946291
0.939874
0.932515
0.925268
0.918459
0.91224
0.905311
0.897025
0.88676
0.877306
0.869323
0.863522
0.856037
0.84547
0.836973
0.833271