/*--------------------------------*- C++ -*----------------------------------*\
| =========                 |                                                 |
| \\      /  F ield         | OpenFOAM: The Open Source CFD Toolbox           |
|  \\    /   O peration     | Version:  2.2.x                                 |
|   \\  /    A nd           | Web:      www.OpenFOAM.org                      |
|    \\/     M anipulation  |                                                 |
\*---------------------------------------------------------------------------*/
FoamFile
{
    version     2.0;
    format      ascii;
    class       volScalarField;
    location    "0.25";
    object      By;
}
// * * * * * * * * * * * * * * * * * * * * * * * * * * * * * * * * * * * * * //

dimensions      [1 0 -2 0 0 -1 0];

internalField   nonuniform List<scalar> 
14161
(
-7.46661e-16
-1.18249e-14
-2.57502e-14
-6.78915e-14
-1.75148e-13
-4.40837e-13
-1.06755e-12
-2.51259e-12
-5.66962e-12
-1.22516e-11
-2.43508e-11
-5.61409e-11
-7.28234e-11
-2.24292e-10
-3.57122e-10
-1.11611e-09
-1.63901e-09
-2.82123e-09
-4.66927e-09
-7.51825e-09
-1.18473e-08
-1.78456e-08
-2.75418e-08
-3.82998e-08
-6.02155e-08
-7.39752e-08
-1.19732e-07
-1.35875e-07
-2.18698e-07
-2.66107e-07
-3.31433e-07
-3.81707e-07
-7.23535e-07
-4.11216e-07
-1.22715e-06
-5.60955e-07
-1.73076e-06
-1.09615e-06
-2.11531e-06
-2.07483e-06
-2.41379e-06
-3.17918e-06
-2.35883e-06
-3.5024e-06
-2.33648e-06
-3.97139e-06
-4.75555e-06
-7.83746e-06
-7.18836e-06
-1.05743e-05
-8.28298e-06
-1.10061e-05
-9.98797e-06
-1.40815e-05
-9.94326e-06
-1.65113e-05
-1.8256e-05
-2.40164e-05
-3.06714e-05
-2.41806e-05
-2.24562e-05
-3.82514e-05
-2.125e-05
-4.77377e-05
-5.55268e-05
-2.36079e-05
-4.81801e-05
-5.63574e-05
-6.11226e-05
-7.83294e-05
-5.59277e-07
-0.000107035
-9.07352e-05
0.000217345
0.000652004
0.00146392
0.000602713
-0.0170392
-0.0596887
-0.0683357
-0.0362698
-0.0136245
0.00615084
0.0161612
0.0255548
0.0333742
0.0396812
0.0444985
0.0369467
0.0307584
0.0255993
0.0225034
0.0206045
0.0190259
0.0174516
0.0157529
0.0146576
0.0142214
0.0137123
0.0128282
0.0121933
0.0118003
0.0115681
0.0113563
0.0112505
0.0111988
0.0112953
0.0114271
0.0117149
0.0121236
0.0127102
0.0134566
0.0143201
0.0155172
0.016436
0.0181828
0.0190814
0.0212093
0.0210232
-1.05191e-14
-4.12681e-14
-9.68444e-14
-2.51729e-13
-6.40431e-13
-1.58504e-12
-3.78343e-12
-8.73741e-12
-1.92891e-11
-4.0958e-11
-8.06798e-11
-1.74228e-10
-2.13065e-10
-8.27029e-10
-9.1004e-10
-3.46677e-09
-5.08772e-09
-8.48528e-09
-1.42183e-08
-2.28815e-08
-3.61083e-08
-5.39333e-08
-8.47425e-08
-1.1558e-07
-1.85992e-07
-2.24485e-07
-3.70504e-07
-4.17851e-07
-6.70539e-07
-7.90406e-07
-1.13979e-06
-1.18648e-06
-2.08826e-06
-1.30093e-06
-3.77554e-06
-1.71828e-06
-5.57859e-06
-3.01115e-06
-7.30925e-06
-5.08979e-06
-8.11279e-06
-7.77534e-06
-8.27404e-06
-1.02569e-05
-9.45852e-06
-1.46303e-05
-1.3078e-05
-1.89023e-05
-1.77371e-05
-2.36869e-05
-2.3998e-05
-2.81736e-05
-3.10299e-05
-3.04493e-05
-3.7975e-05
-4.67637e-05
-4.73439e-05
-5.59425e-05
-6.85936e-05
-5.62281e-05
-5.11076e-05
-0.00010641
-7.13907e-05
-0.000140713
-0.000154104
-0.000112409
-0.000142919
-0.000146258
-0.000138933
-0.000191449
-5.61837e-05
-0.000237208
-0.000246083
0.000252787
0.00101399
0.0022558
-0.00243262
-0.0582923
-0.185635
-0.158131
-0.0848989
-0.0266057
0.00773605
0.0379883
0.0607192
0.084711
0.104122
0.11759
0.108202
0.0923447
0.0782549
0.068122
0.0615177
0.0563664
0.0511583
0.0458502
0.0426468
0.0416767
0.040393
0.0380418
0.0364347
0.0356892
0.0351959
0.0347189
0.0345293
0.0344603
0.0347524
0.0351207
0.0359071
0.0369839
0.0385643
0.0405366
0.042986
0.0461008
0.0486389
0.0532213
0.0550172
0.0595737
0.0594786
-1.24499e-14
-5.66276e-14
-1.29719e-13
-3.3872e-13
-8.65478e-13
-2.1559e-12
-5.17671e-12
-1.20837e-11
-2.70143e-11
-5.80498e-11
-1.17304e-10
-2.58942e-10
-2.49847e-10
-1.42342e-09
-1.90353e-09
-5.55897e-09
-8.7677e-09
-1.46608e-08
-2.44164e-08
-3.91923e-08
-6.22062e-08
-9.45255e-08
-1.44366e-07
-2.05695e-07
-3.08628e-07
-4.09284e-07
-6.15745e-07
-7.5229e-07
-1.1407e-06
-1.30235e-06
-1.99389e-06
-2.00532e-06
-3.50186e-06
-2.65709e-06
-5.94853e-06
-3.61924e-06
-8.74338e-06
-5.53107e-06
-1.14287e-05
-8.80034e-06
-1.40803e-05
-1.32255e-05
-1.7668e-05
-1.85188e-05
-1.96847e-05
-2.55459e-05
-2.3989e-05
-3.12056e-05
-3.01082e-05
-3.79519e-05
-3.96076e-05
-4.8383e-05
-5.51334e-05
-5.88581e-05
-7.09042e-05
-7.51419e-05
-7.91205e-05
-0.000100617
-0.000111626
-0.000109198
-8.74229e-05
-0.000168448
-0.00014177
-0.000248915
-0.000252117
-0.00023998
-0.000231462
-0.000200448
-0.000215694
-0.0003225
-0.000274695
-0.000399239
-0.000553132
-0.000363655
0.000381105
-8.82528e-05
-0.0174644
-0.149277
-0.316141
-0.223632
-0.116483
-0.0336782
0.0184846
0.0659734
0.106998
0.143402
0.172433
0.189453
0.179983
0.157159
0.134448
0.117688
0.106108
0.0966775
0.0878843
0.0792175
0.0738408
0.0719922
0.069622
0.0655635
0.0627451
0.0610934
0.0599087
0.0588315
0.058319
0.0580879
0.0585138
0.0591122
0.0603709
0.0620859
0.0646491
0.0678539
0.0718095
0.0768914
0.0807607
0.0882541
0.0906269
0.0973616
0.0978974
-2.54999e-14
-8.89124e-14
-2.12422e-13
-5.53587e-13
-1.41336e-12
-3.51105e-12
-8.41185e-12
-1.95275e-11
-4.33897e-11
-9.23259e-11
-1.87184e-10
-3.78107e-10
-5.02174e-10
-1.77563e-09
-3.24702e-09
-7.25748e-09
-1.17476e-08
-2.0887e-08
-3.42115e-08
-5.38077e-08
-8.41795e-08
-1.32352e-07
-1.93226e-07
-2.95927e-07
-4.03429e-07
-6.03114e-07
-8.08098e-07
-1.10421e-06
-1.53923e-06
-1.82174e-06
-2.78344e-06
-2.97179e-06
-4.60335e-06
-4.49767e-06
-7.3926e-06
-6.19012e-06
-1.09185e-05
-9.44157e-06
-1.46899e-05
-1.39183e-05
-1.88758e-05
-1.92162e-05
-2.312e-05
-2.51617e-05
-2.76888e-05
-3.2232e-05
-3.29425e-05
-4.13775e-05
-4.13773e-05
-5.44576e-05
-5.60228e-05
-6.81572e-05
-7.56353e-05
-8.49843e-05
-9.07542e-05
-0.000100359
-0.000108038
-0.000135618
-0.000140143
-0.000144476
-0.000146734
-0.000219628
-0.000202788
-0.000302627
-0.000326107
-0.000342926
-0.00028026
-0.000231325
-0.000329083
-0.000375552
-0.000598248
-0.000622402
-0.000947813
-0.00108657
-0.00102684
-0.00470135
-0.0375228
-0.28803
-0.451034
-0.284133
-0.127092
-0.0310515
0.0387
0.0975058
0.15634
0.205606
0.234603
0.252421
0.244184
0.218969
0.191497
0.169287
0.153016
0.139435
0.126495
0.113484
0.105109
0.101716
0.0979694
0.0923352
0.0885467
0.0861915
0.0843698
0.0827054
0.0819166
0.081502
0.0819934
0.0827449
0.0845057
0.086875
0.0903826
0.0946177
0.100042
0.106912
0.112022
0.122096
0.125193
0.13354
0.134743
-2.74276e-14
-1.01814e-13
-2.40095e-13
-6.27805e-13
-1.60657e-12
-4.00556e-12
-9.63214e-12
-2.25063e-11
-5.04051e-11
-1.08085e-10
-2.23835e-10
-4.5576e-10
-7.20806e-10
-1.9412e-09
-4.18446e-09
-1.01535e-08
-1.55233e-08
-2.70438e-08
-4.58863e-08
-7.32134e-08
-1.14011e-07
-1.77423e-07
-2.62999e-07
-3.9707e-07
-5.49404e-07
-8.15258e-07
-1.04855e-06
-1.55419e-06
-1.92043e-06
-2.74959e-06
-3.33862e-06
-4.46094e-06
-5.37238e-06
-7.08902e-06
-8.38892e-06
-1.05257e-05
-1.24128e-05
-1.45225e-05
-1.73918e-05
-1.98368e-05
-2.36241e-05
-2.73448e-05
-3.04588e-05
-3.4667e-05
-3.81311e-05
-4.2926e-05
-5.02969e-05
-5.52844e-05
-6.29826e-05
-7.24312e-05
-8.03854e-05
-8.55061e-05
-9.64137e-05
-0.000107907
-0.000131157
-0.000133313
-0.000156977
-0.000185739
-0.000181226
-0.000194215
-0.000231637
-0.00029887
-0.000277256
-0.000373661
-0.000393542
-0.000419112
-0.000396241
-0.000425116
-0.000489487
-0.000724683
-0.000902413
-0.00114331
-0.00138002
-0.00168116
-0.0021742
-0.00873619
-0.0750151
-0.46116
-0.551482
-0.342524
-0.129002
-0.0118134
0.0817815
0.153739
0.220133
0.269345
0.295035
0.306819
0.298424
0.272769
0.244764
0.217824
0.197795
0.180614
0.164353
0.147971
0.137409
0.132856
0.127702
0.120704
0.116131
0.112993
0.110492
0.108227
0.107138
0.106466
0.106924
0.107691
0.10977
0.112551
0.116822
0.121843
0.128384
0.136574
0.142564
0.154822
0.158552
0.168195
0.170102
-4.04577e-14
-1.33528e-13
-3.21237e-13
-8.41104e-13
-2.15874e-12
-5.39194e-12
-1.29937e-11
-3.03806e-11
-6.7994e-11
-1.45936e-10
-3.00875e-10
-6.04011e-10
-9.59464e-10
-2.57337e-09
-4.5546e-09
-1.28168e-08
-1.94268e-08
-3.32305e-08
-5.47283e-08
-8.8088e-08
-1.40159e-07
-2.12555e-07
-3.2736e-07
-4.65607e-07
-6.92346e-07
-9.65606e-07
-1.3187e-06
-1.90414e-06
-2.30279e-06
-3.44078e-06
-3.85627e-06
-5.93068e-06
-6.17788e-06
-9.58981e-06
-9.02666e-06
-1.46582e-05
-1.35413e-05
-2.03754e-05
-2.01477e-05
-2.58928e-05
-2.88206e-05
-3.1612e-05
-3.8708e-05
-3.96174e-05
-5.07252e-05
-5.06902e-05
-6.40996e-05
-6.53497e-05
-7.66688e-05
-8.30209e-05
-8.98416e-05
-0.000101598
-0.000110637
-0.000138865
-0.000151182
-0.000163388
-0.000184425
-0.000199833
-0.000222399
-0.000251827
-0.000283074
-0.00030348
-0.000352171
-0.000400683
-0.000415996
-0.00045826
-0.000517677
-0.000611014
-0.000687739
-0.000868469
-0.00107576
-0.00104435
-0.00109458
-0.00101407
-0.00138502
-0.0139246
-0.129167
-0.618048
-0.60059
-0.378055
-0.132781
0.0175776
0.140115
0.228915
0.284746
0.326506
0.350352
0.358182
0.348029
0.322272
0.294949
0.263572
0.240195
0.219473
0.199552
0.179755
0.167275
0.161571
0.154997
0.147014
0.142021
0.13825
0.135277
0.13264
0.13143
0.130638
0.131178
0.132048
0.134496
0.137686
0.142784
0.148536
0.156081
0.165437
0.172359
0.186447
0.190553
0.201111
0.203753
-4.24372e-14
-1.44514e-13
-3.45547e-13
-9.05821e-13
-2.32761e-12
-5.8254e-12
-1.40737e-11
-3.30372e-11
-7.4328e-11
-1.60178e-10
-3.39547e-10
-6.58042e-10
-1.20825e-09
-2.64047e-09
-5.62264e-09
-1.47779e-08
-2.34899e-08
-4.15885e-08
-6.78095e-08
-1.08347e-07
-1.72115e-07
-2.64989e-07
-4.00213e-07
-5.81226e-07
-8.52709e-07
-1.1689e-06
-1.683e-06
-2.20976e-06
-3.02458e-06
-4.06848e-06
-4.85948e-06
-7.01977e-06
-7.32719e-06
-1.15592e-05
-1.09642e-05
-1.74775e-05
-1.57528e-05
-2.47832e-05
-2.27504e-05
-3.34806e-05
-3.25011e-05
-4.33528e-05
-4.64755e-05
-5.36993e-05
-6.05059e-05
-6.25268e-05
-7.66647e-05
-7.41978e-05
-9.52885e-05
-9.55194e-05
-0.000117345
-0.000127565
-0.00015147
-0.000164874
-0.000173348
-0.000199402
-0.00021713
-0.000250406
-0.000291067
-0.000346666
-0.000338014
-0.000361587
-0.000396568
-0.000463366
-0.00048426
-0.000605171
-0.000659804
-0.000759377
-0.000828592
-0.00101285
-0.00108415
-0.000930696
-0.000798759
-0.000579428
-0.00242662
-0.0237806
-0.240159
-0.706232
-0.640601
-0.407687
-0.126931
0.0677041
0.19565
0.290806
0.346359
0.380834
0.40108
0.401598
0.390016
0.366119
0.340286
0.305949
0.280219
0.257279
0.234785
0.212639
0.199243
0.19235
0.184229
0.175337
0.169881
0.165253
0.161692
0.158556
0.157093
0.155991
0.156376
0.157179
0.159841
0.163147
0.16866
0.174698
0.182911
0.193331
0.201193
0.216437
0.221126
0.232482
0.235761
-5.462e-14
-1.74203e-13
-4.22535e-13
-1.11062e-12
-2.8628e-12
-7.18647e-12
-1.74278e-11
-4.10441e-11
-9.24171e-11
-2.00586e-10
-4.23332e-10
-8.11093e-10
-1.62417e-09
-2.8638e-09
-7.26604e-09
-1.51696e-08
-2.79842e-08
-4.72777e-08
-7.87562e-08
-1.25081e-07
-1.96627e-07
-3.06262e-07
-4.52306e-07
-6.79667e-07
-9.6558e-07
-1.35705e-06
-1.9542e-06
-2.47825e-06
-3.65319e-06
-4.31318e-06
-6.3803e-06
-7.29947e-06
-1.02043e-05
-1.18207e-05
-1.5172e-05
-1.8107e-05
-2.16495e-05
-2.65064e-05
-2.95776e-05
-3.70493e-05
-3.85889e-05
-4.87157e-05
-4.84311e-05
-6.16893e-05
-6.10959e-05
-7.62396e-05
-8.10495e-05
-9.79066e-05
-0.000107076
-0.000120298
-0.000138555
-0.000144021
-0.000163657
-0.000172193
-0.000199035
-0.000227173
-0.00025064
-0.000284382
-0.000316359
-0.000361806
-0.000369535
-0.000395104
-0.00043268
-0.000504973
-0.000558441
-0.00062604
-0.000641811
-0.000797127
-0.000947778
-0.000866395
-0.000910842
-0.000865032
-0.000954942
-0.00192555
-0.00660699
-0.0437583
-0.384956
-0.754937
-0.639808
-0.388479
-0.0851202
0.128974
0.258656
0.342881
0.39567
0.42777
0.445773
0.440866
0.426396
0.404372
0.37965
0.344584
0.315725
0.289605
0.264703
0.241727
0.228547
0.220661
0.211247
0.201934
0.196367
0.191126
0.187286
0.183953
0.182482
0.181279
0.181543
0.182254
0.184996
0.188392
0.194162
0.200475
0.209102
0.220418
0.228963
0.244734
0.250248
0.262044
0.265957
-5.66729e-14
-1.83552e-13
-4.43133e-13
-1.16643e-12
-3.00996e-12
-7.56733e-12
-1.83821e-11
-4.34325e-11
-9.82208e-11
-2.1448e-10
-4.58536e-10
-8.81973e-10
-1.79288e-09
-3.28675e-09
-6.88252e-09
-1.76426e-08
-3.43105e-08
-5.54279e-08
-8.95512e-08
-1.46698e-07
-2.32072e-07
-3.54538e-07
-5.39281e-07
-7.8034e-07
-1.14004e-06
-1.59587e-06
-2.22256e-06
-3.00241e-06
-4.13554e-06
-5.0743e-06
-7.21803e-06
-8.03259e-06
-1.19242e-05
-1.24479e-05
-1.85141e-05
-1.90796e-05
-2.69536e-05
-2.80057e-05
-3.69975e-05
-3.91457e-05
-4.89668e-05
-5.28501e-05
-6.25156e-05
-6.90926e-05
-7.81458e-05
-8.67838e-05
-9.64694e-05
-0.000110024
-0.000118776
-0.000136226
-0.000148908
-0.000165758
-0.000185765
-0.000204676
-0.000242141
-0.000255982
-0.000297718
-0.000313708
-0.000357955
-0.000379259
-0.000433572
-0.000468105
-0.000530869
-0.000586804
-0.000624104
-0.000620855
-0.000731128
-0.000830225
-0.000893563
-0.00083501
-0.000893121
-0.00101057
-0.00162031
-0.00243955
-0.00971224
-0.0808092
-0.561892
-0.745153
-0.605442
-0.329694
-0.0109375
0.193929
0.310215
0.38364
0.433528
0.466451
0.482898
0.477302
0.461885
0.441158
0.415826
0.382227
0.35215
0.323739
0.2969
0.27317
0.259869
0.249439
0.238053
0.228002
0.221928
0.215969
0.21191
0.208377
0.206919
0.205593
0.205901
0.206645
0.209591
0.213071
0.219065
0.225608
0.234484
0.246475
0.255603
0.271623
0.277934
0.290046
0.294509
-6.77097e-14
-2.10505e-13
-5.13506e-13
-1.3555e-12
-3.51223e-12
-8.86155e-12
-2.16185e-11
-5.11987e-11
-1.16425e-10
-2.55014e-10
-5.46737e-10
-1.04619e-09
-2.16487e-09
-4.11252e-09
-6.50208e-09
-2.11876e-08
-3.92265e-08
-5.93503e-08
-9.85804e-08
-1.62666e-07
-2.56854e-07
-3.94171e-07
-5.90656e-07
-8.74683e-07
-1.24071e-06
-1.8107e-06
-2.387e-06
-3.46051e-06
-4.31233e-06
-6.16225e-06
-7.56459e-06
-1.01056e-05
-1.27104e-05
-1.51039e-05
-1.9849e-05
-2.19573e-05
-2.89804e-05
-3.17312e-05
-4.00675e-05
-4.43695e-05
-5.32406e-05
-5.91694e-05
-6.85323e-05
-7.5471e-05
-8.68318e-05
-9.39781e-05
-0.000107418
-0.00011721
-0.000134459
-0.000147539
-0.000165731
-0.000188172
-0.000205294
-0.00023449
-0.000250239
-0.000281072
-0.000305424
-0.000337795
-0.000370764
-0.000418705
-0.000461155
-0.000515725
-0.000552398
-0.000593492
-0.000615016
-0.000665404
-0.000764198
-0.000841542
-0.0008709
-0.000959962
-0.000956626
-0.00115071
-0.000815577
-0.00167028
-0.0135226
-0.149374
-0.680787
-0.716978
-0.551197
-0.240854
0.0708346
0.257206
0.363562
0.427053
0.467386
0.496991
0.511648
0.50836
0.494074
0.474572
0.447924
0.414706
0.382986
0.35369
0.326905
0.304642
0.29152
0.278839
0.266311
0.255839
0.249133
0.242458
0.238102
0.234068
0.232252
0.230449
0.230553
0.231159
0.234104
0.237569
0.243591
0.250263
0.259123
0.271497
0.281019
0.297003
0.304021
0.316194
0.321241
-6.98585e-14
-2.18179e-13
-5.30166e-13
-1.39945e-12
-3.63168e-12
-9.1787e-12
-2.24308e-11
-5.3421e-11
-1.21152e-10
-2.70833e-10
-5.70759e-10
-1.14014e-09
-2.38031e-09
-4.23819e-09
-7.47556e-09
-2.15661e-08
-4.19418e-08
-6.53079e-08
-1.14128e-07
-1.85972e-07
-2.89606e-07
-4.45816e-07
-6.66315e-07
-9.88594e-07
-1.41651e-06
-1.99181e-06
-2.77749e-06
-3.78278e-06
-4.97951e-06
-6.76327e-06
-8.31439e-06
-1.12398e-05
-1.33547e-05
-1.76357e-05
-2.10982e-05
-2.58136e-05
-3.14047e-05
-3.58816e-05
-4.40851e-05
-4.88948e-05
-5.88947e-05
-6.54112e-05
-7.56477e-05
-8.41205e-05
-9.40192e-05
-0.000105441
-0.000117891
-0.00013017
-0.000149945
-0.000160822
-0.000186543
-0.000200573
-0.000229477
-0.000246196
-0.000279241
-0.000303863
-0.000341199
-0.000374112
-0.000413347
-0.000457699
-0.000504326
-0.000555086
-0.000596038
-0.000640989
-0.000662765
-0.000765797
-0.000833464
-0.000880837
-0.000869647
-0.000960217
-0.000913487
-0.000866772
-0.000529646
-0.00270384
-0.02816
-0.289071
-0.713539
-0.672533
-0.466668
-0.130638
0.146648
0.308483
0.407808
0.467262
0.501395
0.52541
0.537715
0.537296
0.525285
0.507176
0.480758
0.448324
0.415305
0.384119
0.35592
0.333379
0.319081
0.304893
0.292221
0.281894
0.274679
0.267458
0.263039
0.258687
0.256608
0.254494
0.254558
0.255143
0.258148
0.261623
0.26768
0.274457
0.283157
0.295641
0.305378
0.321203
0.328823
0.341052
0.34646
-7.87194e-14
-2.40737e-13
-5.90482e-13
-1.56683e-12
-4.079e-12
-1.03347e-11
-2.54165e-11
-6.0562e-11
-1.38847e-10
-3.08752e-10
-6.58529e-10
-1.32984e-09
-2.68681e-09
-5.04137e-09
-9.06192e-09
-2.37429e-08
-4.19288e-08
-7.55652e-08
-1.25312e-07
-1.99464e-07
-3.11625e-07
-4.78224e-07
-7.26157e-07
-1.05361e-06
-1.53813e-06
-2.13635e-06
-3.02241e-06
-4.0115e-06
-5.51252e-06
-7.13527e-06
-9.27412e-06
-1.21184e-05
-1.45651e-05
-1.93105e-05
-2.1903e-05
-2.87406e-05
-3.26503e-05
-4.01615e-05
-4.6815e-05
-5.34068e-05
-6.38639e-05
-6.91485e-05
-8.28345e-05
-8.91021e-05
-0.000103245
-0.000112187
-0.000127629
-0.000140352
-0.000156137
-0.000176787
-0.000192378
-0.000215424
-0.00023964
-0.000262595
-0.000291199
-0.000318854
-0.0003534
-0.000384643
-0.000426816
-0.000466231
-0.000516528
-0.000553623
-0.000611161
-0.000658756
-0.000709807
-0.000782345
-0.000815078
-0.000878661
-0.000892182
-0.000906129
-0.000972135
-0.00095701
-0.00184751
-0.00728952
-0.0550539
-0.458295
-0.722856
-0.603217
-0.342757
-0.0103515
0.223333
0.359487
0.446955
0.500759
0.532731
0.55213
0.563435
0.562269
0.551314
0.534418
0.509879
0.479139
0.446935
0.414562
0.386004
0.363518
0.348169
0.332793
0.320072
0.309558
0.301599
0.293616
0.288638
0.283505
0.280842
0.278197
0.278101
0.278555
0.281527
0.284963
0.291062
0.297926
0.306421
0.318814
0.328639
0.344143
0.352186
0.364248
0.370044
-8.01392e-14
-2.46211e-13
-6.00728e-13
-1.59485e-12
-4.1536e-12
-1.05596e-11
-2.60204e-11
-6.22052e-11
-1.43104e-10
-3.2145e-10
-6.8352e-10
-1.41942e-09
-2.86834e-09
-5.44948e-09
-1.06594e-08
-1.94295e-08
-4.55734e-08
-8.54878e-08
-1.29282e-07
-2.17354e-07
-3.453e-07
-5.28774e-07
-7.92701e-07
-1.16374e-06
-1.67397e-06
-2.3618e-06
-3.26493e-06
-4.42336e-06
-5.95977e-06
-7.67714e-06
-1.0206e-05
-1.2688e-05
-1.63248e-05
-2.01574e-05
-2.43511e-05
-3.02712e-05
-3.4604e-05
-4.31592e-05
-4.84267e-05
-5.85597e-05
-6.60544e-05
-7.62769e-05
-8.71092e-05
-9.54599e-05
-0.000110666
-0.000117733
-0.000137526
-0.00014814
-0.000167762
-0.00018594
-0.000206307
-0.000226734
-0.000256163
-0.000279866
-0.000312412
-0.000340555
-0.000382121
-0.00041247
-0.000456707
-0.00049432
-0.000544306
-0.000590815
-0.000645801
-0.000709419
-0.000772169
-0.000807528
-0.000866735
-0.000910919
-0.000960345
-0.00103529
-0.00118179
-0.00107585
-0.00211187
-0.0116408
-0.116285
-0.610672
-0.667267
-0.502738
-0.198502
0.105085
0.292685
0.405963
0.482925
0.531189
0.561603
0.579167
0.589695
0.588574
0.578389
0.562544
0.538807
0.507457
0.474162
0.441197
0.413423
0.391688
0.375514
0.3593
0.346661
0.335805
0.327324
0.319046
0.31383
0.3082
0.305191
0.302111
0.301798
0.301994
0.304718
0.307952
0.313926
0.320755
0.328945
0.341054
0.350845
0.365992
0.374431
0.386318
0.392256
-8.72953e-14
-2.63315e-13
-6.47837e-13
-1.72646e-12
-4.52355e-12
-1.1547e-11
-2.8518e-11
-6.85507e-11
-1.57989e-10
-3.58314e-10
-7.53731e-10
-1.63435e-09
-3.066e-09
-6.35682e-09
-1.15609e-08
-2.02487e-08
-5.21197e-08
-8.61196e-08
-1.43483e-07
-2.33735e-07
-3.64756e-07
-5.57507e-07
-8.35414e-07
-1.2333e-06
-1.76005e-06
-2.48907e-06
-3.43888e-06
-4.64551e-06
-6.27595e-06
-8.07679e-06
-1.08125e-05
-1.31181e-05
-1.7497e-05
-2.03345e-05
-2.66972e-05
-3.08163e-05
-3.8264e-05
-4.4736e-05
-5.20407e-05
-6.17349e-05
-6.84409e-05
-8.06188e-05
-8.92742e-05
-0.000101718
-0.00011336
-0.000124692
-0.000140982
-0.000154537
-0.000173468
-0.000191063
-0.000214119
-0.000234044
-0.000260512
-0.000287077
-0.000314646
-0.000351775
-0.000384794
-0.000420608
-0.00045834
-0.00051034
-0.000547116
-0.00059687
-0.000652486
-0.000715155
-0.000772251
-0.000826441
-0.00088503
-0.000989211
-0.00109039
-0.00110088
-0.00117905
-0.00101761
-0.00290194
-0.0237514
-0.246212
-0.638683
-0.592597
-0.376052
-0.0516898
0.204352
0.355918
0.45235
0.516723
0.558227
0.585972
0.601633
0.612451
0.612343
0.603113
0.588401
0.5662
0.536193
0.50378
0.470241
0.443388
0.421479
0.403171
0.385871
0.372796
0.361289
0.352327
0.343783
0.338311
0.332273
0.328935
0.325484
0.324959
0.324878
0.327346
0.330365
0.336163
0.342918
0.35075
0.36243
0.372096
0.386765
0.395419
0.406927
0.413056
-8.77685e-14
-2.65828e-13
-6.51106e-13
-1.73393e-12
-4.53726e-12
-1.1577e-11
-2.87945e-11
-6.92291e-11
-1.61805e-10
-3.61853e-10
-7.92066e-10
-1.64599e-09
-3.34372e-09
-6.5649e-09
-1.23741e-08
-2.39066e-08
-4.51543e-08
-8.7698e-08
-1.56911e-07
-2.4068e-07
-3.93381e-07
-5.98072e-07
-8.97291e-07
-1.31371e-06
-1.88523e-06
-2.65871e-06
-3.63443e-06
-5.00337e-06
-6.52674e-06
-8.75512e-06
-1.1059e-05
-1.43281e-05
-1.7905e-05
-2.19473e-05
-2.74164e-05
-3.17995e-05
-3.97958e-05
-4.47878e-05
-5.4913e-05
-6.18215e-05
-7.3134e-05
-8.22506e-05
-9.32308e-05
-0.00010499
-0.000117135
-0.000129976
-0.000145046
-0.000161048
-0.000179092
-0.000197474
-0.000221355
-0.000242262
-0.000270664
-0.00029578
-0.000328827
-0.00035881
-0.000399318
-0.000433864
-0.000478347
-0.00052687
-0.000580292
-0.000624487
-0.000690618
-0.000744298
-0.000806561
-0.000874493
-0.000974632
-0.00100288
-0.00111813
-0.0011977
-0.00124271
-0.00194178
-0.00648327
-0.0488937
-0.405311
-0.629115
-0.498794
-0.220035
0.0845369
0.28529
0.413494
0.497381
0.551825
0.587595
0.611997
0.626252
0.635367
0.634485
0.624838
0.610746
0.589887
0.562328
0.531695
0.498287
0.471958
0.449146
0.429787
0.412277
0.398913
0.386814
0.377485
0.368663
0.362871
0.356403
0.352735
0.348859
0.348019
0.347519
0.349604
0.352285
0.357726
0.364275
0.371667
0.382824
0.392351
0.406562
0.415493
0.426611
0.432775
-9.1068e-14
-2.75237e-13
-6.77372e-13
-1.81749e-12
-4.79483e-12
-1.23241e-11
-3.06943e-11
-7.40686e-11
-1.7271e-10
-3.91851e-10
-8.5044e-10
-1.80285e-09
-3.64106e-09
-7.03135e-09
-1.3987e-08
-2.51465e-08
-4.5091e-08
-9.53977e-08
-1.56809e-07
-2.60862e-07
-3.98788e-07
-6.24952e-07
-9.28949e-07
-1.35822e-06
-1.95495e-06
-2.71832e-06
-3.78506e-06
-5.08476e-06
-6.77229e-06
-8.94957e-06
-1.13579e-05
-1.47451e-05
-1.80005e-05
-2.28198e-05
-2.74807e-05
-3.34859e-05
-4.04053e-05
-4.679e-05
-5.64732e-05
-6.27202e-05
-7.48755e-05
-8.21174e-05
-9.55942e-05
-0.000104562
-0.000119489
-0.000129995
-0.000146726
-0.000162084
-0.000180761
-0.00019907
-0.000221379
-0.00024429
-0.000270108
-0.000297679
-0.000328299
-0.000360334
-0.000398364
-0.000436123
-0.000479809
-0.00052583
-0.000573231
-0.000631316
-0.000681876
-0.000760043
-0.000817985
-0.000896655
-0.000971526
-0.0010678
-0.00115276
-0.00136641
-0.00131755
-0.00230946
-0.0106825
-0.110866
-0.532005
-0.54672
-0.362148
-0.0546324
0.19974
0.356632
0.460225
0.533532
0.581862
0.614044
0.635787
0.649377
0.657319
0.657338
0.648767
0.635934
0.615994
0.590443
0.560125
0.526231
0.49927
0.475451
0.455631
0.438021
0.424316
0.411778
0.402063
0.392846
0.386659
0.379833
0.37595
0.3717
0.370603
0.369674
0.371401
0.373748
0.378732
0.385027
0.391869
0.402445
0.411752
0.425392
0.434408
0.44492
0.451125
-9.08903e-14
-2.74059e-13
-6.70403e-13
-1.79196e-12
-4.71566e-12
-1.21175e-11
-3.02641e-11
-7.35075e-11
-1.73193e-10
-3.93778e-10
-8.63517e-10
-1.83442e-09
-3.73033e-09
-7.43417e-09
-1.41089e-08
-2.68319e-08
-4.88953e-08
-8.51514e-08
-1.64769e-07
-2.66969e-07
-4.2506e-07
-6.38733e-07
-9.71199e-07
-1.42255e-06
-2.0229e-06
-2.84971e-06
-3.90799e-06
-5.26719e-06
-7.05736e-06
-9.07798e-06
-1.18275e-05
-1.48249e-05
-1.86975e-05
-2.3071e-05
-2.79483e-05
-3.40143e-05
-3.98335e-05
-4.77619e-05
-5.50453e-05
-6.45701e-05
-7.37399e-05
-8.42261e-05
-9.56347e-05
-0.000106411
-0.00011974
-0.000130983
-0.000146871
-0.000161086
-0.000180941
-0.000198109
-0.000220733
-0.000243553
-0.000269421
-0.000297836
-0.000329921
-0.000361871
-0.000400775
-0.000440978
-0.000484447
-0.00053383
-0.000588213
-0.000647759
-0.000705082
-0.000783793
-0.000847515
-0.000934587
-0.00100935
-0.00117036
-0.00114767
-0.0013719
-0.00145396
-0.00405142
-0.0247535
-0.24121
-0.539318
-0.448828
-0.198868
0.0921178
0.29309
0.423177
0.509493
0.568264
0.60928
0.637896
0.656931
0.669227
0.676579
0.677504
0.670314
0.658359
0.639973
0.616089
0.587178
0.553996
0.526679
0.502012
0.481627
0.463855
0.449643
0.436696
0.426501
0.41684
0.410218
0.402997
0.398853
0.394156
0.39275
0.39133
0.392647
0.394587
0.398995
0.404889
0.411155
0.421161
0.430224
0.44334
0.452471
0.462425
0.468581
-8.96937e-14
-2.7337e-13
-6.75341e-13
-1.8256e-12
-4.83169e-12
-1.24628e-11
-3.12596e-11
-7.60977e-11
-1.79825e-10
-4.08861e-10
-9.0812e-10
-1.90884e-09
-4.00407e-09
-7.74178e-09
-1.50926e-08
-2.81424e-08
-5.12381e-08
-8.9814e-08
-1.56678e-07
-2.70299e-07
-4.26694e-07
-6.65009e-07
-9.73906e-07
-1.4426e-06
-2.06468e-06
-2.86374e-06
-3.92467e-06
-5.32629e-06
-7.00904e-06
-9.22109e-06
-1.1782e-05
-1.49267e-05
-1.86363e-05
-2.28587e-05
-2.79372e-05
-3.34456e-05
-3.99997e-05
-4.68643e-05
-5.48506e-05
-6.30848e-05
-7.26251e-05
-8.21577e-05
-9.28873e-05
-0.000104047
-0.000116524
-0.000127872
-0.000143782
-0.000157584
-0.000176123
-0.000194067
-0.000215001
-0.000237281
-0.000263685
-0.000290111
-0.000323426
-0.000354255
-0.000392427
-0.000432805
-0.000473675
-0.000517665
-0.000577428
-0.000632908
-0.000697046
-0.000769933
-0.000853709
-0.000936344
-0.00102777
-0.00117507
-0.0012217
-0.00152831
-0.00196284
-0.00664274
-0.0585103
-0.376921
-0.468507
-0.310505
-0.023783
0.215735
0.369963
0.476264
0.550484
0.601165
0.637344
0.662017
0.679384
0.691089
0.698227
0.699365
0.692615
0.680631
0.663223
0.640536
0.612769
0.580985
0.553149
0.52781
0.507106
0.489078
0.474312
0.460939
0.450257
0.440205
0.433208
0.425627
0.42127
0.41616
0.414475
0.412572
0.413462
0.414966
0.418763
0.424117
0.429856
0.439242
0.447935
0.460361
0.469363
0.478635
0.484718
-8.84454e-14
-2.6181e-13
-6.36702e-13
-1.71243e-12
-4.55114e-12
-1.18586e-11
-3.01644e-11
-7.43815e-11
-1.7677e-10
-4.06433e-10
-8.96842e-10
-1.92531e-09
-3.9513e-09
-7.93338e-09
-1.52788e-08
-2.84147e-08
-5.2226e-08
-9.24557e-08
-1.55341e-07
-2.64538e-07
-4.23638e-07
-6.60589e-07
-1.0087e-06
-1.44738e-06
-2.08466e-06
-2.90792e-06
-3.98828e-06
-5.35483e-06
-7.04762e-06
-9.15896e-06
-1.16375e-05
-1.47619e-05
-1.82423e-05
-2.25183e-05
-2.72797e-05
-3.27156e-05
-3.89488e-05
-4.54983e-05
-5.3263e-05
-6.10717e-05
-7.03547e-05
-7.95425e-05
-8.95583e-05
-9.99968e-05
-0.000112707
-0.000122288
-0.000137792
-0.000151377
-0.000168096
-0.000185814
-0.000206306
-0.000226778
-0.000250412
-0.000277462
-0.000305362
-0.000340145
-0.000375541
-0.000417556
-0.000458212
-0.000507237
-0.000564802
-0.000619674
-0.000687403
-0.00077114
-0.000853636
-0.000934189
-0.00105336
-0.0011341
-0.00133097
-0.00126776
-0.00249118
-0.0131061
-0.133583
-0.421219
-0.365201
-0.144522
0.126454
0.315954
0.441468
0.525653
0.586187
0.629503
0.661187
0.683197
0.6992
0.710368
0.717478
0.718823
0.712945
0.70202
0.686385
0.665017
0.638584
0.608
0.578896
0.553129
0.532171
0.513885
0.498664
0.484883
0.473671
0.463208
0.45579
0.447818
0.443173
0.437621
0.435582
0.433143
0.433588
0.434611
0.437775
0.442471
0.447712
0.456473
0.464731
0.476549
0.485448
0.494201
0.500114
-8.29749e-14
-2.54428e-13
-6.25852e-13
-1.69923e-12
-4.5349e-12
-1.18109e-11
-2.97543e-11
-7.28626e-11
-1.7367e-10
-4.01944e-10
-9.01826e-10
-1.95129e-09
-4.06687e-09
-8.15786e-09
-1.55463e-08
-2.96221e-08
-5.24552e-08
-9.33756e-08
-1.62436e-07
-2.58321e-07
-4.27046e-07
-6.47662e-07
-9.81521e-07
-1.46443e-06
-2.0642e-06
-2.85657e-06
-3.91955e-06
-5.26198e-06
-6.93066e-06
-9.0049e-06
-1.14274e-05
-1.44014e-05
-1.77125e-05
-2.17698e-05
-2.6078e-05
-3.1475e-05
-3.69051e-05
-4.37057e-05
-5.02071e-05
-5.82141e-05
-6.60378e-05
-7.56117e-05
-8.42256e-05
-9.4672e-05
-0.000105784
-0.000115648
-0.000128684
-0.00014245
-0.000157453
-0.000174088
-0.000193823
-0.000213948
-0.000236295
-0.000261097
-0.000288114
-0.000319643
-0.00035307
-0.000390156
-0.000434993
-0.000484925
-0.00053904
-0.000594056
-0.000660856
-0.000730845
-0.000828903
-0.00090125
-0.00103354
-0.00117179
-0.00134612
-0.00164673
-0.00410044
-0.0282904
-0.238208
-0.365302
-0.231347
0.0296987
0.251822
0.397973
0.499161
0.569249
0.619773
0.657269
0.684753
0.704583
0.718827
0.728766
0.735798
0.737357
0.732415
0.722433
0.708404
0.688132
0.663483
0.634013
0.604258
0.578084
0.556653
0.538012
0.522283
0.508134
0.496448
0.485677
0.477888
0.469575
0.464632
0.458685
0.456265
0.453307
0.453305
0.453776
0.45631
0.460329
0.46505
0.473223
0.480914
0.491994
0.500473
0.508547
0.51426
-7.77987e-14
-2.276e-13
-5.50562e-13
-1.50205e-12
-4.05151e-12
-1.07867e-11
-2.80533e-11
-7.0123e-11
-1.68663e-10
-3.90895e-10
-8.75207e-10
-1.8912e-09
-3.94239e-09
-7.97383e-09
-1.55071e-08
-2.89381e-08
-5.25528e-08
-9.27909e-08
-1.56458e-07
-2.59177e-07
-4.12647e-07
-6.28707e-07
-9.57952e-07
-1.42268e-06
-2.00088e-06
-2.81067e-06
-3.80239e-06
-5.10703e-06
-6.66141e-06
-8.69508e-06
-1.08546e-05
-1.38493e-05
-1.69002e-05
-2.07997e-05
-2.47633e-05
-2.97302e-05
-3.48256e-05
-4.10852e-05
-4.71346e-05
-5.44089e-05
-6.13096e-05
-7.01934e-05
-7.79845e-05
-8.77752e-05
-9.73042e-05
-0.000106289
-0.000118849
-0.000130049
-0.000144756
-0.00015832
-0.00017639
-0.00019419
-0.000214598
-0.00023422
-0.000261469
-0.00028674
-0.00032144
-0.000352868
-0.000389813
-0.000434298
-0.000486124
-0.000548292
-0.000604773
-0.000677677
-0.000751887
-0.000858192
-0.000976927
-0.00108532
-0.00117348
-0.00188038
-0.00757778
-0.0733037
-0.304499
-0.258754
-0.0577794
0.18523
0.351625
0.468661
0.548443
0.60643
0.64921
0.68149
0.705702
0.72377
0.737109
0.746499
0.753524
0.755212
0.751162
0.742288
0.729445
0.710193
0.687286
0.658971
0.629318
0.602738
0.580713
0.56163
0.545373
0.530784
0.518633
0.507568
0.499347
0.490693
0.485368
0.479024
0.476151
0.472656
0.472178
0.472027
0.474052
0.47741
0.481645
0.489276
0.496307
0.506642
0.514738
0.522348
0.527857
-7.23015e-14
-2.16505e-13
-5.26679e-13
-1.44088e-12
-3.85943e-12
-9.9644e-12
-2.5166e-11
-6.28204e-11
-1.53671e-10
-3.67693e-10
-8.44275e-10
-1.84745e-09
-3.88605e-09
-7.78319e-09
-1.52789e-08
-2.82797e-08
-5.24047e-08
-8.86473e-08
-1.58721e-07
-2.45388e-07
-4.0517e-07
-6.21836e-07
-9.19029e-07
-1.35756e-06
-1.94578e-06
-2.68015e-06
-3.66991e-06
-4.86798e-06
-6.358e-06
-8.23453e-06
-1.03593e-05
-1.2873e-05
-1.58711e-05
-1.93506e-05
-2.32618e-05
-2.72742e-05
-3.21045e-05
-3.72705e-05
-4.35062e-05
-4.95802e-05
-5.6015e-05