/*--------------------------------*- C++ -*----------------------------------*\
| =========                 |                                                 |
| \\      /  F ield         | OpenFOAM: The Open Source CFD Toolbox           |
|  \\    /   O peration     | Version:  2.2.x                                 |
|   \\  /    A nd           | Web:      www.OpenFOAM.org                      |
|    \\/     M anipulation  |                                                 |
\*---------------------------------------------------------------------------*/
FoamFile
{
    version     2.0;
    format      ascii;
    class       volScalarField;
    location    "0.25";
    object      Ma;
}
// * * * * * * * * * * * * * * * * * * * * * * * * * * * * * * * * * * * * * //

dimensions      [0 0 0 0 0 0 0];

internalField   nonuniform List<scalar> 
14161
(
2.59808
2.59808
2.59808
2.59808
2.59808
2.59808
2.59808
2.59808
2.59808
2.59808
2.59808
2.59808
2.59808
2.59808
2.59808
2.59808
2.59808
2.59808
2.59808
2.59808
2.59809
2.5981
2.59813
2.59816
2.59822
2.59829
2.5984
2.59853
2.59872
2.59893
2.59921
2.59956
2.59996
2.60046
2.601
2.60165
2.60239
2.60319
2.60409
2.60509
2.60617
2.60731
2.60853
2.60981
2.61118
2.61265
2.61424
2.61602
2.6179
2.62004
2.62226
2.6248
2.62753
2.63064
2.63392
2.63774
2.64153
2.64556
2.65077
2.65562
2.66193
2.66712
2.67408
2.68101
2.68871
2.69617
2.70496
2.71207
2.72512
2.74444
2.75826
2.76732
2.77543
2.78064
2.7807
2.77957
2.75002
1.25965
0.527819
0.509278
0.626673
0.688208
0.728492
0.743705
0.730437
0.671271
0.625185
0.559303
0.503846
0.458966
0.422105
0.392118
0.367802
0.34734
0.328723
0.310515
0.292066
0.274937
0.260271
0.247333
0.234739
0.22252
0.210519
0.198508
0.186408
0.174319
0.162228
0.149671
0.137238
0.125019
0.113085
0.100814
0.0882699
0.0754993
0.0626733
0.0494419
0.0364945
0.0231262
0.0134998
2.59808
2.59808
2.59808
2.59808
2.59808
2.59808
2.59808
2.59808
2.59808
2.59808
2.59808
2.59808
2.59808
2.59808
2.59808
2.59808
2.59808
2.59808
2.59808
2.59808
2.59809
2.5981
2.59813
2.59816
2.59822
2.59829
2.5984
2.59853
2.59871
2.59893
2.59921
2.59956
2.59996
2.60045
2.601
2.60165
2.60238
2.60319
2.60408
2.60508
2.60613
2.60728
2.60853
2.60982
2.61117
2.61258
2.6142
2.61592
2.61788
2.61992
2.62231
2.62476
2.62765
2.63062
2.634
2.63758
2.64131
2.64532
2.65041
2.65572
2.6616
2.66711
2.67376
2.68121
2.68955
2.6961
2.70397
2.71207
2.72451
2.7425
2.7587
2.76881
2.77542
2.78616
2.79704
2.82205
2.83063
1.48285
0.579289
0.554291
0.657634
0.704286
0.73347
0.749212
0.730153
0.680249
0.639464
0.581093
0.527477
0.478363
0.436596
0.403085
0.376525
0.354522
0.335044
0.316235
0.297519
0.280168
0.265264
0.252028
0.239082
0.226472
0.214104
0.201763
0.189332
0.176863
0.164337
0.15131
0.138466
0.125971
0.113948
0.101778
0.0896298
0.077391
0.0655117
0.0530585
0.0411889
0.0295881
0.0266852
2.59808
2.59808
2.59808
2.59808
2.59808
2.59808
2.59808
2.59808
2.59808
2.59808
2.59808
2.59808
2.59808
2.59808
2.59808
2.59808
2.59808
2.59808
2.59808
2.59808
2.59809
2.5981
2.59813
2.59816
2.59822
2.59829
2.5984
2.59853
2.59871
2.59893
2.5992
2.59955
2.59996
2.60043
2.60099
2.60163
2.60235
2.60317
2.60406
2.60504
2.6061
2.60725
2.60847
2.60975
2.61109
2.61253
2.61411
2.61589
2.61774
2.61991
2.62212
2.62469
2.62737
2.63045
2.63359
2.63748
2.64115
2.64522
2.64977
2.65522
2.66125
2.66664
2.67296
2.68078
2.68744
2.69551
2.70514
2.71165
2.72409
2.74075
2.75406
2.76829
2.77875
2.79141
2.81138
2.85027
2.81188
1.66083
0.647095
0.604166
0.671686
0.720551
0.735653
0.749184
0.723102
0.680176
0.637783
0.589858
0.541008
0.494797
0.453269
0.41873
0.389782
0.365258
0.343868
0.323575
0.303661
0.285238
0.269228
0.254868
0.241036
0.227665
0.214662
0.201781
0.18899
0.176345
0.163773
0.150803
0.138186
0.125981
0.11438
0.102662
0.0912555
0.0796681
0.0691216
0.057986
0.0485272
0.0400751
0.0416524
2.59808
2.59808
2.59808
2.59808
2.59808
2.59808
2.59808
2.59808
2.59808
2.59808
2.59808
2.59808
2.59808
2.59808
2.59808
2.59808
2.59808
2.59808
2.59808
2.59808
2.59809
2.5981
2.59813
2.59816
2.59821
2.59829
2.5984
2.59853
2.59871
2.59892
2.59919
2.59953
2.59995
2.60041
2.60098
2.60161
2.60233
2.60312
2.60401
2.60498
2.60604
2.60718
2.60839
2.60967
2.61099
2.61241
2.614
2.61569
2.61762
2.61966
2.62195
2.62437
2.62716
2.62999
2.6333
2.63697
2.64075
2.64476
2.64932
2.65438
2.66012
2.66618
2.67178
2.67938
2.68769
2.69521
2.70289
2.71248
2.72291
2.73593
2.74903
2.76055
2.77328
2.79007
2.80788
2.83577
2.68871
1.76778
0.717995
0.672569
0.6521
0.729664
0.725028
0.72692
0.688611
0.657826
0.616996
0.581127
0.539901
0.499583
0.460393
0.425056
0.394969
0.368807
0.345736
0.324034
0.303457
0.284944
0.269049
0.255059
0.241775
0.228886
0.216169
0.203463
0.190776
0.178206
0.165736
0.152947
0.140624
0.128779
0.1177
0.106511
0.0959761
0.0851543
0.0760265
0.0660578
0.0586251
0.0522458
0.0560099
2.59808
2.59808
2.59808
2.59808
2.59808
2.59808
2.59808
2.59808
2.59808
2.59808
2.59808
2.59808
2.59808
2.59808
2.59808
2.59808
2.59808
2.59808
2.59808
2.59808
2.59809
2.5981
2.59813
2.59816
2.59821
2.59828
2.59839
2.59852
2.59869
2.59891
2.59919
2.59951
2.59991
2.60039
2.60094
2.60156
2.60228
2.60306
2.60394
2.6049
2.60596
2.60707
2.60826
2.60952
2.61082
2.61226
2.61376
2.61552
2.61734
2.61942
2.62161
2.62402
2.62674
2.62949
2.63276
2.63634
2.64007
2.64426
2.64865
2.65375
2.65882
2.66478
2.67036
2.67779
2.68532
2.69511
2.70204
2.71112
2.72062
2.72978
2.73911
2.74953
2.7646
2.78103
2.82206
2.85015
2.71876
1.70472
0.771623
0.713394
0.651921
0.708364
0.698885
0.682524
0.642051
0.61992
0.585986
0.557008
0.523405
0.489915
0.454643
0.421811
0.392961
0.368266
0.34652
0.326048
0.306599
0.288834
0.273195
0.259241
0.245933
0.232936
0.220094
0.20724
0.194384
0.181595
0.168916
0.156056
0.143866
0.132288
0.121681
0.111028
0.101524
0.0916441
0.0840116
0.0752313
0.0696633
0.0647892
0.0698146
2.59808
2.59808
2.59808
2.59808
2.59808
2.59808
2.59808
2.59808
2.59808
2.59808
2.59808
2.59808
2.59808
2.59808
2.59808
2.59808
2.59808
2.59808
2.59808
2.59808
2.59809
2.5981
2.59813
2.59816
2.59821
2.59828
2.59839
2.59852
2.59868
2.5989
2.59917
2.5995
2.59989
2.60035
2.6009
2.6015
2.60221
2.60298
2.60386
2.60479
2.60581
2.60693
2.60809
2.60932
2.61063
2.61202
2.61354
2.61519
2.61702
2.619
2.62119
2.62352
2.62613
2.62907
2.63204
2.63547
2.63915
2.64355
2.6474
2.65252
2.65797
2.6631
2.66825
2.67572
2.68402
2.69221
2.69971
2.70798
2.717
2.72383
2.73254
2.74287
2.75549
2.7826
2.83635
2.88381
2.85122
1.39858
0.784426
0.713915
0.637519
0.653122
0.638467
0.626573
0.588286
0.579528
0.553287
0.532236
0.506527
0.479303
0.446723
0.416556
0.388187
0.364186
0.343071
0.323461
0.304679
0.287548
0.272168
0.25852
0.245445
0.232599
0.219936
0.207245
0.194549
0.181914
0.169403
0.156883
0.145312
0.134456
0.124835
0.115215
0.107249
0.0986883
0.0925904
0.0850307
0.0810305
0.077257
0.0829404
2.59808
2.59808
2.59808
2.59808
2.59808
2.59808
2.59808
2.59808
2.59808
2.59808
2.59808
2.59808
2.59808
2.59808
2.59808
2.59808
2.59808
2.59808
2.59808
2.59808
2.59809
2.5981
2.59813
2.59815
2.59821
2.59828
2.59837
2.59849
2.59867
2.59888
2.59914
2.59946
2.59984
2.6003
2.60084
2.60144
2.60213
2.60289
2.60373
2.60465
2.60566
2.60673
2.60789
2.60907
2.61035
2.61169
2.61318
2.61479
2.61656
2.61849
2.62062
2.62294
2.62555
2.62825
2.63112
2.63436
2.63809
2.6422
2.64626
2.65118
2.65576
2.66131
2.66644
2.67331
2.68027
2.68895
2.69521
2.70371
2.71335
2.722
2.73095
2.74018
2.75568
2.78455
2.84394
2.82424
2.62801
1.13094
0.816581
0.704685
0.604711
0.583732
0.567339
0.568035
0.54503
0.541792
0.523461
0.507178
0.487797
0.465434
0.436582
0.409641
0.382673
0.360279
0.340492
0.322387
0.304794
0.28873
0.274022
0.260735
0.247884
0.23516
0.222612
0.210001
0.197409
0.184877
0.172485
0.160308
0.149338
0.139142
0.130388
0.121531
0.114677
0.107084
0.101997
0.0952642
0.0924001
0.0893909
0.0953796
2.59808
2.59808
2.59808
2.59808
2.59808
2.59808
2.59808
2.59808
2.59808
2.59808
2.59808
2.59808
2.59808
2.59808
2.59808
2.59808
2.59808
2.59808
2.59808
2.59808
2.59809
2.5981
2.59813
2.59815
2.59821
2.59827
2.59836
2.59848
2.59865
2.59886
2.59911
2.59943
2.59979
2.60024
2.60075
2.60135
2.60201
2.60276
2.60356
2.60446
2.60545
2.60649
2.60759
2.60877
2.61001
2.61129
2.61274
2.61429
2.61602
2.61789
2.61993
2.62224
2.62464
2.62731
2.62994
2.6332
2.63672
2.64064
2.64463
2.64924
2.65375
2.65896
2.66423
2.67042
2.67713
2.68386
2.69014
2.6995
2.71004
2.71939
2.73052
2.73869
2.7499
2.75829
2.73923
2.58739
2.03972
1.01446
0.821114
0.663581
0.552197
0.515845
0.518934
0.520331
0.514316
0.512357
0.502773
0.489141
0.472797
0.452466
0.426343
0.401159
0.375094
0.35279
0.333298
0.315891
0.299328
0.284231
0.270363
0.257821
0.245681
0.233637
0.221744
0.209682
0.197705
0.185807
0.174177
0.162979
0.153113
0.143883
0.136215
0.128251
0.122554
0.115929
0.111612
0.105523
0.103551
0.101096
0.107092
2.59808
2.59808
2.59808
2.59808
2.59808
2.59808
2.59808
2.59808
2.59808
2.59808
2.59808
2.59808
2.59808
2.59808
2.59808
2.59808
2.59808
2.59808
2.59808
2.59808
2.59809
2.59809
2.59813
2.59815
2.5982
2.59827
2.59835
2.59847
2.59862
2.59882
2.59907
2.59938
2.59974
2.60017
2.60066
2.60124
2.60187
2.60259
2.60337
2.60425
2.60517
2.60618
2.60726
2.60839
2.60957
2.61083
2.6122
2.6137
2.61538
2.61714
2.61912
2.6212
2.62356
2.62612
2.62883
2.63182
2.63523
2.63867
2.6428
2.64677
2.65131
2.65628
2.66172
2.66784
2.6735
2.67872
2.68597
2.69569
2.70516
2.71559
2.72272
2.72895
2.73273
2.72388
2.68828
2.52754
1.56357
0.903261
0.80157
0.59664
0.49371
0.468128
0.48863
0.493499
0.491959
0.491558
0.487371
0.476488
0.462642
0.44384
0.421042
0.397473
0.372657
0.350941
0.332115
0.315249
0.299021
0.283742
0.269988
0.257213
0.244781
0.232568
0.220803
0.209081
0.197667
0.186437
0.175702
0.165629
0.157037
0.148911
0.142409
0.135386
0.130758
0.124997
0.121217
0.115663
0.114324
0.112291
0.118111
2.59808
2.59808
2.59808
2.59808
2.59808
2.59808
2.59808
2.59808
2.59808
2.59808
2.59808
2.59808
2.59808
2.59808
2.59808
2.59808
2.59808
2.59808
2.59808
2.59808
2.59808
2.59809
2.59812
2.59815
2.5982
2.59826
2.59834
2.59846
2.5986
2.59879
2.59904
2.59932
2.59966
2.60008
2.60055
2.6011
2.6017
2.6024
2.60315
2.60399
2.60488
2.60584
2.60686
2.60794
2.60907
2.61027
2.61157
2.61301
2.61453
2.61629
2.61809
2.62019
2.62234
2.62482
2.62744
2.63022
2.63321
2.63665
2.64031
2.64438
2.64853
2.65345
2.65888
2.66407
2.66987
2.67529
2.68243
2.69031
2.69855
2.70661
2.71398
2.72107
2.73139
2.74729
2.74644
2.71857
1.25933
0.869396
0.743114
0.532839
0.447518
0.437473
0.462303
0.473178
0.479677
0.477077
0.476373
0.467
0.454092
0.435823
0.414649
0.390029
0.364976
0.343189
0.325378
0.310062
0.295384
0.282023
0.270025
0.25857
0.247379
0.23609
0.224936
0.213357
0.201906
0.19049
0.179906
0.170223
0.162327
0.15492
0.149327
0.143068
0.139371
0.134305
0.130864
0.125702
0.124743
0.122991
0.128506
2.59808
2.59808
2.59808
2.59808
2.59808
2.59808
2.59808
2.59808
2.59808
2.59808
2.59808
2.59808
2.59808
2.59808
2.59808
2.59808
2.59808
2.59808
2.59808
2.59808
2.59808
2.59809
2.59812
2.59814
2.59819
2.59823
2.59833
2.59843
2.59858
2.59875
2.59898
2.59925
2.59958
2.59997
2.60042
2.60093
2.60151
2.60216
2.60289
2.60367
2.60451
2.60542
2.60638
2.60741
2.60848
2.60961
2.61084
2.61217
2.61366
2.61526
2.617
2.61891
2.62101
2.62323
2.62575
2.62832
2.63119
2.63429
2.63779
2.64153
2.64565
2.65006
2.65494
2.66009
2.66572
2.6715
2.67819
2.68479
2.69184
2.70017
2.71025
2.72379
2.74664
2.78944
2.76935
2.37078
1.03777
0.810884
0.667038
0.490809
0.420186
0.431307
0.443937
0.458017
0.469754
0.470163
0.471191
0.462779
0.451238
0.434929
0.416768
0.393611
0.369569
0.346195
0.326265
0.30865
0.292666
0.278908
0.266956
0.255796
0.245239
0.234724
0.224645
0.214201
0.203978
0.193581
0.1841
0.175304
0.168261
0.161472
0.156608
0.15093
0.147946
0.143393
0.140182
0.135396
0.134704
0.133227
0.138406
2.59808
2.59808
2.59808
2.59808
2.59808
2.59808
2.59808
2.59808
2.59808
2.59808
2.59808
2.59808
2.59808
2.59808
2.59808
2.59808
2.59808
2.59808
2.59808
2.59808
2.59808
2.59809
2.5981
2.59814
2.59816
2.59822
2.5983
2.59841
2.59854
2.59872
2.59892
2.59918
2.59949
2.59985
2.60028
2.60075
2.60131
2.6019
2.60259
2.60331
2.60411
2.60496
2.60586
2.60682
2.60782
2.60887
2.61
2.61127
2.61261
2.61413
2.61572
2.61751
2.61937
2.62151
2.62377
2.62628
2.62888
2.63185
2.63499
2.63851
2.64228
2.64629
2.65071
2.6558
2.66128
2.66712
2.67352
2.67942
2.6869
2.69685
2.70829
2.71641
2.72182
2.69545
2.53303
1.68525
0.889127
0.752114
0.571059
0.445535
0.40841
0.433417
0.441843
0.45376
0.463239
0.464665
0.465206
0.456136
0.444581
0.428494
0.410761
0.389081
0.367273
0.347037
0.329653
0.313651
0.298123
0.284084
0.271452
0.259431
0.248204
0.237309
0.227096
0.216695
0.206879
0.197053
0.188569
0.18072
0.174543
0.168399
0.164247
0.159086
0.156648
0.152442
0.149345
0.144863
0.144281
0.142989
0.147783
2.59808
2.59808
2.59808
2.59808
2.59808
2.59808
2.59808
2.59808
2.59808
2.59808
2.59808
2.59808
2.59808
2.59808
2.59808
2.59808
2.59808
2.59808
2.59808
2.59808
2.59808
2.59809
2.5981
2.59813
2.59816
2.59821
2.59828
2.59838
2.59849
2.59866
2.59886
2.5991
2.59938
2.59971
2.6001
2.60055
2.60106
2.60162
2.60225
2.60292
2.60366
2.60444
2.60527
2.60615
2.60707
2.60803
2.60907
2.61023
2.61148
2.61284
2.61431
2.61592
2.61769
2.61956
2.62167
2.62396
2.6264
2.62904
2.632
2.63509
2.63868
2.64223
2.64654
2.65104
2.65628
2.66199
2.66831
2.67439
2.68117
2.68886
2.69739
2.70587
2.71574
2.70202
2.62906
1.26749
0.802792
0.676607
0.484203
0.405905
0.397355
0.429605
0.443099
0.455656
0.4648
0.467418
0.469335
0.461556
0.450733
0.434367
0.41542
0.391562
0.367248
0.345746
0.327827
0.312223
0.297572
0.284689
0.272935
0.261583
0.251053
0.240692
0.231143
0.221236
0.211989
0.202643
0.194858
0.187549
0.181855
0.176029
0.172282
0.167411
0.165265
0.16125
0.15817
0.153959
0.153404
0.152301
0.15674
2.59808
2.59808
2.59808
2.59808
2.59808
2.59808
2.59808
2.59808
2.59808
2.59808
2.59808
2.59808
2.59808
2.59808
2.59808
2.59808
2.59808
2.59808
2.59808
2.59808
2.59808
2.59808
2.59809
2.59812
2.59815
2.5982
2.59826
2.59834
2.59846
2.5986
2.59879
2.599
2.59926
2.59957
2.59992
2.60034
2.60079
2.60131
2.60187
2.60248
2.60315
2.60386
2.60462
2.60541
2.60625
2.60712
2.60805
2.6091
2.6102
2.61144
2.61275
2.61423
2.61581
2.6175
2.61936
2.62143
2.62367
2.62605
2.62865
2.63156
2.6347
2.63813
2.64189
2.64625
2.65079
2.65593
2.66176
2.66826
2.67412
2.68202
2.69272
2.7123
2.75124
2.74624
2.42287
0.967835
0.72585
0.587061
0.446949
0.390238
0.408075
0.425332
0.444418
0.454241
0.462232
0.463709
0.465861
0.460307
0.451342
0.437657
0.421788
0.401452
0.377619
0.354783
0.334931
0.317458
0.301786
0.288058
0.275569
0.263841
0.253246
0.243024
0.233828
0.224317
0.215793
0.207284
0.200482
0.193942
0.188954
0.183576
0.180289
0.175726
0.173708
0.169847
0.166718
0.16276
0.162129
0.161131
0.165145
2.59808
2.59808
2.59808
2.59808
2.59808
2.59808
2.59808
2.59808
2.59808
2.59808
2.59808
2.59808
2.59808
2.59808
2.59808
2.59808
2.59808
2.59808
2.59808
2.59808
2.59808
2.59808
2.59809
2.5981
2.59814
2.59817
2.59823
2.5983
2.59841
2.59854
2.59869
2.59889
2.59913
2.5994
2.59972
2.60009
2.60049
2.60095
2.60145
2.60201
2.60259
2.60323
2.60389
2.6046
2.60535
2.60611
2.60695
2.60786
2.60886
2.60993
2.61111
2.61237
2.61378
2.61529
2.61692
2.61869
2.62071
2.62279
2.62516
2.62769
2.63052
2.63354
2.63703
2.64081
2.64499
2.64961
2.6551
2.66096
2.66826
2.67743
2.68394
2.68848
2.66667
2.53164
1.60377
0.790773
0.646083
0.496158
0.40549
0.38645
0.422229
0.43426
0.452921
0.463769
0.470788
0.471549
0.471204
0.463663
0.452904
0.438529
0.422733
0.403179
0.380775
0.359452
0.340099
0.323186
0.308118
0.294539
0.281996
0.270177
0.259569
0.249257
0.240114
0.230595
0.22233
0.214109
0.207686
0.201383
0.196717
0.191539
0.188479
0.184057
0.181988
0.178199
0.174992
0.171234
0.170452
0.169536
0.173209
2.59808
2.59808
2.59808
2.59808
2.59808
2.59808
2.59808
2.59808
2.59808
2.59808
2.59808
2.59808
2.59808
2.59808
2.59808
2.59808
2.59808
2.59808
2.59808
2.59808
2.59808
2.59808
2.59808
2.59809
2.59813
2.59815
2.59821
2.59827
2.59835
2.59847
2.59861
2.59879
2.59899
2.59923
2.59951
2.59983
2.60018
2.60057
2.60101
2.6015
2.60201
2.60255
2.60312
2.60375
2.60439
2.60505
2.60578
2.60656
2.6074
2.60833
2.60932
2.61044
2.61161
2.61292
2.61429
2.61586
2.61753
2.61935
2.62133
2.62365
2.62601
2.62873
2.63165
2.63514
2.63876
2.64317
2.64797
2.65305
2.65856
2.66424
2.67151
2.67998
2.68132
2.68632
1.11028
0.693203
0.564873
0.429918
0.379889
0.399303
0.423617
0.443715
0.457918
0.468467
0.475589
0.477895
0.479309
0.474064
0.464004
0.449643
0.433249
0.412391
0.38901
0.366083
0.345294
0.327643
0.312204
0.298361
0.285811
0.27417
0.263879
0.253821
0.245046
0.235856
0.228192
0.22048
0.214654
0.208666
0.204392
0.199426
0.196547
0.19222
0.190043
0.186337
0.18306
0.17946
0.178435
0.17756
0.18081
2.59808
2.59808
2.59808
2.59808
2.59808
2.59808
2.59808
2.59808
2.59808
2.59808
2.59808
2.59808
2.59808
2.59808
2.59808
2.59808
2.59808
2.59808
2.59808
2.59808
2.59808
2.59808
2.59808
2.59809
2.5981
2.59814
2.59817
2.59823
2.5983
2.5984
2.59852
2.59866
2.59883
2.59905
2.59927
2.59954
2.59985
2.60018
2.60055
2.60095
2.60138
2.60184
2.60233
2.60284
2.60338
2.60394
2.60453
2.60517
2.60588
2.60664
2.60748
2.60836
2.60934
2.61041
2.61157
2.61281
2.61422
2.61573
2.61741
2.61922
2.62127
2.62353
2.62608
2.6289
2.63212
2.63567
2.63984
2.64413
2.64981
2.6574
2.67336
2.69324
2.62808
2.09713
0.815464
0.605521
0.482881
0.404527
0.379497
0.417378
0.430028
0.452801
0.465138
0.473736
0.479278
0.480913
0.481748
0.477203
0.468053
0.455678
0.440614
0.421386
0.399356
0.376845
0.355275
0.336972
0.320921
0.306501
0.293622
0.281763
0.271414
0.261263
0.252523
0.243322
0.235906
0.228293
0.222615
0.216581
0.212442
0.207534
0.204614
0.200261
0.197965
0.194364
0.190968
0.187455
0.186151
0.185294
0.188286
2.59808
2.59808
2.59808
2.59808
2.59808
2.59808
2.59808
2.59808
2.59808
2.59808
2.59808
2.59808
2.59808
2.59808
2.59808
2.59808
2.59808
2.59808
2.59808
2.59806
2.59806
2.59806
2.59808
2.59808
2.59809
2.5981
2.59814
2.59819
2.59824
2.59833
2.59842
2.59854
2.59868
2.59883
2.59903
2.59925
2.5995
2.59977
2.60006
2.60038
2.60074
2.60109
2.60148
2.6019
2.60234
2.60277
2.60325
2.60376
2.6043
2.60491
2.60556
2.60626
2.60703
2.60784
2.60874
2.60972
2.6108
2.61197
2.61326
2.61472
2.61632
2.61814
2.62015
2.62242
2.62493
2.62797
2.6318
2.63594
2.63995
2.6415
2.64125
2.62419
2.52203
1.28916
0.645989
0.524071
0.415547
0.381005
0.398452
0.426887
0.444996
0.463052
0.476076
0.484781
0.490352
0.491593
0.491781
0.486599
0.477202
0.46432
0.448232
0.429033
0.407247
0.3845
0.362793
0.344126
0.327677
0.31297
0.300002
0.288142
0.277914
0.267891
0.259433
0.250478
0.243467
0.236024
0.230565
0.224511
0.220449
0.215546
0.2125
0.208136
0.205755
0.202297
0.198745
0.195294
0.193689
0.192824
0.195383
2.59808
2.59808
2.59808
2.59808
2.59808
2.59808
2.59808
2.59808
2.59808
2.59808
2.59808
2.59808
2.59808
2.59808
2.59808
2.59808
2.59808
2.59808
2.59806
2.59806
2.59806
2.59806
2.59806
2.59806
2.59808
2.59808
2.5981
2.59814
2.59817
2.59823
2.59831
2.59841
2.5985
2.59863
2.59879
2.59895
2.59914
2.59935
2.59958
2.59981
2.60007
2.60036
2.60065
2.60096
2.60129
2.60161
2.60197
2.60233
2.60274
2.60316
2.60362
2.60413
2.60468
2.60527
2.60591
2.6066
2.60735
2.60818
2.609
2.61005
2.61122
2.61255
2.61406
2.61575
2.61751
2.61974
2.62205
2.62507
2.6282
2.63547
2.65278
2.65771
2.5228
0.848553
0.56372
0.459285
0.398509
0.375816
0.416275
0.432428
0.45698
0.471142
0.482817
0.490741
0.496398
0.498689
0.499583
0.495302
0.487007
0.475357
0.460155
0.441647
0.419854
0.396418
0.374088
0.3547
0.337569
0.322306
0.308996
0.296855
0.286473
0.276299
0.267848
0.258879
0.251972
0.244437
0.238953
0.232737
0.228584
0.223582
0.220354
0.216
0.213522
0.210134
0.206421
0.202954
0.201019
0.20011
0.202412
2.59808
2.59808
2.59808
2.59808
2.59808
2.59808
2.59808
2.59808
2.59808
2.59808
2.59808
2.59808
2.59808
2.59808
2.59808
2.59808
2.59808
2.59808
2.59806
2.59806
2.59806
2.59806
2.59806
2.59806
2.59806
2.59806
2.59808
2.59809
2.59811
2.59816
2.59821
2.59827
2.59835
2.59843
2.59854
2.59865
2.59878
2.59894
2.59909
2.59926
2.59943
2.59962
2.59982
2.60002
2.60025
2.60046
2.6007
2.60093
2.60118
2.60145
2.60174
2.60203
2.60236
2.60273
2.60311
2.60352
2.60397
2.60439
2.60485
2.60542
2.60611
2.60688
2.60779
2.60887
2.60993
2.6115
2.61306
2.61632
2.61769
2.61775
2.59886
2.50899
1.46271
0.623233
0.481192
0.403533
0.382171
0.404487
0.430772
0.450416
0.470128
0.484786
0.494943
0.501721
0.505556
0.506133
0.50656
0.50261
0.494874
0.483879
0.469393
0.451836
0.430652
0.407253
0.384436
0.36431
0.346677
0.331053
0.317518
0.305188
0.294736
0.28451
0.276122
0.267185
0.260362
0.252767
0.24723
0.240859
0.236577
0.231486
0.228095
0.223854
0.221216
0.217845
0.21397
0.210424
0.208173
0.207239
0.208982
2.59808
2.59808
2.59808
2.59808
2.59808
2.59808
2.59808
2.59808
2.59808
2.59808
2.59808
2.59808
2.59808
2.59808
2.59808
2.59808
2.59808
2.59806
2.59806
2.59806
2.59806
2.59805
2.59803
2.59803
2.59803
2.59803
2.59803
2.59803
2.59805
2.59808
2.5981
2.59814
2.59818
2.59823
2.59829
2.59836
2.59844
2.59852
2.5986
2.5987
2.59879
2.5989
2.599
2.59911
2.59924
2.59936
2.59945
2.59957
2.59968
2.59979
2.59991
2.60001
2.60012
2.60027
2.60036
2.60049
2.60058
2.60067
2.60082
2.60098
2.60111
2.6013
2.60153
2.60184
2.60244
2.60279
2.60306
2.60328
2.60436
2.61093
2.61942
2.63088
0.889433
0.523822
0.428041
0.390877
0.383303
0.424761
0.441759
0.46681
0.481628
0.49505
0.504563
0.511741
0.51616
0.517385
0.517766
0.513844
0.50653
0.495808
0.481743
0.464576
0.443759
0.420637
0.397251
0.376207
0.357918
0.341756
0.327841
0.315147
0.304437
0.293956
0.285422
0.276328
0.269338
0.26153
0.255745
0.249154
0.244668
0.23943
0.235901
0.231745
0.228844
0.225427
0.221338
0.217626
0.215072
0.214071
0.21551
2.59808
2.59808
2.59808
2.59808
2.59808
2.59808
2.59808
2.59808
2.59808
2.59808
2.59808
2.59808
2.59808
2.59808
2.59808
2.59808
2.59808
2.59806
2.59806
2.59806
2.59806
2.59803
2.59803
2.59802
2.59802
2.59801
2.59801
2.59801
2.59799
2.59799
2.59799
2.59801
2.59802
2.59803
2.59805
2.59807
2.5981
2.59812
2.59814
2.59816
2.5982
2.59821
2.59823
2.59826
2.59828
2.59829
2.59829
2.59828
2.59826
2.59824
2.59819
2.5981
2.59801
2.59792
2.59781
2.59769
2.59746
2.59715
2.59687
2.59677
2.59651
2.59626
2.59569
2.59513
2.59473
2.59457
2.59518
2.59651
2.597
2.58574
2.51677
1.6269
0.607374
0.443673
0.399816
0.383395
0.417812
0.438777
0.46022
0.479472
0.494563
0.5062
0.514119
0.520235
0.524163
0.525711
0.526393
0.523048
0.516372
0.506216
0.49281
0.476213
0.45607
0.433391
0.409565
0.387737
0.368884
0.352285
0.338058
0.325046
0.314123
0.303421
0.29472
0.285445
0.278206
0.270165
0.264129
0.257359
0.252694
0.247379
0.243739
0.239635
0.236394
0.232882
0.228569
0.224643
0.221851
0.220792
0.221693
2.59808
2.59808
2.59808
2.59808
2.59808
2.59808
2.59808
2.59808
2.59808
2.59808
2.59808
2.59808
2.59808
2.59808
2.59808
2.59808
2.59808
2.59806
2.59806
2.59806
2.59805
2.59803
2.59802
2.59801
2.59801
2.59798
2.59796
2.59795
2.59794
2.59791
2.59789
2.59788
2.59785
2.59785
2.59781
2.59779
2.59778
2.59775
2.59771
2.59768
2.59763
2.59757
2.59751
2.59747
2.5974
2.59733
2.59722
2.59711
2.59697
2.59681
2.5966
2.59637
2.59609
2.59578
2.59543
2.59511
2.59469
2.59402
2.59337
2.59271
2.59225
2.59157
2.59069
2.5896
2.58817
2.58618
2.58496
2.58358
2.58318
2.58188
2.529
0.929854
0.486643
0.403874
0.386108
0.404635
0.437199
0.456706
0.479359
0.495157
0.508449
0.518955
0.526717
0.532239
0.535724
0.537301
0.537932
0.53496
0.528617
0.518873
0.506071
0.489965
0.470466
0.448184
0.423949
0.401085
0.381429
0.364188
0.349495
0.335998
0.324656
0.313542
0.304512
0.294938
0.287354
0.279051
0.272765
0.265829
0.260956
0.255515
0.251661
0.24753
0.243896
0.24024
0.235657
0.231477
0.228472
0.227302
0.227877
2.59808
2.59808
2.59808
2.59808
2.59808
2.59808
2.59808
2.59808
2.59808
2.59808
2.59808
2.59808
2.59808
2.59808
2.59808
2.59808
2.59808
2.59806
2.59806
2.59806
2.59803
2.59802
2.59802
2.59801
2.59796
2.59795
2.59794
2.59789
2.59787
2.59784
2.59779
2.59776
2.59771
2.59766
2.5976
2.59754
2.59747
2.59741
2.59731
2.59721
2.59711
2.59699
2.59687
2.59675
2.59662
2.59645
2.59627
2.59606
2.59583
2.59553
2.59523
2.59485
2.59444
2.59394
2.59342
2.59277
2.59219
2.59144
2.59054
2.58948
2.58822
2.58719
2.58606
2.58466
2.58323
2.58124
2.57793
2.57501
2.56906
2.54179
1.76119
0.597908
0.418379
0.396777
0.404889
0.433877
0.455055
0.476839
0.494314
0.509092
0.520891
0.530335
0.537097
0.542136
0.545321
0.547109
0.54751
0.545277
0.539363
0.530137
0.518074
0.502621
0.483881
0.462137
0.437978
0.414529
0.393961
0.376024
0.360795
0.346823
0.335086
0.323596
0.31425
0.304393
0.296493
0.287968
0.281453
0.274407
0.269354
0.263797
0.259749
0.255529
0.251567
0.247574
0.24265
0.238251
0.235095
0.233821
0.233946
2.59808
2.59808
2.59808
2.59808
2.59808
2.59808
2.59808
2.59808
2.59808
2.59808
2.59808
2.59808
2.59808
2.59808
2.59808
2.59808
2.59808
2.59806
2.59806
2.59805
2.59803
2.59802
2.59801
2.59799
2.59795
2.59794
2.59789
2.59785
2.59781
2.59776
2.5977
2.59764
2.59757
2.59749
2.59741
2.59731
2.59721
2.59708
2.59694
2.5968
2.59665
2.59648
2.5963
2.59612
2.59593
2.5957
2.59544
2.59514
2.59482
2.59446
2.59406
2.59358
2.59304
2.59246
2.59173
2.59096
2.5901
2.58917
2.58815
2.58699
2.58552
2.58374
2.58187
2.58008
2.57846
2.57695
2.57514
2.57173
2.55893
2.49059
0.964478
0.461716
0.398276
0.402707
0.429741
0.455317
0.475469
0.494498
0.509907
0.523376
0.533854
0.542863
0.549409
0.554252
0.557179
0.559144
0.559084
0.557326
0.551752
0.542852
0.531416
0.516652
0.498611
0.477409
0.453476
0.429294
0.407668
0.388748
0.372645
0.357976
0.345698
0.333774
0.324094
0.313946
0.305761
0.297038
0.290285
0.283132
0.277935
0.272279
0.267951
0.263512
0.259196
0.254756
0.2495
0.244888
0.24157
0.24023
0.239999
2.59808
2.59808
2.59808
2.59808
2.59808
2.59808
2.59808
2.59808
2.59808
2.59808
2.59808
2.59808
2.59808
2.59808
2.59808
2.59808
2.59806
2.59806
2.59806
2.59805
2.59803
2.59802
2.59799
2.59796
2.59794
2.59789
2.59787
2.59781
2.59776
2.59769
2.5976
2.59753
2.59745
2.59734
2.59722
2.5971
2.59696
2.59679
2.59662
2.59644
2.59625
2.59604
2.59581
2.59558
2.59536
2.59507
2.59475
2.59442
2.59402
2.59358
2.59311
2.59257
2.59197
2.59128
2.5905
2.5896
2.58854
2.58734
2.58611
2.58481
2.58348
2.5818
2.57956
2.57661
2.5734
2.57092
2.56982
2.56982
2.56445
1.88273
0.594289
0.415641
0.406223
0.436384
0.452632
0.47629
0.495221
0.510929
0.524637
0.536609
0.546632
0.554935
0.561025
0.565473
0.568129
0.57006
0.569819
0.568462
0.563264
0.554805
0.543969
0.529852
0.512553
0.491983
0.468544
0.444039
0.421612
0.401792
0.384877
0.369503
0.356645
0.344228
0.334128
0.323634
0.315116
0.306165
0.299189
0.291918
0.286489
0.280695
0.276026
0.271322
0.266718
0.261896
0.256367
0.2515
0.248023
0.246637
0.246143
2.59808
2.59808
2.59808
2.59808
2.59808
2.59808
2.59808
2.59808
2.59808
2.59808
2.59808
2.59808
2.59808
2.59808
2.59808
2.59808
2.59806
2.59806
2.59806
2.59803
2.59802
2.59801
2.59799
2.59795
2.59792
2.59788
2.59783
2.59777
2.5977
2.59763
2.59753
2.59744
2.59732
2.5972
2.59704
2.5969
2.59672
2.59654
2.59635
2.59612
2.59591
2.59566
2.59541
2.59516
2.59488
2.59457
2.59424
2.59385
2.59343
2.59295
2.59242
2.59182
2.59118
2.59045
2.58964
2.58869
2.58759
2.58626
2.58475
2.58334
2.58202
2.58039
2.57826
2.57558
2.57178
2.56677
2.5608
2.5569
2.53178
1.02412
0.463782
0.404843
0.436151
0.458047
0.481436
0.497713
0.513426
0.527255
0.539977
0.551081
0.560367
0.567801
0.573401
0.577515
0.580005
0.5817
0.581483
0.580444
0.575782
0.56787
0.557477
0.543934
0.52717
0.50703
0.483981
0.459144
0.435926
0.415071
0.397368
0.381339
0.367912
0.354946
0.344331
0.333436
0.324601
0.315412
0.308199
0.300756
0.294958
0.288996
0.28398
0.278948
0.274014
0.268752
0.262955
0.257928
0.254346
0.252968
0.252367
2.59808
2.59808
2.59808
2.59808
2.59808
2.59808
2.59808
2.59808
2.59808
2.59808
2.59808
2.59808
2.59808
2.59808
2.59808
2.59808
2.59806
2.59806
2.59806
2.59803
2.59802
2.59801
2.59796
2.59795
2.59789
2.59785
2.5978
2.59773
2.59764
2.59756
2.59745
2.59734
2.59721
2.59707
2.5969
2.59672
2.59654
2.59633
2.59611
2.59587
2.59562
2.59536
2.59509
2.5948
2.5945
2.59418
2.59382
2.59343
2.59299
2.5925
2.59196
2.59136
2.59068
2.58995
2.58909
2.58818
2.58712
2.586
2.58469
2.58311
2.58109
2.57907
2.57703
2.57507
2.57272
2.56924
2.56146
2.54365
1.9958
0.612355
0.435777
0.438161
0.469071
0.482341
0.50128
0.518162
0.531755
0.54413
0.555337
0.565659
0.574205
0.581169
0.586047
0.589559
0.591674
0.593066
0.59305
0.592293
0.588215
0.580949
0.571072
0.55805
0.541772
0.52204
0.499222
0.47436
0.450356
0.428453
0.410003
0.393332
0.379374
0.365907
0.354813
0.343479
0.334284
0.324805
0.317301
0.309601
0.303405
0.297186
0.291795
0.286501
0.281265
0.275742
0.269763
0.26459
0.260875
0.259429
0.2588
2.59808
2.59808
2.59808
2.59808
2.59808
2.59808
2.59808
2.59808
2.59808
2.59808
2.59808
2.59808
2.59808
2.59808
2.59808
2.59808
2.59806
2.59806
2.59806
2.59803
2.59802
2.59801
2.59796
2.59794
2.59789
2.59783
2.59777
2.5977
2.5976
2.5975
2.59739
2.59725
2.5971
2.59695
2.59676
2.59658
2.59636
2.59615
2.5959
2.59565
2.59537
2.5951
2.59482
2.59453
2.59424
2.59392
2.59355
2.59314
2.59271
2.59222
2.59171
2.59114
2.5905
2.58978
2.58904
2.58816
2.58724
2.58621
2.58503
2.58367
2.58202
2.58005
2.57768
2.57466
2.57211
2.57072
2.57637
2.56405
1.09795
0.491343
0.436414
0.472257
0.492331
0.510569
0.524704
0.537291
0.548997
0.560474
0.570751
0.580054
0.587894
0.59421
0.598606
0.601764
0.603817
0.604968
0.604998
0.604354
0.600729
0.594044
0.5846
0.572102
0.556376
0.537245
0.514872
0.49002
0.46515
0.442149
0.422874
0.405499
0.390938
0.376933
0.365365
0.353635
0.344143
0.33439
0.326635
0.318624
0.311996
0.305406
0.29961
0.293916
0.288338
0.282477
0.276246
0.270984
0.267238
0.265819
0.265186
2.59808
2.59808
2.59808
2.59808
2.59808
2.59808
2.59808
2.59808
2.59808
2.59808
2.59808
2.59808
2.59808
2.59808
2.59808
2.59808
2.59806
2.59806
2.59805
2.59803
2.59802
2.59799
2.59796
2.59792
2.59788
2.59781
2.59774
2.59766
2.59756
2.59745
2.59732
2.59718
2.59702
2.59683
2.59665
2.59644
2.59622
2.59597
2.59572
2.59547
2.59517
2.59491
2.59462
2.59431
2.59402
2.5937
2.59333
2.59295
2.59253
2.59207
2.59157
2.59104
2.59046
2.58982
2.58911
2.58833
2.58748
2.58656
2.58554
2.58445
2.58315
2.58165