/*--------------------------------*- C++ -*----------------------------------*\
| =========                 |                                                 |
| \\      /  F ield         | OpenFOAM: The Open Source CFD Toolbox           |
|  \\    /   O peration     | Version:  2.2.x                                 |
|   \\  /    A nd           | Web:      www.OpenFOAM.org                      |
|    \\/     M anipulation  |                                                 |
\*---------------------------------------------------------------------------*/
FoamFile
{
    version     2.0;
    format      ascii;
    class       volScalarField;
    location    "2.1";
    object      divBf;
}
// * * * * * * * * * * * * * * * * * * * * * * * * * * * * * * * * * * * * * //

dimensions      [1 -3 -2 0 0 -1 0];

internalField   nonuniform List<scalar> 
14161
(
4910.37
-713.959
629.626
233.608
315.15
242.687
225.486
182.016
147.688
110.359
69.7958
33.9549
-4.17769
-43.9911
-82.4758
-123.338
-163.701
-208.181
-248.066
-293.663
-331.117
-377.293
-417.734
-464.853
-504.217
-544.544
-605.998
-618.894
-644.474
-719.708
-700.052
-748.291
-776.212
-730.424
-781.084
-632.907
-578.957
-354.22
-203.246
38.9164
353.932
1094.26
1444.86
3140.56
1691.02
-20970
-61860
-59289
-26445.2
-31525.5
-28478.3
-33462.4
-30031.5
-32617.2
-31878.5
-31429.5
-28383.6
-29217.7
-28701.1
-26524.4
-24262
-23475.8
-22884.1
-21193.1
-18546.9
-16823.1
-15764.8
-15154.1
-13556
-11537.6
-8606.05
-8316.69
-7350.97
-6144.19
-4507.36
-1725.09
1221.12
3812.29
3646.74
4467.22
6949.38
9459.84
9117.32
7545.27
13397.5
15132.1
13839.8
14505.5
19055.1
13350.2
17828.4
14629.2
12398.9
2865.18
7138.26
4419.44
18317.7
4939.01
5687.26
5989.33
-7353.1
-1798.62
-10858.2
-13128.5
-12467.1
-17054.2
-15117.9
-17616.2
-15736.1
-16858.4
-13584.9
-14691.2
-10819.3
-10645.7
-6366.45
-6073.36
-1746.3
-585.514
2792.23
4646.23
-958.036
380.99
-13.4239
63.769
-10.5161
-27.7225
-74.7207
-117.798
-160.63
-202.591
-243.179
-289.457
-337.449
-384.412
-431.698
-480.23
-532.544
-584.286
-640.055
-689.883
-748.384
-803.922
-866.817
-901.235
-989.719
-1013.89
-1082.44
-1163.2
-1161.12
-1247.1
-1259.39
-1289.49
-1298.27
-1302.84
-1218.86
-1106.32
-952.251
-811.15
-501.114
-187.556
734.897
977.459
2728.97
423.976
-12559.2
-38420.8
-37671.1
-26881.6
-34532.1
-27043.9
-30404.8
-27653.5
-28081.3
-29437
-28916.5
-26021.6
-24800.5
-27645.5
-26502.9
-21570.6
-21136
-21328.3
-20511.2
-17946.2
-16433.5
-16216.2
-14788.3
-12603.5
-10044.1
-8841.66
-5126.86
-2211.82
-1988.66
-1990.61
-1567.59
-36.9832
2341.1
6992.81
9070.4
8796.35
9340.46
1860.83
-406.975
7442.7
12666.9
20269.9
23306.6
25739.8
6783.86
-2811.69
-12448.4
-3525.68
6320.48
17767.6
19489
24548.1
4903.51
2749.5
-1917.65
-10248.4
-10237.7
-8224.72
-4750.29
-3326.99
-4570.05
-7417.87
-12791.9
-8266.97
-8981.84
-8004.83
-7833.65
-6902.13
-7265.77
-3339.18
-4157.12
-629.383
-1396.11
1678.41
4377.04
-1191.53
137.536
-252.376
-175.695
-249.895
-272.601
-321.741
-362.038
-406.454
-455.633
-501.805
-552.766
-602.548
-654.1
-709.685
-766.784
-827.165
-884.925
-948.317
-1008.57
-1080.05
-1139.65
-1195.86
-1290.13
-1342.68
-1410.7
-1513.72
-1562.18
-1626.03
-1714.57
-1780.26
-1818.77
-1903.34
-1940.38
-1989.83
-1957.57
-1919.34
-1949.66
-1833.2
-1798.02
-1503.92
-1501.17
-708.319
-544.677
-17579.6
-15180.3
-37082
-21709.6
-30373.1
-22843.9
-29716.3
-27392.1
-28307.3
-27968.5
-29230
-24378
-24047.8
-27176.4
-23723
-19459.1
-21199.2
-19377.6
-17166.9
-15749.7
-14765.7
-13023
-10623.5
-5984.85
-6869.05
-8696.05
-7893.67
-5999.29
-2697.46
419.488
5527.57
3651.32
2700.81
3805.93
5597.23
-5.20556
12357
29867.6
33119.5
14994.8
9079.12
-7156.51
-33859.3
3997.26
44023.3
81616.9
72428.5
56939.6
37559.8
-13999.5
-34073.4
-10336.9
-3625.85
-4178.03
9751.31
16011.4
12088.8
3367.31
-11047.6
-5964.78
-12042.6
-2206.72
3166.51
-1668.63
-7027.54
-2891.07
-4778.41
-344.8
-2174.99
-1227.33
-1669.66
672.63
-1385.63
1099.93
4109.62
-1416.57
-97.7626
-480.354
-404.134
-477.128
-500.282
-549.278
-591.572
-638.805
-690.488
-738.705
-790.397
-843.267
-901.53
-961.154
-1021.55
-1086.83
-1152.03
-1221.82
-1288.58
-1363.15
-1431.93
-1513.8
-1601.04
-1644.45
-1765.71
-1830.35
-1895.07
-1984.56
-2040.24
-2125.49
-2163.9
-2200.69
-2187.78
-2171.89
-2106.36
-2088.19
-2041.7
-1783.7
-1531.67
-1185.08
-908.417
194.868
-16.7269
-8858.78
5941.67
-18313.1
-13906.3
-30944.5
-25692.3
-30912
-29299.5
-29584.5
-27941.7
-27582.4
-27540.1
-25074.3
-19038.3
-24912
-22294.5
-18118.7
-14025
-15474.2
-13910
-11423.3
-10554.4
-9412.91
-8024.79
-6179.53
-2405.38
2783.74
3136.55
-1954.87
-2341.52
-4395.33
-176.916
4162.9
11537.6
19873
20253.1
19043.5
-2516.07
-13919.1
11590.6
33348
71243.5
98690.1
6150.71
11442.1
-31470.2
-24211.4
-23340.5
36494.8
57846.2
43942.2
12813.5
1815.06
-4430.9
-10812.2
-9765.06
-14059.7
-1371.62
11775
9693.62
297.42
-4478.3
-9207.39
-168.975
-703.459
1511.24
-534.219
-1479.33
-2393.3
984.417
-1818.34
278.722
-1248.01
386.229
3838.76
-1628.65
-323.376
-697.019
-620.078
-691.598
-714.399
-761.428
-804.725
-852.724
-902.536
-952.997
-1008.34
-1064.66
-1125.73
-1187.6
-1251.27
-1319.57
-1387.14
-1462.51
-1535.14
-1612.62
-1695.18
-1785.03
-1848.95
-1966.56
-2046.58
-2122.82
-2232.58
-2336.58
-2417.82
-2542.91
-2627.09
-2721.75
-2793.7
-2917.77
-2906.64
-3075.81
-3118.05
-3056.87
-2982.21
-2891.62
-3042.54
-2709.94
-2106.73
-11251.6
13021.1
-14715.6
-10632.4
-32818
-29915
-33090.2
-30074.5
-30111
-28854
-25636.3
-27305.7
-28377.3
-19929.7
-18449.6
-20460.6
-18313.4
-15416.1
-14099.7
-12483.9
-9720.72
-7446.35
-4984.39
-3057.87
-2144.85
-4510.19
-3836.61
-1563.06
708.557
5923.03
14030.7
8380.26
8016.75
8171.4
1351.93
-4285.89
15895.6
28392.6
45222.9
43347.1
21622.4
-3226.21
-25924.9
2911.17
50908.5
41847.1
82660
27901.2
17289.4
-16626
-23523.7
-172.951
11706.8
8925.69
9631.29
13620.2
6820.1
-8472.27
-12213.2
-6066.66
-2412.8
8168.24
5585.82
-1549.16
-3670.05
-2072.17
-1476.17
2129.37
-1067.35
-87.3132
-1162.56
1077.94
-1406.16
534.267
3574.79
-1830.61
-538.849
-901.974
-823.58
-891.611
-914.471
-961.244
-1000.74
-1047.59
-1098.88
-1149.68
-1206.9
-1262.14
-1324.83
-1388.3
-1456.29
-1527.43
-1598.29
-1675.72
-1753.93
-1836.57
-1924.21
-2010.28
-2097.83
-2200.67
-2276.03
-2380.26
-2480.48
-2563.76
-2654.41
-2732.65
-2815.47
-2855.68
-2862.68
-2863.93
-2871.34
-2859.53
-2796.89
-2738.03
-2508.87
-2207.84
-2176.98
-1200.61
-577.52
-4508.32
33532.3
2770.1
-11058.4
-38620.9
-36734.2
-34545.3
-33842.7
-31541.3
-30356.2
-27796.8
-25621.4
-25069.9
-24036.2
-19841.4
-15538.8
-15205.4
-12996.4
-11812
-9530.74
-8775.7
-7200.13
-6525.19
-5074.56
-3618.14
-1008.85
4561.86
6642.09
4774.5
3715.34
1297.38
-3235.91
4437.54
15772.3
25081.4
26634.8
22048.1
16370.5
-10935.9
-8245.07
36745.7
52012.9
91854.3
77004.1
37006.2
12611.4
-5463
1177.33
2802.06
25400.5
43544.7
32969.5
12149.8
8273.59
-4667.26
-7136.91
-6411.21
7435.12
9792.32
5666.72
-982.035
-6779.39
-10484.8
1489.99
2038.64
1963.5
-1155.48
-1276.27
-2100.28
2288.19
-1275.3
76.0782
-1482.89
459.001
3310.22
-2017.82
-742.448
-1093.91
-1013.96
-1077.5
-1098.75
-1143.18
-1182.11
-1227.24
-1275.9
-1327.96
-1385.99
-1441.31
-1503.85
-1568.17
-1638.46
-1711.13
-1786.29
-1865.85
-1947.57
-2033.58
-2121.96
-2209.48
-2315.23
-2407.01
-2514.33
-2628.31
-2734.07
-2835.66
-2967.34
-3073.47
-3199.98
-3312.27
-3433.37
-3521.29
-3627.03
-3790.14
-3845.64
-3808.55
-3978.08
-3889.2
-3888.9
-2855.6
-1291.92
1551.92
43070.3
-10289.6
-20799.5
-41681.1
-41432
-42257.1
-36422.6
-34376.9
-30431.4
-29645.1
-26849.1
-22286.2
-20064.4
-19629.9
-15826.8
-14555.9
-11916.4
-9679.68
-8308.11
-6703.78
-4568.88
-2835.2
909.553
1510.9
-41.2096
162.119
-742.149
3218.31
6379
14838.2
19245.1
13518
8375.09
1656.66
-2395.72
12448.1
26407.3
45791.7
59158.5
37656.9
7184.32
8065.52
19855.4
8836.84
42731.9
22090.8
59478.2
23671.9
23529.6
-12869.3
2563.5
66.1026
4351.28
10054.7
12744.6
6299
2857.69
-9918.89
-6583.38
-5626.56
4101.68
7159.03
405.202
-4135.32
-1676.24
-2825.93
2640.82
-295.742
-1565.22
-871.495
965.906
-1181.17
607.847
3056.04
-2193.57
-934.184
-1273.37
-1191.35
-1249.72
-1267.21
-1309.64
-1346.62
-1390.26
-1438.04
-1488.41
-1545.09
-1601.09
-1664.77
-1729.37
-1800.08
-1872.09
-1950.11
-2031.09
-2115.81
-2201.14
-2293.36
-2391.54
-2488.47
-2587.74
-2696.9
-2797.55
-2895.11
-2999.65
-3103.26
-3200.89
-3282.35
-3354.07
-3363.71
-3383.78
-3401.06
-3415.44
-3422.24
-3337.57
-3130.84
-2820.81
-2428.92
-1927.49
-1408.9
-4487.29
-3114.92
19123.5
-25323.2
-46700
-42696.3
-45228.1
-37127
-33600.1
-28240.9
-24740.1
-23219.1
-19815
-18442.5
-13386.1
-11851.8
-10261.4
-8482.93
-6047.15
-4342.54
-3280.59
-1878.73
-1545.29
197.165
1067.74
3379.58
5428.06
10235.7
10830
8847.26
6650.16
1462.99
9435.3
15899.1
22144.4
27739.4
26169.4
18752.6
8426.51
11358.9
26764.6
37106.2
35347
45888.1
31061.2
26703
17133.3
33808.9
3487.15
27162.9
32435.7
25398.4
28007.5
15101
5249.51
5896.87
-1546.07
534.563
5141.27
9272.12
2989.08
-270.512
-12823.1
-477.851
797.189
3170.5
1110.05
-1225.12
-2673.69
2694.88
-1233.23
-139.656
-1661.17
211.994
2804.75
-2353.31
-1112.42
-1438.71
-1353.72
-1407.97
-1422.67
-1460.86
-1495.51
-1538.23
-1583.68
-1633.71
-1686.83
-1744.45
-1807.36
-1872.18
-1943.69
-2015.61
-2094.68
-2175.04
-2262.5
-2350.27
-2446.82
-2544.33
-2645.51
-2752.48
-2865.66
-2977.76
-3092.3
-3224.75
-3341.46
-3470.71
-3611.66
-3721.92
-3854.58
-3963.94
-4125.52
-4271.33
-4325.75
-4264.96
-4283.75
-4337.93
-4507.44
-4764.76
-6788.61
-18051.3
-50977.9
-36918.2
-32303.5
-36616
-26184.1
-29201.2
-26117.5
-26896.4
-21438.9
-22023.6
-16934.7
-15086.7
-12962.3
-10484.5
-7975.26
-6255.96
-5361.19
-3419.53
-1940.52
-579.79
236.067
1573.47
2673.59
4315.01
5463.95
5669.44
5816.14
6891.14
10222.4
12717.8
15884.9
19098
16509.6
13761.8
11877.8
15991.6
15891.7
29665.5
47423.3
50983.3
36389.4
31089
28187.5
23553.9
32754.1
30306.5
18684.4
38504.5
11587.5
39192
-1369.04
19318.7
9426.45
10154.5
9032.57
7773.66
4577.92
257.165
1127.93
-2425.92
3075.91
9232.64
796.667
-4877.31
1002.12
-3653.18
878.241
927.587
-472.836
-1921.03
1797.97
-1283.63
396.08
2566.33
-2500.17
-1277.29
-1590.34
-1502.14
-1551.43
-1562.97
-1597.85
-1630.18
-1669.97
-1713.4
-1762.78
-1813.46
-1871
-1931.51
-1997.19
-2067.5
-2140.63
-2219.29
-2301.39
-2389.4
-2479.42
-2575.75
-2673.42
-2778.28
-2884.18
-2994.76
-3102.73
-3215.61
-3322.22
-3434.93
-3542.81
-3633.28
-3709.29
-3753.03
-3789.15
-3819.24
-3862.37
-3814.87
-3696.57
-3589.55
-3508.17
-3613.5
-3834.05
-4993.53
-18171.7
-89017.1
-120319
-33313.8
-14581.8
-8576.03
-12233.2
-13603.6
-14326.5
-13235.9
-11221
-8549.28
-8221.22
-6070.96
-6689.6
-4182.65
-2962.22
-1664.55
-364.293
374.711
2415.64
3492.39
4687.26
5260.11
6034.29
6502.67
7638.58
9324.67
11092.6
12385.6
13427.6
13900.9
14664.7
14928.4
16058.4
18334
20251.9
31190.1
28537.6
31684
43999.6
32167.3
32903
33247.9
32337.1
28172.1
30645.6
14206
34142.3
14558
30262
16763.4
27380.1
18018
14744.1
9196.89
3852.16
4232.66
3473.57
1048.24
2983.09
-402.149
-6212.97
-195.65
1346.34
-346.252
-1292.76
840.461
-2850.95
709.777
-622.377
-264.949
-1559.65
597.999
2334.17
-2630.41
-1427.7
-1727.34
-1637.67
-1681.18
-1687.9
-1719.87
-1749.45
-1787.24
-1827.9
-1876.46
-1926.03
-1981.73
-2040.9
-2106.39
-2175.69
-2249.99
-2327.81
-2410.91
-2498.72
-2590.42
-2686.44
-2787.35
-2893.05
-3004.1
-3118.85
-3238.74
-3358.25
-3480.8
-3621.61
-3760.62
-3895.44
-4019.83
-4139.75
-4254.93
-4378.47
-4505.44
-4613.69
-4578.5
-4567.94
-4362.79
-4345.62
-3776.95
-4068.37
-12553
-60328.6
-179010
-81143
-15057
-10814.7
-7765.59
-9412.6
-9235.42
-10841.6
-6601.6
-6342.48
-4459.59
-3666.32
-3067.15
-1729.33
-1017.55
1030.54
1579.64
3468.22
3011.02
4552.26
5565.65
6690.92
7638.62
8716.57
9747.29
11030.6
11802.1
12718.3
13644.7
14816.6
16693
17693.8
18899.9
17877.4
18668.3
21204.4
33713.4
41205.2
40031.9
33209.4
33584.2
29286.6
31262.5
23893.4
29137.7
18429.8
30554.1
25658.6
17518.9
31631.6
12030.2
21492.3
17012.7
10098.4
6818
7576.78
3744.8
3192.41
-428.507
3317.73
2131.31
824.617
-969.064
334.669
-1146.57
-1410.88
95.1884
587.518
-1995.71
972.254
-864.054
669.954
2116.72
-2746.54
-1563.8
-1850.37
-1757.82
-1796.35
-1799.74
-1828.25
-1855.25
-1889.75
-1928.81
-1974.66
-2022.51
-2078.17
-2135.27
-2199.77
-2268.57
-2342.36
-2420.15
-2502.43
-2590.42
-2683.23
-2779.72
-2880.18
-2985.97
-3095.36
-3207.68
-3323.28
-3437.06
-3558.11
-3673.69
-3792.55
-3890.41
-3975.91
-4043.63
-4095.09
-4160.77
-4200.21
-4256.01
-4187.82
-4081.29
-3813
-3502.1
-3022.1
-2899.84
-9597.61
-58239
-175961
-85922.2
-41914.8
-8189.6
-7833.96
-3031.69
-4749.66
-4019.22
-3145.62
-3057.74
-1514.74
-1543.04
-218.353
-11.7918
1720.52
2644.99
3051.51
4339.69
6070.53
5868.78
6973.68
7718.19
8912.56
9994.8
11081
12108.9
12705.8
13934.9
15200.6
16773
17734.8
17543.5
17017.5
20370
21025
32075.3
45850.7
38937.5
32214.8
29359.2
33057.6
23209.8
24334.9
24028.1
29542.7
28723.8
21785.4
27401.6
6698.6
28463.1
11362.6
19906.9
23921.4
15900.8
9936.06
8625.83
2609.76
5065.17
1578.25
2930.55
-46.4474
1781.79
14.631
-40.4046
467.985
2903.56
-2107.41
-837.05
-1281.73
148.862
-1432.77
949.307
1908.5
-2846.02
-1684.98
-1958.74
-1863.42
-1897.54
-1897.95
-1922.74
-1946.81
-1979.71
-2016.17
-2059.22
-2106.23
-2160.13
-2216.17
-2279.91
-2347.77
-2420.3
-2498.58
-2580.52
-2667.98
-2761.2
-2857.94
-2959.04
-3066.64
-3177.83
-3295.92
-3415.78
-3542.5
-3675.53
-3810.34
-3938.59
-4064.84
-4202.56
-4333.41
-4429.42
-4543.59
-4597.34
-4646.79
-4647.41
-4658.36
-4647.33
-4879
-4885.79
-6871.1
-21235
-113499
-57191.1
-76504.2
-58132.6
-25085.4
-13699.6
-4287.4
-7076.45
-4933.83
-4560.27
-2732.46
-568.923
-440.589
214.031
1263.82
2688.87
3640.25
5061.34
5209.68
6703.47
8316.92
9061.3
9402.98
9108.54
10444.3
12072.6
13114.7
14786.8
14632
14662.7
16311.9
20206.1
20628.5
21491.8
22162.6
29005.2
37765.2
44149
34661.7
29012.8
29125.8
26235
26307.5
33141.7
28751.2
19102.7
31067.9
14417.5
30334.1
20797.2
32134
15548
19701.1
22882.7
11032
13711.8
7314.51
3938.8
4142.51
2451.34
1544.76
1488.68
-434.371
1689.6
216.519
664.156
-1303.29
-3413.58
2183.04
-1569.39
-78.5671
-1574
574.922
1716.28
-2930.58
-1791.23
-2052.85
-1955.55
-1984.69
-1981.53
-2003.68
-2025.3
-2055.76
-2089.68
-2131.12
-2176.59
-2228.19
-2283.74
-2345.54
-2412.36
-2484.49
-2561.58
-2643.54
-2730.43
-2822.96
-2919.59
-3020.99
-3126.71
-3237.74
-3352.82
-3470
-3591.71
-3709.98
-3830.09
-3949.84
-4057.6
-4161.39
-4260.86
-4342.23
-4419.59
-4488.92
-4526.96
-4522.14
-4434.09
-4340.18
-4182.27
-4009.5
-6302.13
-25845
-94315.1
-11071
-29071.6
-78115.3
-56466.1
-27450.5
-10307.8
-14825.9
-8294.3
-8086.46
-2776.03
-4456.23
-62.7085
-1309.45
1889.05
2032.57
4617.73
5912.37
7492.69
8502.86
8412.15
8480.75
9952.66
12719.8
13536.2
12940.9
12109.8
12645.7
16403
20453.1
22577.7
16704.8
16459.5
20379.8
24715.4
37110.1
49073.8
52264.3
34848.7
29351.1
25976
23114.2
28954.6
21332
21605.3
14227.1
28063.6
18711.7
18096
26875.8
12589.3
17931.1
11846.6
15362.3
12135
14884.9
12692.2
7888.53
4059.95
3025.11
608.737
1577
-354.267
478.498
1499.57
-2284.36
-2099.41
2621.72
826.179
-3149.07
429.583
-1523.59
194.909
1535.74
-2998.85
-1882.53
-2132.21
-2033.43
-2058.5
-2052.29
-2071.33
-2090.59
-2118.72
-2151.74
-2190.22
-2234.33
-2284.11
-2338.64
-2399.32
-2465.08
-2536.28
-2612.86
-2694.05
-2779.99
-2871.94
-2969.09
-3070.74
-3177.24
-3288.85
-3406.32
-3527.2
-3652.09
-3776.56
-3905.95
-4039.93
-4181.65
-4316.3
-4425.34
-4536.95
-4632.16
-4711.13
-4765.12
-4816.18
-4835.45
-4903.09
-4801
-5782.27
-9303.59
-51207.2
-82929.8
-6838.54
-7666.77
-31653.4
-68748.8
-60845.5
-33754.2
-16856.1
-5824.21
-3893.52
-761.974
225.024
1553.42
2263.05
3564.86
4224.63
6489.85
6817.27
8904.72
8457.75
8967.03
9816.73
11398.5
11990.3
11780.9
12674.9
14628.2
16340.9
18059.6
18187.9
14812.6
13372
22827.2
33141
38306.7
45104.7
59954.5
36624.1
24907.6
37730.9
33152.9
18697.8
25106.4
18682.1
26640.4
30092.3
23028.8
16534.9
10654
31094.7
8687.23
21411
15926.6
14483.7
23206.2
16923.3
14123.8
7390.17
5371.25
4186.26
3402.41
758.346
1783.44
-1406.76
3312.55
-2756.02
2802.52
-1152.03
-1669.04
193.888
458.873
-2404.07
178.551
1371.69
-3051.95
-1958.85
-2197.64
-2097.38
-2118.68
-2110.01
-2126.59
-2143.58
-2169.49
-2200.69
-2237.23
-2279.79
-2327.84
-2381.8
-2440.19
-2504.93
-2574.99
-2650.89
-2730.48
-2816.84
-2907.03
-3003.91
-3104.1
-3210.8
-3321.54
-3434.9
-3554.64
-3674.45
-3795.72
-3917.67
-4040.26
-4163.22
-4284.14
-4386.35
-4492.43
-4591.87
-4655.67
-4733.76
-4793.49
-4733.91
-4798.5
-4623.57
-6545.07
-16915.7
-101291
-30511.9
-2591.44
-1845.84
-18039.2
-39815.4
-59628.8
-50038.3
-25346.3
-11360.1
-8330.11
-718.046
-2231.76
1379.58
405.542
2944.96
4861.38
6615.18
9226.84
9650.14
9433.76
9287.72
10358.4
11336.7
12077.3
13297.8
14026.6
14733.3
16158.4
17710.8
18839
17664.8
23287.1
26983.5
30368.2
41665.8
71952.6
41592.9
32697.1
40247.1
36151.2
21216.7
21749.7
22128.3
24741.6
14708.9
16152
11071.4
17661.1
9420.29
16371.3
9383.45
10009.8
18752.6
9407.25
16997.4
9732.83
14442.2
8123.02
5165.18
4808.57
5289.69
-726.651
2469.08
-1471.3
2159.78
-1271.23
1570.25
-5171.47
-775.912
123.103
334.052
-988.794
1522.87
1221.03
-3089.34
-2020.47
-2248.78
-2147.78
-2165.85
-2155.1
-2169.37
-2184.31
-2208.6
-2237.69
-2272.91
-2313.57
-2360.78
-2413.18
-2470.62
-2533.77
-2602.97
-2677.51
-2756.21
-2842.14
-2931.18
-3027.32
-3127.22
-3234.02
-3344.74
-3460.6
-3580.29
-3704.56
-3832.81
-3965.8
-4093.08
-4224.44
-4357.57
-4482.56
-4606.09
-4723.04
-4832.59
-4867.84
-4915.72
-4953.53
-4886.92
-5098.2
-7641.28
-28426.6
-88411.4
-6653.55
-2567.28
-2085.26
-1946.96
-14551.4
-34774.4
-54620.5
-45097.1
-29555.8
-12362.7
-8689.29
-2751.46
-4440.89
1632.57
1707.04
4901.33
6870.82
8717.73
10261
9794.42
10086.9
10981.6
11525.2
12877.9
13886.7
14591.1
15104.4
15731.8
17093.9
19530.4
21688.8
20273.8
24082.9
42220.9
73468.1
48099
45282.7
48272.1
37348.4
24986.1
26103.2
27935.5
28270.1
24350.9
9577.6
12225.8
14347.3
16915.8
23532
7310.54
17065.6
10046.6
14718
10981
13082.4
10213.3
10664.6
10355.9
8977.98
4076.84
3700.11
1477.22
325.688
140.424
-953.897
1725.24
208.408
-1562.15
2885.29
-3954.61
-1507.33
-2153.13
-133.724
1086.9
-3111.76
-2067.34
-2286.34
-2185.01
-2200.16
-2187.86
-2200.06
-2213.44
-2235.57
-2263.58
-2297.26
-2336.32
-2382.42
-2433.19
-2489.47
-2551.5
-2619.41
-2692.29
-2770.19
-2854.39
-2943.46
-3037.55
-3137.54
-3241.58
-3352.16
-3466.44
-3581.45
-3702.76
-3825.71
-3949.31
-4072.63
-4197.24
-4318.31
-4440.98
-4550.87
-4661.28
-4723.51
-4796.37
-4771.16
-4772.84
-4847.13
-5373.2
-8095.18
-43708.7
-84246
-9388.78
135.145
1483.86
-618.767
-917.571
-10552.7
-28532.3
-61658.8
-42588.9
-31705.4
-7849.65
-12933.6
-343.394
-1563.42
4053.69
5116.14
7968.16
8916.01
9791.88
10901.4
11350.7
12065
12801.5
13675.4
14464.3
15327
15803.4
16583.6
18241.3
19881.8
22474
26792.5
43989.8
72898.1
73517.6
46461.8
42969.1
32502.5
18905
16978.8
23787
18308.3
16393
12862.4
19046.8
13888.7
14823.6
5682.84
12352.5
6516.81
13638.2
9558.36
7041.2
11410.2
7047.22
11499.3
12990.1
11851.1
8829.51
3074.6
4415.08
1837.51
-1244.02
3908.53
-2233.8
5634.18
-3436.56
1200.77
-1701.07
-2320.25
1102.07
-2494.68
-1017.38
966.761
-3118.95
-2100.1
-2310.24
-2209.29
-2222.25
-2208.83
-2219.69
-2231.06
-2251.97
-2278.71
-2311.21
-2348.88
-2393.61
-2443.27
-2498.34
-2558.75
-2625.89
-2696.85
-2774.52
-2856.72
-2945.5
-3037.82
-3137.54
-3240.77
-3349.88
-3466.07
-3582.43
-3701.05
-3829.49
-3958.7
-4092.5
-4222.41
-4360.58
-4490.68
-4630.69
-4720.13
-4806.61
-5027.45
-5174.66
-5486.83
-5478.57
-7874.37
-14207.9
-104177
-34617.4
-3938.56
378.611
2868.77
1685.11
-3967.46
-9087.42
-11086.2
-23667.2
-52792.8
-41780
-26883.4
-16130.3
-2755.28
1957.37
7004.41
8736.34
9213.55
8809.7
10157.3
11619.3
11805
11992.9
13013.7
13838.9
15022.7
15130.3
15676.4
17121.1
19638
20472.8
28035.3
45326.9
75175.8
80343.4
56045.5
52451
36342.8
27091.7
24188.7
21718.5
25334.6
20264.1
10281.2
12875.5
11606.3
14192.6
11884.3
9723.83
4816.74
13230.3
7734.46
13034
6780.42
11358.5
8088.14
11401.6
10771
10328.1
8766.55
5147.22
2477.64
4041.83
1893.75
1172.73
982.405
-736.192
-1444.05
1245.79
-1352.83
-1299.97
-1162.77
-3150.55
1750.74
864.171
-3112.58
-2118.95
-2321.38
-2221.28
-2232.55
-2218.08
-2227.73
-2237.88
-2257.77
-2282.64
-2314.89
-2350.89
-2394.53
-2442.93
-2496.75
-2555.04
-2621.61
-2691.19
-2768.01
-2848
-2935.79
-3027.54
-3124.9
-3227.39
-3334.72
-3448.24
-3565.48
-3680.39
-3803.12
-3930.51
-4055.77
-4182.08
-4307.76
-4440.19
-4554.53
-4662.31
-4749.56
-4784.22
-4815.04
-4776.8
-4714.68
-6169.28
-23355.9
-87904.1
-5934.99
-2977.05
-2551.9
-4188.58
-5162.92
-5126.19
-6417.95
-13509
-18443
-30142
-53543.9
-53775.1
-23433.6
-8865.19
1586.02
8430.81
9370.75
10165.7
10226.3
10796.3
12440.4
12929.7
12748.6
13489.4
14780.9
17662.3
16447.9
20855.8
24951.1
29952.4
38095.7
59175.9
89501.6
81515.3
47766.5
36237.9
23991.1
23076.4
25492.7
19862.8
16371.9
11951.6
10091.2
13384.7
9009.32
6010.03
4420.1
4514.97
10413.8
2178.58
6911.94
3391.12
6723.22
6622.22
8070.2
6146.95
7980.81
8821.04
8895.16
7812.21
6611.15
1508.66
3849.97
3447.12
-2292.3
3600.29
-6403.14
4816.52
-3995.45
413.364
-610.283
249.04
-2109.34
-960.729
774.265
-3091.37
-2124.37
-2319.76
-2221.19
-2231.43
-2216.25
-2224.9
-2234.68
-2253.16
-2277.92
-2308.37
-2344.18
-2385.4
-2433.57
-2485.91
-2543.22
-2607.35
-2677.63
-2751.52
-2830.23
-2916.48
-3009.15
-3103.5
-3203.84
-3312.85
-3423.7
-3540.11
-3661.6
-3782.78
-3912.62
-4039.22
-4176.17
-4315.08
-4439.19
-4560.49
-4662.76
-4781.63
-4828.93
-4941.8
-4731.22
-4989.54
-6600.63
-32360.5
-91439.8
-6981.36
2119.6
1776.06
-2112.42
-4937.67
-2013.53
183.019
3360.43
-7627.73
-27652.3
-36974.5
-44567.8
-35428
-12062.1
-114.452
6466.26
9660.26
7017.27
10262.1
13302
14785
14372.7
14071.1
18734.1
22878
26617.2
33410.9
49340.3
59377.2
66654.1
83981.3
90031
66673.3
34228.3
12936.3
14245.5
7107.97
7364.09
11536.9
12699.3
13293.6
5264.16
5972.65
6087.33
7802
9634.7
4286.4
3977.9
5459.03
6612.5
2457.64
8115.67
3913.8
7935.04
5316.6
7191.45
6371.75
7281.66
8888.13
8540.54
7972.91
5687.62
2784.78
4514.53
-1611.16
1143.05
-4937.55
5087.1
-3523.51
1782.76
-1555.26
-1988.51
-1832.14
61.5241
701.836
-3058.27
-2116.95
-2306.26
-2209.66
-2219.28
-2203.95
-2211.91
-2221.44
-2238.67
-2262.81
-2292.62
-2327.65
-2366.65
-2414.87
-2465.7
-2521.39
-2584.54
-2652.85
-2725.54
-2803.1
-2887.09
-2978.09
-3072.52
-3169.67
-3277.71
-3387.83
-3500.82
-3622.27
-3740.11
-3865.17
-3992.41
-4119.53
-4254.27
-4394.66
-4541.06
-4640.22
-4726.64
-4969.75
-5227.06
-5342.26
-6748.85
-11261.4
-77591.9
-51989.2
-2267.26
3049.81
5278.76
3679.24
534.308
-1386.77
-5220.49
-1243.25
148.483
-6952.23
-18108.6
-38091.9
-48684.8
-29541.9
-2257.15
14316.4
13797.3
13985.8
15526.5
21492.1
33258.3
38656
47454.5
58051.1
62278.6
68879.2
86413.2
90077.5
80416.1
68665.7
49996.5
27159.1
9856.69
2360.1
-7973.42
-9753.81
-10043
-4644.26
-4266.06
1369.85
3359.29
4695.61
3447.41
486.159
1571.58
2597.37
4929.51
5014.4
962.951
3170.53
1201.86
4848.12
770.436
3731.67
3560.27
5916.36
5005.81
7135.98
8315.88
8407.55
6168.44
5813.14
1304.05
3152.69
1487.27
-1057.65
7337.45
-4726.39
2540.11
278.118
-3619.15
-504.8
-3400.02
-1769.38
641.08
-3011.26
-2097.26
-2281.19
-2187.22
-2196.48
-2181.53
-2189.8
-2197.83
-2216.14
-2238.37
-2268.28
-2301.64
-2341.19
-2386.59
-2437.48
-2492.16
-2552.57
-2619.79
-2692.11
-2767.74
-2850.38
-2937.54
-3033.42
-3130.31
-3231.53
-3343.2
-3457.61
-3576.16
-3697.05
-3820.49
-3945.8
-4080.42
-4210.81
-4339.96
-4446.03
-4542.03
-4601.61
-4629.16
-4701.22
-4523.36
-6493.53
-16398.8
-81160.9
-15133.1
-197.342
-1099.45
-3219.92
-2588.12
-221.608
4309.7
7938.53
-5723.53
-15223.5
-15695.7
-1291.84
3804.43
-37465
-34022.9
14711.5
23424.7
41367.6
59144.9
56894.8
68047.7
88443.8
94112.1
95104.8
80986
69268.6
61397
43923.9
32989.3
28397.4
21424.7
11166.9
5066.38
-4170.42
-9502.57
-14023.5
-18614.5
-22834.7
-18674.5
-14990.3
-9947.66
-5596.62
-1961.53
-305.693
543.403
65.4014
-579.116
642.307
3065.44
3304.3
974.681
1685.22
894.999
2667.01
2083.86
3380.66
3668.51
4559.65
5771.13
6950.88
7733.11
7277.82
5589.71
3500.12
1484.67
3948.49
-80.3759
2596.65
-4049.81
4138.44
-3405.95
1222.29
236.713
-3153.84
520.825
597.002
-2954.08
-2066.02
-2245.39
-2154.43
-2164.03
-2149.56
-2158.07
-2165.64
-2184.51
-2205.31
-2234.96
-2267.51
-2306.27
-2350.29
-2400.12
-2454.39
-2511.58
-2578.39
-2649.42
-2723.17
-2803.14
-2889.97
-2982.67
-3079.39
-3177.29
-3287.59
-3402.58
-3518.32
-3640.93
-3759.48
-3883.59
-4028.89
-4153.95
-4287.49
-4413.75
-4555.52
-4637.63
-4730.16
-4651.62
-4878.49
-6951.49
-23165.8
-77973
-16106
4293.01
1535.18
-973.284
-905.085
674.604
5907.5
5247.87
-558.536
-4230.04
2488.62
11549.6
10345.7
-3409.64
21469.9
65056.5
85405.7
107632
104785
91800.6
82037.6
59629.3
46412.8
42038.9
43654.3
36273.3
29861
20378.9
16035.2
11948.1
7899.44
2798.55
-1575.96
-6237.51
-10151.9
-13295.7
-16372
-20603.4
-22716.5
-17603
-10201.4
-5615.78
-3570.32
-2879.75
-2402.81
-1595.07
-1352.79
-2020.24
-806.978
336.572
298.476
1686.21
-1002.3
497.053
499.505
1981.84
1949.59
3673.26
4215.84
5672.52
6837.79
6287.56
4071.75
5429.18
2598.4
1350.03
1649.87
-1469.81
6800.66
-4895.55
-1569.5
1663.6
-2262.39
-2027.46
-1025.15
563.248
-2884.46
-2023.98
-2199.38
-2111.94
-2122.17
-2108.54
-2117.23
-2125.78
-2143.88
-2165.3
-2193.31
-2226.23
-2264.2
-2306.43
-2355.88
-2408.03
-2465.45
-2529
-2598.43
-2672.5
-2748.76
-2835.04
-2923.95
-3020.52
-3118.82
-3222.19
-3336.69
-3451.19
-3571
-3691.06
-3818.24
-3950.85
-4068.04
-4179.91
-4269.44
-4408.31
-4593.15
-4749.36
-4732.55
-5802.54
-8213.25
-50585.4
-63310.7
-8130.67
6343.43
5229.37
2263.34
3926.67
5967.96
7220.89
4507.89
497.64
4274.08
15028.6
27684.8
27332.1
57142.5
156915
129135
79723.3
63783.9
52772.4
52892
44406
35851.5
31752.7
27131.7
25277.4
23676.8
20104.4
12793.6
9552.21
6716.67
4177.39
1765.63
-366.043
-3263.53
-6522.33
-10022.8
-12659.8
-15684.3
-19429.8
-22612.6
-22357.7
-18363.3
-11653.3
-6984.44
-5453.23
-4468.97
-3828.64
-2791.27
-2664.41
-2559.47
-1776.63
-414.814
16.6736
-1083.69
355.211
172.901
1445.83
2520.27
3327.83
5169.87
6227.9
6918.83
5973.24
3718.71
3486.59
993.837
2593.88
-308.527
3972.86
-8681.16
7726.39
-1224.09
-2500.16
-948.646
-1261.01
544.632
-2806.39
-1971.97
-2144.05
-2060.35
-2071.7
-2059.17
-2068.29
-2077.65
-2095.44
-2117.18
-2143.84
-2177.2
-2214.43
-2254.32
-2303.29
-2354.7
-2410.78
-2471.56
-2539.75
-2612.39
-2687.29
-2769.91
-2857.74
-2953.17
-3049.75
-3149.52
-3262.3
-3379.43
-3495.04
-3617.53
-3745.44
-3858.05
-4009.17
-4151.25
-4295.57
-4403.26
-4512.11
-4712.51
-4997.93
-6717.36
-13511.1
-74384.9
-24500.1
-7362.06
1636.39
1770.16
1352.83
5001.86
11089.3
6055.65
5306.99
-664.992
14950.2
42669.8
69537.6
92689.9
187527
137031
61686.6
46048.6
36986.6
30524
28095.6
23648.5
20962.9
20194.6
19891.5
18833.8
18497.6
16731
13276.4
9997.03
7610.13
5637.35
3040.15
977.216
-368.771
-2217.85
-5481.46
-8251.77
-11383.4
-14804.9
-18803.4
-21848.3
-17557.8
-11231
-6666.64
-4119.12
-3057.41
-3135.33
-2685.86
-2456.89
-2704.28
-2967.46
-2558.21
-1453.67
-815.653
-54.5617
-598.584
917.841
1507.8
2306.09
3633
5119.77
5909.77
5355.72
2796.47
3971.68
2105.86
1169.16
2840.2
-2194.11
8142.7
609.499
-4013.58
526.573
-1585.16
-1347.36
535.121
-2717.88
-1910.73
-2079.96
-2000.37
-2013.03
-2002.19
-2011.9
-2022.03
-2040.74
-2061.67
-2088.11
-2121.12
-2157.55
-2197.69
-2243.33
-2294.89
-2350.1
-2408.45
-2474.28
-2545.78
-2620.22
-2698.37
-2785.3
-2877.77
-2972.47
-3070.59
-3178.72
-3295.01
-3406.42
-3525.76
-3642.57
-3762.28
-3881.26
-3991.34
-4079.59
-4219.25
-4227.76
-4268.84
-4140.1
-5736.03
-16160.9
-65590.9
-10859.5
-6143.87
89.0742
-1758.52
-1710.4
3051.05
11213.8
8630.29
6334.56
2575.15
29278.4
74354.9
121198
182319
124771
68300.8
45071.6
33457.4
23247.6
18532.6
17692.8
16053.6
14788.5
12920
14214.6
14116.4
14907.6
14187.1
14284.3
12952.7
9813.15
8047.36
5945.34
3246.81
1067.72
-479.78
-1955.63
-3873.69
-6891.3
-9702.99
-13244.6
-16748.3
-20717.1
-18632.9
-14158.2
-10785
-7830.67
-5742.92
-5003.24
-4343.14
-4024.79
-3531.07
-3551.4
-3236.93
-1413.24
-1089.29
-403.421
-294.313
782.987
1577.38
2371.49
3495
5241.2
4817.6
4300.83
3628.71
2825.45
376.216
2236.57
-430.563
4107.52
-6534.67
3701.79
279.453
-3070.89
-1135.72
538.258
-2622.37
-1841.18
-2008.14
-1932.67
-1946.83
-1937.76
-1948.6
-1959.2
-1978.48
-1999.78
-2026.16
-2057.37
-2094.41
-2133.99
-2176.08
-2228.35
-2282.06
-2338.09
-2401.45
-2471.94
-2544.22
-2619.97
-2704.93
-2794.34
-2887.53
-2986.63
-3087.31
-3201.16
-3313.64
-3427.92
-3551.44
-3677.24
-3795.16
-3931.24
-4086.48
-4176.91
-4374.79
-4442.37
-5246.08
-6642.05
-31316.3
-75307.8
-10097.7
1244.1
8301.74
4670.51
-927.58
6737.79
13591
18923.4
15639.4
20004.8
71385.6
152087
164972
106405
71380
35739.5
26797.8
20055.2
16531.1
14299.4
14356
13655.3
11725.2
11274.7
11257.8
10665.4
10910.6
11046.3
13020.4
14176.4
14904.7
11964.8
9150.36
5973.57
3040.75
1144.23
-353.13
-1333.96
-3040.73
-5741.83
-8979.85
-12366.8
-16600.7
-19971.4
-15175.3
-10317.5
-7132.65
-5568.14
-4519.19
-4005.14
-3968.68
-3390.7
-3312.54
-3471.63
-3380.81
-2845.06
-1976.98
-1158.05
-315.617
787.379
1785.32
3033.36
5220.18
5138.76
4873.57
2213.7
2587.42
3893.6
612.379
4149.01
-2597.94
2339.68
223.409
-882.4
-774.802
-608.995
549.309
-2518.77
-1764.13
-1929.13
-1858.04
-1873.97
-1867.05
-1878.77
-1890.88
-1909.69
-1930.89
-1958.98
-1988.44
-2025.22
-2063.73
-2106.4
-2154.78
-2207.97
-2264.2
-2324.33
-2390.97
-2463.2
-2537.61
-2618.52
-2704.45
-2796.78
-2893.72
-2992.07
-3099.81
-3216.16
-3316.11
-3436.32
-3563.86
-3672.32
-3831.54
-3903.77
-4073.14
-4307.57
-4400.04
-5510.05
-9993.86
-68435.2
-35616.9
-6829.72
1725.34
8769.51
6038.14
1384.81
3822.74
18099.5
32500
37045.6
62456.1
161028
165574
92695.3
63020.7
36559.9
22516
16059.4
13403.7
12995.9
12261.2
12289.5
12678.9
12464.7
11578.4
10481.2
9874.52
9432.77
9507.33
10363.1
10928.8
12620.6
12968.9
11125.5
7371.62
5477.88
3473.77
1672.08
-179.056
-1490.28
-2824.74
-5404.04
-8257.44
-11889.6
-15658.3
-18819.6
-14853
-11901.6
-9430.39
-7859.06
-6702.77
-5720.74
-4780.23
-4453.23
-4155.74
-3898.3
-3423.45
-2760.21
-1918.48
-1101.93
251.802
1270.81
2333.94
4166.17
4842.81
3724.29
4283.5
2535.86
1334.7
2380.83
626.286
3202.18
398.564