/*--------------------------------*- C++ -*----------------------------------*\
| =========                 |                                                 |
| \\      /  F ield         | OpenFOAM: The Open Source CFD Toolbox           |
|  \\    /   O peration     | Version:  2.2.x                                 |
|   \\  /    A nd           | Web:      www.OpenFOAM.org                      |
|    \\/     M anipulation  |                                                 |
\*---------------------------------------------------------------------------*/
FoamFile
{
    version     2.0;
    format      ascii;
    class       volScalarField;
    location    "0.45";
    object      Bx;
}
// * * * * * * * * * * * * * * * * * * * * * * * * * * * * * * * * * * * * * //

dimensions      [1 0 -2 0 0 -1 0];

internalField   nonuniform List<scalar> 
14161
(
1
1
1
1
1.00001
1.00001
1.00001
1.00002
1.00004
1.00005
1.00008
1.00012
1.00017
1.00024
1.00034
1.00048
1.00065
1.00087
1.00115
1.0015
1.00192
1.00243
1.00302
1.00371
1.0045
1.00538
1.00638
1.00743
1.00858
1.00983
1.01109
1.01244
1.01381
1.01517
1.01659
1.018
1.01933
1.02069
1.02195
1.02314
1.02436
1.02547
1.02649
1.02741
1.02827
1.02896
1.02963
1.03022
1.03064
1.03105
1.03125
1.03111
1.03011
1.02894
1.02612
1.02336
1.00159
0.954157
0.641436
0.559121
0.613984
0.755372
0.873307
0.970779
1.03862
1.0911
1.13508
1.16516
1.18802
1.20372
1.21557
1.22549
1.23459
1.2424
1.25174
1.26473
1.2767
1.28581
1.28458
1.25824
1.20614
1.13801
1.07635
1.02808
0.995793
0.966932
0.930838
0.892912
0.853854
0.818207
0.784999
0.753198
0.723066
0.694487
0.666576
0.640794
0.616941
0.595068
0.574319
0.553916
0.531605
0.50789
0.482303
0.457396
0.432259
0.406502
0.378866
0.351359
0.319537
0.292558
0.255114
0.230106
0.18789
0.16865
0.119933
0.111575
0.0568973
0.0621776
0.00907117
1
1
1
1
1.00001
1.00001
1.00001
1.00002
1.00004
1.00005
1.00008
1.00012
1.00017
1.00024
1.00034
1.00048
1.00065
1.00087
1.00115
1.0015
1.00192
1.00243
1.00302
1.00372
1.0045
1.0054
1.00637
1.00744
1.00861
1.00982
1.01113
1.01244
1.01382
1.01523
1.01661
1.01801
1.0194
1.02071
1.02203
1.02323
1.02436
1.02549
1.02652
1.0274
1.02819
1.02906
1.02987
1.03055
1.03109
1.03144
1.03159
1.03191
1.0327
1.03324
1.03145
1.03223
1.00478
1.05477
0.836337
0.768949
0.846352
0.922124
0.973369
1.02229
1.06654
1.10354
1.12999
1.15193
1.16889
1.18252
1.19379
1.20253
1.20932
1.21464
1.21707
1.21791
1.21582
1.21497
1.20616
1.20128
1.17335
1.15074
1.1053
1.07023
1.03078
0.998442
0.962183
0.919877
0.875882
0.828506
0.784815
0.744818
0.707135
0.673037
0.642807
0.615629
0.591682
0.570795
0.551779
0.532774
0.511841
0.489259
0.466286
0.44484
0.423249
0.400226
0.375696
0.350948
0.321429
0.295932
0.262222
0.239563
0.202979
0.184782
0.143393
0.131285
0.0800291
0.0708665
0.0132975
1
1
1
1
1.00001
1.00001
1.00001
1.00002
1.00004
1.00005
1.00008
1.00012
1.00017
1.00025
1.00034
1.00048
1.00065
1.00087
1.00115
1.0015
1.00192
1.00243
1.00303
1.00372
1.00451
1.0054
1.00637
1.00745
1.00861
1.00983
1.01113
1.01244
1.01381
1.01522
1.01664
1.01806
1.01943
1.02074
1.02204
1.02331
1.02446
1.02555
1.02654
1.0275
1.02838
1.02914
1.02987
1.03066
1.03142
1.03211
1.03291
1.03365
1.03457
1.03571
1.03827
1.04306
1.0491
1.11356
1.09319
1.13635
1.11069
1.12421
1.13175
1.15923
1.18172
1.21114
1.21881
1.24102
1.24256
1.25146
1.25749
1.26254
1.26741
1.27078
1.27376
1.27617
1.27617
1.27667
1.26636
1.26623
1.25195
1.22782
1.19557
1.15166
1.09676
1.04187
0.983469
0.926208
0.874125
0.828716
0.787542
0.749326
0.711612
0.674978
0.638876
0.605308
0.575443
0.549072
0.524657
0.501539
0.477975
0.453568
0.431795
0.412597
0.3943
0.375016
0.355273
0.335179
0.311886
0.289568
0.258508
0.236706
0.202766
0.184301
0.146965
0.130996
0.0823197
0.0706267
0.0140997
1
1
1
1
1.00001
1.00001
1.00001
1.00002
1.00004
1.00005
1.00008
1.00012
1.00017
1.00025
1.00035
1.00048
1.00065
1.00087
1.00115
1.0015
1.00193
1.00243
1.00303
1.00372
1.00452
1.0054
1.00639
1.00747
1.00862
1.00986
1.01114
1.0125
1.01389
1.0153
1.01669
1.01811
1.01951
1.02089
1.02216
1.02348
1.02468
1.02571
1.02678
1.0278
1.02869
1.02953
1.03035
1.0311
1.03192
1.03296
1.0341
1.03548
1.03841
1.04221
1.04712
1.0544
1.07026
1.08544
1.25425
1.26194
1.27194
1.26555
1.26303
1.26891
1.27162
1.28335
1.27627
1.29081
1.28448
1.29169
1.29
1.29428
1.29464
1.29673
1.29784
1.29949
1.3003
1.29881
1.30177
1.28856
1.30273
1.28959
1.25864
1.22078
1.15704
1.09668
1.03167
0.97135
0.916766
0.867984
0.820047
0.774851
0.730388
0.684976
0.640563
0.597856
0.560099
0.527448
0.497618
0.470154
0.442707
0.415716
0.395043
0.377502
0.360567
0.343901
0.328248
0.311816
0.292688
0.274216
0.247735
0.226972
0.191856
0.173059
0.135548
0.12087
0.0768583
0.0692674
0.0159926
1
1
1
1
1.00001
1.00001
1.00001
1.00002
1.00004
1.00005
1.00008
1.00012
1.00017
1.00025
1.00035
1.00048
1.00065
1.00088
1.00116
1.0015
1.00193
1.00244
1.00304
1.00373
1.00452
1.00542
1.0064
1.00748
1.00864
1.00987
1.01118
1.01252
1.01392
1.01535
1.01676
1.01816
1.01957
1.02098
1.02233
1.0236
1.02476
1.02587
1.02692
1.0279
1.0288
1.02974
1.03072
1.03172
1.03281
1.03412
1.0355
1.03671
1.03811
1.04044
1.04469
1.04796
1.0573
1.06243
1.18846
1.21619
1.28878
1.27339
1.27728
1.27608
1.28498
1.28114
1.29787
1.29301
1.30379
1.30307
1.30705
1.30961
1.31128
1.31395
1.3161
1.31873
1.31951
1.32302
1.31688
1.32895
1.3062
1.31471
1.2685
1.21555
1.1311
1.05402
0.986528
0.931435
0.882982
0.838496
0.793877
0.750611
0.709143
0.669343
0.630725
0.593674
0.557221
0.521925
0.487253
0.457594
0.428875
0.401244
0.381021
0.361604
0.34197
0.322437
0.303344
0.28582
0.268151
0.252229
0.229685
0.211991
0.181462
0.163928
0.127841
0.114575
0.0745145
0.0676506
0.0181288
1
1
1
1
1.00001
1.00001
1.00001
1.00002
1.00004
1.00005
1.00008
1.00012
1.00017
1.00025
1.00035
1.00048
1.00065
1.00088
1.00116
1.00151
1.00193
1.00244
1.00304
1.00374
1.00454
1.00543
1.00642
1.00751
1.00868
1.00991
1.01123
1.0126
1.014
1.01539
1.01684
1.0183
1.01972
1.02111
1.02248
1.02374
1.02503
1.02627
1.02729
1.0283
1.0293
1.03027
1.03126
1.03235
1.03348
1.0346
1.03583
1.03718
1.03877
1.04012
1.0417
1.04058
1.04203
1.02196
1.0752
1.10315
1.20124
1.21709
1.24066
1.25509
1.27074
1.26787
1.28789
1.28195
1.29424
1.29267
1.29772
1.29727
1.30051
1.30292
1.30627
1.30988
1.31117
1.31561
1.30826
1.31648
1.27514
1.2566
1.171
1.09582
1.00983
0.93658
0.879203
0.836482
0.798638
0.764821
0.731319
0.698056
0.664481
0.630407
0.596483
0.563036
0.528927
0.496874
0.466595
0.441274
0.4163
0.391237
0.369617
0.348081
0.326711
0.306308
0.285074
0.26744
0.251327
0.238319
0.219391
0.20466
0.177288
0.160983
0.125523
0.11256
0.0740964
0.0679583
0.020966
1
1
1
1
1.00001
1.00001
1.00001
1.00002
1.00004
1.00005
1.00008
1.00012
1.00017
1.00025
1.00035
1.00048
1.00066
1.00088
1.00116
1.00151
1.00194
1.00245
1.00305
1.00375
1.00455
1.00545
1.00646
1.00754
1.00872
1.00997
1.01129
1.01268
1.0141
1.01556
1.01702
1.01843
1.01991
1.02135
1.02273
1.02401
1.02528
1.02647
1.02759
1.02866
1.02967
1.03073
1.03179
1.03285
1.03397
1.03509
1.03638
1.03753
1.03826
1.03809
1.03712
1.03325
1.03123
1.00973
1.03817
1.06805
1.16322
1.19436
1.23673
1.26059
1.28337
1.28414
1.30975
1.30108
1.31562
1.31242
1.31752
1.3178
1.32032
1.32203
1.32377
1.32572
1.32048
1.32067
1.29881
1.26501
1.1807
1.09915
1.00174
0.940506
0.884792
0.847815
0.810913
0.779644
0.748266
0.715428
0.689539
0.664194
0.638821
0.614715
0.588801
0.562527
0.533418
0.505375
0.475718
0.449025
0.422213
0.396937
0.373416
0.349549
0.327006
0.306055
0.28478
0.265585
0.246462
0.23184
0.213681
0.198949
0.173361
0.158073
0.124841
0.112065
0.0752079
0.0693192
0.0255694
1
1
1
1
1.00001
1.00001
1.00001
1.00002
1.00004
1.00005
1.00008
1.00012
1.00017
1.00025
1.00035
1.00048
1.00066
1.00088
1.00117
1.00152
1.00195
1.00246
1.00307
1.00377
1.00458
1.00548
1.00648
1.00758
1.00877
1.01004
1.01138
1.01278
1.0142
1.01566
1.01717
1.01865
1.02008
1.02153
1.02296
1.02434
1.02559
1.02682
1.02814
1.02936
1.03048
1.03159
1.03274
1.03392
1.03522
1.03644
1.03748
1.03805
1.03865
1.03877
1.03896
1.03882
1.04615
1.04115
1.10349
1.11926
1.21168
1.22345
1.28595
1.29564
1.31783
1.3196
1.33683
1.32771
1.33965
1.33476
1.33837
1.33737
1.33676
1.33521
1.33024
1.32395
1.29492
1.25152
1.15197
1.04792
0.917611
0.837346
0.789967
0.75772
0.738405
0.725437
0.708475
0.696475
0.67361
0.652352
0.635727
0.614193
0.593899
0.575907
0.55514
0.536418
0.5133
0.491186
0.464806
0.439228
0.412079
0.388495
0.366175
0.340798
0.315592
0.293111
0.270822
0.25197
0.232552
0.218406
0.202474
0.19058
0.1697
0.156434
0.126461
0.114539
0.0782261
0.072164
0.0313247
1
1
1
1
1.00001
1.00001
1.00001
1.00002
1.00004
1.00005
1.00008
1.00012
1.00017
1.00025
1.00035
1.00048
1.00066
1.00088
1.00117
1.00152
1.00195
1.00247
1.00308
1.00378
1.0046
1.00551
1.00652
1.00764
1.00884
1.01013
1.01148
1.01289
1.01436
1.01585
1.01734
1.01891
1.02043
1.02186
1.02333
1.02478
1.02615
1.02743
1.02868
1.02985
1.03094
1.03201
1.0331
1.03421
1.03546
1.03666
1.03786
1.03883
1.03967
1.04019
1.04057
1.03954
1.03911
1.02674
1.06665
1.10275
1.18616
1.20335
1.28767
1.29326
1.33608
1.33541
1.33722
1.35273
1.34506
1.35159
1.34807
1.34864
1.33871
1.32936
1.28152
1.22917
1.11015
0.983534
0.836591
0.756698
0.709445
0.693365
0.680259
0.673732
0.673095
0.66548
0.657395
0.645345
0.626474
0.614969
0.598051
0.576945
0.561451
0.544094
0.526262
0.507516
0.487965
0.467557
0.446235
0.422829
0.396973
0.376442
0.35502
0.332008
0.308901
0.288962
0.268994
0.251006
0.23098
0.215217
0.199938
0.188962
0.170782
0.158826
0.131669
0.119103
0.0825064
0.0749764
0.0367556
1
1
1
1
1.00001
1.00001
1.00001
1.00002
1.00004
1.00005
1.00008
1.00012
1.00017
1.00025
1.00035
1.00049
1.00066
1.00089
1.00117
1.00153
1.00196
1.00248
1.00309
1.00381
1.00462
1.00555
1.00657
1.0077
1.00891
1.01021
1.0116
1.01302
1.01452
1.01607
1.01761
1.01916
1.02073
1.02226
1.02374
1.02524
1.02671
1.02811
1.02941
1.03071
1.0319
1.03311
1.03436
1.03561
1.03693
1.03827
1.0395
1.04053
1.04133
1.04199
1.04235
1.04323
1.04228
1.0614
1.08341
1.1171
1.16574
1.19918
1.2883
1.27518
1.3334
1.31384
1.34712
1.33443
1.34168
1.33927
1.32205
1.30034
1.23388
1.16283
1.04561
0.90092
0.787709
0.709244
0.658441
0.631369
0.613203
0.610626
0.612325
0.616215
0.619379
0.619165
0.615451
0.607249
0.596693
0.585506
0.568264
0.552649
0.53764
0.521319
0.50365
0.485035
0.466645
0.44978
0.432003
0.41221
0.39071
0.37462
0.353353
0.330772
0.3071
0.287498
0.267432
0.250026
0.231054
0.214734
0.199098
0.188158
0.172528
0.159785
0.135127
0.122707
0.0872432
0.0787569
0.0429555
1
1
1
1
1.00001
1.00001
1.00001
1.00002
1.00004
1.00005
1.00008
1.00012
1.00017
1.00025
1.00035
1.00049
1.00066
1.00089
1.00118
1.00154
1.00197
1.00249
1.00311
1.00383
1.00465
1.00559
1.00662
1.00776
1.009
1.01032
1.01172
1.01322
1.01472
1.01629
1.0179
1.01948
1.0211
1.02272
1.0243
1.02581
1.02732
1.02875
1.03013
1.03143
1.0327
1.03406
1.03545
1.03677
1.03805
1.03934
1.04053
1.0418
1.043
1.04447
1.04568
1.05081
1.04089
1.12508
1.08364
1.11132
1.13934
1.20789
1.21813
1.29844
1.29489
1.33186
1.30979
1.31517
1.28125
1.26268
1.16995
1.08879
0.948206
0.831557
0.740268
0.684401
0.636381
0.615446
0.591427
0.583247
0.574097
0.573494
0.577671
0.579915
0.584279
0.579968
0.579329
0.572649
0.564965
0.553663
0.543942
0.530547
0.51632
0.503156
0.486979
0.471565
0.454749
0.437436
0.420118
0.399751
0.379074
0.363764
0.340631
0.319063
0.296808
0.278744
0.260078
0.24374
0.226161
0.210007
0.193504
0.18171
0.168096
0.156221
0.135264
0.124433
0.0926919
0.0835818
0.0493201
1
1
1
1
1.00001
1.00001
1.00001
1.00002
1.00004
1.00005
1.00008
1.00012
1.00018
1.00025
1.00035
1.00049
1.00067
1.0009
1.00118
1.00154
1.00198
1.00251
1.00313
1.00386
1.00469
1.00563
1.00669
1.00784
1.0091
1.01045
1.01187
1.01339
1.01494
1.01655
1.01821
1.01986
1.02152
1.02319
1.02482
1.02643
1.02802
1.02962
1.03113
1.03255
1.03391
1.0354
1.03695
1.03849
1.03987
1.04138
1.04294
1.04455
1.0463
1.0485
1.04989
1.05582
1.04048
1.12603
1.05848
1.084
1.10814
1.14453
1.18887
1.28374
1.26484
1.31345
1.24678
1.22635
1.10066
1.00513
0.88579
0.793745
0.735389
0.680725
0.644557
0.614102
0.596379
0.584068
0.573376
0.567985
0.565113
0.5646
0.564694
0.564309
0.56444
0.559292
0.558
0.548845
0.541155
0.531969
0.523564
0.509046
0.496285
0.483773
0.470169
0.457244
0.441736
0.42529
0.407273
0.385704
0.365681
0.350035
0.327471
0.308849
0.288672
0.272583
0.254198
0.238461
0.221589
0.206007
0.189703
0.177475
0.166368
0.15539
0.137492
0.127382
0.099142
0.0897572
0.0571209
1
1
1
1
1.00001
1.00001
1.00002
1.00002
1.00004
1.00005
1.00008
1.00012
1.00018
1.00025
1.00035
1.00049
1.00067
1.0009
1.00119
1.00155
1.00199
1.00253
1.00316
1.00389
1.00473
1.00569
1.00675
1.00793
1.0092
1.01058
1.01205
1.01357
1.01519
1.01685
1.01854
1.02028
1.02202
1.02376
1.02549
1.02721
1.02885
1.03047
1.03208
1.03366
1.03514
1.03665
1.03825
1.03992
1.0416
1.04328
1.04508
1.04715
1.04891
1.0503
1.05048
1.05345
1.04442
1.09621
1.05685
1.07233
1.08754
1.10953
1.13933
1.20389
1.18421
1.19515
1.06573
0.954685
0.866842
0.791951
0.74461
0.70041
0.660899
0.633464
0.615526
0.599217
0.58809
0.57883
0.574177
0.569417
0.567112
0.561683
0.561542
0.557066
0.553449
0.546625
0.542326
0.532475
0.525873
0.518194
0.507642
0.493554
0.482469
0.469357
0.455455
0.440627
0.423845
0.408133
0.390282
0.370594
0.354196
0.340785
0.320953
0.304591
0.286475
0.270702
0.252124
0.235826
0.218391
0.203006
0.186882
0.174352
0.164668
0.154027
0.138712
0.128942
0.103371
0.0947738
0.0641487
1
1
1
1
1.00001
1.00001
1.00002
1.00002
1.00004
1.00006
1.00008
1.00012
1.00018
1.00025
1.00036
1.00049
1.00067
1.00091
1.0012
1.00156
1.00201
1.00255
1.00318
1.00392
1.00478
1.00575
1.00683
1.00802
1.00933
1.01074
1.01223
1.01381
1.01547
1.01716
1.01892
1.02072
1.02251
1.02432
1.02616
1.02797
1.02973
1.03145
1.03317
1.03489
1.0365
1.03812
1.03982
1.0417
1.04363
1.04556
1.04733
1.04924
1.0512
1.05342
1.05698
1.05976
1.0758
1.08052
1.07899
1.07552
1.07622
1.08263
1.08195
1.08357
1.05185
0.965119
0.857149
0.815383
0.755403
0.72777
0.688766
0.670905
0.651511
0.638465
0.625942
0.609458
0.597662
0.58905
0.582972
0.576321
0.571171
0.564849
0.56048
0.55219
0.547211
0.537764
0.530371
0.519102
0.512624
0.502758
0.490373
0.479166
0.470604
0.457716
0.444788
0.430932
0.415544
0.401169
0.383692
0.366316
0.352389
0.337861
0.318733
0.301841
0.283699
0.266898
0.246981
0.229941
0.213045
0.198556
0.18371
0.171371
0.162801
0.152682
0.139589
0.130642
0.107055
0.100287
0.0717266
1
1
1
1
1.00001
1.00001
1.00002
1.00002
1.00004
1.00006
1.00008
1.00012
1.00018
1.00025
1.00036
1.0005
1.00068
1.00091
1.00121
1.00157
1.00202
1.00257
1.00321
1.00396
1.00483
1.00581
1.00691
1.00812
1.00946
1.01089
1.01242
1.01406
1.01574
1.01751
1.01934
1.02119
1.02309
1.025
1.02687
1.02877
1.03065
1.03249
1.03425
1.03604
1.03778
1.03962
1.04153
1.04345
1.04546
1.04759
1.04989
1.05208
1.0545
1.057
1.06497
1.05705
1.14133
1.06671
1.08385
1.07602
1.07222
1.06358
1.04826
0.976476
0.874078
0.805544
0.761144
0.733241
0.716203
0.696404
0.681066
0.665913
0.653772
0.643971
0.633863
0.620763
0.610531
0.602314
0.59456
0.585951
0.57777
0.569288
0.563089
0.554141
0.546169
0.53637
0.52629
0.515437
0.505754
0.493275
0.481933
0.471711
0.461769
0.448657
0.436381
0.422811
0.409252
0.396666
0.37981
0.36497
0.352179
0.336122
0.317116
0.299608
0.280752
0.262974
0.24355
0.22641
0.210284
0.196332
0.182453
0.17016
0.162262
0.152403
0.141212
0.133354
0.111768
0.106157
0.0798657
1
1
1
1
1.00001
1.00001
1.00002
1.00002
1.00004
1.00006
1.00008
1.00012
1.00018
1.00026
1.00036
1.0005
1.00068
1.00092
1.00122
1.00159
1.00204
1.00259
1.00324
1.004
1.00488
1.00588
1.007
1.00824
1.0096
1.01106
1.01264
1.0143
1.01605
1.01789
1.01976
1.02169
1.02365
1.02563
1.02762
1.02962
1.0316
1.03355
1.03545
1.03731
1.03921
1.04123
1.04337
1.04545
1.04739
1.04942
1.05162
1.05398
1.05749
1.06024
1.06851
1.0486
1.14421
1.04816
1.06156
1.068
1.0656
1.04632
0.991079
0.894591
0.777898
0.753802
0.721292
0.695771
0.682346
0.678106
0.67201
0.664241
0.653737
0.647091
0.639613
0.629778
0.62117
0.613816
0.606535
0.59764
0.586689
0.576264
0.566499
0.554532
0.546311
0.534198
0.523291
0.512977
0.501862
0.488878
0.478037
0.467809
0.456186
0.44232
0.430774
0.418181
0.405453
0.393248
0.376681
0.363172
0.349546
0.332344
0.31461
0.296959
0.278996
0.260974
0.242355
0.225524
0.210135
0.196333
0.183048
0.170553
0.162723
0.152873
0.143666
0.137295
0.117298
0.112771
0.0887814
1
1
1
1
1.00001
1.00001
1.00002
1.00002
1.00004
1.00006
1.00008
1.00012
1.00018
1.00026
1.00036
1.0005
1.00069
1.00092
1.00122
1.0016
1.00206
1.00261
1.00327
1.00405
1.00494
1.00595
1.00709
1.00835
1.00974
1.01125
1.01286
1.01457
1.01639
1.01825
1.02019
1.0222
1.02422
1.02626
1.02834
1.03044
1.0325
1.03456
1.0366
1.0386
1.04049
1.04247
1.04464
1.04688
1.0492
1.05156
1.05414
1.05639
1.05846
1.05928
1.06276
1.05391
1.09801
1.05741
1.05838
1.06182
1.04342
1.01368
0.896111
0.81657
0.74097
0.724119
0.71476
0.701303
0.684662
0.678542
0.677753
0.671478
0.664539
0.656025
0.649354
0.641772
0.634133
0.626168
0.617522
0.609396
0.599016
0.588594
0.57721
0.563204
0.551849
0.536454
0.525131
0.512204
0.498973
0.486467
0.474881
0.46379
0.45056
0.437565
0.427191
0.415019
0.403227
0.390631
0.374953
0.361728
0.347457
0.330326
0.313447
0.296857
0.279472
0.262136
0.244332
0.228207
0.212975
0.198465
0.184886
0.17172
0.163586
0.154061
0.147139
0.14142
0.1235
0.119697
0.0981052
1
1
1
1
1.00001
1.00001
1.00002
1.00002
1.00004
1.00006
1.00008
1.00012
1.00018
1.00026
1.00036
1.00051
1.00069
1.00093
1.00124
1.00161
1.00208
1.00264
1.00331
1.00409
1.005
1.00603
1.00719
1.00847
1.00989
1.01143
1.01308
1.01484
1.01669
1.01863
1.02065
1.0227
1.02482
1.02699
1.02914
1.03129
1.03347
1.03563
1.03776
1.03989
1.04195
1.04403
1.04619
1.0484
1.05066
1.05285
1.05504
1.05719
1.05957
1.06292
1.06549
1.07898
1.08026
1.08404
1.06288
1.05848
1.01959
0.945392
0.818885
0.777468
0.734458
0.713578
0.706675
0.705683
0.69287
0.683315
0.678193
0.673787
0.666701
0.660252
0.653384
0.64717
0.638938
0.630684
0.622574
0.615303
0.605681
0.596299
0.584877
0.570565
0.558893
0.542104
0.530636
0.515815
0.502226
0.488536
0.476042
0.462997
0.449051
0.43681
0.426402
0.413633
0.402099
0.388606
0.372987
0.360086
0.345429
0.328637
0.312899
0.297845
0.28161
0.26553
0.248567
0.232547
0.216546
0.200852
0.186725
0.173431
0.165355
0.155946
0.151057
0.146233
0.130233
0.12723
0.107722
1
1
1
1
1.00001
1.00001
1.00002
1.00002
1.00004
1.00006
1.00008
1.00013
1.00018
1.00026
1.00037
1.00051
1.0007
1.00094
1.00125
1.00163
1.0021
1.00267
1.00334
1.00414
1.00506
1.0061
1.00729
1.0086
1.01004
1.01161
1.0133
1.0151
1.017
1.01899
1.02107
1.02318
1.02536
1.0276
1.02984
1.03208
1.03435
1.03658
1.03879
1.04094
1.04306
1.04536
1.0477
1.05006
1.05248
1.05514
1.05786
1.06143
1.06498
1.07204
1.06355
1.14225
1.08001
1.08407
1.07443
1.05246
0.979906
0.884935
0.772523
0.746278
0.7245
0.705991
0.700434
0.702566
0.697546
0.687623
0.679722
0.674292
0.668661
0.66463
0.65915
0.653721
0.646267
0.638141
0.630693
0.623951
0.615135
0.606818
0.595454
0.5814
0.567727
0.549139
0.537047
0.519255
0.505773
0.491474
0.478771
0.465224
0.45149
0.43975
0.42823
0.414419
0.402562
0.387864
0.372716
0.359576
0.344521
0.328489
0.314227
0.300452
0.284819
0.269739
0.252923
0.236598
0.219647
0.203317
0.18881
0.1756
0.167729
0.158865
0.156029
0.151786
0.138011
0.135448
0.117492
1
1
1
1
1.00001
1.00001
1.00002
1.00002
1.00004
1.00006
1.00009
1.00013
1.00018
1.00026
1.00037
1.00051
1.0007
1.00095
1.00126
1.00164
1.00212
1.0027
1.00338
1.00419
1.00512
1.00618
1.00738
1.00872
1.01019
1.0118
1.01352
1.01536
1.01732
1.01936
1.02147
1.02369
1.02593
1.0282
1.03054
1.03292
1.03522
1.03757
1.03992
1.04221
1.04439
1.04672
1.04927
1.05207
1.055
1.05808
1.06075
1.06343
1.06489
1.06985
1.06019
1.11434
1.07382
1.0586
1.05929
0.981994
0.917442
0.802874
0.754177
0.732688
0.729095
0.707266
0.69988
0.699226
0.698743
0.693164
0.686432
0.679983
0.674627
0.670681
0.665506
0.660729
0.652934
0.644888
0.63749
0.631066
0.623173
0.615302
0.604751
0.59228
0.579277
0.561473
0.54713
0.528114
0.513268
0.498091
0.484581
0.470346
0.456619
0.444078
0.43066
0.41625
0.40363
0.387777
0.373492
0.360279
0.344828
0.330008
0.316163
0.302915
0.287624
0.272764
0.256144
0.239824
0.222503
0.2061
0.191651
0.178968
0.171353
0.163203
0.162014
0.158524
0.146141
0.14398
0.127007
1
1
1
1
1.00001
1.00001
1.00002
1.00002
1.00004
1.00006
1.00009
1.00013
1.00018
1.00026
1.00037
1.00052
1.00071
1.00096
1.00127
1.00166
1.00214
1.00272
1.00342
1.00424
1.00518
1.00626
1.00748
1.00884
1.01034
1.01197
1.01373
1.01561
1.0176
1.01969
1.02187
1.0241
1.02642
1.02878
1.03114
1.03355
1.03598
1.03838
1.04073
1.0431
1.04541
1.04777
1.05018
1.0527
1.05518
1.05757
1.05973
1.06211
1.06474
1.06654
1.07028
1.09172
1.06391
1.04302
1.02985
0.922634
0.848492
0.772628
0.742889
0.725617
0.729726
0.720492
0.707032
0.700018
0.699878
0.696355
0.690463
0.686306
0.681216
0.67563
0.671844
0.667746
0.660551
0.653809
0.646176
0.639888
0.631915
0.624171
0.614454
0.603645
0.590818
0.575156
0.558601
0.53908
0.523928
0.507184
0.492862
0.477373
0.463555
0.450107
0.435269
0.420568
0.407316
0.390774
0.377029
0.363406
0.347693
0.3334
0.319438
0.305553
0.290086
0.275316
0.259085
0.242963
0.225905
0.209917
0.195535
0.183322
0.17603
0.16894
0.168795
0.166296
0.154824
0.153124
0.136482
1
1
1
1
1.00001
1.00001
1.00002
1.00002
1.00004
1.00006
1.00009
1.00013
1.00019
1.00027
1.00038
1.00052
1.00072
1.00097
1.00128
1.00168
1.00216
1.00275
1.00346
1.00429
1.00524
1.00634
1.00758
1.00896
1.01048
1.01213
1.01392
1.01584
1.01786
1.01999
1.02223
1.0245
1.02686
1.02928
1.03173
1.03417
1.03665
1.03912
1.04153
1.0439
1.04628
1.04878
1.05151
1.05435
1.05796
1.06235
1.06711
1.07204
1.08054
1.0769
1.14739
1.08502
1.07035
1.06119
0.957892
0.859688
0.789494
0.76545
0.73803
0.730222
0.732465
0.732111
0.719717
0.708058
0.705993
0.702015
0.696494
0.691357
0.686258
0.681293
0.677251
0.673438
0.667954
0.662438
0.654878
0.648135
0.640226
0.632421
0.623691
0.613815
0.601097
0.586896
0.569886
0.550769
0.534547
0.516184
0.500663
0.484358
0.470689
0.456153
0.440655
0.42595
0.411911
0.395216
0.381893
0.367372
0.351697
0.33737
0.322365
0.307814
0.292353
0.277629
0.261749
0.246061
0.229729
0.214339
0.200367
0.188749
0.18207
0.175627
0.176735
0.174812
0.164309
0.162521
0.146011
1
1
1
1
1.00001
1.00001
1.00002
1.00002
1.00004
1.00006
1.00009
1.00013
1.00019
1.00027
1.00038
1.00053
1.00072
1.00097
1.00129
1.0017
1.00219
1.00278
1.0035
1.00433
1.0053
1.00642
1.00767
1.00907
1.01061
1.0123
1.0141
1.01604
1.01811
1.02025
1.0225
1.02485
1.02723
1.02965
1.03216
1.03469
1.03719
1.03973
1.0423
1.04489
1.04744
1.05018
1.05318
1.05611
1.05871
1.06065
1.06234
1.062
1.06519
1.0482
1.10605
1.05001
1.03389
0.994265
0.894278
0.811597
0.777081
0.768555
0.74316
0.734126
0.730935
0.731573
0.724853
0.713295
0.70641
0.703661
0.698966
0.693831
0.689888
0.686119
0.682486
0.679233
0.675164
0.670336
0.664048
0.657631
0.650363
0.642354
0.633561
0.623958
0.610919
0.597713
0.580897
0.563201
0.545984
0.526203
0.509915
0.492917
0.479262
0.463545
0.447948
0.433169
0.418007
0.401561
0.38814
0.372627
0.357231
0.342125
0.326696
0.311414
0.295916
0.281183
0.265556
0.250497
0.234726
0.2202
0.206682
0.195428
0.188805
0.183408
0.185036
0.184192
0.174086
0.172447
0.155805
1
1
1
1
1.00001
1.00001
1.00002
1.00002
1.00004
1.00006
1.00009
1.00013
1.00019
1.00027
1.00038
1.00053
1.00073
1.00098
1.00131
1.00171
1.00221
1.00281
1.00354
1.00438
1.00537
1.00649
1.00776
1.00917
1.01073
1.01243
1.01427
1.01622
1.0183
1.0205
1.02275
1.02513
1.02757
1.03004
1.03257
1.03513
1.03766
1.04009
1.0425
1.04486
1.04713
1.04941
1.05186
1.05447
1.05729
1.06028
1.06376
1.06883
1.07449
1.0834
1.10917
1.0365
1.00333
0.887673
0.845973
0.775209
0.776492
0.77098
0.769131
0.746963
0.734069
0.731161
0.728623
0.718311
0.711906
0.709033
0.705868
0.701315
0.697053
0.694366
0.691147
0.687511
0.683596
0.679391
0.673181
0.66471
0.657168
0.648534
0.639509
0.63019
0.618333
0.606118
0.590719
0.574896
0.556159
0.537014
0.52003
0.502012
0.487808
0.470795
0.455503
0.440354
0.424128
0.408481
0.394711
0.378368
0.363376
0.347628
0.331764
0.315881
0.300261
0.285751
0.270259
0.255667
0.240523
0.226738
0.213859
0.202869
0.196536
0.191887
0.193925
0.194125
0.184493
0.183065
0.166003
1
1
1
1
1.00001
1.00001
1.00002
1.00002
1.00004
1.00006
1.00009
1.00013
1.00019
1.00027
1.00039
1.00054
1.00074
1.00099
1.00132
1.00173
1.00223
1.00285
1.00357
1.00443
1.00542
1.00656
1.00783
1.00926
1.01084
1.01255
1.0144
1.01638
1.01846
1.02066
1.02295
1.02527
1.0277
1.03017
1.03262
1.03513
1.03771
1.0403
1.04287
1.04549
1.04818
1.0511
1.0543
1.05779
1.06145
1.06514
1.06848
1.0754
1.06211
1.15657
1.02539
1.03378
0.951483
0.875717
0.831708
0.783539
0.769531
0.768534
0.768276
0.754588
0.743786
0.741135
0.738996
0.731766
0.724767
0.721035
0.718312
0.712938
0.707337
0.704248
0.699537
0.694121
0.687878
0.68333
0.677524
0.669482
0.66261
0.654755
0.646152
0.637665
0.627288
0.615727
0.601537
0.587141
0.567602
0.550251
0.531924
0.512887
0.497556
0.479471
0.464579
0.448787
0.432325
0.416926
0.402716
0.385791
0.370975
0.354814
0.338386
0.322221
0.3064
0.292089
0.276603
0.262485
0.247752
0.234605
0.222097
0.211484
0.205202
0.201308
0.203355
0.204287
0.195631
0.194157
0.176653
1
1
1
1
1.00001
1.00001
1.00002
1.00003
1.00004
1.00006
1.00009
1.00013
1.00019
1.00028
1.00039
1.00054
1.00074
1.001
1.00134
1.00175
1.00226
1.00287
1.00361
1.00447
1.00548
1.00662
1.00791
1.00935
1.01093
1.01266
1.01451
1.0165
1.01858
1.02078
1.02309
1.02544
1.02785
1.03032
1.03282
1.03533
1.03792
1.04046
1.04287
1.04508
1.04708
1.04908
1.05091
1.05269
1.05413
1.05593
1.05749
1.06175
1.0558
1.10274
1.01412
0.968064
0.877109
0.833885
0.819394
0.801641
0.77759
0.771395
0.767239
0.760972
0.752118
0.750003
0.748292
0.742962
0.735936
0.73119
0.728181
0.721813
0.714639
0.71025
0.7047
0.697887
0.69107
0.686274
0.681263
0.674639
0.668858
0.662636
0.655079
0.647391
0.637902
0.627035
0.613641
0.599844
0.580028
0.563311
0.543256
0.523151
0.506513
0.488202
0.473889
0.457555
0.441412
0.425873
0.410881
0.393716
0.3786
0.361811
0.34532
0.329416
0.313231
0.299012
0.283558
0.269888
0.255657
0.242903
0.230854
0.220581
0.214512
0.211086
0.213343
0.214858
0.207167
0.205176
0.187916
1
1
1
1
1.00001
1.00001
1.00002
1.00003
1.00004
1.00006
1.00009
1.00013
1.00019
1.00028
1.00039
1.00055
1.00075
1.00102
1.00135
1.00177
1.00228
1.0029
1.00365
1.00452
1.00553
1.00668
1.00798
1.00942
1.01101
1.01275
1.0146
1.01658
1.01869
1.02086
1.02314
1.02548
1.02783
1.03024
1.03269
1.03513
1.03759
1.04013
1.04269
1.04521
1.04765
1.05024
1.05326
1.05646
1.06023
1.06434
1.07202
1.06611
1.1379
1.03166
1.00827
0.957055
0.837609
0.819861
0.804346
0.797109
0.781436
0.779771
0.777339
0.77563
0.766097
0.759706
0.757972
0.753099
0.744745
0.738145
0.732758
0.726201
0.718937
0.713203
0.709633
0.70264
0.697235
0.69232
0.687869
0.68251
0.677331
0.672181
0.665468
0.658227
0.649484
0.639176
0.626042
0.612334
0.593406
0.576285
0.554735
0.535092
0.517294
0.499422
0.485165
0.468051
0.452022
0.435874
0.420024
0.402637
0.38701
0.369633
0.353939
0.337845
0.321611
0.307262
0.291908
0.278604
0.264874
0.252232
0.240423
0.230308
0.224344
0.221359
0.223743
0.22577
0.218742
0.216371
0.199392
1
1
1
1
1.00001
1.00001
1.00002
1.00003
1.00004
1.00006
1.00009
1.00013
1.0002
1.00028
1.0004
1.00055
1.00076
1.00103
1.00136
1.00179
1.00231
1.00293
1.00368
1.00456
1.00558
1.00674
1.00804
1.00949
1.01108
1.01281
1.01467
1.01664
1.01873
1.02089
1.02313
1.02547
1.02785
1.03023
1.03267
1.03513
1.03758
1.04003
1.04248
1.04479
1.04698
1.04894
1.05095
1.05229
1.05339
1.05266
1.05571
1.0342
1.08733
0.984431
0.938457
0.862726
0.839351
0.808626
0.813871
0.803594
0.78771
0.781227
0.782398
0.779425
0.771685
0.762138
0.758519
0.756179
0.749295
0.744407
0.739434
0.73349
0.728077
0.721949
0.718548
0.711763
0.707439
0.702044
0.69757
0.692514
0.687555
0.681947
0.675574
0.668143
0.659462
0.64931
0.636003
0.621878
0.604469
0.587364
0.56609
0.547724
0.528978
0.511187
0.496399
0.477991
0.462187
0.445396
0.428998
0.411407
0.395478
0.378131
0.362922
0.346494
0.330645
0.315882
0.3006
0.28757
0.274172
0.261493
0.249837
0.239859
0.234002
0.231623
0.234303
0.236584
0.230202
0.22785
0.211263
1
1
1
1
1.00001
1.00001
1.00002
1.00003
1.00004
1.00006
1.00009
1.00014
1.0002
1.00028
1.0004
1.00056
1.00077
1.00104
1.00138
1.0018
1.00233
1.00296
1.00372
1.0046
1.00562
1.00679
1.0081
1.00955
1.01114
1.01287
1.01472
1.01668
1.01875
1.02091
1.02313
1.02543
1.02777
1.0301
1.03245
1.03481
1.03716
1.03947
1.04178
1.04419
1.04669
1.04939
1.05221
1.05518
1.05799
1.06209
1.05738
1.10556
1.04107
0.983773
0.906827
0.853161
0.826632
0.806858
0.811305
0.808916
0.79861
0.786482
0.782146
0.780322
0.777121
0.767842
0.762843
0.75985
0.753925
0.749114
0.745348
0.739878
0.736296
0.7315
0.728196
0.722904
0.718827
0.713609
0.708705
0.702895
0.697558
0.691079
0.684617
0.676709
0.667922
0.658146
0.645824
0.632099
0.61674
0.600002
0.579769
0.562267
0.542261
0.524481
0.507912
0.488735
0.473138
0.455623
0.439247
0.421527
0.405645
0.38826
0.373087
0.356006
0.340794
0.325225
0.310104
0.297283
0.283854
0.271328
0.259684
0.249799
0.243887
0.242081
0.244935
0.247708
0.241836
0.239573
0.223301
1
1
1
1
1.00001
1.00001
1.00002
1.00003
1.00004
1.00006
1.00009
1.00014
1.0002
1.00029
1.00041
1.00057
1.00078
1.00105
1.00139
1.00182
1.00235
1.00299
1.00375
1.00464
1.00567
1.00684
1.00815
1.0096
1.01119
1.01291
1.01475
1.0167
1.01873
1.02088
1.02307
1.02533
1.02765
1.03
1.03233
1.03473
1.03714
1.03953
1.04189
1.04432
1.04676
1.04931
1.05175
1.05413
1.05617
1.06028
1.05244
1.08069
0.944044
0.917888
0.8377
0.850887
0.821842
0.811153
0.805741
0.807417
0.800601
0.790946
0.783384
0.782906
0.77862
0.771351
0.765903
0.762251
0.757763
0.75284
0.749557
0.745066
0.741856
0.738507
0.735351
0.731962
0.727714
0.722148
0.716988
0.710847
0.705318
0.698072
0.691626
0.683893
0.675607
0.666423
0.655485
0.642828
0.628559
0.612894
0.593374
0.576523
0.554927
0.53706
0.518235
0.49924
0.483701
0.465979
0.449902
0.432214
0.416392
0.399004
0.383445
0.365924
0.350981
0.334703
0.319787
0.306717
0.293217
0.280813
0.269181
0.2594
0.253625
0.252326
0.25573
0.258811
0.253499
0.251542
0.235677
1
1
1
1
1.00001
1.00001
1.00002
1.00003
1.00004
1.00006
1.00009