/*--------------------------------*- C++ -*----------------------------------*\
| =========                 |                                                 |
| \\      /  F ield         | OpenFOAM: The Open Source CFD Toolbox           |
|  \\    /   O peration     | Version:  2.2.x                                 |
|   \\  /    A nd           | Web:      www.OpenFOAM.org                      |
|    \\/     M anipulation  |                                                 |
\*---------------------------------------------------------------------------*/
FoamFile
{
    version     2.0;
    format      ascii;
    class       surfaceScalarField;
    location    "0.45";
    object      phi;
}
// * * * * * * * * * * * * * * * * * * * * * * * * * * * * * * * * * * * * * //

dimensions      [1 0 -1 0 0 0 0];

internalField   nonuniform List<scalar> 
28084
(
0.000746224
0.000742989
0.000740213
0.000737878
0.000735962
0.000734444
0.0007333
0.000732505
0.000732034
0.000731861
0.000731957
0.000732297
0.000732854
0.000733601
0.000734511
0.000735558
0.00073672
0.00073797
0.000739288
0.000740652
0.00074204
0.000743436
0.000744821
0.000746176
0.000747496
0.00074875
0.000749955
0.00075105
0.000752048
0.000753001
0.000753797
0.000754551
0.000755136
0.000755503
0.000755863
0.0007561
0.000756054
0.000755983
0.000755799
0.000755305
0.000754571
0.000753896
0.000753149
0.000752272
0.000751197
0.000760325
0.000769462
0.000779368
0.000789739
0.000800389
0.000811196
0.000822189
0.000832847
0.00084351
0.000853766
0.000863081
0.000856875
0.000662505
0.000466069
0.000436872
0.000529326
0.000657845
0.000758796
0.000833407
0.000900286
0.00095453
0.000989358
0.00101758
0.00103821
0.00105373
0.00106788
0.00108193
0.00109771
0.00111533
0.00113168
0.00114411
0.00115081
0.00115201
0.00114148
0.00111003
0.0010561
0.000985266
0.000924783
0.000875942
0.000833091
0.000788381
0.000742508
0.000699949
0.000657257
0.000611624
0.000572303
0.000541451
0.00051877
0.000496058
0.000471864
0.000446797
0.000422368
0.000398887
0.000374909
0.000351934
0.000331134
0.000311866
0.000292775
0.000275064
0.000257117
0.000239726
0.000220327
0.000201124
0.000181082
0.000164109
0.000147378
0.000130905
0.000110872
9.13775e-05
7.10288e-05
5.35243e-05
3.74295e-05
2.05778e-05
3.7119e-06
3.23513e-06
0.00074974
2.77572e-06
0.000748785
2.33538e-06
0.000748259
1.91574e-06
0.000748147
1.51833e-06
0.00074843
1.14451e-06
0.000749084
7.95458e-07
0.000750089
4.72142e-07
0.000751417
1.75301e-07
0.000753043
-9.45664e-08
0.000754938
-3.37211e-07
0.000757075
-5.52623e-07
0.000759424
-7.41036e-07
0.000761956
-9.02897e-07
0.000764642
-1.03886e-06
0.000767454
-1.14979e-06
0.000770362
-1.23666e-06
0.000773341
-1.30051e-06
0.000776364
-1.34304e-06
0.000779407
-1.36459e-06
0.000782445
-1.36734e-06
0.000785458
-1.35412e-06
0.000788425
-1.32036e-06
0.000791327
-1.27755e-06
0.000794148
-1.21934e-06
0.000796867
-1.15043e-06
0.00079948
-1.06128e-06
0.000801958
-9.71987e-07
0.000804301
-8.74473e-07
0.000806515
-7.64076e-07
0.000808561
-6.60868e-07
0.000810482
-5.18031e-07
0.000812126
-4.03386e-07
0.000813604
-2.77071e-07
0.000815033
-1.33463e-07
0.00081617
-9.13179e-09
0.000817113
1.33847e-07
0.000817976
3.20049e-07
0.000818541
4.15898e-07
0.000818926
5.66255e-07
0.00081913
7.28894e-07
0.000818984
8.75079e-07
0.000818797
1.05815e-06
0.000818487
1.20708e-06
0.000818003
-9.27629e-06
0.000817216
-9.63581e-06
0.000825901
-9.91527e-06
0.000834481
-1.01405e-05
0.00084383
-1.03281e-05
0.0008536
-1.04861e-05
0.000863634
-1.06245e-05
0.000873813
-1.06077e-05
0.000884453
-1.0566e-05
0.000894927
-9.99938e-06
0.000904793
-8.89688e-06
0.000914881
7.63729e-06
0.000922259
0.000155822
0.000934991
0.00018263
0.000832646
1.65525e-05
0.000731133
-9.19763e-05
0.000750258
-0.00012208
0.000813353
-9.88238e-05
0.000880557
-7.694e-05
0.000955368
-6.30466e-05
0.00100829
-4.99785e-05
0.00104875
-3.57826e-05
0.00109066
-2.75262e-05
0.00111576
-2.07698e-05
0.00113272
-1.71125e-05
0.0011477
-1.5534e-05
0.00116243
-1.3862e-05
0.00117652
-1.34201e-05
0.00119025
-1.20299e-05
0.00120332
-1.07227e-05
0.0012156
-1.00938e-05
0.00122609
-6.35017e-06
0.00123556
-1.38372e-08
0.00123879
1.10985e-05
0.00123415
3.24229e-05
0.00122159
5.18544e-05
0.00119451
6.88275e-05
0.00115711
5.54681e-05
0.0011111
4.33809e-05
0.00105254
3.94156e-05
0.000996614
4.40026e-05
0.000948119
4.77394e-05
0.000898877
4.38985e-05
0.000844924
4.01985e-05
0.000789198
3.71349e-05
0.000732961
3.42022e-05
0.000672726
3.22663e-05
0.000621241
2.96043e-05
0.000581781
2.74996e-05
0.000553442
2.55984e-05
0.000525887
2.37493e-05
0.000497734
2.37882e-05
0.000469508
2.39539e-05
0.000441925
2.41691e-05
0.000415786
2.26982e-05
0.000390396
1.9802e-05
0.000366751
1.75574e-05
0.000346112
1.75921e-05
0.000327284
1.74378e-05
0.000308315
1.8199e-05
0.000289595
1.75997e-05
0.000270459
1.89438e-05
0.000251813
1.75601e-05
0.00023166
1.91585e-05
0.000212334
1.75687e-05
0.000192253
1.90348e-05
0.000175827
1.96096e-05
0.000159625
2.33653e-05
0.000144692
2.21332e-05
0.000126797
2.26333e-05
0.000109759
1.89348e-05
9.11135e-05
1.55682e-05
7.29227e-05
1.42428e-05
5.35555e-05
1.66796e-05
3.00495e-05
5.11204e-06
4.19073e-06
0.000754435
3.30116e-06
0.00075573
2.44751e-06
0.000757427
1.63381e-06
0.000759511
8.6381e-07
0.000761964
1.40867e-07
0.000764766
-5.32078e-07
0.000767893
-1.15259e-06
0.00077132
-1.71875e-06
0.000775019
-2.22921e-06
0.000778961
-2.6832e-06
0.000783115
-3.08048e-06
0.000787451
-3.4214e-06
0.000791937
-3.70678e-06
0.000796541
-3.93792e-06
0.000801233
-4.11659e-06
0.000805982
-4.24483e-06
0.000810759
-4.32495e-06
0.000815535
-4.36026e-06
0.000820284
-4.35198e-06
0.00082498
-4.30501e-06
0.000829601
-4.22246e-06
0.000834122
-4.10394e-06
0.000838525
-3.95867e-06
0.000842792
-3.78118e-06
0.000846903
-3.58494e-06
0.000850848
-3.36376e-06
0.00085461
-3.11714e-06
0.000858172
-2.86804e-06
0.000861546
-2.58917e-06
0.000864703
-2.29916e-06
0.000867685
-2.00256e-06
0.000870317
-1.70167e-06
0.000872708
-1.37713e-06
0.000874974
-1.05616e-06
0.000877019
-7.62759e-07
0.000878784
-3.7773e-07
0.000880404
-3.71615e-08
0.000881666
2.51416e-07
0.000882613
6.02487e-07
0.000883376
9.48458e-07
0.000883815
1.31072e-06
0.000884079
1.68417e-06
0.000884232
2.04307e-06
0.000884201
-1.80378e-05
0.000883866
-1.8732e-05
0.000891977
-1.92924e-05
0.000900137
-1.9744e-05
0.000908958
-2.01286e-05
0.000918148
-2.04369e-05
0.000927671
-2.06413e-05
0.000937421
-2.05655e-05
0.00094694
-2.03429e-05
0.000955745
-1.98917e-05
0.000964974
-1.6144e-05
0.0009752
-3.70511e-06
0.000986622
0.000227558
0.00100084
0.000268479
0.00108533
-1.14966e-05
0.00101409
-0.000155611
0.00107698
-0.000185681
0.00112601
-0.000162965
0.00115235
-0.000133266
0.00118908
-0.000111274
0.00123421
-9.22357e-05
0.00127247
-6.7528e-05
0.00130066
-5.16779e-05
0.00132205
-3.8084e-05
0.00133526
-3.21399e-05
0.001348
-2.88253e-05
0.00135969
-2.48441e-05
0.00137039
-2.21988e-05
0.00138232
-1.95615e-05
0.00139614
-1.62973e-05
0.00140703
-1.23909e-05
0.00141285
-5.87001e-06
0.00141539
5.25761e-06
0.00141468
2.28013e-05
0.00140769
5.77883e-05
0.00139204
8.59656e-05
0.00137283
0.00011126
0.00133917
0.000109018
0.00129976
9.53812e-05
0.00124901
8.80136e-05
0.00118006
9.52281e-05
0.00111275
0.000103586
0.00104368
0.000101564
0.000971806
9.42494e-05
0.000901659
8.79421e-05
0.000834068
7.98872e-05
0.000766082
7.24869e-05
0.000704393
6.55176e-05
0.000653408
5.95476e-05
0.000611806
5.47414e-05
0.000573648
5.06922e-05
0.000534152
5.06142e-05
0.000495922
5.07352e-05
0.000461076
4.95664e-05
0.000430214
4.60718e-05
0.000401275
3.92597e-05
0.000375405
3.45554e-05
0.000352565
3.52713e-05
0.00033177
3.58267e-05
0.000309944
3.76438e-05
0.000288556
3.62233e-05
0.000268661
3.84527e-05
0.00024995
3.49832e-05
0.000230482
3.81555e-05
0.000211173
3.45391e-05
0.000191349
3.75965e-05
0.00017417
3.77961e-05
0.00015727
4.4629e-05
0.00014305
4.19054e-05
0.000128187
4.33334e-05
0.000113403
3.86384e-05
9.68349e-05
3.47753e-05
7.7965e-05
3.52989e-05
5.56234e-05
4.26964e-05
2.9982e-05
4.23054e-06
2.89593e-06
0.000760308
1.60449e-06
0.000763821
3.63709e-07
0.000767708
-8.19267e-07
0.000771957
-1.93779e-06
0.000776552
-2.98584e-06
0.000781472
-3.95817e-06
0.000786694
-4.85036e-06
0.000792192
-5.6589e-06
0.000797936
-6.38125e-06
0.000803898
-7.01582e-06
0.000810044
-7.56197e-06
0.000816341
-8.02001e-06
0.000822756
-8.39107e-06
0.000829255
-8.67712e-06
0.000835804
-8.88085e-06
0.000842371
-9.0055e-06
0.000848923
-9.05481e-06
0.000855431
-9.03367e-06
0.000861865
-8.94502e-06
0.000868198
-8.7955e-06
0.000874405
-8.59016e-06
0.000880461
-8.32968e-06
0.000886348
-8.02771e-06
0.000892041
-7.67592e-06
0.000897528
-7.29417e-06
0.000902791
-6.87813e-06
0.000907811
-6.42935e-06
0.000912592
-5.96433e-06
0.000917091
-5.46252e-06
0.000921356
-4.93086e-06
0.000925299
-4.40665e-06
0.000928959
-3.88556e-06
0.000932399
-3.34126e-06
0.000935637
-2.76861e-06
0.000938416
-2.18525e-06
0.000940828
-1.61436e-06
0.000943085
-1.01665e-06
0.000945104
-4.87681e-07
0.000946702
7.18676e-08
0.000948048
6.79735e-07
0.000949135
1.29631e-06
0.00094981
1.9382e-06
0.000950336
2.54726e-06
0.000950649
-2.62586e-05
0.000950669
-2.7268e-05
0.000958408
-2.81484e-05
0.000966251
-2.88459e-05
0.000974538
-2.94122e-05
0.000983182
-2.98511e-05
0.000992153
-3.01647e-05
0.0010012
-3.03167e-05
0.00100966
-3.02001e-05
0.0010181
-3.00328e-05
0.001027
-2.79337e-05
0.0010365
-1.83255e-05
0.0010478
0.000118246
0.00106349
0.000310487
0.0011704
-6.02512e-05
0.00137232
-0.000198499
0.00142304
-0.000214886
0.00143225
-0.000201135
0.00143449
-0.00017903
0.00144324
-0.000150306
0.00145488
-0.000119684
0.00147012
-9.16191e-05
0.00147898
-7.01649e-05
0.00148624
-5.35993e-05
0.0014942
-4.3861e-05
0.00149883
-3.73808e-05
0.00149994
-3.17157e-05
0.00150247
-2.74774e-05
0.00150701
-2.30564e-05
0.00151379
-1.88928e-05
0.00151779
-1.30691e-05
0.00151634
-4.10162e-06
0.00151203
1.1024e-05
0.00150485
3.63832e-05
0.00149688
7.48448e-05
0.00148624
0.000117593
0.00147555
0.000145634
0.00146632
0.000156348
0.00143534
0.000161571
0.00139183
0.000152677
0.00133215
0.000163842
0.00125729
0.000177688
0.00118118
0.000177029
0.00111024
0.000163028
0.00104625
0.000149276
0.000984815
0.000136688
0.000920703
0.000123636
0.000853734
0.000112776
0.000790894
0.000103321
0.000735557
9.57108e-05
0.000686001
8.79262e-05
0.000637007
8.5126e-05
0.00058561
8.24613e-05
0.000536051
7.90722e-05
0.000491358
7.17228e-05
0.000449399
6.02686e-05
0.000413252
5.33624e-05
0.00038244
5.57108e-05
0.00035519
5.66143e-05
0.000326743
5.79846e-05
0.000300303
5.47543e-05
0.000277161
5.72013e-05
0.000255663
5.27819e-05
0.000233621
5.70192e-05
0.000211538
5.2215e-05
0.000190002
5.70602e-05
0.000171199
5.54995e-05
0.000152976
6.3027e-05
0.000138691
5.9876e-05
0.00012377
6.19168e-05
0.0001091
5.85333e-05
9.26753e-05
5.66015e-05
7.45291e-05
5.81565e-05
5.29509e-05
6.81957e-05
2.8477e-05
1.10116e-06
-6.16607e-07
0.000767362
-2.2826e-06
0.000773056
-3.88528e-06
0.000779098
-5.41361e-06
0.000785478
-6.85736e-06
0.000792181
-8.20725e-06
0.000799186
-9.45513e-06
0.000806471
-1.05941e-05
0.000814009
-1.16187e-05
0.000821769
-1.25249e-05
0.000829721
-1.33098e-05
0.000837829
-1.39724e-05
0.00084606
-1.45127e-05
0.000854376
-1.49322e-05
0.000862742
-1.52334e-05
0.000871121
-1.54201e-05
0.000879479
-1.54968e-05
0.000887782
-1.54689e-05
0.000895996
-1.53423e-05
0.000904091
-1.5124e-05
0.000912037
-1.48192e-05
0.000919809
-1.44378e-05
0.000927378
-1.39831e-05
0.000934725
-1.34647e-05
0.000941828
-1.28927e-05
0.000948666
-1.22636e-05
0.000955231
-1.15998e-05
0.000961495
-1.08869e-05
0.000967461
-1.01487e-05
0.000973107
-9.36315e-06
0.000978422
-8.56642e-06
0.000983434
-7.75929e-06
0.00098806
-6.93833e-06
0.000992362
-6.09758e-06
0.000996415
-5.24921e-06
0.00100013
-4.36387e-06
0.00100328
-3.52223e-06
0.00100615
-2.64523e-06
0.00100877
-1.77729e-06
0.00101107
-9.50211e-07
0.00101308
-5.36765e-08
0.00101471
8.41796e-07
0.00101589
1.7505e-06
0.00101682
2.64154e-06
0.00101744
-3.39841e-05
0.00101773
-3.52709e-05
0.00102481
-3.63999e-05
0.00103219
-3.72751e-05
0.00104002
-3.79988e-05
0.00104818
-3.85596e-05
0.00105674
-3.89247e-05
0.00106532
-3.90559e-05
0.00107274
-3.8808e-05
0.00107998
-3.90324e-05
0.00108871
-3.87674e-05
0.00109739
-3.37663e-05
0.00110713
3.86512e-06
0.00112126
8.49676e-05
0.00118608
-0.000108378
0.00148308
-0.000209922
0.00152882
-0.000226508
0.00152793
-0.000216966
0.00152516
-0.00019503
0.00152568
-0.000165536
0.00152672
-0.000127805
0.00152683
-9.73394e-05
0.00152579
-7.65059e-05
0.00152662
-5.80632e-05
0.00152495
-4.63169e-05
0.0015251
-3.85851e-05
0.00152603
-3.24534e-05
0.00152985
-2.75975e-05
0.00153517
-2.21469e-05
0.00154017
-1.64725e-05
0.00154358
-9.99913e-06
0.00154202
2.02678e-07
0.00153641
1.58253e-05
0.00152705
4.41813e-05
0.00151223
8.508e-05
0.00149901
0.000127567
0.00148941
0.000174164
0.00147296
0.000200865
0.00144808
0.000222991
0.00139329
0.000228179
0.00131729
0.000240621
0.00122455
0.00025286
0.00114315
0.000248188
0.00107943
0.000229373
0.00102431
0.00021173
0.000970018
0.000198502
0.000912981
0.000183907
0.000853967
0.000168849
0.000798735
0.000158204
0.000747741
0.000147959
0.000701948
0.00013927
0.000658258
0.000134036
0.000613067
0.000127791
0.00057082
0.0001216
0.000530157
0.000106857
0.00049014
8.83807e-05
0.000451439
7.88793e-05
0.000416777
8.30913e-05
0.00038519
8.25296e-05
0.000352573
8.14557e-05
0.000323463
7.59703e-05
0.00029776
7.80259e-05
0.000273535
7.31861e-05
0.000248608
7.76978e-05
0.000223742
7.16846e-05
0.000200083
7.76773e-05
0.000179089
7.32261e-05
0.000159124
8.15654e-05
0.000142881
7.76947e-05
0.000126411
8.02403e-05
0.000110383
7.70768e-05
9.29596e-05
7.7139e-05
7.42104e-05
7.96922e-05
5.24892e-05
9.20825e-05
2.80787e-05
-4.23854e-06
-6.31051e-06
0.0007756
-8.32484e-06
0.000783435
-1.02651e-05
0.000791593
-1.21158e-05
0.000800066
-1.38623e-05
0.00080884
-1.54915e-05
0.000817894
-1.69919e-05
0.000827206
-1.83535e-05
0.000836749
-1.95685e-05
0.000846491
-2.06309e-05
0.0008564
-2.15367e-05
0.000866438
-2.22839e-05
0.00087657
-2.28722e-05
0.000886756
-2.33035e-05
0.000896958
-2.35808e-05
0.000907138
-2.3709e-05
0.000917259
-2.36939e-05
0.000927283
-2.35429e-05
0.000937176
-2.32631e-05
0.000946905
-2.2865e-05
0.000956438
-2.23549e-05
0.000965747
-2.17438e-05
0.000974806
-2.10437e-05
0.000983588
-2.02543e-05
0.000992078
-1.93997e-05
0.00100025
-1.8474e-05
0.00100808
-1.74987e-05
0.00101558
-1.64766e-05
0.00102271
-1.54022e-05
0.00102948
-1.43028e-05
0.00103585
-1.31603e-05
0.00104184
-1.20134e-05
0.00104751
-1.08555e-05
0.0010528
-9.66879e-06
0.00105752
-8.45651e-06
0.0010619
-7.24922e-06
0.00106587
-6.0972e-06
0.00106951
-4.8854e-06
0.00107291
-3.66124e-06
0.00107597
-2.45925e-06
0.0010783
-1.27277e-06
0.00108038
-4.15814e-08
0.00108216
1.18819e-06
0.00108346
2.42217e-06
0.00108432
-4.12185e-05
0.00108494
-4.2794e-05
0.00109165
-4.41159e-05
0.00109849
-4.512e-05
0.00110568
-4.59507e-05
0.00111313
-4.65874e-05
0.00112075
-4.70404e-05
0.0011284
-4.71701e-05
0.00113551
-4.74055e-05
0.00114289
-4.74681e-05
0.00115067
-4.79728e-05
0.00115809
-4.77658e-05
0.00116463
-6.52374e-05
0.00117397
-0.000235455
0.00120008
-0.000159645
0.00121722
-0.00020763
0.00136272
-0.000222029
0.00143467
-0.000219135
0.00147227
-0.000200286
0.00149742
-0.000170075
0.00151507
-0.000133521
0.0015341
-0.000104148
0.00154753
-7.95226e-05
0.00155601
-6.23506e-05
0.00156087
-4.75268e-05
0.00156486
-3.7757e-05
0.00157046
-3.1272e-05
0.00157763
-2.61539e-05
0.00158439
-1.97081e-05
0.00158942
-1.34565e-05
0.00159282
-5.95322e-06
0.00159198
4.71435e-06
0.00158708
2.35983e-05
0.00157949
5.27809e-05
0.00156454
9.14324e-05
0.00154509
0.000141907
0.00151709
0.000197853
0.00147069
0.000257699
0.00139898
0.000301035
0.00130878
0.000321909
0.00121081
0.000322952
0.00112351
0.000321644
0.00105347
0.00031125
0.000999548
0.000291272
0.000953517
0.000271336
0.000908318
0.000256807
0.000859205
0.000240564
0.000807456
0.000222026
0.000759754
0.000208876
0.000715451
0.000195814
0.000675358
0.000184976
0.000636224
0.000178099
0.000596278
0.000170453
0.000560301
0.000163434
0.00052637
0.000144398
0.000493151
0.000119813
0.000458559
0.000108827
0.000423694
0.000114556
0.000392194
0.000111142
0.000360317
0.000107211
0.00033193
9.90543e-05
0.000305602
0.000100852
0.000280961
9.61881e-05
0.000255745
0.000100538
0.000230564
9.3341e-05
0.00020688
0.00010023
0.000184375
9.32193e-05
0.000164016
0.000102169
0.000146539
9.68537e-05
0.000128776
9.92387e-05
0.000111561
9.591e-05
9.35838e-05
9.75203e-05
7.44159e-05
0.000100884
5.25549e-05
0.000115249
2.79797e-05
-1.17471e-05
-1.41455e-05
0.000785028
-1.64831e-05
0.00079496
-1.87378e-05
0.000805191
-2.08888e-05
0.000815715
-2.29165e-05
0.000826518
-2.48033e-05
0.000837582
-2.65338e-05
0.000848882
-2.80946e-05
0.000860392
-2.9475e-05
0.000872079
-3.06669e-05
0.000883907
-3.16646e-05
0.000895839
-3.24651e-05
0.000907836
-3.3068e-05
0.000919858
-3.34749e-05
0.000931863
-3.36899e-05
0.00094381
-3.37188e-05
0.00095566
-3.3569e-05
0.000967374
-3.32495e-05
0.000978915
-3.277e-05
0.000990247
-3.21423e-05
0.00100134
-3.13775e-05
0.00101216
-3.0485e-05
0.00102268
-2.9483e-05
0.00103287
-2.83767e-05
0.00104272
-2.71814e-05
0.0010522
-2.59088e-05
0.00106128
-2.45641e-05
0.00106998
-2.31682e-05
0.00107826
-2.172e-05
0.00108611
-2.02319e-05
0.00109354
-1.87124e-05
0.00110052
-1.71774e-05
0.00110708
-1.55773e-05
0.00111317
-1.40601e-05
0.00111887
-1.24633e-05
0.0011242
-1.0874e-05
0.00112887
-9.25512e-06
0.00113305
-7.6985e-06
0.00113702
-6.10369e-06
0.00114062
-4.50146e-06
0.0011436
-2.94708e-06
0.00114612
-1.3264e-06
0.0011483
2.46828e-07
0.00115009
1.81963e-06
0.00115137
-4.79244e-05
0.0011523
-4.97381e-05
0.00115857
-5.12487e-05
0.00116517
-5.24291e-05
0.00117206
-5.33445e-05
0.00117882
-5.40658e-05
0.00118501
-5.45136e-05
0.00119154
-5.46118e-05
0.00119846
-5.47986e-05
0.00120542
-5.43948e-05
0.00121218
-5.40611e-05
0.00121852
-5.71865e-05
0.00122406
-9.46212e-05
0.00123061
-0.000281874
0.00125146
-0.000304794
0.00128545
-0.000281635
0.00139696
-0.000257268
0.00148029
-0.000248421
0.00152786
-0.000223263
0.00156441
-0.000188785
0.00158626
-0.000145512
0.00160538
-0.000114135
0.00162485
-8.60546e-05
0.00164027
-6.72621e-05
0.00165107
-4.94313e-05
0.00165725
-3.76225e-05
0.00166041
-2.95209e-05
0.00166512
-2.38588e-05
0.00167018
-1.6597e-05
0.0016755
-1.01073e-05
0.00167632
-2.02568e-06
0.00167437
9.38353e-06
0.00166736
3.28954e-05
0.00165603
6.49427e-05
0.00163837
0.0001124
0.00159733
0.000182787
0.00152116
0.000266496
0.00139744
0.000347645
0.0012553
0.000399985
0.00112894
0.000411731
0.00103879
0.000394894
0.000977653
0.000378298
0.000932542
0.000362152
0.000901222
0.00034149
0.000871582
0.000319906
0.000839675
0.00030478
0.000800615
0.000285294
0.000758619
0.00026492
0.000722494
0.000251599
0.000690995
0.000237182
0.000663362
0.000224403
0.000634037
0.000215561
0.00060006
0.000206622
0.000568409
0.000199079
0.00053846
0.000179637
0.000508847
0.000152859
0.000477867
0.000140583
0.000445424
0.000145637
0.000414837
0.00013927
0.000383464
0.000132991
0.000354602
0.000122111
0.000327148
0.000123777
0.000301186
0.000119058
0.000274783
0.000123256
0.000248973
0.000116314
0.000225496
0.000123148
0.000202901
0.000114874
0.000180947
0.000124335
0.000160388
0.000117022
0.00013955
0.000118538
0.000119192
0.000114855
9.85946e-05
0.000117868
7.71045e-05
0.00012207
5.3763e-05
0.000138267
2.8207e-05
-2.13788e-05
-2.40774e-05
0.000795653
-2.67144e-05
0.000807633
-2.92614e-05
0.000819891
-3.16915e-05
0.000832419
-3.39798e-05
0.000845207
-3.61035e-05
0.000858236
-3.80426e-05
0.000871482
-3.97798e-05
0.000884917
-4.13014e-05
0.000898506
-4.25966e-05
0.000912214
-4.3658e-05
0.000926
-4.44814e-05
0.000939824
-4.50659e-05
0.000953642
-4.54133e-05
0.000967412
-4.55282e-05
0.00098109
-4.54177e-05
0.000994634
-4.50909e-05
0.001008
-4.45586e-05
0.00102116
-4.38331e-05
0.00103406
-4.29279e-05
0.00104667
-4.18579e-05
0.00105897
-4.06359e-05
0.00107092
-3.92781e-05
0.0010825
-3.78019e-05
0.00109367
-3.62118e-05
0.00110443
-3.45373e-05
0.00111475
-3.27765e-05
0.00112462
-3.09517e-05
0.00113402
-2.90726e-05
0.00114294
-2.71481e-05
0.00115139
-2.5192e-05
0.00115935
-2.32086e-05
0.00116689
-2.11885e-05
0.00117388
-1.91873e-05
0.0011802
-1.71485e-05
0.0011862
-1.51509e-05
0.00119181
-1.30945e-05
0.00119677
-1.10728e-05
0.00120115
-9.10201e-06
0.00120526
-7.07698e-06
0.00120903
-5.12113e-06
0.00121215
-3.03445e-06
0.00121443
-1.07775e-06
0.00121659
8.72392e-07
0.0012183
-5.41281e-05
0.00121962
-5.6084e-05
0.00122539
-5.77246e-05
0.0012314
-5.90772e-05
0.00123758
-6.00201e-05
0.00124365
-6.08046e-05
0.00124912
-6.13396e-05
0.00125484
-6.14071e-05
0.00126104
-6.11464e-05
0.00126732
-6.08842e-05
0.00127398
-6.07703e-05
0.00128034
-6.54405e-05
0.00128595
-0.000120269
0.00129453
-0.00034581
0.0013268
-0.000418019
0.00142102
-0.000365581
0.0015146
-0.000299366
0.00159329
-0.000283059
0.00164508
-0.00024563
0.00168022
-0.000205453
0.00169352
-0.000158672
0.00170183
-0.000124177
0.00171894
-9.26046e-05
0.00172913
-7.09843e-05
0.00173922
-5.12662e-05
0.00174304
-3.81641e-05
0.0017447
-2.80874e-05
0.00174573
-2.09521e-05
0.00174488
-1.1354e-05
0.00174695
-5.30605e-06
0.00174251
5.24643e-06
0.00173623
2.09264e-05
0.00171695
4.93131e-05
0.00167366
0.000102608
0.00159563
0.000182576
0.00144944
0.000300501
0.00125797
0.000409489
0.00110992
0.000468848
0.00102745
0.000484467
0.000974894
0.000472785
0.000936255
0.000444378
0.000904174
0.000419284
0.000880607
0.000400854
0.000859684
0.000378281
0.000832884
0.000356569
0.000805356
0.000342028
0.000773003
0.000319236
0.000740443
0.00029612
0.000710252
0.00028362
0.000680701
0.000269555
0.000650343
0.000258223
0.000615946
0.00024793
0.000583293
0.000238591
0.0005549
0.000231072
0.000528207
0.000211923
0.000500498
0.000184255
0.000472723
0.000172475
0.000441993
0.000176394
0.00041055
0.000167913
0.000379417
0.000159635
0.000350996
0.000146384
0.000323629
0.000147994
0.000296407
0.000141971
0.000268321
0.000145331
0.000241504
0.000139371
0.000217566
0.000147399
0.000196019
0.000139901
0.000177579
0.000149451
0.000159723
0.000139979
0.000141767
0.000140119
0.00012142
0.000135887
9.87873e-05
0.00013967
7.54564e-05
0.000144305
5.12558e-05
0.000161907
2.61087e-05
-3.30838e-05
-3.60577e-05
0.000807485
-3.89715e-05
0.000821461
-4.17899e-05
0.000835693
-4.44793e-05
0.000850176
-4.70084e-05
0.0008649
-4.9349e-05
0.000879846
-5.1476e-05
0.000894991
-5.33679e-05
0.000910304
-5.50071e-05
0.000925751
-5.63803e-05
0.000941293
-5.74779e-05
0.00095689
-5.82945e-05
0.000972498
-5.88284e-05
0.000988071
-5.90817e-05
0.00100356
-5.90597e-05
0.00101893
-5.87705e-05
0.00103413
-5.82252e-05
0.00104911
-5.74366e-05
0.00106384
-5.64197e-05
0.00107828
-5.51905e-05
0.00109238
-5.3766e-05
0.00110612
-5.21646e-05
0.00111947
-5.04019e-05
0.00113239
-4.85011e-05
0.00114487
-4.64697e-05
0.00115687
-4.43373e-05
0.0011684
-4.21095e-05
0.0011794
-3.98051e-05
0.00118991
-3.74328e-05
0.00119988
-3.50312e-05
0.00120939
-3.25829e-05
0.00121826
-3.01013e-05
0.0012265
-2.75781e-05
0.0012344
-2.51314e-05
0.00124176
-2.25475e-05
0.0012483
-2.00845e-05
0.00125457
-1.75566e-05
0.00126038
-1.50643e-05
0.00126539
-1.2572e-05
0.00126989
-1.01298e-05
0.00127408
-7.6659e-06
0.0012778
-5.21734e-06
0.00128078
-2.79165e-06
0.00128324
-4.05016e-07
0.00128542
-5.98008e-05
0.0012872
-6.19252e-05
0.00129253
-6.36684e-05
0.00129772
-6.51088e-05
0.00130277
-6.61866e-05
0.00130821
-6.70093e-05
0.00131348
-6.74528e-05
0.00131893
-6.7554e-05
0.00132458
-6.72395e-05
0.00133026
-6.6653e-05
0.00133598
-6.66118e-05
0.0013418
-7.3711e-05
0.00134667
-0.000154377
0.0013541
-0.00047993
0.00139049
-0.00052536
0.0014724
-0.000449857
0.00155298
-0.000356473
0.00163865
-0.000323247
0.00170688
-0.000267774
0.00176173
-0.000219113
0.00179087
-0.000173353
0.00181167
-0.000129554
0.00181399
-9.5232e-05
0.0018139
-7.09714e-05
0.00181713
-5.04709e-05
0.00181073
-3.67282e-05
0.0018015
-2.28852e-05
0.00179282
-1.50535e-05
0.00178381
-1.26447e-06
0.00177069
4.73858e-06
0.00174363
2.63719e-05
0.00169339
6.65279e-05
0.0016049
0.00012629
0.00143625
0.000247312
0.00122152
0.000369701
0.00105607
0.000443132
0.000947777
0.000489439
0.000876079
0.000519048
0.000840458
0.000522161
0.000826577
0.000507771
0.000819128
0.000480726
0.000815295
0.000454989
0.000809776
0.000433335
0.000795445
0.000404933
0.000776248
0.000386622
0.000752224
0.000372731
0.000726217
0.000351001
0.000704922
0.000332532
0.000683973
0.000318179
0.000658677
0.000302452
0.000629002
0.000288142
0.000596931
0.000276239
0.000566524
0.000267369
0.000540948
0.00026049
0.000516077
0.000240981
0.00049023
0.000214089
0.000464409
0.000205047
0.000433992
0.000206903
0.000400874
0.000195405
0.000370568
0.000185919
0.00034321
0.000172188
0.000316785
0.000173717
0.000291164
0.000165327
0.000265004
0.000167267
0.000239749
0.000161555
0.000217233
0.000168689
0.00019729
0.000162619
0.00018039
0.000171954
0.00016335
0.000162846
0.000145383
0.000163764
0.000124466
0.000158674
0.000100094
0.00016233
7.50608e-05
0.000166466
5.03797e-05
0.000184189
2.4984e-05
-4.68079e-05
-5.00336e-05
0.000820535
-5.3203e-05
0.000836449
-5.62731e-05
0.0008526
-5.92029e-05
0.000868983
-6.19544e-05
0.00088559
-6.44929e-05
0.000902401
-6.6788e-05
0.000919393
-6.88134e-05
0.000936534
-7.05478e-05
0.000953789
-7.19743e-05
0.000971119
-7.30815e-05
0.000988478
-7.38622e-05
0.00100582
-7.43143e-05
0.00102311
-7.44398e-05
0.00104028
-7.42447e-05
0.00105729
-7.37386e-05
0.0010741
-7.29342e-05
0.00109066
-7.18468e-05
0.00110692
-7.0494e-05
0.00112285
-6.88947e-05
0.00113841
-6.70686e-05
0.00115355
-6.50383e-05
0.00116826
-6.28229e-05
0.00118249
-6.04448e-05
0.00119623
-5.79249e-05
0.00120945
-5.52783e-05
0.00122214
-5.25335e-05
0.00123427
-4.97003e-05
0.00124584
-4.68011e-05
0.00125683
-4.3854e-05
0.00126723
-4.08358e-05
0.0012771
-3.7833e-05
0.00128629
-3.47979e-05
0.00129485
-3.17549e-05
0.00130308
-2.86916e-05
0.00131053
-2.56386e-05
0.00131724
-2.26251e-05
0.0013236
-1.96074e-05
0.00132941
-1.66149e-05
0.00133444
-1.36238e-05
0.00133896
-1.07108e-05
0.00134313
-7.7895e-06
0.0013468
-4.84731e-06
0.00134966
-1.93016e-06
0.00135205
-6.48726e-05
0.00135406
-6.71868e-05
0.00135877
-6.90399e-05
0.00136349
-7.06167e-05
0.00136801
-7.17083e-05
0.00137263
-7.24833e-05
0.00137736
-7.27312e-05
0.00138219
-7.26507e-05
0.00138714
-7.23032e-05
0.00139216
-7.15286e-05
0.00139702
-7.18307e-05
0.00140201
-8.34854e-05
0.00140781
-0.000196935
0.00141787
-0.000595391
0.00151121
-0.000620255
0.00158418
-0.000549962
0.0016399
-0.000434871
0.00170891
-0.000381566
0.0018021
-0.000300749
0.00184608
-0.000245919
0.00188004
-0.000180193
0.00189411
-0.000129753
0.00189932
-9.71735e-05
0.00190018
-6.50975e-05
0.00189252
-4.53256e-05
0.00189162
-3.1522e-05
0.00187637
-1.55725e-05
0.00184503
-2.1534e-06
0.00179068
2.77151e-05
0.00170403
5.98966e-05
0.00156414
0.000121439
0.00136491
0.000242692
0.00115609
0.00034274
0.00101431
0.000415045
0.000919702
0.000474112
0.000854227
0.00050677
0.000817061
0.000520719
0.000789542
0.000531784
0.000773361
0.00053146
0.000765912
0.000518139
0.000763627
0.000495517
0.000763233
0.000471825
0.00075874
0.000449411
0.000746476
0.000423952
0.00072798
0.000407753
0.000704401
0.000393188
0.00068287
0.000375721
0.000664317
0.00036075
0.000644164
0.000345046
0.000618779
0.000329018
0.000589373
0.000313864
0.000561197
0.000303086
0.000536343
0.000295191
0.000514152
0.000288325
0.000490679
0.000268037
0.000466308
0.000243673
0.000442638
0.000238457
0.000415944
0.000236561
0.000387654
0.000221396
0.000363542
0.000211373
0.000341473
0.000196774
0.000318676
0.000197551
0.00029458
0.000187297
0.000269435
0.000187796
0.000244472
0.00018222
0.000222054
0.00018853
0.000202635
0.000184338
0.000185537
0.000194223
0.000167219
0.000186029
0.000147672
0.000188743
0.000124923
0.000182732
9.93825e-05
0.000185567
7.37956e-05
0.000189292
4.83435e-05
0.000206141
2.28654e-05
-6.24921e-05
-6.59478e-05
0.000834816
-6.93532e-05
0.000852607
-7.26566e-05
0.000870616
-7.58091e-05
0.000888841
-7.87654e-05
0.000907272
-8.1484e-05
0.000925892
-8.39284e-05
0.000944676
-8.60672e-05
0.000963591
-8.78748e-05
0.000982601
-8.93311e-05
0.00100166
-9.0422e-05
0.00102074
-9.11388e-05
0.00103977
-9.14786e-05
0.00105871
-9.14434e-05
0.00107751
-9.10401e-05
0.00109612
-9.02796e-05
0.00111449
-8.91766e-05
0.00113258
-8.7749e-05
0.00115033
-8.60168e-05
0.00116771
-8.40026e-05
0.00118467
-8.17291e-05
0.00120118
-7.92215e-05
0.00121721
-7.65049e-05
0.00123272
-7.36014e-05
0.00124768
-7.05399e-05
0.00126208
-6.73359e-05
0.0012759
-6.40204e-05
0.00128912
-6.06087e-05
0.00130172
-5.71179e-05
0.00131372
-5.35922e-05
0.00132505
-4.99895e-05
0.00133572
-4.63758e-05
0.00134591
-4.27533e-05
0.00135527
-3.91304e-05
0.00136399
-3.54753e-05
0.00137236
-3.18907e-05
0.00137985
-2.82639e-05
0.00138661
-2.46989e-05
0.00139301
-2.11702e-05
0.00139887
-1.76209e-05
0.00140377
-1.41532e-05
0.00140821
-1.07085e-05
0.00141227
-7.26635e-06
0.00141584
-3.805e-06
0.00141859
-6.93971e-05
0.00142045
-7.18641e-05
0.00142459
-7.38963e-05
0.00142893
-7.55114e-05
0.00143336
-7.66085e-05
0.0014376
-7.72851e-05
0.00144125
-7.75395e-05
0.00144546
-7.73291e-05
0.00144979
-7.67795e-05
0.00145427
-7.58886e-05
0.00145868
-7.73746e-05
0.0014631
-9.54018e-05
0.00146858
-0.00031326
0.00148954
-0.000688253
0.00157945
-0.000673438
0.00160882
-0.000619527
0.00165372
-0.000537335
0.00171131
-0.000426966
0.00178299
-0.000332259
0.00184643
-0.000254968
0.00190363
-0.000185826
0.00192008
-0.000133822
0.00192436
-8.86108e-05
0.00190936
-6.23402e-05
0.00188904
-3.40442e-05
0.00185603
-2.40375e-06
0.00179884
3.40804e-05
0.00168664
7.86405e-05
0.0015079
0.000162612
0.00129918
0.000259881
0.0011221
0.000332816
0.00100759
0.00038526
0.000920025
0.000440924
0.000852538
0.000482931
0.000811318
0.000509326
0.00078591
0.000530347
0.000769877
0.000537214
0.000760379
0.000542525
0.000751116
0.000537929
0.000745225
0.000523369
0.000742294
0.000501239
0.000738783
0.000481012
0.000730643
0.000462892
0.000716616
0.000443557
0.000699542
0.000429076
0.000681483
0.000416779
0.000665235
0.000402607
0.000648713
0.000385541
0.00062672
0.000367906
0.000598559
0.000350427