/*--------------------------------*- C++ -*----------------------------------*\
| =========                 |                                                 |
| \\      /  F ield         | OpenFOAM: The Open Source CFD Toolbox           |
|  \\    /   O peration     | Version:  2.2.x                                 |
|   \\  /    A nd           | Web:      www.OpenFOAM.org                      |
|    \\/     M anipulation  |                                                 |
\*---------------------------------------------------------------------------*/
FoamFile
{
    version     2.0;
    format      ascii;
    class       volScalarField;
    location    "0.07";
    object      p;
}
// * * * * * * * * * * * * * * * * * * * * * * * * * * * * * * * * * * * * * //

dimensions      [1 -1 -2 0 0 0 0];

internalField   nonuniform List<scalar> 
1024
(
1
1
1
1
1
1
1
1
1
1
1
1
1
1
1
1
1
1
1
1
1
1
1
1
1
1
1
1
1
1
1
1
1
1
1
1
1
1
1
1
1
1
1
1
1
1
1
1
1
1
1
1
1
1
1
1
1
1
1
1
1
1
1
1
1
1
1
1
1
1
1
1
1
1
1
1
1
1
1
1
1
1
1
1
1
1
1
1
1
1
1
1
1
1
1
1
1
1
1
1
1
1
1
1
1
1
1
1
1
1
1
1
1
1
1
1
1
1
1
1
1
1
1
1
1
1
1
1
1
1
1
1
1
1
1
1
1
1
1
1
1
1
1
1
1
1
1
1
1
1
1
1
1
1
1
1
1
1
1
1
1
1
1
1
1
1
1
1
1
1
1
1
1
1
1
1
1
1
1
1
1
22.6909
114.663
141.458
143.502
143.557
143.561
143.57
143.558
143.572
143.549
143.58
143.564
143.571
143.565
143.568
143.565
143.572
143.556
143.569
143.561
143.57
143.566
143.568
143.568
143.565
143.566
143.557
143.571
143.566
143.573
143.565
143.568
143.563
143.567
143.562
143.569
143.566
143.571
143.565
143.569
143.566
143.568
143.564
143.564
143.566
143.566
143.571
143.567
143.569
143.564
143.566
143.562
143.566
143.567
143.57
143.567
143.569
143.566
143.568
143.565
143.566
143.566
143.567
143.568
143.567
143.568
143.566
143.567
143.564
143.566
143.566
143.568
143.568
143.567
143.567
143.565
143.566
143.565
143.567
143.567
143.569
143.568
143.568
143.567
143.567
143.565
143.566
143.565
143.567
143.567
143.568
143.566
143.566
143.565
143.565
143.566
143.567
143.568
143.567
143.567
143.566
143.566
143.565
143.566
143.566
143.567
143.567
143.567
143.566
143.565
143.565
143.565
143.565
143.567
143.567
143.567
143.567
143.566
143.566
143.565
143.566
143.566
143.567
143.567
143.567
143.566
143.566
143.565
143.566
143.566
143.567
143.567
143.567
143.567
143.567
143.566
143.566
143.566
143.566
143.567
143.567
143.567
143.566
143.566
143.566
143.566
143.567
143.568
143.568
143.568
143.567
143.567
143.566
143.566
143.566
143.567
143.567
143.568
143.568
143.567
143.567
143.566
143.566
143.567
143.568
143.568
143.568
143.567
143.567
143.566
143.567
143.567
143.567
143.567
143.567
143.567
143.566
143.566
143.566
143.566
143.566
143.567
143.567
143.567
143.567
143.567
143.566
143.566
143.566
143.567
143.567
143.568
143.568
143.567
143.567
143.567
143.566
143.566
143.566
143.566
143.566
143.566
143.566
143.565
143.565
143.566
143.567
143.568
143.569
143.569
143.57
143.57
143.57
143.57
143.57
143.57
143.57
143.57
143.57
143.57
143.571
143.577
143.594
143.628
143.702
143.838
144.109
144.692
145.604
147.087
148.151
148.868
149.365
149.71
149.926
150.042
150.108
150.154
150.183
150.188
150.187
150.188
150.192
150.194
150.192
150.192
150.189
150.187
150.186
150.187
150.19
150.193
150.193
150.192
150.189
150.187
150.186
150.187
150.19
150.194
150.195
150.195
150.191
150.185
150.184
150.184
150.191
150.198
150.2
150.2
150.182
150.17
150.177
150.205
150.213
150.189
150.171
150.184
150.195
150.191
150.187
150.188
150.19
150.19
150.19
150.19
150.19
150.189
150.189
150.189
150.188
150.189
150.189
150.189
150.19
150.19
150.19
150.19
150.189
150.189
150.189
150.19
150.19
150.191
150.191
150.192
150.192
150.192
150.192
150.192
150.192
150.191
150.191
150.19
150.189
150.189
150.189
150.189
150.189
150.188
150.187
150.187
150.187
150.186
150.184
150.183
150.186
150.19
150.185
150.185
150.207
150.236
150.228
150.241
150.319
150.398
150.432
150.56
150.724
150.833
150.918
150.964
150.987
150.997
150.999
150.998
150.996
150.989
150.984
150.981
150.98
150.979
150.979
150.98
150.98
150.979
150.979
150.979
150.979
150.979
150.98
150.98
150.98
150.98
150.98
150.98
150.98
150.98
150.98
150.98
150.98
150.98
150.98
150.98
150.98
150.98
150.98
150.98
150.98
150.98
150.98
150.98
150.98
150.98
150.98
150.98
150.98
150.98
150.98
150.98
150.98
150.98
150.98
150.98
150.98
150.98
150.98
150.98
150.98
150.98
150.98
150.981
150.98
150.981
150.98
150.981
150.98
150.981
150.981
150.981
150.981
150.981
150.981
150.981
150.98
150.981
150.98
150.981
150.98
150.981
150.98
150.981
150.98
150.981
150.981
150.981
150.981
150.981
150.981
150.981
150.981
150.981
150.981
150.981
150.981
150.981
150.981
150.981
150.981
150.981
150.98
150.981
150.98
150.981
150.98
150.981
150.98
150.981
150.98
150.981
150.98
150.981
150.98
150.981
150.98
150.981
150.98
150.981
150.98
150.981
150.98
150.981
150.98
150.981
150.98
150.981
150.98
150.981
150.98
150.981
150.979
150.981
150.979
150.981
150.979
150.981
150.979
150.981
150.979
150.981
150.979
150.981
150.979
150.981
150.979
150.981
150.979
150.982
150.979
150.982
150.979
150.982
150.978
150.982
150.978
150.982
150.978
150.982
150.978
150.982
150.978
150.983
150.978
150.983
150.978
150.983
150.977
150.983
150.977
150.983
150.977
150.984
150.977
150.984
150.977
150.984
150.976
150.985
150.976
150.985
150.976
150.985
150.975
150.986
150.975
150.986
150.975
150.987
150.974
150.987
150.974
150.988
150.973
150.988
150.973
150.989
150.972
150.99
150.971
150.99
150.971
150.991
150.97
150.992
150.969
150.993
150.968
150.994
150.967
150.995
150.966
150.996
150.965
150.997
150.964
150.998
150.963
151
150.962
151.001
150.96
151.002
150.958
151.004
150.956
151.006
150.954
151.008
150.952
151.01
150.95
151.012
150.948
151.014
150.945
151.017
150.943
151.02
150.94
151.023
150.936
151.026
150.933
151.029
150.929
151.033
150.926
151.037
150.921
151.042
150.916
151.046
150.911
151.051
150.906
151.056
150.9
151.062
150.894
151.069
150.887
151.075
150.88
151.083
150.872
151.091
150.864
151.099
150.855
151.109
150.845
151.118
150.835
151.129
150.824
151.14
150.812
151.153
150.799
151.166
150.785
151.18
150.769
151.195
150.753
151.211
150.735
151.229
150.716
151.248
150.695
151.268
150.673
151.291
150.65
151.314
150.624
151.34
150.597
151.367
150.567
151.396
150.534
151.427
150.498
151.461
150.46
151.498
150.418
151.537
150.375
151.582
150.332
151.628
150.274
151.664
150.21
151.726
150.175
151.807
150.109
151.819
149.958
151.823
149.918
152.071
150.063
152.247
149.71
151.625
149.068
152.023
149.938
153.211
138.119
78.1066
20.6862
20
20
20
20
20
20
20
20
20
20
20
20
20
20
20
20
20
20
20
20
20
20
20
20
20
20
20
20
20
20
20
20
20
20
20
20
20
20
20
20
20
20
20
20
20
20
20
20
20
20
20
20
20
20
20
20
20
20
20
20
20
20
20
20
20
20
20
20
20
20
20
20
20
20
20
20
20
20
20
20
20
20
20
20
20
20
20
20
20
20
20
20
20
20
20
20
20
20
20
20
20
20
20
20
20
20
20
20
20
20
20
20
20
20
20
20
20
20
20
20
20
20
20
20
20
20
20
20
20
20
20
20
20
20
20
20
20
20
20
20
20
20
20
20
20
20
20
20
20
20
20
20
20
20
20
20
20
20
20
20
20
20
20
20
20
20
)
;

boundaryField
{
    front-back
    {
        type            empty;
    }
    inlet-outlet
    {
        type            zeroGradient;
    }
    top-down
    {
        type            empty;
    }
}


// ************************************************************************* //
