/*--------------------------------*- C++ -*----------------------------------*\
| =========                 |                                                 |
| \\      /  F ield         | OpenFOAM: The Open Source CFD Toolbox           |
|  \\    /   O peration     | Version:  2.2.x                                 |
|   \\  /    A nd           | Web:      www.OpenFOAM.org                      |
|    \\/     M anipulation  |                                                 |
\*---------------------------------------------------------------------------*/
FoamFile
{
    version     2.0;
    format      ascii;
    class       surfaceScalarField;
    location    "2.28";
    object      cfmax;
}
// * * * * * * * * * * * * * * * * * * * * * * * * * * * * * * * * * * * * * //

dimensions      [0 3 -1 0 0 0 0];

internalField   nonuniform List<scalar> 
79600
(
0.043925
0.0425075
0.0465267
0.0447561
0.0476079
0.0456929
0.0481531
0.0461879
0.0487004
0.0460982
0.0491826
0.0458171
0.0497761
0.0458612
0.0510219
0.045994
0.0542518
0.0448469
0.0598429
0.0435777
0.0619931
0.0400661
0.0623131
0.0419844
0.0620083
0.0446802
0.0614574
0.0465012
0.0609822
0.0475492
0.0606246
0.0483026
0.0606886
0.0488687
0.0610429
0.0490827
0.0615384
0.0493202
0.0620224
0.049275
0.0623759
0.049204
0.0627028
0.0492359
0.0627766
0.048991
0.0623181
0.0491086
0.0620233
0.0489793
0.0617662
0.0489317
0.0613224
0.049223
0.060793
0.0493861
0.0602654
0.0496434
0.0599433
0.0496127
0.059746
0.0497368
0.0595265
0.0498803
0.059305
0.0499753
0.0590089
0.0499663
0.0587621
0.049943
0.0586309
0.0498531
0.0584663
0.0498228
0.0582761
0.0498754
0.0580813
0.049936
0.0576502
0.0499653
0.0572851
0.0499814
0.056918
0.050093
0.0566174
0.0501753
0.0562608
0.0504793
0.0559165
0.0507282
0.0555288
0.0507671
0.0553408
0.0506577
0.0551232
0.0507985
0.0548928
0.0509849
0.0545501
0.0509919
0.0544221
0.0510271
0.0544109
0.0511735
0.0544428
0.0514007
0.0544745
0.0514886
0.0546446
0.0515608
0.0547229
0.0518061
0.0548222
0.0519925
0.0548374
0.0522764
0.0548976
0.0524891
0.0549551
0.0527523
0.0549857
0.0531501
0.0549544
0.0536003
0.0548687
0.0540969
0.0547151
0.054695
0.0545313
0.0553724
0.0543005
0.0561567
0.053908
0.0570501
0.0536978
0.0579874
0.0531693
0.0586779
0.0525734
0.0592978
0.0521229
0.0597897
0.0519789
0.0601585
0.0518105
0.0604479
0.0516219
0.0604376
0.0514226
0.0600418
0.0511241
0.0596793
0.0507543
0.0591454
0.0503225
0.0587283
0.0497934
0.0579758
0.0491864
0.0571487
0.0485951
0.0560889
0.0476249
0.0549621
0.0467268
0.0538985
0.0459434
0.053061
0.0453469
0.0521249
0.0447312
0.0512539
0.0440708
0.0504339
0.0434231
0.0496306
0.0426424
0.0488591
0.0417793
0.0478117
0.0413152
0.0468222
0.041873
0.0455379
0.0421008
0.0442232
0.043059
0.0422864
0.0446039
0.0410366
0.0434897
0.03991
0.0433391
0.0386473
0.0427393
0.039747
0.0403286
0.0397302
0.0408791
0.0418983
0.0435478
0.0426699
0.044374
0.0428308
0.0446342
0.0415982
0.0444879
0.0412531
0.0436374
0.0401149
0.0429177
0.0416229
0.042143
0.0430034
0.0417586
0.0443659
0.0416121
0.0452299
0.0420121
0.0463035
0.0427912
0.0472887
0.043456
0.0480299
0.0440268
0.0489285
0.0447725
0.0497315
0.0453017
0.0508407
0.0459597
0.0516907
0.0470029
0.0528962
0.0480026
0.0540956
0.0487968
0.0551487
0.0492777
0.0559697
0.0496177
0.0567422
0.0500583
0.0573916
0.0503704
0.0579677
0.0505454
0.0584534
0.0503837
0.0586607
0.0502891
0.0583349
0.0502546
0.0581603
0.0502466
0.057694
0.0503745
0.057372
0.050999
0.0568771
0.0513293
0.0566453
0.0518663
0.0557013
0.0524098
0.0550041
0.0528265
0.0541358
0.0529959
0.0533959
0.0531686
0.0525739
0.0533369
0.0518828
0.0534103
0.051318
0.0534848
0.0508168
0.0535925
0.0504947
0.0536678
0.0502009
0.0534069
0.049998
0.0533148
0.0498452
0.0531955
0.0499572
0.0530068
0.0498183
0.0529271
0.0497362
0.0529457
0.0497815
0.0531449
0.0497914
0.0533311
0.0497644
0.0536154
0.0497536
0.0539461
0.0497432
0.0544606
0.0497545
0.0548014
0.0496748
0.0549489
0.0496425
0.0552485
0.0495927
0.0557197
0.0495116
0.0560399
0.0496478
0.0563663
0.0495804
0.0567263
0.0495637
0.0571597
0.0494303
0.0576075
0.0493154
0.0579429
0.0492112
0.0583083
0.0491881
0.058513
0.049142
0.0587586
0.0490551
0.0589012
0.0490211
0.0590694
0.0490649
0.0592057
0.0491824
0.059206
0.0492818
0.0592515
0.0493142
0.0593319
0.0492913
0.059542
0.0491899
0.0598563
0.0490617
0.0604448
0.04902
0.060817
0.0487015
0.0611008
0.0483541
0.0614275
0.0479445
0.0617072
0.0476014
0.0619518
0.047332
0.0619982
0.0473745
0.0616683
0.047485
0.061382
0.0475972
0.0610048
0.0473002
0.0607395
0.0470177
0.0607317
0.0466027
0.0610177
0.0459364
0.0614076
0.0452788
0.0619548
0.0444783
0.0621988
0.0431111
0.0617336
0.0413046
0.0589895
0.0391699
0.0530427
0.0421784
0.0496002
0.044795
0.0480576
0.0458915
0.0472624
0.0462588
0.0464493
0.0456028
0.0450619
0.0437146
0.0423771
0.0416647
0.0401196
0.0403969
0.0404964
0.04774
0.0451794
0.0484305
0.0455452
0.0489463
0.0462781
0.0494309
0.0457785
0.0498483
0.045609
0.0502458
0.0454104
0.050771
0.0452882
0.0513974
0.0450707
0.0526154
0.044967
0.0552239
0.0441881
0.059746
0.0429859
0.0617389
0.039377
0.0619644
0.04377
0.0616574
0.0463502
0.0611692
0.047882
0.0608541
0.0489706
0.0609208
0.0497882
0.0610172
0.0503751
0.061267
0.0506444
0.0617133
0.0507025
0.0622699
0.0503819
0.0626509
0.0503504
0.0629499
0.0500632
0.0631247
0.0498495
0.0631132
0.0496427
0.0628583
0.0496145
0.0624518
0.0495133
0.0621079
0.0495707
0.0616742
0.0495927
0.0611299
0.0497906
0.0606182
0.049813
0.0602308
0.0498929
0.0598587
0.0499103
0.0594605
0.0499225
0.0591298
0.0500667
0.0588368
0.0500515
0.0585943
0.0500711
0.0583527
0.0501439
0.0581676
0.0501662
0.0579064
0.0502365
0.0576183
0.0502946
0.0573632
0.0503912
0.0570777
0.0504733
0.0568446
0.0506636
0.0565912
0.0509471
0.0564555
0.0511698
0.0560472
0.0512465
0.0558708
0.0512368
0.0556929
0.0513715
0.0554489
0.0515028
0.0553138
0.0516885
0.0553397
0.0518207
0.0554162
0.0520417
0.0555293
0.052334
0.055649
0.052505
0.0557748
0.0527208
0.0559159
0.0528812
0.0561042
0.053209
0.0562993
0.0535449
0.0564561
0.0538865
0.0564794
0.0542967
0.0563841
0.0547144
0.0561924
0.055202
0.0560115
0.0558436
0.0559591
0.0565659
0.0555182
0.0572731
0.0550735
0.0580758
0.0546597
0.0587537
0.0541115
0.0594311
0.0537233
0.0598617
0.0532756
0.0602868
0.0528026
0.0603697
0.0524749
0.0602984
0.0521016
0.0601889
0.0517664
0.0599323
0.0513261
0.0596333
0.0508249
0.0591086
0.0502732
0.058589
0.0496413
0.05768
0.0488573
0.0567352
0.0479742
0.0557223
0.0471865
0.0548244
0.0465558
0.0540503
0.0459375
0.0531539
0.0452825
0.0523188
0.0445396
0.0515969
0.0439151
0.050709
0.0433139
0.0497705
0.0426219
0.0489093
0.0415606
0.0478189
0.0415446
0.0467816
0.0418268
0.0452565
0.0423885
0.0441368
0.0428258
0.0420553
0.0428742
0.0399289
0.0425094
0.0393859
0.040938
0.0405148
0.0406799
0.0423916
0.0438331
0.0440629
0.0451503
0.0431615
0.0453438
0.043393
0.0453135
0.0433434
0.0444917
0.0415421
0.0440993
0.0408784
0.0437108
0.0406422
0.0430011
0.0417599
0.0422989
0.0428632
0.0419224
0.0439791
0.0415527
0.0450689
0.042132
0.0459652
0.0428961
0.0467162
0.0434364
0.047548
0.0440568
0.048443
0.0447176
0.0493843
0.0454971
0.0505349
0.0464079
0.0517582
0.0472944
0.0528455
0.0479217
0.0537619
0.0484556
0.0546146
0.0490044
0.0555578
0.0491304
0.0563605
0.0491784
0.0567753
0.0487831
0.0566657
0.0483972
0.0566286
0.0480793
0.0565312
0.0477935
0.0563746
0.0478204
0.0561357
0.0478959
0.0562827
0.0483046
0.0559576
0.0486967
0.055707
0.0492639
0.0554264
0.0497077
0.0548207
0.05005
0.0540107
0.0505185
0.053109
0.0509418
0.0521841
0.0512792
0.0513959
0.051448
0.0508349
0.0515021
0.0502951
0.0514904
0.0497658
0.0514241
0.0493432
0.0513341
0.0490425
0.0511296
0.0486567
0.0508552
0.0483794
0.0507483
0.0481766
0.0508492
0.0483553
0.0509626
0.0484757
0.0512717
0.0484889
0.051518
0.0484757
0.0519221
0.0484669
0.0523265
0.0485324
0.0526365
0.0485666
0.0531058
0.0485286
0.0536184
0.0485995
0.05397
0.0486147
0.054251
0.0485088
0.0546565
0.0484393
0.0550799
0.048525
0.0554225
0.04856
0.0557614
0.048679
0.0561788
0.0486573
0.0566175
0.0486021
0.0571694
0.0486076
0.0575396
0.0486216
0.0579758
0.0486116
0.0581483
0.0484443
0.0583412
0.0483802
0.0585092
0.0481882
0.058707
0.0481739
0.058738
0.0482422
0.0586584
0.0482881
0.0585652
0.0482769
0.0585033
0.0482292
0.0584935
0.0482507
0.058736
0.0482794
0.0591807
0.0482434
0.0594849
0.0481082
0.05981
0.0478661
0.0603019
0.0473891
0.0606798
0.0470004
0.060913
0.0467747
0.0609211
0.0465978
0.0606849
0.0464899
0.0604574
0.0462377
0.0601551
0.0460887
0.0600477
0.0457308
0.0603019
0.0450418
0.0608329
0.0444743
0.0617572
0.0438445
0.0623404
0.043344
0.062392
0.0429548
0.0615481
0.0425165
0.0581438
0.0422382
0.0518876
0.0416483
0.0479517
0.0439975
0.0458092
0.045118
0.0426973
0.0432593
0.04046
0.0408734
0.0414708
0.0399986
0.0436364
0.041514
0.043417
0.0494015
0.0455983
0.0498737
0.0458623
0.0502118
0.0454916
0.0506101
0.0454109
0.0510151
0.0452782
0.0514135
0.0450687
0.0519207
0.0450086
0.0524936
0.0448519
0.052921
0.0447401
0.0538824
0.0444027
0.0559963
0.0437691
0.0597101
0.0424586
0.0615968
0.039716
0.061892
0.0453182
0.0616429
0.0479661
0.0610276
0.0494397
0.0606444
0.0502507
0.0605369
0.0509967
0.0607206
0.0513839
0.0610375
0.0516471
0.0614445
0.0515573
0.0621083
0.0513854
0.0625746
0.0510272
0.0628888
0.0507126
0.0630882
0.0505395
0.0631792
0.050355
0.0630244
0.0501562
0.062812
0.0500526
0.0625855
0.0499981
0.0622383
0.0500459
0.0617745
0.0501588
0.0612906
0.0500836
0.0608337
0.0501583
0.060372
0.0501211
0.0598842
0.050204
0.0594197
0.0502043
0.0590067
0.0502174
0.0586348
0.0502371
0.0582797
0.0502738
0.0579693
0.0503337
0.057735
0.0504541
0.0575047
0.0505783
0.0572813
0.0506926
0.0571169
0.0507794
0.0569961
0.0508856
0.0568527
0.0510789
0.0566681
0.0513421
0.056399
0.0514334
0.0563282
0.0515788
0.0562266
0.05182
0.05616
0.0521411
0.0561446
0.0523581
0.0562716
0.0525946
0.0563872
0.0529443
0.0565185
0.0531843
0.0566977
0.0534757
0.0568909
0.0536949
0.0570703
0.0540592
0.0571539
0.0543536
0.0571809
0.0545876
0.0571239
0.0549559
0.0570314
0.0555563
0.0569084
0.0560688
0.0564651
0.0567126
0.0562253
0.057362
0.0557145
0.0579434
0.0550458
0.0585201
0.0545839
0.0589083
0.0541128
0.0595451
0.0536717
0.0597193
0.0531956
0.0599812
0.0528324
0.0600925
0.0525387
0.0600838
0.0521084
0.0600472
0.0517488
0.059782
0.05121
0.0593796
0.0506557
0.0587779
0.0499687
0.0580308
0.0491415
0.057174
0.0483633
0.0564102
0.0478026
0.055643
0.0471441
0.0548571
0.0464928
0.0541952
0.0457632
0.0535076
0.0451535
0.052656
0.0443955
0.051762
0.0437359
0.0508282
0.0431024
0.0498669
0.0422595
0.0488517
0.0411503
0.0478591
0.0410486
0.0465385
0.0423822
0.0450545
0.0418771
0.0429281
0.0421041
0.0410517
0.0410803
0.0413966
0.039105
0.042234
0.041698
0.0444489
0.0449679
0.0457061
0.0462096
0.0453785
0.0466049
0.0436033
0.0457707
0.0440462
0.0456811
0.0435959
0.0444342
0.0414393
0.0435151
0.0403952
0.0432278
0.040481
0.0428488
0.0415466
0.0423345
0.042589
0.0419903
0.0437649
0.0417757
0.0447696
0.0420736
0.0456392
0.042721
0.0464177
0.0434547
0.0471581
0.04403
0.0481616
0.0448825
0.0493099
0.0456925
0.0505052
0.0466025
0.0514476
0.0472997
0.0523888
0.047719
0.0533145
0.0479302
0.0538847
0.0479076
0.0543485
0.0479488
0.0546229
0.0474655
0.0546766
0.0469293
0.0544407
0.0460582
0.054432
0.0455963
0.0541954
0.0452172
0.054465
0.0450038
0.0544476
0.0446932
0.0544301
0.0446108
0.0545419
0.0447336
0.0546293
0.0450738
0.0544027
0.0458071
0.0540192
0.0463303
0.0534323
0.046972
0.0525981
0.0476351
0.0515749
0.0480318
0.0507483
0.0482999
0.0502216
0.0484237
0.0493993
0.0484569
0.0488213
0.0483831
0.0481646
0.0483103
0.0477937
0.0482243
0.0473431
0.0481773
0.0471304
0.0483395
0.0468692
0.0485185
0.046677
0.0488285
0.0467358
0.0491569
0.0467584
0.0494304
0.0468731
0.0497705
0.0469518
0.0501837
0.0470105
0.0506653
0.0470494
0.051005
0.0470844
0.0515693
0.0471167
0.0520184
0.047113
0.0522814
0.0471994
0.0525957
0.0471379
0.0529684
0.0471198
0.0533923
0.0471846
0.0537491
0.04733
0.0541406
0.0473515
0.0545792
0.0473575
0.0550451
0.0473491
0.0555479
0.0474656
0.0560497
0.0474563
0.0564759
0.0474939
0.0568607
0.0473971
0.0571804
0.0473218
0.0573776
0.0472062
0.0576075
0.0471629
0.0577189
0.0470207
0.0578439
0.0469794
0.0577971
0.0471163
0.0576859
0.04717
0.0576215
0.0469904
0.0577094
0.0470154
0.0579238
0.0470138
0.0581323
0.0471497
0.0582952
0.0467847
0.0585635
0.0464523
0.0590592
0.0461909
0.0593097
0.0459644
0.0596112
0.0456715
0.0596863
0.0453132
0.0597843
0.0450622
0.059687
0.0447949
0.059583
0.0445769
0.059758
0.0444313
0.0602911
0.044463
0.0613594
0.0451865
0.0618113
0.0467411
0.0617903
0.0494112
0.0616113
0.0525607
0.0593924
0.0543716
0.0531192
0.0523447
0.0436353
0.0444496
0.0404239
0.0413566
0.042793
0.0394393
0.0451616
0.041609
0.0478072
0.0442072
0.045426
0.0505656
0.0458218
0.0509614
0.0454457
0.0513581
0.0452047
0.0517124
0.0450544
0.0521427
0.0449293
0.0525176
0.0448368
0.0528159
0.0447961
0.0532871
0.0447001
0.053921
0.0446488
0.0544625
0.0444126
0.0551496
0.0441324
0.0567184
0.0433314
0.059204
0.0418713
0.0610184
0.0409254
0.0614593
0.0464363
0.0613761
0.0495429
0.0610339
0.0508728
0.0606597
0.0517917
0.0606473
0.0523381
0.0608205
0.0527151
0.060965
0.0527481
0.0613462
0.0525852
0.0618631
0.052358
0.0623398
0.0519805
0.0626895
0.0516033
0.0629619
0.051252
0.063101
0.0511394
0.0629733
0.050943
0.0627407
0.0506847
0.0625372
0.050682
0.0622308
0.0506238
0.0619134
0.0505184
0.0615658
0.0504947
0.0610827
0.0505702
0.0606374
0.0504822
0.0602475
0.0505087
0.0597194
0.050487
0.0592584
0.050551
0.0587878
0.0505815
0.0583988
0.0505457
0.0580653
0.050577
0.0577781
0.0507067
0.0575369
0.0508161
0.0572644
0.0508735
0.0570863
0.0509601
0.0569909
0.0510428
0.0569162
0.0512145
0.0568331
0.051398
0.0567831
0.0516166
0.0567641
0.0518176
0.056786
0.0522165
0.0567889
0.0525912
0.0568607
0.0529233
0.0570717
0.0533381
0.0572382
0.0536852
0.0573294
0.0539964
0.0574001
0.0543048
0.0574836
0.0545529
0.0574987
0.0547762
0.0574736
0.0550631
0.0570712
0.0554251
0.0569
0.0560315
0.05663
0.0565059
0.055929
0.0569934
0.0555606
0.0574416
0.0551906
0.0581004
0.0545803
0.05865
0.054036
0.0588657
0.0535807
0.0592608
0.0532799
0.0595059
0.0528265
0.0596865
0.0524853
0.059833
0.0522231
0.0598162
0.0518527
0.0596796
0.0514209
0.0593789
0.0508641
0.0588942
0.050029
0.0582458
0.0493824
0.0575597
0.0488348
0.0570461
0.0481944
0.0563388
0.0475414
0.0557097
0.0469185
0.0549622
0.0463286
0.0543234
0.0457924
0.0535418
0.0449284
0.0527804
0.0440663
0.0520157
0.0433651
0.0510881
0.0428252
0.0498947
0.0414934
0.0487765
0.0405521
0.0478577
0.0411647
0.0457829
0.0410699
0.0436026
0.0408896
0.0425417
0.0395506
0.0431724
0.0404365
0.044242
0.0437482
0.0466237
0.0459818
0.0470627
0.0466117
0.0465586
0.0470859
0.0457353
0.0463283
0.0438379
0.046363
0.0439957
0.0449901
0.0427966
0.0441732
0.0411716
0.0436543
0.039688
0.0432139
0.040212
0.0428095
0.0413272
0.042532
0.04238
0.0422364
0.0432537
0.0420072
0.0441936
0.0422888
0.0450955
0.042795
0.0458257
0.0434327
0.0468251
0.0442898
0.0479594
0.045004
0.0491684
0.0456259
0.050161
0.0461804
0.050753
0.0467037
0.0515918
0.0469932
0.0523808
0.0469453
0.052927
0.0463607
0.0529738
0.0456288
0.052629
0.0448916
0.0522206
0.0442942
0.0520714
0.0438289
0.0523451
0.0438724
0.0520102
0.0438989
0.0522426
0.043844
0.0526045
0.0435277
0.0532168
0.0428808
0.0536276
0.0418167
0.053981
0.0405805
0.0540565
0.0405909
0.0538499
0.0415674
0.0534484
0.0426606
0.0526444
0.0436191
0.051402
0.0445643
0.0505651
0.0451827
0.0498069
0.0456439
0.0490061
0.0459608
0.0481684
0.0459863
0.0474261
0.0459753
0.046578
0.0461017
0.0459981
0.0462117
0.0455959
0.0462629
0.0454806
0.0464657
0.0454624
0.0468271
0.0454819
0.0470603
0.0455156
0.0472042
0.0455978
0.0473931
0.0455653
0.04774
0.045641
0.0480682
0.0456923
0.0484654
0.0457445
0.0488443
0.0457604
0.049328
0.0457736
0.0497621
0.0459035
0.0501498
0.045927
0.0505206
0.0460136
0.0509321
0.0460213
0.0513603
0.0461214
0.0518193
0.046308
0.0522213
0.046478
0.0526463
0.0465555
0.0531331
0.0466511
0.0536872
0.0466903
0.0541486
0.0467373
0.0545741
0.0467803
0.0549758
0.0467709
0.0553799
0.046683
0.0556942
0.0465855
0.0560253
0.0463068
0.0563691
0.0462331
0.0567068
0.0462324
0.056951
0.0462102
0.0568954
0.0461805
0.0567715
0.0461361
0.0567596
0.0461407
0.0568514
0.0462508
0.0567402
0.0462055
0.0567424
0.0457832
0.0569112
0.0454533
0.057374
0.0452199
0.0576977
0.0451667
0.0578338
0.0450162
0.0578748
0.0448833
0.0580936
0.0449212
0.0582706
0.0451285
0.0586982
0.0459563
0.0591447
0.0472895
0.0594834
0.0499475
0.0596901
0.0524025
0.0601419
0.0535531
0.0602323
0.0555714
0.0594296
0.0574466
0.055454
0.0555289
0.0462214
0.0510537
0.0448317
0.0445318
0.0476137
0.0434598
0.049024
0.0448053
0.0495633
0.0453323
0.0460421
0.0515797
0.0452214
0.0519873
0.0451078
0.0524894
0.044913
0.0528943
0.0447591
0.0533215
0.0446422
0.0537048
0.0445096
0.0541517
0.0445346
0.0545554
0.0444492
0.0549636
0.0444664
0.0555436
0.0443322
0.0558738
0.0442367
0.0565174
0.0437049
0.0575753
0.0432243
0.059347
0.0415744
0.060769
0.0420245
0.0610455
0.0477233
0.060892
0.0505855
0.0606574
0.052235
0.0603563
0.0528977
0.0604424
0.0533641
0.0605023
0.0536029
0.0607608
0.0535038
0.0610866
0.0533566
0.061459
0.0530331
0.0618218
0.0527107
0.0621631
0.052379
0.0623884
0.0521071
0.0625197
0.0518102
0.0625572
0.0515981
0.0624468
0.0513991
0.0622515
0.0512106
0.0620005
0.0511405
0.0616725
0.0510139
0.0613301
0.0509824
0.0609104
0.0509382
0.0605426
0.0508716
0.0601737
0.0508145
0.059754
0.0508276
0.059317
0.050827
0.058893
0.050979
0.0584924
0.0510477
0.0581493
0.0510922
0.0578978
0.0511678
0.0576141
0.0513491
0.0573784
0.0514051
0.0571666
0.0514014
0.0571322
0.0513752
0.0570731
0.0515327
0.0570852
0.0516525
0.0570783
0.051814
0.0571608
0.0521187
0.0571985
0.0525653
0.0572342
0.0530289
0.0573151
0.0534696
0.0574331
0.053886
0.057455
0.0542509
0.0573995
0.0545764
0.0571288
0.0548482
0.057037
0.0552181
0.056953
0.0557229
0.0562774
0.0559312
0.0558732
0.0562343
0.0556359
0.0568819
0.0552426
0.0574379
0.0546116
0.0577125
0.0542028
0.0580135
0.0539196
0.0586144
0.0534862
0.0589131
0.0531401
0.0591422
0.0528248
0.0593466
0.0524889
0.0594889
0.0521757
0.0595296
0.0518076
0.0593689
0.0513243
0.0591542
0.0508607
0.058865
0.0502328
0.0584599
0.049683
0.0579904
0.0490572
0.0574025
0.0485286
0.0570427
0.0479601
0.056306
0.0474945
0.0557469
0.0467666
0.0550938
0.046065
0.0545189
0.0453405
0.0538828
0.0446653
0.0530008
0.0439087
0.0520659
0.0431507
0.0510209
0.0422106
0.0500072
0.0406099
0.0485451
0.0397673
0.0466915
0.0397734
0.0448214
0.0394188
0.0443284
0.0393845
0.0447553
0.0424099
0.046444
0.0455577
0.0488407
0.0473417
0.0489663
0.0479022
0.0481564
0.0479681
0.0469
0.0474035
0.046021
0.0465553
0.0438916
0.0456632
0.0433122
0.044816
0.0420632
0.0441592
0.0406658
0.0437573
0.0393828
0.0433489
0.0399658
0.0430494
0.0410692
0.0428018
0.0419902
0.0427003
0.042942
0.042669
0.0437022
0.0426843
0.0445789
0.0428507
0.0454019
0.0435998
0.0466676
0.044344
0.0477187
0.0448803
0.0486162
0.0454256
0.0491059
0.04581
0.0498841
0.0459839
0.0504137
0.0457548
0.0506115
0.0452521
0.050537
0.0454502
0.0504558
0.0459182
0.0505774
0.0465239
0.0500754
0.0467182
0.0495702
0.0469098
0.0495086
0.0472598
0.0499541
0.0476468
0.0503974
0.0479106
0.0511381
0.0478813
0.0520078
0.0470722
0.0528732
0.0464389
0.0535093
0.045471
0.0539255
0.0439772
0.0539207
0.042528
0.0537662
0.0405404
0.0530576
0.0386022
0.0518575
0.0400873
0.0507218
0.0414894
0.0494933
0.0423756
0.0482562
0.0430109
0.0471957
0.0434148
0.0460771
0.0434804
0.045314
0.0435692
0.0447163
0.0435991
0.0444316
0.0435851
0.0442574
0.0436664
0.0442574
0.0439532
0.0443947
0.0443177
0.0444419
0.0446732
0.0445811
0.0450383
0.0445437
0.045444
0.0446083
0.0459262
0.0446235
0.0464054
0.0445536
0.0468449
0.0445465
0.0473108
0.0445813
0.04783
0.0445644
0.0482909
0.0446288
0.0486958
0.0447881
0.0490422
0.0449079
0.0493472
0.0449985
0.0497457
0.0451567
0.0501059
0.0454064
0.0504022
0.0456118
0.0507494
0.0458195
0.0510195
0.0458743
0.051404
0.0459923
0.051802
0.0461389
0.0522485
0.0461638
0.0526938
0.0461355
0.0532742
0.0460193
0.0537167
0.0460383
0.0541587
0.045866
0.0546202
0.0457757
0.0550923
0.0458676
0.0551832
0.0457941
0.0553075
0.0455679
0.055397
0.0454585
0.055406
0.045315
0.0552531
0.0453304
0.0551053
0.0451211
0.054943
0.044969
0.0547781
0.0447627
0.0546187
0.0447625
0.0546451
0.044864
0.0546944
0.0454338
0.0547757
0.0465338
0.0549013
0.048129
0.0549756
0.0507058
0.0552638
0.0526051
0.0553501
0.05382
0.0553563
0.0540012
0.056286
0.0551558
0.0569053
0.0575097
0.0563658
0.0591901
0.0532702
0.0573626
0.046362
0.0551866
0.0478834
0.0526941
0.0498746
0.046728
0.0504225
0.0454875
0.0509095
0.0459429
0.0453772
0.0527162
0.0448634
0.0531559
0.044746
0.0535461
0.0446626
0.0538968
0.0446097
0.054277
0.0444139
0.0546688
0.0441782
0.0550888
0.0440541
0.0555412
0.0438858
0.0560456
0.0439673
0.0565486
0.0439362
0.0569977
0.0440553
0.0572028
0.0438985
0.0575813
0.043596
0.0581863
0.0429024
0.059218
0.041331
0.0604888
0.043216
0.0609096
0.0486814
0.0609056
0.0515783
0.0605607
0.0530665
0.0605588
0.0539263
0.0605249
0.0543829
0.0605983
0.0544571
0.060731
0.0544347
0.0609603
0.0540776
0.0611663
0.0538741
0.061387
0.0534601
0.0616349
0.0530826
0.0618211
0.0528786
0.061945
0.0526464
0.0620227
0.0524617
0.0618972
0.0522266
0.0617525
0.0520488
0.0614397
0.0519025
0.0612437
0.0517145
0.0609866
0.0516751
0.0606034
0.0515432
0.060217
0.0514567
0.0598828
0.0514135
0.0594961
0.0513545
0.0591589
0.0513648
0.0588106
0.0513904
0.0583913
0.0515214
0.0580732
0.0515697
0.0578193
0.0518402
0.0575437
0.0519393
0.0573199
0.0519824
0.0571401
0.0520184
0.0570112
0.0520681
0.0569912
0.0521768
0.0570698
0.0523142
0.0571676
0.052523
0.0572332
0.0528151
0.057291
0.0532061
0.0572461
0.0535605
0.0572164
0.0539045
0.0571935
0.0542304
0.0570189
0.0546192
0.056494
0.0549212
0.0561782
0.0551973
0.05616
0.0557224
0.0559044
0.0561986
0.0551629
0.0564861
0.0547697
0.0567844
0.0545126
0.057325
0.0540246
0.057793
0.0537118
0.0579511
0.0534076
0.0583369
0.053132
0.0586796
0.0528711
0.0589498
0.0525591
0.059081
0.0521414
0.0591993
0.0517679
0.0592221
0.0513951
0.0591012
0.0509068
0.0589455
0.0503923
0.0586987
0.0499056
0.0583356
0.0493288
0.0579669
0.0487631
0.057468
0.0482888
0.0569335
0.0477759
0.0564381
0.0471864
0.0559557
0.0465665
0.0553072
0.0459592
0.0546954
0.0454027
0.0538307
0.0445198
0.0530161
0.0434768
0.0519789
0.042643
0.050739
0.0419352
0.0496396
0.0402554
0.0480778
0.0395953
0.0463891
0.0396131
0.0464473
0.0414381
0.0465241
0.0438953
0.0485204
0.0473619
0.0503217
0.0491167
0.0502437
0.0494572
0.049554
0.0488886
0.0479532
0.0481194
0.0472432
0.0468239
0.0448814
0.0461218
0.043314
0.0454959
0.0425998
0.0446905
0.0415846
0.0442375
0.0403154
0.0436773
0.0393651
0.0433991
0.0397442
0.0431367
0.0406697
0.0429919
0.0415315
0.0429573
0.0423496
0.0430725
0.0431688
0.0435426
0.0440757
0.0440933
0.045125
0.044723
0.0461176
0.0451943
0.0470573
0.0456604
0.0477922
0.0460129
0.0483237
0.0463199
0.0487112
0.0463975
0.0486981
0.0466447
0.0487867
0.0469648
0.0487176
0.047464
0.0481282
0.0480517
0.0477047
0.0484819
0.0474771
0.0492874
0.0473561
0.0500865
0.0473808
0.0505461
0.0478402
0.0509905
0.0487701
0.0512623
0.0498245
0.0511151
0.0511605
0.0508954
0.0522342
0.0502827
0.053073
0.0494515
0.0536904
0.0483676
0.0540431
0.0471486
0.054021
0.0456291
0.0535822
0.0437321
0.0527194
0.0417967
0.0514188
0.0397438
0.0499941
0.037981
0.0486823
0.0385234
0.0472671
0.0392513
0.0458279
0.039679
0.0448075
0.0400004
0.0440017
0.0404874
0.0435044
0.0408968
0.0432781
0.0413179
0.043263
0.0418732
0.0433044
0.042597
0.0431429
0.0432444
0.0433474
0.0436674
0.0433782
0.0441884
0.0434303
0.0447741
0.0434881
0.0452671
0.0435772
0.0457014
0.0436632
0.0462451
0.0437048
0.0466933
0.0436578
0.047225
0.0437751
0.0478185
0.0438335
0.0483139
0.043954
0.0484959
0.0440639
0.0487959
0.0441279
0.0490681
0.0442353
0.049285
0.0443761
0.0493403
0.0445672
0.049451
0.0446245
0.049521
0.0447682
0.0496658
0.0449284
0.0498437
0.0450801
0.0499735
0.0453068
0.0502288
0.0454386
0.0504078
0.0453127
0.0506806
0.045107
0.0509258
0.0449838
0.051347
0.0450786
0.0515886
0.0451059
0.0516495
0.0450813
0.0517767
0.0449625
0.051604
0.0448444
0.0515314
0.0448079
0.0513871
0.0448527
0.0512218
0.0448925
0.0510421
0.0451759
0.0510007
0.0456942
0.0509917
0.0467082
0.0509792
0.0480944
0.051047
0.05045
0.0510399
0.0522012
0.0508316
0.0535781
0.050723
0.0545216
0.0506645
0.0555812
0.050632
0.0556198
0.0519285
0.0560805
0.0520677
0.0580949
0.0509838
0.060927
0.0460149
0.0609892
0.042152
0.06039
0.0480578
0.0573823
0.0509592
0.049512
0.0516198
0.0458068
0.0519526
0.0452569
0.0450377
0.0537892
0.0446692
0.0541312
0.0444224
0.0545274
0.0443749
0.0549862
0.0442851
0.055492
0.0441943
0.0559964
0.0440318
0.0565039
0.0438961
0.0569228
0.0436157
0.0572443
0.0436266
0.0576151
0.0435277
0.0579378
0.0435819
0.0584405
0.043627
0.0585617
0.0437239
0.0588414
0.0431832
0.0590819
0.0425189
0.0595929
0.0410794
0.0604485
0.0438783
0.0607287
0.0495969
0.0607096
0.0523876
0.0605798
0.05386
0.0604583
0.0545951
0.0605681
0.0550493
0.0606503
0.0551485
0.06086
0.0549882
0.0610554
0.0546488
0.061221
0.0543212
0.0612638
0.0540102
0.0613002
0.0537644
0.0613636
0.0534748
0.0613667
0.0532632
0.0613786
0.0530224
0.0613955
0.0529098
0.0612222
0.0527334
0.0609581
0.0525446
0.0607782
0.0524883
0.0605185
0.052412
0.0601319
0.0523929
0.0598341
0.0523365
0.059511
0.0523057
0.0591959
0.0522579
0.0588826
0.052295
0.0585676
0.0524519
0.0582756
0.052479
0.0580267
0.0524881
0.0577459
0.0524391
0.0574482
0.0525163
0.0572386
0.0525931
0.0571278
0.0526653
0.0571275
0.0528436
0.0571514
0.05301
0.0571684
0.0532768
0.0571636
0.0533699
0.0571039
0.0536016
0.0569946
0.0538321
0.0568061
0.0541997
0.0564648
0.0544637
0.0562695
0.0547492
0.0559846
0.0551507
0.0554887
0.0553709
0.0553039
0.055644
0.0552021
0.0561374
0.0546591
0.056561
0.054306
0.0568451
0.0539874
0.0571569
0.0537509
0.0577214
0.0533739
0.0580866
0.0531165
0.0582067
0.0528199
0.0585492
0.0525703
0.0588788
0.0522362
0.0590031
0.0518925
0.0590283
0.0515612
0.0590264
0.0511102
0.0589649
0.0505866
0.0588267
0.0500884
0.0586155
0.0496253
0.0583031
0.0492149
0.0579072
0.0485788
0.0574993
0.0479989
0.0571162
0.0475451
0.0566321
0.0471887
0.0559736
0.0463173
0.0553252
0.0455253
0.0545674
0.0448565
0.0536862
0.0441808
0.0528343
0.0432815
0.0521379
0.042169
0.0506205
0.0407443
0.0488423
0.0404172
0.0477298
0.0415885
0.0478522
0.0435063
0.0485569
0.0459003
0.0506947
0.0486626
0.0520549
0.0497047
0.0516536
0.0498732
0.0506953
0.0497463
0.0491908
0.0490744
0.0478186
0.0476457
0.0463554
0.0469404
0.0443329
0.0459695
0.0425998
0.0453434
0.0421798
0.0447864
0.0410893
0.0442326
0.0400369
0.0439194
0.0392676
0.0436307
0.0393536
0.0435325
0.0403028
0.0435363
0.0410968
0.0436115
0.0418703
0.0439348
0.0426785
0.044569
0.0438021
0.045219
0.0447569
0.0457404
0.0455538
0.0461401
0.0461092
0.0463613
0.0465828
0.0466656
0.0470431
0.0468952
0.0470264
0.0472011
0.0469747
0.0475634
0.0470561
0.0482914
0.0466973
0.049505
0.0461356
0.0503679
0.045064
0.0508916
0.0450164
0.0514367
0.0450858
0.0520329
0.0454722
0.0526135
0.0462795
0.0533154
0.047233
0.0537328
0.048448
0.0537468
0.0499458
0.0536846
0.05122
0.0534805
0.0524304
0.0529899
0.0533731
0.0521568
0.0539647
0.0512169
0.0542665
0.0499735
0.0541285
0.0483603
0.0534338
0.0466882
0.0521889
0.044678
0.0511286
0.0425819
0.049905
0.040683
0.0479919
0.0391412
0.0462548
0.0378831
0.0445839
0.0375274
0.0436157
0.0383809
0.0429463
0.0391312
0.0426924
0.0399056
0.0425663
0.0406203
0.042629
0.0411091
0.0424096
0.041473
0.0426414
0.0417878
0.0425824
0.0421999
0.0427022
0.0427338
0.0427095
0.0433712
0.0428646
0.0439454
0.0429813
0.0445247
0.043092
0.0450194
0.0431722
0.0455814
0.0433568
0.0460531
0.0432897
0.0465217
0.0433754
0.0471426
0.0434944
0.0474792
0.0434775
0.0479785
0.0434556
0.0480862
0.0435096
0.0482835
0.0436821
0.0483843
0.0438277
0.0483215
0.0440091
0.0482465
0.0439904
0.0481457
0.0441164
0.0480849
0.0443545
0.0479777
0.044526
0.0478204
0.0443772
0.0477183
0.0443975
0.0473552
0.0444692
0.0470752
0.0444291
0.0468157
0.044651
0.0465926
0.0447777
0.0464182
0.0449662
0.0463389
0.044982
0.0462458
0.0452037
0.0462543
0.045523
0.046374
0.0461176
0.0465105
0.0470227
0.0466304
0.0485506
0.0469276
0.0504967
0.0469514
0.0521997
0.0470118
0.053348
0.0472386
0.0545363
0.0467998
0.0555836
0.0465325
0.055598
0.0465469
0.0563928
0.0465589
0.0575048
0.0466035
0.0593958
0.0461162
0.0621937
0.0426798
0.0639835
0.041647
0.0635893
0.0425103
0.0615381
0.0463573
0.058695
0.0511679
0.052914
0.0524332
0.0462984
0.0529213
0.0449692
0.0447279
0.0548475
0.0444839
0.0552861
0.0441465
0.0557013
0.0440389
0.0561489
0.0438506
0.0565381
0.0438632
0.0569727
0.0437289
0.0574266
0.0437204
0.0578298
0.0434432
0.058172
0.0433969
0.0585255
0.0431473
0.0589027
0.043129
0.0593145
0.0430099
0.0596334
0.0430819
0.059752
0.0431218
0.0598375
0.0427585
0.0599376
0.0418885
0.0597906
0.040643
0.0604663
0.0443464
0.0607902
0.0501828
0.0607799
0.053067
0.0607597
0.0544175
0.06074
0.0551914
0.0609214
0.0555326
0.0609416
0.0557072
0.0610622
0.0555189
0.0612308
0.0552727
0.0612934
0.0548872
0.0613887
0.0545562
0.0613599
0.0541582
0.0613435
0.0539045
0.0613285
0.0537329
0.0612748
0.0536299
0.0612116
0.0534692
0.0610415
0.0534318
0.0608993
0.0532467
0.0606989
0.0531778
0.0604319
0.0531802
0.0601011
0.0531225
0.0597905
0.0529813
0.059555
0.0528848
0.0592821
0.0529543
0.0590256
0.0531677
0.0587537
0.0531832
0.0584382
0.0531457
0.058199
0.0531139
0.0579895
0.0531725
0.0577635
0.0531967
0.0576207
0.0533696
0.057514
0.0534278
0.0574307
0.0536646
0.0573723
0.053786
0.0572433
0.0541521
0.0571365
0.0540514
0.0568511
0.0543199
0.056544
0.0544605
0.0561598
0.054757
0.0558958
0.0550574
0.0556172
0.0553521
0.0551977
0.0557055
0.0547232
0.0560183
0.054559
0.0562504
0.0543431
0.0567295
0.0538013
0.0570946
0.0535301
0.0572731
0.053324
0.0576874
0.0531755
0.0580953
0.052816
0.0583298
0.0525316
0.0585484
0.0523263
0.0587739
0.0518171
0.0589862
0.0514668
0.0590391
0.0511113
0.0590353
0.0507709
0.0588306
0.0503364
0.0586505
0.0499585
0.0584566
0.0494947
0.0583974
0.0490868
0.0580737
0.0484377