/*--------------------------------*- C++ -*----------------------------------*\
| =========                 |                                                 |
| \\      /  F ield         | OpenFOAM: The Open Source CFD Toolbox           |
|  \\    /   O peration     | Version:  2.2.x                                 |
|   \\  /    A nd           | Web:      www.OpenFOAM.org                      |
|    \\/     M anipulation  |                                                 |
\*---------------------------------------------------------------------------*/
FoamFile
{
    version     2.0;
    format      ascii;
    class       volScalarField;
    location    "2.28";
    object      pB;
}
// * * * * * * * * * * * * * * * * * * * * * * * * * * * * * * * * * * * * * //

dimensions      [1 1 -3 0 0 -1 0];

internalField   nonuniform List<scalar> 
40000
(
0.0482996
0.0309288
0.0138192
0.0153706
-0.0232876
0.00693602
0.0210259
0.0510724
0.0468129
-0.0449173
-0.037312
-0.0891093
-0.0180229
-0.0340433
-0.0122167
-0.0019456
0.00751581
0.041782
-0.00934994
-0.0115173
-0.00342332
-0.0302659
-0.0306878
-0.009625
-0.00014557
0.0156301
-0.0152644
-0.0175939
-0.00544523
0.0275643
-0.0183469
-0.031452
-0.0233034
-0.0151213
-0.0031682
0.00545231
-0.00216201
-0.00303128
-0.0157802
-0.0113569
-0.00570176
-0.00990116
-0.00478278
-0.0163626
-0.015341
-0.0041681
0.0351598
0.0104019
-0.0139026
-0.000226994
0.0122093
-0.000117359
-0.012309
0.00235192
0.00634994
-0.00379359
-0.0103412
-0.00327284
-0.00322548
-0.00641145
0.00655046
0.00361741
0.0184452
-0.00644452
0.0214699
-0.0175406
0.0229302
-0.0195312
0.0236602
-0.0112957
0.0286228
-0.00273701
0.0197188
-0.00116729
0.0187372
0.0188658
-0.00895423
-0.00797616
0.0103307
-0.0111129
-0.0109546
-0.0069554
0.00226737
0.0050965
-0.00375339
-0.0151417
-0.0163592
-0.0108198
0.00261178
0.0146365
0.012682
0.0102052
-0.0590025
0.0285758
-0.0545982
0.12108
-0.161379
-0.105194
-0.0312966
0.0540074
-0.0357291
-0.0161805
-0.181183
-0.0449622
0.0274035
0.0542846
-0.0714029
-0.109464
0.0322435
0.0357724
0.000336985
0.0066154
-0.0131995
0.00168423
-0.0170293
0.00973273
0.0335375
0.00963386
-0.00566344
-0.0260453
-0.00468457
0.0220395
0.00759928
-0.0179262
-0.0260105
-0.00790743
-0.0134539
-0.0209435
-0.00941081
0.0114474
-0.0220991
0.0292751
-0.00866568
-0.015574
-0.032764
0.00526426
0.00591954
0.00516465
0.00128569
0.0158173
-0.0226868
0.00182528
0.00372977
-0.0233673
-0.00335692
0.00117382
-0.00553018
0.00654881
0.00282518
0.0079818
0.00102262
-0.0179462
-0.00845273
0.00531266
0.0109302
0.0062429
0.000460239
0.0068618
0.0149946
0.00551038
0.0021271
-0.00166492
0.00251464
-0.0072008
-0.000425125
-0.00131114
0.000100174
-0.00528341
0.00260349
0.00988844
-0.00137337
0.0155111
-0.0105782
-0.0478184
0.0102218
0.0146578
0.0341319
0.00618404
0.0409633
0.0365677
0.00362875
-0.0139322
0.0326507
-0.0188517
-0.0246543
-0.00640712
0.019841
0.0377265
0.0247093
0.025751
-0.0139372
-0.0747371
-0.0809341
0.00619936
0.00552463
-0.0138496
-0.0291045
-0.0102288
-0.00778999
-0.028268
-0.00243109
0.00806854
0.02304
0.013766
-0.0103925
0.0112706
0.00744012
-0.00319827
-0.00106865
0.0368809
0.0491798
-0.0262918
0.0497317
-0.0603128
0.0514559
0.00409177
0.0160913
-0.058852
-0.0218448
-0.00127745
0.0243582
-0.0126015
0.0339414
0.0175021
0.00997994
0.0115394
0.00470385
-0.00436897
-0.0056392
0.00240798
0.0161718
0.00457319
0.0155623
0.00326797
-0.00303823
0.00512259
0.0151811
0.00483161
0.00442204
0.00307138
0.000304103
-0.000397299
0.0020028
0.000164296
-0.0119733
-0.010566
-0.00338447
0.00418557
-0.00537113
0.0051041
0.0111039
0.0151785
0.00423258
0.0102607
0.0109997
-0.00448812
0.00385126
0.0115225
-0.00682213
-0.0103064
-0.0155645
-0.0080194
0.00121643
-0.00478163
-0.00052375
-0.00728045
0.012357
-0.00806959
-0.00491923
-0.0205028
-0.019144
-0.0148492
-0.00175528
-0.0176791
-0.00608786
-0.00408062
0.00676833
0.0172794
-0.000534604
0.00273966
0.0149493
0.0258407
-0.00246531
-0.00546603
-0.00760511
0.0112082
0.0222509
-0.0282317
-0.0303407
-0.0155
0.019548
0.0250789
-0.0827264
-0.040488
-0.033649
0.201441
-0.235047
0.215804
-0.242108
0.250831
0.0866251
0.0403798
-0.107406
0.0518163
-0.031777
0.0236886
-0.030483
-0.0359725
0.0345374
0.0390576
0.0296171
-0.0225378
-0.0131754
-0.0150898
0.00195218
0.0281252
0.0204607
-0.00844461
-0.0202975
-0.0131278
-0.0190632
-0.00726576
0.0396484
0.0178105
-0.00320016
0.0329402
0.00948676
-0.00753588
-0.0181716
0.00291849
-0.0128725
-0.00715994
0.0288307
0.0290033
0.00305046
0.00147089
-0.0143271
-0.00337579
0.00888249
-0.00883977
0.00783571
-0.000303171
-0.00814691
0.0192316
-0.0122632
-0.0113525
-0.00801002
0.00861761
-0.0134571
-0.0158814
-0.00976845
0.00814526
-0.0116667
-0.0198218
0.0110859
0.0195769
-0.00146712
-0.00616581
-0.00489989
0.000989956
0.00237189
-0.00405509
-0.0164632
-0.00872125
-0.0107385
0.0160866
-0.00263631
0.0245829
-0.0300066
-0.0117058
-0.0110994
0.0194364
0.00346863
0.0184143
-0.0128701
-0.0320824
-0.0230876
-0.00268681
-0.00641494
0.00665025
-0.0380239
-0.0303347
-0.00158906
0.0250696
0.0744705
0.0345145
0.0133879
-0.066684
-0.0294724
-0.0617009
-0.0196278
0.00370194
-0.0219585
0.0403257
-0.00239252
0.0200304
0.0520374
-0.0146217
-0.0297489
0.00395237
-0.0138954
-0.0502196
-0.0326328
-0.00824393
-0.0173423
-0.00762059
-0.0318205
-0.0413544
-0.0223994
0.00498581
0.0187477
0.0566769
-0.0175072
-0.0803756
-0.0460336
-0.0507463
0.0216903
0.00839673
0.0123567
-0.0152378
-0.0199268
-0.00668395
-0.0275606
-0.0122941
0.00199815
-0.00722414
-0.00594989
0.0120897
0.00338535
-0.0151728
-0.0122097
-0.00131006
0.0107661
0.00900772
0.0047042
0.00267707
0.00464524
-0.000629264
0.00343161
0.000916667
-0.00420837
-0.00329618
-0.00887367
-0.00151482
0.00285142
-0.00526074
-0.029423
-0.00985413
-0.00317376
-0.0190288
-0.0199255
-0.0117427
-0.00570381
-0.00661932
-0.00245256
-0.00910056
-0.00271599
-0.00297564
-0.00742106
-0.0051296
-0.00294773
0.00300992
-0.0102624
0.00658063
-0.00417693
-0.00213038
0.000500251
0.0150437
-0.00218131
-0.000576004
0.00819143
-0.00466794
0.000404364
-0.00499402
-0.00554167
-0.00126627
-0.00856893
-0.0174087
0.00568705
0.01616
-0.00847663
-0.0167612
-0.00700816
0.00194331
0.0172395
0.00569068
0.00873843
-0.0382156
-0.0282895
0.030066
-0.033792
0.00622311
-0.0148535
0.0115386
0.0141508
-0.0316631
0.134742
0.253218
-0.0651066
0.0506547
-0.0549854
0.187067
-0.0429397
0.0140822
-0.0388196
0.035057
-0.0305272
-0.00968038
0.0153697
0.0292396
0.00325944
0.00987471
-0.00646553
0.0142284
0.0202282
0.0126655
-0.00456588
-0.0154548
0.0139906
0.0194159
0.00256837
-0.00813533
-0.0139881
0.0124814
0.0106284
-0.0313769
0.0360218
0.0425433
-0.000637796
0.000289457
0.00535545
-0.0261238
-0.0564741
-0.00356756
0.0380024
0.0149035
-0.00789517
-0.0396793
0.00142953
0.014051
-0.0148954
0.00131496
-0.0205418
0.0159953
0.00110768
-0.0139562
0.00532278
0.00826248
0.00522086
0.0059426
-0.000791612
0.00201074
-0.00493951
-0.0254429
-0.029514
-0.0118375
-0.00700081
-0.00581004
-0.00462688
0.00377753
0.0182588
0.00575561
0.00865573
0.00766441
0.0102
0.00731932
0.0256933
0.0014051
0.0201974
0.00245996
0.0205139
-0.0329442
-0.00899769
0.0363901
0.0223517
-0.00401186
-0.0252087
-0.00419829
0.079405
0.0027601
0.0215638
0.0586765
0.0817778
-0.0315925
-0.0238931
-0.0304465
-0.0569349
0.0445999
0.0382638
0.070751
0.07911
0.0312661
-0.00124348
-0.0295247
-0.00297248
0.0157629
-0.0373517
0.0258627
0.0327442
-0.0254713
0.00677694
-0.0218097
0.00102075
0.00947702
0.00521287
0.0169203
0.020374
-0.00032718
-0.0210198
-0.0458597
-0.0261587
0.00192083
0.0254403
0.103433
0.0457951
-0.0108855
-0.0271875
0.0310532
0.0279505
-0.00391789
-0.00773142
0.00520006
0.0204845
0.0119038
0.0181225
0.00340729
-0.0022661
-0.00840066
0.0173429
-0.012081
-0.0059034
0.00225271
0.000994937
0.00373007
0.00381176
-0.00213608
-0.00229909
-0.00619958
-0.00266547
-0.00153524
-0.00233778
-0.000790469
-0.00501421
0.00117676
0.00431169
0.00854978
-0.00406444
-0.00162037
0.00412968
0.00318033
-0.00562588
-0.00458633
0.00149688
-0.00536335
-0.00596499
0.000531546
0.000556454
-0.00578635
-0.0079736
-0.0108455
0.00695742
-0.00722357
-0.0227844
0.017057
0.0114745
-0.0246879
-0.0287573
0.0260178
0.00119895
-0.000744663
0.00424667
0.00728516
-0.00147059
0.000816989
-0.00797615
-0.00739801
0.00625191
0.0240849
-0.00944318
-0.0094771
-0.0128739
0.00681664
-0.00426437
-0.0121379
-0.00349165
0.0452015
0.0474937
-0.0244712
0.0151203
0.00348811
0.113123
-0.048866
0.172311
-0.0767957
-0.079572
-0.226306
0.0690418
-0.00642537
0.0242764
-0.326223
0.0503682
0.0365904
0.0525227
0.0495649
-0.0135008
-0.0219087
-0.0215602
0.00900622
0.00990916
0.00219841
-0.0345497
-0.022147
-0.0078894
-0.0107633
-0.00721919
0.00701575
-0.00396876
-0.0238849
-0.0190643
-0.0275089
0.0492648
0.0310002
0.000727359
-0.0664479
0.0300251
-0.0250759
-0.0068391
-0.0453676
0.0125563
0.0688653
0.0190253
0.0393276
0.0310871
-0.020487
-0.00594008
0.00415817
-0.0561504
0.0247979
-0.00289106
0.00674903
0.0211243
0.0107208
0.00128644
0.0213704
0.00700272
0.00653027
-0.0165411
-0.0115092
-0.00211624
0.00844075
-0.0033028
0.00747072
0.0132311
0.00528545
-0.0117032
-0.00968802
-0.00693451
0.00811297
-0.00092722
-0.00574731
-0.0158766
-0.00725396
-0.0112607
-0.0104994
-0.0206408
-0.0137231
-0.0192438
-0.0329709
-0.00359769
0.0512292
-0.00507345
-0.0119581
-0.0301448
-0.0204268
-0.011535
0.0201885
-0.0426264
-0.00829974
-0.0159032
0.0461483
-0.0622086
-0.0673508
-0.0842128
-0.0246061
0.0503695
0.0770378
0.066438
-0.0571516
-0.0832325
-0.0946806
-0.018913
-0.0526717
0.0262662
0.0494292
0.0166798
0.00881946
0.0486066
0.00854211
0.00811641
0.0350684
0.0350705
0.0106775
0.0191491
0.00784623
0.0113913
0.0314269
0.0349089
0.0314788
0.0424141
0.00476755
-0.0410954
-0.0553498
-0.0442532
-0.0305862
-0.0244908
0.0209963
-0.0153851
-0.00545043
-0.00971254
0.0295066
-0.00492275
0.00334546
-0.0212907
-0.00703467
-0.0276003
0.0196953
0.000362887
0.00101579
0.0179852
0.00178248
0.000660084
0.00645875
-0.00829482
-0.027351
-0.00441294
0.000483273
-0.0048665
-0.0128882
-0.00692006
-0.00229941
0.000599988
0.00863965
0.000813664
-0.00697659
-0.00113831
-0.00181147
0.0119126
0.00393654
-0.000809014
-0.00104319
-0.000326837
-0.00327808
-0.000778476
0.00376717
0.00145076
0.00125656
0.00266746
0.00436511
0.0107693
-0.00999365
0.0135186
0.0254607
-0.00285785
-0.0260006
0.0143805
0.00145189
-0.0249746
-0.00346075
-0.0069617
0.00358019
0.00462925
0.00324918
0.00569496
0.00891723
0.000867698
0.0148609
0.0131485
0.00297425
0.0032134
-0.00450308
-0.0164004
-0.0243205
0.00254101
0.0254557
0.0164828
0.00339042
-0.0105651
-0.0546952
0.0525518
0.12896
-0.0912989
0.0218239
0.0448233
-0.0600336
-0.0805658
-0.0629634
0.129111
0.0210897
0.0362224
-0.213237
-0.0409761
0.130127
0.0954552
-0.0973634
-0.0372389
-0.0168975
-0.002394
-0.0124092
0.0209352
0.0238938
0.00757181
-0.0123833
-0.0104028
0.00119522
0.0369283
0.0106315
0.00514448
0.021578
0.0107046
-0.00638113
-0.0370038
0.00356593
0.0412776
0.00943205
-0.0506982
-0.0289651
0.0424645
-0.0329814
-0.0818967
-0.0236197
-0.0712379
-0.00861536
0.00910136
0.0576985
-0.0106829
0.00606891
0.00416202
0.0176911
-0.029613
-0.00721123
-0.0715652
-0.00524043
-0.0100793
-0.037471
-0.0211062
0.0109652
-0.0083155
-0.0164694
0.0025486
-0.00583961
-0.00358516
0.00886634
0.0155084
-0.00451162
0.026271
-0.0115293
-0.0177359
-0.0157493
0.0135379
-0.00217746
-0.024563
-0.00857956
0.00112913
0.0135725
0.00610205
-0.00155539
-0.0123534
0.0118424
-0.0106016
-0.0300109
0.00212724
0.0252276
0.0342908
0.00772844
0.0609386
0.0321795
0.0282001
-0.00357773
0.0103792
-0.0141175
0.048905
0.036728
0.095892
0.0491831
-0.0671996
-0.142993
-0.0335628
-0.0179877
0.017915
0.109128
0.0180991
0.0560711
-0.0281112
-0.0676245
-0.0442835
0.0473545
0.00836577
0.0216917
0.000965373
0.00732221
-0.0201698
-0.0301227
0.0058378
-0.0252143
-0.0077442
0.000702043
0.000249587
0.0176884
0.0389857
0.0281336
0.024614
0.0109634
-0.00342651
-0.0574483
-0.043159
0.0193732
0.00307436
0.00307367
-0.0252787
0.0181881
0.00496143
-0.0142087
0.0117713
-0.00869713
0.0160349
-0.0056253
0.0139251
0.0127963
3.24005e-05
-0.00545494
0.0156587
0.0158691
0.0164565
0.0196972
-0.011899
0.00453833
0.00952186
-0.00148624
-0.00322216
-0.00395674
-0.00731666
-0.00678452
0.000357058
0.00101896
-0.00703169
-0.00605734
0.00152502
-0.00509625
-0.00679373
0.000147386
0.00166332
-0.000487339
0.00239481
0.000869666
0.00102047
-0.00140422
-0.00971048
-0.002069
0.0291158
-0.00972605
-0.0581855
0.00823966
0.0144101
-0.0235061
-0.0177173
0.0352274
0.000635201
-0.00349037
-0.00232217
0.00426396
0.000670792
0.00759161
0.00405878
0.0133137
0.0146253
0.00793894
-0.00129923
0.0154254
-0.00246639
-0.00180028
0.00917117
0.0142279
0.00996459
-0.0372026
-0.024657
0.0386056
-0.0164606
-0.0493405
-0.0164222
-0.156531
-0.00814862
-0.0751941
0.170373
0.111479
-0.172634
0.136994
-0.085595
0.29248
-0.0373256
-0.156875
0.089866
0.0426695
0.0221484
-0.0693201
-0.0302438
-0.00116288
0.00326526
-0.00537437
0.000716269
-0.00204444
0.000756497
-0.0103176
-0.0268053
-0.0127558
0.0067556
0.00243684
-0.00191245
-0.000243024
0.0078681
0.0600457
-0.0549352
-0.0583
-0.0186749
0.0746517
0.064115
0.0159044
0.0111597
0.121013
0.0784966
-0.0342653
0.0366516
0.0131866
-0.0489042
-0.0602397
-0.0584415
-0.0485426
0.109962
-0.030621
-0.010227
0.030655
-0.0238628
0.0254483
0.018513
-0.00786264
0.00385186
0.00366134
-0.00064301
0.000563689
-0.0218838
-0.00235809
-0.0204066
-0.0262496
-0.0314454
-0.00163335
0.011621
0.0225108
0.0237804
-0.00439992
0.00485471
0.0219133
0.00598862
0.0221977
0.00134843
-0.00761028
-0.000861065
0.0127121
-0.000341356
0.0011787
0.0224637
-0.0592738
0.0380532
0.00722706
-0.00612054
-0.0825723
-0.0806472
-0.0195974
-0.00281326
0.033035
0.0269427
0.029455
-0.056635
-0.0278352
-0.0636312
-0.0917902
0.0476971
0.0901415
0.0528759
0.142874
-0.0079265
-0.101369
0.0355122
-0.0514085
-0.00177844
0.0754791
0.0197955
0.0354337
-0.00719482
-0.0439351
-0.0569707
-0.0233241
-0.0197498
-0.00997868
0.0248905
-0.0124044
-0.00395088
-0.00934628
-0.0406095
-0.0300615
0.00533388
0.00276251
0.0318753
0.0282054
0.0140452
-0.00461226
-0.0365814
-0.0522216
-0.0495439
-0.0154566
-0.000925588
-0.00142314
0.0133921
0.0021962
-0.0103916
-0.00600483
-0.0305537
-0.0193527
-0.00996425
-0.010764
-0.0049155
-0.0070633
-0.00508842
-0.015623
-0.0100766
-0.0015736
0.00293765
-0.00749489
0.00329944
6.6386e-05
0.00324645
0.000558874
0.00130365
-0.0037104
0.0068022
0.00219001
-0.00127512
0.00158927
0.00612884
-0.00434633
0.000390133
-6.97171e-05
0.00548559
0.00230776
0.00311934
-0.00626752
-0.00398027
0.0036199
0.00794784
-0.00872377
0.00370241
0.0300168
-0.0117253
-0.00765729
0.0146352
0.00137998
-0.000955306
0.0123218
0.00316306
0.0154993
-0.00502257
0.00108709
-0.0044995
-0.00628091
-0.00983397
-0.00548003
-0.00661341
-0.00209243
-0.0106184
-0.0165143
0.0159342
0.00751438
-0.0214637
-0.00727478
0.0349772
0.005636
-0.00562887
-0.0355132
-0.0684287
-0.0558478
0.131052
0.048616
-0.291054
0.174596
0.168772
0.0271747
-0.160638
-0.153995
-0.0234437
0.15019
-0.0815304
-0.0473157
0.0177714
0.105215
-0.031011
-0.0415212
0.018705
0.021868
0.0196617
0.0174425
0.0189891
0.00428526
-0.013611
0.000161332
0.0142434
0.01449
0.00380183
0.0225577
-0.00659118
-0.0332917
0.00450039
-0.0319171
0.0903185
0.079566
-0.00181713
-0.0777908
-0.021782
-0.0381066
-0.0121665
-0.0665089
-0.0360154
0.0026051
0.0904631
-0.0692333
0.09032
0.06194
0.0137177
-0.0623369
0.0479349
-0.014099
-0.033525
-0.00793962
0.019326
-0.0383079
0.0257444
-0.0302416
0.00102534
-0.00152213
0.00399379
-0.0121663
-0.00934184
0.0264167
0.0153191
-0.00947512
-0.000289449
0.00257231
-0.0172447
-0.0211407
-0.00103311
-0.0263334
-0.0440689
-0.0409062
0.0117384
-0.0429369
-0.0109617
0.00985489
-0.047149
0.0391132
0.0588757
-0.0100303
-0.0212417
0.0633128
-0.0108004
-0.0493971
0.0841427
0.0861256
0.0240663
-0.0182765
0.043703
0.0194673
-0.0660041
-0.0628758
-0.017194
0.0062635
0.0395654
0.0800784
-0.0425752
0.0897313
-0.14735
-0.154011
-0.0402424
-0.0362856
0.0440503
0.0734424
0.0336378
-0.0374437
0.00694129
-0.00462738
0.0694175
-0.0126987
0.0110677
0.00190958
0.00480876
0.00155947
0.0185634
-0.00504661
0.0290169
0.013597
0.000697388
-0.00490278
-0.00628804
0.00139304
0.0119066
0.0089938
0.0169976
0.014929
0.0220165
0.00102883
-0.00641786
-0.0279657
-0.0144613
-0.0306052
0.00695129
0.00858917
0.0133644
-0.0155314
0.0228985
-0.010615
0.0194774
-0.00436182
-0.00381904
0.00731448
0.00128807
-0.0129297
-0.0112131
0.0111905
0.0158856
-0.000485508
-0.0269839
-0.00348931
0.00262107
0.00527784
0.00105547
0.00155077
-0.00422021
0.00835423
0.00652102
-0.00403451
-0.0029162
0.00499935
-0.00248759
-0.001767
-0.00355537
0.000268485
-0.00490907
-0.00448962
-0.00501676
-0.00810746
0.00341523
-0.0106818
-0.0156237
0.00855444
0.0105064
-0.0128052
-0.00964886
0.0187932
0.00274817
-0.0281478
0.00334017
0.00369679
-0.0120697
-0.00100023
0.00238145
-0.00397948
-0.0146616
-0.0147093
-0.0211448
-0.0236741
-0.0168497
0.00463629
-0.00599411
0.00732219
-0.0103727
0.0196484
0.0328643
-0.0370516
-0.00592988
0.0747909
0.0185433
0.0335888
0.112112
-0.10605
0.109227
-0.150562
0.180391
-0.207627
0.192951
-0.287188
0.0922997
0.0920244
0.0581025
-0.132911
0.102873
0.0748676
-0.0495858
-0.0089514
0.0163583
0.00623499
-0.00708475
-0.0112554
0.0209687
-0.015247
-0.0143477
-0.0370064
0.0204638
0.00461846
0.0202918
-0.00239888
0.000972137
-0.0145085
-0.000446522
-0.0939791
0.00323779
-0.0168369
0.0244733
-0.00735021
0.0136134
0.0558086
0.0425365
0.0199061
-0.0306917
-0.00773748
0.0316329
-0.0618037
-0.0920812
-0.00717836
0.00709633
0.0426677
0.0394918
0.0160189
0.00656813
0.0887434
-0.00908075
-0.0535242
0.0539055
0.0262208
-0.0499142
0.00559328
0.0311037
-0.0135463
-0.0169641
0.015315
0.00454345
-0.0155559
0.000863464
-0.0267473
-0.0371558
-0.00619621
-0.0222016
0.00612579
0.0225098
0.0223355
0.0378824
0.0237273
-0.00795521
0.0411289
0.00129402
-0.0762992
-0.0234287
0.0486677
-0.0318624
-0.0163737
-0.00662274
-0.00323678
-0.0300405
-0.00357602
-0.0168928
-0.0426505
-0.0524821
0.0689826
0.104715
0.00806459
-0.00878927
0.0336142
-0.0931879
-0.0746578
-0.103991
-0.08935
0.0581806
0.0770715
0.0861427
0.117212
-0.0856741
-0.156571
0.0310174
0.0133162
0.0224382
-0.0546247
0.0648373
-0.0501995
0.0191868
0.00853348
-0.000364671
0.00209114
-0.00963831
-0.0103654
0.022666
0.0160283
0.0291641
0.0138062
-0.00123593
-0.0120712
-0.00142991
0.000620362
0.00675488
0.00389814
0.00809288
0.00109591
0.0018209
-0.00896707
-0.0147491
-0.0366182
-0.0289974
-0.00650477
0.00499371
0.00190186
-0.0077892
0.0204236
-0.0163631
-0.0178774
0.00933296
0.0143151
-0.000706351
-0.00444857
-0.00212876
-0.02577
0.00968845
0.0100113
-0.0107664
-0.0184511
-0.00355886
-0.000316218
-0.00295016
-0.0094655
-0.00426386
0.00630242
-0.00329053
-0.00309775
0.00614302
0.00064878
0.000780102
-0.00329872
-0.00369954
-0.00836
-0.00242851
0.00674416
0.0064452
0.00384623
0.00584882
0.000167108
-0.00475576
-0.0100094
0.0224763
-0.00597618
-0.0174429
0.0168146
0.00875615
-0.00892545
0.000967805
0.0124604
0.0109799
0.00889155
0.0058192
-0.00748559
-0.0118234
-0.00341042
0.0108617
0.0231878
0.00621714
-0.0081913
0.0321474
0.00948487
-0.029199
-0.0113732
0.0268101
0.00152208
0.0251195
0.00754232
0.00378696
0.0454898
-0.0125713
0.110432
-0.277111
0.0441736
-0.0581716
0.379563
-0.059335
-0.174475
-0.00739312
0.0683581
-0.0301416
-0.0173458
0.0449913
0.00824066
-0.0488151
-0.00308645
0.0163722
-0.00495331
-0.00783217
0.0224724
0.00184337
-0.0281927
0.00116317
0.0250047
0.00226489
0.00345008
-0.016708
0.0079199
-0.0168773
0.0405293
-0.0108089
0.0561208
-0.00923209
-0.0112994
-0.0187567
0.00181182
-0.0256164
0.0114998
-0.049039
-0.047977
0.00312639
-0.0114391
-0.0874198
0.0573088
0.146837
-0.0228034
0.0138615
-0.0462267
0.0569175
-0.0253566
-0.0506432
-0.0180503
0.0100011
-0.0263087
-0.0354119
0.0540301
0.0463398
-0.0545535
0.0403089
0.0277355
-0.0157579
-0.0278588
-0.0102088
0.000982511
0.00642382
0.0127355
0.0286159
0.0225427
-0.00388362
-0.00360884
0.00998003
-0.0171409
-0.0397437
0.0205314
-0.00604118
-0.0715983
0.0571816
0.0279991
-0.0478575
-0.011783
0.0296482
0.00963894
0.0343894
-0.0129193
0.026026
0.00932688
0.044896
0.0172948
0.0209831
-0.0170345
-0.0534051
-0.0817594
-0.0627034
0.0114121
-0.0303642
0.100667
0.0943242
0.102396
0.00573269
-0.0409598
-0.176166
0.00414036
0.102533
0.0410007
0.0667047
-0.0699517
-0.0175123
-0.0437127
0.0374946
-0.00488
-0.0100279
0.0116703
-0.0227151
0.00942609
-0.00929874
-0.012197
-0.000560283
-0.00736444
0.00963266
0.00446112
0.00891378
0.00999952
0.0129027
0.00433876
0.00738865
0.00538116
0.00313875
0.00469301
0.0139696
0.0094169
0.0056295
-0.00273769
0.00712531
-0.0218119
0.019442
0.022188
0.0218658
0.00597951
0.0157899
0.0216049
0.0036178
0.0138999
0.0141924
0.0345779
0.0183488
0.00699519
-0.00387893
0.00487378
0.0141099
-0.000907422
-0.00342381
0.00200137
0.00213446
0.00825243
-0.000103405
-0.000696053
-0.00581247
-0.00434138
-0.00300975
-0.00188784
-0.00073361
0.000449751
0.00514473
0.0037435
-0.00135022
-0.00429328
0.0011888
-0.000730811
0.00749904
0.00089285
-0.0130937
-0.00316927
0.0287815
-0.00384563
-0.0257914
-0.00745302
0.0136866
0.00892193
0.00332005
0.0122812
0.00650186
0.00647877
0.00898643
0.0138131
0.0304459
0.038753
0.0408037
0.028276
0.0155066
0.0224911
0.00757454
-0.037364
-0.00230369
0.0381324
-0.0276636
-0.084853
-0.0112326
-0.00950814
0.000548934
-0.0148
0.0367531
-0.0728114
0.15691
0.048217
-0.220686
0.228577
0.0862662
-0.0657876
0.0443673
0.0750016
-0.0897218
0.0183384
0.0072831
-0.0480051
-0.0129002
0.00656165
0.0131866
-0.0267953
-0.00167806
0.0325733
-0.026101
-0.00891915
-0.00119388
0.0242122
0.00772198
0.0255739
-0.0068895
0.0175441
-0.0240862
-0.0141611
-0.0205797
0.0842621
-0.0344443
-0.00744947
0.0358582
0.0354369
0.00157015
0.0333663
-0.0164291
0.0354626
0.110732
0.00946545
0.0198069
-0.0143383
-0.105282
-0.0526797
0.0550184
-0.0477887
-0.0207686
0.0627608
-0.0705916
0.0159221
0.0609301
-0.0408068
-0.0304272
-0.0244949
-0.0221255
-0.0706026
-0.0217819
-0.0330076
-0.0506398
-0.00896662
-0.030122
-0.00606013
-0.0230107
-0.0131565
-0.00473551
-0.0394281
0.00833811
-0.0141524
-0.0171759
0.0286236
-0.00205067
-0.0393656
0.0976209
-0.00711536
-0.0259922
0.062133
0.00873959
-0.0445183
0.0111096
0.0600034
0.0363975
-0.047931
-0.0286633
0.0185308
-0.0311518
-0.0117933
-0.0584024
-0.00550797
0.00317712
0.0674656
0.0188173
0.0611353
0.0675498
-0.0700722
-0.0221924
-0.0518174
0.00305807
0.109786
0.0873436
-0.0533956
-0.0441652
-0.0407752
0.0345577
0.0381399
-0.00812296
0.0296046
-0.0714724
0.0805115
-0.0418139
0.00607761
-0.0218932
0.0399915
-0.0111252
0.000981487
-0.010782
-0.0198318
-0.000756883
-3.93849e-05
0.00424016
0.00117113
0.00673142
0.00516518
0.0116037
-0.000124295
-0.00242706
-0.0133604
-0.00651061
-0.00630275
-0.00817586
-0.00734907
-0.0104082
-0.0309251
-0.0403261
0.0108857
-0.0148237
0.00103203
-0.00876897
0.00573856
0.00358166
-0.0115405
-0.0164359
-0.00293021
0.0158306
0.0173579
-0.0225914
-0.00399308
0.00848703
0.00784445
0.00327306
-0.00332034
0.0056429
0.00602277
-0.0140022
-0.0157488
0.00906359
0.00168233
-0.00376582
-0.0054398
0.00173724
-0.0048941
0.00058578
0.0012128
-0.00218589
-0.0124175
-0.0084026
-0.0113788
-0.0032136
0.0105687
0.0106207
-0.0150092
-0.00397662
0.00675233
0.0178617
-0.0148506
-0.0114399
0.010587
-0.00191956
-0.014286
0.00200978
0.0112338
2.98003e-05
0.00942843
0.016302
0.0129363
0.000872716
0.0145335
-0.0136597
-0.00317045
0.0189997
-0.00989713
-0.0193052
0.043098
-0.0352444
0.0552824
-0.0221992
-0.0249051
0.00985059
-0.0567263
0.0625685
0.0710587
0.0722026
-0.373838
-0.0115866
0.0551506
-0.0511747
-0.112822
0.070618
-0.0237296
-0.0200211
-0.00364002
-0.00788543
-0.0212438
0.0242874
0.00808192
-0.00334246
1.44545e-05
0.0294044
-0.00451609
-0.00340601
0.00583666
0.0224798
-0.0181527
0.0108893
-0.0190651
0.020023
-3.34722e-05
-0.0309568
-0.0223551
0.0538982
-0.0515063
0.0148677
-0.0267686
0.0499449
-0.0523412
8.15205e-06
-0.0520669
-0.00626906
-0.0259526
0.00313726
-0.0422758
0.0444576
-0.0364203
0.029038
-0.0175119
-0.0469171
-0.00720949
-0.100337
-0.00428954
0.00746161
-0.109084
0.114449
-0.00995629
-0.0845644
0.0104232
0.0607002
-0.00395594
0.0116662
0.0273617
-0.0145444
-0.00816868
-0.00509222
0.0245506
-0.037297
-0.0351506
0.010647
0.00602233
0.0118992
0.0147357
-0.0190344
0.0100011
0.0129879
-0.0573285
-0.0646988
0.0417316
-0.0596663
-0.0193075
0.0647359
0.0356275
-0.0311386
-0.0247587
-0.0654173
-0.00854558
-0.0343111
-0.0574251
0.0314854
0.0736013
0.0080843
0.0226832
-0.00480208
-0.0855897
0.0160334
-0.0060567
-0.0291385
0.111014
0.0537729
0.0705363
-0.0428185
-0.0713159
0.0139405
0.034634
0.0317174
0.0131446
-0.0270538
-0.00956507
-0.0620915
0.0604649
-0.0782803
0.115637
-0.113578
0.00947686
-0.0559966
0.0266617
-0.0082638
0.0258
-0.00342695
0.00325765
0.00204277
-0.00809812
0.00533394
-0.000977578
0.00674547
0.0108279
0.014284
0.00663993
0.0112249
0.00416239
-0.000754027
-0.00638407
0.00065165
-0.00153522
0.00820972
0.00199763
0.00431569
-0.0364221
0.00688891
-0.00780165
0.00852924
-0.00872106
-0.0145321
0.0155303
-0.000441701
-0.00387289
-0.0034147
0.0217299
0.0230016
0.0045215
-0.00134954
0.0160758
-0.00373876
-0.00440095
0.00235306
0.00163763
0.00160413
-0.00437867
-0.00243286
-0.00137985
-0.00481983
-0.00108914
-0.00272694
-0.00218979
-0.00959122
-0.00411348
0.00995069
0.0249089
0.00806623
0.00282135
-0.00956803
-0.0130865
0.00641941
-0.0177274
-0.0276695
-0.000899054
0.0241701
-0.00504044
-0.00965535
-0.00432681
0.00204827
-0.00503084
-0.0160931
-0.0156047
-0.0177395
-0.0119239
-0.0144067
-0.0293387
-0.0332611
-0.0160578
-0.0255452
-0.0232486
0.0251968
0.0106664
0.0352198
-0.00484952
0.0188998
0.0360545
0.0475291
0.0403965
-0.0576271
0.00300214
0.00556677
0.107176
0.157145
-0.188612
0.0410915
-0.0500277
-0.0711689
0.0503287
0.0404867
-0.0581984
0.0269156
-0.00587741
0.000249257
0.00803286
0.0403249
-0.00381213
-0.011621
-0.0133671
0.0129758
-0.0177303
-0.0200127
-0.032992
0.0163837
-0.00108908
0.0095001
-0.0254281
0.0232459
-0.0184031
-0.0272114
0.0203335
0.0173071
-0.0187716
0.000605914
0.0151107
0.00736858
0.0217803
0.00546949
0.0206901
0.0219492
0.0324663
-0.00182502
-0.00672324
0.00401247
0.0538217
-0.00497344
-0.0256661
0.0665956
-0.0523209
0.11226
0.0955605
0.145976
-0.0675401
0.0833981
0.110834
-0.0347573
-0.0360976
0.0748725
-0.0203659
-0.0202442
0.0188501
0.00634041
0.00523431
0.0282883
0.0196934
0.023588
-0.00378049
-0.0162856
-0.00307858
-0.0239335
-0.027096
-0.00904346
-0.0253586
0.0432396
0.0153551
-0.0384892
0.0339917
0.0316649
-0.0247235
-0.0197044
-0.0174335
-0.00506009
-0.0250627
0.00806261
0.0591881
0.0721153
0.0257526
-0.037468
0.00982592
-0.0400934
0.0294438
-0.000832049
0.0411368
0.0478332
0.0341119
-0.0253774
-0.0288902
-0.0348073
-0.0118776
0.0372227
0.0425195
-0.00973453
-0.00693669
-0.037167
0.0157529
-0.00844299
0.0217253
-0.0847709
0.0825226
-0.0785524
0.102254
-0.102502
0.0791347
-0.0219386
0.00489253
6.93204e-06
0.0272155
0.00754762
0.00934425
0.000536719
-0.00943086
-0.00873853
-0.0102858
-9.61096e-05
-0.00395406
0.00755678
0.00552719
0.0130653
0.00763761
0.00232137
-0.00938951
-0.00848861
-0.0195544
-0.0139248
-0.00902785
-0.00465594
-0.0107661
-0.0339771
0.00768912
-0.00293783
0.00273264
-0.00527883
-0.0126858
0.00374619
-0.0120142
-0.0185532
-0.0057245
-0.0085899
0.00313475
-0.00858821
-0.00641205
0.00525987
0.000894435
0.00142945
-0.00171144
0.00227413
0.012975
0.00551176
-0.00014313
-0.00207028
-0.00383779
0.000219537
-0.00594279
-0.000756132
-0.0194342
-0.00777197
0.00240508
0.00486439
-0.00282793
0.00298948
-0.00453566
0.00449655
0.0124394
0.00946343
-0.0323477
-0.0121539
-0.00046062
-0.00173183
-0.0115818
-0.00714268
-0.00048724
-0.0038825
-0.00398326
-0.00256142
-0.00943826
-0.0425112
-0.0131912
0.0127133
0.0246317
-0.0465852
0.0372084
0.0270479
-0.000216679
0.0095935
-0.0663541
-0.0288138
0.00488164
0.0443612
0.0452552
-0.0254058
-0.0254974
-0.422403
0.372215
-0.0932441
-0.0481492
0.158851
0.0473595
-0.00305073
0.076145
-0.000494054
-0.0406476
0.0208618
-0.00279043
-0.0284738
-0.0112289
0.00478073
-0.000164609
-0.0193297
-0.00747156
-0.0090037
0.0251926
-0.0309813
0.000991321
0.00439226
0.0158681
-0.0342004
0.0675481
-0.0202138
-0.0157245
0.0476482
0.0598009
-0.0940909
0.0225489
0.00440788
0.0222166
-0.00178473
-0.0173744
-0.0368043
-0.00724288
0.0486169
-0.0220231
-0.0112498
0.0117829
0.008644
-0.0435096
0.0340759
0.00978414
0.062252
-0.0699953
0.0445912
-0.0868717
0.118247
-0.202044
-0.029721
0.0745422
0.112499
-0.101273
0.100583
0.0267782
-0.0453609
0.0279214
0.047688
-0.0220951
0.0122587
-0.0174924
0.00828972
0.0159837
-0.0116165
0.00374344
0.0196212
0.00183816
-0.00199163
-0.0213549
-0.0310109
0.0110037
0.0196211
-0.0130913
-0.0248799
-0.00446729
0.00718755
0.0183328
0.0361927
0.0258302
-0.0536444
-0.016111
0.00224135
0.00592169
-0.0282704
0.0111997
0.0316474
-0.0212464
-0.0102006
-0.01242
-0.00619205
-0.00302321
0.0050772
0.00606489
0.0288359
-0.0118164
-0.0406057
-0.00866296
0.0285906
0.0405379
9.10888e-05
-0.00057519
-0.010983
0.0330166
-0.0607031
0.0444191
-0.0567815
0.0109375
0.01232
0.0283192
-0.0246097
-0.0160637
-0.0114547
-0.00164868
0.00734752
0.0149648
0.0214736
0.00972444
-0.00386651
-0.00555001
0.000313764
-0.00669416
0.00278966
0.00244665
0.0106941
0.00884108
0.0132937
0.0083441
0.00331971
0.000344781
-0.00421157
-0.00671089
0.00345842
-0.00265952
0.00494789
-0.0372458
-0.00312537
0.0124954
-0.00755214
-0.000468093
0.00168297
0.00595321
-0.00972571
-0.0117653
0.00813834
-0.00225207
-0.016167
0.00854216
-0.00559851
-0.00733567
-0.0104648
-0.00164562
-0.00154159
-0.00903019
-0.00704532
-0.00372002
-0.00282929
-0.004777
-0.00562166
0.00887972
0.00815034
0.00213
-0.00991034
-0.00659661
0.0073415
0.00010379
-0.00151504
-0.0046834
-0.00982148
0.00338102
0.0326529
0.0136354
-0.00067281
-0.00881874
0.00869043
0.00604913
0.0131662
0.0309021
0.0320632
0.0174353
0.0189267
0.0242345
0.0335049
0.0223712
0.0818697
0.03166
-0.011517
0.0010625
-0.0476272
0.00734239
0.0104213
-0.0184033
-0.0152866
-0.0326452
0.056612
-0.0621306
0.0996362
0.0154892
-0.0907063
0.225188
-0.155064
0.170545
-0.0141207