/*--------------------------------*- C++ -*----------------------------------*\
| =========                 |                                                 |
| \\      /  F ield         | OpenFOAM: The Open Source CFD Toolbox           |
|  \\    /   O peration     | Version:  2.2.x                                 |
|   \\  /    A nd           | Web:      www.OpenFOAM.org                      |
|    \\/     M anipulation  |                                                 |
\*---------------------------------------------------------------------------*/
FoamFile
{
    version     2.0;
    format      ascii;
    class       volScalarField;
    location    "2";
    object      pB;
}
// * * * * * * * * * * * * * * * * * * * * * * * * * * * * * * * * * * * * * //

dimensions      [1 1 -3 0 0 -1 0];

internalField   nonuniform List<scalar> 
14161
(
-0.000151289
6.06037e-06
-1.17181e-05
-1.72418e-05
-2.41319e-05
-3.28014e-05
-4.13519e-05
-4.83707e-05
-6.06637e-05
-7.16894e-05
-7.8496e-05
-9.85615e-05
-0.000109595
-0.000113527
-0.000151789
-0.000134943
-0.000149825
-0.00020136
-0.000144254
-0.000140372
-0.000221353
-0.000160442
-7.96716e-05
-0.000128598
-7.88003e-05
-3.60814e-05
1.50675e-05
7.60736e-05
0.000157586
0.00028049
0.000443279
0.000655534
0.000885925
0.00118558
0.00156137
0.0020133
0.00217317
0.00281194
0.0031168
0.00280158
0.00197353
0.00159237
-0.00116312
0.00151534
2.04499e-05
0.00202778
0.00172526
0.00167572
0.00126339
0.00146124
0.00147586
0.00170841
0.00148385
0.00117552
0.00144215
0.00127045
0.00146407
0.0010894
0.000650832
0.00110158
0.00101321
0.000848738
0.000675999
8.47491e-05
-4.33921e-05
0.000499425
0.00053103
0.00020004
0.000106924
-0.000270453
-0.000511765
-0.000351723
-0.000261978
-0.000443218
-0.000549851
-0.000664146
-0.0009122
-0.00100379
-0.000914023
-0.000933333
-0.0010025
-0.000938377
-0.000867771
-0.00103349
-0.00121675
-0.00136787
-0.00135534
-0.00132474
-0.00159739
-0.00125572
-0.0012886
-0.00200449
-0.00132845
-0.00161782
-0.00172814
-0.00187748
-0.00190544
-0.00203056
-0.00226691
-0.00234795
-0.00281493
-0.00370329
-0.00429103
-0.00434131
-0.00443329
-0.00484362
-0.00477748
-0.00704263
-0.0128767
-0.0168679
-0.0292665
-0.0351955
-0.0192564
-0.0140095
-0.0118606
-0.00569139
-0.0151442
0.00195823
-0.0961082
-0.000151403
6.13044e-06
-1.18177e-05
-1.72742e-05
-2.41939e-05
-3.27958e-05
-4.12428e-05
-4.85679e-05
-6.06634e-05
-7.15466e-05
-8.01269e-05
-9.63902e-05
-0.000107002
-0.00012087
-0.000140147
-0.000140093
-0.000168002
-0.000170608
-0.000153712
-0.0001794
-0.000177646
-0.0001429
-0.000117541
-0.00012307
-6.80656e-05
-2.26743e-05
9.09029e-06
7.54671e-05
0.00016088
0.000281823
0.000440105
0.000648756
0.000886546
0.00119103
0.00158319
0.0019396
0.00238196
0.00277339
0.00301782
0.00318038
0.00286493
0.00154051
-0.00102125
0.000901876
0.000829005
0.000996544
0.00156287
0.00167183
0.00119012
0.00141353
0.00127739
0.00140578
0.000983164
0.000856689
0.000794471
0.0007561
0.000507692
-0.000126949
-0.000531249
-0.000213492
-9.79326e-06
-0.000168534
-0.000688461
-0.00114522
-0.00116916
-0.000881562
-0.000866541
-0.000835436
-0.000868779
-0.00104749
-0.00136106
-0.00127316
-0.001092
-0.00116152
-0.00138935
-0.00162739
-0.0015537
-0.00139282
-0.00139587
-0.00159597
-0.00167037
-0.00177009
-0.00171638
-0.00169136
-0.00172288
-0.00191946
-0.0020202
-0.00219974
-0.00255869
-0.00254427
-0.0025123
-0.00309727
-0.00218675
-0.00258961
-0.00260859
-0.00297139
-0.00331898
-0.00379031
-0.0041771
-0.0040463
-0.00367316
-0.00392945
-0.00376931
-0.0038788
-0.00412598
-0.00492741
-0.0055255
-0.00567596
-0.00277444
-0.00197735
0.0029578
0.00676585
0.00465335
0.00335865
0.00251953
0.0061289
-0.00625981
0.0112152
-0.0606956
-0.000151275
6.02175e-06
-1.16727e-05
-1.73057e-05
-2.4336e-05
-3.24749e-05
-4.11969e-05
-4.90331e-05
-5.95288e-05
-7.14901e-05
-8.12375e-05
-9.5084e-05
-0.000108039
-0.000122768
-0.000135279
-0.000144072
-0.000164572
-0.000160453
-0.000169441
-0.000172585
-0.000168895
-0.000152129
-0.000129902
-0.000110467
-6.66867e-05
-3.70622e-05
-6.77134e-07
6.27124e-05
0.000149691
0.000266534
0.000410828
0.000595612
0.000848278
0.00115699
0.00153322
0.00192202
0.00244619
0.00291182
0.00318458
0.0037543
0.00363309
0.0021281
-0.00407491
0.000773568
0.000399371
0.00135017
0.00104183
0.00192274
0.0011675
0.00125573
0.00133915
0.00115709
0.00120752
0.000800136
0.000826869
0.000883371
0.000627555
0.000682762
0.000419944
0.000268619
0.000397548
9.77225e-05
-0.000445925
-0.000339925
-0.000294089
-0.000446206
-0.000599821
-0.000679925
-0.000850504
-0.00100586
-0.000921382
-0.000947997
-0.00115386
-0.00109011
-0.00118563
-0.00144831
-0.00141002
-0.00151741
-0.00146966
-0.00135015
-0.00137066
-0.00148021
-0.0015365
-0.00162328
-0.00166963
-0.00176626
-0.00162091
-0.00158598
-0.0015791
-0.00179753
-0.00172362
-0.00243328
-0.00184181
-0.00267524
-0.00284835
-0.00264733
-0.00237069
-0.00249095
-0.00305363
-0.00325498
-0.00325134
-0.00356075
-0.00344773
-0.00365617
-0.00412079
-0.00546229
-0.00602578
-0.00756471
-0.00992008
-0.0107126
-0.0116937
-0.000967917
0.00537678
0.004668
0.00199541
0.00251789
-0.00659929
0.00557006
-0.0470653
-0.000151005
6.07556e-06
-1.16831e-05
-1.73787e-05
-2.4501e-05
-3.21603e-05
-4.1234e-05
-4.98136e-05
-5.88204e-05
-7.15855e-05
-8.33691e-05
-9.17767e-05
-0.000110131
-0.000127641
-0.000125782
-0.000156483
-0.000168147
-0.000139412
-0.000195625
-0.00018651
-0.000137715
-0.000170672
-0.000163968
-0.00010626
-7.65206e-05
-4.84867e-05
-1.55107e-05
4.7143e-05
0.000135548
0.000246947
0.000385898
0.000555428
0.000794326
0.00109663
0.00145128
0.00193097
0.00252341
0.00304707
0.00354556
0.00441858
0.00402615
0.00316832
-0.00607163
0.00075669
-0.000108796
0.00147852
0.00113112
0.00165701
0.00141871
0.00122198
0.00142703
0.00129643
0.00131719
0.00104933
0.000877425
0.000809805
0.000539596
0.000690225
0.000560818
3.40725e-05
2.82282e-05
0.000186989
-8.70989e-05
-0.000256772
-4.36149e-06
-0.000463154
-0.000871629
-0.000765162
-0.0007236
-0.000922114
-0.000789059
-0.000737296
-0.00106176
-0.00118153
-0.00107747
-0.0012257
-0.00132223
-0.00129032
-0.00135372
-0.00143092
-0.00150035
-0.00144452
-0.0014918
-0.00165815
-0.00174815
-0.00180239
-0.00183002
-0.0017836
-0.00169391
-0.00201442
-0.00198562
-0.0020649
-0.00179853
-0.00266035
-0.00293774
-0.00283051
-0.00247389
-0.00232863
-0.00276233
-0.00302628
-0.00297398
-0.00335774
-0.00362766
-0.00405659
-0.00481895
-0.00573463
-0.00784136
-0.00785406
-0.00382969
-0.00422119
-0.00192506
8.96032e-05
0.003313
0.00356262
0.00111985
0.00166239
-0.0047354
0.00295191
-0.0335401
-0.000150728
5.97152e-06
-1.16783e-05
-1.72804e-05
-2.46846e-05
-3.19489e-05
-4.11801e-05
-5.03134e-05
-5.81335e-05
-7.15008e-05
-8.4935e-05
-8.93229e-05
-0.000109639
-0.000130648
-0.000120839
-0.000164234
-0.000167934
-0.000131448
-0.000208423
-0.000195917
-0.000118978
-0.000170752
-0.000180133
-0.000113134
-7.29359e-05
-6.00074e-05
-3.39946e-05
2.32259e-05
0.000103948
0.000203936
0.000339391
0.000494253
0.000691747
0.000967396
0.00132971
0.00186003
0.00248028
0.0030767
0.00400839
0.00576973
0.00575027
0.00351344
-0.00916137
0.00182761
-0.000110644
0.00224151
0.00129559
0.00175723
0.00185023
0.00107939
0.00119794
0.00114219
0.000967739
0.00076277
0.00049712
0.000454084
0.000397967
0.000507683
0.000259056
-0.000261088
-0.000313294
4.42349e-05
0.000313572
3.69401e-05
-1.651e-05
-0.000473713
-0.000819636
-0.000590992
-0.000463268
-0.000710276
-0.000888186
-0.000809142
-0.00107911
-0.00117228
-0.0010404
-0.0010066
-0.00107552
-0.00128021
-0.00141597
-0.00147641
-0.00153386
-0.00145342
-0.00157768
-0.00156484
-0.00168184
-0.00162085
-0.0017255
-0.00161164
-0.00159887
-0.00185244
-0.00181097
-0.00129173
-0.00157285
-0.00204718
-0.00224293
-0.00225462
-0.0023132
-0.00235952
-0.0026396
-0.00286005
-0.00347602
-0.00327201
-0.00342119
-0.00394797
-0.0050863
-0.00828321
-0.00848642
-0.00687485
-0.00453762
-0.00336531
-0.00228666
0.00226095
0.00312724
0.00249781
0.000350922
0.000212553
-0.00351565
0.00116058
-0.0242327
-0.000150293
5.93586e-06
-1.16955e-05
-1.71379e-05
-2.49353e-05
-3.17526e-05
-4.08649e-05
-5.07198e-05
-5.79317e-05
-7.13427e-05
-8.55708e-05
-8.87583e-05
-0.000110037
-0.000129108
-0.000122057
-0.000164125
-0.000164296
-0.000139534
-0.000209616
-0.000191405
-0.000129089
-0.000171608
-0.000190453
-0.000145083
-7.20816e-05
-7.64e-05
-5.14355e-05
-1.2333e-05
6.48323e-05
0.000154902
0.000270422
0.000415551
0.000587323
0.000810463
0.0011627
0.00165436
0.0022619
0.00299592
0.00411422
0.00562291
0.00570692
0.00451752
-0.0138318
0.00371408
0.000998215
0.00287714
0.00155823
0.000969182
0.00288699
0.000763831
0.000993607
0.00109594
0.000935156
0.000860268
0.000605985
0.000479642
0.000528665
0.000480852
0.000135878
-0.000200401
-9.6805e-05
-0.000127418
5.07744e-05
0.000149119
-7.88727e-06
-4.94419e-05
-0.000270073
-0.000590473
-0.000506654
-0.000323287
-0.000667366
-0.000843854
-0.00089082
-0.00103876
-0.00107122
-0.00100717
-0.000911254
-0.00103457
-0.00116858
-0.00136826
-0.00149583
-0.00148748
-0.00170284
-0.00164006
-0.00162889
-0.00176151
-0.00181639
-0.00185759
-0.00177679
-0.00165743
-0.00177476
-0.00154974
-0.00190732
-0.00222824
-0.00202255
-0.00217234
-0.00239075
-0.00255858
-0.00274729
-0.00315907
-0.00328173
-0.00317222
-0.00382028
-0.00457937
-0.00699668
-0.0072919
-0.00278795
-0.00357568
-0.00405577
-0.00231661
-0.000518683
0.00210589
0.00166135
0.00122179
-0.000224274
-0.00061994
-0.00297035
0.000393271
-0.0179382
-0.000149817
5.85534e-06
-1.17716e-05
-1.70782e-05
-2.50791e-05
-3.16565e-05
-4.05895e-05
-5.09915e-05
-5.82361e-05
-7.0664e-05
-8.49894e-05
-9.0168e-05
-0.00010961
-0.000127068
-0.000129801
-0.000155963
-0.000158248
-0.00016113
-0.000191646
-0.0001755
-0.000167381
-0.000169029
-0.000186401
-0.000163344
-0.000110496
-6.55787e-05
-7.92077e-05
-6.54542e-05
3.4985e-07
8.93326e-05
0.000172065
0.000288644
0.000444026
0.000624202
0.000849991
0.00122912
0.00183139
0.00260705
0.00364665
0.00461304
0.00494089
0.00571165
-0.0164138
0.00857931
0.00141346
0.00391039
0.00264781
0.0015936
0.00301014
0.00133889
0.00132639
0.00128085
0.00104759
0.000684696
0.000569867
0.000290468
0.00016028
2.83593e-05
-7.62187e-05
6.47783e-05
0.000128547
-0.000149233
-0.000289053
-0.000498128
-0.000165396
7.35368e-05
-0.000104339
-0.000195084
-0.000330567
-0.000556519
-0.000458366
-0.000762799
-0.0010042
-0.00115567
-0.00122092
-0.00125541
-0.00146565
-0.00133179
-0.00112507
-0.00116052
-0.00144509
-0.00135556
-0.00138939
-0.00173831
-0.00191519
-0.00165771
-0.00166944
-0.00163326
-0.00182397
-0.00174116
-0.00202845
-0.0016981
-0.00170381
-0.00180234
-0.00182978
-0.00202228
-0.00176709
-0.00211647
-0.00309608
-0.00274822
-0.00274482
-0.00371917
-0.00497576
-0.00525215
-0.00634426
-0.00403237
-0.00384168
-0.00373537
-0.00320095
-0.00163174
0.000448423
0.00118144
0.000647314
-8.3994e-05
-0.000593645
-0.00143795
-0.00269654
1.4245e-05
-0.0142431
-0.00014925
5.7798e-06
-1.18399e-05
-1.70466e-05
-2.50855e-05
-3.1724e-05
-4.03429e-05
-5.09431e-05
-5.88757e-05
-6.99318e-05
-8.39352e-05
-9.3009e-05
-0.000108284
-0.000122831
-0.000136161
-0.000147789
-0.000162342
-0.000180279
-0.000178879
-0.000177889
-0.000202062
-0.000171391
-0.000175608
-0.000183223
-0.000171822
-8.07326e-05
-8.362e-05
-0.000106957
-9.41631e-05
-4.8796e-06
7.78883e-05
0.000143219
0.000241223
0.000375231
0.000509653
0.000663047
0.00105899
0.00181333
0.00254274
0.00269762
0.0018746
0.00871391
-0.0134537
0.00944377
0.00336668
0.0052587
0.00372636
0.00219804
0.00308772
0.00204546
0.00148505
0.0012017
0.00118923
0.000589602
0.000530759
0.000139666
-8.82073e-06
-0.00011209
-0.000252987
-0.000379496
-0.000461577
-0.000477855
-0.000271143
-6.34431e-05
-0.000252851
8.05464e-06
-0.00029577
-0.000683279
-0.000613914
-0.000432336
-0.000704468
-0.000850899
-0.00116786
-0.00141958
-0.00152815
-0.00125502
-0.00117503
-0.00131625
-0.00144991
-0.00143612
-0.00141062
-0.0015148
-0.00146974
-0.00166837
-0.00180008
-0.00186596
-0.00186314
-0.00171191
-0.00172461
-0.00148598
-0.00134514
-0.00138359
-0.0015174
-0.000850426
-0.00129244
-0.0014948
-0.00228944
-0.00311344
-0.00274712
-0.00272294
-0.00262165
-0.00525924
-0.00605093
-0.00389656
-0.00435263
-0.0040513
-0.00355011
-0.00341698
-0.00229952
-0.000680828
-9.12598e-05
5.90775e-05
-0.000224825
-0.00107149
-0.000981232
-0.00178966
-0.0025238
-0.00018131
-0.0119699
-0.000148574
5.69368e-06
-1.18964e-05
-1.70449e-05
-2.49383e-05
-3.202e-05
-3.99997e-05
-5.0634e-05
-5.96943e-05
-6.90639e-05
-8.23775e-05
-9.56465e-05
-0.000106838
-0.000119759
-0.000145766
-0.00014332
-0.000154696
-0.000196689
-0.00017295
-0.000161162
-0.000226287
-0.000191201
-0.000155344
-0.000201721
-0.000202505
-0.000152586
-0.000101843
-0.000129786
-0.000159973
-0.000144567
-5.86849e-05
-1.46173e-05
4.05985e-06
4.95939e-05
9.41901e-05
0.000109139
0.000159086
0.000345999
0.000792101
0.00109303
-2.37757e-05
0.0116765
-0.00865489
0.0106189
0.00524927
0.00621695
0.00440931
0.00177592
0.00243458
0.00155143
0.00123734
0.000828392
0.000897406
-0.000396708
-0.000607319
-0.000622788
-0.000442018
-0.000469775
-0.000679456
-0.000701174
-0.000599714
-0.000409459
-0.000531431
-0.000540301
-0.000705801
-0.000634047
-0.000488856
-0.000762726
-0.000895115
-0.00107517
-0.000878778
-0.00100632
-0.00103918
-0.00101856
-0.00122135
-0.00134987
-0.0012433
-0.00126827
-0.00152428
-0.00138043
-0.00144865
-0.00162034
-0.00166292
-0.00159902
-0.00167799
-0.00141953
-0.00153245
-0.00148643
-0.00144405
-0.00137565
-0.00100336
-0.000605192
-0.00108866
-0.00171516
-0.00272778
-0.00331303
-0.00268609
-0.00191675
-0.00136692
-0.00310334
-0.00374197
-0.00448152
-0.001411
-0.00263333
-0.00376486
-0.00386436
-0.00390589
-0.002608
-0.00143705
-0.00119144
-0.0010001
-0.000791977
-0.00101432
-0.00188213
-0.00129086
-0.00212022
-0.00228834
-0.00037281
-0.0102582
-0.000147867
5.59476e-06
-1.19299e-05
-1.70704e-05
-2.46498e-05
-3.24645e-05
-3.95497e-05
-5.02407e-05
-6.09311e-05
-6.81403e-05
-8.11764e-05
-9.9189e-05
-0.000104627
-0.000117607
-0.000149588
-0.000140946
-0.000154373
-0.000202201
-0.000174659
-0.000162704
-0.000237739
-0.000215339
-0.000168111
-0.000190977
-0.000223671
-0.000232114
-0.00016156
-0.000146244
-0.000212006
-0.000267905
-0.000286867
-0.00022923
-0.000229143
-0.000322158
-0.000440711
-0.000612827
-0.000916239
-0.00112945
-0.00107982
-0.000420009
0.000162695
0.0103517
0.00261898
0.00583787
0.00682822
0.00725554
0.00599823
0.00181584
0.00143201
0.000564915
0.000234784
0.000491494
0.000397161
0.000417388
0.00026885
1.49331e-05
-0.0003857
-0.00084219
-0.00101284
-0.000963204
-0.00107558
-0.000879868
-0.001086
-0.00141779
-0.00147884
-0.00123674
-0.000970449
-0.000883679
-0.00102051
-0.00113722
-0.00136189
-0.00124128
-0.000962034
-0.00113204
-0.00125507
-0.00124908
-0.00122769
-0.00133966
-0.00117611
-0.00115345
-0.00122271
-0.00120516
-0.00129715
-0.00148639
-0.00156258
-0.0014636
-0.00109463
-0.000876823
-0.00101736
-0.00130872
-0.00208179
-0.00203621
-0.00257574
-0.00262242
-0.00193545
-0.00042842
-0.00199091
-0.00114222
-0.00366903
-0.00336594
-0.00462299
-0.00226428
-0.00311479
-0.00270715
-0.00362558
-0.00372126
-0.00312623
-0.00182586
-0.00200153
-0.00187188
-0.00130613
-0.00141568
-0.0014881
-0.0020354
-0.00128712
-0.00203437
-0.00182038
-0.000391908
-0.00874896
-0.000147009
5.51703e-06
-1.19415e-05
-1.71246e-05
-2.44125e-05
-3.27433e-05
-3.93529e-05
-4.98947e-05
-6.17593e-05
-6.73925e-05
-8.00469e-05
-0.000101257
-0.000103068
-0.000117762
-0.000149622
-0.000142804
-0.000162336
-0.000194674
-0.000185957
-0.000169376
-0.000228119
-0.000234804
-0.000202876
-0.000165617
-0.000241249
-0.00028335
-0.000258993
-0.000202037
-0.000221505
-0.000358864
-0.000469166
-0.000526932
-0.000545128
-0.000694638
-0.000934399
-0.00125968
-0.00181586
-0.0025198
-0.00332769
-0.00335576
0.000427236
0.00354346
0.0245566
-0.00555106
0.00494285
0.00406765
0.00519225
0.00148314
0.00213125
0.00107938
0.000828428
0.000963071
-0.000525267
-0.000176386
-9.03186e-05
-0.000582725
-0.000563409
-0.000536898
-0.000888873
-0.000807273
-0.000751967
-0.000847924
-0.000880785
-0.00101529
-0.00119235
-0.00128291
-0.000995873
-0.000951415
-0.00125446
-0.00126224
-0.00113538
-0.00118356
-0.00113692
-0.000912722
-0.00119665
-0.00124109
-0.00122392
-0.00129539
-0.00137251
-0.00135211
-0.0014349
-0.00135244
-0.00123562
-0.00118873
-0.00128688
-0.00167513
-0.00180844
-0.0022396
-0.00242029
-0.00159961
-0.00171667
-0.00103406
-0.000897657
-0.00131506
-0.00135953
-0.00141598
-0.00352327
-0.000546475
-0.00417425
0.000756134
-0.00110107
-0.00308913
-0.00262436
-0.00325259
-0.00338838
-0.0033972
-0.00274953
-0.00201078
-0.00259893
-0.00171195
-0.00158308
-0.00150592
-0.00146043
-0.00182441
-0.0011506
-0.00182389
-0.00142749
-0.000447541
-0.00748375
-0.000146102
5.41662e-06
-1.19236e-05
-1.7189e-05
-2.42708e-05
-3.27806e-05
-3.94894e-05
-4.92876e-05
-6.20723e-05
-6.74044e-05
-7.99031e-05
-0.000101359
-0.000103512
-0.000119902
-0.000145325
-0.000147678
-0.000165186
-0.000182679
-0.000196191
-0.000192044
-0.000210089
-0.000252701
-0.000239992
-0.000180514
-0.000233377
-0.000337494
-0.000332547
-0.000291652
-0.000292787
-0.000378725
-0.000576107
-0.000748936
-0.000883465
-0.00103838
-0.00134428
-0.0018881
-0.00282826
-0.00427699
-0.00721945
-0.0117877
-0.0163294
-0.0376475
0.036597
-0.0014196
0.00773215
-0.000914387
-0.000896854
0.0008524
0.000139113
-5.8069e-05
-0.0012413
-0.000961355
-0.000768315
-0.000786409
-0.000875161
-0.000936146
-0.000929767
-0.000906966
-0.000973535
-0.000948939
-0.000870881
-0.000965994
-0.00097914
-0.00100462
-0.00103226
-0.000991598
-0.000926174
-0.000740973
-0.00072826
-0.00110571
-0.00112983
-0.00111888
-0.00117163
-0.00110667
-0.00110539
-0.00131487
-0.00136229
-0.0012908
-0.00124631
-0.00120396
-0.00127698
-0.0014294
-0.0018007
-0.00208108
-0.00182263
-0.00169389
-0.00116848
-0.00121419
-0.00129755
-0.000949452
-0.00102994
-0.00122183
-0.00140468
-0.00148064
-0.00125328
-0.00160774
-0.00218518
-0.000222655
-0.00152451
-0.00178188
-0.00183549
-0.00287242
-0.00299541
-0.00301823
-0.00336056
-0.00309581
-0.00179843
-0.00266322
-0.00206929
-0.0019028
-0.00152694
-0.00142727
-0.00123295
-0.00164094
-0.00108898
-0.00173581
-0.00117728
-0.000534235
-0.00632482
-0.000145082
5.30913e-06
-1.18654e-05
-1.72646e-05
-2.41827e-05
-3.255e-05
-4.0015e-05
-4.88571e-05
-6.11554e-05
-6.87229e-05
-8.07146e-05
-9.81635e-05
-0.000105737
-0.000120644
-0.000138773
-0.000153967
-0.000168937
-0.000174982
-0.0002044
-0.000215508
-0.000205814
-0.000251351
-0.000254949
-0.00024234
-0.000248871
-0.000338233
-0.000383046
-0.000397925
-0.00039886
-0.000456941
-0.00059568
-0.000866405
-0.0010874
-0.00125864
-0.00163204
-0.00222549
-0.00291511
-0.00385186
-0.00490096
-0.00614029
-0.0047836
0.00643924
0.0247695
0.0506803
0.00102304
0.00235838
-0.0030778
-0.00357031
-0.00358515
-0.00116598
-0.000858765
-0.000672979
-0.00108449
-0.00155532
-0.00186816
-0.00161698
-0.00149453
-0.00134926
-0.00124165
-0.00116893
-0.00107294
-0.00112117
-0.000933851
-0.000988386
-0.00103266
-0.00107214
-0.000913383
-0.000852209
-0.000796433
-0.00110019
-0.00109127
-0.00116671
-0.00098398
-0.000890369
-0.000939466
-0.000951361
-0.00106455
-0.00146569
-0.00157892
-0.00154183
-0.00200765
-0.00166603
-0.00134268
-0.00164317
-0.00116468
-0.00176993
-0.000937183
-0.00110917
-0.000497273
-0.00123577
-0.00129735
-0.00171482
0.000212764
0.000260432
-0.00125329
-0.00163785
0.000464345
-0.000424927
-0.00162632
-0.00161874
-0.00243286
-0.00262779
-0.00278569
-0.00298215
-0.00300403
-0.00218058
-0.00252057
-0.00221015
-0.00208149
-0.00186742
-0.00138583
-0.00135036
-0.00126783
-0.00131289
-0.00103136
-0.00157445
-0.00101489
-0.000590903
-0.00525632
-0.000143944
5.19624e-06
-1.17823e-05
-1.73656e-05
-2.40671e-05
-3.21672e-05
-4.05915e-05
-4.85855e-05
-5.97691e-05
-7.01656e-05
-8.0677e-05
-9.48452e-05
-0.00010937
-0.000121039
-0.000132998
-0.000160762
-0.000172815
-0.000172756
-0.000207631
-0.000232246
-0.000221307
-0.000235572
-0.000270131
-0.000307786
-0.000284579
-0.00030336
-0.00041545
-0.000485341
-0.000492519
-0.000543981
-0.00065869
-0.000856483
-0.00114525
-0.00134573
-0.00161291
-0.00207275
-0.00259813
-0.00316348
-0.00374637
-0.00337833
-0.00266044
0.00812162
0.0239493
0.0245573
-0.00598727
-0.00272135
-0.00315543
-0.00195917
-0.0027384
-0.00281414
-0.00373073
-0.0036598
-0.0028367
-0.0022481
-0.00181086
-0.00103036
-0.00091091
-0.000867742
-0.000822569
-0.000934968
-0.000942391
-0.00101868
-0.00098755
-0.00104166
-0.000892361
-0.00116005
-0.000929921
-0.00104532
-0.000851829
-0.000964012
-0.000899204
-0.00115811
-0.0014631
-0.00114499
-0.00144478
-0.00145693
-0.00134714
-0.001692
-0.00147696
-0.000918146
-0.0019208
-0.00125694
-0.00132092
-0.00139287
-0.000848806
-0.00162793
-0.000600689
-0.000746205
-0.000739122
0.000666229
0.000102789
-0.000484672
-0.00252067
0.000908649
0.00159472
-0.0015198
-0.00103487
-0.000454386
-0.00185971
-0.00183033
-0.00227252
-0.00256928
-0.00268547
-0.00249566
-0.00303847
-0.00194985
-0.00231845
-0.00198338
-0.00195674
-0.00156304
-0.00126762
-0.00118247
-0.00127365
-0.00098477
-0.00100138
-0.00128981
-0.000966392
-0.000780958
-0.00430893
-0.000142725
5.06784e-06
-1.17163e-05
-1.74566e-05
-2.39374e-05
-3.18274e-05
-4.09834e-05
-4.82642e-05
-5.85283e-05
-7.17847e-05
-8.02581e-05
-9.16887e-05
-0.000112926
-0.000121579
-0.000129786
-0.000164324
-0.000177711
-0.000171551
-0.000201223
-0.00024903
-0.00023681
-0.000219792
-0.000288158
-0.000350465
-0.000327978
-0.000300306
-0.000408739
-0.000539783
-0.000585333
-0.000609227
-0.000666732
-0.000814391
-0.00108287
-0.00138666
-0.00156678
-0.0018588
-0.00213836
-0.00267484
-0.00266229
-0.002724
-0.00291723
0.0141392
0.020468
0.00772227
0.000383266
0.00141773
-0.00176487
-0.00311561
-0.00377137
-0.00377457
-0.00332674
-0.00320684
-0.00237723
-0.00194821
-0.00161434
-0.00123588
-0.00105182
-0.00100282
-0.000938467
-0.000876536
-0.00069897
-0.000926796
-0.000885087
-0.00111745
-0.00102355
-0.000996766
-0.00110977
-0.000836589
-0.00093148
-0.00114764
-0.00103659
-0.00135165
-0.00139865
-0.000883296
-0.00137652
-0.00141349
-0.000975459
-0.00172354
-0.00131338
-0.00103479
-0.00187231
-0.000736889
-0.00102369
-0.000532275
-0.000916508
0.00109004
0.00120624
-4.13792e-05
-0.00186151
0.000828248
0.000757406
0.0028188
0.00061598
-0.00039435
-0.000249678
-0.000275276
-0.00104439
-0.000967062
-0.00144194
-0.00186333
-0.00217763
-0.00226384
-0.00253451
-0.00218597
-0.00216097
-0.00203883
-0.00204606
-0.00191328
-0.00170674
-0.00136526
-0.00125398
-0.00111473
-0.00117923
-0.000834287
-0.00104895
-0.00105933
-0.000886186
-0.000951298
-0.00346605
-0.000141366
4.94681e-06
-1.16606e-05
-1.74782e-05
-2.38992e-05
-3.14707e-05
-4.12129e-05
-4.80502e-05
-5.75904e-05
-7.28885e-05
-8.02221e-05
-8.96072e-05
-0.000114938
-0.000122488
-0.00012968
-0.000163991
-0.000181267
-0.000176739
-0.000200023
-0.00025653
-0.000250966
-0.000227403
-0.000292575
-0.000377633
-0.000366297
-0.000332311
-0.000391916
-0.000573598
-0.000649155
-0.00066985
-0.000685066
-0.000762311
-0.00096249
-0.00127931
-0.00141285
-0.00161491
-0.0016376
-0.00146351
-0.00106681
9.76327e-05
0.00245608
0.0310027
-0.000485451
0.000659163
-0.00284735
-0.00208809
-0.000873476
-0.00196019
-0.00262451
-0.00314086
-0.00321452
-0.00265259
-0.00253358
-0.00195551
-0.00182496
-0.0015768
-0.00176696
-0.0017319
-0.00147781
-0.00137161
-0.00116371
-0.000927788
-0.000902474
-0.00103118
-0.0010892
-0.00120858
-0.00102708
-0.000913872
-0.0012397
-0.000897547
-0.00127662
-0.00149716
-0.00133937
-0.00132708
-0.00131723
-0.00080372
-0.00111277
-0.00131891
-0.000658816
-0.000869042
0.000991158
0.0013828
0.000229901
-0.000641761
-0.00139055
0.000973341
0.00177387
0.00209156
0.00154665
0.00112589
0.000245975
0.00132219
-0.000260358
0.00102241
-0.000309799
-0.000386178
-0.000682569
-0.00109338
-0.00140766
-0.00159576
-0.00197364
-0.00201552
-0.00223637
-0.00207707
-0.00185915
-0.00183751
-0.00186687
-0.00176688
-0.00151324
-0.00126403
-0.00113127
-0.000987979
-0.00102481
-0.000787154
-0.000882465
-0.000856441
-0.000733628
-0.00109705
-0.00268057
-0.000139887
4.8161e-06
-1.16235e-05
-1.73652e-05
-2.39665e-05
-3.11384e-05
-4.09731e-05
-4.81602e-05
-5.71088e-05
-7.25675e-05
-8.07451e-05
-8.98815e-05
-0.000113338
-0.00012447
-0.000132243
-0.000160456
-0.000181885
-0.000185614
-0.000207431
-0.000248423
-0.000260425
-0.000258976
-0.000298351
-0.000369981
-0.000395525
-0.000405964
-0.000419173
-0.000531109
-0.000665384
-0.000699581
-0.000722775
-0.000775942
-0.000863163
-0.00106831
-0.00126772
-0.00119753
-0.00110139
-0.000736749
-0.000419586
0.000695728
0.00694597
0.0254337
-0.00307031
-0.000679628
-0.00245956
-0.00215453
-0.00134194
-0.000328532
-0.000929239
-0.000272514
-0.00211598
-0.00269574
-0.00186088
-0.00217907
-0.00210867
-0.00195417
-0.00180785
-0.00168236
-0.00126651
-0.00109441
-0.00131112
-0.00110114
-0.00108993
-0.00113343
-0.0016148
-0.00144959
-0.00128189
-0.00221842
-0.00124567
-0.000452874
-0.00261378
-0.00117344
-0.00167448
-0.00148316
7.37802e-05
0.000651481
0.00110889
0.000144668
-0.000632336
-0.00105823
0.000598738
0.00115857
0.00247696
0.00337059
0.00124987
0.000650277
0.00148108
0.00137247
0.000783852
0.00192515
0.000450483
0.00134958
2.94119e-05
0.000537011
0.000205667
-0.000434482
-0.000633799
-0.00091769
-0.00122011
-0.00140418
-0.00169261
-0.00176609
-0.00181227
-0.00164781
-0.00173123
-0.00152709
-0.00156636
-0.00155896
-0.00135818
-0.00117681
-0.00110303
-0.00088631
-0.000950673
-0.000939006
-0.000754061
-0.000769978
-0.000611491
-0.00117926
-0.00202736
-0.00013829
4.67941e-06
-1.16173e-05
-1.70838e-05
-2.41406e-05
-3.09216e-05
-4.02395e-05
-4.87303e-05
-5.71881e-05
-7.07352e-05
-8.18672e-05
-9.14121e-05
-0.000109546
-0.000125611
-0.000135928
-0.000157165
-0.000181179
-0.000193958
-0.000215321
-0.000242404
-0.000268667
-0.000292915
-0.000306188
-0.000352896
-0.000413548
-0.000453703
-0.00046082
-0.000511408
-0.000645888
-0.000699417
-0.000720221
-0.000786985
-0.000800582
-0.00084952
-0.000959586
-0.000925124
-0.000938866
-0.000846427
-0.00107694
-0.000800835
0.0075697
0.0119512
-0.00104854
0.00201129
0.000695405
0.000439054
0.000617722
-0.000760807
0.000334565
0.000273745
4.09521e-05
-0.00134576
-0.000373206
-0.000869066
-0.000718807
-0.00145547
-0.00135257
-0.00169409
-0.00168201
-0.00176547
-0.00199477
-0.0024588
-0.00141167
-0.00177631
-0.0025633
-0.00113109
-0.00161606
-0.00283069
-0.000534609
-0.000751343
-0.0016191
0.000641315
-0.000264858
0.000131711
-0.000276068
-3.36845e-05
0.000966658
0.00213898
0.00314151
0.00191661
0.00118391
0.00127554
0.00162813
0.00114808
0.00143138
0.00118543
0.00190773
0.00174077
0.00120754
0.00146421
0.000442634
0.00116508
0.000575654
0.000459766
4.68644e-05
-0.000182032
-0.000547912
-0.000755117
-0.00104716
-0.00124228
-0.00144038
-0.00157499
-0.00158436
-0.00156509
-0.00145908
-0.00140992
-0.00136568
-0.00143972
-0.00135702
-0.00113363
-0.00104438
-0.000765653
-0.000740949
-0.000860829
-0.000645856
-0.000637807
-0.000450756
-0.00112977
-0.00141252
-0.000136542
4.54361e-06
-1.1616e-05
-1.67823e-05
-2.42625e-05
-3.0741e-05
-3.943e-05
-4.91191e-05
-5.7423e-05
-6.88412e-05
-8.23727e-05
-9.31708e-05
-0.000106466
-0.00012659
-0.00014076
-0.000154619
-0.000179822
-0.00020237
-0.000219865
-0.000238783
-0.000279975
-0.000315987
-0.00032136
-0.000346487
-0.000431284
-0.00048446
-0.00049565
-0.000501646
-0.000598494
-0.000703612
-0.000718724
-0.000733364
-0.000707581
-0.000686737
-0.00067826
-0.000625787
-0.000488747
-0.000367764
0.000148469
0.000750929
0.01752
0.0100503
0.000946127
0.00101788
0.000665244
0.000736472
0.000252892
-0.000426712
-0.000519801
-0.000263283
-0.000173218
-0.00106329
0.000566099
-0.00193386
-0.00203376
-0.00172
-0.00167943
-0.00173123
-0.00246648
-0.00223197
-0.00219429
-0.00286832
-0.00140443
-0.00174002
-0.00261999
-0.000333428
-0.00137912
0.000100726
0.000705904
-0.00175748
-0.00189897
0.000779272
0.00197448
0.00298022
0.00241948
0.00118829
0.00108307
0.00130593
0.0012917
0.00129453
0.00173585
0.00194047
0.00175457
0.00187166
0.00147222
0.00141595
0.0016532
0.00134643
0.00128972
0.00158284
0.000848382
0.000853593
0.000669723
0.000237226
0.000127017
-6.69603e-05
-0.00039461
-0.000553458
-0.000826067
-0.000960852
-0.00120846
-0.00127725
-0.00124317
-0.00130299
-0.00119175
-0.00130372
-0.00122481
-0.00113513
-0.00120816
-0.00103603
-0.000876522
-0.00083426
-0.000695848
-0.000792754
-0.000696352
-0.000659558
-0.00038902
-0.000918988
-0.000834005
-0.000134652
4.4009e-06
-1.15799e-05
-1.65808e-05
-2.42328e-05
-3.05758e-05
-3.8769e-05
-4.93878e-05
-5.72493e-05
-6.71434e-05
-8.34116e-05
-9.40308e-05
-0.000103769
-0.000127416
-0.000144885
-0.000152312
-0.000178169
-0.000211535
-0.000224695
-0.000237645
-0.000284429
-0.00032899
-0.000340813
-0.000355809
-0.00043045
-0.000506736
-0.000522952
-0.000507273
-0.000566755
-0.000691787
-0.000713107
-0.000686446
-0.000641229
-0.000573491
-0.000462929
-0.000297028
-0.000103112
0.000255363
0.00109913
0.00320997
0.0188372
0.00174347
0.000818028
-0.000391785
-0.000767791
-0.00116914
-0.000808979
-0.000278656
-0.000268053
0.000652105
1.89673e-05
0.000796609
0.000887376
0.001571
-0.000546992
-0.000846405
-0.00309975
-0.00125679
-0.00328077
-0.000731947
-0.00116786
-0.00200387
0.000973746
-0.00123063
-0.000573732
-0.00041252
-0.000764752
0.000529025
0.00210097
0.00208245
0.00163412
0.00114724
0.00117844
0.00126989
0.00138242
0.00152992
0.00195673
0.00190241
0.00187801
0.00182767
0.00165792
0.00182769
0.00167349
0.00151985
0.00153736
0.0015592
0.00149156
0.00132058
0.00114659
0.00111937
0.000992063
0.000677919
0.000728661
0.000326453
0.000162753
-2.62113e-05
-0.000319466
-0.000474974
-0.000798367
-0.000980908
-0.001028
-0.00115884
-0.00122318
-0.00126394
-0.00115956
-0.00115558
-0.0012275
-0.0010455
-0.00115785
-0.00103871
-0.000789345
-0.000814711
-0.000537286
-0.000594086
-0.000511657
-0.000605667
-0.00042219
-0.000663811
-0.000317215
-0.000132596
4.2581e-06
-1.15262e-05
-1.64089e-05
-2.39903e-05
-3.05486e-05
-3.81316e-05
-4.90889e-05
-5.74062e-05
-6.6048e-05
-8.31833e-05
-9.49094e-05
-0.00010277
-0.000127147
-0.000147823
-0.000152023
-0.000178153