/*--------------------------------*- C++ -*----------------------------------*\
| =========                 |                                                 |
| \\      /  F ield         | OpenFOAM: The Open Source CFD Toolbox           |
|  \\    /   O peration     | Version:  2.2.x                                 |
|   \\  /    A nd           | Web:      www.OpenFOAM.org                      |
|    \\/     M anipulation  |                                                 |
\*---------------------------------------------------------------------------*/
FoamFile
{
    version     2.0;
    format      ascii;
    class       volScalarField;
    location    "2";
    object      rho;
}
// * * * * * * * * * * * * * * * * * * * * * * * * * * * * * * * * * * * * * //

dimensions      [1 -3 0 0 0 0 0];

internalField   nonuniform List<scalar> 
14161
(
0.999349
0.999356
0.999326
0.999272
0.999186
0.99906
0.998912
0.998742
0.998502
0.998226
0.997959
0.99763
0.997219
0.996771
0.996294
0.995869
0.995261
0.994679
0.994307
0.993701
0.993049
0.992711
0.992379
0.99203
0.992025
0.992029
0.99198
0.991899
0.991878
0.992098
0.99288
0.994025
0.995348
0.997461
1.00123
1.00393
1.00573
1.00834
1.01217
1.01649
1.01964
1.33001
2.47352
2.70919
2.71609
2.71361
2.69871
2.68562
2.66191
2.64297
2.62081
2.59946
2.57746
2.55596
2.53679
2.51788
2.49814
2.47676
2.45679
2.44173
2.42914
2.41939
2.40899
2.39634
2.38419
2.37412
2.36434
2.35534
2.34855
2.3386
2.32778
2.318
2.30914
2.30061
2.29377
2.28986
2.29028
2.2891
2.28111
2.27118
2.26164
2.2534
2.24779
2.24322
2.22997
2.21132
2.19187
2.17316
2.15886
2.14858
2.14481
2.14447
2.10595
2.09948
2.08703
2.06782
2.04433
2.01425
1.97826
1.9349
1.89887
1.86875
1.84748
1.84034
1.8335
1.82508
1.82821
1.83429
1.88033
1.95369
2.12429
2.46172
2.78819
2.99632
3.10013
3.14411
3.15203
3.13781
3.16948
0.999348
0.999356
0.999326
0.999272
0.999186
0.99906
0.998912
0.998742
0.998503
0.998224
0.997957
0.997634
0.997216
0.996765
0.996313
0.995856
0.995251
0.99472
0.994274
0.993671
0.993115
0.992696
0.992316
0.992052
0.992043
0.99203
0.991941
0.991866
0.991855
0.992074
0.992832
0.993944
0.995265
0.997323
1.00103
1.0038
1.00601
1.0083
1.01161
1.01713
1.02087
1.33509
2.47451
2.70832
2.71667
2.7131
2.69788
2.68402
2.66002
2.64033
2.61713
2.59533
2.57243
2.55072
2.5305
2.51092
2.49029
2.46788
2.4479
2.43168
2.41753
2.40571
2.39505
2.38379
2.37257
2.36148
2.35108
2.34207
2.33522
2.32721
2.31734
2.30961
2.30408
2.29906
2.29048
2.28275
2.27883
2.27627
2.27254
2.26556
2.2566
2.24703
2.2384
2.23162
2.22506
2.21213
2.19527
2.17573
2.16034
2.14724
2.14216
2.13886
2.0977
2.08665
2.07188
2.05305
2.0303
1.9991
1.96622
1.93537
1.90557
1.8795
1.85829
1.84643
1.83277
1.82663
1.84051
1.8764
1.97083
2.10536
2.34801
2.63032
2.84917
3.00702
3.10332
3.14108
3.15389
3.12532
3.1735
0.999348
0.999356
0.999326
0.999271
0.999185
0.999061
0.998911
0.99874
0.998506
0.998223
0.997951
0.997638
0.997209
0.99676
0.996341
0.995837
0.995261
0.99476
0.994206
0.993663
0.993202
0.992629
0.992243
0.992101
0.992057
0.991972
0.991813
0.991767
0.991784
0.992024
0.992721
0.993741
0.995026
0.996972
1.00046
1.0036
1.00618
1.00825
1.01133
1.01871
1.02258
1.3448
2.47425
2.70829
2.71946
2.71172
2.69583
2.68025
2.65459
2.63275
2.60894
2.58526
2.56175
2.53883
2.51667
2.49694
2.47641
2.45419
2.43557
2.41799
2.40346
2.39219
2.38093
2.3673
2.35435
2.34084
2.32992
2.32275
2.31555
2.30627
2.29796
2.29201
2.28647
2.28642
2.28342
2.27508
2.26606
2.25835
2.25293
2.25029
2.245
2.2366
2.22652
2.21653
2.20818
2.20146
2.19246
2.17572
2.16151
2.14765
2.13982
2.13284
2.08958
2.07189
2.05538
2.03625
2.01518
1.98858
1.95977
1.93507
1.91373
1.89199
1.86883
1.85532
1.84506
1.85486
1.90323
2.0001
2.18706
2.39523
2.58522
2.71263
2.8242
2.93766
3.03738
3.10002
3.1275
3.1002
3.15579
0.999348
0.999356
0.999327
0.999271
0.999185
0.999063
0.998911
0.998739
0.998511
0.998223
0.997943
0.997642
0.997201
0.996757
0.996368
0.995816
0.995275
0.994791
0.99413
0.993661
0.993271
0.992545
0.992148
0.992129
0.992065
0.991867
0.991578
0.991562
0.991619
0.991916
0.99255
0.993414
0.994536
0.996275
0.999403
1.00316
1.00594
1.00799
1.01128
1.02059
1.02381
1.35906
2.4729
2.7099
2.72271
2.70915
2.69162
2.67302
2.64595
2.62029
2.595
2.569
2.54317
2.51769
2.49329
2.47183
2.45074
2.4289
2.40959
2.39248
2.3774
2.36611
2.35235
2.33697
2.32307
2.31003
2.29878
2.29275
2.28611
2.27776
2.27043
2.26481
2.26011
2.25954
2.26063
2.25584
2.24655
2.23661
2.22902
2.22494
2.22479
2.21979
2.2099
2.19765
2.18843
2.18314
2.17985
2.16539
2.15379
2.14203
2.13311
2.1227
2.08137
2.05966
2.04189
2.02278
2.00483
1.98484
1.96083
1.944
1.92458
1.90093
1.87988
1.87454
1.88089
1.93348
2.0649
2.27472
2.50886
2.66668
2.75112
2.79487
2.83534
2.90248
2.98721
3.05804
3.09521
3.07524
3.12688
0.999349
0.999357
0.999327
0.99927
0.999185
0.999066
0.998911
0.998736
0.998516
0.998225
0.997937
0.997643
0.997197
0.996756
0.996378
0.995806
0.995282
0.994805
0.994092
0.993648
0.993298
0.992486
0.992058
0.992098
0.992049
0.991736
0.99123
0.991237
0.991368
0.991705
0.992297
0.993002
0.993795
0.995187
0.997854
1.00196
1.00505
1.00735
1.01126
1.02163
1.02436
1.36978
2.45935
2.70805
2.72005
2.70427
2.68445
2.66128
2.63192
2.60105
2.57258
2.54382
2.51476
2.48646
2.45946
2.43614
2.41391
2.39161
2.3714
2.3541
2.33925
2.3276
2.31665
2.30488
2.29299
2.28055
2.26778
2.25849
2.25326
2.24808
2.24248
2.23642
2.23026
2.22532
2.22312
2.2242
2.22457
2.218
2.20875
2.2013
2.19819
2.19525
2.18794
2.17742
2.16794
2.16102
2.15786
2.14634
2.13882
2.13063
2.12251
2.11112
2.07692
2.05637
2.03886
2.01864
2.00029
1.98456
1.97029
1.95335
1.93315
1.91534
1.90844
1.92423
1.97853
2.13103
2.3615
2.57707
2.7094
2.76765
2.78974
2.80852
2.83871
2.88456
2.95474
3.02411
3.06139
3.05073
3.09229
0.99935
0.999357
0.999328
0.99927
0.999185
0.999068
0.998911
0.998733
0.998518
0.99823
0.997935
0.997641
0.997199
0.996761
0.996377
0.995809
0.99529
0.994787
0.994094
0.993673
0.993277
0.992461
0.992008
0.992008
0.991967
0.991592
0.990877
0.990815
0.990979
0.991312
0.991868
0.99248
0.992974
0.993822
0.995783
0.999556
1.00315
1.00603
1.01052
1.02033
1.02228
1.37135
2.42996
2.70813
2.7137
2.69599
2.67244
2.64197
2.61157
2.57382
2.54304
2.51383
2.48208
2.45009
2.42002
2.39232
2.36872
2.34878
2.33215
2.31542
2.29865
2.28505
2.27633
2.27107
2.2673
2.26103
2.24784
2.23444
2.22584
2.22157
2.21949
2.2182
2.21039
2.19984
2.19166
2.18905
2.19455
2.20085
2.19567
2.18572
2.17802
2.17211
2.16598
2.1582
2.15104
2.14338
2.13772
2.12648
2.12282
2.11726
2.11025
2.10051
2.07419
2.05559
2.04077
2.02162
2.00578
1.99474
1.98007
1.96476
1.95208
1.952
1.9763
2.04966
2.20886
2.43542
2.62621
2.73188
2.77359
2.78626
2.79578
2.80887
2.83704
2.87296
2.93204
2.99306
3.03205
3.0323
3.06341
0.999351
0.999358
0.999328
0.999271
0.999185
0.99907
0.998913
0.99873
0.998519
0.998238
0.997934
0.997635
0.997208
0.996767
0.996366
0.995834
0.995283
0.994746
0.994146
0.993677
0.993159
0.992466
0.99202
0.991847
0.991755
0.991439
0.99065
0.990274
0.990384
0.990701
0.991214
0.991776
0.992169
0.992501
0.993407
0.995644
0.999739
1.00357
1.00783
1.01501
1.01687
1.35025
2.38832
2.71006
2.70841
2.68809
2.6606
2.61787
2.58391
2.54441
2.50964
2.4788
2.44487
2.41152
2.38223
2.35402
2.32981
2.31313
2.30296
2.28797
2.271
2.2562
2.246
2.23993
2.2371
2.23911
2.23687
2.227
2.21295
2.20292
2.19804
2.20153
2.20277
2.19456
2.18228
2.17253
2.16821
2.17258
2.17675
2.17131
2.16365
2.15729
2.15144
2.14335
2.13697
2.13139
2.12764
2.1175
2.11554
2.11073
2.10499
2.09608
2.07621
2.0594
2.04936
2.03386
2.02065
2.01146
1.99668
1.99522
2.00097
2.04054
2.14054
2.31474
2.51404
2.66359
2.74234
2.76434
2.77331
2.77991
2.79114
2.80709
2.83363
2.86137
2.91137
2.9665
3.00849
3.01987
3.04604
0.999353
0.99936
0.99933
0.999272
0.999185
0.999071
0.998917
0.998728
0.99852
0.998249
0.997936
0.997625
0.997226
0.99678
0.996342
0.995865
0.995276
0.994694
0.99421
0.993682
0.992978
0.992457
0.992071
0.99167
0.991395
0.99117
0.990513
0.989742
0.989607
0.989822
0.990289
0.990801
0.991115
0.991322
0.991218
0.991521
0.994117
0.998484
1.00155
1.00542
1.0071
1.28538
2.33026
2.71604
2.7113
2.67448
2.63755
2.57957
2.54362
2.50447
2.4672
2.43567
2.40712
2.37624
2.35086
2.3273
2.30714
2.29576
2.28675
2.26957
2.25406
2.24376
2.23199
2.22043
2.21327
2.21086
2.21444
2.22041
2.2131
2.19628
2.18571
2.18196
2.18697
2.18885
2.18303
2.17098
2.15964
2.15296
2.15338
2.15382
2.14933
2.14518
2.14198
2.13548
2.12844
2.12243
2.121
2.11461
2.11535
2.11319
2.10956
2.10365
2.08888
2.07493
2.06986
2.05416
2.0457
2.04623
2.04
2.06858
2.12039
2.24475
2.42723
2.6021
2.70175
2.74934
2.75785
2.75922
2.76203
2.76895
2.78598
2.80465
2.82667
2.8459
2.89229
2.94541
2.98979
3.00984
3.03554
0.999355
0.999362
0.999332
0.999274
0.999186
0.999073
0.998921
0.998728
0.998518
0.998263
0.997941
0.997609
0.997249
0.996796
0.99631
0.995887
0.995288
0.994651
0.994251
0.993693
0.992821
0.992416
0.992114
0.991579
0.990966
0.990755
0.990357
0.989493
0.988765
0.988662
0.988982
0.989445
0.989729
0.989838
0.989607
0.988208
0.987554
0.988579
0.991029
0.993052
0.994954
1.15729
2.22483
2.7179
2.70241
2.63737
2.59381
2.52512
2.49059
2.45885
2.42783
2.39671
2.37598
2.34837
2.32647
2.30763
2.28949
2.28268
2.27533
2.25819
2.24298
2.23124
2.21981
2.20716
2.19759
2.19214
2.19312
2.20236
2.19929
2.18998
2.17783
2.17235
2.17218
2.17615
2.17068
2.16174
2.14964
2.14254
2.13977
2.13966
2.13624
2.13441
2.13334
2.12959
2.12509
2.12209
2.12244
2.11878
2.12032
2.12243
2.12244
2.1214
2.11101
2.09987
2.10048
2.08704
2.10382
2.12126
2.14094
2.23962
2.36822
2.53864
2.67808
2.74531
2.75516
2.753
2.74921
2.7469
2.74852
2.76052
2.78163
2.8005
2.81665
2.83128
2.87601
2.9279
2.97418
3.00079
3.02846
0.999357
0.999364
0.999334
0.999277
0.999188
0.999074
0.998926
0.99873
0.998516
0.998276
0.997948
0.997591
0.997267
0.996816
0.996294
0.995887
0.995296
0.994636
0.994249
0.993675
0.992742
0.99232
0.992089
0.991564
0.990595
0.990219
0.989985
0.989405
0.988324
0.987397
0.987248
0.987569
0.987828
0.987944
0.987675
0.986308
0.982673
0.978331
0.976627
0.97665
0.979764
1.01441
2.02053
2.72364
2.69558
2.58797
2.5492
2.48334
2.44956
2.42811
2.40145
2.36933
2.3537
2.32882
2.30665
2.28947
2.274
2.2699
2.25947
2.24329
2.2298
2.21795
2.2069
2.19507
2.18462
2.17675
2.17471
2.17765
2.18137
2.17618
2.16742
2.15951
2.15429
2.1535
2.15354
2.14805
2.13875
2.13119
2.12791
2.12556
2.12514
2.12808
2.1312
2.1313
2.13037
2.12947
2.13127
2.13019
2.13025
2.14057
2.14133
2.14619
2.14735
2.14456
2.16091
2.16096
2.21166
2.27371
2.35797
2.51888
2.65164
2.74442
2.78613
2.77258
2.75378
2.74138
2.73835
2.73567
2.73958
2.75475
2.77687
2.79248
2.80587
2.82222
2.86427
2.91372
2.96086
2.99129
3.02034
0.999361
0.999367
0.999337
0.99928
0.999192
0.999076
0.998931
0.998735
0.998514
0.998283
0.997956
0.997585
0.997273
0.996833
0.996297
0.99588
0.995307
0.994659
0.994212
0.993645
0.992736
0.992215
0.991985
0.99155
0.990395
0.989639
0.989422
0.989095
0.988262
0.986661
0.9855
0.985198
0.985331
0.985221
0.985309
0.984201
0.980803
0.972638
0.963764
0.95852
0.956988
0.962066
1.58831
2.66842
2.69874
2.55676
2.52262
2.46619
2.41954
2.39273
2.36673
2.33028
2.32471
2.2939
2.27165
2.26229
2.24076
2.2409
2.23063
2.21648
2.20574
2.1963
2.18729
2.17578
2.16597
2.15853
2.15353
2.15363
2.15492
2.15662
2.14937
2.14243
2.13554
2.13392
2.13531
2.13713
2.133
2.12545
2.12193
2.12082
2.12423
2.12859
2.13416
2.13821
2.13721
2.14087
2.14643
2.15026
2.15301
2.17711
2.18118
2.19194
2.21055
2.22298
2.26794
2.31485
2.42624
2.53187
2.64409
2.75743
2.80899
2.81471
2.79351
2.76332
2.74236
2.73315
2.73123
2.73069
2.73794
2.75413
2.76977
2.78017
2.79507
2.81645
2.85536
2.90201
2.94953
2.98134
3.01005
0.999364
0.99937
0.99934
0.999284
0.999197
0.999079
0.998934
0.998742
0.998515
0.998286
0.997967
0.99759
0.997272
0.996847
0.996312
0.99586
0.995324
0.9947
0.994137
0.993572
0.992763
0.992131
0.991793
0.991414
0.990309
0.989162
0.988789
0.988538
0.987975
0.986548
0.984587
0.983085
0.98252
0.982405
0.98266
0.981625
0.978204
0.971404
0.958996
0.947653
0.935128
0.934747
1.14592
2.56757
2.83779
2.63117
2.5459
2.47124
2.40607
2.36339
2.32526
2.29113
2.28866
2.25195
2.23315
2.22562
2.20006
2.19936
2.18795
2.17579
2.16801
2.16089
2.1543
2.14797
2.14104
2.13641
2.13138
2.12706
2.12581
2.12698
2.12843
2.1267
2.12489
2.12146
2.12285
2.12501
2.12707
2.12518
2.12455
2.1228
2.12827
2.13514
2.143
2.15167
2.15322
2.16754
2.18103
2.19086
2.19741
2.24087
2.26042
2.29063
2.34073
2.39053
2.47901
2.5799
2.70143
2.77776
2.83191
2.86333
2.8397
2.80887
2.77617
2.75004
2.73569
2.72968
2.72783
2.73072
2.74148
2.75311
2.76047
2.76918
2.78513
2.80742
2.84505
2.89248
2.94022
2.97248
2.99978
0.999368
0.999374
0.999343
0.999288
0.999202
0.999082
0.998938
0.998752
0.998522
0.998286
0.99798
0.997606
0.997263
0.996862
0.996339
0.995826
0.995334
0.994759
0.994071
0.993473
0.992812
0.992123
0.991554
0.991107
0.990265
0.989022
0.988057
0.987726
0.987306
0.986402
0.984659
0.982199
0.980137
0.979374
0.979041
0.978533
0.975976
0.971152
0.962409
0.948567
0.942567
0.95712
1.12387
2.21796
2.78557
2.66423
2.56626
2.48549
2.40634
2.34827
2.29648
2.2531
2.23668
2.20755
2.19546
2.18996
2.16465
2.16183
2.14948
2.1368
2.12922
2.12511
2.12092
2.11804
2.11594
2.11546
2.11356
2.10659
2.10199
2.10306
2.11069
2.11899
2.12193
2.12055
2.11719
2.12056
2.12637
2.13265
2.13647
2.13535
2.14384
2.15615
2.17034
2.18482
2.19485
2.22731
2.25472
2.27991
2.30428
2.37994
2.42948
2.48922
2.57614
2.65123
2.74088
2.81582
2.88383
2.90297
2.87832
2.85736
2.82493
2.79209
2.76306
2.74266
2.73512
2.73185
2.73001
2.73308
2.7404
2.74826
2.75333
2.7612
2.77505
2.7964
2.83507
2.88209
2.93054
2.96442
2.99033
0.999373
0.999379
0.999348
0.999292
0.999209
0.999087
0.998942
0.998763
0.998532
0.998283
0.997996
0.99763
0.997249
0.996874
0.996379
0.9958
0.995325
0.994812
0.994044
0.993361
0.99282
0.992191
0.991296
0.990684
0.990084
0.989123
0.987546
0.986585
0.986258
0.985877
0.984842
0.982875
0.979178
0.976699
0.97525
0.974185
0.97332
0.970981
0.966415
0.956102
0.954596
0.984469
1.29996
1.91432
2.48344
2.57134
2.53235
2.48162
2.39337
2.32848
2.27446
2.23061
2.20231
2.17653
2.16885
2.16179
2.13905
2.13347
2.12177
2.11184
2.10335
2.09694
2.09367
2.09267
2.09657
2.10222
2.10222
2.09931
2.09197
2.09277
2.1015
2.1201
2.12682
2.12918
2.12259
2.12809
2.14053
2.15844
2.17024
2.17531
2.19449
2.21697
2.24468
2.26843
2.29954
2.36199
2.41468
2.45968
2.51348
2.61466
2.68044
2.74727
2.81761
2.87422
2.91829
2.93452
2.92576
2.90334
2.86905
2.83919
2.80904
2.7805
2.75775
2.74513
2.73951
2.7368
2.73421
2.7327
2.73618
2.74366
2.74889
2.75479
2.76537
2.78858
2.82708
2.87081
2.92016
2.95575
2.97997
0.999378
0.999384
0.999353
0.999297
0.999215
0.999094
0.998946
0.998774
0.998545
0.99828
0.998013
0.997661
0.997243
0.99688
0.996418
0.995793
0.995305
0.994831
0.994052
0.993271
0.992793
0.992237
0.991114
0.990283
0.989829
0.989153
0.987446
0.985591
0.985087
0.985012
0.984766
0.983548
0.979883
0.975109
0.97296
0.971354
0.97048
0.970071
0.969437
0.965213
0.96798
1.04139
1.59991
1.95715
2.11428
2.33914
2.44929
2.44646
2.38382
2.32842
2.27624
2.22643
2.19183
2.16416
2.15242
2.14448
2.12824
2.11823
2.10878
2.10315
2.09452
2.08639
2.08316
2.08227
2.08737
2.09557
2.09612
2.09783
2.09678
2.09766
2.11043
2.13358
2.14549
2.15367
2.14943
2.16584
2.19057
2.22158
2.24821
2.27116
2.31448
2.35827
2.40353
2.45128
2.51228
2.59885
2.66509
2.71375
2.76707
2.84033
2.89213
2.92545
2.94903
2.9618
2.95265
2.93649
2.91272
2.88558
2.85592
2.82738
2.79994
2.7781
2.76157
2.75067
2.74273
2.73885
2.73633
2.7332
2.73365
2.73946
2.74245
2.74746
2.75984
2.78512
2.81826
2.8618
2.91105
2.94567
2.9679
0.999383
0.99939
0.999359
0.999303
0.999222
0.999103
0.998951
0.998785
0.99856
0.998282
0.998023
0.997688
0.997248
0.99688
0.996449
0.995805
0.995283
0.994825
0.994069
0.993229
0.99274
0.99221
0.99105
0.989973
0.989546
0.988998
0.987511
0.98516
0.984164
0.984069
0.984342
0.983678
0.981089
0.974786
0.972135
0.9707
0.96989
0.969783
0.970693
0.972642
0.987237
1.23007
1.83855
1.96433
1.98067
2.08056
2.27099
2.39456
2.39228
2.34453
2.29518
2.24197
2.20251
2.1685
2.15125
2.14101
2.12818
2.1147
2.1056
2.1019
2.09348
2.08828
2.08695
2.08514
2.09218
2.09879
2.09846
2.1121
2.12554
2.12918
2.15506
2.1739
2.19182
2.21782
2.23677
2.27591
2.31712
2.36477
2.41826
2.47114
2.54235
2.59884
2.65223
2.70508
2.76346
2.82473
2.87192
2.90416
2.93012
2.95187
2.9635
2.96845
2.95817
2.9537
2.93837
2.92186
2.89925
2.8733
2.84528
2.82068
2.79915
2.78274
2.76798
2.75489
2.74321
2.73792
2.7379
2.73669
2.73436
2.73421
2.73428
2.73939
2.75486
2.78028
2.80925
2.85575
2.90361
2.93456
2.95539
0.99939
0.999396
0.999366
0.999309
0.999229
0.999113
0.998958
0.998793
0.998576
0.998292
0.998027
0.997711
0.997265
0.996876
0.99646
0.995838
0.995274
0.994799
0.994097
0.993237
0.992655
0.992105
0.991071
0.989809
0.989171
0.98864
0.987535
0.985235
0.983615
0.98322
0.983423
0.983253
0.981554
0.975811
0.972199
0.971067
0.970649
0.970805
0.971549
0.975497
1.00591
1.49494
1.97889
1.96105
1.95743
1.98644
2.07662
2.23555
2.34853
2.3621
2.32404
2.27974
2.23227
2.18955
2.16356
2.15054
2.13965
2.12433
2.11436
2.10964
2.09953
2.10335
2.10862
2.1056
2.12048
2.13208
2.13503
2.17278
2.19535
2.20913
2.25198
2.27935
2.32293
2.37612
2.4307
2.49356
2.55456
2.61418
2.66609
2.71709
2.76925
2.8159
2.86045
2.89182
2.91492
2.92959
2.94068
2.95079
2.9601
2.96377
2.95581
2.952
2.94218
2.93728
2.92417
2.9108
2.89036
2.86456
2.83973
2.81954
2.8022
2.78633
2.77149
2.75743
2.74404
2.73712
2.73848
2.73939
2.73461
2.72921
2.72781
2.73277
2.74682
2.76921
2.80193
2.85065
2.8956
2.92372
2.94346
0.999396
0.999403
0.999374
0.999316
0.999237
0.999125
0.99897
0.9988
0.998593
0.998312
0.99803
0.997726
0.997302
0.996872
0.996461
0.995893
0.995273
0.994754
0.994126
0.993282
0.992545
0.991929
0.991084
0.989808
0.988758
0.988148
0.98734
0.985715
0.983501
0.982406
0.982162
0.982241
0.981269
0.977572
0.97325
0.972167
0.971953
0.971958
0.972519
0.977309
1.02986
1.75004
2.03373
2.02287
2.00115
1.9962
2.01643
2.07583
2.2039
2.33056
2.36056
2.33834
2.26776
2.23433
2.20033
2.17723
2.16687
2.14595
2.14296
2.14169
2.12686
2.15101
2.16372
2.16144
2.20021
2.2224
2.24206
2.30156
2.34235
2.37557
2.43623
2.50066
2.56644
2.6299
2.6815
2.73141
2.78092
2.82505
2.85602
2.87953
2.89593
2.91147
2.92533
2.93358
2.93609
2.93784
2.94163
2.94245
2.94452
2.9485
2.94273
2.93746
2.92693
2.92133
2.91288
2.90068
2.88047
2.85846
2.83823
2.82128
2.80511
2.7877
2.77154
2.75868
2.74757
2.73834
2.73714
2.7388
2.73437
2.72671
2.72473
2.72855
2.7382
2.75595
2.79436
2.84401
2.88723
2.91398
2.93245
0.999404
0.99941
0.999382
0.999325
0.999244
0.999137
0.998984
0.998808
0.99861
0.998341
0.998035
0.997741
0.997349
0.996879
0.996459
0.995956
0.995291
0.994697
0.994134
0.993373
0.99245
0.991733
0.991024
0.989895
0.98844
0.987635
0.987057
0.986056
0.983868
0.981773
0.981046
0.980894
0.980641
0.97914
0.975441
0.973736
0.973684
0.97389
0.974889
0.984685
1.16735
1.91251
2.06647
2.05696
2.03764
2.01963
2.00799
2.01865
2.07186
2.17925
2.30255
2.32691
2.31359
2.27607
2.23976
2.20666
2.2124
2.18654
2.20522
2.2105
2.20111
2.25512
2.27646
2.29382
2.36689
2.40254
2.4508
2.53437
2.58477
2.62295
2.67761
2.73664
2.78671
2.82846
2.85536
2.87157
2.88426
2.89551
2.90474
2.91216
2.91853
2.92287
2.92447
2.92515
2.92172
2.92487
2.93098
2.93294
2.93193
2.93053
2.9259
2.9221
2.91537
2.91163
2.90354
2.88969
2.87165
2.8542
2.83803
2.82394
2.8073
2.78877
2.7726
2.76095
2.75284
2.74248
2.73522
2.7342
2.73317
2.72736
2.72457
2.72467
2.73085
2.74635
2.78583
2.8355
2.87848
2.90481
2.92216
0.999412
0.999418
0.999391
0.999336
0.999253
0.999149
0.999
0.998817
0.998628
0.998371
0.998047
0.997753
0.997397
0.996896
0.99646
0.996005
0.99533
0.994656
0.994121
0.99346
0.992425
0.991574
0.99092
0.98998
0.988346
0.987231
0.986721
0.986056
0.98447
0.981523
0.980175
0.979812
0.979904
0.979518
0.978181
0.976014
0.974935
0.975204
0.976884
0.993049
1.3564
2.01767
2.07256
2.06164
2.04909
2.03348
2.01773
2.01616
2.02624
2.06418
2.15598
2.26731
2.33412
2.30574
2.31161
2.26042
2.30283
2.28248
2.3223
2.33894
2.36775
2.44367
2.49026
2.53677
2.61158
2.65228
2.6966
2.75085
2.7939
2.82159
2.84907
2.8689
2.88103
2.889
2.89219
2.89565
2.90055
2.90331
2.90539
2.90787
2.90906
2.91045
2.91013
2.90971
2.91106
2.91362
2.91839
2.91998
2.91699
2.91206
2.9093
2.90866
2.90681
2.90348
2.89294
2.87931
2.86552
2.8522
2.83916
2.82583
2.80909
2.79161
2.77599
2.76419
2.75663
2.74774
2.7353
2.72849
2.72858
2.72399
2.72063
2.72027
2.72539
2.74111
2.77806
2.8263
2.8701
2.8965
2.91221
0.999422
0.999427
0.9994
0.999347
0.999263
0.999161
0.999018
0.998831
0.998642
0.998403
0.998068
0.997765
0.997432
0.99693
0.996463
0.996035
0.99538
0.994646
0.994108
0.993494
0.992459
0.991471
0.990792
0.989971
0.988423
0.98697
0.986317
0.985867
0.984801
0.981835
0.979589
0.979086
0.979082
0.979345
0.979157
0.9783
0.976134
0.975047
0.977039
1.00177
1.53724
2.07657
2.07214
2.06252
2.05521
2.04373
2.03087
2.0236
2.02224
2.02301
2.05051
2.14896
2.25768
2.34184
2.4054
2.37075
2.45025
2.45273
2.50601
2.54714
2.59961
2.66878
2.72032
2.75953
2.80112
2.83068
2.85166
2.86752
2.87694
2.88231
2.88869
2.89312
2.8942
2.8929
2.89121
2.89217
2.89188
2.89422
2.89612
2.8964
2.89646
2.89426
2.89422
2.89577
2.89902
2.90045
2.90147
2.90116
2.89916
2.89573
2.89533
2.89653
2.89496
2.89066
2.88084
2.87134
2.86238
2.85216
2.84008
2.82659
2.81118
2.79552
2.78033
2.76666
2.75764
2.75
2.73712
2.72505
2.72123
2.71706
2.71276
2.71398
2.72063
2.73777
2.77163
2.81705
2.86129
2.88813
2.90228
0.999432
0.999437
0.999411
0.99936
0.999276
0.999174
0.999039
0.998851
0.998655
0.998431
0.998104
0.997779
0.997459
0.996982
0.996478
0.996047
0.995442
0.99467
0.994078
0.993491
0.992518
0.991416
0.990667
0.989917
0.988568
0.986853
0.98598
0.985525
0.984757
0.98247
0.979447
0.978538
0.978434
0.978611
0.979059
0.978739
0.977031
0.974674
0.976891
1.01392
1.73369
2.09588
2.09924
2.08956
2.07766
2.06382
2.05117
2.04121
2.03161
2.02661
2.03953
2.1041
2.20922
2.37306
2.51927
2.56575
2.62608
2.65325
2.69868
2.7404
2.78187
2.81982
2.84568
2.8571
2.86846
2.87871
2.88504
2.88951
2.89016
2.88917
2.88794
2.88659
2.88486
2.88362
2.88343
2.88353
2.88239
2.88272
2.8824
2.88256
2.88271
2.88072
2.88031
2.88145
2.8838
2.88422
2.88377
2.88241
2.88227
2.88137
2.88241
2.88451
2.88256
2.87819
2.87173
2.86657
2.86063
2.8519
2.84028
2.82752
2.81417
2.79998
2.78465
2.76843
2.75694
2.74884
2.73806
2.72364
2.7143
2.7093
2.70472
2.70629
2.7144
2.73284
2.76508
2.80895
2.85273
2.87905
2.8909
0.999443
0.999448
0.999422
0.999373
0.999291
0.999187
0.999059
0.998876
0.998671
0.998457
0.998149
0.997801
0.997482
0.997049
0.996511
0.996051
0.995509
0.994734
0.994056
0.993462
0.992599
0.991421
0.990552
0.989825
0.988731
0.986887
0.98567
0.985069
0.984495
0.983101
0.979878
0.978083
0.977713
0.97776
0.978129
0.978408
0.977305
0.974802
0.979845
1.0992
1.8695
2.10258
2.10688
2.10212
2.09342
2.08608
2.08006
2.07354
2.06404
2.06048
2.09692
2.18799
2.30458
2.55704
2.69098
2.73684
2.76697
2.78853
2.81141
2.83002
2.84367
2.85599
2.86567
2.87127
2.87534
2.87892
2.88118
2.88084
2.88066
2.87947
2.87818
2.87673
2.87456
2.87277
2.87091
2.8712
2.87046
2.86933
2.86801
2.86734
2.86794
2.86676
2.86652
2.86716
2.86852
2.86886
2.86884
2.86731
2.86846
2.86973
2.87077
2.87235
2.87049
2.86618
2.86272
2.86195
2.8585
2.85059
2.83936
2.82795
2.81729
2.80469
2.78791
2.76927
2.7551
2.74565
2.73712
2.72329
2.70977
2.70228
2.69816
2.69941
2.70753
2.72598
2.75744
2.8013
2.84344
2.86843
2.87897
0.999454
0.99946
0.999434
0.999387
0.999308
0.999202
0.99908
0.998905
0.998691
0.998482
0.998199
0.997833
0.997508
0.997118
0.996559
0.99606
0.995567
0.994839
0.994058
0.99343
0.992679
0.991496
0.990461
0.98971
0.988789
0.987098
0.98541
0.984588
0.984067
0.983199
0.98113
0.978079
0.976841
0.976707
0.976824
0.977459
0.977408
0.978057
0.989025
1.28266
1.98466
2.09018
2.09452
2.09505
2.09496
2.09705
2.10286
2.10675
2.11544
2.13711
2.2075
2.37233
2.5523
2.77842
2.81589
2.82647
2.82612
2.82671
2.83143
2.83968
2.84628
2.85212
2.85738
2.85774
2.86062
2.86399
2.8658
2.86561
2.8644
2.86276
2.86287
2.86253
2.8611
2.85963
2.85802
2.85848
2.85832
2.85765
2.85569
2.85403
2.85414
2.85304
2.85321
2.85333
2.85422
2.85426
2.85463
2.85359
2.8557
2.85853
2.85899
2.85933
2.85742
2.85468
2.8541
2.85602
2.85401
2.84705
2.83732
2.82858
2.82068
2.80882
2.79053
2.7702
2.75327
2.74178
2.73365
2.72207
2.70704
2.69692
2.69309
2.69394
2.70126
2.71882
2.75019
2.79415
2.83411
2.85723
2.86625
0.999467
0.999473
0.999447
0.999402
0.999326
0.999219
0.999101
0.998936
0.998717
0.998507
0.99825
0.997876
0.997539
0.997178
0.996626
0.996085
0.995621
0.994956
0.994086
0.993409
0.992736
0.991639
0.990409
0.989581
0.988788
0.987416
0.985323
0.984078
0.983474
0.98301
0.981948
0.979272
0.976097
0.975201
0.975134
0.975462
0.976508
0.979224
1.00063
1.49187
2.05313
2.0834
2.08473
2.08637
2.09242
2.10306
2.11836
2.13652
2.1764
2.26859
2.3929
2.64408
2.78631
2.84745
2.8479
2.84292
2.8374
2.83317
2.83149
2.83303
2.83542
2.83734
2.8391
2.83805
2.8383
2.84039
2.84324
2.84445
2.84428
2.84383
2.84418
2.84475
2.84473
2.84438
2.84334
2.84335
2.84339
2.84311
2.84112
2.83923
2.83918
2.83837
2.83892
2.83881
2.83941
2.8392
2.84041
2.84077
2.84333
2.84656
2.84656
2.84598
2.84486
2.84435
2.84652
2.84975
2.84777
2.84157
2.83416
2.82878
2.82238
2.80996
2.79074
2.77004
2.7513
2.73752
2.72815
2.71907
2.70546
2.69467
2.69048
2.69022
2.69669
2.71281
2.74361
2.78621
2.82442
2.84602
2.8547
0.999481
0.999487
0.999461
0.999418
0.999347
0.99924
0.999123
0.998971
0.998752
0.998534
0.998296
0.997935
0.997577
0.997235
0.99671
0.996133
0.995673
0.995073
0.994151
0.99341
0.992779
0.991809
0.990428
0.989466
0.988733
0.98767
0.985513
0.983654
0.982854
0.982563
0.982048
0.980578
0.976652
0.973706
0.972972
0.972749
0.973378
0.977228
1.01534
1.70413
2.11025
2.11511
2.10986
2.10402
2.10738
2.12147
2.13983
2.19046
2.27296
2.46714
2.64692
2.83416
2.86412
2.85549
2.84248
2.83668
2.82989
2.82467
2.82163
2.82021
2.81975
2.8185
2.81788
2.81588
2.81437
2.81456
2.8153
2.81733
2.81946
2.82052
2.82189
2.82302
2.82381
2.82428
2.82473
2.82504
2.82508
2.82556
2.82453
2.82353
2.82323
2.82285
2.8237
2.82334
2.82405
2.82439
2.82687
2.82844
2.83103
2.83389
2.83388
2.83292
2.83305
2.83558
2.83916
2.84251
2.84063
2.83598
2.83179
2.82913
2.82282
2.80983
2.79085
2.77059
2.75102
2.73401
2.72149
2.71186
2.70069
2.69122
2.68733
2.68627
2.69237
2.70808
2.73774
2.77859
2.8147
2.83499
2.84311
0.999496
0.999502
0.999477
0.999435
0.999369
0.999264
0.999146
0.999005
0.998794
0.998566
0.998342
0.998006
0.997626
0.99729
0.996813
0.996208
0.995723
0.995171
0.994281
0.993452
0.992811
0.991967
0.990535
0.989416
0.988655
0.987746
0.985881
0.983495
0.982265
0.981814
0.981672
0.980788
0.978435
0.973356
0.971594
0.970682
0.970971
0.97658
1.0779
1.86734
2.12208
2.12679
2.12369
2.12029
2.12943
2.15265
2.18573
2.3091
2.46571
2.72171
2.83075
2.87551
2.8611
2.8424
2.83514
2.82782
2.82089
2.81432
2.80935
2.80578
2.80331
2.80093
2.79858
2.79594
2.79386
2.79248
2.79137
2.79149
2.7917
2.79287
2.79516
2.79678
2.79812
2.79994
2.80186
2.80304
2.80388
2.80551
2.80604
2.80702
2.80673
2.80691
2.80813
2.80785
2.80875
2.80965
2.81306
2.81557
2.81815
2.82049
2.82117
2.82111
2.82291
2.82692
2.83038
2.83269
2.83132
2.82963
2.82913
2.82757
2.82012
2.80668
2.79027
2.77168
2.75162
2.73196
2.71529
2.70279
2.69353
2.68622
2.68321
2.68345
2.68943
2.70503
2.73223
2.77065
2.80487
2.82418
2.83184
0.999513
0.999519
0.999495
0.999454
0.999392
0.999292
0.999171
0.99904
0.998842
0.998606
0.998389
0.998083
0.99769
0.997349
0.996926
0.996312
0.99578
0.99527
0.994463
0.993537
0.992848
0.99208
0.990758
0.989428
0.988542
0.987734
0.986314
0.9837
0.981803
0.98092
0.980729
0.980376
0.978998
0.975498
0.971682
0.970992
0.971977
0.984245
1.27155
2.00618
2.11515
2.11999
2.12504
2.13015
2.15917
2.22042
2.31018
2.54359
2.7204
2.85634
2.88175
2.86773
2.8457
2.83207
2.82038
2.81245
2.80516
2.79917
2.79456
2.79102
2.78872
2.78658
2.78455
2.78194
2.77845
2.77519
2.77204
2.76974
2.76768
2.76777
2.76892
2.77072
2.77349
2.77681
2.78003
2.78298
2.78325
2.78592
2.78823
2.79047
2.7908
2.79218
2.79328
2.79308
2.79384
2.7949
2.79795
2.80067
2.80352
2.80497
2.80696
2.80956
2.81261
2.81673
2.81966
2.82215
2.82332
2.82496
2.82594
2.82304
2.81334
2.80029
2.78733
2.77083
2.75099
2.7303
2.71005
2.69392
2.68397
2.67871
2.67636
2.6783
2.68505
2.70061
2.72612
2.76242
2.79569
2.81453
2.82039
0.99953
0.999537
0.999515
0.999473
0.999416
0.999322
0.9992
0.999076
0.998893
0.998654
0.99844
0.998165
0.997767
0.997419
0.997036
0.996444
0.995865
0.995376
0.994676
0.993676
0.992899
0.992201
0.991068
0.989523
0.988461
0.987666
0.986575
0.984335
0.981647
0.980054
0.979323
0.979248
0.978657
0.976895
0.973386
0.970353
0.972128
0.99406
1.47701
2.06996
2.11075
2.11975
2.13748
2.15891
2.22544
2.36771
2.54484
2.79007
2.8605
2.885
2.8718
2.85001
2.83278
2.81612
2.80451
2.7954
2.78872
2.78364
2.77976
2.77681
2.77464
2.77247
2.77031
2.76797
2.76498
2.76203
2.7584
2.75504
2.75187
2.74977
2.7485
2.74841
2.75044
2.75336
2.75683
2.76102
2.76232
2.76591
2.76986
2.77298
2.77422
2.77649
2.77806
2.77859
2.77996
2.78142
2.78395
2.78655
2.78992
2.79184
2.79573
2.79981
2.80186
2.80497
2.80786
2.81058
2.81575
2.82092
2.82174
2.81703
2.80662
2.79565
2.78448
2.76948
2.7498
2.72826
2.70689
2.68825
2.67611
2.67085
2.6696
2.67285
2.68061
2.69561
2.7199
2.75419
2.78581
2.80447
2.81006
0.99955
0.999557
0.999536
0.999495
0.999442
0.999355
0.999234
0.999113
0.998949
0.998711
0.998496
0.998247
0.997864
0.9975
0.99715
0.996598
0.995982
0.995501
0.994891
0.993875
0.993011
0.99234
0.991406
0.989743
0.988439
0.987585
0.986748
0.985103
0.981948
0.979508
0.978001
0.977373
0.977429
0.976607
0.974278
0.969411
0.971538
1.00879
1.68406
2.11222
2.13066
2.14694
2.18381
2.25139
2.38162
2.62128
2.78789
2.875
2.87627
2.86776
2.85252
2.83336
2.81459
2.79976
2.78884
2.78058
2.77457
2.7699
2.76618
2.76321
2.76086
2.75864
2.75666
2.75466
2.75236
2.75013
2.74688
2.74344
2.73962
2.73588
2.73319
2.73138
2.73204
2.73262
2.7352
2.73883
2.74172
2.74629
2.75063
2.75471
2.75729
2.75978
2.76215
2.76397
2.76612
2.76711
2.76901
2.77094
2.77432
2.77785
2.783
2.78743
2.78986
2.793
2.7955
2.79997
2.80796