/*--------------------------------*- C++ -*----------------------------------*\
| =========                 |                                                 |
| \\      /  F ield         | OpenFOAM: The Open Source CFD Toolbox           |
|  \\    /   O peration     | Version:  2.2.x                                 |
|   \\  /    A nd           | Web:      www.OpenFOAM.org                      |
|    \\/     M anipulation  |                                                 |
\*---------------------------------------------------------------------------*/
FoamFile
{
    version     2.0;
    format      ascii;
    class       surfaceScalarField;
    location    "2.7";
    object      cfmax;
}
// * * * * * * * * * * * * * * * * * * * * * * * * * * * * * * * * * * * * * //

dimensions      [0 3 -1 0 0 0 0];

internalField   nonuniform List<scalar> 
28084
(
0.00126152
0.00125191
0.00124842
0.00124435
0.00124144
0.00123907
0.00123738
0.00123626
0.00123569
0.0012356
0.00123595
0.0012367
0.0012378
0.0012392
0.00124084
0.00124268
0.00124469
0.00124686
0.00124909
0.00125136
0.00125364
0.00125589
0.0012581
0.00126022
0.00126222
0.00126408
0.00126581
0.00126741
0.00126876
0.00127
0.00127102
0.00127193
0.00127248
0.0012727
0.00127265
0.00127253
0.00127229
0.00127188
0.00127132
0.0012706
0.00127007
0.00126969
0.00127016
0.0012706
0.00127061
0.00130374
0.00101484
0.000965971
0.00100321
0.00102425
0.00103866
0.00105038
0.0010634
0.00107549
0.0010901
0.0011038
0.00111715
0.0011313
0.00114534
0.00115958
0.00117361
0.00118733
0.00120078
0.00121387
0.00122623
0.00123781
0.00124857
0.00125861
0.00126877
0.00127786
0.00128607
0.00129344
0.00129992
0.00130555
0.00131014
0.00131391
0.00131691
0.00131904
0.00132031
0.00132025
0.00131894
0.00131526
0.00130986
0.00130304
0.00129373
0.00128048
0.00126669
0.00125425
0.00124334
0.00123374
0.00122333
0.00121375
0.00120249
0.00119364
0.00118322
0.00117117
0.00116003
0.00115259
0.00114377
0.00112345
0.00110021
0.00107727
0.00105042
0.00101799
0.00098658
0.000953188
0.000920909
0.000893099
0.000867896
0.000848473
0.000831036
0.000817775
0.000805364
0.000796911
0.000788189
0.000779698
0.000766833
0.000748318
0.00363979
0.00361805
0.00126747
0.00360923
0.00126167
0.00358776
0.001262
0.00356027
0.00126167
0.00352533
0.00126247
0.00348362
0.00126377
0.00343534
0.00126572
0.0033809
0.00126819
0.00332069
0.00127116
0.00325537
0.00127457
0.0031855
0.00127837
0.00311125
0.00128252
0.00303311
0.00128697
0.00295159
0.00129165
0.00286718
0.0012965
0.00278046
0.00130148
0.00269193
0.00130657
0.00260204
0.00131173
0.0025112
0.00131688
0.0024199
0.00132198
0.00232855
0.001327
0.00223751
0.00133191
0.00214715
0.00133667
0.00205778
0.00134126
0.00196968
0.00134561
0.00188313
0.00134975
0.00179837
0.00135368
0.00171551
0.00135735
0.00163484
0.00136074
0.00155644
0.00136385
0.00148045
0.00136673
0.00140681
0.00136934
0.00133565
0.00137162
0.00126701
0.00137343
0.00120107
0.00137499
0.00113781
0.00137642
0.00107749
0.00137762
0.00101972
0.00137858
0.000964583
0.00137949
0.000912076
0.00138015
0.000862082
0.0013813
0.000815499
0.00138231
0.000771797
0.00138622
0.000745549
0.00139002
0.000842154
0.00139786
0.000762509
0.00124187
0.000640189
0.000929149
0.000635923
0.000931429
0.000641189
0.000950168
0.000643544
0.000970373
0.000644597
0.000984841
0.000645499
0.000999277
0.000647248
0.00101463
0.000649411
0.00103099
0.000652186
0.00104997
0.000654864
0.00106709
0.00065817
0.00108415
0.000661941
0.00110185
0.000665768
0.00111914
0.000669745
0.00113696
0.000673634
0.00115335
0.000677517
0.00116913
0.000681402
0.00118448
0.000685217
0.00119897
0.000688961
0.00121234
0.00069271
0.00122463
0.000696423
0.00123589
0.000700075
0.00124652
0.000703984
0.00125702
0.000707934
0.00126621
0.000711861
0.00127421
0.000715852
0.00128117
0.000719894
0.00128713
0.000724123
0.00129239
0.000728481
0.00129716
0.000733018
0.00130118
0.000738619
0.00130392
0.000744157
0.00130552
0.000749802
0.00130544
0.000755029
0.00130387
0.000759672
0.00129984
0.000763201
0.00129378
0.000766955
0.00128438
0.00076833
0.00127222
0.00076467
0.00125189
0.000766148
0.00122754
0.000772921
0.00120911
0.000777864
0.00119423
0.000778327
0.00117814
0.000782151
0.00116226
0.000790555
0.00115188
0.000794964
0.00114325
0.000794385
0.00112747
0.000789147
0.00109602
0.00078643
0.00106407
0.000783122
0.00103516
0.000779475
0.00100628
0.000769709
0.000973153
0.000760016
0.00093936
0.000752077
0.000907798
0.000744394
0.000881876
0.000733719
0.000857
0.000722134
0.00083338
0.000715236
0.000812853
0.000707527
0.000796999
0.00070166
0.000783213
0.000693594
0.000770786
0.000687083
0.000759583
0.000679266
0.000750199
0.000676484
0.000743408
0.000673277
0.000737797
0.000672776
0.00073516
0.00067123
0.000733274
0.000674481
0.000733242
0.000677939
0.000733479
0.000684437
0.000732827
0.000689698
0.000730516
0.000705846
0.000726111
0.00364085
0.00361865
0.00127539
0.00360944
0.00127337
0.00358756
0.00127746
0.00355968
0.00128084
0.00352436
0.00128531
0.00348231
0.00129023
0.00343478
0.00129576
0.00338129
0.00130178
0.00332196
0.00130825
0.00325724
0.00131513
0.0031876
0.00132234
0.00311354
0.00132986
0.00303556
0.00133761
0.00295417
0.00134553
0.00286987
0.00135357
0.00278323
0.00136167
0.00269474
0.00136979
0.00260487
0.00137792
0.00251404
0.00138595
0.00242271
0.00139385
0.00233132
0.00140158
0.00224022
0.00140911
0.00214978
0.00141639
0.0020603
0.0014234
0.00197207
0.00143007
0.0018854
0.00143642
0.00180048
0.00144245
0.0017175
0.00144813
0.0016366
0.0014534
0.00155798
0.00145823
0.00148174
0.00146272
0.00140789
0.00146682
0.00133646
0.00147045
0.00126751
0.00147345
0.00120125
0.00147585
0.00113759
0.00147797
0.0010766
0.00147967
0.00101813
0.00148099
0.000962542
0.00148209
0.000909745
0.00148235
0.000858706
0.00148259
0.000810792
0.00148116
0.000768067
0.00148082
0.000736705
0.00147674
0.000830428
0.00147083
0.00067008
0.00109963
0.000585602
0.000886459
0.000569063
0.000880207
0.000581907
0.000896838
0.000589651
0.000923731
0.000595241
0.000944416
0.000600786
0.000965348
0.00060719
0.000985879
0.000612572
0.001007
0.000617807
0.00102893
0.000623385
0.00104926
0.000628357
0.00106939
0.00063388
0.00108943
0.000638848
0.00110901
0.000643125
0.0011279
0.000647468
0.00114533
0.00065177
0.00116201
0.000655796
0.00117792
0.000659714
0.00119253
0.000663128
0.00120563
0.000666716
0.00121781
0.000670546
0.00122896
0.000674049
0.00123908
0.000677439
0.0012487
0.000680943
0.00125703
0.000684634
0.00126433
0.000688256
0.00127068
0.000691858
0.00127604
0.000695451
0.00128065
0.000699402
0.00128463
0.000703541
0.00128766
0.000708957
0.00128984
0.000714435
0.00129045
0.000719506
0.00128917
0.000725303
0.00128667
0.000732834
0.00128257
0.000737634
0.00127624
0.000732446
0.00126322
0.000733353
0.00124012
0.000740457
0.0012201
0.00073795
0.00119806
0.00072755
0.00116866
0.000733066
0.00114221
0.000746044
0.00112506
0.000747587
0.00110967
0.000721855
0.0010772
0.000711026
0.00102275
0.000720946
0.000982507
0.000705411
0.000941678
0.000671799
0.000885039
0.000647897
0.000833074
0.00064563
0.000797126
0.000643603
0.000764571
0.000639128
0.000739828
0.000636081
0.000717767
0.000636075
0.000696415
0.000636461
0.000680991
0.000639846
0.000668094
0.000642599
0.00065668
0.000644781
0.00064784
0.000649471
0.0006429
0.000652578
0.000640354
0.00065649
0.00063975
0.000657783
0.000640417
0.00066158
0.000642705
0.000663474
0.000645475
0.000670198
0.000651267
0.000674223
0.000658372
0.000683089
0.00066848
0.000690532
0.000679091
0.000701218
0.000690426
0.000711005
0.000699822
0.000734184
0.000711238
0.00363967
0.00361704
0.00128531
0.00360745
0.00128701
0.0035852
0.0012948
0.00355858
0.00130183
0.00352517
0.00130992
0.00348492
0.00131842
0.00343799
0.0013275
0.00338478
0.00133702
0.0033257
0.00134695
0.0032612
0.00135724
0.00319175
0.00136782
0.00311785
0.00137866
0.00304
0.00138968
0.00295869
0.00140081
0.00287445
0.00141198
0.00278785
0.00142316
0.00269937
0.00143429
0.00260948
0.00144535
0.00251859
0.00145623
0.00242719
0.0014669
0.00233569
0.00147731
0.00224447
0.00148743
0.0021539
0.00149721
0.00206426
0.00150664
0.00197586
0.00151564
0.001889
0.00152425
0.00180389
0.00153246
0.00172072
0.00154021
0.0016396
0.0015475
0.00156076
0.00155438
0.0014843
0.00156082
0.00141023
0.00156683
0.00133857
0.00157234
0.00126938
0.00157728
0.00120288
0.00158182
0.00113899
0.001586
0.00107773
0.00158976
0.00101911
0.00159318
0.00096311
0.00159636
0.000909413
0.00159892
0.000858561
0.00160099
0.00081023
0.00160161
0.000766533
0.0016033
0.000735582
0.00159995
0.000755137
0.00159118
0.000630201
0.00109206
0.000574662
0.000925905
0.000554548
0.000910264
0.000561657
0.000922555
0.000568255
0.000943998
0.00057584
0.000966906
0.000581978
0.000989979
0.000590407
0.00101228
0.000595212
0.00103446
0.000601059
0.00105799
0.000607545
0.00107997
0.000612353
0.00110108
0.00061892
0.00112177
0.000623191
0.00114197
0.00062736
0.0011611
0.000632004
0.00117904
0.000635692
0.00119592
0.000639691
0.0012116
0.000643008
0.00122579
0.000646408
0.0012388
0.000649754
0.00125085
0.000653535
0.00126154
0.000656445
0.00127083
0.000659431
0.00127977
0.000662955
0.00128793
0.000666479
0.00129481
0.000669933
0.00130033
0.000673591
0.00130497
0.000677608
0.00130902
0.000682019
0.00131308
0.000686275
0.00131592
0.000692354
0.00131811
0.000699933
0.00131917
0.000708051
0.00131846
0.000715015
0.0013156
0.000717656
0.00130828
0.000720287
0.00129736
0.000726869
0.00128275
0.000728345
0.00126643
0.000717487
0.00123181
0.000718469
0.00120043
0.000725026
0.00117894
0.000720458
0.00115248
0.000697016
0.00110039
0.000698421
0.00105904
0.000703962
0.00102581
0.000690039
0.000979533
0.000662652
0.000907365
0.000655286
0.000860447
0.000662038
0.000827211
0.000653791
0.000794947
0.000637443
0.000753727
0.000627491
0.000718885
0.000628578
0.00069539
0.000631741
0.000674
0.000633226
0.000652715
0.000634817
0.00063582
0.000636114
0.000623209
0.000640312
0.000612616
0.00064286
0.000605228
0.000647935
0.00060125
0.000650475
0.00059923
0.000656362
0.000599312
0.000658497
0.000600175
0.000664529
0.000603861
0.000666231
0.000610868
0.000673136
0.000619891
0.000675627
0.000629403
0.000685685
0.000640299
0.000693065
0.000651594
0.000707701
0.000667041
0.000718117
0.000683716
0.000747842
0.00070323
0.00363622
0.00361464
0.00129722
0.00360791
0.00130257
0.00358853
0.00131401
0.00356299
0.00132464
0.00352992
0.00133628
0.00348999
0.00134831
0.00344335
0.00136087
0.0033904
0.00137385
0.00333154
0.00138719
0.00326722
0.00140084
0.00319793
0.00141475
0.00312415
0.00142886
0.00304639
0.00144309
0.00296514
0.00145738
0.00288094
0.00147166
0.00279433
0.00148587
0.00270581
0.00149996
0.00261584
0.0015139
0.00252485
0.00152759
0.00243332
0.00154098
0.00234168
0.00155403
0.00225029
0.00156669
0.00215952
0.00157893
0.00206966
0.00159071
0.00198103
0.00160194
0.00189394
0.00161267
0.00180855
0.00162291
0.00172507
0.00163254
0.00164366
0.00164155
0.00156455
0.00164997
0.00148774
0.00165782
0.0014133
0.00166509
0.00134126
0.0016716
0.00127164
0.00167726
0.00120474
0.00168197
0.00114033
0.00168628
0.00107856
0.00168976
0.00101934
0.00169262
0.000962732
0.00169492
0.000908148
0.00169587
0.000856801
0.00169704
0.000807844
0.00169573
0.000763455
0.00169734
0.000728657
0.00169155
0.000705933
0.0017031
0.000607628
0.00120918
0.000575814
0.000999499
0.000562429
0.00097504
0.00056824
0.000981702
0.000575273
0.000997054
0.000583298
0.00102201
0.000589494
0.00104566
0.000597879
0.00106811
0.000602456
0.00109035
0.000608453
0.00111527
0.000614986
0.0011385
0.000619563
0.00115992
0.000625985
0.00118079
0.000629711
0.00120087
0.000633728
0.00122026
0.000638112
0.00123846
0.000641159
0.00125487
0.000644421
0.00127031
0.000647489
0.00128466
0.000650411
0.00129692
0.000653386
0.00130807
0.000656729
0.00131785
0.000659111
0.00132657
0.000661562
0.00133455
0.000664432
0.00134147
0.000667331
0.00134736
0.000670212
0.00135246
0.000673166
0.00135646
0.000676276
0.00135879
0.000679374
0.00136019
0.000682304
0.00136147
0.000688887
0.00136224
0.000696501
0.00136221
0.000703801
0.00135979
0.000710732
0.00135428
0.000718573
0.00134708
0.000725866
0.00133917
0.000727115
0.00132507
0.000728684
0.00129531
0.000726108
0.00126805
0.000729437
0.00124058
0.000713712
0.0012001
0.000715407
0.0011525
0.000712852
0.00111761
0.000718224
0.00108068
0.0006986
0.00102179
0.000699328
0.000970175
0.000690124
0.000934009
0.00068027
0.000895538
0.000672913
0.000843351
0.000666217
0.000801738
0.000661181
0.000769248
0.00064723
0.000740413
0.000647174
0.000714193
0.000644632
0.000685819
0.000646129
0.000662809
0.000647334
0.000645306
0.000646798
0.000631246
0.000648577
0.000618371
0.000650014
0.000610008
0.000653596
0.000603929
0.000654184
0.000599838
0.000659225
0.000603286
0.000659147
0.000610657
0.00066446
0.000617134
0.000664915
0.000624448
0.000671326
0.000632223
0.000673615
0.000640914
0.000683391
0.000650987
0.000691689
0.000661148
0.00070932
0.000672146
0.000720443
0.000687121
0.000755483
0.000703693
0.00363919
0.00362025
0.00131113
0.00361386
0.00132006
0.00359483
0.00133509
0.00356963
0.00134924
0.00353686
0.0013644
0.00349721
0.00137989
0.00345084
0.00139587
0.00339813
0.00141223
0.00333948
0.00142894
0.00327531
0.00144591
0.00320614
0.00146308
0.00313246
0.00148041
0.00305476
0.00149781
0.00297352
0.00151521
0.0028893
0.00153253
0.00280264
0.00154972
0.00271402
0.00156673
0.00262394
0.00158352
0.00253281
0.00159998
0.00244109
0.00161606
0.00234924
0.0016317
0.00225762
0.00164689
0.00216659
0.00166157
0.00207646
0.0016757
0.00198755
0.0016892
0.00190016
0.00170217
0.00181448
0.00171454
0.00173067
0.00172631
0.00164893
0.0017374
0.00156948
0.0017479
0.00149236
0.00175778
0.00141759
0.00176707
0.00134521
0.00177577
0.0012752
0.0017838
0.00120798
0.00179122
0.00114325
0.00179804
0.00108108
0.00180431
0.00102155
0.00181002
0.000964447
0.0018151
0.000909726
0.00181925
0.00085776
0.00182336
0.000807917
0.00182459
0.000762167
0.00182886
0.000722948
0.00182409
0.000696483
0.00183581
0.000584677
0.00127462
0.000570807
0.00106213
0.000568696
0.00103423
0.000577647
0.00104214
0.000587942
0.00106246
0.000596871
0.00108505
0.000602822
0.00111202
0.000611948
0.00113593
0.000615914
0.00115893
0.000621796
0.00118633
0.000627977
0.00121201
0.000631553
0.00123474
0.00063756
0.00125689
0.00064037
0.00127751
0.000643781
0.00129778
0.000647292
0.0013168
0.000649031
0.00133245
0.000652005
0.0013475
0.000653907
0.00136103
0.000656528
0.00137264
0.00065874
0.00138318
0.000661401
0.00139185
0.000663142
0.00139921
0.000665225
0.00140615
0.000667307
0.00141231
0.000669695
0.00141647
0.000672338
0.0014197
0.000674907
0.00142244
0.000677382
0.00142476
0.000679719
0.00142677
0.00068262
0.00142748
0.000690772
0.00142646
0.000699318
0.00142421
0.000707536
0.00142139
0.000715372
0.00141772
0.000725965
0.0014083
0.000735869
0.00139281
0.000738601
0.00137618
0.00074009
0.00135631
0.000738114
0.00131868
0.000736015
0.00126588
0.000732898
0.00123032
0.000733938
0.00119896
0.000731792
0.00115455
0.000735826
0.00109543
0.000731197
0.00106062
0.000729362
0.00102382
0.000728842
0.000974002
0.000718113
0.00092559
0.000703429
0.000888096
0.00068968
0.000853644
0.000688543
0.000815291
0.000679699
0.000778875
0.00067225
0.000748517
0.000662767
0.000721223
0.000662634
0.000699809
0.000661873
0.000678907
0.000660671
0.000659057
0.000658642
0.000643453
0.000658536
0.000630384
0.000660038
0.00061922
0.000658701
0.000611158
0.000663299
0.000612398
0.000660869
0.000618886
0.000666069
0.000625782
0.000666477
0.000632021
0.00067305
0.000639119
0.000675094
0.000647813
0.00068371
0.000657714
0.000691587
0.000668265
0.000710005
0.000678653
0.00072287
0.000692519
0.000762631
0.000708344
0.00364661
0.00362809
0.00132704
0.00362204
0.00133948
0.00360334
0.00135803
0.00357845
0.00137564
0.00354597
0.00139422
0.00350659
0.0014131
0.00346045
0.00143246
0.00340795
0.00145216
0.00334949
0.00147215
0.00328546
0.00149236
0.00321639
0.00151275
0.00314276
0.00153323
0.00306509
0.00155374
0.00298384
0.0015742
0.00289955
0.00159452
0.00281279
0.00161464
0.00272406
0.0016345
0.00263381
0.00165407
0.00254248
0.00167325
0.00245054
0.00169196
0.00235844
0.00171016
0.00226655
0.0017278
0.00217523
0.00174484
0.00208475
0.00176123
0.00199552
0.00177687
0.00190775
0.00179186
0.00182172
0.00180612
0.00173751
0.00181967
0.00165537
0.00183232
0.00157544
0.00184417
0.00149787
0.00185521
0.00142268
0.00186551
0.00134984
0.0018749
0.00127946
0.00188318
0.00121164
0.00189042
0.00114638
0.00189653
0.0010837
0.00190193
0.00102353
0.00190636
0.000965789
0.00190974
0.000910449
0.00191171
0.000856929
0.00191281
0.000805965
0.00191006
0.000757887
0.00190914
0.000711806
0.00189998
0.000660354
0.00189328
0.000548487
0.00125705
0.000549856
0.00109324
0.000572792
0.00107829
0.000589259
0.00109725
0.000602566
0.00112996
0.000613421
0.00116037
0.000619803
0.00119263
0.000629734
0.00122199
0.000634188
0.00124891
0.000641624
0.00127969
0.000647976
0.00130724
0.000651236
0.00133008
0.00065718
0.00135313
0.000659562
0.00137404
0.0006637
0.00139486
0.000665805
0.00141434
0.000666545
0.00142991
0.000669297
0.00144561
0.000669877
0.00145789
0.000672182
0.00146881
0.000673565
0.00147911
0.000675231
0.00148735
0.000675983
0.00149402
0.000677913
0.00149987
0.000679378
0.00150516
0.000680845
0.00150784
0.000682461
0.00150923
0.000684572
0.00150951
0.000687158
0.00150879
0.000690146
0.00150741
0.000694651
0.00150439
0.000702441
0.00150094
0.000711463
0.00149673
0.000722714
0.00149174
0.000732653
0.00148298
0.000740284
0.00147198
0.000747936
0.00146174
0.000761288
0.00144543
0.000763221
0.0014076
0.000757404
0.00137347
0.00075336
0.00133805
0.000760412
0.00128921
0.000760879
0.00122808
0.000764646
0.001188
0.000762004
0.00115566
0.000774816
0.0011128
0.000774079
0.00106298
0.000764248
0.00102716
0.000751214
0.000990358
0.000747969
0.00095181
0.000733907
0.000909934
0.000722232
0.000868637
0.000708806
0.000836058
0.00069938
0.000806185
0.000693084
0.000773559
0.000689609
0.00074417
0.000683282
0.000720933
0.000678366
0.0006999
0.000675319
0.000679238
0.000671873
0.000660445
0.000669669
0.00064495
0.000666456
0.000632992
0.000669116
0.000624423
0.000664948
0.000621796
0.000668753
0.000630258
0.000668641
0.000637782
0.000675053
0.000644998
0.000678065
0.000654149
0.000686278
0.000664142
0.000694911
0.000674998
0.0007127
0.000685646
0.000727285
0.000699103
0.000770147
0.000714481
0.00365634
0.00363817
0.00134499
0.00363243
0.00136083
0.00361403
0.00138282
0.00358943
0.00140382
0.00355722
0.00142576
0.00351809
0.00144797
0.00347219
0.00147062
0.00341987
0.00149357
0.00336155
0.00151678
0.00329764
0.00154018
0.00322864
0.00156371
0.00315503
0.00158729
0.00307734
0.00161085
0.00299604
0.0016343
0.00291167
0.00165755
0.00282476
0.00168053
0.00273585
0.0017032
0.00264539
0.00172551
0.00255382
0.00174736
0.00246159
0.00176865
0.00236917
0.00178936
0.00227693
0.00180942
0.00218525
0.00182881
0.00209438
0.00184749
0.00200475
0.00186536
0.00191657
0.00188251
0.00183011
0.00189889
0.00174548
0.00191446
0.00166288
0.00192923
0.0015825
0.00194324
0.0015045
0.00195647
0.00142887
0.00196898
0.0013556
0.00198077
0.00128478
0.00199173
0.00121645
0.00200192
0.00115076
0.00201138
0.00108767
0.00202032
0.00102697
0.00202836
0.0009687
0.0020359
0.000912743
0.00204226
0.000858348
0.00204774
0.000806807
0.00205044
0.00075784
0.00205425
0.000727256
0.00204934
0.000660153
0.00204664
0.000576839
0.00140215
0.000549138
0.00116579
0.000586371
0.00115103
0.000611276
0.0011886
0.000629697
0.00124313
0.000643316
0.00128386
0.000651292
0.00132083
0.000662575
0.00135394
0.000666621
0.00138337
0.000674351
0.001414
0.000678488
0.00144148
0.000680208
0.00146404
0.000685285
0.00148946
0.000686147
0.00150946
0.000690095
0.00152823
0.000689901
0.00154551
0.000690468
0.00156015
0.00069129
0.00157661
0.000690393
0.00158677
0.00069239
0.00159694
0.000692512
0.00160436
0.000693201
0.00161008
0.000692977
0.00161516
0.00069401
0.00161869
0.000694127
0.00162282
0.000694868
0.00162395
0.000695694
0.00162468
0.000696676
0.00162311
0.00069787
0.0016201
0.000699791
0.00161649
0.000707253
0.00161241
0.000715608
0.00160735
0.000725035
0.00159997
0.00073535
0.00159121
0.000744353
0.00158347
0.000759515
0.00157219
0.000771246
0.00155472
0.000777886
0.00152855
0.000782309
0.00150957
0.000796915
0.00147751
0.000794395
0.00140973
0.0007927
0.00136024
0.000785835
0.00131872
0.000806514
0.00126802
0.00081421
0.00121254
0.000810121
0.00117033
0.000807208
0.00113893
0.00081052
0.00110101
0.000802402
0.00105786
0.000788065
0.00101727
0.000772439
0.000977896
0.000758823
0.000938891
0.000747966
0.000898171
0.000735898
0.000858641
0.000725871
0.000821634
0.000717885
0.000791
0.000709112
0.000764448
0.000702256
0.000740297
0.000696476
0.000718788
0.000689045
0.00069822
0.000683176
0.000678102
0.000677846
0.000659398
0.000677603
0.000645586
0.000672077
0.000637404
0.00067471
0.000634732
0.000673377
0.000643147
0.00067997
0.00065053
0.000684048
0.000659173
0.000691928
0.000668706
0.000701232
0.000679407
0.000718649
0.000691096
0.000732147
0.000703996
0.000776582
0.000718265
0.00366824
0.00365045
0.00136497
0.003645
0.00138414
0.00362689
0.00140948
0.00360256
0.00143377
0.00357062
0.00145899
0.00353172
0.00148445
0.00348601
0.00151031
0.00343385
0.00153644
0.00337566
0.0015628
0.00331184
0.00158931
0.0032429
0.0016159
0.00316931
0.00164251
0.00309157
0.00166905
0.00301017
0.00169542
0.00292565
0.00172153
0.00283856
0.00174732
0.00274943
0.00177272
0.00265873
0.00179769
0.00256686
0.00182215
0.00247432
0.00184596
0.00238154
0.00186911
0.00228893
0.00189152
0.00219684
0.00191317
0.00210556
0.001934
0.00201547
0.0019539
0.00192684
0.00197296
0.00183986
0.00199114
0.00175473
0.00200835
0.00167164
0.00202455
0.00159075
0.00203972
0.00151222
0.00205393
0.00143607
0.00206718
0.00136227
0.00207939
0.00129092
0.00209028
0.00122206
0.00209993
0.00115582
0.00210805
0.00109228
0.00211554
0.00103114
0.00212186
0.000972739
0.00212739
0.000916434
0.00213174
0.000862909
0.00213552
0.000811242
0.00213772
0.000763461
0.00214208
0.000740157
0.00214003
0.000766042
0.00214558
0.000632399
0.00174742
0.000556311
0.00131364
0.000621797
0.0013057
0.000660563
0.00135758
0.000683895
0.00143113
0.000698782
0.00147579
0.000704469
0.00150966
0.000714036
0.00154343
0.000715311
0.00156973
0.000721058
0.00159396
0.000720352
0.00161465
0.000720081
0.00162986
0.000720821
0.00165066
0.000718039
0.00166065
0.00071899
0.00167437
0.0007159
0.00168689
0.000715962
0.00169634
0.000712526
0.0017079
0.000710157
0.00171509
0.000710927
0.0017275
0.000709519
0.00173064
0.000709183
0.00173341
0.000707689
0.00173769
0.000707833
0.00173946
0.000706928
0.00174152
0.00070749
0.00174055
0.00070755
0.00173948
0.000707492
0.00173626
0.000708639
0.00173263
0.000716805
0.00172801
0.000725745
0.00172162
0.000734293
0.001714
0.000742917
0.00170612
0.000754963
0.00169894
0.000770343
0.00168905
0.000781952
0.0016715
0.000790933
0.00165507
0.00081268
0.00164334
0.000829386
0.00161198
0.000831348
0.00156846
0.000828574
0.00152133
0.000841175
0.00147544
0.000852672
0.001412
0.000854269
0.00136311
0.000849462
0.0013189
0.000860425
0.00127007
0.000863611
0.00122245
0.000854943
0.00118006
0.000846589
0.00114148
0.000831909
0.00109901
0.000823766
0.00105211
0.000805108
0.00100491
0.000790315
0.000960617
0.000773288
0.000917504
0.000760225
0.000877562
0.000747721
0.000842046
0.000736548
0.000808142
0.000727066
0.000779833
0.000720102
0.000755611
0.000711582
0.00073317
0.000702422
0.000712142
0.000693857
0.000691109
0.000689571
0.000672108
0.00068264
0.000660718
0.000683853
0.000653692
0.000679469
0.00064975
0.000685416
0.00065342
0.000688469
0.000661613
0.00069599
0.000670356
0.000705596
0.000681122
0.000722849
0.000693638
0.00073582
0.000706067
0.000781346
0.000719838
0.00368239
0.00366491
0.00138701
0.00365973
0.0014094
0.00364191
0.001438
0.00361783
0.00146551
0.00358613
0.00149391
0.00354743
0.00152252
0.0035019
0.00155151
0.00344989
0.00158074
0.00339181
0.00161017
0.00332805
0.00163971
0.00325913
0.00166929
0.0031855
0.00169884
0.00310769
0.00172828
0.00302616
0.0017575
0.00294147
0.00178641
0.00285416
0.00181494
0.00276476
0.00184301
0.00267375
0.00187058
0.00258154
0.00189759
0.00248862
0.00192387
0.00239542
0.0019494
0.00230234
0.00197413
0.00220977
0.00199803
0.00211798
0.00202105
0.00202737
0.00204307
0.00193821
0.00206422
0.0018507
0.00208442
0.00176502
0.00210367
0.00168137
0.00212194
0.00159993
0.00213928
0.00152084
0.00215567
0.00144415
0.00217119
0.00136982
0.00218592
0.00129793
0.00219972
0.00122844
0.00221266
0.00116171
0.0022248
0.00109754
0.00223623
0.00103609
0.00224712
0.000976899
0.00225779
0.000920498
0.00226809
0.000865577
0.00227831
0.000815266
0.00228816
0.000765177
0.00229767
0.000727667
0.00230969
0.000839136
0.00232741
0.000742109
0.00228271
0.00062027
0.00167584
0.00070228
0.00157006
0.000743428
0.00162913
0.000761927
0.00168795
0.000768277
0.00171191
0.000765868
0.00172228
0.000767847
0.00173498
0.000761521
0.00174168
0.000762744
0.00174952
0.000756143
0.00175913
0.000754874
0.00176156
0.0007494
0.00177302
0.000746071
0.00177805
0.000745597
0.0017959
0.000740819
0.00179813
0.000739073
0.00180279
0.000733992
0.00181418
0.000734574
0.001821
0.000732162
0.00182788
0.000730769
0.00182894
0.000729862
0.00183122
0.00072861
0.00183144
0.000727597
0.0018343
0.000726317
0.00183399
0.000725744
0.00183223
0.000725265
0.00182888
0.000725339
0.00182551
0.000733922
0.00182
0.00074256
0.001814
0.000751637
0.00180665
0.000761646
0.00179923
0.000773108
0.00179095
0.000786497
0.0017834
0.000798531
0.00177389
0.000810755
0.00176206
0.000833813
0.00174558
0.00084561
0.00173122
0.000858044
0.00169684
0.000870332
0.00167492
0.000886417
0.00161778
0.000894183
0.0015654
0.000904096
0.00151864
0.000915758
0.00147306
0.000922163
0.00142521
0.00091688
0.00137652
0.000909877
0.00132684
0.000908099
0.00128121
0.000902171
0.00123309
0.000886689
0.0011813
0.000872956
0.00112758
0.000852596
0.0010779
0.000835112
0.00102939
0.000815144
0.000979288
0.000797437
0.000932558
0.000780345
0.000888333
0.000766827
0.000849589
0.0007538
0.000818578
0.000744472
0.00079213
0.000733421
0.000767335
0.000723653
0.00074589
0.00071395
0.000725024
0.00070517
0.000705184
0.000696455
0.000689415
0.000694835
0.000676761
0.00068667
0.000667863
0.000690629
0.000663945
0.00069204
0.000664057
0.000699837
0.000672196
0.000709826
0.000683289
0.00072631
0.000695743
0.000739429
0.000707406
0.000785075
0.000721272
0.00369867
0.00368153
0.00141113
0.0036766
0.00143663
0.00365903
0.00146839
0.00363521
0.00149901
0.00360372
0.00153051
0.00356522
0.00156218
0.00351985
0.00159421
0.00346798
0.00162644
0.00340998
0.00165884
0.00334626
0.00169132
0.00327733
0.00172381
0.00320364
0.00175623
0.00312573
0.00178849
0.00304404
0.00182048
0.00295914
0.0018521
0.00287158
0.00188328
0.00278187
0.00191394
0.00269052
0.00194405
0.00259793
0.00197351
0.00250458
0.00200218
0.00241092
0.00203002
0.00231737
0.00205698
0.0022243
0.00208301
0.00213199
0.00210806
0.00204083
0.00213201
0.00195109
0.00215495
0.001863
0.00217683
0.00177673
0.00219762
0.00169247
0.0022172
0.0016104
0.00223557
0.00153068
0.00225278
0.00145337
0.00226885
0.00137847
0.00228381
0.00130605
0.00229739
0.00123607
0.00230957
0.0011688
0.00232011
0.00110417
0.00232978
0.00104216
0.00233839
0.000982742
0.00234585
0.000925943
0.00235249
0.000871587
0.00235791
0.000820006
0.00236331
0.000768715
0.00236737
0.000726647
0.00237184
0.000736711
0.00237656
0.000828322
0.00240655
0.00072928
0.00224833
0.000778783
0.00179206
0.000797945
0.00179175
0.000805757
0.00182693
0.00080479
0.00184428
0.00080085
0.00185414
0.000797741
0.00185724
0.000788449
0.00185355
0.000786946
0.00186056
0.000777282
0.00186258
0.00077529
0.00186223
0.000767012
0.00187144
0.000768474
0.0018787
0.000762344
0.00188671
0.000756662
0.00188506
0.000753764
0.00189329
0.000750318
0.00189761
0.000748333
0.00190919
0.000745385
0.00191145
0.00074369
0.00191168
0.000741304
0.0019091
0.000740241
0.00191122
0.000738483
0.00191078
0.000736853
0.00191047
0.000735426
0.00190696
0.00073483
0.0019035
0.000742547
0.00189819
0.000751811
0.00189253
0.000761465
0.0018852
0.000771571
0.00187767
0.000782683
0.00186867
0.00079478
0.00186042
0.000809359
0.00185234
0.000825373
0.00184433
0.000843019
0.00183266
0.000860383
0.00182201
0.000880688
0.00180429
0.000897451
0.00178952
0.000922507
0.00174026
0.000929886
0.00169856
0.000945699
0.00164468
0.000967119
0.00160649
0.000979372
0.00156559
0.000981989
0.00152641
0.000979278
0.00148294
0.000974626
0.00142844
0.00097028
0.00137684
0.000956039
0.00132158
0.000942204
0.0012633
0.000921945
0.00120285
0.00090525
0.00114514
0.000883511
0.00108929
0.000861031
0.00103469
0.000837255
0.000983564
0.000815806
0.000933921
0.00079764
0.000890259
0.000781125
0.000853834
0.000769182
0.000821901
0.000755385
0.000795215
0.000744835
0.000773061
0.000734323
0.000751566
0.000725758
0.0007332
0.000714874
0.000716544
0.000708256
0.000699569
0.000696554
0.000685892
0.000697144
0.000677028
0.000696093
0.000672262
0.000704108
0.000674434
0.000713786
0.000684517
0.000729203
0.00069593
0.000742965
0.000707446
0.000787831
0.000721613
0.00371714
0.00370027
0.00143736
0.00369559
0.00146585
0.00367826
0.00150067
0.00365466
0.00153429
0.00362339
0.00156878
0.00358506
0.00160341
0.00353984
0.00163837
0.00348807
0.00167352
0.00343013
0.0017088
0.00336643
0.00174413
0.00329746
0.00177944
0.00322369
0.00181462
0.00314563
0.00184961
0.00306376
0.00188428
0.00297861
0.00191854
0.00289075
0.00195229
0.00280069
0.00198547
0.00270895
0.00201803
0.00261592
0.00204989
0.00252208
0.00208089
0.0024279
0.00211098
0.00233379
0.00214013
0.00224011
0.00216827
0.00214718
0.00219537
0.00205537
0.00222136
0.00196499
0.00224625
0.00187625
0.00227007
0.00178932
0.00229277
0.00170439
0.00231434
0.00162164
0.00233481
0.00154127
0.00235416
0.00146331
0.00237247
0.00138778
0.00238981
0.0013147
0.00240625
0.00124407
0.00242166
0.00117617
0.0024361
0.00111094
0.00244993
0.00104836
0.0024629
0.000988273
0.00247526
0.000930962
0.00248772
0.000875851
0.00249915
0.000824785
0.00251132
0.000773668
0.00252013
0.000733629
0.00253532