/*--------------------------------*- C++ -*----------------------------------*\
| =========                 |                                                 |
| \\      /  F ield         | OpenFOAM: The Open Source CFD Toolbox           |
|  \\    /   O peration     | Version:  2.2.x                                 |
|   \\  /    A nd           | Web:      www.OpenFOAM.org                      |
|    \\/     M anipulation  |                                                 |
\*---------------------------------------------------------------------------*/
FoamFile
{
    version     2.0;
    format      ascii;
    class       volScalarField;
    location    "2.45";
    object      Bz;
}
// * * * * * * * * * * * * * * * * * * * * * * * * * * * * * * * * * * * * * //

dimensions      [1 0 -2 0 0 -1 0];

internalField   nonuniform List<scalar> 
14161
(
-3.51813e-20
-3.53289e-20
-3.5169e-20
-3.49623e-20
-3.40599e-20
-3.64204e-20
-3.37909e-20
-3.47612e-20
-3.47425e-20
-3.38196e-20
-3.55648e-20
-3.36834e-20
-3.56645e-20
-3.37507e-20
-3.45354e-20
-3.40375e-20
-3.42448e-20
-3.41318e-20
-3.38083e-20
-3.38975e-20
-3.39373e-20
-3.34486e-20
-3.35613e-20
-3.3278e-20
-3.3544e-20
-3.32249e-20
-3.30536e-20
-3.30494e-20
-3.27763e-20
-3.28554e-20
-3.24279e-20
-3.25506e-20
-3.23812e-20
-3.24551e-20
-3.22914e-20
-3.22611e-20
-3.25323e-20
-3.22541e-20
-3.22916e-20
-3.32813e-20
-4.03474e-20
-1.69832e-20
1.48305e-20
1.24521e-19
4.89186e-19
2.65202e-18
9.03951e-18
1.7384e-17
9.86251e-18
8.23029e-18
7.55215e-18
6.4799e-18
5.97124e-18
5.65666e-18
5.43039e-18
4.65463e-18
4.37074e-18
4.23301e-18
3.94437e-18
3.33497e-18
3.23659e-18
3.13736e-18
3.08085e-18
2.70201e-18
2.61725e-18
2.23261e-18
2.09222e-18
1.79939e-18
1.73215e-18
1.62437e-18
1.48169e-18
1.25703e-18
1.00298e-18
7.39039e-19
7.65355e-19
4.45134e-19
3.8551e-19
3.04191e-19
1.94312e-19
6.49391e-23
-2.20956e-19
-5.79444e-19
-9.44778e-19
-1.34919e-18
-1.83288e-18
-2.96397e-18
-3.35055e-18
-4.12876e-18
-4.6827e-18
-5.16724e-18
-5.55109e-18
-6.11431e-18
-6.48332e-18
-6.66015e-18
-6.84406e-18
-6.98406e-18
-6.79033e-18
-8.11335e-18
-6.41301e-18
-9.78693e-18
-7.85545e-18
-7.55513e-18
-1.23885e-17
-1.30906e-17
-1.57076e-17
-1.37505e-17
-1.44743e-17
-1.60494e-17
-1.28376e-17
-1.77684e-17
-1.98937e-17
-1.86344e-17
-1.64326e-17
-7.28799e-18
-1.40412e-17
9.7157e-18
-2.51287e-18
1.34646e-17
1.56482e-17
3.99107e-20
4.08402e-20
4.07576e-20
3.99907e-20
4.04179e-20
3.91918e-20
4.12635e-20
3.77353e-20
4.16956e-20
3.80666e-20
4.10977e-20
3.83648e-20
4.21513e-20
3.89776e-20
3.91607e-20
3.833e-20
4.04609e-20
3.82976e-20
3.87873e-20
3.82362e-20
3.85655e-20
3.87522e-20
3.83675e-20
3.82409e-20
3.92481e-20
4.023e-20
3.90884e-20
4.02388e-20
3.87134e-20
4.03655e-20
3.89742e-20
3.96192e-20
3.97494e-20
3.995e-20
3.93571e-20
4.01218e-20
3.98551e-20
4.01533e-20
4.02147e-20
4.03102e-20
4.04309e-20
4.40924e-20
5.91391e-20
1.08888e-19
2.96937e-19
1.61081e-18
8.8093e-18
1.25405e-17
7.87963e-18
6.06492e-18
3.3831e-18
3.03997e-18
2.60609e-18
2.36321e-18
2.10217e-18
2.00582e-18
1.63257e-18
1.45486e-18
1.26505e-18
1.14705e-18
1.00127e-18
7.66104e-19
7.47912e-19
6.41198e-19
5.23128e-19
4.13187e-19
2.71174e-19
1.91383e-19
9.61416e-20
-5.99013e-20
-1.95767e-19
-4.74725e-19
-6.47937e-19
-9.84605e-19
-1.43249e-18
-1.39761e-18
-3.04187e-18
-2.79497e-18
-4.17832e-18
-6.17645e-18
-7.49613e-18
-8.69921e-18
-1.0269e-17
-1.20934e-17
-1.39545e-17
-1.42694e-17
-1.40576e-17
-1.37892e-17
-1.33148e-17
-1.38715e-17
-1.24258e-17
-1.05735e-17
-1.49135e-17
-1.3431e-17
-2.87837e-18
-2.50038e-17
2.35956e-17
-6.34129e-17
7.26649e-17
-1.07072e-16
9.18942e-17
-7.30861e-17
-1.31552e-17
9.26992e-18
-6.84112e-17
1.1867e-16
-5.13536e-17
-9.59525e-17
1.08979e-16
4.71046e-17
-2.09216e-16
-2.81954e-16
-1.54124e-16
-1.19594e-16
-1.71051e-16
-1.43865e-16
-6.17884e-17
-1.68783e-17
-3.55783e-18
8.03432e-20
7.89384e-20
7.87051e-20
7.93476e-20
8.13822e-20
7.65798e-20
8.37045e-20
7.31465e-20
8.31711e-20
7.18087e-20
8.40172e-20
7.4044e-20
7.61328e-20
7.36513e-20
7.64545e-20
7.21187e-20
7.36199e-20
7.02814e-20
7.34108e-20
7.10857e-20
6.9633e-20
6.59159e-20
6.67671e-20
6.55682e-20
6.16788e-20
6.24554e-20
6.14292e-20
6.07826e-20
5.92326e-20
6.16635e-20
5.99533e-20
6.14417e-20
5.95005e-20
6.08955e-20
5.96916e-20
6.00352e-20
5.99088e-20
5.96951e-20
5.94583e-20
5.95686e-20
5.92534e-20
6.15739e-20
7.08461e-20
1.04758e-19
2.24476e-19
1.05353e-18
6.87907e-18
6.64121e-18
3.62791e-18
2.06118e-18
5.53014e-19
5.84805e-19
6.46905e-19
5.47433e-19
3.99371e-19
2.7072e-19
2.16861e-19
2.33568e-19
8.40793e-20
9.88949e-20
1.42346e-20
-1.00004e-19
-1.24834e-19
-5.12651e-19
-2.34761e-19
-5.83938e-19
-7.16605e-19
-7.79898e-19
-1.4048e-18
-1.31625e-18
-1.9406e-18
-2.20169e-18
-2.93069e-18
-3.52456e-18
-4.65098e-18
-5.51335e-18
-7.08889e-18
-9.0475e-18
-1.10335e-17
-1.39564e-17
-1.47934e-17
-1.6764e-17
-1.8958e-17
-2.0811e-17
-2.07448e-17
-1.93289e-17
-2.29229e-17
-1.06126e-17
-2.27616e-17
-1.38391e-17
-3.06717e-17
8.611e-17
-1.45011e-16
9.12158e-17
7.19766e-19
-1.16781e-16
1.75902e-16
-1.87235e-16
7.41382e-17
9.6293e-17
-3.65066e-16
5.77677e-16
-4.03892e-16
9.94741e-17
-4.55009e-16
-1.55191e-16
7.84979e-16
-4.64346e-16
-6.11501e-16
6.69484e-16
7.56348e-16
-1.83269e-16
-4.4289e-16
-1.00673e-16
-6.39527e-17
-6.62766e-17
-3.64116e-17
-2.22635e-17
-1.10069e-18
-2.71534e-20
-2.59184e-20
-2.45513e-20
-2.44066e-20
-2.55809e-20
-2.63503e-20
-2.62728e-20
-2.38943e-20
-2.41156e-20
-1.98849e-20
-2.00264e-20
-2.11142e-20
-1.79834e-20
-1.73479e-20
-1.17961e-20
-3.37755e-21
-8.30813e-21
-2.3953e-21
-1.27015e-20
-3.13127e-21
-5.56191e-22
5.74802e-21
6.48114e-21
9.63458e-21
1.26988e-20
9.75076e-21
1.29014e-20
1.63368e-20
1.94554e-20
1.7019e-20
1.82044e-20
1.97502e-20
2.08367e-20
2.23491e-20
2.30639e-20
2.52443e-20
2.47485e-20
2.62421e-20
2.71886e-20
2.66068e-20
2.95936e-20
3.25339e-20
3.92678e-20
5.239e-20
3.02051e-19
1.52878e-18
7.11421e-18
6.14169e-18
3.46992e-18
1.19521e-18
3.98674e-19
2.31094e-19
2.07012e-19
1.89746e-19
5.61409e-20
1.41077e-19
2.87491e-20
2.94035e-20
6.85798e-20
-1.16922e-19
9.92154e-20
-1.97472e-19
-1.34036e-19
-2.47031e-19
-3.88217e-19
-3.07112e-19
-8.45174e-19
-5.66281e-19
-1.15831e-18
-1.00479e-18
-1.65543e-18
-1.56818e-18
-1.92816e-18
-3.08281e-18
-2.35868e-18
-4.83589e-18
-4.70322e-18
-6.82788e-18
-8.87777e-18
-1.18403e-17
-1.46967e-17
-1.51188e-17
-2.21542e-17
-2.05684e-17
-1.5293e-17
-2.85446e-17
-1.45781e-17
-1.48849e-17
1.84221e-19
-8.6231e-17
1.11275e-16
-3.46928e-17
-6.96027e-17
1.5441e-16
-2.14572e-16
1.58446e-16
3.06402e-17
-1.88203e-16
8.36098e-17
-3.40603e-17
8.35932e-17
-1.31055e-16
1.30956e-16
5.13305e-16
-3.78121e-16
9.44147e-17
9.29854e-17
1.36919e-16
5.32486e-16
5.1826e-16
-8.61529e-17
-2.42023e-16
-2.41646e-17
-3.93379e-17
-6.83731e-17
-5.89013e-17
-3.53543e-17
-1.29311e-17
3.99087e-18
6.18618e-20
6.40024e-20
6.36048e-20
6.63775e-20
6.06562e-20
8.04134e-20
7.32389e-20
8.74049e-20
7.14102e-20
1.04209e-19
6.87964e-20
9.01936e-20
9.64465e-20
9.5897e-20
1.00718e-19
9.06859e-20
1.09356e-19
1.06297e-19
1.1681e-19
1.12581e-19
1.12638e-19
1.14278e-19
1.10618e-19
1.10744e-19
1.13184e-19
1.16981e-19
1.1887e-19
1.18105e-19
1.17653e-19
1.2337e-19
1.26053e-19
1.25053e-19
1.27575e-19
1.27538e-19
1.26135e-19
1.29519e-19
1.30165e-19
1.30223e-19
1.31437e-19
1.31355e-19
1.31015e-19
1.33546e-19
1.4971e-19
2.10299e-19
5.65053e-19
2.53602e-18
9.11258e-18
7.8783e-18
4.68845e-18
1.60186e-18
1.01346e-18
1.3951e-19
2.81641e-19
1.25143e-19
1.50489e-19
2.22621e-19
-3.29782e-20
2.40723e-19
2.29668e-20
3.19973e-20
-6.42221e-20
1.2062e-19
6.42157e-20
-2.55607e-19
1.74821e-19
-4.7524e-19
-8.41784e-20
-5.60229e-19
-3.94824e-19
-6.01656e-19
-1.04627e-18
-8.05784e-19
-1.80389e-18
-1.30056e-18
-2.78479e-18
-2.96687e-18
-3.74143e-18
-4.45617e-18
-5.75794e-18
-1.13773e-17
-5.11185e-18
-2.00188e-17
-2.26485e-17
-1.09396e-17
-2.67619e-17
-2.12003e-17
-1.95047e-17
-7.99922e-18
-4.12121e-17
4.36531e-17
2.8359e-17
-1.16731e-16
2.27593e-16
-2.45442e-16
1.70455e-16
1.50421e-16
-6.53164e-16
4.71059e-16
2.42231e-16
-3.78023e-16
1.25905e-16
-3.6513e-16
-2.00744e-17
3.20797e-16
-2.79948e-16
-2.04534e-16
9.50989e-17
3.87836e-16
3.77718e-16
1.02752e-16
-8.88216e-17
-4.88954e-17
-3.70308e-17
-1.26458e-16
-1.13473e-16
-4.672e-17
-3.21288e-17
-7.6057e-18
3.2254e-18
2.22198e-19
2.21231e-19
2.22373e-19
2.19551e-19
2.19107e-19
2.1029e-19
1.95056e-19
2.22567e-19
1.97931e-19
2.01732e-19
2.03027e-19
2.14284e-19
1.67128e-19
2.16154e-19
1.80304e-19
2.17662e-19
1.75794e-19
1.95149e-19
1.86289e-19
1.84417e-19
1.84894e-19
1.83208e-19
1.88388e-19
1.89134e-19
1.92509e-19
1.94512e-19
1.96615e-19
1.95277e-19
1.97324e-19
1.94549e-19
1.96064e-19
1.9336e-19
1.93932e-19
1.93172e-19
1.93041e-19
1.93953e-19
1.93634e-19
1.94287e-19
1.93778e-19
1.93935e-19
1.94658e-19
2.03868e-19
2.32566e-19
3.54086e-19
1.17157e-18
4.36482e-18
1.01319e-17
6.9841e-18
3.99297e-18
1.27038e-18
6.49526e-19
3.08277e-19
3.35525e-19
1.79091e-19
2.42498e-19
2.44936e-19
1.39351e-19
3.49553e-19
2.48402e-19
1.70789e-19
2.92042e-19
7.15395e-20
2.93308e-19
2.64866e-20
1.69083e-19
2.52532e-19
-2.3658e-19
-1.72169e-20
7.99953e-20
-1.66197e-19
-5.86386e-19
-7.74292e-19
-8.3739e-19
-1.07054e-18
-1.45616e-18
-1.99233e-18
-2.71983e-18
-3.66056e-18
-4.89668e-18
-7.27041e-18
-8.92734e-18
-1.72221e-17
-1.21108e-17
-1.68405e-17
-2.83195e-17
-4.96411e-18
-4.45734e-17
1.52878e-17
-4.58378e-18
8.92661e-18
-4.3214e-17
3.03062e-17
8.0058e-17
-1.0167e-16
2.26142e-16
-1.01005e-15
1.18695e-15
6.55049e-16
-1.98023e-15
-2.12027e-16
1.20409e-15
4.69164e-16
2.8992e-16
1.62318e-16
-3.93546e-16
-3.3195e-16
1.55666e-16
3.66892e-16
2.21736e-16
4.69326e-17
-1.17534e-17
-3.10657e-17
-7.80281e-17
-1.02705e-16
-7.9357e-17
-6.43683e-17
-3.60007e-17
-6.59994e-18
7.5934e-19
2.21013e-19
2.14853e-19
2.11023e-19
2.07717e-19
2.12163e-19
2.14725e-19
1.9321e-19
2.01434e-19
2.01515e-19
1.83084e-19
1.97738e-19
1.67111e-19
2.09733e-19
1.75356e-19
1.67972e-19
1.52234e-19
1.69844e-19
1.71224e-19
1.66101e-19
1.75713e-19
1.78415e-19
1.81251e-19
1.81863e-19
1.849e-19
1.76031e-19
1.74862e-19
1.72024e-19
1.7688e-19
1.80189e-19
1.77719e-19
1.82546e-19
1.86636e-19
1.91054e-19
1.95015e-19
1.97406e-19
2.00876e-19
2.02748e-19
2.06077e-19
2.04703e-19
2.12484e-19
2.00646e-19
2.10589e-19
4.59575e-19
-4.54086e-20
-1.91818e-18
5.22345e-18
9.06757e-18
7.48589e-18
1.92369e-18
1.7838e-18
1.3746e-18
1.35741e-18
1.15484e-18
9.20578e-19
1.1483e-18
6.42007e-19
1.02656e-18
7.75269e-19
5.7653e-19
8.80704e-19
7.32758e-19
9.48167e-19
8.97813e-19
8.18146e-19
6.77605e-19
6.93614e-19
6.35984e-19
6.01296e-19
5.19975e-19
5.69091e-19
5.9392e-19
4.41958e-19
3.34713e-19
3.17644e-19
2.63186e-19
1.18261e-19
4.57856e-21
-1.6969e-19
-8.05984e-19
-1.89223e-18
-3.16527e-18
-6.95328e-18
-9.72952e-18
-1.31755e-17
-2.0308e-17
-9.80604e-18
-4.38874e-17
5.35103e-17
-4.68685e-17
-1.80918e-17
-1.7758e-18
2.21675e-16
-4.52031e-16
1.71079e-16
3.34804e-16
-5.18551e-17
6.19116e-16
-3.55713e-15
1.64446e-15
4.07999e-15
-1.19177e-15
-2.45344e-15
-5.97346e-16
1.41975e-16
-1.23375e-16
-1.82439e-17
3.25714e-16
3.18058e-16
1.83977e-16
7.57747e-17
2.74301e-17
-3.6257e-17
-8.05319e-17
-7.64125e-17
-6.00612e-17
-3.95627e-17
-2.87661e-17
-1.36719e-17
-1.01892e-18
5.81976e-20
6.39772e-20
6.77451e-20
6.64236e-20
6.99681e-20
7.49159e-20
1.41118e-19
9.15887e-20
1.41515e-19
1.19247e-19
1.56774e-19
1.44927e-19
1.68652e-19
1.79437e-19
2.38411e-19
2.17766e-19
2.64129e-19
2.59784e-19
2.71133e-19
2.93727e-19
2.89222e-19
2.91679e-19
2.97616e-19
3.02741e-19
3.21529e-19
3.28329e-19
3.36925e-19
3.46253e-19
3.53913e-19
3.65517e-19
3.67603e-19
3.76198e-19
3.74969e-19
3.83263e-19
3.83462e-19
3.82516e-19
3.83541e-19
3.86207e-19
3.84643e-19
3.88344e-19
3.8327e-19
3.96052e-19
4.22564e-19
5.84888e-19
1.62399e-18
6.14808e-18
1.26664e-17
1.00197e-17
5.44059e-18
3.03322e-18
2.89313e-18
2.88865e-18
2.70673e-18
2.76422e-18
2.49839e-18
2.67556e-18
2.14601e-18
2.10971e-18
1.95525e-18
1.75021e-18
1.33271e-18
1.21522e-18
1.34521e-18
1.47995e-18
1.24506e-18
1.07064e-18
8.49506e-19
7.43732e-19
8.93631e-19
9.3188e-19
9.0451e-19
8.31699e-19
8.11256e-19
8.39246e-19
8.3915e-19
8.24593e-19
7.26239e-19
9.96194e-19
-2.40838e-19
2.27082e-18
-2.80573e-18
-1.77322e-19
9.85297e-18
-3.77827e-17
2.9105e-17
-7.24831e-17
1.41651e-16
-2.18733e-16
-5.68386e-17
3.96437e-16
-3.29252e-16
-6.34906e-17
2.61261e-16
6.22041e-16
-1.8884e-15
1.26817e-16
1.07981e-15
6.22485e-16
4.83178e-15
-2.95387e-15
-5.91656e-15
1.51886e-15
1.7048e-15
-2.72041e-16
2.57898e-16
1.5017e-16
-2.83096e-16
-1.32346e-16
8.37684e-17
6.7506e-17
3.10464e-17
-3.5646e-17
-6.61875e-17
-5.35592e-17
-4.82288e-17
-2.82899e-17
-2.06755e-17
-1.48413e-17
-1.60989e-18
2.95268e-19
3.14501e-19
3.36902e-19
3.72966e-19
3.71248e-19
3.95763e-19
4.02933e-19
4.07512e-19
4.36683e-19
4.29786e-19
4.44198e-19
4.87727e-19
4.85933e-19
5.23057e-19
5.03553e-19
5.47617e-19
5.18308e-19
5.42738e-19
5.7181e-19
5.61416e-19
5.86891e-19
6.04068e-19
6.13298e-19
6.17247e-19
6.08786e-19
6.2019e-19
6.2142e-19
6.32744e-19
6.12358e-19
6.29492e-19
6.09198e-19
6.18941e-19
6.13931e-19
6.14781e-19
6.07784e-19
6.0786e-19
6.07832e-19
6.07686e-19
6.07613e-19
6.07244e-19
6.07505e-19
6.09027e-19
6.13411e-19
6.49301e-19
1.18796e-18
4.22897e-18
1.86532e-17
1.67743e-17
1.12106e-17
7.60799e-18
8.59155e-18
8.81753e-18
8.08739e-18
7.19026e-18
6.42429e-18
5.38999e-18
4.71345e-18
4.26789e-18
3.45154e-18
2.83352e-18
2.09096e-18
1.71125e-18
1.64072e-18
1.66048e-18
1.64187e-18
1.51484e-18
1.29985e-18
1.14846e-18
9.74277e-19
9.00203e-19
9.58714e-19
9.56201e-19
9.60458e-19
9.76336e-19
9.12874e-19
9.17242e-19
8.88742e-19
7.74086e-19
1.23325e-18
-1.1361e-18
6.16289e-18
-1.25477e-17
2.5192e-17
-7.49947e-18
-3.32416e-17
8.04424e-17
-2.6347e-16
2.31602e-16
1.93579e-16
-6.99492e-16
6.42691e-16
2.27415e-16
-1.39997e-15
3.89165e-16
1.26826e-15
1.42064e-15
-1.80608e-15
-2.75515e-15
-1.75903e-15
-6.87911e-15
3.10589e-15
8.09254e-15
-3.92394e-16
-1.05466e-15
1.20742e-15
-2.28228e-16
-8.43358e-16
4.83339e-17
3.07019e-16
9.52876e-17
1.16123e-17
-2.63361e-17
-4.32688e-17
-3.01211e-17
-3.15837e-17
-1.47459e-17
-1.02849e-17
-5.04695e-18
7.36822e-19
6.95162e-19
6.91746e-19
6.8653e-19
6.73005e-19
6.90007e-19
7.00831e-19
6.33496e-19
6.93403e-19
6.29289e-19
7.19133e-19
6.82892e-19
6.92949e-19
7.2855e-19
6.52492e-19
7.06293e-19
6.85385e-19
7.00868e-19
6.86263e-19
6.78471e-19
6.78605e-19
6.62476e-19
6.41769e-19
6.35065e-19
6.34317e-19
6.28369e-19
6.36715e-19
6.22641e-19
6.18213e-19
6.24075e-19
6.05741e-19
6.10312e-19
6.01306e-19
6.0453e-19
6.02288e-19
6.05048e-19
6.07737e-19
6.07683e-19
6.06198e-19
6.06832e-19
6.0796e-19
6.06425e-19
6.11005e-19
5.95258e-19
5.69383e-19
1.17328e-18
4.67064e-18
2.66152e-17
4.91263e-17
3.91732e-17
3.05175e-17
2.41761e-17
2.1743e-17
1.70232e-17
1.42892e-17
1.05391e-17
8.22582e-18
6.56312e-18
5.5452e-18
4.23409e-18
3.51608e-18
2.78497e-18
2.30649e-18
2.08081e-18
2.13793e-18
2.21223e-18
2.19546e-18
1.97299e-18
1.69834e-18
1.34821e-18
1.15985e-18
1.20352e-18
1.32829e-18
1.36704e-18
1.40227e-18
1.41368e-18
1.35576e-18
1.28049e-18
1.32959e-18
8.20568e-19
1.64222e-18
-3.35924e-19
2.17514e-18
-1.56091e-18
2.33176e-18
-3.13761e-18
-3.04647e-17
1.55283e-16
-4.22414e-16
5.65362e-16
-9.5981e-17
-4.90795e-16
5.9773e-16
3.59583e-16
-6.93574e-16
-2.50863e-15
-1.21884e-16
-5.30612e-16
2.30597e-15
4.81112e-15
1.98818e-15
8.31005e-15
3.4743e-16
-6.20846e-15
-4.61071e-16
1.42973e-15
-4.35889e-16
-3.88043e-16
3.36175e-16
1.5433e-17
-1.26925e-16
-2.30216e-17
-1.34312e-17
-3.20539e-17
-2.1784e-17
-2.29257e-17
-8.73837e-18
-7.54479e-18
-2.42292e-18
2.05715e-18
6.5562e-19
6.47562e-19
6.41978e-19
6.48939e-19
6.36668e-19
6.11654e-19
6.2222e-19
6.57364e-19
6.48559e-19
6.13974e-19
5.84196e-19
6.03843e-19
5.63062e-19
6.00237e-19
5.37187e-19
5.5067e-19
5.29773e-19
5.34888e-19
5.00744e-19
5.17987e-19
5.04334e-19
5.1839e-19
5.33397e-19
5.3297e-19
5.38916e-19
5.2938e-19
5.28816e-19
5.53562e-19
5.33482e-19
5.68283e-19
5.6607e-19
5.80135e-19
5.81322e-19
5.9097e-19
5.92431e-19
5.94696e-19
6.00158e-19
6.02622e-19
6.00949e-19
6.09244e-19
6.11123e-19
5.90425e-19
2.68861e-19
9.78505e-19
1.90283e-18
7.83131e-18
2.60033e-17
7.21636e-17
5.98162e-17
3.89057e-17
3.35904e-17
2.80019e-17
2.2663e-17
1.76314e-17
1.26702e-17
9.88165e-18
7.57427e-18
6.33976e-18
5.09298e-18
4.17676e-18
3.27561e-18
2.63461e-18
2.43647e-18
2.65926e-18
3.18617e-18
3.30398e-18
3.14449e-18
2.68088e-18
1.85927e-18
1.32934e-18
1.36604e-18
1.60152e-18
1.99213e-18
2.26135e-18
2.24164e-18
2.17112e-18
1.90208e-18
2.11567e-18
1.01981e-18
2.7419e-18
-2.34438e-18
5.93846e-18
-1.17969e-17
-3.03162e-18
1.85654e-17
-1.25482e-16
2.24389e-16
-3.77365e-16
4.64504e-17
1.64776e-16
1.55369e-16
-1.8839e-15
4.38074e-16
2.47084e-15
1.76393e-15
2.36307e-15
3.65196e-16
2.6037e-15
-1.73527e-15
-4.36697e-15
-7.81211e-16
-8.1313e-15
-4.65234e-15
2.04544e-15
1.32425e-15
-1.14218e-15
-1.27557e-15
-4.54738e-16
-6.24367e-17
3.94289e-16
2.70604e-16
4.15171e-17
-1.16687e-17
-1.08191e-17
-1.43382e-17
-1.06302e-17
-6.67249e-18
-1.67886e-18
1.50259e-18
5.87223e-19
5.88158e-19
5.89074e-19
5.80718e-19
5.94172e-19
5.57038e-19
6.60012e-19
5.21453e-19
5.66239e-19
5.50046e-19
6.27037e-19
5.49873e-19
6.04785e-19
5.50829e-19
5.8824e-19
5.75541e-19
6.02727e-19
5.92595e-19
6.32851e-19
6.19842e-19
6.42803e-19
6.68665e-19
6.64402e-19
6.67517e-19
6.75643e-19
6.79908e-19
6.90972e-19
6.74478e-19
7.04185e-19
6.94109e-19
7.04925e-19
7.03264e-19
7.0376e-19
7.07971e-19
7.06384e-19
7.08739e-19
7.02695e-19
7.05021e-19
7.03027e-19
7.05053e-19
7.04379e-19
7.0267e-19
7.12725e-19
7.66431e-19
9.46357e-19
2.17792e-18
1.83891e-17
7.09888e-17
5.33629e-17
4.1193e-17
3.21216e-17
2.71883e-17
2.17959e-17
1.49222e-17
1.19044e-17
8.99961e-18
7.31859e-18
5.88494e-18
5.11503e-18
4.01179e-18
3.13083e-18
2.48417e-18
2.32331e-18
2.90023e-18
4.09602e-18
4.54483e-18
4.38156e-18
3.66239e-18
2.02597e-18
6.23624e-19
8.26272e-19
1.30624e-18
2.04536e-18
2.56609e-18
2.88833e-18
2.90394e-18
2.39709e-18
2.95536e-18
-1.52562e-19
4.66689e-18
-5.21449e-18
-3.23498e-19
-1.45547e-17
-7.03961e-17
1.72003e-16
-5.44844e-16
3.36657e-16
3.20791e-16
-8.57109e-16
-3.54688e-17
1.52163e-15
9.34512e-16
-1.41558e-15
-3.06626e-15
-3.33801e-15
-2.27118e-15
-4.91471e-15
-3.30634e-15
-5.64531e-15
-1.96388e-15
2.13524e-16
-3.24019e-15
1.53561e-15
4.99066e-15
1.55316e-15
-1.8176e-15
-9.02243e-16
6.93795e-16
1.41511e-15
1.1018e-15
3.06777e-16
-1.80291e-18
-8.21507e-18
-1.63471e-17
-1.48329e-17
-1.21658e-17
-5.81368e-18
-2.45142e-18
7.35711e-19
6.43324e-19
6.47124e-19
6.51501e-19
6.35298e-19
6.30078e-19
6.51119e-19
6.59224e-19
6.68298e-19
6.74117e-19
6.87921e-19
6.54167e-19
6.84979e-19
6.85616e-19
6.90358e-19
7.03857e-19
7.10751e-19
7.04507e-19
7.33971e-19
7.59257e-19
7.41595e-19
7.7089e-19
7.36796e-19
7.37341e-19
7.35069e-19
7.37181e-19
7.57943e-19
7.47642e-19
7.71808e-19
7.53755e-19
7.48958e-19
7.45356e-19
7.42906e-19
7.34072e-19
7.36647e-19
7.32888e-19
7.35205e-19
7.3158e-19
7.29758e-19
7.29959e-19
7.24462e-19
7.24172e-19
7.16747e-19
7.18942e-19
7.31588e-19
8.07819e-19
1.25295e-18
4.30035e-18
6.49508e-17
5.83656e-17
4.03764e-17
3.35294e-17
1.84701e-17
1.5802e-17
1.1645e-17
1.13977e-17
7.09959e-18
5.81403e-18
3.7165e-18
3.59431e-18
2.49188e-18
1.82216e-18
2.11168e-18
1.61741e-18
2.31986e-18
4.99144e-18
6.3203e-18
6.08817e-18
5.19437e-18
1.58886e-18
-1.60298e-18
-1.44739e-18
-8.15412e-19
1.91131e-18
3.12375e-18
3.6364e-18
3.37703e-18
2.75506e-18
2.34494e-18
7.09584e-19
1.87576e-18
-1.48287e-18
-1.14174e-17
1.08994e-17
-1.17445e-16
1.98963e-16
-1.82147e-16
-8.04966e-16
5.69702e-16
1.28616e-15
-2.04833e-15
-1.37569e-15
6.41108e-17
3.00211e-15
2.67842e-15
3.12816e-15
4.47022e-15
4.16662e-15
7.33492e-15
4.41782e-15
5.70615e-15
5.02368e-15
1.36408e-15
5.01226e-15
6.07344e-15
-1.76557e-15
-2.94003e-15
6.84316e-16
1.67155e-15
7.45024e-16
-1.783e-16
-2.30899e-16
-3.00296e-18
2.18277e-17
-1.83323e-17
-2.08655e-17
-1.33362e-17
-6.53029e-18
-1.88721e-18
4.10223e-19
6.7161e-19
6.76751e-19
7.02115e-19
7.04489e-19
6.84598e-19
7.3351e-19
5.8863e-19
6.79785e-19
6.94563e-19
7.55349e-19
6.61804e-19
7.67622e-19
6.56172e-19
7.96062e-19
7.63571e-19
7.80004e-19
7.727e-19
7.60065e-19
7.88975e-19
7.99894e-19
7.77998e-19
7.47517e-19
7.45543e-19
7.43383e-19
7.5611e-19
7.4589e-19
7.51764e-19
7.45032e-19
7.33838e-19
7.31277e-19
7.36883e-19
7.32009e-19
7.27466e-19
7.21215e-19
7.22591e-19
7.1683e-19
7.18034e-19
7.13175e-19
7.13418e-19
7.09076e-19
7.13305e-19
7.08337e-19
7.05568e-19
6.96083e-19
6.50351e-19
1.60895e-20
-1.13087e-18
5.36445e-18
1.18111e-17
1.60374e-17
1.53864e-17
1.16334e-17
7.50452e-18
8.77618e-18
9.32854e-18
5.87509e-18
3.03317e-18
1.92129e-19
2.67616e-19
-5.22787e-19
2.95009e-19
2.86224e-18
1.02458e-18
1.66527e-18
6.41082e-18
1.06355e-17
8.54514e-18
7.47101e-18
-6.76001e-19
-5.17484e-18
-6.53526e-18
-1.47763e-18
1.88828e-18
4.59097e-18
5.16929e-18
5.03736e-18
3.3303e-18
6.46295e-19
5.06893e-18
-9.45237e-18
6.82468e-18
-2.78563e-17
-6.87149e-17
1.79031e-16
-1.02375e-15
1.73399e-15
-9.91533e-16
-1.80934e-15
2.06511e-15
3.80842e-15
2.54967e-15
-9.24058e-16
-1.65651e-15
-1.95182e-15
-1.62911e-15
-2.7491e-15
-4.0033e-15
-1.60629e-15
-3.34998e-15
-6.30343e-16
-2.63239e-18
-1.55222e-15
4.37591e-15
4.71543e-16
-6.27127e-15
-1.96856e-15
2.40255e-15
1.53948e-15
-5.02488e-16
-9.13929e-16
-4.09912e-16
-1.22992e-16
-5.27796e-17
-3.01079e-17
-1.55971e-17
-1.31559e-17
-7.74254e-18
-1.71802e-18
6.70872e-19
6.74552e-19
6.68451e-19
6.43837e-19
6.54114e-19
6.60638e-19
6.57347e-19
7.24173e-19
7.37536e-19
7.12486e-19
6.58512e-19
7.74816e-19
7.42121e-19
7.60568e-19
7.49468e-19
7.54124e-19
7.67228e-19
7.8286e-19
8.03356e-19
7.58311e-19
7.60238e-19
7.39079e-19
7.94996e-19
7.69719e-19
7.80815e-19
7.88462e-19
7.74438e-19
7.74884e-19
7.441e-19
7.51926e-19
7.43924e-19
7.33905e-19
7.04517e-19
6.96159e-19
6.88772e-19
6.74452e-19
6.8016e-19
6.62083e-19
6.64604e-19
6.6319e-19
6.55045e-19
6.55654e-19
6.50534e-19
6.39195e-19
5.99478e-19
9.02654e-20
-3.94653e-18
-2.10091e-17
-3.14526e-17
-3.11522e-17
-3.06407e-17
-2.23321e-17
-9.81335e-18
8.5743e-19
6.55148e-18
9.81676e-18
5.72276e-18
2.96776e-19
-4.04999e-18
-5.46465e-18
-4.33036e-18
-4.42937e-19
2.82967e-18
5.89937e-18
6.67512e-18
1.16829e-17
1.20461e-17
9.13328e-18
6.3727e-18
-8.61645e-19
-5.87716e-18
-1.00174e-17
-3.89986e-18
2.05255e-18
5.58794e-18
8.84491e-18
7.18611e-18
6.90219e-18
-4.5224e-20
2.58402e-18
-9.76605e-18
-3.93238e-18
-5.7331e-17
-1.32556e-16
2.8367e-16
-2.30844e-15
1.179e-15
2.91886e-15
1.98873e-16
-3.04699e-15
-3.73935e-15
-1.8261e-15
-8.91414e-16
3.29892e-16
-1.26978e-15
-1.65242e-15
-1.93018e-15
-2.75638e-15
-1.5519e-15
-3.93611e-15
-1.45696e-15
-2.28488e-15
-3.30867e-15
3.57291e-16
-5.39294e-15
-5.88477e-15
1.36899e-15
3.67654e-15
7.28541e-16
-1.16246e-15
-1.06815e-15
-6.18658e-16
-3.83591e-16
-1.63283e-16
-5.62281e-17
-2.79871e-17
-1.91018e-17
-1.02766e-17
-1.46714e-18
-7.12753e-19
7.21583e-19
6.99013e-19
6.88023e-19
7.07651e-19
7.08757e-19
8.07521e-19
7.74053e-19
8.4837e-19
8.22074e-19
8.39009e-19
7.49867e-19
6.88103e-19
8.455e-19
7.09803e-19
7.88843e-19
7.29505e-19
7.74001e-19
6.79338e-19
6.4918e-19
6.83993e-19
6.87602e-19
6.62494e-19
6.53916e-19
6.66664e-19
6.16084e-19
6.19046e-19
5.74439e-19
5.81038e-19
5.69917e-19
5.55651e-19
5.60394e-19
5.56882e-19
5.7873e-19
5.71288e-19
5.74395e-19
5.74431e-19
5.79561e-19
5.77902e-19
5.76502e-19
5.7078e-19
5.74046e-19
5.64546e-19
5.37312e-19
4.12381e-19
-7.43143e-19
-7.05999e-18
-4.77237e-17
-6.34149e-17
-7.37922e-17
-9.76053e-17
-1.00522e-16
-6.20393e-17
-3.80136e-17
-1.1839e-17
-2.64618e-18
-2.21148e-18
-8.04569e-18
-1.34455e-17
-1.50705e-17
-1.2489e-17
-3.75752e-18
6.95804e-18
1.04459e-17
1.52924e-17
2.13331e-17
1.71427e-17
4.61529e-18
5.60299e-18
4.20225e-18
-2.41899e-17
-2.23699e-17
-9.84204e-18
5.75545e-18
1.21185e-17
1.43063e-17
9.53261e-18
7.46738e-18
-6.99224e-18
-1.38211e-17
-1.11334e-17
-1.84775e-16
2.30923e-16
-1.75144e-15
3.88684e-15
-1.25651e-16
-5.84589e-15
-1.26754e-15
1.703e-15
3.63872e-15
2.25676e-15
2.81244e-15
2.92834e-15
5.91588e-15
7.13487e-15
7.50303e-15
5.80762e-15
4.67398e-15
3.00548e-15
5.24633e-17
1.10064e-15
-1.287e-15
-2.16812e-15
-3.6253e-16
-4.92204e-15
-2.06767e-15
4.58291e-15
2.40948e-15
-1.02574e-15
-1.59896e-15
-9.14921e-16
-4.00467e-16
-1.50737e-16
-3.54654e-17
-3.33843e-17
-2.41514e-17
-1.33304e-17
-9.48095e-18
-2.50307e-18
1.65488e-18
7.6555e-19
8.0811e-19
7.92389e-19
7.74869e-19
7.32598e-19
6.98437e-19
6.23524e-19
7.0575e-19
5.74186e-19
7.78545e-19
5.93143e-19
7.70716e-19
5.97752e-19
7.18991e-19
5.71561e-19
6.24849e-19
5.61431e-19
6.25857e-19
6.3503e-19
5.94704e-19
5.38518e-19
5.71296e-19
5.52813e-19
5.58592e-19
5.29367e-19
5.29048e-19
5.6156e-19
5.49849e-19
5.3593e-19
5.212e-19
5.31468e-19
5.2285e-19
5.07709e-19
5.10876e-19
5.05119e-19
5.07561e-19
5.02996e-19
4.95083e-19
4.89946e-19
4.82718e-19
4.80035e-19
4.51712e-19
3.6371e-19
-2.67935e-19
-5.72119e-18
-2.13591e-17
-8.12439e-17
-9.97546e-17
-1.04255e-16
-1.39614e-16
-1.60314e-16
-1.81661e-16
-1.57284e-16
-6.77e-17
-5.25e-17
-2.56943e-17
-2.65448e-17
-2.6652e-17
-3.00945e-17
-1.86747e-17
-5.5617e-18
5.18416e-18
2.4377e-17
2.71139e-17
2.36071e-17
1.76327e-17
2.07039e-18
-5.7645e-18
-1.85779e-17
-4.86634e-17
-2.80161e-17
-6.03835e-18
5.17909e-18
1.52691e-17
1.82294e-17
1.27427e-17
3.44755e-18
-1.00417e-17
-3.88963e-17
-4.95113e-17
-3.0362e-16
3.07334e-16
-4.45202e-15
1.06775e-15
9.7153e-15
5.64333e-15
1.22938e-15
-4.42373e-16
-2.12101e-15
-3.03408e-15
-4.89969e-15
-6.78438e-15
-7.52297e-15
-8.05023e-15
-2.71121e-15
-1.02248e-15
5.5219e-16
3.52491e-15
2.97412e-15
3.91627e-15
9.13042e-16
1.32521e-15
1.85723e-15
-2.74221e-15
3.91081e-15
5.92494e-15
-4.12173e-16
-2.13203e-15
-1.28514e-15
-2.90551e-16
1.95914e-16
2.91909e-16
1.32059e-16
-2.22005e-17
-3.73645e-17
-2.07573e-17
-1.15202e-17
-3.44591e-18
4.00701e-19
6.85211e-19
6.67448e-19
6.97351e-19
7.03415e-19
8.05722e-19
6.72168e-19
8.73252e-19
6.68363e-19
7.94582e-19
6.40847e-19
7.59501e-19
6.98657e-19
6.2669e-19
6.69731e-19
6.02892e-19
7.00849e-19
5.538e-19
7.00498e-19
5.90698e-19
6.92462e-19
5.92121e-19
6.65577e-19
6.42706e-19
6.3475e-19
5.98167e-19
6.06151e-19
5.42191e-19
5.32815e-19
5.15801e-19
5.02983e-19
4.96013e-19
4.73302e-19
4.38884e-19
4.59189e-19
4.26969e-19
4.13592e-19
4.08651e-19
3.99876e-19
3.95604e-19
3.89473e-19
3.81334e-19
3.63985e-19
3.03755e-19
-1.49263e-18
-1.42463e-17
-4.55666e-17
-1.25389e-16
-1.37553e-16
-1.33678e-16
-1.89172e-16
-2.06952e-16
-2.78138e-16
-2.85417e-16
-2.30379e-16
-2.06029e-16
-1.30148e-16
-8.0196e-17
-4.36138e-17
-2.54601e-17
-1.25652e-17
4.7067e-18
2.80745e-17
4.98676e-17
4.8825e-17
4.40371e-17
2.60359e-17
-1.22605e-17
-3.29812e-18
-2.72616e-17
-4.50081e-17
-3.01817e-17
-1.02755e-17
1.06855e-17
2.41073e-17
2.42366e-17
2.3009e-17
8.30083e-18
5.02918e-17
-8.80075e-17
3.19966e-16
-1.01344e-15
5.53741e-15
1.03761e-15
-1.73741e-14
-1.52783e-14
-1.20149e-14
-8.16554e-15
-2.35946e-15
-3.49984e-16
-5.56805e-16
9.50944e-16
1.75305e-15
-9.58626e-16
-3.43546e-15
-4.3118e-15
-4.31627e-15
-2.93479e-15
-1.71253e-15
-6.84707e-16
1.40987e-15
3.52663e-16
2.54466e-15
2.99347e-15
3.66515e-16
7.95682e-15
1.67695e-15
-3.35973e-15
-1.89823e-15
-7.26654e-16
3.35223e-16
8.78739e-16
7.60425e-16
2.5741e-16
-1.15758e-17
-3.94245e-17
-1.65261e-17
-1.14978e-17
-4.9944e-18
-1.552e-18
7.35997e-19
7.34794e-19
6.84414e-19
6.51943e-19
6.69648e-19
7.40919e-19
7.04022e-19
6.70924e-19
6.67422e-19
5.57221e-19
6.94274e-19
4.8758e-19
7.05524e-19
5.00584e-19
6.31437e-19
4.77103e-19
6.17904e-19
5.05385e-19
5.55963e-19
4.55902e-19
4.61614e-19
4.76393e-19
3.83958e-19
3.94513e-19
3.7939e-19
3.73168e-19
3.17207e-19
3.15401e-19
2.9795e-19
3.10898e-19
2.90209e-19
2.83978e-19
3.07022e-19
2.89269e-19
2.96662e-19
3.14589e-19
3.03959e-19
3.21056e-19
3.2068e-19
3.20525e-19
3.07657e-19
2.23692e-19
-1.36259e-19
-4.7686e-18
-1.88004e-17
-7.21039e-17
-1.93006e-16
-2.14799e-16
-1.50627e-16
-3.179e-16
-2.4647e-16
-3.66205e-16
-3.12365e-16
-4.2655e-16
-5.79256e-16
-3.5452e-16
-9.44695e-17
-3.67956e-17
-1.23939e-17
-1.29208e-17
1.61049e-17
5.7927e-17
1.24389e-16
1.26183e-16
9.55521e-17
7.12692e-17
2.20891e-17
1.5604e-17
7.58373e-18
-6.94903e-18
-9.99875e-18
-2.66795e-18
1.16616e-17
2.52007e-17
2.86108e-17
4.61685e-17
5.49543e-17
2.56635e-16
6.81012e-18
7.0961e-16
-5.17699e-15
-6.43855e-15
2.46864e-14
3.03941e-14
2.68638e-14
1.59043e-14
8.11402e-15
4.798e-15
2.67853e-15
3.60929e-15
6.21272e-15
7.52563e-15
8.30603e-15
4.18878e-15
1.4534e-15
-1.88744e-16
-2.85316e-15
-3.92657e-15
-3.58703e-15
-1.43618e-15
-1.7872e-15
1.76568e-15
8.60042e-16
7.18961e-16
5.45613e-15
-3.3398e-15
-3.23798e-15
-4.15621e-16
-2.52831e-17
9.92943e-16
1.2449e-15
6.66371e-16
3.76667e-17
-3.45625e-17
4.6214e-17
3.49552e-17
-1.62834e-18
-2.68048e-18
-1.72805e-18
7.4585e-19
7.49301e-19
7.66398e-19
7.3829e-19
6.88748e-19
7.90448e-19
6.35576e-19
6.54012e-19
3.8493e-19
6.42308e-19
5.28383e-19
7.28311e-19
5.39747e-19
5.90668e-19
6.23235e-19
4.83849e-19
6.40017e-19
3.56974e-19
4.52633e-19
2.97472e-19
3.68036e-19
1.61434e-19
3.51185e-19
2.24003e-19
2.46204e-19
1.84948e-19
2.52267e-19
2.34484e-19
2.81819e-19
2.51655e-19
2.62344e-19
3.07e-19
2.97859e-19
3.04687e-19
2.95792e-19
3.18009e-19
3.21595e-19
3.27951e-19
3.39204e-19
3.35645e-19
3.03992e-19
6.31826e-20
-5.92614e-19
-1.95474e-17
5.69023e-18
-7.66445e-17
-2.83178e-16
-3.33768e-16
-1.16062e-16
-5.21801e-16
-1.21953e-16
-5.14194e-16
-1.34661e-16
-5.36212e-16
-1.04852e-15
-5.34308e-17
-3.16089e-16
-4.55743e-16
-4.05364e-16
-3.80148e-16
-1.21037e-16
1.06064e-16
3.74167e-16
4.32023e-16
4.14297e-16
3.7175e-16
2.94059e-16
3.1268e-16
2.1822e-16
9.10738e-17
4.09262e-18
-8.83442e-17
-9.33774e-17
-1.22506e-16
-1.27385e-16
-4.32164e-18
6.4989e-17
1.23517e-15
-2.71627e-16
8.25365e-15
1.4199e-14
-2.26005e-14
-3.33125e-14
-3.52165e-14
-1.70966e-14
-7.24078e-15
-2.86962e-15
-2.77919e-15
-4.99332e-15
-5.7276e-15
-4.14928e-15
-2.90959e-15
-2.48515e-16
3.05647e-15
5.55681e-15
4.37848e-15
2.72439e-15
1.23687e-16
-8.31844e-16
-1.00117e-15
-2.96148e-15
-5.28775e-16
-3.58668e-15
-8.90851e-16
5.7052e-17
-7.04138e-15
-1.56978e-15
6.41356e-16
4.68621e-16
1.17547e-15
8.89984e-16
8.33225e-17
-2.43774e-16
1.56391e-17
1.56716e-16
7.36901e-17
5.14638e-18
-3.94489e-18
-3.33738e-18
3.86391e-19
4.6195e-19
5.32824e-19