/*--------------------------------*- C++ -*----------------------------------*\
| =========                 |                                                 |
| \\      /  F ield         | OpenFOAM: The Open Source CFD Toolbox           |
|  \\    /   O peration     | Version:  2.2.x                                 |
|   \\  /    A nd           | Web:      www.OpenFOAM.org                      |
|    \\/     M anipulation  |                                                 |
\*---------------------------------------------------------------------------*/
FoamFile
{
    version     2.0;
    format      ascii;
    class       volScalarField;
    location    "2.45";
    object      Bx;
}
// * * * * * * * * * * * * * * * * * * * * * * * * * * * * * * * * * * * * * //

dimensions      [1 0 -2 0 0 -1 0];

internalField   nonuniform List<scalar> 
14161
(
0.949126
1.00829
1.03363
1.0123
0.986801
0.936694
0.903776
0.915022
0.924976
0.946003
0.967543
0.987671
0.977329
0.95376
0.917748
0.897999
0.890859
0.905485
0.937345
0.971655
0.994438
1.00116
0.990556
0.976636
0.962698
0.965521
0.981433
1.00375
1.04499
1.13187
1.26046
1.33034
1.39422
1.43521
1.46827
1.49806
1.52671
1.54952
1.56434
1.57473
1.57894
1.57878
1.57495
1.56706
1.55664
1.53764
1.52054
1.50667
1.49539
1.48602
1.47837
1.47149
1.46354
1.45413
1.44186
1.42271
1.39198
1.34653
1.29272
1.23713
1.18275
1.13204
1.08822
1.05966
1.04487
1.03752
1.03403
1.03168
1.02858
1.02667
1.02645
1.02818
1.03068
1.03347
1.03622
1.0417
1.04881
1.06229
1.07982
1.10027
1.12069
1.13691
1.14444
1.13991
1.12715
1.11097
1.09146
1.07744
1.0629
1.04892
1.03728
1.02313
1.00539
0.984069
0.958738
0.937611
0.915808
0.896079
0.877313
0.856017
0.837321
0.825261
0.816311
0.807914
0.798157
0.787482
0.776288
0.760258
0.739581
0.707027
0.661934
0.602647
0.528174
0.439101
0.343802
0.255659
0.15819
0.139452
0.0505387
1.07112
0.900042
0.772024
0.743532
0.785312
0.91954
1.04701
1.07918
1.06293
1.00016
0.884401
0.774197
0.750187
0.783045
0.870387
0.973495
1.0214
1.01816
0.97439
0.890265
0.801078
0.770526
0.785441
0.832109
0.901438
0.938642
0.950819
0.944041
0.932761
0.92742
0.957472
0.891399
0.827684
0.743325
0.693754
0.655431
0.615507
0.582639
0.56151
0.548219
0.546189
0.552246
0.564215
0.578682
0.601436
0.624462
0.642008
0.657884
0.66648
0.671483
0.67221
0.668106
0.663266
0.656858
0.646926
0.644669
0.657391
0.682627
0.716611
0.751414
0.786747
0.819835
0.850817
0.870448
0.877181
0.878775
0.877164
0.876914
0.878808
0.880824
0.881565
0.881955
0.880006
0.877407
0.87059
0.863361
0.855087
0.845576
0.833627
0.818425
0.797428
0.7717
0.746475
0.724398
0.709518
0.698323
0.683984
0.670315
0.652303
0.634064
0.614247
0.59275
0.572192
0.552947
0.534621
0.518306
0.504307
0.491314
0.481565
0.478855
0.47672
0.47062
0.458719
0.441877
0.422992
0.401471
0.377437
0.346856
0.318608
0.286848
0.25915
0.225863
0.197418
0.168353
0.142774
0.109349
0.0904272
0.073239
0.0290966
0.748124
1.06082
1.27071
1.30389
1.21967
1.01107
0.79537
0.710198
0.73145
0.840621
1.02262
1.17726
1.21333
1.1605
1.02241
0.840448
0.736557
0.74323
0.830121
0.982275
1.14043
1.20936
1.20143
1.14404
1.05011
0.988116
0.97644
0.989221
1.00329
0.997356
0.940037
0.758746
0.680627
0.585758
0.534464
0.505855
0.496521
0.495282
0.496424
0.499339
0.504788
0.511523
0.517957
0.523141
0.529606
0.536055
0.542138
0.547919
0.552915
0.55788
0.562445
0.566949
0.57156
0.575473
0.581046
0.585368
0.584284
0.588941
0.591762
0.59715
0.601102
0.607832
0.61418
0.617901
0.622242
0.625605
0.630713
0.636292
0.643489
0.649308
0.654403
0.656389
0.659451
0.656648
0.648158
0.637827
0.625053
0.611962
0.594585
0.577325
0.558313
0.543171
0.524366
0.50136
0.475597
0.448662
0.419639
0.395263
0.371137
0.34882
0.328867
0.309465
0.294504
0.282218
0.271192
0.263388
0.254722
0.246889
0.238836
0.232988
0.227815
0.221717
0.213517
0.201505
0.186682
0.168921
0.148381
0.125478
0.104662
0.0812658
0.0671532
0.0491552
0.0462582
0.0352844
0.038104
0.0304022
0.033255
0.0165945
0.0102031
1.25511
0.890288
0.601281
0.533982
0.617853
0.863924
1.11488
1.20267
1.1824
1.06127
0.844202
0.641153
0.575565
0.626308
0.797119
1.02214
1.14159
1.14157
1.05463
0.890141
0.701904
0.616674
0.632054
0.713314
0.838795
0.92883
0.947897
0.934319
0.912475
0.87167
0.731474
0.545481
0.501119
0.431663
0.392948
0.361448
0.345416
0.340361
0.344798
0.353469
0.365389
0.379228
0.393953
0.409105
0.424391
0.438969
0.453183
0.466436
0.47891
0.492009
0.50488
0.517555
0.529793
0.542988
0.562129
0.591968
0.622703
0.646816
0.670209
0.69004
0.706782
0.718607
0.726361
0.732666
0.735899
0.738457
0.738251
0.734352
0.726555
0.715633
0.699894
0.680039
0.657025
0.636707
0.623805
0.61093
0.598266
0.585634
0.571738
0.558333
0.540673
0.522949
0.503317
0.48134
0.454539
0.427716
0.399415
0.375101
0.348097
0.32335
0.298862
0.275764
0.256814
0.238331
0.221933
0.207694
0.196246
0.190121
0.187863
0.186415
0.183079
0.177596
0.170125
0.15763
0.141538
0.123216
0.0997448
0.0744069
0.0492743
0.0224778
0.00836623
-0.00740245
-0.0107084
-0.0135887
-0.0047452
-0.000811046
0.00884237
-0.00262934
0.00530916
0.556514
1.04897
1.35314
1.41132
1.32545
1.05043
0.744168
0.604332
0.616439
0.756912
1.00277
1.22636
1.29427
1.24388
1.06853
0.809271
0.637482
0.622404
0.726368
0.919974
1.14097
1.25094
1.25355
1.18238
1.05744
0.959071
0.925212
0.938515
0.955821
0.967468
0.932089
0.701316
0.609653
0.523165
0.484775
0.462
0.451029
0.445412
0.444993
0.449345
0.452499
0.457582
0.461607
0.466001
0.470533
0.47413
0.481133
0.486771
0.496136
0.507682
0.521017
0.53443
0.548488
0.562769
0.575842
0.585196
0.595853
0.609741
0.622534
0.635197
0.645451
0.650106
0.654756
0.659928
0.665595
0.673076
0.679354
0.684599
0.685471
0.686922
0.68534
0.685179
0.683563
0.683021
0.677435
0.6699
0.656073
0.640793
0.619213
0.599735
0.574834
0.552947
0.529796
0.505587
0.4793
0.453471
0.425216
0.397695
0.368536
0.340007
0.31126
0.28344
0.258422
0.235806
0.216179
0.198337
0.185052
0.180952
0.174397
0.173485
0.16971
0.168729
0.164336
0.152859
0.135518
0.114898
0.0879764
0.0636673
0.0339474
0.00941623
-0.00477554
-0.0134072
-0.0168253
-0.0173691
-0.0155682
-0.00591057
7.69119e-05
-0.00764323
0.00354959
1.40001
0.923542
0.539017
0.437197
0.516901
0.81286
1.138
1.26712
1.24476
1.10757
0.863442
0.603394
0.500384
0.536356
0.733172
1.01721
1.19661
1.21361
1.12418
0.95456
0.726482
0.584344
0.576926
0.654136
0.798847
0.925122
0.973049
0.96581
0.944647
0.914046
0.899422
0.677561
0.551949
0.452024
0.414552
0.380389
0.371698
0.368684
0.374709
0.384653
0.397329
0.412052
0.426984
0.442253
0.456293
0.469046
0.486235
0.503694
0.523405
0.544183
0.567396
0.59307
0.622035
0.650751
0.67765
0.699248
0.717818
0.732886
0.746025
0.756802
0.766305
0.775239
0.78479
0.790164
0.793334
0.794529
0.794382
0.794219
0.794838
0.796974
0.799518
0.80565
0.807015
0.803688
0.796063
0.784107
0.76851
0.748931
0.723711
0.69919
0.670509
0.640973
0.615578
0.588516
0.559284
0.531332
0.498239
0.464756
0.431039
0.398132
0.363354
0.326558
0.29165
0.259057
0.230647
0.205785
0.186357
0.17574
0.172081
0.170093
0.170703
0.17179
0.168586
0.157967
0.139906
0.1202
0.0933524
0.0718006
0.0396624
0.0152159
0.000412361
-0.00771448
-0.0146107
-0.015167
-0.0142317
-0.00683636
-0.00457693
-0.00881875
0.00423431
0.415884
1.01195
1.37501
1.46464
1.39352
1.10673
0.738431
0.544057
0.53313
0.676595
0.939197
1.21421
1.3155
1.2799
1.11138
0.826116
0.593579
0.530505
0.617057
0.803051
1.05598
1.21522
1.25194
1.19474
1.08196
0.962006
0.905629
0.906587
0.924244
0.936779
0.927964
0.710474
0.583955
0.485184
0.450821
0.43391
0.431273
0.436447
0.442627
0.45466
0.466833
0.483965
0.501658
0.522064
0.540866
0.560251
0.589228
0.612218
0.63797
0.662726
0.687857
0.711339
0.733387
0.753226
0.77125
0.788976
0.804645
0.820778
0.834529
0.846823
0.860198
0.870874
0.88343
0.892541
0.9004
0.906823
0.910474
0.913436
0.915615
0.916582
0.917925
0.916002
0.914797
0.910449
0.907437
0.900815
0.890257
0.879978
0.857993
0.838091
0.810942
0.776628
0.747515
0.715503
0.680658
0.649712
0.612904
0.570274
0.527217
0.479751
0.432412
0.381783
0.336092
0.292884
0.257857
0.225196
0.201505
0.18612
0.177947
0.175898
0.175323
0.178556
0.176907
0.175631
0.163385
0.145707
0.118785
0.0978266
0.0632521
0.0367758
0.0150035
0.00514236
-0.00602064
-0.00785558
-0.00882455
-0.00642381
-0.00669421
-0.0106495
0.00395326
1.50434
0.974625
0.53073
0.397332
0.454096
0.757317
1.13013
1.30384
1.29518
1.16479
0.931828
0.635382
0.482633
0.499222
0.687526
0.988606
1.22367
1.27453
1.20938
1.06187
0.837643
0.653344
0.598308
0.64991
0.779329
0.926162
1.01081
1.03685
1.02917
1.00384
1.01465
0.788314
0.63636
0.574902
0.544876
0.518172
0.521492
0.532357
0.544978
0.559758
0.573961
0.593912
0.612864
0.635191
0.656118
0.678964
0.711715
0.740496
0.77209
0.801894
0.830446
0.857357
0.884215
0.911155
0.938643
0.966099
0.992873
1.01762
1.03964
1.05869
1.07667
1.08934
1.10546
1.11607
1.12812
1.1338
1.13678
1.13768
1.13338
1.13283
1.12476
1.12387
1.11188
1.11067
1.09812
1.09642
1.08034
1.07525
1.05391
1.03507
1.01239
0.974522
0.936512
0.891037
0.844158
0.801483
0.758571
0.703051
0.649643
0.584695
0.523003
0.459875
0.404473
0.349159
0.301718
0.25541
0.220857
0.194584
0.180733
0.173745
0.175949
0.18259
0.187839
0.194436
0.185506
0.172459
0.144023
0.126529
0.0918236
0.0651972
0.0339273
0.020949
0.0050761
0.00171726
-0.00348643
-0.00349372
-0.00572936
-0.0108869
0.0042026
0.327781
0.970838
1.38337
1.49413
1.43011
1.16334
0.758303
0.514438
0.476257
0.615775
0.870283
1.18648
1.33145
1.31806
1.15708
0.874699
0.584388
0.478239
0.533485
0.681344
0.921515
1.14729
1.24472
1.23451
1.15239
1.03417
0.945355
0.925362
0.948193
0.98864
1.05085
0.846315
0.78217
0.759903
0.750491
0.733345
0.733186
0.74558
0.752622
0.772175
0.780126
0.802114
0.822396
0.84472
0.86339
0.889209
0.923171
0.952351
0.982772
1.01311
1.04115
1.06763
1.09354
1.1193
1.14539
1.17066
1.19433
1.21589
1.23319
1.25129
1.26486
1.27605
1.29005
1.29674
1.30836
1.31118
1.31929
1.31878
1.32144
1.3164
1.31238
1.30946
1.29748
1.2898
1.27658
1.26681
1.25137
1.23658
1.22615
1.20112
1.19039
1.15413
1.11893
1.07766
1.01936
0.957284
0.885399
0.808584
0.740619
0.669836
0.606024
0.545373
0.48559
0.418784
0.357702
0.296556
0.250482
0.213105
0.192636
0.181303
0.181057
0.187578
0.191509
0.204581
0.199453
0.200714
0.178988
0.1626
0.131748
0.103123
0.0616346
0.0431297
0.020943
0.0140272
0.00497835
0.00242772
-0.00214651
-0.00801512
0.00219784
1.58095
1.03609
0.549803
0.387537
0.440064
0.721693
1.13021
1.34639
1.35666
1.23531
1.02152
0.701082
0.488097
0.490459
0.683277
0.989802
1.28506
1.38187
1.32471
1.20854
1.02979
0.851406
0.768477
0.801532
0.895368
1.02648
1.1412
1.18298
1.18732
1.15321
1.17507
1.014
0.980286
0.95949
0.943557
0.991096
0.988241
1.01707
1.01012
1.02686
1.02637
1.0401
1.0487
1.06488
1.07763
1.09513
1.12087
1.14221
1.16378
1.18396
1.20227
1.22079
1.23847
1.25553
1.27193
1.28814
1.30099
1.31655
1.32767
1.34441
1.35179
1.36526
1.37451
1.37851
1.38703
1.38535
1.39349
1.38745
1.39365
1.38707
1.39128
1.38144
1.38295
1.37172
1.37119
1.35711
1.35282
1.3353
1.32562
1.30589
1.28728
1.27322
1.23447
1.2127
1.15621
1.11066
1.04243
0.959431
0.875434
0.790461
0.718149
0.648777
0.582655
0.511037
0.436209
0.358155
0.290136
0.236157
0.1991
0.179165
0.176119
0.181373
0.186749
0.206631
0.214619
0.223773
0.220143
0.205571
0.177424
0.146524
0.0993596
0.0740815
0.0411522
0.0310227
0.0171899
0.0124751
0.00573841
-0.00119964
0.00344174
0.276625
0.933717
1.39241
1.52253
1.45189
1.20958
0.791086
0.495869
0.442445
0.582179
0.828638
1.17863
1.3939
1.40576
1.23884
0.955605
0.60657
0.447186
0.496177
0.627692
0.846022
1.05291
1.15139
1.15026
1.0875
0.991879
0.920317
0.910318
0.943184
1.02665
1.15555
1.17147
1.13695
1.10016
1.07946
1.121
1.1574
1.18523
1.21341
1.22968
1.25536
1.26986
1.28338
1.29257
1.29895
1.3042
1.31309
1.31809
1.32393
1.32694
1.33601
1.34447
1.35542
1.36568
1.37616
1.38498
1.39021
1.40221
1.40351
1.41472
1.41367
1.42197
1.41899
1.42329
1.41933
1.42504
1.42108
1.42595
1.42085
1.42507
1.41909
1.41889
1.41283
1.41072
1.39988
1.39841
1.38254
1.38273
1.36156
1.36232
1.33697
1.34083
1.30772
1.29988
1.24852
1.21033
1.16583
1.0993
1.02846
0.931473
0.831947
0.734738
0.648622
0.560297
0.471928
0.38656
0.31314
0.252835
0.203533
0.180992
0.175558
0.179985
0.188036
0.209813
0.221802
0.239482
0.239405
0.244211
0.228622
0.204802
0.160568
0.122847
0.0728725
0.0565188
0.0358463
0.0273494
0.0145776
0.00680336
0.00406054
1.64818
1.10235
0.58513
0.393256
0.462377
0.726926
1.16084
1.42447
1.44961
1.3305
1.13553
0.820825
0.556339
0.547254
0.735727
1.06365
1.42692
1.56564
1.5119
1.40518
1.24409
1.10379
1.04397
1.05792
1.13001
1.24511
1.3545
1.40967
1.42196
1.38457
1.32239
1.33855
1.26593
1.26611
1.24227
1.34445
1.35879
1.37967
1.38415
1.40397
1.40972
1.41729
1.41541
1.41569
1.41245
1.41006
1.4069
1.4012
1.39585
1.39177
1.38992
1.38918
1.39009
1.39019
1.3927
1.3911
1.39517
1.39442
1.40012
1.40297
1.40853
1.41702
1.41302
1.42081
1.41711
1.42474
1.41919
1.42624
1.42035
1.42521
1.4193
1.42314
1.41462
1.41669
1.40605
1.40719
1.39305
1.39236
1.37671
1.38221
1.36472
1.37139
1.34595
1.3422
1.322
1.28664
1.26047
1.21455
1.17468
1.08274
0.982662
0.868518
0.771912
0.675743
0.58647
0.492751
0.399484
0.318891
0.246878
0.203641
0.178629
0.177507
0.18436
0.2054
0.228352
0.260348
0.266953
0.276887
0.275477
0.254734
0.21419
0.169187
0.10841
0.0841903
0.0519399
0.0407922
0.0220422
0.0150112
0.00511947
0.250878
0.902949
1.40493
1.56382
1.49145
1.25696
0.83564
0.505837
0.459905
0.585889
0.805985
1.15521
1.44064
1.48212
1.3178
1.03124
0.638338
0.442564
0.493679
0.62113
0.805257
0.956153
1.03792
1.05472
1.02178
0.955523
0.877226
0.821431
0.814608
0.859146
1.00767
1.22331
1.3578
1.50321
1.57983
1.55503
1.51756
1.50729
1.4974
1.48774
1.48496
1.47521
1.46575
1.4587
1.45367
1.45038
1.44639
1.44284
1.43958
1.4343
1.42863
1.42177
1.41644
1.41276
1.41105
1.40874
1.41023
1.40516
1.40999
1.40606
1.41204
1.40543
1.41302
1.40553
1.4124
1.40605
1.41384
1.40737
1.41448
1.40611
1.40979
1.40154
1.40714
1.39616
1.40148
1.38814
1.39256
1.3772
1.38176
1.3688
1.37474
1.36092
1.35691
1.33555
1.34373
1.32098
1.31609
1.2768
1.25913
1.21268
1.14903
1.05213
0.932418
0.812211
0.714064
0.614952
0.504502
0.39485
0.286589
0.225918
0.187653
0.183324
0.190276
0.201508
0.230185
0.26689
0.2889
0.30083
0.302339
0.293542
0.267138
0.224792
0.15691
0.119239
0.0707317
0.0560749
0.0302002
0.0248325
0.00563337
1.72494
1.18739
0.663649
0.459538
0.547133
0.792376
1.2223
1.53195
1.5608
1.45008
1.27663
1.02955
0.810198
0.778414
0.893137
1.16646
1.54057
1.71841
1.6734
1.53423
1.34598
1.20044
1.13479
1.12215
1.15221
1.22696
1.32579
1.43924
1.53998
1.63414
1.70419
1.71879
1.76204
1.69012
1.61877
1.56437
1.54307
1.52232
1.52483
1.50922
1.50402
1.49062
1.48218
1.47292
1.46688
1.46026
1.45297
1.44673
1.44175
1.43677
1.43137
1.42446
1.41442
1.40196
1.38886
1.37508
1.36217
1.353
1.341
1.33752
1.32675
1.329
1.31836
1.32359
1.31514
1.32151
1.31479
1.32203
1.31691
1.32699
1.32506
1.33695
1.3357
1.34804
1.34438
1.3573
1.34937
1.35753
1.35196
1.34202
1.35106
1.32719
1.33655
1.3097
1.32651
1.30347
1.30356
1.26874
1.26427
1.22674
1.20463
1.15224
1.07758
0.952172
0.830414
0.704923
0.600358
0.482344
0.37718
0.292617
0.245969
0.2146
0.208799
0.212733
0.228579
0.25875
0.298069
0.321318
0.324049
0.316952
0.29655
0.265488
0.21061
0.156574
0.0946042
0.0737058
0.0420895
0.0358244
0.00870379
0.263004
0.87139
1.38277
1.56636
1.48228
1.27268
0.918029
0.598081
0.557656
0.655866
0.826318
1.05983
1.25559
1.29407
1.23794
1.07613
0.827815
0.658765
0.652934
0.75278
0.904218
1.0278
1.08057
1.08479
1.07382
1.04099
0.986742
0.918641
0.831618
0.73588
0.663022
0.691635
0.812007
1.03719
1.16415
1.22904
1.2421
1.26247
1.25735
1.26903
1.26968
1.27845
1.28712
1.29762
1.3069
1.31455
1.31435
1.31556
1.31366
1.31024
1.30423
1.29627
1.2863
1.27589
1.26493
1.25507
1.24615
1.23877
1.23342
1.23043
1.22688
1.22772
1.22237
1.22621
1.2189
1.22459
1.21818
1.22663
1.22361
1.23484
1.23438
1.24996
1.25037
1.26969
1.26906
1.29028
1.28522
1.30593
1.29442
1.31095
1.29514
1.30709
1.28281
1.29322
1.26767
1.26775
1.24251
1.21266
1.21254
1.16293
1.14461
1.10602
1.06682
1.0102
0.91871
0.808377
0.691964
0.556958
0.463717
0.371298
0.321637
0.277123
0.251914
0.241271
0.248414
0.261644
0.290397
0.319414
0.330293
0.337415
0.327404
0.299646
0.257765
0.200935
0.127847
0.0958433
0.0561607
0.0489082
0.0125874
1.77576
1.28407
0.868075
0.70192
0.748453
0.917534
1.22979
1.50243
1.53192
1.4295
1.26919
1.0947
0.967903
0.951383
0.985828
1.09218
1.26818
1.38802
1.38873
1.31948
1.19199
1.08852
1.04394
1.0398
1.0586
1.08604
1.12709
1.17514
1.21839
1.24933
1.2612
1.27653
1.11351
1.14266
1.1649
1.18427
1.18818
1.18832
1.18259
1.17754
1.18162
1.17396
1.18174
1.17797
1.1828
1.18215
1.17882
1.17792
1.17353
1.1713
1.16517
1.16094
1.15446
1.14889
1.1431
1.13771
1.13245
1.12775
1.12496
1.12256
1.12221
1.12274
1.11851
1.12239
1.11435
1.12043
1.11579
1.12337
1.12007
1.13023
1.1278
1.13986
1.1393
1.15661
1.15947
1.18043
1.19017
1.19755
1.21908
1.21366
1.23317
1.21472
1.23383
1.20542
1.22356
1.18311
1.18803
1.14444
1.13172
1.06848
1.03421
0.992353
0.954997
0.936867
0.8886
0.813527
0.730292
0.617303
0.531354
0.424627
0.368501
0.323859
0.294209
0.265275
0.250896
0.252805
0.268124
0.295393
0.317872
0.329702
0.330357
0.318725
0.288201
0.239128
0.160086
0.118993
0.0730764
0.0625274
0.0191742
0.375244
0.876911
1.21697
1.34458
1.3031
1.18525
0.992594
0.815109
0.782449
0.83842
0.938458
1.05634
1.13678
1.15064
1.13522
1.08675
1.01652
0.967314
0.975272
0.998335
1.04571
1.08864
1.10683
1.10979
1.09245
1.06876
1.04577
1.0334
1.03136
1.03386
1.05253
1.08116
0.99657
1.04836
1.08452
1.11865
1.13462
1.13163
1.12024
1.12505
1.11226
1.11604
1.10493
1.10145
1.0922
1.08453
1.07258
1.06277
1.05209
1.04225
1.03097
1.02039
1.00937
0.999335
0.989654
0.981602
0.975703
0.971933
0.970637
0.971689
0.974437
0.977447
0.986411
0.988287
0.997475
0.99567
1.00183
0.996807
1.00372
0.999466
1.00852
1.00651
1.01822
1.0165
1.03279
1.03049
1.05308
1.04777
1.07836
1.06884
1.09908
1.08028
1.10885
1.07321
1.09332
1.04526
1.06163
1.02669
1.02041
0.993502
0.946447
0.893955
0.841881
0.817117
0.782009
0.73917
0.691995
0.608365
0.53727
0.436846
0.387583
0.336047
0.308464
0.280524
0.256372
0.245659
0.242438
0.264536
0.285072
0.308692
0.313213
0.312132
0.291543
0.251955
0.186731
0.139558
0.0855783
0.0720847
0.0293268
1.67373
1.25637
0.998115
0.917632
0.937373
0.997154
1.11643
1.23672
1.26499
1.21446
1.12929
1.04067
0.99657
0.985071
0.998668
1.03054
1.07749
1.1146
1.12474
1.11301
1.08725
1.06397
1.05233
1.05022
1.05405
1.06183
1.06979
1.07889
1.08304
1.08485
1.08661
1.10047
1.00649
1.05411
1.0629
1.06503
1.06443
1.05153
1.04378
1.03435
1.02042
1.01209
0.996829
0.986686
0.97504
0.966802
0.951158
0.940476
0.928695
0.918575
0.908349
0.899188
0.890762
0.883464
0.877419
0.873471
0.871999
0.871448
0.872746
0.874747
0.879005
0.882954
0.890525
0.890925
0.895055
0.882521
0.878117
0.858966
0.851615
0.833111
0.826392
0.810697
0.807389
0.794045
0.799128
0.78916
0.805385
0.80058
0.827305
0.824455
0.858434
0.848788
0.887505
0.866789
0.898084
0.87501
0.885374
0.843096
0.840841
0.828098
0.818552
0.795417
0.752927
0.707777
0.67442
0.637775
0.604942
0.547587
0.483631
0.409173
0.369495
0.319599
0.294342
0.270428
0.24794
0.229983
0.223211
0.229542
0.251504
0.282484
0.295395
0.305298
0.290447
0.259301
0.209057
0.154508
0.0945715
0.0808875
0.0388862
0.708447
0.971508
1.11133
1.15992
1.1485
1.1053
1.03361
0.980562
0.977953
0.998372
1.03242
1.06969
1.08605
1.08108
1.07442
1.05902
1.04317
1.03498
1.04218
1.05042
1.06035
1.07006
1.07498
1.07338
1.07131
1.06466
1.06014
1.06066
1.05999
1.0666
1.07216
1.10636
1.02622
1.06311
1.05554
1.0339
1.01289
0.989505
0.971838
0.948776
0.926799
0.909931
0.889975
0.874816
0.861097
0.847439
0.827419
0.811356
0.795286
0.781095
0.768648
0.758692
0.751717
0.746089
0.743243
0.741397
0.738193
0.733879
0.72874
0.722838
0.715849
0.706856
0.696274
0.681378
0.665688
0.646531
0.624737
0.609436
0.585897
0.570629
0.548374
0.53429
0.516317
0.50489
0.495756
0.489932
0.491399
0.494088
0.506757
0.519234
0.54504
0.562899
0.600432
0.619248
0.655357
0.66769
0.680691
0.68017
0.677587
0.671892
0.66743
0.667494
0.663206
0.64432
0.608234
0.572157
0.523578
0.469553
0.414383
0.359261
0.318758
0.280369
0.261271
0.240077
0.222074
0.21137
0.202762
0.210403
0.222699
0.256878
0.274888
0.29524
0.289686
0.267865
0.231931
0.174675
0.107272
0.0879305
0.0482808
1.35956
1.15492
1.03318
1.00067
1.00716
1.03024
1.0644
1.09562
1.10121
1.09081
1.0667
1.03865
1.02466
1.02022
1.02497
1.03355
1.04431
1.0549
1.06298
1.06711
1.06963
1.0697
1.07096
1.07222
1.07458
1.07737
1.07731
1.08149
1.09223
1.10738
1.13411
1.15018
1.05005
1.05748
1.0088
0.962599
0.923227
0.888898
0.85892
0.830486
0.805942
0.784443
0.764784
0.750197
0.737367
0.7237
0.706677
0.692442
0.677577
0.6634
0.649676
0.636494
0.625112
0.615579
0.605672
0.595908
0.585484
0.574513
0.562382
0.549203
0.534993
0.51903
0.503001
0.484991
0.467906
0.447835
0.429321
0.409323
0.394649
0.373909
0.358602
0.341208
0.329158
0.314279
0.3078
0.298508
0.298844
0.296333
0.305266
0.314131
0.335769
0.360085
0.396219
0.43782
0.48419
0.514588
0.54199
0.570293
0.577529
0.580608
0.574492
0.56887
0.565997
0.558735
0.55051
0.52645
0.491829
0.431235
0.375266
0.313009
0.266256
0.242715
0.223978
0.209954
0.198586
0.188862
0.187225
0.191599
0.204547
0.231465
0.25472
0.283293
0.287397
0.274584
0.251469
0.193511
0.119652
0.0954477
0.0581097
0.984773
1.05455
1.08552
1.08865
1.08346
1.06608
1.04268
1.02982
1.03429
1.04119
1.05138
1.06024
1.06181
1.05513
1.04936
1.04439
1.04087
1.04024
1.04347
1.05142
1.06185
1.06988
1.07242
1.07657
1.07674
1.07663
1.07666
1.073
1.06631
1.05845
1.07889
0.975571
0.903186
0.79589
0.707272
0.656397
0.624281
0.606855
0.594438
0.586022
0.580312
0.574732
0.568891
0.565274
0.56145
0.557391
0.54861
0.542064
0.533536
0.525425
0.515867
0.506442
0.495635
0.484051
0.471668
0.459357
0.447031
0.434951
0.423136
0.411482
0.400694
0.389719
0.380003
0.371092
0.360793
0.349158
0.333443
0.315385
0.300952
0.285066
0.267713
0.250106
0.237005
0.222445
0.213953
0.20456
0.20155
0.196921
0.201604
0.20597
0.223092
0.243653
0.277957
0.313837
0.363465
0.401884
0.4504
0.470957
0.501583
0.512779
0.520582
0.517725
0.517148
0.510423
0.499991
0.481993
0.455743
0.404974
0.351905
0.283277
0.240442
0.21932
0.1998
0.18503
0.174125
0.168123
0.167757
0.174236
0.185318
0.213261
0.235153
0.272927
0.285278
0.282313
0.265396
0.211024
0.137718
0.105599
0.06902
1.15564
1.092
1.04735
1.03172
1.03676
1.04214
1.04674
1.05186
1.05496
1.05569
1.05299
1.04794
1.04468
1.04231
1.04201
1.04341
1.04514
1.04744
1.05133
1.05609
1.06129
1.06855
1.07344
1.07719
1.07966
1.08072
1.08336
1.08121
1.07919
1.06998
1.07676
0.833448
0.703862
0.614914
0.54563
0.508381
0.48358
0.463619
0.446993
0.435086
0.427167
0.418599
0.41537
0.412256
0.410893
0.407376
0.401553
0.397544
0.392513
0.387891
0.382125
0.376443
0.369829
0.3625
0.354243
0.345257
0.335814
0.326837
0.318742
0.311419
0.306475
0.30311
0.302214
0.303701
0.305128
0.305053
0.300783
0.286669
0.270727
0.255694
0.245854
0.226922
0.215338
0.198659
0.190445
0.179719
0.176389
0.170269
0.170823
0.168727
0.1774
0.184489
0.208749
0.240495
0.285844
0.33947
0.39417
0.419331
0.452486
0.470872
0.487925
0.49334
0.493736
0.491014
0.483502
0.469351
0.443944
0.395804
0.348782
0.27327
0.23481
0.208166
0.186912
0.174294
0.166811
0.164425
0.165713
0.173769
0.180493
0.20356
0.225022
0.264268
0.282735
0.289549
0.277394
0.22663
0.15903
0.117461
0.0820436
1.06438
1.07089
1.07152
1.06256
1.05582
1.04846
1.04006
1.03709
1.03966
1.04478
1.04781
1.05018
1.05114
1.05042
1.04854
1.04739
1.04626
1.04744
1.05101
1.05534
1.06011
1.06788
1.07597
1.08231
1.08694
1.08572
1.07954
1.06588
1.04596
1.00879
0.925625
0.587617
0.500646
0.435733
0.3944
0.373915
0.356332
0.342626
0.334795
0.331943
0.332792
0.333327
0.334833
0.337279
0.33731
0.334728
0.331106
0.326436
0.320959
0.315358
0.308442
0.30104
0.293347
0.285145
0.27633
0.267391
0.25903
0.251351
0.24568
0.241956
0.24118
0.243052
0.248952
0.257238
0.267366
0.275313
0.279005
0.280089
0.272877
0.254322
0.242901
0.228438
0.218202
0.201785
0.191787
0.181708
0.175743
0.171076
0.170399
0.168315
0.172153
0.174439
0.18493
0.201953
0.242596
0.292725
0.350545
0.395944
0.434102
0.459381
0.477886
0.487979
0.49185
0.492771
0.485881
0.473456
0.453733
0.406823
0.35795
0.28112
0.242833
0.208957
0.188537
0.178953
0.171226
0.169609
0.169722
0.176754
0.182737
0.202196
0.221317
0.260294
0.283028
0.296552
0.288628
0.242865
0.179492
0.129817
0.0973838
1.08669
1.06617
1.05399
1.04573
1.04293
1.04159
1.04157
1.04194
1.04302
1.04424
1.04568
1.04655
1.04713
1.04874
1.05002
1.05048
1.05073
1.05231
1.05576
1.06077
1.06385
1.06844
1.07579
1.08057
1.07751
1.07659
1.06865
1.04433
1.00004
0.924562
0.851252
0.745136
0.58232
0.50066
0.440926
0.406111
0.370386
0.348679
0.332879
0.330302
0.326465
0.328309
0.324454
0.316521
0.310808
0.30302
0.295908
0.287324
0.279045
0.270783
0.261872
0.252616
0.243931
0.235419
0.227485
0.220463
0.214797
0.210211
0.207461
0.206435
0.20815
0.210354
0.216894
0.226234
0.241398
0.256219
0.272882
0.279842
0.28838
0.286833
0.280236
0.267851
0.257035
0.241543
0.227216
0.213006
0.200631
0.191021
0.187076
0.182273
0.183256
0.18311
0.191828
0.201677
0.230036
0.277429
0.334663
0.395553
0.438887
0.472304
0.490088
0.503635
0.507989
0.508946
0.506914
0.498248
0.483092
0.440076
0.392107
0.310707
0.267831
0.227988
0.203284
0.192914
0.182461
0.17961
0.1782
0.183471
0.188493
0.205522
0.222804
0.259253
0.284106
0.304425
0.298171
0.260231
0.198425
0.138864
0.109367
1.06715
1.06099
1.05668
1.04885
1.04373
1.03958
1.03826
1.0375
1.03855
1.04056
1.04252
1.04471
1.04775
1.04973
1.05232
1.05477
1.05602
1.05835
1.06045
1.06631
1.07194
1.07506
1.08129
1.08992
1.10426
1.12025
1.13783
1.17011
1.2214
1.2989
1.43798
1.26965
1.08127
0.88389
0.731293
0.62253
0.537632
0.473488
0.428294
0.392567
0.361992
0.335204
0.313934
0.297153
0.283731
0.272073
0.26089
0.250912
0.242226
0.235224
0.229647
0.224607
0.22031
0.216344
0.213351
0.210863
0.209446
0.207614
0.206709
0.207425
0.207721
0.21174
0.215895
0.223054
0.232103
0.245998
0.26236
0.283484
0.301128
0.317612
0.325336
0.327918
0.322262
0.310187
0.293105
0.275897
0.255557
0.239368
0.227517
0.219372
0.21534
0.213892
0.217991
0.223286
0.239251
0.265326
0.31746
0.392378
0.453077
0.501178
0.528171
0.544552
0.552174
0.557955
0.561034
0.55969
0.55235
0.518677
0.469173
0.379221
0.321424
0.271098
0.235415
0.220241
0.204298
0.196445
0.193085
0.194671
0.198403
0.211338
0.227148
0.261259
0.287813
0.313432
0.310761
0.280481
0.209959
0.149854
0.119575
1.06165
1.05554
1.04927
1.04629
1.04222
1.03819
1.03892
1.0386
1.0397
1.04004
1.04115
1.04268
1.04536
1.04858
1.05239
1.05663
1.0609
1.06418
1.06929
1.07437
1.08261
1.08955
1.09868
1.11087
1.12197
1.1349
1.14743
1.16204
1.17191
1.18397
1.18821
1.29033
1.1577
1.04357
0.938939
0.812562
0.665485
0.573138
0.498203
0.455446
0.423237
0.405883
0.39286
0.380042
0.367141
0.355572
0.342769
0.329557
0.316589
0.305026
0.295632
0.286668
0.27759
0.268935
0.260637
0.254094
0.247282
0.241826
0.236198
0.231601
0.230273
0.229837
0.231612
0.236865
0.245901
0.25911
0.273238
0.294084
0.31495
0.342302
0.363689
0.380114
0.388893
0.389721
0.379338
0.361968
0.338672
0.314323
0.295141
0.280808
0.271922
0.265781
0.26601
0.267165
0.274954
0.289187
0.323466
0.386019
0.462757
0.535114
0.578131
0.611938
0.635349
0.651767
0.659658
0.666633
0.664332
0.635819
0.575412
0.487281
0.403858
0.337826
0.287846
0.260061
0.237085
0.220873
0.212804
0.210355
0.211511
0.219551
0.233518
0.263974
0.29287
0.323465
0.319798
0.293148
0.225241
0.161503
0.130669
1.05254
1.04925
1.04775
1.04588
1.0424
1.04037
1.03923
1.03895
1.03835
1.03852
1.03972
1.04139
1.0447
1.04922
1.05459
1.05963
1.0642
1.06927
1.07615
1.08411
1.09361
1.10359
1.11269
1.12586
1.13776
1.15323
1.17151
1.19495
1.22829
1.26181
1.29424
1.36331
1.27088
1.20835
1.17153
1.09499
1.04897
0.97542
0.894526
0.819653
0.754892
0.701229
0.658099
0.622199
0.587368
0.552673
0.518471
0.484334
0.451567
0.419673
0.389764
0.362734
0.339605
0.318275
0.298995
0.280856
0.265933
0.254286
0.245258
0.238365
0.232855
0.232373
0.235945
0.243158
0.253779
0.270074
0.287221
0.310338
0.330636
0.357357
0.381773
0.410315
0.432384
0.451074
0.456688
0.455491
0.442782
0.417917
0.392861
0.36706
0.351474
0.340624
0.333957
0.331264
0.334584
0.341457
0.362264
0.39479
0.452985
0.533356
0.600269
0.663875
0.719515
0.757245
0.786253
0.795702
0.801402
0.774018
0.70842
0.611412
0.504981
0.422301
0.354326
0.310933
0.278058
0.253772
0.238179
0.229897
0.226089
0.228404
0.238788
0.264284
0.293419
0.332704
0.333534
0.311437
0.243342
0.1786
0.142612
1.04795
1.04447
1.04424
1.04331
1.04231
1.04207
1.04155
1.04013
1.04058
1.04005
1.04069
1.04185
1.04421
1.04792
1.05284
1.05932
1.06654
1.07397
1.08323
1.0949
1.10714
1.12073
1.13211
1.14603
1.15942
1.173
1.18955
1.20524
1.21664
1.22829
1.24096
1.32724
1.26445
1.28975
1.30752
1.30281
1.29965
1.25994
1.22793
1.16274
1.09989
1.03625
0.974179
0.913873
0.858224
0.808361
0.761348
0.722229
0.685735
0.650593
0.616366
0.584182
0.552821
0.522094
0.491124
0.46128
0.43494
0.411066
0.392373
0.375241
0.360504
0.350202
0.342349
0.339513
0.344545
0.352392
0.365831
0.380653
0.397429
0.415863
0.433456
0.456393
0.475733
0.500852
0.517533
0.531235
0.531303
0.524172
0.50297
0.47114
0.44963
0.431485
0.423931
0.417883
0.417934
0.417606
0.430538
0.448351
0.49045
0.553923
0.633929
0.704616
0.75412
0.796925
0.835124
0.859778
0.860519
0.847265
0.797141
0.716543
0.61671
0.514998
0.427957
0.367632
0.323569
0.289452
0.264376
0.248187
0.239173
0.237205
0.243164
0.26658
0.29485
0.342451
0.348568
0.335578
0.263607
0.202669
0.155946
1.04351
1.04016
1.04128
1.04168
1.04247
1.04232
1.04225
1.04188
1.04135
1.04131
1.04086
1.04266
1.04617
1.04994
1.05414
1.06144
1.06982
1.08032
1.09081
1.10119
1.10987
1.11854
1.1308
1.14418
1.15786
1.17282
1.19002
1.21128
1.23429
1.26014
1.29113
1.41946
1.29469
1.3207
1.3283
1.34221
1.31055
1.31316
1.30158
1.286
1.28259
1.27058
1.25559
1.23138
1.21144
1.18295
1.15709
1.1265
1.09895
1.07114
1.04304
1.0115
0.978217
0.942873
0.905613
0.868641
0.835233
0.802019
0.769104
0.737224
0.701189