/*--------------------------------*- C++ -*----------------------------------*\
| =========                 |                                                 |
| \\      /  F ield         | OpenFOAM: The Open Source CFD Toolbox           |
|  \\    /   O peration     | Version:  2.2.x                                 |
|   \\  /    A nd           | Web:      www.OpenFOAM.org                      |
|    \\/     M anipulation  |                                                 |
\*---------------------------------------------------------------------------*/
FoamFile
{
    version     2.0;
    format      ascii;
    class       surfaceScalarField;
    location    "2.45";
    object      phi;
}
// * * * * * * * * * * * * * * * * * * * * * * * * * * * * * * * * * * * * * //

dimensions      [1 0 -1 0 0 0 0];

internalField   nonuniform List<scalar> 
28084
(
0.000754236
0.000767432
0.00075953
0.000741435
0.000729863
0.000709623
0.00070918
0.000722205
0.000727501
0.00074508
0.000762347
0.000761482
0.000746592
0.000730042
0.00071448
0.000706155
0.000706223
0.000712296
0.000730737
0.00074771
0.000758472
0.000764813
0.000766122
0.000760825
0.000751674
0.000749671
0.000753487
0.000752379
0.000753974
0.000787865
0.00107176
0.00109272
0.00110121
0.00111607
0.00112688
0.00113868
0.00115034
0.00116269
0.0011729
0.00117329
0.00116733
0.00116008
0.00115523
0.00114959
0.00114611
0.00116195
0.00118136
0.00120483
0.00123424
0.00125413
0.00127185
0.00129405
0.00132112
0.00133896
0.00135316
0.00136578
0.0013739
0.00137263
0.00135631
0.00132495
0.00127844
0.00121921
0.00115436
0.00109457
0.00105164
0.00102435
0.0010086
0.00100893
0.0010169
0.00103181
0.00105396
0.00108585
0.00112882
0.00118171
0.00122929
0.00126612
0.00129972
0.00132908
0.00135306
0.00137273
0.0013801
0.00137935
0.00137726
0.00137069
0.0013566
0.00133607
0.00131137
0.00128689
0.00126223
0.00124771
0.00123401
0.00121523
0.0011901
0.00115367
0.00111094
0.00106316
0.00101468
0.000982072
0.000962439
0.000956493
0.000960321
0.000976124
0.000981673
0.000980654
0.000967404
0.000943355
0.000909641
0.000877568
0.000848537
0.000822405
0.000795665
0.000765295
0.000717071
0.00064011
0.000525455
0.000396528
0.00027965
0.000220563
-1.54199e-05
-1.73636e-05
0.000789687
9.39295e-06
0.000725845
1.85954e-05
0.000669046
2.14617e-05
0.000673593
3.22877e-05
0.000696768
-6.6995e-07
0.00073946
-2.06143e-05
0.000765605
-9.78558e-06
0.000778024
-1.34214e-05
0.000788824
-9.34664e-06
0.000778072
3.99641e-06
0.000745788
7.84887e-06
0.000714679
1.28681e-05
0.000706007
1.29877e-05
0.000711449
-7.35375e-06
0.000744147
-1.32983e-05
0.000777969
-8.22654e-06
0.000797123
-1.06319e-05
0.000808459
-1.26974e-05
0.000794955
3.61822e-07
0.000756131
6.77778e-06
0.000728098
7.35545e-06
0.000720677
1.0269e-05
0.000730292
2.87894e-06
0.000756841
-5.35147e-06
0.000781189
-6.39757e-06
0.000792712
-4.14876e-06
0.000791744
-9.10187e-06
0.000778997
-3.71098e-05
0.000765175
-0.00028835
0.000765651
-1.72112e-05
0.00075984
-4.97604e-06
0.000753223
-1.19181e-05
0.000685105
-9.44119e-06
0.000639464
-7.72711e-06
0.000620213
-6.21187e-06
0.000614092
-6.27812e-06
0.000614274
-1.25587e-06
0.000616215
1.11123e-06
0.000623293
6.27793e-07
0.000625638
9.77158e-07
0.000624872
1.03631e-06
0.000621056
1.81134e-06
0.000614464
2.94621e-06
0.000607711
-1.30349e-05
0.000602177
-1.51549e-05
0.00060168
-1.58917e-05
0.000599113
-1.71318e-05
0.000594837
-1.76485e-05
0.000588537
-1.82575e-05
0.00058085
-1.90993e-05
0.000572564
-1.71308e-05
0.000565146
-1.43999e-05
0.000559864
-1.00646e-05
0.000557252
-5.76691e-06
0.00056055
1.75252e-06
0.000570969
1.36068e-05
0.000592668
2.23915e-05
0.000622224
2.55797e-05
0.000656864
2.81321e-05
0.000692917
2.86954e-05
0.000728639
2.88666e-05
0.000764167
2.20631e-05
0.000797305
1.15841e-05
0.000823231
5.51457e-06
0.000840165
5.25826e-07
0.00085368
-4.39907e-06
0.000865056
-6.52417e-06
0.000875827
-8.16362e-06
0.000887155
-9.43359e-06
0.000898058
-1.08601e-05
0.000907436
-1.2647e-05
0.000913837
-1.40543e-05
0.000918165
-1.6561e-05
0.000918116
-1.96535e-05
0.000913692
-2.39022e-05
0.000905074
-2.67278e-05
0.000892586
-2.67332e-05
0.000876897
-2.40389e-05
0.000859676
-1.86987e-05
0.00084037
-8.49977e-06
0.000819885
3.99874e-06
0.000799905
1.45923e-05
0.000784359
2.42662e-05
0.000775347
2.99001e-05
0.000771194
3.02096e-05
0.000764919
2.92778e-05
0.000759663
2.63767e-05
0.000753203
2.22761e-05
0.000738835
2.25148e-05
0.000719612
2.13833e-05
0.000696271
2.02438e-05
0.000670662
2.38878e-05
0.000644127
2.5205e-05
0.000618126
2.59803e-05
0.000597648
2.33663e-05
0.000577475
2.14612e-05
0.000560485
1.35242e-05
0.000548395
7.71961e-06
0.000534797
6.12008e-06
0.000523121
6.21067e-06
0.00051637
7.19111e-06
0.000511696
5.60755e-06
0.000505937
6.28669e-06
0.000497047
7.74531e-06
0.000483883
1.34545e-05
0.000468406
1.62804e-05
0.000449172
2.30052e-05
0.00043285
3.00272e-05
0.000417814
4.01811e-05
0.000403147
4.86845e-05
0.000386008
6.10473e-05
0.000365259
8.08801e-05
0.00033759
0.000115698
0.00030625
0.000130541
0.000266534
0.000116477
0.00021839
5.79681e-05
0.00016251
0.000212987
0.000120879
-5.32404e-05
5.7959e-05
0.0006805
8.28694e-05
0.000807601
3.46425e-05
0.000923074
3.0792e-06
0.000933627
-3.70757e-05
0.000881029
-6.73553e-05
0.000760765
-6.11041e-05
0.000696727
-1.96743e-05
0.000686223
1.65629e-05
0.000715734
6.08367e-05
0.000784539
6.18822e-05
0.000886133
2.1553e-05
0.000952495
-3.7525e-06
0.000965526
-3.97702e-05
0.000933879
-7.1086e-05
0.000844753
-4.72871e-05
0.000738234
-1.74201e-05
0.000696437
8.27361e-06
0.000707692
3.77088e-05
0.000759748
5.3101e-05
0.000845829
2.95826e-05
0.000942933
6.73328e-06
0.000999386
-1.17157e-05
0.00101297
-3.04575e-05
0.000987908
-2.74855e-05
0.00093673
-1.88102e-05
0.000901697
-5.95401e-06
0.000887675
-3.68279e-06
0.000888182
-3.37158e-05
0.000895431
-0.000281548
0.000895487
-1.11865e-05
0.000784354
6.92928e-05
0.00072415
4.83533e-05
0.000626292
2.556e-05
0.000551733
8.64e-06
0.000519263
-4.68162e-07
0.000510696
-2.8186e-06
0.000512826
6.10987e-07
0.000520052
2.27057e-06
0.000527512
2.96017e-06
0.000528835
4.42493e-06
0.000527728
5.72667e-06
0.000524182
5.50513e-06
0.000519909
3.3546e-06
0.000517115
-1.85893e-05
0.000516598
-2.09494e-05
0.000519101
-2.09663e-05
0.000522404
-2.12984e-05
0.00052464
-2.11497e-05
0.000525808
-2.12508e-05
0.00052739
-2.07434e-05
0.000528951
-1.88047e-05
0.000531107
-1.82006e-05
0.00053507
-1.63357e-05
0.000540655
-1.4326e-05
0.000549462
-1.57216e-05
0.000559602
-1.17361e-05
0.000565609
-8.85296e-06
0.000575523
-8.17133e-06
0.000588326
-6.66605e-06
0.000602649
-6.52013e-06
0.000618156
-3.19345e-06
0.000634468
-2.94872e-06
0.00065162
-5.24765e-06
0.000667687
-7.46447e-06
0.00068148
-1.01588e-05
0.000693701
-1.29626e-05
0.000704366
-1.36101e-05
0.000713296
-1.40028e-05
0.000719802
-1.30216e-05
0.000723303
-1.12487e-05
0.000725017
-1.00752e-05
0.000723612
-8.47299e-06
0.000717521
-8.52425e-06
0.000705443
-1.00413e-05
0.000686952
-1.21695e-05
0.000662261
-1.20802e-05
0.000633085
-9.97708e-06
0.000602505
-3.62235e-06
0.00057327
4.90362e-06
0.000546829
1.59601e-05
0.000524126
2.56759e-05
0.000505191
2.99767e-05
0.00048936
3.63071e-05
0.000467441
4.71316e-05
0.000442111
4.75898e-05
0.000420391
4.64316e-05
0.000400689
4.55279e-05
0.000379342
4.01491e-05
0.000353789
3.89217e-05
0.000327945
3.64559e-05
0.000301303
3.39183e-05
0.000276864
3.79644e-05
0.000254581
3.56408e-05
0.000233758
3.78961e-05
0.000217724
3.67051e-05
0.000205031
3.15038e-05
0.00019804
2.30972e-05
0.000193993
1.69242e-05
0.000189461
1.37472e-05
0.000187474
1.31649e-05
0.000186835
1.39694e-05
0.000186459
1.40164e-05
0.000183526
1.70908e-05
0.000176908
1.95295e-05
0.00016637
2.82734e-05
0.000154506
3.08398e-05
0.000140969
3.9955e-05
0.000130235
4.92643e-05
0.000120778
6.30847e-05
0.000112295
7.46627e-05
0.000102724
9.31454e-05
9.03952e-05
0.000116945
7.47087e-05
0.000158325
6.43771e-05
0.000179398
5.83801e-05
0.000170113
5.49227e-05
9.82745e-05
4.3345e-05
0.00032806
2.7527e-05
2.72189e-06
-0.000111988
0.000886287
-7.01927e-05
0.000744838
3.52872e-06
0.000596607
5.19959e-05
0.000568895
0.000106531
0.000591055
8.81548e-05
0.000695503
6.56027e-06
0.000804652
-1.88503e-05
0.00086371
-6.12724e-05
0.000919701
-7.99427e-05
0.000891145
-7.40388e-05
0.000794256
-2.71204e-05
0.000693943
1.74758e-05
0.000656352
5.15047e-05
0.0006603
6.21224e-05
0.000740846
2.20708e-05
0.000853761
-1.20804e-05
0.000923943
-4.27813e-05
0.000949193
-6.27875e-05
0.000917666
-7.14773e-05
0.000835399
-4.16609e-05
0.000741541
-7.88351e-06
0.000704828
1.43237e-05
0.000709932
2.58476e-05
0.000753842
1.62318e-05
0.000818022
1.43008e-06
0.000864005
-5.08299e-06
0.000871322
-1.08047e-05
0.000867877
-2.89486e-05
0.000867267
-0.000165669
0.0008366
5.65918e-05
0.00060768
0.000178981
0.000520674
0.000137929
0.000466149
6.83231e-05
0.000420989
2.15923e-05
0.000393434
3.91769e-06
0.000384779
1.01639e-06
0.000387445
3.84083e-06
0.000391889
4.60471e-06
0.000397738
5.8946e-06
0.000404386
6.04662e-06
0.000411704
5.46003e-06
0.000420843
2.77359e-06
0.000432291
-1.91818e-06
0.000444497
-2.71498e-05
0.000456253
-3.07508e-05
0.000471505
-2.99847e-05
0.000485206
-2.95618e-05
0.000497476
-2.94805e-05
0.000509415
-2.95929e-05
0.00052111
-2.91009e-05
0.000532421
-2.86092e-05
0.000543634
-2.90197e-05
0.000554823
-2.9988e-05
0.000568031
-2.8811e-05
0.000587813
-2.42173e-05
0.000614126
-2.30485e-05
0.000643364
-2.23565e-05
0.00067345
-2.24462e-05
0.00070412
-2.1346e-05
0.000732331
-2.20547e-05
0.00075725
-1.94039e-05
0.000777278
-1.81333e-05
0.000794933
-1.75736e-05
0.000808739
-1.7667e-05
0.000818471
-1.81683e-05
0.00082515
-1.82558e-05
0.000828002
-1.5646e-05
0.000826038
-1.2358e-05
0.000819137
-8.04013e-06
0.000808049
-2.92315e-06
0.000792144
1.9485e-06
0.000774521
7.44147e-06
0.000754999
1.12724e-05
0.000737218
1.33424e-05
0.000718314
1.40007e-05
0.000697852
1.54897e-05
0.000676026
1.72016e-05
0.000652689
2.22811e-05
0.000627334
2.88067e-05
0.000598978
3.75548e-05
0.000568347
4.63134e-05
0.000536862
5.85066e-05
0.000502866
6.78565e-05
0.000468631
7.65073e-05
0.000440654
7.42506e-05
0.000416894
7.1474e-05
0.000393261
7.06469e-05
0.00036776
6.20028e-05
0.000337361
5.93424e-05
0.000307707
5.31731e-05
0.000276081
4.8321e-05
0.000247648
5.01892e-05
0.000219658
4.32726e-05
0.000192785
4.39398e-05
0.000168988
3.94739e-05
0.000148124
3.14508e-05
0.000135014
2.3647e-05
0.000126609
1.83477e-05
0.000121226
1.52658e-05
0.000118624
1.46182e-05
0.000116974
1.70697e-05
0.000115244
1.9182e-05
0.000109239
2.47938e-05
9.83829e-05
2.81981e-05
8.30432e-05
3.88806e-05
6.79328e-05
4.06843e-05
5.20993e-05
5.06393e-05
3.85992e-05
6.13759e-05
2.60349e-05
7.7418e-05
1.7142e-05
9.19832e-05
8.66687e-06
0.000114264
1.49633e-06
0.000131321
-6.79103e-06
0.000166348
-9.8512e-06
0.000181248
-5.57338e-06
0.000178613
-2.42241e-06
0.000112765
2.93908e-06
0.000351098
-6.72595e-08
-0.00011304
6.63783e-05
0.000608153
0.000120884
0.000798775
5.52477e-05
0.00100082
1.34535e-05
0.00103745
-5.22281e-05
0.000977551
-0.00010174
0.000803603
-8.86863e-05
0.000699068
-4.24266e-05
0.000686277
2.64924e-06
0.000723283
6.24227e-05
0.000811252
8.21934e-05
0.000955283
3.26968e-05
0.0010657
-8.6638e-06
0.00110133
-6.65062e-05
0.00106348
-0.000107075
0.000948653
-7.79862e-05
0.000788982
-4.27656e-05
0.000714665
-1.01574e-05
0.00071687
3.51847e-05
0.000778167
6.48346e-05
0.000900867
3.48388e-05
0.00104504
3.24155e-06
0.00114605
-2.45566e-05
0.00117435
-4.72777e-05
0.00114086
-4.94073e-05
0.00107038
-2.98974e-05
0.00100808
-1.80822e-05
0.000982207
-1.34586e-05
0.000981643
9.69708e-06
0.000995645
6.37746e-05
0.00101033
0.000145847
0.000888019
0.0002379
0.000765911
0.000189587
0.000670653
0.000101728
0.000616827
4.05513e-05
0.000591276
1.32274e-05
0.000582848
3.66066e-06
0.000585511
1.37756e-06
0.000588425
-1.52955e-06
0.00058746
-3.98009e-06
0.000584223
-6.937e-06
0.000580095
-9.57349e-06
0.000575793
-1.30619e-05
0.000570597
-1.74672e-05
0.000564568
-4.67776e-05
0.000558389
-5.03629e-05
0.000556727
-4.94739e-05
0.000555296
-4.88666e-05
0.000557906
-4.83881e-05
0.000563848
-4.80327e-05
0.000573506
-4.69767e-05
0.000586783
-4.6074e-05
0.000603101
-4.77143e-05
0.0006234
-5.42556e-05
0.000644664
-5.86714e-05
0.000664035
-5.54363e-05
0.000682834
-5.38755e-05
0.000705451
-5.30785e-05
0.000728798
-4.95028e-05
0.000752456
-4.40687e-05
0.000774285
-4.05661e-05
0.000795828
-3.61214e-05
0.000812018
-3.20447e-05
0.00082611
-2.75726e-05
0.000839193
-2.38822e-05
0.000851612
-1.93341e-05
0.000863175
-1.34992e-05
0.000872357
-4.53937e-06
0.00087803
4.36516e-06
0.000880997
1.53577e-05
0.000880688
2.22075e-05
0.000877724
2.70289e-05
0.00087336
2.99797e-05
0.000866842
3.37797e-05
0.00085748
3.60587e-05
0.000842704
3.70658e-05
0.000822219
3.96726e-05
0.000796871
4.31541e-05
0.000767284
5.09582e-05
0.000736614
6.03433e-05
0.000702542
7.10383e-05
0.000664839
8.32462e-05
0.000626847
9.61633e-05
0.000585071
0.000101889
0.000545205
0.000107281
0.000507714
0.000103178
0.000469991
9.9933e-05
0.000432732
0.000100957
0.000395672
8.83801e-05
0.000357711
8.61798e-05
0.00032102
7.52424e-05
0.000284987
6.94421e-05
0.000252685
6.8922e-05
0.000221821
5.87618e-05
0.000192197
5.8153e-05
0.000165059
4.82666e-05
0.000142046
3.63275e-05
0.000126633
2.81833e-05
0.000116341
2.23923e-05
0.000109407
1.88425e-05
0.000105488
1.85591e-05
0.000102222
2.40649e-05
9.77826e-05
2.91113e-05
8.91826e-05
3.74959e-05
7.49265e-05
4.0746e-05
5.6825e-05
5.19913e-05
3.87415e-05
5.37591e-05
2.02045e-05
6.4968e-05
4.80242e-06
7.42187e-05
-1.09059e-05
9.13385e-05
-2.09047e-05
0.000104389
-3.09233e-05
0.000127865
-3.64811e-05
0.000137702
-4.14383e-05
0.000162955
-4.14634e-05
0.000175772
-3.49788e-05
0.000170687
-2.69279e-05
0.000116355
-1.4443e-05
0.000347376
-1.21268e-05
2.24628e-05
-0.000174088
0.000982807
-0.000134206
0.000793789
-1.81705e-05
0.000581286
4.0447e-05
0.00053279
0.000126463
0.000546336
0.000129527
0.000685266
3.09747e-05
0.000864644
-2.69744e-05
0.000987639
-9.62535e-05
0.0010464
-0.000135507
0.0010012
-0.000131344
0.000882553
-6.37358e-05
0.00073958
-1.34344e-06
0.000671256
4.65327e-05
0.000663598
9.30991e-05
0.000761459
5.25364e-05
0.000926862
-1.54832e-05
0.00105258
-6.6554e-05
0.00110224
-0.000100715
0.00107412
-0.000118854
0.000989718
-8.98686e-05
0.000871496
-4.13699e-05
0.00080484
-5.92218e-06
0.000802887
2.02148e-05
0.000843331
2.65937e-05
0.000914117
7.48016e-06
0.000974599
-1.06579e-05
0.000997885
-1.796e-05
0.00100192
7.71766e-06
0.00100948
0.000182544
0.00100725
0.00027851
0.000884358
0.000347011
0.000713141
0.000256746
0.000600378
0.000135477
0.000548255
5.77524e-05
0.000523671
2.2625e-05
0.000515813
1.01003e-05
0.000519736
7.05507e-06
0.000527676
3.15735e-06
0.000537092
-8.60262e-07
0.000546598
-5.07235e-06
0.000555888
-8.1566e-06
0.000563564
-1.20736e-05
0.000569809
-1.6998e-05
0.000574347
-5.1103e-05
0.000576981
-5.56881e-05
0.000586364
-5.91359e-05
0.000597346
-6.19001e-05
0.000610725
-6.47775e-05
0.000626719
-6.74954e-05
0.000645517
-6.86618e-05
0.00066891
-7.08998e-05
0.000696598
-7.24667e-05
0.000728557
-7.65349e-05
0.000760713
-7.9884e-05
0.00079171
-7.87653e-05
0.000819833
-7.70301e-05
0.000847312
-7.57128e-05
0.000874803
-6.96264e-05
0.000902124
-6.27729e-05
0.000929284
-5.38853e-05
0.000957335
-4.88771e-05
0.000983465
-4.46782e-05
0.00100634
-3.95397e-05
0.00102447
-3.51308e-05
0.00103903
-2.69911e-05
0.00104922
-1.63009e-05
0.0010559
-3.55423e-06
0.00106193
9.82645e-06
0.00106784
2.46305e-05
0.00107395
3.26731e-05
0.00108068
3.87428e-05
0.00108536
4.35318e-05
0.00108135
5.20625e-05
0.00106883
5.87309e-05
0.00104933
6.41441e-05
0.00102253
7.0936e-05
0.000990293
7.61047e-05
0.000953549
8.7646e-05
0.000915333
0.000101083
0.000875649
0.000112356
0.00083363
0.000127574
0.000792856
0.000138861
0.000747305
0.000143562
0.000698827
0.000148254
0.000651331
0.000142953
0.000600206
0.000137863
0.000546983
0.000137979
0.000494858
0.000121632
0.000443586
0.000117882
0.000395833
0.000101867
0.000346651
9.30677e-05
0.00030154
9.004e-05
0.000259496
7.74531e-05
0.000219558
7.4095e-05
0.000183906
5.89487e-05
0.000153658
4.41925e-05
0.000131766
3.59025e-05
0.000117147
2.87515e-05
0.000108291
2.44598e-05
0.000104497
2.49658e-05
0.00010114
3.39282e-05
9.7524e-05
4.30214e-05
8.8031e-05
5.37114e-05
7.24003e-05
5.65974e-05
5.3591e-05
6.80559e-05
3.37217e-05
6.9324e-05
1.34226e-05
8.33054e-05
-4.14142e-06
8.85209e-05
-2.18037e-05
0.000107177
-3.18643e-05
0.000114752
-4.31785e-05
0.000136819
-4.60822e-05
0.000139534
-4.89548e-05
0.000156171
-4.86435e-05
0.000165663
-4.65114e-05
0.00015639
-3.35408e-05
0.000116207
-2.18247e-05
0.000333225
-1.80467e-05
-0.000167284
6.57507e-05
0.000550607
0.00013256
0.000778129
7.43094e-05
0.00103542
4.48646e-06
0.0011261
-7.72866e-05
0.00107647
-0.000135827
0.000873707
-0.000105077
0.000727147
-7.08331e-05
0.000703958
-3.21036e-05
0.000738615
3.8142e-05
0.000820161
8.7803e-05
0.000975291
3.79509e-05
0.00112264
-1.47563e-05
0.00118424
-9.14364e-05
0.001161
-0.000137298
0.00105711
-0.000119367
0.000878706
-7.772e-05
0.000767054
-3.98655e-05
0.000755503
-3.67848e-06
0.000810626
5.28574e-05
0.000936468
3.92601e-05
0.0011167
-2.73711e-06
0.00125686
-2.68494e-05
0.00130379
-6.19234e-05
0.00128353
-6.92682e-05
0.00121877
-5.15573e-05
0.00114004
-3.46809e-05
0.00108103
-2.49831e-05
0.00107389
1.41059e-05
0.00108856
0.000307831
0.00109196
0.000460825
0.000967764
0.000468282
0.000769774
0.000315436
0.000658451
0.00016562
0.000601331
7.37094e-05
0.000576487
2.99747e-05
0.000567721
9.17319e-06
0.000574357
1.11854e-06
0.000587762
-5.54104e-06
0.000601683
-1.1517e-05
0.000616635
-1.61062e-05
0.000633361
-1.91845e-05
0.000649555
-2.22906e-05
0.000665151
-2.57244e-05
0.000681537
-6.63798e-05
0.000694574
-7.27584e-05
0.00071796
-7.95661e-05
0.000743685
-8.5248e-05
0.000771532
-9.05615e-05
0.000804022
-9.70368e-05
0.000839209
-0.000101747
0.00087661
-0.000107678
0.000914982
-0.000108436
0.000953001
-0.000110409
0.000991251
-0.000109971
0.00102803
-0.000107465
0.00106377
-0.00010503
0.00109845
-0.000102876
0.00113167
-9.54006e-05
0.00116129
-8.79763e-05
0.00119022
-7.59622e-05
0.00121805
-6.773e-05
0.00124527
-5.93397e-05
0.00127303
-5.12335e-05
0.00129765
-4.29256e-05
0.00132121
-3.19481e-05
0.00133931
-2.0339e-05
0.00135474
-6.29852e-06
0.0013677
7.09594e-06
0.00137809
2.16199e-05
0.00138659
3.25646e-05
0.00138989
4.61681e-05
0.00138711
5.80103e-05
0.00138002
7.26375e-05
0.00136618
8.50899e-05
0.00134664
9.58113e-05
0.00131792
0.000107547
0.00128278
0.000116113
0.00123925
0.000130516
0.00118836
0.000147979
0.00113313
0.000158918
0.00107579
0.000178634
0.00102241
0.000191579
0.000969133
0.000194763
0.000911769
0.000201833
0.000855879
0.000197429
0.000792661
0.000189394
0.000721718
0.000187529
0.000648866
0.000166168
0.000573012
0.00016287
0.000500749
0.000141336
0.000429766
0.000128215
0.00036682
0.000122281
0.000309761
0.000105251
0.000256968
9.76423e-05
0.000211556
7.6818e-05
0.000172803
5.75176e-05
0.000145077
4.63413e-05
0.000127063
3.55195e-05
0.000115167
3.11446e-05
0.000109241
3.03941e-05
0.000105654
4.46451e-05
0.000103415
5.78557e-05
9.61604e-05
7.03202e-05
8.40142e-05
7.44266e-05
6.69511e-05
8.686e-05
4.58741e-05
8.80933e-05
2.37394e-05
0.000104652
3.6359e-06
0.000102899
-1.40779e-05
0.000123585
-2.58506e-05
0.000122458
-3.63581e-05
0.000141355
-4.16625e-05
0.000139687
-4.69806e-05
0.000154019
-4.73583e-05
0.000151638
-4.63407e-05
0.00014413
-3.6378e-05
0.000115991
-2.74867e-05
0.000315621
-2.289e-05
4.20709e-05
-0.000218426
0.00107391
-0.000190349
0.000855326
-5.91267e-05
0.000600359
-4.20482e-06
0.000527748
0.000105867
0.000530911
0.000138391
0.000683643
5.9343e-05
0.00092566
-3.42067e-05
0.00109137
-0.000124691
0.00116633
-0.000175569
0.00112757
-0.000186445
0.00100725
-0.000107626
0.000823643
-3.12137e-05
0.000716651
8.31086e-06
0.000699431
8.58459e-05
0.000800596
7.4764e-05
0.000998399
-1.12414e-05
0.00118352
-7.60459e-05
0.0012739
-0.000128547
0.00130309
-0.000165956
0.00124496
-0.000145941
0.00113114
-9.16722e-05
0.00101494
-3.50108e-05
0.000975597
-7.41456e-06
0.000975049
1.16597e-05
0.00103444
9.96198e-06
0.00109827
-1.8485e-05
0.00116141
-2.80275e-05
0.00119109
2.10346e-05
0.00118682
0.000426137
0.00117905
0.000666752
0.00113533
0.00058065
0.000952023
0.000373498
0.000829666
0.000190127
0.000771339
8.59245e-05
0.000746059
3.37393e-05
0.000736372
4.86195e-06
0.000742974
-1.04116e-05
0.000759534
-2.14425e-05
0.000785352
-3.01209e-05
0.000815542
-3.60205e-05
0.000849359
-4.063e-05
0.000884123
-4.4725e-05
0.000919157
-4.53038e-05
0.000952434
-9.73924e-05
0.000982129
-0.000107164
0.00102877
-0.000116818
0.00107708
-0.00012721
0.00112613
-0.000134815
0.00117066
-0.000143053
0.00120831
-0.000148041
0.00123963
-0.00015271
0.00126802
-0.000152303
0.00129353
-0.000151275
0.00131815
-0.000148609
0.00134204
-0.000143777
0.00136407
-0.000138993
0.00138411
-0.000131813
0.00140064
-0.000122283
0.00141432
-0.000112363
0.00142905
-9.87798e-05
0.00144246
-8.94058e-05
0.00145863
-7.67542e-05
0.001479
-6.64373e-05
0.0014994
-5.38281e-05
0.00151928
-4.00421e-05
0.00153649
-2.59177e-05
0.0015502
-9.55114e-06
0.00155896
5.89733e-06
0.00156746
2.51498e-05
0.00157441
4.10983e-05
0.00158067
5.73261e-05
0.00158783
7.47461e-05
0.00159429
9.30916e-05
0.0015941
0.000112738
0.0015886
0.000128101
0.0015756
0.000147668
0.00155241
0.000164537
0.00152157
0.000185613
0.00147803
0.00020752
0.00142958
0.000216983
0.00137025
0.000236883
0.00130296
0.000252989
0.00123582
0.000254565
0.00117093
0.000268136
0.00111404
0.000269455
0.00104835
0.000261432
0.000967929
0.000260776
0.000882598
0.000235073
0.000780771
0.000230488
0.000673596
0.000199549
0.000571579
0.000179474
0.000480037
0.000168236
0.000398072
0.000143831
0.000326023
0.000129854
0.000264133
0.000100276
0.000212496
7.32188e-05
0.000175174
5.82345e-05
0.000149141
4.32454e-05
0.000131009
3.70776e-05
0.000121894
3.52225e-05
0.000117341
5.21246e-05
0.000115951
6.83291e-05
0.000114228
8.45992e-05
0.000107149
9.27087e-05
9.02739e-05
0.000107712
6.76129e-05
0.000109924
4.32312e-05
0.000126659
1.93331e-05
0.000119541
1.87364e-06
0.000138254
-1.05045e-05
0.000131193
-2.20706e-05
0.000148072
-2.95001e-05
0.000140157
-3.76809e-05
0.000152956
-4.0537e-05
0.000142272
-4.19559e-05
0.000137038
-3.69202e-05
0.000116398
-3.19709e-05
0.000295127
-2.72641e-05
-0.000214898
5.54828e-05
0.000514669
0.000137492
0.000761696
8.11189e-05
0.00106902
-2.95192e-05
0.00119892
-0.000109891
0.00115305
-0.000183441
0.000949784
-0.000135354
0.000772586
-9.68909e-05
0.000726569
-7.03774e-05
0.000765948
-1.04958e-05
0.000836197
7.57749e-05
0.000966405
3.96128e-05
0.00115157
-1.60011e-05
0.00124253
-0.000118074
0.00127065
-0.000169354
0.00117925
-0.000174843
0.000991452
-0.000117496
0.000842601
-9.6138e-05
0.000817216
-5.3022e-05
0.000862213
-1.89148e-05
0.000964109
2.57056e-05
0.00115787
3.91681e-06
0.00132223
-2.16788e-05
0.00137904
-6.77612e-05
0.00139842
-9.14073e-05
0.00136387
-7.74504e-05
0.00128086
-7.29455e-05
0.00119726
-5.33523e-05
0.00115256
1.64756e-05
0.00112372
0.00046638
0.00114012
0.000846145
0.00112593
0.000694375
0.00106728
0.000429554
0.00104359
0.00021705
0.00105068
9.90123e-05
0.0010509
2.89052e-05
0.0010527
-9.97229e-06
0.00107222
-3.34245e-05
0.00109308
-5.04244e-05
0.00112697
-6.44405e-05
0.00116242
-7.25646e-05
0.00120247
-7.90805e-05
0.00124378
-8.18073e-05
0.00128623
-8.00444e-05
0.00132516
-0.000150854
0.00136108
-0.000163634
0.00141041
-0.000174272
0.00145174
-0.000181138
0.00148874
-0.000183741
0.0015203
-0.000186297
0.00154456
-0.00018797
0.0015626
-0.000188942
0.00157847
-0.000186811
0.00159269
-0.000184188
0.00160706
-0.000179181
0.00162176
-0.000171151
0.00163577
-0.000161907
0.00164748
-0.000150459
0.00165629
-0.000140013
0.00166317
-0.000127818
0.00167106
-0.000114993
0.00167889
-0.000106202
0.00168866
-9.13398e-05
0.00169996
-7.92593e-05
0.00171339
-6.25913e-05
0.00172852
-4.72423e-05
0.00174381
-2.98803e-05
0.00175716
-1.32582e-05
0.00176885
4.03056e-06
0.00177325
2.49346e-05
0.00176973
4.38666e-05
0.00176529
6.2462e-05
0.0017621
8.36064e-05
0.00175664
0.000105785
0.00175338
0.000128341
0.00174957
0.000150832
0.00174878
0.000175423
0.00173915
0.000205007
0.00172248
0.000229402
0.00169876
0.000261211
0.00166593
0.000278588
0.00162343
0.000303596
0.00156072
0.000321469
0.00149192
0.000318048
0.00141551
0.000339284
0.0013383
0.000352744
0.00125251
0.000347889
0.00115776
0.000361659
0.00106577
0.000340969
0.000964521
0.000330686
0.000852878
0.000286736
0.000732256
0.000255485
0.000610628
0.000234028
0.00050329
0.000199599
0.000409727
0.000175891
0.000329141
0.000134093
0.000260061
9.69772e-05
0.000206496
7.47827e-05
0.000167961
5.26005e-05
0.000143369
4.26202e-05
0.000131072
3.8725e-05
0.000124274
5.38799e-05
0.000122278
7.35476e-05
0.000121178
9.84167e-05
0.000115215
0.000112324
0.000101719
0.000130796
8.36812e-05
0.00013555
6.38923e-05
0.000148012
4.00205e-05
0.000136864
2.16053e-05
0.000153304
8.13828e-06
0.000141156
-5.36763e-06
0.000157204
-1.57672e-05
0.000143109
-2.7332e-05
0.000155101
-3.30177e-05
0.000139707
-3.75048e-05
0.000135428
-3.41802e-05
0.000117708
-2.99918e-05
0.000272346
-2.63382e-05
5.41167e-05
-0.000257898
0.00115581
-0.000244606
0.000923791
-0.000110333
0.000634516
-4.78238e-05
0.000539141
5.83248e-05
0.000542352
0.000136141
0.000686469
7.428e-05
0.000973059
-3.5619e-05
0.00119292
-0.000153034
0.00130222
-0.000206321
0.00127855
-0.000240925
0.00115702
-0.000167525
0.000942549
-8.27145e-05
0.000780301
-4.47519e-05
0.000749468
4.57844e-05
0.000849847
8.66059e-05
0.00106041
6.74966e-06
0.0013137
-9.63538e-05
0.00148415
-0.00014598
0.00152427
-0.000218813
0.00150039
-0.000194478
0.00143014
-0.000136834
0.00133995
-8.38646e-05
0.00127385
-5.29089e-05
0.00125619
-2.8262e-05
0.00126507
-1.35838e-05
0.00131634
-3.28468e-05
0.00137116
-4.22117e-05
0.00139365
-2.63459e-07
0.00138391
0.000467305
0.00135456
0.000900149
0.00132403
0.000707836
0.00127619
0.000425394
0.00132274
0.000224101
0.00138436
0.00010587
0.00143489
9.47261e-06
0.00149027
-3.08334e-05
0.00153737
-6.73763e-05
0.00157993
-8.79069e-05
0.00161173
-0.00010796
0.00163763
-0.000117922
0.00165347
-0.000125301
0.00167124
-0.000123489
0.00168983
-0.000118388
0.00170501
-0.000202834
0.00171463
-0.000208951
0.00173079
-0.000216606
0.00174751
-0.000219583
0.00176347
-0.000218584
0.00177486
-0.000216821
0.0017826
-0.000216351
0.00178839
-0.000215936
0.00179458
-0.000213703
0.00180065
-0.000210392
0.00180648
-0.000204266
0.00181187
-0.000194146
0.00181643
-0.000181348
0.00182043
-0.000166915
0.00182466
-0.000154075
0.00182881
-0.00014009
0.00183356
-0.000126345
0.00183745
-0.000115038
0.00184389
-9.93632e-05
0.00184977
-8.51848e-05
0.00186054
-6.73071e-05
0.00187197
-5.11752e-05
0.00188446
-3.26138e-05
0.00189532
-1.28388e-05
0.00190103
6.61953e-06
0.00190407
2.88347e-05
0.00189984
4.8211e-05
0.00189179
7.19911e-05
0.00187926
9.36794e-05
0.00186829
0.000118847
0.00185673
0.00014203
0.00184799
0.000170087
0.00183637
0.000196206
0.00182787
0.000230223
0.00181128
0.000262741
0.00180081
0.000302875
0.00177611
0.000339483
0.00174426
0.000368905
0.00169972
0.000396165
0.00164872
0.000393267
0.00158295
0.000425008
0.00150052
0.00044752
0.00140886
0.000441245
0.00131055
0.0004673
0.00121908
0.000454495
0.00112733
0.000448475
0.00103479
0.000403567
0.000927041
0.000358221
0.000803526
0.00032334
0.000674375
0.000276803
0.000549704
0.000240735
0.000441575
0.000184517
0.000348337
0.000133643
0.00026953
9.75411e-05
0.00021053
6.41113e-05
0.000175594
4.88562e-05
0.000159412
4.1654e-05
0.000150652
5.43533e-05
0.00014728
7.74908e-05
0.000146639
0.000108636
0.000145772
0.000126902
0.000137439
0.000148829
0.000122672
0.00016074
0.000103197
0.000168689
8.09077e-05
0.000155355
5.96432e-05
0.000170672
4.09991e-05
0.000153214
2.30884e-05
0.000169302
7.86231e-06
0.000149167
-8.195e-06
0.000161028
-1.76773e-05
0.000139822
-2.57961e-05
0.000135651
-2.51052e-05
0.000121199
-2.33048e-05
0.000252079
-2.11512e-05
-0.000260384
1.92342e-05
0.000495748
0.000135274
0.000748304
7.23855e-05
0.00109981
-5.69493e-05
0.00126185
-0.000144847
0.00121015
-0.00024393
0.00102056
-0.00018805
0.000817981
-0.000135353
0.000741307
-0.000125544
0.000783849
-5.86041e-05
0.000838395
5.46074e-05
0.000952744
5.42553e-05
0.0011546
-2.7392e-05
0.00129711
-0.000155807
0.0013736
-0.000214571
0.00128904
-0.000253284
0.00108967
-0.000180569
0.000878236
-0.000151522
0.000803395
-0.000115514
0.000825229
-8.2026e-05
0.000917403
-3.78666e-05
0.00109849
-2.89106e-05
0.00123116
-4.9594e-05
0.00127885
-7.57136e-05
0.00127072
-9.36648e-05
0.00122913
-0.000102466
0.00118054
-9.60104e-05
0.00112761
-8.07639e-05
0.00106817
-2.20137e-05
0.00103942
0.000431668
0.00105878
0.000966665
0.0012213
0.000664653
0.00134931
0.00036838
0.00142845
0.000181908
0.00150145
6.36953e-05
0.00158971
-2.26425e-05
0.00167579
-5.70898e-05
0.00172526
-8.35853e-05
0.00176915
-0.000106837
0.0018197
-0.000125379
0.00185804
-0.000138632
0.00188504
-0.000142752
0.00191003
-0.000139424
0.00192673
-0.000131537
0.00193344
-0.000222399
0.00193567
-0.000228996
0.00194008
-0.000236037
0.00194388
-0.000237987
0.00194688
-0.000238158
0.00194958
-0.000235506
0.00195121
-0.000233039
0.00195263
-0.000231807
0.00195831
-0.000229511
0.00196792
-0.000225502
0.00197719
-0.000218555
0.00198626
-0.000208523
0.00199473
-0.000195508
0.00200273
-0.000180717
0.00200967
-0.000165822
0.00201328
-0.000150082
0.00201839
-0.000136412
0.00201869
-0.000121711
0.0020234
-0.00010571
0.00203076
-8.9308e-05
0.00203719
-6.95093e-05
0.00204006
-5.24434e-05
0.00204677
-3.05737e-05
0.00205843
-1.07552e-05
0.00206111
1.16125e-05
0.00204952
3.36663e-05
0.00203651
5.79316e-05
0.00202811
8.10384e-05
0.00201238
0.000106465
0.00198638
0.000129961
0.00196942
0.000159062
0.00194876
0.000186159
0.0019292
0.000221789
0.00190941
0.000253313
0.00189132
0.000297042
0.00187264
0.000337992
0.00185244
0.000384901
0.00183117
0.000417886
0.00180002
0.000459564
0.00176004
0.000476772
0.00171142
0.000518476
0.00164652
0.00054293
0.00156485
0.000533719
0.00147028
0.000563604
0.00136288
0.000549498
0.00125997
0.00055886
0.0011572
0.000527276
0.00103714
0.000483479
0.000908398
0.000441859
0.000770772