/*--------------------------------*- C++ -*----------------------------------*\
| =========                 |                                                 |
| \\      /  F ield         | OpenFOAM: The Open Source CFD Toolbox           |
|  \\    /   O peration     | Version:  2.2.x                                 |
|   \\  /    A nd           | Web:      www.OpenFOAM.org                      |
|    \\/     M anipulation  |                                                 |
\*---------------------------------------------------------------------------*/
FoamFile
{
    version     2.0;
    format      ascii;
    class       volVectorField;
    location    "2.45";
    object      U;
}
// * * * * * * * * * * * * * * * * * * * * * * * * * * * * * * * * * * * * * //

dimensions      [0 1 -1 0 0 0 0];

internalField   nonuniform List<vector> 
14161
(
(1.43716 -0.030975 -9.94021e-15)
(1.47182 0.00192064 -1.39499e-17)
(1.49122 0.0482497 3.68201e-15)
(1.48605 0.061505 -2.94141e-15)
(1.4498 0.053124 -1.72877e-14)
(1.42538 0.0278908 -3.08066e-14)
(1.40332 -0.0226889 -3.71064e-14)
(1.401 -0.0434335 -4.33773e-14)
(1.40618 -0.0367548 -4.74525e-14)
(1.4209 -0.0246514 -4.86904e-14)
(1.44649 0.0019211 -5.05939e-14)
(1.45597 0.0367407 -5.32449e-14)
(1.45078 0.0474254 -5.58909e-14)
(1.43642 0.0445314 -5.97174e-14)
(1.41045 0.0267002 -6.50545e-14)
(1.38829 -0.00742934 -6.87491e-14)
(1.37648 -0.0309858 -6.71918e-14)
(1.38281 -0.0299655 -6.4404e-14)
(1.3915 -0.0195099 -6.21655e-14)
(1.43154 -0.00134327 -6.10396e-14)
(1.45229 0.029221 -5.79996e-14)
(1.47366 0.0478162 -5.55909e-14)
(1.46662 0.0484218 -6.07611e-14)
(1.46001 0.0431772 -6.55458e-14)
(1.46087 0.0255411 -6.90954e-14)
(1.4685 0.00751278 -6.70155e-14)
(1.48059 0.00400957 -6.61382e-14)
(1.49719 0.00809139 -7.01956e-14)
(1.54339 0.0125753 -5.59389e-14)
(1.65936 9.60932e-05 2.17559e-13)
(1.40888 -0.110881 4.26967e-13)
(0.978902 0.0194241 4.58347e-13)
(1.07589 0.0531204 2.73552e-13)
(1.10145 0.0639608 2.75913e-13)
(1.12287 0.0754456 2.71559e-13)
(1.14488 0.0854775 2.54059e-13)
(1.16684 0.0954296 2.52097e-13)
(1.19296 0.1021 2.42659e-13)
(1.21511 0.110128 2.13795e-13)
(1.22221 0.114348 1.95975e-13)
(1.22696 0.115297 2.02364e-13)
(1.23014 0.115596 2.00046e-13)
(1.23142 0.114333 1.90435e-13)
(1.22652 0.112676 1.86629e-13)
(1.21853 0.109708 1.80593e-13)
(1.20997 0.106305 1.7619e-13)
(1.19674 0.100201 1.7038e-13)
(1.18832 0.0955543 1.66935e-13)
(1.1842 0.0919274 1.66435e-13)
(1.17366 0.0887177 1.68107e-13)
(1.16425 0.0871235 1.67988e-13)
(1.15798 0.0856243 1.69244e-13)
(1.15039 0.0861395 1.67777e-13)
(1.13662 0.0878147 1.62768e-13)
(1.12247 0.0901744 1.59791e-13)
(1.1006 0.0913406 1.56928e-13)
(1.06671 0.0914044 1.49242e-13)
(1.01744 0.0902587 1.32079e-13)
(0.959694 0.0842656 1.1322e-13)
(0.907294 0.074926 9.72992e-14)
(0.857187 0.065647 8.8356e-14)
(0.806401 0.0557296 8.18135e-14)
(0.760247 0.046062 6.25563e-14)
(0.718379 0.0352921 5.62016e-14)
(0.686332 0.0245375 5.0467e-14)
(0.665313 0.018231 3.37261e-14)
(0.6508 0.0139413 2.09253e-14)
(0.642217 0.0094312 3.99284e-15)
(0.640893 0.00654747 -5.34748e-15)
(0.643415 0.00442334 -1.49366e-14)
(0.649466 0.00277269 -1.03854e-14)
(0.658553 0.00119352 -1.60131e-14)
(0.668713 -0.000526323 -1.3874e-14)
(0.679114 -0.00189114 -2.62567e-14)
(0.690219 -0.00385816 -2.69191e-14)
(0.702877 -0.00612029 -2.8615e-14)
(0.716913 -0.00923428 -4.25568e-14)
(0.734086 -0.0110657 -1.52749e-14)
(0.752919 -0.0101727 -6.19496e-14)
(0.773755 -0.00691485 -1.91342e-14)
(0.797539 -2.77229e-05 -5.09581e-14)
(0.81752 0.0105872 -1.10807e-13)
(0.833084 0.0218574 -1.78371e-14)
(0.841866 0.0310764 -7.35105e-14)
(0.840774 0.0379961 -3.83547e-14)
(0.834105 0.0410157 -5.88759e-14)
(0.817418 0.0399847 -5.54983e-14)
(0.799836 0.0380057 -4.7394e-14)
(0.780186 0.0355471 -7.78308e-14)
(0.764016 0.0323827 -4.61572e-14)
(0.747983 0.0322274 -7.53358e-14)
(0.729921 0.031283 -6.99927e-14)
(0.712396 0.0303428 -6.50705e-14)
(0.695783 0.03197 -6.71118e-14)
(0.675173 0.0320433 -5.43331e-14)
(0.656329 0.0319996 -5.10912e-14)
(0.638935 0.0311103 -5.18288e-14)
(0.624412 0.0305739 -5.00334e-14)
(0.613131 0.0258466 -5.17645e-14)
(0.605738 0.0211245 -5.40342e-14)
(0.601027 0.0193309 -5.36011e-14)
(0.596186 0.0192163 -5.30175e-14)
(0.589294 0.0206187 -5.3584e-14)
(0.579911 0.0211669 -5.30836e-14)
(0.566975 0.0226285 -5.36978e-14)
(0.548798 0.0244232 -5.3045e-14)
(0.526457 0.0280123 -5.63067e-14)
(0.499807 0.0302195 -5.23492e-14)
(0.472596 0.0338563 -6.08213e-14)
(0.444346 0.0368829 -5.06636e-14)
(0.414839 0.0402674 -4.56289e-14)
(0.383286 0.0419921 -5.56497e-14)
(0.349306 0.0447504 -9.50716e-14)
(0.308765 0.0496754 -1.46197e-13)
(0.258527 0.061628 -1.56426e-13)
(0.199549 0.0636292 -1.96482e-13)
(0.142051 0.0547899 -1.61047e-13)
(0.102483 0.0296869 -1.18436e-13)
(0.0773659 0.0624328 -7.10066e-14)
(1.48443 0.00524899 -1.44125e-15)
(1.39925 0.00381404 -3.51105e-14)
(1.35083 -0.0112252 -3.10653e-14)
(1.4007 -0.0279795 -1.67799e-14)
(1.39867 -0.028135 -8.7717e-15)
(1.46717 -0.014515 -1.11786e-16)
(1.5066 -0.00524428 1.11979e-14)
(1.4944 0.00347986 -2.03358e-15)
(1.49511 0.0151027 -3.14068e-15)
(1.44996 0.0150828 -1.77106e-14)
(1.39549 0.0089165 -3.36506e-14)
(1.36434 -0.00505563 -4.81874e-14)
(1.36187 -0.0212161 -5.15205e-14)
(1.38613 -0.0239614 -5.55123e-14)
(1.41817 -0.0204543 -5.27262e-14)
(1.45135 -0.0155232 -4.70525e-14)
(1.44992 0.000228812 -4.76409e-14)
(1.44816 0.0119591 -5.12752e-14)
(1.39494 0.0141569 -5.73899e-14)
(1.3612 0.0105661 -6.54445e-14)
(1.34468 0.00243952 -7.57688e-14)
(1.35669 -0.0118154 -7.74787e-14)
(1.38711 -0.0204364 -8.18748e-14)
(1.41883 -0.0229817 -6.03418e-14)
(1.46138 -0.0209918 -1.06343e-13)
(1.48661 -0.0147226 -7.25663e-14)
(1.479 -0.0107755 -6.2737e-14)
(1.47197 -0.00339876 -5.97425e-14)
(1.4596 -0.00177903 -7.26839e-14)
(1.48719 -0.0244253 9.26412e-14)
(0.962037 -0.171481 2.49924e-13)
(0.681998 -0.0109738 2.18307e-13)
(0.615717 0.0147374 1.56781e-13)
(0.546538 0.0205716 1.26357e-13)
(0.504356 0.0294707 9.61062e-14)
(0.485384 0.0345088 5.49252e-14)
(0.480332 0.0359039 2.32654e-14)
(0.481095 0.0375393 1.39738e-14)
(0.484757 0.0421399 2.48997e-15)
(0.488301 0.0444847 -6.59817e-15)
(0.487677 0.0441731 -1.42795e-14)
(0.485348 0.0440621 -2.65784e-14)
(0.481383 0.0438158 -3.58392e-14)
(0.476232 0.0433287 -3.38701e-14)
(0.470956 0.042108 -2.6147e-14)
(0.469344 0.033542 -2.24958e-14)
(0.461826 0.0306247 -1.63921e-14)
(0.456856 0.0293399 -1.59238e-14)
(0.450323 0.0279567 -2.67506e-14)
(0.440843 0.0279791 -2.38938e-14)
(0.432819 0.0279512 -2.22721e-14)
(0.421804 0.0281563 -2.41427e-14)
(0.413635 0.0304733 -2.37629e-14)
(0.4053 0.0321384 -2.44497e-14)
(0.400379 0.0349405 -3.11657e-14)
(0.398032 0.0372347 -3.48206e-14)
(0.398725 0.0403546 -3.60156e-14)
(0.406409 0.0452747 -3.80542e-14)
(0.418532 0.0475147 -1.56652e-14)
(0.432952 0.0463859 -3.50494e-14)
(0.448115 0.0454808 3.92282e-14)
(0.462889 0.0438001 -4.28143e-14)
(0.476753 0.0439008 5.70776e-14)
(0.488508 0.0386762 -9.11109e-14)
(0.495282 0.0309989 2.63516e-15)
(0.498803 0.0259006 -6.49132e-14)
(0.501424 0.0210194 -5.18144e-14)
(0.502899 0.015657 -6.2559e-14)
(0.505956 0.0113438 -6.21456e-14)
(0.50917 0.00730838 -7.13797e-14)
(0.512885 0.00479518 -4.05872e-14)
(0.515912 0.0025754 -9.30106e-14)
(0.517084 0.000114345 -1.5684e-14)
(0.517276 -0.00201007 -9.35872e-14)
(0.513806 -0.0044442 -4.50392e-14)
(0.508398 -0.00727319 -3.55221e-14)
(0.500824 -0.0104125 -2.45963e-13)
(0.491649 -0.0121707 4.27888e-13)
(0.481534 -0.0103451 -1.0331e-12)
(0.4709 -0.00558119 2.03596e-12)
(0.459712 0.00110213 -4.2106e-12)
(0.449806 0.0100388 5.453e-12)
(0.440976 0.0187142 -5.07262e-12)
(0.435524 0.026087 2.94139e-12)
(0.4333 0.0337041 -1.73679e-12)
(0.432364 0.0390947 8.2649e-13)
(0.427441 0.0389539 -8.11995e-13)
(0.422132 0.0377415 3.51941e-13)
(0.414296 0.0357943 6.79994e-13)
(0.404283 0.0325128 -9.38989e-13)
(0.393577 0.0318296 1.15365e-12)
(0.382346 0.0305598 -7.12173e-13)
(0.370917 0.0290593 -1.0413e-13)
(0.359727 0.0309418 2.77515e-13)
(0.348686 0.0304459 -1.28646e-12)
(0.339473 0.0307736 3.66682e-13)
(0.330084 0.0302895 3.16328e-13)
(0.321734 0.0284279 -1.01054e-13)
(0.315776 0.0235488 -1.05549e-13)
(0.308181 0.0201024 -4.10946e-14)
(0.302837 0.0188777 -3.79375e-14)
(0.298201 0.0187467 -8.50307e-14)
(0.293646 0.0188821 -5.30446e-14)
(0.286656 0.0183845 -6.30077e-14)
(0.27678 0.0194679 -7.08539e-14)
(0.263889 0.0207459 6.73932e-14)
(0.250163 0.0245518 -2.83712e-13)
(0.234748 0.0260339 -5.14612e-13)
(0.220967 0.0293794 -3.9834e-13)
(0.207821 0.0326868 -1.82358e-12)
(0.194785 0.0371035 -8.91959e-13)
(0.180215 0.0395031 6.81891e-13)
(0.16365 0.0438689 1.66329e-12)
(0.145853 0.0524693 1.55522e-12)
(0.127846 0.0661469 1.05633e-12)
(0.103596 0.0709088 3.92185e-13)
(0.0769998 0.0634813 8.0688e-14)
(0.0571433 0.0357582 2.57625e-15)
(0.049609 0.112828 -3.90904e-14)
(1.37772 -0.0361363 -4.50255e-14)
(1.53969 -0.0174871 2.88631e-14)
(1.63256 0.0137919 1.5761e-14)
(1.54337 0.0231121 -1.22853e-14)
(1.4749 0.0265083 -4.46746e-14)
(1.38578 0.0211071 -1.00612e-13)
(1.33863 -0.000815431 -1.40147e-13)
(1.36746 -0.0285711 -1.56599e-13)
(1.39148 -0.0247912 -1.57365e-13)
(1.44561 -0.0174413 -1.32555e-13)
(1.52364 -0.00118715 -1.01837e-13)
(1.54847 0.00895203 -7.31693e-14)
(1.50114 0.0149785 -6.78989e-14)
(1.45094 0.0217032 -7.31352e-14)
(1.37301 0.0153094 -8.69794e-14)
(1.30798 0.0016801 -1.11123e-13)
(1.28365 -0.0178667 -1.11177e-13)
(1.34619 -0.0218182 -1.05618e-13)
(1.38726 -0.0171394 -9.42859e-14)
(1.47644 -0.00682468 -7.89506e-14)
(1.53204 0.00501928 -6.15501e-14)
(1.56849 0.0119971 -5.31979e-14)
(1.50155 0.0170167 -5.81872e-14)
(1.45812 0.0172496 -6.86724e-14)
(1.42623 0.0118346 -6.3058e-14)
(1.41798 0.00402334 -8.96933e-14)
(1.42954 -0.00183875 -9.7588e-14)
(1.45997 -0.000258779 -7.90519e-14)
(1.46197 -0.00136282 -7.19095e-14)
(1.44487 -0.0263173 9.46168e-14)
(0.765367 -0.107759 2.39036e-13)
(0.529732 0.0154926 1.59919e-13)
(0.441985 0.0646888 8.73921e-14)
(0.367309 0.0454838 4.47149e-14)
(0.323769 0.0199777 3.78091e-14)
(0.30654 0.00474748 -2.66789e-14)
(0.303269 -0.00159011 -6.26096e-14)
(0.304716 -0.00392688 -8.20705e-14)
(0.306998 -0.00427773 -9.15872e-14)
(0.30725 -0.00405965 -8.22444e-14)
(0.306543 -0.00286716 -8.25887e-14)
(0.305345 -0.000911885 -1.01897e-13)
(0.305047 0.00102568 -1.02285e-13)
(0.305116 0.00151082 -8.6031e-14)
(0.30594 0.00033331 -1.03704e-13)
(0.308585 -0.00485881 -7.58179e-14)
(0.309043 -0.00575172 -7.19889e-14)
(0.309501 -0.00456435 -7.87155e-14)
(0.308745 -0.00392373 -1.23501e-13)
(0.30747 -0.00376373 -7.10617e-14)
(0.306025 -0.00397195 -5.44997e-14)
(0.304594 -0.00380664 -8.84357e-14)
(0.303742 -0.00320927 -8.75211e-14)
(0.303766 -0.00359088 -8.30747e-14)
(0.305134 -0.00334197 -8.32926e-14)
(0.30878 -0.0023348 -8.81488e-14)
(0.312858 -0.00424504 -9.53208e-14)
(0.316421 -0.00296733 -1.00257e-13)
(0.32154 -0.0018131 -9.08458e-14)
(0.327895 -0.00161608 -8.9651e-14)
(0.334694 -0.000572049 -6.46211e-14)
(0.341853 -0.000659378 -1.10092e-13)
(0.349018 0.00151052 4.48775e-15)
(0.35627 0.00216294 -2.01503e-13)
(0.362294 0.00141772 1.04053e-13)
(0.366584 4.89674e-05 -2.76427e-13)
(0.369802 -0.00157953 1.08479e-13)
(0.372033 -0.00297151 -1.93451e-13)
(0.373623 -0.00280132 -4.03904e-14)
(0.374123 -0.00248982 3.02135e-14)
(0.373288 -0.00121719 -1.73108e-13)
(0.370772 0.000811686 6.71171e-14)
(0.365898 0.0024109 1.12948e-13)
(0.358646 0.00506759 1.04971e-13)
(0.34838 0.00618456 -8.41203e-13)
(0.335463 0.00617065 7.96348e-13)
(0.320545 0.00537419 -2.10996e-12)
(0.305093 0.00518294 2.91693e-12)
(0.290257 0.0053695 -4.19549e-12)
(0.276824 0.00821671 3.56812e-12)
(0.265492 0.0119589 -1.42807e-12)
(0.256275 0.0171182 -2.79151e-12)
(0.249029 0.0217243 6.43298e-12)
(0.241081 0.0217419 -7.78751e-12)
(0.231072 0.0232712 1.26398e-11)
(0.221606 0.0302523 -1.95979e-11)
(0.210957 0.0303921 1.91603e-11)
(0.201525 0.0294055 -1.29926e-11)
(0.190869 0.0290114 3.76451e-12)
(0.179649 0.0254034 6.28253e-12)
(0.167512 0.0243505 -1.21787e-11)
(0.155271 0.0223672 1.35499e-11)
(0.144165 0.0204657 -1.12094e-11)
(0.133911 0.0228932 4.59405e-12)
(0.124699 0.0209446 6.9963e-12)
(0.117652 0.0224539 -1.36816e-11)
(0.112522 0.0214387 2.70703e-12)
(0.109715 0.0180613 5.86826e-12)
(0.108117 0.0131207 -5.38352e-13)
(0.106174 0.00991532 -2.16749e-12)
(0.106021 0.0083415 -7.70661e-13)
(0.105695 0.00838504 8.91041e-13)
(0.104839 0.00929332 8.90641e-13)
(0.101229 0.00984128 7.83386e-13)
(0.0956003 0.0119454 -8.67003e-13)
(0.0875539 0.013311 -6.06519e-13)
(0.08031 0.0179232 6.58249e-12)
(0.0716225 0.0185236 3.98146e-12)
(0.0654819 0.0230946 1.12137e-11)
(0.0590713 0.0269836 1.02063e-11)
(0.0545568 0.0332811 -5.64609e-12)
(0.0468481 0.0385928 -7.17952e-12)
(0.040187 0.0472802 -3.7221e-12)
(0.0312425 0.0566654 -3.36859e-13)
(0.0306437 0.0744519 3.02824e-13)
(0.0272513 0.0813984 1.94673e-13)
(0.0221664 0.0781808 3.58776e-14)
(0.0150156 0.0473266 -2.79393e-14)
(0.0155451 0.145103 -4.25525e-14)
(1.58783 -0.00547986 1.10512e-14)
(1.37142 -0.00502437 -5.13862e-14)
(1.27802 -0.0013045 -6.52974e-14)
(1.3576 0.000330363 -4.1136e-14)
(1.40567 -0.000169629 -1.06016e-14)
(1.51431 0.00601252 1.30239e-14)
(1.59663 0.00357696 2.02302e-14)
(1.57174 -0.0033411 1.99775e-14)
(1.57443 0.0023154 8.76237e-15)
(1.46637 0.00202508 -4.64276e-15)
(1.37953 0.00434788 -2.4613e-14)
(1.31836 1.76635e-05 -4.36276e-14)
(1.30289 -0.00588581 -5.31495e-14)
(1.36204 -0.00508379 -5.89246e-14)
(1.42746 -0.00454951 -4.94569e-14)
(1.50477 -0.00218347 -3.58775e-14)
(1.52486 0.00147056 -3.08646e-14)
(1.50211 0.00354856 -3.36029e-14)
(1.40494 0.00417828 -3.95051e-14)
(1.33391 0.00857955 -4.9074e-14)
(1.28792 0.00539827 -6.7728e-14)
(1.28172 -0.00239535 -6.99094e-14)
(1.35798 -0.0030672 -7.29907e-14)
(1.41045 -0.0016667 -7.01929e-14)
(1.47777 -0.00158946 -5.85074e-14)
(1.52481 -0.00172721 -5.95751e-14)
(1.48481 0.00333678 -5.75097e-14)
(1.46935 0.00290254 -5.5939e-14)
(1.44907 0.00147743 -5.58168e-14)
(1.37698 0.00121174 1.82376e-14)
(0.546411 -0.0182999 2.21548e-13)
(0.374458 0.0398798 1.31112e-13)
(0.314097 0.0830179 6.50665e-14)
(0.268573 0.0661762 2.00378e-14)
(0.2437 0.0354521 -1.22884e-14)
(0.229134 0.0133103 -5.31774e-14)
(0.224776 0.00409456 -5.92911e-14)
(0.224929 0.00185678 -7.11097e-14)
(0.226795 0.00193413 -8.1371e-14)
(0.230169 0.00135275 -7.66431e-14)
(0.235002 0.0010332 -8.24551e-14)
(0.241011 8.30077e-06 -9.5951e-14)
(0.248305 -0.00127325 -4.39178e-14)
(0.255736 -0.00373144 -6.41158e-14)
(0.263789 -0.00763028 -1.35004e-13)
(0.268763 -0.0157713 -1.76903e-14)
(0.276045 -0.0178879 -7.23846e-14)
(0.281615 -0.0165853 -5.68952e-14)
(0.286237 -0.015643 -1.32115e-13)
(0.290513 -0.0150924 -1.2241e-14)
(0.29444 -0.0146956 -8.75621e-15)
(0.298089 -0.0138763 -1.45737e-13)
(0.301691 -0.0131805 -7.03501e-14)
(0.305632 -0.0143053 -3.45919e-14)
(0.311216 -0.0181587 -2.35929e-14)
(0.321603 -0.0177372 -3.02519e-14)
(0.334538 -0.0131776 -1.08946e-13)
(0.348683 -0.010331 -1.00905e-13)
(0.362846 -0.00913611 -9.5057e-14)
(0.376054 -0.00866074 -9.42952e-15)
(0.387712 -0.00756203 -5.08168e-14)
(0.396923 -0.00851311 1.38969e-14)
(0.403636 -0.00635972 -2.14394e-14)
(0.408391 -0.00524892 -6.44638e-14)
(0.411333 -0.00441106 -4.22357e-14)
(0.412583 -0.00427326 -4.22131e-14)
(0.412692 -0.00506133 -3.57317e-14)
(0.410904 -0.00590368 -1.45119e-13)
(0.406244 -0.004017 4.13911e-13)
(0.398756 -0.000570611 -9.50784e-13)
(0.390062 0.00501499 1.3454e-12)
(0.379083 0.00942101 -1.23989e-12)
(0.368434 0.0135453 7.95515e-13)
(0.358008 0.0156712 -4.32846e-13)
(0.348001 0.017009 -9.18049e-14)
(0.337335 0.0170073 1.29842e-13)
(0.32613 0.0160809 -7.14966e-13)
(0.314715 0.0161635 9.97706e-13)
(0.302979 0.0168404 -1.47284e-12)
(0.290593 0.0193532 2.09849e-12)
(0.277237 0.0235569 -2.61632e-12)
(0.263623 0.0295457 2.34855e-12)
(0.249453 0.0365603 -2.04973e-12)
(0.235158 0.0442116 1.46198e-12)
(0.220513 0.0476056 -1.39166e-12)
(0.209371 0.0506228 1.23065e-12)
(0.199016 0.0477162 -7.2519e-13)
(0.18866 0.0453174 -8.80159e-13)
(0.176095 0.0448571 8.37965e-13)
(0.163222 0.0383548 -2.8663e-12)
(0.148483 0.03655 9.36412e-12)
(0.134234 0.0316622 -1.46992e-11)
(0.120859 0.0285893 1.9789e-11)
(0.107993 0.0291058 -1.5883e-11)
(0.0964346 0.0243623 -2.20828e-12)
(0.0852624 0.0245129 3.1027e-11)
(0.0767521 0.0215502 -3.49309e-11)
(0.0716803 0.0165503 -3.05689e-12)
(0.0680005 0.0126501 1.94437e-11)
(0.0662617 0.0102447 1.21543e-13)
(0.065658 0.00882655 -6.72947e-12)
(0.0648954 0.00841463 -4.92383e-12)
(0.0631752 0.0102066 2.31596e-13)
(0.0578626 0.011913 3.22376e-12)
(0.0504954 0.0155289 7.38849e-12)
(0.0412578 0.0173377 -6.52393e-12)
(0.0336074 0.0228883 -4.13559e-11)
(0.0247075 0.0233809 -2.56648e-11)
(0.0180054 0.0274143 -3.96533e-11)
(0.0118211 0.0322024 -1.47161e-11)
(0.00916567 0.0394462 9.35575e-12)
(0.00345431 0.0451805 2.50321e-12)
(0.00248819 0.0548648 4.92574e-13)
(-0.00277435 0.0600928 -3.04793e-13)
(-0.000151015 0.0737795 1.32161e-13)
(0.00210217 0.0786405 4.76659e-14)
(0.00457866 0.0778077 -1.85462e-14)
(0.00283341 0.0499687 -4.40548e-14)
(0.00566025 0.149799 -4.2382e-14)
(1.31 -0.045336 -3.42798e-14)
(1.57719 -0.0226755 3.11739e-14)
(1.71332 0.00335238 3.00123e-14)
(1.58569 0.0147471 5.693e-15)
(1.5135 0.0181948 -9.07147e-15)
(1.37908 0.0212831 -4.26844e-14)
(1.29032 0.00873643 -7.23085e-14)
(1.33687 -0.0179887 -8.46501e-14)
(1.39047 -0.0215255 -8.22686e-14)
(1.45596 -0.0198734 -6.58646e-14)
(1.5626 -0.01197 -4.52974e-14)
(1.59563 0.00023753 -2.2539e-14)
(1.5529 0.00688612 -2.24034e-14)
(1.47236 0.0128777 -2.63606e-14)
(1.36272 0.0111766 -3.82041e-14)
(1.2599 0.00794372 -5.77502e-14)
(1.21629 -0.0042407 -6.37668e-14)
(1.3099 -0.0196854 -5.58726e-14)
(1.36519 -0.0206012 -4.82328e-14)
(1.48547 -0.0159153 -3.798e-14)
(1.57176 -0.0063698 -2.43989e-14)
(1.62086 -0.00140189 -1.66624e-14)
(1.54068 0.00380724 -2.03765e-14)
(1.46473 0.00718213 -2.54039e-14)
(1.4091 0.00809395 -2.96368e-14)
(1.3773 0.00610617 -3.82018e-14)
(1.37361 0.000995678 -4.23433e-14)
(1.42278 -0.00419899 -4.01861e-14)
(1.42998 -0.0060136 -4.09559e-14)
(1.43555 0.014117 1.86744e-14)
(0.726861 0.0617362 1.95427e-13)
(0.489454 0.0780476 1.17367e-13)
(0.403601 0.112165 6.72308e-14)
(0.349958 0.0912254 3.50595e-14)
(0.329214 0.0512135 1.421e-14)
(0.317163 0.0228648 -1.06951e-14)
(0.313317 0.00938253 -1.90399e-14)
(0.312304 0.00366367 3.91977e-15)
(0.309714 0.00210024 -6.73858e-14)
(0.307083 0.000182026 -5.05707e-14)
(0.3041 -0.00185892 -4.38193e-15)
(0.302009 -0.00449955 -7.66e-14)
(0.299701 -0.00698631 -7.86517e-14)
(0.297852 -0.0102987 -3.48643e-14)
(0.295148 -0.0146789 -8.98122e-14)
(0.294545 -0.0215424 1.7695e-14)
(0.291672 -0.0233899 -8.74754e-14)
(0.289974 -0.0242644 -2.81005e-14)
(0.290275 -0.025883 -1.2181e-13)
(0.293013 -0.027345 -7.25273e-14)
(0.297483 -0.0283505 6.53781e-14)
(0.303529 -0.0281526 -1.87007e-13)
(0.311335 -0.0282834 2.43201e-14)
(0.320541 -0.0298694 -1.10427e-13)
(0.329243 -0.0335836 4.45595e-14)
(0.336888 -0.0387912 2.89153e-14)
(0.346488 -0.0378608 -9.12421e-14)
(0.356852 -0.0358694 -1.48228e-13)
(0.367613 -0.0341931 -1.72057e-13)
(0.377426 -0.0295289 5.02716e-14)
(0.387124 -0.0241259 -2.78199e-14)
(0.395008 -0.0178619 8.23016e-14)
(0.401462 -0.0144928 -8.91617e-14)
(0.407003 -0.0117385 1.76185e-14)
(0.411424 -0.00838913 -3.18837e-14)
(0.416158 -0.00572041 -4.91635e-14)
(0.419572 -0.000837725 -6.72183e-14)
(0.422129 0.00570575 -9.48254e-14)
(0.422039 0.0130957 -6.61526e-14)
(0.421615 0.0211703 -2.0142e-13)
(0.419441 0.0297488 1.78791e-13)
(0.415965 0.0323279 -3.70396e-14)
(0.411256 0.0311947 1.08267e-13)
(0.406246 0.0287094 -1.53874e-13)
(0.398961 0.0291007 1.44965e-13)
(0.389185 0.0289411 -6.18829e-13)
(0.376548 0.0283274 6.8517e-13)
(0.362551 0.0293645 -1.08459e-12)
(0.347572 0.0309932 1.12163e-12)
(0.33288 0.0369831 -6.28273e-13)
(0.31708 0.0441343 -2.73239e-13)
(0.300551 0.0508701 1.88549e-12)
(0.284227 0.0591805 -3.50105e-12)
(0.267235 0.0657736 5.84979e-12)
(0.250345 0.0681586 -7.97953e-12)
(0.23436 0.0707524 9.09948e-12)
(0.21783 0.067456 -1.17269e-11)
(0.201671 0.0651312 1.19771e-11)
(0.18502 0.0663883 -9.78084e-12)
(0.168846 0.0579088 1.03348e-11)
(0.151125 0.0557603 -8.52005e-12)
(0.135537 0.0476686 7.75382e-12)
(0.120272 0.0432379 -3.79738e-12)
(0.1061 0.0423079 -2.69948e-12)
(0.093537 0.0359334 1.0819e-11)
(0.0806806 0.0348181 -3.21977e-11)
(0.0711748 0.0277461 4.3542e-11)
(0.0650991 0.020373 -1.63729e-11)
(0.0605619 0.0158331 -3.08645e-11)
(0.058447 0.01244 2.51301e-11)
(0.0570558 0.0105725 1.02251e-11)
(0.0546872 0.0110155 2.44591e-12)
(0.0522744 0.0150997 -9.55858e-12)
(0.0455154 0.0186305 -1.39557e-11)
(0.03706 0.0234738 -1.45846e-11)
(0.0267372 0.0245035 3.37442e-11)
(0.0177868 0.0295736 1.25455e-10)
(0.00809777 0.0292529 6.61834e-11)
(0.00121518 0.0343731 5.60656e-11)
(-0.00621586 0.0367983 3.52793e-11)
(-0.00877683 0.0441485 4.16615e-12)
(-0.0140092 0.0482518 -3.50874e-12)
(-0.013561 0.0581571 -2.09519e-12)
(-0.0161306 0.0602401 1.91408e-14)
(-0.0134566 0.0695052 -4.31839e-14)
(-0.00896734 0.0746645 -1.70896e-14)
(-0.00257694 0.0713608 -3.78187e-14)
(-0.00194919 0.0503694 -4.56235e-14)
(0.00273243 0.145668 -4.13361e-14)
(1.67509 -0.0119794 1.44031e-14)
(1.35972 -0.00728157 -3.39042e-14)
(1.24268 -0.00210715 -4.66335e-14)
(1.32884 0.0130046 -3.60744e-14)
(1.3984 0.00621967 -1.11634e-14)
(1.52841 0.010044 7.39339e-15)
(1.62811 0.00765876 1.71687e-14)
(1.63475 0.00153702 1.59179e-14)
(1.60145 -0.000371905 9.01824e-15)
(1.47596 -0.00396043 1.145e-15)
(1.37284 0.00139986 -1.01293e-14)
(1.29372 0.00184294 -2.26351e-14)
(1.26946 -0.00162798 -3.02138e-14)
(1.32742 0.00357542 -3.2736e-14)
(1.40532 -0.00222293 -2.47661e-14)
(1.52438 0.00252045 -1.50351e-14)
(1.55821 0.00322887 -1.06068e-14)
(1.53948 0.000853829 -1.0013e-14)
(1.42376 -0.000297792 -1.27356e-14)
(1.35067 0.00193099 -1.71799e-14)
(1.28443 0.00720625 -2.59187e-14)
(1.2471 0.00132578 -2.89353e-14)
(1.33016 -0.00319554 -2.9758e-14)
(1.38779 0.00323611 -2.8811e-14)
(1.46724 0.000322606 -2.53203e-14)
(1.50921 0.00261239 -2.44137e-14)
(1.50205 0.00319994 -1.84648e-14)
(1.47652 0.00223895 -1.97251e-14)
(1.43755 0.00320455 -1.50455e-14)
(1.41497 0.0302327 3.38452e-14)
(0.746797 0.134231 1.42196e-13)
(0.484589 0.152319 9.12393e-14)
(0.361641 0.161639 6.1702e-14)
(0.298292 0.117822 3.78596e-14)
(0.277955 0.0660569 7.87242e-15)
(0.266008 0.0318253 -1.67406e-14)
(0.263545 0.0150191 -1.42058e-14)
(0.263023 0.00797392 -2.90316e-14)
(0.266247 0.00510191 -7.75185e-14)
(0.269795 0.00202918 -2.77461e-14)
(0.273871 -0.00131433 1.14305e-14)
(0.278156 -0.00454428 -8.38809e-14)
(0.282745 -0.00727982 -8.47527e-14)
(0.286707 -0.010522 3.4277e-14)
(0.289954 -0.0148423 -1.33272e-13)
(0.291854 -0.0239073 1.23521e-13)
(0.297425 -0.0283166 -2.59117e-13)
(0.302856 -0.0317866 9.53555e-14)
(0.309654 -0.0337612 -1.1398e-13)
(0.317494 -0.0363606 -2.55827e-13)
(0.326946 -0.0397173 3.21155e-13)
(0.338749 -0.0417984 -3.16602e-13)
(0.352403 -0.0449033 2.83944e-13)
(0.367196 -0.0443738 -3.50871e-13)
(0.381327 -0.0457926 -2.1046e-13)
(0.39438 -0.0456116 2.40479e-13)
(0.405963 -0.0441895 3.27435e-13)
(0.417217 -0.0431607 1.29959e-14)
(0.428317 -0.0432924 -4.85044e-13)
(0.438862 -0.0399468 -1.59544e-13)
(0.449329 -0.0367538 -1.18195e-13)
(0.458575 -0.0317482 3.71998e-13)
(0.467319 -0.0295894 -2.2413e-13)
(0.473903 -0.027738 1.21046e-13)
(0.478455 -0.025604 -2.54144e-14)
(0.481401 -0.0236558 2.12852e-13)
(0.482284 -0.0192823 -1.96789e-13)
(0.483459 -0.0135227 1.55003e-13)
(0.48434 -0.00609333 -4.00228e-13)
(0.487118 0.00137628 1.5591e-13)
(0.489194 0.00963618 -2.12156e-13)
(0.494401 0.015615 2.276e-13)
(0.49574 0.0234631 -1.83986e-13)
(0.492373 0.0304612 4.60048e-13)
(0.486209 0.0382494 3.97516e-13)
(0.474934 0.0437144 -9.64003e-13)
(0.460928 0.0475812 1.3769e-12)
(0.444388 0.0517431 -3.94692e-12)
(0.425968 0.052731 5.14118e-12)
(0.40803 0.0579144 -7.56583e-12)
(0.390158 0.0646702 1.04836e-11)
(0.371719 0.0695705 -9.85647e-12)
(0.354749 0.0792329 8.65412e-12)
(0.335656 0.0856425 -7.10748e-12)
(0.315601 0.0876474 1.2619e-12)
(0.295438 0.0909064 1.18352e-12)
(0.273175 0.0875975 -9.19286e-12)
(0.250247 0.0834297 2.314e-11)
(0.227168 0.083024 -2.21001e-11)
(0.205775 0.0718982 2.34529e-11)
(0.182231 0.0707761 -1.21964e-11)
(0.161081 0.060423 -4.94157e-12)
(0.140016 0.0553506 4.78607e-12)
(0.120821 0.0539752 -3.05859e-12)
(0.10369 0.0469295 -3.11915e-11)
(0.0872404 0.0447941 6.38823e-11)
(0.0745457 0.0353248 -6.72121e-11)
(0.0656151 0.0267547 2.36756e-11)
(0.0594262 0.021551 3.8549e-11)
(0.0568824 0.0166453 -4.14735e-11)
(0.0555921 0.0145258 -1.20843e-11)
(0.0533499 0.0148424 -3.51363e-12)
(0.051842 0.0215859 2.20361e-11)
(0.0446069 0.0277987 2.6078e-11)
(0.0362296 0.0340384 3.31674e-12)
(0.0253 0.0353317 -6.18724e-11)
(0.0157288 0.040641 -2.32183e-10)
(0.00531129 0.0400677 -1.4404e-10)
(-0.00217681 0.046226 -4.39719e-11)
(-0.00990892 0.0453653 -6.15561e-11)
(-0.0130517 0.0530204 -1.96581e-11)
(-0.0169518 0.0528337 6.59165e-12)
(-0.0168354 0.0610225 4.40081e-12)
(-0.0174427 0.0599666 1.81856e-13)
(-0.0166102 0.0659035 4.4146e-14)
(-0.0119262 0.0677227 -1.62618e-14)
(-0.00529502 0.0643636 -3.94209e-14)
(-0.00420977 0.0491377 -4.38616e-14)
(0.00192552 0.138757 -4.02484e-14)
(1.26083 -0.0516184 -1.32051e-14)
(1.60299 -0.0258825 1.50341e-14)
(1.72981 0.000207542 2.03896e-14)
(1.66715 0.0144467 8.36875e-15)
(1.53931 0.0153755 2.71458e-15)
(1.39216 0.0198746 -1.10944e-14)
(1.27508 0.0137187 -2.54541e-14)
(1.30782 -0.00463013 -3.13807e-14)
(1.37538 -0.0221115 -3.00877e-14)
(1.44097 -0.0274739 -2.3993e-14)
(1.56175 -0.019786 -1.50855e-14)
(1.61011 -0.00414641 -5.70052e-15)
(1.59143 0.00578548 -4.16535e-15)
(1.50463 0.0113673 -5.88936e-15)
(1.37096 0.00775455 -1.03797e-14)
(1.25237 0.0107221 -1.78292e-14)
(1.19013 0.00203889 -2.23409e-14)
(1.27014 -0.0208658 -1.8332e-14)
(1.34107 -0.0219284 -1.51096e-14)
(1.45264 -0.0250479 -1.02026e-14)
(1.56874 -0.0290151 -5.46986e-15)
(1.63645 -0.0100144 -1.6919e-15)
(1.58361 -0.00319731 -1.95762e-15)
(1.50686 0.00515451 -3.64429e-15)
(1.4319 0.0054055 -4.49309e-15)
(1.38223 0.00630975 -1.00644e-14)
(1.35134 0.00475613 -1.01442e-14)
(1.40543 -0.00666225 -9.46611e-15)
(1.41471 -0.0105923 -5.46758e-15)
(1.42483 0.0263138 3.0569e-14)
(0.846759 0.210498 8.17595e-14)
(0.523681 0.246482 8.55165e-14)
(0.381429 0.227074 5.75437e-14)
(0.320178 0.152087 2.66172e-14)
(0.296346 0.0840854 5.04629e-14)
(0.283171 0.0406124 -1.66145e-14)
(0.278941 0.0171207 -1.04159e-15)
(0.27928 0.00219142 1.63288e-14)
(0.281944 -0.00549632 -3.3274e-14)
(0.287123 -0.0117093 -1.21802e-14)
(0.293391 -0.0173129 -2.13206e-13)
(0.301695 -0.0218075 5.63571e-14)
(0.31 -0.0258483 7.73706e-14)
(0.318842 -0.0300145 -2.2558e-14)
(0.327962 -0.0335922 -5.58201e-14)
(0.334053 -0.0451793 -1.84293e-13)
(0.349609 -0.0481196 3.17409e-13)
(0.364286 -0.0524415 -3.82858e-13)
(0.379054 -0.0578804 1.60918e-13)
(0.395507 -0.0615127 -1.52415e-13)
(0.412311 -0.065798 1.60528e-13)
(0.429812 -0.0679597 -1.59313e-13)
(0.446978 -0.0702367 1.36302e-13)
(0.463879 -0.0687154 -1.09016e-13)
(0.480389 -0.06714 -2.72916e-13)
(0.49586 -0.0645444 1.51248e-13)
(0.510816 -0.0608567 7.57261e-15)
(0.525568 -0.0574403 -6.23785e-15)
(0.539528 -0.0535136 -2.58311e-13)
(0.551581 -0.0463736 2.48605e-13)
(0.564448 -0.0397611 -5.03755e-14)
(0.574482 -0.0291107 3.42578e-13)
(0.587349 -0.0222492 -9.52444e-14)
(0.598156 -0.0156361 -6.2137e-15)
(0.607783 -0.0103362 -1.24361e-13)
(0.616085 -0.00517505 -1.86383e-13)
(0.620234 0.00165791 -1.3346e-13)
(0.624844 0.00763457 -5.5951e-14)
(0.626726 0.0156829 -7.88522e-14)
(0.629112 0.0223629 1.6273e-13)
(0.630131 0.0296918 -5.4534e-13)
(0.628809 0.0345977 4.79535e-13)
(0.626772 0.0407639 -5.74922e-13)
(0.621029 0.0454821 1.2619e-12)
(0.614581 0.0521369 -9.75443e-13)
(0.603544 0.0577628 1.68115e-12)
(0.589178 0.0624374 -3.57462e-13)
(0.573131 0.0679857 7.94057e-13)
(0.551342 0.073385 1.91865e-12)
(0.528327 0.0824413 -8.51976e-12)
(0.504584 0.0938911 1.3808e-11)
(0.478988 0.0988406 -2.47161e-11)
(0.457507 0.111214 3.41595e-11)
(0.434806 0.11889 -4.23465e-11)
(0.411004 0.119105 4.80098e-11)
(0.38724 0.124946 -5.06735e-11)
(0.359662 0.12306 6.29235e-11)
(0.32746 0.117648 -6.41974e-11)
(0.293673 0.11774 5.19462e-11)
(0.261258 0.103813 -1.92086e-11)
(0.226819 0.102799 -4.37643e-11)
(0.196264 0.0883669 7.39427e-11)
(0.168099 0.0788241 -6.20375e-11)
(0.14149 0.0752875 -1.65534e-11)
(0.119028 0.0645979 1.14658e-10)
(0.097993 0.0596129 -1.20877e-10)
(0.0818584 0.046468 1.22453e-10)
(0.0708502 0.0341136 -5.52841e-11)
(0.0628163 0.0272764 -1.15864e-10)
(0.0591392 0.0206528 5.58329e-11)
(0.0568867 0.018285 9.60335e-12)
(0.0556865 0.017889 -2.02192e-11)
(0.0547842 0.0268038 -7.15296e-11)
(0.0501425 0.0352921 -1.10106e-10)
(0.0435442 0.0427909 -6.63644e-12)
(0.0327006 0.0450111 2.31888e-11)
(0.0228085 0.0511408 2.93724e-10)
(0.011596 0.0508029 2.52877e-10)
(0.00339699 0.0578953 2.57776e-11)
(-0.00466669 0.0538705 8.98883e-11)
(-0.00926858 0.0615483 4.02221e-11)
(-0.0127545 0.0573248 -2.58849e-11)
(-0.0143525 0.0638743 -2.23452e-11)
(-0.0159488 0.0597172 -3.97375e-12)
(-0.0145675 0.0645799 -1.00491e-12)
(-0.0121544 0.0618783 -6.74369e-14)
(-0.00716734 0.0595006 -4.87446e-14)
(-0.00590261 0.0486641 -4.14671e-14)
(0.00131874 0.130284 -3.89703e-14)
(1.75337 -0.0111561 8.01938e-15)
(1.35987 -0.00591255 -1.17383e-14)
(1.23543 -0.00457198 -1.75272e-14)
(1.30461 0.0118298 -1.43444e-14)
(1.37588 0.0019565 -4.08455e-15)
(1.52382 0.00844679 3.89869e-15)
(1.65063 0.00788623 8.52132e-15)
(1.66333 0.00971613 8.57022e-15)
(1.6194 0.00415603 6.12671e-15)
(1.49777 -0.004981 3.1037e-15)
(1.39676 -0.00385157 -6.3815e-16)
(1.29755 -0.00113099 -5.56969e-15)
(1.24861 -0.00569334 -8.57058e-15)
(1.31091 -0.00213407 -8.89059e-15)
(1.38491 -0.00744349 -6.02506e-15)
(1.53969 0.00267606 -2.23455e-15)
(1.59671 0.00562176 -3.15059e-16)
(1.58412 0.00469109 1.78062e-16)
(1.48989 -0.0028254 -5.98791e-16)
(1.41021 -0.0029399 -1.60612e-15)
(1.33252 -0.000496135 -3.14675e-15)
(1.28723 0.00120935 -4.56056e-15)
(1.30982 -0.00443939 -4.67285e-15)
(1.38306 -0.000200042 -5.47943e-15)
(1.45242 -0.0038681 -5.1705e-15)
(1.51565 -0.00357083 -3.06299e-15)
(1.55333 0.00309594 -2.32644e-15)
(1.53956 -0.0050391 -1.46955e-15)