/*--------------------------------*- C++ -*----------------------------------*\
| =========                 |                                                 |
| \\      /  F ield         | OpenFOAM: The Open Source CFD Toolbox           |
|  \\    /   O peration     | Version:  2.2.x                                 |
|   \\  /    A nd           | Web:      www.OpenFOAM.org                      |
|    \\/     M anipulation  |                                                 |
\*---------------------------------------------------------------------------*/
FoamFile
{
    version     2.0;
    format      ascii;
    class       volVectorField;
    location    "0.05";
    object      U;
}
// * * * * * * * * * * * * * * * * * * * * * * * * * * * * * * * * * * * * * //

dimensions      [0 1 -1 0 0 0 0];

internalField   nonuniform List<vector> 
14161
(
(1.5 -1.0809e-16 2.16146e-23)
(1.5 3.08933e-16 -9.50259e-23)
(1.5 5.74713e-16 -9.77831e-23)
(1.5 4.75193e-17 -1.42861e-22)
(1.5 -3.91035e-16 3.10027e-23)
(1.5 -6.43295e-16 -2.35827e-22)
(1.5 -7.8688e-16 5.04891e-23)
(1.5 -2.83974e-16 -1.79536e-22)
(1.5 -1.80791e-16 6.39428e-23)
(1.5 3.18699e-16 -1.26142e-22)
(1.5 4.24843e-16 -1.27292e-22)
(1.5 -4.53088e-17 -9.77722e-24)
(1.5 -2.25836e-16 -2.56623e-22)
(1.5 1.28701e-16 -1.44844e-23)
(1.5 -1.02007e-16 -1.27218e-22)
(1.5 8.32014e-16 -8.37745e-23)
(1.5 1.01762e-15 -1.42991e-22)
(1.5 9.02929e-16 -1.11726e-22)
(1.5 -1.02913e-16 -6.86008e-23)
(1.5 -7.1715e-16 -1.10397e-22)
(1.5 5.46084e-17 -1.26159e-22)
(1.5 4.29022e-16 -2.89361e-23)
(1.5 1.66603e-16 -9.38792e-23)
(1.5 1.09855e-16 -6.04689e-23)
(1.5 -3.43873e-16 -1.86912e-22)
(1.5 -4.80845e-16 -1.65749e-22)
(1.5 -8.60727e-16 -1.70364e-22)
(1.5 -8.78016e-18 -1.72618e-22)
(1.5 -6.36652e-17 -1.56729e-22)
(1.5 -5.10714e-16 -1.76175e-22)
(1.5 1.1657e-16 -1.29659e-22)
(1.5 3.71975e-16 -1.42812e-22)
(1.5 6.20699e-16 -1.24774e-22)
(1.5 3.10282e-16 -1.32594e-22)
(1.5 4.11855e-16 -1.13018e-22)
(1.5 3.44527e-16 -1.2678e-22)
(1.5 1.15372e-16 -1.20074e-22)
(1.5 -1.10754e-16 -1.18269e-22)
(1.5 -1.64781e-16 -1.21663e-22)
(1.5 -4.85093e-16 -1.13135e-22)
(1.5 -5.65554e-16 -1.13132e-22)
(1.5 -6.10216e-16 -1.00578e-22)
(1.5 -3.58435e-16 -1.00677e-22)
(1.5 -1.27484e-16 -5.57155e-23)
(1.5 -2.00659e-16 -1.12116e-22)
(1.5 -3.36561e-16 1.54893e-23)
(1.5 -5.54696e-16 -3.86481e-23)
(1.5 -8.71627e-16 2.61434e-23)
(1.5 -9.11006e-16 2.63298e-22)
(1.5 -8.76955e-16 2.14082e-22)
(1.5 -4.22737e-16 2.81937e-22)
(1.5 1.29281e-16 2.65758e-22)
(1.5 5.16068e-16 4.01618e-22)
(1.5 2.48938e-16 4.59888e-22)
(1.5 1.60686e-16 4.40201e-22)
(1.5 3.88905e-16 4.21989e-22)
(1.5 8.49408e-16 4.02587e-22)
(1.5 6.34576e-16 4.24235e-22)
(1.5 4.69518e-16 3.96855e-22)
(1.5 2.99598e-16 4.25024e-22)
(1.5 2.68044e-16 4.19834e-22)
(1.5 1.60003e-16 4.37839e-22)
(1.5 -4.14119e-17 2.53679e-22)
(1.5 -1.57053e-16 2.53073e-22)
(1.5 -4.95627e-16 2.69359e-22)
(1.5 -6.9167e-16 1.57597e-22)
(1.5 -6.88201e-16 1.59082e-22)
(1.5 -6.73867e-16 1.56048e-22)
(1.5 -6.84621e-16 1.82932e-22)
(1.5 -8.23794e-16 1.38587e-22)
(1.5 -1.2366e-15 1.42604e-22)
(1.5 -1.11358e-15 1.97525e-22)
(1.5 -9.04244e-16 2.77329e-22)
(1.5 -7.51311e-16 1.88331e-22)
(1.5 -4.3496e-16 2.8161e-22)
(1.5 -2.97069e-17 2.3493e-22)
(1.5 3.50313e-16 2.41154e-22)
(1.5 7.8896e-16 2.51498e-22)
(1.5 2.01035e-16 2.46714e-22)
(1.5 -2.39501e-16 3.05433e-22)
(1.5 -5.21111e-16 3.22769e-22)
(1.5 -7.73095e-16 2.67411e-22)
(1.5 -1.0512e-15 2.82221e-22)
(1.5 -1.10505e-15 2.83238e-22)
(1.5 -6.69556e-16 2.89727e-22)
(1.5 -4.89546e-16 2.4178e-22)
(1.5 -3.60484e-16 1.49743e-22)
(1.5 -1.3225e-16 3.32651e-22)
(1.5 1.67075e-16 2.27552e-24)
(1.5 4.2012e-16 2.20363e-22)
(1.5 1.00002e-15 1.82155e-22)
(1.5 9.38047e-16 3.0313e-22)
(1.5 5.69033e-16 1.2528e-22)
(1.5 3.04481e-16 2.23615e-22)
(1.5 -4.61652e-17 2.14629e-22)
(1.5 -2.45428e-16 2.14778e-22)
(1.5 -2.20074e-16 2.2649e-22)
(1.5 -3.9985e-16 2.26599e-22)
(1.5 -2.15962e-16 2.25185e-22)
(0.93743 0.00237182 -2.70789e-22)
(0.295781 0.00493032 1.53654e-21)
(0.195648 0.00510719 2.39083e-21)
(0.18649 0.00510913 -2.32606e-21)
(0.176684 0.00515047 1.40433e-21)
(0.165695 0.00523242 -5.71725e-21)
(0.155255 0.00534091 1.19921e-20)
(0.145963 0.00546221 -7.26127e-21)
(0.136336 0.00560027 -2.09692e-20)
(0.125574 0.0057796 -1.32137e-22)
(0.114501 0.00597134 -6.54477e-21)
(0.103604 0.00618779 1.99887e-20)
(0.0926462 0.00642863 -1.78004e-20)
(0.0812265 0.00662909 2.49387e-20)
(0.0693078 0.00693945 -6.77432e-20)
(0.0573329 0.00699884 1.18317e-20)
(0.0456526 0.00705968 5.90847e-20)
(0.0336524 0.00760347 -1.27287e-19)
(0.0204675 0.00844376 -2.96248e-20)
(0.00915702 0.00871399 -9.14592e-22)
(1.5 1.40706e-17 -9.81242e-23)
(1.5 1.15784e-16 3.66506e-22)
(1.5 4.55293e-17 5.32888e-22)
(1.5 -5.79342e-16 2.99399e-22)
(1.5 -3.01334e-16 3.245e-22)
(1.5 -6.75867e-16 4.20095e-22)
(1.5 -8.76981e-16 3.46839e-22)
(1.5 -4.25402e-16 3.08376e-22)
(1.5 -4.55443e-17 4.33773e-22)
(1.5 8.86097e-16 3.08386e-22)
(1.5 4.92222e-16 3.24619e-22)
(1.5 -4.37225e-16 2.93308e-22)
(1.5 -8.24621e-17 4.03361e-22)
(1.5 3.24664e-16 3.21956e-23)
(1.5 3.38865e-16 -2.0817e-22)
(1.5 1.29077e-15 -1.82737e-22)
(1.5 1.62171e-15 -1.81654e-22)
(1.5 1.97752e-15 -4.59802e-22)
(1.5 2.35508e-16 -4.41015e-22)
(1.5 -8.81364e-16 -7.70004e-22)
(1.5 -6.66983e-17 -7.0213e-22)
(1.5 6.34503e-16 -6.8624e-22)
(1.5 5.53043e-16 -9.18224e-22)
(1.5 3.31668e-16 -1.00236e-21)
(1.5 2.91347e-17 -7.98216e-22)
(1.5 -3.55081e-16 -7.55377e-22)
(1.5 -6.93163e-16 -8.50731e-22)
(1.5 1.70946e-17 -7.90346e-22)
(1.5 5.10492e-16 -1.02553e-21)
(1.5 -6.01643e-16 -7.07234e-22)
(1.5 2.97554e-16 -9.67723e-22)
(1.5 5.44997e-16 -8.67493e-22)
(1.5 7.7851e-16 -8.7157e-22)
(1.5 5.53394e-16 -9.17544e-22)
(1.5 1.32879e-16 -9.26366e-22)
(1.5 2.78322e-16 -8.52297e-22)
(1.5 -1.81696e-16 -9.08456e-22)
(1.5 -9.29337e-16 -8.64742e-22)
(1.5 -9.46047e-16 -8.58677e-22)
(1.5 -6.33014e-16 -8.15801e-22)
(1.5 -6.15086e-16 -8.36857e-22)
(1.5 -7.79641e-16 -8.12664e-22)
(1.5 -5.77935e-16 -7.91795e-22)
(1.5 -3.42594e-16 -8.00361e-22)
(1.5 -4.64592e-16 -7.57123e-22)
(1.5 -7.80934e-16 -9.35184e-22)
(1.5 -9.46201e-16 -6.61222e-22)
(1.5 -9.31279e-16 -6.18981e-22)
(1.5 -1.03283e-15 -9.5249e-22)
(1.5 -9.17495e-16 -9.44138e-22)
(1.5 -2.37473e-16 -1.00846e-21)
(1.5 6.32527e-16 -1.19275e-21)
(1.5 7.93536e-16 -1.3731e-21)
(1.5 7.19724e-16 -1.2381e-21)
(1.5 3.2061e-16 -1.28533e-21)
(1.5 3.87215e-16 -1.00115e-21)
(1.5 6.40308e-16 -9.41291e-22)
(1.5 4.96857e-16 -8.74935e-22)
(1.5 -3.44266e-17 -9.17447e-22)
(1.5 -3.83444e-16 -1.22803e-21)
(1.5 -1.51526e-16 -1.03021e-21)
(1.5 -5.46865e-18 -1.21694e-21)
(1.5 -9.68296e-18 -1.3841e-21)
(1.5 -1.64233e-16 -7.1604e-22)
(1.5 -8.85923e-16 -1.13035e-21)
(1.5 -1.18277e-15 -8.43378e-22)
(1.5 -1.19025e-15 -8.20519e-22)
(1.5 -1.17629e-15 -6.50832e-22)
(1.5 -1.19462e-15 -7.54514e-22)
(1.5 -1.32675e-15 -7.69476e-22)
(1.5 -1.99714e-15 -8.11e-22)
(1.5 -1.74832e-15 -7.46511e-22)
(1.5 -1.38824e-15 -7.58766e-22)
(1.5 -1.03338e-15 -7.27171e-22)
(1.5 -4.95043e-16 -6.81399e-22)
(1.5 1.33611e-16 -6.60096e-22)
(1.5 2.62427e-16 -6.79948e-22)
(1.5 4.49274e-16 -6.57332e-22)
(1.5 4.52123e-17 -6.87286e-22)
(1.5 -5.56923e-16 -4.93063e-22)
(1.5 -8.23741e-16 -6.18065e-22)
(1.5 -9.67551e-16 -6.21396e-22)
(1.5 -8.73131e-16 -4.32079e-22)
(1.5 -9.52414e-16 -3.59313e-22)
(1.5 -1.09048e-15 -7.16488e-22)
(1.5 -5.68007e-16 -1.71616e-22)
(1.5 -2.59326e-16 -6.44912e-22)
(1.5 5.93881e-16 -4.27484e-22)
(1.5 7.93114e-16 4.06301e-23)
(1.5 9.01875e-16 -2.03056e-22)
(1.5 1.00204e-15 -2.34087e-22)
(1.5 7.53064e-16 -1.67828e-22)
(1.5 6.63841e-16 -4.78246e-22)
(1.5 2.90145e-16 -5.96384e-22)
(1.5 -6.43597e-16 -1.06585e-22)
(1.5 -9.16769e-16 -3.02796e-22)
(1.5 -1.15381e-15 -2.681e-22)
(1.5 -1.43715e-15 -5.29138e-22)
(1.5 -9.73022e-16 -1.94747e-22)
(0.933566 0.00774002 6.21839e-22)
(0.295107 0.0150715 3.37297e-21)
(0.195867 0.0154542 -9.77151e-21)
(0.186822 0.0153713 -1.25108e-20)
(0.177122 0.0154973 1.36093e-20)
(0.166172 0.0157789 -1.25858e-20)
(0.155726 0.016124 7.53619e-21)
(0.146436 0.0164821 -3.38206e-21)
(0.136871 0.0168728 2.96522e-20)
(0.126189 0.0173948 3.62855e-20)
(0.115196 0.0179638 -2.27688e-20)
(0.104375 0.0186066 -2.86991e-20)
(0.0935119 0.0193148 5.22706e-20)
(0.0821861 0.019914 2.19381e-20)
(0.0703069 0.0208706 1.65395e-20)
(0.0583444 0.0210528 9.39479e-20)
(0.0466407 0.0213183 -1.15792e-19)
(0.0343047 0.0230206 3.87875e-20)
(0.0209479 0.025598 2.12817e-20)
(0.00942946 0.0262583 -1.59324e-20)
(1.5 9.19513e-17 3.5889e-22)
(1.5 -3.31843e-16 -2.72829e-22)
(1.5 -6.84333e-16 -3.1694e-22)
(1.5 -8.47129e-16 -3.20608e-22)
(1.5 -5.62001e-16 -2.17497e-22)
(1.5 -9.43176e-16 -2.7817e-22)
(1.5 -1.21069e-15 -2.49e-22)
(1.5 -1.60816e-15 -2.53311e-22)
(1.5 -6.56189e-16 -9.21185e-23)
(1.5 1.99895e-16 -1.98487e-22)
(1.5 2.69429e-16 4.54364e-22)
(1.5 -5.20115e-16 -3.836e-22)
(1.5 6.91009e-16 -2.60302e-22)
(1.5 1.0907e-16 -1.71396e-22)
(1.5 -3.29122e-16 1.696e-22)
(1.5 -5.07198e-16 7.5457e-23)
(1.5 1.35117e-16 2.7455e-22)
(1.5 1.64171e-15 -9.52309e-23)
(1.5 9.86079e-16 4.16043e-22)
(1.5 -1.17229e-16 2.59341e-22)
(1.5 -7.00819e-17 4.82961e-23)
(1.5 1.65892e-16 -3.91174e-22)
(1.5 5.04915e-17 -1.40563e-22)
(1.5 4.3991e-16 -3.20848e-22)
(1.5 3.75675e-16 -1.45029e-21)
(1.5 -3.02931e-16 -1.27952e-21)
(1.5 -1.95249e-16 -1.31039e-21)
(1.5 -9.96345e-17 -1.36502e-21)
(1.5 -3.07815e-16 -1.52816e-21)
(1.5 4.09227e-16 -1.09911e-21)
(1.5 1.015e-15 -1.16825e-21)
(1.5 1.56695e-15 -1.09919e-21)
(1.5 1.58471e-15 -1.20785e-21)
(1.5 1.23753e-15 -9.9179e-22)
(1.5 2.73359e-16 -1.22366e-21)
(1.5 4.44016e-17 -1.15432e-21)
(1.5 -1.44187e-16 -1.15692e-21)
(1.5 -2.53737e-16 -1.17556e-21)
(1.5 -4.46124e-16 -1.18086e-21)
(1.5 -3.31542e-16 -1.18094e-21)
(1.5 -1.97987e-16 -1.2038e-21)
(1.5 -3.74034e-16 -1.14922e-21)
(1.5 -4.80589e-16 -1.20537e-21)
(1.5 -5.7908e-16 -1.19703e-21)
(1.5 -7.82699e-16 -1.20247e-21)
(1.5 -8.19768e-16 -8.46201e-22)
(1.5 -6.55245e-16 -6.8796e-22)
(1.5 -5.57464e-16 -3.13799e-22)
(1.5 -3.42821e-16 -1.10719e-22)
(1.5 6.21954e-16 5.49913e-23)
(1.5 4.51142e-16 -1.55265e-22)
(1.5 1.80144e-16 8.91255e-23)
(1.5 5.65495e-16 8.09035e-23)
(1.5 7.96762e-16 2.53624e-23)
(1.5 9.09849e-16 2.25525e-22)
(1.5 7.63445e-16 -3.14245e-22)
(1.5 5.3107e-16 -2.11007e-22)
(1.5 3.72993e-16 -6.99857e-22)
(1.5 5.08271e-17 -5.75859e-22)
(1.5 1.91848e-16 -2.89811e-22)
(1.5 2.20161e-16 -9.31535e-22)
(1.5 2.04508e-16 -2.17704e-22)
(1.5 2.74562e-16 -1.1729e-22)
(1.5 -1.96709e-17 -7.24382e-22)
(1.5 -3.89114e-16 -6.41921e-22)
(1.5 -1.12356e-15 -5.73277e-22)
(1.5 -1.18417e-15 -5.46268e-22)
(1.5 -1.03622e-15 -3.50718e-22)
(1.5 -9.78295e-16 -1.70523e-22)
(1.5 -1.10373e-15 -8.50669e-23)
(1.5 -1.20212e-15 -2.18777e-22)
(1.5 -1.05203e-15 -1.11578e-22)
(1.5 -7.49731e-16 2.95145e-22)
(1.5 -6.32987e-16 9.37606e-23)
(1.5 -3.38474e-16 -6.34868e-24)
(1.5 -1.01074e-17 5.0708e-22)
(1.5 1.41522e-16 1.11845e-22)
(1.5 1.27821e-16 3.16295e-22)
(1.5 1.17932e-16 -5.98658e-23)
(1.5 6.02086e-17 7.36358e-22)
(1.5 -4.94342e-17 3.38862e-22)
(1.5 -2.37395e-16 3.96487e-22)
(1.5 -2.36679e-16 3.12501e-22)
(1.5 -4.62839e-16 7.31696e-22)
(1.5 -6.97779e-16 4.66165e-22)
(1.5 -3.33335e-16 -1.19813e-22)
(1.5 2.43151e-16 4.78283e-22)
(1.5 3.11595e-16 -3.30971e-22)
(1.5 2.92107e-16 -2.70316e-22)
(1.5 8.52285e-16 -6.59948e-23)
(1.5 7.89734e-16 -4.37625e-22)
(1.5 6.67896e-16 5.94253e-23)
(1.5 6.67947e-16 -3.9076e-22)
(1.5 7.89318e-16 3.56125e-22)
(1.5 6.62484e-16 2.22004e-22)
(1.5 -4.2718e-16 -3.41396e-22)
(1.5 -7.87173e-16 2.36525e-22)
(1.5 -5.24697e-16 1.14794e-22)
(1.5 -4.42769e-16 -2.05482e-22)
(0.923811 0.0126417 -2.99593e-22)
(0.293182 0.0248256 4.42124e-21)
(0.195814 0.0259436 3.35321e-21)
(0.186917 0.0258535 3.17519e-21)
(0.17735 0.0260667 3.79211e-21)
(0.166431 0.0265339 -2.78336e-21)
(0.155966 0.0271039 -4.29439e-20)
(0.146663 0.02769 4.66477e-20)
(0.137155 0.0283166 -1.10731e-19)
(0.126548 0.0291574 7.34462e-20)
(0.115596 0.0300895 -5.11485e-20)
(0.104794 0.0311542 1.57691e-19)
(0.0939653 0.0323199 -1.01229e-20)
(0.0826951 0.0333161 -2.42825e-20)
(0.0708396 0.0349247 1.25226e-19)
(0.0588825 0.0352615 -1.94698e-19)
(0.0471135 0.0359645 2.67487e-19)
(0.0345653 0.0385067 2.39974e-19)
(0.021581 0.0429507 8.01161e-21)
(0.010167 0.0436825 9.07329e-20)
(1.5 9.36979e-17 -2.5539e-22)
(1.5 -2.27067e-16 3.31599e-25)
(1.5 -9.49673e-16 3.24305e-22)
(1.5 -7.48062e-16 3.70272e-22)
(1.5 -4.57959e-16 -7.0817e-24)
(1.5 -8.05959e-16 -5.65244e-22)
(1.5 -8.60079e-16 -5.10596e-22)
(1.5 -1.0905e-15 -5.21528e-22)
(1.5 -7.709e-16 -4.89857e-22)
(1.5 -6.41236e-16 -5.0183e-22)
(1.5 -2.63094e-17 -8.58617e-22)
(1.5 3.36721e-16 -1.17826e-21)
(1.5 4.70899e-16 -1.06894e-21)
(1.5 2.31867e-16 -1.51964e-21)
(1.5 -4.53634e-16 -4.3213e-22)
(1.5 -1.42722e-15 -1.96106e-22)
(1.5 -1.46025e-15 -3.78612e-22)
(1.5 -4.88284e-16 4.9194e-22)
(1.5 3.6042e-16 -2.24455e-21)
(1.5 1.76211e-16 -8.44368e-22)
(1.5 -4.0104e-16 -1.21895e-22)
(1.5 -1.88957e-16 4.95923e-22)
(1.5 1.32389e-16 4.38992e-24)
(1.5 1.398e-15 5.16954e-22)
(1.5 1.47296e-15 8.92672e-22)
(1.5 5.96077e-16 2.57242e-22)
(1.5 3.73839e-16 6.70319e-22)
(1.5 3.71692e-16 1.63628e-21)
(1.5 2.25521e-16 1.53088e-21)
(1.5 1.26846e-15 1.03794e-21)
(1.5 1.9833e-15 1.07816e-21)
(1.5 2.43948e-15 1.08427e-21)
(1.5 2.10288e-15 1.11181e-21)
(1.5 1.72189e-15 1.08459e-21)
(1.5 9.67211e-16 1.23288e-21)
(1.5 3.55524e-17 1.31937e-21)
(1.5 -1.53038e-16 1.24516e-21)
(1.5 1.98059e-16 1.34861e-21)
(1.5 1.68959e-16 1.38954e-21)
(1.5 -2.09781e-16 1.36178e-21)
(1.5 -2.4065e-16 1.3706e-21)
(1.5 7.03063e-17 1.33533e-21)
(1.5 1.24033e-16 1.37564e-21)
(1.5 -1.2432e-16 1.3189e-21)
(1.5 -2.11578e-16 1.3454e-21)
(1.5 -2.30717e-16 8.93411e-22)
(1.5 -1.30513e-16 9.52233e-22)
(1.5 1.48321e-16 2.77639e-22)
(1.5 3.70726e-16 1.35239e-22)
(1.5 4.77028e-16 2.72494e-22)
(1.5 3.83888e-16 -9.75702e-23)
(1.5 2.40784e-16 3.06559e-22)
(1.5 1.80665e-16 -2.3197e-22)
(1.5 1.02889e-16 2.79773e-22)
(1.5 2.59292e-16 -1.67204e-22)
(1.5 1.55121e-16 9.26666e-22)
(1.5 1.24698e-16 1.00099e-21)
(1.5 -1.70699e-16 1.19013e-21)
(1.5 -8.46222e-18 1.36384e-21)
(1.5 -7.40142e-17 1.36098e-21)
(1.5 -2.96139e-16 1.55538e-21)
(1.5 -5.28548e-16 2.2544e-21)
(1.5 -5.72509e-16 1.84975e-21)
(1.5 -6.25524e-16 2.46586e-21)
(1.5 -5.92924e-16 2.24968e-21)
(1.5 -6.23729e-16 2.5454e-21)
(1.5 -9.3673e-16 2.62174e-21)
(1.5 -1.01978e-15 2.29556e-21)
(1.5 -1.13728e-15 3.00977e-21)
(1.5 -1.03978e-15 1.89407e-21)
(1.5 -6.45936e-16 1.96787e-21)
(1.5 -4.7163e-16 1.56983e-21)
(1.5 -2.43675e-16 2.40072e-21)
(1.5 -3.66446e-16 1.77219e-21)
(1.5 -4.78371e-16 1.79418e-21)
(1.5 -4.08194e-16 1.8028e-21)
(1.5 -7.88979e-17 1.79696e-21)
(1.5 8.14508e-17 1.67487e-21)
(1.5 4.09365e-16 1.97947e-21)
(1.5 7.27244e-16 1.48829e-21)
(1.5 7.15558e-16 1.50049e-21)
(1.5 6.63739e-16 1.5019e-21)
(1.5 6.76047e-18 1.42615e-21)
(1.5 -2.77555e-16 1.47222e-21)
(1.5 -1.24074e-16 1.20665e-21)
(1.5 -1.16897e-16 1.88315e-21)
(1.5 2.2129e-16 1.56258e-21)
(1.5 -5.23752e-17 5.33466e-22)
(1.5 7.60917e-20 2.81313e-21)
(1.5 6.1368e-16 1.99777e-21)
(1.5 1.15984e-15 2.64824e-21)
(1.5 1.27063e-15 2.71114e-21)
(1.5 1.3703e-15 1.72184e-21)
(1.5 1.53492e-15 2.11265e-21)
(1.5 1.43113e-15 1.58327e-21)
(1.5 9.09913e-16 9.18676e-22)
(1.5 2.43062e-16 7.24773e-22)
(1.5 5.6377e-16 8.73494e-22)
(1.5 9.58445e-16 7.49635e-22)
(0.908612 0.0184807 7.7379e-22)
(0.290215 0.034996 2.8212e-22)
(0.195642 0.0365844 -5.90754e-23)
(0.186995 0.0365277 -8.95925e-22)
(0.177673 0.0368421 7.06952e-21)
(0.16686 0.0374892 -3.5856e-20)
(0.156421 0.0382731 3.41226e-20)
(0.147123 0.0390706 -3.59262e-20)
(0.137698 0.0399286 1.08419e-19)
(0.127191 0.0410791 -1.99976e-19)
(0.11626 0.0423674 2.09383e-19)
(0.10543 0.0438584 -1.70831e-19)
(0.0945857 0.045485 3.91004e-20)
(0.0833062 0.0468979 -1.78463e-19)
(0.0713669 0.049151 -1.65121e-19)
(0.0592654 0.0496784 -5.47248e-20)
(0.047288 0.0508568 -8.61731e-21)
(0.0344795 0.0537752 8.39979e-20)
(0.0220029 0.0600733 -1.94038e-19)
(0.0108317 0.0609627 -2.20501e-19)
(1.5 -1.11222e-16 -2.22594e-22)
(1.5 2.70224e-17 3.61929e-22)
(1.5 -1.51749e-15 -5.8492e-22)
(1.5 -9.27187e-16 2.92241e-22)
(1.5 -7.56889e-16 4.25697e-22)
(1.5 -4.27432e-16 2.00831e-21)
(1.5 -9.75743e-17 2.02659e-21)
(1.5 -2.38331e-16 9.56922e-22)
(1.5 -3.10888e-16 1.83799e-21)
(1.5 -3.04634e-16 1.47826e-21)
(1.5 2.68559e-16 -5.58102e-22)
(1.5 1.10621e-15 1.85461e-21)
(1.5 2.03522e-16 1.99451e-21)
(1.5 5.24807e-16 2.06671e-21)
(1.5 -4.1733e-16 1.13631e-21)
(1.5 -1.0205e-15 3.32841e-22)
(1.5 -1.74547e-15 1.89355e-21)
(1.5 -8.72916e-16 1.39743e-21)
(1.5 2.98493e-16 2.29902e-21)
(1.5 3.53204e-16 6.92532e-22)
(1.5 -3.40676e-16 3.20023e-22)
(1.5 -5.05383e-16 5.70744e-22)
(1.5 4.3164e-16 -3.7208e-22)
(1.5 1.25496e-15 -9.58665e-22)
(1.5 2.08725e-15 -7.76225e-22)
(1.5 1.67627e-15 -7.35103e-24)
(1.5 8.07391e-16 -3.57377e-22)
(1.5 1.32529e-15 -6.55429e-22)
(1.5 1.0971e-15 -1.08542e-21)
(1.5 1.70351e-15 2.18416e-22)
(1.5 2.55382e-15 1.50076e-22)
(1.5 2.66725e-15 -2.66572e-22)
(1.5 2.15457e-15 -2.05728e-23)
(1.5 2.14391e-15 -1.65043e-22)
(1.5 1.84688e-15 -4.77654e-22)
(1.5 1.39877e-15 3.54244e-23)
(1.5 7.72163e-16 7.44373e-23)
(1.5 5.9944e-16 -1.16895e-22)
(1.5 7.36111e-16 7.39164e-23)
(1.5 6.47045e-17 7.23786e-23)
(1.5 -4.03609e-16 2.00791e-23)
(1.5 -3.29878e-16 -1.51247e-23)
(1.5 -1.05894e-16 3.38887e-22)
(1.5 -2.29521e-16 2.01569e-23)
(1.5 -2.24495e-16 7.79682e-24)
(1.5 -1.68425e-16 2.55985e-22)
(1.5 1.29766e-16 2.33589e-22)
(1.5 2.33347e-16 5.32886e-22)
(1.5 1.2339e-16 -1.26066e-22)
(1.5 1.87228e-16 -1.45932e-22)
(1.5 5.76381e-16 -3.324e-23)
(1.5 8.24447e-16 2.87354e-22)
(1.5 8.71419e-16 8.29336e-22)
(1.5 2.5385e-16 2.85857e-22)
(1.5 -1.90908e-16 5.17542e-22)
(1.5 -3.93159e-16 -3.87465e-23)
(1.5 -2.44635e-16 -1.88303e-22)
(1.5 -2.48418e-16 1.00125e-22)
(1.5 -5.66617e-17 1.06576e-22)
(1.5 -3.68732e-18 -7.06911e-23)
(1.5 -1.91333e-16 -8.71229e-22)
(1.5 -2.99537e-16 -2.0002e-22)
(1.5 -1.96805e-16 -5.3697e-22)
(1.5 -1.69594e-16 -9.46551e-22)
(1.5 -3.12421e-16 -8.24565e-22)
(1.5 -1.49953e-17 -1.32547e-21)
(1.5 -1.56301e-16 -1.31886e-21)
(1.5 -3.2252e-16 -1.37745e-21)
(1.5 -4.46227e-16 -1.10114e-21)
(1.5 -3.01057e-16 -1.504e-21)
(1.5 1.00629e-16 -6.64158e-22)
(1.5 1.23055e-16 -1.09908e-21)
(1.5 2.48749e-17 -1.13361e-21)
(1.5 -3.54058e-16 -1.83933e-23)
(1.5 -6.95703e-16 -7.59293e-22)
(1.5 -8.82404e-16 -1.58055e-22)
(1.5 -5.94679e-16 -1.7034e-21)
(1.5 -4.38706e-16 3.98389e-23)
(1.5 -3.16381e-16 -4.27821e-22)
(1.5 -2.88204e-16 -2.33711e-22)
(1.5 -8.21448e-17 -1.05689e-21)
(1.5 2.15062e-16 -1.05285e-21)
(1.5 2.08751e-16 7.93125e-22)
(1.5 4.97984e-16 -1.52541e-21)
(1.5 6.28666e-16 -5.06166e-22)
(1.5 2.29699e-16 -1.20297e-21)
(1.5 1.55343e-16 -2.43194e-23)
(1.5 2.50565e-16 -8.30815e-23)
(1.5 4.35028e-16 -4.77964e-22)
(1.5 5.37447e-16 4.60855e-22)
(1.5 5.87954e-16 -7.35998e-22)
(1.5 1.04253e-15 1.14095e-21)
(1.5 1.32285e-15 1.26073e-21)
(1.5 1.40551e-15 1.67595e-21)
(1.5 1.0585e-15 1.5121e-21)
(1.5 1.02584e-15 2.24057e-21)
(1.5 7.65684e-16 2.26268e-21)
(1.5 7.64072e-16 2.41375e-21)
(1.5 9.8069e-16 2.6821e-21)
(0.890259 0.0244691 -1.20583e-21)
(0.287087 0.0450853 -6.84346e-21)
(0.195736 0.047332 1.26739e-20)
(0.187268 0.0473691 1.30955e-20)
(0.178184 0.0477967 -2.19846e-20)
(0.167467 0.048611 5.95472e-20)
(0.157035 0.049601 -3.14515e-20)
(0.147693 0.0506094 -3.33428e-20)
(0.138347 0.0517151 1.4668e-19)
(0.127967 0.0531956 -1.67514e-19)
(0.117095 0.0548474 -6.68873e-20)
(0.106273 0.0567757 -7.83899e-20)
(0.0954354 0.0588965 6.98473e-20)
(0.0841327 0.0608149 2.64178e-19)
(0.0720221 0.0637949 -1.76227e-19)
(0.0596181 0.0646432 3.16085e-19)
(0.0471268 0.0663479 -7.47027e-19)
(0.034244 0.0688463 -1.20237e-19)
(0.0226529 0.0764124 -1.15916e-19)
(0.0155145 0.0779467 5.9413e-20)
(1.5 -3.16197e-16 3.34975e-22)
(1.5 -4.08332e-16 -2.46349e-22)
(1.5 -1.22991e-15 3.15104e-22)
(1.5 -5.95804e-16 -2.4861e-22)
(1.5 -1.24484e-15 -1.08643e-21)
(1.5 -5.25852e-16 -4.14228e-21)
(1.5 3.87029e-16 -4.29295e-21)
(1.5 1.42042e-18 -1.26186e-21)
(1.5 -4.95157e-16 -5.76614e-21)
(1.5 -1.06651e-16 -6.81801e-21)
(1.5 7.26632e-16 -2.88192e-21)
(1.5 5.51059e-16 -5.49585e-21)
(1.5 1.08814e-16 -6.79203e-21)
(1.5 -2.30006e-16 -4.93897e-21)
(1.5 -8.65018e-17 -5.58521e-21)
(1.5 -8.08876e-16 -3.50084e-21)
(1.5 -1.37665e-15 -7.68688e-21)
(1.5 -6.58495e-16 -5.43762e-21)
(1.5 -2.48215e-16 -6.63591e-21)
(1.5 4.41806e-16 -6.83264e-21)
(1.5 4.3847e-16 -6.49366e-21)
(1.5 1.31894e-16 -5.8763e-21)
(1.5 3.64194e-16 -4.68591e-21)
(1.5 6.79441e-16 -4.27971e-21)
(1.5 1.08812e-15 -4.13255e-21)
(1.5 2.06506e-15 -2.89453e-21)
(1.5 1.79905e-15 -2.61867e-21)
(1.5 1.8442e-15 -2.67928e-21)
(1.5 1.76172e-15 -2.69898e-21)
(1.5 1.93814e-15 -3.01991e-21)
(1.5 2.44169e-15 -2.88624e-21)
(1.5 2.44672e-15 -3.19034e-21)
(1.5 1.80263e-15 -2.96554e-21)
(1.5 1.93202e-15 -3.06878e-21)
(1.5 2.03623e-15 -2.93608e-21)
(1.5 1.89943e-15 -2.78925e-21)
(1.5 1.65923e-15 -2.69428e-21)
(1.5 1.16552e-15 -2.55319e-21)
(1.5 5.69136e-16 -2.50345e-21)
(1.5 1.81433e-16 -2.47652e-21)
(1.5 1.32232e-17 -2.39201e-21)
(1.5 -1.80078e-16 -2.27778e-21)
(1.5 -6.05096e-17 -1.98824e-21)
(1.5 -2.7635e-17 -2.14701e-21)
(1.5 1.0107e-16 -1.78942e-21)
(1.5 3.07233e-16 -2.27261e-21)
(1.5 5.2985e-16 -1.84297e-21)
(1.5 7.33533e-16 -1.09899e-21)
(1.5 8.87179e-16 -4.74831e-22)
(1.5 8.20936e-16 -4.45379e-22)
(1.5 9.81325e-16 3.15408e-22)
(1.5 1.20974e-15 -1.67933e-21)
(1.5 9.856e-16 -3.04925e-22)
(1.5 7.20455e-16 -1.16868e-21)
(1.5 4.02887e-16 -1.02221e-21)
(1.5 -1.64152e-16 -1.36554e-21)
(1.5 -6.83757e-16 -1.69409e-21)
(1.5 -2.59611e-16 -1.66987e-21)
(1.5 -9.67416e-17 -1.4816e-21)
(1.5 9.84712e-17 -8.88453e-22)
(1.5 5.73675e-17 -1.23029e-21)
(1.5 4.13024e-17 -1.92257e-21)
(1.5 4.84165e-17 -1.63461e-21)
(1.5 -5.53082e-17 -1.48202e-21)
(1.5 -2.34427e-16 -1.6639e-21)
(1.5 -2.84931e-16 -1.64272e-21)
(1.5 9.95623e-18 -1.51754e-21)
(1.5 4.01054e-16 -1.67251e-21)
(1.5 6.55943e-16 -1.05156e-21)
(1.5 6.51636e-16 -1.89606e-21)
(1.5 5.99348e-16 -9.83361e-22)
(1.5 3.68944e-16 -1.51422e-21)
(1.5 8.28574e-17 -2.31964e-21)
(1.5 4.89087e-17 -1.82968e-21)
(1.5 -9.869e-17 -2.00616e-21)
(1.5 -3.44141e-16 -1.56341e-21)
(1.5 -2.29891e-16 -1.82245e-21)
(1.5 -1.46788e-16 -1.82636e-21)
(1.5 -3.26236e-16 -3.0586e-21)
(1.5 -6.20691e-16 -1.84351e-21)
(1.5 -7.40531e-16 -2.31757e-21)
(1.5 -3.46633e-16 -1.03705e-21)
(1.5 3.28707e-16 -3.30663e-21)
(1.5 6.39667e-16 -1.22655e-21)
(1.5 6.58788e-16 -1.02987e-21)
(1.5 6.12105e-16 -3.2202e-22)
(1.5 2.87094e-16 -4.91134e-22)
(1.5 3.59865e-16 -3.49688e-22)
(1.5 4.666e-16 -8.68727e-22)
(1.5 5.99188e-16 -1.55602e-21)
(1.5 5.54617e-16 -1.51813e-21)
(1.5 9.2207e-16 -2.82016e-21)
(1.5 9.31072e-16 -3.08486e-21)
(1.5 5.42945e-16 -3.30163e-21)
(1.5 4.92249e-16 -2.67986e-21)
(1.5 9.511e-16 -4.02174e-21)
(1.5 1.19137e-15 -3.671e-21)
(1.5 8.90345e-16 -3.69826e-21)
(1.5 3.80908e-16 -2.70664e-21)
(0.86743 0.0316545 -8.41235e-21)
(0.283075 0.0555841 2.27734e-20)
(0.195903 0.058347 -2.07729e-20)
(0.187657 0.0584237 -1.64247e-20)
(0.178821 0.0589403 2.76237e-20)
(0.168215 0.0599077 -1.05696e-19)
(0.157791 0.061104 1.67755e-20)
(0.148395 0.0623351 5.39552e-20)
(0.13914 0.0636848 -1.47781e-19)
(0.128912 0.0654707 3.0324e-19)
(0.118135 0.0674677 -2.31757e-19)
(0.107385 0.0698113 4.16228e-19)
(0.0967195 0.0724186 -4.38092e-19)
(0.0857135 0.0748737 -8.13548e-20)
(0.073932 0.0787024 3.10493e-19)
(0.0616176 0.0801867 -1.97215e-19)
(0.0489388 0.0824804 4.37525e-19)
(0.035732 0.0840648 1.42808e-19)
(0.0231504 0.090999 -2.02368e-19)
(0.0195641 0.0959757 -6.60018e-19)
(1.5 -3.43596e-16 1.58739e-21)
(1.5 -3.03781e-16 1.78229e-21)
(1.5 -5.07675e-17 1.42339e-21)
(1.5 -3.90225e-16 1.28597e-21)
(1.5 -3.24869e-16 3.59065e-21)
(1.5 -2.51958e-16 5.65594e-21)
(1.5 7.82901e-17 3.15821e-21)
(1.5 -4.4516e-16 6.50447e-21)
(1.5 -6.40134e-16 4.32113e-21)
(1.5 3.82391e-16 4.2795e-21)
(1.5 3.04092e-16 3.71138e-21)
(1.5 1.79076e-16 3.18452e-21)
(1.5 -3.90859e-16 8.30736e-21)
(1.5 -6.58354e-16 2.18277e-21)
(1.5 -1.77199e-16 -3.30097e-22)
(1.5 -7.1307e-16 -4.49128e-22)
(1.5 -1.19746e-15 1.5116e-21)
(1.5 -1.69771e-15 2.29742e-22)
(1.5 -9.59567e-16 -7.92637e-24)
(1.5 -1.2122e-16 1.6283e-21)
(1.5 9.53595e-16 1.78715e-21)
(1.5 1.34261e-15 1.9714e-21)
(1.5 7.0835e-16 2.20271e-21)
(1.5 3.112e-16 2.57976e-21)
(1.5 -5.75119e-17 7.76426e-22)
(1.5 5.49236e-16 4.21411e-22)
(1.5 1.4906e-15 -3.11866e-23)
(1.5 9.29339e-16 5.87323e-22)
(1.5 1.59643e-15 2.48123e-23)
(1.5 1.83625e-15 -8.23732e-22)
(1.5 2.10692e-15 -6.17164e-22)
(1.5 2.15033e-15 -5.44125e-22)
(1.5 2.00591e-15 -4.31516e-22)
(1.5 2.00624e-15 -6.35096e-22)
(1.5 1.97221e-15 -7.67731e-22)
(1.5 1.86862e-15 -6.3605e-22)
(1.5 1.66742e-15 -4.77799e-22)
(1.5 1.22216e-15 -4.39003e-22)
(1.5 5.8447e-17 -1.27967e-22)
(1.5 1.33346e-17 6.26774e-23)
(1.5 -4.12003e-17 1.45518e-22)
(1.5 1.59671e-16 -4.51829e-23)
(1.5 4.75178e-16 -1.35558e-22)
(1.5 8.58349e-16 -1.39626e-22)
(1.5 9.15862e-16 -2.85613e-22)
(1.5 9.72277e-16 5.67131e-23)
(1.5 9.78436e-16 -2.29803e-22)
(1.5 1.01305e-15 -9.95803e-22)
(1.5 1.10983e-15 -1.07199e-21)
(1.5 1.14028e-15 -1.53817e-21)
(1.5 8.72234e-16 -1.2408e-21)
(1.5 6.15061e-16 -1.46343e-21)
(1.5 2.44063e-16 -8.75e-22)
(1.5 2.29135e-16 1.98172e-23)
(1.5 4.12559e-16 7.12285e-23)
(1.5 4.5636e-16 -6.37216e-22)
(1.5 2.76243e-16 7.65969e-22)
(1.5 3.62897e-16 5.07762e-22)
(1.5 -1.38082e-17 1.63942e-23)
(1.5 -2.37256e-16 1.05421e-22)
(1.5 -1.45607e-16 -1.56959e-22)
(1.5 7.33677e-17 1.13597e-21)
(1.5 -2.181e-16 1.55237e-21)
(1.5 -5.37151e-16 1.48531e-21)
(1.5 -4.79403e-16 2.0877e-21)
(1.5 -1.81595e-16 1.64416e-21)
(1.5 6.81166e-17 1.63807e-21)
(1.5 2.48096e-16 1.71521e-21)
(1.5 6.89429e-16 1.34923e-21)
(1.5 7.18596e-16 1.40771e-21)
(1.5 5.38584e-16 1.07746e-21)
(1.5 5.71086e-16 1.46356e-21)
(1.5 5.25458e-16 2.26165e-22)
(1.5 8.21033e-16 1.00414e-21)
(1.5 7.75877e-16 8.62279e-22)
(1.5 8.95741e-16 7.72141e-22)
(1.5 8.92861e-16 8.24107e-22)
(1.5 9.36831e-16 9.48692e-22)
(1.5 8.17246e-16 5.8896e-22)
(1.5 6.2566e-16 5.35972e-22)
(1.5 3.6166e-16 4.72992e-22)
(1.5 1.63675e-16 4.27013e-22)
(1.5 9.99375e-17 2.65467e-22)
(1.5 6.32706e-18 4.76565e-23)
(1.5 4.47405e-17 1.3075e-21)
(1.5 1.70629e-16 3.22237e-21)
(1.5 2.72796e-16 6.48841e-22)
(1.5 6.459e-16 4.07232e-21)
(1.5 7.89347e-16 9.02042e-22)
(1.5 9.25458e-16 4.70782e-21)
(1.5 1.06298e-15 4.59647e-21)
(1.5 1.1347e-15 5.06923e-21)
(1.5 1.22566e-15 4.81193e-21)
(1.5 9.91813e-16 4.37253e-21)
(1.5 9.58797e-16 4.42721e-21)
(1.5 1.27611e-15 2.90455e-21)
(1.5 1.3062e-15 6.9651e-21)
(1.5 1.11347e-15 6.5709e-21)
(1.5 7.7246e-16 4.31848e-21)
(0.843342 0.0388325 6.27682e-21)
(0.279596 0.0660477 -2.03576e-20)
(0.196351 0.0694327 2.33315e-20)
(0.188256 0.0696533 6.94265e-23)
(0.179733 0.0702499 4.40698e-20)
(0.16929 0.0713727 -2.19495e-20)
(0.158878 0.0727739 5.16134e-20)
(0.149402 0.0742307 -1.70741e-19)
(0.140218 0.0758266 1.95916e-19)
(0.130136 0.0779029 -2.20554e-20)
(0.119444 0.08022 -4.97404e-20)
(0.108753 0.0829639 -2.9309e-19)
(0.0981944 0.0860089 5.65792e-19)
(0.0873785 0.0889082 -3.84312e-19)
(0.0759191 0.0934911 -2.2181e-20)
(0.0639276 0.0956209 7.11122e-20)
(0.0515506 0.0988808 -1.60115e-19)
(0.0383581 0.100068 -9.67943e-19)
(0.0247975 0.105577 7.57112e-19)
(0.0220954 0.113595 1.22591e-18)
(1.5 -3.01186e-16 -1.86869e-21)
(1.5 5.71892e-16 -2.30082e-21)
(1.5 7.54907e-16 -1.21977e-21)
(1.5 -6.79129e-16 -5.07149e-21)
(1.5 -1.35063e-16 -6.74137e-21)
(1.5 -2.58679e-16 -6.24112e-21)
(1.5 5.54616e-17 -3.18102e-21)
(1.5 -6.32228e-17 -6.83786e-21)
(1.5 1.91788e-16 -6.24975e-21)
(1.5 4.0186e-16 -6.74682e-21)
(1.5 -1.7068e-16 -5.86738e-21)
(1.5 -5.47186e-16 -5.24536e-21)
(1.5 -7.98499e-16 -2.59856e-21)
(1.5 1.29327e-17 2.9006e-22)
(1.5 -3.1833e-16 6.75421e-21)
(1.5 -8.90964e-17 7.13605e-21)
(1.5 -2.89322e-16 1.14681e-20)
(1.5 -1.55931e-15 7.37517e-21)
(1.5 -8.1185e-16 7.72183e-21)
(1.5 4.5305e-16 1.28147e-20)
(1.5 1.20424e-15 9.91824e-21)
(1.5 1.27859e-15 7.99692e-21)
(1.5 1.26368e-15 8.0679e-21)
(1.5 6.71841e-16 7.792e-21)
(1.5 3.52578e-16 1.0958e-20)
(1.5 5.07956e-16 1.08205e-20)
(1.5 1.0939e-15 1.07491e-20)
(1.5 1.0101e-15 1.08178e-20)
(1.5 1.26048e-15 1.10819e-20)
(1.5 1.83192e-15 1.15859e-20)
(1.5 1.91781e-15 1.09807e-20)
(1.5 2.05438e-15 1.11099e-20)
(1.5 2.40206e-15 9.91825e-21)
(1.5 2.00977e-15 1.08848e-20)
(1.5 2.03212e-15 1.02422e-20)
(1.5 1.72449e-15 9.48637e-21)
(1.5 9.75695e-16 9.53094e-21)
(1.5 4.83324e-16 8.64004e-21)
(1.5 9.61442e-17 8.33666e-21)
(1.5 -1.1464e-16 8.32948e-21)
(1.5 1.58221e-16 7.89734e-21)
(1.5 5.58551e-16 7.59434e-21)
(1.5 6.42935e-16 7.10778e-21)
(1.5 8.7039e-16 7.07128e-21)
(1.5 6.52285e-16 7.37974e-21)
(1.5 2.52926e-16 5.83103e-21)
(1.5 9.74421e-17 5.54674e-21)
(1.5 -2.43484e-16 5.38845e-21)
(1.5 -2.68401e-16 4.00721e-21)
(1.5 -2.44165e-16 5.59629e-21)
(1.5 -2.03315e-16 5.21498e-21)
(1.5 -9.50959e-17 5.35929e-21)
(1.5 1.31325e-16 5.22777e-21)
(1.5 3.15794e-16 4.84907e-21)
(1.5 8.93043e-16 3.25196e-21)
(1.5 1.25346e-15 5.39105e-21)
(1.5 1.55592e-15 3.6963e-21)
(1.5 1.4118e-15 4.46825e-21)
(1.5 6.19114e-16 2.90718e-21)
(1.5 1.75693e-16 3.54658e-21)
(1.5 -4.94217e-17 2.94887e-21)
(1.5 -5.89955e-17 2.50765e-21)
(1.5 1.19185e-16 1.56229e-21)
(1.5 2.95298e-16 3.45016e-21)
(1.5 3.80294e-16 3.32497e-21)
(1.5 6.0717e-16 2.95696e-21)
(1.5 6.55358e-16 3.10499e-21)
(1.5 5.4131e-16 1.36786e-21)
(1.5 2.99103e-16 1.85471e-21)
(1.5 4.61433e-16 1.63805e-21)
(1.5 5.21454e-16 2.19866e-21)
(1.5 4.67689e-16 2.38121e-21)
(1.5 3.80268e-16 9.72324e-22)
(1.5 3.9388e-16 1.85627e-21)
(1.5 6.32476e-16 1.45062e-21)
(1.5 8.2768e-16 1.45593e-21)
(1.5 8.33226e-16 1.247e-21)
(1.5 7.25888e-16 1.2209e-21)
(1.5 7.6136e-16 1.82042e-21)
(1.5 9.28199e-16 4.15438e-21)
(1.5 9.95253e-16 -8.32205e-22)
(1.5 5.88949e-16 1.46115e-21)
(1.5 8.10894e-16 1.09245e-21)
(1.5 8.72327e-16 1.03881e-21)
(1.5 1.15536e-15 1.50718e-21)
(1.5 1.55059e-15 -6.19288e-23)
(1.5 1.82698e-15 4.66413e-22)
(1.5 1.69036e-15 -1.9241e-21)
(1.5 1.65657e-15 4.87837e-22)
(1.5 1.43021e-15 -1.30845e-21)
(1.5 1.59595e-15 -3.87921e-21)
(1.5 1.57591e-15 2.93236e-23)
(1.5 8.30754e-16 2.3082e-22)
(1.5 9.5137e-16 5.88202e-22)
(1.5 1.16947e-15 3.18167e-22)
(1.5 1.12035e-15 -2.2273e-22)
(1.5 1.2011e-15 -3.81641e-22)
(1.5 1.2221e-15 -8.35861e-22)
(1.5 1.35607e-15 -1.48347e-21)
(0.815345 0.0473353 -1.63155e-21)
(0.275095 0.0768432 -1.64742e-21)