/*--------------------------------*- C++ -*----------------------------------*\
| =========                 |                                                 |
| \\      /  F ield         | OpenFOAM: The Open Source CFD Toolbox           |
|  \\    /   O peration     | Version:  2.2.x                                 |
|   \\  /    A nd           | Web:      www.OpenFOAM.org                      |
|    \\/     M anipulation  |                                                 |
\*---------------------------------------------------------------------------*/
FoamFile
{
    version     2.0;
    format      ascii;
    class       volScalarField;
    location    "0.2";
    object      rho;
}
// * * * * * * * * * * * * * * * * * * * * * * * * * * * * * * * * * * * * * //

dimensions      [1 -3 0 0 0 0 0];

internalField   nonuniform List<scalar> 
14161
(
1
1
1
1
1
1
1
1
1
1
1
1
1
1
1
1
1
1
1
1
1
1
1
1
1
1
1
1
1
1
1
1
1
1
1
1
1
1
1
1
1
1
1
1
1
1
1
1
1
1
1
1
1
1
1
1
1
1
1
1
1
1
1
1
1
1.15911
2.85
2.98031
2.95821
2.95985
2.96646
2.96937
2.97087
2.97348
2.97734
2.98174
2.98612
2.99016
2.99371
2.99679
2.99954
3.00215
3.00476
3.00743
3.01014
3.0128
3.01535
3.01773
3.01993
3.02196
3.02385
3.02561
3.02724
3.02874
3.03008
3.03124
3.0322
3.03295
3.03346
3.03373
3.03373
3.03344
3.03284
3.03188
3.03054
3.02876
3.02648
3.02366
3.02018
3.01593
3.01075
3.00437
2.99641
2.98629
2.97307
2.95524
2.93021
2.89283
2.87154
1
1
1
1
1
1
1
1
1
1
1
1
1
1
1
1
1
1
1
1
1
1
1
1
1
1
1
1
1
1
1
1
1
1
1
1
1
1
1
1
1
1
1
1
1
1
1
1
1
1
1
1
1
1
1
1
1
1
1
1
1
1
1
1
1
1.25159
2.74851
2.89923
2.8829
2.88349
2.88888
2.89067
2.89153
2.89373
2.8972
2.90123
2.90528
2.90899
2.91219
2.91491
2.9173
2.91957
2.92184
2.92413
2.9264
2.92853
2.93044
2.93204
2.93329
2.93419
2.93473
2.93488
2.9346
2.93384
2.93252
2.93057
2.9279
2.92443
2.92011
2.91488
2.90869
2.90155
2.89351
2.8847
2.87534
2.86579
2.85651
2.84806
2.84103
2.83595
2.83316
2.83267
2.83393
2.83561
2.83522
2.82862
2.80904
2.76767
2.80728
1
1
1
1
1
1
1
1
1
1
1
1
1
1
1
1
1
1
1
1
1
1
1
1
1
1
1
1
1
1
1
1
1
1
1
1
1
1
1
1
1
1
1
1
1
1
1
1
1
1
1
1
1
1
1
1
1
1
1
1
1
1
1
1
1
1.15415
2.83444
2.97095
2.95124
2.95411
2.96036
2.96199
2.96198
2.9629
2.96481
2.96704
2.9691
2.97069
2.97168
2.97208
2.97205
2.97178
2.97143
2.97104
2.97057
2.96995
2.96907
2.96788
2.96634
2.96445
2.96222
2.95965
2.95671
2.95335
2.94952
2.94515
2.94018
2.93455
2.92821
2.92113
2.91329
2.9047
2.89541
2.88554
2.87524
2.86474
2.85426
2.84398
2.83401
2.8243
2.81472
2.80516
2.79552
2.78541
2.77311
2.7538
2.71802
2.65966
2.73264
1
1
1
1
1
1
1
1
1
1
1
1
1
1
1
1
1
1
1
1
1
1
1
1
1
1
1
1
1
1
1
1
1
1
1
1
1
1
1
1
1
1
1
1
1
1
1
1
1
1
1
1
1
1
1
1
1
1
1
1
1
1
1
1
1
1.12495
2.82664
2.96908
2.94819
2.95177
2.95911
2.96207
2.96364
2.9663
2.97001
2.97401
2.97775
2.98093
2.98341
2.98526
2.98662
2.98769
2.98861
2.9894
2.99001
2.99037
2.99036
2.98994
2.98907
2.98777
2.98604
2.98389
2.98131
2.97826
2.9747
2.9706
2.96592
2.96062
2.95469
2.9481
2.94087
2.93299
2.9245
2.91545
2.9059
2.89592
2.88551
2.87464
2.86311
2.85058
2.83659
2.82064
2.80237
2.78147
2.75671
2.72342
2.67055
2.59467
2.68076
1
1
1
1
1
1
1
1
1
1
1
1
1
1
1
1
1
1
1
1
1
1
1
1
1
1
1
1
1
1
1
1
1
1
1
1
1
1
1
1
1
1
1
1
1
1
1
1
1
1
1
1
1
1
1
1
1
1
1
1
1
1
1
1
1
1.14127
2.80596
2.95183
2.92975
2.93199
2.93884
2.94183
2.94384
2.94722
2.95184
2.9569
2.96183
2.96631
2.97018
2.97349
2.97641
2.97909
2.98167
2.98416
2.98649
2.98857
2.99028
2.99156
2.99238
2.99274
2.99264
2.99209
2.99106
2.98954
2.98748
2.98484
2.98161
2.97775
2.97325
2.96809
2.96228
2.9558
2.94866
2.94086
2.93237
2.92318
2.9132
2.90226
2.8901
2.87629
2.86026
2.84136
2.81891
2.79223
2.75992
2.71726
2.65224
2.56177
2.6414
1
1
1
1
1
1
1
1
1
1
1
1
1
1
1
1
1
1
1
1
1
1
1
1
1
1
1
1
1
1
1
1
1
1
1
1
1
1
1
1
1
1
1
1
1
1
1
1
1
1
1
1
1
1
1
1
1
1
1
1
1
1
1
1
1
1.12487
2.80657
2.95606
2.9351
2.93768
2.94366
2.94541
2.94623
2.9485
2.95202
2.95601
2.95992
2.96346
2.96652
2.96917
2.97158
2.97394
2.97635
2.97884
2.98133
2.98371
2.98588
2.98775
2.98928
2.99048
2.99133
2.99181
2.99191
2.99158
2.99076
2.98943
2.98753
2.98504
2.98193
2.97816
2.97372
2.96858
2.9627
2.95604
2.94854
2.94012
2.93064
2.9199
2.90761
2.89332
2.87649
2.85643
2.83232
2.80322
2.76738
2.71984
2.6479
2.54728
2.61397
1
1
1
1
1
1
1
1
1
1
1
1
1
1
1
1
1
1
1
1
1
1
1
1
1
1
1
1
1
1
1
1
1
1
1
1
1
1
1
1
1
1
1
1
1
1
1
1
1
1
1
1
1
1
1
1
1
1
1
1
1
1
1
1
1
1.10232
2.80042
2.95558
2.93518
2.93887
2.94515
2.94697
2.94796
2.95039
2.95395
2.95778
2.96137
2.96446
2.967
2.96909
2.97096
2.9728
2.97473
2.97678
2.97889
2.98094
2.98285
2.98456
2.98605
2.9873
2.98833
2.98911
2.98962
2.9898
2.98961
2.98898
2.98787
2.98624
2.98404
2.98122
2.97774
2.97355
2.96858
2.96277
2.95601
2.9482
2.93917
2.9287
2.91649
2.90213
2.8851
2.86472
2.84015
2.81031
2.77319
2.72356
2.64821
2.5413
2.59686
1
1
1
1
1
1
1
1
1
1
1
1
1
1
1
1
1
1
1
1
1
1
1
1
1
1
1
1
1
1
1
1
1
1
1
1
1
1
1
1
1
1
1
1
1
1
1
1
1
1
1
1
1
1
1
1
1
1
1
1
1
1
1
1
1
1.08062
2.78697
2.95166
2.93257
2.93754
2.94395
2.9457
2.94687
2.94959
2.95339
2.95738
2.96103
2.96411
2.9666
2.96862
2.97039
2.97212
2.97392
2.97579
2.97767
2.97947
2.98111
2.98256
2.9838
2.98486
2.98574
2.98644
2.98693
2.98717
2.98711
2.9867
2.98588
2.98461
2.98283
2.98048
2.97751
2.97384
2.96939
2.96408
2.95777
2.95035
2.94163
2.93138
2.91932
2.90504
2.88805
2.86772
2.84322
2.81338
2.77605
2.72579
2.64901
2.5385
2.587
1
1
1
1
1
1
1
1
1
1
1
1
1
1
1
1
1
1
1
1
1
1
1
1
1
1
1
1
1
1
1
1
1
1
1
1
1
1
1
1
1
1
1
1
1
1
1
1
1
1
1
1
1
1
1
1
1
1
1
1
1
1
1
1
1
1.05542
2.76789
2.94696
2.93013
2.93674
2.94322
2.94484
2.94618
2.9492
2.95318
2.95721
2.9608
2.96377
2.96615
2.96809
2.96981
2.97152
2.97328
2.9751
2.97688
2.97855
2.98002
2.98127
2.9823
2.98315
2.98383
2.98434
2.98467
2.98478
2.98461
2.98414
2.9833
2.98206
2.98035
2.97812
2.97531
2.97182
2.96757
2.96245
2.95634
2.94908
2.94051
2.93038
2.91841
2.90423
2.88736
2.86719
2.84292
2.81337
2.7763
2.72609
2.6489
2.53646
2.58141
1
1
1
1
1
1
1
1
1
1
1
1
1
1
1
1
1
1
1
1
1
1
1
1
1
1
1
1
1
1
1
1
1
1
1
1
1
1
1
1
1
1
1
1
1
1
1
1
1
1
1
1
1
1
1
1
1
1
1
1
1
1
1
1
1
1.03074
2.7362
2.93973
2.92731
2.93616
2.94261
2.94397
2.94547
2.94873
2.95281
2.95677
2.96021
2.96301
2.96525
2.96712
2.96884
2.97058
2.97238
2.97422
2.97599
2.9776
2.97899
2.98013
2.98104
2.98175
2.98229
2.98264
2.9828
2.98273
2.9824
2.98176
2.98077
2.9794
2.97758
2.97527
2.97239
2.96886
2.96459
2.95946
2.95334
2.94609
2.93751
2.92739
2.91543
2.90129
2.88451
2.8645
2.84049
2.81129
2.7746
2.72472
2.64761
2.53423
2.57789
1
1
1
1
1
1
1
1
1
1
1
1
1
1
1
1
1
1
1
1
1
1
1
1
1
1
1
1
1
1
1
1
1
1
1
1
1
1
1
1
1
1
1
1
1
1
1
1
1
1
1
1
1
1
1
1
1
1
1
1
1
1
1
1
1
1.01042
2.68738
2.92964
2.92385
2.93525
2.94155
2.94275
2.9446
2.94825
2.95247
2.95636
2.95959
2.96217
2.96423
2.966
2.9677
2.96945
2.97129
2.97315
2.97491
2.97648
2.97781
2.97889
2.97972
2.98035
2.98079
2.98104
2.98107
2.98086
2.98037
2.97956
2.9784
2.97684
2.97485
2.97236
2.96932
2.96564
2.96122
2.95595
2.94971
2.94234
2.93365
2.92343
2.91141
2.89723
2.88047
2.86056
2.83674
2.80785
2.77156
2.72208
2.64525
2.5315
2.57503
1
1
1
1
1
1
1
1
1
1
1
1
1
1
1
1
1
1
1
1
1
1
1
1
1
1
1
1
1
1
1
1
1
1
1
1
1
1
1
1
1
1
1
1
1
1
1
1
1
1
1
1
1
1
1
1
1
1
1
1
1
1
1
1
1
1.00042
2.61159
2.91685
2.92058
2.93464
2.94048
2.9415
2.9438
2.94786
2.95216
2.95587
2.95882
2.96113
2.963
2.96468
2.96637
2.96816
2.97003
2.97189
2.97363
2.97515
2.97642
2.97743
2.97821
2.97878
2.97916
2.97934
2.97929
2.97897
2.97835
2.97739
2.97607
2.97434
2.97217
2.96949
2.96626
2.96238
2.95776
2.9523
2.94587
2.93831
2.92944
2.91906
2.9069
2.89262
2.87581
2.85592
2.83221
2.80354
2.76757
2.71846
2.64198
2.5282
2.57201
1
1
1
1
1
1
1
1
1
1
1
1
1
1
1
1
1
1
1
1
1
1
1
1
1
1
1
1
1
1
1
1
1
1
1
1
1
1
1
1
1
1
1
1
1
1
1
1
1
1
1
1
1
1
1
1
1
1
1
1
1
1
1
1
1
1.00001
2.50761
2.90239
2.91821
2.93461
2.93957
2.94048
2.94335
2.94773
2.95192
2.95527
2.95783
2.95984
2.96153
2.96316
2.96488
2.96672
2.96861
2.97046
2.97215
2.97359
2.97478
2.97572
2.97645
2.97698
2.97732
2.97744
2.97733
2.97693
2.97621
2.97513
2.97368
2.9718
2.96946
2.96661
2.96319
2.95911
2.95429
2.94861
2.94196
2.93418
2.92511
2.91452
2.90218
2.88774
2.87082
2.85087
2.8272
2.79865
2.76291
2.71411
2.63797
2.52434
2.5684
1
1
1
1
1
1
1
1
1
1
1
1
1
1
1
1
1
1
1
1
1
1
1
1
1
1
1
1
1
1
1
1
1
1
1
1
1
1
1
1
1
1
1
1
1
1
1
1
1
1
1
1
1
1
1
1
1
1
1
1
1
1
1
1
1
1
2.38217
2.88659
2.91678
2.93456
2.93817
2.93917
2.94275
2.94739
2.95131
2.95421
2.95637
2.95812
2.95972
2.96137
2.96317
2.96508
2.96701
2.96883
2.97044
2.9718
2.9729
2.97377
2.97444
2.97493
2.97523
2.97531
2.97514
2.97467
2.97386
2.97269
2.97112
2.96912
2.96664
2.96364
2.96004
2.95578
2.95076
2.94487
2.938
2.92999
2.92069
2.90989
2.89733
2.8827
2.86562
2.84556
2.82184
2.79333
2.75773
2.70914
2.63331
2.51993
2.56398
1
1
1
1
1
1
1
1
1
1
1
1
1
1
1
1
1
1
1
1
1
1
1
1
1
1
1
1
1
1
1
1
1
1
1
1
1
1
1
1
1
1
1
1
1
1
1
1
1
1
1
1
1
1
1
1
1
1
1
1
1
1
1
1
1
1
2.22994
2.87114
2.91833
2.93576
2.93743
2.93866
2.94284
2.94734
2.95065
2.9529
2.95461
2.95614
2.95771
2.95945
2.96136
2.96334
2.96526
2.96702
2.96852
2.96977
2.97077
2.97157
2.97219
2.97264
2.9729
2.97294
2.97271
2.97216
2.97128
2.97002
2.96835
2.96624
2.96364
2.9605
2.95675
2.95231
2.9471
2.94102
2.93393
2.92571
2.91618
2.90514
2.89236
2.87751
2.86023
2.84002
2.81619
2.78765
2.75209
2.70365
2.62807
2.51496
2.55869
1
1
1
1
1
1
1
1
1
1
1
1
1
1
1
1
1
1
1
1
1
1
1
1
1
1
1
1
1
1
1
1
1
1
1
1
1
1
1
1
1
1
1
1
1
1
1
1
1
1
1
1
1
1
1
1
1
1
1
1
1
1
1
1
1
1
2.04873
2.85738
2.92329
2.93747
2.93671
2.93837
2.94293
2.94688
2.94934
2.95097
2.95238
2.95386
2.95554
2.95743
2.95945
2.96147
2.96335
2.96499
2.96637
2.96749
2.9684
2.96913
2.9697
2.97012
2.97033
2.97031
2.97001
2.9694
2.96843
2.96708
2.96532
2.9631
2.96039
2.95712
2.95323
2.94864
2.94326
2.93698
2.9297
2.92126
2.9115
2.90024
2.88721
2.87214
2.85464
2.83423
2.81025
2.78161
2.74603
2.69765
2.62226
2.50945
2.55252
1
1
1
1
1
1
1
1
1
1
1
1
1
1
1
1
1
1
1
1
1
1
1
1
1
1
1
1
1
1
1
1
1
1
1
1
1
1
1
1
1
1
1
1
1
1
1
1
1
1
1
1
1
1
1
1
1
1
1
1
1
1
1
1
1
1
1.83579
2.84758
2.93246
2.9394
2.93609
2.93837
2.94278
2.9457
2.94724
2.94844
2.94979
2.95143
2.95332
2.95538
2.95748
2.95946
2.96122
2.96271
2.96393
2.96493
2.96576
2.96643
2.96697
2.96734
2.96751
2.96742
2.96705
2.96635
2.96529
2.96386
2.962
2.95969
2.95687
2.95348
2.94946
2.94471
2.93917
2.93271
2.92523
2.91659
2.90661
2.89511
2.88185
2.86654
2.8488
2.82818
2.804
2.77522
2.73955
2.69116
2.61589
2.50337
2.54553
1
1
1
1
1
1
1
1
1
1
1
1
1
1
1
1
1
1
1
1
1
1
1
1
1
1
1
1
1
1
1
1
1
1
1
1
1
1
1
1
1
1
1
1
1
1
1
1
1
1
1
1
1
1
1
1
1
1
1
1
1
1
1
1
1
1
1.59281
2.84344
2.94543
2.94028
2.93481
2.93771
2.94142
2.94317
2.94412
2.94534
2.947
2.94897
2.95113
2.95331
2.95539
2.95723
2.9588
2.9601
2.96118
2.96208
2.96285
2.96349
2.96399
2.96432
2.96442
2.96426
2.9638
2.96301
2.96187
2.96034
2.95839
2.95598
2.95305
2.94955
2.94539
2.9405
2.93479
2.92816
2.92049
2.91164
2.90145
2.88972
2.87621
2.86065
2.84267
2.8218
2.79741
2.76844
2.73263
2.68417
2.60896
2.49671
2.53776
1
1
1
1
1
1
1
1
1
1
1
1
1
1
1
1
1
1
1
1
1
1
1
1
1
1
1
1
1
1
1
1
1
1
1
1
1
1
1
1
1
1
1
1
1
1
1
1
1
1
1
1
1
1
1
1
1
1
1
1
1
1
1
1
1
1
1.33687
2.83727
2.95467
2.93605
2.93148
2.9357
2.93862
2.9396
2.94061
2.94231
2.94447
2.94678
2.94907
2.95121
2.9531
2.9547
2.95604
2.95716
2.95811
2.95895
2.95969
2.96031
2.96077
2.96104
2.96106
2.96081
2.96026
2.95937
2.95814
2.95652
2.95448
2.95196
2.94892
2.94529
2.941
2.93596
2.93009
2.92329
2.91543
2.90638
2.89597
2.884
2.87026
2.85444
2.8362
2.81507
2.79044
2.76125
2.72526
2.67667
2.60146
2.48946
2.52928
1
1
1
1
1
1
1
1
1
1
1
1
1
1
1
1
1
1
1
1
1
1
1
1
1
1
1
1
1
1
1
1
1
1
1
1
1
1
1
1
1
1
1
1
1
1
1
1
1
1
1
1
1
1
1
1
1
1
1
1
1
1
1
1
1
1
1.11536
2.79222
2.94459
2.92376
2.92634
2.93262
2.93486
2.93573
2.93742
2.93985
2.94242
2.94484
2.947
2.94887
2.95044
2.95176
2.95288
2.95387
2.95477
2.95559
2.95631
2.95689
2.9573
2.95749
2.95742
2.95706
2.95641
2.95543
2.9541
2.95239
2.95025
2.94763
2.94447
2.94071
2.93628
2.93109
2.92506
2.91808
2.91003
2.90077
2.89014
2.87794
2.86394
2.84786
2.82935
2.80796
2.78307
2.75363
2.71743
2.66865
2.59339
2.48161
2.52015
1
1
1
1
1
1
1
1
1
1
1
1
1
1
1
1
1
1
1
1
1
1
1
1
1
1
1
1
1
1
1
1
1
1
1
1
1
1
1
1
1
1
1
1
1
1
1
1
1
1
1
1
1
1
1
1
1
1
1
1
1
1
1
1
1
1
1.01105
2.60923
2.90595
2.90983
2.92331
2.92999
2.93122
2.9326
2.93523
2.93814
2.94069
2.9428
2.94456
2.94601
2.94725
2.94835
2.94936
2.95031
2.95121
2.95202
2.95271
2.95324
2.95356
2.95364
2.95347
2.95301
2.95225
2.95118
2.94975
2.94794
2.9457
2.94297
2.93969
2.93579
2.93121
2.92587
2.91967
2.91251
2.90426
2.89479
2.88394
2.87149
2.85724
2.84089
2.8221
2.80043
2.77526
2.74556
2.7091
2.66011
2.58473
2.47314
2.5104
1
1
1
1
1
1
1
1
1
1
1
1
1
1
1
1
1
1
1
1
1
1
1
1
1
1
1
1
1
1
1
1
1
1
1
1
1
1
1
1
1
1
1
1
1
1
1
1
1
1
1
1
1
1
1
1
1
1
1
1
1
1
1
1
1
1
1.00081
2.29753
2.86585
2.90656
2.92499
2.92834
2.92862
2.93091
2.93407
2.93669
2.93859
2.94008
2.94134
2.94248
2.94355
2.94458
2.9456
2.94658
2.94748
2.94826
2.94889
2.94932
2.94953
2.94949
2.9492
2.94863
2.94778
2.94661
2.94509
2.94318
2.94082
2.93797
2.93456
2.93052
2.92579
2.92029
2.91391
2.90657
2.89812
2.88843
2.87734
2.86465
2.85013
2.83351
2.81443
2.79247
2.767
2.73702
2.70028
2.65103
2.57548
2.46407
2.50007
1
1
1
1
1
1
1
1
1
1
1
1
1
1
1
1
1
1
1
1
1
1
1
1
1
1
1
1
1
1
1
1
1
1
1
1
1
1
1
1
1
1
1
1
1
1
1
1
1
1
1
1
1
1
1
1
1
1
1
1
1
1
1
1
1
1
1.00005
1.93019
2.8383
2.91806
2.92973
2.92714
2.92726
2.93015
2.9327
2.93422
2.93527
2.93629
2.93736
2.93847
2.93959
2.9407
2.94176
2.94274
2.9436
2.94429
2.94479
2.94509
2.94516
2.94501
2.9446
2.94394
2.94299
2.94173
2.94011
2.93809
2.93562
2.93263
2.92908
2.9249
2.92001
2.91434
2.90778
2.90024
2.89159
2.88168
2.87034
2.8574
2.84261
2.82569
2.80632
2.78405
2.75828
2.72799
2.69095
2.6414
2.56565
2.45438
2.48921
1
1
1
1
1
1
1
1
1
1
1
1
1
1
1
1
1
1
1
1
1
1
1
1
1
1
1
1
1
1
1
1
1
1
1
1
1
1
1
1
1
1
1
1
1
1
1
1
1
1
1
1
1
1
1
1
1
1
1
1
1
1
1
1
1
1
1
1.51955
2.82755
2.93982
2.93138
2.92411
2.92541
2.92805
2.92928
2.92991
2.93076
2.93191
2.93319
2.93447
2.93571
2.93686
2.93788
2.93876
2.93947
2.94001
2.94036
2.94051
2.94046
2.9402
2.9397
2.93894
2.9379
2.93654
2.93481
2.93267
2.93007
2.92695
2.92325
2.91891
2.91386
2.90802
2.90127
2.89353
2.88466
2.87451
2.86293
2.84972
2.83464
2.81744
2.79776
2.77517
2.74908
2.71847
2.68111
2.63123
2.55522
2.44408
2.47784
1
1
1
1
1
1
1
1
1
1
1
1
1
1
1
1
1
1
1
1
1
1
1
1
1
1
1
1
1
1
1
1
1
1
1
1
1
1
1
1
1
1
1
1
1
1
1
1
1
1
1
1
1
1
1
1
1
1
1
1
1
1
1
1
1
1
1
1.14983
2.78069
2.93731
2.91714
2.91621
2.92113
2.9234
2.92403
2.92493
2.92638
2.92797
2.92946
2.93078
2.93195
2.93294
2.93378
2.93446
2.93499
2.93536
2.93557
2.93561
2.93545
2.93509
2.9345
2.93365
2.93251
2.93103
2.92918
2.92691
2.92417
2.92091
2.91706
2.91256
2.90734
2.90131
2.89438
2.88642
2.87732
2.86694
2.85509
2.84161
2.82624
2.80873
2.78873
2.76582
2.7394
2.70845
2.67074
2.6205
2.5442
2.43318
2.46598
1
1
1
1
1
1
1
1
1
1
1
1
1
1
1
1
1
1
1
1
1
1
1
1
1
1
1
1
1
1
1
1
1
1
1
1
1
1
1
1
1
1
1
1
1
1
1
1
1
1
1
1
1
1
1
1
1
1
1
1
1
1
1
1
1
1
1
1.01664
2.48956
2.88163
2.89745
2.9116
2.91771
2.91866
2.91951
2.9213
2.92322
2.9248
2.92604
2.92705
2.92791
2.92864
2.92925
2.92974
2.93012
2.93037
2.93047
2.93041
2.93017
2.92971
2.92902
2.92806
2.9268
2.9252
2.92322
2.92081
2.91792
2.91451
2.91051
2.90585
2.90045
2.89423
2.88709
2.87891
2.86958
2.85894
2.84683
2.83306
2.81739
2.79957
2.77924
2.75599
2.72922
2.69792
2.65985
2.60923
2.5326
2.42169
2.45365
1
1
1
1
1
1
1
1
1
1
1
1
1
1
1
1
1
1
1
1
1
1
1
1
1
1
1
1
1
1
1
1
1
1
1
1
1
1
1
1
1
1
1
1
1
1
1
1
1
1
1
1
1
1
1
1
1
1
1
1
1
1
1
1
1
1
1
1.00186
2.03669
2.83016
2.9004
2.91605
2.91619
2.91556
2.91712
2.91911
2.92046
2.92131
2.92198
2.92263
2.92324
2.9238
2.92429
2.92469
2.92497
2.92513
2.92514
2.92498
2.92463
2.92406
2.92325
2.92216
2.92077
2.91903
2.91691
2.91436
2.91133
2.90776
2.90359
2.89876
2.89318
2.88676
2.87941
2.871
2.86142
2.85052
2.83814
2.82407
2.8081
2.78994
2.76927
2.74567
2.71855
2.68689
2.64844
2.59741
2.52043
2.4096
2.44086
1
1
1
1
1
1
1
1
1
1
1
1
1
1
1
1
1
1
1
1
1
1
1
1
1
1
1
1
1
1
1
1
1
1
1
1
1
1
1
1
1
1
1
1
1
1
1
1
1
1
1
1
1
1
1
1
1
1
1
1
1
1
1
1
1
1
1
1.00017
1.52651
2.80432
2.92478
2.91995
2.91288
2.91285
2.9147
2.91569
2.91604
2.91641
2.91696
2.91758
2.91818
2.91872
2.91915
2.91947
2.91966
2.9197
2.91959
2.9193
2.91882
2.91812
2.91717
2.91595
2.91442
2.91254
2.91027
2.90757
2.90438
2.90065
2.89632
2.8913
2.88553
2.8789
2.87133
2.86269
2.85285
2.84168
2.82901
2.81464
2.79834
2.77985
2.75883
2.73487
2.70738
2.67535
2.6365
2.58505
2.50768
2.39694
2.42762
1
1
1
1
1
1
1
1
1
1
1
1
1
1
1
1
1
1
1
1
1
1
1
1
1
1
1
1
1
1
1
1
1
1
1
1
1
1
1
1
1
1
1
1
1
1
1
1
1
1
1
1
1
1
1
1
1
1
1
1
1
1
1
1
1
1
1
1.00001
1.1014
2.70642
2.91466
2.90314
2.90381
2.90806
2.90979
2.91003
2.91039
2.91112
2.91195
2.91267
2.91324
2.91366
2.91396
2.91412
2.91415
2.91404
2.91378
2.91334
2.91272
2.91188
2.91079
2.90942
2.90774
2.90572
2.9033
2.90044
2.89709
2.89319
2.88868
2.88348
2.8775
2.87066
2.86285
2.85396
2.84387
2.83242
2.81944
2.80476
2.78813
2.76929
2.74792
2.72359
2.69572
2.66329
2.62404
2.57215
2.49437
2.38372
2.41395
1
1
1
1
1
1
1
1
1
1
1
1
1
1
1
1
1
1
1
1
1
1
1
1
1
1
1
1
1
1
1
1
1
1
1
1
1
1
1
1
1
1
1
1
1
1
1
1
1
1
1
1
1
1
1
1
1
1
1
1
1
1
1
1
1
1
1
1
1.01448
2.27066
2.84577
2.8858
2.90071
2.90469
2.90463
2.9049
2.90589
2.90689
2.90757
2.908
2.90828
2.90845
2.90853
2.90851
2.90837
2.9081
2.90769
2.9071
2.90633
2.90534
2.9041
2.90259
2.90076
2.89858
2.896
2.89298
2.88946
2.88538
2.88068
2.87528
2.86909
2.86202
2.85397
2.84483
2.83446
2.82272
2.80944
2.79443
2.77746
2.75827
2.73652
2.71181
2.68356
2.65074
2.61107
2.55871
2.4805
2.36995
2.39986
1
1
1
1
1
1
1
1
1
1
1
1
1
1
1
1
1
1
1
1
1
1
1
1
1
1
1
1
1
1
1
1
1
1
1
1
1
1
1
1
1
1
1
1
1
1
1
1
1
1
1
1
1
1
1
1
1
1
1
1
1
1
1
1
1
1
1
1
1.0021
1.71117
2.79261
2.89994
2.90633
2.90219
2.90083
2.90161
2.90242
2.90272
2.90277
2.9028
2.90284
2.90284
2.90277
2.90261
2.90232
2.90191
2.90134
2.90061
2.89968
2.89853
2.89714
2.89546
2.89347
2.89113
2.88838
2.88519
2.88149
2.87722
2.87232
2.86671
2.8603
2.85299
2.8447
2.83529
2.82464
2.8126
2.799
2.78366
2.76634
2.74678
2.72466
2.69956
2.6709
2.63768
2.59758
2.54475
2.46609
2.35564
2.38535
1
1
1
1
1
1
1
1
1
1
1
1
1
1
1
1
1
1
1
1
1
1
1
1
1
1
1
1
1
1
1
1
1
1
1
1
1
1
1
1
1
1
1
1
1
1
1
1
1
1
1
1
1
1
1
1
1
1
1
1
1
1
1
1
1
1
1
1
1.00026
1.1768
2.71449
2.90744
2.89783
2.89443
2.89616
2.89734
2.89736
2.89714
2.89709
2.89713
2.89715
2.89706
2.89686
2.89654
2.8961
2.89551
2.89478
2.89387
2.89277
2.89146
2.8899
2.88806
2.8859
2.88338
2.88045
2.87708
2.87318
2.86872
2.86361
2.85777
2.85113
2.84358
2.83502
2.82534
2.8144
2.80205
2.78813
2.77244
2.75476
2.73483
2.71232
2.68682
2.65776
2.62412
2.58358
2.53027
2.45116
2.3408
2.37042
1
1
1
1
1
1
1
1
1
1
1
1
1
1
1
1
1
1
1
1
1
1
1
1
1
1
1
1
1
1
1
1
1
1
1
1
1
1
1
1
1
1
1
1
1
1
1
1
1
1
1
1
1
1
1
1
1
1
1
1
1
1
1
1
1
1
1
1
1.00003
1.02667
2.28803
2.84212
2.87745
2.88864
2.89207
2.89195
2.89154
2.8916
2.89176
2.89177
2.89159
2.89128
2.89085
2.89032
2.88968
2.8889
2.88798
2.8869
2.88563
2.88414
2.8824
2.88037
2.87803
2.87533
2.87222
2.86864
2.86455
2.85987
2.85454
2.84848
2.84159
2.83379
2.82496
2.81499
2.80375
2.79108
2.77682
2.76078
2.74274
2.72242
2.69951
2.6736
2.64413
2.61007
2.56908
2.51528
2.4357
2.32547
2.3551
1
1
1
1
1
1
1
1
1
1
1
1
1
1
1
1
1
1
1
1
1
1
1
1
1
1
1
1
1
1
1
1
1
1
1
1
1
1
1
1
1
1
1
1
1
1
1
1
1
1
1
1
1
1
1
1
1
1
1
1
1
1
1
1
1
1
1
1
1
1.00498
1.69222
2.77352
2.8852
2.8922
2.88887
2.88716
2.88704
2.88709
2.88683
2.88636
2.88581
2.88524
2.8846
2.88388
2.88305
2.88209
2.88098
2.87971
2.87825
2.87657
2.87464
2.87243
2.86989
2.86699
2.86368
2.8599
2.85559
2.85069
2.84513
2.83882
2.83168
2.82362
2.81451
2.80424
2.79269
2.77969
2.76509
2.74869
2.73026
2.70955
2.68624
2.65992
2.63003
2.59554
2.55409
2.49979
2.41974
2.30964
2.33938
1
1
1
1
1
1
1
1
1
1
1
1
1
1
1
1
1
1
1
1
1
1
1
1
1
1
1
1
1
1
1
1
1
1
1
1
1
1
1
1
1
1
1
1
1
1
1
1
1
1
1
1
1
1
1
1
1
1
1
1
1
1
1
1
1
1
1
1
1
1.00081
1.14621
2.65264
2.8852
2.88324
2.88105
2.88195
2.8823
2.88178
2.88102
2.88034
2.87969
2.879
2.87821
2.8773
2.87627
2.87511
2.8738
2.87232
2.87066
2.86878
2.86665
2.86423
2.86149
2.85838
2.85485
2.85085
2.84632
2.84119
2.83538
2.82882
2.82142
2.81307
2.80367
2.7931
2.78122
2.76789
2.75293
2.73616
2.71735
2.69623
2.67251
2.64577
2.61545
2.58052
2.53862
2.48381
2.40328
2.29333
2.32328
1
1
1
1
1
1
1
1
1
1
1
1
1
1
1
1
1
1
1
1
1
1
1
1
1
1
1
1
1
1
1
1
1
1
1
1
1
1
1
1
1
1
1
1
1
1
1
1
1
1
1
1
1
1
1
1
1
1
1
1
1
1
1
1
1
1
1
1
1
1.00012
1.02701
2.15799
2.81619
2.86595
2.87598
2.8777
2.8768
2.87582
2.87514
2.87451
2.87373
2.87281
2.87177
2.87062
2.86935
2.86796
2.86643
2.86474
2.86286
2.86077
2.85842
2.85579
2.85283
2.8495
2.84575
2.84151
2.83674
2.83137
2.82531
2.81848
2.8108
2.80217
2.79247
2.78158
2.76937
2.75568
2.74036
2.7232
2.70399
2.68247
2.65832
2.63116
2.60041
2.56504
2.52267
2.46735
2.38635
2.27657
2.3068
1
1
1
1
1
1
1
1
1
1
1
1
1
1
1
1
1
1
1
1
1
1
1
1
1
1
1
1
1
1
1
1
1
1
1
1
1
1
1
1
1
1
1
1
1
1
1
1
1
1
1
1
1
1
1
1
1
1
1
1
1
1
1
1
1
1
1
1
1
1.00002
1.00597
1.52936
2.73635
2.87356
2.87756
2.87347
2.8715
2.8707
2.86992
2.86888
2.8677
2.86645
2.86514
2.86376
2.86227
2.86066
2.8589
2.85699
2.85488
2.85256
2.84999
2.84712
2.84393
2.84037
2.83637
2.8319
2.82688
2.82124
2.81491
2.80781
2.79985
2.79091
2.78089
2.76967
2.75712
2.74308
2.72738
2.70983
2.69022
2.66828
2.6437
2.6161
2.58491
2.5491
2.50626
2.45042
2.36896
2.25937
2.28994
1
1
1
1
1
1
1
1
1
1
1
1
1
1
1
1
1
1
1
1
1
1
1
1
1
1
1
1
1
1
1
1
1
1
1
1
1
1
1
1
1
1
1
1
1
1
1
1
1
1
1
1
1
1
1
1
1
1
1
1
1
1
1
1
1
1
1
1
1
1
1.00118
1.09279
2.49409
2.85173
2.8645
2.8654
2.86601
2.8654
2.86409
2.86267
2.86128
2.85988
2.8584
2.8568
2.85508
2.85323
2.85124
2.84908
2.84674
2.84417
2.84135
2.83825
2.83481
2.831
2.82675
2.82202
2.81673
2.81083
2.80422
2.79683
2.78856
2.77931
2.76896
2.75741
2.74449
2.73008
2.71399
2.69605
2.67602
2.65365
2.62864
2.6006
2.56897
2.5327
2.4894
2.43304
2.35112
2.24174
2.27273
1
1
1
1
1
1
1
1
1
1
1
1
1
1
1
1
1
1
1
1
1
1
1
1
1
1
1
1
1
1
1
1
1
1
1
1
1
1
1
1
1
1
1
1
1
1
1
1
1
1
1
1
1
1
1
1
1
1
1
1
1
1
1
1
1
1
1
1
1
1
1.00022
1.02263
1.92988
2.77476
2.85283
2.86201
2.86153
2.85963
2.85801
2.85658
2.8551
2.85346
2.85169
2.8498
2.84781
2.8457
2.84345
2.84104
2.83844
2.83562
2.83254
2.82918
2.82548
2.82141
2.81689
2.81189
2.80633
2.80013
2.79323
2.78553
2.77695
2.76737
2.75669
2.74478
2.7315
2.7167
2.70022
2.68186
2.66141
2.63861
2.61316
2.58467
2.55259
2.51587
2.47209
2.41523
2.33285
2.22371
2.25515
1
1
1
1
1
1
1
1
1
1
1
1
1
1
1
1
1
1
1
1
1
1
1
1
1
1
1
1
1
1
1
1
1
1
1
1
1
1
1
1
1
1
1
1
1
1
1
1
1
1
1
1
1
1
1
1
1
1
1
1
1
1
1
1
1
1
1
1
1
1
1.00004
1.00547
1.29622
2.66785
2.85727
2.86012
2.85605
2.85403
2.85255
2.85086
2.84894
2.84691
2.84483
2.84268
2.84044
2.83807
2.83556
2.83288
2.83001
2.82692
2.82358
2.81994
2.81597
2.81161
2.80682
2.80152
2.79567
2.78917
2.78196
2.77395
2.76504
2.75512
2.74409
2.73181
2.71815
2.70296
2.68607
2.66729
2.64641
2.62316
2.59726
2.56832
2.53578
2.49861
2.45436
2.39699
2.31416
2.20528
2.23722
1
1
1
1
1
1
1
1
1
1
1
1
1
1
1
1
1
1
1
1
1
1
1
1
1
1
1
1
1
1
1
1
1
1
1
1
1
1
1
1
1
1
1
1
1
1
1
1
1
1
1
1
1
1
1
1
1
1
1
1
1
1
1
1
1
1
1
1
1
1
1.00001
1.00122
1.06007
2.26023
2.8098
2.84463
2.8486
2.84849
2.84675
2.84458
2.8424
2.84021
2.83794
2.83555
2.83304
2.83039
2.82759
2.82463
2.82148
2.8181
2.81447
2.81054
2.80628
2.80163
2.79653
2.79094
2.78478
2.77797
2.77043
2.76209
2.75283
2.74256
2.73116
2.71851
2.70446
2.68886
2.67155
2.65234
2.63102
2.60732
2.58096
2.55156
2.51857
2.48094
2.43621
2.37834
2.29508
2.18649
2.21895
1
1
1
1
1
1
1
1
1
1
1
1
1
1
1
1
1
1
1
1
1
1
1
1
1
1
1
1
1
1
1
1
1
1
1
1
1
1
1
1
1
1
1
1
1
1
1
1
1
1
1
1
1
1
1
1
1
1
1
1
1
1
1
1
1
1
1
1
1
1
1
1.00026
1.01656
1.64641
2.71888
2.8389
2.84646
2.84383
2.84099
2.83859
2.83626
2.83379
2.83118
2.82845
2.82562
2.82266
2.81957
2.8163
2.81285
2.80917
2.80523
2.801
2.79643
2.79147
2.78607
2.78016
2.77367
2.76653
2.75866
2.74996
2.74035
2.72972
2.71794
2.70489
2.69043
2.67442
2.65668
2.63703
2.61525
2.5911
2.56427
2.53441
2.50096
2.46287
2.41767
2.35929
2.27562
2.16734
2.20035
1
1
1
1
1
1
1
1
1
1
1
1
1
1
1
1
1
1
1
1
1
1
1
1
1
1
1
1
1
1
1
1
1
1
1
1
1
1
1
1
1
1
1
1
1
1
1
1
1
1
1
1
1
1
1
1
1
1
1
1
1
1
1
1
1
1
1
1
1
1
1
1.00005
1.00439
1.13848
2.51731
2.82755
2.8395
2.83728
2.83519
2.83283
2.83011
2.82723
2.82428
2.82127
2.81815
2.8149
2.8115
2.80793
2.80415
2.80016
2.7959
2.79135
2.78645
2.78117
2.77543
2.76919
2.76236
2.75487
2.74665
2.73759
2.72761
2.71659
2.70442
2.69097
2.67609
2.65965
2.64147
2.62137
2.59913
2.5745
2.54721
2.51688
2.48296
2.44441
2.39874
2.33987
2.2558
2.14786
2.18142
1
1
1
1
1
1
1
1
1
1
1
1
1
1
1
1
1
1
1
1
1
1
1
1
1
1
1
1
1
1
1
1
1
1
1
1
1
1
1
1
1
1
1
1
1
1
1
1
1
1
1
1
1
1
1
1
1
1
1
1
1
1
1
1
1
1
1
1
1
1
1
1.00001
1.00111
1.04128
1.98977
2.75856
2.82477
2.83096
2.82962
2.82677
2.82372
2.82064
2.81748
2.81418
2.81074
2.80716
2.80343
2.79952
2.79541
2.79108
2.78649
2.7816
2.77636
2.77073
2.76465
2.75806
2.75087
2.74302
2.73443
2.725
2.71463
2.70321
2.69063
2.67676
2.66145
2.64457
2.62594
2.60537
2.58266
2.55756
2.52979
2.49898
2.4646
2.42558
2.37944
2.32009
2.23564
2.12806
2.16217
1
1
1
1
1
1
1
1
1
1
1
1
1
1
1
1
1
1
1
1
1
1
1
1
1
1
1
1
1
1
1
1
1
1
1
1
1
1
1
1
1
1
1
1
1
1
1
1
1
1
1
1
1
1
1
1
1
1
1
1
1
1
1
1
1
1
1
1
1
1
1
1
1.00027
1.01243
1.36279
2.64723
2.82373
2.82949
2.82505
2.82123
2.81784
2.81442
2.81086
2.80716
2.80336
2.79942
2.79535
2.7911
2.78665
2.78196
2.77702
2.77177
2.76618
2.76019
2.75375
2.74678
2.73923
2.731
2.72202
2.71219
2.70142
2.68959
2.67658
2.66228
2.64653
2.62919
2.61009
2.58905
2.56586
2.54028
2.51202
2.48074
2.44588
2.4064
2.35978
2.29996
2.21515
2.10797
2.14261
1
1
1
1
1
1
1
1
1
1
1
1
1
1
1
1
1
1
1
1
1
1
1
1
1
1
1
1
1
1
1
1
1
1
1
1
1
1
1
1
1
1
1
1
1
1
1
1
1
1
1
1
1
1
1
1
1
1
1
1
1
1
1
1
1
1
1
1
1
1
1
1
1.00007
1.0036
1.09237
2.28931
2.78852
2.81758
2.81767
2.81515
2.81177
2.80801
2.80411
2.80011
2.79599
2.79173
2.7873
2.78269
2.77788
2.77283
2.76752
2.7619
2.75593
2.74956
2.74274
2.73539
2.72744
2.71882
2.70943
2.69919
2.688
2.67574
2.6623
2.64755
2.63134
2.61354
2.59396
2.57243
2.54875
2.52267
2.49393
2.46216
2.42683
2.38688
2.3398
2.27952
2.19436
2.08759
2.12274
1
1
1
1
1
1
1
1
1
1
1
1
1
1
1
1
1
1
1
1
1
1
1
1
1
1
1
1
1
1
1
1
1
1
1
1
1
1
1
1
1
1
1
1
1
1
1
1
1
1
1
1
1
1
1
1
1
1
1
1
1
1
1
1
1
1
1
1
1
1
1
1
1.00002
1.00101
1.02981
1.7087
2.69984
2.80612
2.81324
2.81021
2.80604
2.80184
2.79761
2.79326
2.78877
2.78413
2.77932
2.77433
2.76913
2.7637
2.758
2.75199
2.74563
2.73887
2.73165
2.72389
2.71554
2.7065
2.6967
2.68603
2.6744
2.6617
2.64781
2.63259
2.61591
2.59762
2.57756
2.55553
2.53135
2.50477
2.47553
2.44327
2.40746
2.36705
2.31951
2.25877
2.1733
2.06697
2.10258
1
1
1
1
1
1
1
1
1
1
1
1
1
1
1
1
1
1
1
1
1
1
1
1
1
1
1
1
1
1
1
1
1
1
1
1
1
1
1
1
1
1
1
1
1
1
1
1
1
1
1
1
1
1
1
1
1
1
1
1
1
1
1
1
1
1
1
1
1
1
1
1
1
1.00028
1.00969
1.19545
2.53212
2.79949
2.80934
2.80479
2.80026
2.79583
2.79123
2.78648
2.7816
2.77657
2.77138
2.76601
2.76042
2.75459
2.74849
2.74208
2.73531
2.72814
2.7205
2.71232
2.70354
2.69407
2.68383
2.67272
2.66064
2.64748
2.63312
2.61742
2.60026
2.58148
2.56091
2.53838
2.51368
2.48659
2.45684
2.42408
2.38779
2.34692
2.29892
2.23774
2.15198
2.0461
2.08213
1
1
1
1
1
1
1
1
1
1
1
1
1
1
1
1
1
1
1
1
1
1
1
1
1
1
1
1
1
1
1
1
1
1
1
1
1
1
1
1
1
1
1
1
1
1
1
1
1
1
1
1
1
1
1
1
1
1
1
1
1
1
1
1
1
1
1
1
1
1
1
1
1
1.00007
1.00307
1.06655
2.0578
2.74222
2.79487
2.79736
2.7942
2.78972
2.78482
2.77975
2.77452
2.76913
2.76355
2.75778
2.75178
2.74554
2.73902
2.73218
2.72499
2.71738
2.70931
2.70069
2.69147
2.68155
2.67086
2.65929
2.64674
2.6331
2.61826
2.60207
2.5844
2.56511
2.54403
2.52098
2.49576
2.46815
2.43789
2.40463
2.36785
2.32651
2.27805
2.21645
2.13042
2.02502
2.0614
1
1
1
1
1
1
1
1
1
1
1
1
1
1
1
1
1
1
1
1
1
1
1
1
1
1
1
1
1
1
1
1
1
1
1
1
1
1
1
1
1
1
1
1
1
1
1
1
1
1
1
1
1
1
1
1
1
1
1
1
1
1
1
1
1
1
1
1
1
1
1
1
1
1.00002
1.00095
1.02367
1.46784
2.63983
2.78952
2.79525
2.78994
2.78427
2.77878
2.77328
2.76764
2.76183
2.75583
2.74963
2.74321
2.73654
2.72959
2.72232
2.71468
2.70663
2.6981
2.68903
2.67935
2.66897
2.6578
2.64575
2.63272
2.61859
2.60324
2.58655
2.56837
2.54855
2.52694
2.50336
2.47761
2.44947
2.41868
2.38492
2.34765
2.30584
2.25693
2.19492
2.10865
2.00375
2.0404
1
1
1
1
1
1
1
1
1
1
1
1
1
1
1
1
1
1
1
1
1
1
1
1
1
1
1
1
1
1
1
1
1
1
1
1
1
1
1
1
1
1
1
1
1
1
1
1
1
1
1
1
1
1
1
1
1
1
1
1
1
1
1
1
1
1
1
1
1
1
1
1
1
1.00001
1.00029
1.00833
1.14458
2.35786
2.76738
2.78725
2.78341
2.77818
2.77264
2.76683
2.76081
2.7546
2.7482
2.74159
2.73474
2.72764
2.72024
2.71251
2.70442
2.6959
2.6869
2.67736
2.6672
2.65633
2.64467
2.63213
2.6186
2.60396
2.58809
2.57088
2.55217
2.53181
2.50966
2.48554
2.45924
2.43057
2.39925
2.36497
2.32721
2.28493
2.23558
2.17317
2.08669
1.98229
2.01914
1
1
1
1
1
1
1
1
1
1
1
1
1
1
1
1
1
1
1
1
1
1
1
1
1
1
1
1
1
1
1
1
1
1
1
1
1
1
1
1
1
1
1
1
1
1
1
1
1
1
1
1
1
1
1
1
1
1
1
1
1
1
1
1
1
1
1
1
1
1
1
1
1
1
1.00009
1.00287
1.05376
1.83945
2.69461
2.77361
2.7773
2.7728
2.76689
2.76063
2.75418
2.74756
2.74074
2.73369
2.72639
2.71883
2.71097
2.70278
2.69421
2.68521
2.67573
2.6657
2.65504
2.64367
2.63151
2.61845
2.6044
2.58923
2.57284
2.55508
2.53582
2.51492
2.49222
2.46754
2.44069
2.41147
2.37961
2.34481
2.30656
2.2638
2.21402
2.15121
2.06455
1.96068
1.99763
1
1
1
1
1
1
1
1
1
1
1
1
1
1
1
1
1
1
1
1
1
1
1
1
1
1
1
1
1
1
1
1
1
1
1
1
1
1
1
1
1
1
1
1
1
1
1
1
1
1
1
1
1
1
1
1
1
1
1
1
1
1
1
1
1
1
1
1
1
1
1
1
1
1
1.00003
1.00097
1.02056
1.32201
2.57284
2.76982
2.77516
2.76837
2.76142
2.75462
2.74774
2.74069
2.73342
2.72592
2.71817
2.71014
2.70181
2.69313
2.68407
2.67458
2.6646
2.65406
2.64289
2.631
2.61831
2.60473
2.59014
2.57443
2.55749
2.53918
2.51936
2.4979
2.47462
2.44938
2.42197
2.39218
2.35979
2.32446
2.2857
2.24248
2.19226
2.12908
2.04226
1.93892
1.97589
1
1
1
1
1
1
1
1
1
1
1
1
1
1
1
1
1
1
1
1
1
1
1
1
1
1
1
1
1
1
1
1
1
1
1
1
1
1
1
1
1
1
1
1
1
1
1
1
1
1
1
1
1
1
1
1
1
1
1
1
1
1
1
1
1
1
1
1
1
1
1
1
1
1
1.00001
1.00032
1.0078
1.11742
2.20316
2.73363
2.76449
2.76145
2.75539
2.7486
2.74141
2.73395
2.72625
2.7183
2.71009
2.70158
2.69277
2.68359
2.67403
2.66403
2.65353
2.64246
2.63076
2.61834
2.60511
2.59098
2.57584
2.55958
2.54207
2.52319
2.5028
2.48076
2.4569
2.43108
2.40309
2.37274
2.33979
2.30393
2.26467
2.22097
2.17032
2.10679
2.01984
1.91704
1.95392
1
1
1
1
1
1
1
1
1
1
1
1
1
1
1
1
1
1
1
1
1
1
1
1
1
1
1
1
1
1
1
1
1
1
1
1
1
1
1
1
1
1
1
1
1
1
1
1
1
1
1
1
1
1
1
1