/*--------------------------------*- C++ -*----------------------------------*\
| =========                 |                                                 |
| \\      /  F ield         | OpenFOAM: The Open Source CFD Toolbox           |
|  \\    /   O peration     | Version:  2.2.x                                 |
|   \\  /    A nd           | Web:      www.OpenFOAM.org                      |
|    \\/     M anipulation  |                                                 |
\*---------------------------------------------------------------------------*/
FoamFile
{
    version     2.0;
    format      ascii;
    class       volScalarField;
    location    "1.15";
    object      Bx;
}
// * * * * * * * * * * * * * * * * * * * * * * * * * * * * * * * * * * * * * //

dimensions      [1 0 -2 0 0 -1 0];

internalField   nonuniform List<scalar> 
14161
(
1.00005
1.00005
1.00006
1.00007
1.00009
1.00012
1.00017
1.00022
1.00029
1.00038
1.0005
1.00064
1.00081
1.00102
1.00127
1.00156
1.0019
1.00229
1.00273
1.00321
1.00376
1.00435
1.00495
1.00565
1.00629
1.00699
1.00759
1.00817
1.00872
1.00907
1.00929
1.00942
1.00944
1.00925
1.00886
1.00816
1.00714
1.00573
1.0039
1.00165
0.998885
0.995498
0.991475
0.986887
0.981693
0.975524
0.969355
0.963493
0.960069
0.942812
0.911158
0.89427
0.892913
0.901622
0.917672
0.937405
0.96053
0.985626
1.00995
1.03363
1.05582
1.07476
1.09149
1.10607
1.12127
1.13397
1.14296
1.15083
1.15781
1.16524
1.17325
1.17951
1.185
1.19148
1.19847
1.20624
1.21362
1.21906
1.22298
1.2284
1.23551
1.24369
1.2507
1.25795
1.26512
1.27194
1.28103
1.29112
1.29972
1.30937
1.31993
1.32934
1.33807
1.34863
1.36015
1.37198
1.38325
1.3926
1.40097
1.40756
1.41105
1.40009
1.36676
1.29301
1.17321
1.03655
0.904699
0.794304
0.701206
0.621324
0.551729
0.488946
0.43062
0.373317
0.315277
0.25409
0.183003
0.111072
0.0348377
1.00005
1.00005
1.00006
1.00007
1.00009
1.00012
1.00017
1.00022
1.00029
1.00038
1.0005
1.00064
1.00081
1.00102
1.00127
1.00156
1.0019
1.00229
1.00273
1.00322
1.00376
1.00435
1.00496
1.00563
1.00631
1.00697
1.00762
1.0082
1.0087
1.00911
1.00934
1.00947
1.00948
1.00931
1.00894
1.00828
1.00729
1.00592
1.00413
1.00191
0.999212
0.99591
0.991917
0.987314
0.982018
0.975793
0.968533
0.959564
0.949081
0.927943
0.898518
0.891058
0.892432
0.903777
0.923134
0.945436
0.966906
0.99067
1.01358
1.03527
1.05544
1.07367
1.08997
1.10552
1.11963
1.13203
1.14151
1.15107
1.16113
1.16912
1.17556
1.18141
1.18763
1.19494
1.20236
1.20887
1.21503
1.22146
1.22662
1.23294
1.24019
1.24832
1.25575
1.26216
1.26922
1.27549
1.28381
1.29322
1.30222
1.31174
1.3221
1.33202
1.34078
1.35187
1.36404
1.37626
1.38436
1.39071
1.39572
1.39496
1.38117
1.34966
1.28526
1.18768
1.0594
0.936243
0.832541
0.740119
0.658101
0.585686
0.520774
0.460731
0.403087
0.345602
0.285917
0.222929
0.156639
0.0972506
0.0369655
1.00005
1.00005
1.00006
1.00007
1.00009
1.00012
1.00017
1.00022
1.00029
1.00038
1.0005
1.00064
1.00081
1.00102
1.00127
1.00156
1.0019
1.00229
1.00273
1.00322
1.00376
1.00435
1.00498
1.00563
1.00633
1.00697
1.00765
1.00823
1.00872
1.00917
1.00947
1.00959
1.0096
1.00947
1.00915
1.00857
1.00769
1.00643
1.00477
1.00264
1.00008
0.996973
0.99321
0.988701
0.983455
0.976926
0.969023
0.95699
0.941532
0.910238
0.88423
0.884785
0.886478
0.90402
0.92651
0.953936
0.98018
1.00675
1.03052
1.05219
1.07159
1.08945
1.10543
1.12028
1.1321
1.14301
1.15373
1.16308
1.17244
1.18036
1.18679
1.19303
1.20001
1.20758
1.21438
1.21957
1.22401
1.22961
1.23529
1.24141
1.24984
1.25786
1.2654
1.27327
1.2818
1.2889
1.2961
1.30389
1.31168
1.32005
1.32967
1.3394
1.34936
1.35959
1.36944
1.3774
1.38116
1.38363
1.37715
1.35678
1.31283
1.23416
1.11174
0.980168
0.868416
0.781777
0.709926
0.642035
0.579352
0.520848
0.464909
0.41093
0.358017
0.30488
0.250797
0.195645
0.137678
0.0873081
0.0360474
1.00005
1.00005
1.00006
1.00007
1.00009
1.00012
1.00017
1.00022
1.00029
1.00038
1.0005
1.00064
1.00081
1.00102
1.00127
1.00156
1.0019
1.00229
1.00273
1.00323
1.00376
1.00435
1.00499
1.00564
1.00634
1.00699
1.00767
1.0083
1.00877
1.00925
1.00962
1.0098
1.00984
1.00975
1.0095
1.00906
1.00833
1.00727
1.00583
1.00393
1.00159
0.998812
0.995499
0.991537
0.986805
0.980864
0.973476
0.962225
0.947053
0.915272
0.878092
0.886607
0.8884
0.913296
0.936612
0.965624
0.993327
1.02161
1.04822
1.07168
1.09238
1.11135
1.12879
1.14291
1.15403
1.16393
1.17433
1.18309
1.18984
1.19704
1.20447
1.21087
1.21647
1.22234
1.22872
1.23423
1.23861
1.24398
1.25039
1.25578
1.26299
1.26949
1.27643
1.28584
1.29538
1.30349
1.30981
1.31704
1.32438
1.33105
1.33997
1.3483
1.35758
1.36448
1.3699
1.37299
1.37136
1.35645
1.32516
1.2638
1.15951
1.02583
0.886008
0.790353
0.718328
0.663324
0.610368
0.558155
0.50839
0.459423
0.410935
0.363466
0.316293
0.268848
0.220088
0.172699
0.122995
0.0805569
0.037741
1.00005
1.00005
1.00006
1.00007
1.00009
1.00012
1.00017
1.00022
1.00029
1.00038
1.0005
1.00064
1.00081
1.00102
1.00127
1.00156
1.0019
1.00229
1.00273
1.00323
1.00376
1.00436
1.00501
1.00564
1.00634
1.00705
1.00769
1.00834
1.00892
1.00936
1.00978
1.01011
1.01024
1.01022
1.01007
1.00978
1.0093
1.00854
1.00744
1.00593
1.00399
1.00171
0.999059
0.995949
0.992121
0.987745
0.982944
0.974295
0.969278
0.936793
0.891671
0.901211
0.902346
0.93406
0.961556
0.994577
1.02425
1.05291
1.07953
1.10316
1.12368
1.14321
1.15969
1.17349
1.18388
1.19332
1.20222
1.21084
1.21625
1.2209
1.22826
1.23585
1.24039
1.24385
1.24801
1.25367
1.26001
1.26608
1.27272
1.27846
1.2847
1.29043
1.29557
1.30355
1.31227
1.32061
1.32762
1.3343
1.3406
1.34557
1.35213
1.35691
1.36241
1.36537
1.36507
1.35718
1.33719
1.29315
1.21047
1.08675
0.927354
0.798223
0.712305
0.650711
0.607821
0.572176
0.531973
0.49069
0.44944
0.407247
0.364634
0.322464
0.279915
0.237196
0.194284
0.15475
0.11276
0.0768986
0.0411184
1.00005
1.00005
1.00006
1.00007
1.00009
1.00012
1.00017
1.00022
1.00029
1.00038
1.0005
1.00064
1.00081
1.00102
1.00127
1.00156
1.0019
1.00229
1.00273
1.00323
1.00376
1.00436
1.00501
1.00566
1.00636
1.00712
1.00774
1.0084
1.00909
1.00956
1.00997
1.01042
1.01075
1.01088
1.01084
1.01073
1.01052
1.01017
1.00957
1.00866
1.00731
1.00566
1.00383
1.00174
0.999257
0.996611
0.994899
0.989307
0.996593
0.966698
0.920592
0.929906
0.931141
0.964655
0.994067
1.02838
1.06372
1.09522
1.12347
1.14695
1.1673
1.18491
1.19899
1.21154
1.22206
1.2307
1.23803
1.24431
1.25035
1.25467
1.2583
1.26377
1.26932
1.27241
1.27504
1.27943
1.286
1.29294
1.29977
1.3061
1.3113
1.3168
1.3227
1.32755
1.3339
1.33987
1.34536
1.34999
1.35391
1.35661
1.35878
1.36049
1.36107
1.35784
1.3427
1.30916
1.25239
1.15464
1.00957
0.853741
0.736902
0.654837
0.598659
0.559894
0.533565
0.505181
0.473287
0.438681
0.40277
0.365236
0.327178
0.288975
0.250185
0.211538
0.174088
0.140733
0.105687
0.0754633
0.045571
1.00005
1.00005
1.00006
1.00007
1.00009
1.00012
1.00017
1.00022
1.00029
1.00038
1.0005
1.00064
1.00081
1.00102
1.00127
1.00156
1.0019
1.00229
1.00273
1.00323
1.00378
1.00437
1.00502
1.0057
1.00639
1.00714
1.00781
1.00849
1.00921
1.00983
1.0103
1.01079
1.01129
1.01169
1.01187
1.01196
1.01201
1.01205
1.01209
1.01201
1.01166
1.01093
1.00994
1.00895
1.00797
1.0072
1.0076
1.00577
1.02571
1.00031
0.960767
0.972354
0.981243
1.01584
1.051
1.08498
1.1202
1.15003
1.17663
1.19806
1.21662
1.2309
1.24263
1.253
1.26194
1.26963
1.27535
1.27971
1.28478
1.28898
1.29243
1.29643
1.30022
1.30408
1.30766
1.31211
1.31764
1.32431
1.33053
1.33558
1.34016
1.34502
1.34934
1.35232
1.35541
1.35863
1.36136
1.36279
1.36418
1.3635
1.36097
1.35901
1.3478
1.32221
1.27979
1.19973
1.08163
0.926235
0.788739
0.689561
0.615907
0.563669
0.526855
0.502458
0.480585
0.455882
0.428708
0.39842
0.365779
0.331514
0.296779
0.261964
0.226581
0.191712
0.159095
0.130529
0.101284
0.0758741
0.0508138
1.00005
1.00005
1.00006
1.00007
1.00009
1.00012
1.00017
1.00022
1.00029
1.00038
1.0005
1.00064
1.00081
1.00102
1.00127
1.00156
1.0019
1.00229
1.00274
1.00323
1.0038
1.00439
1.00503
1.00574
1.00645
1.00718
1.00794
1.00867
1.00934
1.01008
1.01077
1.01134
1.01184
1.01245
1.01308
1.01349
1.01385
1.01421
1.01472
1.01542
1.01626
1.01695
1.01742
1.01787
1.01815
1.01887
1.01998
1.01955
1.02672
1.03007
1.0163
1.02859
1.05786
1.09285
1.13103
1.16422
1.19184
1.21325
1.23115
1.2464
1.25969
1.27123
1.28136
1.28915
1.29667
1.30209
1.30665
1.31177
1.31511
1.31936
1.32297
1.32627
1.33081
1.33505
1.33879
1.34334
1.34814
1.35334
1.35806
1.36106
1.3629
1.36527
1.36753
1.36905
1.36919
1.37074
1.36992
1.36805
1.36803
1.36186
1.34899
1.33051
1.29371
1.22836
1.13803
1.00419
0.851855
0.73589
0.649918
0.58807
0.541551
0.507127
0.482642
0.462876
0.442398
0.420574
0.395662
0.367603
0.337091
0.305479
0.273447
0.241184
0.208598
0.177005
0.148532
0.123851
0.0991601
0.0777644
0.0565581
1.00005
1.00005
1.00006
1.00007
1.00009
1.00012
1.00016
1.00022
1.00029
1.00038
1.0005
1.00064
1.00081
1.00102
1.00127
1.00156
1.0019
1.0023
1.00274
1.00323
1.00381
1.0044
1.00504
1.00577
1.00651
1.00721
1.00806
1.00887
1.0095
1.01033
1.01124
1.01194
1.0125
1.01324
1.0142
1.01516
1.01593
1.01664
1.01755
1.01873
1.02037
1.02255
1.02491
1.02736
1.0298
1.03325
1.03799
1.04533
1.04642
1.08434
1.10205
1.10818
1.15898
1.18641
1.2118
1.23373
1.25048
1.2674
1.28141
1.29193
1.30234
1.31077
1.3186
1.32443
1.32973
1.33592
1.33937
1.34206
1.34679
1.34975
1.35175
1.35506
1.35933
1.36409
1.36782
1.3705
1.3732
1.37591
1.37792
1.37957
1.38019
1.37978
1.37922
1.37887
1.37633
1.37485
1.3725
1.36383
1.35281
1.33001
1.29199
1.2416
1.16669
1.04651
0.903104
0.776388
0.68178
0.613067
0.562993
0.524617
0.494962
0.472391
0.45298
0.435088
0.415717
0.395004
0.370858
0.34416
0.315454
0.286094
0.256114
0.225958
0.195822
0.166993
0.141824
0.120278
0.0990902
0.0809572
0.0628167
1.00005
1.00005
1.00006
1.00007
1.00009
1.00012
1.00016
1.00022
1.00029
1.00038
1.00049
1.00063
1.00081
1.00101
1.00126
1.00156
1.0019
1.0023
1.00274
1.00324
1.00381
1.00442
1.00506
1.0058
1.00656
1.00729
1.00815
1.009
1.00976
1.01063
1.01157
1.01247
1.01328
1.01421
1.01528
1.01655
1.01785
1.01913
1.02048
1.02213
1.02414
1.02694
1.03069
1.03514
1.0403
1.04762
1.05672
1.07262
1.08204
1.13603
1.22737
1.23134
1.271
1.27012
1.27798
1.28438
1.29318
1.30697
1.32138
1.33338
1.34339
1.35052
1.35548
1.35995
1.36411
1.36815
1.37111
1.37326
1.37649
1.37885
1.37861
1.37986
1.3824
1.38577
1.38869
1.39041
1.39125
1.3918
1.39101
1.38975
1.38853
1.3872
1.38435
1.38228
1.37546
1.36437
1.35006
1.32455
1.28906
1.24193
1.16491
1.06321
0.943291
0.806762
0.70495
0.628921
0.574669
0.536065
0.506962
0.48346
0.466327
0.448832
0.432528
0.415355
0.396753
0.37602
0.352208
0.326922
0.299886
0.272438
0.244079
0.215821
0.187749
0.16119
0.138591
0.119554
0.101119
0.0855594
0.069918
1.00005
1.00005
1.00006
1.00007
1.00009
1.00012
1.00016
1.00022
1.00029
1.00038
1.00049
1.00063
1.0008
1.00101
1.00126
1.00155
1.0019
1.00229
1.00274
1.00325
1.00381
1.00444
1.0051
1.00583
1.00661
1.00742
1.00825
1.00915
1.01009
1.01101
1.01193
1.01299
1.01414
1.01528
1.01638
1.01774
1.01943
1.02122
1.02316
1.02515
1.02744
1.03023
1.03377
1.03835
1.04359
1.04966
1.05657
1.06726
1.09037
1.15274
1.27568
1.35012
1.36288
1.35614
1.34662
1.33978
1.3398
1.34478
1.35283
1.36528
1.37528
1.38247
1.38629
1.38968
1.39224
1.39386
1.3957
1.39626
1.39828
1.40022
1.40053
1.39911
1.39928
1.40013
1.40081
1.40077
1.40053
1.39983
1.39799
1.39491
1.39047
1.38499
1.37509
1.36287
1.34445
1.31349
1.27813
1.22542
1.14717
1.0627
0.943873
0.811914
0.713522
0.63678
0.577772
0.536709
0.507507
0.48664
0.469062
0.45707
0.444377
0.431418
0.416662
0.400764
0.3824
0.361815
0.338711
0.314855
0.289255
0.263426
0.236601
0.210095
0.18391
0.159351
0.138743
0.121579
0.105302
0.0916119
0.077991
1.00005
1.00005
1.00006
1.00007
1.00009
1.00012
1.00016
1.00022
1.00029
1.00038
1.00049
1.00063
1.0008
1.00101
1.00125
1.00155
1.00189
1.00229
1.00274
1.00325
1.00381
1.00445
1.00514
1.00586
1.00667
1.00754
1.00836
1.00929
1.01036
1.01136
1.01227
1.01346
1.01485
1.01621
1.01739
1.01876
1.0206
1.02284
1.02506
1.02738
1.02979
1.03245
1.0357
1.03956
1.04396
1.04853
1.0535
1.05775
1.06411
1.09168
1.22538
1.34867
1.37339
1.37556
1.37428
1.37406
1.37588
1.37788
1.38088
1.38849
1.39659
1.40385
1.40694
1.4084
1.40962
1.40992
1.4102
1.40933
1.40953
1.41103
1.4113
1.40943
1.40743
1.40634
1.4053
1.40394
1.40166
1.39825
1.39317
1.3841
1.36915
1.35262
1.3282
1.29433
1.25349
1.1906
1.11179
1.02339
0.902882
0.796662
0.70424
0.631115
0.572313
0.529796
0.500341
0.479077
0.464887
0.452708
0.444771
0.436124
0.427107
0.416253
0.403644
0.388534
0.370782
0.350854
0.328982
0.306536
0.28231
0.258051
0.232643
0.207728
0.183225
0.160447
0.141381
0.125411
0.110849
0.0985521
0.0866671
1.00005
1.00005
1.00005
1.00007
1.00009
1.00012
1.00016
1.00021
1.00028
1.00037
1.00049
1.00062
1.0008
1.001
1.00125
1.00154
1.00189
1.00228
1.00274
1.00325
1.00382
1.00447
1.00517
1.0059
1.00673
1.00761
1.0085
1.00948
1.01055
1.01163
1.01274
1.014
1.01537
1.0168
1.01831
1.0199
1.02172
1.02379
1.02609
1.02839
1.03078
1.03343
1.03619
1.03911
1.04233
1.0459
1.04958
1.05355
1.06412
1.1084
1.19033
1.26306
1.32051
1.35818
1.37825
1.39073
1.3968
1.3991
1.39975
1.40351
1.40815
1.41374
1.41757
1.4182
1.41748
1.41753
1.41659
1.41437
1.41193
1.41218
1.41255
1.41148
1.40811
1.40443
1.40004
1.39353
1.38567
1.37249
1.35578
1.3334
1.299
1.25847
1.20596
1.13118
1.05411
0.957609
0.848819
0.757819
0.677928
0.615071
0.559017
0.517866
0.48867
0.46747
0.452735
0.443106
0.435672
0.430484
0.425871
0.419835
0.413121
0.403584
0.392399
0.3777
0.360391
0.34142
0.320958
0.2998
0.276998
0.254194
0.230243
0.206913
0.18403
0.162903
0.145215
0.130217
0.117256
0.106159
0.0958302
1.00005
1.00005
1.00005
1.00007
1.00009
1.00012
1.00016
1.00021
1.00028
1.00037
1.00048
1.00062
1.00079
1.001
1.00124
1.00154
1.00188
1.00228
1.00274
1.00325
1.00383
1.00448
1.00519
1.00595
1.00678
1.00769
1.00865
1.00966
1.01074
1.01191
1.01317
1.01445
1.01582
1.01734
1.019
1.02074
1.02251
1.02439
1.02656
1.02887
1.03119
1.03357
1.03585
1.03824
1.04088
1.04421
1.04895
1.05677
1.08679
1.12782
1.16786
1.1962
1.26066
1.34354
1.3838
1.39898
1.40387
1.40627
1.40894
1.41151
1.41534
1.41795
1.42129
1.42252
1.41983
1.41868
1.41772
1.41482
1.40952
1.40612
1.40386
1.40047
1.39319
1.38304
1.36916
1.34859
1.32614
1.29258
1.24891
1.19836
1.13011
1.05113
0.964666
0.863091
0.777231
0.700329
0.639633
0.589697
0.53871
0.504138
0.476576
0.455268
0.440288
0.430263
0.423863
0.419411
0.416034
0.414061
0.410728
0.407018
0.40136
0.393188
0.38268
0.368815
0.35211
0.334196
0.314915
0.294953
0.273404
0.25186
0.229274
0.207432
0.186104
0.166504
0.150116
0.135994
0.124461
0.114402
0.105443
1.00005
1.00005
1.00005
1.00007
1.00009
1.00012
1.00016
1.00021
1.00028
1.00037
1.00048
1.00061
1.00078
1.00099
1.00124
1.00153
1.00187
1.00227
1.00273
1.00325
1.00383
1.00448
1.00521
1.00599
1.00683
1.00776
1.00879
1.00982
1.01091
1.01215
1.01349
1.0148
1.01618
1.01776
1.01947
1.02124
1.02296
1.02474
1.02669
1.02882
1.03101
1.03309
1.03503
1.0366
1.03813
1.03945
1.03956
1.03644
1.06672
1.11661
1.12769
1.14182
1.17612
1.24702
1.31761
1.36084
1.38591
1.39978
1.40852
1.412
1.41617
1.41843
1.41988
1.41993
1.4174
1.41205
1.4073
1.40279
1.39448
1.38344
1.37446
1.36084
1.34087
1.31405
1.27825
1.23349
1.17619
1.10982
1.02948
0.944705
0.855286
0.77193
0.703016
0.645111
0.595185
0.554627
0.513435
0.488347
0.463277
0.44418
0.430461
0.419925
0.412865
0.408269
0.405598
0.403518
0.402794
0.401357
0.399623
0.396542
0.391811
0.384112
0.373804
0.360503
0.34479
0.327996
0.309853
0.291013
0.27072
0.250468
0.229281
0.208916
0.189128
0.170955
0.155786
0.142469
0.132145
0.123025
0.115301
1.00005
1.00005
1.00005
1.00007
1.00009
1.00012
1.00016
1.00021
1.00028
1.00036
1.00047
1.00061
1.00078
1.00098
1.00123
1.00152
1.00186
1.00226
1.00272
1.00324
1.00383
1.00448
1.00522
1.00602
1.00687
1.00782
1.00887
1.00995
1.01108
1.01233
1.01367
1.01506
1.01651
1.01807
1.01972
1.02142
1.02314
1.02488
1.0267
1.0286
1.0305
1.03231
1.0339
1.03538
1.03716
1.03913
1.0414
1.05067
1.08374
1.11278
1.11564
1.12309
1.13989
1.17151
1.22469
1.28839
1.34417
1.37731
1.3975
1.40785
1.41145
1.41216
1.41012
1.40451
1.40094
1.39271
1.37768
1.36582
1.34817
1.32337
1.29603
1.25755
1.20929
1.1484
1.08023
1.00177
0.909072
0.829414
0.754485
0.693423
0.640961
0.595112
0.554366
0.519969
0.489885
0.47103
0.449803
0.4342
0.422086
0.412434
0.405398
0.400111
0.396928
0.395098
0.393919
0.393527
0.393219
0.392566
0.391225
0.388609
0.384179
0.376968
0.366879
0.354078
0.33947
0.323627
0.306485
0.288529
0.269467
0.250388
0.230558
0.211598
0.193253
0.176422
0.16234
0.149787
0.140443
0.132201
0.125518
1.00005
1.00004
1.00005
1.00006
1.00008
1.00011
1.00015
1.0002
1.00027
1.00036
1.00047
1.0006
1.00077
1.00097
1.00122
1.00151
1.00185
1.00225
1.0027
1.00323
1.00383
1.00448
1.00523
1.00604
1.00691
1.00787
1.00893
1.01004
1.0112
1.01245
1.0138
1.01522
1.01669
1.01822
1.01981
1.02146
1.02313
1.02479
1.02648
1.02816
1.02979
1.03131
1.03269
1.03408
1.03573
1.03808
1.04186
1.06514
1.09054
1.10429
1.10613
1.11312
1.12292
1.13812
1.16335
1.2062
1.27811
1.32923
1.37047
1.39545
1.39714
1.39561
1.3893
1.37113
1.35423
1.33763
1.31037
1.27118
1.23611
1.18113
1.11765
1.04558
0.961661
0.875973
0.799701
0.734118
0.67738
0.629416
0.588375
0.552409
0.520006
0.494683
0.473806
0.456371
0.438663
0.426276
0.416205
0.407372
0.401494
0.395879
0.392511
0.390117
0.388736
0.387817
0.387473
0.387586
0.387333
0.386913
0.385256
0.382527
0.377894
0.370778
0.360883
0.348756
0.335227
0.320195
0.30414
0.287138
0.269259
0.251184
0.232657
0.21504
0.198042
0.182455
0.169305
0.157563
0.149006
0.141557
0.135765
1.00005
1.00004
1.00005
1.00006
1.00008
1.00011
1.00015
1.0002
1.00027
1.00035
1.00046
1.00059
1.00076
1.00096
1.0012
1.00149
1.00183
1.00223
1.00269
1.00321
1.00381
1.00448
1.00522
1.00604
1.00693
1.0079
1.00896
1.0101
1.01127
1.01252
1.01387
1.0153
1.01676
1.01826
1.01979
1.02138
1.02299
1.02458
1.0261
1.0276
1.029
1.03023
1.03122
1.03188
1.03201
1.03105
1.02719
1.04607
1.08277
1.08681
1.09069
1.09508
1.09999
1.10962
1.12458
1.14721
1.18712
1.24146
1.31248
1.35187
1.35932
1.34766
1.33037
1.29721
1.2526
1.20462
1.15696
1.08161
1.01043
0.925486
0.845402
0.772524
0.714232
0.663519
0.619763
0.582676
0.54857
0.518916
0.49545
0.47824
0.460306
0.44652
0.433176
0.423137
0.414141
0.405817
0.400877
0.395352
0.391785
0.388185
0.386385
0.385271
0.384637
0.384346
0.38446
0.384572
0.384371
0.383601
0.381627
0.378481
0.373578
0.366399
0.35675
0.345272
0.332454
0.318102
0.303146
0.287095
0.270367
0.253172
0.235895
0.219512
0.203711
0.18926
0.176932
0.166102
0.158163
0.151411
0.14632
1.00005
1.00004
1.00005
1.00006
1.00008
1.00011
1.00015
1.0002
1.00026
1.00035
1.00045
1.00058
1.00075
1.00095
1.00119
1.00147
1.00181
1.00221
1.00267
1.00319
1.00379
1.00446
1.0052
1.00603
1.00694
1.00791
1.00897
1.01011
1.0113
1.01256
1.01391
1.01532
1.01676
1.01822
1.01972
1.02125
1.02276
1.02424
1.02563
1.02699
1.0283
1.02959
1.03086
1.0324
1.03412
1.03698
1.04502
1.07013
1.08993
1.08612
1.08666
1.08792
1.09094
1.09735
1.10582
1.1164
1.14355
1.16514
1.22372
1.2533
1.27032
1.24454
1.19073
1.13772
1.05873
0.973441
0.900377
0.821673
0.759626
0.704541
0.656164
0.615444
0.58094
0.549234
0.521672
0.502184
0.484525
0.468476
0.453609
0.443359
0.432504
0.424079
0.416871
0.408669
0.403394
0.397013
0.393923
0.389804
0.387444
0.385928
0.385323
0.384761
0.384318
0.384102
0.38407
0.38391
0.383288
0.381988
0.37966
0.375998
0.370688
0.363408
0.353957
0.343079
0.330716
0.317127
0.303119
0.287958
0.272419
0.256141
0.240027
0.22462
0.20984
0.196441
0.184904
0.174958
0.167582
0.161408
0.156906
1.00005
1.00004
1.00005
1.00006
1.00008
1.00011
1.00014
1.00019
1.00026
1.00034
1.00044
1.00057
1.00073
1.00093
1.00117
1.00145
1.00179
1.00218
1.00264
1.00316
1.00376
1.00443
1.00517
1.00599
1.00691
1.00789
1.00894
1.01007
1.01128
1.01255
1.01389
1.01529
1.0167
1.01812
1.01957
1.02102
1.02248
1.02387
1.02515
1.0264
1.02769
1.02893
1.03028
1.03183
1.03378
1.03619
1.05513
1.07429
1.0819
1.0808
1.08144
1.08167
1.08329
1.08613
1.08852
1.09345
1.10144
1.10485
1.10711
1.10806
1.10113
1.03818
0.963712
0.888982
0.818257
0.75518
0.706273
0.661197
0.622756
0.588124
0.558451
0.532452
0.514725
0.49782
0.481419
0.467957
0.456157
0.446618
0.436348
0.42886
0.421346
0.414359
0.410147
0.404134
0.400516
0.396075
0.393666
0.391108
0.389218
0.387824
0.386902
0.386123
0.385544
0.385105
0.384747
0.384329
0.38348
0.381821
0.379283
0.37528
0.369642
0.362295
0.353003
0.342432
0.330431
0.317684
0.304369
0.290023
0.275595
0.260335
0.24538
0.230679
0.216735
0.20427
0.193523
0.184354
0.177485
0.171823
0.167855
1.00004
1.00004
1.00005
1.00006
1.00008
1.0001
1.00014
1.00019
1.00025
1.00033
1.00043
1.00056
1.00072
1.00091
1.00114
1.00142
1.00176
1.00215
1.0026
1.00312
1.00372
1.00438
1.00512
1.00595
1.00686
1.00785
1.00888
1.01
1.01121
1.0125
1.01384
1.01521
1.01657
1.01794
1.01933
1.02073
1.02213
1.02346
1.02471
1.0259
1.02701
1.02788
1.02851
1.02857
1.02732
1.02344
1.03577
1.06576
1.06707
1.06967
1.07039
1.07139
1.07224
1.07128
1.06843
1.06725
1.05799
1.05372
1.00759
0.96041
0.88585
0.817856
0.766181
0.721326
0.68079
0.641662
0.608435
0.579415
0.557078
0.537312
0.519775
0.502333
0.48777
0.476945
0.466124
0.457947
0.449509
0.443067
0.43563
0.429452
0.424427
0.41784
0.413927
0.408774
0.40503
0.401214
0.39864
0.396166
0.39383
0.392194
0.390812
0.389839
0.388869
0.388024
0.387154
0.386292
0.384969
0.382969
0.380184
0.375993
0.370245
0.362865
0.353452
0.342955
0.331335
0.319259
0.306352
0.292721
0.279234
0.265038
0.251337
0.237407
0.224174
0.212548
0.202535
0.194079
0.187603
0.182478
0.179079
1.00004
1.00004
1.00005
1.00006
1.00007
1.0001
1.00014
1.00018
1.00024
1.00032
1.00042
1.00055
1.0007
1.00089
1.00112
1.00139
1.00172
1.0021
1.00255
1.00307
1.00366
1.00431
1.00505
1.00588
1.00679
1.00776
1.00878
1.00988
1.0111
1.01239
1.01373
1.01504
1.01634
1.01767
1.01903
1.02037
1.02172
1.02306
1.02432
1.02548
1.02664
1.02787
1.02943
1.0312
1.03386
1.04131
1.06117
1.07458
1.06907
1.06665
1.06496
1.06434
1.06363
1.06165
1.05716
1.05267
1.02592
0.990066
0.899319
0.808907
0.743367
0.700762
0.664059
0.635501
0.611476
0.590703
0.571591
0.553349
0.53679
0.522806
0.51133
0.499895
0.489188
0.480886
0.472766
0.466259
0.45924
0.453059
0.446631
0.440151
0.435485
0.428751
0.424072
0.418778
0.41452
0.410682
0.407545
0.404837
0.402223
0.400212
0.398288
0.396874
0.395233
0.393676
0.391977
0.390296
0.388322
0.385802
0.38255
0.378101
0.372183
0.364712
0.355253
0.344944
0.333686
0.322128
0.309663
0.296774
0.284056
0.270875
0.258319
0.245315
0.232705
0.221644
0.212144
0.204242
0.19808
0.193501
0.190637
1.00004
1.00004
1.00004
1.00005
1.00007
1.0001
1.00013
1.00018
1.00024
1.00031
1.00041
1.00053
1.00068
1.00086
1.00109
1.00136
1.00168
1.00205
1.0025
1.003
1.00358
1.00423
1.00496
1.00577
1.00667
1.00763
1.00863
1.00974
1.01095
1.01222
1.01351
1.01476
1.01604
1.01736
1.01868
1.01999
1.02127
1.02256
1.0238
1.02496
1.02593
1.02686
1.02755
1.02877
1.02991
1.04538
1.06362
1.06538
1.06353
1.06272
1.06223
1.06025
1.05749
1.05363
1.04227
1.01973
0.967096
0.884458
0.783079
0.71784
0.673802
0.644672
0.622498
0.60481
0.589395
0.575782
0.564338
0.553391
0.543225
0.533144
0.524558
0.515623
0.507178
0.499212
0.491673
0.485011
0.478178
0.471671
0.465284
0.458007
0.452408
0.445558
0.439812
0.433772
0.428753
0.42456
0.420728
0.417798
0.414897
0.41205
0.409364
0.407054
0.404483
0.401985
0.399239
0.396591
0.393887
0.39065
0.386708
0.381707
0.375429
0.367623
0.358177
0.34795
0.33692
0.325701
0.313784
0.301459
0.289261
0.276869
0.265239
0.253435
0.241857
0.23124
0.222156
0.214725
0.209008
0.204919
0.20249
1.00004
1.00004
1.00004
1.00005
1.00007
1.00009
1.00013
1.00017
1.00023
1.0003
1.00039
1.00051
1.00066
1.00083
1.00105
1.00131
1.00163
1.00199
1.00243
1.00292
1.00348
1.00412
1.00484
1.00564
1.00652
1.00744
1.00846
1.00956
1.01074
1.01197
1.01316
1.01442
1.01571
1.01702
1.01833
1.01958
1.02079
1.02202
1.0232
1.02417
1.02486
1.02537
1.02521
1.02448
1.02063
1.02695
1.05103
1.05116
1.05282
1.05438
1.05447
1.05323
1.04584
1.03719
1.01723
0.960534
0.878734
0.779538
0.715616
0.674772
0.647806
0.629142
0.61503
0.603912
0.594381
0.585799
0.578057
0.57042
0.563897
0.55627
0.549752
0.541804
0.534429
0.52639
0.518349
0.511076
0.50369
0.496356
0.489711
0.481768
0.474769
0.467399
0.460698
0.45363
0.447588
0.442482
0.438073
0.434889
0.431613
0.427815
0.423925
0.420272
0.416555
0.412883
0.40898
0.405479
0.401848
0.39779
0.393004
0.387279
0.380462
0.372243
0.362746
0.352598
0.341533
0.330499
0.31902
0.307367
0.295961
0.284409
0.273567
0.262844
0.251961
0.241581
0.232659
0.225616
0.220283
0.216623
0.214566
1.00004
1.00003
1.00004
1.00005
1.00007
1.00009
1.00012
1.00016
1.00022
1.00029
1.00038
1.00049
1.00063
1.0008
1.00101
1.00126
1.00157
1.00192
1.00234
1.00282
1.00336
1.00399
1.0047
1.00547
1.00631
1.00722
1.00824
1.00933
1.01046
1.0116
1.01277
1.01404
1.01536
1.01666
1.01792
1.01911
1.02026
1.02151
1.02271
1.02391
1.02512
1.02666
1.02866
1.03261
1.04005
1.05263
1.06198
1.0565
1.05445
1.05202
1.04943
1.04675
1.03046
1.00268
0.962248
0.865663
0.779684
0.720775
0.681318
0.656692
0.639972
0.628642
0.619903
0.612898
0.606829
0.601357
0.596373
0.591221
0.586924
0.581321
0.5765
0.56951
0.562682
0.555088
0.5469
0.539343
0.532142
0.524546
0.517758
0.510113
0.50194
0.493727
0.485666
0.477318
0.47022
0.463979
0.458749
0.454158
0.450418
0.445762
0.440746
0.435832
0.430802
0.425892
0.421
0.416543
0.41192
0.406877
0.401026
0.394319
0.386636
0.377816
0.368151
0.357896
0.346824
0.33591
0.324972
0.314055
0.303296
0.292341
0.281968
0.272061
0.261804
0.251966
0.243376
0.236856
0.231904
0.228706
0.226992
1.00004
1.00003
1.00004
1.00005
1.00006
1.00008
1.00011
1.00015
1.00021
1.00027
1.00036
1.00047
1.0006
1.00076
1.00096
1.00121
1.0015
1.00184
1.00224
1.0027
1.00323
1.00384
1.00452
1.00526
1.00605
1.00696
1.00796
1.00902
1.01008
1.01115
1.01233
1.01361
1.01494
1.0162
1.01744
1.01862
1.01976
1.02092
1.0221
1.02309
1.0239
1.02426
1.02408
1.02265
1.03431
1.05408
1.05225
1.05172
1.04915
1.045
1.0381
1.02997
1.00607
0.947044
0.863743
0.77894
0.724096
0.688486
0.665319
0.649804
0.639445
0.632279
0.62679
0.622334
0.618394
0.61471
0.611234
0.607578
0.604323
0.600514
0.597177
0.591837
0.586537
0.580017
0.572703
0.565202
0.557961
0.550507
0.543363
0.536325
0.528798
0.520495
0.511966
0.502872
0.494335
0.486798
0.480206
0.47377
0.469047
0.463969
0.458004
0.452153
0.446142
0.440449
0.434823
0.429397
0.423786
0.417751
0.410923
0.403411
0.39506
0.385776
0.375755
0.365184
0.354076
0.343034
0.332322
0.321713
0.311462
0.301155
0.291506
0.282534
0.27301
0.263565
0.255044
0.248534
0.243782
0.240988
0.239538
1.00003
1.00003
1.00004
1.00004
1.00006
1.00008
1.00011
1.00015
1.00019
1.00026
1.00034
1.00044
1.00056
1.00072
1.00091
1.00114
1.00142
1.00174
1.00213
1.00256
1.00306
1.00365
1.0043
1.005
1.00576
1.00665
1.00763
1.00864
1.00963
1.01066
1.01183
1.0131
1.01441
1.01567
1.01692
1.01815
1.01932
1.02045
1.02157
1.02254
1.02354
1.0242
1.02512
1.02646
1.03485
1.04528
1.04318
1.0422
1.03934
1.03397
1.0209
0.989116
0.94844
0.856369
0.780309
0.726847
0.694406
0.672636
0.658596
0.648913
0.642332
0.637673
0.634091
0.631105
0.628442
0.625936
0.623544
0.620923
0.618454
0.615537
0.613346
0.609462
0.605972
0.600627
0.594675
0.587968
0.580988
0.574104
0.567114
0.55958
0.552611
0.544955
0.53661
0.52729
0.517517
0.508847
0.501453
0.493952
0.487753
0.482151
0.47576
0.469201
0.46242
0.455972
0.449477
0.443019
0.436461
0.429553
0.421909
0.413614
0.404498
0.394519
0.383747
0.372636
0.361465
0.350511
0.340207
0.329998
0.320228
0.310451
0.301251
0.292907
0.283902
0.274852
0.266806
0.260507
0.256084
0.253601
0.252285
1.00003
1.00003
1.00003
1.00004
1.00005
1.00007
1.0001
1.00014
1.00018
1.00024
1.00031
1.00041
1.00053
1.00067
1.00085
1.00107
1.00132
1.00163
1.00199
1.0024
1.00287
1.00343
1.00404
1.00468
1.00542
1.00627
1.00718
1.00812
1.0091
1.01012
1.01127
1.01247
1.01376
1.01508
1.01637
1.01767
1.01897
1.02019
1.0215
1.02285
1.02496
1.02775
1.03145
1.04456
1.0471
1.04875
1.04389
1.04183
1.03394
1.01959
1.00066
0.933315
0.853487
0.779082
0.73045
0.698617
0.677717
0.664373
0.655307
0.649194
0.645004
0.642149
0.640151
0.638568
0.637193
0.635831
0.634466
0.632769
0.631066
0.628789
0.626979
0.624262
0.621856
0.617803
0.613246
0.60773
0.601544
0.595037
0.588672
0.580642
0.573294
0.56599
0.558434
0.550239
0.540791
0.531088
0.522327
0.513524
0.505644
0.498832
0.492296
0.485479
0.478377
0.471206
0.463897
0.45664
0.449391
0.441819
0.433594
0.42472
0.41507
0.404759
0.393489
0.38218
0.370944
0.359943
0.349662
0.339332
0.329669
0.320238
0.31165
0.304006
0.295974
0.287738
0.280032
0.273435
0.268852
0.266245
0.264939
1.00003
1.00003
1.00003
1.00004
1.00005
1.00007
1.00009
1.00012
1.00017
1.00022
1.00029
1.00038
1.00049
1.00062
1.00079
1.00098
1.00122
1.00151
1.00184
1.00222
1.00266
1.00316
1.00372
1.00434
1.00503
1.00581
1.00664
1.00753
1.0085
1.00951
1.01058
1.01175
1.013
1.01438
1.01576
1.01713
1.01852
1.01977
1.02091
1.0218
1.0223
1.02147
1.01683
1.01973
1.04133
1.0393
1.03865
1.03133
1.02073
0.980195
0.934889
0.845961
0.777412
0.730573
0.701348
0.681523
0.668787
0.660343
0.654856
0.651052
0.648555
0.646973
0.646179
0.645801
0.645553
0.645176
0.644627
0.643637
0.642594
0.64095
0.639521
0.637397
0.635692
0.632807
0.629742
0.625282
0.620176
0.61418
0.608785
0.600896
0.59354
0.585993
0.578348
0.570671
0.56173
0.55137
0.541448
0.532523
0.524134
0.516375
0.509405
0.502259
0.494937
0.487355
0.479361
0.471243
0.46316
0.454857
0.446107
0.436623
0.426534
0.415875
0.404205
0.392494
0.380616
0.369372
0.358939
0.34894
0.339792
0.330841
0.322679
0.315506
0.307924
0.299884
0.292319
0.285922
0.2818
0.279052
0.277929
1.00003
1.00002
1.00003
1.00003
1.00005
1.00006
1.00008
1.00011
1.00015
1.0002
1.00026
1.00034
1.00044
1.00056
1.00071
1.00089
1.0011
1.00136
1.00166
1.00201
1.0024
1.00285
1.00336
1.00394
1.00457
1.00526
1.006
1.00684
1.00777
1.00876
1.00976
1.01089
1.01213
1.0135
1.01496
1.01647
1.01809
1.01962
1.02136
1.0235
1.02612
1.03059
1.04239
1.04608
1.05422
1.04839
1.04411
1.02283
0.999853
0.9266
0.843876
0.776109
0.732112
0.703635
0.684588
0.672243
0.664188
0.659254
0.656261
0.654608
0.653908
0.653881
0.654094
0.65441
0.654784
0.654986
0.654952
0.654413
0.653711
0.652597
0.651421
0.649707
0.648169