/*--------------------------------*- C++ -*----------------------------------*\
| =========                 |                                                 |
| \\      /  F ield         | OpenFOAM: The Open Source CFD Toolbox           |
|  \\    /   O peration     | Version:  2.2.x                                 |
|   \\  /    A nd           | Web:      www.OpenFOAM.org                      |
|    \\/     M anipulation  |                                                 |
\*---------------------------------------------------------------------------*/
FoamFile
{
    version     2.0;
    format      ascii;
    class       volScalarField;
    location    "1.15";
    object      By;
}
// * * * * * * * * * * * * * * * * * * * * * * * * * * * * * * * * * * * * * //

dimensions      [1 0 -2 0 0 -1 0];

internalField   nonuniform List<scalar> 
14161
(
-3.51696e-08
-9.15523e-09
-1.2399e-08
-1.07994e-08
-1.78993e-08
-2.16902e-08
-1.01515e-08
-1.16198e-08
-1.7744e-08
-4.36624e-08
-2.21795e-08
1.59081e-08
-6.40864e-08
5.07798e-08
-2.02651e-07
4.70903e-07
-5.20212e-07
3.04548e-07
2.75656e-06
-3.999e-06
3.07557e-06
6.73026e-06
-1.14281e-05
1.80811e-05
-2.21209e-05
3.65669e-05
3.16227e-06
-3.14197e-05
3.25163e-05
3.08084e-05
8.17288e-06
5.12347e-06
2.14985e-05
3.50168e-05
4.93901e-05
6.51344e-05
8.17339e-05
0.000102527
0.000110731
0.000124112
0.000172239
0.000226484
0.000235922
0.000259578
0.000343924
0.000125872
0.000466174
-0.00095854
0.00336472
0.0202581
0.0186377
0.00527472
-0.00261206
-0.00775054
-0.0120526
-0.0141433
-0.0170596
-0.0161001
-0.0153868
-0.014767
-0.0131831
-0.0110891
-0.00968634
-0.00957641
-0.00894872
-0.0072533
-0.00531995
-0.00444582
-0.00445009
-0.00486021
-0.00444777
-0.00369652
-0.00321989
-0.00373639
-0.0044274
-0.00453994
-0.00320083
-0.00224845
-0.00244378
-0.00339226
-0.00387481
-0.0037026
-0.00400108
-0.00361584
-0.00322188
-0.00348029
-0.0045557
-0.00368818
-0.00338089
-0.00459718
-0.00398396
-0.00319454
-0.00329921
-0.00365522
-0.00425329
-0.00494965
-0.00411747
-0.00169512
-0.00237076
0.00087698
0.0107159
0.0264989
0.0482777
0.0709606
0.087044
0.0850605
0.0665172
0.053537
0.0452909
0.0390674
0.0346452
0.0316383
0.0304182
0.0309694
0.0329061
0.0367104
0.0464452
0.0552437
0.0549356
-6.44054e-08
-3.21232e-08
-3.33014e-08
-2.66337e-08
-3.21664e-08
-4.01187e-08
-3.15152e-08
-3.29139e-08
-3.55794e-08
-7.404e-08
-5.79735e-08
1.4435e-08
-7.98405e-08
1.2389e-07
-2.33097e-07
6.39377e-07
-3.88662e-07
1.68818e-07
4.97673e-06
-4.61658e-06
1.80861e-06
1.32585e-05
-1.53362e-05
1.91262e-05
-1.71585e-05
3.15625e-05
2.0646e-05
-3.21798e-05
3.74127e-05
8.00611e-05
2.8449e-05
1.53217e-05
5.53963e-05
8.91347e-05
0.000129707
0.000163838
0.00019203
0.000234609
0.000250849
0.000265384
0.000389371
0.000544403
0.000573448
0.000623164
0.00100577
0.000882236
0.00043013
-0.000949492
0.0129831
0.0538695
0.0416103
0.0124683
-0.00879692
-0.0256618
-0.0375792
-0.0391716
-0.0459994
-0.0473313
-0.0455515
-0.0433725
-0.0391973
-0.0342035
-0.0311647
-0.0295353
-0.0266855
-0.0207837
-0.0172214
-0.0167576
-0.0155487
-0.0140525
-0.0128301
-0.0115988
-0.0110711
-0.0121193
-0.0129165
-0.0124655
-0.0101119
-0.0068049
-0.00685986
-0.00942051
-0.0106943
-0.0106627
-0.0100062
-0.0100509
-0.00927843
-0.0101682
-0.013555
-0.0119124
-0.0104419
-0.0137964
-0.0125916
-0.00918193
-0.0101192
-0.0114888
-0.0119491
-0.0108717
-0.0065348
-0.00398302
-0.000787506
0.00634744
0.0201768
0.0507014
0.0947025
0.174487
0.215363
0.205098
0.174677
0.147963
0.126385
0.109247
0.0971932
0.0892517
0.0853885
0.0861116
0.0902609
0.100013
0.115993
0.125832
0.125194
-1.00435e-07
-5.5346e-08
-5.54857e-08
-4.92735e-08
-5.34913e-08
-5.9832e-08
-5.46094e-08
-6.04733e-08
-6.31601e-08
-1.16236e-07
-9.23722e-08
-1.07945e-08
-1.2238e-07
1.48501e-07
-2.55707e-07
8.99742e-07
-3.50529e-07
8.93019e-07
5.63088e-06
-6.09035e-06
4.17997e-06
1.39514e-05
-1.16259e-05
1.74549e-05
1.57299e-06
1.77265e-05
2.2417e-05
-1.81896e-06
2.57595e-05
0.000107028
6.86015e-05
5.2984e-05
8.79001e-05
0.00014165
0.000205542
0.000282352
0.000337588
0.000405044
0.000463643
0.000490191
0.000679537
0.000962309
0.00114093
0.00126811
0.00167548
0.00218238
0.00145681
0.00336711
0.0387868
0.0910373
0.0637298
0.0144164
-0.0218696
-0.050235
-0.0689871
-0.0716524
-0.0787907
-0.0781603
-0.0742281
-0.0698024
-0.0634091
-0.0561308
-0.0514307
-0.0480928
-0.0426003
-0.0348349
-0.0294791
-0.0279039
-0.0257491
-0.0217679
-0.0188115
-0.0181345
-0.0175467
-0.017828
-0.018
-0.0169996
-0.0148176
-0.011973
-0.0125233
-0.0164663
-0.0173973
-0.017072
-0.0154541
-0.0150391
-0.0138768
-0.0149003
-0.0192988
-0.0178638
-0.0168171
-0.0208665
-0.0197281
-0.015339
-0.0157626
-0.0177297
-0.0181677
-0.0146335
-0.00748167
-0.0011269
0.00953407
0.0305136
0.0698362
0.136719
0.221557
0.2909
0.303178
0.274375
0.237422
0.207154
0.181797
0.161016
0.146118
0.136465
0.132748
0.135953
0.14566
0.1635
0.180918
0.191621
0.193851
-1.19294e-07
-7.32252e-08
-7.83427e-08
-6.67525e-08
-6.49236e-08
-7.88798e-08
-8.57809e-08
-8.98053e-08
-8.13734e-08
-1.40598e-07
-1.59326e-07
-3.03716e-08
-1.43847e-07
1.64665e-07
-1.69225e-07
7.97079e-07
1.57607e-07
1.13301e-06
4.58736e-06
-2.28162e-06
4.38191e-06
1.00759e-05
-4.56509e-06
1.33624e-05
2.83581e-05
-9.80418e-06
3.36525e-05
6.32587e-05
-1.52048e-05
7.56254e-05
0.000139253
0.000122803
0.000130385
0.000173669
0.00024264
0.000354872
0.000476226
0.000580068
0.000678394
0.000728959
0.00086926
0.001196
0.00148604
0.00182118
0.00263049
0.00359938
0.003352
0.00957917
0.0724793
0.139267
0.0865663
0.00913709
-0.0433032
-0.0811421
-0.104686
-0.112243
-0.119655
-0.117376
-0.109589
-0.100405
-0.0908615
-0.080813
-0.0718662
-0.0648598
-0.0566082
-0.0482821
-0.0413078
-0.0376528
-0.0351883
-0.0298978
-0.0253042
-0.0252208
-0.0264962
-0.0260599
-0.0243579
-0.0212362
-0.0184691
-0.0167317
-0.0179097
-0.0230515
-0.024935
-0.0258889
-0.0247482
-0.0248304
-0.0213857
-0.0206897
-0.0257976
-0.0238935
-0.0224217
-0.0282789
-0.0272275
-0.0223588
-0.0221283
-0.0227934
-0.0201367
-0.0138529
0.000462996
0.0149699
0.0430956
0.091256
0.168969
0.274725
0.349375
0.386271
0.376033
0.335218
0.292978
0.258657
0.229747
0.207117
0.191508
0.181359
0.178232
0.183123
0.195636
0.218436
0.235941
0.246697
0.251621
-1.50615e-07
-9.68764e-08
-1.02506e-07
-8.93306e-08
-8.69252e-08
-1.02421e-07
-1.1454e-07
-1.22601e-07
-1.2715e-07
-1.71368e-07
-2.21829e-07
-7.66306e-08
-1.6668e-07
1.26566e-07
2.84202e-08
4.52599e-07
1.30691e-06
1.25006e-06
2.36448e-06
4.72623e-06
2.65286e-06
7.06661e-06
9.87123e-06
3.78893e-06
4.39478e-05
-1.24205e-05
2.07062e-05
0.000126948
1.27357e-05
2.3781e-05
0.00016816
0.000220053
0.000220523
0.00023396
0.000288509
0.000413726
0.000606334
0.000826817
0.000977017
0.00107518
0.00121492
0.00153804
0.0018731
0.0025372
0.00357147
0.00421904
0.00519428
0.0152181
0.104278
0.196569
0.111336
-0.000187941
-0.0740927
-0.119056
-0.144002
-0.153513
-0.158566
-0.155346
-0.145868
-0.133044
-0.120579
-0.108224
-0.0946173
-0.0820369
-0.0709498
-0.0612554
-0.0534478
-0.0463032
-0.0428026
-0.0407716
-0.0349298
-0.0293506
-0.029867
-0.0320366
-0.0311681
-0.0271662
-0.0236355
-0.0219767
-0.0239882
-0.0284087
-0.0308124
-0.0298223
-0.031589
-0.034315
-0.0308874
-0.0283573
-0.0317079
-0.0287101
-0.0257214
-0.0312118
-0.0305843
-0.0256591
-0.025196
-0.0222586
-0.0158527
-0.00174052
0.025855
0.0670993
0.125812
0.232379
0.327724
0.407306
0.444871
0.446345
0.415946
0.372835
0.331194
0.296684
0.26831
0.246347
0.230662
0.220534
0.217938
0.224525
0.240295
0.265814
0.283012
0.293834
0.300822
-1.66038e-07
-1.14228e-07
-1.23777e-07
-1.13124e-07
-1.09438e-07
-1.15515e-07
-1.35619e-07
-1.65203e-07
-1.80972e-07
-1.84975e-07
-2.58208e-07
-1.62604e-07
-2.17287e-07
9.49448e-08
2.75056e-07
7.83713e-08
2.34783e-06
1.11312e-06
2.24873e-07
1.15477e-05
2.44109e-06
1.03047e-06
2.5028e-05
2.46059e-06
2.53552e-05
2.47478e-05
1.20674e-05
7.93748e-05
0.000100564
4.04685e-05
7.77824e-05
0.000248591
0.000354578
0.000326907
0.00033213
0.000411352
0.000617421
0.000965769
0.00128309
0.00142902
0.00151387
0.00170933
0.00216346
0.00268665
0.00323854
0.00369183
0.00621525
0.0190604
0.124719
0.25408
0.140155
-0.009768
-0.110858
-0.166341
-0.193943
-0.208915
-0.207897
-0.198049
-0.183351
-0.163757
-0.14681
-0.130659
-0.112983
-0.0975647
-0.0823762
-0.0707257
-0.063704
-0.0557315
-0.0464517
-0.0427828
-0.042565
-0.0393589
-0.0333783
-0.0329093
-0.0349939
-0.0344174
-0.0309437
-0.0296492
-0.0311017
-0.0340553
-0.0386241
-0.0366144
-0.0358659
-0.040832
-0.0391302
-0.0358323
-0.0375656
-0.0345347
-0.0292115
-0.0337819
-0.0323716
-0.0270919
-0.0235072
-0.0140659
0.00560437
0.0362979
0.0908817
0.180638
0.29493
0.399515
0.467603
0.500561
0.503074
0.48063
0.44312
0.401194
0.361853
0.328685
0.301476
0.280695
0.265622
0.256034
0.254359
0.26223
0.279945
0.305642
0.323152
0.334195
0.342403
-2.02379e-07
-1.40266e-07
-1.48943e-07
-1.43033e-07
-1.39787e-07
-1.44262e-07
-1.75053e-07
-2.21171e-07
-2.53246e-07
-2.39541e-07
-3.08153e-07
-2.68709e-07
-2.64087e-07
-4.45191e-08
6.09276e-07
-2.46357e-07
2.92064e-06
1.3447e-06
-7.00383e-07
1.42626e-05
3.72307e-06
-1.65383e-06
3.3492e-05
7.82521e-06
-3.44022e-06
8.24643e-05
2.23946e-05
-1.29629e-05
0.000165769
0.00018952
3.50824e-05
8.80794e-05
0.000376618
0.000544134
0.000433431
0.00041775
0.000536312
0.000856002
0.00133309
0.00192492
0.00208196
0.00217204
0.00255935
0.00297467
0.00330205
0.00379857
0.00573941
0.0174281
0.124257
0.306554
0.16206
-0.0273199
-0.152744
-0.217943
-0.244528
-0.264498
-0.26067
-0.243024
-0.221064
-0.194942
-0.171666
-0.14981
-0.129155
-0.111125
-0.0950984
-0.0795192
-0.0688882
-0.061911
-0.0539123
-0.0473112
-0.0454333
-0.0436219
-0.039418
-0.0359107
-0.0365539
-0.038474
-0.0379234
-0.0382947
-0.0381823
-0.040795
-0.0443276
-0.0430046
-0.0400759
-0.0425867
-0.0421921
-0.0384374
-0.0387655
-0.0361364
-0.0304211
-0.0319756
-0.0300706
-0.0185377
-0.00637703
0.0168868
0.0634764
0.128106
0.237114
0.358678
0.464208
0.529215
0.556434
0.558041
0.538268
0.503883
0.462801
0.42277
0.386798
0.355913
0.330701
0.311235
0.297102
0.288495
0.287659
0.296584
0.315322
0.339909
0.357525
0.368904
0.377748
-2.18116e-07
-1.57629e-07
-1.67108e-07
-1.6573e-07
-1.64862e-07
-1.70774e-07
-2.06521e-07
-2.55318e-07
-3.12546e-07
-3.09591e-07
-3.50825e-07
-3.64559e-07
-3.24507e-07
-2.30628e-07
6.50869e-07
-2.34174e-08
2.75277e-06
2.14222e-06
1.7964e-07
1.19192e-05
7.39287e-06
-4.60318e-07
3.29e-05
2.56211e-05
-1.671e-05
9.32747e-05
5.98632e-05
-4.16057e-05
0.000145696
0.000277706
9.94533e-05
4.7429e-05
0.00027008
0.000622274
0.000663796
0.000510727
0.000485546
0.000636597
0.00101045
0.00169401
0.00261334
0.00286807
0.00289507
0.00288672
0.00330034
0.00366324
0.00507593
0.0136905
0.0960799
0.344687
0.169258
-0.0640447
-0.20658
-0.276948
-0.300586
-0.310402
-0.29959
-0.277739
-0.252898
-0.223918
-0.193757
-0.165662
-0.142125
-0.121549
-0.102722
-0.0860572
-0.0755812
-0.0656606
-0.0565479
-0.0511596
-0.0496551
-0.0465511
-0.0433414
-0.0417054
-0.0433768
-0.0452974
-0.0453196
-0.0448438
-0.0441613
-0.0455584
-0.0474365
-0.0465131
-0.0432139
-0.0435427
-0.0441648
-0.0406125
-0.03784
-0.0336677
-0.0250546
-0.0212899
-0.0137517
0.00939624
0.044412
0.0915706
0.185292
0.310285
0.428058
0.525424
0.583503
0.611029
0.612634
0.593939
0.561788
0.521707
0.480712
0.44278
0.409305
0.380959
0.358136
0.340015
0.326702
0.318766
0.318657
0.328111
0.34703
0.36994
0.387269
0.398967
0.408072
-2.55099e-07
-1.86523e-07
-1.93326e-07
-1.95439e-07
-2.04732e-07
-2.1721e-07
-2.57187e-07
-3.13182e-07
-3.88905e-07
-4.27786e-07
-4.25242e-07
-4.63802e-07
-3.47988e-07
-4.33907e-07
5.01425e-07
3.40684e-07
1.64049e-06
3.6629e-06
2.29345e-06
6.09417e-06
1.35182e-05
5.4561e-06
1.80689e-05
2.61852e-05
1.21017e-05
4.82715e-05
6.56104e-05
3.8852e-05
6.75423e-05
0.000149946
0.000226304
0.000181785
0.00014597
0.000273808
0.000688057
0.000833782
0.000741774
0.00054512
0.000567851
0.000937112
0.00182769
0.00309053
0.00334473
0.00359738
0.00417551
0.00496686
0.00687771
0.0147045
0.0791212
0.319125
0.141394
-0.137995
-0.271298
-0.329901
-0.35019
-0.348091
-0.330973
-0.302718
-0.272958
-0.242645
-0.209968
-0.178823
-0.1528
-0.128763
-0.111249
-0.0907658
-0.0765636
-0.0709659
-0.0618604
-0.0541244
-0.0518008
-0.0512438
-0.0479297
-0.0462849
-0.0471534
-0.0501827
-0.0511377
-0.05053
-0.0474721
-0.0452463
-0.0470884
-0.0472402
-0.0446993
-0.04142
-0.0401519
-0.0363074
-0.0285186
-0.0222172
-0.00745485
0.0131489
0.0333207
0.0757169
0.154024
0.255433
0.376478
0.493475
0.576921
0.629166
0.656333
0.66211
0.646611
0.618497
0.580856
0.538051
0.497185
0.461113
0.4307
0.405041
0.384218
0.367096
0.3547
0.347545
0.348095
0.357388
0.375698
0.396813
0.413524
0.425351
0.434523
-2.70792e-07
-2.04805e-07
-2.14587e-07
-2.15278e-07
-2.37579e-07
-2.61194e-07
-2.98613e-07
-3.55079e-07
-4.49933e-07
-5.38345e-07
-5.18242e-07
-5.50719e-07
-3.8869e-07
-6.1204e-07
2.79293e-07
8.85476e-07
4.2303e-07
5.18733e-06
4.74347e-06
1.05648e-06
1.81372e-05
1.57295e-05
-1.43131e-06
3.81456e-05
5.35706e-05
-1.4106e-05
6.34783e-05
0.000176363
4.18765e-05
-1.76726e-06
0.000280462
0.000450649
0.000204722
4.59574e-05
0.000305663
0.000821827
0.000960078
0.000906894
0.000599982
0.000424383
0.000660283
0.00132988
0.00256273
0.00279705
0.0029314
0.002896
0.00276776
0.00759863
0.0459589
0.185901
0.105644
-0.192566
-0.320099
-0.370122
-0.377477
-0.37265
-0.358141
-0.330566
-0.294176
-0.256094
-0.218554
-0.184455
-0.158473
-0.133244
-0.114522
-0.0942328
-0.0762497
-0.0713941
-0.0639215
-0.0546079
-0.0538881
-0.0545236
-0.0538895
-0.0512229
-0.0508237
-0.0514586
-0.0518341
-0.0505198
-0.0480091
-0.045695
-0.0445734
-0.0420755
-0.0383484
-0.0327133
-0.0282372
-0.0209982
-0.00442021
0.0137553
0.0402156
0.0889335
0.136699
0.223146
0.348725
0.454216
0.553207
0.622149
0.666036
0.691641
0.701144
0.691352
0.669636
0.637775
0.596689
0.553144
0.513521
0.479742
0.4521
0.428543
0.409294
0.393083
0.381769
0.375303
0.376334
0.384954
0.402076
0.421362
0.437252
0.448923
0.458086
-3.0801e-07
-2.32994e-07
-2.44853e-07
-2.42725e-07
-2.70186e-07
-3.1658e-07
-3.69576e-07
-4.21208e-07
-5.25302e-07
-6.6455e-07
-6.89723e-07
-6.69514e-07
-5.02583e-07
-6.7302e-07
-1.40376e-07
1.33769e-06
-5.50369e-07
5.54942e-06
5.96531e-06
-6.56294e-07
1.76821e-05
2.4464e-05
-6.6101e-06
3.79093e-05
7.64867e-05
-2.27623e-05
5.32144e-05
0.000203584
4.25437e-05
-1.28566e-05
0.000256883
0.000442134
0.000246016
3.6084e-05
0.000180617
0.000609451
0.00101234
0.000913457
0.000694786
0.000328865
6.49595e-05
0.00022523
0.000781609
0.00162678
0.00138702
0.00116729
-0.000435757
-0.00101537
0.000695591
0.011227
-0.113856
-0.282698
-0.326629
-0.363426
-0.37625
-0.37805
-0.37149
-0.350615
-0.316732
-0.273537
-0.227895
-0.190424
-0.163168
-0.13467
-0.116953
-0.0965325
-0.0761268
-0.0724741
-0.0641034
-0.053805
-0.0504017
-0.0547585
-0.0555252
-0.0544952
-0.0521875
-0.0519599
-0.0514435
-0.047284
-0.0408139
-0.0376534
-0.0357811
-0.0290447
-0.0240281
-0.0140551
0.00410311
0.0202253
0.0535885
0.0978265
0.146461
0.243076
0.334181
0.422454
0.529481
0.605587
0.659302
0.696142
0.718308
0.729447
0.724864
0.709759
0.685675
0.652251
0.610486
0.567558
0.529834
0.498591
0.473195
0.45122
0.43335
0.4181
0.408008
0.402113
0.40363
0.411198
0.426752
0.444115
0.459085
0.47031
0.479381
-3.25831e-07
-2.48611e-07
-2.6817e-07
-2.72378e-07
-3.03428e-07
-3.63278e-07
-4.32375e-07
-4.94427e-07
-5.8573e-07
-7.39341e-07
-8.43139e-07
-8.02989e-07
-6.67763e-07
-6.58341e-07
-5.10958e-07
1.09165e-06
-2.8029e-08
4.58265e-06
6.19414e-06
8.54348e-07
1.39362e-05
2.44731e-05
3.48435e-06
2.7454e-05
5.73721e-05
2.21358e-05
2.80292e-05
8.33607e-05
0.00011482
8.67221e-05
7.88013e-05
0.000168625
0.000298442
0.000300259
0.000148478
8.96757e-05
0.000393499
0.000708744
0.00070867
0.000610488
4.61444e-05
-0.000279505
-0.000381395
0.000134951
0.000265957
0.000198634
-0.000938237
-0.00645154
-0.0340253
-0.199148
-0.468708
-0.420798
-0.338095
-0.339474
-0.351027
-0.362817
-0.362525
-0.349393
-0.323086
-0.285116
-0.23883
-0.196229
-0.16327
-0.132376
-0.114895
-0.0943926
-0.0742247
-0.0697733
-0.065389
-0.0533977
-0.0481481
-0.0500968
-0.0528261
-0.0518326
-0.0491936
-0.0465651
-0.0442419
-0.039147
-0.0272617
-0.0206538
-0.014508
-0.00109595
0.0145542
0.0370669
0.0790184
0.118113
0.178359
0.269602
0.337549
0.427425
0.516134
0.589731
0.648109
0.690467
0.720491
0.738574
0.749143
0.74865
0.739059
0.721927
0.696818
0.66291
0.622113
0.580999
0.54603
0.517271
0.493623
0.472983
0.456436
0.442347
0.433358
0.427942
0.42977
0.436171
0.45003
0.465412
0.479454
0.489996
0.498844
-3.63933e-07
-2.75079e-07
-2.97767e-07
-3.05019e-07
-3.34773e-07
-4.10259e-07
-5.11084e-07
-5.97979e-07
-7.05414e-07
-8.63425e-07
-1.02436e-06
-1.02583e-06
-8.71246e-07
-6.81375e-07
-8.71223e-07
7.73094e-07
6.74624e-07
2.00727e-06
6.90517e-06
4.72475e-06
8.63913e-06
2.26366e-05
2.16245e-05
1.13962e-05
3.88117e-05
7.86098e-05
3.52489e-05
3.59421e-06
0.000166132
0.00023106
5.55502e-05
7.45203e-06
0.000273106
0.000469168
0.000358787
-4.0358e-05
-0.000113147
0.000340115
0.000659989
0.00064274
0.000484041
-0.000191728
-0.00103029
-0.00104453
-0.000760205
-4.43368e-05
-0.00170735
-0.0125975
-0.0878088
-0.452246
-0.707791
-0.562231
-0.397123
-0.364192
-0.362169
-0.367613
-0.363515
-0.346652
-0.323579
-0.291211
-0.247916
-0.20218
-0.160408
-0.128931
-0.11099
-0.0900031
-0.0702095
-0.0644009
-0.0631835
-0.0515251
-0.044547
-0.0435717
-0.0450854
-0.0433523
-0.0405313
-0.0360419
-0.028161
-0.0176785
0.000291779
0.0231309
0.0411097
0.0684116
0.110114
0.157082
0.234019
0.307605
0.372442
0.449976
0.520398
0.586738
0.638
0.68077
0.715717
0.738708
0.753122
0.762096
0.764395
0.75939
0.748174
0.730483
0.704729
0.671489
0.632052
0.593439
0.561302
0.534696
0.512543
0.493341
0.478258
0.46539
0.457489
0.452546
0.454553
0.45986
0.472156
0.485503
0.498529
0.508194
0.51674
-3.85568e-07
-2.90998e-07
-3.16662e-07
-3.43277e-07
-3.74365e-07
-4.46266e-07
-5.70424e-07
-6.89523e-07
-7.95695e-07
-9.25272e-07
-1.14548e-06
-1.25007e-06
-1.19671e-06
-7.66665e-07
-1.11181e-06
9.74519e-08
1.85493e-06
-1.79262e-07
7.23724e-06
7.73677e-06
4.20169e-06
2.01289e-05
3.34935e-05
3.39487e-06
3.50814e-05
9.05478e-05
2.31278e-05
4.29796e-06
0.000150155
0.000181277
2.77021e-05
7.6306e-06
0.000224701
0.000368785
0.0002424
-8.1253e-05
-0.000190713
7.47956e-05
0.000509493
0.000545298
0.000126335
-0.000156294
-0.000959079
-0.00155076
-0.00153861
-0.00121666
-0.00490855
-0.0297762
-0.195718
-0.683059
-0.791538
-0.711013
-0.557362
-0.444558
-0.405422
-0.375025
-0.361837
-0.340389
-0.315996
-0.288704
-0.247674
-0.202167
-0.159587
-0.121642
-0.102828
-0.0835316
-0.0618594
-0.0526502
-0.0533453
-0.0462662
-0.0385819
-0.0354737
-0.0315274
-0.0246766
-0.015217
-0.00477069
0.0158066
0.042454
0.0721849
0.1202
0.166116
0.224153
0.295313
0.348566
0.417285
0.482056
0.541765
0.594933
0.632377
0.675379
0.708296
0.73282
0.751432
0.763522
0.770959
0.774178
0.771953
0.765614
0.753874
0.735629
0.710325
0.678247
0.641258
0.605767
0.576198
0.551296
0.530544
0.512821
0.49909
0.487402
0.480455
0.475962
0.477986
0.48227
0.493103
0.504375
0.516334
0.525066
0.533271
-4.24943e-07
-3.20088e-07
-3.41885e-07
-3.82485e-07
-4.28474e-07
-5.01602e-07
-6.45444e-07
-8.21437e-07
-9.81177e-07
-1.08788e-06
-1.28074e-06
-1.49621e-06
-1.43222e-06
-1.23742e-06
-9.93765e-07
-3.382e-07
1.50865e-06
-7.11712e-07
5.57796e-06
8.78439e-06
2.73336e-06
1.65577e-05
3.34791e-05
1.15345e-05
1.87971e-05
6.08437e-05
4.47089e-05
2.41261e-05
7.42994e-05
0.000122211
9.98429e-05
6.32007e-05
9.65689e-05
0.000158973
0.000159659
2.70354e-05
-7.60988e-05
-1.64639e-05
0.000207687
0.000207907
-1.7617e-05
-0.000297083
-0.000728687
-0.00106432
-0.00133965
-0.00239008
-0.00853425
-0.0571077
-0.39392
-0.799711
-0.817739
-0.780499
-0.711138
-0.592499
-0.480764
-0.407626
-0.376727
-0.344542
-0.31609
-0.288327
-0.245511
-0.197633
-0.153828
-0.113878
-0.0884794
-0.0711243
-0.0518918
-0.0389864
-0.0365825
-0.0323353
-0.0210675
-0.0115476
0.00425306
0.0248638
0.0488237
0.0765917
0.119291
0.179999
0.238569
0.301114
0.354164
0.408636
0.470401
0.519873
0.565281
0.605659
0.633558
0.673202
0.701527
0.725016
0.744975
0.760349
0.770894
0.776819
0.780043
0.779457
0.77649
0.769265
0.756959
0.738722
0.714363
0.683775
0.649352
0.617011
0.589793
0.566633
0.547421
0.531265
0.51884
0.508321
0.502233
0.498145
0.500127
0.503469
0.512948
0.522225
0.533057
0.540879
0.548703
-4.49907e-07
-3.40976e-07
-3.56902e-07
-4.0628e-07
-4.78344e-07
-5.54509e-07
-6.91295e-07
-8.83568e-07
-1.10747e-06
-1.27736e-06
-1.3947e-06
-1.7274e-06
-1.74799e-06
-1.57248e-06
-1.37671e-06
-7.83842e-07
1.20756e-06
5.03495e-07
2.6251e-06
8.44699e-06
3.60709e-06
1.01767e-05
2.87431e-05
2.63348e-05
9.41985e-06
3.33223e-05
6.93854e-05
5.16778e-05
2.39154e-05
8.76389e-05
0.000137387
9.73606e-05
1.22868e-05
4.28284e-05
0.00011152
0.000116309
5.11762e-05
-6.82279e-05
-8.57779e-06
-2.21893e-05
-0.000127309
-0.000274834
-0.000301308
-0.000628347
-0.000466287
-0.00229477
-0.0153494
-0.121767
-0.605648
-0.826605
-0.827245
-0.810527
-0.779759
-0.724676
-0.629487
-0.51156
-0.441309
-0.379161
-0.331184
-0.291106
-0.241147
-0.189322
-0.141979
-0.105658
-0.0724708
-0.0461059
-0.031545
-0.0176395
-0.00249769
0.00786947
0.031002
0.0569777
0.092857
0.13997
0.193776
0.255788
0.305982
0.363429
0.417923
0.474293
0.518074
0.55659
0.589321
0.616427
0.640863
0.672225
0.694484
0.716828
0.7355
0.751699
0.765467
0.775065
0.780595
0.783511
0.783869
0.782719
0.778764
0.771056
0.758447
0.740724
0.717564
0.689061
0.65744
0.627878
0.602688
0.581278
0.56357
0.548935
0.537586
0.528216
0.522844
0.519089
0.520985
0.523473
0.531672
0.539038
0.548667
0.555588
0.562962
-4.89711e-07
-3.74092e-07
-3.89817e-07
-4.36093e-07
-5.37726e-07
-6.47607e-07
-7.92127e-07
-9.87222e-07
-1.25878e-06
-1.5288e-06
-1.62329e-06
-1.88558e-06
-2.14244e-06
-1.95494e-06
-1.79107e-06
-1.25786e-06
5.30275e-07
1.32763e-06
3.23042e-07
6.06932e-06
6.30005e-06
3.77569e-06
2.30451e-05
3.5105e-05
5.96657e-07
5.88938e-06
6.77e-05
6.03455e-05
1.96444e-05
6.39074e-05
0.000106917
7.11825e-05
-6.33946e-06
1.90077e-05
9.18641e-05
0.000101011
7.80813e-05
-0.00014985
-0.000107009
-0.000163504
-0.000223808
-0.000123253
-0.000218528
-0.000512418
-0.0010465
-0.00518764
-0.0340571
-0.244234
-0.750102
-0.848024
-0.841634
-0.830721
-0.815577
-0.788814
-0.743045
-0.659652
-0.559064
-0.451339
-0.372235
-0.304631
-0.234415
-0.17275
-0.111766
-0.0788862
-0.0435891
-0.00605406
0.0223202
0.0378498
0.0746522
0.109065
0.156051
0.218657
0.27325
0.32192
0.374303
0.432761
0.477254
0.518064
0.555246
0.585525
0.608034
0.632334
0.655142
0.673598
0.688176
0.707086
0.724686
0.740498
0.754649
0.766771
0.776613
0.782508
0.785559
0.786544
0.785977
0.784003
0.779422
0.771305
0.75895
0.741951
0.720149
0.693685
0.664763
0.637728
0.614535
0.595055
0.578929
0.565713
0.555319
0.547167
0.542315
0.538859
0.540624
0.542459
0.549411
0.555027
0.563423
0.569519
0.576388
-5.17844e-07
-3.96955e-07
-4.15694e-07
-4.57112e-07
-5.6822e-07
-7.22456e-07
-8.96127e-07
-1.07287e-06
-1.35953e-06
-1.75537e-06
-1.96069e-06
-2.07761e-06
-2.42145e-06
-2.30031e-06
-2.43641e-06
-1.89801e-06
2.34864e-07
1.13164e-06
-4.27524e-07
3.57457e-06
7.06112e-06
-1.04524e-06
1.3546e-05
3.46717e-05
7.60974e-06
-1.10242e-05
4.71526e-05
7.82076e-05
3.67619e-05
3.83748e-05
5.76211e-05
4.93753e-05
9.89252e-06
3.31164e-05
6.16211e-05
7.58448e-05
3.15305e-05
-0.000137652
-0.000196726
-0.000184423
-9.6748e-05
-2.71902e-05
-5.81964e-05
-0.000270716
-0.00115498
-0.00778877
-0.059753
-0.429348
-0.830258
-0.853539
-0.848334
-0.841292
-0.830902
-0.817209
-0.794238
-0.752664
-0.687974
-0.582113
-0.465034
-0.32747
-0.222842
-0.141681
-0.0619933
-0.00851808
0.0295613
0.0698926
0.138598
0.177222
0.233839
0.285317
0.339835
0.391645
0.442515
0.483705
0.522085
0.555623
0.58007
0.60197
0.625008
0.647518
0.662031
0.67659
0.688434
0.702074
0.714586
0.727817
0.741717
0.753962
0.765453
0.774991
0.781813
0.785764
0.787575
0.78758
0.786746
0.784178
0.779387
0.771506
0.759736
0.743458
0.722933
0.698502
0.672055
0.647082
0.625815
0.608209
0.593451
0.581594
0.57219
0.565306
0.56069
0.557493
0.55904
0.56043
0.56603
0.57011
0.57728
0.58255
0.58879
-5.58066e-07
-4.27451e-07
-4.55818e-07
-4.96996e-07
-6.08191e-07
-7.88408e-07
-1.03134e-06
-1.23357e-06
-1.45348e-06
-1.95556e-06
-2.33442e-06
-2.48406e-06
-2.79458e-06
-2.69502e-06
-2.85061e-06
-2.8882e-06
-6.748e-07
8.78107e-07
2.27232e-07
-7.48024e-07
7.36737e-08
-6.09988e-07
9.21997e-06
2.22127e-05
2.01155e-06
-1.5762e-05
2.8946e-05
9.14507e-05
6.40612e-05
2.13917e-05
3.1806e-05
4.91872e-05
2.70923e-05
2.57615e-05
2.70343e-05
8.76347e-05
2.46624e-06
-0.000124603
-0.000260825
-0.000117219
-3.4387e-05
9.88682e-05
0.000224449
0.000225143
-0.0014535
-0.0148613
-0.124733
-0.622959
-0.842168
-0.851662
-0.850056
-0.846413
-0.842031
-0.837703
-0.82477
-0.800255
-0.765765
-0.69489
-0.583323
-0.378362
-0.201752
-0.0644473
0.0281941
0.12506
0.185589
0.236793
0.307009
0.348401
0.406658
0.454824
0.491797
0.524433
0.553629
0.576316
0.596368
0.620826
0.639418
0.653551
0.665328
0.678986
0.68866
0.699477
0.709838
0.718359
0.728808
0.739086
0.750747
0.761884
0.771934
0.779608
0.784469
0.787187
0.788033
0.7876
0.786261
0.783581
0.779027
0.771621
0.760361
0.744853
0.725609
0.703053
0.678853
0.655896
0.636643
0.620629
0.607088
0.596597
0.58829
0.58268
0.578068
0.575219
0.57642
0.577476
0.581648
0.584467
0.590559
0.59504
0.600503
-5.90502e-07
-4.4883e-07
-4.8573e-07
-5.42223e-07
-6.54178e-07
-8.34435e-07
-1.13587e-06
-1.43376e-06
-1.61468e-06
-2.06165e-06
-2.64045e-06
-2.90264e-06
-3.22455e-06
-3.21872e-06
-3.16522e-06
-3.82941e-06
-2.03625e-06
4.41598e-07
-4.37338e-07
-5.19424e-06
-7.52713e-06
-2.05309e-07
8.1956e-06
1.05977e-05
-4.3529e-06
-1.63556e-05
3.05097e-05
7.64244e-05
6.21472e-05
8.04254e-06
1.20236e-05
6.0269e-05
6.10067e-05
2.69386e-05
-5.18152e-06
4.22075e-05
2.73385e-05
-5.33744e-06
-0.000193885
-0.000129036
-5.06603e-05
4.71109e-05
3.70023e-05
-0.000610853
-0.00462046
-0.0335907
-0.25483
-0.757783
-0.853266
-0.852444
-0.850287
-0.848122
-0.848451
-0.847422
-0.838248
-0.823892
-0.798267
-0.731667
-0.63073
-0.38712
-0.115314
0.0790456
0.204721
0.29199
0.355109
0.409244
0.456913
0.494048
0.528498
0.55383
0.574718
0.5924
0.615499
0.632064
0.643811
0.656299
0.668022
0.679129
0.687023
0.696594
0.704589
0.712142
0.721167
0.728797
0.737967
0.747474
0.757967
0.767909
0.775817
0.781545
0.785377
0.787533
0.787945
0.787341
0.785842
0.78328
0.779042
0.772082
0.761426
0.746815
0.728799
0.707916
0.685643
0.664559
0.6471
0.632343
0.620039
0.610822
0.603502
0.599167
0.594514
0.592205
0.592845
0.593419
0.596251
0.59797
0.603094
0.606825
0.611413
-6.33213e-07
-4.77987e-07
-5.14494e-07
-5.95666e-07
-7.26196e-07
-8.94442e-07
-1.20664e-06
-1.63326e-06
-1.89975e-06
-2.25444e-06
-2.92079e-06
-3.37884e-06
-3.80705e-06
-3.91124e-06
-3.73303e-06
-4.51668e-06
-3.65994e-06
-7.64607e-07
-2.48418e-06
-1.27244e-05
-1.2274e-05
3e-06
4.54002e-06
-5.23851e-06
-1.41313e-05
-3.8574e-06
4.09148e-05
5.61734e-05
3.99475e-05
-1.54314e-05
-5.29763e-06
9.28845e-05
0.000106931
2.54871e-05
-6.34208e-05
-2.95945e-05
0.000125274
6.71121e-05
-0.000137147
-0.000204621
-7.56128e-05
7.22336e-05
-3.44769e-05
-0.000850353
-0.00713897
-0.0595753
-0.441077
-0.833386
-0.855139
-0.85425
-0.850383
-0.848288
-0.847754
-0.845761
-0.835731
-0.822309
-0.789354
-0.691587
-0.531276
-0.221884
0.0729282
0.249869
0.361481
0.437576
0.489039
0.521809
0.547889
0.57144
0.596004
0.614466
0.628146
0.6365
0.645967
0.658239
0.667922
0.678957
0.687715
0.696341
0.702736
0.709884
0.717219
0.722257
0.729559
0.736324
0.744416
0.752981
0.762173
0.770697
0.777219
0.782071
0.785445
0.787256
0.78749
0.786793
0.785413
0.783104
0.779238
0.772558
0.762391
0.748684
0.731872
0.712671
0.692372
0.673079
0.657095
0.643515
0.632533
0.624402
0.617928
0.614663
0.61019
0.608768
0.608554
0.608416
0.610068
0.610889
0.615058
0.618027
0.62176
-6.70651e-07
-5.06447e-07
-5.33071e-07
-6.28432e-07
-8.07327e-07
-9.9272e-07
-1.2618e-06
-1.74729e-06
-2.16358e-06
-2.53168e-06
-3.1756e-06
-3.69982e-06
-4.25009e-06
-4.71772e-06
-4.71263e-06
-5.33381e-06
-4.93798e-06
-2.55994e-06
-7.32134e-06
-1.9467e-05
-1.0507e-05
3.24478e-06
-3.84377e-06
-1.85706e-05
-1.53612e-05
2.35034e-05
5.90158e-05
2.54595e-05
-2.08518e-05
-7.40461e-05
1.03255e-05
0.000172942
0.000146576
1.94215e-05
-0.000100903
-0.000134874
7.45626e-05
0.000200539
0.000122735
-7.66737e-05
1.58816e-05
1.16544e-05
7.7006e-05
-0.00162636
-0.0155488
-0.130623
-0.636841
-0.839903
-0.85086
-0.850364
-0.84792
-0.846432
-0.847236
-0.840164
-0.821645
-0.795333
-0.718854
-0.547659
-0.268962
0.0446909
0.258147
0.386377
0.46674
0.521146
0.560153
0.588311
0.609045
0.624479
0.636864
0.648468
0.65935
0.666588
0.672667
0.680298
0.686733
0.69463
0.70101
0.70743
0.712731
0.717537
0.723795
0.72735
0.733655
0.739923
0.747416
0.755717
0.76459
0.772686
0.778346
0.782471
0.785315
0.786877
0.786835
0.786351
0.785324
0.783157
0.779431
0.772978
0.763303
0.750474
0.734911
0.717477
0.699087
0.681338
0.66664
0.65428
0.644582
0.637312
0.631492
0.628823
0.624806
0.624732
0.623384
0.62242
0.623097
0.623226
0.62643
0.628503
0.631573
-7.13752e-07
-5.46243e-07
-5.67061e-07
-6.54402e-07
-8.72077e-07
-1.13415e-06
-1.39788e-06
-1.85705e-06
-2.39958e-06
-2.90667e-06
-3.63848e-06
-4.11175e-06
-4.51093e-06
-5.41033e-06
-5.82679e-06
-6.92835e-06
-6.61647e-06
-5.72028e-06
-1.27659e-05
-2.17643e-05
-8.36823e-06
1.62802e-06
-1.58573e-05
-3.41429e-05
-1.551e-05
5.19284e-05
5.97822e-05
-2.81126e-05
-8.83742e-05
-0.000114116
9.29656e-05
0.000230217
0.000127472
1.08673e-05
-0.00011372
-0.000187266
-1.22957e-05
0.000218481
0.000187542
0.000177136
0.000160207
-5.51229e-06
-0.000922898
-0.00528575
-0.0361953
-0.278211
-0.765867
-0.843745
-0.844819
-0.844492
-0.841705
-0.839357
-0.84068
-0.823515
-0.783898
-0.719709
-0.551387
-0.265511
0.0417797
0.25649
0.394088
0.4837
0.541863
0.580635
0.607154
0.627228
0.643953
0.657298
0.66801
0.675515
0.682514
0.686691
0.689238
0.69259
0.696445
0.701907
0.707184
0.71301
0.71859
0.722756
0.728894
0.733451
0.739406
0.744554
0.750968
0.758305
0.765899
0.772686
0.777489
0.781347
0.784
0.785672
0.785962
0.786131
0.785554
0.783669
0.780084
0.77386
0.764649
0.752716
0.738399
0.722653