/*--------------------------------*- C++ -*----------------------------------*\
| =========                 |                                                 |
| \\      /  F ield         | OpenFOAM: The Open Source CFD Toolbox           |
|  \\    /   O peration     | Version:  2.2.x                                 |
|   \\  /    A nd           | Web:      www.OpenFOAM.org                      |
|    \\/     M anipulation  |                                                 |
\*---------------------------------------------------------------------------*/
FoamFile
{
    version     2.0;
    format      ascii;
    class       volScalarField;
    location    "0.13";
    object      Bz;
}
// * * * * * * * * * * * * * * * * * * * * * * * * * * * * * * * * * * * * * //

dimensions      [1 0 -2 0 0 -1 0];

internalField   nonuniform List<scalar> 
1024
(
0.56419
0.56419
0.56419
0.56419
0.56419
0.56419
0.56419
0.56419
0.56419
0.56419
0.56419
0.56419
0.56419
0.56419
0.56419
0.56419
0.56419
0.56419
0.56419
0.56419
0.56419
0.56419
0.56419
0.56419
0.56419
0.56419
0.56419
0.56419
0.56419
0.56419
0.56419
0.56419
0.56419
0.56419
0.56419
0.56419
0.56419
0.56419
0.56419
0.56419
0.56419
0.56419
0.56419
0.56419
0.56419
0.56419
0.56419
0.56419
0.56419
0.56419
0.56419
0.56419
0.56419
0.56419
0.56419
0.56419
0.56419
0.56419
0.56419
0.56419
0.56419
0.56419
0.56419
0.56419
0.56419
0.56419
0.56419
0.56419
0.56419
0.56419
0.56419
0.56419
0.56419
0.56419
0.56419
0.56419
0.56419
0.56419
0.56419
0.56419
0.56419
0.56419
0.56419
0.56419
0.56419
0.56419
0.56419
0.56419
0.56419
0.56419
0.56419
0.56419
0.56419
0.56419
0.56419
0.56419
0.56419
0.56419
0.56419
0.56419
0.56419
0.56419
0.56419
0.56419
0.56419
0.56419
0.56419
0.56419
0.56419
0.56419
0.56419
0.56419
0.56419
0.56419
0.56419
0.56419
0.56419
0.56419
0.56419
0.56419
0.56419
0.56419
0.56419
0.56419
0.56419
0.56419
0.56419
0.56419
0.56419
0.56419
0.56419
0.56419
0.56419
0.56419
0.56419
0.56419
0.56419
0.56419
0.56419
0.56419
0.56419
0.56419
0.56419
0.56419
0.56419
0.56419
0.56419
0.56419
0.56419
0.56419
0.56419
0.56419
0.56419
0.56419
0.56419
0.56419
0.56419
0.56419
0.56419
0.56419
0.56419
0.56419
0.56419
0.56419
0.56419
0.56419
0.56419
0.56419
0.56419
0.56419
0.56419
0.56419
0.56419
0.56419
0.56419
0.56419
0.56419
0.56419
0.56419
0.56419
0.56419
0.56419
0.56419
0.56419
0.56419
0.56419
0.56419
0.56419
0.56419
0.56419
0.56419
0.56419
0.56419
0.56419
0.56419
0.56419
0.56419
0.56419
0.56419
0.564191
0.564192
0.564197
0.564211
0.564255
0.564392
0.564812
0.566105
0.570021
0.581447
0.611828
0.669295
0.712719
0.735193
0.745699
0.750377
0.752433
0.753308
0.753694
0.753847
0.753912
0.753935
0.753944
0.753957
0.753956
0.753949
0.753936
0.753928
0.753919
0.753913
0.753911
0.753911
0.753918
0.753921
0.75393
0.753941
0.753952
0.753961
0.753966
0.753966
0.753965
0.753963
0.75396
0.753956
0.753957
0.753954
0.753955
0.753954
0.753957
0.753955
0.753954
0.753951
0.753948
0.753946
0.753944
0.753944
0.753943
0.753945
0.75395
0.753956
0.753964
0.753969
0.753973
0.753971
0.753967
0.753964
0.75396
0.753956
0.753948
0.753942
0.753938
0.753937
0.753938
0.753941
0.753944
0.753945
0.753945
0.753945
0.753945
0.753946
0.753948
0.753948
0.75395
0.75395
0.753953
0.753954
0.753955
0.753955
0.753951
0.753945
0.753938
0.753931
0.753926
0.753922
0.75392
0.753921
0.753921
0.753924
0.753926
0.753932
0.753937
0.753944
0.753948
0.753949
0.753948
0.753947
0.753948
0.75395
0.753952
0.753953
0.753954
0.753954
0.753952
0.753951
0.753948
0.753944
0.75394
0.753935
0.753931
0.75393
0.75393
0.753932
0.753935
0.753939
0.753944
0.753948
0.753952
0.753955
0.753955
0.753953
0.753952
0.753949
0.753948
0.753945
0.753942
0.753937
0.753933
0.753928
0.753925
0.753921
0.753919
0.753916
0.753915
0.753916
0.753919
0.753924
0.753934
0.753943
0.75395
0.753956
0.753959
0.753959
0.753957
0.753952
0.753944
0.753936
0.753929
0.753923
0.753916
0.753908
0.753896
0.753875
0.753835
0.753767
0.753643
0.753416
0.753038
0.752346
0.751157
0.749129
0.745727
0.740092
0.731025
0.716643
0.695145
0.662001
0.622962
0.590331
0.562673
0.53971
0.521548
0.507155
0.497588
0.489777
0.485691
0.481262
0.478832
0.476166
0.476408
0.478534
0.484273
0.486337
0.47986
0.46626
0.453547
0.446487
0.441355
0.439535
0.439361
0.43907
0.438189
0.438148
0.437873
0.437931
0.437754
0.437875
0.437773
0.437861
0.437769
0.437884
0.437833
0.437934
0.437863
0.437928
0.437867
0.437904
0.437785
0.43775
0.437649
0.437662
0.43771
0.437801
0.43782
0.437813
0.437784
0.437745
0.437704
0.437692
0.437731
0.437867
0.437919
0.437815
0.437637
0.437608
0.437717
0.437833
0.437847
0.4378
0.437773
0.437774
0.437788
0.437858
0.438
0.438087
0.4381
0.438031
0.437882
0.437787
0.437786
0.4379
0.438096
0.438202
0.438194
0.437876
0.437303
0.437022
0.436947
0.437065
0.43768
0.43819
0.43834
0.438313
0.437908
0.437337
0.437208
0.43725
0.437615
0.437989
0.438082
0.438048
0.437713
0.437495
0.437613
0.438529
0.440193
0.441527
0.442651
0.446293
0.458264
0.469446
0.477947
0.483858
0.486425
0.486956
0.486269
0.486139
0.491271
0.496078
0.496748
0.499873
0.523083
0.56336
0.590801
0.632294
0.675878
0.7163
0.740888
0.761418
0.77811
0.784886
0.793231
0.795195
0.797785
0.798284
0.798895
0.798989
0.799128
0.799151
0.799145
0.799149
0.799098
0.799096
0.799052
0.799049
0.799029
0.79904
0.799038
0.799051
0.79905
0.799067
0.799074
0.799094
0.799111
0.799128
0.799134
0.799137
0.799134
0.799131
0.799127
0.799115
0.799111
0.79909
0.799076
0.799047
0.799029
0.79902
0.799027
0.799023
0.799042
0.799054
0.799084
0.799102
0.799109
0.799105
0.799107
0.799094
0.799085
0.799067
0.799055
0.799053
0.799054
0.799056
0.799061
0.799064
0.799062
0.799063
0.799056
0.799049
0.79904
0.799041
0.799038
0.799045
0.799049
0.799069
0.799073
0.799099
0.799119
0.799146
0.79916
0.799166
0.799165
0.799167
0.799159
0.79916
0.799149
0.799139
0.799131
0.79913
0.799129
0.799135
0.799136
0.799146
0.799151
0.799165
0.799175
0.79918
0.79918
0.79918
0.799175
0.799173
0.799162
0.799156
0.799142
0.799132
0.799128
0.799128
0.799128
0.799134
0.799133
0.799144
0.799149
0.799161
0.799169
0.799172
0.799172
0.799173
0.799168
0.799168
0.799163
0.799162
0.799156
0.799157
0.799152
0.799156
0.799149
0.799155
0.799144
0.799156
0.799139
0.799158
0.799128
0.799159
0.799109
0.799166
0.799091
0.799188
0.799056
0.799197
0.799017
0.799178
0.798969
0.799099
0.799179
0.798405
0.801079
0.795265
0.802614
0.785351
0.817229
0.737666
0.725371
0.602384
0.570862
0.564952
0.564284
0.564201
0.564191
0.56419
0.56419
0.56419
0.56419
0.56419
0.56419
0.56419
0.56419
0.56419
0.56419
0.56419
0.56419
0.56419
0.56419
0.56419
0.56419
0.56419
0.56419
0.56419
0.56419
0.56419
0.56419
0.56419
0.56419
0.56419
0.56419
0.56419
0.56419
0.56419
0.56419
0.56419
0.56419
0.56419
0.56419
0.56419
0.56419
0.56419
0.56419
0.56419
0.56419
0.56419
0.56419
0.56419
0.56419
0.56419
0.56419
0.56419
0.56419
0.56419
0.56419
0.56419
0.56419
0.56419
0.56419
0.56419
0.56419
0.56419
0.56419
0.56419
0.56419
0.56419
0.56419
0.56419
0.56419
0.56419
0.56419
0.56419
0.56419
0.56419
0.56419
0.56419
0.56419
0.56419
0.56419
0.56419
0.56419
0.56419
0.56419
0.56419
0.56419
0.56419
0.56419
0.56419
0.56419
0.56419
0.56419
0.56419
0.56419
0.56419
0.56419
0.56419
0.56419
0.56419
0.56419
0.56419
0.56419
0.56419
0.56419
0.56419
0.56419
0.56419
0.56419
0.56419
0.56419
0.56419
0.56419
0.56419
0.56419
0.56419
0.56419
0.56419
0.56419
0.56419
0.56419
0.56419
0.56419
0.56419
0.56419
0.56419
0.56419
0.56419
0.56419
0.56419
0.56419
0.56419
0.56419
0.56419
0.56419
0.56419
0.56419
0.56419
0.56419
0.56419
0.56419
0.56419
0.56419
0.56419
0.56419
0.56419
0.56419
0.56419
0.56419
0.56419
0.56419
0.56419
0.56419
0.56419
0.56419
0.56419
0.56419
0.56419
0.56419
0.56419
0.56419
0.56419
0.56419
0.56419
0.56419
0.56419
0.56419
0.56419
0.56419
0.56419
0.56419
0.56419
0.56419
0.56419
0.56419
0.56419
0.56419
0.56419
0.56419
0.56419
0.56419
0.56419
0.56419
0.56419
0.56419
0.56419
0.56419
0.56419
0.56419
0.56419
0.56419
0.56419
0.56419
0.56419
0.56419
0.56419
0.56419
0.56419
0.56419
0.56419
0.56419
0.56419
0.56419
0.56419
0.56419
0.56419
0.56419
0.56419
0.56419
0.56419
0.56419
0.56419
0.56419
0.56419
0.56419
0.56419
0.56419
0.56419
0.56419
0.56419
0.56419
0.56419
0.56419
0.56419
0.56419
0.56419
0.56419
0.56419
0.56419
0.56419
0.56419
0.56419
0.56419
0.56419
0.56419
0.56419
0.56419
0.56419
0.56419
0.56419
0.56419
0.56419
0.56419
0.56419
0.56419
0.56419
0.56419
0.56419
0.56419
0.56419
0.56419
0.56419
0.56419
0.56419
0.56419
0.56419
0.56419
0.56419
0.56419
0.56419
0.56419
0.56419
0.56419
0.56419
0.56419
0.56419
0.56419
0.56419
0.56419
0.56419
0.56419
0.56419
0.56419
0.56419
0.56419
0.56419
0.56419
0.56419
0.56419
0.56419
0.56419
0.56419
0.56419
0.56419
0.56419
0.56419
0.56419
0.56419
0.56419
0.56419
0.56419
0.56419
0.56419
0.56419
0.56419
0.56419
0.56419
0.56419
0.56419
0.56419
0.56419
0.56419
0.56419
0.56419
0.56419
0.56419
0.56419
0.56419
0.56419
0.56419
0.56419
0.56419
0.56419
0.56419
0.56419
0.56419
0.56419
0.56419
0.56419
0.56419
0.56419
0.56419
0.56419
0.56419
0.56419
0.56419
0.56419
0.56419
0.56419
0.56419
0.56419
0.56419
0.56419
0.56419
0.56419
0.56419
0.56419
0.56419
0.56419
0.56419
0.56419
0.56419
0.56419
0.56419
0.56419
0.56419
0.56419
0.56419
0.56419
0.56419
0.56419
0.56419
0.56419
0.56419
0.56419
0.56419
0.56419
0.56419
0.56419
0.56419
0.56419
0.56419
0.56419
0.56419
0.56419
0.56419
0.56419
0.56419
0.56419
0.56419
0.56419
0.56419
0.56419
0.56419
0.56419
0.56419
0.56419
0.56419
0.56419
0.56419
0.56419
0.56419
0.56419
0.56419
0.56419
)
;

boundaryField
{
    front-back
    {
        type            empty;
    }
    inlet-outlet
    {
        type            calculated;
        value           uniform 0.56419;
    }
    top-down
    {
        type            empty;
    }
}


// ************************************************************************* //
