/*--------------------------------*- C++ -*----------------------------------*\
| =========                 |                                                 |
| \\      /  F ield         | OpenFOAM: The Open Source CFD Toolbox           |
|  \\    /   O peration     | Version:  2.2.x                                 |
|   \\  /    A nd           | Web:      www.OpenFOAM.org                      |
|    \\/     M anipulation  |                                                 |
\*---------------------------------------------------------------------------*/
FoamFile
{
    version     2.0;
    format      ascii;
    class       volScalarField;
    location    "0.09";
    object      Bz;
}
// * * * * * * * * * * * * * * * * * * * * * * * * * * * * * * * * * * * * * //

dimensions      [1 0 -2 0 0 -1 0];

internalField   nonuniform List<scalar> 
1024
(
0.56419
0.56419
0.56419
0.56419
0.56419
0.56419
0.56419
0.56419
0.56419
0.56419
0.56419
0.56419
0.56419
0.56419
0.56419
0.56419
0.56419
0.56419
0.56419
0.56419
0.56419
0.56419
0.56419
0.56419
0.56419
0.56419
0.56419
0.56419
0.56419
0.56419
0.56419
0.56419
0.56419
0.56419
0.56419
0.56419
0.56419
0.56419
0.56419
0.56419
0.56419
0.56419
0.56419
0.56419
0.56419
0.56419
0.56419
0.56419
0.56419
0.56419
0.56419
0.56419
0.56419
0.56419
0.56419
0.56419
0.56419
0.56419
0.56419
0.56419
0.56419
0.56419
0.56419
0.56419
0.56419
0.56419
0.56419
0.56419
0.56419
0.56419
0.56419
0.56419
0.56419
0.56419
0.56419
0.56419
0.56419
0.56419
0.56419
0.56419
0.56419
0.56419
0.56419
0.56419
0.56419
0.56419
0.56419
0.56419
0.56419
0.56419
0.56419
0.56419
0.56419
0.56419
0.56419
0.56419
0.56419
0.56419
0.56419
0.56419
0.56419
0.56419
0.56419
0.56419
0.56419
0.56419
0.56419
0.56419
0.56419
0.56419
0.56419
0.56419
0.56419
0.56419
0.56419
0.56419
0.56419
0.56419
0.56419
0.56419
0.56419
0.56419
0.56419
0.56419
0.56419
0.56419
0.56419
0.56419
0.56419
0.56419
0.56419
0.56419
0.56419
0.56419
0.56419
0.56419
0.56419
0.56419
0.56419
0.56419
0.56419
0.56419
0.56419
0.56419
0.56419
0.56419
0.56419
0.56419
0.56419
0.56419
0.56419
0.56419
0.56419
0.56419
0.56419
0.56419
0.56419
0.56419
0.56419
0.56419
0.56419
0.56419
0.56419
0.56419
0.56419
0.56419
0.56419
0.56419
0.56419
0.56419
0.56419
0.56419
0.56419
0.56419
0.56419
0.56419
0.56419
0.56419
0.56419
0.56419
0.56419
0.56419
0.56419
0.56419
0.56419
0.56419
0.56419
0.56419
0.56419
0.56419
0.56419
0.56419
0.56419
0.56419
0.56419
0.56419
0.56419
0.56419
0.56419
0.56419
0.56419
0.56419
0.56419
0.56419
0.56419
0.56419
0.56419
0.56419
0.56419
0.56419
0.56419
0.56419
0.56419
0.56419
0.56419
0.56419
0.56419
0.56419
0.56419
0.56419
0.56419
0.56419
0.56419
0.56419
0.56419
0.56419
0.56419
0.56419
0.56419
0.56419
0.56419
0.56419
0.56419
0.56419
0.56419
0.56419
0.56419
0.56419
0.56419
0.56419
0.56419
0.56419
0.56419
0.56419
0.56419
0.56419
0.56419
0.56419
0.56419
0.56419
0.56419
0.56419
0.56419
0.56419
0.56419
0.56419
0.56419
0.56419
0.56419
0.56419
0.56419
0.56419
0.56419
0.56419
0.56419
0.56419
0.56419
0.56419
0.56419
0.56419
0.56419
0.56419
0.56419
0.56419
0.56419
0.56419
0.56419
0.56419
0.56419
0.56419
0.56419
0.56419
0.56419
0.56419
0.56419
0.56419
0.56419
0.56419
0.56419
0.56419
0.56419
0.56419
0.564191
0.564193
0.564199
0.564219
0.564281
0.56447
0.565052
0.566837
0.572205
0.58759
0.626797
0.684263
0.720626
0.738809
0.74715
0.750845
0.752467
0.753161
0.753502
0.75365
0.75373
0.753798
0.753843
0.75389
0.753934
0.753962
0.753981
0.753996
0.754013
0.754033
0.754046
0.754044
0.754031
0.754018
0.753999
0.753974
0.753954
0.753935
0.753918
0.753905
0.7539
0.753901
0.753904
0.753907
0.753907
0.753904
0.753901
0.753901
0.753907
0.753922
0.753935
0.753944
0.753953
0.753959
0.753969
0.753977
0.753981
0.75398
0.753973
0.753961
0.753944
0.753931
0.753921
0.753915
0.753912
0.753913
0.753914
0.753919
0.753923
0.753928
0.753934
0.75394
0.753943
0.753944
0.753946
0.753947
0.753949
0.753954
0.753958
0.753961
0.753962
0.75396
0.753954
0.753944
0.753929
0.753916
0.753906
0.753898
0.753895
0.753896
0.753903
0.753913
0.75393
0.753949
0.753963
0.753972
0.753977
0.753978
0.753978
0.753975
0.75397
0.753961
0.753951
0.753944
0.753941
0.753938
0.753936
0.753931
0.753923
0.753911
0.753897
0.753877
0.753842
0.753776
0.753661
0.75345
0.753043
0.752301
0.750941
0.748473
0.744183
0.736836
0.724633
0.704884
0.674042
0.630915
0.592633
0.561593
0.5359
0.51534
0.498976
0.485864
0.475288
0.466885
0.461512
0.460203
0.46092
0.457868
0.452313
0.446788
0.442586
0.440281
0.439154
0.438216
0.438143
0.437962
0.437901
0.43778
0.437757
0.437627
0.437589
0.437551
0.437733
0.438002
0.438125
0.438007
0.437807
0.437746
0.437657
0.437656
0.437834
0.438106
0.438106
0.437812
0.437588
0.437584
0.437732
0.437881
0.437899
0.437798
0.437576
0.43738
0.437327
0.437407
0.437734
0.438123
0.438249
0.438086
0.437485
0.437052
0.436968
0.437184
0.438125
0.438828
0.439071
0.438839
0.437313
0.435932
0.43562
0.437125
0.4403
0.441804
0.440789
0.438634
0.439531
0.450168
0.465144
0.473435
0.481439
0.488299
0.493053
0.498629
0.508171
0.512438
0.531707
0.586747
0.64194
0.688772
0.723032
0.754338
0.775633
0.78351
0.793197
0.795197
0.798017
0.798434
0.799009
0.798943
0.79903
0.79901
0.79908
0.799103
0.799175
0.799176
0.799217
0.799189
0.799177
0.799109
0.799096
0.799077
0.799105
0.799111
0.799147
0.799173
0.799199
0.79921
0.799234
0.799244
0.799258
0.799244
0.799252
0.799212
0.79921
0.799154
0.799115
0.799085
0.799088
0.799072
0.799098
0.799087
0.799125
0.799145
0.799184
0.799202
0.799212
0.799208
0.799213
0.799199
0.799196
0.799175
0.799157
0.799145
0.799143
0.799141
0.799143
0.799143
0.79915
0.799154
0.799158
0.799158
0.799159
0.799157
0.799158
0.799153
0.799152
0.799146
0.799148
0.79914
0.799142
0.799133
0.799138
0.799124
0.799129
0.799099
0.799097
0.799059
0.799053
0.799019
0.799047
0.799009
0.799063
0.799003
0.79908
0.798971
0.799102
0.798942
0.799118
0.798952
0.79915
0.799049
0.798854
0.799862
0.796298
0.802053
0.792473
0.809854
0.761205
0.788797
0.668683
0.595183
0.567988
0.564675
0.564246
0.564197
0.564191
0.56419
0.56419
0.56419
0.56419
0.56419
0.56419
0.56419
0.56419
0.56419
0.56419
0.56419
0.56419
0.56419
0.56419
0.56419
0.56419
0.56419
0.56419
0.56419
0.56419
0.56419
0.56419
0.56419
0.56419
0.56419
0.56419
0.56419
0.56419
0.56419
0.56419
0.56419
0.56419
0.56419
0.56419
0.56419
0.56419
0.56419
0.56419
0.56419
0.56419
0.56419
0.56419
0.56419
0.56419
0.56419
0.56419
0.56419
0.56419
0.56419
0.56419
0.56419
0.56419
0.56419
0.56419
0.56419
0.56419
0.56419
0.56419
0.56419
0.56419
0.56419
0.56419
0.56419
0.56419
0.56419
0.56419
0.56419
0.56419
0.56419
0.56419
0.56419
0.56419
0.56419
0.56419
0.56419
0.56419
0.56419
0.56419
0.56419
0.56419
0.56419
0.56419
0.56419
0.56419
0.56419
0.56419
0.56419
0.56419
0.56419
0.56419
0.56419
0.56419
0.56419
0.56419
0.56419
0.56419
0.56419
0.56419
0.56419
0.56419
0.56419
0.56419
0.56419
0.56419
0.56419
0.56419
0.56419
0.56419
0.56419
0.56419
0.56419
0.56419
0.56419
0.56419
0.56419
0.56419
0.56419
0.56419
0.56419
0.56419
0.56419
0.56419
0.56419
0.56419
0.56419
0.56419
0.56419
0.56419
0.56419
0.56419
0.56419
0.56419
0.56419
0.56419
0.56419
0.56419
0.56419
0.56419
0.56419
0.56419
0.56419
0.56419
0.56419
0.56419
0.56419
0.56419
0.56419
0.56419
0.56419
0.56419
0.56419
0.56419
0.56419
0.56419
0.56419
0.56419
0.56419
0.56419
0.56419
0.56419
0.56419
0.56419
0.56419
0.56419
0.56419
0.56419
0.56419
0.56419
0.56419
0.56419
0.56419
0.56419
0.56419
0.56419
0.56419
0.56419
0.56419
0.56419
0.56419
0.56419
0.56419
0.56419
0.56419
0.56419
0.56419
0.56419
0.56419
0.56419
0.56419
0.56419
0.56419
0.56419
0.56419
0.56419
0.56419
0.56419
0.56419
0.56419
0.56419
0.56419
0.56419
0.56419
0.56419
0.56419
0.56419
0.56419
0.56419
0.56419
0.56419
0.56419
0.56419
0.56419
0.56419
0.56419
0.56419
0.56419
0.56419
0.56419
0.56419
0.56419
0.56419
0.56419
0.56419
0.56419
0.56419
0.56419
0.56419
0.56419
0.56419
0.56419
0.56419
0.56419
0.56419
0.56419
0.56419
0.56419
0.56419
0.56419
0.56419
0.56419
0.56419
0.56419
0.56419
0.56419
0.56419
0.56419
0.56419
0.56419
0.56419
0.56419
0.56419
0.56419
0.56419
0.56419
0.56419
0.56419
0.56419
0.56419
0.56419
0.56419
0.56419
0.56419
0.56419
0.56419
0.56419
0.56419
0.56419
0.56419
0.56419
0.56419
0.56419
0.56419
0.56419
0.56419
0.56419
0.56419
0.56419
0.56419
0.56419
0.56419
0.56419
0.56419
0.56419
0.56419
0.56419
0.56419
0.56419
0.56419
0.56419
0.56419
0.56419
0.56419
0.56419
0.56419
0.56419
0.56419
0.56419
0.56419
0.56419
0.56419
0.56419
0.56419
0.56419
0.56419
0.56419
0.56419
0.56419
0.56419
0.56419
0.56419
0.56419
0.56419
0.56419
0.56419
0.56419
0.56419
0.56419
0.56419
0.56419
0.56419
0.56419
0.56419
0.56419
0.56419
0.56419
0.56419
0.56419
0.56419
0.56419
0.56419
0.56419
0.56419
0.56419
0.56419
0.56419
0.56419
0.56419
0.56419
0.56419
0.56419
0.56419
0.56419
0.56419
0.56419
0.56419
0.56419
0.56419
0.56419
0.56419
0.56419
0.56419
0.56419
0.56419
0.56419
0.56419
0.56419
0.56419
0.56419
0.56419
0.56419
0.56419
0.56419
0.56419
0.56419
0.56419
0.56419
0.56419
0.56419
0.56419
0.56419
0.56419
0.56419
0.56419
0.56419
0.56419
0.56419
0.56419
0.56419
0.56419
0.56419
0.56419
0.56419
0.56419
0.56419
0.56419
0.56419
0.56419
0.56419
0.56419
0.56419
0.56419
0.56419
0.56419
0.56419
0.56419
0.56419
0.56419
0.56419
0.56419
0.56419
0.56419
0.56419
0.56419
0.56419
0.56419
0.56419
0.56419
0.56419
0.56419
0.56419
0.56419
0.56419
0.56419
0.56419
0.56419
0.56419
0.56419
)
;

boundaryField
{
    front-back
    {
        type            empty;
    }
    inlet-outlet
    {
        type            calculated;
        value           uniform 0.56419;
    }
    top-down
    {
        type            empty;
    }
}


// ************************************************************************* //
