/*--------------------------------*- C++ -*----------------------------------*\
| =========                 |                                                 |
| \\      /  F ield         | OpenFOAM: The Open Source CFD Toolbox           |
|  \\    /   O peration     | Version:  2.2.x                                 |
|   \\  /    A nd           | Web:      www.OpenFOAM.org                      |
|    \\/     M anipulation  |                                                 |
\*---------------------------------------------------------------------------*/
FoamFile
{
    version     2.0;
    format      ascii;
    class       surfaceScalarField;
    location    "0.09";
    object      cfmax;
}
// * * * * * * * * * * * * * * * * * * * * * * * * * * * * * * * * * * * * * //

dimensions      [0 3 -1 0 0 0 0];

internalField   nonuniform List<scalar> 
1023
(
1.84972
1.84972
1.84972
1.84972
1.84972
1.84972
1.84972
1.84972
1.84972
1.84972
1.84972
1.84972
1.84972
1.84972
1.84972
1.84972
1.84972
1.84972
1.84972
1.84972
1.84972
1.84972
1.84972
1.84972
1.84972
1.84972
1.84972
1.84972
1.84972
1.84972
1.84972
1.84972
1.84972
1.84972
1.84972
1.84972
1.84972
1.84972
1.84972
1.84972
1.84972
1.84972
1.84972
1.84972
1.84972
1.84972
1.84972
1.84972
1.84972
1.84972
1.84972
1.84972
1.84972
1.84972
1.84972
1.84972
1.84972
1.84972
1.84972
1.84972
1.84972
1.84972
1.84972
1.84972
1.84972
1.84972
1.84972
1.84972
1.84972
1.84972
1.84972
1.84972
1.84972
1.84972
1.84972
1.84972
1.84972
1.84972
1.84972
1.84972
1.84972
1.84972
1.84972
1.84972
1.84972
1.84972
1.84972
1.84972
1.84972
1.84972
1.84972
1.84972
1.84972
1.84972
1.84972
1.84972
1.84972
1.84972
1.84972
1.84972
1.84972
1.84972
1.84972
1.84972
1.84972
1.84972
1.84972
1.84972
1.84972
1.84972
1.84972
1.84972
1.84972
1.84972
1.84972
1.84972
1.84972
1.84972
1.84972
1.84972
1.84972
1.84972
1.84972
1.84972
1.84972
1.84972
1.84972
1.84972
1.84972
1.84972
1.84972
1.84972
1.84972
1.84972
1.84972
1.84972
1.84972
1.84972
1.84972
1.84972
1.84972
1.84972
1.84972
1.84972
1.84972
1.84972
1.84972
1.84972
1.84972
1.84972
1.84972
1.84972
1.84972
1.84972
1.84972
1.84972
1.84972
1.84972
1.84972
1.84972
1.84972
1.84972
1.84972
1.84972
1.84972
1.84972
1.84972
1.84972
1.84972
1.84972
1.84972
1.84972
1.84972
1.84972
1.84972
1.84972
1.84972
1.84972
1.84972
1.84972
1.84972
1.84972
1.84972
1.84972
1.84972
1.84972
1.84972
1.84972
1.84972
1.84972
1.84972
1.84972
1.84972
1.84972
1.84972
1.84972
1.84972
1.84972
1.84972
1.84972
1.84972
1.84972
1.84972
1.84972
1.84972
1.84972
1.84972
1.84972
1.84972
1.84972
1.84972
1.84972
1.84972
1.84972
1.84972
1.84972
1.84972
1.84972
1.84972
1.84972
1.84972
1.84972
1.84972
1.84972
1.84972
1.84972
1.84972
1.84972
1.84972
1.84972
1.84972
1.84972
1.84972
1.84972
1.84972
1.84972
1.84972
1.84972
1.84972
1.84972
1.84972
1.84972
1.84972
1.84972
1.84972
1.84972
1.84972
1.84972
1.84972
1.84972
1.84972
1.84972
1.84972
1.84972
1.84972
1.84972
1.84972
1.84972
1.84972
1.84972
1.84972
1.84972
1.84972
1.84972
1.84972
1.84972
1.84972
1.84972
1.84972
1.84972
1.84972
1.84972
1.84972
1.84972
1.84972
1.84972
1.84972
1.84972
1.84972
1.84972
1.84972
1.84972
1.84972
1.84972
1.84972
1.84972
1.84972
1.84972
1.84972
1.84972
1.84972
1.84973
1.84973
1.84975
1.8498
1.84995
1.85042
1.85189
1.85639
1.87005
1.91019
2.01796
2.24712
2.43883
2.53415
2.57762
2.59677
2.60507
2.60873
2.61026
2.611
2.61141
2.61166
2.61192
2.61214
2.6123
2.61242
2.61253
2.61262
2.61268
2.61271
2.6127
2.61269
2.61269
2.61268
2.61267
2.61261
2.61252
2.61245
2.61239
2.61235
2.61231
2.61228
2.61226
2.61224
2.61223
2.61224
2.61225
2.61227
2.6123
2.61235
2.6124
2.61246
2.6125
2.61252
2.61253
2.61253
2.61253
2.61253
2.61253
2.61252
2.61249
2.61245
2.61241
2.61239
2.61238
2.61236
2.61235
2.61234
2.61233
2.61234
2.61236
2.61239
2.61242
2.61245
2.61247
2.61249
2.6125
2.61251
2.61252
2.61251
2.6125
2.61249
2.61247
2.61244
2.61241
2.61236
2.61233
2.61231
2.6123
2.6123
2.6123
2.61232
2.61235
2.6124
2.61245
2.61248
2.61251
2.61252
2.61253
2.61254
2.61254
2.61251
2.61247
2.61243
2.6124
2.61237
2.61235
2.61233
2.61232
2.61231
2.6123
2.61231
2.61232
2.61232
2.61232
2.61232
2.61232
2.61233
2.61233
2.61233
2.61231
2.61228
2.61221
2.6121
2.61193
2.61172
2.61153
2.61128
2.61095
2.61042
2.60967
2.60844
2.60674
2.60293
2.59733
2.58723
2.56819
2.54785
2.53543
2.52633
2.52194
2.51905
2.51668
2.51638
2.51599
2.5155
2.51554
2.51572
2.51569
2.51564
2.51563
2.51576
2.51596
2.51616
2.51647
2.51699
2.51765
2.51806
2.51825
2.51825
2.5183
2.51793
2.51712
2.5153
2.51191
2.50577
2.49589
2.48147
2.46445
2.45153
2.44125
2.43338
2.42764
2.4236
2.4209
2.41913
2.41801
2.41735
2.41697
2.41676
2.41667
2.41661
2.41654
2.41649
2.4166
2.4168
2.41693
2.41677
2.41595
2.41563
2.41596
2.4175
2.41983
2.42158
2.42639
2.43773
2.45989
2.49171
2.5225
2.54267
2.55296
2.55634
2.55679
2.55263
2.54425
2.53551
2.54265
2.55286
2.55055
2.55129
2.54904
2.54979
2.55016
2.5493
2.54933
2.54904
2.54911
2.54913
2.54914
2.54914
2.54914
2.54911
2.54908
2.54906
2.54908
2.5491
2.54915
2.54926
2.54933
2.54935
2.54935
2.54935
2.54931
2.54927
2.54923
2.5492
2.54918
2.54915
2.54913
2.54912
2.54913
2.54915
2.54917
2.54921
2.54929
2.54932
2.54933
2.54933
2.54933
2.54931
2.54929
2.54927
2.54921
2.54918
2.54917
2.54917
2.54917
2.54918
2.54919
2.54921
2.54924
2.54925
2.54926
2.54925
2.54925
2.54925
2.54924
2.54923
2.54923
2.54923
2.54923
2.54923
2.54923
2.54924
2.54924
2.54924
2.54924
2.54924
2.54924
2.54924
2.54926
2.54928
2.54931
2.54933
2.54934
2.54936
2.54938
2.54939
2.5494
2.54941
2.54942
2.54942
2.54942
2.54942
2.54939
2.54934
2.54939
2.54949
2.54941
2.54952
2.55002
2.54991
2.549
2.55371
2.55371
2.55977
2.56286
2.59028
2.6614
2.83324
2.88258
2.88998
2.89084
2.89094
2.89095
2.89095
2.89095
2.89095
2.89095
2.89095
2.89095
2.89095
2.89095
2.89095
2.89095
2.89095
2.89095
2.89095
2.89095
2.89095
2.89095
2.89095
2.89095
2.89095
2.89095
2.89095
2.89095
2.89095
2.89095
2.89095
2.89095
2.89095
2.89095
2.89095
2.89095
2.89095
2.89095
2.89095
2.89095
2.89095
2.89095
2.89095
2.89095
2.89095
2.89095
2.89095
2.89095
2.89095
2.89095
2.89095
2.89095
2.89095
2.89095
2.89095
2.89095
2.89095
2.89095
2.89095
2.89095
2.89095
2.89095
2.89095
2.89095
2.89095
2.89095
2.89095
2.89095
2.89095
2.89095
2.89095
2.89095
2.89095
2.89095
2.89095
2.89095
2.89095
2.89095
2.89095
2.89095
2.89095
2.89095
2.89095
2.89095
2.89095
2.89095
2.89095
2.89095
2.89095
2.89095
2.89095
2.89095
2.89095
2.89095
2.89095
2.89095
2.89095
2.89095
2.89095
2.89095
2.89095
2.89095
2.89095
2.89095
2.89095
2.89095
2.89095
2.89095
2.89095
2.89095
2.89095
2.89095
2.89095
2.89095
2.89095
2.89095
2.89095
2.89095
2.89095
2.89095
2.89095
2.89095
2.89095
2.89095
2.89095
2.89095
2.89095
2.89095
2.89095
2.89095
2.89095
2.89095
2.89095
2.89095
2.89095
2.89095
2.89095
2.89095
2.89095
2.89095
2.89095
2.89095
2.89095
2.89095
2.89095
2.89095
2.89095
2.89095
2.89095
2.89095
2.89095
2.89095
2.89095
2.89095
2.89095
2.89095
2.89095
2.89095
2.89095
2.89095
2.89095
2.89095
2.89095
2.89095
2.89095
2.89095
2.89095
2.89095
2.89095
2.89095
2.89095
2.89095
2.89095
2.89095
2.89095
2.89095
2.89095
2.89095
2.89095
2.89095
2.89095
2.89095
2.89095
2.89095
2.89095
2.89095
2.89095
2.89095
2.89095
2.89095
2.89095
2.89095
2.89095
2.89095
2.89095
2.89095
2.89095
2.89095
2.89095
2.89095
2.89095
2.89095
2.89095
2.89095
2.89095
2.89095
2.89095
2.89095
2.89095
2.89095
2.89095
2.89095
2.89095
2.89095
2.89095
2.89095
2.89095
2.89095
2.89095
2.89095
2.89095
2.89095
2.89095
2.89095
2.89095
2.89095
2.89095
2.89095
2.89095
2.89095
2.89095
2.89095
2.89095
2.89095
2.89095
2.89095
2.89095
2.89095
2.89095
2.89095
2.89095
2.89095
2.89095
2.89095
2.89095
2.89095
2.89095
2.89095
2.89095
2.89095
2.89095
2.89095
2.89095
2.89095
2.89095
2.89095
2.89095
2.89095
2.89095
2.89095
2.89095
2.89095
2.89095
2.89095
2.89095
2.89095
2.89095
2.89095
2.89095
2.89095
2.89095
2.89095
2.89095
2.89095
2.89095
2.89095
2.89095
2.89095
2.89095
2.89095
2.89095
2.89095
2.89095
2.89095
2.89095
2.89095
2.89095
2.89095
2.89095
2.89095
2.89095
2.89095
2.89095
2.89095
2.89095
2.89095
2.89095
2.89095
2.89095
2.89095
2.89095
2.89095
2.89095
2.89095
2.89095
2.89095
2.89095
2.89095
2.89095
2.89095
2.89095
2.89095
2.89095
2.89095
2.89095
2.89095
2.89095
2.89095
2.89095
2.89095
2.89095
2.89095
2.89095
2.89095
2.89095
2.89095
2.89095
2.89095
2.89095
2.89095
2.89095
2.89095
2.89095
2.89095
2.89095
2.89095
2.89095
2.89095
2.89095
2.89095
2.89095
2.89095
2.89095
2.89095
2.89095
2.89095
2.89095
2.89095
2.89095
2.89095
2.89095
2.89095
2.89095
2.89095
2.89095
2.89095
2.89095
2.89095
2.89095
2.89095
2.89095
2.89095
2.89095
2.89095
2.89095
2.89095
2.89095
2.89095
2.89095
2.89095
2.89095
2.89095
2.89095
2.89095
2.89095
2.89095
2.89095
2.89095
2.89095
2.89095
2.89095
2.89095
2.89095
2.89095
2.89095
2.89095
2.89095
2.89095
2.89095
2.89095
2.89095
2.89095
2.89095
2.89095
2.89095
2.89095
2.89095
2.89095
2.89095
2.89095
2.89095
2.89095
2.89095
2.89095
2.89095
2.89095
2.89095
2.89095
2.89095
2.89095
2.89095
2.89095
2.89095
2.89095
2.89095
2.89095
2.89095
2.89095
2.89095
2.89095
2.89095
2.89095
2.89095
)
;

boundaryField
{
    front-back
    {
        type            empty;
        value           nonuniform 0();
    }
    inlet-outlet
    {
        type            calculated;
        value           nonuniform List<scalar> 2(2.89095 1.84972);
    }
    top-down
    {
        type            empty;
        value           nonuniform 0();
    }
}


// ************************************************************************* //
