/*--------------------------------*- C++ -*----------------------------------*\
| =========                 |                                                 |
| \\      /  F ield         | OpenFOAM: The Open Source CFD Toolbox           |
|  \\    /   O peration     | Version:  2.2.x                                 |
|   \\  /    A nd           | Web:      www.OpenFOAM.org                      |
|    \\/     M anipulation  |                                                 |
\*---------------------------------------------------------------------------*/
FoamFile
{
    version     2.0;
    format      ascii;
    class       volScalarField;
    location    "2.3";
    object      Ma;
}
// * * * * * * * * * * * * * * * * * * * * * * * * * * * * * * * * * * * * * //

dimensions      [0 0 0 0 0 0 0];

internalField   nonuniform List<scalar> 
14161
(
2.62256
2.61668
2.61791
2.61843
2.61931
2.62035
2.62151
2.62275
2.62429
2.62589
2.62745
2.6291
2.63097
2.63277
2.63456
2.63661
2.63839
2.64021
2.64218
2.64366
2.64485
2.64625
2.64749
2.64886
2.64983
2.65026
2.6504
2.65025
2.64994
2.64846
2.64689
2.64479
2.64176
2.63853
2.63347
2.6279
2.62062
2.61478
2.6077
2.59736
2.5778
2.56676
2.5344
2.53293
0.814446
0.510253
0.497375
0.522657
0.549142
0.581231
0.608889
0.635597
0.659951
0.684829
0.708115
0.731822
0.753558
0.773799
0.790092
0.802719
0.813085
0.822261
0.830843
0.838427
0.844827
0.849128
0.851374
0.852326
0.853021
0.85142
0.850441
0.849321
0.848152
0.846837
0.845202
0.843866
0.843071
0.842917
0.846136
0.848099
0.85136
0.85389
0.857069
0.860102
0.865013
0.86849
0.871216
0.87336
0.875466
0.882863
0.885998
0.887766
0.884885
0.893119
0.896571
0.898409
0.913897
0.918223
0.945443
0.965917
0.98608
1.02555
1.06572
1.10714
1.11989
1.13019
1.13513
1.14032
1.1418
0.997939
0.800557
0.647497
0.542992
0.461175
0.391282
0.322459
0.255397
0.183729
0.114754
2.62263
2.61669
2.61797
2.61854
2.61931
2.62021
2.62154
2.62294
2.62433
2.62579
2.62748
2.62925
2.63101
2.63281
2.63463
2.63661
2.63842
2.64031
2.64218
2.64368
2.64494
2.6463
2.64757
2.6489
2.64988
2.65031
2.65046
2.65032
2.65
2.64862
2.64699
2.64492
2.64215
2.63842
2.63382
2.6275
2.62162
2.61543
2.609
2.60043
2.58284
2.57277
2.55308
2.55159
0.860917
0.539217
0.533384
0.5603
0.58156
0.602986
0.623553
0.647379
0.670135
0.694418
0.717007
0.740632
0.76311
0.78308
0.799249
0.812119
0.822872
0.832356
0.841185
0.848794
0.855359
0.859582
0.861847
0.862671
0.862855
0.861508
0.860534
0.858914
0.857314
0.855557
0.853888
0.852484
0.851956
0.851926
0.855431
0.8573
0.860326
0.863173
0.866561
0.869799
0.87471
0.878176
0.881077
0.883447
0.885556
0.892722
0.895795
0.898118
0.895615
0.904655
0.908771
0.910558
0.926471
0.931217
0.958302
0.975213
1.00018
1.04139
1.07651
1.12268
1.13715
1.14824
1.15366
1.14538
0.903435
0.692502
0.522044
0.396226
0.321789
0.265866
0.228579
0.189647
0.16009
0.134245
0.177894
2.62259
2.61669
2.61794
2.61847
2.61933
2.62038
2.62151
2.62271
2.62433
2.62596
2.62744
2.62903
2.631
2.63288
2.63468
2.63653
2.63846
2.64033
2.64214
2.64366
2.64497
2.64634
2.64764
2.64892
2.64993
2.65039
2.65056
2.65045
2.6501
2.64886
2.64723
2.64521
2.64265
2.63924
2.63467
2.62889
2.62275
2.61817
2.61107
2.60225
2.58724
2.57529
2.55508
2.53826
0.886777
0.547404
0.540131
0.568313
0.584292
0.605861
0.626272
0.65052
0.673414
0.697784
0.720255
0.744846
0.768313
0.788796
0.80623
0.82045
0.832397
0.842976
0.852591
0.861049
0.868197
0.873432
0.876754
0.878927
0.880147
0.880835
0.879454
0.87889
0.877879
0.876725
0.875884
0.875112
0.87512
0.875352
0.879486
0.881864
0.884894
0.888358
0.891706
0.894914
0.899908
0.903285
0.905992
0.908052
0.909562
0.916239
0.91893
0.920971
0.918965
0.92746
0.931692
0.93237
0.947812
0.951324
0.978074
0.992521
1.02068
1.05945
1.09037
1.13713
1.14817
1.1518
1.14249
0.912896
0.718989
0.549216
0.429868
0.327817
0.250994
0.19398
0.160896
0.143605
0.145131
0.144563
0.233237
2.62261
2.61669
2.61798
2.61854
2.61932
2.6202
2.62156
2.62294
2.62432
2.62576
2.6275
2.62927
2.63099
2.63274
2.63474
2.63662
2.63846
2.64038
2.64213
2.64369
2.64511
2.64644
2.64783
2.64902
2.65002
2.65051
2.65073
2.65071
2.65043
2.64925
2.64782
2.64587
2.64341
2.63997
2.63553
2.63176
2.62628
2.6205
2.61545
2.60884
2.60576
2.60302
2.62253
2.62019
1.0719
0.5907
0.583091
0.61227
0.627229
0.649333
0.668958
0.692466
0.712981
0.73643
0.755701
0.78053
0.801856
0.820659
0.836247
0.849372
0.860351
0.87035
0.878746
0.886502
0.892627
0.897288
0.90022
0.902553
0.903643
0.904372
0.902961
0.902199
0.900813
0.899898
0.899304
0.898954
0.899209
0.900299
0.904629
0.907505
0.910322
0.914758
0.918296
0.921951
0.927521
0.931349
0.934484
0.936803
0.938186
0.945057
0.947577
0.9493
0.948335
0.957523
0.961853
0.961821
0.978171
0.98257
1.01054
1.02508
1.05579
1.08674
1.10996
1.15908
1.16319
1.14378
0.903765
0.698407
0.533378
0.462145
0.39877
0.327688
0.257813
0.195171
0.162781
0.147929
0.156556
0.161467
0.262806
2.62259
2.6167
2.61791
2.61842
2.61935
2.62042
2.62154
2.62274
2.62436
2.62598
2.62749
2.62906
2.63103
2.63297
2.63477
2.63653
2.63856
2.6404
2.64209
2.64375
2.6453
2.64658
2.64799
2.64919
2.65012
2.65067
2.65097
2.65101
2.65072
2.64983
2.64855
2.64685
2.64466
2.64199
2.6383
2.63384
2.62841
2.62302
2.61843
2.61047
2.60585
2.59596
2.6102
2.57312
1.28958
0.637616
0.618582
0.646232
0.655263
0.677343
0.692848
0.713524
0.730959
0.752765
0.768385
0.789116
0.805935
0.820077
0.835069
0.847377
0.858184
0.86694
0.873945
0.880329
0.885374
0.889306
0.891487
0.892835
0.893315
0.893404
0.891487
0.889873
0.888013
0.886462
0.885301
0.884507
0.884242
0.886735
0.889533
0.892788
0.895765
0.900346
0.903971
0.907512
0.913541
0.917805
0.921326
0.924279
0.925871
0.933035
0.936208
0.938552
0.938712
0.947436
0.951313
0.953891
0.966936
0.971849
0.999732
1.01683
1.03807
1.07372
1.10091
1.13245
1.09925
0.86856
0.654512
0.495643
0.435723
0.42364
0.384251
0.336704
0.286577
0.229814
0.19214
0.171685
0.17877
0.180296
0.284798
2.62258
2.61669
2.618
2.61856
2.61933
2.62023
2.62157
2.62299
2.62433
2.6258
2.62756
2.62931
2.63101
2.63285
2.63486
2.63665
2.63859
2.64051
2.64214
2.64386
2.64548
2.64678
2.64817
2.64941
2.65032
2.65085
2.65127
2.65144
2.65112
2.65058
2.64955
2.64822
2.64624
2.64364
2.64093
2.63715
2.63218
2.62713
2.62395
2.61991
2.61948
2.6191
2.64184
2.64956
1.1282
0.605121
0.593359
0.618476
0.633594
0.655637
0.673953
0.694479
0.715241
0.738764
0.758567
0.782029
0.798405
0.820341
0.835311
0.846425
0.858325
0.866511
0.87266
0.878584
0.882415
0.886992
0.888563
0.889331
0.889855
0.889604
0.887483
0.885296
0.883142
0.881113
0.879371
0.878183
0.877547
0.880557
0.88292
0.886769
0.889875
0.894121
0.897626
0.900517
0.906023
0.909658
0.912851
0.91547
0.915809
0.922439
0.925211
0.927223
0.927781
0.9355
0.939072
0.942561
0.955943
0.962128
0.991249
1.00782
1.02601
1.06501
1.09465
1.0893
0.858218
0.631649
0.511289
0.44541
0.416761
0.406125
0.372581
0.334048
0.297853
0.252964
0.2163
0.192588
0.201792
0.200087
0.305077
2.62254
2.61669
2.61795
2.61848
2.61936
2.62043
2.62155
2.6228
2.62436
2.626
2.62757
2.62917
2.631
2.63296
2.63488
2.63665
2.63864
2.64054
2.64219
2.64395
2.64568
2.64702
2.6483
2.64964
2.6506
2.65112
2.65156
2.65197
2.6519
2.65152
2.65083
2.64975
2.64835
2.64626
2.64393
2.64111
2.63699
2.63195
2.62381
2.61524
2.60335
2.59103
2.5618
2.53481
0.907808
0.549156
0.542679
0.580024
0.605531
0.638806
0.666162
0.691713
0.719489
0.746513
0.771282
0.799017
0.8154
0.841078
0.857292
0.873877
0.879155
0.892564
0.898408
0.903933
0.908198
0.912099
0.9153
0.914527
0.916214
0.916398
0.914024
0.912062
0.90926
0.906572
0.904432
0.902919
0.902245
0.902126
0.907935
0.910604
0.913995
0.917301
0.920958
0.923169
0.928028
0.931345
0.934225
0.936755
0.937199
0.942631
0.944942
0.946187
0.946991
0.953543
0.957293
0.961144
0.973005
0.981286
1.00682
1.01852
1.0495
1.07157
1.08434
0.875983
0.664988
0.536797
0.465368
0.475905
0.442932
0.413342
0.375817
0.33857
0.307768
0.272506
0.238255
0.209517
0.222685
0.218186
0.325056
2.62251
2.61666
2.61794
2.6185
2.61936
2.6204
2.62153
2.62294
2.62435
2.62587
2.62759
2.62932
2.631
2.63295
2.63494
2.63671
2.63865
2.64061
2.64229
2.64409
2.64585
2.64727
2.64848
2.64988
2.65095
2.6516
2.652
2.6525
2.65285
2.65275
2.65236
2.65158
2.65057
2.64922
2.64745
2.64519
2.64252
2.63865
2.63296
2.62606
2.61671
2.60664
2.581
2.56463
0.895735
0.526998
0.524842
0.58013
0.61522
0.656323
0.688974
0.721595
0.753875
0.785484
0.811888
0.841531
0.866297
0.89172
0.915523
0.925203
0.953662
0.962004
0.968983
0.975654
0.980725
0.988224
0.991229
0.994345
0.997042
0.996942
0.996604
0.995491
0.994148
0.991698
0.989037
0.987179
0.986253
0.984419
0.986951
0.988773
0.990192
0.990279
0.99137
0.992041
0.994515
0.994674
0.99526
0.995686
0.994803
0.996695
0.997973
0.997632
0.99614
1.00061
1.00227
1.00319
1.01451
1.02049
1.03669
1.04632
1.06762
1.08815
0.918152
0.70841
0.596743
0.550687
0.513785
0.491492
0.475024
0.434943
0.389637
0.348524
0.320276
0.291415
0.261798
0.228558
0.241776
0.23384
0.345959
2.62246
2.61663
2.61794
2.61852
2.61933
2.62025
2.62153
2.62295
2.62434
2.62588
2.62761
2.62936
2.63102
2.63292
2.63498
2.63679
2.63869
2.64063
2.64241
2.64429
2.64606
2.64757
2.6488
2.65006
2.65129
2.65216
2.65263
2.65315
2.65393
2.65419
2.65411
2.65384
2.65347
2.65261
2.65189
2.65098
2.64973
2.64796
2.6447
2.63816
2.62438
2.60964
2.57152
2.56485
0.934586
0.52542
0.546835
0.624589
0.678029
0.725691
0.763194
0.804509
0.845472
0.876655
0.905328
0.939002
0.945195
0.991787
0.997514
1.01805
1.03348
1.04941
1.05704
1.05963
1.06499
1.06808
1.07088
1.07345
1.07569
1.07558
1.07507
1.07416
1.07207
1.06988
1.06759
1.06523
1.06478
1.06514
1.06626
1.06642
1.06922
1.06727
1.07128
1.07014
1.07382
1.07351
1.07396
1.07467
1.07423
1.0746
1.07479
1.07356
1.07084
1.07442
1.071
1.06887
1.0787
1.07399
1.08095
1.09252
1.11028
0.942916
0.755842
0.640352
0.580831
0.604099
0.568317
0.539641
0.508003
0.459068
0.407482
0.364061
0.335579
0.309275
0.282745
0.248106
0.259838
0.249305
0.366156
2.6224
2.61663
2.61789
2.61845
2.61934
2.62042
2.62151
2.62275
2.62433
2.62589
2.62763
2.62939
2.63106
2.63292
2.63503
2.63689
2.63875
2.64064
2.64249
2.64454
2.64632
2.64787
2.64919
2.65034
2.65159
2.65264
2.65335
2.65399
2.65498
2.65575
2.65608
2.65622
2.6563
2.65637
2.65642
2.65647
2.65678
2.65744
2.65827
2.65929
2.6632
2.65981
2.64051
2.62056
1.27213
0.600911
0.659069
0.779248
0.84537
0.876369
0.894806
0.933684
0.963692
0.960083
1.00731
1.00127
1.03806
1.04867
1.07498
1.06128
1.0773
1.09512
1.10256
1.10396
1.1036
1.10959
1.11123
1.11273
1.11399
1.11241
1.11325
1.11271
1.10946
1.10832
1.10699
1.10484
1.10659
1.10552
1.10618
1.1085
1.11109
1.11196
1.11259
1.11564
1.11741
1.11841
1.11946
1.11976
1.11912
1.12199
1.12288
1.12229
1.12064
1.12022
1.11511
1.11118
1.11634
1.1106
1.11027
1.10467
0.934324
0.767931
0.659341
0.662356
0.617955
0.616294
0.602447
0.573526
0.534543
0.479083
0.423173
0.377843
0.349374
0.325169
0.301524
0.266937
0.276677
0.264613
0.385528
2.62234
2.61657
2.61787
2.61843
2.61933
2.6203
2.62151
2.62288
2.62432
2.62581
2.62756
2.62938
2.63109
2.63292
2.63507
2.63703
2.63883
2.64064
2.64259
2.64474
2.64659
2.64829
2.6497
2.65082
2.65192
2.65308
2.65418
2.65502
2.65595
2.65716
2.65809
2.65874
2.65946
2.6604
2.6618
2.66395
2.66596
2.66984
2.67708
2.69155
2.71789
2.75585
2.84921
2.90731
2.79646
1.10364
0.910584
0.950215
0.97256
0.987626
0.999532
1.00885
0.996242
1.02584
1.04348
1.02388
1.07477
1.06582
1.09805
1.08825
1.08831
1.11662
1.12094
1.12352
1.12587
1.12851
1.12995
1.13177
1.13342
1.13153
1.13271
1.13452
1.13028
1.12889
1.12749
1.12501
1.12498
1.12361
1.12375
1.128
1.12912
1.12968
1.1294
1.13221
1.13289
1.13426
1.13461
1.13348
1.13272
1.13469
1.13157
1.1296
1.12749
1.12663
1.12189
1.11491
1.11102
1.07027
1.01187
0.855246
0.707614
0.632181
0.570028
0.683247
0.690339
0.668311
0.640399
0.59829
0.551232
0.492331
0.435702
0.390219
0.362366
0.339547
0.318425
0.284751
0.292524
0.2793
0.403574
2.62227
2.61655
2.61784
2.61843
2.61923
2.62028
2.6215
2.6228
2.62429
2.62587
2.6275
2.62936
2.63112
2.63291
2.6351
2.6371
2.63894
2.64069
2.6427
2.64496
2.64685
2.64865
2.65018
2.65142
2.65241
2.6536
2.65499
2.65615
2.65715
2.65841
2.65989
2.66102
2.66227
2.66378
2.66579
2.66875
2.67101
2.67517
2.6811
2.68888
2.70746
2.71954
2.75244
2.70869
1.69391
1.43241
1.14283
1.00046
0.997928
0.959351
0.993676
0.976023
1.00243
0.998407
1.01855
1.00241
1.0542
1.04739
1.07242
1.07111
1.07958
1.09415
1.10168
1.10491
1.10852
1.11083
1.1128
1.11378
1.11605
1.11424
1.11512
1.11717
1.11391
1.11382
1.11389
1.11249
1.11432
1.1126
1.11659
1.12085
1.1235
1.1265
1.12668
1.1291
1.1298
1.13185
1.13459
1.13036
1.12953
1.12978
1.12878
1.12392
1.11366
1.10623
1.07557
1.04621
0.985796
0.867718
0.734763
0.617726
0.516762
0.575179
0.589846
0.643964
0.688359
0.691021
0.668803
0.627867
0.572624
0.50973
0.449777
0.402903
0.374788
0.352842
0.333966
0.301533
0.307588
0.293534
0.420719
2.6222
2.61651
2.61777
2.61833
2.61922
2.62029
2.62144
2.62276
2.62427
2.62586
2.62746
2.62933
2.63114
2.63291
2.63508
2.6372
2.63902
2.64077
2.64283
2.6452
2.64715
2.64897
2.65065
2.65209
2.6531
2.65433
2.65604
2.65743
2.65848
2.65964
2.66146
2.66304
2.66464
2.66666
2.66927
2.67299
2.67855
2.68341
2.69204
2.7088
2.73043
2.76951
2.81668
2.89435
1.55387
1.25659
1.15952
1.03709
0.951749
0.927448
0.93245
0.954549
0.940892
0.985759
0.980782
1.00355
1.02462
1.0404
1.0542
1.06849
1.07359
1.08221
1.09432
1.09437
1.1046
1.10579
1.10829
1.10973
1.11288
1.11412
1.11473
1.11712
1.11428
1.11441
1.1109
1.10926
1.10817
1.10696
1.10838
1.11323
1.11516
1.11689
1.11745
1.11825
1.11793
1.11782
1.11843
1.11082
1.10409
1.09918
1.08021
1.06147
1.02244
0.974542
0.899246
0.797391
0.696017
0.595523
0.487789
0.477803
0.465411
0.543266
0.616368
0.682037
0.706591
0.695942
0.671761
0.63083
0.577882
0.517887
0.459288
0.412531
0.385588
0.364971
0.348266
0.317108
0.321456
0.306951
0.43652
2.6221
2.61644
2.61775
2.61832
2.61921
2.62019
2.62141
2.62271
2.62422
2.62584
2.62741
2.6293
2.63117
2.63296
2.63505
2.63728
2.63916
2.64089
2.64299
2.64545
2.64748
2.64929
2.65102
2.65268
2.65396
2.65532
2.6572
2.65867
2.65986
2.66101
2.66255
2.66472
2.66652
2.66852
2.67106
2.67365
2.67624
2.67864
2.68049
2.68475
2.67825
2.68465
2.61934
2.232
1.31574
1.19976
1.18781
1.11223
1.00574
0.905753
0.917312
0.920072
0.919329
0.952171
0.944497
0.992786
1.01051
1.01091
1.04144
1.05936
1.06045
1.06669
1.08086
1.08182
1.09077
1.09309
1.09487
1.09577
1.0992
1.09938
1.10015
1.1019
1.10099
1.10121
1.09851
1.09732
1.09612
1.09558
1.09631
1.09897
1.09937
1.10015
1.09647
1.09033
1.08572
1.07545
1.06456
1.03471
1.00709
0.962305
0.915044
0.833426
0.754454
0.673517
0.598616
0.522153
0.445689
0.425759
0.396369
0.424156
0.47207
0.549751
0.596156
0.660622
0.700691
0.708179
0.688213
0.644247
0.587723
0.524023
0.468367
0.421936
0.395876
0.376487
0.361627
0.33138
0.33432
0.319455
0.450986
2.62202
2.61638
2.6177
2.61829
2.61911
2.62016
2.62137
2.62264
2.62415
2.62579
2.62736
2.62921
2.63115
2.63297
2.63506
2.63736
2.63929
2.64103
2.64314
2.64573
2.64785
2.64974
2.65136
2.65314
2.65484
2.65654
2.65847
2.66006
2.6615
2.6624
2.66369
2.66598
2.66807
2.66981
2.6718
2.67344
2.67474
2.67459
2.67327
2.66914
2.65706
2.64029
2.56636
1.60586
1.17119
1.15869
1.17228
1.13714
1.07869
0.936683
0.892535
0.860919
0.88193
0.916603
0.921364
0.962787
0.963524
1.00532
1.00458
1.04321
1.04577
1.04912
1.06356
1.06868
1.07349
1.0777
1.0804
1.08226
1.085
1.08499
1.08462
1.08673
1.08486
1.08428
1.07811
1.07447
1.07025
1.06788
1.06483
1.06234
1.05323
1.04554
1.02204
0.999377
0.966347
0.927643
0.872767
0.806254
0.738768
0.67501
0.612537
0.548155
0.484739
0.432335
0.3872
0.380812
0.363392
0.372128
0.388041
0.432397
0.474518
0.552134
0.613804
0.674214
0.703078
0.692901
0.675897
0.637176
0.588226
0.527764
0.475074
0.43025
0.405597
0.387379
0.374189
0.344515
0.346346
0.331336
0.464406
2.62192
2.61632
2.6176
2.61819
2.61906
2.62015
2.62129
2.62259
2.62408
2.62574
2.62735
2.6291
2.63114
2.63301
2.63504
2.6374
2.63945
2.64122
2.64332
2.64607
2.64826
2.6503
2.6519
2.65353
2.65543
2.65794
2.65984
2.66158
2.66311
2.66406
2.66516
2.66676
2.66931
2.671
2.67241
2.67371
2.67492
2.67598
2.677
2.67935
2.68201
2.69642
2.68663
1.41293
1.154
1.14607
1.15908
1.15708
1.14539
1.05606
0.960545
0.85804
0.88464
0.861978
0.932963
0.939153
0.964884
0.995663
0.993409
1.03431
1.02582
1.04264
1.05223
1.05518
1.05832
1.06113
1.06371
1.06536
1.06495
1.06331
1.06025
1.05924
1.05378
1.0469
1.04167
1.0198
1.01
0.989059
0.969481
0.941946
0.905728
0.863419
0.805979
0.748817
0.693775
0.637643
0.587105
0.530309
0.47597
0.431045
0.392878
0.37204
0.355582
0.353623
0.340699
0.342986
0.351208
0.377316
0.395831
0.435761
0.478117
0.540739
0.59874
0.655731
0.688974
0.693121
0.677818
0.638391
0.587098
0.527988
0.480185
0.437794
0.414885
0.398048
0.38628
0.356692
0.357665
0.342635
0.476773
2.62183
2.61626
2.61754
2.61812
2.61903
2.62001
2.62124
2.62253
2.62398
2.62567
2.62733
2.62901
2.63109
2.63304
2.63503
2.63741
2.63958
2.64149
2.64353
2.64638
2.64871
2.65085
2.65257
2.65404
2.65594
2.65911
2.66124
2.66307
2.66468
2.66603
2.66682
2.66798
2.67032
2.67212
2.67316
2.67388
2.67481
2.67559
2.67737
2.67858
2.68801
2.68675
2.66383
1.3013
1.14374
1.13721
1.1376
1.13594
1.13639
1.09936
1.05487
0.90845
0.878697
0.8426
0.915156
0.912326
0.964858
0.95248
1.011
1.0147
1.01915
1.02556
1.03767
1.03745
1.03842
1.03506
1.03359
1.03145
1.02557
1.01167
1.00089
0.980276
0.958395
0.925195
0.89283
0.861531
0.812389
0.767199
0.722242
0.675975
0.630781
0.587161
0.539254
0.492889
0.45128
0.415908
0.389232
0.373531
0.358046
0.353152
0.342629
0.337385
0.330866
0.335421
0.342112
0.355073
0.361471
0.38412
0.405169
0.439011
0.478779
0.541828
0.598036
0.65314
0.680263
0.680491
0.666464
0.631019
0.583283
0.527362
0.483821
0.444707
0.424082
0.408649
0.397985
0.368071
0.36837
0.353473
0.488206
2.62172
2.61618
2.61748
2.61809
2.61889
2.61993
2.62117
2.62246
2.62387
2.62557
2.62727
2.62895
2.63101
2.63306
2.63507
2.63737
2.63971
2.64179
2.64386
2.64654
2.6492
2.65144
2.6534
2.65474
2.65653
2.66014
2.6626
2.66455
2.66628
2.66786
2.66883
2.66989
2.67122
2.67339
2.67407
2.67413
2.67412
2.67309
2.67332
2.66961
2.67568
2.64113
2.13113
1.18371
1.09266
1.08883
1.093
1.10102
1.1085
1.11484
1.08667
1.07207
0.942011
0.912359
0.876408
0.933081
0.957806
0.943885
1.01255
0.983307
1.01339
1.00107
1.01585
0.999358
0.991604
0.974876
0.958113
0.939718
0.902884
0.873536
0.823091
0.777342
0.728893
0.683151
0.639377
0.598538
0.554681
0.514227
0.473468
0.439258
0.411266
0.388568
0.374078
0.361149
0.353207
0.349862
0.34343
0.341542
0.335219
0.337335
0.341516
0.345903
0.342898
0.347583
0.350994
0.361592
0.37153
0.391066
0.411961
0.442598
0.478396
0.531319
0.583867
0.637282
0.668107
0.671961
0.660618
0.625774
0.578289
0.524281
0.486633
0.45116
0.433164
0.419511
0.40943
0.379061
0.378572
0.363813
0.498936
2.62161
2.61611
2.61737
2.61795
2.61883
2.61988
2.62104
2.62238
2.62377
2.62545
2.62721
2.6289
2.63087
2.63307
2.63509
2.63731
2.63982
2.64208
2.64417
2.64667
2.64968
2.65207
2.65432
2.65566
2.65757
2.66059
2.6639
2.6662
2.66805
2.66979
2.67118
2.67194
2.67312
2.67475
2.67591
2.67531
2.67357
2.67025
2.66509
2.65471
2.64368
2.59844
1.64507
1.07165
1.06035
1.07058
1.07979
1.0896
1.10474
1.12708
1.13637
1.13803
1.06642
0.993302
0.90746
0.974243
0.913806
0.941791
0.976635
0.938475
0.962268
0.939043
0.927572
0.893537
0.858632
0.810321
0.76248
0.717913
0.671769
0.626946
0.580273
0.534516
0.490762
0.450843
0.419067
0.394365
0.378558
0.363019
0.35406
0.34582
0.345384
0.34129
0.341935
0.338833
0.337152
0.340635
0.343802
0.349054
0.346522
0.348248
0.34946
0.354166
0.352431
0.357513
0.361912
0.372183
0.380894
0.398814
0.418247
0.445012
0.47799
0.527898
0.576542
0.62864
0.657532
0.661153
0.650238
0.616856
0.571814
0.521233
0.48853
0.457082
0.442152
0.430422
0.420422
0.389835
0.388436
0.37388
0.509078
2.62149
2.61603
2.6173
2.61787
2.61876
2.61972
2.62093
2.6223
2.62367
2.62532
2.62714
2.62886
2.63076
2.63304
2.63513
2.63728
2.63995
2.64238
2.64446
2.64683
2.65015
2.65281
2.65526
2.65693
2.6588
2.66095
2.66501
2.66793
2.67017
2.67208
2.67384
2.67465
2.67594
2.677
2.67961
2.68129
2.68203
2.68221
2.68179
2.67816
2.67764
2.64423
1.38245
1.04757
1.05097
1.0656
1.07863
1.09186
1.0998
1.11945
1.13419
1.14413
1.133
1.08942
1.03451
0.885118
0.889229
0.846485
0.896747
0.831555
0.79711
0.757067
0.707908
0.671675
0.624225
0.578665
0.531821
0.485641
0.447023
0.414474
0.390607
0.37213
0.359797
0.347175
0.339637
0.33408
0.331446
0.328227
0.326801
0.325617
0.328647
0.334119
0.341534
0.345064
0.344667
0.348384
0.350572
0.355504
0.355018
0.357521
0.359342
0.364185
0.363088
0.366959
0.371533
0.380448
0.388658
0.404422
0.422882
0.447794
0.477813
0.522982
0.568054
0.617011
0.645591
0.65009
0.64006
0.6083
0.565303
0.517779
0.490199
0.462715
0.450558
0.441385
0.430839
0.400938
0.398082
0.383709
0.518881
2.62137
2.61594
2.6172
2.61778
2.61861
2.61961
2.62078
2.62217
2.62358
2.62515
2.62702
2.62881
2.63065
2.63297
2.63514
2.63728
2.64
2.64257
2.64485
2.64718
2.65025
2.6535
2.65611
2.65847
2.6602
2.66243
2.66521
2.66952
2.67246
2.67472
2.67666
2.67844
2.67945
2.68103
2.68211
2.68683
2.69019
2.69399
2.69848
2.70653
2.72226
2.74895
1.32699
1.0813
1.07493
1.08332
1.09107
1.09836
1.10449
1.11873
1.13185
1.14451
1.14473
1.11318
1.08277
0.856737
0.753546
0.710855
0.683798
0.633872
0.581483
0.53717
0.49192
0.457189
0.429172
0.405683
0.385165
0.367245
0.355233
0.343834
0.335559
0.32821
0.324584
0.320897
0.319235
0.321468
0.327635
0.329071
0.333679
0.334352
0.338098
0.340124
0.345661
0.351954
0.352532
0.355816
0.358486
0.363567
0.364459
0.366841
0.368587
0.372998
0.372513
0.376321
0.380628
0.389096
0.396772
0.410924
0.427995
0.450118
0.477916
0.519705
0.562091
0.606419
0.635367
0.638924
0.629712
0.599434
0.558906
0.514694
0.491199
0.467982
0.458463
0.451777
0.440353
0.412021
0.407726
0.39338
0.5271
2.62124
2.61584
2.61708
2.61764
2.61853
2.6195
2.62064
2.62203
2.62346
2.62499
2.62688
2.62873
2.63057
2.63285
2.63515
2.63734
2.63998
2.64276
2.64531
2.64752
2.65021
2.65411
2.65711
2.65994
2.66205
2.66397
2.66625
2.67039
2.67481
2.67786
2.68027
2.6827
2.68447
2.68582
2.68798
2.69087
2.69607
2.70179
2.70614
2.71641
2.70811
2.5781
1.24918
1.10176
1.09497
1.09578
1.09582
1.09698
1.099
1.09953
1.10305
1.10473
1.08807
1.02968
0.937689
0.682376
0.567848
0.510261
0.478527
0.446629
0.422997
0.39851
0.380126
0.366058
0.355442
0.349051
0.343641
0.337091
0.334319
0.331548
0.332374
0.330066
0.32959
0.32863
0.327505
0.326505
0.330269
0.332625
0.337353
0.339626
0.344056
0.346331
0.350775
0.357074
0.359424
0.362447
0.365408
0.370697
0.373053
0.375409
0.377382
0.381685
0.381759
0.385237
0.389133
0.396952
0.404019
0.416373
0.431892
0.45206
0.478167
0.516998
0.555743
0.599035
0.624481
0.629314
0.620487
0.592595
0.554056
0.51288
0.492421
0.473415
0.465808
0.460966
0.450118
0.422997
0.417125
0.402931
0.535957
2.62111
2.61573
2.61696
2.6175
2.61838
2.61937
2.62048
2.62187
2.62331
2.6248
2.62673
2.62862
2.63049
2.63268
2.63513
2.63736
2.63992
2.64294
2.64571
2.64789
2.65048
2.65427
2.6581
2.66117
2.66411
2.66594
2.66829
2.67073
2.67643
2.68102
2.68415
2.68689
2.68973
2.69243
2.69386
2.69668
2.69868
2.70248
2.70165
2.71059
2.67594
1.99113
1.17139
1.1094
1.10604
1.10302
1.10212
1.0992
1.09976
1.09714
1.09359
1.08725
1.02761
0.877937
0.716705
0.513279
0.43422
0.420649
0.410479
0.401221
0.388787
0.379706
0.368359
0.359617
0.351274
0.346333
0.34539
0.343235
0.344066
0.34284
0.344222
0.344766
0.345784
0.345672
0.346156
0.34377
0.344678
0.345243
0.348734
0.350554
0.354549
0.356221
0.35901
0.364292
0.367816
0.370278
0.373009
0.377941
0.381223
0.383198
0.385177
0.389211
0.389858
0.393292
0.396905
0.404264
0.411008
0.422375
0.437296
0.456337
0.480421
0.515424
0.551873
0.58992
0.616321
0.618207
0.610817
0.58487
0.549828
0.512709
0.494999
0.478636
0.472801
0.46989
0.459301
0.433303
0.425663
0.41228
0.542083
2.62095
2.61561
2.61684
2.61736
2.61821
2.61922
2.62029
2.62166
2.62316
2.62463
2.62652
2.62848
2.63034
2.63249
2.63506
2.63738
2.63988
2.64311
2.64599
2.64848
2.6509
2.65404
2.65897
2.66262
2.66574
2.66858
2.67037
2.67327
2.67635
2.6834
2.68813
2.69164
2.69519
2.69883
2.70248
2.70414
2.70696
2.71007
2.70941
2.72041
2.682
1.47232
1.12725
1.10863
1.10869
1.10466
1.10334
1.09985
1.09709
1.08612
1.05858
1.01444
0.898872
0.668497
0.49784
0.398721
0.382132
0.387355
0.391352
0.38952
0.389884
0.38526
0.382705
0.378064
0.376616
0.372735
0.37127
0.368189
0.368162
0.366685
0.366628
0.366645
0.367093
0.366417
0.366273
0.362565
0.360657
0.358333
0.359929
0.360758
0.363753
0.365248
0.366261
0.37003
0.374342
0.376513
0.378674
0.383085
0.387084
0.388791
0.391035
0.39521
0.397133
0.400863
0.404532
0.411687
0.41834
0.42871
0.442245
0.459154
0.481138
0.513269
0.54709
0.584835
0.606689
0.611196
0.604238
0.580607
0.547266
0.512294
0.49702
0.483201
0.479516
0.478167
0.46845
0.443219
0.434064
0.421708
0.550464
2.62081
2.6155
2.61669
2.61721
2.61804
2.61907
2.62012
2.62144
2.62296
2.62445
2.62629
2.62831
2.63019
2.63231
2.63495
2.63736
2.63978
2.64316
2.64622
2.64913
2.65125
2.65412
2.65931
2.66382
2.66752
2.6709
2.67327
2.6755
2.67898
2.68318
2.69118
2.69591
2.69997
2.70399
2.70893
2.71551
2.72334
2.73023
2.74622
2.78337
2.85117
1.35632
1.13517
1.11309
1.11021
1.1038
1.09947
1.09392
1.09057
1.06166
0.992008
0.850863
0.658729
0.474
0.390811
0.370222
0.38292
0.388985
0.395168
0.396931
0.399758
0.399133
0.398843
0.39613
0.3963
0.394603
0.3945
0.392237
0.391178
0.389463
0.388261
0.387074
0.38656
0.38709
0.387469
0.386188
0.383986
0.379001
0.378277
0.37719
0.378432
0.379626
0.378686
0.380206
0.383933
0.38625
0.387217
0.390716
0.39509
0.39676
0.39919
0.403443
0.406195
0.409981
0.413476
0.420143
0.426405
0.435727
0.448403
0.46449
0.485172
0.514058
0.545061
0.578206
0.602035
0.602135
0.596255
0.575007
0.545422
0.513983
0.500871
0.488619
0.486343
0.48636
0.476983
0.452521
0.441811
0.431085
0.554455
2.62063
2.61537
2.61655
2.61706
2.61786
2.61888
2.61994
2.62121
2.62274
2.62426
2.62605
2.62809
2.63002
2.63209
2.63481
2.63732
2.6398
2.64299
2.64639
2.64962
2.65181
2.65478
2.65887
2.66473
2.66915
2.6728
2.67648
2.67832
2.68156
2.68533
2.69141
2.69918
2.70371
2.70711
2.71003
2.71232
2.71484
2.71059
2.7129
2.67477
2.29672
1.20112
1.09689
1.09171
1.08968
1.08587
1.0826
1.07032
1.05127
0.977681
0.850739
0.619638
0.45602
0.388378
0.369579
0.383697
0.39474
0.402769
0.409705
0.411467
0.414776
0.414202
0.415103
0.413639
0.414452
0.413548
0.414218
0.412928
0.412402
0.411684
0.41117
0.408952
0.407857
0.406751
0.407016
0.40807
0.406547
0.401707
0.397612
0.393329
0.391513
0.391559
0.389643
0.388695
0.390784
0.393561
0.393779
0.396233
0.400518
0.402457
0.404793
0.409245
0.413038
0.417246
0.420771
0.427103
0.433294
0.442062
0.453841
0.46835
0.486744
0.51219
0.541556
0.574158
0.594958
0.598847
0.593216
0.573235
0.544195
0.51427
0.503595
0.493254
0.492514
0.493621
0.485017
0.461532
0.450013
0.440337
0.562031
2.62046
2.61522
2.61639
2.61687
2.61767
2.61867
2.61974
2.62095
2.6225
2.62404
2.62577
2.62784
2.62981
2.63185
2.63459
2.63727
2.63971
2.64273
2.64652
2.64986
2.65263
2.6553
2.6587
2.66531
2.67043
2.67474
2.67855
2.68194
2.68411
2.68815
2.69173
2.70062
2.70638
2.70809
2.70933
2.70875
2.70571
2.69566
2.68152
2.62003
1.62106
1.06711
1.0616
1.07282
1.07627
1.07585
1.06887
1.03529
0.978874
0.792675
0.616979
0.445045
0.389758
0.375215
0.392877
0.401848
0.411492
0.417043
0.422343
0.423395
0.426395
0.426401
0.427754
0.427792
0.429414
0.429073
0.430483
0.429721
0.430494
0.430078
0.430731
0.430035
0.428476
0.42582
0.424537
0.424899
0.424027
0.424435
0.421601
0.417331
0.41285
0.411114
0.408557
0.405203
0.405457
0.407503
0.407129
0.407794
0.411115
0.41292
0.414696
0.418882
0.423022
0.427469
0.430878
0.436763
0.442587
0.450461
0.461234
0.474602
0.491643
0.51502
0.540943
0.570512
0.592989
0.592966
0.588238
0.570591
0.545796
0.517659
0.508457
0.498927
0.499186
0.501153
0.492873
0.470181
0.457412
0.449517
0.564509
2.62027
2.61506
2.61621
2.61668
2.61745
2.61842
2.61952
2.6207
2.62221
2.62377
2.62546
2.62755
2.62957
2.63162
2.63427
2.63708
2.63965
2.64242
2.64642
2.64997
2.65332
2.65586
2.65931
2.66501
2.6712
2.67642
2.68074
2.68504
2.68738
2.6908
2.69504
2.69996
2.70857
2.71338
2.71648
2.72005
2.72192
2.72769
2.73974
2.74187
1.38754
1.06141
1.05671
1.0619
1.06483
1.05827
1.03931
0.948603
0.834858
0.588063
0.443322
0.390532
0.385599
0.400822
0.412242
0.421085
0.428811
0.432876
0.437168
0.437172
0.439129
0.438713
0.439654
0.439755
0.441327
0.441393
0.443208
0.443215
0.444847
0.445376
0.446227
0.447539
0.447161
0.445078
0.442294
0.441211
0.439721
0.440588
0.43985
0.438127
0.43228
0.427164
0.423449
0.419356
0.4168
0.417623
0.417378
0.416083
0.418288
0.420318
0.42177
0.425704
0.430234
0.435181
0.438709
0.444112
0.449551
0.456565
0.466546
0.478861
0.494418
0.514136
0.537961
0.566799
0.588075
0.592837
0.588677
0.571565
0.546541
0.519495
0.511723
0.503047
0.504559
0.507623
0.499932
0.478293
0.464889
0.45892
0.571883
2.62005
2.61489
2.61601
2.61646
2.61722
2.61816
2.61925
2.62041
2.62189
2.62347
2.62513
2.62722
2.62929
2.63132
2.63387
2.63686
2.63956
2.64227
2.64599
2.64998
2.65375
2.6566
2.66011
2.66454
2.67154
2.67747
2.68276
2.68735
2.69151
2.69396
2.69818
2.70296
2.7089
2.71919
2.72483
2.73136
2.73957
2.75751
2.77077
2.8426
1.25904
1.06615
1.05597
1.05089
1.04627
1.014
0.958713
0.769362
0.586994
0.439666
0.387061
0.394001
0.407145
0.4188
0.428948
0.436543
0.442572
0.446262
0.449989
0.450346
0.452255
0.451576
0.452211
0.451911
0.453112
0.452857
0.454446
0.455166
0.456569
0.458537
0.4592
0.461675
0.462287
0.462149
0.459853
0.457618
0.455524
0.455802
0.455142
0.455843
0.453701
0.44829
0.444227
0.439407
0.434262
0.433417
0.432956
0.430323
0.431451
0.433022
0.433605
0.436651
0.440729
0.44546
0.449258
0.454619
0.46007
0.466324
0.475319
0.486369
0.500038
0.517376
0.538795
0.565479
0.587413
0.589091
0.586457
0.571834
0.551366
0.525
0.517374
0.50915
0.511343
0.514998
0.50741
0.486423
0.472266
0.467934
0.573796
2.61984
2.6147
2.61581
2.61623
2.61696
2.61788
2.61896
2.6201
2.62154
2.62313
2.62477
2.62684
2.62896
2.63093
2.63339
2.63656
2.63946
2.64206
2.64526
2.64975
2.65378
2.65753
2.66091
2.66504
2.67092
2.67768
2.684
2.68973
2.69486
2.6991