/*--------------------------------*- C++ -*----------------------------------*\
| =========                 |                                                 |
| \\      /  F ield         | OpenFOAM: The Open Source CFD Toolbox           |
|  \\    /   O peration     | Version:  2.2.x                                 |
|   \\  /    A nd           | Web:      www.OpenFOAM.org                      |
|    \\/     M anipulation  |                                                 |
\*---------------------------------------------------------------------------*/
FoamFile
{
    version     2.0;
    format      ascii;
    class       surfaceScalarField;
    location    "0.1";
    object      phi;
}
// * * * * * * * * * * * * * * * * * * * * * * * * * * * * * * * * * * * * * //

dimensions      [1 0 -1 0 0 0 0];

internalField   nonuniform List<scalar> 
28084
(
0.000746224
0.000742988
0.000740213
0.000737877
0.000735962
0.000734443
0.000733299
0.000732503
0.000732031
0.000731856
0.00073195
0.000732288
0.00073284
0.000733581
0.000734484
0.000735523
0.000736673
0.00073791
0.00073921
0.000740553
0.000741918
0.000743286
0.000744639
0.000745961
0.000747237
0.000748455
0.000749601
0.000750665
0.000751637
0.000752509
0.000753273
0.000753923
0.000754452
0.000754855
0.000755128
0.000755267
0.000755269
0.00075513
0.000754848
0.000754419
0.000753842
0.000753114
0.000752233
0.000751195
0.00075
0.00075924
0.000768832
0.000778732
0.000788896
0.000799279
0.000809836
0.00082052
0.000831284
0.000842079
0.000852858
0.000863571
0.000874171
0.000884607
0.000894833
0.000904798
0.000914456
0.000923759
0.000932662
0.00094112
0.000949091
0.000956534
0.00096341
0.000969684
0.000975323
0.000980298
0.000984583
0.000988157
0.000991002
0.000993106
0.000994463
0.000995072
0.000994934
0.000994063
0.000992473
0.000990186
0.000987233
0.000983649
0.000979482
0.000974766
0.000969582
0.000963973
0.00095803
0.000951815
0.000945428
0.000938917
0.000932414
0.00092605
0.000919891
0.000914348
0.000773616
0.000709222
0.000668417
0.000615163
0.00055847
0.000508815
0.000475433
0.00045869
0.000445889
0.000431968
0.000408436
0.000370016
0.000329054
0.000300045
0.000277354
0.000259826
0.000243478
0.000223834
0.000193258
0.000155682
0.000124572
9.88054e-05
6.91982e-05
3.85159e-05
3.7119e-06
3.23513e-06
0.00074974
2.77572e-06
0.000748785
2.33538e-06
0.000748259
1.91574e-06
0.000748147
1.51833e-06
0.000748429
1.14451e-06
0.000749083
7.95451e-07
0.000750087
4.72133e-07
0.000751415
1.7529e-07
0.000753039
-9.458e-08
0.000754933
-3.37226e-07
0.000757068
-5.52641e-07
0.000759414
-7.41055e-07
0.000761942
-9.02918e-07
0.000764622
-1.03889e-06
0.000767426
-1.14981e-06
0.000770325
-1.23667e-06
0.000773292
-1.30061e-06
0.0007763
-1.34287e-06
0.000779324
-1.36477e-06
0.000782341
-1.36768e-06
0.000785328
-1.353e-06
0.000788266
-1.32213e-06
0.000791134
-1.27648e-06
0.000793916
-1.21739e-06
0.000796595
-1.14619e-06
0.000799159
-1.06412e-06
0.000801594
-9.72359e-07
0.00080389
-8.71996e-07
0.000806036
-7.64042e-07
0.000808025
-6.49412e-07
0.000809849
-5.28932e-07
0.000811502
-4.03328e-07
0.000812979
-2.73238e-07
0.000814276
-1.39202e-07
0.000815389
-1.68075e-09
0.000816315
1.38959e-07
0.000817052
2.82427e-07
0.000817598
4.28513e-07
0.000817951
5.77075e-07
0.00081811
7.28041e-07
0.000818073
8.81404e-07
0.00081784
1.03721e-06
0.000817409
1.19557e-06
0.000816778
-9.2401e-06
0.000815947
-9.59168e-06
0.00082469
-9.90005e-06
0.00083376
-1.01643e-05
0.000843115
-1.03835e-05
0.00085271
-1.0557e-05
0.0008625
-1.06839e-05
0.000872441
-1.07635e-05
0.000882485
-1.07953e-05
0.000892586
-1.07788e-05
0.000902697
-1.07137e-05
0.00091277
-1.05998e-05
0.000922757
-1.0437e-05
0.000932609
-1.02255e-05
0.00094228
-9.96561e-06
0.00095172
-9.65801e-06
0.000960883
-9.30354e-06
0.000969722
-8.90321e-06
0.000978192
-8.45845e-06
0.000986246
-7.97097e-06
0.000993843
-7.44269e-06
0.00100094
-6.87596e-06
0.0010075
-6.27346e-06
0.00101348
-5.63817e-06
0.00101885
-4.97345e-06
0.00102358
-4.28296e-06
0.00102764
-3.57088e-06
0.00103101
-2.84152e-06
0.00103366
-2.09973e-06
0.00103558
-1.3504e-06
0.00103676
-5.99201e-07
0.0010372
1.48182e-07
0.00103689
8.8585e-07
0.00103583
1.60831e-06
0.00103405
2.30753e-06
0.00103155
2.9784e-06
0.00102836
3.61429e-06
0.00102451
4.20687e-06
0.00102003
4.74828e-06
0.00101499
5.23961e-06
0.00100941
5.65869e-06
0.00100335
6.02032e-06
0.000996906
6.29068e-06
0.000990099
6.49172e-06
0.000983072
6.59584e-06
0.000975819
6.60645e-06
0.000968508
6.53278e-06
0.000961252
6.36075e-06
0.000954082
5.91862e-06
0.000947154
3.02144e-06
0.00094085
6.73691e-06
0.000796133
1.80786e-05
0.000727272
3.35599e-05
0.000682187
4.06088e-05
0.000629786
4.49518e-05
0.000573291
4.40338e-05
0.000521801
4.09728e-05
0.00048753
3.72536e-05
0.000468949
3.13799e-05
0.00045313
2.5313e-05
0.000435086
2.06225e-05
0.000410859
1.9315e-05
0.000373362
1.96885e-05
0.00033483
2.16997e-05
0.00030578
2.39459e-05
0.000282342
2.58097e-05
0.000263306
2.72588e-05
0.00024515
2.87295e-05
0.000223311
2.84977e-05
0.000190596
2.91486e-05
0.000153073
2.8832e-05
0.000122971
3.11927e-05
9.79979e-05
3.1239e-05
6.91664e-05
3.67096e-05
3.8185e-05
5.11203e-06
4.19073e-06
0.000754435
3.30115e-06
0.00075573
2.44751e-06
0.000757426
1.63381e-06
0.00075951
8.63806e-07
0.000761963
1.40861e-07
0.000764765
-5.32086e-07
0.000767892
-1.15259e-06
0.000771318
-1.71876e-06
0.000775016
-2.22922e-06
0.000778956
-2.6832e-06
0.000783108
-3.08049e-06
0.00078744
-3.42139e-06
0.000791922
-3.70676e-06
0.00079652
-3.93789e-06
0.000801204
-4.11651e-06
0.000805943
-4.24472e-06
0.000810708
-4.32493e-06
0.000815468
-4.35978e-06
0.000820197
-4.35211e-06
0.00082487
-4.30488e-06
0.000829463
-4.22114e-06
0.000833953
-4.10392e-06
0.00083832
-3.95627e-06
0.000842545
-3.78114e-06
0.000846613
-3.58139e-06
0.000850509
-3.35973e-06
0.000854219
-3.11873e-06
0.000857733
-2.86077e-06
0.00086104
-2.58804e-06
0.000864134
-2.30254e-06
0.000867006
-2.00604e-06
0.000869651
-1.70014e-06
0.000872066
-1.38619e-06
0.000874246
-1.06539e-06
0.00087619
-7.38695e-07
0.000877894
-4.06907e-07
0.000879358
-7.0635e-08
0.000880581
2.69676e-07
0.000881562
6.13741e-07
0.000882301
9.61423e-07
0.000882799
1.31272e-06
0.000883054
1.66777e-06
0.000883067
2.02681e-06
0.000882838
-1.7983e-05
0.000882367
-1.8662e-05
0.000890605
-1.92547e-05
0.000899147
-1.97592e-05
0.000907948
-2.0174e-05
0.000916966
-2.04975e-05
0.000926155
-2.07282e-05
0.000935471
-2.08648e-05
0.000944868
-2.09063e-05
0.000954299
-2.08518e-05
0.000963718
-2.07007e-05
0.000973076
-2.04527e-05
0.000982328
-2.01077e-05
0.000991426
-1.96663e-05
0.00100032
-1.91291e-05
0.00100897
-1.84973e-05
0.00101732
-1.77729e-05
0.00102534
-1.69579e-05
0.00103296
-1.60552e-05
0.00104016
-1.50682e-05
0.00104689
-1.40009e-05
0.0010531
-1.2858e-05
0.00105877
-1.16448e-05
0.00106385
-1.03673e-05
0.00106831
-9.03229e-06
0.00107212
-7.64714e-06
0.00107526
-6.21993e-06
0.0010777
-4.75967e-06
0.00107942
-3.27549e-06
0.00108041
-1.77794e-06
0.00108066
-2.77384e-07
0.00108016
1.21446e-06
0.00107892
2.68614e-06
0.00107694
4.12472e-06
0.00107423
5.51883e-06
0.00107081
6.85258e-06
0.00106672
8.11482e-06
0.00106197
9.29382e-06
0.00105659
1.03723e-05
0.00105066
1.13397e-05
0.00104419
1.21763e-05
0.00103726
1.28823e-05
0.00102995
1.3427e-05
0.0010223
1.38123e-05
0.00101441
1.40069e-05
0.00100636
1.40267e-05
0.0009982
1.38867e-05
0.000990115
1.34691e-05
0.000982256
1.26092e-05
0.000974469
5.91178e-06
0.000967077
1.68142e-05
0.000817222
4.15722e-05
0.000743147
6.75375e-05
0.000693329
7.98925e-05
0.000643212
8.84688e-05
0.000589238
8.57761e-05
0.000536442
7.84008e-05
0.000499715
6.99416e-05
0.000476856
6.08964e-05
0.000456422
5.18449e-05
0.000434859
4.44332e-05
0.000408673
4.16798e-05
0.000371391
4.24518e-05
0.000335406
4.58625e-05
0.000307943
4.95433e-05
0.000285728
5.28156e-05
0.000266144
5.51351e-05
0.000246355
5.68418e-05
0.000221627
5.5841e-05
0.000186285
5.78121e-05
0.000150869
5.75683e-05
0.00012232
6.22135e-05
9.79841e-05
6.28803e-05
6.97531e-05
7.31301e-05
3.80138e-05
4.23053e-06
2.89594e-06
0.000760308
1.6045e-06
0.000763821
3.63709e-07
0.000767708
-8.19269e-07
0.000771957
-1.93779e-06
0.000776551
-2.98585e-06
0.000781471
-3.95817e-06
0.000786692
-4.85036e-06
0.000792189
-5.6589e-06
0.000797933
-6.38124e-06
0.000803893
-7.01579e-06
0.000810036
-7.56192e-06
0.00081633
-8.01992e-06
0.000822741
-8.39094e-06
0.000829233
-8.67693e-06
0.000835774
-8.88057e-06
0.00084233
-9.00514e-06
0.000848869
-9.05446e-06
0.00085536
-9.03276e-06
0.000861774
-8.9446e-06
0.000868082
-8.79475e-06
0.00087426
-8.58811e-06
0.000880283
-8.32963e-06
0.00088613
-8.02421e-06
0.000891781
-7.67665e-06
0.00089722
-7.29157e-06
0.00090243
-6.87338e-06
0.000907399
-6.42625e-06
0.000912115
-5.95404e-06
0.000916569
-5.46029e-06
0.000920753
-4.94823e-06
0.00092466
-4.42076e-06
0.000928285
-3.88041e-06
0.000931625
-3.32941e-06
0.000934678
-2.76963e-06
0.00093744
-2.20265e-06
0.000939912
-1.62973e-06
0.000942094
-1.05182e-06
0.000943985
-4.69642e-07
0.000945586
1.16386e-07
0.000946898
7.06062e-07
0.000947922
1.29942e-06
0.000948659
1.89669e-06
0.000949111
2.49829e-06
0.000949278
-2.62213e-05
0.000949162
-2.72034e-05
0.000956889
-2.80562e-05
0.000964895
-2.8777e-05
0.000973136
-2.93635e-05
0.00098157
-2.98135e-05
0.000990151
-3.01249e-05
0.000998836
-3.02959e-05
0.00100758
-3.03249e-05
0.00101633
-3.02109e-05
0.00102505
-2.99529e-05
0.00103369
-2.95507e-05
0.0010422
-2.90043e-05
0.00105053
-2.83144e-05
0.00105865
-2.74823e-05
0.0010665
-2.651e-05
0.00107403
-2.54001e-05
0.00108121
-2.41561e-05
0.00108799
-2.27822e-05
0.00109433
-2.12838e-05
0.00110018
-1.96668e-05
0.0011055
-1.7938e-05
0.00111027
-1.61059e-05
0.00111444
-1.41793e-05
0.00111799
-1.21684e-05
0.00112087
-1.00842e-05
0.00112308
-7.9389e-06
0.00112459
-5.7457e-06
0.00112537
-3.51896e-06
0.00112542
-1.27354e-06
0.00112473
9.74141e-07
0.0011233
3.20798e-06
0.00112112
5.40845e-06
0.0011182
7.55953e-06
0.00111457
9.64006e-06
0.00111022
1.16345e-05
0.0011052
1.35166e-05
0.00109954
1.52727e-05
0.00109326
1.68734e-05
0.00108642
1.83146e-05
0.00107906
1.95544e-05
0.00107127
2.06027e-05
0.00106308
2.14008e-05
0.00105456
2.19733e-05
0.0010458
2.22636e-05
0.00103691
2.2265e-05
0.00102795
2.205e-05
0.00101905
2.13209e-05
0.0010104
2.00037e-05
0.00100166
9.92151e-06
0.000992989
3.14209e-05
0.000827549
7.26721e-05
0.000761969
0.000105729
0.000710655
0.000122834
0.000662807
0.000131402
0.000611202
0.000122546
0.000559094
0.000111001
0.000517864
9.87247e-05
0.000488398
8.77833e-05
0.000461893
7.8085e-05
0.000435347
6.98575e-05
0.000405546
6.70144e-05
0.000368488
6.9007e-05
0.000335867
7.28804e-05
0.0003098
7.67387e-05
0.000288295
7.99233e-05
0.00026824
8.21012e-05
0.000245441
8.31329e-05
0.000216331
8.23457e-05
0.000179803
8.60605e-05
0.000147679
8.63014e-05
0.000120634
9.29629e-05
9.67443e-05
9.48378e-05
6.91705e-05
0.000109283
3.66564e-05
1.10116e-06
-6.16603e-07
0.000767362
-2.2826e-06
0.000773056
-3.88528e-06
0.000779098
-5.41361e-06
0.000785478
-6.85736e-06
0.00079218
-8.20725e-06
0.000799185
-9.45512e-06
0.000806469
-1.05941e-05
0.000814006
-1.16187e-05
0.000821766
-1.25248e-05
0.000829715
-1.33097e-05
0.000837821
-1.39723e-05
0.000846048
-1.45125e-05
0.000854359
-1.49319e-05
0.000862719
-1.5233e-05
0.00087109
-1.54195e-05
0.000879437
-1.54961e-05
0.000887725
-1.54679e-05
0.000895922
-1.53411e-05
0.000903995
-1.51222e-05
0.000911915
-1.48178e-05
0.000919655
-1.44351e-05
0.000927189
-1.39811e-05
0.000934495
-1.34628e-05
0.000941552
-1.28871e-05
0.000948341
-1.22606e-05
0.000954847
-1.15896e-05
0.000961056
-1.08801e-05
0.000966958
-1.01377e-05
0.000972541
-9.36732e-06
0.000977799
-8.5737e-06
0.000982725
-7.76094e-06
0.000987316
-6.93267e-06
0.000991568
-6.09205e-06
0.000995479
-5.24175e-06
0.000999049
-4.38399e-06
0.00100228
-3.52056e-06
0.00100517
-2.6528e-06
0.00100771
-1.78169e-06
0.00100993
-9.07823e-07
0.0010118
-3.14365e-08
0.00101334
8.47543e-07
0.00101456
1.72948e-06
0.00101544
2.61503e-06
0.001016
-3.39483e-05
0.00101623
-3.52092e-05
0.00102344
-3.62977e-05
0.0010309
-3.72107e-05
0.00103858
-3.7945e-05
0.00104642
-3.8498e-05
0.00105439
-3.88669e-05
0.00106244
-3.90496e-05
0.00107052
-3.90441e-05
0.00107859
-3.8849e-05
0.0010866
-3.84634e-05
0.00109451
-3.78868e-05
0.00110228
-3.71197e-05
0.00110984
-3.6163e-05
0.00111717
-3.50186e-05
0.00112422
-3.36891e-05
0.00113093
-3.21784e-05
0.00113727
-3.04911e-05
0.00114319
-2.86329e-05
0.00114866
-2.6611e-05
0.00115363
-2.44333e-05
0.00115806
-2.21094e-05
0.00116192
-1.965e-05
0.00116518
-1.70674e-05
0.0011678
-1.43748e-05
0.00116976
-1.15872e-05
0.00117103
-8.72068e-06
0.0011716
-5.79288e-06
0.00117144
-2.82267e-06
0.00117055
1.69775e-07
0.00116891
3.16336e-06
0.00116653
6.13532e-06
0.00116341
9.06279e-06
0.00115955
1.19207e-05
0.00115497
1.46828e-05
0.0011497
1.73273e-05
0.00114375
1.98221e-05
0.00113717
2.21491e-05
0.00112997
2.42689e-05
0.00112223
2.6174e-05
0.00111398
2.78114e-05
0.00110528
2.91818e-05
0.00109621
3.02381e-05
0.00108682
3.09699e-05
0.00107721
3.13566e-05
0.00106745
3.13415e-05
0.00105767
3.09808e-05
0.00104794
2.9927e-05
0.00103829
2.83076e-05
0.00102874
1.65641e-05
0.00101326
5.45256e-05
0.000821832
0.000108281
0.000771976
0.000145097
0.000721369
0.00016722
0.000673069
0.000174811
0.000622984
0.000159316
0.000574091
0.000141883
0.00052984
0.000126795
0.000494232
0.000114706
0.000462823
0.000105111
0.000432174
9.76627e-05
0.000399093
9.55709e-05
0.000364809
9.79037e-05
0.000335831
0.000102523
0.000311906
0.000105039
0.00029009
0.000107495
0.000267501
0.000108246
0.000241913
0.000108759
0.000209426
0.000108941
0.000174814
0.00011438
0.000145639
0.000115173
0.000119532
0.000123288
9.53093e-05
0.000126426
6.77772e-05
0.000143598
3.49111e-05
-4.23855e-06
-6.31051e-06
0.0007756
-8.32484e-06
0.000783435
-1.02651e-05
0.000791593
-1.21158e-05
0.000800066
-1.38623e-05
0.000808839
-1.54915e-05
0.000817893
-1.69919e-05
0.000827205
-1.83535e-05
0.000836747
-1.95684e-05
0.000846488
-2.06308e-05
0.000856394
-2.15365e-05
0.00086643
-2.22836e-05
0.000876558
-2.28719e-05
0.000886739
-2.33029e-05
0.000896934
-2.35801e-05
0.000907106
-2.3708e-05
0.000917214
-2.36927e-05
0.000927224
-2.35412e-05
0.000937098
-2.32614e-05
0.000946804
-2.2862e-05
0.00095631
-2.2352e-05
0.000965586
-2.17408e-05
0.000974606
-2.10377e-05
0.000983347
-2.02521e-05
0.000991785
-1.93932e-05
0.000999903
-1.847e-05
0.00100768
-1.74907e-05
0.00101511
-1.64634e-05
0.00102218
-1.53955e-05
0.00102887
-1.42938e-05
0.00103519
-1.31644e-05
0.00104111
-1.20128e-05
0.00104665
-1.08439e-05
0.0010518
-9.66187e-06
0.00105656
-8.47023e-06
0.00106092
-7.27194e-06
0.00106489
-6.06934e-06
0.00106848
-4.86422e-06
0.00107167
-3.65782e-06
0.00107448
-2.45089e-06
0.00107691
-1.24374e-06
0.00107897
-3.62126e-08
0.00108065
1.17222e-06
0.00108195
2.38247e-06
0.00108289
-4.11583e-05
0.00108347
-4.26733e-05
0.00109016
-4.39732e-05
0.00109708
-4.50541e-05
0.00110418
-4.59125e-05
0.00111143
-4.65449e-05
0.00111878
-4.69483e-05
0.00112618
-4.712e-05
0.0011336
-4.70579e-05
0.00114098
-4.67603e-05
0.00114828
-4.62261e-05
0.00115546
-4.54553e-05
0.00116247
-4.44482e-05
0.00116927
-4.32063e-05
0.0011758
-4.17321e-05
0.00118204
-4.00291e-05
0.00118792
-3.81023e-05
0.00119342
-3.59573e-05
0.00119848
-3.36017e-05
0.00120308
-3.10443e-05
0.00120716
-2.82953e-05
0.00121069
-2.53666e-05
0.00121365
-2.22718e-05
0.00121598
-1.90261e-05
0.00121768
-1.56461e-05
0.00121871
-1.21506e-05
0.00121904
-8.55972e-06
0.00121866
-4.89535e-06
0.00121756
-1.18104e-06
0.00121571
2.55827e-06
0.00121313
6.29564e-06
0.0012098
1.0004e-05
0.00120573
1.36528e-05
0.00120092
1.72137e-05
0.00119541
2.06533e-05
0.0011892
2.39415e-05
0.00118231
2.70444e-05
0.0011748
2.99312e-05
0.00116669
3.25637e-05
0.00115804
3.49161e-05
0.00114888
3.69482e-05
0.00113929
3.86353e-05
0.00112933
3.99416e-05
0.00111905
4.08379e-05
0.00110856
4.1288e-05
0.00109796
4.12528e-05
0.00108731
4.07113e-05
0.0010766
3.94423e-05
0.00106598
3.10896e-05
0.00105586
3.47056e-05
0.000979036
9.09116e-05
0.000808132
0.000150763
0.000766945
0.000187499
0.000721365
0.000212441
0.00067365
0.00021799
0.000625805
0.00019803
0.000580849
0.000173639
0.000537138
0.000155824
0.000498948
0.000142593
0.000464395
0.000132529
0.000430369
0.000125986
0.000396603
0.000125338
0.000364643
0.00012845
0.000337509
0.000131885
0.00031347
0.000133154
0.000289793
0.000134347
0.00026488
0.000133245
0.000236223
0.000135301
0.000202373
0.000136311
0.000170447
0.000143277
0.000143381
0.000144628
0.000117922
0.000153304
9.26422e-05
0.000156616
6.47828e-05
0.000175295
3.25977e-05
-1.17471e-05
-1.41455e-05
0.000785028
-1.64831e-05
0.00079496
-1.87378e-05
0.000805191
-2.08888e-05
0.000815714
-2.29165e-05
0.000826517
-2.48033e-05
0.000837581
-2.65337e-05
0.000848881
-2.80945e-05
0.000860389
-2.94749e-05
0.000872075
-3.06667e-05
0.000883901
-3.16643e-05
0.000895831
-3.24647e-05
0.000907824
-3.30674e-05
0.00091984
-3.34741e-05
0.000931838
-3.36888e-05
0.000943776
-3.37173e-05
0.000955614
-3.3567e-05
0.000967312
-3.3247e-05
0.000978833
-3.27672e-05
0.000990141
-3.21385e-05
0.0010012
-3.13724e-05
0.00101199
-3.0481e-05
0.00102247
-2.9476e-05
0.00103261
-2.83697e-05
0.00104241
-2.71736e-05
0.00105183
-2.5899e-05
0.00106086
-2.45569e-05
0.00106949
-2.31573e-05
0.00107769
-2.17096e-05
0.00108548
-2.02226e-05
0.00109283
-1.8704e-05
0.00109974
-1.7161e-05
0.00110621
-1.55996e-05
0.00111224
-1.40251e-05
0.00111782
-1.24422e-05
0.00112296
-1.08544e-05
0.00112766
-9.26485e-06
0.00113193
-7.67564e-06
0.00113576
-6.08838e-06
0.00113916
-4.50397e-06
0.00114213
-2.92275e-06
0.00114468
-1.34449e-06
0.00114682
2.31544e-07
0.00114855
1.80654e-06
0.00114986
-4.7846e-05
0.00115078
-4.95907e-05
0.00115694
-5.10775e-05
0.0011633
-5.23023e-05
0.00116983
-5.32607e-05
0.00117648
-5.39491e-05
0.00118321
-5.43639e-05
0.00118996
-5.4502e-05
0.00119671
-5.43613e-05
0.0012034
-5.39397e-05
0.00120999
-5.32364e-05
0.00121643
-5.22513e-05
0.00122268
-5.09851e-05
0.0012287
-4.94398e-05
0.00123445
-4.76186e-05
0.00123987
-4.55258e-05
0.00124492
-4.31674e-05
0.00124957
-4.05505e-05
0.00125377
-3.76844e-05
0.00125749
-3.45796e-05
0.00126068
-3.12485e-05
0.00126332
-2.77057e-05
0.00126536
-2.39672e-05
0.00126678
-2.00512e-05
0.00126754
-1.59782e-05
0.00126763
-1.17704e-05
0.00126702
-7.45182e-06
0.0012657
-3.04881e-06
0.00126364
1.41047e-06
0.00126085
5.89592e-06
0.00125731
1.03764e-05
0.00125303
1.48174e-05
0.001248
1.91856e-05
0.00124226
2.34439e-05
0.00123579
2.75553e-05
0.00122864
3.1482e-05
0.00122082
3.51836e-05
0.00121238
3.86248e-05
0.00120334
4.17617e-05
0.00119377
4.45591e-05
0.00118371
4.6975e-05
0.00117322
4.89705e-05
0.00116235
5.05114e-05
0.00115119
5.15596e-05
0.00113984
5.20827e-05
0.00112836
5.2006e-05
0.00111681
5.13096e-05
0.00110522
4.9731e-05
0.00109371
3.30843e-05
0.00108316
5.41367e-05
0.000959644
0.000140898
0.000790996
0.000202661
0.000754339
0.000235377
0.000714375
0.000258571
0.000668898
0.000259911
0.000625528
0.000238253
0.00058364
0.000207357
0.0005424
0.000186653
0.00050236
0.000172054
0.000465265
0.000161209
0.000429777
0.00015631
0.000396009
0.000156237
0.000364956
0.000158415
0.000337803
0.000160529
0.000312261
0.000159969
0.000286525
0.000159949
0.000259416
0.0001589
0.000228189
0.000163177
0.000195859
0.000165125
0.000166508
0.000173026
0.00014096
0.000174666
0.000115466
0.000182815
8.88777e-05
0.000185041
6.07486e-05
0.000204393
3.0184e-05
-2.13788e-05
-2.40774e-05
0.000795653
-2.67144e-05
0.000807633
-2.92614e-05
0.00081989
-3.16915e-05
0.000832419
-3.39798e-05
0.000845207
-3.61035e-05
0.000858235
-3.80425e-05
0.000871481
-3.97797e-05
0.000884914
-4.13012e-05
0.000898502
-4.25963e-05
0.000912208
-4.36576e-05
0.000925991
-4.44808e-05
0.000939811
-4.5065e-05
0.000953624
-4.54121e-05
0.000967386
-4.55266e-05
0.000981054
-4.54156e-05
0.000994585
-4.50881e-05
0.00100794
-4.45551e-05
0.00102107
-4.38289e-05
0.00103395
-4.29229e-05
0.00104653
-4.18513e-05
0.00105879
-4.06288e-05
0.0010707
-3.92703e-05
0.00108223
-3.77905e-05
0.00109335
-3.6204e-05
0.00110404
-3.45247e-05
0.0011143
-3.2766e-05
0.00112409
-3.09405e-05
0.00113342
-2.90597e-05
0.00114227
-2.71345e-05
0.00115063
-2.51744e-05
0.00115851
-2.31882e-05
0.00116589
-2.11834e-05
0.00117278
-1.91666e-05
0.00117917
-1.71433e-05
0.00118507
-1.51181e-05
0.00119049
-1.30946e-05
0.00119542
-1.10756e-05
0.00119987
-9.06274e-06
0.00120384
-7.05729e-06
0.00120735
-5.05956e-06
0.00121039
-3.06921e-06
0.00121298
-1.0853e-06
0.00121511
8.9369e-07
0.0012168
-5.40074e-05
0.00121804
-5.5957e-05
0.00122367
-5.76064e-05
0.00122948
-5.89508e-05
0.00123543
-5.99856e-05
0.00124148
-6.07064e-05
0.00124758
-6.11095e-05
0.00125368
-6.11917e-05
0.00125976
-6.09503e-05
0.00126575
-6.03836e-05
0.00127162
-5.94906e-05
0.00127733
-5.82713e-05
0.00128282
-5.6727e-05
0.00128806
-5.48602e-05
0.00129301
-5.26747e-05
0.00129761
-5.01758e-05
0.00130184
-4.73707e-05
0.00130564
-4.42679e-05
0.00130898
-4.08782e-05
0.00131182
-3.72141e-05
0.00131412
-3.32903e-05
0.00131585
-2.91238e-05
0.00131698
-2.47334e-05
0.00131747
-2.01403e-05
0.00131731
-1.53684e-05
0.00131646
-1.04436e-05
0.00131491
-5.39422e-06
0.00131264
-2.50525e-07
0.00130963
4.95447e-06
0.00130588
1.01864e-05
0.00130139
1.54072e-05
0.00129615
2.05803e-05
0.00129018
2.56629e-05
0.00128347
3.06154e-05
0.00127607
3.53921e-05
0.00126797
3.9952e-05
0.00125921
4.42467e-05
0.00124984
4.82346e-05
0.00123988
5.18674e-05
0.00122939
5.5102e-05
0.00121841
5.789e-05
0.00120701
6.01866e-05
0.00119525
6.19639e-05
0.00118321
6.31459e-05
0.00117097
6.37349e-05
0.00115859
6.36613e-05
0.00114613
6.28349e-05
0.00113375
6.09378e-05
0.00112156
3.98473e-05
0.00111034
6.50418e-05
0.000944894
0.000182344
0.000786168
0.000254712
0.000747438
0.000286862
0.000709553
0.000306362
0.000663669
0.000301949
0.000619792
0.000280323
0.000578978
0.000245893
0.000540512
0.00022096
0.000500692
0.000203991
0.000463202
0.000192601
0.00042787
0.000187968
0.000394551
0.000187154
0.000363539
0.000187639
0.000335385
0.000187877
0.000308328
0.000185527
0.000280858
0.000185332
0.000252073
0.000185087
0.000220635
0.000191635
0.000190774
0.000194424
0.000163732
0.00020301
0.000138269
0.000204211
0.000111805
0.000211015
8.39778e-05
0.000212628
5.58991e-05
0.000232572
2.76059e-05
-3.30838e-05
-3.60577e-05
0.000807485
-3.89715e-05
0.000821461
-4.17898e-05
0.000835692
-4.44792e-05
0.000850176
-4.70084e-05
0.000864899
-4.9349e-05
0.000879845
-5.14759e-05
0.000894989
-5.33677e-05
0.000910301
-5.50069e-05
0.000925746
-5.63799e-05
0.000941287
-5.74773e-05
0.000956881
-5.82936e-05
0.000972484
-5.88272e-05
0.000988052
-5.90801e-05
0.00100354
-5.90575e-05
0.00101889
-5.87677e-05
0.00103408
-5.82215e-05
0.00104905
-5.7432e-05
0.00106375
-5.6414e-05
0.00107816
-5.51836e-05
0.00109224
-5.37579e-05
0.00110594
-5.21546e-05
0.00111924
-5.03917e-05
0.00113211
-4.8487e-05
0.00114453
-4.64579e-05
0.00115647
-4.43214e-05
0.00116792
-4.20936e-05
0.00117886
-3.97897e-05
0.00118928
-3.74236e-05
0.00119916
-3.50083e-05
0.00120852
-3.25554e-05
0.00121733
-3.00755e-05
0.0012256
-2.75775e-05
0.00123333
-2.50694e-05
0.00124051
-2.25579e-05
0.00124716
-2.00483e-05
0.00125327
-1.75451e-05
0.00125885
-1.50513e-05
0.0012639
-1.25692e-05
0.00126844
-1.01002e-05
0.00127247
-7.64442e-06
0.00127599
-5.20158e-06
0.00127901
-2.77042e-06
0.00128154
-3.49074e-07
0.00128359
-5.96389e-05
0.00128515
-6.17689e-05
0.00129025
-6.35565e-05
0.00129551
-6.49965e-05
0.00130087
-6.60837e-05
0.00130631
-6.68137e-05
0.00131178
-6.71824e-05
0.00131724
-6.71862e-05
0.00132264
-6.68224e-05
0.00132793
-6.60893e-05
0.00133309
-6.49861e-05
0.00133805
-6.35131e-05
0.00134279
-6.16718e-05
0.00134725
-5.94655e-05
0.0013514
-5.68986e-05
0.00135519
-5.39776e-05
0.00135858
-5.07106e-05
0.00136153
-4.71078e-05
0.001364
-4.31817e-05
0.00136596
-3.89465e-05
0.00136738
-3.44195e-05
0.00136821
-2.96197e-05
0.00136842
-2.4569e-05
0.00136799
-1.9292e-05
0.0013669
-1.38154e-05
0.00136511
-8.16929e-06
0.00136262
-2.38551e-06
0.0013594
3.50081e-06
0.00135544
9.45268e-06
0.00135074
1.54301e-05
0.00134529
2.13917e-05
0.0013391
2.72923e-05
0.00133217
3.30876e-05
0.00132452
3.87282e-05
0.00131616
4.41676e-05
0.00130712
4.93526e-05
0.00129742
5.4236e-05
0.00128711
5.87616e-05
0.00127623
6.28848e-05
0.00126482
6.65444e-05
0.00125292
6.97035e-05
0.00124062
7.22946e-05
0.00122796
7.42939e-05
0.00121502
7.56087e-05
0.00120189
7.62525e-05
0.00118861
7.61553e-05
0.00117532
7.52807e-05
0.00116211
7.31267e-05
0.00114913
4.74977e-05
0.00113641
8.1823e-05
0.000937318
0.00021995
0.000790365
0.000298869
0.000747921
0.00033477
0.000707996
0.000352418
0.000661176
0.000343567
0.000616711
0.000320735
0.000575419
0.000286452
0.000536944
0.000258363
0.000498091
0.00023895
0.00046016
0.000226349
0.000424729
0.000220197
0.000391614
0.000217357
0.000360347
0.000215578
0.000331162
0.000213968
0.000302757
0.000211064
0.000274081
0.000211314
0.000244125
0.000212094
0.000214153
0.000219959
0.000187042
0.00022315
0.000161228
0.000232057
0.000134959
0.000232176
0.000107245
0.000238233
7.85369e-05
0.000240122
5.14234e-05
0.00026024
2.53979e-05
-4.68079e-05
-5.00336e-05
0.000820535
-5.3203e-05
0.000836449
-5.6273e-05
0.000852599
-5.92028e-05
0.000868983
-6.19543e-05
0.000885589
-6.44928e-05
0.0009024
-6.67879e-05
0.000919391
-6.88132e-05
0.000936531
-7.05474e-05
0.000953785
-7.19738e-05
0.000971112
-7.30807e-05
0.000988469
-7.38611e-05
0.00100581
-7.43128e-05
0.00102309
-7.44377e-05
0.00104025
-7.42418e-05
0.00105725
-7.37349e-05
0.00107405
-7.29294e-05
0.00109059
-7.18409e-05
0.00110683
-7.04866e-05
0.00112273
-6.88857e-05
0.00113825
-6.70584e-05
0.00115336
-6.50257e-05
0.00116801
-6.28087e-05
0.00118219
-6.04286e-05
0.00119587
-5.7906e-05
0.00120903
-5.52611e-05
0.00122164
-5.25128e-05
0.00123369
-4.96791e-05
0.00124517
-4.67767e-05
0.00125607
-4.38207e-05
0.00126639
-4.0825e-05
0.00127611
-3.7802e-05
0.00128525
-3.47622e-05
0.00129379
-3.17152e-05
0.00130174
-2.86686e-05
0.00130911
-2.56289e-05
0.0013159
-2.26011e-05
0.00132211
-1.9589e-05
0.00132776
-1.65951e-05
0.00133284
-1.36209e-05
0.00133737
-1.06667e-05
0.00134136
-7.73199e-06
0.00134481
-4.81523e-06
0.00134773
-1.91415e-06
0.00135012
-6.47381e-05
0.001352
-6.70239e-05
0.00135657
-6.89254e-05
0.00136126
-7.04369e-05
0.00136605
-7.15531e-05
0.00137088
-7.2269e-05
0.00137572
-7.25804e-05
0.00138052
-7.24836e-05
0.00138525
-7.19759e-05
0.00138985
-7.10555e-05
0.00139428
-6.97217e-05
0.00139851
-6.79754e-05
0.00140248
-6.58185e-05
0.00140616
-6.32547e-05
0.00140951
-6.02896e-05
0.00141248
-5.69304e-05
0.00141504
-5.31867e-05
0.00141715
-4.90701e-05
0.00141876
-4.45946e-05
0.00141984
-3.97768e-05
0.00142037
-3.46359e-05
0.00142029
-2.91934e-05
0.0014196
-2.34745e-05
0.00141825
-1.75065e-05
0.00141623
-1.13197e-05
0.00141351
-4.94736e-06
0.00141007
1.57379e-06
0.0014059
8.20523e-06
0.00140099
1.49047e-05
0.00139534
2.1628e-05
0.00138894
2.83279e-05
0.0013818
3.49555e-05
0.00137392
4.14588e-05
0.00136531
4.77853e-05
0.00135601
5.38802e-05
0.00134603
5.96864e-05
0.00133539
6.51503e-05
0.00132415
7.02095e-05
0.00131234
7.48126e-05
0.0013
7.88943e-05
0.0012872
8.24105e-05
0.00127398
8.52875e-05
0.00126042
8.74985e-05
0.00124659
8.89504e-05
0.00123257
8.96397e-05
0.0012184
8.94798e-05
0.00120423
8.85087e-05
0.00119016
8.65706e-05
0.00117634
6.33995e-05
0.00116156
0.000113701
0.000944249
0.000258113
0.000803399
0.000338535
0.000751731
0.000378635
0.000708325
0.000395969
0.000661195
0.000384909
0.000615751
0.000359776
0.000573225
0.000326234
0.000533189
0.000296967
0.000494039
0.000275661
0.000456615
0.000260826
0.000421192
0.000252092
0.000387756
0.0002467
0.000355839
0.000243122
0.000325772
0.000240786
0.000296098
0.00023769
0.000265997
0.000238456
0.000236493
0.000240448
0.000208972
0.000247912
0.0001834
0.000250418
0.000157715
0.000258638
0.000130656
0.000258049
0.000102047
0.000264569
7.34769e-05
0.000267401
4.79469e-05
0.000287505
2.35598e-05
-6.24921e-05
-6.59478e-05
0.000834816
-6.93531e-05
0.000852607
-7.26565e-05
0.000870615
-7.58091e-05
0.00088884
-7.87653e-05
0.000907271
-8.14839e-05
0.000925891
-8.39282e-05
0.000944674
-8.60669e-05
0.000963588
-8.78744e-05
0.000982597
-8.93305e-05
0.00100166
-9.0421e-05
0.00102073
-9.11374e-05
0.00103975
-9.14766e-05
0.00105869
-9.14407e-05
0.00107748
-9.10365e-05
0.00109608
-9.02749e-05
0.00111444
-8.91707e-05
0.00113251
-8.77415e-05
0.00115024
-8.60076e-05
0.00116758
-8.39913e-05
0.00118451
-8.17161e-05
0.00120098
-7.92063e-05
0.00121695
-7.64868e-05
0.0012324
-7.35821e-05
0.00124731
-7.05164e-05
0.00126164
-6.7313e-05
0.00127537
-6.39942e-05
0.0012885
-6.05808e-05
0.00130102
-5.70923e-05
0.0013129
-5.35464e-05
0.00132415
-4.99592e-05
0.00133476
-4.63449e-05
0.00134473
-4.27162e-05
0.00135407
-3.90837e-05
0.00136277
-3.54566e-05
0.00137084
-3.18422e-05
0.00137828
-2.82464e-05
0.00138511
-2.46735e-05
0.00139133
-2.11264e-05
0.00139694
-1.76068e-05
0.00140196
-1.41149e-05
0.0014064
-1.065e-05
0.00141026
-7.21043e-06
0.00141356
-3.79334e-06
0.00141629
-6.93033e-05
0.00141848
-7.17204e-05
0.00142251
-7.37117e-05
0.00142664
-7.52709e-05
0.00143085
-7.63925e-05
0.00143507
-7.70713e-05
0.00143928
-7.73028e-05
0.00144343
-7.70833e-05
0.00144748
-7.64102e-05
0.00145138
-7.52816e-05
0.0014551
-7.36974e-05
0.00145858
-7.16584e-05
0.0014618
-6.91673e-05
0.00146471
-6.62285e-05
0.00146726
-6.28484e-05
0.00146942
-5.90353e-05
0.00147114
-5.48e-05
0.0014724
-5.01558e-05
0.00147315
-4.51184e-05
0.00147336
-3.97063e-05
0.001473
-3.3941e-05
0.00147203
-2.78469e-05
0.00147043
-2.14515e-05
0.00146816
-1.47855e-05
0.00146521
-7.88276e-06
0.00146156
-7.80028e-07
0.00145718
6.48231e-06
0.00145207
1.38608e-05
0.00144622
2.1309e-05
0.00143961
2.87779e-05
0.00143227
3.62154e-05
0.00142417
4.35671e-05
0.00141534
5.07764e-05
0.00140579
5.77835e-05
0.00139555
6.453e-05
0.00138462
7.09519e-05
0.00137305
7.69894e-05
0.00136088
8.25749e-05
0.00134814
8.76506e-05
0.00133489
9.2148e-05
0.00132117
9.60122e-05
0.00130705
9.91716e-05
0.00129259
0.00010158
0.00127786
0.000103162
0.00126295
0.000103894
0.00124792
0.000103679
0.00123289
0.00010261
0.00121796
0.000101718
0.00120302
9.74453e-05
0.00118717
0.000165268
0.00095823
0.000302269
0.000816118
0.000379879
0.00075482
0.000420992
0.000708342