/*--------------------------------*- C++ -*----------------------------------*\
| =========                 |                                                 |
| \\      /  F ield         | OpenFOAM: The Open Source CFD Toolbox           |
|  \\    /   O peration     | Version:  2.2.x                                 |
|   \\  /    A nd           | Web:      www.OpenFOAM.org                      |
|    \\/     M anipulation  |                                                 |
\*---------------------------------------------------------------------------*/
FoamFile
{
    version     2.0;
    format      ascii;
    class       volScalarField;
    location    "0.1";
    object      rho;
}
// * * * * * * * * * * * * * * * * * * * * * * * * * * * * * * * * * * * * * //

dimensions      [1 -3 0 0 0 0 0];

internalField   nonuniform List<scalar> 
14161
(
1
1
1
1
1
1
1
1
1
1
1
1
1
1
1
1
1
1
1
1
1
1
1
1
1
1
1
1
1
1
1
1
1
1
1
1
1
1
1
1
1
1
1
1
1
1
1
1
1
1
1
1
1
1
1
1
1
1
1
1
1.00001
1.00001
1.00001
1.00001
1.00001
1.00001
1.00001
1.00001
1.00001
1
0.999999
0.999993
0.999983
0.999969
0.99995
0.999923
0.999891
0.999844
0.999791
0.999717
0.999635
0.999521
0.999392
0.999234
0.99904
0.998801
0.998518
0.998153
0.997738
0.997238
0.996677
0.995918
0.995064
0.993229
1.94236
2.92041
2.9958
2.98089
2.99047
2.99492
3.00628
3.02929
3.05943
3.08287
3.09603
3.08888
3.06292
3.03707
3.02307
3.01558
3.01017
3.00078
2.97763
2.93108
2.86198
2.79026
2.73851
2.71081
2.70654
1
1
1
1
1
1
1
1
1
1
1
1
1
1
1
1
1
1
1
1
1
1
1
1
1
1
1
1
1
1
1
1
1
1
1
1
1
1
1
1
1
1
1
1
1
1
1
1
1
1
1
1
1
1
1
1
1
1
1
1
1.00001
1.00001
1.00001
1.00001
1.00001
1.00001
1.00001
1.00001
1.00001
1
1
0.999993
0.999984
0.99997
0.999951
0.999926
0.99989
0.999848
0.999792
0.999722
0.999634
0.999534
0.999387
0.999243
0.999043
0.998813
0.99852
0.998182
0.99775
0.99728
0.996637
0.995926
0.995008
0.993135
1.96144
2.93312
2.999
2.98858
2.99893
3.00337
3.01318
3.03434
3.0602
3.07836
3.08731
3.08173
3.05951
3.03809
3.02595
3.01904
3.01297
3.00189
2.97669
2.92794
2.85956
2.7891
2.73807
2.71102
2.70774
1
1
1
1
1
1
1
1
1
1
1
1
1
1
1
1
1
1
1
1
1
1
1
1
1
1
1
1
1
1
1
1
1
1
1
1
1
1
1
1
1
1
1
1
1
1
1
1
1
1
1
1
1
1
1
1
1
1
1
1
1.00001
1.00001
1.00001
1.00001
1.00001
1.00001
1.00001
1.00001
1.00001
1.00001
1
0.999995
0.999985
0.999973
0.999953
0.999928
0.999894
0.999852
0.9998
0.999724
0.999645
0.999536
0.999412
0.99925
0.999073
0.998816
0.998563
0.998199
0.997814
0.997292
0.996729
0.995752
0.995187
0.993246
2.00279
2.95227
3.00058
2.99259
3.00415
3.01327
3.02241
3.0393
3.05899
3.07078
3.07546
3.07002
3.05106
3.03481
3.02662
3.02211
3.01591
3.00221
2.97305
2.92192
2.85645
2.78794
2.73743
2.7112
2.70899
1
1
1
1
1
1
1
1
1
1
1
1
1
1
1
1
1
1
1
1
1
1
1
1
1
1
1
1
1
1
1
1
1
1
1
1
1
1
1
1
1
1
1
1
1
1
1
1
1
1
1
1
1
1
1
1
1
1
1
1
1.00001
1.00001
1.00001
1.00001
1.00001
1.00001
1.00001
1.00001
1.00001
1.00001
1
0.999997
0.999989
0.999975
0.999958
0.999932
0.999903
0.999859
0.999807
0.999743
0.999652
0.99956
0.999425
0.999284
0.999081
0.998871
0.998595
0.99828
0.997861
0.997399
0.996719
0.99582
0.995486
0.993882
2.07541
2.96597
3.00302
2.99436
3.00664
3.01812
3.02941
3.04246
3.05589
3.06248
3.0641
3.05757
3.04222
3.03236
3.02755
3.02479
3.01735
3.00019
2.9659
2.91516
2.85388
2.78725
2.7367
2.71055
2.70919
1
1
1
1
1
1
1
1
1
1
1
1
1
1
1
1
1
1
1
1
1
1
1
1
1
1
1
1
1
1
1
1
1
1
1
1
1
1
1
1
1
1
1
1
1
1
1
1
1
1
1
1
1
1
1
1
1
1
1
1.00001
1.00001
1.00001
1.00001
1.00001
1.00001
1.00001
1.00001
1.00001
1.00001
1.00001
1.00001
1
0.999992
0.999982
0.999964
0.999942
0.99991
0.999872
0.999821
0.999756
0.999678
0.999577
0.99946
0.999311
0.999143
0.998912
0.998673
0.99834
0.997979
0.997461
0.996903
0.996083
0.996007
1.0043
2.17754
2.96819
2.99981
2.99199
3.00389
3.01608
3.03143
3.04265
3.05202
3.05626
3.05555
3.04733
3.03685
3.03202
3.03043
3.02642
3.01574
2.99429
2.95656
2.90945
2.85202
2.78745
2.73613
2.70842
2.70851
1
1
1
1
1
1
1
1
1
1
1
1
1
1
1
1
1
1
1
1
1
1
1
1
1
1
1
1
1
1
1
1
1
1
1
1
1
1
1
1
1
1
1
1
1
1
1
1
1
1
1
1
1
1
1
1
1
1
1
1.00001
1.00001
1.00001
1.00001
1.00001
1.00001
1.00001
1.00001
1.00002
1.00002
1.00001
1.00001
1.00001
1
0.999988
0.999974
0.999951
0.999924
0.999886
0.999837
0.999781
0.999701
0.999614
0.999491
0.999367
0.999187
0.998996
0.998743
0.998462
0.998062
0.997602
0.997188
0.996642
0.996241
1.06557
2.28792
2.95315
2.98545
2.9833
2.99476
3.00837
3.02628
3.03817
3.04764
3.05144
3.04916
3.04216
3.03621
3.03454
3.0323
3.02544
3.01079
2.98494
2.94786
2.90459
2.85013
2.78756
2.7354
2.70447
2.70629
1
1
1
1
1
1
1
1
1
1
1
1
1
1
1
1
1
1
1
1
1
1
1
1
1
1
1
1
1
1
1
1
1
1
1
1
1
1
1
1
1
1
1
1
1
1
1
1
1
1
1
1
1
1
1
1
1
1
1
1.00001
1.00001
1.00001
1.00001
1.00001
1.00001
1.00002
1.00002
1.00002
1.00002
1.00002
1.00002
1.00001
1.00001
0.999998
0.999983
0.999966
0.999937
0.999905
0.999862
0.999805
0.999738
0.999645
0.999546
0.999412
0.999265
0.999071
0.998854
0.998551
0.998237
0.997769
0.997517
0.997079
0.996111
1.17218
2.42688
2.9398
2.96419
2.9654
2.97776
2.99598
3.01308
3.02973
3.04236
3.0465
3.04487
3.04072
3.03769
3.03615
3.03166
3.02139
3.00319
2.9752
2.94113
2.90124
2.84861
2.78696
2.73362
2.6993
2.70357
1
1
1
1
1
1
1
1
1
1
1
1
1
1
1
1
1
1
1
1
1
1
1
1
1
1
1
1
1
1
1
1
1
1
1
1
1
1
1
1
1
1
1
1
1
1
1
1
1
1
1
1
1
1
1
1
1
1
1
1.00001
1.00001
1.00001
1.00001
1.00001
1.00002
1.00002
1.00002
1.00002
1.00002
1.00002
1.00002
1.00002
1.00002
1.00001
0.999998
0.999979
0.999958
0.999927
0.999887
0.999838
0.999771
0.999697
0.999593
0.999485
0.999332
0.999172
0.998954
0.998712
0.998384
0.998061
0.997703
0.997308
0.995474
1.32532
2.57373
2.93683
2.94907
2.95145
2.9631
2.98197
2.99688
3.01743
3.03301
3.03924
3.0402
3.03882
3.03703
3.03447
3.02752
3.01472
2.99482
2.968
2.9373
2.89961
2.84688
2.78428
2.72992
2.69399
2.70087
1
1
1
1
1
1
1
1
1
1
1
1
1
1
1
1
1
1
1
1
1
1
1
1
1
1
1
1
1
1
1
1
1
1
1
1
1
1
1
1
1
1
1
1
1
1
1
1
1
1
1
1
1
1
1
1
1
1
1.00001
1.00001
1.00001
1.00001
1.00001
1.00002
1.00002
1.00002
1.00002
1.00003
1.00003
1.00003
1.00003
1.00003
1.00003
1.00002
1.00001
1
0.999978
0.999953
0.999917
0.999873
0.999818
0.999741
0.999661
0.999549
0.999426
0.999267
0.999093
0.998857
0.998597
0.998283
0.997933
0.99744
0.995144
1.51919
2.70747
2.93843
2.94075
2.94334
2.95222
2.96936
2.98278
3.00452
3.02194
3.03014
3.03373
3.0337
3.03216
3.02843
3.02014
3.0069
2.98706
2.96291
2.93467
2.89748
2.84329
2.77882
2.72458
2.68896
2.69776
1
1
1
1
1
1
1
1
1
1
1
1
1
1
1
1
1
1
1
1
1
1
1
1
1
1
1
1
1
1
1
1
1
1
1
1
1
1
1
1
1
1
1
1
1
1
1
1
1
1
1
1
1
1
1
1
1
1
1.00001
1.00001
1.00001
1.00001
1.00001
1.00002
1.00002
1.00002
1.00003
1.00003
1.00004
1.00004
1.00004
1.00004
1.00004
1.00004
1.00003
1.00002
1.00001
0.999981
0.999954
0.999913
0.999864
0.999801
0.999724
0.99963
0.999515
0.999387
0.999211
0.999031
0.998807
0.998542
0.998139
0.997645
0.995273
1.7358
2.81963
2.94222
2.93411
2.93753
2.94409
2.95853
2.97157
2.99296
3.01151
3.0213
3.02549
3.02516
3.02346
3.01944
3.01106
2.99745
2.97938
2.95873
2.93139
2.89318
2.83709
2.77157
2.71922
2.68488
2.69435
1
1
1
1
1
1
1
1
1
1
1
1
1
1
1
1
1
1
1
1
1
1
1
1
1
1
1
1
1
1
1
1
1
1
1
1
1
1
1
1
1
1
1
1
1
1
1
1
1
1
1
1
1
1
1
1
1
1
1.00001
1.00001
1.00001
1.00001
1.00002
1.00002
1.00002
1.00003
1.00003
1.00004
1.00004
1.00005
1.00005
1.00005
1.00006
1.00006
1.00005
1.00004
1.00003
1.00002
0.999991
0.99996
0.999913
0.999863
0.999793
0.999713
0.999617
0.999498
0.999365
0.999196
0.999023
0.998761
0.998415
0.997929
1.00064
1.96121
2.89988
2.9406
2.92553
2.92881
2.93416
2.94792
2.96201
2.9831
3.00163
3.01212
3.0162
3.01559
3.01373
3.00908
3.00022
2.98754
2.97236
2.95369
2.926
2.88625
2.82928
2.76432
2.71407
2.68091
2.69052
1
1
1
1
1
1
1
1
1
1
1
1
1
1
1
1
1
1
1
1
1
1
1
1
1
1
1
1
1
1
1
1
1
1
1
1
1
1
1
1
1
1
1
1
1
1
1
1
1
1
1
1
1
1
1
1
1
1.00001
1.00001
1.00001
1.00001
1.00002
1.00002
1.00002
1.00003
1.00003
1.00004
1.00004
1.00005
1.00006
1.00006
1.00007
1.00007
1.00007
1.00007
1.00007
1.00006
1.00005
1.00003
1.00001
0.999973
0.999924
0.999872
0.999802
0.999724
0.999628
0.999512
0.99938
0.9992
0.999
0.998824
0.9981
1.05862
2.23874
2.91009
2.92239
2.90859
2.9131
2.92002
2.93479
2.95192
2.97401
2.99179
3.00268
3.00694
3.00661
3.00446
2.99879
2.99009
2.97933
2.966
2.94665
2.91771
2.87696
2.82037
2.7571
2.70858
2.67628
2.68603
1
1
1
1
1
1
1
1
1
1
1
1
1
1
1
1
1
1
1
1
1
1
1
1
1
1
1
1
1
1
1
1
1
1
1
1
1
1
1
1
1
1
1
1
1
1
1
1
1
1
1
1
1
1
1
1
1
1.00001
1.00001
1.00001
1.00001
1.00002
1.00002
1.00003
1.00003
1.00004
1.00004
1.00005
1.00006
1.00007
1.00008
1.00008
1.00009
1.0001
1.0001
1.0001
1.0001
1.00009
1.00008
1.00006
1.00003
0.999997
0.999951
0.999902
0.999835
0.999762
0.999669
0.99954
0.999431
0.999261
0.999227
0.997799
1.24618
2.50257
2.90266
2.89998
2.89065
2.89571
2.90378
2.91765
2.93758
2.96248
2.98044
2.99236
2.99736
2.99751
2.99555
2.99007
2.982
2.97185
2.9582
2.93735
2.90747
2.86583
2.81026
2.7492
2.70237
2.67085
2.68118
1
1
1
1
1
1
1
1
1
1
1
1
1
1
1
1
1
1
1
1
1
1
1
1
1
1
1
1
1
1
1
1
1
1
1
1
1
1
1
1
1
1
1
1
1
1
1
1
1
1
1
1
1
1
1
1
1
1.00001
1.00001
1.00001
1.00001
1.00002
1.00002
1.00003
1.00003
1.00004
1.00005
1.00006
1.00007
1.00008
1.00009
1.0001
1.00011
1.00012
1.00013
1.00013
1.00014
1.00013
1.00013
1.00011
1.0001
1.00007
1.00004
1
0.999955
0.999892
0.999824
0.99973
0.999668
0.999547
0.999417
0.997035
1.53672
2.71008
2.899
2.88299
2.87477
2.87995
2.889
2.89987
2.92187
2.94892
2.96675
2.98004
2.98611
2.9869
2.98602
2.98151
2.97434
2.96371
2.94891
2.92681
2.89633
2.85459
2.80041
2.7409
2.69538
2.66489
2.67597
1
1
1
1
1
1
1
1
1
1
1
1
1
1
1
1
1
1
1
1
1
1
1
1
1
1
1
1
1
1
1
1
1
1
1
1
1
1
1
1
1
1
1
1
1
1
1
1
1
1
1
1
1
1
1
1
1.00001
1.00001
1.00001
1.00001
1.00002
1.00002
1.00003
1.00003
1.00004
1.00005
1.00006
1.00007
1.00008
1.00009
1.0001
1.00012
1.00013
1.00014
1.00016
1.00016
1.00017
1.00018
1.00018
1.00017
1.00017
1.00015
1.00013
1.00011
1.00007
1.00003
0.999984
0.999922
0.999853
0.999737
0.999305
1.00004
1.84284
2.83544
2.89402
2.8711
2.86303
2.86581
2.8755
2.8846
2.90662
2.93447
2.95292
2.96677
2.97339
2.97448
2.97446
2.97167
2.96567
2.95495
2.93946
2.91649
2.88609
2.8448
2.79129
2.73239
2.68761
2.65842
2.66995
1
1
1
1
1
1
1
1
1
1
1
1
1
1
1
1
1
1
1
1
1
1
1
1
1
1
1
1
1
1
1
1
1
1
1
1
1
1
1
1
1
1
1
1
1
1
1
1
1
1
1
1
1
1
1
1
1.00001
1.00001
1.00001
1.00001
1.00002
1.00002
1.00003
1.00003
1.00004
1.00005
1.00006
1.00007
1.00009
1.0001
1.00012
1.00014
1.00015
1.00017
1.00019
1.0002
1.00021
1.00023
1.00023
1.00024
1.00024
1.00023
1.00022
1.00021
1.00019
1.00016
1.00013
1.00009
0.999984
0.999947
0.99903
1.05219
2.19934
2.86861
2.87358
2.85338
2.84722
2.8506
2.85884
2.87034
2.89336
2.91991
2.9396
2.95367
2.96073
2.96214
2.96231
2.95993
2.95472
2.94482
2.92947
2.90651
2.87675
2.83574
2.78171
2.72305
2.67955
2.65203
2.6634
1
1
1
1
1
1
1
1
1
1
1
1
1
1
1
1
1
1
1
1
1
1
1
1
1
1
1
1
1
1
1
1
1
1
1
1
1
1
1
1
1
1
1
1
1
1
1
1
1
1
1
1
1
1
1
1
1.00001
1.00001
1.00001
1.00002
1.00002
1.00002
1.00003
1.00004
1.00005
1.00006
1.00007
1.00008
1.0001
1.00012
1.00013
1.00015
1.00018
1.0002
1.00022
1.00024
1.00026
1.00028
1.00029
1.0003
1.00031
1.00032
1.00032
1.00032
1.00031
1.00029
1.00027
1.00025
1.0002
1.00028
0.998625
1.28204
2.51363
2.85338
2.84306
2.82942
2.82625
2.8313
2.83822
2.85401
2.87831
2.90464
2.92634
2.94094
2.9483
2.94971
2.94981
2.94728
2.94219
2.93252
2.91799
2.89607
2.86733
2.82648
2.77158
2.71338
2.6719
2.64625
2.65712
1
1
1
1
1
1
1
1
1
1
1
1
1
1
1
1
1
1
1
1
1
1
1
1
1
1
1
1
1
1
1
1
1
1
1
1
1
1
1
1
1
1
1
1
1
1
1
1
1
1
1
1
1
1
1
1
1.00001
1.00001
1.00001
1.00002
1.00002
1.00003
1.00003
1.00004
1.00005
1.00006
1.00008
1.00009
1.00011
1.00013
1.00015
1.00017
1.0002
1.00022
1.00025
1.00028
1.0003
1.00033
1.00035
1.00037
1.00039
1.00041
1.00042
1.00042
1.00042
1.00042
1.00042
1.00043
1.00041
1.00031
0.997659
1.61689
2.72547
2.85033
2.82538
2.81095
2.80718
2.81118
2.81802
2.83478
2.85977
2.88808
2.91206
2.92798
2.93587
2.93722
2.93714
2.93432
2.929
2.91925
2.90511
2.88435
2.85661
2.81625
2.76101
2.70382
2.6646
2.64076
2.65131
1
1
1
1
1
1
1
1
1
1
1
1
1
1
1
1
1
1
1
1
1
1
1
1
1
1
1
1
1
1
1
1
1
1
1
1
1
1
1
1
1
1
1
1
1
1
1
1
1
1
1
1
1
1
1
1
1.00001
1.00001
1.00001
1.00002
1.00002
1.00003
1.00004
1.00004
1.00005
1.00007
1.00008
1.0001
1.00012
1.00014
1.00017
1.00019
1.00022
1.00025
1.00028
1.00032
1.00035
1.00038
1.00042
1.00045
1.00047
1.00049
1.00052
1.00053
1.00054
1.00055
1.00056
1.00056
1.0005
0.999749
1.00908
2.00304
2.82262
2.83601
2.80965
2.79552
2.79127
2.79356
2.80122
2.81585
2.84025
2.86996
2.89512
2.91286
2.92197
2.92431
2.92449
2.92155
2.916
2.90636
2.89283
2.87257
2.84489
2.8046
2.7495
2.69389
2.65713
2.63519
2.64549
1
1
1
1
1
1
1
1
1
1
1
1
1
1
1
1
1
1
1
1
1
1
1
1
1
1
1
1
1
1
1
1
1
1
1
1
1
1
1
1
1
1
1
1
1
1
1
1
1
1
1
1
1
1
1
1
1.00001
1.00001
1.00001
1.00002
1.00002
1.00003
1.00004
1.00005
1.00006
1.00007
1.00009
1.00011
1.00013
1.00015
1.00018
1.00021
1.00025
1.00028
1.00032
1.00036
1.0004
1.00044
1.00048
1.00052
1.00055
1.00058
1.00061
1.00064
1.00066
1.00068
1.00068
1.00066
1.00066
0.998856
1.17871
2.38016
2.80878
2.80263
2.78394
2.77538
2.77353
2.77584
2.78723
2.79876
2.82164
2.85189
2.87759
2.89617
2.90645
2.91046
2.91135
2.90889
2.90359
2.89417
2.88076
2.86061
2.83244
2.79173
2.73718
2.6837
2.64929
2.62949
2.6394
1
1
1
1
1
1
1
1
1
1
1
1
1
1
1
1
1
1
1
1
1
1
1
1
1
1
1
1
1
1
1
1
1
1
1
1
1
1
1
1
1
1
1
1
1
1
1
1
1
1
1
1
1
1
1
1
1.00001
1.00001
1.00001
1.00002
1.00002
1.00003
1.00004
1.00005
1.00006
1.00008
1.00009
1.00011
1.00014
1.00016
1.0002
1.00023
1.00027
1.00031
1.00035
1.0004
1.00045
1.00049
1.00054
1.00059
1.00063
1.00068
1.00072
1.00075
1.00078
1.00081
1.00084
1.00086
1.00087
0.9978
1.50331
2.63116
2.80518
2.77631
2.75747
2.75142
2.75075
2.75333
2.7691
2.78258
2.80569
2.83503
2.86145
2.88009
2.89045
2.89532
2.89668
2.8952
2.89091
2.88222
2.86865
2.84825
2.8195
2.77854
2.72501
2.67365
2.6412
2.62348
2.63288
1
1
1
1
1
1
1
1
1
1
1
1
1
1
1
1
1
1
1
1
1
1
1
1
1
1
1
1
1
1
1
1
1
1
1
1
1
1
1
1
1
1
1
1
1
1
1
1
1
1
1
1
1
1
1
1
1.00001
1.00001
1.00001
1.00002
1.00002
1.00003
1.00004
1.00005
1.00006
1.00008
1.0001
1.00012
1.00014
1.00017
1.00021
1.00025
1.00029
1.00034
1.00039
1.00044
1.00049
1.00055
1.00061
1.00067
1.00072
1.00077
1.00082
1.00087
1.00091
1.00096
1.00099
1.00101
1.00035
1.00448
1.90115
2.76232
2.79119
2.76102
2.74135
2.73168
2.72734
2.72922
2.7455
2.76258
2.78902
2.81849
2.8463
2.86534
2.87518
2.88013
2.88123
2.88033
2.87705
2.86925
2.85579
2.8355
2.80655
2.76551
2.71291
2.66365
2.63312
2.61756
2.62596
1
1
1
1
1
1
1
1
1
1
1
1
1
1
1
1
1
1
1
1
1
1
1
1
1
1
1
1
1
1
1
1
1
1
1
1
1
1
1
1
1
1
1
1
1
1
1
1
1
1
1
1
1
1
1
1
1.00001
1.00001
1.00001
1.00002
1.00002
1.00003
1.00004
1.00005
1.00006
1.00008
1.0001
1.00012
1.00015
1.00018
1.00022
1.00026
1.00031
1.00036
1.00042
1.00048
1.00054
1.0006
1.00067
1.00074
1.00081
1.00087
1.00093
1.00099
1.00105
1.00109
1.00112
1.00108
0.999177
1.14338
2.30118
2.7586
2.76087
2.74138
2.72436
2.71351
2.70787
2.71044
2.72325
2.73976
2.76823
2.80004
2.83063
2.85046
2.8604
2.86535
2.86584
2.86485
2.86174
2.85473
2.84177
2.82208
2.79311
2.75205
2.7004
2.65362
2.62491
2.6114
2.61909
1
1
1
1
1
1
1
1
1
1
1
1
1
1
1
1
1
1
1
1
1
1
1
1
1
1
1
1
1
1
1
1
1
1
1
1
1
1
1
1
1
1
1
1
1
1
1
1
1
1
1
1
1
1
1
1
1.00001
1.00001
1.00001
1.00002
1.00002
1.00003
1.00004
1.00005
1.00007
1.00008
1.0001
1.00013
1.00016
1.00019
1.00023
1.00028
1.00033
1.00038
1.00045
1.00051
1.00058
1.00066
1.00073
1.00081
1.00089
1.00097
1.00105
1.00112
1.00119
1.00125
1.00132
1.0013
0.997571
1.45517
2.55917
2.75212
2.72852
2.70829
2.69813
2.69337
2.6909
2.6953
2.70399
2.71925
2.74702
2.77903
2.81176
2.8339
2.84527
2.8508
2.85075
2.84945
2.84604
2.83924
2.8267
2.80748
2.77857
2.73774
2.68739
2.64355
2.61668
2.60521
2.61173
1
1
1
1
1
1
1
1
1
1
1
1
1
1
1
1
1
1
1
1
1
1
1
1
1
1
1
1
1
1
1
1
1
1
1
1
1
1
1
1
1
1
1
1
1
1
1
1
1
1
1
1
1
1
1
1
1.00001
1.00001
1.00001
1.00002
1.00002
1.00003
1.00004
1.00005
1.00006
1.00008
1.0001
1.00013
1.00016
1.0002
1.00024
1.00029
1.00034
1.0004
1.00047
1.00054
1.00062
1.00071
1.00079
1.00089
1.00098
1.00108
1.00117
1.00125
1.00134
1.00142
1.00151
1.00098
1.00204
1.84821
2.70142
2.73964
2.70921
2.68452
2.67259
2.66922
2.67016
2.678
2.68588
2.70172
2.72794
2.75917
2.79215
2.8153
2.82841
2.8351
2.83548
2.83457
2.83091
2.8238
2.81141
2.79237
2.76354
2.72284
2.67412
2.63319
2.60866
2.59854
2.60421
1
1
1
1
1
1
1
1
1
1
1
1
1
1
1
1
1
1
1
1
1
1
1
1
1
1
1
1
1
1
1
1
1
1
1
1
1
1
1
1
1
1
1
1
1
1
1
1
1
1
1
1
1
1
1
1
1.00001
1.00001
1.00001
1.00002
1.00002
1.00003
1.00004
1.00005
1.00006
1.00008
1.0001
1.00013
1.00016
1.0002
1.00024
1.00029
1.00035
1.00042
1.00049
1.00057
1.00066
1.00076
1.00085
1.00096
1.00107
1.00118
1.00129
1.00139
1.00148
1.00154
1.00159
0.999653
1.12459
2.23936
2.70585
2.71488
2.69185
2.6681
2.65376
2.6472
2.64713
2.65612
2.66593
2.68396
2.70954
2.74033
2.77286
2.7965
2.81064
2.81816
2.81975
2.81967
2.81625
2.80891
2.79652
2.7774
2.74871
2.70819
2.66123
2.62307
2.60077
2.5916
2.59614
1
1
1
1
1
1
1
1
1
1
1
1
1
1
1
1
1
1
1
1
1
1
1
1
1
1
1
1
1
1
1
1
1
1
1
1
1
1
1
1
1
1
1
1
1
1
1
1
1
1
1
1
1
1
1
1
1
1.00001
1.00001
1.00001
1.00002
1.00003
1.00004
1.00005
1.00006
1.00008
1.0001
1.00013
1.00016
1.0002
1.00025
1.0003
1.00036
1.00043
1.00051
1.0006
1.0007
1.0008
1.00091
1.00103
1.00116
1.00128
1.0014
1.00151
1.00163
1.00171
1.0018
0.997713
1.41758
2.48404
2.69216
2.67722
2.65979
2.64835
2.63721
2.62768
2.62562
2.63362
2.64427
2.66425
2.68985
2.72202
2.75483
2.77844
2.7929
2.80077
2.80321
2.80381
2.80131
2.79432
2.78198
2.76265
2.73409
2.6937
2.64838
2.61279
2.59241
2.58391
2.58786
1
1
1
1
1
1
1
1
1
1
1
1
1
1
1
1
1
1
1
1
1
1
1
1
1
1
1
1
1
1
1
1
1
1
1
1
1
1
1
1
1
1
1
1
1
1
1
1
1
1
1
1
1
1
1
1
1
1.00001
1.00001
1.00001
1.00002
1.00002
1.00003
1.00004
1.00006
1.00008
1.0001
1.00013
1.00016
1.0002
1.00025
1.0003
1.00037
1.00044
1.00053
1.00062
1.00073
1.00084
1.00096
1.0011
1.00124
1.00137
1.00151
1.00165
1.0018
1.00193
1.00161
0.999872
1.78532
2.62742
2.67891
2.65384
2.63244
2.62261
2.61403
2.60822
2.60721
2.61433
2.62445
2.64273
2.66783
2.70186
2.73631
2.76089
2.77576
2.78377
2.78649
2.78716
2.78548
2.77924
2.76733
2.74807
2.7196
2.67967
2.63615
2.60279
2.58367
2.57582
2.5782
1
1
1
1
1
1
1
1
1
1
1
1
1
1
1
1
1
1
1
1
1
1
1
1
1
1
1
1
1
1
1
1
1
1
1
1
1
1
1
1
1
1
1
1
1
1
1
1
1
1
1
1
1
1
1
1
1
1.00001
1.00001
1.00001
1.00002
1.00002
1.00003
1.00004
1.00005
1.00007
1.00009
1.00012
1.00015
1.0002
1.00024
1.0003
1.00037
1.00045
1.00054
1.00064
1.00075
1.00087
1.00101
1.00116
1.00131
1.00146
1.00163
1.0018
1.00192
1.00207
1.00047
1.09178
2.15444
2.64806
2.66346
2.63962
2.61177
2.59822
2.58946
2.58579
2.58667
2.59546
2.60583
2.622
2.64552
2.68024
2.71622
2.74309
2.75884
2.76708
2.76988
2.77042
2.76899
2.76324
2.75181
2.73269
2.70452
2.66511
2.62325
2.59218
2.57447
2.567
2.56897
1
1
1
1
1
1
1
1
1
1
1
1
1
1
1
1
1
1
1
1
1
1
1
1
1
1
1
1
1
1
1
1
1
1
1
1
1
1
1
1
1
1
1
1
1
1
1
1
1
1
1
1
1
1
1
1
1
1
1.00001
1.00001
1.00001
1.00002
1.00003
1.00004
1.00005
1.00007
1.00009
1.00011
1.00015
1.00019
1.00024
1.0003
1.00037
1.00045
1.00054
1.00065
1.00077
1.0009
1.00105
1.00121
1.00138
1.00156
1.00175
1.00194
1.0021
1.00231
0.998485
1.3466
2.38469
2.62692
2.62691
2.6135
2.59477
2.57966
2.56761
2.56295
2.56577
2.57484
2.58597
2.60202
2.6244
2.65824
2.69477
2.72386
2.74126
2.75048
2.75346
2.75383
2.75235
2.74662
2.73542
2.71691
2.68951
2.65104
2.61083
2.58161
2.56479
2.55762
2.55882
1
1
1
1
1
1
1
1
1
1
1
1
1
1
1
1
1
1
1
1
1
1
1
1
1
1
1
1
1
1
1
1
1
1
1
1
1
1
1
1
1
1
1
1
1
1
1
1
1
1
1
1
1
1
1
1
1
1
1.00001
1.00001
1.00001
1.00002
1.00002
1.00003
1.00005
1.00006
1.00008
1.00011
1.00014
1.00018
1.00023
1.00029
1.00036
1.00045
1.00054
1.00065
1.00078
1.00092
1.00108
1.00125
1.00144
1.00164
1.00185
1.00208
1.00226
1.00227
0.998032
1.66898
2.52685
2.60794
2.59885
2.58367
2.56981
2.56006
2.54887
2.54334
2.54629
2.55209
2.56381
2.58128
2.60411
2.63718
2.67358
2.7038
2.72263
2.73313
2.7368
2.73709
2.73538
2.72974
2.71887
2.70098
2.67408
2.63647
2.59774
2.57035
2.55456
2.54796
2.54926
1
1
1
1
1
1
1
1
1
1
1
1
1
1
1
1
1
1
1
1
1
1
1
1
1
1
1
1
1
1
1
1
1
1
1
1
1
1
1
1
1
1
1
1
1
1
1
1
1
1
1
1
1
1
1
1
1
1
1
1.00001
1.00001
1.00001
1.00002
1.00003
1.00004
1.00005
1.00007
1.0001
1.00013
1.00017
1.00022
1.00028
1.00035
1.00044
1.00054
1.00065
1.00079
1.00093
1.00111
1.00129
1.0015
1.00172
1.00196
1.00219
1.0024
1.0016
1.03488
2.00685
2.57724
2.59823
2.57897
2.55613
2.54375
2.5356
2.52843
2.52599
2.52685
2.52925
2.54111
2.55925
2.58314
2.61593
2.65262
2.68389
2.70332
2.71482
2.71943
2.71994
2.71833
2.71292
2.70252
2.6853
2.65924
2.6225
2.58502
2.55901
2.54383
2.53779
2.53795
1
1
1
1
1
1
1
1
1
1
1
1
1
1
1
1
1
1
1
1
1
1
1
1
1
1
1
1
1
1
1
1
1
1
1
1
1
1
1
1
1
1
1
1
1
1
1
1
1
1
1
1
1
1
1
1
1
1
1
1.00001
1.00001
1.00001
1.00002
1.00002
1.00003
1.00005
1.00006
1.00009
1.00012
1.00016
1.0002
1.00026
1.00034
1.00042
1.00053
1.00065
1.00078
1.00094
1.00112
1.00132
1.00155
1.00178
1.00204
1.0023
1.00258
0.999897
1.21728
2.23977
2.5617
2.57223
2.55861
2.53608
2.52091
2.51203
2.50738
2.50574
2.5055
2.50819
2.51967
2.53702
2.56143
2.59428
2.63193
2.66474
2.68432
2.69665
2.70209
2.70294
2.70172
2.69662
2.68634
2.66929
2.64338
2.60739
2.57138
2.54704
2.53281
2.52738
2.52652
1
1
1
1
1
1
1
1
1
1
1
1
1
1
1
1
1
1
1
1
1
1
1
1
1
1
1
1
1
1
1
1
1
1
1
1
1
1
1
1
1
1
1
1
1
1
1
1
1
1
1
1
1
1
1
1
1
1
1
1
1.00001
1.00001
1.00001
1.00002
1.00003
1.00004
1.00006
1.00008
1.00011
1.00014
1.00019
1.00025
1.00032
1.0004
1.00051
1.00063
1.00077
1.00094
1.00112
1.00133
1.00158
1.00185
1.00212
1.00243
1.00271
0.99824
1.47258
2.38046
2.53806
2.53932
2.53237
2.51641
2.50266
2.49129
2.48491
2.48287
2.48445
2.4886
2.49908
2.51521
2.5396
2.57218
2.61049
2.64484
2.66538
2.6786
2.68456
2.68558
2.68471
2.67985
2.66984
2.65305
2.62755
2.59264
2.5583
2.53523
2.5215
2.51618
2.51372
1
1
1
1
1
1
1
1
1
1
1
1
1
1
1
1
1
1
1
1
1
1
1
1
1
1
1
1
1
1
1
1
1
1
1
1
1
1
1
1
1
1
1
1
1
1
1
1
1
1
1
1
1
1
1
1
1
1
1
1
1
1.00001
1.00001
1.00002
1.00002
1.00003
1.00005
1.00007
1.00009
1.00013
1.00017
1.00022
1.00029
1.00038
1.00048
1.00061
1.00075
1.00092
1.00112
1.00134
1.0016
1.00189
1.00219
1.00249
1.00259
0.999042
1.74283
2.46721
2.51972
2.51312
2.50341
2.49316
2.48301
2.47084
2.46264
2.46082
2.46383
2.46919
2.47845
2.49374
2.51779
2.54975
2.58877
2.6248
2.64699
2.66088
2.66716
2.66829
2.66755
2.66291
2.65318
2.63665
2.61141
2.57768
2.54494
2.52309
2.50997
2.5047
2.50227
1
1
1
1
1
1
1
1
1
1
1
1
1
1
1
1
1
1
1
1
1
1
1
1
1
1
1
1
1
1
1
1
1
1
1
1
1
1
1
1
1
1
1
1
1
1
1
1
1
1
1
1
1
1
1
1
1
1
1
1
1
1.00001
1.00001
1.00001
1.00002
1.00003
1.00004
1.00006
1.00008
1.00011
1.00015
1.0002
1.00027
1.00035
1.00045
1.00058
1.00072
1.0009
1.0011
1.00134
1.0016
1.0019
1.00225
1.0026
1.00211
1.05592
2.00436
2.48335
2.50581
2.49453
2.47986
2.46991
2.4603
2.45024
2.44241
2.44086
2.4425
2.44795
2.45733
2.47256
2.49575
2.52704
2.56619
2.60351
2.6274
2.64204
2.64872
2.65024
2.64971
2.64554
2.63629
2.62034
2.59582
2.56362
2.53259
2.51144
2.49813
2.49243
2.48881
1
1
1
1
1
1
1
1
1
1
1
1
1
1
1
1
1
1
1
1
1
1
1
1
1
1
1
1
1
1
1
1
1
1
1
1
1
1
1
1
1
1
1
1
1
1
1
1
1
1
1
1
1
1
1
1
1
1
1
1
1
1
1.00001
1.00001
1.00001
1.00002
1.00003
1.00004
1.00006
1.00009
1.00013
1.00018
1.00024
1.00032
1.00042
1.00054
1.00069
1.00086
1.00107
1.00132
1.00159
1.0019
1.00227
1.00275
1.00059
1.20218
2.16131
2.47125
2.48272
2.47309
2.45828
2.44686
2.4371
2.4285
2.42278
2.42083
2.42081
2.42667
2.43632
2.452
2.47494
2.50589
2.54443
2.58199
2.60729
2.6228
2.63013
2.63218
2.63193
2.62834
2.61979
2.60434
2.58019
2.54897
2.51931
2.49902
2.4859
2.47999
2.47637
1
1
1
1
1
1
1
1
1
1
1
1
1
1
1
1
1
1
1
1
1
1
1
1
1
1
1
1
1
1
1
1
1
1
1
1
1
1
1
1
1
1
1
1
1
1
1
1
1
1
1
1
1
1
1
1
1
1
1
1
1
1
1
1.00001
1.00001
1.00002
1.00002
1.00004
1.00005
1.00007
1.00011
1.00015
1.00021
1.00028
1.00038
1.00049
1.00064
1.00082
1.00103
1.00128
1.00157
1.0019
1.0023
1.00268
0.998933
1.38788
2.26138
2.45157
2.45573
2.45139
2.43838
2.42577
2.41643
2.40923
2.40384
2.40034
2.40061
2.40654
2.41609
2.43159
2.45369
2.48392
2.52147
2.55953
2.58639
2.60322
2.61165
2.61441
2.61435
2.61115
2.60291
2.58788
2.56419
2.53417
2.50594
2.48631
2.47314
2.46688
2.4623
1
1
1
1
1
1
1
1
1
1
1
1
1
1
1
1
1
1
1
1
1
1
1
1
1
1
1
1
1
1
1
1
1
1
1
1
1
1
1
1
1
1
1
1
1
1
1
1
1
1
1
1
1
1
1
1
1
1
1
1
1
1
1
1
1.00001
1.00001
1.00002
1.00003
1.00004
1.00006
1.00008
1.00012
1.00017
1.00024
1.00033
1.00044
1.00058
1.00076
1.00097
1.00123
1.00154
1.00189
1.00226
1.00257
0.99897
1.57917
2.32931
2.4306
2.43043
2.42831
2.41981
2.40829
2.39761
2.38908
2.38295
2.38001
2.38052
2.3857
2.39512
2.41036
2.43179
2.46179
2.49954
2.53886
2.56739
2.58542
2.59433
2.59718
2.59709
2.59403
2.58619
2.57151
2.54833
2.51907
2.4919
2.47293
2.45993
2.45382
2.44962
1
1
1
1
1
1
1
1
1
1
1
1
1
1
1
1
1
1
1
1
1
1
1
1
1
1
1
1
1
1
1
1
1
1
1
1
1
1
1
1
1
1
1
1
1
1
1
1
1
1
1
1
1
1
1
1
1
1
1
1
1
1
1
1
1
1.00001
1.00001
1.00002
1.00003
1.00004
1.00007
1.0001
1.00014
1.0002
1.00028
1.00039
1.00052
1.00069
1.0009
1.00116
1.00149
1.00184
1.0022
1.00249
0.999661
1.76549
2.36833
2.41321
2.40894
2.40553
2.39931
2.38946
2.37801
2.36848
2.36274
2.36191
2.36324
2.36719
2.37465
2.38894
2.40922
2.43815
2.4756
2.51617
2.54677
2.56657
2.57667
2.58002
2.58008
2.57707
2.56914
2.55469
2.532
2.50393
2.47804
2.45986
2.44695
2.44063
2.43559
1
1
1
1
1
1
1
1
1
1
1
1
1
1
1
1
1
1
1
1
1
1
1
1
1
1
1
1
1
1
1
1
1
1
1
1
1
1
1
1
1
1
1
1
1
1
1
1
1
1
1
1
1
1
1
1
1
1
1
1
1
1
1
1
1
1
1.00001
1.00001
1.00002
1.00003
1.00005
1.00007
1.00011
1.00016
1.00023
1.00033
1.00045
1.00062
1.00082
1.00108
1.0014
1.00176
1.00218
1.00226
1.04391
1.92198
2.37112
2.39606
2.38961
2.38383
2.3781
2.36998
2.35873
2.34784
2.34308
2.34375
2.34489
2.34759
2.35445
2.36788
2.38682
2.41474
2.45227
2.49424
2.52684
2.54806
2.55873
2.56237
2.56248
2.55964
2.55205
2.53795
2.51599
2.48872
2.4637
2.44609
2.43351
2.42751
2.4228
1
1
1
1
1
1
1
1
1
1
1
1
1
1
1
1
1
1
1
1
1
1
1
1
1
1
1
1
1
1
1
1
1
1
1
1
1
1
1
1
1
1
1
1
1
1
1
1
1
1
1
1
1
1
1
1
1
1
1
1
1
1
1
1
1
1
1
1.00001
1.00001
1.00002
1.00003
1.00005
1.00008
1.00012
1.00018
1.00027
1.00038
1.00053
1.00073
1.00098
1.00128
1.00165
1.00214
1.00148
1.12312
2.01769
2.36133
2.37556
2.36856
2.36093
2.35631
2.34987
2.33878
2.32708
2.32251
2.32396
2.32481
2.32666
2.33425
2.34794
2.36734
2.39441
2.43017
2.47182
2.50589
2.52865
2.5404
2.54468
2.54499
2.54219
2.5349
2.52116
2.49988
2.47408
2.45025
2.4334
2.42088
2.41454
2.40859
1
1
1
1
1
1
1
1
1
1
1
1
1
1
1
1
1
1
1
1
1
1
1
1
1
1
1
1
1
1
1
1
1
1
1
1
1
1
1
1
1
1
1
1
1
1
1
1
1
1
1
1
1
1
1
1
1
1
1
1
1
1
1
1
1
1
1
1
1.00001
1.00001
1.00002
1.00003
1.00005
1.00008
1.00013
1.0002
1.0003
1.00044
1.00063
1.00086
1.00116
1.00153
1.00198
1.00042
1.21626
2.07967
2.34773
2.35679
2.35111
2.34261
2.33742
2.33121
2.32163
2.31068
2.30599
2.30645
2.30602
2.3083
2.3158
2.32849
2.34665
2.37273
2.40762
2.44938
2.48478
2.50861
2.52088
2.52575
2.52638
2.52417
2.51762
2.50476
2.48444
2.45955
2.43643
2.41989
2.40752
2.40135
2.39546
1
1
1
1
1
1
1
1
1
1
1
1
1
1
1
1
1
1
1
1
1
1
1
1
1
1
1
1
1
1
1
1
1
1
1
1
1
1
1
1
1
1
1
1
1
1
1
1
1
1
1
1
1
1
1
1
1
1
1
1
1
1
1
1
1
1
1
1
1
1
1.00001
1.00001
1.00003
1.00005
1.00008
1.00014
1.00022
1.00035
1.00052
1.00074
1.00103
1.00142
1.00186
0.999841
1.31055
2.12235
2.33139
2.33758
2.33325
2.32443
2.31836
2.31171
2.3031
2.29319
2.28922
2.28865
2.28704
2.28847
2.29464
2.30563
2.3232
2.35005
2.38557
2.42741
2.46381
2.48863
2.50144
2.50681
2.50773
2.506
2.50016
2.48813
2.46877
2.44541
2.42328
2.40741
2.39504
2.38815
2.38074
1
1
1
1
1
1
1
1
1
1
1
1
1
1
1
1
1
1
1
1
1
1
1
1
1
1
1
1
1
1
1
1
1
1
1
1
1
1
1
1
1
1
1
1
1
1
1
1
1
1
1
1
1
1
1
1
1
1
1
1
1
1
1
1
0.999999
0.999999
0.999998
0.999998
0.999997
0.999996
0.999996
0.999998
1
1.00001
1.00004
1.00008
1.00014
1.00025
1.0004
1.00061
1.00089
1.00126
1.00163
0.999465
1.39609
2.14863
2.31216
2.31749
2.31383
2.30576
2.29946
2.29231
2.28336
2.27469
2.27105
2.26931
2.26841
2.27219
2.28095
2.29224
2.30773
2.3305
2.36254
2.4039
2.44157
2.46699
2.48047
2.4869
2.48854
2.4877
2.48299
2.47247
2.45439
2.43159
2.40955
2.3937
2.38137
2.37453
2.36696
1
1
1
1
1
1
1
1
1
1
1
1
1
1
1
1
1
1
1
1
1
1
1
1
1
1
1
1
1
1
1
1
1
1
1
1
1
1
1
1
1
1
1
1
1
1
1
1
1
1
1
1
1
1
1
1
1
1
1
1
1
1
1
1
0.999999
0.999999
0.999998
0.999996
0.999994
0.999992
0.999989
0.999986
0.999984
0.999986
0.999994
1.00002
1.00006
1.00014
1.00027
1.00046
1.00072
1.00109
1.00142
0.999482
1.46722
2.16411
2.29442
2.29822
2.29505
2.28728
2.28011
2.27277
2.26555
2.26033
2.25698
2.25472
2.25457
2.25795
2.26444
2.27398
2.28702
2.30612
2.33608
2.3789
2.42042
2.4484
2.46266
2.46931
2.47069
2.46987
2.4656
2.45621
2.43931
2.41747
2.39594
2.3807
2.36846
2.36101
2.35199
1
1
1
1
1
1
1
1
1
1
1
1
1
1
1
1
1
1
1
1
1
1
1
1
1
1
1
1
1
1
1
1
1
1
1
1
1
1
1
1
1
1
1
1
1
1
1
1
1
1
1
1
1
1
1
1
1
1
1
1
1
1
1
0.999999
0.999999
0.999998
0.999997
0.999996
0.999993
0.999989
0.999983
0.999976
0.999968
0.99996
0.999955
0.99996
0.999981
1.00003
1.00014
1.0003
1.00054
1.00086
1.0012
0.999538
1.52199
2.17526
2.28202
2.28457
2.28197
2.27592
2.26802
2.26043
2.25337
2.24635
2.23875
2.23389
2.23295
2.23474
2.23973
2.2494
2.26504
2.28663
2.31546
2.35567
2.39725
2.42731
2.44281
2.45029
2.45245
2.45224
2.44895
2.44093
2.42483
2.4028
2.38119
2.36596
2.35403
2.3469
2.33795
1
1
1
1
1
1
1
1
1
1
1
1
1
1
1
1
1
1
1
1
1
1
1
1
1
1
1
1
1
1
1
1
1
1
1
1
1
1
1
1
1
1
1
1
1
1
1
1
1
1
1
1
1
1
1
1
1
1
1
1
1
1
1
0.999999
0.999999
0.999998
0.999997
0.999995
0.999993
0.999988
0.999981
0.99997
0.999955
0.999937
0.999921
0.999908
0.999899
0.999922
0.999986
1.00012
1.00034
1.00072
1.00106
0.999772
1.57399
2.1852
2.27077
2.27187
2.26866
2.26155
2.25265
2.24478
2.23823
2.23141
2.22278
2.21883
2.21989
2.2211
2.22419
2.23162
2.24492
2.26461
2.29154
2.32945
2.37204
2.40591
2.42402
2.43247
2.43492
2.43474
2.43156
2.42436
2.40922
2.38783
2.36719
2.35271
2.34067
2.33285
2.32273
1
1
1
1
1
1
1
1
1
1
1
1
1
1
1
1
1
1
1
1
1
1
1
1
1
1
1
1
1
1
1
1
1
1
1
1
1
1
1
1
1
1
1
1
1
1
1
1
1
1
1
1
1
1
1
1
1
1
1
1
1
1
1
1
0.999999
0.999999
0.999997
0.999996
0.999992
0.999988
0.99998
0.999967
0.999949
0.999922
0.99989
0.999858
0.999829
0.999809
0.999828
0.999902
1.00008
1.00048
1.00091
1.00004
1.60639
2.17784
2.24506
2.24463
2.23997
2.23146
2.22298
2.21527
2.20945
2.20353
2.19583
2.19263
2.19376
2.19444
2.1979
2.20593
2.21999
2.24137
2.27178
2.31002
2.35061
2.38463
2.40412
2.41457
2.41876
2.41937
2.41636
2.40826
2.39264
2.37135
2.35155
2.33736
2.32547
2.31804
2.3082
1
1
1
1
1
1
1
1
1
1