/*--------------------------------*- C++ -*----------------------------------*\
| =========                 |                                                 |
| \\      /  F ield         | OpenFOAM: The Open Source CFD Toolbox           |
|  \\    /   O peration     | Version:  2.2.x                                 |
|   \\  /    A nd           | Web:      www.OpenFOAM.org                      |
|    \\/     M anipulation  |                                                 |
\*---------------------------------------------------------------------------*/
FoamFile
{
    version     2.0;
    format      ascii;
    class       volScalarField;
    location    "0.05";
    object      Bx;
}
// * * * * * * * * * * * * * * * * * * * * * * * * * * * * * * * * * * * * * //

dimensions      [1 0 -2 0 0 -1 0];

internalField   nonuniform List<scalar> 
14161
(
1
1
1
1
1
1
1
1
1
1
1
1
1
1
1
1
1
1
1
1
1
1
1
1
1
1
1
1
1
1
1
1
1
1
1
1
1
1
1
1
1
1
1
1
1
1
1
1
1
1
1
1
1
1
1
1
1
1
1
1
1
1
1
1
1
1
1
1
1
1
1
1
1
1
1
1
1.00001
1.00001
1.00001
1.00002
1.00003
1.00004
1.00005
1.00008
1.00011
1.00016
1.00022
1.00031
1.00043
1.0006
1.00082
1.00111
1.00151
1.00203
1.00271
1.00359
1.00477
1.00629
1.00816
1.01013
1.01253
1.01388
1.01026
0.996427
0.959808
0.913279
0.863932
0.82026
0.783833
0.753411
0.724305
0.694516
0.663856
0.632066
0.599409
0.566219
0.529063
0.496746
0.455352
1
1
1
1
1
1
1
1
1
1
1
1
1
1
1
1
1
1
1
1
1
1
1
1
1
1
1
1
1
1
1
1
1
1
1
1
1
1
1
1
1
1
1
1
1
1
1
1
1
1
1
1
1
1
1
1
1
1
1
1
1
1
1
1
1
1
1
1
1
1
1
1
1
1
1
1
1.00001
1.00001
1.00001
1.00002
1.00003
1.00004
1.00005
1.00008
1.00011
1.00016
1.00022
1.00031
1.00043
1.0006
1.00082
1.00111
1.00151
1.00202
1.0027
1.00359
1.00477
1.00628
1.00799
1.01008
1.01233
1.01258
1.00457
0.988406
0.951618
0.907398
0.86257
0.822486
0.786129
0.755594
0.727639
0.698121
0.666915
0.634931
0.60194
0.569134
0.532969
0.501773
0.461524
1
1
1
1
1
1
1
1
1
1
1
1
1
1
1
1
1
1
1
1
1
1
1
1
1
1
1
1
1
1
1
1
1
1
1
1
1
1
1
1
1
1
1
1
1
1
1
1
1
1
1
1
1
1
1
1
1
1
1
1
1
1
1
1
1
1
1
1
1
1
1
1
1
1
1
1
1.00001
1.00001
1.00001
1.00002
1.00003
1.00004
1.00005
1.00008
1.00011
1.00016
1.00022
1.00031
1.00043
1.0006
1.00082
1.00111
1.0015
1.00202
1.0027
1.0036
1.00475
1.00622
1.00798
1.01039
1.01267
1.01434
1.00336
0.98679
0.950118
0.905486
0.861795
0.82279
0.786399
0.754273
0.725206
0.696615
0.666889
0.635452
0.602425
0.569825
0.534521
0.505386
0.467032
1
1
1
1
1
1
1
1
1
1
1
1
1
1
1
1
1
1
1
1
1
1
1
1
1
1
1
1
1
1
1
1
1
1
1
1
1
1
1
1
1
1
1
1
1
1
1
1
1
1
1
1
1
1
1
1
1
1
1
1
1
1
1
1
1
1
1
1
1
1
1
1
1
1
1
1
1
1.00001
1.00001
1.00002
1.00003
1.00004
1.00005
1.00008
1.00011
1.00016
1.00022
1.00031
1.00043
1.00059
1.00081
1.0011
1.0015
1.00201
1.00269
1.00358
1.00472
1.00618
1.00802
1.0106
1.01314
1.01504
1.00703
0.993617
0.957985
0.91142
0.86655
0.827403
0.790234
0.756184
0.725606
0.696922
0.667496
0.636733
0.603892
0.571933
0.537537
0.51011
0.47387
1
1
1
1
1
1
1
1
1
1
1
1
1
1
1
1
1
1
1
1
1
1
1
1
1
1
1
1
1
1
1
1
1
1
1
1
1
1
1
1
1
1
1
1
1
1
1
1
1
1
1
1
1
1
1
1
1
1
1
1
1
1
1
1
1
1
1
1
1
1
1
1
1
1
1
1
1
1.00001
1.00001
1.00002
1.00002
1.00004
1.00005
1.00008
1.00011
1.00016
1.00022
1.00031
1.00043
1.00059
1.00081
1.0011
1.00149
1.002
1.00268
1.00356
1.00469
1.00616
1.00809
1.01076
1.01272
1.01285
1.00529
0.991955
0.957349
0.910811
0.866515
0.83075
0.793203
0.758309
0.726775
0.697588
0.668793
0.63884
0.606536
0.575472
0.541996
0.516201
0.482522
1
1
1
1
1
1
1
1
1
1
1
1
1
1
1
1
1
1
1
1
1
1
1
1
1
1
1
1
1
1
1
1
1
1
1
1
1
1
1
1
1
1
1
1
1
1
1
1
1
1
1
1
1
1
1
1
1
1
1
1
1
1
1
1
1
1
1
1
1
1
1
1
1
1
1
1
1
1.00001
1.00001
1.00002
1.00002
1.00004
1.00005
1.00008
1.00011
1.00015
1.00022
1.0003
1.00042
1.00058
1.0008
1.00109
1.00147
1.00198
1.00265
1.00353
1.00465
1.00616
1.00819
1.01074
1.01145
1.00894
1.00295
0.986235
0.951047
0.906629
0.86424
0.832132
0.796231
0.76165
0.728933
0.698543
0.669624
0.641037
0.609804
0.579889
0.547441
0.523327
0.492216
1
1
1
1
1
1
1
1
1
1
1
1
1
1
1
1
1
1
1
1
1
1
1
1
1
1
1
1
1
1
1
1
1
1
1
1
1
1
1
1
1
1
1
1
1
1
1
1
1
1
1
1
1
1
1
1
1
1
1
1
1
1
1
1
1
1
1
1
1
1
1
1
1
1
1
1
1
1.00001
1.00001
1.00002
1.00002
1.00004
1.00005
1.00007
1.00011
1.00015
1.00021
1.0003
1.00042
1.00058
1.00079
1.00108
1.00146
1.00196
1.00263
1.0035
1.00464
1.00615
1.00813
1.01025
1.01052
1.0092
1.0053
0.989141
0.951537
0.907467
0.865612
0.833984
0.799683
0.765465
0.731839
0.700161
0.670688
0.642891
0.613238
0.585291
0.55437
0.531562
0.502856
1
1
1
1
1
1
1
1
1
1
1
1
1
1
1
1
1
1
1
1
1
1
1
1
1
1
1
1
1
1
1
1
1
1
1
1
1
1
1
1
1
1
1
1
1
1
1
1
1
1
1
1
1
1
1
1
1
1
1
1
1
1
1
1
1
1
1
1
1
1
1
1
1
1
1
1
1
1.00001
1.00001
1.00002
1.00002
1.00003
1.00005
1.00007
1.00011
1.00015
1.00021
1.0003
1.00041
1.00057
1.00078
1.00106
1.00144
1.00194
1.0026
1.00347
1.00461
1.00606
1.00793
1.00964
1.01033
1.00906
1.00707
0.991474
0.954418
0.909851
0.868157
0.835273
0.801841
0.768659
0.735204
0.702941
0.673106
0.645885
0.617486
0.591589
0.562433
0.540704
0.514379
1
1
1
1
1
1
1
1
1
1
1
1
1
1
1
1
1
1
1
1
1
1
1
1
1
1
1
1
1
1
1
1
1
1
1
1
1
1
1
1
1
1
1
1
1
1
1
1
1
1
1
1
1
1
1
1
1
1
1
1
1
1
1
1
1
1
1
1
1
1
1
1
1
1
1
1
1
1.00001
1.00001
1.00002
1.00002
1.00003
1.00005
1.00007
1.0001
1.00015
1.00021
1.00029
1.00041
1.00056
1.00077
1.00105
1.00142
1.00192
1.00257
1.00343
1.00453
1.00592
1.00767
1.00939
1.01104
1.00859
1.00498
0.990907
0.95611
0.912071
0.870683
0.837132
0.802503
0.771041
0.738893
0.706951
0.676938
0.649838
0.62225
0.598218
0.57134
0.550659
0.526661
1
1
1
1
1
1
1
1
1
1
1
1
1
1
1
1
1
1
1
1
1
1
1
1
1
1
1
1
1
1
1
1
1
1
1
1
1
1
1
1
1
1
1
1
1
1
1
1
1
1
1
1
1
1
1
1
1
1
1
1
1
1
1
1
1
1
1
1
1
1
1
1
1
1
1
1
1
1.00001
1.00001
1.00002
1.00002
1.00003
1.00005
1.00007
1.0001
1.00014
1.0002
1.00029
1.0004
1.00055
1.00076
1.00104
1.0014
1.00189
1.00253
1.00337
1.00443
1.00581
1.0076
1.00989
1.01251
1.00759
1.00359
0.989849
0.957327
0.914101
0.873247
0.839348
0.803544
0.771605
0.741742
0.711328
0.681606
0.654511
0.627798
0.605037
0.580684
0.56131
0.539593
1
1
1
1
1
1
1
1
1
1
1
1
1
1
1
1
1
1
1
1
1
1
1
1
1
1
1
1
1
1
1
1
1
1
1
1
1
1
1
1
1
1
1
1
1
1
1
1
1
1
1
1
1
1
1
1
1
1
1
1
1
1
1
1
1
1
1
1
1
1
1
1
1
1
1
1
1
1.00001
1.00001
1.00001
1.00002
1.00003
1.00005
1.00007
1.0001
1.00014
1.0002
1.00028
1.00039
1.00054
1.00075
1.00102
1.00139
1.00186
1.00249
1.0033
1.00436
1.0058
1.00765
1.00965
1.01268
1.00685
1.00204
0.985226
0.954002
0.913308
0.875126
0.84136
0.80497
0.772936
0.743568
0.715417
0.687158
0.660377
0.634566
0.612672
0.590579
0.572405
0.55312
1
1
1
1
1
1
1
1
1
1
1
1
1
1
1
1
1
1
1
1
1
1
1
1
1
1
1
1
1
1
1
1
1
1
1
1
1
1
1
1
1
1
1
1
1
1
1
1
1
1
1
1
1
1
1
1
1
1
1
1
1
1
1
1
1
1
1
1
1
1
1
1
1
1
1
1
1
1.00001
1.00001
1.00001
1.00002
1.00003
1.00005
1.00007
1.0001
1.00014
1.0002
1.00028
1.00039
1.00054
1.00074
1.00101
1.00137
1.00184
1.00246
1.00326
1.00433
1.00579
1.00743
1.00875
1.0122
1.00744
1.00025
0.975933
0.946588
0.90931
0.876218
0.843321
0.807379
0.775404
0.74607
0.719167
0.693172
0.667497
0.642668
0.62145
0.601425
0.584288
0.567432
1
1
1
1
1
1
1
1
1
1
1
1
1
1
1
1
1
1
1
1
1
1
1
1
1
1
1
1
1
1
1
1
1
1
1
1
1
1
1
1
1
1
1
1
1
1
1
1
1
1
1
1
1
1
1
1
1
1
1
1
1
1
1
1
1
1
1
1
1
1
1
1
1
1
1
1
1
1.00001
1.00001
1.00001
1.00002
1.00003
1.00005
1.00007
1.0001
1.00014
1.00019
1.00027
1.00038
1.00053
1.00073
1.001
1.00136
1.00183
1.00245
1.00326
1.00431
1.00568
1.00701
1.00792
1.01117
1.00924
1.00143
0.971264
0.941482
0.90526
0.876975
0.845297
0.810922
0.779267
0.749899
0.723479
0.699215
0.675392
0.651847
0.631293
0.613099
0.596871
0.582287
1
1
1
1
1
1
1
1
1
1
1
1
1
1
1
1
1
1
1
1
1
1
1
1
1
1
1
1
1
1
1
1
1
1
1
1
1
1
1
1
1
1
1
1
1
1
1
1
1
1
1
1
1
1
1
1
1
1
1
1
1
1
1
1
1
1
1
1
1
1
1
1
1
1
1
1
1
1.00001
1.00001
1.00001
1.00002
1.00003
1.00004
1.00006
1.00009
1.00013
1.00019
1.00027
1.00038
1.00053
1.00072
1.00099
1.00135
1.00182
1.00245
1.00326
1.00428
1.00556
1.00681
1.00844
1.01065
1.00793
1.00011
0.97191
0.939727
0.904187
0.877582
0.846755
0.81502
0.784294
0.755115
0.728914
0.705746
0.683802
0.662095
0.642428
0.625779
0.610346
0.597742
1
1
1
1
1
1
1
1
1
1
1
1
1
1
1
1
1
1
1
1
1
1
1
1
1
1
1
1
1
1
1
1
1
1
1
1
1
1
1
1
1
1
1
1
1
1
1
1
1
1
1
1
1
1
1
1
1
1
1
1
1
1
1
1
1
1
1
1
1
1
1
1
1
1
1
1
1
1.00001
1.00001
1.00001
1.00002
1.00003
1.00004
1.00006
1.00009
1.00013
1.00019
1.00027
1.00037
1.00052
1.00072
1.00099
1.00135
1.00182
1.00245
1.00326
1.00431
1.00564
1.00722
1.00905
1.00865
1.00458
0.997863
0.973804
0.939819
0.90517
0.878743
0.847699
0.818849
0.789874
0.761524
0.735633
0.712974
0.692464
0.672817
0.654393
0.639089
0.624551
0.613593
1
1
1
1
1
1
1
1
1
1
1
1
1
1
1
1
1
1
1
1
1
1
1
1
1
1
1
1
1
1
1
1
1
1
1
1
1
1
1
1
1
1
1
1
1
1
1
1
1
1
1
1
1
1
1
1
1
1
1
1
1
1
1
1
1
1
1
1
1
1
1
1
1
1
1
1
1
1.00001
1.00001
1.00001
1.00002
1.00003
1.00004
1.00006
1.00009
1.00013
1.00018
1.00026
1.00037
1.00051
1.00071
1.00098
1.00134
1.00182
1.00246
1.00329
1.00442
1.0058
1.00731
1.00879
1.00677
1.00295
0.994928
0.975368
0.940169
0.908158
0.881477
0.849769
0.82232
0.795435
0.768775
0.743582
0.721313
0.701759
0.68407
0.667179
0.653151
0.639687
0.630085
1
1
1
1
1
1
1
1
1
1
1
1
1
1
1
1
1
1
1
1
1
1
1
1
1
1
1
1
1
1
1
1
1
1
1
1
1
1
1
1
1
1
1
1
1
1
1
1
1
1
1
1
1
1
1
1
1
1
1
1
1
1
1
1
1
1
1
1
1
1
1
1
1
1
1
1
1
1.00001
1.00001
1.00001
1.00002
1.00003
1.00004
1.00006
1.00009
1.00013
1.00018
1.00026
1.00036
1.00051
1.00071
1.00098
1.00134
1.00182
1.00246
1.00331
1.00449
1.00576
1.00701
1.00878
1.00653
1.00775
0.990303
0.97363
0.942402
0.912659
0.885541
0.853411
0.826438
0.800723
0.776204
0.752279
0.730624
0.71172
0.695499
0.680231
0.667677
0.655418
0.64709
1
1
1
1
1
1
1
1
1
1
1
1
1
1
1
1
1
1
1
1
1
1
1
1
1
1
1
1
1
1
1
1
1
1
1
1
1
1
1
1
1
1
1
1
1
1
1
1
1
1
1
1
1
1
1
1
1
1
1
1
1
1
1
1
1
1
1
1
1
1
1
1
1
1
1
1
1
1
1.00001
1.00001
1.00002
1.00003
1.00004
1.00006
1.00008
1.00012
1.00018
1.00025
1.00036
1.0005
1.0007
1.00097
1.00134
1.00182
1.00247
1.00332
1.00446
1.00562
1.00696
1.00963
1.00879
1.01255
0.98993
0.972077
0.943597
0.918215
0.890325
0.858433
0.831664
0.806106
0.783547
0.761431
0.740819
0.722688
0.707415
0.693623
0.68262
0.671715
0.664767
1
1
1
1
1
1
1
1
1
1
1
1
1
1
1
1
1
1
1
1
1
1
1
1
1
1
1
1
1
1
1
1
1
1
1
1
1
1
1
1
1
1
1
1
1
1
1
1
1
1
1
1
1
1
1
1
1
1
1
1
1
1
1
1
1
1
1
1
1
1
1
1
1
1
1
1
1
1
1.00001
1.00001
1.00002
1.00002
1.00004
1.00006
1.00008
1.00012
1.00017
1.00025
1.00035
1.0005
1.0007
1.00097
1.00133
1.00182
1.00246
1.00332
1.0044
1.00561
1.00743
1.01043
1.00984
1.01422
0.994325
0.973152
0.945111
0.923207
0.89537
0.864748
0.838011
0.812465
0.791049
0.770772
0.751542
0.734286
0.719756
0.707272
0.697701
0.68831
0.682923
1
1
1
1
1
1
1
1
1
1
1
1
1
1
1
1
1
1
1
1
1
1
1
1
1
1
1
1
1
1
1
1
1
1
1
1
1
1
1
1
1
1
1
1
1
1
1
1
1
1
1
1
1
1
1
1
1
1
1
1
1
1
1
1
1
1
1
1
1
1
1
1
1
1
1
1
1
1
1.00001
1.00001
1.00002
1.00002
1.00004
1.00005
1.00008
1.00012
1.00017
1.00024
1.00035
1.00049
1.00069
1.00096
1.00133
1.00182
1.00246
1.00334
1.0044
1.00579
1.00774
1.00979
1.01083
1.01686
0.999752
0.976355
0.94882
0.927995
0.900079
0.871704
0.845217
0.819868
0.798958
0.78026
0.762695
0.746531
0.732794
0.721511
0.71317
0.705259
0.701384
1
1
1
1
1
1
1
1
1
1
1
1
1
1
1
1
1
1
1
1
1
1
1
1
1
1
1
1
1
1
1
1
1
1
1
1
1
1
1
1
1
1
1
1
1
1
1
1
1
1
1
1
1
1
1
1
1
1
1
1
1
1
1
1
1
1
1
1
1
1
1
1
1
1
1
1
1
1
1.00001
1.00001
1.00001
1.00002
1.00003
1.00005
1.00008
1.00011
1.00016
1.00024
1.00034
1.00049
1.00069
1.00096
1.00133
1.00182
1.00247
1.0034
1.00443
1.0058
1.00784
1.00958
1.01529
1.01638
1.00542
0.980819
0.954527
0.933742
0.905381
0.878983
0.853135
0.828307
0.807819
0.790054
0.774136
0.759203
0.746355
0.736089
0.728823
0.722404
0.719821
1
1
1
1
1
1
1
1
1
1
1
1
1
1
1
1
1
1
1
1
1
1
1
1
1
1
1
1
1
1
1
1
1
1
1
1
1
1
1
1
1
1
1
1
1
1
1
1
1
1
1
1
1
1
1
1
1
1
1
1
1
1
1
1
1
1
1
1
1
1
1
1
1
1
1
1
1
1
1.00001
1.00001
1.00001
1.00002
1.00003
1.00005
1.00007
1.00011
1.00016
1.00023
1.00034
1.00048
1.00068
1.00096
1.00133
1.00183
1.0025
1.00343
1.00443
1.00577
1.00872
1.01176
1.02552
1.01656
1.01027
0.985303
0.961538
0.940549
0.911656
0.88647
0.861315
0.83753
0.817472
0.8003
0.78582
0.772322
0.760583
0.751326
0.744827
0.739729
0.738246
1
1
1
1
1
1
1
1
1
1
1
1
1
1
1
1
1
1
1
1
1
1
1
1
1
1
1
1
1
1
1
1
1
1
1
1
1
1
1
1
1
1
1
1
1
1
1
1
1
1
1
1
1
1
1
1
1
1
1
1
1
1
1
1
1
1
1
1
1
1
1
1
1
1
1
1
1
1
1.00001
1.00001
1.00001
1.00002
1.00003
1.00005
1.00007
1.00011
1.00016
1.00023
1.00033
1.00048
1.00068
1.00096
1.00134
1.00185
1.00254
1.00342
1.00447
1.00624
1.01087
1.01601
1.03378
1.02252
1.01493
0.991508
0.969572
0.948387
0.919513
0.894855
0.870048
0.847319
0.827898
0.8113
0.797825
0.785707
0.775124
0.766723
0.760889
0.756862
0.756597
1
1
1
1
1
1
1
1
1
1
1
1
1
1
1
1
1
1
1
1
1
1
1
1
1
1
1
1
1
1
1
1
1
1
1
1
1
1
1
1
1
1
1
1
1
1
1
1
1
1
1
1
1
1
1
1
1
1
1
1
1
1
1
1
1
1
1
1
1
1
1
1
1
1
1
1
1
1
1
1.00001
1.00001
1.00002
1.00003
1.00004
1.00007
1.0001
1.00015
1.00022
1.00033
1.00048
1.00068
1.00097
1.00136
1.00187
1.00259
1.00347
1.00473
1.00707
1.01273
1.021
1.04218
1.03113
1.02036
0.998738
0.97829
0.956279
0.928088
0.903907
0.879197
0.857635
0.83896
0.822997
0.810092
0.799137
0.78973
0.78221
0.777034
0.774356
0.774969
1
1
1
1
1
1
1
1
1
1
1
1
1
1
1
1
1
1
1
1
1
1
1
1
1
1
1
1
1
1
1
1
1
1
1
1
1
1
1
1
1
1
1
1
1
1
1
1
1
1
1
1
1
1
1
1
1
1
1
1
1
1
1
1
1
1
1
1
1
1
1
1
1
1
1
1
1
1
1
1.00001
1.00001
1.00002
1.00003
1.00004
1.00006
1.0001
1.00015
1.00022
1.00033
1.00048
1.00069
1.00098
1.00138
1.00191
1.00268
1.00359
1.00505
1.00783
1.01439
1.02846
1.04953
1.04049
1.02719
1.0074
0.988132
0.965342
0.9379
0.913949
0.889223
0.868599
0.850513
0.834998
0.822452
0.812385
0.804266
0.79784
0.793655
0.791838
0.793208
1
1
1
1
1
1
1
1
1
1
1
1
1
1
1
1
1
1
1
1
1
1
1
1
1
1
1
1
1
1
1
1
1
1
1
1
1
1
1
1
1
1
1
1
1
1
1
1
1
1
1
1
1
1
1
1
1
1
1
1
1
1
1
1
1
1
1
1
1
1
1
1
1
1
1
1
1
1
1
1.00001
1.00001
1.00002
1.00003
1.00004
1.00006
1.0001
1.00015
1.00022
1.00032
1.00048
1.00069
1.00099
1.0014
1.00197
1.00278
1.00374
1.00531
1.00911
1.0181
1.0428
1.05313
1.04919
1.03485
1.01651
0.998405
0.974742
0.948089
0.924084
0.899591
0.879882
0.862546
0.847712
0.835558
0.826099
0.818899
0.813589
0.810634
0.809053
0.811474
1
1
1
1
1
1
1
1
1
1
1
1
1
1
1
1
1
1
1
1
1
1
1
1
1
1
1
1
1
1
1
1
1
1
1
1
1
1
1
1
1
1
1
1
1
1
1
1
1
1
1
1
1
1
1
1
1
1
1
1
1
1
1
1
1
1
1
1
1
1
1
1
1
1
1
1
1
1
1
1.00001
1.00001
1.00002
1.00002
1.00004
1.00006
1.00009
1.00014
1.00022
1.00032
1.00048
1.0007
1.00101
1.00144
1.00204
1.00286
1.0039
1.00586
1.01179
1.02498
1.05694
1.06074
1.05801
1.04352
1.02631
1.00947
0.98558
0.959598
0.935195
0.91086
0.891577
0.875092
0.860714
0.848938
0.8398
0.833272
0.828966
0.827463
0.826374
0.829656
1
1
1
1
1
1
1
1
1
1
1
1
1
1
1
1
1
1
1
1
1
1
1
1
1
1
1
1
1
1
1
1
1
1
1
1
1
1
1
1
1
1
1
1
1
1
1
1
1
1
1
1
1
1
1
1
1
1
1
1
1
1
1
1
1
1
1
1
1
1
1
1
1
1
1
1
1
1
1
1.00001
1.00001
1.00001
1.00002
1.00004
1.00006
1.00009
1.00014
1.00021
1.00032
1.00048
1.00071
1.00103
1.00148
1.00212
1.00296
1.0042
1.00697
1.01539
1.03338
1.07018
1.07161
1.06748
1.05291
1.03632
1.02033
0.99668
0.971505
0.946459
0.922438
0.903463
0.887885
0.874356
0.863299
0.85465
0.848644
0.844812
0.844385
0.843432
0.847383
1
1
1
1
1
1
1
1
1
1
1
1
1
1
1
1
1
1
1
1
1
1
1
1
1
1
1
1
1
1
1
1
1
1
1
1
1
1
1
1
1
1
1
1
1
1
1
1
1
1
1
1
1
1
1
1
1
1
1
1
1
1
1
1
1
1
1
1
1
1
1
1
1
1
1
1
1
1
1
1
1.00001
1.00001
1.00002
1.00003
1.00006
1.00009
1.00014
1.00021
1.00032
1.00049
1.00072
1.00106
1.00153
1.00222
1.00312
1.00468
1.00829
1.01917
1.04424
1.08432
1.08361
1.07798
1.06332
1.04734
1.03169
1.00871
0.984451
0.959088
0.935229
0.916223
0.901026
0.888171
0.877814
0.869433
0.863973
0.860593
0.861189
0.860173
0.864591
1
1
1
1
1
1
1
1
1
1
1
1
1
1
1
1
1
1
1
1
1
1
1
1
1
1
1
1
1
1
1
1
1
1
1
1
1
1
1
1
1
1
1
1
1
1
1
1
1
1
1
1
1
1
1
1
1
1
1
1
1
1
1
1
1
1
1
1
1
1
1
1
1
1
1
1
1
1
1
1
1.00001
1.00001
1.00002
1.00003
1.00005
1.00008
1.00013
1.00021
1.00032
1.00049
1.00074
1.00109
1.00159
1.00234
1.00334
1.00519
1.00982
1.02392
1.05944
1.09602
1.09565
1.08963
1.07434
1.0589
1.04324
1.02088
0.997367
0.972011
0.948226
0.929183
0.914493
0.902519
0.893
0.885105
0.880234
0.876845
0.878003
0.876607
0.881374
1
1
1
1
1
1
1
1
1
1
1
1
1
1
1
1
1
1
1
1
1
1
1
1
1
1
1
1
1
1
1
1
1
1
1
1
1
1
1
1
1
1
1
1
1
1
1
1
1
1
1
1
1
1
1
1
1
1
1
1
1
1
1
1
1
1
1
1
1
1
1
1
1
1
1
1
1
1
1
1
1.00001
1.00001
1.00002
1.00003
1.00005
1.00008
1.00013
1.00021
1.00032
1.0005
1.00075
1.00112
1.00166
1.00247
1.00358
1.00576
1.01222
1.0315
1.07952
1.10565
1.10768
1.10166
1.08658
1.07168
1.05584
1.03405
1.01109
0.985901
0.962414
0.943331
0.928761
0.917025
0.908111
0.90042
0.896089
0.892784
0.894524
0.892706
0.897718
1
1
1
1
1
1
1
1
1
1
1
1
1
1
1
1
1
1
1
1
1
1
1
1
1
1
1
1
1
1
1
1
1
1
1
1
1
1
1
1
1
1
1
1
1
1
1
1
1
1
1
1
1
1
1
1
1
1
1
1
1
1
1
1
1
1
1
1
1
1
1
1
1
1
1
1
1
1
1
1
1.00001
1.00001
1.00002
1.00003
1.00005
1.00008
1.00013
1.0002
1.00032
1.0005
1.00077
1.00116
1.00174
1.00259
1.00385
1.00663
1.01597
1.04256
1.09776
1.11827
1.1196
1.11306
1.09955
1.08505
1.06859
1.04738
1.0247
0.999771
0.976721
0.95761
0.94321
0.931973
0.923664
0.91637
0.912485
0.908981
0.910907
0.908684
0.913822
1
1
1
1
1
1
1
1
1
1
1
1
1
1
1
1
1
1
1
1
1
1
1
1
1
1
1
1
1
1
1
1
1
1
1
1
1
1
1
1
1
1
1
1
1
1
1
1
1
1
1
1
1
1
1
1
1
1
1
1
1
1
1
1
1
1
1
1
1
1
1
1
1
1
1
1
1
1
1
1
1.00001
1.00001
1.00002
1.00003
1.00005
1.00008
1.00012
1.0002
1.00032
1.0005
1.00078
1.00119
1.00182
1.00272
1.0042
1.00797
1.02086
1.05573
1.11586
1.13219
1.13216
1.12461
1.11285
1.09937
1.08248
1.06193
1.03943
1.0148
0.991974
0.97292
0.958591
0.947395
0.939326
0.932055
0.928391
0.924853
0.92702
0.924377
0.929567
1
1
1
1
1
1
1
1
1
1
1
1
1
1
1
1
1
1
1
1
1
1
1
1
1
1
1
1
1
1
1
1
1
1
1
1
1
1
1
1
1
1
1
1
1
1
1
1
1
1
1
1
1
1
1
1
1
1
1
1
1
1
1
1
1
1
1
1
1
1
1
1
1
1
1
1
1
1
1
1
1
1.00001
1.00002
1.00003
1.00004
1.00007
1.00012
1.0002
1.00032
1.00051
1.0008
1.00123
1.0019
1.00287
1.0047
1.00965
1.02637
1.07066
1.13428
1.14725
1.14555
1.13764
1.12655
1.1139
1.09687
1.07669
1.05399
1.02931
1.00693
0.988106
0.973932
0.962936
0.955119
0.948017
0.944528
0.940755
0.942881
0.93983
0.945086
1
1
1
1
1
1
1
1
1
1
1
1
1
1
1
1
1
1
1
1
1
1
1
1
1
1
1
1
1
1
1
1
1
1
1
1
1
1
1
1
1
1
1
1
1
1
1
1
1
1
1
1
1
1
1
1
1
1
1
1
1
1
1
1
1
1
1
1
1
1
1
1
1
1
1
1
1
1
1
1
1
1.00001
1.00001
1.00002
1.00004
1.00007
1.00012
1.00019
1.00032
1.00051
1.00081
1.00126
1.00198
1.00307
1.00531
1.01154
1.03229
1.08808
1.15223
1.16188
1.1589
1.15093
1.14024
1.12841
1.11175
1.09228
1.06964
1.04507
1.02297
1.00408
0.989901
0.978816
0.971018
0.963869
0.960521
0.956582
0.958773
0.955197
0.960254
1
1
1
1
1
1
1
1
1
1
1
1
1
1
1
1
1
1
1
1
1
1
1
1
1
1
1
1
1
1
1
1
1
1
1
1
1
1
1
1
1
1
1
1
1
1
1
1
1
1
1
1
1
1
1
1
1
1
1
1
1
1
1
1
1
1
1
1
1
1
1
1
1
1
1
1
1
1
1
1
1
1.00001
1.00001
1.00002
1.00004
1.00007
1.00011
1.00019
1.00031
1.00051
1.00081
1.00129
1.00206
1.00328
1.00589
1.01373
1.04043
1.11079
1.16716
1.17622
1.173
1.16486
1.15463
1.14324
1.12706
1.10824
1.08542
1.06063
1.0385
1.01965
1.00564
0.994662
0.986926
0.979698
0.976356
0.972119
0.97426
0.97016
0.975207
1
1
1
1
1
1
1
1
1
1
1
1
1
1
1
1
1
1
1
1
1
1
1
1
1
1
1
1
1
1
1
1
1
1
1
1
1
1
1
1
1
1
1
1
1
1
1
1
1
1
1
1
1
1
1
1
1
1
1
1
1
1
1
1
1
1
1
1
1
1
1
1
1
1
1
1
1
1
1
1
1
1.00001
1.00001
1.00002
1.00004
1.00006
1.00011
1.00018
1.0003
1.0005
1.00082
1.00132
1.00214
1.00349
1.00655
1.0168
1.05188
1.13319
1.18209
1.19095
1.18783
1.1792
1.16933
1.1582
1.14259
1.12441
1.10177
1.077
1.05492
1.03592
1.02189
1.01071
1.00291
0.995586
0.992351
0.987823
0.989956
0.985307
0.989842
1
1
1
1
1
1
1
1
1
1
1
1
1
1
1
1
1
1
1
1
1
1
1
1
1
1
1
1
1
1
1
1
1
1
1
1
1
1
1
1
1
1
1
1
1
1
1
1
1
1
1
1
1
1
1
1
1
1
1
1
1
1
1
1
1
1
1
1
1
1
1
1
1
1
1
1
1
1
1
1
1
1.00001
1.00001
1.00002
1.00003
1.00006
1.0001
1.00018
1.0003
1.0005
1.00082
1.00134
1.00221
1.0037
1.00748
1.02095
1.06517
1.154
1.19788
1.20569
1.20282
1.19381
1.18441
1.17348
1.15848
1.14078
1.11824
1.0933
1.07104
1.05193
1.0379
1.0266
1.01872
1.01121
1.00789
1.00307
1.00511
1.00013
1.00458
1
1
1
1
1
1
1
1
1
1
1
1
1
1
1
1
1
1
1
1
1
1
1
1
1
1
1
1
1
1
1
1
1
1
1
1
1
1
1
1
1
1
1
1
1
1
1
1
1
1
1
1
1
1
1
1
1
1
1
1
1
1
1
1
1
1
1
1
1
1
1
1
1
1
1
1
1
1
1
1
1
1
1.00001
1.00002
1.00003
1.00005
1.0001
1.00017
1.00029
1.00049
1.00082
1.00136
1.00227
1.00395
1.00864
1.02568
1.07963
1.17422
1.21386
1.21998
1.21738
1.2084
1.1995
1.18866
1.17428
1.15709
1.13474
1.1101
1.08768
1.06843
1.05419
1.04264
1.0347
1.02708
1.02373
1.01858
1.02053
1.01497
1.01874
1
1
1
1
1
1
1
1
1
1
1
1
1
1
1
1
1
1
1
1
1
1
1
1
1
1
1
1
1
1
1
1
1
1
1
1
1
1
1
1
1
1
1
1
1
1
1
1
1
1
1
1
1
1
1
1
1
1
1
1
1
1
1
1
1
1
1
1
1
1
1
1
1
1
1
1
1
1
1
1
1
1
1.00001
1.00002
1.00003
1.00005
1.00009
1.00016
1.00028
1.00048
1.00081
1.00137
1.00233
1.00424
1.00992
1.03084
1.09564
1.19449
1.2302
1.23504
1.23222
1.22325
1.21478
1.20413
1.19038
1.17363
1.15154
1.12704
1.10425
1.08469
1.07024
1.05851
1.05035
1.04256
1.03912
1.03373
1.03571
1.02982
1.03347
1
1
1
1
1
1
1
1
1
1
1
1
1
1
1
1
1
1
1
1
1
1
1
1
1
1
1
1
1
1
1
1
1
1
1
1
1
1
1
1
1
1
1
1
1
1
1
1
1
1
1
1
1
1
1
1
1
1
1
1
1
1
1
1
1
1
1
1
1
1
1
1
1
1
1
1
1
1
1
1
1
1
1.00001
1.00001
1.00003
1.00005
1.00008
1.00015
1.00027
1.00046
1.0008
1.00137
1.00238
1.00457
1.01134
1.0364
1.11241
1.21398
1.24659
1.25054
1.24726
1.23865
1.23033
1.21987
1.20673
1.19018
1.16821
1.14396
1.12091
1.1011
1.08647
1.07453
1.06619
1.0582
1.05458
1.04877
1.05047
1.044
1.04701
1
1
1
1
1
1
1
1
1
1
1
1
1
1
1
1
1
1
1
1
1
1
1
1
1
1
1
1
1
1
1
1
1
1
1
1
1
1
1
1
1
1
1
1
1
1
1
1
1
1
1
1
1
1
1
1
1
1
1
1
1
1
1
1
1
1
1
1
1
1
1
1
1
1
1
1
1
1
1
1
1
1
1.00001
1.00001
1.00002
1.00004
1.00008
1.00014
1.00025
1.00045
1.00078
1.00137
1.00244
1.00491
1.01284
1.04234
1.12941
1.23242
1.26212
1.26544
1.26213
1.25408
1.24597
1.23554
1.22305
1.20678
1.18506
1.16108
1.13762
1.11749
1.1026
1.09046
1.08207
1.07386
1.07022
1.06408
1.06569
1.05879
1.06154
1
1
1
1
1
1
1
1
1
1
1
1
1
1
1
1
1
1
1
1
1
1
1
1
1
1
1
1
1
1
1
1
1
1
1
1
1
1
1
1
1
1
1
1
1
1
1
1
1
1
1
1
1
1
1
1
1
1
1
1
1
1
1
1
1
1
1
1
1
1
1
1
1
1
1
1
1
1
1
1
1
1
1.00001
1.00001
1.00002
1.00004
1.00007
1.00013
1.00024
1.00043
1.00076
1.00136
1.00248
1.00525
1.01445
1.04863
1.14698
1.25067
1.27748
1.28008
1.27668
1.26901
1.26119
1.25095
1.23918
1.22334
1.20202
1.17829
1.15439
1.13388
1.1186
1.1061
1.09748
1.08886
1.08502
1.07845
1.07985
1.07256
1.07485
1
1
1
1
1
1
1
1
1
1
1
1
1
1
1
1
1
1
1
1
1
1
1
1
1
1
1
1
1
1
1
1
1
1
1
1
1
1
1
1
1
1
1
1
1
1
1
1
1
1
1
1
1
1
1
1
1
1
1
1
1
1
1
1
1
1
1
1
1
1
1
1
1
1
1
1
1
1
1
1
1
1
1
1.00001
1.00002
1.00003
1.00006
1.00012
1.00023
1.00041
1.00074
1.00135
1.00252
1.00559
1.01609
1.05513
1.16478
1.26843
1.29306
1.29498
1.2913
1.28386
1.27625
1.26619
1.25476
1.23935
1.21874
1.19526
1.17111
1.15025
1.13474
1.12205
1.11332
1.10447
1.10056
1.0936
1.09489
1.08716
1.0891
1
1
1
1
1
1
1
1
1
1
1
1
1
1
1
1
1
1
1
1
1
1
1
1
1
1
1
1
1
1
1
1
1
1
1
1
1
1
1
1
1
1
1
1
1
1
1
1
1
1
1
1
1
1
1
1
1
1
1
1
1
1
1
1
1
1
1
1
1
1
1
1
1
1
1
1
1
1
1
1
1
1
1
1.00001
1.00002
1.00003
1.00006
1.00011
1.00021
1.00039
1.00071
1.00132
1.00255
1.00591
1.01776
1.06211
1.18209
1.28467
1.30882
1.31016
1.30641
1.29901
1.29172
1.28211
1.27088
1.25589
1.23583
1.21228
1.1878
1.16642
1.1503
1.13701
1.12786
1.11862
1.11446
1.10716
1.10844
1.10049
1.10223
1
1
1
1
1
1
1
1
1
1
1
1
1
1
1
1
1
1
1
1
1
1
1
1
1
1
1
1
1
1
1
1
1
1
1
1
1
1
1
1
1
1
1
1
1
1
1
1
1
1
1
1
1
1
1
1
1
1
1
1
1
1
1
1
1
1
1
1
1
1
1
1
1
1
1
1
1
1
1
1
1
1
1
1.00001
1.00001
1.00003
1.00005
1.0001
1.0002
1.00037
1.00069
1.0013
1.00257
1.00622
1.01942
1.06918
1.19802
1.29956
1.32366
1.32499
1.32146
1.31408
1.30682
1.29745
1.2863
1.27187
1.25266
1.22913
1.20434
1.18269
1.16619
1.15278
1.14349
1.13404
1.12961
1.1219
1.12299
1.11461
1.11566
1
1
1
1
1
1
1
1
1
1
1
1
1
1
1
1
1
1
1
1
1
1
1
1
1
1
1
1
1
1
1
1
1
1
1
1
1
1
1
1
1
1
1
1
1
1
1
1
1
1
1
1
1
1
1
1
1
1
1
1
1
1
1
1
1
1
1
1
1
1
1
1
1
1
1
1
1
1
1
1
1
1
1
1.00001
1.00001
1.00002
1.00005
1.00009
1.00018
1.00035
1.00066
1.00127
1.00259
1.00651
1.0211
1.0762
1.2129
1.31403
1.33789
1.33925
1.33589
1.32878
1.32177
1.31276
1.30184
1.28778
1.26913
1.24578
1.22035
1.19781
1.18064
1.16684
1.15727
1.14767
1.14293
1.13506
1.13631
1.12799
1.12906
1
1
1
1
1
1
1
1
1
1
1
1
1
1
1
1
1
1
1
1
1
1
1
1
1
1
1
1
1
1
1
1
1
1
1
1
1
1
1
1
1
1
1
1
1
1
1
1
1
1
1
1
1
1
1
1
1
1
1
1
1
1
1
1
1
1
1
1
1
1
1
1
1
1
1
1
1
1
1
1
1
1
1
1
1.00001
1.00002
1.00004
1.00009
1.00017
1.00033
1.00064
1.00125
1.00261
1.00679
1.02267
1.08282
1.22691
1.32879
1.35224
1.35323
1.34972
1.34274
1.33595
1.32733
1.31689
1.30355
1.28563
1.2627
1.23704
1.21378
1.19615
1.18229
1.17244
1.16269
1.15745
1.149
1.14961
1.14071
1.14062
1
1
1
1
1
1
1
1
1
1
1
1
1
1
1
1
1
1
1
1
1
1
1
1
1
1
1
1
1
1
1
1
1
1
1
1
1
1
1
1
1
1
1
1
1
1
1
1
1
1
1
1
1
1
1
1
1
1
1
1
1
1
1
1
1
1
1
1
1
1
1
1
1
1
1
1
1
1
1
1
1
1
1
1
1.00001
1.00002
1.00004
1.00008
1.00016
1.00031
1.00061
1.00122
1.00264
1.00706
1.02407
1.08872
1.23958
1.34331
1.36722
1.36807
1.3644
1.35733
1.35059
1.3421
1.33178
1.31901
1.30185
1.27929
1.25334
1.22898
1.21038
1.1962
1.18606
1.17652
1.17143
1.16333
1.16412
1.1551
1.15444
1
1
1
1
1
1
1
1
1
1
1
1
1
1
1
1
1
1
1
1
1
1
1
1
1
1
1
1
1
1
1
1
1
1
1
1
1
1
1
1
1
1
1
1
1
1
1
1
1
1
1
1
1
1
1
1
1
1
1
1
1
1
1
1
1
1
1
1
1
1
1
1
1
1
1
1
1
1
1
1
1
1
1
1
1.00001
1.00002
1.00003
1.00007
1.00014
1.00029
1.00058
1.0012
1.00265
1.00729
1.02529
1.09352
1.25058
1.35692
1.38157
1.38276
1.37897
1.37214
1.36554
1.35718
1.34684
1.33433
1.31757
1.29548
1.26984
1.24525
1.22599
1.21153
1.20083
1.19076
1.18454
1.17553
1.17528
1.16608
1.16484
1
1
1
1
1
1
1
1
1
1
1
1
1
1
1
1
1
1
1
1
1
1
1
1
1
1
1
1
1
1
1
1
1
1
1
1
1
1
1
1
1
1
1
1
1
1
1
1
1
1
1
1
1
1
1
1
1
1
1
1
1
1
1
1
1
1
1
1
1
1
1
1
1
1
1
1
1
1
1
1
1
1
1
1
1.00001
1.00001
1.00003
1.00006
1.00013
1.00027
1.00055
1.00116
1.00265
1.00743
1.02616
1.0972
1.26043
1.37017
1.39541
1.39679
1.393
1.38624
1.37978
1.37189
1.36205
1.35027
1.33403
1.31217
1.28615
1.26067
1.24055
1.22632
1.21586
1.20618
1.19971
1.19031
1.18934
1.17953
1.17739
1
1
1
1
1
1
1
1
1
1
1
1
1
1
1
1
1
1
1
1
1
1
1
1
1
1
1
1
1
1
1
1
1
1
1
1
1
1
1
1
1
1
1
1
1
1
1
1
1
1
1
1
1
1
1
1
1
1
1
1
1
1
1
1
1
1
1
1
1
1
1
1
1
1
1
1
1
1
1
1
1
1
1
1
1.00001
1.00001
1.00003
1.00006
1.00012
1.00025
1.00052
1.00111
1.00261
1.00753
1.02685
1.09963
1.26822
1.38328
1.40956
1.41093
1.40685
1.40015
1.39363
1.38581
1.37633
1.36522
1.34986
1.32933
1.30405
1.27804
1.2565
1.24083
1.22907
1.21882
1.21168
1.20191
1.20066
1.19099
1.18863
1
1
1
1
1
1
1
1
1
1
1
1
1
1
1
1
1
1
1
1
1
1
1
1
1
1
1
1
1
1
1
1
1
1
1
1
1
1
1
1
1
1
1
1
1
1
1
1
1
1
1
1
1
1
1
1
1
1
1
1
1
1
1
1
1
1
1
1
1
1
1
1
1
1
1
1
1
1
1
1
1
1
1
1
1
1.00001
1.00002
1.00005
1.0001
1.00022
1.00047
1.00104
1.0025
1.00737
1.0267
1.1003
1.27278
1.39513
1.42384
1.42569
1.42144
1.41506
1.40874
1.40102
1.39153
1.38078
1.36541
1.34469
1.3195
1.29357
1.2721
1.25636
1.24449
1.23368
1.22625
1.21578
1.21372
1.20342
1.19992
1
1
1
1
1
1
1
1
1
1
1
1
1
1
1
1
1
1
1
1
1
1
1
1
1
1
1
1
1
1
1
1
1
1
1
1
1
1
1
1
1
1
1
1
1
1
1
1
1
1
1
1
1
1
1
1
1
1
1
1
1
1
1
1
1
1
1
1
1
1
1
1
1
1
1
1
1
1
1
1
1
1
1
1
1
1.00001
1.00002
1.00004
1.00009
1.0002
1.00043
1.00097
1.00239
1.00721
1.02644
1.09997
1.27565
1.40405
1.43621
1.43918
1.43554
1.4291
1.42287
1.41592
1.40739
1.39773
1.38281
1.36227
1.33732
1.31049
1.28729
1.26935
1.25612
1.24408
1.23676
1.22709
1.22585
1.2159
1.21221
1
1
1
1
1
1
1
1
1
1
1
1
1
1
1
1
1
1
1
1
1
1
1
1
1
1
1
1
1
1
1
1
1
1
1
1
1
1
1
1
1
1
1
1
1
1
1
1
1
1
1
1
1
1
1
1
1
1
1
1
1
1
1
1
1
1
1
1
1
1
1
1
1
1
1
1
1
1
1
1
1
1
1
1
1
1.00001
1.00002
1.00004
1.00008
1.00018
1.00039
1.00089
1.00225
1.00695
1.02583
1.09844
1.27722
1.41246
1.44772
1.45192
1.44917
1.44293
1.43675
1.42915
1.41965
1.41018
1.39666
1.37827
1.35532
1.32856
1.30457
1.28535
1.27114
1.25781
1.24961
1.23889
1.23667
1.227
1.22259
1
1
1
1
1
1
1
1
1
1
1
1
1
1
1
1
1
1
1
1
1
1
1
1
1
1
1
1
1
1
1
1
1
1
1
1
1
1
1
1
1
1
1
1
1
1
1
1
1
1
1
1
1
1
1
1
1
1
1
1
1
1
1
1
1
1
1
1
1
1
1
1
1
1
1
1
1
1
1
1
1
1
1
1
1
1.00001
1.00001
1.00003
1.00007
1.00016
1.00035
1.00083
1.00214
1.0067
1.0251
1.09605
1.27686
1.41854
1.45767
1.46361
1.46219
1.45652
1.45089
1.44404
1.43424
1.42505
1.41139
1.39221
1.36847
1.34197
1.31912
1.30052
1.28589
1.27173
1.26273
1.25159
1.24864
1.23874
1.23381
1
1
1
1
1
1
1
1
1
1
1
1
1
1
1
1
1
1
1
1
1
1
1
1
1
1
1
1
1
1
1
1
1
1
1
1
1
1
1
1
1
1
1
1
1
1
1
1
1
1
1
1
1
1
1
1
1
1
1
1
1
1
1
1
1
1
1
1
1
1
1
1
1
1
1
1
1
1
1
1
1
1
1
1
1
1
1.00001
1.00003
1.00006
1.00014
1.00032
1.00076
1.002
1.00638
1.02415
1.09305
1.2754
1.4245
1.46598
1.47317
1.47298
1.46829
1.46325
1.45806
1.44918
1.44058
1.42729
1.40796
1.38455
1.35703
1.33308
1.31396
1.29963
1.28594
1.27684
1.26548
1.2619
1.25108
1.24453
1
1
1
1
1
1
1
1
1
1
1
1
1
1
1
1
1
1
1
1
1
1
1
1
1
1
1
1
1
1
1
1
1
1
1
1
1
1
1
1
1
1
1
1
1
1
1
1
1
1
1
1
1
1
1
1
1
1
1
1
1
1
1
1
1
1
1
1
1
1
1
1
1
1
1
1
1
1
1
1
1
1
1
1
1
1
1.00001
1.00002
1.00005
1.00012
1.00029
1.0007
1.00188
1.00604
1.02301
1.08905
1.27166
1.42969
1.47526
1.48318
1.48343
1.47943
1.47449
1.46981
1.46002
1.45118
1.43977
1.42197
1.40054
1.3727
1.34812
1.32849
1.31385
1.30039
1.2918
1.28067
1.27686
1.26554
1.25819
1
1
1
1
1
1
1
1
1
1
1
1
1
1
1
1
1
1
1
1
1
1
1
1
1
1
1
1
1
1
1
1
1
1
1
1
1
1
1
1
1
1
1
1
1
1
1
1
1
1
1
1
1
1
1
1
1
1
1
1
1
1
1
1
1
1
1
1
1
1
1
1
1
1
1
1
1
1
1
1
1
1
1
1
1
1
1.00001
1.00002
1.00005
1.00011
1.00026
1.00064
1.00175
1.00571
1.02187
1.08498
1.26654
1.43273
1.48304
1.49268
1.4938
1.4903
1.48534
1.48233
1.47348
1.46435
1.45331
1.43523
1.41468
1.38739
1.36204
1.34032
1.32381
1.30889
1.29883
1.28741
1.28393
1.27432
1.26772
1
1
1
1
1
1
1
1
1
1
1
1
1
1
1
1
1
1
1
1
1
1
1
1
1
1
1
1
1
1
1
1
1
1
1
1
1
1
1
1
1
1
1
1
1
1
1
1
1
1
1
1
1
1
1
1
1
1
1
1
1
1
1
1
1
1
1
1
1
1
1
1
1
1
1
1
1
1
1
1
1
1
1
1
1
1
1.00001
1.00002
1.00004
1.00009
1.00023
1.00059
1.00163
1.00537
1.02065
1.08083
1.25961
1.43509
1.49066
1.50084
1.50164
1.49815
1.4944
1.493
1.48684
1.47807
1.46773
1.44981
1.42959
1.4028
1.37669
1.35454
1.33721
1.32097
1.30939
1.29635
1.29124
1.2812
1.27296
1
1
1
1
1
1
1
1
1
1
1
1
1
1
1
1
1
1
1
1
1
1
1
1
1
1
1
1
1
1
1
1
1
1
1
1
1
1
1
1
1
1
1
1
1
1
1
1
1
1
1
1
1
1
1
1
1
1
1
1
1
1
1
1
1
1
1
1
1
1
1
1
1
1
1
1
1
1
1
1
1
1
1
1
1
1
1.00001
1.00001
1.00003
1.00008
1.0002
1.00052
1.00147
1.00489
1.01898
1.07534
1.2493
1.43445
1.49881
1.51073
1.51171
1.5077
1.50315
1.50012
1.49469
1.48623
1.4773
1.46154
1.44289
1.41869
1.3922
1.36972
1.35199
1.33439
1.3218
1.30818
1.30252
1.29243
1.28323
1
1
1
1
1
1
1
1
1
1
1
1
1
1
1
1
1
1
1
1
1
1
1
1
1
1
1
1
1
1
1
1
1
1
1
1
1
1
1
1
1
1
1
1
1
1
1
1
1
1
1
1
1
1
1
1
1
1
1
1
1
1
1
1
1
1
1
1
1
1
1
1
1
1
1
1
1
1
1
1
1
1
1
1
1
1
1
1.00001
1.00003
1.00007