/*--------------------------------*- C++ -*----------------------------------*\
| =========                 |                                                 |
| \\      /  F ield         | OpenFOAM: The Open Source CFD Toolbox           |
|  \\    /   O peration     | Version:  2.2.x                                 |
|   \\  /    A nd           | Web:      www.OpenFOAM.org                      |
|    \\/     M anipulation  |                                                 |
\*---------------------------------------------------------------------------*/
FoamFile
{
    version     2.0;
    format      ascii;
    class       surfaceScalarField;
    location    "1.95";
    object      phi;
}
// * * * * * * * * * * * * * * * * * * * * * * * * * * * * * * * * * * * * * //

dimensions      [1 0 -1 0 0 0 0];

internalField   nonuniform List<scalar> 
28084
(
0.00174119
0.00173364
0.00172716
0.00172171
0.00171724
0.0017137
0.00171103
0.00170917
0.00170807
0.00170766
0.00170788
0.00170867
0.00170996
0.00171169
0.0017138
0.00171622
0.0017189
0.00172179
0.00172482
0.00172796
0.00173114
0.00173433
0.00173749
0.00174057
0.00174355
0.00174639
0.00174907
0.00175155
0.00175382
0.00175585
0.00175764
0.00175915
0.00176039
0.00176133
0.00176197
0.00176229
0.00176229
0.00176197
0.00176131
0.00176031
0.00175897
0.00175727
0.00175502
0.00174839
0.00173759
0.00175017
0.00175909
0.00176448
0.00177219
0.00178309
0.00179446
0.00180515
0.00181319
0.00181778
0.00181993
0.00182612
0.00183669
0.00184599
0.00185259
0.0018545
0.00185104
0.00184595
0.00184632
0.00185051
0.001852
0.00184859
0.00183967
0.00182303
0.0018091
0.0018023
0.00179504
0.00178453
0.00176752
0.00174182
0.00171492
0.0016952
0.00167813
0.00165807
0.00163254
0.00159926
0.00156301
0.00153373
0.00150768
0.00147924
0.00144654
0.0014067
0.00136633
0.00133315
0.0013015
0.00126787
0.00123102
0.00118846
0.00115001
0.0011169
0.00108375
0.00104857
0.00100899
0.000970573
0.000937918
0.000906481
0.000873599
0.000837126
0.000800676
0.000769128
0.00073851
0.000706092
0.000669625
0.000632784
0.000598452
0.000563182
0.000524067
0.000479746
0.000432837
0.000383566
0.000329703
0.000266159
0.000191089
0.000109254
8.66109e-06
7.54863e-06
0.00174939
6.47668e-06
0.00174716
5.44921e-06
0.00174594
4.47006e-06
0.00174568
3.54277e-06
0.00174633
2.67052e-06
0.00174786
1.85605e-06
0.0017502
1.10164e-06
0.0017533
4.09011e-07
0.00175709
-2.20687e-07
0.00176151
-7.86861e-07
0.00176649
-1.2895e-06
0.00177197
-1.72913e-06
0.00177786
-2.10681e-06
0.00178412
-2.42407e-06
0.00179066
-2.68288e-06
0.00179743
-2.88556e-06
0.00180435
-3.03476e-06
0.00181137
-3.13337e-06
0.00181842
-3.18447e-06
0.00182546
-3.19125e-06
0.00183243
-3.15699e-06
0.00183929
-3.08497e-06
0.00184598
-2.97845e-06
0.00185247
-2.84059e-06
0.00185872
-2.67445e-06
0.0018647
-2.48295e-06
0.00187039
-2.26884e-06
0.00187574
-2.03466e-06
0.00188075
-1.78276e-06
0.00188539
-1.5153e-06
0.00188965
-1.23418e-06
0.0018935
-9.41099e-07
0.00189695
-6.37555e-07
0.00189998
-3.24805e-07
0.00190257
-3.92173e-09
0.00190474
3.24239e-07
0.00190646
6.59003e-07
0.00190773
9.99944e-07
0.00190855
1.3477e-06
0.00190892
1.71239e-06
0.00190884
2.29804e-06
0.0019083
6.24222e-06
0.00190661
1.04559e-05
0.00189713
-1.08324e-05
0.0018827
-8.93795e-06
0.00189161
-8.66575e-06
0.00189809
-8.74879e-06
0.00190118
-8.80601e-06
0.00190687
-8.75487e-06
0.00191575
-8.59989e-06
0.00192494
-8.28827e-06
0.00193325
-7.84912e-06
0.00193855
-7.34602e-06
0.00193986
-6.77234e-06
0.00193897
-6.02174e-06
0.00194268
-5.16868e-06
0.00195085
-4.20966e-06
0.0019575
-3.09951e-06
0.00196116
-1.90515e-06
0.00196003
-7.24192e-07
0.00195294
5.53769e-07
0.00194479
1.94116e-06
0.00194264
3.42538e-06
0.0019443
4.97647e-06
0.00194305
6.57651e-06
0.00193653
8.19673e-06
0.00192421
9.75814e-06
0.00190424
1.14241e-05
0.00188771
1.32064e-05
0.00187859
1.49927e-05
0.00186876
1.67675e-05
0.00185534
1.84674e-05
0.00183544
1.9995e-05
0.00180619
2.15254e-05
0.00177667
2.32042e-05
0.00175499
2.48964e-05
0.00173559
2.65384e-05
0.00171318
2.79841e-05
0.00168488
2.91612e-05
0.00164832
3.02036e-05
0.00160958
3.13601e-05
0.00157862
3.25355e-05
0.00155071
3.36171e-05
0.00152029
3.44703e-05
0.00148534
3.50353e-05
0.00144277
3.54743e-05
0.00140022
3.59062e-05
0.00136544
3.63286e-05
0.0013322
3.66826e-05
0.00129686
3.68429e-05
0.00125802
3.67568e-05
0.00121322
3.65073e-05
0.00117287
3.62285e-05
0.00113831
3.59719e-05
0.00110378
3.57299e-05
0.00106708
3.54719e-05
0.0010258
3.50776e-05
0.00098553
3.44797e-05
0.000951224
3.39224e-05
0.00091833
3.35541e-05
0.000884071
3.34558e-05
0.000846292
3.34461e-05
0.000808189
3.33453e-05
0.000774914
3.33735e-05
0.000742705
3.38047e-05
0.000708844
3.47022e-05
0.00067118
3.59562e-05
0.000632887
3.74623e-05
0.000597008
3.94573e-05
0.000560237
4.22001e-05
0.000519728
4.58478e-05
0.000474079
5.03059e-05
0.000425717
5.58915e-05
0.000374639
6.2868e-05
0.000318731
7.27599e-05
0.000253324
8.20573e-05
0.000176629
0.000110538
9.27215e-05
1.19281e-05
9.77838e-06
0.00176035
7.7027e-06
0.00176337
5.71085e-06
0.00176733
3.81222e-06
0.00177219
2.01555e-06
0.00177791
3.28676e-07
0.00178445
-1.24153e-06
0.00179175
-2.68939e-06
0.00179974
-4.01043e-06
0.00180837
-5.20151e-06
0.00181756
-6.26081e-06
0.00182725
-7.1878e-06
0.00183736
-7.98325e-06
0.00184782
-8.6491e-06
0.00185855
-9.1884e-06
0.00186948
-9.60519e-06
0.00188053
-9.90436e-06
0.00189165
-1.00915e-05
0.00190276
-1.01728e-05
0.00191379
-1.01549e-05
0.0019247
-1.00447e-05
0.00193541
-9.84932e-06
0.00194589
-9.57582e-06
0.00195608
-9.2313e-06
0.00196594
-8.82267e-06
0.00197543
-8.35657e-06
0.00198452
-7.83937e-06
0.00199318
-7.27704e-06
0.00200138
-6.67513e-06
0.00200909
-6.03876e-06
0.00201631
-5.37258e-06
0.00202301
-4.68076e-06
0.00202919
-3.96698e-06
0.00203482
-3.23445e-06
0.00203991
-2.4859e-06
0.00204444
-1.72362e-06
0.00204842
-9.49448e-07
0.00205184
-1.64799e-07
0.00205469
6.29492e-07
0.00205698
1.43571e-06
0.0020587
2.2706e-06
0.00205986
4.03967e-06
0.00206048
1.52827e-05
0.00205957
2.45035e-05
0.00204993
-1.78019e-05
0.0020345
-1.54708e-05
0.00204084
-1.53435e-05
0.00204454
-1.54243e-05
0.0020449
-1.53349e-05
0.00204824
-1.50877e-05
0.00205484
-1.46616e-05
0.0020616
-1.39971e-05
0.00206734
-1.30565e-05
0.00206979
-1.19509e-05
0.00206781
-1.0715e-05
0.00206395
-9.15728e-06
0.00206537
-7.39898e-06
0.00207116
-5.46841e-06
0.0020751
-3.31707e-06
0.00207579
-9.4584e-07
0.00207159
1.44996e-06
0.00206097
4.0228e-06
0.00204988
6.87043e-06
0.0020454
9.81978e-06
0.00204444
1.28884e-05
0.00204046
1.60489e-05
0.00203073
1.92551e-05
0.00201493
2.24175e-05
0.00199175
2.57558e-05
0.00197273
2.92643e-05
0.00196131
3.27706e-05
0.00194885
3.62232e-05
0.00193234
3.96219e-05
0.00190944
4.26759e-05
0.00187657
4.5795e-05
0.00184455
4.90902e-05
0.00182095
5.23439e-05
0.00179906
5.54386e-05
0.00177407
5.82759e-05
0.00174292
6.05982e-05
0.00170296
6.28026e-05
0.00166172
6.50868e-05
0.001629
6.73106e-05
0.00159902
6.93137e-05
0.00156635
7.09319e-05
0.00152892
7.20285e-05
0.00148332
7.29307e-05
0.00143851
7.38018e-05
0.00140202
7.45648e-05
0.00136702
7.51274e-05
0.00132968
7.53235e-05
0.00128851
7.5128e-05
0.00124132
7.47274e-05
0.00119905
7.42208e-05
0.00116289
7.3667e-05
0.00112672
7.30746e-05
0.00108824
7.24413e-05
0.00104505
7.16097e-05
0.0010027
7.05219e-05
0.000966489
6.94988e-05
0.000931846
6.8718e-05
0.000895874
6.84173e-05
0.000856576
6.82816e-05
0.000816467
6.81495e-05
0.00078103
6.82906e-05
0.000746844
6.91139e-05
0.00071113
7.08392e-05
0.000671884
7.32962e-05
0.000631671
7.63026e-05
0.000593734
8.03238e-05
0.000555005
8.58605e-05
0.000512713
9.32451e-05
0.000465657
0.00010226
0.000416088
0.000113624
0.000364039
0.000127646
0.000307649
0.000147308
0.000242789
0.000166307
0.000167967
0.000204433
8.61721e-05
9.87125e-06
6.75719e-06
0.00177405
3.74382e-06
0.00178225
8.48654e-07
0.00179132
-1.91163e-06
0.00180123
-4.52152e-06
0.00181195
-6.96697e-06
0.00182343
-9.23574e-06
0.00183562
-1.13175e-05
0.00184844
-1.32041e-05
0.00186184
-1.48895e-05
0.00187575
-1.63702e-05
0.00189008
-1.76445e-05
0.00190477
-1.87131e-05
0.00191973
-1.95789e-05
0.00193488
-2.02462e-05
0.00195014
-2.07213e-05
0.00196544
-2.1012e-05
0.00198069
-2.11271e-05
0.00199584
-2.10764e-05
0.00201081
-2.08707e-05
0.00202552
-2.05211e-05
0.00203994
-2.00389e-05
0.00205399
-1.94358e-05
0.00206764
-1.87232e-05
0.00208082
-1.79122e-05
0.00209351
-1.70137e-05
0.00210567
-1.60379e-05
0.00211726
-1.49946e-05
0.00212827
-1.38928e-05
0.00213866
-1.27407e-05
0.00214842
-1.15459e-05
0.00215754
-1.03151e-05
0.002166
-9.05429e-06
0.00217379
-7.76862e-06
0.00218091
-6.46247e-06
0.00218736
-5.13952e-06
0.00219313
-3.80269e-06
0.00219822
-2.45424e-06
0.00220263
-1.09547e-06
0.00220637
2.76954e-07
0.00220943
1.6694e-06
0.00221182
5.01643e-06
0.0022136
2.44599e-05
0.00221422
3.95176e-05
0.00220849
-2.20369e-05
0.00219612
-1.93408e-05
0.00220168
-1.9534e-05
0.00220283
-1.9611e-05
0.0022
-1.93351e-05
0.0022005
-1.88465e-05
0.00220438
-1.80936e-05
0.00220829
-1.70286e-05
0.00221105
-1.55363e-05
0.00221057
-1.38352e-05
0.00220515
-1.18629e-05
0.00219854
-9.46883e-06
0.00219797
-6.78742e-06
0.00220141
-3.86519e-06
0.00220259
-6.44806e-07
0.0022002
2.90017e-06
0.00219299
6.50781e-06
0.00217889
1.03875e-05
0.00216528
1.46777e-05
0.00215888
1.91237e-05
0.00215521
2.37222e-05
0.00214848
2.8489e-05
0.00213543
3.32328e-05
0.002116
3.79597e-05
0.00208986
4.29473e-05
0.00206876
4.81668e-05
0.00205526
5.33759e-05
0.00204024
5.85175e-05
0.00202048
6.35252e-05
0.00199449
6.813e-05
0.00195797
7.28073e-05
0.00192376
7.76406e-05
0.00189844
8.23851e-05
0.00187405
8.68826e-05
0.00184633
9.10527e-05
0.00181232
9.45266e-05
0.00176877
9.7892e-05
0.00172523
0.000101272
0.00169075
0.000104472
0.00165847
0.000107309
0.0016233
0.000109623
0.0015832
0.000111221
0.0015344
0.000112612
0.00148734
0.000113872
0.00144893
0.000114884
0.00141182
0.000115531
0.00137215
0.000115638
0.00132839
0.000115362
0.00127863
0.000114899
0.00123423
0.000114211
0.00119596
0.000113311
0.0011576
0.000112225
0.00111687
0.000111027
0.00107132
0.000109815
0.00102664
0.000108426
0.000988108
0.000107043
0.000951142
0.000105872
0.00091289
0.000105201
0.000871407
0.0001049
0.000828992
0.000104765
0.000791154
0.000105124
0.000754656
0.000106442
0.000716724
0.000108922
0.000675419
0.000112471
0.000633008
0.000116926
0.000592811
0.000122967
0.000551979
0.0001312
0.000507831
0.000141951
0.000459275
0.000155052
0.000408327
0.000171662
0.000355122
0.000191961
0.000298178
0.000220222
0.000233845
0.000248236
0.000160995
0.00029175
8.17346e-05
2.56937e-06
-1.43874e-06
0.00179051
-5.32607e-06
0.0018038
-9.06565e-06
0.0018179
-1.26318e-05
0.00183278
-1.60005e-05
0.00184842
-1.91502e-05
0.00186477
-2.2062e-05
0.00188176
-2.47196e-05
0.00189935
-2.71103e-05
0.00191745
-2.92245e-05
0.001936
-3.1056e-05
0.00195492
-3.26019e-05
0.00197411
-3.38625e-05
0.00199351
-3.48411e-05
0.00201301
-3.55437e-05
0.00203254
-3.59789e-05
0.00205202
-3.61575e-05
0.00207136
-3.60918e-05
0.00209048
-3.5796e-05
0.00210932
-3.52851e-05
0.0021278
-3.4575e-05
0.00214586
-3.3682e-05
0.00216344
-3.26226e-05
0.00218049
-3.14132e-05
0.00219695
-3.00698e-05
0.0022128
-2.8608e-05
0.00222798
-2.70424e-05
0.00224247
-2.53869e-05
0.00225623
-2.36545e-05
0.00226926
-2.18571e-05
0.00228153
-2.00053e-05
0.00229303
-1.81089e-05
0.00230374
-1.61762e-05
0.00231366
-1.42148e-05
0.00232278
-1.22307e-05
0.00233111
-1.02293e-05
0.00233865
-8.21463e-06
0.00234539
-6.18986e-06
0.00235133
-4.15702e-06
0.00235649
-2.11427e-06
0.00236087
-8.55667e-08
0.00236448
4.46709e-06
0.00236737
2.97327e-05
0.00236943
5.14102e-05
0.00236721
-2.53707e-05
0.00235675
-2.08998e-05
0.00236084
-2.06919e-05
0.00235936
-2.06806e-05
0.00235402
-2.03504e-05
0.00235257
-1.9708e-05
0.00235451
-1.86759e-05
0.00235624
-1.72196e-05
0.00235639
-1.52604e-05
0.00235335
-1.29762e-05
0.00234442
-1.03225e-05
0.0023356
-7.04645e-06
0.00233354
-3.4636e-06
0.00233489
5.02558e-07
0.00233374
4.83228e-06
0.00232823
9.55532e-06
0.00231809
1.43971e-05
0.00230041
1.95323e-05
0.00228475
2.52602e-05
0.00227733
3.11951e-05
0.00227119
3.74075e-05
0.002262
4.37769e-05
0.00224575
5.00594e-05
0.00222224
5.63211e-05
0.00219351
6.2939e-05
0.00217138
6.98482e-05
0.00215634
7.67376e-05
0.00213902
8.35484e-05
0.00211616
9.01124e-05
0.00208692
9.62686e-05
0.00204701
0.000102463
0.00201093
0.000108876
0.00198445
0.000115091
0.0019578
0.000120938
0.00192736
0.000126296
0.00189065
0.000130984
0.00184341
0.000135509
0.00179795
0.000140036
0.0017621
0.000144186
0.00172744
0.000147751
0.00168977
0.000150606
0.00164697
0.00015274
0.00159498
0.000154693
0.00154585
0.000156406
0.00150547
0.000157645
0.00146603
0.000158285
0.00142379
0.000158241
0.00137721
0.000157841
0.00132479
0.000157337
0.00127819
0.000156496
0.00123737
0.000155252
0.00119629
0.0001537
0.0011528
0.000151924
0.00110442
0.000150256
0.00105731
0.000148592
0.00101617
0.000146897
0.000976381
0.000145397
0.000935258
0.000144298
0.000891024
0.000143761
0.00084618
0.000143631
0.000805845
0.000144248
0.000766802
0.000146039
0.000726338
0.000149147
0.00068264
0.000153706
0.000637935
0.000159571
0.000595481
0.000167558
0.000552547
0.000178243
0.000506547
0.000192045
0.000456443
0.000208845
0.000404223
0.000230155
0.000350016
0.000255908
0.000292513
0.000291418
0.00022827
0.00032778
0.000156748
0.000374196
7.93791e-05
-9.88994e-06
-1.47245e-05
0.00180973
-1.94246e-05
0.00182801
-2.3952e-05
0.00184705
-2.82702e-05
0.00186682
-3.23454e-05
0.00188729
-3.61469e-05
0.00190842
-3.96477e-05
0.00193014
-4.28248e-05
0.00195241
-4.56597e-05
0.00197514
-4.81385e-05
0.00199825
-5.02519e-05
0.00202167
-5.19951e-05
0.0020453
-5.33677e-05
0.00206906
-5.43735e-05
0.00209285
-5.50202e-05
0.00211658
-5.53186e-05
0.00214017
-5.52829e-05
0.00216352
-5.49294e-05
0.00218656
-5.42767e-05
0.00220921
-5.33447e-05
0.00223139
-5.21548e-05
0.00225303
-5.07285e-05
0.00227408
-4.90879e-05
0.00229448
-4.72549e-05
0.00231417
-4.52509e-05
0.00233311
-4.30966e-05
0.00235126
-4.08116e-05
0.00236859
-3.84147e-05
0.00238508
-3.59229e-05
0.0024007
-3.33522e-05
0.00241543
-3.0717e-05
0.00242927
-2.80299e-05
0.00244219
-2.53025e-05
0.00245421
-2.25444e-05
0.0024653
-1.97639e-05
0.00247548
-1.69679e-05
0.00248475
-1.41618e-05
0.00249311
-1.13498e-05
0.00250057
-8.53481e-06
0.00250713
-5.71737e-06
0.0025128
-2.95418e-06
0.00251759
2.50333e-06
0.00252155
3.14857e-05
0.00252414
6.13165e-05
0.00251844
-2.70186e-05
0.00250504
-2.02377e-05
0.00250412
-1.95812e-05
0.00249793
-1.93918e-05
0.00248944
-1.89775e-05
0.00248574
-1.81896e-05
0.00248522
-1.68805e-05
0.00248426
-1.50382e-05
0.00248103
-1.25964e-05
0.00247459
-9.71669e-06
0.00246187
-6.26787e-06
0.00245121
-2.13191e-06
0.00244764
2.38182e-06
0.00244596
7.3732e-06
0.00244179
1.27985e-05
0.00243244
1.86897e-05
0.00241834
2.4813e-05
0.00239749
3.13489e-05
0.00238
3.84551e-05
0.00237122
4.58003e-05
0.00236226
5.35455e-05
0.00234982
6.14246e-05
0.00232983
6.93539e-05
0.00230184
7.72517e-05
0.00227097
8.55344e-05
0.00224786
9.40046e-05
0.00223081
0.000102495
0.00221085
0.000110896
0.00218463
0.000119116
0.00215155
0.000126925
0.00210892
0.000134722
0.00207177
0.000142606
0.00204391
0.000150193
0.00201521
0.000157318
0.00198204
0.000163915
0.00194294
0.000169824
0.00189262
0.000175583
0.00184616
0.000181224
0.00180955
0.000186296
0.00177343
0.000190532
0.00173392
0.000193896
0.00168948
0.000196595
0.00163547
0.000199154
0.00158575
0.000201421
0.0015447
0.000202948
0.00150413
0.00020355
0.00146052
0.000203343
0.0014122
0.000202918
0.00135894
0.000202406
0.00131184
0.000201474
0.00126992
0.000199888
0.00122746
0.000197806
0.00118262
0.000195483
0.00113273
0.000193435
0.00108485
0.000191548
0.00104266
0.000189534
0.00100144
0.000187587
0.000958585
0.000185961
0.000912376
0.000185176
0.000865744
0.000185043
0.000823197
0.000185865
0.000781607
0.000188048
0.000738542
0.000191667
0.00069235
0.000197136
0.000645495
0.000204291
0.0006009
0.000214049
0.000555916
0.000226893
0.000508019
0.000243422
0.000456294
0.000263549
0.000402914
0.000289153
0.000347923
0.000319906
0.000289894
0.000361559
0.000225581
0.000405507
0.000154826
0.000453914
7.84121e-05
-2.74098e-05
-3.30063e-05
0.00183173
-3.84606e-05
0.00185491
-4.37216e-05
0.00187878
-4.87404e-05
0.00190333
-5.34718e-05
0.00192854
-5.78744e-05
0.00195435
-6.19121e-05
0.00198072
-6.55539e-05
0.00200758
-6.87748e-05
0.00203484
-7.15556e-05
0.00206244
-7.38833e-05
0.00209027
-7.57509e-05
0.00211826
-7.71572e-05
0.00214629
-7.81063e-05
0.00217429
-7.86072e-05
0.00220214
-7.86736e-05
0.00222976
-7.83231e-05
0.00225706
-7.75763e-05
0.00228394
-7.64567e-05
0.00231033
-7.49898e-05
0.00233614
-7.32024e-05
0.0023613
-7.11222e-05
0.00238575
-6.87774e-05
0.00240943
-6.61959e-05
0.00243229
-6.3405e-05
0.00245427
-6.04311e-05
0.00247534
-5.72994e-05
0.00249547
-5.40336e-05
0.00251462
-5.06558e-05
0.00253278
-4.7186e-05
0.00254993
-4.36428e-05
0.00256606
-4.00423e-05
0.00258116
-3.6399e-05
0.00259522
-3.27253e-05
0.00260825
-2.90318e-05
0.00262025
-2.5327e-05
0.00263121
-2.1618e-05
0.00264116
-1.79098e-05
0.0026501
-1.42061e-05
0.00265803
-1.05073e-05
0.00266497
-6.88934e-06
0.00267093
2.9082e-08
0.00267599
3.67658e-05
0.00267927
7.41316e-05
0.002673
-2.35535e-05
0.00265725
-1.54014e-05
0.00265386
-1.5273e-05
0.00264533
-1.53168e-05
0.00263499
-1.48094e-05
0.00262967
-1.38781e-05
0.00262665
-1.22808e-05
0.00262301
-9.94682e-06
0.00261637
-6.92364e-06
0.00260613
-3.57896e-06
0.00259055
6.07658e-07
0.00257832
5.59219e-06
0.00257312
1.10687e-05
0.00256815
1.71873e-05
0.00256064
2.3825e-05
0.00254743
3.07883e-05
0.00252891
3.80293e-05
0.0025054
4.60096e-05
0.00248667
5.45258e-05
0.00247562
6.33363e-05
0.00246334
7.24995e-05
0.00244673
8.19094e-05
0.00242316
9.1227e-05
0.00239058
0.000100777
0.00235772
0.00011082
0.00233291
0.000120976
0.00231269
0.000130889
0.00228899
0.000140714
0.00225876
0.000150268
0.00222096
0.000159726
0.00217582
0.000169275
0.00213701
0.000178698
0.00210646
0.000187535
0.00207447
0.000195817
0.00203747
0.000203317
0.00199431
0.000210455
0.00194162
0.000217446
0.00189382
0.000224037
0.00185525
0.000229875
0.00181653
0.000234737
0.00177384
0.000238434
0.00172597
0.000241641
0.00167039
0.000244748
0.00162056
0.000247499
0.00157842
0.000249422
0.00153601
0.000250157
0.00149025
0.000249633
0.00143925
0.000248904
0.00138549
0.000248366
0.00133913
0.000247387
0.00129645
0.000245655
0.00125275
0.000243134
0.00120646
0.000240351
0.00115515
0.000237972
0.00110719
0.000235782
0.00106439
0.000233555
0.00102211
0.000231405
0.000977887
0.000229667
0.000930021
0.000228918
0.000882942
0.000229007
0.000839766
0.000230013
0.000797122
0.000232421
0.000752334
0.000236396
0.000704057
0.000242765
0.000655004
0.000251086
0.000608089
0.000262407
0.000560848
0.000277123
0.00051076
0.000296021
0.000457232
0.000319029
0.000402629
0.000348556
0.000346789
0.000384007
0.000288031
0.000431152
0.000223269
0.000482327
0.000152994
0.000532522
7.71479e-05
-4.98839e-05
-5.61806e-05
0.00185652
-6.23335e-05
0.00188448
-6.82765e-05
0.00191308
-7.39469e-05
0.00194231
-7.92862e-05
0.00197215
-8.42414e-05
0.00200255
-8.87658e-05
0.00203345
-9.28193e-05
0.0020648
-9.63695e-05
0.0020965
-9.93914e-05
0.00212848
-0.000101868
0.00216065
-0.000103789
0.00219289
-0.000105152
0.00222512
-0.000105962
0.00225723
-0.000106229
0.00228913
-0.00010597
0.0023207
-0.000105206
0.00235185
-0.000103962
0.0023825
-0.000102267
0.00241254
-0.000100153
0.00244191
-9.76531e-05
0.00247052
-9.48006e-05
0.0024983
-9.16307e-05
0.00252519
-8.81779e-05
0.00255114
-8.4476e-05
0.0025761
-8.05577e-05
0.00260003
-7.64541e-05
0.00262289
-7.21944e-05
0.00264465
-6.7806e-05
0.0026653
-6.33138e-05
0.00268481
-5.87403e-05
0.00270319
-5.41058e-05
0.00272041
-4.94279e-05
0.00273648
-4.47221e-05
0.0027514
-4.00011e-05
0.00276517
-3.52757e-05
0.00277781
-3.05542e-05
0.00278931
-2.5843e-05
0.00279969
-2.11462e-05
0.00280897
-1.64656e-05
0.00281715
-1.19196e-05
0.00282426
-3.11089e-06
0.00283038
4.27044e-05
0.00283522
8.9236e-05
0.00283471
-1.76746e-05
0.00282236
-8.85778e-06
0.00281793
-8.71353e-06
0.00280674
-8.87708e-06
0.00279452
-8.15973e-06
0.00278763
-6.94358e-06
0.002782
-4.97156e-06
0.00277553
-1.99301e-06
0.0027654
1.56942e-06
0.002751
5.39096e-06
0.00273267
1.0347e-05
0.00271957
1.62652e-05
0.00271273
2.27112e-05
0.00270467
2.99149e-05
0.00269329
3.78419e-05
0.00267604
4.60013e-05
0.00265322
5.42299e-05
0.0026271
6.37079e-05
0.00260761
7.38126e-05
0.00259429
8.40401e-05
0.00257826
9.47359e-05
0.00255683
0.000105499
0.00252921
0.000116289
0.00249257
0.000127399
0.00245783
0.000139347
0.00243136
0.000151172
0.00240684
0.000162695
0.00237899
0.000173896
0.00234392
0.000184681
0.00230093
0.000195522
0.00225394
0.000206729
0.00221404
0.000217844
0.00218005
0.000227996
0.00214376
0.000237196
0.00210185
0.000245526
0.00205355
0.000253669
0.00199882
0.000261782
0.00195014
0.000269401
0.0019085
0.000275879
0.00186573
0.000280994
0.00181851
0.00028486
0.00176557
0.000288467
0.001708
0.00029209
0.00165771
0.000295177
0.00161302
0.000297156
0.00156718
0.000297692
0.00151814
0.000296739
0.00146286
0.000295846
0.00140846
0.000295277
0.00136221
0.000294259
0.00131793
0.000292372
0.00127204
0.000289425
0.00122306
0.000286087
0.0011702
0.000283415
0.00112315
0.00028101
0.0010803
0.000278599
0.00103724
0.000276281
0.000991789
0.000274327
0.000942333
0.000273632
0.000895412
0.000274014
0.000852081
0.000275569
0.000808826
0.000278708
0.000762908
0.000283643
0.000713528
0.0002908
0.000664411
0.000300045
0.000616461
0.000312779
0.000567431
0.000329123
0.000514558
0.000350061
0.00045882
0.000375466
0.000402983
0.000408432
0.000346233
0.00044833
0.000286387
0.000500568
0.000220731
0.000558536
0.000150546
0.000609855
7.58147e-05
-7.71956e-05
-8.41346e-05
0.00188413
-9.09334e-05
0.00191674
-9.75096e-05
0.00194995
-0.000103785
0.00198374
-0.000109686
0.0020181
-0.000115148
0.00205297
-0.00012011
0.00208831
-0.000124525
0.00212404
-0.000128349
0.00216007
-0.000131553
0.00219634
-0.000134114
0.00223272
-0.000136019
0.00226913
-0.000137264
0.00230545
-0.000137854
0.00234159
-0.000137801
0.00237742
-0.000137125
0.00241285
-0.00013585
0.00244777
-0.000134008
0.00248209
-0.000131633
0.00251571
-0.000128762
0.00254855
-0.000125435
0.00258052
-0.000121694
0.00261156
-0.000117581
0.00264159
-0.000113136
0.00267056
-0.000108402
0.00269843
-0.000103417
0.00272514
-9.82185e-05
0.00275066
-9.28425e-05
0.00277498
-8.73216e-05
0.00279805
-8.16859e-05
0.00281987
-7.59627e-05
0.00284044
-7.01761e-05
0.00285973
-6.43475e-05
0.00287776
-5.84954e-05
0.00289453
-5.26351e-05
0.00291003
-4.67794e-05
0.00292429
-4.09385e-05
0.00293731
-3.51197e-05
0.00294911
-2.93282e-05
0.0029597
-2.35689e-05
0.00296909
-1.8018e-05
0.00297731
-7.78897e-06
0.00298443
4.29864e-05
0.00299032
0.0001008
0.00299098
-1.0904e-05
0.0029803
-2.47124e-07
0.00297397
7.75488e-08
0.00295958
2.34047e-07
0.00294631
1.11105e-06
0.00293876
2.65848e-06
0.00293129
5.21503e-06
0.00292135
8.5531e-06
0.00290758
1.2538e-05
0.00288699
1.71192e-05
0.00286783
2.31283e-05
0.00285595
2.99052e-05
0.0028478
3.74867e-05
0.00283693
4.58486e-05
0.00282107
5.46663e-05
0.00279986
6.38976e-05
0.00277123
7.34538e-05
0.0027448
8.4626e-05
0.00272732
9.61646e-05
0.00271194
0.000108303
0.00269303
0.000120597
0.00266666
0.000132467
0.00263239
0.000144694
0.00259342
0.000157455
0.00256034
0.000171144
0.00253495
0.000184722
0.00250809
0.000198325
0.00247585
0.000211007
0.00243677
0.000222811
0.00238688
0.000234837
0.0023399
0.000247567
0.0023015
0.000260016
0.00226455
0.000271836
0.00222452
0.000282246
0.00217787
0.000291142
0.00212208
0.000300145
0.00206557
0.000309171
0.00201707
0.000317858
0.00197182
0.000325294
0.00192429
0.000330713
0.00187208
0.000334586
0.00181241
0.000338388
0.00175288
0.000342241
0.00170174
0.000345352
0.00165335
0.000347067
0.00160311
0.00034717
0.00154991
0.000345998
0.0014899
0.000345019
0.00143445
0.000344179
0.00138683
0.000342707
0.00133996
0.00034018
0.00129085
0.000336206
0.00123732
0.000332466
0.00118313
0.000329638
0.00113656
0.000327108
0.00109262
0.000324502
0.0010477
0.000321762
0.000999964
0.000319544
0.000949121
0.000318978
0.00090335
0.000319717
0.000860079
0.000321818
0.000816116
0.000325634
0.000768894
0.000331475
0.000718541
0.000339896
0.000669955
0.000350967
0.00062235
0.000365533
0.000572578
0.000383156
0.000518289
0.000405789
0.000461124
0.000433082
0.000403735
0.000468992
0.000345782
0.000513152
0.00028449
0.000570124
0.00021791
0.000633731
0.000147821
0.000685922
7.44709e-05
-0.000109218
-0.000116745
0.00191458
-0.00012414
0.00195171
-0.000131304
0.0019894
-0.00013814
0.00202763
-0.00014456
0.00206637
-0.000150483
0.0021056
-0.000155838
0.00214525
-0.000160564
0.00218524
-0.000164611
0.0022255
-0.000167939
0.00226593
-0.000170522
0.00230643
-0.000172343
0.00234689
-0.000173396
0.0023872
-0.000173688
0.00242725
-0.000173231
0.00246692
-0.000172048
0.00250611
-0.000170169
0.0025447
-0.000167629
0.0025826
-0.000164469
0.0026197
-0.000160733
0.00265592
-0.00015647
0.00269116
-0.000151727
0.00272536
-0.000146554
0.00275845
-0.000141
0.00279037
-0.000135114
0.00282106
-0.000128943
0.00285048
-0.00012253
0.0028786
-0.000115918
0.00290539
-0.000109146
0.00293083
-0.000102248
0.0029549
-9.52584e-05
0.00297759
-8.82046e-05
0.00299891
-8.11119e-05
0.00301884
-7.40021e-05
0.0030374
-6.68934e-05
0.00305459
-5.98007e-05
0.00307043
-5.27358e-05
0.00308493
-4.57076e-05
0.0030981
-3.8722e-05
0.00310997
-3.17854e-05
0.00312054
-2.51163e-05
0.00312984
-1.34769e-05
0.00313804
4.2323e-05
0.00314481
0.000110579
0.00314618
-2.66546e-06
0.00313447
1.0113e-05
0.00312524
1.10126e-05
0.00310781
1.19016e-05
0.00309386
1.30067e-05
0.00308482
1.47576e-05
0.00307478
1.77062e-05
0.00306058
2.14084e-05
0.00304194
2.59735e-05
0.00301785
3.14498e-05
0.00299894
3.86031e-05
0.00298794
4.6266e-05
0.00297673
5.49981e-05
0.00296213
6.41862e-05
0.002941
7.37744e-05
0.00291439
8.40552e-05
0.00288291
9.54353e-05
0.00285852
0.000108309
0.00284198
0.000121276
0.00282312
0.000134938
0.00279871
0.000148513
0.00276734
0.000161582
0.00272633
0.000175238
0.00268681
0.000190148
0.00265698
0.00020565
0.00263055
0.000221061
0.00260036
0.000236155
0.00256203
0.000250045
0.00251559
0.000263446
0.00246323
0.000276947
0.00241844
0.000291534
0.00238155
0.00030566
0.00234268
0.000319006
0.00229797
0.000330703
0.00224633
0.000340558
0.0021851
0.000350187
0.00212904
0.000360325
0.00208229
0.000369833
0.00203522
0.000378138
0.00198404
0.000384231
0.00192751
0.000388355
0.00186199
0.000392248
0.00180117
0.000396095
0.00174913
0.000398893
0.00169774
0.000400165
0.0016434
0.00039961
0.00158449
0.000398349
0.00152072
0.000397196
0.00146429
0.000395756
0.00141441
0.00039329
0.00136405
0.000389661
0.00131163
0.000384862
0.00125334
0.000380915
0.00119808
0.000377777
0.0011504
0.000374548
0.00110434
0.000371219
0.00105672
0.000367398
0.00100517
0.000365255
0.000953699
0.000364959
0.000908344
0.000366085
0.000864618
0.000368628
0.000819056
0.000372797
0.000769906
0.000379525
0.000719304
0.000389369
0.000671862
0.000402281
0.000624571
0.000418964
0.000573967
0.000438843
0.00051892
0.000463443
0.000462259
0.00049213
0.00040457
0.000530572
0.000345414
0.000578684
0.000282146
0.000640063
0.000214667
0.000707664
0.000144954
0.000760325
7.30028e-05
-0.000145815
-0.000153878
0.0019479
-0.000161824
0.00198942
-0.000169532
0.00203144
-0.000176888
0.00207396
-0.000183786
0.00211697
-0.000190129
0.00216041
-0.000195832
0.00220424
-0.000200823
0.00224837
-0.00020504
0.00229273
-0.000208438
0.0023372
-0.000210982
0.00238169
-0.000212654
0.00242609
-0.000213445
0.00247027
-0.000213362
0.00251412
-0.000212419
0.00255752
-0.000210642
0.00260036
-0.000208065
0.00264251
-0.00020473
0.00268388
-0.000200684
0.00272436
-0.00019598
0.00276386
-0.000190671
0.00280228
-0.000184815
0.00283956
-0.000178469
0.00287561
-0.000171692
0.00291038
-0.000164538
0.00294382
-0.000157064
0.00297587
-0.00014932
0.00300651
-0.000141355
0.0030357
-0.000133215
0.00306343
-0.000124942
0.00308968
-0.000116571
0.00311444
-0.000108138
0.00313771
-9.96711e-05
0.00315949
-9.11953e-05
0.00317979
-8.2732e-05
0.00319862
-7.42985e-05
0.00321599
-6.59083e-05
0.00323192
-5.75714e-05
0.00324643
-4.9293e-05
0.00325953
-4.10853e-05
0.00327125
-3.33036e-05
0.00328165
-2.00427e-05
0.00329093
4.12044e-05
0.00329881
0.000121415
0.00330558
7.74835e-06
0.003296
2.262e-05
0.00328441
2.45596e-05
0.00326373
2.61176e-05
0.00324961
2.75017e-05
0.00323924
2.96506e-05
0.0032262
3.2781e-05
0.00320865
3.66217e-05
0.00318284
4.19282e-05
0.00315749
4.85024e-05
0.00314099
5.65673e-05
0.00312992
6.52924e-05
0.00311573
7.5058e-05
0.00309645
8.50691e-05
0.00307131
9.55854e-05
0.00303667
0.000107297
0.00300461
0.000120404
0.00298433
0.000134518
0.00296687
0.000149222
0.00294536
0.000164208
0.00291484
0.000178537
0.00287636
0.000193332
0.00283019
0.000208732
0.00279249
0.000225788
0.00276613
0.000242908
0.00273809
0.00025993
0.00270374
0.00027625
0.00266095
0.000291033
0.00260512
0.000306288
0.00255167
0.000321824
0.00251083
0.000338155
0.00247411
0.000353845
0.00243346
0.000368515
0.00238435
0.000380433
0.0023254
0.000391739
0.0022605
0.000402826
0.00220622
0.000414419
0.00216002
0.000424945
0.00211154
0.000433773
0.00205659
0.000439871
0.0019942
0.000444654
0.00192372
0.000449275
0.00186201
0.000453345
0.00180798
0.000455959
0.00175283
0.000456664
0.00169327
0.000455519
0.00162708
0.000454064
0.00155919
0.000452367
0.00150058
0.000450063
0.00144692
0.000446636
0.00139204
0.000441796
0.00133517
0.000436497
0.00127288
0.000432015
0.00121656
0.00042805
0.00116691
0.000423632
0.00111756
0.00041901
0.0010669
0.000414641
0.00101155
0.000412561
0.00095975
0.00041226
0.000913576
0.000413177
0.000867911
0.000415734
0.000820273
0.00042
0.000768514
0.000427902
0.000718628
0.000439139
0.000671435
0.000453769
0.000623775
0.000472358
0.000571944
0.000494455
0.000516527
0.000521502
0.000460628
0.000552843
0.000404022
0.000593568
0.000344342
0.000645018
0.000279509
0.000710164
0.000211239
0.000780196
0.000142162
0.000832926
7.16154e-05
-0.000186837
-0.00019539
0.00198413
-0.000203844
0.00202987
-0.000212057
0.00207607
-0.000219894
0.00212275
-0.000227231
0.00216987
-0.000233956