/*--------------------------------*- C++ -*----------------------------------*\
| =========                 |                                                 |
| \\      /  F ield         | OpenFOAM: The Open Source CFD Toolbox           |
|  \\    /   O peration     | Version:  2.2.x                                 |
|   \\  /    A nd           | Web:      www.OpenFOAM.org                      |
|    \\/     M anipulation  |                                                 |
\*---------------------------------------------------------------------------*/
FoamFile
{
    version     2.0;
    format      ascii;
    class       volScalarField;
    location    "0.6";
    object      p;
}
// * * * * * * * * * * * * * * * * * * * * * * * * * * * * * * * * * * * * * //

dimensions      [1 -1 -2 0 0 0 0];

internalField   nonuniform List<scalar> 
14161
(
0.199997
0.199997
0.199997
0.199996
0.199994
0.199992
0.199989
0.199985
0.19998
0.199973
0.199965
0.199955
0.199943
0.199929
0.199916
0.199907
0.199904
0.199905
0.199913
0.199933
0.199971
0.200032
0.200124
0.200254
0.20043
0.200661
0.200955
0.201319
0.201761
0.202287
0.202899
0.203605
0.2044
0.205289
0.206264
0.207326
0.208463
0.209671
0.210935
0.212254
0.21361
0.214994
0.216398
0.217815
0.21919
0.220595
0.222089
0.223643
0.225208
0.226808
0.22841
0.23021
0.232763
0.238256
0.255068
0.457283
1.0246
1.42159
1.53685
1.56772
1.56139
1.53686
1.50878
1.48323
1.45783
1.43178
1.40503
1.37839
1.35419
1.33276
1.31216
1.29172
1.27265
1.25558
1.23859
1.22044
1.20281
1.1872
1.17379
1.16134
1.14281
1.12356
1.10598
1.09178
1.08214
1.07979
1.08394
1.09346
1.11491
1.15337
1.21319
1.29411
1.39615
1.50382
1.60109
1.67947
1.73764
1.78914
1.82979
1.86082
1.88758
1.90939
1.92779
1.94479
1.95861
1.96973
1.98085
1.99158
2.00029
2.00689
2.01325
2.01915
2.02467
2.02985
2.03443
2.03915
2.04297
2.04497
2.04984
0.199997
0.199997
0.199997
0.199996
0.199994
0.199992
0.199989
0.199985
0.19998
0.199973
0.199965
0.199955
0.199943
0.199929
0.199915
0.199907
0.199904
0.199905
0.199912
0.199932
0.199969
0.20003
0.200121
0.200251
0.200426
0.200657
0.200949
0.201312
0.201753
0.202277
0.202888
0.203592
0.204386
0.205273
0.206247
0.207307
0.208442
0.20965
0.210915
0.212233
0.213587
0.214972
0.216384
0.217798
0.219167
0.220596
0.222106
0.223643
0.225204
0.226825
0.228446
0.230241
0.232818
0.238377
0.254586
0.455227
1.02175
1.41745
1.53203
1.56257
1.55474
1.52875
1.4988
1.47124
1.44439
1.41839
1.39317
1.36813
1.34517
1.32385
1.30256
1.28095
1.26033
1.24238
1.22506
1.20656
1.18801
1.17077
1.15543
1.14156
1.12537
1.11029
1.09846
1.09075
1.08705
1.08702
1.09833
1.12088
1.15744
1.21519
1.29522
1.39079
1.49337
1.58972
1.6712
1.73136
1.77598
1.81716
1.85024
1.87637
1.89951
1.91873
1.93553
1.95159
1.96488
1.97557
1.98621
1.99652
2.00502
2.01148
2.01762
2.02322
2.02836
2.03297
2.0369
2.04096
2.04355
2.04448
2.0505
0.199997
0.199997
0.199997
0.199996
0.199994
0.199992
0.199989
0.199985
0.19998
0.199973
0.199965
0.199955
0.199942
0.199928
0.199915
0.199906
0.199902
0.199903
0.19991
0.199929
0.199966
0.200025
0.200116
0.200244
0.200417
0.200645
0.200935
0.201296
0.201733
0.202253
0.202861
0.20356
0.204351
0.205233
0.206203
0.207259
0.208391
0.209596
0.210863
0.21218
0.213529
0.21492
0.216335
0.217742
0.219122
0.220574
0.222093
0.223615
0.225209
0.226863
0.228481
0.230266
0.232924
0.238481
0.255417
0.458267
1.02486
1.41896
1.53259
1.56283
1.55291
1.52501
1.49309
1.46297
1.43391
1.40654
1.38078
1.35578
1.33186
1.31
1.2887
1.26735
1.24686
1.22813
1.21104
1.19383
1.1754
1.15758
1.14109
1.12672
1.11427
1.10602
1.10127
1.09974
1.09933
1.1086
1.12864
1.16349
1.21684
1.29104
1.3834
1.48264
1.57616
1.65431
1.71641
1.76341
1.80032
1.83501
1.86403
1.88753
1.90805
1.92522
1.94082
1.95593
1.96861
1.97899
1.9892
1.99896
2.007
2.01328
2.01924
2.02462
2.02951
2.03377
2.03692
2.03944
2.04156
2.04183
2.04822
0.199997
0.199997
0.199997
0.199996
0.199994
0.199992
0.199989
0.199985
0.19998
0.199973
0.199965
0.199954
0.199942
0.199928
0.199914
0.199904
0.1999
0.199901
0.199907
0.199925
0.19996
0.200018
0.200106
0.200231
0.200401
0.200625
0.200911
0.201266
0.201698
0.202211
0.202813
0.203504
0.204288
0.205161
0.206126
0.207172
0.2083
0.209499
0.210763
0.212076
0.213424
0.214822
0.216234
0.217635
0.219052
0.220519
0.222026
0.223569
0.225228
0.226923
0.228542
0.230424
0.233286
0.23925
0.258154
0.467248
1.03349
1.42471
1.53716
1.56671
1.55236
1.52258
1.48986
1.45774
1.42705
1.39798
1.36984
1.3418
1.31456
1.28901
1.26481
1.24223
1.22025
1.20045
1.18287
1.16736
1.15278
1.13912
1.1269
1.11739
1.11098
1.10882
1.11087
1.1174
1.13015
1.15604
1.19974
1.26436
1.35132
1.4483
1.54283
1.62665
1.68885
1.73804
1.7789
1.81289
1.84172
1.86666
1.88755
1.90636
1.92397
1.93909
1.95273
1.96595
1.97705
1.98643
1.99561
2.00438
2.01157
2.01753
2.02294
2.0273
2.03095
2.03384
2.03571
2.03722
2.03895
2.03843
2.04551
0.199997
0.199997
0.199997
0.199996
0.199994
0.199992
0.199989
0.199985
0.19998
0.199973
0.199964
0.199954
0.199941
0.199927
0.199913
0.199902
0.199897
0.199897
0.199901
0.199918
0.199951
0.200006
0.20009
0.200211
0.200377
0.200595
0.200874
0.201221
0.201643
0.202147
0.202738
0.203418
0.204189
0.205052
0.206004
0.207041
0.208157
0.209347
0.2106
0.211909
0.21327
0.214662
0.21605
0.217482
0.218939
0.220396
0.221892
0.223522
0.225244
0.226952
0.228622
0.230599
0.233625
0.240162
0.261335
0.477855
1.04377
1.43144
1.54263
1.56884
1.54593
1.5111
1.47422
1.43863
1.40506
1.37381
1.34459
1.31578
1.28771
1.2615
1.23744
1.21514
1.19287
1.17275
1.15583
1.14383
1.13507
1.12648
1.11964
1.11633
1.11434
1.12005
1.13452
1.15655
1.19129
1.24245
1.31508
1.40361
1.50052
1.59538
1.66788
1.71822
1.75589
1.78837
1.81691
1.84468
1.86891
1.88792
1.90424
1.92101
1.93689
1.95027
1.96212
1.97335
1.98315
1.99206
2.00045
2.00833
2.01484
2.02004
2.02454
2.02846
2.03112
2.03298
2.03369
2.03447
2.03587
2.03457
2.04229
0.199997
0.199997
0.199997
0.199996
0.199994
0.199992
0.199989
0.199985
0.199979
0.199972
0.199964
0.199953
0.199941
0.199926
0.199911
0.199899
0.199893
0.199891
0.199894
0.199908
0.199938
0.19999
0.200069
0.200184
0.200343
0.200552
0.200821
0.201157
0.201566
0.202057
0.202631
0.203296
0.204049
0.204896
0.205828
0.20685
0.207949
0.209126
0.210364
0.211674
0.213034
0.214405
0.215808
0.217269
0.218738
0.220172
0.221736
0.223438
0.225175
0.226888
0.228679
0.230732
0.233917
0.240843
0.263513
0.484877
1.05157
1.43574
1.5473
1.56948
1.5368
1.49725
1.45582
1.41578
1.37779
1.342
1.30911
1.27732
1.24651
1.21847
1.19387
1.1732
1.15459
1.13906
1.12753
1.12044
1.11835
1.1183
1.11951
1.12275
1.13279
1.15195
1.18476
1.2341
1.30122
1.38563
1.47721
1.56771
1.64546
1.70047
1.74171
1.7734
1.7996
1.82356
1.84712
1.86993
1.88821
1.90329
1.91932
1.9345
1.94726
1.95818
1.96887
1.97919
1.98883
1.99745
2.00477
2.01148
2.01674
2.02154
2.02562
2.02863
2.03029
2.03112
2.03106
2.03138
2.03237
2.03055
2.03863
0.199997
0.199997
0.199997
0.199996
0.199994
0.199992
0.199989
0.199985
0.199979
0.199972
0.199963
0.199953
0.19994
0.199925
0.19991
0.199895
0.199887
0.199883
0.199885
0.199896
0.199922
0.199968
0.200041
0.200149
0.200297
0.200496
0.200751
0.201072
0.201465
0.201937
0.202491
0.203134
0.203865
0.204686
0.205595
0.206591
0.207671
0.208824
0.210049
0.211339
0.212681
0.214061
0.215489
0.216943
0.218396
0.219879
0.221514
0.22323
0.224964
0.226785
0.2287
0.230818
0.234132
0.241228
0.264133
0.486247
1.05261
1.43335
1.54889
1.56417
1.51917
1.47403
1.42689
1.38161
1.33954
1.29998
1.26343
1.23008
1.19925
1.17189
1.15029
1.13413
1.12115
1.11141
1.10475
1.10203
1.10795
1.11818
1.13366
1.15306
1.18132
1.22293
1.28423
1.36445
1.45402
1.54379
1.62435
1.68256
1.72288
1.75474
1.78214
1.80562
1.8264
1.84687
1.86785
1.88653
1.90121
1.91582
1.93049
1.9429
1.95343
1.96414
1.9746
1.98441
1.99304
2.00032
2.00661
2.01259
2.01768
2.02217
2.0255
2.02785
2.02875
2.02842
2.02808
2.02801
2.02851
2.02636
2.03452
0.199997
0.199997
0.199997
0.199996
0.199994
0.199992
0.199989
0.199984
0.199979
0.199972
0.199963
0.199952
0.199938
0.199923
0.199907
0.199891
0.19988
0.199873
0.199873
0.19988
0.199902
0.199941
0.200006
0.200104
0.20024
0.200425
0.200664
0.200965
0.201337
0.201784
0.202313
0.202925
0.203627
0.204415
0.205295
0.206257
0.207307
0.208435
0.209639
0.210892
0.212217
0.213614
0.215053
0.216459
0.21793
0.219502
0.221152
0.222805
0.22462
0.226602
0.228623
0.230801
0.234207
0.241115
0.26225
0.479028
1.04381
1.4262
1.54528
1.54916
1.49082
1.43389
1.37873
1.32848
1.28153
1.23826
1.20051
1.17084
1.14625
1.12564
1.11013
1.09992
1.09379
1.09321
1.09338
1.09888
1.11775
1.14365
1.17706
1.222
1.27899
1.35378
1.43886
1.52339
1.60618
1.66887
1.70937
1.73756
1.76053
1.78253
1.80453
1.82399
1.84257
1.86213
1.88113
1.89702
1.91039
1.92403
1.93628
1.94704
1.95824
1.96908
1.97882
1.98713
1.99424
2.0009
2.0073
2.01315
2.01776
2.02167
2.02441
2.02625
2.02641
2.02525
2.02488
2.02425
2.02433
2.02206
2.03003
0.199997
0.199997
0.199997
0.199996
0.199994
0.199992
0.199988
0.199984
0.199978
0.199971
0.199962
0.199951
0.199937
0.199921
0.199904
0.199886
0.199872
0.199862
0.199858
0.199861
0.199876
0.199908
0.199964
0.200049
0.200171
0.200337
0.200556
0.200834
0.201179
0.201596
0.202091
0.202669
0.203331
0.204081
0.204917
0.205841
0.206846
0.207937
0.209104
0.210332
0.21163
0.213011
0.214433
0.215833
0.217345
0.218931
0.220555
0.222259
0.22423
0.226334
0.228384
0.230737
0.23439
0.240809
0.257357
0.458305
1.02065
1.41662
1.53417
1.52277
1.44897
1.37949
1.31428
1.25871
1.21165
1.17219
1.14103
1.11782
1.10086
1.08938
1.08199
1.07875
1.0792
1.09034
1.10755
1.12983
1.16371
1.21045
1.27111
1.34879
1.43395
1.5169
1.59722
1.65957
1.69982
1.72821
1.74824
1.76384
1.77998
1.79829
1.81596
1.8337
1.85273
1.87161
1.88886
1.90327
1.91632
1.92871
1.9399
1.9511
1.96188
1.97176
1.9803
1.98763
1.99475
2.00135
2.00717
2.01244
2.01673
2.02018
2.02253
2.02378
2.02345
2.02196
2.02137
2.02011
2.01988
2.01763
2.02523
0.199997
0.199997
0.199997
0.199996
0.199994
0.199992
0.199988
0.199984
0.199978
0.19997
0.199961
0.199949
0.199935
0.199919
0.199901
0.199881
0.199863
0.199848
0.19984
0.199839
0.199846
0.19987
0.199913
0.199983
0.200087
0.200233
0.200427
0.200677
0.200989
0.20137
0.201824
0.202357
0.202971
0.203671
0.204454
0.205326
0.206278
0.207315
0.208429
0.209623
0.210883
0.212215
0.213602
0.215035
0.216555
0.218122
0.219745
0.221533
0.223593
0.225788
0.227908
0.230663
0.234861
0.241342
0.254451
0.427859
0.974273
1.38813
1.50153
1.46914
1.38455
1.304
1.23164
1.17825
1.14019
1.11258
1.09424
1.08042
1.06995
1.06911
1.07075
1.07679
1.09514
1.12274
1.16189
1.2081
1.26873
1.34645
1.43272
1.5163
1.59651
1.6591
1.69881
1.72375
1.74098
1.75453
1.76596
1.77739
1.79092
1.80538
1.82164
1.83951
1.85839
1.87693
1.89293
1.9066
1.91944
1.93131
1.94252
1.9532
1.96288
1.97176
1.97986
1.98716
1.9942
2.00057
2.00595
2.01076
2.01475
2.01785
2.0199
2.0207
2.02015
2.0185
2.0175
2.01567
2.01525
2.01311
2.02024
0.199997
0.199997
0.199997
0.199996
0.199994
0.199991
0.199988
0.199984
0.199978
0.19997
0.19996
0.199948
0.199933
0.199916
0.199896
0.199875
0.199854
0.199834
0.199819
0.19981
0.199811
0.199824
0.199853
0.199906
0.19999
0.200111
0.200276
0.200492
0.200765
0.201101
0.201507
0.201985
0.202542
0.203179
0.203899
0.204701
0.205589
0.206555
0.207604
0.208732
0.209937
0.211211
0.212551
0.213963
0.215448
0.216982
0.218635
0.220504
0.222597
0.22485
0.227131
0.230343
0.235039
0.243051
0.263994
0.404756
0.898717
1.3224
1.43303
1.3885
1.30442
1.22091
1.15664
1.11574
1.08914
1.07315
1.06594
1.06147
1.05694
1.07047
1.09075
1.11766
1.15488
1.20796
1.27926
1.35888
1.44228
1.52289
1.60266
1.66482
1.70523
1.7284
1.74201
1.75092
1.75835
1.76576
1.77459
1.78457
1.79514
1.80862
1.82468
1.84262
1.861
1.87883
1.89427
1.9081
1.92071
1.9321
1.9428
1.95275
1.96172
1.97037
1.97861
1.98594
1.99268
1.99871
2.0037
2.00814
2.01188
2.0148
2.01666
2.01723
2.01656
2.01471
2.01327
2.01103
2.01051
2.00852
2.01513
0.199997
0.199997
0.199997
0.199995
0.199994
0.199991
0.199988
0.199983
0.199977
0.199969
0.199959
0.199946
0.19993
0.199912
0.199891
0.199867
0.199843
0.199818
0.199795
0.199778
0.199769
0.19977
0.199784
0.199818
0.199878
0.199971
0.200102
0.200277
0.200505
0.200788
0.201136
0.20155
0.202038
0.202599
0.20324
0.203958
0.20476
0.205639
0.206602
0.207639
0.20876
0.20995
0.211221
0.212562
0.213987
0.215463
0.217095
0.21893
0.220978
0.223223
0.225665
0.229327
0.234297
0.244119
0.276159
0.391773
0.777127
1.17757
1.29155
1.26777
1.21111
1.15146
1.10765
1.07903
1.0668
1.05799
1.06333
1.06382
1.08129
1.11364
1.16713
1.22407
1.29487
1.37593
1.46151
1.54173
1.61876
1.67717
1.71519
1.73603
1.74746
1.75407
1.75848
1.76224
1.76618
1.77187
1.77928
1.78684
1.79707
1.81026
1.82615
1.84385
1.86193
1.87894
1.89361
1.90705
1.91921
1.9303
1.94071
1.95031
1.95928
1.96807
1.97645
1.98365
1.98991
1.99558
2.00046
2.00472
2.00838
2.01118
2.01294
2.01335
2.01255
2.01049
2.00874
2.0063
2.00575
2.00389
2.01004
0.199997
0.199997
0.199996
0.199995
0.199994
0.199991
0.199988
0.199983
0.199976
0.199968
0.199957
0.199944
0.199927
0.199908
0.199885
0.199859
0.19983
0.1998
0.199771
0.199743
0.199721
0.199707
0.199705
0.199717
0.19975
0.19981
0.199901
0.200031
0.200205
0.200429
0.200708
0.201048
0.201452
0.201926
0.202469
0.203088
0.203779
0.20455
0.205395
0.20632
0.20732
0.208395
0.209549
0.210776
0.212096
0.213454
0.214946
0.216642
0.21854
0.220568
0.223042
0.226667
0.231537
0.243745
0.277252
0.404229
0.685684
1.01122
1.12703
1.1411
1.11389
1.09167
1.08567
1.07123
1.07386
1.06984
1.09467
1.11786
1.17354
1.24078
1.32819
1.41388
1.49074
1.57217
1.64136
1.69261
1.72573
1.74545
1.75546
1.75935
1.76144
1.76329
1.76483
1.76689
1.77016
1.77534
1.78075
1.78818
1.79829
1.81114
1.82614
1.84296
1.86037
1.87698
1.89157
1.9048
1.91678
1.92772
1.93786
1.9472
1.95622
1.96509
1.97341
1.98028
1.98616
1.99172
1.99664
2.00078
2.00438
2.00708
2.00873
2.00901
2.00806
2.00596
2.00403
2.00154
2.001
1.99922
2.00497
0.199997
0.199997
0.199996
0.199995
0.199994
0.199991
0.199987
0.199982
0.199976
0.199967
0.199956
0.199942
0.199924
0.199903
0.199878
0.199849
0.199816
0.199781
0.199743
0.199705
0.199669
0.199636
0.199613
0.199602
0.199606
0.199628
0.199675
0.199753
0.199866
0.200021
0.200222
0.200475
0.200783
0.201151
0.201581
0.202078
0.20264
0.203274
0.203974
0.204751
0.205594
0.206514
0.207499
0.208559
0.209714
0.210883
0.21212
0.213528
0.215053
0.216728
0.219046
0.221629
0.226158
0.240295
0.282606
0.440255
0.668426
0.880255
0.976967
1.02342
1.04812
1.05177
1.0817
1.09066
1.12547
1.14646
1.202
1.27039
1.36282
1.45029
1.53686
1.6099
1.66573
1.70715
1.73425
1.75069
1.75982
1.7633
1.76455
1.76491
1.76492
1.76525
1.7663
1.76806
1.77194
1.77619
1.78154
1.78912
1.79902
1.81124
1.82585
1.84236
1.85927
1.87505
1.8888
1.90133
1.91288
1.92355
1.93344
1.94271
1.95191
1.96088
1.96897
1.97553
1.98139
1.98715
1.99215
1.9963
1.99986
2.00246
2.00402
2.00419
2.00319
2.00118
1.99916
1.99674
1.99621
1.9945
1.99986
0.199997
0.199997
0.199996
0.199995
0.199993
0.199991
0.199987
0.199982
0.199975
0.199966
0.199954
0.199939
0.19992
0.199897
0.19987
0.199837
0.1998
0.199758
0.199712
0.199663
0.199612
0.199561
0.199512
0.199472
0.199441
0.199422
0.199421
0.199442
0.199487
0.199563
0.199677
0.199831
0.200031
0.200277
0.200576
0.200927
0.201339
0.201806
0.202337
0.202924
0.203578
0.204293
0.205077
0.205891
0.206799
0.207704
0.208641
0.209617
0.210656
0.212038
0.213421
0.215458
0.220501
0.239536
0.298098
0.497768
0.692523
0.829843
0.908766
0.957554
1.0018
1.05549
1.11322
1.18011
1.25937
1.3356
1.41655
1.50014
1.58336
1.64788
1.69418
1.7214
1.73854
1.75056
1.75855
1.76201
1.76277
1.76221
1.76109
1.76111
1.76079
1.76157
1.76283
1.76602
1.77015
1.77453
1.78062
1.78831
1.79784
1.80941
1.82335
1.83908
1.8558
1.87156
1.8852
1.89765
1.90922
1.91975
1.92939
1.93852
1.9477
1.95638
1.96403
1.97041
1.97646
1.98235
1.98725
1.99135
1.99485
1.99736
1.99885
1.999
1.99802
1.99617
1.99413
1.99188
1.99135
1.98969
1.99458
0.199997
0.199997
0.199996
0.199995
0.199993
0.199991
0.199987
0.199981
0.199974
0.199964
0.199952
0.199936
0.199916
0.199891
0.199861
0.199824
0.199782
0.199733
0.199678
0.199616
0.199549
0.199478
0.199405
0.199331
0.19926
0.199195
0.199137
0.199093
0.199065
0.199059
0.199078
0.199122
0.199196
0.199304
0.199451
0.19964
0.199874
0.200153
0.200481
0.200856
0.20128
0.201745
0.202274
0.202811
0.203422
0.203978
0.20452
0.205081
0.205772
0.206406
0.207176
0.209286
0.216197
0.245324
0.331132
0.545724
0.730546
0.837551
0.906872
0.953673
1.01362
1.1138
1.245
1.3721
1.48534
1.57321
1.63582
1.68418
1.71468
1.73411
1.74489
1.75058
1.75362
1.75552
1.75396
1.75207
1.75114
1.75185
1.75302
1.75376
1.75515
1.75701
1.75938
1.76286
1.76703
1.77202
1.77835
1.786
1.79556
1.80731
1.82112
1.83632
1.85222
1.86713
1.88023
1.89234
1.90369
1.91406
1.92368
1.93295
1.94214
1.95052
1.95794
1.96466
1.97109
1.97691
1.98161
1.98576
1.98933
1.9919
1.99336
1.9935
1.99257
1.99093
1.98893
1.98692
1.98639
1.98472
1.98916
0.199997
0.199997
0.199996
0.199995
0.199993
0.19999
0.199986
0.199981
0.199973
0.199963
0.19995
0.199933
0.199911
0.199884
0.199851
0.199811
0.199762
0.199705
0.19964
0.199565
0.199481
0.199388
0.199287
0.199179
0.199066
0.198949
0.198831
0.198715
0.198606
0.198506
0.198415
0.198336
0.198272
0.198232
0.198218
0.198231
0.198267
0.198336
0.198431
0.198565
0.198722
0.198911
0.199139
0.199384
0.199657
0.199848
0.199976
0.200165
0.200336
0.200557
0.201203
0.203626
0.214431
0.255807
0.398576
0.612644
0.772632
0.874001
0.939578
1.00537
1.11493
1.27291
1.44446
1.59689
1.68695
1.72354
1.73731
1.74499
1.74993
1.75214
1.75253
1.74886
1.74597
1.74372
1.74157
1.74014
1.74057
1.74163
1.74405
1.74567
1.74825
1.75087
1.75385
1.75759
1.7621
1.76746
1.77382
1.78158
1.79113
1.8027
1.81627
1.83127
1.8469
1.86189
1.87522
1.88731
1.89854
1.90876
1.91831
1.92748
1.93632
1.94435
1.95183
1.95898
1.96552
1.9709
1.97541
1.97976
1.98355
1.9863
1.98756
1.98761
1.9868
1.98544
1.98359
1.98194
1.98137
1.97958
1.98358
0.199997
0.199997
0.199996
0.199995
0.199993
0.19999
0.199986
0.19998
0.199972
0.199962
0.199948
0.19993
0.199906
0.199877
0.19984
0.199795
0.199741
0.199676
0.199599
0.199509
0.199407
0.19929
0.199159
0.199015
0.198856
0.198685
0.198503
0.198312
0.198112
0.197909
0.197701
0.197491
0.197279
0.197075
0.196883
0.196697
0.196517
0.196353
0.196203
0.196071
0.195956
0.195834
0.19573
0.195659
0.195658
0.195492
0.19516
0.194821
0.19469
0.194656
0.195298
0.198605
0.213976
0.267056
0.457655
0.654452
0.816891
0.92533
1.00155
1.11351
1.27779
1.47222
1.64836
1.74618
1.7682
1.76838
1.76037
1.75524
1.75025
1.7453
1.74119
1.73751
1.73392
1.73073
1.72816
1.72679
1.72787
1.72909
1.73286
1.73573
1.73953
1.74296
1.74659
1.75074
1.75558
1.76127
1.76812
1.77641
1.78623
1.79776
1.81092
1.8253
1.84028
1.85507
1.86848
1.88053
1.8918
1.90214
1.91183
1.92089
1.92943
1.93743
1.9453
1.95282
1.95921
1.96422
1.96884
1.97355
1.97766
1.98043
1.98121
1.98122
1.98078
1.97976
1.97822
1.97693
1.9762
1.97422
1.97796
0.199997
0.199997
0.199996
0.199995
0.199993
0.19999
0.199985
0.199979
0.199971
0.19996
0.199945
0.199926
0.199901
0.199869
0.199829
0.199779
0.199718
0.199644
0.199555
0.19945
0.199327
0.199185
0.199023
0.198839
0.198633
0.198404
0.198154
0.197881
0.197587
0.197273
0.196944
0.196594
0.196232
0.195854
0.195477
0.195084
0.194692
0.194288
0.193882
0.193478
0.193109
0.192722
0.192304
0.191902
0.191586
0.191096
0.190448
0.189684
0.189303
0.189189
0.189872
0.196363
0.214323
0.311285
0.474676
0.709954
0.881225
0.997787
1.10745
1.27784
1.47677
1.66499
1.77096
1.79191
1.78321
1.76892
1.7567
1.74654
1.73916
1.73349
1.72868
1.7242
1.72036
1.71704
1.71481
1.71358
1.71468
1.71569
1.72046
1.72366
1.72809
1.73209
1.73646
1.74127
1.74692
1.75342
1.7609
1.76955
1.77952
1.79109
1.80425
1.81859
1.83353
1.84841
1.86197
1.8739
1.88511
1.89548
1.90518
1.91405
1.92237
1.93046
1.93865
1.9462
1.95226
1.95719
1.96219
1.96734
1.9715
1.97389
1.97428
1.97449
1.97461
1.97418
1.97293
1.97175
1.97079
1.96876
1.97228
0.199997
0.199997
0.199996
0.199995
0.199993
0.199989
0.199985
0.199979
0.19997
0.199958
0.199943
0.199922
0.199895
0.199861
0.199817
0.199762
0.199694
0.199611
0.199509
0.199388
0.199244
0.199076
0.19888
0.198655
0.1984
0.198113
0.197792
0.197437
0.197047
0.196625
0.196168
0.195681
0.195162
0.194619
0.19405
0.193454
0.192846
0.192224
0.191587
0.190916
0.190248
0.189618
0.188988
0.188293
0.187688
0.186846
0.185765
0.184633
0.183933
0.183652
0.184288
0.194124
0.212696
0.373616
0.5087
0.785414
0.967986
1.09995
1.27577
1.47328
1.66541
1.77914
1.80193
1.78983
1.77194
1.75695
1.74401
1.73359
1.72558
1.71941
1.71442
1.71009
1.7062
1.7027
1.70051
1.69904
1.69992
1.70077
1.70587
1.70951
1.71464
1.71934
1.72469
1.73031
1.73688
1.74417
1.75228
1.76126
1.7714
1.78304
1.7962
1.81052
1.82556
1.84052
1.85434
1.86634
1.8776
1.88802
1.89773
1.90653
1.91493
1.92325
1.93168
1.93903
1.94487
1.94998
1.95549
1.9608
1.96469
1.96655
1.96695
1.9676
1.96835
1.96876
1.9677
1.96622
1.96513
1.96319
1.96665
0.199997
0.199997
0.199996
0.199995
0.199992
0.199989
0.199984
0.199978
0.199969
0.199956
0.19994
0.199918
0.199889
0.199852
0.199804
0.199744
0.199669
0.199576
0.199462
0.199324
0.199159
0.198964
0.198735
0.19847
0.198165
0.197818
0.197428
0.196991
0.196507
0.195976
0.195398
0.194771
0.194102
0.193392
0.192639
0.191851
0.191024
0.190172
0.189331
0.188444
0.18751
0.186578
0.185708
0.184866
0.18413
0.183016
0.181528
0.180475
0.180069
0.180531
0.1835
0.200133
0.231756
0.430668
0.577272
0.892433
1.09286
1.26328
1.46494
1.65927
1.7816
1.80642
1.79296
1.77428
1.75777
1.743
1.73059
1.72036
1.71223
1.70566
1.7002
1.69575
1.69199
1.68866
1.68675
1.68475
1.68517
1.68567
1.69066
1.69396
1.69927
1.70395
1.71024
1.71688
1.72459
1.73284
1.74191
1.75171
1.76248
1.77443
1.78776
1.80216
1.8173
1.83223
1.84626
1.85845
1.8699
1.88031
1.89007
1.8989
1.90753
1.91604
1.92438
1.93136
1.93716
1.94267
1.94858
1.9536
1.95702
1.95863
1.95963
1.96077
1.96224
1.96319
1.96207
1.96037
1.95931
1.95762
1.96096
0.199996
0.199997
0.199996
0.199994
0.199992
0.199989
0.199984
0.199977
0.199967
0.199954
0.199937
0.199914
0.199883
0.199843
0.199791
0.199726
0.199643
0.19954
0.199413
0.199259
0.199073
0.198851
0.198589
0.198283
0.19793
0.197524
0.197065
0.196547
0.195971
0.195335
0.194637
0.193879
0.193067
0.192191
0.191263
0.190296
0.189276
0.1882
0.187123
0.186054
0.184917
0.183737
0.182581
0.181546
0.18056
0.179172
0.177348
0.175977
0.17515
0.174701
0.181118
0.191601
0.307006
0.42698
0.759805
1.0458
1.2389
1.45047
1.64903
1.77829
1.80516
1.79138
1.7723
1.75544
1.73991
1.72626
1.71476
1.70541
1.69776
1.69164
1.68657
1.68217
1.67868
1.67565
1.67381
1.67095
1.67034
1.67029
1.67487
1.67776
1.68307
1.68781
1.69447
1.70171
1.71022
1.71935
1.72943
1.74013
1.75158
1.76402
1.77771
1.79228
1.80768
1.8228
1.83718
1.84972
1.86147
1.87201
1.882
1.89101
1.89991
1.90842
1.91641
1.9231
1.92918
1.93504
1.94111
1.94577
1.9487
1.95055
1.95236
1.95416
1.95624
1.95716
1.95598
1.95423
1.95333
1.95198
1.95523
0.199996
0.199997
0.199996
0.199994
0.199992
0.199988
0.199983
0.199976
0.199966
0.199952
0.199934
0.199909
0.199876
0.199833
0.199778
0.199707
0.199617
0.199504
0.199364
0.199193
0.198986
0.198738
0.198444
0.198099
0.197697
0.197235
0.196709
0.196115
0.19545
0.194714
0.193902
0.193024
0.19207
0.191048
0.189953
0.188821
0.187619
0.186354
0.185041
0.183772
0.182464
0.181094
0.17978
0.178673
0.177272
0.175567
0.174017
0.17338
0.173485
0.175361
0.189265
0.204806
0.380345
0.559124
0.974764
1.22265
1.42844
1.63865
1.77356
1.80417
1.78826
1.76923
1.75156
1.73592
1.72226
1.7104
1.7
1.69126
1.68405
1.67804
1.67311
1.66889
1.66541
1.66281
1.66131
1.65826
1.65681
1.65601
1.65971
1.66196
1.667
1.6714
1.67793
1.68529
1.69423
1.70402
1.71481
1.72643
1.73881
1.75204
1.76629
1.78125
1.79704
1.81248
1.82729
1.84029
1.85239
1.86322
1.87362
1.88287
1.89189
1.90017
1.90781
1.91433
1.9208
1.92706
1.93312
1.93727
1.94007
1.94256
1.94501
1.94785
1.95006
1.95055
1.94947
1.94791
1.94726
1.94629
1.94931
0.199996
0.199996
0.199996
0.199994
0.199992
0.199988
0.199983
0.199975
0.199965
0.19995
0.199931
0.199905
0.19987
0.199824
0.199764
0.199688
0.19959
0.199468
0.199316
0.199129
0.198901
0.198628
0.198302
0.197919
0.197472
0.196956
0.196367
0.1957
0.194953
0.194123
0.193211
0.192214
0.191137
0.189978
0.188746
0.187441
0.186073
0.184652
0.183158
0.181647
0.180169
0.178623
0.177107
0.175822
0.174099
0.171906
0.170246
0.169492
0.169101
0.175041
0.182963
0.285614
0.408436
0.846523
1.20037
1.40473
1.62097
1.76168
1.79702
1.78187
1.76129
1.74378
1.72856
1.71574
1.70485
1.69526
1.68655
1.67865
1.67185
1.66609
1.66107
1.65678
1.65303
1.65033
1.64914
1.64642
1.64441
1.64303
1.64579
1.64716
1.65171
1.6553
1.66122
1.66838
1.67728
1.68739
1.69874
1.71124
1.7245
1.73852
1.7534
1.76889
1.78524
1.80113
1.8165
1.83005
1.84261
1.8538
1.8646
1.87412
1.88323
1.89133
1.89883
1.90535
1.91216
1.91869
1.9246
1.92843
1.93148
1.93463
1.93792
1.94132
1.94314
1.94352
1.94274
1.94144
1.94105
1.94046
1.94347
0.199996
0.199996
0.199996
0.199994
0.199991
0.199988
0.199982
0.199974
0.199963
0.199948
0.199928
0.1999
0.199863
0.199814
0.199751
0.199669
0.199564
0.199432
0.199268
0.199065
0.198818
0.19852
0.198165
0.197746
0.197256
0.19669
0.196043
0.19531
0.194487
0.193574
0.192567
0.191469
0.190279
0.189002
0.187642
0.186199
0.184691
0.183113
0.181477
0.179783
0.178104
0.176372
0.174708
0.172984
0.171012
0.168778
0.167361
0.166754
0.168591
0.17672
0.221104
0.325655
0.687881
1.14339
1.39286
1.60583
1.75226
1.79057
1.77597
1.75344
1.73526
1.71934
1.70628
1.69557
1.68655
1.67869
1.67159
1.66498
1.65884
1.65347
1.64868
1.64452
1.64098
1.63828
1.63693
1.63478
1.63248
1.63091
1.63299
1.63362
1.63742
1.6401
1.64481
1.65145
1.65994
1.67003
1.68168
1.69463
1.70872
1.72363
1.7392
1.7553
1.77229
1.7888
1.80491
1.81909
1.8322
1.8438
1.85491
1.86468
1.87399
1.88195
1.8895
1.89619
1.90334
1.90985
1.91536
1.91933
1.92328
1.92697
1.931
1.93401
1.93569
1.93619
1.93582
1.93481
1.93475
1.93461
1.93732
0.199996
0.199996
0.199995
0.199994
0.199991
0.199987
0.199982
0.199973
0.199962
0.199946
0.199925
0.199895
0.199856
0.199805
0.199737
0.19965
0.199539
0.199398
0.199222
0.199004
0.198738
0.198418
0.198034
0.197582
0.197053
0.196441
0.195742
0.194949
0.19406
0.193072
0.191985
0.190799
0.189515
0.188138
0.18667
0.185119
0.183489
0.181788
0.18003
0.178199
0.176335
0.174466
0.172808
0.170631
0.168008
0.165797
0.164651
0.164058
0.16917
0.179699
0.259045
0.5017
1.06046
1.3837
1.58513
1.7386
1.78094
1.77026
1.74424
1.72637
1.71002
1.69642
1.68533
1.67627
1.6686
1.66192
1.65576
1.64989
1.64435
1.63945
1.63506
1.6312
1.62793
1.62534
1.62379
1.62291
1.62047
1.61909
1.62065
1.6209
1.62369
1.62556
1.62886
1.63515
1.64265
1.65267
1.66402
1.67715
1.69182
1.70748
1.72384
1.74063
1.75814
1.77532
1.79228
1.80721
1.821
1.83306
1.84458
1.85465
1.86423
1.87221
1.87998
1.88692
1.89436
1.90067
1.90595
1.9103
1.91533
1.9195
1.92347
1.92601
1.92796
1.92866
1.9287
1.92809
1.92842
1.92853
1.93122
0.199996
0.199996
0.199995
0.199994
0.199991
0.199987
0.199981
0.199972
0.199961
0.199944
0.199921
0.199891
0.19985
0.199796
0.199724
0.199632
0.199514
0.199364
0.199177
0.198945
0.198662
0.19832
0.197912
0.197429
0.196865
0.196212
0.195466
0.194622
0.193675
0.192625
0.191469
0.190211
0.18885
0.187394
0.185841
0.184207
0.182483
0.1807
0.178835
0.17692
0.174924
0.172979
0.171038
0.168755
0.166224
0.164641
0.163803
0.166025
0.170134
0.217551
0.351817
0.908207
1.35229
1.57578
1.73158
1.77597
1.76698
1.73862
1.71991
1.70291
1.68869
1.677
1.66751
1.65951
1.65265
1.64649
1.64069
1.63528
1.63014
1.62546
1.62123
1.61749
1.61433
1.6118
1.61039
1.61034
1.60804
1.60682
1.60823
1.60829
1.60987
1.61116
1.61334
1.61962
1.62605
1.63552
1.6463
1.65927
1.67406
1.69039
1.70743
1.72496
1.74303
1.76086
1.77868
1.79451
1.80914
1.82174
1.83375
1.8441
1.85399
1.86223
1.87041
1.87759
1.88508
1.89121
1.89657
1.90159
1.90737
1.91148
1.91525
1.91781
1.92004
1.92093
1.92144
1.9212
1.92184
1.92235
1.92448
0.199996
0.199996
0.199995
0.199994
0.199991
0.199987
0.19998
0.199972
0.199959
0.199942
0.199918
0.199886
0.199843
0.199786
0.199712
0.199614
0.19949
0.199332
0.199135
0.19889
0.198591
0.19823
0.197798
0.197288
0.196693
0.196005
0.195218
0.194329
0.193334
0.192232
0.191021
0.189705
0.188284
0.186768
0.185154
0.183461
0.181679
0.179828
0.177891
0.175901
0.173863
0.172026
0.169677
0.166849
0.164367
0.163046
0.162882
0.16569
0.193769
0.259647
0.721964
1.27507
1.55878
1.71961
1.76938
1.75904
1.73078
1.71124
1.69382
1.67963
1.66783
1.65815
1.65004
1.64314
1.637
1.63145
1.62617
1.62109
1.61636
1.6119
1.60765
1.60385
1.60078
1.59831
1.59689
1.59701
1.5954
1.59438
1.59529
1.5952
1.59557
1.59681
1.59837
1.60463
1.61015
1.61856
1.62864
1.64129
1.65589
1.67247
1.69021
1.70848
1.72718
1.74568
1.76421
1.78095
1.7965
1.80974
1.82235
1.83306
1.84334
1.85193
1.8606
1.86807
1.87551
1.88167
1.88752
1.89313
1.89879
1.90276
1.90668
1.9094
1.91186
1.91304
1.91392
1.91406
1.91504
1.91584
1.91766
0.199996
0.199996
0.199995
0.199993
0.199991
0.199986
0.19998
0.199971
0.199958
0.19994
0.199915
0.199882
0.199837
0.199778
0.199699
0.199598
0.199467
0.199302
0.199095
0.198839
0.198525
0.198146
0.197694
0.19716
0.196537
0.195818
0.194998
0.194072
0.193036
0.191892
0.190637
0.189276
0.187811
0.186251
0.184598
0.182866
0.181055
0.179176
0.177219
0.175237
0.173237
0.171282
0.168996
0.166563
0.165077
0.164383
0.166162
0.175717
0.219168
0.539872
1.14136
1.52403
1.70239
1.75851
1.74829
1.71992
1.69963
1.68205
1.66778
1.65613
1.6465
1.63831
1.63136
1.62539
1.62005
1.6152
1.61067
1.60589
1.6017
1.59779
1.59376
1.59
1.58718
1.58493
1.58349
1.58309
1.58216
1.58153
1.58144
1.58157
1.58128
1.58265
1.58373
1.58971
1.59431
1.60181
1.61112
1.62328
1.63756
1.65393
1.67203
1.69096
1.7103
1.72956
1.74897
1.7666
1.78307
1.79708
1.81042
1.82165
1.83246
1.84154
1.85065
1.85845
1.86594
1.87219
1.87851
1.88415
1.88963
1.89366
1.89792
1.9008
1.90361
1.905
1.90614
1.9066
1.90795
1.90896
1.91006
0.199996
0.199996
0.199995
0.199993
0.19999
0.199986
0.199979
0.19997
0.199956
0.199938
0.199913
0.199878
0.199831
0.199769
0.199688
0.199582
0.199446
0.199274
0.199058
0.198791
0.198465
0.19807
0.1976
0.197045
0.196399
0.195653
0.194804
0.193846
0.192778
0.191599
0.19031