/*--------------------------------*- C++ -*----------------------------------*\
| =========                 |                                                 |
| \\      /  F ield         | OpenFOAM: The Open Source CFD Toolbox           |
|  \\    /   O peration     | Version:  2.2.x                                 |
|   \\  /    A nd           | Web:      www.OpenFOAM.org                      |
|    \\/     M anipulation  |                                                 |
\*---------------------------------------------------------------------------*/
FoamFile
{
    version     2.0;
    format      ascii;
    class       volScalarField;
    location    "0.6";
    object      rho;
}
// * * * * * * * * * * * * * * * * * * * * * * * * * * * * * * * * * * * * * //

dimensions      [1 -3 0 0 0 0 0];

internalField   nonuniform List<scalar> 
14161
(
0.999998
0.999998
0.999997
0.999997
0.999996
0.999994
0.999991
0.999988
0.999984
0.999979
0.999972
0.999964
0.999954
0.999942
0.999931
0.999924
0.999922
0.999923
0.99993
0.999946
0.999976
1.00003
1.0001
1.00021
1.00035
1.00054
1.00078
1.00107
1.00143
1.00187
1.00237
1.00295
1.00361
1.00434
1.00516
1.00604
1.007
1.00801
1.00908
1.0102
1.01135
1.01254
1.01375
1.01496
1.01615
1.01741
1.01874
1.0201
1.02147
1.02293
1.02452
1.02647
1.03017
1.04294
1.10004
1.4384
2.09022
2.51428
2.62459
2.64688
2.63881
2.61551
2.58795
2.56057
2.5338
2.50688
2.47956
2.45374
2.43058
2.40918
2.38682
2.36467
2.34432
2.32489
2.30514
2.28557
2.26762
2.25138
2.23619
2.22291
2.20433
2.18328
2.16661
2.15617
2.15153
2.1541
2.16349
2.17948
2.20969
2.26062
2.33457
2.43255
2.55875
2.69768
2.81494
2.89467
2.9466
2.98702
3.01592
3.03803
3.05756
3.0741
3.08854
3.10164
3.11115
3.11759
3.12305
3.12729
3.12962
3.13077
3.13251
3.13427
3.13519
3.1357
3.13507
3.13375
3.13188
3.13002
3.13268
0.999998
0.999998
0.999997
0.999997
0.999996
0.999994
0.999991
0.999988
0.999984
0.999979
0.999972
0.999964
0.999954
0.999942
0.99993
0.999924
0.999921
0.999923
0.999929
0.999945
0.999975
1.00002
1.0001
1.0002
1.00035
1.00053
1.00077
1.00107
1.00143
1.00186
1.00236
1.00294
1.0036
1.00433
1.00515
1.00603
1.00698
1.008
1.00907
1.01018
1.01134
1.01253
1.01374
1.01493
1.01614
1.01741
1.01874
1.02007
1.02146
1.02295
1.02453
1.02647
1.03015
1.04287
1.09983
1.4382
2.08977
2.51397
2.62454
2.64642
2.63762
2.61335
2.5844
2.55582
2.52892
2.50232
2.4755
2.44914
2.42474
2.40198
2.379
2.35706
2.33665
2.31812
2.29887
2.27875
2.25997
2.24267
2.22641
2.21227
2.19682
2.18137
2.16981
2.16265
2.15953
2.16339
2.17739
2.20335
2.24671
2.31219
2.39905
2.50437
2.62284
2.73761
2.83327
2.9009
2.94791
2.98522
3.01349
3.03576
3.05545
3.07214
3.0869
3.1004
3.11035
3.11712
3.12274
3.12718
3.12982
3.13121
3.13316
3.13498
3.13584
3.13615
3.13529
3.13409
3.1321
3.12981
3.13399
0.999998
0.999998
0.999997
0.999997
0.999996
0.999994
0.999991
0.999988
0.999984
0.999979
0.999972
0.999964
0.999954
0.999942
0.99993
0.999923
0.999921
0.999922
0.999928
0.999943
0.999973
1.00002
1.00009
1.0002
1.00034
1.00053
1.00076
1.00106
1.00142
1.00184
1.00234
1.00292
1.00358
1.00431
1.00512
1.006
1.00695
1.00796
1.00903
1.01014
1.0113
1.01249
1.0137
1.01489
1.01612
1.0174
1.0187
1.02003
1.02147
1.02298
1.02456
1.02649
1.03023
1.0432
1.10104
1.4412
2.09315
2.51561
2.62486
2.64552
2.6354
2.61003
2.57967
2.54966
2.52218
2.49588
2.4699
2.4438
2.41838
2.39406
2.36967
2.34586
2.32351
2.30326
2.28427
2.26464
2.24489
2.22699
2.21091
2.19825
2.18888
2.18217
2.17811
2.17676
2.17981
2.19042
2.2134
2.25282
2.31302
2.39445
2.49405
2.60074
2.69361
2.76781
2.83377
2.89098
2.93717
2.97416
3.00263
3.02642
3.04729
3.06478
3.08044
3.09458
3.10517
3.11266
3.11872
3.12337
3.12624
3.12797
3.13025
3.13247
3.13386
3.13467
3.13405
3.13251
3.13082
3.12833
3.13344
0.999998
0.999998
0.999997
0.999997
0.999996
0.999994
0.999991
0.999988
0.999984
0.999979
0.999972
0.999964
0.999954
0.999942
0.99993
0.999922
0.999919
0.999919
0.999925
0.99994
0.999969
1.00002
1.00009
1.00019
1.00033
1.00051
1.00074
1.00103
1.00139
1.00181
1.00231
1.00288
1.00353
1.00425
1.00506
1.00593
1.00688
1.00789
1.00896
1.01006
1.01122
1.01241
1.0136
1.01482
1.01607
1.01734
1.01862
1.02001
1.02149
1.02299
1.02457
1.02658
1.03053
1.04408
1.10382
1.44738
2.09998
2.51837
2.62365
2.64161
2.62857
2.60095
2.56821
2.53493
2.50413
2.47603
2.449
2.42215
2.39587
2.37006
2.34472
2.32023
2.29653
2.27446
2.25438
2.23582
2.2203
2.20741
2.19727
2.18995
2.18666
2.18678
2.19136
2.20131
2.21745
2.24481
2.28949
2.35602
2.44833
2.54906
2.64152
2.72172
2.78102
2.82386
2.86235
2.90229
2.94
2.96972
2.99269
3.01453
3.03579
3.05494
3.07215
3.08728
3.09852
3.10662
3.11308
3.11804
3.12124
3.12385
3.12684
3.12949
3.13131
3.13217
3.13161
3.13027
3.12915
3.1262
3.13264
0.999998
0.999998
0.999997
0.999997
0.999996
0.999994
0.999991
0.999988
0.999984
0.999978
0.999972
0.999963
0.999953
0.999941
0.999929
0.99992
0.999916
0.999916
0.99992
0.999935
0.999962
1.00001
1.00007
1.00017
1.00031
1.00049
1.00071
1.001
1.00135
1.00176
1.00225
1.00281
1.00345
1.00416
1.00496
1.00582
1.00676
1.00776
1.00882
1.00993
1.01108
1.01226
1.01346
1.01471
1.01596
1.01719
1.01852
1.01998
1.02148
1.02294
1.02456
1.02672
1.03093
1.0452
1.10746
1.45545
2.10885
2.5228
2.62122
2.6341
2.61581
2.58413
2.54816
2.51158
2.47769
2.44711
2.41773
2.38843
2.35984
2.33198
2.30486
2.27875
2.25456
2.23396
2.21775
2.20633
2.20075
2.19659
2.19344
2.19194
2.19357
2.20228
2.21999
2.24725
2.28543
2.33945
2.41599
2.51269
2.61155
2.68924
2.75232
2.80112
2.8386
2.86906
2.89467
2.92033
2.94501
2.96628
2.98496
3.00445
3.0243
3.04299
3.06021
3.07541
3.08758
3.09718
3.10476
3.11064
3.11491
3.11831
3.12196
3.12548
3.12759
3.12868
3.12817
3.12736
3.12697
3.12349
3.13112
0.999998
0.999998
0.999997
0.999997
0.999995
0.999994
0.999991
0.999988
0.999984
0.999978
0.999971
0.999963
0.999952
0.999941
0.999928
0.999917
0.999912
0.999911
0.999915
0.999927
0.999951
0.999993
1.00006
1.00015
1.00028
1.00045
1.00067
1.00095
1.00128
1.00169
1.00216
1.00271
1.00333
1.00403
1.00481
1.00566
1.00658
1.00757
1.00862
1.00973
1.01087
1.01203
1.01326
1.01452
1.01574
1.01699
1.01839
1.01988
1.02134
1.02284
1.02457
1.02685
1.03123
1.04593
1.10967
1.46116
2.1161
2.52844
2.61987
2.62622
2.60139
2.56505
2.52501
2.48486
2.44717
2.41229
2.37812
2.34347
2.30997
2.28035
2.25414
2.23155
2.21383
2.20188
2.19546
2.19345
2.1959
2.1989
2.20182
2.20707
2.21903
2.24176
2.27909
2.33236
2.40282
2.49226
2.58903
2.67436
2.73796
2.78328
2.82053
2.85203
2.87879
2.90211
2.92239
2.9397
2.95319
2.96684
2.98325
3.00049
3.01664
3.03265
3.0484
3.06298
3.07597
3.08681
3.0952
3.10183
3.10663
3.11147
3.11656
3.12057
3.12309
3.12424
3.12407
3.12395
3.12412
3.12039
3.12881
0.999998
0.999998
0.999997
0.999997
0.999995
0.999994
0.999991
0.999988
0.999983
0.999978
0.999971
0.999962
0.999952
0.99994
0.999927
0.999914
0.999907
0.999904
0.999907
0.999916
0.999938
0.999975
1.00003
1.00012
1.00024
1.0004
1.00061
1.00088
1.0012
1.00158
1.00204
1.00257
1.00318
1.00386
1.00461
1.00545
1.00635
1.00731
1.00834
1.00943
1.01056
1.01174
1.01296
1.0142
1.01544
1.01674
1.01816
1.0196
1.02109
1.02273
1.02457
1.02691
1.03134
1.04618
1.11034
1.46303
2.11913
2.53005
2.61683
2.61548
2.58137
2.53775
2.49064
2.44434
2.40088
2.36077
2.32455
2.2901
2.25909
2.23437
2.21632
2.20398
2.19659
2.19235
2.19049
2.19312
2.20159
2.2141
2.23069
2.25196
2.28203
2.32755
2.39316
2.47854
2.57243
2.65981
2.72581
2.7718
2.80521
2.83378
2.85989
2.88316
2.9044
2.92351
2.93986
2.95217
2.96141
2.97171
2.98493
2.99791
3.01082
3.02536
3.03983
3.0529
3.0645
3.07443
3.08282
3.09036
3.09717
3.10388
3.10999
3.11474
3.11783
3.119
3.11962
3.12009
3.12067
3.11685
3.12572
0.999998
0.999998
0.999997
0.999997
0.999995
0.999994
0.999991
0.999988
0.999983
0.999977
0.99997
0.999961
0.999951
0.999939
0.999925
0.999911
0.9999
0.999896
0.999897
0.999903
0.999921
0.999953
1.00001
1.00008
1.0002
1.00034
1.00054
1.00079
1.00109
1.00146
1.00189
1.0024
1.00298
1.00363
1.00436
1.00516
1.00604
1.00698
1.00798
1.00904
1.01017
1.01135
1.01254
1.01375
1.01505
1.01641
1.01775
1.01917
1.02079
1.02257
1.02445
1.02678
1.03122
1.04575
1.1081
1.45868
2.11566
2.52373
2.60859
2.59994
2.55416
2.49871
2.44409
2.39395
2.34783
2.30786
2.27608
2.24982
2.22778
2.21167
2.20115
2.19593
2.19651
2.19769
2.20053
2.20938
2.2294
2.25942
2.29737
2.34431
2.40512
2.48474
2.57456
2.66077
2.72859
2.77495
2.80372
2.82527
2.84515
2.86543
2.88501
2.90322
2.92068
2.93692
2.95009
2.96001
2.96847
2.97757
2.98687
2.99646
3.00851
3.0218
3.03363
3.04391
3.05324
3.0621
3.0707
3.07904
3.08718
3.09529
3.10258
3.10815
3.11186
3.11345
3.11501
3.11569
3.11657
3.11295
3.12197
0.999998
0.999998
0.999997
0.999997
0.999995
0.999993
0.999991
0.999987
0.999983
0.999977
0.99997
0.999961
0.99995
0.999937
0.999923
0.999908
0.999894
0.999886
0.999884
0.999887
0.9999
0.999926
0.99997
1.00004
1.00014
1.00027
1.00045
1.00068
1.00096
1.0013
1.00171
1.00218
1.00273
1.00335
1.00404
1.0048
1.00564
1.00655
1.00752
1.00855
1.00965
1.01082
1.01198
1.0132
1.01452
1.01586
1.01717
1.01867
1.02042
1.02222
1.0241
1.02654
1.03109
1.04483
1.10236
1.44426
2.10177
2.51455
2.59187
2.57389
2.51394
2.44812
2.39009
2.34116
2.30225
2.2701
2.24502
2.22715
2.21562
2.20807
2.20416
2.20275
2.20752
2.21975
2.23833
2.265
2.30291
2.35436
2.4227
2.50719
2.59843
2.68327
2.74812
2.79374
2.82052
2.83625
2.84803
2.85943
2.87236
2.88687
2.90159
2.9165
2.93167
2.94527
2.95675
2.96602
2.97446
2.9825
2.98981
2.99849
3.00888
3.01911
3.02809
3.0363
3.04441
3.05242
3.06029
3.06836
3.07698
3.08599
3.09453
3.10086
3.10546
3.10798
3.11014
3.11068
3.11193
3.10871
3.11768
0.999998
0.999998
0.999997
0.999996
0.999995
0.999993
0.999991
0.999987
0.999983
0.999977
0.999969
0.99996
0.999948
0.999935
0.99992
0.999904
0.999888
0.999875
0.999868
0.999868
0.999875
0.999893
0.999927
0.999983
1.00007
1.00019
1.00034
1.00055
1.0008
1.00111
1.00148
1.00192
1.00242
1.003
1.00365
1.00437
1.00515
1.00602
1.00695
1.00794
1.009
1.01012
1.01128
1.0125
1.01379
1.01507
1.01643
1.01801
1.0198
1.02161
1.02358
1.02632
1.03122
1.04444
1.09613
1.41071
2.05462
2.48602
2.56026
2.53294
2.46975
2.40031
2.34068
2.29596
2.26461
2.24541
2.23077
2.22024
2.2171
2.21768
2.21976
2.22876
2.24924
2.28182
2.3239
2.3748
2.44351
2.53012
2.62525
2.71266
2.77964
2.82494
2.84991
2.86205
2.86853
2.87331
2.87802
2.8846
2.89276
2.90232
2.91397
2.92677
2.93956
2.95124
2.96155
2.97094
2.97968
2.98754
2.99479
3.00234
3.00971
3.01679
3.02367
3.03028
3.03725
3.04452
3.05173
3.05926
3.06767
3.07673
3.08607
3.09336
3.09903
3.10252
3.10501
3.10526
3.10689
3.10424
3.11301
0.999998
0.999998
0.999997
0.999996
0.999995
0.999993
0.999991
0.999987
0.999982
0.999976
0.999968
0.999958
0.999946
0.999932
0.999916
0.999899
0.999881
0.999863
0.99985
0.999844
0.999845
0.999854
0.999877
0.99992
0.999988
1.00009
1.00022
1.00039
1.00061
1.00089
1.00121
1.00161
1.00206
1.00258
1.00317
1.00384
1.00457
1.00537
1.00624
1.00718
1.00819
1.00925
1.01037
1.01156
1.0128
1.01406
1.01546
1.01705
1.01882
1.02066
1.02283
1.02594
1.0315
1.0462
1.09765
1.35424
1.9539
2.42397
2.51649
2.49052
2.4353
2.36832
2.30949
2.26866
2.24317
2.23347
2.228
2.22281
2.2281
2.24509
2.26872
2.29679
2.33679
2.39647
2.47665
2.56622
2.65791
2.74333
2.81037
2.85578
2.87961
2.8898
2.89375
2.89513
2.8959
2.89748
2.90034
2.90359
2.9079
2.91522
2.92515
2.93604
2.94668
2.95702
2.96682
2.9763
2.98473
2.9918
2.99804
3.00391
3.00929
3.01459
3.02021
3.02561
3.03133
3.03768
3.04427
3.05122
3.0592
3.06796
3.07767
3.08593
3.09264
3.09686
3.09954
3.09959
3.10164
3.0996
3.10806
0.999998
0.999997
0.999997
0.999996
0.999995
0.999993
0.99999
0.999987
0.999982
0.999975
0.999967
0.999957
0.999944
0.999929
0.999912
0.999893
0.999873
0.999851
0.999831
0.999816
0.999809
0.99981
0.999821
0.999847
0.999895
0.999968
1.00007
1.00021
1.00039
1.00062
1.0009
1.00124
1.00164
1.00209
1.00262
1.00321
1.00387
1.0046
1.00539
1.00625
1.00718
1.00816
1.00922
1.01035
1.01153
1.01275
1.01412
1.01564
1.01734
1.01922
1.02157
1.02496
1.03129
1.04862
1.10583
1.30855
1.83892
2.32888
2.45159
2.43976
2.40453
2.35253
2.29996
2.26434
2.24411
2.24204
2.24698
2.25357
2.26979
2.30782
2.3641
2.43075
2.50753
2.59701
2.69077
2.77185
2.83252
2.87688
2.90012
2.90876
2.91126
2.91154
2.91105
2.91054
2.91114
2.91268
2.91417
2.91568
2.91952
2.92621
2.93498
2.94447
2.9536
2.96251
2.97139
2.98042
2.98835
2.99484
3.00031
3.00495
3.00916
3.01355
3.0182
3.02237
3.02674
3.03196
3.03794
3.04426
3.05168
3.05992
3.06977
3.0787
3.08618
3.09094
3.09386
3.09392
3.09632
3.09482
3.10293
0.999998
0.999997
0.999997
0.999996
0.999995
0.999993
0.99999
0.999986
0.999981
0.999974
0.999966
0.999955
0.999942
0.999926
0.999907
0.999886
0.999863
0.999838
0.999812
0.999786
0.999767
0.999756
0.999755
0.999763
0.999788
0.999833
0.999904
1.00001
1.00014
1.00032
1.00055
1.00082
1.00115
1.00153
1.00197
1.00248
1.00304
1.00367
1.00437
1.00513
1.00595
1.00684
1.0078
1.00882
1.00991
1.01103
1.01227
1.01367
1.01522
1.01702
1.01934
1.02282
1.03
1.05025
1.11714
1.31803
1.76533
2.16278
2.31147
2.33326
2.32133
2.30551
2.28587
2.2748
2.2685
2.27489
2.29699
2.32763
2.37537
2.44997
2.54714
2.63778
2.71808
2.78677
2.84206
2.88138
2.9027
2.91311
2.91621
2.9161
2.91587
2.9157
2.91578
2.91616
2.91772
2.91925
2.92043
2.92305
2.92776
2.93417
2.94189
2.95063
2.95972
2.96849
2.97692
2.98493
2.99176
2.99735
3.00191
3.00563
3.00913
3.01282
3.01654
3.01964
3.02291
3.02715
3.03238
3.03788
3.0447
3.05242
3.06223
3.07156
3.07959
3.08486
3.08813
3.08842
3.09103
3.08991
3.09768
0.999997
0.999997
0.999997
0.999996
0.999995
0.999993
0.99999
0.999986
0.999981
0.999974
0.999965
0.999953
0.999939
0.999922
0.999901
0.999878
0.999851
0.999822
0.999791
0.999757
0.999724
0.999696
0.999676
0.999667
0.999668
0.999682
0.999716
0.999774
0.999861
0.999982
1.00014
1.00034
1.00059
1.00088
1.00123
1.00163
1.00208
1.0026
1.00317
1.0038
1.0045
1.00525
1.00606
1.00695
1.0079
1.00883
1.00986
1.01103
1.01235
1.01391
1.01597
1.01935
1.02769
1.05336
1.13842
1.37291
1.74216
2.00868
2.14416
2.19603
2.22404
2.25269
2.27753
2.30297
2.32687
2.35532
2.41052
2.48373
2.57064
2.66202
2.73961
2.79382
2.83789
2.86798
2.88813
2.90223
2.91
2.91358
2.91487
2.91511
2.91484
2.91479
2.91487
2.91613
2.91794
2.91974
2.92215
2.92612
2.93144
2.93788
2.94549
2.95415
2.9633
2.9721
2.98018
2.98748
2.99377
2.99884
3.00289
3.00625
3.00953
3.01282
3.01567
3.01772
3.02008
3.02357
3.02783
3.03233
3.03845
3.04557
3.05509
3.06461
3.07305
3.07878
3.0824
3.083
3.08577
3.0849
3.09231
0.999997
0.999997
0.999997
0.999996
0.999995
0.999993
0.99999
0.999986
0.99998
0.999973
0.999963
0.999951
0.999936
0.999917
0.999895
0.999868
0.999838
0.999803
0.999766
0.999724
0.99968
0.999635
0.999592
0.999555
0.999527
0.99951
0.999506
0.999516
0.999545
0.999601
0.999687
0.999804
0.999957
1.00015
1.00038
1.00066
1.00099
1.00136
1.00179
1.00227
1.0028
1.00339
1.00402
1.0047
1.00545
1.00616
1.00691
1.00777
1.00876
1.00996
1.01166
1.01525
1.0262
1.06182
1.17887
1.46419
1.77698
1.94788
2.04727
2.10925
2.16995
2.23687
2.30784
2.38888
2.46844
2.53885
2.61423
2.69005
2.75304
2.80102
2.8299
2.84645
2.86193
2.87581
2.88738
2.89568
2.90007
2.90213
2.90433
2.90662
2.9085
2.90993
2.91218
2.91497
2.9173
2.91944
2.92276
2.92701
2.93225
2.93867
2.9466
2.95575
2.96575
2.97478
2.98233
2.98891
2.99465
2.99921
3.00282
3.00594
3.00914
3.01203
3.01416
3.01556
3.01739
3.02024
3.02348
3.02707
3.03258
3.03915
3.04825
3.05783
3.06662
3.07267
3.07661
3.07762
3.08051
3.0798
3.08678
0.999997
0.999997
0.999997
0.999996
0.999995
0.999992
0.999989
0.999985
0.999979
0.999972
0.999962
0.999949
0.999932
0.999912
0.999887
0.999858
0.999823
0.999782
0.999737
0.999686
0.99963
0.999569
0.999506
0.99944
0.999376
0.999318
0.999265
0.999223
0.999194
0.999183
0.999189
0.99921
0.999256
0.99933
0.999437
0.99958
0.99976
0.999978
1.00024
1.00053
1.00087
1.00124
1.00166
1.00212
1.0026
1.00302
1.00348
1.00399
1.00458
1.00534
1.0068
1.01118
1.02671
1.07935
1.25124
1.56853
1.8191
1.94082
2.02483
2.09334
2.17466
2.28537
2.43212
2.57703
2.67322
2.73134
2.77359
2.80457
2.82294
2.83449
2.84258
2.84821
2.85604
2.86429
2.87156
2.87758
2.8825
2.88675
2.89107
2.89495
2.89891
2.9028
2.90739
2.91158
2.91482
2.91801
2.92174
2.92598
2.93127
2.93786
2.94599
2.95535
2.96546
2.97444
2.98202
2.98854
2.99419
2.99871
3.00233
3.00551
3.00856
3.01093
3.01254
3.01388
3.0155
3.01752
3.01951
3.02226
3.02725
3.03331
3.04187
3.05134
3.06029
3.06649
3.07069
3.0722
3.0752
3.07454
3.08107
0.999997
0.999997
0.999997
0.999996
0.999995
0.999992
0.999989
0.999985
0.999979
0.99997
0.99996
0.999946
0.999929
0.999907
0.99988
0.999846
0.999807
0.99976
0.999705
0.999643
0.999573
0.999495
0.99941
0.999317
0.999218
0.999116
0.999012
0.998911
0.998812
0.998718
0.99863
0.998549
0.998481
0.998432
0.998407
0.998404
0.998417
0.998452
0.998515
0.998604
0.998713
0.998851
0.999019
0.999234
0.999426
0.999523
0.999629
0.999779
0.999996
1.00046
1.00201
1.00793
1.02989
1.10651
1.33393
1.65172
1.85121
1.95726
2.04076
2.13232
2.25699
2.43652
2.62728
2.74879
2.79977
2.81775
2.82284
2.82704
2.82985
2.83264
2.83455
2.83634
2.83972
2.84392
2.84866
2.8545
2.86111
2.8679
2.87418
2.88019
2.88655
2.89303
2.89946
2.905
2.90963
2.91401
2.91844
2.9232
2.92885
2.93573
2.9442
2.95397
2.96433
2.97351
2.98117
2.98761
2.99318
2.99766
3.00134
3.00453
3.00727
3.00921
3.01066
3.01207
3.0134
3.01445
3.01543
3.01773
3.02233
3.0279
3.03578
3.04492
3.05389
3.06019
3.06466
3.06673
3.06979
3.06908
3.07515
0.999997
0.999997
0.999997
0.999996
0.999994
0.999992
0.999989
0.999984
0.999978
0.999969
0.999958
0.999943
0.999925
0.999901
0.999871
0.999834
0.999789
0.999735
0.999672
0.999597
0.999512
0.999414
0.999304
0.999182
0.999047
0.9989
0.998742
0.998576
0.998402
0.998221
0.998034
0.997842
0.997651
0.997466
0.997285
0.997108
0.996939
0.99678
0.996636
0.996507
0.996379
0.99624
0.99614
0.996087
0.996042
0.995805
0.995475
0.995282
0.995298
0.995698
0.997752
1.00622
1.03662
1.14136
1.41132
1.71997
1.89684
2.00826
2.11796
2.25225
2.44657
2.65747
2.79162
2.83521
2.84121
2.83523
2.82739
2.82339
2.82024
2.81856
2.81777
2.8179
2.81882
2.82067
2.8236
2.82928
2.83659
2.8453
2.85394
2.86244
2.8712
2.87968
2.88783
2.89495
2.90113
2.90687
2.91257
2.91847
2.92493
2.93233
2.94106
2.95114
2.96183
2.97143
2.97922
2.98567
2.99136
2.99608
2.99997
3.0031
3.00549
3.00728
3.00886
3.01021
3.01094
3.01113
3.01159
3.01377
3.018
3.02291
3.02979
3.03838
3.04746
3.05389
3.05866
3.06119
3.06417
3.0633
3.06904
0.999997
0.999997
0.999997
0.999996
0.999994
0.999992
0.999988
0.999983
0.999977
0.999968
0.999956
0.99994
0.99992
0.999894
0.999862
0.999821
0.99977
0.999709
0.999636
0.999548
0.999446
0.999327
0.999191
0.999036
0.998861
0.998667
0.998452
0.998218
0.997964
0.997693
0.997403
0.997097
0.996775
0.996446
0.996107
0.995756
0.9954
0.995037
0.994675
0.994326
0.993993
0.993617
0.993229
0.992893
0.992594
0.992084
0.991357
0.990835
0.990763
0.991261
0.994344
1.00655
1.05295
1.18913
1.48261
1.788
1.96348
2.10567
2.25914
2.46979
2.69183
2.82992
2.87072
2.86818
2.8533
2.83544
2.82271
2.8131
2.80551
2.80032
2.79725
2.79604
2.79588
2.79679
2.79882
2.80388
2.8107
2.81982
2.83029
2.84088
2.85148
2.86161
2.87177
2.88097
2.88928
2.89681
2.90409
2.91138
2.91891
2.92716
2.93657
2.94726
2.95849
2.96842
2.9764
2.98291
2.98878
2.99379
2.9979
3.001
3.00319
3.00497
3.00661
3.00772
3.00787
3.00764
3.00801
3.01021
3.01397
3.0179
3.02356
3.03174
3.04116
3.04785
3.05279
3.05547
3.05824
3.05728
3.06275
0.999997
0.999997
0.999997
0.999996
0.999994
0.999992
0.999988
0.999983
0.999976
0.999966
0.999954
0.999937
0.999915
0.999887
0.999852
0.999807
0.999751
0.999682
0.999598
0.999497
0.999377
0.999236
0.999072
0.998883
0.998668
0.998424
0.998151
0.997847
0.997514
0.997151
0.996758
0.996336
0.995888
0.995416
0.994919
0.994402
0.99387
0.99332
0.992747
0.992164
0.99161
0.991063
0.990471
0.989864
0.989289
0.988427
0.987344
0.986668
0.98662
0.987443
0.992312
1.00994
1.07986
1.24726
1.55332
1.85939
2.05758
2.25025
2.47909
2.70785
2.84923
2.8926
2.88951
2.87263
2.85189
2.8336
2.81814
2.80577
2.79581
2.78779
2.78172
2.77786
2.77606
2.7761
2.77669
2.78035
2.78529
2.79294
2.80314
2.81472
2.82718
2.83927
2.85172
2.86339
2.87417
2.88378
2.89292
2.90187
2.9109
2.92039
2.93075
2.94222
2.95406
2.96427
2.97265
2.97937
2.98555
2.99088
2.99518
2.99833
3.00053
3.00238
3.00396
3.00476
3.00455
3.0041
3.00468
3.00683
3.00987
3.01252
3.01722
3.0253
3.035
3.0421
3.04702
3.04935
3.05189
3.051
3.05633
0.999997
0.999997
0.999997
0.999996
0.999994
0.999991
0.999988
0.999982
0.999975
0.999965
0.999952
0.999934
0.99991
0.99988
0.999841
0.999792
0.99973
0.999653
0.999559
0.999444
0.999307
0.999144
0.998952
0.99873
0.998473
0.99818
0.997849
0.997478
0.997067
0.996614
0.996119
0.995585
0.995012
0.994402
0.993754
0.993074
0.992362
0.991641
0.990894
0.990103
0.989299
0.988538
0.987808
0.987062
0.986287
0.985005
0.983647
0.98305
0.983207
0.984934
0.992923
1.02044
1.12026
1.31637
1.64077
1.95362
2.20351
2.46204
2.70398
2.85368
2.90097
2.89774
2.8824
2.86324
2.84411
2.82666
2.81119
2.79826
2.78775
2.77874
2.77062
2.76418
2.76023
2.75856
2.7578
2.75987
2.7628
2.76832
2.77648
2.78659
2.79906
2.81222
2.82695
2.84158
2.85524
2.8674
2.87893
2.88997
2.90094
2.91202
2.92362
2.93601
2.94839
2.95884
2.96769
2.97475
2.98142
2.9871
2.99165
2.99503
2.99742
2.99938
3.00078
3.00126
3.00088
3.0005
3.00132
3.00308
3.00513
3.00675
3.01122
3.01921
3.02901
3.03632
3.04106
3.04284
3.04526
3.04461
3.04973
0.999997
0.999997
0.999997
0.999996
0.999994
0.999991
0.999987
0.999982
0.999974
0.999963
0.999949
0.99993
0.999905
0.999873
0.99983
0.999776
0.999708
0.999624
0.999519
0.999391
0.999236
0.999052
0.998833
0.998577
0.998281
0.99794
0.997553
0.997116
0.996629
0.996089
0.995497
0.994855
0.99416
0.993412
0.992625
0.991794
0.990912
0.990005
0.989102
0.988146
0.987132
0.986126
0.985206
0.984331
0.983323
0.981732
0.980248
0.979708
0.980083
0.983366
0.995902
1.04757
1.18585
1.45019
1.80016
2.12647
2.4292
2.68569
2.8485
2.90264
2.90021
2.88507
2.86588
2.84704
2.82989
2.81433
2.80048
2.7885
2.77813
2.76885
2.76069
2.75339
2.74756
2.7439
2.74168
2.74224
2.74325
2.74695
2.75307
2.76099
2.77136
2.78354
2.79869
2.81554
2.83241
2.84751
2.86163
2.87493
2.88794
2.9009
2.9142
2.92775
2.94083
2.95185
2.96133
2.96905
2.97635
2.98249
2.98742
2.99119
2.9939
2.99593
2.99699
2.99721
2.99685
2.99673
2.99762
2.9988
2.99971
3.001
3.00561
3.01357
3.0231
3.03012
3.0346
3.03598
3.03838
3.038
3.04294
0.999997
0.999997
0.999997
0.999995
0.999994
0.999991
0.999987
0.999981
0.999973
0.999962
0.999947
0.999927
0.9999
0.999865
0.999819
0.999761
0.999687
0.999594
0.999479
0.999338
0.999166
0.99896
0.998715
0.998427
0.998091
0.997705
0.997263
0.996764
0.996204
0.995583
0.9949
0.994156
0.993348
0.992477
0.991558
0.990588
0.989557
0.988476
0.9874
0.986305
0.98513
0.983934
0.982825
0.981756
0.980271
0.978521
0.977538
0.977471
0.978684
0.984964
1.00622
1.08998
1.27267
1.63339
2.03753
2.37955
2.65558
2.83248
2.89583
2.89465
2.88031
2.8611
2.84151
2.82456
2.81028
2.7978
2.78651
2.77607
2.76654
2.75787
2.75008
2.74312
2.73673
2.73189
2.72788
2.72684
2.72655
2.72873
2.73291
2.73894
2.74718
2.75721
2.77041
2.7868
2.80563
2.82402
2.84083
2.8566
2.87198
2.88717
2.90241
2.91733
2.93136
2.94315
2.95351
2.96213
2.97013
2.97691
2.98241
2.98669
2.98967
2.99171
2.99245
2.99252
2.9923
2.9926
2.99341
2.99389
2.99408
2.99551
3.0003
3.00839
3.01713
3.02329
3.02757
3.02881
3.03134
3.03124
3.03584
0.999997
0.999997
0.999996
0.999995
0.999993
0.99999
0.999986
0.99998
0.999972
0.99996
0.999944
0.999923
0.999894
0.999857
0.999808
0.999746
0.999666
0.999565
0.99944
0.999285
0.999097
0.99887
0.9986
0.998281
0.997908
0.997478
0.996986
0.996428
0.995802
0.995107
0.99434
0.993502
0.992594
0.991618
0.990578
0.989477
0.988321
0.987105
0.985853
0.984606
0.983307
0.981958
0.980657
0.979372
0.977455
0.975478
0.974646
0.974907
0.977773
0.988918
1.03537
1.15983
1.44976
1.90078
2.31904
2.62158
2.81132
2.88434
2.88636
2.87157
2.85114
2.83073
2.81335
2.79946
2.7884
2.77913
2.77067
2.76241
2.75428
2.7466
2.73953
2.73315
2.72748
2.72192
2.71636
2.71355
2.71214
2.71335
2.71583
2.72015
2.72648
2.73444
2.74529
2.75918
2.77684
2.79693
2.81692
2.83554
2.85336
2.87082
2.888
2.90444
2.91973
2.93266
2.94419
2.95392
2.96274
2.97032
2.97653
2.98134
2.9845
2.98669
2.98733
2.98742
2.98748
2.98809
2.98869
2.98859
2.98863
2.99036
2.99542
3.00319
3.01067
3.01599
3.02013
3.0213
3.02391
3.02414
3.02853
0.999997
0.999997
0.999996
0.999995
0.999993
0.99999
0.999986
0.999979
0.999971
0.999958
0.999942
0.999919
0.999889
0.999849
0.999797
0.99973
0.999644
0.999536
0.999401
0.999234
0.99903
0.998783
0.998489
0.998141
0.997735
0.997264
0.996726
0.996115
0.995429
0.994666
0.993825
0.992906
0.99191
0.99084
0.989697
0.988489
0.98722
0.985892
0.984509
0.983108
0.98168
0.980222
0.978743
0.977038
0.974825
0.973131
0.972667
0.973771
0.979468
1.00306
1.08256
1.29549
1.75276
2.23198
2.58291
2.78585
2.86783
2.87331
2.85899
2.83852
2.81792
2.80008
2.78571
2.7743
2.76541
2.75833
2.7521
2.74597
2.73988
2.73367
2.72778
2.72222
2.71741
2.71245
2.7064
2.70207
2.69948
2.69995
2.70108
2.70392
2.70843
2.71432
2.72295
2.73433
2.74944
2.76822
2.78973
2.81145
2.83202
2.85186
2.87096
2.8891
2.906
2.92044
2.93347
2.9445
2.95433
2.96279
2.96967
2.97504
2.97849
2.9809
2.98168
2.98201
2.98248
2.98316
2.98335
2.98305
2.98349
2.98562
2.99083
2.99731
3.00356
3.0085
3.01242
3.01343
3.0161
3.01688
3.02087
0.999997
0.999997
0.999996
0.999995
0.999993
0.99999
0.999985
0.999979
0.999969
0.999957
0.999939
0.999915
0.999884
0.999842
0.999787
0.999715
0.999624
0.999508
0.999364
0.999185
0.998966
0.998701
0.998384
0.99801
0.997572
0.997066
0.996485
0.995827
0.995088
0.994267
0.993362
0.992374
0.991305
0.990157
0.988931
0.987637
0.986276
0.984859
0.983381
0.981861
0.980305
0.978774
0.977196
0.974905
0.972536
0.971434
0.971592
0.974118
0.985135
1.03143
1.17365
1.57393
2.11598
2.53061
2.75901
2.85164
2.86306
2.84814
2.82616
2.80668
2.78912
2.77457
2.76268
2.75287
2.74479
2.73812
2.73246
2.72743
2.72281
2.71817
2.71367
2.70944
2.70544
2.70162
2.69658
2.69131
2.68798
2.68773
2.68766
2.68925
2.69208
2.69596
2.70266
2.71216
2.72478
2.74143
2.76152
2.78438
2.80771
2.83003
2.85136
2.87146
2.89015
2.90642
2.92121
2.93373
2.94477
2.95423
2.96188
2.9679
2.9718
2.97453
2.97563
2.97641
2.97723
2.9778
2.97773
2.97749
2.97863
2.98123
2.98568
2.99055
2.99614
3.00087
3.00436
3.00522
3.00798
3.00914
3.01301
0.999997
0.999997
0.999996
0.999995
0.999993
0.99999
0.999985
0.999978
0.999968
0.999955
0.999937
0.999912
0.999878
0.999834
0.999776
0.999701
0.999604
0.999481
0.999328
0.999138
0.998905
0.998623
0.998287
0.997888
0.997423
0.996884
0.996267
0.995568
0.994784
0.993914
0.992956
0.991912
0.990784
0.989574
0.988287
0.986928
0.985502
0.984017
0.982474
0.980879
0.979246
0.977617
0.975764
0.973312
0.97137
0.970804
0.971772
0.97696
1.00174
1.08339
1.3838
1.96144
2.47904
2.73667
2.83567
2.85103
2.83764
2.81504
2.79463
2.77689
2.76224
2.75038
2.74078
2.73275
2.72575
2.71941
2.71387
2.70908
2.70497
2.70124
2.69772
2.69448
2.69145
2.68876
2.68568
2.68084
2.677
2.67565
2.67449
2.67523
2.67672
2.67897
2.68418
2.6921
2.70261
2.71718
2.735
2.75643
2.78069
2.80549
2.82922
2.85159
2.87233
2.89072
2.90747
2.9217
2.93414
2.94469
2.9532
2.95993
2.9644
2.96765
2.96926
2.97051
2.97146
2.97196
2.97183
2.97209
2.97391
2.97621
2.97939
2.9834
2.98869
2.99299
2.99602
2.99682
2.99959
3.00121
3.00459
0.999997
0.999997
0.999996
0.999995
0.999993
0.999989
0.999984
0.999977
0.999967
0.999953
0.999934
0.999908
0.999873
0.999827
0.999766
0.999687
0.999585
0.999456
0.999294
0.999094
0.998848
0.998551
0.998196
0.997777
0.997286
0.99672
0.996071
0.995338
0.994517
0.993606
0.992607
0.991519
0.990346
0.98909
0.98776
0.986358
0.984889
0.983357
0.981772
0.980126
0.978503
0.976828
0.974465
0.971964
0.970729
0.970845
0.973252
0.986775
1.03897
1.23302
1.77237
2.37274
2.69799
2.81406
2.83193
2.81973
2.7973
2.77625
2.75866
2.74448
2.73329
2.72426
2.7169
2.71068
2.70502
2.69971
2.69476
2.69024
2.68658
2.68342
2.68054
2.67806
2.67595
2.67429
2.67287
2.6693
2.66583
2.66372
2.66158
2.66137
2.66181
2.66317
2.66712
2.67356
2.6823
2.69464
2.71023
2.72977
2.75284
2.77865
2.80489
2.82979
2.85287
2.87355
2.89228
2.90828
2.92227
2.93404
2.94359
2.95115
2.95632
2.96022
2.96246
2.96419
2.9651
2.96568
2.9659
2.96674
2.96847
2.96995
2.9724
2.97628
2.98122
2.98492
2.98739
2.98825
2.99094
2.99281
2.99582
0.999997
0.999997
0.999996
0.999995
0.999992
0.999989
0.999984
0.999976
0.999966
0.999952
0.999932
0.999905
0.999868
0.99982
0.999756
0.999673
0.999567
0.999432
0.999262
0.999053
0.998796
0.998485
0.998114
0.997676
0.997164
0.996573
0.995899
0.995137
0.994285
0.993342
0.992309
0.991188
0.989982
0.988696
0.987336
0.985908
0.984417
0.982868
0.981274
0.979635
0.977995
0.976148
0.973768
0.97186
0.97127
0.972161
0.978236
1.00749
1.1267
1.56745
2.22142
2.64398
2.78805
2.81135
2.79951
2.77693
2.75531
2.73703
2.72256
2.71137
2.70273
2.69588
2.69033
2.68567
2.68168
2.67795
2.67422
2.67051
2.66728
2.6645
2.66212
2.66023
2.65887
2.65811
2.65775
2.65604
2.65365
2.65113
2.64844
2.64737
2.64737
2.64814
2.65098
2.65601
2.66311
2.67352
2.6871
2.70465
2.72593
2.75087
2.77837
2.80599
2.83163
2.85478
2.87566
2.89347
2.90909
2.92225
2.93301
2.94163
2.9477
2.95238
2.95525
2.95751
2.95833
2.95911
2.95987
2.96081
2.96195
2.96296
2.96535
2.96912
2.97345
2.97645
2.97842
2.97956
2.98206
2.98407
2.98628
0.999997
0.999997
0.999996
0.999995
0.999992
0.999989
0.999983
0.999976
0.999965
0.99995
0.99993
0.999901
0.999864
0.999813
0.999747
0.999661
0.99955
0.99941
0.999233
0.999015
0.998748
0.998426
0.998041
0.997586
0.997056
0.996445
0.995748
0.994962
0.994085
0.993117
0.992058
0.990911
0.989681
0.988373
0.986994
0.985552
0.984055
0.982506
0.980909
0.979341
0.977726
0.975462
0.973204
0.972224
0.972367
0.974617
0.988379
1.05057
1.37561
2.04075
2.57571
2.75955
2.79178
2.7826
2.76158
2.73985
2.72006
2.7037
2.69082
2.68096
2.67353
2.6678
2.6632
2.65938
2.65629
2.65394
2.65153
2.64909
2.64674
2.64447
2.64256
2.64114
2.64049
2.64041
2.64067
2.64029
2.63936
2.63758
2.63514
2.63331
2.63303
2.63316
2.63506
2.63886
2.64471
2.65359
2.66537
2.68099
2.70045
2.72385
2.75066
2.77974
2.80819
2.83406
2.85737
2.87726
2.89466
2.90935
2.92155
2.93146
2.93865