/*--------------------------------*- C++ -*----------------------------------*\
| =========                 |                                                 |
| \\      /  F ield         | OpenFOAM: The Open Source CFD Toolbox           |
|  \\    /   O peration     | Version:  2.2.x                                 |
|   \\  /    A nd           | Web:      www.OpenFOAM.org                      |
|    \\/     M anipulation  |                                                 |
\*---------------------------------------------------------------------------*/
FoamFile
{
    version     2.0;
    format      ascii;
    class       volVectorField;
    location    "0.6";
    object      U;
}
// * * * * * * * * * * * * * * * * * * * * * * * * * * * * * * * * * * * * * //

dimensions      [0 1 -1 0 0 0 0];

internalField   nonuniform List<vector> 
14161
(
(1.5 1.46327e-11 2.00214e-22)
(1.5 -8.45106e-10 2.67718e-22)
(1.5 -1.16203e-09 6.18051e-22)
(1.50001 -1.28162e-09 5.81716e-22)
(1.50001 -1.16021e-09 1.29581e-21)
(1.50001 -5.70184e-10 9.84752e-22)
(1.50001 -1.76093e-09 2.60085e-21)
(1.50002 -1.10432e-09 1.87091e-21)
(1.50003 -1.9886e-09 3.38236e-21)
(1.50003 -7.15433e-09 2.77337e-21)
(1.50005 -9.88189e-09 3.96543e-21)
(1.50006 -5.15729e-09 3.13856e-21)
(1.50007 -4.6386e-08 4.20622e-21)
(1.50009 -1.63142e-08 4.85047e-21)
(1.50011 -3.0152e-08 4.65188e-21)
(1.50012 2.1732e-08 5.04923e-21)
(1.50013 -3.51689e-08 5.08637e-21)
(1.50013 -1.39393e-07 4.24393e-21)
(1.50012 -1.16043e-07 2.45549e-21)
(1.50009 -1.15848e-07 1.46183e-21)
(1.50005 -1.6483e-07 7.52214e-22)
(1.49997 -3.02777e-07 -1.02781e-22)
(1.49985 -4.62168e-07 -1.1894e-21)
(1.49969 -5.60523e-07 -2.17895e-21)
(1.49946 -6.75192e-07 -3.34762e-21)
(1.49917 -7.05166e-07 -4.55138e-21)
(1.49879 -9.56489e-07 -5.47224e-21)
(1.49832 -1.00396e-06 -7.06253e-21)
(1.49775 -1.52933e-06 -7.55261e-21)
(1.49708 -1.49225e-06 -8.28351e-21)
(1.49629 -2.40989e-06 -9.6954e-21)
(1.49538 -2.17566e-06 -9.8446e-21)
(1.49435 -3.18158e-06 -1.14036e-20)
(1.4932 -2.32027e-06 -1.44973e-20)
(1.49194 -4.50998e-06 -6.40193e-21)
(1.49057 -2.40368e-06 -3.05136e-20)
(1.4891 -5.13676e-06 7.47482e-21)
(1.48753 -1.52069e-06 -3.97603e-20)
(1.48589 -5.49983e-06 1.47718e-21)
(1.48419 -3.11612e-06 -3.99658e-20)
(1.48243 -6.1209e-06 3.64697e-21)
(1.48063 -4.26529e-06 -2.60878e-20)
(1.47881 -9.47104e-06 -2.2795e-20)
(1.47697 -7.96757e-06 -2.02534e-20)
(1.47519 -1.12913e-05 -1.7663e-20)
(1.47336 -8.90229e-06 -2.4225e-20)
(1.47141 -8.61768e-06 -1.40148e-20)
(1.46936 -8.18156e-06 -2.45207e-20)
(1.46733 -1.26362e-05 -1.76739e-20)
(1.46525 -1.90804e-05 -3.34261e-20)
(1.46307 -2.32674e-05 -1.10646e-20)
(1.46065 -6.99659e-05 -3.06815e-20)
(1.45724 -0.000121047 8.55311e-20)
(1.44904 -0.00037414 3.01622e-19)
(1.41307 -0.000804383 1.828e-18)
(1.20266 -0.00145206 3.71979e-18)
(0.797308 -0.00211989 2.21876e-17)
(0.625361 -0.00285302 -4.57782e-17)
(0.579691 -0.0036469 2.7789e-17)
(0.575515 -0.00412381 -1.64579e-16)
(0.581221 -0.0044746 6.44603e-16)
(0.594251 -0.0048469 -4.6685e-16)
(0.609366 -0.00548688 -2.54063e-15)
(0.625033 -0.00606287 9.33257e-16)
(0.641155 -0.00681524 1.22328e-14)
(0.657734 -0.0072718 -4.22177e-15)
(0.67409 -0.00705646 -3.76035e-14)
(0.689698 -0.00667335 -1.15287e-14)
(0.704866 -0.00647496 5.64123e-14)
(0.719579 -0.00598911 3.02936e-14)
(0.732827 -0.00509187 -7.65279e-14)
(0.744931 -0.00449769 -7.85486e-14)
(0.756508 -0.00484275 4.76534e-14)
(0.768351 -0.00531419 1.40282e-13)
(0.780097 -0.0054454 5.34242e-14)
(0.791287 -0.00522872 -1.87049e-13)
(0.80206 -0.00512221 -2.862e-13)
(0.812796 -0.00526811 1.13241e-14)
(0.824446 -0.00561256 4.47266e-13)
(0.8375 -0.00625978 1.85565e-13)
(0.849968 -0.00658807 -6.60052e-13)
(0.862138 -0.005855 -3.41059e-13)
(0.872027 -0.004181 8.57261e-13)
(0.879328 -0.00228239 6.07781e-13)
(0.884025 -0.00129865 -4.35205e-13)
(0.887583 -0.000781343 -5.85324e-13)
(0.887749 0.00118162 -3.52777e-14)
(0.881519 0.00408473 1.71266e-13)
(0.867217 0.00830401 1.40106e-13)
(0.841581 0.0141641 1.35776e-14)
(0.80286 0.0210847 -7.39568e-14)
(0.751504 0.027164 -5.06502e-14)
(0.688038 0.0317094 9.32076e-15)
(0.619846 0.0338755 1.49515e-14)
(0.556821 0.0327948 -1.45767e-15)
(0.502847 0.0289011 -1.83471e-15)
(0.456806 0.0243075 4.55727e-16)
(0.419471 0.0204932 5.0196e-16)
(0.386959 0.0177116 5.28667e-16)
(0.357978 0.0152501 6.30146e-16)
(0.332639 0.0132915 4.566e-16)
(0.309711 0.0118125 1.97195e-16)
(0.288895 0.0106351 2.85162e-16)
(0.270204 0.0096472 6.29556e-16)
(0.252642 0.00903567 7.38527e-16)
(0.235817 0.00859442 5.36482e-16)
(0.220163 0.0081817 2.87833e-16)
(0.205305 0.00788638 1.54184e-16)
(0.190501 0.00776265 9.27931e-17)
(0.175558 0.00773566 5.54209e-17)
(0.160777 0.00783631 3.58683e-17)
(0.145887 0.00805905 2.00942e-17)
(0.130553 0.00846801 2.77135e-18)
(0.114295 0.00902734 -7.25217e-18)
(0.0963795 0.00983934 -7.10239e-18)
(0.0769367 0.0105287 -3.72496e-18)
(0.0567518 0.0113256 -1.84701e-18)
(0.0360346 0.0108717 -1.47672e-18)
(0.0167323 0.017081 6.42024e-19)
(1.5 -1.11597e-09 3.27253e-22)
(1.5 -1.93392e-09 1.03996e-21)
(1.5 -2.34229e-09 1.09827e-21)
(1.50001 -1.20966e-09 6.97248e-22)
(1.50001 -1.09959e-09 1.52121e-21)
(1.50001 5.66001e-10 1.37365e-21)
(1.50001 2.46933e-10 2.34695e-21)
(1.50002 1.03282e-09 2.10023e-21)
(1.50003 3.37505e-09 3.44821e-21)
(1.50003 -1.97214e-09 2.95726e-21)
(1.50005 -5.1716e-09 4.28962e-21)
(1.50006 4.57693e-09 2.92247e-21)
(1.50007 -4.13293e-08 4.40455e-21)
(1.50009 -6.62657e-09 3.87656e-21)
(1.50011 2.25091e-08 4.48327e-21)
(1.50012 1.77042e-07 5.22258e-21)
(1.50013 1.12794e-07 5.04422e-21)
(1.50013 -2.83251e-08 3.92313e-21)
(1.50012 6.72796e-08 2.20978e-21)
(1.50009 1.11489e-07 1.14542e-21)
(1.50005 1.05485e-07 4.41816e-22)
(1.49997 2.66948e-08 -6.32824e-22)
(1.49985 -5.92257e-08 -1.54942e-21)
(1.49969 -3.15066e-08 -2.56765e-21)
(1.49947 9.23009e-09 -3.67052e-21)
(1.49917 1.95954e-07 -4.96642e-21)
(1.49879 1.47254e-07 -5.97461e-21)
(1.49833 3.77801e-07 -7.3512e-21)
(1.49776 9.27249e-08 -7.95482e-21)
(1.49709 3.90957e-07 -8.31023e-21)
(1.4963 -3.20875e-07 -1.03402e-20)
(1.49539 -3.99706e-09 -1.01778e-20)
(1.49436 -8.60018e-07 -1.1871e-20)
(1.49322 3.99016e-07 -1.50349e-20)
(1.49196 -1.72093e-06 -7.17359e-21)
(1.49058 2.63036e-07 -3.04466e-20)
(1.48911 -2.14611e-06 5.97004e-21)
(1.48755 1.90315e-06 -3.99954e-20)
(1.48591 -1.97066e-06 2.01681e-21)
(1.4842 8.70265e-07 -4.16049e-20)
(1.48245 -3.30486e-06 3.78542e-21)
(1.48065 -1.13529e-06 -3.25347e-20)
(1.47883 -9.8133e-06 -2.02777e-20)
(1.47699 -4.23244e-06 -2.3791e-20)
(1.47521 -1.47879e-05 -1.93794e-20)
(1.47336 -2.17203e-05 -2.93995e-20)
(1.47138 -2.46532e-05 -2.15575e-20)
(1.46936 -2.32317e-05 -3.18482e-20)
(1.46735 -3.26618e-05 -2.6447e-20)
(1.46523 -4.13642e-05 -4.147e-20)
(1.46303 -6.61947e-05 -1.29391e-20)
(1.46059 -0.000114698 -3.58143e-20)
(1.45716 -0.000347942 1.07259e-19)
(1.44904 -0.00102108 2.81238e-20)
(1.41362 -0.0027808 2.04008e-18)
(1.20459 -0.00497785 1.69021e-18)
(0.799761 -0.00686141 1.91807e-17)
(0.62811 -0.00842846 -3.99058e-17)
(0.582725 -0.0106453 3.66065e-17)
(0.578723 -0.0121186 -2.25844e-16)
(0.585122 -0.0129024 2.99239e-16)
(0.598913 -0.0135466 1.94716e-15)
(0.614951 -0.0148486 -2.81376e-15)
(0.631671 -0.0157325 -7.52309e-15)
(0.648519 -0.0160421 1.43365e-14)
(0.664899 -0.0158774 1.29889e-14)
(0.680519 -0.0148306 -2.49871e-14)
(0.695113 -0.0137643 -3.27681e-14)
(0.709527 -0.013672 2.36644e-14)
(0.723911 -0.0133862 5.05713e-14)
(0.737653 -0.0117881 3.54703e-15)
(0.750795 -0.0100505 -7.20309e-14)
(0.763365 -0.0100601 -7.34488e-14)
(0.775808 -0.0113663 6.22521e-14)
(0.788025 -0.0115681 2.11212e-13)
(0.79968 -0.0100567 -7.69957e-15)
(0.81099 -0.00859045 -3.41667e-13)
(0.8222 -0.00828015 -1.6993e-13)
(0.833984 -0.00919361 4.66204e-13)
(0.846431 -0.010506 3.6506e-13)
(0.85782 -0.0107301 -5.54063e-13)
(0.867149 -0.00939577 -3.85912e-13)
(0.874197 -0.00696749 5.90669e-13)
(0.878621 -0.00440087 4.73346e-13)
(0.880685 -0.00188777 -2.39067e-13)
(0.881704 -0.000519218 -4.19478e-13)
(0.877479 0.00187616 -5.59116e-14)
(0.865845 0.0044871 1.11068e-13)
(0.844607 0.00923303 1.10872e-13)
(0.809678 0.0167998 1.14882e-14)
(0.760941 0.0274017 -5.68076e-14)
(0.701694 0.0415179 -2.77233e-14)
(0.635742 0.0551108 1.2127e-14)
(0.571284 0.0601442 4.58334e-15)
(0.515627 0.0554983 -3.129e-15)
(0.469092 0.0484375 -8.92496e-16)
(0.429138 0.0428447 -9.31483e-17)
(0.39601 0.0383228 -1.42059e-16)
(0.366764 0.0342428 1.09847e-16)
(0.340753 0.0307018 2.8184e-16)
(0.3177 0.0279425 1.2889e-16)
(0.296497 0.0257064 -6.04713e-17)
(0.277042 0.0237683 1.01691e-16)
(0.259414 0.0220507 4.43026e-16)
(0.242614 0.0209094 5.18944e-16)
(0.226404 0.0200316 3.34137e-16)
(0.211251 0.0193359 1.44935e-16)
(0.196785 0.0188971 6.12138e-17)
(0.182243 0.0188775 2.81711e-17)
(0.167488 0.0190405 1.38182e-17)
(0.152871 0.0196755 1.33454e-17)
(0.13808 0.0206775 8.47903e-18)
(0.122818 0.0222834 -2.652e-18)
(0.106534 0.0241929 -8.48354e-18)
(0.0887721 0.0269665 -6.48873e-18)
(0.0699945 0.0287105 -3.17725e-18)
(0.0509932 0.0307585 -1.45947e-18)
(0.0309801 0.0311613 -1.11582e-18)
(0.0128117 0.0393442 4.78827e-19)
(1.5 -8.2201e-10 5.51752e-22)
(1.5 -3.4191e-09 9.14949e-23)
(1.5 -4.58821e-09 4.76625e-22)
(1.50001 -3.40002e-09 1.32247e-21)
(1.50001 -2.35549e-09 1.85748e-21)
(1.50001 -1.29514e-09 1.5771e-21)
(1.50001 -8.76992e-10 2.41951e-21)
(1.50002 -3.05173e-09 2.25003e-21)
(1.50003 -5.765e-10 3.52476e-21)
(1.50003 -7.95715e-09 3.07785e-21)
(1.50005 -2.3167e-08 4.76445e-21)
(1.50006 -8.22172e-09 1.77264e-21)
(1.50008 -6.5585e-08 3.94489e-21)
(1.50009 -6.82222e-08 3.96256e-21)
(1.50011 -9.97252e-08 4.93754e-21)
(1.50013 2.1297e-07 5.18521e-21)
(1.50013 1.36469e-07 4.2804e-21)
(1.50013 -1.04067e-07 3.36075e-21)
(1.50012 -5.3839e-09 1.35592e-21)
(1.5001 7.01742e-08 1.6722e-22)
(1.50005 -2.12206e-08 -1.44497e-21)
(1.49998 -2.56959e-07 -2.74402e-21)
(1.49986 -5.271e-07 -2.06388e-21)
(1.4997 -6.44231e-07 -3.72209e-21)
(1.49948 -7.42142e-07 -5.91706e-21)
(1.49918 -7.38277e-07 -6.5147e-21)
(1.49881 -1.01527e-06 -7.15765e-21)
(1.49835 -1.08342e-06 -8.543e-21)
(1.49778 -1.54767e-06 -8.82298e-21)
(1.49711 -1.68501e-06 -9.17482e-21)
(1.49633 -2.51382e-06 -1.1545e-20)
(1.49543 -2.756e-06 -1.15763e-20)
(1.4944 -4.36408e-06 -1.34613e-20)
(1.49326 -3.04302e-06 -1.65755e-20)
(1.49201 -6.04648e-06 -9.52819e-21)
(1.49064 -4.21026e-06 -3.09404e-20)
(1.48917 -7.73059e-06 -3.46214e-22)
(1.48761 -3.55577e-06 -4.02301e-20)
(1.48597 -8.83235e-06 -1.2209e-21)
(1.48427 -5.07857e-06 -4.07926e-20)
(1.48251 -9.71691e-06 -2.26583e-21)
(1.48071 -9.07651e-06 -3.90969e-20)
(1.47888 -1.843e-05 -1.75318e-20)
(1.47706 -1.18127e-05 -3.25713e-20)
(1.47526 -2.81486e-05 -2.42027e-20)
(1.47338 -3.75869e-05 -3.58092e-20)
(1.47139 -4.00242e-05 -3.1266e-20)
(1.46941 -4.41101e-05 -4.27173e-20)
(1.46735 -5.94848e-05 -3.43931e-20)
(1.46519 -6.99004e-05 -4.31346e-20)
(1.46297 -0.000100142 -2.99049e-20)
(1.46052 -0.000198078 -4.10042e-20)
(1.45707 -0.000567111 -3.73617e-20)
(1.44882 -0.00176131 -1.34413e-19)
(1.41262 -0.0055547 5.80468e-19)
(1.20194 -0.0104038 3.98969e-19)
(0.798083 -0.013607 7.33451e-18)
(0.627152 -0.0156282 -2.97033e-17)
(0.58227 -0.0192786 3.38811e-17)
(0.578673 -0.021872 -2.20766e-17)
(0.586258 -0.0236605 -5.4421e-16)
(0.601376 -0.0252683 1.74865e-15)
(0.618821 -0.0280595 3.00256e-15)
(0.636983 -0.0294517 -9.96015e-15)
(0.654847 -0.0293678 -1.88722e-15)
(0.671874 -0.0282856 2.01355e-14)
(0.687873 -0.0260296 1.7553e-15)
(0.702798 -0.0239894 -3.56185e-14)
(0.717492 -0.0235568 -9.67536e-15)
(0.731917 -0.0233732 3.95578e-14)
(0.745549 -0.0217147 4.06902e-14)
(0.758293 -0.0197373 -3.0277e-14)
(0.770812 -0.0198737 -1.02806e-13)
(0.783054 -0.0217705 -1.611e-14)
(0.795742 -0.0227127 2.08016e-13)
(0.808086 -0.021009 1.02699e-13)
(0.820265 -0.0190618 -3.35411e-13)
(0.83214 -0.0180598 -2.35857e-13)
(0.843464 -0.0181842 4.30256e-13)
(0.853778 -0.0184249 3.51226e-13)
(0.861817 -0.0172832 -3.87757e-13)
(0.867768 -0.014296 -3.20879e-13)
(0.871547 -0.010968 3.39726e-13)
(0.872239 -0.00724703 2.55079e-13)
(0.871972 -0.00305868 -1.16151e-13)
(0.86627 0.00149281 -1.98918e-13)
(0.85471 0.00830025 -6.72389e-14)
(0.83388 0.0179448 5.34728e-14)
(0.800325 0.0312568 6.48268e-14)
(0.752111 0.0491529 -4.89241e-15)
(0.692324 0.07221 -3.93049e-14)
(0.628242 0.0964971 -1.51308e-15)
(0.567602 0.109608 9.86165e-15)
(0.516907 0.109439 -2.34564e-15)
(0.475906 0.0998882 -2.03737e-15)
(0.44037 0.0880052 -1.09587e-16)
(0.408696 0.0781057 -3.83579e-16)
(0.381125 0.0700276 -3.54504e-16)
(0.35592 0.0624298 -1.14139e-17)
(0.332465 0.0557647 1.37248e-16)
(0.310735 0.0504348 -3.23006e-17)
(0.290295 0.0461139 -1.83578e-16)
(0.271359 0.0424666 2.60554e-17)
(0.253983 0.0393593 3.52898e-16)
(0.237275 0.0371894 3.96492e-16)
(0.221113 0.0354503 2.17423e-16)
(0.20586 0.0341744 6.47942e-17)
(0.191138 0.0333294 1.04621e-17)
(0.176333 0.0331459 -6.37216e-18)
(0.161369 0.0332405 -7.1523e-18)
(0.146471 0.0340333 1.83208e-18)
(0.131358 0.0354171 2.24114e-18)
(0.115766 0.0377267 -5.71654e-18)
(0.0995195 0.0406235 -9.08916e-18)
(0.0824569 0.0446605 -5.64321e-18)
(0.0647515 0.0469376 -2.67859e-18)
(0.0472896 0.0502271 -1.29053e-18)
(0.0286122 0.0512676 -9.34012e-19)
(0.0125707 0.0609473 2.49e-19)
(1.5 -1.65562e-09 1.2802e-22)
(1.5 -4.76651e-09 9.71878e-22)
(1.5 -5.4743e-09 1.41273e-21)
(1.50001 -3.94805e-09 2.87857e-21)
(1.50001 -1.38927e-09 1.69786e-21)
(1.50001 -1.10009e-10 1.93325e-21)
(1.50001 2.11165e-09 2.70319e-21)
(1.50002 1.19097e-09 2.22882e-21)
(1.50003 -1.23314e-10 2.36124e-21)
(1.50004 1.32214e-09 2.87682e-21)
(1.50005 -1.47173e-08 -3.81381e-22)
(1.50006 6.15345e-09 1.33749e-21)
(1.50008 -6.23125e-08 2.51513e-21)
(1.50009 -6.5118e-08 2.28779e-21)
(1.50011 -1.15404e-07 4.18428e-21)
(1.50013 3.15378e-07 5.00288e-21)
(1.50013 2.89452e-07 2.16083e-21)
(1.50013 -3.09418e-08 1.00786e-21)
(1.50013 7.38561e-08 -3.44896e-21)
(1.5001 2.07934e-07 -3.73654e-21)
(1.50006 -3.26429e-08 -4.33177e-21)
(1.49999 -1.69518e-07 -4.11538e-21)
(1.49987 -1.16448e-07 -5.46063e-21)
(1.49971 -2.07844e-08 -5.17069e-21)
(1.4995 -5.86344e-09 -7.30296e-21)
(1.49921 -1.99974e-07 -1.20935e-20)
(1.49884 -3.20611e-07 -1.15211e-20)
(1.49838 -6.31737e-07 -1.22086e-20)
(1.49783 -5.00533e-07 -1.47653e-20)
(1.49717 -8.76387e-07 -1.88257e-20)
(1.49639 -6.03571e-07 -1.98331e-20)
(1.4955 -7.23787e-07 -2.13252e-20)
(1.49448 -1.99969e-06 -2.20772e-20)
(1.49335 -1.61975e-06 -2.59242e-20)
(1.4921 -3.09786e-06 -2.1298e-20)
(1.49075 -2.72245e-06 -3.62707e-20)
(1.48929 -6.99167e-06 -2.04975e-20)
(1.48774 -4.35214e-06 -4.67862e-20)
(1.4861 -1.29381e-05 -2.16089e-20)
(1.4844 -3.28498e-06 -4.77337e-20)
(1.48265 -9.82874e-06 -2.90873e-20)
(1.48084 -1.18563e-05 -5.59128e-20)
(1.47901 -2.20199e-05 -2.44521e-20)
(1.47719 -1.79275e-05 -4.92708e-20)
(1.47535 -3.47181e-05 -4.53665e-20)
(1.47345 -4.38033e-05 -5.5378e-20)
(1.47148 -5.21064e-05 -5.51613e-20)
(1.46949 -6.17731e-05 -5.78355e-20)
(1.46733 -7.67112e-05 -5.35288e-20)
(1.46511 -9.49402e-05 -6.56705e-20)
(1.46288 -0.000133025 -6.98034e-20)
(1.46034 -0.000252607 -3.82437e-20)
(1.45663 -0.000798198 -1.38564e-19)
(1.44769 -0.00243277 -2.51167e-20)
(1.40886 -0.007822 -1.0809e-18)
(1.19297 -0.0147167 -2.51803e-18)
(0.791005 -0.0189611 4.79138e-18)
(0.621389 -0.0223512 -4.61524e-17)
(0.577669 -0.0280915 -1.3742e-17)
(0.57513 -0.0324507 3.16743e-16)
(0.584742 -0.0354391 -5.74492e-16)
(0.601336 -0.0384505 -2.9753e-15)
(0.619927 -0.0426949 8.98497e-15)
(0.639078 -0.0443688 5.22089e-15)
(0.657917 -0.043754 -2.4619e-14)
(0.676348 -0.0421304 -1.02028e-14)
(0.694194 -0.0391734 5.74118e-14)
(0.711335 -0.0362131 1.82383e-14)
(0.728116 -0.0347703 -1.01196e-13)
(0.744308 -0.0334976 -5.13873e-14)
(0.759715 -0.0305274 1.27698e-13)
(0.77407 -0.0270799 1.03312e-13)
(0.78809 -0.02618 -1.47023e-13)
(0.801247 -0.0283289 -1.80811e-13)
(0.814322 -0.0295967 1.36016e-13)
(0.826526 -0.0278911 2.23658e-13)
(0.837745 -0.0249976 -1.3464e-13)
(0.847349 -0.0240112 -2.26931e-13)
(0.854162 -0.0236755 1.4796e-13)
(0.85884 -0.022086 1.92405e-13)
(0.861945 -0.0194252 -1.5992e-13)
(0.864085 -0.0161882 -1.16346e-13)
(0.864898 -0.0119348 1.28492e-13)
(0.861044 -0.00622964 1.12513e-13)
(0.851713 0.000578745 -3.30002e-14)
(0.834235 0.00942555 -9.17729e-14)
(0.806477 0.0207717 -3.67179e-14)
(0.766393 0.0357301 2.83723e-14)
(0.711056 0.054408 2.68311e-14)
(0.646301 0.0813999 -1.23797e-14)
(0.581658 0.108946 -8.96496e-15)
(0.525006 0.126181 6.34478e-15)
(0.480421 0.133729 7.62581e-16)
(0.446126 0.130856 -1.33802e-15)
(0.419126 0.11856 2.77527e-16)
(0.395088 0.105747 -3.60718e-17)
(0.372573 0.0954212 -3.9295e-16)
(0.351563 0.0868286 -1.64271e-16)
(0.331236 0.0786999 9.42085e-17)
(0.311696 0.0715728 1.00376e-16)
(0.293109 0.0658088 -1.49619e-16)
(0.275165 0.0610287 -2.68812e-16)
(0.258108 0.0568604 -3.86621e-17)
(0.242018 0.0532737 2.10837e-16)
(0.226121 0.0506103 1.91356e-16)
(0.210554 0.048259 4.25066e-17)
(0.195579 0.04661 -4.12957e-17)
(0.180948 0.045581 -5.41454e-17)
(0.166197 0.0453646 -4.8767e-17)
(0.151525 0.0456446 -2.98073e-17)
(0.137075 0.0469703 -8.50232e-18)
(0.122533 0.0490282 -3.50638e-18)
(0.107914 0.0524253 -8.51843e-18)
(0.0925567 0.0560331 -8.80469e-18)
(0.0768798 0.0611832 -4.47802e-18)
(0.0604348 0.0636485 -2.53007e-18)
(0.044502 0.0680417 -1.23161e-18)
(0.027297 0.0694386 -9.019e-19)
(0.0135826 0.0797069 -8.96546e-20)
(1.5 -1.81752e-09 -4.26504e-22)
(1.5 -5.58758e-09 2.30823e-22)
(1.5 -6.72625e-09 -1.30057e-21)
(1.50001 -5.22674e-09 3.80154e-21)
(1.50001 -2.36694e-09 2.10781e-21)
(1.50001 -5.9315e-10 5.71121e-21)
(1.50001 1.91042e-09 2.31598e-21)
(1.50002 1.60299e-09 2.84463e-22)
(1.50003 -5.33635e-09 9.30251e-22)
(1.50004 -1.05133e-09 8.59469e-22)
(1.50005 -1.89633e-08 -6.76184e-21)
(1.50006 -1.32899e-08 4.64894e-21)
(1.50008 -1.34599e-07 1.80459e-21)
(1.5001 -1.68239e-07 -6.69033e-22)
(1.50011 -1.67609e-07 -1.35414e-21)
(1.50013 3.57441e-07 -6.00133e-21)
(1.50014 3.72733e-07 -4.36514e-21)
(1.50014 1.90239e-07 -4.51559e-21)
(1.50013 1.72395e-07 -9.07026e-21)
(1.50011 -2.80523e-08 -1.28167e-20)
(1.50007 -3.29943e-07 -1.15764e-20)
(1.5 -3.51716e-07 -1.35519e-20)
(1.49989 -1.36793e-07 -1.92281e-20)
(1.49974 -1.2088e-07 -2.03185e-20)
(1.49953 -3.8861e-07 -1.82262e-20)
(1.49925 -1.06079e-06 -1.76383e-20)
(1.49889 -1.50983e-06 -2.05439e-20)
(1.49844 -2.28288e-06 -2.35813e-20)
(1.4979 -2.22074e-06 -2.68211e-20)
(1.49725 -2.96778e-06 -2.46666e-20)
(1.49649 -2.68432e-06 -3.15169e-20)
(1.49561 -2.05087e-06 -3.57655e-20)
(1.49461 -3.32262e-06 -3.71003e-20)
(1.49349 -3.06318e-06 -4.20628e-20)
(1.49226 -4.87728e-06 -4.2803e-20)
(1.49092 -8.88264e-07 -5.15328e-20)
(1.48947 -8.35473e-06 -4.03242e-20)
(1.48793 -7.43396e-06 -5.69144e-20)
(1.48631 -1.75443e-05 -3.96899e-20)
(1.48461 -9.52732e-06 -5.83328e-20)
(1.48285 -1.90314e-05 -5.03375e-20)
(1.48105 -1.48124e-05 -6.55747e-20)
(1.47924 -2.35758e-05 -5.33703e-20)
(1.47739 -2.98001e-05 -7.2769e-20)
(1.4755 -3.9779e-05 -7.14056e-20)
(1.47361 -5.14046e-05 -7.70387e-20)
(1.47168 -6.47966e-05 -7.44361e-20)
(1.46957 -8.11675e-05 -7.66053e-20)
(1.46733 -9.46237e-05 -7.66704e-20)
(1.46508 -0.000126314 -8.27127e-20)
(1.46282 -0.000168385 -1.06747e-19)
(1.46015 -0.000294273 -7.29264e-20)
(1.45615 -0.000842181 -1.47161e-19)
(1.44643 -0.00249318 -3.68852e-19)
(1.40475 -0.00781364 -8.77898e-19)
(1.18299 -0.0150266 -3.53323e-18)
(0.783416 -0.0207316 8.01877e-18)
(0.615051 -0.0283156 -1.24708e-17)
(0.572584 -0.0378035 -1.69817e-16)
(0.572317 -0.0454334 1.09515e-16)
(0.586014 -0.049688 1.07586e-15)
(0.605907 -0.0541668 -3.69858e-15)
(0.627689 -0.0586047 -2.22973e-15)
(0.649268 -0.0598927 1.37657e-14)
(0.670266 -0.058399 2.40767e-15)
(0.690652 -0.0562508 -2.6586e-14)
(0.710287 -0.0527776 3.434e-15)
(0.728659 -0.0491125 5.11367e-14)
(0.746363 -0.0475814 -1.24615e-14)
(0.763507 -0.0469433 -7.57956e-14)
(0.780034 -0.0443381 1.81547e-14)
(0.795415 -0.040373 8.94262e-14)
(0.809838 -0.038438 -4.00055e-14)
(0.822336 -0.0393028 -1.14244e-13)
(0.832951 -0.039297 3.61558e-14)
(0.842168 -0.0369974 1.19957e-13)
(0.850323 -0.0335804 -2.16429e-14)
(0.85623 -0.0304569 -1.00935e-13)
(0.859199 -0.0272273 3.60104e-14)
(0.859316 -0.0232715 7.51931e-14)
(0.859105 -0.0193537 -5.13582e-14)
(0.856293 -0.0146737 -3.59273e-14)
(0.849327 -0.007999 3.74178e-14)
(0.835504 0.000976564 3.77126e-14)
(0.812124 0.0131326 -1.09359e-14)
(0.777311 0.0299913 -3.5774e-14)
(0.727712 0.0510879 -9.09342e-15)
(0.667026 0.0794879 1.67095e-14)
(0.59754 0.110899 2.20552e-15)
(0.532405 0.135501 -7.48681e-15)
(0.481408 0.153059 1.84775e-15)
(0.442705 0.161677 1.83641e-15)
(0.412808 0.160698 -3.43781e-16)
(0.390018 0.151427 5.27631e-16)
(0.371995 0.137757 5.29933e-16)
(0.355135 0.12495 -2.48751e-17)
(0.338225 0.11372 -9.42766e-18)
(0.321312 0.103192 2.42123e-16)
(0.304803 0.094231 3.56857e-16)
(0.28905 0.0872788 1.78681e-16)
(0.27365 0.0814089 -1.56499e-16)
(0.258252 0.0759365 -2.52927e-16)
(0.243228 0.0710887 -4.29698e-17)
(0.228608 0.0670767 1.08934e-16)
(0.214016 0.0640918 4.51532e-17)
(0.19973 0.0616544 -6.33129e-17)
(0.185538 0.0600224 -9.81051e-17)
(0.17139 0.0590005 -9.15673e-17)
(0.157104 0.0588084 -7.23214e-17)
(0.14286 0.0588963 -3.91074e-17)
(0.128829 0.0603324 -1.19396e-17)
(0.115 0.0627438 -6.62531e-18)
(0.101013 0.0664704 -9.55235e-18)
(0.0864857 0.0707552 -7.72585e-18)
(0.0719902 0.0763567 -3.20515e-18)
(0.0568337 0.0791392 -2.30128e-18)
(0.0424866 0.0844761 -1.20491e-18)
(0.0267332 0.0860624 -8.24581e-19)
(0.0151029 0.0965139 -2.11834e-19)
(1.5 -2.90059e-09 1.95652e-22)
(1.5 -7.08616e-09 -3.92781e-22)
(1.5 -8.03485e-09 5.09632e-22)
(1.50001 -5.58514e-09 -8.39045e-21)
(1.50001 -2.40157e-09 -7.63017e-21)
(1.50001 5.38585e-10 -1.43037e-20)
(1.50001 1.85387e-09 -1.07959e-20)
(1.50002 5.78298e-09 -1.79042e-21)
(1.50003 -2.08086e-09 -1.23687e-20)
(1.50004 -4.06488e-09 -1.27993e-20)
(1.50005 -1.06007e-08 -2.61426e-21)
(1.50006 9.43788e-09 -1.77676e-20)
(1.50008 -1.60001e-07 -1.13009e-20)
(1.5001 -2.65961e-07 -7.78724e-21)
(1.50012 -1.58486e-07 -1.23098e-20)
(1.50013 4.16826e-07 -1.38406e-20)
(1.50014 5.94283e-07 -2.28581e-20)
(1.50015 4.15667e-07 -1.47183e-20)
(1.50014 2.41177e-08 -2.15182e-20)
(1.50012 -2.60185e-07 -2.76442e-20)
(1.50009 2.00809e-08 -2.97576e-20)
(1.50002 2.80736e-07 -3.27347e-20)
(1.49992 2.78952e-07 -3.60026e-20)
(1.49977 9.08248e-08 -4.18948e-20)
(1.49957 -5.61021e-08 -4.52997e-20)
(1.4993 -5.55937e-08 -4.63904e-20)
(1.49896 -2.93782e-07 -4.84795e-20)
(1.49853 -2.85999e-07 -5.21902e-20)
(1.498 -1.06155e-06 -5.64784e-20)
(1.49737 -5.13337e-07 -6.23357e-20)
(1.49662 -2.04889e-06 -6.6124e-20)
(1.49577 -1.76181e-07 -7.28655e-20)
(1.49479 -2.23183e-06 -7.50979e-20)
(1.4937 5.72888e-07 -7.90517e-20)
(1.49249 -4.75737e-06 -8.08652e-20)
(1.49117 1.54455e-06 -8.64689e-20)
(1.48974 -4.00431e-06 -8.1031e-20)
(1.48822 -1.65628e-06 -8.42907e-20)
(1.48662 -1.15785e-05 -7.7273e-20)
(1.48492 -1.3872e-05 -9.26745e-20)
(1.48317 -2.1398e-05 -8.05169e-20)
(1.48139 -1.43332e-05 -8.61918e-20)
(1.47957 -2.58813e-05 -9.40523e-20)
(1.47768 -3.6222e-05 -1.10183e-19)
(1.47576 -4.23445e-05 -1.06399e-19)
(1.47391 -5.28722e-05 -1.10133e-19)
(1.4719 -7.17901e-05 -1.02254e-19)
(1.46969 -8.42237e-05 -1.07555e-19)
(1.46744 -9.30461e-05 -1.11807e-19)
(1.4652 -0.000135383 -1.24924e-19)
(1.46282 -0.000187571 -1.26314e-19)
(1.46 -0.000315949 -1.39296e-19)
(1.45578 -0.000829734 -1.43946e-19)
(1.44555 -0.00230718 -5.69485e-19)
(1.40227 -0.00678061 -1.02538e-18)
(1.177 -0.0131572 -4.72916e-18)
(0.779062 -0.0200723 -5.6456e-18)
(0.611671 -0.0348819 2.75777e-17)
(0.57008 -0.0496879 -5.00005e-17)
(0.572328 -0.0625293 -4.52606e-16)
(0.590928 -0.0685931 7.35488e-16)
(0.614231 -0.0756785 8.50032e-16)
(0.639937 -0.0801741 -3.99563e-15)
(0.665082 -0.0805222 -1.26244e-15)
(0.689117 -0.0774021 1.03237e-14)
(0.712365 -0.0741392 2.10909e-15)
(0.735065 -0.0695266 -1.40815e-14)
(0.756169 -0.0638132 2.77471e-15)
(0.775777 -0.0600992 2.42873e-14)
(0.793864 -0.058617 -6.37069e-15)
(0.810284 -0.0558663 -2.39888e-14)
(0.824778 -0.0508841 6.93113e-15)
(0.837274 -0.046942 9.30759e-15)
(0.846324 -0.045065 -2.34325e-14)
(0.852331 -0.0428988 7.42037e-16)
(0.856989 -0.0396329 2.51594e-14)
(0.861387 -0.036622 -3.44262e-15)
(0.862641 -0.0320765 -2.26385e-14)
(0.860888 -0.0270173 1.18257e-14)
(0.856986 -0.021921 2.20523e-14)
(0.849069 -0.0158188 -8.78207e-15)
(0.836629 -0.00676509 -8.90169e-15)
(0.816547 0.00563857 8.19828e-15)
(0.785259 0.0209979 8.959e-15)
(0.74102 0.0415048 -7.10674e-15)
(0.683069 0.0677957 -1.08682e-14)
(0.615296 0.103458 3.34092e-15)
(0.545397 0.135288 3.75266e-15)
(0.487149 0.160625 -3.261e-15)
(0.443029 0.176917 -4.75522e-16)
(0.410139 0.184687 1.1073e-15)
(0.384459 0.185078 5.38582e-17)
(0.364273 0.178205 3.39083e-16)
(0.349028 0.165761 6.4104e-16)
(0.33591 0.151488 3.07948e-16)
(0.322636 0.138552 1.62569e-16)
(0.308715 0.127139 3.79412e-16)
(0.295028 0.116784 5.77007e-16)
(0.28167 0.108274 5.23381e-16)
(0.268384 0.101138 1.98664e-16)
(0.254879 0.0944757 -1.49402e-16)
(0.241369 0.0884461 -1.98294e-16)
(0.228128 0.0835032 -2.22281e-17)
(0.214981 0.0797649 4.38617e-17)
(0.201823 0.0768882 -4.03392e-17)
(0.188627 0.0742836 -1.1154e-16)
(0.175216 0.0726137 -1.23503e-16)
(0.161798 0.071572 -1.08044e-16)
(0.148171 0.0712058 -7.81293e-17)
(0.134785 0.0715063 -3.72905e-17)
(0.121551 0.0732979 -1.1192e-17)
(0.108275 0.075735 -8.06118e-18)
(0.0951188 0.0801647 -9.48499e-18)
(0.0813777 0.0846764 -6.08578e-18)
(0.0680931 0.0905296 -2.23223e-18)
(0.0541328 0.0935434 -1.7506e-18)
(0.0413226 0.0995298 -1.21767e-18)
(0.0268823 0.101287 -8.48526e-19)
(0.017007 0.111653 -3.68967e-19)
(1.5 -3.10738e-09 3.56028e-22)
(1.5 -7.95075e-09 -3.97e-21)
(1.5 -8.71679e-09 -5.99378e-21)
(1.50001 -6.15628e-09 -1.30483e-20)
(1.50001 -2.84664e-09 -1.77339e-21)
(1.50001 8.81828e-10 2.94245e-21)
(1.50001 8.31953e-10 -1.18701e-20)
(1.50002 4.23342e-09 -5.30108e-21)
(1.50003 5.8196e-09 -1.66246e-20)
(1.50004 -1.06537e-08 -1.64744e-20)
(1.50005 -1.72996e-08 -1.42709e-20)
(1.50006 -4.62761e-09 -1.50738e-20)
(1.50008 -2.29475e-07 -8.43794e-21)
(1.5001 -3.61489e-07 -1.92833e-20)
(1.50012 -1.94222e-07 -2.4427e-20)
(1.50014 3.82546e-07 -2.8151e-20)
(1.50015 8.48149e-07 -2.59627e-20)
(1.50016 3.83286e-07 -3.49106e-20)
(1.50015 -3.00514e-07 -3.80972e-20)
(1.50014 8.5586e-08 -3.75856e-20)
(1.50011 3.28706e-07 -4.18377e-20)
(1.50005 3.22777e-07 -4.62578e-20)
(1.49996 -8.33378e-08 -5.18392e-20)
(1.49982 -4.97494e-07 -5.50785e-20)
(1.49963 -8.67875e-07 -6.82048e-20)
(1.49938 -9.00984e-07 -7.35613e-20)
(1.49905 -1.17234e-06 -7.805e-20)
(1.49864 -7.89262e-07 -8.11575e-20)
(1.49813 -1.56952e-06 -8.76812e-20)
(1.49752 -1.39961e-06 -9.65511e-20)
(1.49681 -2.86334e-06 -9.78807e-20)
(1.49598 -3.32498e-06 -9.73356e-20)
(1.49503 -5.37569e-06 -1.00887e-19)
(1.49397 -3.0893e-06 -1.05144e-19)
(1.4928 -7.70868e-06 -1.09032e-19)
(1.49151 -6.46315e-06 -1.13289e-19)
(1.49011 -7.85724e-06 -1.17752e-19)
(1.48862 1.77148e-07 -1.30905e-19)
(1.48703 -6.05281e-06 -1.40489e-19)
(1.48537 -1.06713e-05 -1.38722e-19)
(1.48363 -1.28838e-05 -1.07811e-19)
(1.48185 -1.29651e-05 -1.26132e-19)
(1.48 -3.2051e-05 -1.42128e-19)
(1.47812 -4.17242e-05 -1.55456e-19)
(1.47624 -3.57038e-05 -1.46192e-19)
(1.47431 -4.45418e-05 -1.47039e-19)
(1.47221 -6.90993e-05 -1.42849e-19)
(1.46998 -7.50202e-05 -1.45025e-19)
(1.46775 -9.86374e-05 -1.66243e-19)
(1.4654 -0.000144102 -1.79854e-19)
(1.46285 -0.000213095 -1.72785e-19)
(1.4599 -0.00036027 -1.76339e-19)
(1.45554 -0.000831985 -1.72435e-19)
(1.44517 -0.00217246 -2.19389e-19)
(1.40174 -0.00606589 -5.01353e-19)
(1.17618 -0.0118882 -1.04919e-19)
(0.778965 -0.0210434 -3.68722e-18)
(0.610621 -0.0422491 -5.03063e-17)
(0.571049 -0.0648231 1.68293e-16)
(0.576226 -0.0839379 1.31398e-17)
(0.600983 -0.0917249 -9.58871e-16)
(0.627797 -0.101629 3.63137e-16)
(0.65761 -0.106264 2.75477e-15)
(0.687011 -0.105693 -1.35578e-15)
(0.71518 -0.100905 -5.38883e-15)
(0.741984 -0.0963943 -1.01146e-15)
(0.767342 -0.0911158 6.25688e-15)
(0.790327 -0.0833297 5.54041e-15)
(0.810628 -0.0758936 -5.0487e-15)
(0.827679 -0.0715605 -1.43296e-14)
(0.84164 -0.0670239 8.72459e-16)
(0.85296 -0.0607575 1.76412e-14)
(0.861613 -0.0540624 3.56623e-15)
(0.867366 -0.0490341 -1.80254e-14)
(0.869629 -0.0446102 -3.6691e-15)
(0.871771 -0.0416956 1.11906e-14)
(0.870461 -0.037069 5.68676e-15)
(0.866919 -0.0311157 -2.55364e-15)
(0.858032 -0.0250568 1.44806e-15)
(0.844956 -0.0160231 4.14533e-15)
(0.824706 -0.00333732 -7.0599e-16)
(0.795582 0.013898 -1.20689e-15)
(0.754634 0.0356373 2.7537e-15)
(0.70004 0.061465 1.22914e-15)
(0.634848 0.0951055 -3.75488e-15)
(0.56589 0.132616 -6.07816e-16)
(0.501435 0.164449 1.93925e-15)
(0.450845 0.187618 -8.42537e-16)
(0.413189 0.201454 -6.59175e-16)
(0.384719 0.208494 3.4128e-16)
(0.36241 0.20857 2.0136e-18)
(0.34436 0.202659 7.55392e-17)
(0.330237 0.191366 3.47462e-16)
(0.318974 0.17718 3.11074e-16)
(0.308134 0.162874 1.88892e-16)
(0.296652 0.149999 3.35089e-16)
(0.284705 0.138667 6.11569e-16)
(0.273336 0.1288 6.98067e-16)
(0.261826 0.120415 5.10068e-16)
(0.249941 0.112684 1.36315e-16)
(0.237975 0.105759 -1.4868e-16)
(0.226141 0.100047 -1.2152e-16)
(0.214349 0.0955285 1.73079e-17)
(0.202409 0.0920289 1.45784e-17)
(0.190246 0.0889073 -7.39717e-17)
(0.177818 0.0859988 -1.22239e-16)
(0.165149 0.0843119 -1.28178e-16)
(0.152551 0.083256 -1.09809e-16)
(0.139965 0.0832675 -7.03261e-17)
(0.127402 0.083646 -2.89819e-17)
(0.114839 0.0855887 -9.91668e-18)
(0.10227 0.0883197 -8.97513e-18)
(0.0899371 0.0931686 -9.08051e-18)
(0.0770911 0.0977432 -4.72946e-18)
(0.0650526 0.103771 -1.53201e-18)
(0.0522447 0.106918 -1.71869e-18)
(0.0408282 0.113277 -1.22973e-18)
(0.0275774 0.115292 -8.63944e-19)
(0.0192189 0.125398 -3.46075e-19)
(1.5 -4.03264e-09 -7.18835e-21)
(1.5 -9.11413e-09 -8.65914e-21)
(1.5 -1.01903e-08 -8.15235e-21)
(1.50001 -7.60567e-09 -1.85477e-20)
(1.50001 -3.49108e-09 -2.55467e-20)
(1.50001 1.88937e-09 -2.52575e-20)
(1.50001 4.25033e-09 -1.44553e-20)
(1.50002 1.06463e-09 -2.96082e-20)
(1.50003 9.33899e-09 -2.6628e-20)
(1.50004 -1.35744e-09 -3.37483e-20)
(1.50005 -1.04262e-08 -2.76674e-20)
(1.50006 -2.07585e-08 -3.47938e-20)
(1.50008 -2.38542e-07 -2.05545e-20)
(1.5001 -5.041e-07 -2.80786e-20)
(1.50012 -2.6381e-07 -2.32304e-20)
(1.50014 1.46633e-07 -3.86816e-20)