/*--------------------------------*- C++ -*----------------------------------*\
| =========                 |                                                 |
| \\      /  F ield         | OpenFOAM: The Open Source CFD Toolbox           |
|  \\    /   O peration     | Version:  2.2.x                                 |
|   \\  /    A nd           | Web:      www.OpenFOAM.org                      |
|    \\/     M anipulation  |                                                 |
\*---------------------------------------------------------------------------*/
FoamFile
{
    version     2.0;
    format      ascii;
    class       volScalarField;
    location    "1";
    object      By;
}
// * * * * * * * * * * * * * * * * * * * * * * * * * * * * * * * * * * * * * //

dimensions      [1 0 -2 0 0 -1 0];

internalField   nonuniform List<scalar> 
14161
(
-6.01686e-07
6.1096e-08
-5.24693e-08
4.07934e-10
3.9285e-08
6.78654e-08
1.32206e-07
1.37928e-07
2.31336e-07
2.81214e-07
3.86351e-07
4.85705e-07
6.59188e-07
8.05119e-07
1.00113e-06
1.05203e-06
2.92051e-06
6.33106e-07
3.92345e-06
2.66485e-06
-1.23334e-06
8.70963e-06
8.5549e-07
4.62037e-06
4.86801e-06
9.47178e-06
1.23503e-05
9.71632e-06
1.61243e-05
1.24436e-05
1.85821e-05
1.15186e-05
4.48082e-06
-2.23455e-05
-3.25767e-05
-7.24958e-05
-0.00012364
-0.000201708
-0.0003114
-0.000491398
-0.00071393
-0.00106025
-0.0017601
-0.00264222
-0.00563435
-0.00893412
-0.0393845
-0.0833223
-0.0354335
-0.0204376
-0.0170092
-0.0145292
-0.011592
-0.0112143
-0.00823972
-0.00895462
-0.00893254
-0.00921394
-0.00793573
-0.00713525
-0.0049407
-0.00271978
-0.00102283
0.000325773
0.00132176
0.000784635
0.000518045
0.000395432
-0.000163109
-0.000707285
-0.000786959
-0.000550234
0.000400839
0.00190583
0.00360376
0.00487817
0.00232272
0.00024581
-0.00194752
0.00759285
0.0319361
0.0529181
0.0740592
0.0935356
0.072607
0.0676876
0.0495412
0.0457073
0.0341864
0.0307233
0.0268924
0.0152955
0.00250867
-0.00226039
-0.00898854
-0.0118451
-0.0139928
-0.00990338
-0.00514311
-0.0042449
-0.00360279
-0.00407635
-0.00448966
-0.00236636
-0.000798151
0.00113553
0.00171006
0.00261379
0.00291947
0.0042964
0.00585061
0.00899764
0.0100375
0.0136948
0.0148491
0.0186128
0.021921
0.0225954
0.0274877
-1.01999e-06
-1.15667e-08
-1.14087e-07
8.98318e-08
1.96323e-07
3.76573e-07
4.62679e-07
6.64909e-07
7.61363e-07
1.06943e-06
1.19948e-06
1.66912e-06
1.85822e-06
2.42951e-06
2.72682e-06
3.06215e-06
5.53888e-06
-4.00524e-06
8.08838e-06
2.23464e-05
-1.23426e-05
2.40269e-05
5.84999e-06
6.78568e-06
2.48141e-05
1.07725e-05
2.35597e-05
2.0351e-05
1.28416e-05
4.49468e-05
4.0472e-05
4.17024e-05
5.2389e-05
4.81518e-05
9.63859e-05
0.000125029
0.000172935
0.000241241
0.000364181
0.000524327
0.00068369
0.000826997
0.000873405
0.000539097
-0.00113719
-0.00424931
-0.0258344
-0.0917438
-0.000812572
0.0155292
0.0111718
0.00748747
0.00562458
0.00264956
0.000861804
-0.00225643
-0.0042761
-0.00525769
-0.00577153
-0.00464541
-0.00276734
0.000530343
0.00274923
0.00567411
0.00771086
0.00722749
0.00674716
0.00631944
0.00567602
0.00564447
0.00602061
0.00695077
0.00886537
0.013742
0.0172853
0.0155263
0.0182707
0.0216865
0.0292849
0.0387943
0.0721066
0.103299
0.157105
0.20897
0.19047
0.205715
0.160733
0.142389
0.103397
0.0729615
0.0390042
0.0205061
0.00460824
-0.00383732
-0.0101345
-0.013932
-0.0161893
-0.0160596
-0.0140003
-0.012862
-0.0112559
-0.00955777
-0.00648947
-0.00453306
-0.00292973
-0.00153472
0.000234268
0.00327311
0.00825307
0.0138471
0.0188012
0.0278015
0.03061
0.041163
0.0447921
0.0561426
0.0634353
0.0692952
0.0794431
-1.53865e-06
-5.47897e-08
-2.38789e-07
4.00554e-08
2.02961e-07
3.83709e-07
5.89343e-07
7.36408e-07
1.03916e-06
1.33849e-06
1.73918e-06
2.20726e-06
2.92957e-06
3.56185e-06
4.54812e-06
5.0117e-06
9.52759e-06
2.77474e-07
1.64014e-05
2.38874e-05
-1.07574e-05
3.87086e-05
1.32254e-05
2.64626e-05
3.00181e-05
2.48832e-05
5.33112e-05
3.5044e-05
4.53825e-05
6.20645e-05
7.06893e-05
6.19773e-05
4.72486e-05
2.66159e-05
2.62228e-05
-7.18622e-06
-4.26823e-05
-0.000114119
-0.000192188
-0.000320849
-0.000488522
-0.000728042
-0.000986632
-0.00143296
-0.00221374
-0.00324331
-0.00133009
0.0135669
-0.025303
-0.0595525
-0.0747084
-0.0847609
-0.079939
-0.0763454
-0.0719319
-0.0635126
-0.0569498
-0.0484791
-0.0412729
-0.0326209
-0.0244802
-0.0169356
-0.0103116
-0.0048949
-0.00294942
-0.000991499
-0.000211085
-0.000299506
-5.2869e-05
0.000495189
0.001024
0.00261992
0.00642924
0.0135685
0.0209123
0.0284549
0.0410051
0.0479784
0.070145
0.0916894
0.149971
0.207955
0.260727
0.320997
0.311494
0.324482
0.270004
0.238417
0.171905
0.1235
0.0831528
0.0545637
0.0241883
0.000912481
-0.017724
-0.026219
-0.0281667
-0.0258679
-0.0217948
-0.0184351
-0.0148002
-0.0120542
-0.00812409
-0.0060428
-0.00321447
-0.00106683
0.00178632
0.00533047
0.0121412
0.020956
0.0300457
0.0447641
0.0513686
0.0686786
0.076817
0.094623
0.10616
0.114572
0.130898
-1.65439e-06
-1.54069e-07
-3.15127e-07
1.49428e-07
3.84298e-07
7.45915e-07
9.86504e-07
1.38378e-06
1.68509e-06
2.36168e-06
2.72253e-06
3.84661e-06
4.33225e-06
6.01106e-06
6.65035e-06
8.18043e-06
1.51779e-05
1.26255e-06
1.69294e-05
3.79811e-05
-3.27666e-06
5.05038e-05
2.33528e-05
3.32279e-05
3.54419e-05
3.55047e-05
6.80151e-05
4.82359e-05
4.33601e-05
9.08719e-05
9.83842e-05
0.000110339
0.000109998
0.000109552
0.000137361
0.000151917
0.000199015
0.000257883
0.000369169
0.000515822
0.000766894
0.00112149
0.0020037
0.00303422
0.00558927
0.00870049
0.0371784
0.158359
-0.0286389
-0.134887
-0.144454
-0.142027
-0.127294
-0.111044
-0.100035
-0.0845487
-0.0738542
-0.0612212
-0.0513222
-0.0399422
-0.0291721
-0.0216313
-0.0149611
-0.0102097
-0.00729383
-0.0049117
-0.00389418
-0.00334076
-0.00206785
-0.000450102
0.00135551
0.0038072
0.00846124
0.0170463
0.0277711
0.038515
0.0548952
0.0707332
0.10167
0.144106
0.220057
0.294838
0.350059
0.387177
0.380918
0.386804
0.351557
0.326984
0.263767
0.213893
0.144434
0.0890737
0.0380926
0.00494917
-0.0167255
-0.0263884
-0.031473
-0.0327599
-0.0308331
-0.028088
-0.0233844
-0.0186635
-0.0129123
-0.00714465
-0.0021979
0.000330955
0.0041368
0.00971938
0.019557
0.0329419
0.0469506
0.0674137
0.0789654
0.101857
0.113464
0.136334
0.148179
0.159918
0.177643
-1.87263e-06
-1.92431e-07
-4.19808e-07
9.56039e-08
3.66908e-07
7.23046e-07
1.05121e-06
1.39227e-06
1.87129e-06
2.47358e-06
3.20395e-06
3.99886e-06
5.46125e-06
6.37369e-06
8.42032e-06
9.82549e-06
1.48808e-05
9.87855e-06
2.11609e-05
3.59139e-05
5.3539e-06
5.05894e-05
3.40005e-05
3.76918e-05
4.49913e-05
5.4837e-05
9.14615e-05
6.91194e-05
8.16458e-05
9.53118e-05
0.000135968
0.000124611
0.000109204
0.000108564
9.94253e-05
8.30052e-05
5.87378e-05
1.82289e-05
-4.23202e-05
-0.000116912
-5.8032e-05
-0.000125544
0.00045038
0.000741446
0.00290927
0.00716958
0.0267915
0.126417
0.011989
-0.126203
-0.149662
-0.14593
-0.13518
-0.124954
-0.111719
-0.0976621
-0.0880589
-0.0760746
-0.0680149
-0.0543522
-0.0443835
-0.0348941
-0.026141
-0.0200986
-0.0154167
-0.0117952
-0.00931015
-0.00783968
-0.00720369
-0.00613946
-0.00424887
-7.68258e-05
0.00653464
0.0148597
0.0281598
0.0445886
0.0608463
0.0885802
0.131023
0.195008
0.277776
0.355259
0.389363
0.431663
0.43551
0.454608
0.439289
0.434641
0.385522
0.319214
0.232748
0.148851
0.0744805
0.0224152
-0.014792
-0.0325582
-0.0400257
-0.0403501
-0.0363678
-0.0318246
-0.0261719
-0.0202763
-0.0129101
-0.0070227
0.000254771
0.0039515
0.00973327
0.0171164
0.0306864
0.0474603
0.0642936
0.0890588
0.103731
0.13377
0.146777
0.175158
0.187478
0.200152
0.22208
-1.78581e-06
-2.37544e-07
-4.61333e-07
2.08974e-07
5.53336e-07
1.0922e-06
1.4897e-06
2.08309e-06
2.62168e-06
3.62781e-06
4.35524e-06
5.9696e-06
7.10461e-06
9.42446e-06
1.10943e-05
1.36624e-05
2.04269e-05
1.72593e-05
1.97504e-05
3.51888e-05
3.07515e-05
4.46381e-05
5.23929e-05
5.68312e-05
4.21458e-05
8.82421e-05
9.45318e-05
0.000107755
8.87289e-05
0.000126828
0.000166844
0.000169711
0.000163399
0.000167093
0.000174177
0.000176288
0.000175746
0.000181947
0.000193522
0.000148218
0.000206058
0.000212814
0.00036504
0.000619051
0.000717253
0.000240401
-0.00875252
-0.053409
-0.137362
-0.130989
-0.126948
-0.126885
-0.124739
-0.122162
-0.108984
-0.0954056
-0.0872285
-0.0754033
-0.0697439
-0.0551522
-0.0453223
-0.0324237
-0.0249268
-0.0177968
-0.0133934
-0.00992309
-0.00774179
-0.00697861
-0.00636642
-0.00636926
-0.00501981
-0.001224
0.00542203
0.0137028
0.0265825
0.0449192
0.0672738
0.109165
0.166315
0.25609
0.338583
0.409101
0.439216
0.470923
0.479188
0.503012
0.499459
0.497741
0.466993
0.434181
0.358069
0.249438
0.132209
0.0469931
-0.004375
-0.0292072
-0.0397329
-0.0395559
-0.0369615
-0.032661
-0.025654
-0.0194567
-0.0114027
-0.00554872
0.00266238
0.00860888
0.0179041
0.0279949
0.044008
0.0654208
0.0878862
0.118759
0.135979
0.170454
0.181968
0.213509
0.226296
0.240025
0.262523
-1.79955e-06
-2.24175e-07
-5.08907e-07
1.59895e-07
5.1563e-07
1.03758e-06
1.48106e-06
2.02582e-06
2.69617e-06
3.57826e-06
4.71518e-06
5.76036e-06
8.12936e-06
9.07714e-06
1.24619e-05
1.57809e-05
1.71748e-05
2.40207e-05
2.45661e-05
3.77999e-05
5.46519e-05
3.10862e-05
5.98469e-05
6.70058e-05
4.65222e-05
0.000131455
9.88804e-05
0.000129851
0.000102671
0.000132943
0.000201627
0.000200777
0.000173899
0.000209083
0.00018714
0.000192488
0.000159487
0.000138187
5.21348e-05
-0.000102206
-0.000253567
-0.000524128
-0.00105475
-0.00176216
-0.00287878
-0.00879959
-0.0438938
-0.23083
-0.227929
-0.14462
-0.119481
-0.11889
-0.121304
-0.126332
-0.11506
-0.102941
-0.0962958
-0.0836822
-0.0791479
-0.0650544
-0.0541265
-0.0410156
-0.0325961
-0.0236066
-0.0176508
-0.0129814
-0.0100089
-0.00919181
-0.00943283
-0.00955807
-0.00835009
-0.00445114
0.00293651
0.0139672
0.0302524
0.0533167
0.0815072
0.131622
0.213537
0.313388
0.384687
0.447241
0.480693
0.519731
0.536451
0.556962
0.557698
0.558518
0.541825
0.522091
0.465804
0.369853
0.223959
0.100019
0.0173912
-0.0213435
-0.0392553
-0.0408113
-0.0349265
-0.028493
-0.0190277
-0.012772
-0.00433967
0.00110011
0.0109462
0.0195852
0.0324474
0.0427048
0.0604319
0.0826481
0.107928
0.142084
0.162754
0.202542
0.215087
0.250694
0.262636
0.277985
0.300835
-1.60771e-06
-1.83211e-07
-4.92e-07
2.79484e-07
7.04469e-07
1.40231e-06
1.96066e-06
2.73827e-06
3.55362e-06
4.82778e-06
6.08829e-06
7.92813e-06
1.01094e-05
1.25966e-05
1.54326e-05
1.97609e-05
1.89135e-05
3.94463e-05
3.00639e-05
2.91388e-05
7.00237e-05
4.32616e-05
6.64711e-05
0.000105299
6.09317e-05
0.000137766
8.90065e-05
0.000189613
0.000114206
0.000202127
0.000253222
0.000229192
0.000209196
0.000244954
0.000244347
0.000231644
0.000202559
0.000145707
1.63667e-05
-0.000102833
-0.000363233
-0.000938414
-0.00162014
-0.003057
-0.00568521
-0.0120636
-0.0537573
-0.246247
-0.263363
-0.243429
-0.18643
-0.182405
-0.16935
-0.167236
-0.151203
-0.141043
-0.127817
-0.111006
-0.10182
-0.0822585
-0.0660834
-0.0501051
-0.0391504
-0.0286026
-0.0203607
-0.0149313
-0.0118387
-0.0111062
-0.011267
-0.0112727
-0.0099688
-0.00623022
0.00145064
0.0140269
0.0330525
0.0618211
0.102592
0.176848
0.271453
0.367587
0.42629
0.481975
0.512085
0.546695
0.563627
0.586055
0.59311
0.596767
0.589558
0.576798
0.538273
0.472114
0.342721
0.171018
0.0532435
-0.00144529
-0.0250959
-0.028979
-0.0206755
-0.0137464
-0.00428985
0.00200104
0.0111137
0.0162994
0.0279987
0.0368668
0.0497683
0.0584789
0.075633
0.0985202
0.128653
0.168698
0.19276
0.233637
0.247041
0.287121
0.297472
0.313526
0.335413
-1.4961e-06
-1.05576e-07
-4.68458e-07
2.5514e-07
6.65819e-07
1.32064e-06
1.90533e-06
2.62963e-06
3.5387e-06
4.67586e-06
6.24563e-06
7.59746e-06
1.07568e-05
1.22136e-05
1.65354e-05
2.15677e-05
2.11391e-05
3.64263e-05
3.60478e-05
3.66592e-05
7.86184e-05
5.36314e-05
5.27575e-05
0.000132012
7.13543e-05
0.000154408
9.36382e-05
0.000190767
0.00014258
0.00023239
0.000252526
0.000299946
0.000232095
0.000343355
0.000318642
0.00035151
0.000330766
0.000343274
0.000305102
0.000179355
-2.21697e-05
-0.00036706
-0.000910368
-0.0017999
-0.00299138
-0.0072808
-0.0290816
-0.172741
-0.285687
-0.316226
-0.27774
-0.261812
-0.226647
-0.21682
-0.190491
-0.180826
-0.157759
-0.13614
-0.119417
-0.0944427
-0.0763655
-0.057866
-0.0456434
-0.033996
-0.0260349
-0.0189024
-0.0151476
-0.0147487
-0.0145034
-0.0140803
-0.0120771
-0.00767451
0.0010102
0.0152788
0.0385177
0.0761763
0.135554
0.22853
0.323336
0.411511
0.461796
0.51114
0.540399
0.572681
0.590139
0.609015
0.617347
0.62191
0.61741
0.605185
0.577496
0.529954
0.424404
0.252555
0.0988715
0.0181978
-0.0116939
-0.0129469
-0.00144194
0.00559576
0.0165814
0.0242612
0.0356214
0.0412292
0.0541162
0.0636133
0.0778591
0.0847131
0.102117
0.122971
0.150542
0.187379
0.21811
0.263428
0.278695
0.32093
0.329661
0.347616
0.367773
-1.23323e-06
2.04861e-08
-3.85795e-07
3.88391e-07
8.54581e-07
1.66215e-06
2.39889e-06
3.3472e-06
4.46716e-06
5.96015e-06
7.82779e-06
9.8358e-06
1.31814e-05
1.59562e-05
1.96675e-05
2.61703e-05
2.53902e-05
4.31871e-05
5.36514e-05
3.67678e-05
7.38305e-05
8.03254e-05
5.59832e-05
0.000131023
0.000123194
0.000129137
0.000156877
0.000165945
0.000247329
0.000219634
0.000312228
0.000308743
0.000276614
0.000326019
0.000378205
0.000399594
0.000403154
0.000395069
0.000381213
0.000344466
0.000374809
0.000293929
0.000380886
8.62006e-05
0.00136302
-0.00072642
-0.0105802
-0.0746334
-0.294435
-0.408468
-0.395201
-0.363728
-0.313131
-0.288105
-0.24645
-0.226349
-0.192208
-0.167509
-0.135054
-0.107092
-0.0879739
-0.0672615
-0.0527296
-0.040265
-0.0319969
-0.0248532
-0.0202228
-0.0189091
-0.0185482
-0.0184125
-0.0164741
-0.0115334
-0.00208606
0.0147581
0.0423033
0.0899767
0.176068
0.28331
0.371402
0.449209
0.498079
0.540298
0.561398
0.586721
0.599014
0.615463
0.622419
0.628317
0.62477
0.615781
0.595306
0.55492
0.470599
0.329029
0.156311
0.0630431
0.0341192
0.0393488
0.0493769
0.0544169
0.0624344
0.0658909
0.0748027
0.0786379
0.0884811
0.0931938
0.105117
0.109751
0.126377
0.146977
0.173371
0.208855
0.240729
0.287611
0.307716
0.354356
0.360617
0.380374
0.397505
-1.06578e-06
1.55926e-07
-2.88551e-07
3.98115e-07
8.34879e-07
1.55139e-06
2.35303e-06
3.16094e-06
4.44033e-06
5.69781e-06
7.82627e-06
9.49081e-06
1.31985e-05
1.55148e-05
2.06853e-05
2.52353e-05
3.19618e-05
3.84689e-05
5.18608e-05
5.05839e-05
7.11144e-05
0.000101664
8.17165e-05
9.88799e-05
0.000152823
0.000116308
0.000174461
0.000212037
0.000273286
0.000231623
0.000342308
0.000351142
0.000348579
0.000432141
0.000526794
0.00058768
0.000625452
0.000667018
0.000766407
0.000929282
0.00114321
0.0014258
0.00174632
0.00254592
0.00398995
0.00406664
-0.00491247
-0.0400883
-0.31623
-0.484064
-0.476696
-0.439806
-0.3846
-0.346347
-0.298731
-0.268435
-0.227657
-0.19799
-0.157973
-0.126345
-0.0957174
-0.0703706
-0.0557372
-0.043705
-0.0353758
-0.0291086
-0.0242775
-0.0222483
-0.0225793
-0.0222941
-0.0197475
-0.0150283
-0.00428276
0.0154333
0.0498402
0.117007
0.228666
0.341376
0.417631
0.481352
0.519479
0.556121
0.578033
0.601807
0.614344
0.62562
0.628
0.629933
0.624991
0.61885
0.602736
0.571983
0.507335
0.392762
0.237381
0.141003
0.111279
0.112884
0.114806
0.113435
0.115459
0.113868
0.118113
0.120082
0.125354
0.12987
0.139534
0.143133
0.157098
0.171849
0.19568
0.228253
0.261253
0.308864
0.334626
0.382979
0.39
0.414684
0.426695
-7.59549e-07
3.5125e-07
-1.39382e-07
5.45112e-07
1.01676e-06
1.87372e-06
2.79902e-06
3.9088e-06
5.31783e-06
7.0759e-06
9.37655e-06
1.18914e-05
1.58185e-05
1.92616e-05
2.47984e-05
3.00205e-05
3.76276e-05
3.9299e-05
6.55335e-05
7.33199e-05
5.76145e-05
0.000109584
0.000129633
8.28203e-05
0.000179017
0.000168385
0.000186191
0.000205561
0.000277628
0.000317924
0.000334827
0.000372206
0.000408316
0.000407199
0.000491898
0.000565861
0.000663384
0.000731748
0.000847127
0.00105259
0.00132788
0.00190426
0.00244122
0.00404782
0.00595621
0.00507974
-0.0117569
-0.123789
-0.448425
-0.518607
-0.483923
-0.442565
-0.396054
-0.356472
-0.311295
-0.274222
-0.23335
-0.197313
-0.160592
-0.128978
-0.0942859
-0.0665302
-0.047525
-0.0350301
-0.0295755
-0.0244473
-0.0212985
-0.0203333
-0.021703
-0.0219802
-0.0208029
-0.0165855
-0.00430319
0.0210815
0.0678568
0.152134
0.279025
0.392741
0.464263
0.517545
0.546677
0.578226
0.595691
0.613999
0.620094
0.629291
0.632233
0.636902
0.633199
0.633597
0.62451
0.604738
0.560988
0.474612
0.34147
0.25008
0.213474
0.201671
0.193828
0.186856
0.180688
0.168273
0.162994
0.158794
0.159305
0.158366
0.167915
0.174094
0.187138
0.197684
0.216914
0.246753
0.280027
0.328086
0.359
0.410337
0.417679
0.44637
0.452555
-5.49313e-07
5.33587e-07
2.58354e-08
5.91917e-07
1.03736e-06
1.7369e-06
2.80061e-06
3.64059e-06
5.34142e-06
6.66665e-06
9.39121e-06
1.14022e-05
1.56044e-05
1.88637e-05
2.48441e-05
2.91154e-05
4.121e-05
3.72866e-05
5.95781e-05
9.04047e-05
6.58248e-05
0.000108358
0.000136803
9.57675e-05
0.000146753
0.000215106
0.000183564
0.000217462
0.000319169
0.000318671
0.000356098
0.000417953
0.000500933
0.000508448
0.000642961
0.000765329
0.000890755
0.000980609
0.00108833
0.00127199
0.00148551
0.00187206
0.00189375
0.00261068
0.00242119
-0.00252287
-0.0438696
-0.319066
-0.69197
-0.637924
-0.547177
-0.465424
-0.41545
-0.369198
-0.322818
-0.280463
-0.238166
-0.199896
-0.161544
-0.128824
-0.0944687
-0.0704476
-0.0450757
-0.0315116
-0.0262083
-0.0232618
-0.0195799
-0.018481
-0.0203936
-0.0210042
-0.0185171
-0.0135148
-0.000449215
0.0330104
0.10396
0.213763
0.337294
0.446094
0.507095
0.549404
0.572967
0.598638
0.611103
0.628271
0.633187
0.643117
0.643075
0.65201
0.652418
0.658237
0.657641
0.644254
0.606029
0.530861
0.424067
0.340407
0.294615
0.266959
0.246906
0.235966
0.230867
0.220777
0.214791
0.204493
0.19726
0.191056
0.195448
0.201926
0.216836
0.224252
0.238797
0.265727
0.298045
0.344915
0.38094
0.434122
0.444186
0.478117
0.478953
-2.29241e-07
7.76146e-07
2.28899e-07
7.60037e-07
1.20505e-06
2.05335e-06
3.14128e-06
4.43372e-06
6.05531e-06
8.18723e-06
1.06441e-05
1.41412e-05
1.78328e-05
2.30385e-05
2.86314e-05
3.49443e-05
4.49121e-05
4.89304e-05
5.78986e-05
9.98527e-05
8.36194e-05
9.88562e-05
0.000169879
0.000148244
0.000122556
0.000229526
0.000264484
0.000213553
0.000255877
0.000413406
0.000371771
0.000432674
0.000454476
0.000547297
0.000618167
0.000622131
0.000652877
0.000744401
0.000836509
0.000925685
0.000897008
0.00074733
0.000477626
-5.33673e-05
-0.00226472
-0.0136247
-0.101463
-0.538787
-0.767188
-0.731397
-0.624515
-0.522441
-0.47192
-0.404451
-0.363402
-0.303766
-0.254095
-0.206049
-0.164592
-0.128504
-0.0940469
-0.0677578
-0.0431506
-0.0255649
-0.0189571
-0.0174373
-0.0129119
-0.0120767
-0.0152852
-0.0169436
-0.0139504
-0.00730672
0.0121032
0.0620866
0.172616
0.312266
0.405828
0.494082
0.545568
0.58349
0.610757
0.631714
0.642354
0.659514
0.664441
0.672368
0.67515
0.688679
0.698019
0.705654
0.719127
0.711962
0.683021
0.612502
0.516342
0.435484
0.386084
0.345547
0.313158
0.290473
0.273117
0.257495
0.251348
0.242345
0.236671
0.226212
0.225234
0.22872
0.241516
0.249376
0.261377
0.285297
0.315768
0.360396
0.400768
0.456826
0.46961
0.506537
0.501899
2.66288e-09
9.83377e-07
4.44091e-07
8.4667e-07
1.27836e-06
1.93015e-06
3.13136e-06
4.19222e-06
6.01759e-06
7.82069e-06
1.05575e-05
1.36956e-05
1.74035e-05
2.27703e-05
2.7395e-05
3.68788e-05
4.23778e-05
5.3516e-05
5.93318e-05
9.04665e-05
0.000115486
8.79254e-05
0.000143708
0.000181463
0.00014716
0.000173499
0.000292801
0.000260648
0.000239438
0.000385735
0.000484022
0.000448328
0.000457309
0.000612177
0.000782658
0.000808053
0.000794007
0.000907004
0.00101348
0.00132949
0.00132946
0.00159026
0.00140737
0.00204382
-0.000669328
-0.0200747
-0.183018
-0.694727
-0.809405
-0.801134
-0.737856
-0.636004
-0.562537
-0.470774
-0.405247
-0.330383
-0.272985
-0.21614
-0.169674
-0.126799
-0.0894907
-0.0634126
-0.040821
-0.0226602
-0.0141893
-0.012378
-0.00865971
-0.00887761
-0.00977242
-0.0127713
-0.000633849
0.0230084
0.0609814
0.148273
0.300744
0.433226
0.489879
0.555311
0.585152
0.618126
0.640901
0.655039
0.667654
0.687642
0.70004
0.716089
0.725148
0.75121
0.776379
0.794237
0.802592
0.785711
0.739197
0.666683
0.573957
0.489123
0.434609
0.394304
0.363762
0.338893
0.317114
0.296733
0.287269
0.276346
0.27055
0.261311
0.256765
0.257169
0.26588
0.27321
0.283872
0.305325
0.333631
0.374857
0.418387
0.477254
0.493375
0.533489
0.526069
3.19852e-07
1.25512e-06
6.83069e-07
1.04518e-06
1.42161e-06
2.24634e-06
3.37671e-06
4.93914e-06
6.62892e-06
9.2416e-06
1.16293e-05
1.62192e-05
1.9251e-05
2.67182e-05
3.09271e-05
4.20453e-05
4.72865e-05
6.01455e-05
7.19308e-05
8.32132e-05
0.000123324
0.000124199
0.00013382
0.000200177
0.000205377
0.000170158
0.00029276
0.00033683
0.000268281
0.000328959
0.0004392
0.000554646
0.000517627
0.000455888
0.00059857
0.000752224
0.000793848
0.000803159
0.000584068
0.000671748
0.000835552
0.000669482
8.86173e-05
-0.00109458
-0.00708082
-0.0469927
-0.349157
-0.798884
-0.831108
-0.831693
-0.80374
-0.746508
-0.674663
-0.559681
-0.466072
-0.364837
-0.299775
-0.229549
-0.173295
-0.123422
-0.0835163
-0.0578677
-0.0357395
-0.0237007
-0.0131369
-0.00998768
0.00412759
0.00990027
0.0259666
0.0323852
0.0766497
0.157171
0.271723
0.384508
0.458874
0.543682
0.577369
0.621029
0.649542
0.67464
0.695673
0.71523
0.73341
0.752583
0.768061
0.784205
0.794868
0.816286
0.832811
0.842536
0.83568
0.814192
0.768719
0.698057
0.609385
0.532542
0.479544
0.432945
0.399936
0.374905
0.35443
0.336489
0.323778
0.308945
0.300269
0.290965
0.285692
0.283671
0.289676
0.296487
0.306648
0.325477
0.351058
0.389349
0.434551
0.495336
0.51774
0.559191
0.547065
5.56548e-07
1.46422e-06
9.18815e-07
1.16715e-06
1.52525e-06
2.20118e-06
3.28835e-06
4.83155e-06
6.43067e-06
9.05737e-06
1.14403e-05
1.58358e-05
1.93397e-05
2.58013e-05
3.09704e-05
4.12051e-05
4.64837e-05
6.20426e-05
7.50818e-05
7.91047e-05
0.000126383
0.000148237
0.000102892
0.000185874
0.000241219
0.00019324
0.000211814
0.000330345
0.000386884
0.000282489
0.00037186
0.000568611
0.000624169
0.000502629
0.0004892
0.000815061
0.00101391
0.000849619
0.000908114
0.000589806
0.000580351
0.00105256
0.00110727
-4.77355e-05
-0.0100333
-0.0958195
-0.541613
-0.822199
-0.859592
-0.861297
-0.848736
-0.823085
-0.771024
-0.675407
-0.579387
-0.449254
-0.360802
-0.259799
-0.182098
-0.118996
-0.0698639
-0.0485889
-0.0213438
-0.00637096
0.0166087
0.0278072
0.067895
0.136992
0.235939
0.276452
0.318296
0.395908
0.45328
0.519163
0.551505
0.597095
0.624584
0.655018
0.679068
0.704819
0.724766
0.742763
0.760249
0.780048
0.79782
0.816195
0.831225
0.84579
0.8552
0.854002
0.841357
0.814895
0.772052
0.709518
0.632833
0.560053
0.509089
0.470037
0.441354
0.412821
0.388687
0.368085
0.352776
0.337815
0.328882
0.319344
0.314022
0.310261
0.31358
0.319444
0.329266
0.345715
0.368474
0.404119
0.449064
0.5118
0.538957
0.582991
0.568488
8.55816e-07
1.74334e-06
1.16807e-06
1.4e-06
1.65683e-06
2.48436e-06
3.48889e-06
5.38592e-06
7.03332e-06
1.00295e-05
1.26565e-05
1.74425e-05
2.14434e-05
2.81803e-05
3.50702e-05
4.35555e-05
5.66505e-05
6.11804e-05
8.62388e-05
9.27955e-05
0.000107045
0.00016696
0.000147602
0.000146892
0.000251507
0.000268479
0.000199875
0.000311189
0.000401695
0.000381964
0.000311514
0.000495124
0.000587279
0.00055627
0.000471846
0.000409329
0.000638816
0.000893847
0.000875031
0.000570748
0.000733196
0.00109763
0.00205714
-0.000368005
-0.0183301
-0.184142
-0.704789
-0.83937
-0.867658
-0.869074
-0.863742
-0.853029
-0.828805
-0.784368
-0.709357
-0.573314
-0.448093
-0.299521
-0.187775
-0.101238
-0.0246297
-0.00261178
0.0426315
0.101766
0.20231
0.264846
0.307972
0.377967
0.427027
0.472095
0.483204
0.520931
0.547575
0.583774
0.605991
0.636353
0.656028
0.676481
0.694838
0.713217
0.731974
0.751109
0.769506
0.784481
0.798255
0.812042
0.825164
0.83847
0.845705
0.842648
0.827929
0.803186
0.765413
0.713232
0.646839
0.584092
0.534182
0.494715
0.466866
0.440503
0.420162
0.39708
0.380469
0.365734
0.355614
0.345207
0.34001
0.335158
0.337028
0.342059
0.351537
0.365837
0.386364
0.419256
0.463451
0.527944
0.559429
0.605751
0.587968
1.08605e-06
1.94298e-06
1.39308e-06
1.55766e-06
1.7626e-06
2.53232e-06
3.37967e-06
5.27963e-06
6.94899e-06
9.62399e-06
1.29253e-05
1.64321e-05
2.25648e-05
2.59983e-05
3.7032e-05
4.05367e-05
5.71797e-05
6.56542e-05
7.47521e-05
0.000108748
0.000101005
0.000137663
0.000184915
0.000140841
0.00019028
0.00029399
0.000264854
0.000217467
0.000361449
0.000447776
0.000408151
0.000304463
0.000491007
0.000660042
0.000651475
0.000310273
0.000582749
0.000834537
0.000759546
0.000669218
0.000366692
-7.19849e-05
-0.00101729
-0.00825239
-0.0505927
-0.360897
-0.821318
-0.856721
-0.865499
-0.868041
-0.868982
-0.869112
-0.86122
-0.844669
-0.798931
-0.714043
-0.571355
-0.369607
-0.163612
-0.0173896
0.0782973
0.213644
0.256833
0.33933
0.409348
0.455791
0.472058
0.505513
0.528809
0.552639
0.567121
0.592109
0.606893
0.627218
0.637819
0.653883
0.669631
0.685847
0.701237
0.715689
0.730224
0.743493
0.758604
0.773601
0.789001
0.802223
0.812763
0.822281
0.82733
0.823569
0.809796
0.787199
0.756203
0.712867
0.656697
0.602735
0.556949
0.520117
0.490899
0.465527
0.446218
0.423135
0.407879
0.39357
0.381203
0.369558
0.364529
0.359221
0.359889
0.364122
0.373151
0.385482
0.403692
0.434387
0.476743
0.54272
0.577134
0.626578
0.607495
1.36306e-06
2.20585e-06
1.62418e-06
1.79706e-06
1.90757e-06
2.7499e-06
3.56691e-06
5.59178e-06
7.58338e-06
1.01442e-05
1.42382e-05
1.73107e-05
2.45721e-05
2.81481e-05
3.93091e-05
4.49543e-05
6.18473e-05
7.38359e-05
7.55828e-05
0.000114012
0.000124251
0.000119284
0.000196742
0.000205377
0.000151776
0.000258593
0.000338301
0.000251115
0.000255601
0.00044478
0.000475678
0.000324975
0.000336749
0.00048253
0.000554506
0.000596127
0.000126545
-3.78939e-06
0.000274812
0.00035123
0.00043751
0.000207633
-0.00190983
-0.0139423
-0.10668
-0.566525
-0.848939
-0.879908
-0.884279
-0.882482
-0.884758
-0.886283
-0.882573
-0.871537
-0.839902
-0.774432
-0.635649
-0.366973
-0.0246353
0.242683
0.330149
0.404244
0.478295
0.514161
0.531577
0.546417
0.573951
0.597591
0.606605
0.619012
0.622987
0.635224
0.639915
0.653151
0.660384
0.67142
0.683246
0.694596
0.707144
0.718034
0.72972
0.740161
0.750229
0.760253
0.771939
0.782612
0.792225
0.800008
0.802838
0.800076
0.789302
0.770532
0.745159
0.709311
0.662586
0.614762
0.569713
0.537178
0.510004
0.488958
0.470449
0.448142
0.433924
0.418077
0.40399
0.39237
0.387957
0.38245
0.382367
0.385706
0.394083
0.404894
0.421567
0.449994
0.491082
0.557566
0.594495
0.646404
0.625249
1.57584e-06
2.38508e-06
1.81774e-06
1.97591e-06
2.00094e-06
2.82202e-06
3.59404e-06
5.28852e-06
7.71147e-06
9.59898e-06
1.41749e-05
1.69491e-05
2.38626e-05
2.75917e-05
3.81291e-05
4.54458e-05
5.64466e-05
8.09696e-05
7.24445e-05
9.13363e-05
0.000139437
0.000108166
0.000141339
0.000235864
0.000185404
0.000168
0.000312938
0.000347532
0.000218422
0.000282394
0.000474317
0.000476349
0.000230331
0.000274944
0.000611882
0.00069928
0.000289795
0.000256257
0.000519696
0.0011789
0.000742272
0.000931324
-0.00337669
-0.0288478
-0.22698
-0.753198
-0.858938
-0.878062
-0.883116
-0.887357
-0.889678
-0.889618
-0.887127
-0.876674
-0.84505
-0.754343
-0.525155
-0.0813117
0.27448
0.407488
0.482172
0.54839
0.572741
0.58476
0.596069
0.61482
0.62903
0.637518
0.639822
0.646191
0.649592
0.659507
0.659595
0.666849
0.674465
0.679171
0.689913
0.698813
0.709055
0.718248
0.728344
0.738067
0.745251
0.751709
0.759486
0.76629
0.772566
0.778702
0.781226
0.780189
0.773559
0.759273
0.738644
0.708645
0.669444
0.627118
0.587538
0.557766
0.529689
0.510023
0.490982
0.470799
0.458174
0.440606
0.426037
0.415148
0.410911
0.404701
0.403612
0.406038
0.413637
0.423226
0.438416
0.465118
0.504203
0.570902
0.609948
0.664573
0.642493
1.82288e-06
2.6191e-06
2.00952e-06
2.17665e-06
2.17161e-06
2.96749e-06
3.76041e-06
5.46603e-06
8.04671e-06
1.00392e-05
1.48355e-05
1.79991e-05
2.44773e-05
3.08026e-05
3.72757e-05
5.33244e-05
5.25838e-05
8.36727e-05
9.61101e-05
7.34578e-05
0.00013551
0.000161804
0.000109382
0.000205838
0.000271812
0.000160359
0.000208732
0.00037187
0.000342852
0.00018011
0.000309415
0.000470939
0.000441698
0.00016738
0.000184544
0.000387705
0.000375353
0.000353071
-0.000366897
-0.000423301
-0.00106595
-0.00277225
-0.0119577
-0.0688644
-0.441464
-0.844334
-0.877632
-0.886016
-0.889537
-0.89102
-0.890794
-0.888213
-0.878595
-0.852405
-0.78197
-0.595352
-0.174532
0.231363
0.415654
0.507734
0.573601
0.604519
0.61562
0.621134
0.635313
0.650448
0.659645
0.661613
0.663244
0.66983
0.672158
0.678393
0.682419
0.687378
0.696571
0.699559
0.709964
0.714156
0.720405
0.722935
0.727447
0.733253
0.740685
0.748171
0.751451
0.753644
0.757832
0.763958
0.766214
0.764843
0.759979
0.7488
0.731684
0.70655
0.672669
0.633395
0.600319
0.573622
0.547071
0.528146
0.509188
0.491256
0.479304
0.46177
0.447988
0.437905
0.433108
0.426141
0.424149
0.425726
0.432892
0.441665
0.455861
0.480797
0.518557
0.584922
0.625507
0.681834
0.658056
2.00892e-06
2.76664e-06
2.15344e-06
2.35095e-06
2.27424e-06
2.98404e-06
3.91949e-06
5.11226e-06
8.0565e-06
9.90468e-06
1.38228e-05
1.88391e-05
2.23413e-05
3.24022e-05
3.36343e-05
5.41469e-05
5.59211e-05
6.55967e-05
0.000107544
7.75533e-05
8.89831e-05
0.000177683
0.000138699
0.000123135
0.000263439
0.000253532
0.000131366
0.000253854
0.000397936
0.000269748
0.000131602
0.0002998
0.000503261
0.000289823
-4.4199e-05
0.000231712
0.000508788
0.00042766
0.000282764
0.000234278
0.0011392
-0.00138633
-0.018521
-0.159661
-0.665614
-0.868357
-0.892324
-0.893772
-0.893516
-0.892403
-0.889526
-0.881255
-0.85775
-0.794015
-0.627271
-0.23049
0.183765
0.410741
0.525805
0.585981
0.617604
0.628552
0.63774
0.650072
0.663905
0.673353
0.675506
0.675724
0.68047
0.689508
0.693584
0.696135
0.697329
0.700789
0.709572
0.713313
0.722907
0.723958
0.729995
0.729772
0.734637
0.738198
0.74191
0.741316
0.743793
0.747625
0.750115
0.75288
0.754996
0.754236
0.75085
0.742756
0.728163
0.706508
0.678427
0.644871
0.615968
0.587795
0.562159
0.543472
0.525849
0.510462
0.499571
0.483296
0.470032
0.459966
0.453673
0.445789
0.442933
0.443813
0.450752
0.458814
0.471944
0.495467
0.531387
0.597064
0.639268
0.697637
0.672958
2.21894e-06
2.96308e-06
2.30868e-06
2.47425e-06
2.44548e-06
3.1074e-06
3.96933e-06
5.23941e-06
8.02773e-06
1.03385e-05
1.37598e-05
1.94266e-05
2.25183e-05
3.25685e-05
3.56554e-05
4.98703e-05
6.77425e-05
5.77329e-05
9.73065e-05
0.000113446
6.70916e-05
0.000154549
0.000205367
0.000101523
0.000184435