/*--------------------------------*- C++ -*----------------------------------*\
| =========                 |                                                 |
| \\      /  F ield         | OpenFOAM: The Open Source CFD Toolbox           |
|  \\    /   O peration     | Version:  2.2.x                                 |
|   \\  /    A nd           | Web:      www.OpenFOAM.org                      |
|    \\/     M anipulation  |                                                 |
\*---------------------------------------------------------------------------*/
FoamFile
{
    version     2.0;
    format      ascii;
    class       volScalarField;
    location    "1";
    object      divBf;
}
// * * * * * * * * * * * * * * * * * * * * * * * * * * * * * * * * * * * * * //

dimensions      [1 -3 -2 0 0 -1 0];

internalField   nonuniform List<scalar> 
14161
(
834.482
318.335
367.413
333.266
319.81
304.066
295.719
289.62
288.797
290.981
297.238
306.569
318.105
332.613
346.211
362.784
375.657
388.097
403.499
398.547
404.75
403.31
374.214
356.857
310.464
263.506
196.784
125.986
45.4613
-35.3206
-98.6918
-141.434
-176.885
-178.223
-171.885
-112.729
-30.0812
79.5954
238.896
350.237
652.418
939.086
1543.03
2321.43
5021.79
-27585.8
1680.86
-135165
-66076.9
-14547.8
-32032.7
-27191.1
-31406.5
-29521.1
-30292.9
-28997.4
-28884.4
-28823.7
-27346.2
-26092.3
-23769.9
-22236.3
-20599.4
-18154.6
-16132.8
-16493.4
-14561.9
-12718.8
-11885.4
-9586.57
-7886.89
-6224.88
-4124.05
-2519.8
-511.925
1293.31
3725.58
3825.34
11038.1
11581.8
21654.1
16904.8
29489.5
27149.3
20651.4
26349.6
16936.2
15515.1
10715
7605.56
5135.75
3011.56
2345.36
1602.68
2041.55
2067.72
2315.01
2220.14
1982.99
1534.09
1203.13
587.147
118.372
-671.113
-1452.75
-2536.43
-3072.66
-4206.75
-4822.96
-5767.77
-6192.82
-6739.73
-5457.59
-7171.97
-1955.05
-7131.42
3999.38
-5933.77
10300.1
586.053
71.7614
121.001
86.116
70.9198
52.5492
40.621
30.0666
23.8424
19.7177
18.7753
19.8273
22.5058
26.5324
29.853
33.7156
35.3684
34.3502
30.4875
12.5174
4.91514
-8.10525
-56.3997
-92.857
-153.245
-215.67
-303.511
-387.98
-483.925
-581.55
-670.044
-752.645
-822.881
-869.387
-882.885
-878.205
-873.85
-865.104
-830.161
-836.907
-844.491
-780.321
-691.255
-939.088
-329.696
-27014.8
-22304.5
-32907.1
-76270
-22763.5
-38698.4
-30872.3
-34220.3
-31276.1
-30906.8
-30028.5
-29372.6
-26501.9
-27715.4
-24455.2
-22495.1
-22351.7
-17644.4
-18348
-17758.6
-13553.1
-13995.4
-12749.3
-9735.26
-8182.61
-6899.82
-4782.92
-2402.67
-342.381
2756.05
5282.66
6703.33
8779.8
11231.3
8842.19
15134.5
16355.2
33614.9
38368.8
31017.2
35400.5
24492.1
20064.8
13561.2
8688.52
5877.22
4394.95
3499.59
2570.32
2064.35
2222.83
2228.87
2069.58
1856.49
1554.08
1301.51
495.385
49.642
-1021.98
-1240.75
-2208.55
-2625.07
-3711.89
-4266.78
-5303.86
-5631.56
-6207.42
-5018.33
-6776.49
-1697.5
-6900.29
3910.17
-5878.37
9734.11
341.077
-168.302
-118
-152.101
-167.637
-187.136
-201.135
-214.565
-224.547
-233.238
-239.61
-244.803
-249.194
-253.099
-258.233
-263.945
-275
-284.902
-298.766
-321.689
-349.812
-379.118
-439.48
-483.556
-554.885
-640.856
-737.996
-834.676
-942.938
-1053.92
-1160.47
-1245.54
-1304.91
-1353.24
-1369.62
-1339.49
-1279.08
-1172.13
-1039.52
-852.127
-645.644
-538.649
-389.762
-797.962
-82.3084
-23336.2
-13664.7
-4854.47
-62737.3
-10922
-35424.4
-31824.3
-34464.1
-32359.3
-33213.7
-30040.1
-30014.1
-25528.4
-26242.4
-22043.3
-21447.1
-21404.1
-16600.7
-18542.6
-15321.3
-11476.8
-12589.7
-10076.5
-7615.86
-7474.87
-5503.64
-3399.71
-1842.09
-198.238
1757.11
5749.75
10180.6
12598.9
21281.7
23432.5
35696.9
33430.9
28525.9
31849.6
21917.9
30546.7
23080.8
24365.5
19282.6
15375.3
11371.1
7354.29
4673.39
3152.89
2554.43
2272.94
2221.75
2019.25
2003.97
1626.92
1409.94
780.626
310.712
-527.746
-1065.03
-1962.84
-2442.51
-3422.57
-3976.75
-5093.32
-5326.81
-6032.06
-4739.78
-6590.02
-1435.57
-6576.31
3889.22
-5551.15
8869.39
102.07
-400.807
-348.166
-380.178
-394.753
-414.072
-428.809
-443.715
-456.037
-467.772
-477.957
-487.853
-497.194
-507.809
-518.62
-533.014
-549.493
-568.847
-595.699
-623.496
-667.685
-702.375
-763.641
-828.191
-909.193
-1003.56
-1108.82
-1219.78
-1334.88
-1457.09
-1582.88
-1705.33
-1817.75
-1912.26
-1962.44
-2042.14
-2109.04
-2197.66
-2269.79
-2356.12
-2472.14
-2678.1
-2621.19
-3601.9
-3659.49
-22633.1
-23179.4
-24978
-49645.4
-35401.9
-45792.6
-40644.1
-37118.5
-34396.7
-29950.8
-27577.2
-23920
-21656.2
-22153.4
-17652.9
-18391.5
-15913.7
-14321.4
-15073.5
-11852
-10508.2
-10458.6
-7860.59
-6392.58
-5497.16
-3303.1
-1662.95
-224.431
1821.88
2889.08
5746.78
8546.24
10650.4
17202.7
18961.4
29384.3
31617.7
27781.2
31134.6
23528.4
32480.9
27972.8
36611.5
28182.5
23219.7
16891.2
10629.6
7100.82
4754.87
3569.26
2967.84
2688.87
2449.8
2151.62
1853.91
1530.59
963.523
478.597
-348.182
-865.431
-1893.64
-2300.34
-3474.28
-3803.41
-4850.15
-4827.65
-5605.09
-4163.53
-6072.12
-881.182
-6078.18
3708.5
-5481.42
7879.14
-130.427
-624.379
-568.568
-597.353
-609.92
-627.971
-642.344
-657.614
-671.111
-684.712
-697.51
-710.68
-723.956
-739.225
-755.081
-775.537
-797.381
-825.265
-860.202
-890.651
-932.864
-1006.25
-1053.74
-1135.59
-1217.86
-1329.07
-1433.19
-1558.21
-1683.69
-1804.32
-1930.89
-2050.14
-2126.45
-2200.87
-2243.7
-2245.85
-2195.18
-2092.34
-1925.32
-1685.02
-1319.34
-947.365
-122.187
742.975
3014.88
-16102.1
-412.067
-107387
-88561.3
-956.328
-7749.39
-8206.16
-14329.7
-17330.6
-19486.5
-17839.3
-19694.9
-19830.2
-21195.5
-16845.8
-18516.1
-15892.1
-13991.2
-12696.3
-10498.6
-9418.61
-7554.86
-5598.83
-5238.69
-4436.23
-2280.08
-533.891
1261.36
3502.24
3635.23
8618.49
10447.5
16653
19755.9
30396.5
28259
28685.2
23288.8
27542.1
20231.2
32051.5
24397.6
33472.7
31189.6
36821.1
27979.6
19319.9
11969.5
7256.7
4938.23
3799.13
3198.37
3164.44
2891.85
2424.81
2015.94
1368.13
850.528
84.264
-455.459
-1525.4
-1925.5
-3041.56
-3273.96
-4389.51
-4255.38
-5152.72
-3455.07
-5531.4
-552.254
-5783.28
3242.3
-5216.8
6707.44
-354.24
-837.966
-778.048
-802.672
-812.311
-828.176
-841.269
-855.928
-869.646
-884.027
-898.392
-913.674
-929.621
-948.329
-967.804
-993.347
-1018.78
-1050.06
-1093.35
-1131.29
-1183
-1257.62
-1302.13
-1394.3
-1487.99
-1606.98
-1706.34
-1837.85
-1964.33
-2107.17
-2255.26
-2397.74
-2534.56
-2660.67
-2748.36
-2870.18
-2998.33
-3131.19
-3269.79
-3401.83
-3463.19
-3417.84
-3395.07
-3524.73
-3941.55
-18247
-37674.3
-148270
-90802.9
-24616.5
-17473.5
-15536
-14329.4
-15322
-14893.7
-16242
-16540.7
-15741.9
-16057.9
-14903.3
-13461.4
-11867.5
-10528.9
-8612.28
-7438.88
-6058.33
-3683.15
-3983.16
-2668.48
-1147.3
-115.745
1210.32
3420.66
4640.74
7282.25
9187
9130.83
17948.4
22827.9
32142.7
28957.1
26029.3
23111.9
29774.9
25049
31230.8
23902.2
32153.1
27535.2
34667.1
36113.9
29532.9
19588.7
11507.6
7475.09
5532.31
4461.77
3899.99
3455.04
2821.2
2511.7
1559.9
1293.23
146.594
-52.747
-1413.22
-1512.89
-2822.59
-2744.6
-3980.17
-3541.79
-4606.4
-2967.03
-5076.84
-455.411
-5442.93
2736.2
-5128.27
5620.31
-568.725
-1040.42
-975.868
-995.612
-1001.63
-1014.63
-1025.71
-1039.09
-1052.23
-1066.73
-1081.8
-1098.45
-1116.27
-1137.38
-1159.71
-1187.26
-1217.59
-1255.55
-1302.88
-1339.7
-1393.64
-1481.91
-1531.18
-1629.95
-1725.31
-1843.78
-1952.23
-2095.87
-2221.95
-2366.42
-2498.52
-2634.75
-2737.42
-2838.8
-2905.2
-2940.28
-2928.71
-2877.59
-2744.27
-2490.81
-2227.39
-1711.3
-863.365
-81.7127
1689.58
-11365.3
3480.88
-85025.5
-83750.8
-10398.9
-16302.3
-14155.5
-15840.5
-17953.2
-17127.8
-16361.4
-16893
-14700.9
-15437.6
-11853.1
-11156.7
-10545.1
-8730.49
-7103.82
-5466.65
-4425.35
-2848.97
-2309.7
-941.537
914.813
1902.96
2878.71
5121.45
5909.14
9002.17
11136.7
14263.5
21472.9
31360.8
29433.6
28331.4
24343.8
23127.3
26255.3
21718.1
28901.5
22129.1
29590.9
25220.5
31025.2
30287
36062.5
29902.2
18832.3
11532.6
8303.2
6649.92
5635.33
5317.22
4347.16
3961.26
2602.47
2245.61
943.171
752.394
-542.371
-664.014
-2063.67
-2052.16
-3294.5
-2839.92
-3989.59
-2503.47
-4256.4
-601.295
-4879.59
1925.02
-4824.96
4333.01
-772.116
-1230.88
-1161.13
-1175.45
-1177.32
-1186.9
-1195.44
-1206.93
-1218.93
-1232.81
-1248
-1265.04
-1284.32
-1306.35
-1331.58
-1361.37
-1395.16
-1433.68
-1480.57
-1533.42
-1589.61
-1665.23
-1731.07
-1827.58
-1931.01
-2038.82
-2156.68
-2299.34
-2438.53
-2587.1
-2737.55
-2894.75
-3049.39
-3202.9
-3321.84
-3459.89
-3642.16
-3825.35
-4074.5
-4354.88
-4524.54
-4787.77
-4897.08
-5366.48
-3925.42
-13067.6
-4629.99
-39947.3
-59434.9
-39419.7
-49599.2
-40772.6
-32783.8
-29754.5
-26882.6
-26558.6
-22859.2
-18677.1
-18964.3
-12583.6
-11419.2
-8620.77
-7635.31
-6335.91
-4330.37
-3202.86
-1322.68
-960.804
976.398
1744.84
3128.45
4592.21
6684.5
7412.57
10462.9
13072.9
19373.6
32224
33436.2
26223.2
27648.5
24790.4
24368.1
24664.2
22015.9
24971.2
21184.5
26081.3
22174.7
26257.7
26411.7
30098.7
35413.9
25589.6
15787.9
11278.7
9132.82
8092.24
7340.71
6072.54
5229.09
3906.51
3231.49
1662.03
1404.78
-188.549
-126.332
-1902.26
-1289.72
-2934.98
-1935.81
-3548.7
-2163.17
-3826.12
-697.414
-4540.15
1284.55
-4677.39
3223.58
-963.777
-1408.43
-1333.3
-1341.87
-1339.26
-1345.09
-1350.69
-1359.97
-1370.36
-1383.31
-1398.03
-1415.27
-1435
-1458.2
-1484.78
-1515.79
-1552.53
-1592.77
-1643.37
-1698.55
-1756.2
-1821.18
-1921.87
-1994.26
-2109.58
-2218.37
-2350.44
-2479.16
-2630.1
-2767.43
-2911.89
-3050.41
-3189.89
-3296.24
-3392.46
-3474.38
-3521.64
-3534.26
-3517.8
-3495.57
-3422.18
-3314.33
-3155.69
-3066.98
-1643.18
-8045.05
7126.4
28645.2
-47088.9
-37458.9
-54013.8
-48960.6
-37222.9
-34106.1
-26205.5
-27224.1
-21928.6
-17846.7
-15476.8
-9566.84
-10753.6
-7476.7
-6346.65
-4609.1
-3677.71
-2171.5
-1405.68
335.269
1949.27
2606.74
4204.6
5532.22
7485.16
7911.84
11870
15807.6
24465.8
30991.1
34906.5
25225.1
29583.2
23787.7
21866.9
19904.8
18765.2
19817.4
18372.8
21817.8
19120.3
22710.7
21134.6
24652.2
27524.3
28060.3
23944.7
17596.1
15247.1
13703.8
11904.6
9655.94
8149.15
6148.93
5176.03
3388.66
2783.42
982.337
790.333
-773.988
-609.172
-2317.12
-1384.84
-3017.07
-1765.75
-3324.82
-1085.65
-3842.82
359.048
-4329.61
1923.33
-1142.32
-1572.42
-1491.73
-1494.38
-1487.09
-1488.97
-1491.39
-1498.19
-1506.65
-1518.32
-1532.14
-1549.03
-1568.98
-1592.08
-1620.27
-1651.73
-1689.73
-1733.47
-1779.72
-1842.98
-1903.85
-1972.02
-2070.87
-2141.01
-2250.78
-2373.5
-2498.14
-2627.4
-2771.76
-2925.25
-3072.29
-3232.95
-3397.91
-3568.83
-3723.88
-3860.92
-4067.53
-4295.91
-4581.02
-4881.77
-5336.33
-5689.96
-6191.37
-6586.02
-6257.99
-13008.3
-5472.68
-10207.3
-38009.9
-33340.6
-50018.6
-49459.4
-43418.2
-39734.7
-31812.6
-28204.2
-22066.4
-18260.4
-15302.3
-8664.98
-8237.48
-5361.1
-4856.67
-2775.8
-1806.04
-825.072
378.388
1557.91
2430.01
3655.07
4989.38
5549.39
7850.99
8965.93
12957.5
17360.3
28991.6
31661.2
34106.9
25053.6
26214.6
23443.8
23014.2
22724
21883.5
20370.6
17905.2
20257.7
17002.7
20147.6
19640.7
22335.3
24791.6
28880.2
28126.6
23989.9
21525.3
19176.4
16116.2
12984
10674.3
8091.37
6549.72
4684.82
3828.53
1727.59
1611.24
-461.298
292.702
-1783.77
-745.441
-2657.11
-1454.74
-3054.07
-1258.78
-3647.15
-211.425
-4214.48
1005.27
-1307.21
-1722.17
-1636.08
-1632.82
-1620.85
-1618.73
-1617.89
-1622.1
-1628.5
-1638.69
-1651.44
-1667.83
-1687.45
-1710.88
-1739.17
-1771.68
-1809.12
-1856.25
-1901.69
-1964.87
-2031.99
-2100.78
-2180.1
-2290.47
-2378.47
-2502.36
-2626.24
-2759.51
-2897.94
-3048.64
-3195.84
-3338.46
-3475.08
-3606.66
-3723.29
-3823.23
-3886.98
-3928.49
-3952.03
-3911.22
-3860.88
-3689.52
-3620.65
-3106.6
-2453.38
-7704.65
-827.278
-36911.6
-68604.9
-36966.8
-32642.9
-32095
-30439.4
-29268.3
-24383.3
-20613.2
-17038.3
-13253.9
-10289.8
-8574.73
-6821.25
-1407.44
-708.391
1183.46
1483.33
1210.67
3341.01
3475.19
4787.42
5914.87
7216.95
8154.77
10663.4
12459.8
16664
23351.6
34329.6
30223.2
36541.9
25724.5
24527.9
21180.6
22558.1
20479.2
19555
19702.1
17996.5
21153.9
18949.4
21312.4
19256.3
20356.8
21192.1
26814.6
30936
27994.1
25544.9
21681.8
18786.2
15623.3
12553.8
9251.58
7439.07
5337.62
4215.36
2372.94
2004.15
728.703
811.33
-1362.32
-306.579
-2232.32
-1197.38
-2779.55
-1615.19
-3057.04
-991.871
-3819.69
-130.852
-1457.44
-1857.25
-1765.93
-1756.93
-1740.37
-1734.33
-1730.22
-1731.83
-1736
-1744.69
-1755.99
-1771.83
-1790.56
-1814.2
-1842.21
-1875.25
-1913.38
-1960.42
-2007.68
-2070.25
-2142.69
-2203.26
-2289.29
-2402.18
-2482.81
-2598.94
-2731.2
-2861.37
-2994.35
-3143.61
-3297.03
-3449.97
-3605.13
-3765.91
-3929.67
-4117.39
-4247.97
-4444.4
-4665.08
-4940.29
-5246.43
-5550.35
-5582.8
-5970.04
-4838.61
-9919.27
-16322.5
-104118
-170426
-58863
-28034.9
-19382.3
-15523.2
-13881.9
-10506.8
-8475.86
-5846.68
-4562.53
-2976.35
-1489.3
332.131
476.135
966.935
5699.86
5145.24
4168.53
5533.46
6854.38
7129.03
8508.67
9542.32
10217.7
12194.6
14802
21887.6
28862.5
40375.9
32338.3
35059.6
27927.2
28650.4
25991.6
24619.3
23744.1
20400.3
19489.9
16931.3
20401.9
17484.9
20513.5
21621.3
23106.5
25314.2
26391.3
28898.2
29717.1
26255.2
21189.5
17465.4
14593.6
13171.1
11006.6
8660.73
5872.06
4473.45
2513.15
2164.38
842.798
1239.91
-826.062
-16.7562
-1888.15
-978.286
-2510.71
-1665.64
-2872.03
-1476.71
-3553.19
-947.356
-1592.62
-1977.23
-1881.12
-1866.68
-1845.79
-1835.99
-1828.79
-1827.79
-1829.94
-1836.9
-1847.04
-1861.81
-1880.14
-1903.26
-1931.14
-1964.25
-2002.69
-2048.14
-2100.37
-2155.74
-2230.87
-2297.85
-2383.2
-2476.64
-2583.8
-2686.21
-2814.81
-2946.98
-3083.27
-3223.75
-3369.26
-3514.3
-3653.25
-3771.5
-3890.03
-3992.69
-4055.75
-4058.42
-3994.78
-3816.23
-3539.5
-3141.19
-2480.83
-1964.24
-1736.54
-4298.02
-10132
-138632
-96981.8
-35967.6
-27168.2
-15052.8
-11093.4
-9628.16
-12919.8
-4785.53
-9892.15
-52.6658
-3312.74
1699.62
367.183
3619.57
2938.13
5229.79
6579.26
7087.61
8092.7
9825.74
9943.78
11162
12250.7
13795.4
16346.8
18848.6
34017.7
38114.1
42345.4
31150.9
28539.6
24692.7
24622.6
21621.4
19465.1
21456.2
20463
23613.9
19582.7
22464.2
19568.8
20873.8
18848.4
19073.2
18200.2
21396.6
27473.4
29164.6
27058.7
20751.8
16726.2
13246.3
11022.7
8679.49
8238.49
6769.22
5716.23
3620.8
2758.96
1319.88
1441.48
-274.911
241.091
-1395.84
-892.796
-2170.01
-1814.33
-2615.32
-2042.65
-3252.91
-1917.15
-1712.1
-2081.89
-1981.47
-1962
-1937.1
-1923.82
-1913.7
-1910.26
-1910.39
-1915.68
-1924.54
-1938.23
-1955.76
-1978.35
-2005.73
-2038.34
-2078.12
-2120.42
-2176.98
-2230.07
-2297.22
-2382.05
-2450.16
-2540.69
-2669.2
-2748.53
-2868.1
-3013.11
-3139.2
-3275.54
-3410.85
-3566.59
-3721.47
-3858.11
-3984.31
-4146.06
-4301.26
-4468.17
-4684.27
-4745.22
-4977.84
-5132.74
-5330
-5532.55
-6005.16
-10075.6
-36632.2
-126506
-36433.1
-42191.8
-62913.6
-37306.3
-45563.9
-19602
-25721.6
-9980.86
-9188.74
-858.423
-1479.48
3305.81
3996.68
4147.16
5059.03
6887.85
8968.56
8914.43
9260.9
11065
11777.7
11680.5
12549.5
15907.4
21337.4
30440
47144.9
45638.7
42168.7
30076.4
26182.7
25066.3
26848.1
23080.4
22786.1
24119.4
22032.7
22394.9
21232.6
23837
22312.2
23150.2
24401
23419.5
25400.8
23048.6
22706.9
20462.4
19272.9
17695.4
16025.6
13433.4
11231.2
9277.59
7550.31
6453.43
5511.11
4205.67
3137.11
1498.3
1390.89
-52.1284
394.463
-1114.58
-725.508
-1942.67
-1757.35
-2514.98
-2254.85
-3072.63
-2482.81
-1815.69
-2171.06
-2066.99
-2043.01
-2014.55
-1998.1
-1985.39
-1979.66
-1978.05
-1981.67
-1989.46
-2001.91
-2018.96
-2040.48
-2067.73
-2099.33
-2138.79
-2181.54
-2235.31
-2291.91
-2352.54
-2439.76
-2512.05
-2596.93
-2703.98
-2821.86
-2918.94
-3042.73
-3195.21
-3319.95
-3449.96
-3581.97
-3729.91
-3868.57
-3969.56
-4028.51
-4103.41
-4149.66
-4188.45
-4039.18
-3916.7
-3620.89
-3288.71
-2677.59
-3003.07
-4220.4
-66460.7
-88803.6
-21157.6
-21693.8
-46350.3
-64340
-56973.3
-36771.8
-25342.5
-12443.5
-11014.2
-3348
-400.313
4650.17
5479.85
5956.41
6698.54
5686.36
8167.4
7202.71
11204.9
10935.5
14182.2
16798.4
23116.5
33913.3
50191.3
68135.8
64906.2
47755.8
40784.9
26438.3
19881.8
16930.7
13182.6
9638.01
11218.2
11145.2
11605.5
14193.9
13962.3
15968.3
17200
17882.8
14027.2
12744.2
10945.4
11180.1
13617.4
14516.4
14769.6
12524.9
12538.2
11281.6
10099.2
8493.43
8145.43
6020.93
5209.23
4156.13
3455.25
2094.78
1690.55
417.26
612.228
-686.761
-602.243
-1607.99
-1822.89
-2327.89
-2547.11
-3043.22
-2968.85
-1903.1
-2244.73
-2137.7
-2109.8
-2078.25
-2059.05
-2044.07
-2036.25
-2033.12
-2035.05
-2042.01
-2052.95
-2069.68
-2089.95
-2116.95
-2148.1
-2186.34
-2229.56
-2281.08
-2339.25
-2400.01
-2473.25
-2562.76
-2639.89
-2732.38
-2860.95
-2958.86
-3065.84
-3193.39
-3369.6
-3458.28
-3581.03
-3719.56
-3907.36
-4004.4
-4111.23
-4240.51
-4398.09
-4553.39
-4790.76
-4914.76
-4850.06
-4877.22
-5161.14
-7823.29
-15944.1
-124372
-34655.6
-16174
-16227.3
-29613.2
-44031.6
-60122.5
-52022.8
-42303.6
-18086.8
-18200.3
-4168.23
-1745.03
6863.47
8218.13
8067.61
9525.67
8421.04
12626.2
11933
21515.9
27791.6
47741.1
58623.1
74240.7
92673.2
103645
90687.5
54417.5
28713.3
22798.3
9950.56
10597.5
6439.47
3823.25
4340.54
5491.87
4188.55
5417.52
6028.97
7801.84
6284.05
4839.04
4456.78
2888.8
4106.12
4996.58
7993.67
10049.9
11598.1
11834.6
12149.9
11877.9
10182.4
9173.21
8444.71
6956.38
5716.44
5168.16
3991.21
3601.1
2248.13
1744.92
583.323
632.561
-497.855
-510.522
-1469.37
-1655.16
-2316.44
-2593.41
-3046.27
-3114.19
-1974.36
-2302.97
-2193.77
-2162.61
-2128.54
-2107.03
-2090.14
-2080.6
-2076.06
-2076.75
-2082.59
-2092.72
-2108.4
-2128.21
-2154.1
-2184.93
-2221.37
-2265.74
-2313.46
-2372.69
-2433.96
-2501.89
-2591.81
-2667.8
-2760.58
-2863.65
-2995.96
-3083.4
-3196.41
-3351.9
-3483.45
-3600.64
-3709.64
-3836.68
-4003.62
-4093.36
-4160.62
-4187.49
-4232.49
-4325.6
-4339.63
-4233.63
-4111.21
-4077.97
-8442.08
-31090.9
-119433
-12242.7
-2784.08
-2006.7
-8368.07
-17948.2
-34273.3
-57772.6
-67889
-45131.1
-37631.5
-10161
2120.01
6298.87
16019.6
13666.5
22998.1
23767.8
44152.8
52346.9
74213.4
96213.7
116102
114625
97930.1
75249.3
49350.5
32620.6
23970.9
12895.8
10382.6
4315.37
2110.87
-558.707
-1115.45
-1280.77
-821.751
-1312.44
-1251.37
-1647.24
-96.561
-341.778
-492.157
-1088.43
-1779.93
-1557.94
54.7514
2884.14
6253.17
8259.68
8872.74
9094.26
9521.24
8753.46
9129.28
7324.3
6721.83
5628.63
5284.91
3977.02
3669.23
2470.57
2043.8
938.577
876.33
-158.217
-348.802
-1213.42
-1560.75
-2200.11
-2596.07
-2939.06
-3317.47
-2029.49
-2345.97
-2235.41
-2201.69
-2165.65
-2142.29
-2123.92
-2112.9
-2107.23
-2106.79
-2111.62
-2121.01
-2135.56
-2155.12
-2179.24
-2210.67
-2244.51
-2289.96
-2335.46
-2391.02
-2457.64
-2518.85
-2594
-2697.02
-2770.33
-2862.27
-2989.7
-3095.31
-3213.06
-3306.19
-3471.34
-3597.59
-3712.61
-3773.88
-3927.5
-4178.21
-4230.04
-4302.18
-4466.99
-4479.2
-4546.84
-4690.53
-4958.65
-6192.51
-10989.1
-63994.8
-90290.7
-13966.9
110.529
396.082
-2279.71
-6355.01
-16333.2
-35857.4
-50492.4
-70571.2
-51079.3
-16850.9
5637.76
22451.1
44315
45120.9
69273.4
88751.7
120145
122333
105685
85450
59736.9
54053.4
50242.6
40152.9
32219.9
22683.4
17692.1
11549.9
9369.61
6251
4469.35
1896.74
147.366
-1868.29
-2894.01
-3246.89
-3359.42
-3835.12
-3964.42
-4573.6
-4673.71
-4531.68
-4589.5
-3752.01
-1700.17
1636.7
4584.21
7305.89
7998.73
8165.63
7998.64
7791.45
7753.69
6827.17
6619.73
5700.77
4901.23
3747.53
3529.74
2559.89
2079.7
1149.85
913.296
-8.00704
-308.939
-1089.55
-1427.74
-2102.54
-2513.5
-2918.7
-3333.95
-2068.77
-2374.02
-2262.97
-2227.38
-2190
-2165.32
-2145.81
-2133.76
-2127.06
-2125.93
-2129.62
-2138.72
-2151.7
-2171.39
-2193.69
-2224.91
-2257.89
-2300.29
-2347.55
-2397.24
-2464.13
-2528.82
-2595.26
-2688.66
-2779.13
-2864.64
-2957.13
-3103.33
-3188.02
-3297.76
-3416.98
-3594.39
-3671.74
-3801.3
-3885.28
-3974.21
-4185.48
-4182.54
-4056.25
-3851.38
-3732.4
-3438.81
-3537.1
-6218.45
-19112.6
-119614
-38545.2
-9872.37
-2199.73
555.499
-390.92
-5320.84
-7779.83
-9443.68
-20765.6
-35519.9
-42543.8
-17136
34021.4
76057.7
94024.1
123931
124946
106937
73008.1
55706.2
57412.6
47181
39563.7
31875.4
29072.2
21328
16720.2
12416.3
9984.35
6336.01
5312.34
3846.62
3330.42
2417.76
1731.5
550.078
-982.173
-3053.77
-4151.09
-4722.74
-5204
-5823.05
-6211.3
-5965.72
-4915.61
-3921.73
-1965.85
627.195
3122.7
5480.7
5885.31
6607.96
6600.35
7218.24
6899.16
6362.65
6323.99
5299.19
4571.07
3834.31
3545.45
2716.58
2231.88
1366.13
1062.89
213.882
-172.409
-869.246
-1331.74
-1912.03
-2502.99
-2699.85
-3333.36
-2092.51
-2387.53
-2276.83
-2240.1
-2201.96
-2176.42
-2156.21
-2143.46
-2135.96
-2134.4
-2137.08
-2145.86
-2157.93
-2176.83
-2198.79
-2227.99
-2261.48
-2300.51
-2347.28
-2398.19
-2455
-2528.85
-2591.42
-2664.29
-2771.93
-2850.22
-2941.05
-3046.8
-3188.34
-3280.32
-3375.81
-3491.7
-3670.64
-3752.04
-3839.07
-3940.92
-4176.38
-4324.45
-4553.39
-4767.94
-5129.28
-5370.12
-6366.48
-12395.6
-40946
-127775
-4503.04
795.117
805.067
23.4284
-421.942
1392.86
1402.87
1816.8
251.418
2157.49
4855.26
35433.1
124153
119810
105721
78042.9
65809.9
49780.7
40056.1
39019.9
34393.7
27800.1
23913.5
20588
20775.7
19742
17218.3
14427.6
13977.2
11308.1
9793.06
7197.73
5907.97
3956.49
2854.19
1398.75
-20.4861
-1299.9
-2434.03
-3943.1
-4707.66
-5864.41
-6178.87
-5854.18
-4581.48
-3281.55
-1626.6
379.296
2350.67
4323.53
5253.43
5992.19
5997.59
5998.29
6107.77
5724.34
5855.65
4639.36
4332.72
3735.99
3626.06
2735.46
2258.56
1468.89
1106.7
304.111
-89.4499
-758.734
-1225.08
-1774.32
-2368.45
-2583.82
-3222.14
-2101.21
-2386.98
-2277.46
-2240.3
-2201.99
-2176.14
-2155.58
-2142.51
-2134.5
-2132.59
-2134.68
-2142.86
-2154.37
-2172.2
-2193.97
-2220.7
-2255.3
-2289.65
-2338.46
-2388.44
-2437.06
-2508.38
-2582.07
-2645.19
-2725.59
-2845.14
-2916.2
-3001.61
-3128.88
-3263.24
-3359.77
-3439.8
-3577.02
-3757.86
-3864.48
-3996.32
-4000.91
-4063.15
-4263.21
-3722.63
-3551.5
-3259.13
-4196.05
-8683.87
-93524.4
-75270.3
-11905.4
-1363.51
1391.06
700.501
2638.24
3593.85
4151.53
5885.28
11256.1
31987.9
91194.8
174332
102644
57880.8
55562.6
42391.1
29312.8
23995.7
26679.7
23604.6
21222.9
16720.2
16697.1
15854.2
15701.7
13938.7
14691.3
13289
14522.1
12132.5
11445.4
9062.11
7219.08
5338.17
3776.81
2822.76
1954.26
785.619
-960.276
-2692.61
-3915.5
-4051.58
-4210.05
-4348.13
-3655.43
-2628.38
-1368.35
161.978
2079.74
3336.98
4994.35
4931.12
5605.2
4974.88
5372.86
5080.45
5204.55
4708.78
4345.74
3977.76
3574.91
2771.43
2276.03
1610.7
1194.1
491.945
37.4045
-552.936
-1100.25
-1544.92
-2319.6
-2326.76
-3119.85
-2095.44
-2372.95
-2265.41
-2228.5
-2190.58
-2164.88
-2144.36
-2131.31
-2123.02
-2120.93
-2122.75
-2130.07
-2141.7
-2157.5
-2180.17
-2203.45
-2239.13
-2271.98
-2312.85
-2371.02
-2416.52
-2470.95
-2556.91
-2617.73
-2688.12
-2786.53
-2893.97
-2975.34
-3053.39
-3205.26
-3310.81
-3419.24
-3464.43
-3633.47
-3768.65
-3771.54
-3830.23
-4070.38
-4409.9
-4755.02
-5115.68
-5364
-9087.02
-25701.4
-152411
-19295.4
-2008.67
1230.39
1338.5
3909.49
4266.14
5826.93
10202.2
20753.4
47414.6
106662
192730
99290.6
59830.3
43480.4
30048.9
17813.1
15315.5
19126.8
18291.4
15656.5
13596.5
11879
14137.5
14650.1
14683.5
13126.9
12336.8
12299.4
12374.5
12966.2
12512.9
11009.5
10383.8
8056.32
6029.16
4313.19
3329.37
1761.47
364.889
-413.169
-1518.88
-2814.97
-3005.02
-3116.85
-2827
-1843.34
-946.853
-136.772
1476.01
2420.51
4417.87
3745.77
4619.97
4036.28
4630.6
4669.77
4778.9
4442.89
4241.29
3758.22
3274.2
2608.67
2112.36
1575.37
1167.37
563.661
86.3457
-445.4
-981.557
-1415.64
-2145.44
-2166.73
-2953.37
-2075.91
-2346.1
-2241.29
-2205.28
-2168.29
-2143.21
-2123.12
-2110.35
-2102.15
-2099.92
-2101.73
-2108.27
-2120.05
-2134.41
-2156.71
-2179.8
-2211.08
-2247.1
-2282.88
-2334.4
-2391.29
-2437.43
-2501.26
-2596.18
-2650.2
-2719.91
-2843.38
-2927.87
-3017.61
-3100.25
-3275.73
-3360.83
-3487.43
-3569.57
-3755.92
-3965.96
-4115.9
-4237.73
-4284.18
-4241.37
-4481.71
-5893.37
-10954.4
-63166.6
-123895
-12813.4
2147.65
2962.27
4436.93
4237.41
6283.87
10385.8
19321.9
42507.2
102366
199261
107039
71102.3
40189.2
23593.4
15737.7
13733.2
15273.3
15253.1
13830.9
11952.4
9219.29
11900
13334.5
12484.2
13102.5
11631.4
11917.4
11870.8
11143.5
10759.3
10191.9
9197.69
9290.59
8325.26
7449.24
6102.93
4010.33
2884.63
2252.51
1459.57
468.895
-583.763
-1392.99
-2029.71
-2274.7
-1869.94
-1205.37
-154.094
1604.4
2662.23
3376.94
3199.58
3959.66
3615.14
4150.75
4068.23
4514.34
4282.17
4221.29
3607.24
3181.12
2703.03
2209.58
1767.53
1288.43
771.461
223.44
-257.351
-853.163
-1178.99
-2051.96
-1910.09
-2752.9
-2043.4
-2307.17
-2205.79
-2171.26
-2135.69
-2111.65
-2092.31
-2080.12
-2072.31
-2069.98
-2072.04
-2077.93
-2089.51
-2103.31
-2123.8
-2147.74
-2173.66
-2213.18
-2247.46
-2287.13
-2352.24
-2395.86
-2450.15
-2534.68
-2607.59
-2675.64
-2748.47
-2893.43
-2957.02
-3041.87
-3142.55
-3325.73
-3408.28
-3438.86
-3539.05
-3714.15
-3721.07
-3699.15
-3542.84
-3585.7
-4006.69
-6542.71
-20323.4
-122638
-52255.1
-3293.69
1597.19
3548.71
4511.78
6233.72
9643.31
18309.2
40028.7
97382.1
199321
110767
68786.5
39879
24755.5
13261
10719.1
13612.7
14013.4
12474.5
10768.9
8680.14
9770.42
12530.8
12099
11697.5
10842.2
10644.6
11754.8
11635.6
10583.5
9722.78
8988.03
8465.85
8834.14
7980.68
7968.07
6114.75
4897.5
4858.73
3778.15
1878.64
1101.02
204.537
-418.563
-750.89
-1139.34
-1613.57
-1190.25
-378.455
836.049
1685.09
2598.84
2789.07
3578.37
3205.88
3835.83
3458.29
4064.83
3840.99
3694.9
3255.17
2877.27
2554.96
2117.31
1722.79
1280.66
797.855
271.357
-168.376
-756.814
-1066.77
-1852.68
-1722.74
-2534.68
-1998.79
-2256.96
-2159.61
-2127.12
-2093.41
-2070.78
-2052.57
-2041.17
-2033.94
-2031.84
-2034.11
-2039.69
-2050.7
-2064.65
-2082.62
-2107.67
-2130.84
-2167.74
-2204.72
-2240.09
-2291.13
-2356.18
-2399.34
-2455.51
-2561.34
-2612.67
-2683.9
-2786.15
-2913.93
-2990.06
-3049.25
-3188.63
-3412.42
-3454.76
-3640.55
-3775.56
-4065.85
-4368.75
-4712.36
-4891.93
-5848.22
-10777.5
-41985.6
-129192
-8531.65
5909.03
5696.87
5265
6497.21
10113.3
18103.4
37930.7
90110
191363
125946
65625.5
43411.4
22584.2
15405.3
11190.7
10046.2
10919.5
12434.1
11435.9
9056.48
8893.48
11473.9
11483.5
10843.3
9961.26
8919
10144.2
10990.9
10928.7
9646.69
8909.86
8404.92
7991.38
7983.4
7295.72
7401.93
6637.25
6436.15
4275.81
3522.29
2481.24
1370.29
751.76
593.402
-99.2445
-527.8
-572.619
-346.333
-73.9217
917.875
1430.16
2223.78
2196.17
3400.8
2661.31
3376.6
2996.84
3512.02
3307.99
3325.04
3114.32
2808.16
2642.48
2208.8
1898.48
1402.2
1003.52
430.936
53.5483
-592.565
-839.01
-1682.98
-1519.16
-2257.78
-1942.99
-2196.33
-2103.54
-2073.56
-2042.1
-2021.23
-2004.41
-1994.01
-1987.64
-1985.81
-1988.32
-1994.13
-2003.93
-2018.55
-2033.86
-2059.24
-2082.14
-2111.09
-2154.58
-2186.55
-2226.02
-2295.55
-2338.47
-2392.55
-2469.55
-2559.79
-2624.32
-2683.21
-2824.57
-2910.93
-3011.16
-3069.38
-3240.93
-3418.69
-3468.36
-3403.4
-3545.23
-3472.4
-3362.65
-3273.26
-4744.07
-9868.69
-93309.1
-65553.7
-15120.6
2555.79
4154.59
6660.07
9212.22
17529.1
37473
85913.8
175481
139992
60904.7
41495
27676.5
16511.2
10321.4
10776.4
10448.8
10040
10403.3
10480.9
8210.51
10020.4
11709.6
10015.5
9927.46
8112.48
8972.97
10474
9981.52
9423.19
8649.93
8355.68
7963.85
7617.52
7407.35
6650.66
6880.8
5718.56
6119.49
4438.15
4477.15
4662.56
3136.45
1821.03
609.54
80.4657
-404.474
-598.878
-803.661
-387.659
16.0216
935.341
1638.46
1644.55
2549.37
2368.54
2707.67
2534.28
2903.89
2842.74
3048.75
2949.94
2619.19
2529.63
2092.34
1790.1
1306.53
930.912
411.847
69.081
-537.535
-752.744
-1479.4
-1313.51
-1985.46
-1877.03
-2126.17
-2038.4
-2011.32
-1982.47
-1963.61
-1948.48
-1939.29
-1933.9
-1932.56
-1935.41
-1941.26
-1950.72
-1964.79
-1979.93
-2002.03
-2027.34
-2051.5
-2090.51
-2127.77
-2163.77
-2214.25
-2280.91
-2325.3
-2376.65
-2484.66
-2540.99
-2613.63
-2691.69
-2848.85
-2918.02
-2996.12
-3085.27
-3325.19
-3419.65
-3594.65
-3729.29
-4025.72
-4412.73
-5127.47
-8493.11
-27401.4
-120197
-17278.6
-4780.9
4415.36
5626.75
8486.59
15877.9
35266.1
82311.3
166498
147217
71843.6
37663.9
27773.7
18134
10619.6
7049.02
10036.3
11097.5
9192.36
9507.29
8801.24
9035.96
10220.7
9733.05
9465.04
9044.49
8177.27
9553.24
9518.98
8648.95
8156.48
7448.13
7730.07
7401.1
6988.71
6570.07
5883.94
5966.08
5115.29
5521.01
5594.05
4712.69
3583.02
2915.94
1331.4
803.386
247.013
142.873
-303.401
-352.949
-291.264
105.625
808.893
1040.9
1660.92
1818.67
1872.52
2252.16
2067.1
2451.71
2423.78
2738.1
2780.53
2466.99
2556.89
2135.86
1907.02
1429.42
1140.73
617.616
344.971
-290.956
-497.357
-1258.1
-1121.86
-1661.71
-1801.9
-2047.42
-1965.02
-1941.18
-1915.2
-1898.62
-1885.36
-1877.54
-1873.23
-1872.71
-1875.6
-1881.97
-1890.73
-1904.21
-1919.68
-1938.06
-1964.71
-1986.86
-2018.71
-2062.55
-2093.79
-2132.95
-2203.64
-2246.46
-2300.32
-2372.73
-2470.14
-2532.4
-2593.63
-2711.09
-2849.83
-2936.08
-3009.37
-3148.95
-3379.43
-3559.56
-3600.12
-3668.15
-4043.76
-5137.34
-9549.97
-60314.2
-85818.8
-11539.7
-3187.61
8727.78
10830.8
17190.9
35308
78215.7
160722
142257
85426.8
35968.1
26206.6
20057.5
12870.3
7903.29
7174.91
9121.76
9232.88
8277.61
8892.85
7501.51
9745.27
10277.9
9327.81
9202.09
8166.06
8698.86
9399.17
8506.34
7912.99
7370.39
6972.47
7026.39
6735.73
6406.52
5609.16
5073.05
5024.44
4661.9
4690.46
4309.71
4425.92
3152.29
3769.56
2637.34
1694.27
962.269
423.918
163.922
-130.732
-27.8425
-12.796
353.618
590.42
1109.1
1239.08
1328.32
1762.8
1664.15
1954.87
2066.02
2402.29
2466.87
2160.89
2237.13
1944.2
1736.03
1310.98
1040.06
548.2
269.966
-302.864
-466.966
-1094.52
-819.941
-1367.78
-1718.69
-1961.04
-1884.27
-1863.92
-1841.05
-1826.91
-1815.7
-1809.39
-1806.31
-1806.55
-1809.87
-1816.52
-1824.9
-1837.88
-1852.87
-1869.81
-1893.97
-1918.8
-1943.47
-1983.55
-2019
-2056.02
-2108.05
-2168.61
-2218.1
-2267.19
-2372.38
-2433.14
-2510.85
-2568.09
-2738.12
-2789.68
-2870.78
-2915.54
-3081.57
-3133.77
-3149.45
-3330.98
-3696.23
-6322
-18633.9
-106689
-32035.7
-7888.92
-945.795
10327.8
18967.5
37689.2
79878.5
163631
132907
87984.1
34120.4
19889.1
18228.7
13071.2
10506
7450.4
7807.23
9381.65
9461.82
8675.58
8119.48
7465.89
9070.66
9261.36
8667.93
8734.86
7354.29
8853.19
8639.46
7837
7255.15
6474.44
6652.43
6789.69
5977.36
5486.1
4744.79
4280.23
4359.62
4224.07
4002.31
3433.92
3677.37
3374.23
3119.36
2269.23
1098.81
451.747
106.531
-107.079
-351.716
-357.795
-426.388
-33.2332
197.586
552.253
826.592
986.898
1331.36
1319.46
1523.47
1708.88
2034.61
2224.35
1937.34
2160.95
1988.04
1869.38
1463.65
1250.47
792.926
554.639
5.95405
-159.181
-725.731
-582.153
-1242.58
-1628.44
-1867.98