/*--------------------------------*- C++ -*----------------------------------*\
| =========                 |                                                 |
| \\      /  F ield         | OpenFOAM: The Open Source CFD Toolbox           |
|  \\    /   O peration     | Version:  2.2.x                                 |
|   \\  /    A nd           | Web:      www.OpenFOAM.org                      |
|    \\/     M anipulation  |                                                 |
\*---------------------------------------------------------------------------*/
FoamFile
{
    version     2.0;
    format      ascii;
    class       volScalarField;
    location    "1";
    object      rho;
}
// * * * * * * * * * * * * * * * * * * * * * * * * * * * * * * * * * * * * * //

dimensions      [1 -3 0 0 0 0 0];

internalField   nonuniform List<scalar> 
14161
(
0.99915
0.99918
0.999117
0.999014
0.998864
0.998665
0.998413
0.998105
0.997738
0.99731
0.996818
0.996261
0.995639
0.994954
0.994209
0.993408
0.992557
0.991652
0.99073
0.989815
0.988776
0.987813
0.986939
0.985977
0.985074
0.984293
0.983604
0.982923
0.982314
0.98197
0.981732
0.981478
0.98112
0.980951
0.980956
0.981019
0.98114
0.981288
0.981449
0.981679
0.982191
0.982445
0.982459
0.982384
0.980404
0.982473
0.972051
1.60363
2.6127
2.59955
2.58641
2.56714
2.55156
2.53839
2.53017
2.51456
2.4953
2.47067
2.44434
2.41675
2.39019
2.37049
2.35821
2.35346
2.35231
2.35155
2.35052
2.34892
2.34685
2.34319
2.33801
2.33116
2.32669
2.33027
2.33875
2.35811
2.38151
2.40675
2.42165
2.44227
2.48368
2.55499
2.61611
2.73932
2.87766
2.94133
3.01428
3.03229
3.05653
3.07419
3.09048
3.10747
3.11442
3.11362
3.10898
3.09926
3.08863
3.07995
3.07225
3.06478
3.0578
3.04988
3.04148
3.03457
3.02883
3.02511
3.02068
3.01631
3.01214
3.00879
3.00297
3.00171
2.99705
2.99501
2.98844
2.98644
2.98189
2.98156
2.97489
0.999148
0.999179
0.999115
0.999012
0.998862
0.998662
0.99841
0.998102
0.997735
0.997306
0.996814
0.996256
0.995634
0.994949
0.994203
0.993399
0.992547
0.991644
0.990732
0.9898
0.988768
0.987795
0.986916
0.985971
0.985053
0.984269
0.98358
0.982896
0.982278
0.981923
0.981682
0.981426
0.98108
0.980943
0.980969
0.98106
0.981228
0.981469
0.981769
0.982334
0.983141
0.983752
0.984324
0.985678
0.986336
0.990575
0.980984
1.73467
2.56001
2.71722
2.69564
2.65231
2.61029
2.56784
2.52854
2.48464
2.44677
2.40842
2.37213
2.33997
2.31385
2.29344
2.27718
2.26368
2.25239
2.24233
2.23435
2.22631
2.21832
2.21045
2.20406
2.19963
2.19959
2.20721
2.22534
2.25494
2.29354
2.33942
2.38596
2.43102
2.47727
2.56473
2.64738
2.75124
2.84347
2.89739
2.97608
3.00343
3.03812
3.05873
3.08002
3.09735
3.10369
3.10556
3.10322
3.0971
3.08808
3.07729
3.07162
3.0656
3.06024
3.05367
3.04568
3.03635
3.02983
3.02566
3.02285
3.01947
3.01555
3.01232
3.00765
3.00606
3.00163
3.00021
2.9936
2.99018
2.98382
2.98129
2.97482
0.999147
0.999178
0.999114
0.999011
0.998861
0.998661
0.998409
0.998101
0.997733
0.997305
0.996812
0.996255
0.995632
0.994946
0.9942
0.993399
0.992547
0.991646
0.990713
0.989767
0.988769
0.987809
0.986932
0.985984
0.985051
0.984244
0.983537
0.982856
0.982241
0.981888
0.981644
0.981377
0.980999
0.980809
0.980794
0.980802
0.980832
0.980874
0.980888
0.980903
0.980995
0.981063
0.981146
0.981579
0.982128
0.986181
0.975811
1.85288
2.6446
2.74488
2.69887
2.64804
2.60389
2.55863
2.52052
2.47866
2.44452
2.40731
2.38004
2.3554
2.33438
2.31194
2.29004
2.27245
2.2563
2.24297
2.23227
2.22133
2.2106
2.20189
2.19277
2.18607
2.18041
2.17992
2.18929
2.20997
2.23269
2.27505
2.31564
2.38845
2.46165
2.56484
2.62649
2.68194
2.75148
2.79242
2.86753
2.92944
2.98852
3.02728
3.04971
3.07364
3.09191
3.09616
3.09437
3.08888
3.0798
3.07127
3.0638
3.05817
3.05244
3.04601
3.03894
3.03136
3.02265
3.01679
3.01423
3.01173
3.01008
3.00889
3.00603
3.00523
3.00096
3.00091
2.99608
2.99265
2.98349
2.9792
2.97264
0.999146
0.999176
0.999112
0.999009
0.998858
0.998658
0.998406
0.998097
0.997729
0.9973
0.996806
0.996248
0.995625
0.994938
0.99419
0.993386
0.992529
0.991629
0.990695
0.989752
0.988783
0.98778
0.986839
0.985934
0.985006
0.984197
0.983487
0.982801
0.982179
0.981815
0.981555
0.981298
0.980949
0.980832
0.980867
0.98099
0.981215
0.981547
0.98199
0.982646
0.983895
0.985062
0.985998
0.987707
0.989738
0.995843
0.990109
1.68592
2.59981
2.70839
2.66035
2.62847
2.59993
2.56971
2.54253
2.51002
2.48021
2.4513
2.42834
2.40567
2.38374
2.3604
2.33969
2.32153
2.30499
2.29221
2.28071
2.26998
2.26076
2.25103
2.242
2.23387
2.22852
2.22462
2.23164
2.25225
2.26822
2.30297
2.33308
2.39301
2.45495
2.53308
2.55554
2.5845
2.62801
2.66218
2.71949
2.78962
2.87892
2.95166
3.00002
3.03559
3.06369
3.07456
3.07486
3.07233
3.06716
3.0596
3.05161
3.04604
3.04123
3.03631
3.03107
3.025
3.01667
3.00889
3.00343
3.00147
3.00241
3.00341
3.00378
3.00355
2.99882
2.99864
2.99319
2.98736
2.97767
2.97193
2.96578
0.999146
0.999175
0.999111
0.999008
0.998857
0.998657
0.998404
0.998095
0.997727
0.997297
0.996803
0.996245
0.995621
0.994933
0.994184
0.993379
0.992523
0.991631
0.990686
0.989704
0.988773
0.98778
0.986778
0.985901
0.985007
0.984186
0.983459
0.982761
0.982121
0.98173
0.981449
0.981165
0.980754
0.98054
0.980479
0.980449
0.980403
0.980314
0.9801
0.979796
0.979627
0.979096
0.977861
0.975678
0.971723
0.973276
0.967701
1.37248
2.57021
2.59932
2.56991
2.55785
2.55284
2.53612
2.52748
2.5104
2.48428
2.4656
2.44434
2.42114
2.3866
2.36474
2.34135
2.32058
2.30243
2.28538
2.27125
2.25907
2.24701
2.23451
2.22214
2.21106
2.20409
2.19602
2.20031
2.21754
2.2359
2.27902
2.32277
2.37503
2.42595
2.48203
2.51414
2.53262
2.56218
2.57851
2.61881
2.66119
2.72556
2.81717
2.91088
2.97259
3.01385
3.03708
3.04646
3.04491
3.04142
3.0365
3.02946
3.0247
3.02226
3.02007
3.01764
3.01441
3.01015
3.00337
2.99675
2.99376
2.99472
2.99652
2.99851
3.0001
2.99601
2.99497
2.98786
2.98148
2.97167
2.96343
2.95988
0.999145
0.999174
0.99911
0.999006
0.998854
0.998654
0.9984
0.998091
0.997722
0.997291
0.996797
0.996237
0.995611
0.994921
0.994171
0.993364
0.992499
0.991595
0.990655
0.989679
0.988769
0.987761
0.98672
0.98583
0.984931
0.984093
0.983346
0.982651
0.982009
0.981575
0.981264
0.980976
0.980622
0.980509
0.980552
0.980693
0.98094
0.981306
0.981796
0.982695
0.983728
0.984549
0.985058
0.98584
0.985126
0.987265
0.993997
1.24429
2.33644
2.60149
2.58349
2.55687
2.5377
2.51405
2.49233
2.46412
2.43117
2.40536
2.37966
2.35214
2.3194
2.29406
2.26517
2.24463
2.22692
2.21254
2.20004
2.18939
2.17969
2.17125
2.16206
2.15345
2.14423
2.14268
2.15018
2.16128
2.19688
2.22521
2.27622
2.3318
2.38312
2.42621
2.46468
2.47305
2.50128
2.51663
2.55057
2.58179
2.62902
2.69239
2.77279
2.87408
2.9501
2.98737
3.0092
3.01286
3.01252
3.0102
3.0068
3.00544
3.00605
3.00805
3.00989
3.00942
3.00757
3.00443
2.99897
2.99593
2.99621
2.99696
2.99871
2.99935
2.99381
2.99208
2.98207
2.97371
2.96329
2.95287
2.95252
0.999145
0.999173
0.999109
0.999005
0.998853
0.998652
0.998398
0.998088
0.997719
0.997288
0.996792
0.996231
0.995604
0.994913
0.99416
0.99335
0.992488
0.991601
0.990646
0.989627
0.988681
0.987718
0.986668
0.985773
0.98488
0.984019
0.983224
0.982516
0.981894
0.981482
0.981138
0.98079
0.980324
0.980079
0.979993
0.979951
0.979894
0.979782
0.979537
0.979359
0.979159
0.978445
0.976536
0.97478
0.970292
0.973404
0.967451
1.44273
2.48499
2.568
2.53423
2.49592
2.46469
2.45642
2.42732
2.39177
2.36203
2.33105
2.31181
2.28136
2.24736
2.22437
2.20194
2.18584
2.17096
2.15885
2.14887
2.14112
2.13462
2.12894
2.1223
2.1156
2.10799
2.10898
2.12198
2.13764
2.19245
2.22192
2.26952
2.32291
2.34392
2.35645
2.37612
2.39061
2.42218
2.44347
2.47915
2.50368
2.537
2.58173
2.64374
2.73845
2.85239
2.92352
2.96423
2.97448
2.98366
2.98467
2.98605
2.98837
2.99116
2.99473
2.99996
3.00598
3.00768
3.00735
3.00663
3.00279
3.00153
2.99982
3.00197
3.00052
2.99581
2.99099
2.9787
2.96903
2.95708
2.94253
2.94637
0.999144
0.999172
0.999107
0.999003
0.99885
0.998649
0.998394
0.998084
0.997713
0.997281
0.996784
0.996221
0.995592
0.994898
0.994143
0.993329
0.992459
0.991543
0.990603
0.989608
0.988641
0.987654
0.986591
0.985648
0.984794
0.983907
0.983062
0.982306
0.981667
0.981215
0.98087
0.98053
0.980124
0.979951
0.979968
0.980088
0.980338
0.980735
0.981346
0.982437
0.983586
0.984626
0.985802
0.988169
0.989121
0.993974
0.986167
1.68375
2.51091
2.66335
2.62865
2.57298
2.51671
2.4816
2.43936
2.39567
2.36806
2.32764
2.3056
2.27611
2.24312
2.21903
2.19972
2.18292
2.16512
2.15371
2.14399
2.13627
2.12972
2.12423
2.11852
2.11216
2.10541
2.10725
2.12307
2.14109
2.20584
2.25135
2.27975
2.31692
2.3305
2.33102
2.33493
2.34059
2.35358
2.37052
2.40311
2.41875
2.4427
2.4721
2.51311
2.5899
2.70582
2.8261
2.90297
2.92664
2.94793
2.95906
2.96665
2.9738
2.97966
2.98457
2.99071
2.99937
3.0098
3.01485
3.01583
3.01387
3.01227
3.00881
3.00963
3.00532
2.99907
2.99047
2.9748
2.96309
2.94936
2.93049
2.93889
0.999143
0.999171
0.999106
0.999001
0.998848
0.998647
0.998391
0.99808
0.997709
0.997275
0.996777
0.996213
0.995582
0.994886
0.994127
0.99331
0.992436
0.991524
0.990578
0.989576
0.988546
0.987585
0.986576
0.985542
0.984664
0.983787
0.982956
0.98217
0.981512
0.980951
0.980534
0.980129
0.979684
0.97936
0.979244
0.979198
0.979172
0.979173
0.979164
0.979218
0.979424
0.979648
0.979811
0.980182
0.980921
0.987414
0.979451
1.74127
2.54882
2.71398
2.66124
2.61006
2.55007
2.51417
2.47278
2.43269
2.40575
2.36562
2.34757
2.31904
2.28172
2.25914
2.23499
2.21928
2.19717
2.18518
2.17395
2.16661
2.15965
2.15347
2.14674
2.13872
2.12963
2.13049
2.14849
2.17186
2.24797
2.30435
2.31184
2.32062
2.32113
2.31849
2.31375
2.31214
2.30859
2.31229
2.32529
2.33092
2.34744
2.36615
2.39436
2.44753
2.54233
2.69959
2.8104
2.8629
2.90001
2.92605
2.94383
2.95941
2.9735
2.9864
2.99795
3.00953
3.02126
3.03135
3.03528
3.03302
3.02953
3.02135
3.02051
3.01268
3.00359
2.9896
2.96952
2.95697
2.94127
2.92009
2.93073
0.999143
0.99917
0.999104
0.998999
0.998846
0.998643
0.998387
0.998075
0.997703
0.997268
0.996768
0.996201
0.995567
0.994867
0.994104
0.993281
0.992407
0.991471
0.990507
0.989521
0.988469
0.987502
0.986541
0.985441
0.984474
0.983599
0.982727
0.981917
0.981213
0.980629
0.980166
0.979742
0.979291
0.978968
0.97893
0.978984
0.979182
0.979562
0.980135
0.981087
0.982561
0.984456
0.986748
0.989355
0.992691
1.0021
0.99653
1.66884
2.58391
2.70706
2.62996
2.5918
2.55111
2.53121
2.50518
2.47494
2.44406
2.40467
2.39034
2.36071
2.31638
2.29383
2.26823
2.25412
2.22714
2.21656
2.20405
2.19617
2.19021
2.18499
2.17927
2.1706
2.15991
2.16092
2.18349
2.21145
2.29003
2.34384
2.34321
2.33505
2.31968
2.30239
2.29338
2.28392
2.27029
2.26317
2.2541
2.25054
2.25616
2.26787
2.2879
2.32702
2.40469
2.55125
2.70501
2.8007
2.86419
2.90468
2.93256
2.95728
2.97759
2.99393
3.00734
3.01721
3.02596
3.03748
3.04472
3.04406
3.04256
3.03504
3.03204
3.02189
3.01059
2.99118
2.96673
2.95035
2.9329
2.90986
2.92195
0.999142
0.999169
0.999103
0.998997
0.998843
0.99864
0.998384
0.998071
0.997697
0.997261
0.996759
0.99619
0.995553
0.99485
0.994082
0.993253
0.99237
0.991431
0.990465
0.989486
0.988394
0.987345
0.986415
0.98533
0.984293
0.983422
0.98256
0.981683
0.980915
0.980263
0.979738
0.979253
0.978764
0.978299
0.978052
0.977891
0.977754
0.97766
0.977596
0.977594
0.977664
0.977983
0.978344
0.978998
0.979212
0.983933
0.980092
1.36149
2.66085
2.65354
2.57662
2.53982
2.51949
2.51685
2.50812
2.48133
2.45237
2.41526
2.38981
2.32675
2.31202
2.2839
2.25782
2.24576
2.21853
2.21088
2.1995
2.19579
2.18993
2.18434
2.17892
2.17081
2.16028
2.16102
2.19778
2.24477
2.31075
2.3489
2.35346
2.34135
2.31731
2.29502
2.27916
2.26357
2.24525
2.22659
2.20832
2.19268
2.19226
2.19835
2.21472
2.25185
2.32566
2.46367
2.62254
2.76069
2.83905
2.89396
2.93097
2.95926
2.98379
3.00431
3.01554
3.02192
3.02801
3.03686
3.05
3.05428
3.0585
3.0531
3.04917
3.03478
3.01943
2.99434
2.96409
2.94323
2.92498
2.90077
2.91276
0.999141
0.999168
0.999102
0.998995
0.998841
0.998637
0.998379
0.998065
0.99769
0.997251
0.996747
0.996175
0.995534
0.994827
0.994053
0.993217
0.992326
0.991376
0.990391
0.989421
0.988331
0.987216
0.986235
0.985198
0.98409
0.983171
0.982305
0.981353
0.980506
0.979791
0.979176
0.978657
0.97815
0.97766
0.977388
0.977253
0.977253
0.977347
0.97759
0.978083
0.978914
0.980199
0.981672
0.983939
0.984067
0.985626
0.989902
1.18475
2.3809
2.5212
2.46079
2.45844
2.44743
2.43114
2.42275
2.39244
2.36707
2.32817
2.31168
2.26088
2.24882
2.19266
2.19499
2.18692
2.16423
2.16129
2.15882
2.16025
2.16251
2.16538
2.16436
2.16478
2.16281
2.1676
2.22682
2.29739
2.32017
2.34095
2.32863
2.31298
2.30385
2.2818
2.2546
2.23381
2.21843
2.20263
2.18877
2.17436
2.17632
2.1784
2.19456
2.23442
2.30806
2.43741
2.61013
2.74536
2.82898
2.88886
2.93074
2.96516
2.99341
3.01511
3.02502
3.03028
3.03505
3.04161
3.05139
3.05388
3.059
3.05705
3.05701
3.04606
3.03077
2.99943
2.96301
2.93512
2.91596
2.8908
2.9032
0.99914
0.999167
0.9991
0.998993
0.998838
0.998633
0.998375
0.998059
0.997683
0.997242
0.996736
0.996161
0.995516
0.994804
0.994025
0.993182
0.992281
0.991325
0.990311
0.989312
0.988259
0.987107
0.986059
0.985048
0.9839
0.982862
0.981992
0.981057
0.980097
0.979337
0.978662
0.978036
0.977383
0.976757
0.976306
0.975889
0.975482
0.975036
0.974521
0.973913
0.97311
0.972252
0.971169
0.969121
0.96295
0.963147
0.970374
1.22388
2.09522
2.28801
2.3198
2.3408
2.33871
2.33439
2.33584
2.309
2.29694
2.26266
2.25003
2.21114
2.19144
2.14242
2.14011
2.12572
2.1165
2.11258
2.1131
2.11514
2.12038
2.1253
2.1253
2.13215
2.13481
2.14522
2.22876
2.33013
2.32813
2.33203
2.3321
2.32878
2.31762
2.29547
2.27714
2.25728
2.24192
2.22409
2.21229
2.2014
2.20144
2.20652
2.23047
2.28038
2.36498
2.49202
2.64669
2.76466
2.83387
2.88949
2.93277
2.96553
2.99006
3.01123
3.02228
3.02854
3.03568
3.04253
3.05125
3.0534
3.05972
3.05997
3.0628
3.05194
3.03699
3.00434
2.96375
2.92877
2.90705
2.88008
2.89277
0.999139
0.999166
0.999099
0.998991
0.998835
0.99863
0.99837
0.998053
0.997674
0.997232
0.996722
0.996143
0.995494
0.994776
0.993989
0.993138
0.992225
0.991258
0.990235
0.989179
0.98816
0.986998
0.985836
0.984822
0.983737
0.982561
0.981587
0.980676
0.979613
0.978706
0.977965
0.977308
0.976539
0.975775
0.975234
0.974786
0.974391
0.974071
0.973881
0.973766
0.973879
0.974235
0.975164
0.977002
0.97743
0.980997
1.00372
1.49727
2.00117
2.13843
2.24726
2.25565
2.28922
2.29214
2.29676
2.28331
2.26824
2.25781
2.221
2.21008
2.14711
2.14581
2.11449
2.10162
2.09376
2.10057
2.09843
2.09722
2.10789
2.10783
2.10138
2.11047
2.1209
2.1587
2.2564
2.37126
2.36475
2.35025
2.35475
2.34189
2.318
2.30634
2.29961
2.28482
2.2739
2.26447
2.26207
2.26089
2.27389
2.2993
2.33869
2.39674
2.46779
2.56518
2.68166
2.77876
2.84708
2.90903
2.94654
2.97116
2.99001
3.00366
3.01311
3.02146
3.03113
3.03915
3.04786
3.05056
3.05756
3.05928
3.06377
3.05448
3.04188
3.00925
2.96545
2.92196
2.89735
2.86782
2.88195
0.999139
0.999165
0.999097
0.998989
0.998832
0.998626
0.998365
0.998046
0.997666
0.997221
0.996708
0.996125
0.995471
0.994747
0.993952
0.993091
0.992166
0.991188
0.990153
0.989048
0.987995
0.986891
0.985641
0.98453
0.9835
0.982274
0.981144
0.980198
0.979195
0.978098
0.977206
0.976497
0.975737
0.9747
0.97384
0.973215
0.972744
0.97227
0.971386
0.96989
0.968868
0.968034
0.967497
0.966926
0.965317
0.969204
1.03359
1.75054
1.9791
2.04759
2.10682
2.1665
2.24572
2.30889
2.32219
2.33617
2.30639
2.29231
2.22663
2.21708
2.13806
2.15364
2.11066
2.096
2.07727
2.08716
2.08504
2.08603
2.10785
2.11878
2.12562
2.17619
2.2545
2.35152
2.43449
2.51359
2.48216
2.45899
2.45599
2.42724
2.4132
2.41642
2.41718
2.40892
2.40751
2.40998
2.41452
2.41881
2.42901
2.45017
2.4842
2.52527
2.57787
2.64888
2.73453
2.80613
2.85141
2.89624
2.93235
2.9597
2.98096
2.99641
3.00772
3.01637
3.02773
3.03552
3.04448
3.04653
3.05363
3.05721
3.06195
3.05358
3.04176
3.01106
2.96744
2.91611
2.88856
2.85667
2.87065
0.999137
0.999163
0.999096
0.998987
0.998829
0.998621
0.998359
0.998039
0.997656
0.997208
0.996691
0.996104
0.995445
0.994712
0.99391
0.993038
0.992101
0.991107
0.990055
0.98893
0.987818
0.98673
0.985461
0.984238
0.98317
0.981991
0.980696
0.979605
0.978644
0.977481
0.976338
0.975463
0.97466
0.973609
0.97241
0.971571
0.971112
0.970714
0.970168
0.968894
0.968217
0.96796
0.968169
0.968653
0.970969
0.97818
1.22569
1.90403
1.97497
1.98626
2.00035
2.02364
2.08138
2.16964
2.25031
2.28794
2.27245
2.2704
2.19926
2.18357
2.09867
2.12495
2.0827
2.082
2.06892
2.08636
2.08471
2.12596
2.20999
2.31807
2.41027
2.52897
2.63183
2.7151
2.69193
2.70479
2.68161
2.66633
2.64828
2.63094
2.62554
2.62493
2.62046
2.62047
2.62139
2.62028
2.60702
2.60705
2.60031
2.59309
2.59166
2.59927
2.62966
2.68302
2.74945
2.8096
2.84931
2.88816
2.92397
2.95164
2.97442
2.98938
3.00142
3.01021
3.02184
3.02987
3.03971
3.04162
3.04901
3.05375
3.05929
3.05181
3.04084
3.01237
2.96914
2.91079
2.879
2.84359
2.85932
0.999136
0.999162
0.999094
0.998985
0.998826
0.998617
0.998353
0.998031
0.997646
0.997195
0.996675
0.996082
0.995417
0.994677
0.993865
0.992981
0.99203
0.991013
0.989948
0.988813
0.987625
0.986507
0.985295
0.983949
0.982762
0.981644
0.980281
0.978986
0.977934
0.976877
0.975575
0.97441
0.973478
0.972542
0.97134
0.969944
0.968889
0.96827
0.967778
0.966857
0.965195
0.96383
0.963741
0.963846
0.967129
0.989428
1.53873
1.94521
1.96975
1.96029
1.9545
1.95533
1.9708
2.01636
2.09529
2.1637
2.19924
2.23328
2.15611
2.16574
2.09078
2.11191
2.0716
2.11251
2.15472
2.25915
2.33894
2.45921
2.58243
2.71646
2.79572
2.85196
2.86236
2.87759
2.85203
2.84817
2.83159
2.82434
2.81665
2.80967
2.79812
2.77911
2.7571
2.73996
2.72488
2.71392
2.69875
2.68002
2.67091
2.65766
2.65016
2.65656
2.6787
2.71929
2.77403
2.82713
2.85705
2.88871
2.92272
2.94803
2.96915
2.98156
2.9929
3.00167
3.01324
3.02168
3.03331
3.0358
3.04396
3.04919
3.05551
3.04847
3.03843
3.01204
2.97042
2.90677
2.87054
2.832
2.84835
0.999135
0.99916
0.999092
0.998982
0.998822
0.998612
0.998347
0.998023
0.997635
0.99718
0.996656
0.996058
0.995386
0.994637
0.993815
0.992918
0.991953
0.990918
0.989818
0.988684
0.987459
0.986219
0.985067
0.983721
0.982337
0.981155
0.979917
0.978427
0.977133
0.976058
0.974883
0.973327
0.972053
0.971094
0.970155
0.968622
0.966944
0.966035
0.965649
0.965373
0.964699
0.963005
0.960591
0.960924
0.964766
1.02577
1.78041
1.99042
1.98927
1.97827
1.96333
1.94886
1.94253
1.94739
1.97042
2.03194
2.10919
2.19531
2.15159
2.19447
2.10637
2.22226
2.27657
2.3857
2.50923
2.65692
2.74369
2.78426
2.80071
2.83878
2.85406
2.86765
2.86104
2.86962
2.85875
2.8589
2.85297
2.85289
2.85617
2.86052
2.8599
2.85184
2.83395
2.80954
2.78305
2.75975
2.73874
2.72543
2.71099
2.69886
2.69229
2.6989
2.71651
2.74774
2.79142
2.83175
2.85767
2.88626
2.91247
2.93169
2.95125
2.96622
2.98067
2.99136
3.00424
3.01376
3.02668
3.02993
3.03869
3.04366
3.05042
3.04398
3.03492
3.01074
2.97074
2.90387
2.86129
2.819
2.83643
0.999133
0.999159
0.99909
0.998979
0.998819
0.998607
0.99834
0.998014
0.997623
0.997165
0.996636
0.996032
0.995352
0.994595
0.99376
0.992851
0.991865
0.990811
0.989683
0.988526
0.987304
0.985973
0.984723
0.983468
0.981974
0.980593
0.979382
0.977936
0.976358
0.975104
0.973967
0.972451
0.970783
0.969618
0.968649
0.967495
0.965567
0.963444
0.962275
0.961737
0.961035
0.959294
0.953763
0.95367
0.961692
1.2162
1.91397
1.98886
1.9923
1.9835
1.96765
1.95094
1.93365
1.91849
1.92075
1.94432
2.00143
2.14561
2.18265
2.3479
2.39216
2.51826
2.63173
2.70521
2.73735
2.78429
2.7959
2.80377
2.8072
2.82554
2.83313
2.84262
2.83849
2.84732
2.84815
2.85068
2.84953
2.85019
2.85369
2.85572
2.85742
2.85328
2.8442
2.83167
2.81353
2.7923
2.7695
2.7557
2.74588
2.7366
2.72708
2.72891
2.7399
2.76212
2.79649
2.8304
2.8565
2.88308
2.9029
2.92022
2.93806
2.95494
2.97093
2.98103
2.99446
3.00509
3.01866
3.0231
3.03273
3.03714
3.04397
3.03791
3.02994
3.00782
2.96984
2.90073
2.85357
2.807
2.82537
0.999132
0.999157
0.999088
0.998977
0.998815
0.998602
0.998333
0.998004
0.997611
0.997149
0.996614
0.996004
0.995316
0.994549
0.993702
0.992779
0.991775
0.990699
0.98955
0.988338
0.987123
0.985779
0.984363
0.983083
0.981667
0.98007
0.978687
0.977391
0.975749
0.974116
0.972817
0.971549
0.969801
0.967953
0.966731
0.965755
0.964451
0.962285
0.961077
0.960753
0.960782
0.960947
0.961103
0.965639
0.985592
1.54729
1.93841
1.97758
1.98076
1.97399
1.96296
1.95122
1.93916
1.92891
1.92874
1.94535
2.02599
2.27881
2.47359
2.61104
2.67994
2.71019
2.73706
2.741
2.75551
2.76817
2.76764
2.7731
2.77915
2.78808
2.78808
2.7957
2.7987
2.80933
2.8153
2.82379
2.82961
2.83425
2.84012
2.84431
2.8484
2.84962
2.84665
2.84126
2.8328
2.82007
2.80071
2.78442
2.77198
2.76393
2.75635
2.75489
2.76067
2.77581
2.80052
2.82813
2.85562
2.8784
2.8933
2.90655
2.92451
2.94417
2.96128
2.97049
2.98357
2.99568
3.01011
3.01555
3.02636
3.03011
3.03667
3.03099
3.02414
3.00396
2.96774
2.8976
2.84505
2.7939
2.81321
0.99913
0.999155
0.999086
0.998974
0.998811
0.998596
0.998326
0.997994
0.997598
0.997131
0.996591
0.995975
0.995278
0.994501
0.99364
0.992701
0.991676
0.990581
0.989423
0.98815
0.986854
0.985582
0.984084
0.982601
0.981275
0.979674
0.977989
0.976605
0.975185
0.973312
0.971622
0.970313
0.968948
0.966931
0.965073
0.963912
0.962946
0.961659
0.959284
0.956419
0.954302
0.952022
0.950489
0.954744
1.03952
1.79051
1.98656
1.99592
1.98788
1.97739
1.96884
1.96185
1.95782
1.9602
1.97972
2.05216
2.25543
2.55967
2.71554
2.73637
2.72767
2.71831
2.72374
2.72569
2.73166
2.73327
2.7313
2.74324
2.75237
2.75922
2.75895
2.76151
2.76019
2.76754
2.77579
2.78541
2.79714
2.80554
2.81401
2.82141
2.82846
2.83563
2.84036
2.8393
2.8362
2.83028
2.81786
2.80078
2.7849
2.77958
2.77547
2.77413
2.77809
2.78813
2.80632
2.82844
2.85346
2.87296
2.88742
2.90035
2.91788
2.93455
2.95034
2.95918
2.97217
2.98564
3.00128
3.00709
3.01878
3.02197
3.02814
3.02291
3.01713
2.99864
2.96416
2.89377
2.83717
2.78198
2.80187
0.999128
0.999153
0.999084
0.998971
0.998806
0.998591
0.998318
0.997983
0.997583
0.997113
0.996567
0.995943
0.995237
0.994449
0.993575
0.992619
0.991577
0.990437
0.989276
0.988005
0.986585
0.985264
0.983859
0.982198
0.98071
0.979281
0.977464
0.975737
0.974324
0.97272
0.97063
0.968925
0.967594
0.966074
0.963595
0.961556
0.960497
0.959554
0.958072
0.955359
0.954109
0.953974
0.957181
0.967581
1.3255
1.93566
1.95306
1.95939
1.96332
1.96719
1.97058
1.97074
1.97353
1.98982
2.04917
2.21555
2.52522
2.72896
2.72383
2.71585
2.70255
2.69204
2.69685
2.69684
2.69614
2.69384
2.6997
2.71286
2.72066
2.72708
2.72556
2.72955
2.73233
2.73253
2.73678
2.73982
2.7493
2.75993
2.7726
2.78673
2.79951
2.81145
2.82056
2.82689
2.83105
2.82908
2.82291
2.81396
2.79927
2.7884
2.78386
2.78182
2.78451
2.79242
2.80926
2.82988
2.84954
2.86607
2.88104
2.89617
2.91261
2.92658
2.94026
2.94919
2.96195
2.9754
2.99194
2.9983
3.01011
3.01294
3.01876
3.01435
3.00968
2.99276
2.95973
2.88971
2.82874
2.76914
2.78948
0.999125
0.999151
0.999081
0.998967
0.998802
0.998585
0.998309
0.997972
0.997568
0.997093
0.996541
0.99591
0.995194
0.994394
0.993507
0.992529
0.991474
0.990307
0.989082
0.987848
0.986384
0.984886
0.983548
0.981894
0.980132
0.978676
0.977065
0.975032
0.973313
0.971869
0.970026
0.967787
0.966138
0.964816
0.963198
0.960784
0.959179
0.958249
0.957463
0.956133
0.953698
0.953706
0.958508
1.00716
1.6638
1.94916
1.97413
1.97633
1.97727
1.97988
1.98296
1.98739
2.00217
2.05492
2.20198
2.49434
2.73548
2.72854
2.70299
2.68463
2.67655
2.67292
2.67085
2.66703
2.66721
2.67202
2.681
2.68872
2.69202
2.69796
2.70131
2.70605
2.70885
2.71039
2.71433
2.71539
2.72067
2.72737
2.73719
2.74841
2.76276
2.77977
2.79618
2.8096
2.81792
2.81944
2.81799
2.81229
2.80381
2.79408
2.78645
2.78352
2.78557
2.79257
2.80629
2.8247
2.84211
2.86106
2.8792
2.89497
2.90766
2.91859
2.93007
2.93939
2.95206
2.96456
2.98183
2.98891
3.00042
3.00302
3.00891
3.00507
3.00132
2.98554
2.95383
2.88478
2.82043
2.75713
2.77761
0.999123
0.999149
0.999078
0.998964
0.998797
0.998578
0.998301
0.99796
0.997552
0.997072
0.996514
0.995875
0.99515
0.994336
0.993435
0.992435
0.991366
0.99019
0.988879
0.98761
0.986219
0.984578
0.983103
0.981609
0.979698
0.977955
0.976472
0.974565
0.972405
0.970765
0.96926
0.967115
0.964717
0.963133
0.961807
0.959817
0.956715
0.954496
0.953024
0.951839
0.948455
0.94889
0.957608
1.17013
1.86191
1.97139
1.98991
1.99023
1.989
1.989
1.99208
2.0078
2.05986
2.1984
2.47858
2.73024
2.73747
2.69351
2.68018
2.67935
2.67347
2.66736
2.66121
2.65442
2.65347
2.65856
2.66633
2.66967
2.6686
2.67388
2.68013
2.68545
2.6899
2.69012
2.69325
2.69439
2.69871
2.70284
2.71026
2.71866
2.73017
2.74763
2.76692
2.78547
2.79759
2.80766
2.81005
2.80829
2.80399
2.79892
2.79046
2.78567
2.788
2.79408
2.8062
2.82309
2.83915
2.85885
2.8773
2.89282
2.90315
2.91226
2.92213
2.93053
2.94231
2.95333
2.97048
2.97859
2.98939
2.99212
2.99886
2.99592
2.99301
2.97831
2.94765
2.87958
2.81189
2.74433
2.76467
0.99912
0.999146
0.999075
0.99896
0.998792
0.998571
0.998291
0.997948
0.997536
0.997051
0.996486
0.995838
0.995103
0.994276
0.993361
0.992343
0.991237
0.990076
0.988726
0.987315
0.986001
0.984353
0.982634
0.981173
0.979394
0.977338
0.975683
0.974066
0.971795
0.969658
0.968109
0.966493
0.963966
0.961795
0.960438
0.959212
0.95745
0.955418
0.954686
0.954474
0.955531
0.961344
0.993845
1.54649
1.92565
1.9661
1.97816
1.98184
1.98259
1.98459
1.99766
2.04417
2.17515
2.4512
2.70591
2.74027
2.70248
2.65977
2.66261
2.67434
2.66926
2.65924
2.64854
2.6443
2.64577
2.65076
2.65326
2.6543
2.65137
2.65596
2.66187
2.66586
2.66965
2.66883
2.67278
2.67485
2.67941
2.68337
2.68983
2.69626
2.70485
2.71986
2.73693
2.75988
2.77989
2.79305
2.80099
2.8029
2.80129
2.7976
2.79253
2.78808
2.78893
2.79416
2.80422
2.82008
2.83699
2.85745
2.87539
2.88946
2.89808
2.90569
2.91448
2.92157
2.93248
2.94211
2.95833
2.96718
2.97738
2.98059
2.98846
2.98594
2.9837
2.96972
2.93968
2.87298
2.80259
2.73213
2.75241
0.999118
0.999143
0.999072
0.998956
0.998787
0.998564
0.998282
0.997935
0.997519
0.997028
0.996456
0.995799
0.995055
0.994214
0.993282
0.99225
0.991097
0.989925
0.988596
0.987072
0.985675
0.984151
0.982272
0.980622
0.979044
0.976908
0.974875
0.973268
0.971388
0.968837
0.966862
0.965353
0.963536
0.960656
0.958521
0.957186
0.95562
0.952744
0.948963
0.944702
0.944908
0.951249
1.09002
1.81949
1.99583
2.00615
2.00308
1.99758
1.9982
2.00989
2.05128
2.17268
2.44733
2.70996
2.74138
2.73908
2.68242
2.65444
2.66224
2.67238
2.66193
2.64939
2.63857
2.63819
2.64203
2.64424
2.64267
2.63748
2.6365
2.63987
2.6438
2.64517
2.64682
2.64736
2.6526
2.65532
2.66068
2.66476
2.67081
2.67633
2.68393
2.69515
2.70939
2.73073
2.75326
2.77161
2.78565
2.79357
2.79619
2.79499
2.79182
2.78873
2.78957
2.79364
2.80337
2.81739
2.83361
2.85421
2.87156
2.88495
2.89262
2.89892
2.90652
2.91278
2.9224
2.93046
2.9455
2.95486
2.965
2.96915
2.97842
2.97668
2.97481
2.96144
2.93223
2.8662
2.79332
2.71922
2.73889
0.999114
0.99914
0.999069
0.998952
0.998782
0.998557
0.998272
0.997922
0.997501
0.997005
0.996426
0.99576
0.995005
0.994151
0.993199
0.992155
0.990979
0.989745
0.988454
0.986892
0.985316
0.983876
0.982011
0.980086
0.978499
0.97659
0.974236
0.972361
0.97072
0.968381
0.965785
0.964022
0.962549
0.960247
0.957575
0.955998
0.954847
0.953241
0.95194
0.951301
0.955343
0.971705
1.44939
1.95115
1.99037
1.99091
1.98687
1.98719
2.0009
2.04588
2.17057
2.44091
2.71453
2.73859
2.73884
2.71115
2.66038
2.64861
2.65999
2.66665
2.65608
2.64072
2.63062
2.63141
2.63675
2.63411
2.62825
2.62093
2.62099
2.62348
2.62419
2.62317
2.62303
2.62535
2.63136
2.63456
2.64105
2.64528
2.65153
2.65627
2.66241
2.66962
2.68012
2.69842
2.72175
2.7488
2.76802
2.7821
2.78857
2.79049
2.78925
2.78814
2.7892
2.79352
2.80178
2.81396
2.82915
2.84885
2.86587
2.87922
2.88666
2.89179
2.89829
2.9038
2.91185
2.91746
2.9314
2.94121
2.95149
2.95677
2.96749
2.96621
2.96469
2.95164
2.92295
2.85779
2.78299
2.70649
2.72709
0.999111
0.999137
0.999065
0.998948
0.998776
0.99855
0.998262
0.997909
0.997483
0.996981
0.996395
0.99572
0.994953
0.994087
0.993117
0.992054
0.990866
0.989557
0.988268
0.986739
0.985016
0.983496
0.981783
0.979673
0.977874
0.976177
0.973818
0.971526
0.969792
0.967942
0.965179
0.962854
0.961275
0.959698
0.95718
0.954433
0.952778
0.951463
0.94949
0.949422
0.954029
1.02073
1.76128
2.01051
2.02787
2.02096
2.01648
2.02934
2.0734
2.19821
2.46321
2.74211
2.76937
2.74793
2.73587
2.68426
2.64622
2.63981
2.64968
2.65126
2.64178
2.62527
2.61869
2.6199
2.62188
2.61641
2.60698
2.60093
2.60123
2.60324
2.60322
2.60111
2.60234
2.60659
2.61118
2.61446
2.62151
2.62589
2.63295
2.63797
2.64355
2.64814
2.65569
2.66966
2.68868
2.71785
2.74348
2.7611
2.77317
2.77961
2.78213
2.78316
2.78502
2.78926
2.79667
2.80822
2.82345
2.84229
2.85976
2.8732
2.88033
2.88427
2.89019
2.89504
2.90135
2.90459
2.91734
2.92759
2.93835
2.94516
2.95731
2.95668
2.95534
2.94269
2.9147
2.84988
2.77347
2.69348
2.714
0.999108
0.999134
0.999061
0.998943
0.99877
0.998542
0.998252
0.997895
0.997465
0.996956
0.996364
0.995679
0.9949
0.994022
0.993036
0.991949
0.99075
0.989407
0.988041
0.986578
0.984795
0.983094
0.981492
0.979379
0.977289
0.975571
0.973518
0.970893
0.968828
0.967105
0.964813
0.961868
0.959842
0.958304
0.956375
0.952933
0.950138
0.94855
0.946552
0.948765
0.958958
1.25048
1.93435
2.00218
2.01574
2.02009
2.0333
2.07596
2.19372
2.44939
2.72486
2.76875
2.73666
2.74451
2.71891
2.6769
2.64693
2.64119
2.6487
2.64181
2.62873
2.60988
2.60419
2.60646
2.60478
2.59791
2.58727
2.58321
2.58447
2.58637
2.58661
2.58471
2.58827
2.59309
2.59655
2.59812
2.60441
2.60934
2.61746
2.62226
2.6265
2.62832
2.63362
2.64368
2.6584
2.68288
2.71209
2.739
2.75617
2.76681
2.77245
2.77575
2.77929
2.78396
2.79097
2.80198
2.81675
2.8352
2.85353
2.86665
2.87366
2.87688
2.88204
2.88575
2.88996
2.89077
2.90267
2.91322
2.9241
2.93198
2.94559
2.94568
2.94435
2.93198
2.90445
2.83991
2.76184
2.68067
2.70148
0.999104
0.99913
0.999057
0.998938
0.998764
0.998534
0.998241
0.99788
0.997446
0.996931
0.996331
0.995638
0.994848
0.993956
0.992956
0.991845
0.990631
0.98927
0.98782
0.986379
0.984612
0.982739
0.98111
0.979144
0.976818
0.974927
0.973098
0.97051
0.968022
0.966152
0.964288
0.961437
0.958878
0.957325
0.955873
0.953903
0.951498
0.949626
0.950157
0.955295
0.997962
1.62464
1.98403
2.02325
2.03618
2.05072
2.09544
2.21059
2.45636
2.71377
2.76482
2.7252
2.70741
2.71597
2.68228
2.64642
2.6271
2.62223
2.62775
2.61705
2.60318
2.58848
2.58473
2.58781
2.58484
2.57802
2.56874
2.56726
2.57048