/*--------------------------------*- C++ -*----------------------------------*\
| =========                 |                                                 |
| \\      /  F ield         | OpenFOAM: The Open Source CFD Toolbox           |
|  \\    /   O peration     | Version:  2.2.x                                 |
|   \\  /    A nd           | Web:      www.OpenFOAM.org                      |
|    \\/     M anipulation  |                                                 |
\*---------------------------------------------------------------------------*/
FoamFile
{
    version     2.0;
    format      ascii;
    class       volScalarField;
    location    "0.9";
    object      By;
}
// * * * * * * * * * * * * * * * * * * * * * * * * * * * * * * * * * * * * * //

dimensions      [1 0 -2 0 0 -1 0];

internalField   nonuniform List<scalar> 
14161
(
-9.82807e-06
1.32001e-07
-4.80595e-07
-6.31209e-08
-1.39229e-06
-1.00818e-06
1.73156e-07
1.10688e-06
-3.03387e-06
3.88084e-06
-2.20224e-06
2.87053e-07
-2.32602e-06
1.07064e-05
2.33838e-06
-5.78247e-06
-5.09768e-06
-4.5891e-06
6.98806e-06
1.20114e-05
7.00343e-06
4.06101e-06
4.45548e-06
3.09269e-06
5.30121e-06
7.36616e-06
7.41171e-06
7.2089e-06
6.95662e-06
1.67666e-05
2.70639e-05
2.81405e-05
2.39208e-05
3.56482e-05
3.01314e-05
6.2571e-05
4.73858e-05
9.95961e-05
0.000109174
0.000139966
0.000165119
0.000273519
0.000353461
0.000590212
0.000794998
0.00119575
0.00194928
0.00232714
0.00413225
0.00183654
-0.000168442
-0.0928043
-0.129276
0.00242846
0.0297361
0.0335934
0.0175001
0.0146187
0.010726
0.00445908
8.03994e-05
-0.00121034
-0.00296785
-0.00440103
-0.00436574
-0.00486399
-0.00488094
-0.00430562
-0.00349856
-0.00358942
-0.00207289
-0.00135185
0.000574343
-0.00272923
-0.00413544
0.00193581
0.0103538
-0.002628
-0.0139973
0.00675361
0.0710646
0.130239
0.131998
0.126468
0.0623894
0.0481867
0.0352648
0.0338437
0.0421457
0.0291036
0.0153442
0.0057047
-0.000983425
-0.00590086
-0.0114273
-0.0129914
-0.0118995
-0.00662062
-0.00477982
-0.00222431
-0.00101833
-0.000767201
0.000862022
0.000739619
0.00183031
0.00147564
0.00247712
0.0030854
0.00375088
0.0044406
0.00508545
0.00877
0.00888346
0.0123988
0.0126667
0.0143418
0.015362
0.0173289
0.024162
-1.68314e-05
3.2536e-07
-1.34979e-06
5.43884e-08
-1.22748e-06
-9.41928e-07
1.28109e-06
2.34923e-06
-2.58451e-06
2.75523e-06
-1.38349e-06
4.74425e-06
-1.05278e-08
-7.38907e-07
-4.91997e-06
5.45883e-06
1.95117e-05
1.15664e-05
-4.31811e-06
1.20645e-06
9.08956e-06
1.24961e-05
1.52758e-05
1.21273e-05
2.43734e-05
3.33489e-05
3.23771e-05
3.58596e-05
4.02142e-05
4.9489e-05
5.89783e-05
7.62149e-05
7.75667e-05
8.47012e-05
8.00982e-05
6.94979e-05
8.53075e-05
8.10228e-05
7.97783e-05
0.000108087
9.38658e-05
3.52093e-05
-9.49924e-05
-0.000269167
-0.000654016
-0.00101416
-0.00201538
-0.00343879
-0.00605584
-0.0141888
-0.0398105
-0.184347
-0.165744
0.00430498
0.0226043
0.0221471
0.00502287
-0.00109191
-0.00709304
-0.0110781
-0.00927873
-0.00871078
-0.015726
-0.0111893
-0.00588556
-0.00606215
-0.00471133
-0.00333674
-0.00125174
0.000245577
0.00184554
0.00186809
0.00422717
0.0129094
0.019192
0.0155735
0.0118196
0.0115684
0.0395887
0.0526666
0.111818
0.191772
0.237127
0.259727
0.216701
0.183835
0.133599
0.107084
0.0733756
0.0509954
0.0271297
0.0185206
0.00768577
0.00386291
-0.00387755
-0.0107226
-0.013404
-0.0115517
-0.0111835
-0.00771605
-0.00598876
-0.00493748
-0.0038862
-0.00377193
-0.00279248
-0.00076679
0.00143252
0.00535868
0.00799662
0.0140404
0.0162841
0.0236385
0.0259643
0.0320373
0.0340051
0.0392047
0.0432571
0.0516291
0.0713921
-2.93737e-05
-8.0312e-07
-2.46957e-06
-9.41771e-07
-1.97231e-06
-1.82573e-06
9.51492e-07
1.47363e-06
3.79597e-07
-1.1303e-06
1.18423e-05
-5.57775e-06
3.21094e-06
8.35828e-06
1.1165e-06
3.49409e-06
7.42123e-06
7.63889e-06
3.83205e-06
2.23632e-05
2.32527e-05
1.9784e-05
2.90468e-05
2.80148e-05
3.65511e-05
4.22485e-05
4.45253e-05
6.27172e-05
7.04899e-05
7.74371e-05
8.68964e-05
0.000112656
0.000132638
0.000155022
0.000154878
0.000210141
0.000224731
0.000257875
0.000295747
0.000347602
0.000437299
0.000540328
0.000535765
0.000814455
0.000702895
0.000659156
0.000405711
-0.000358302
-0.00154051
-0.00503233
-0.0280168
-0.131814
-0.0960514
-0.017301
0.00332272
-0.010255
-0.0271205
-0.0540979
-0.044015
-0.0432657
-0.0533779
-0.0426978
-0.0394994
-0.0329445
-0.0265423
-0.0230408
-0.0197553
-0.0179474
-0.0134143
-0.0100365
-0.00636453
-0.000646402
0.0127215
0.0310199
0.0412412
0.0505898
0.0744206
0.0992527
0.126488
0.163409
0.226383
0.305729
0.34144
0.343467
0.330116
0.281318
0.226651
0.168632
0.119842
0.0874462
0.0579947
0.0328083
0.0128319
-0.00356187
-0.0112695
-0.0128592
-0.0138185
-0.014477
-0.0159397
-0.0163346
-0.0151032
-0.0122601
-0.00961714
-0.0049037
-0.00155478
0.00196685
0.00476286
0.0104826
0.0149
0.025379
0.028612
0.0406656
0.0430282
0.0533929
0.0570858
0.0664969
0.0738883
0.0905166
0.119238
-3.3316e-05
-1.96108e-06
-3.84916e-06
-1.0822e-06
-1.7205e-06
-1.37716e-06
-2.18284e-07
3.58043e-06
-2.82008e-06
1.10542e-06
5.67428e-06
5.34342e-07
1.91477e-06
1.04729e-05
-4.0771e-07
1.09558e-06
1.90608e-05
1.56561e-05
7.44912e-06
2.02609e-05
2.67836e-05
2.71745e-05
4.04462e-05
4.35351e-05
5.38569e-05
6.5902e-05
7.53367e-05
8.43315e-05
0.00010026
0.000122224
0.000136334
0.000162402
0.000195201
0.000205096
0.00024165
0.000247326
0.00030388
0.000359749
0.000398109
0.000416387
0.000446598
0.000493314
0.000570148
0.000478344
0.000536063
0.000347862
0.000656418
0.000155885
0.00188181
0.000752124
0.0124051
0.0224685
0.0254831
-0.0502591
-0.101426
-0.137397
-0.138076
-0.14971
-0.12523
-0.113994
-0.106645
-0.0883776
-0.079362
-0.0614352
-0.0475768
-0.0388304
-0.0337988
-0.0330012
-0.0270292
-0.0205235
-0.0117092
0.00593528
0.0245247
0.0412641
0.0676943
0.109383
0.148077
0.16916
0.20489
0.272053
0.338535
0.377646
0.403586
0.429335
0.412165
0.377185
0.325203
0.247343
0.183399
0.128115
0.0850817
0.0514912
0.0246422
0.00647664
-0.00318085
-0.0118385
-0.0155963
-0.0182656
-0.0188501
-0.0173911
-0.0148355
-0.0120818
-0.00980073
-0.00662602
-0.00306
0.000811549
0.00567841
0.0134434
0.0218908
0.034482
0.0418945
0.0576444
0.0629046
0.0768593
0.0822405
0.0949667
0.105864
0.129521
0.1603
-4.12299e-05
-3.10617e-06
-4.66887e-06
-1.89377e-06
-2.4072e-06
-1.7278e-06
-1.16041e-06
5.02745e-06
-4.42162e-06
7.64773e-06
6.76818e-06
-1.55523e-06
1.42228e-06
1.87811e-05
2.06073e-06
5.76341e-06
2.30344e-05
1.9403e-05
5.83677e-06
2.77632e-05
4.0807e-05
3.65056e-05
5.4746e-05
5.1673e-05
7.13947e-05
8.54762e-05
8.68218e-05
0.000108807
0.000124575
0.000147903
0.000168596
0.000202624
0.000233238
0.000269289
0.000300339
0.000371765
0.000418112
0.000462939
0.000524834
0.00057055
0.000645344
0.000788417
0.000901824
0.0011391
0.00121077
0.00172642
0.00188731
0.00320258
0.00482367
0.00834316
0.0400922
0.1771
0.170422
-0.0988407
-0.229586
-0.255451
-0.239699
-0.215837
-0.187021
-0.170829
-0.138767
-0.105574
-0.0961318
-0.071702
-0.054242
-0.0439306
-0.0368405
-0.0309871
-0.0236015
-0.0157442
-0.00319375
0.0101652
0.0259081
0.0550897
0.10623
0.14973
0.180766
0.241587
0.318154
0.364492
0.393393
0.429059
0.449419
0.459838
0.467539
0.452892
0.415782
0.346085
0.269605
0.18916
0.134476
0.0838745
0.0443634
0.0117746
-0.007877
-0.0198835
-0.0241136
-0.0258682
-0.0245722
-0.0218974
-0.0184489
-0.0143994
-0.0101016
-0.00507784
-0.000256802
0.00400706
0.0121229
0.021465
0.0311116
0.0476751
0.0587573
0.0783311
0.0868486
0.104835
0.110863
0.12593
0.139066
0.1668
0.201962
-4.21613e-05
-4.41416e-06
-5.83528e-06
-2.06997e-06
-2.0568e-06
-2.05199e-06
-2.83816e-07
3.06048e-06
-3.22677e-07
7.70891e-07
1.18547e-05
-3.85091e-06
6.18868e-06
1.37142e-05
7.23134e-06
3.0914e-06
2.03901e-05
2.03808e-05
1.58735e-05
4.05654e-05
4.9779e-05
4.49609e-05
6.15964e-05
6.62982e-05
8.95727e-05
0.000104169
0.00011478
0.000139044
0.000160162
0.000194953
0.000231219
0.000265086
0.000301713
0.000344445
0.000405846
0.00047552
0.000575377
0.000648822
0.000692839
0.00074872
0.000878987
0.00105664
0.00133627
0.00169074
0.00212992
0.00277304
0.00352196
0.00572919
0.00651839
0.0155618
0.0332297
0.192462
0.305171
-0.097103
-0.29822
-0.317495
-0.279669
-0.243799
-0.205213
-0.196122
-0.159461
-0.132499
-0.105505
-0.0822205
-0.0658366
-0.051873
-0.0473772
-0.0389408
-0.0307396
-0.0210138
-0.0108761
0.00374238
0.030157
0.0651785
0.106327
0.164516
0.230085
0.300952
0.365787
0.419771
0.448857
0.484621
0.502837
0.520921
0.535559
0.52108
0.501263
0.459324
0.38119
0.290486
0.197377
0.125041
0.06352
0.023098
-0.0046906
-0.0162019
-0.0239566
-0.0250123
-0.0248107
-0.0206655
-0.0175012
-0.012188
-0.00752512
-0.0035761
0.00190643
0.0073459
0.0188707
0.0298823
0.0445972
0.0642689
0.0775836
0.0999793
0.110807
0.131768
0.139953
0.160528
0.173288
0.204601
0.237132
-4.68509e-05
-5.31083e-06
-6.54098e-06
-2.74381e-06
-2.54632e-06
-2.20104e-06
-7.51496e-07
3.83131e-06
-1.70697e-06
3.34225e-06
1.00928e-05
-4.35237e-07
8.85351e-06
1.626e-05
8.81241e-06
5.88573e-06
2.71086e-05
3.65303e-05
2.70316e-05
4.13017e-05
4.21172e-05
4.75254e-05
6.92226e-05
8.22595e-05
0.00010957
0.00012627
0.000148156
0.000163396
0.000189887
0.000217059
0.000248181
0.000285413
0.000331451
0.000384456
0.000440317
0.000493098
0.000546788
0.000638648
0.000679375
0.000798359
0.000779568
0.000889662
0.000927482
0.0011595
0.00129637
0.00175107
0.00230321
0.00372723
0.0043915
0.0109309
0.0168402
0.132976
0.268079
-0.170205
-0.382802
-0.383623
-0.350125
-0.301025
-0.256724
-0.218882
-0.174246
-0.142785
-0.105227
-0.0795347
-0.0626878
-0.0480143
-0.0399131
-0.0321623
-0.0233972
-0.0125542
-0.00225349
0.0136988
0.0369572
0.0720977
0.120821
0.187844
0.267157
0.347614
0.412703
0.47673
0.511455
0.541769
0.561638
0.578104
0.582574
0.583328
0.573173
0.545548
0.491201
0.408882
0.298252
0.192379
0.109197
0.0449674
0.0068771
-0.0157593
-0.0262776
-0.0290266
-0.0275681
-0.0236884
-0.0163663
-0.0116607
-0.00479014
-0.00158288
0.00954519
0.0176978
0.0303715
0.0414471
0.059217
0.0817005
0.0981297
0.124792
0.134552
0.159417
0.168162
0.190296
0.205187
0.236059
0.267787
-4.5512e-05
-6.44341e-06
-7.46036e-06
-2.94901e-06
-2.44865e-06
-1.70747e-06
-1.0348e-06
3.76417e-06
2.13106e-08
3.06354e-06
8.66754e-06
1.05996e-06
5.3738e-06
1.96789e-05
1.57718e-05
8.47997e-06
2.31426e-05
3.52025e-05
3.24273e-05
5.30361e-05
5.34721e-05
6.46778e-05
7.91078e-05
0.000100664
0.000129534
0.000150028
0.000171812
0.000188953
0.000217707
0.00025989
0.000310578
0.000367626
0.000433134
0.000512266
0.000571231
0.000640227
0.000698086
0.000739309
0.000855185
0.00103981
0.00127462
0.00152893
0.00180243
0.00220858
0.00248812
0.00293754
0.00320513
0.00392307
0.00438464
0.00461463
0.00654783
0.000982637
-0.0272075
-0.260144
-0.350584
-0.345501
-0.330698
-0.30536
-0.265908
-0.22624
-0.184169
-0.145989
-0.110234
-0.0805628
-0.0625622
-0.0500583
-0.040596
-0.0315561
-0.0232573
-0.014109
-0.00234391
0.0146399
0.0371975
0.0731616
0.13093
0.212752
0.311769
0.400094
0.469914
0.529175
0.552826
0.58186
0.60895
0.624292
0.635737
0.641525
0.634397
0.62431
0.589468
0.535856
0.428668
0.298417
0.172011
0.0793284
0.0201239
-0.00944907
-0.0249278
-0.0288618
-0.0248718
-0.0211441
-0.0119079
-0.00427591
0.00497293
0.0106145
0.0255629
0.0299145
0.043381
0.0565542
0.0747388
0.0982578
0.11772
0.147244
0.159691
0.187603
0.194835
0.220185
0.235542
0.264178
0.297877
-4.78693e-05
-6.75774e-06
-7.90409e-06
-3.47274e-06
-2.91907e-06
-1.55691e-06
-1.28238e-06
4.55232e-06
-9.74571e-07
3.90193e-06
9.51187e-06
4.52044e-06
7.3282e-06
1.70117e-05
1.62643e-05
1.70631e-05
2.88207e-05
4.77119e-05
3.95892e-05
5.10945e-05
6.05538e-05
8.03954e-05
9.24362e-05
0.000118875
0.000146918
0.000169737
0.000199784
0.000215964
0.000244196
0.000283371
0.000328065
0.000375759
0.000418751
0.000483515
0.000536116
0.000621403
0.000663144
0.000713832
0.000785096
0.00086639
0.000892203
0.000920087
0.00091593
0.000840015
0.000723345
0.000570886
0.000177456
-0.000667328
-0.00180232
-0.00615065
-0.0168994
-0.0838262
-0.389216
-0.466653
-0.379744
-0.345991
-0.319706
-0.3002
-0.260183
-0.220672
-0.179712
-0.14013
-0.105122
-0.075096
-0.0571122
-0.0438462
-0.0340536
-0.0244826
-0.016932
-0.00854544
0.00427078
0.020707
0.043529
0.0814682
0.148243
0.24204
0.360691
0.454698
0.511403
0.567023
0.60911
0.631841
0.655815
0.671921
0.678605
0.674915
0.67731
0.668337
0.650293
0.615946
0.55109
0.437462
0.279576
0.141587
0.0470695
0.0037869
-0.0232228
-0.0261929
-0.0244813
-0.0141619
-0.00500827
0.00205134
0.0163075
0.0245406
0.0383345
0.0435027
0.0615235
0.0753669
0.0930979
0.117885
0.138656
0.169587
0.186082
0.216718
0.225026
0.250998
0.263233
0.291296
0.325569
-4.50913e-05
-7.08435e-06
-8.41053e-06
-3.6787e-06
-2.6008e-06
-1.32601e-06
-1.17957e-06
3.55611e-06
2.0569e-06
6.16168e-07
9.87576e-06
7.47973e-06
6.04009e-06
1.73976e-05
2.19033e-05
2.05515e-05
2.39459e-05
4.32094e-05
5.11899e-05
5.83028e-05
7.13935e-05
9.05576e-05
9.95818e-05
0.000126254
0.000159517
0.000187066
0.000218545
0.000236654
0.000272689
0.000323333
0.000382521
0.00044743
0.000510899
0.000582668
0.000669457
0.000758657
0.000850432
0.00099194
0.00107678
0.00122417
0.00138353
0.00157248
0.00176981
0.00196113
0.00221475
0.00220545
0.00241119
0.00237572
0.0026705
0.000509268
-0.0119871
-0.148145
-0.625474
-0.620425
-0.487076
-0.373552
-0.338642
-0.306577
-0.265841
-0.224065
-0.180798
-0.139213
-0.103091
-0.0703445
-0.0551457
-0.0425391
-0.0309497
-0.0205741
-0.0130143
-0.00592955
0.00630166
0.0226658
0.0495089
0.0942945
0.173996
0.294631
0.419754
0.501348
0.550492
0.597033
0.631745
0.671952
0.685833
0.697752
0.717665
0.719974
0.719264
0.712122
0.700577
0.677667
0.63674
0.562475
0.43163
0.242374
0.095138
0.0234212
-0.0121933
-0.0191507
-0.0160031
-0.00641328
0.00935035
0.0177344
0.0350079
0.0407987
0.0559322
0.0657126
0.0834038
0.0944137
0.1127
0.139915
0.160181
0.193589
0.211734
0.246075
0.253959
0.281556
0.289242
0.317738
0.35127
-4.56788e-05
-6.90012e-06
-8.49972e-06
-3.98954e-06
-3.00615e-06
-8.55465e-07
-1.99913e-06
3.31986e-06
2.72967e-06
4.79261e-07
8.11592e-06
1.23472e-05
5.95854e-06
1.63443e-05
2.83828e-05
2.30606e-05
3.05006e-05
5.41517e-05
6.05296e-05
5.54139e-05
8.20727e-05
0.000111788
0.00011688
0.000142815
0.0001836
0.000213397
0.000249815
0.000275433
0.000299609
0.000347157
0.000399837
0.000449973
0.000503203
0.000559978
0.000618225
0.000687526
0.000751593
0.000833028
0.000881043
0.000950869
0.00098331
0.000979955
0.00097838
0.000893273
0.000838832
0.000652983
0.000462995
-0.000390871
-0.000292796
-0.00530841
-0.0294771
-0.259853
-0.76624
-0.75737
-0.625082
-0.457569
-0.402775
-0.322075
-0.285325
-0.236893
-0.189921
-0.142917
-0.104107
-0.074891
-0.0529022
-0.0382819
-0.0237599
-0.0188059
-0.0105271
-0.000634275
0.0112442
0.0281842
0.0596045
0.11179
0.212148
0.365963
0.479129
0.553075
0.600086
0.638739
0.66739
0.692327
0.710829
0.729389
0.73477
0.742089
0.740769
0.73924
0.731089
0.716859
0.689114
0.646413
0.551501
0.380761
0.181199
0.0587596
0.00805413
-0.0108658
0.000627511
0.00802719
0.0284755
0.0352701
0.0522668
0.0586458
0.0780814
0.0854783
0.103289
0.115025
0.135816
0.162543
0.183916
0.217151
0.236872
0.27064
0.282083
0.310301
0.317397
0.3447
0.378694
-4.20593e-05
-6.48324e-06
-8.57277e-06
-4.06877e-06
-2.92235e-06
-4.17169e-07
-2.12855e-06
2.72389e-06
3.7517e-06
9.81149e-07
7.71498e-06
1.37361e-05
6.51161e-06
1.60231e-05
3.11178e-05
2.75761e-05
2.54332e-05
4.95476e-05
7.17557e-05
6.79837e-05
8.62851e-05
0.00011145
0.000127991
0.000148503
0.000187573
0.000227307
0.000256762
0.000282476
0.000317421
0.000375437
0.00044106
0.000510008
0.000577866
0.000650289
0.000725616
0.000814575
0.000907754
0.00102078
0.00110875
0.00120916
0.00124159
0.00134246
0.00137332
0.00142661
0.00143124
0.00130991
0.00128765
0.000883821
-0.000452277
-0.00778655
-0.0542344
-0.414309
-0.810612
-0.806888
-0.724282
-0.587193
-0.471627
-0.361824
-0.319205
-0.246858
-0.196413
-0.144344
-0.108127
-0.0774002
-0.0495125
-0.0317487
-0.0204975
-0.0120129
-0.00403844
0.00396299
0.0171028
0.0349483
0.0713008
0.148752
0.283866
0.44414
0.542064
0.578575
0.636599
0.671126
0.708373
0.715636
0.731759
0.743126
0.749674
0.756604
0.756189
0.753917
0.749949
0.742318
0.726445
0.697558
0.635899
0.511757
0.283224
0.114979
0.0375619
0.0138119
0.0248263
0.0343754
0.0555914
0.0614545
0.0810595
0.0880525
0.104005
0.109021
0.126538
0.139625
0.157852
0.185002
0.205549
0.24064
0.259966
0.297758
0.310295
0.34053
0.34549
0.372719
0.404601
-4.12684e-05
-5.73e-06
-8.2258e-06
-4.09261e-06
-3.18556e-06
7.30711e-08
-1.95503e-06
1.37583e-06
6.86869e-06
1.06162e-07
5.6874e-06
1.83236e-05
1.0392e-05
1.27518e-05
3.30685e-05
3.8027e-05
3.10106e-05
6.002e-05
7.73264e-05
7.04709e-05
9.36917e-05
0.0001321
0.000151825
0.000168521
0.000207326
0.000255853
0.000294466
0.000326014
0.000355488
0.000404544
0.000459865
0.000523482
0.000584866
0.000641434
0.000683185
0.000742531
0.000815108
0.000889942
0.000931869
0.00100356
0.00105835
0.00116348
0.00121679
0.00136018
0.00143548
0.00170475
0.00167568
0.00214758
0.000523276
-0.00704356
-0.0906715
-0.542892
-0.804392
-0.831377
-0.799612
-0.723704
-0.598961
-0.477159
-0.373051
-0.292635
-0.21704
-0.160832
-0.115855
-0.0750377
-0.0448356
-0.0324886
-0.0243252
-0.0125305
-0.00293132
0.00724177
0.0204918
0.0464258
0.0988559
0.216977
0.387174
0.499138
0.588002
0.635219
0.663366
0.693057
0.721101
0.740379
0.751548
0.759039
0.76261
0.762763
0.76505
0.766158
0.763493
0.757739
0.746699
0.726537
0.683887
0.591981
0.40888
0.190719
0.0871504
0.0568362
0.0684222
0.0746025
0.0903002
0.0986078
0.112087
0.115734
0.129405
0.136261
0.15213
0.163713
0.181616
0.207689
0.228465
0.262581
0.283838
0.324049
0.336571
0.370558
0.372094
0.401738
0.428881
-3.72683e-05
-4.76867e-06
-7.89513e-06
-3.97878e-06
-3.11056e-06
4.67213e-07
-2.13556e-06
4.55603e-07
6.77844e-06
1.02485e-06
6.63928e-06
1.59497e-05
1.17341e-05
1.30193e-05
3.58118e-05
3.46819e-05
3.50531e-05
5.51815e-05
8.15242e-05
8.2907e-05
9.6563e-05
0.00013067
0.000158989
0.000179246
0.000205201
0.000256847
0.00030276
0.000329073
0.000346098
0.00040104
0.000477273
0.000548123
0.000634333
0.000695417
0.000762713
0.000839269
0.000933613
0.00102957
0.00107867
0.00112426
0.00117311
0.00125986
0.0012898
0.00142505
0.00153981
0.00185803
0.00199037
0.00259736
0.000285086
-0.0128478
-0.155626
-0.673
-0.816129
-0.826518
-0.81498
-0.786937
-0.703831
-0.597435
-0.443024
-0.33716
-0.227163
-0.173731
-0.123671
-0.0771984
-0.0471149
-0.0270669
-0.0179737
-0.0124269
-0.00546187
0.00722878
0.0240314
0.0671562
0.152382
0.316796
0.493
0.568916
0.621554
0.677585
0.706566
0.724675
0.739745
0.756291
0.760084
0.765009
0.768783
0.76921
0.77078
0.772226
0.771163
0.768962
0.764512
0.749839
0.721585
0.651365
0.50767
0.289413
0.163738
0.116328
0.124718
0.121374
0.137288
0.135216
0.149244
0.151383
0.165576
0.167556
0.180211
0.190906
0.20879
0.232198
0.250646
0.282009
0.306191
0.345422
0.362494
0.397472
0.401497
0.430931
0.45435
-3.53604e-05
-3.61046e-06
-7.10715e-06
-3.67865e-06
-3.33476e-06
5.37366e-07
-1.71566e-06
-8.60713e-07
9.12045e-06
1.70949e-06
4.20107e-06
2.01507e-05
1.361e-05
1.29375e-05
3.52689e-05
4.6532e-05
4.01334e-05
6.58533e-05
8.65634e-05
9.06972e-05
0.000111422
0.000143379
0.000176864
0.000196007
0.000227581
0.000280132
0.000328954
0.000371595
0.000405112
0.000447004
0.000503079
0.000593288
0.000644744
0.000719186
0.000770461
0.000790988
0.000864878
0.000948905
0.00105823
0.00118511
0.00125008
0.00139388
0.00144202
0.00161341
0.00160839
0.0019318
0.00148574
0.00199248
-0.00389246
-0.0316596
-0.291194
-0.784241
-0.820657
-0.820165
-0.814422
-0.79705
-0.770437
-0.704926
-0.566906
-0.419448
-0.277155
-0.194823
-0.130599
-0.0783848
-0.0447319
-0.0202794
-0.0164199
-0.0139031
-0.00674844
0.0145944
0.056131
0.133442
0.289215
0.466927
0.558378
0.633314
0.671642
0.700146
0.719453
0.735193
0.748099
0.7569
0.763154
0.768106
0.769652
0.773028
0.775476
0.777801
0.778506
0.78038
0.782854
0.774681
0.762251
0.712504
0.593828
0.393254
0.254208
0.20467
0.195784
0.1894
0.190927
0.18792
0.191562
0.192153
0.201523
0.203732
0.208934
0.217359
0.231029
0.253086
0.270097
0.303173
0.326008
0.368884
0.387059
0.426016
0.42805
0.46029
0.477094
-3.12247e-05
-2.07807e-06
-6.33463e-06
-3.45176e-06
-3.11219e-06
7.15845e-07
-6.75034e-07
-1.78723e-06
7.58284e-06
2.78207e-06
4.69472e-06
1.61137e-05
1.80796e-05
1.52094e-05
3.25468e-05
4.56256e-05
4.33433e-05
6.00044e-05
8.88603e-05
0.000105639
0.0001115
0.000139547
0.000177978
0.000203774
0.000228509
0.000271548
0.000319921
0.000372177
0.000398637
0.000416141
0.000475837
0.000562693
0.000629567
0.000702916
0.000763445
0.000802612
0.000864678
0.000911317
0.000980647
0.00101543
0.000978779
0.000952539
0.00091745
0.000756673
0.000620462
0.000403421
-3.01947e-05
-0.00181293
-0.00963118
-0.0638004
-0.444057
-0.809962
-0.837843
-0.835417
-0.83105
-0.817521
-0.797058
-0.761552
-0.681125
-0.54491
-0.358762
-0.233512
-0.131073
-0.0733575
-0.0330734
-0.0117769
0.00507231
0.00372411
0.039594
0.0968552
0.210729
0.3464
0.4509
0.553533
0.606595
0.649078
0.67983
0.706516
0.726057
0.739534
0.750266
0.75698
0.761097
0.76715
0.770488
0.773723
0.778494
0.785115
0.79269
0.798496
0.804298
0.804461
0.79922
0.757851
0.663407
0.493165
0.350814
0.28716
0.26793
0.249918
0.247688
0.238625
0.23623
0.228884
0.231799
0.23259
0.238749
0.244044
0.256078
0.273107
0.292272
0.322478
0.347136
0.390966
0.410572
0.45239
0.453866
0.489193
0.500238
-2.87374e-05
-6.70626e-07
-5.1792e-06
-2.87686e-06
-2.96825e-06
4.92969e-07
-8.37056e-08
-2.70156e-06
7.69136e-06
4.91972e-06
3.30661e-06
1.8202e-05
2.27395e-05
1.27581e-05
3.32823e-05
5.13374e-05
5.57963e-05
6.41433e-05
8.90154e-05
0.0001156
0.000129471
0.000147859
0.000195588
0.000230791
0.00024334
0.000288397
0.000346156
0.000402855
0.000449626
0.000490326
0.00053011
0.000594364
0.000687498
0.000731415
0.000821125
0.000852924
0.000920395
0.000971284
0.00108646
0.00112453
0.001265
0.0012548
0.00135517
0.00147117
0.00169172
0.00165742
0.00185285
0.000318814
-0.00873852
-0.0962346
-0.556
-0.814446
-0.851524
-0.851362
-0.84758
-0.837373
-0.829782
-0.804859
-0.758293
-0.65041
-0.49242
-0.268799
-0.130566
-0.0590693
0.00981542
0.0445449
0.135403
0.187316
0.233543
0.308823
0.376523
0.465418
0.509516
0.562184
0.603132
0.634673
0.657416
0.680306
0.699037
0.71322
0.722131
0.734022
0.745891
0.754687
0.765489
0.780527
0.79502
0.810509
0.826477
0.838794
0.850134
0.857923
0.846164
0.805824
0.713025
0.569653
0.45036
0.373319
0.339758
0.302444
0.299767
0.282605
0.27974
0.268861
0.267215
0.264753
0.267851
0.271948
0.280504
0.296143
0.314159
0.340413
0.368107
0.408445
0.433768
0.474957
0.479679
0.515548
0.523258
-2.464e-05
1.28112e-06
-4.01698e-06
-2.34387e-06
-2.79013e-06
3.8977e-07
6.75134e-07
-2.30123e-06
4.46214e-06
6.72e-06
3.86695e-06
1.3118e-05
2.41976e-05
1.70888e-05
3.11915e-05
4.87104e-05
6.11094e-05
5.65158e-05
9.38679e-05
0.000120323
0.000128359
0.000151153
0.000187334
0.000233415
0.000252305
0.000282
0.000323564
0.000385043
0.000429124
0.000461116
0.000477284
0.000537843
0.000619641
0.000679308
0.000737232
0.000776516
0.000795431
0.000821395
0.000908689
0.000892021
0.000977568
0.00094084
0.00103928
0.000912987
0.00119743
0.000977301
0.00140292
-0.00150939
-0.0162301
-0.169073
-0.694812
-0.82653
-0.846923
-0.849502
-0.849005
-0.848023
-0.841172
-0.82823
-0.792346
-0.721025
-0.567808
-0.314166
-0.0462028
0.107722
0.199995
0.263086
0.308697
0.369895
0.389744
0.429328
0.470511
0.517139
0.547384
0.576478
0.600914
0.622893
0.645299
0.66481
0.681667
0.703536
0.723826
0.742568
0.756411
0.770486
0.788361
0.804643
0.823286
0.843208
0.864263
0.88246
0.896885
0.897545
0.882498
0.841557
0.756072
0.630199
0.509806
0.445979
0.396593
0.366399
0.339616
0.327544
0.31393
0.308173
0.298528
0.297633
0.293191
0.298171
0.301497
0.318076
0.331926
0.360156
0.384863
0.427009
0.454768
0.499872
0.50382
0.541553
0.546173
-2.17652e-05
2.72647e-06
-2.69297e-06
-1.57918e-06
-2.23687e-06
-1.54005e-07
1.39262e-06
-1.97712e-06
3.84711e-06
9.14242e-06
3.00004e-06
1.56204e-05
2.61969e-05
2.01941e-05
2.59278e-05
5.60793e-05
6.99864e-05
6.77036e-05
8.76856e-05
0.000131428
0.000146371
0.000153654
0.000195925
0.000245773
0.000272902
0.000297256
0.000339621
0.000402716
0.000466501
0.000514213
0.000549575
0.000598248
0.000678221
0.000758593
0.000802843
0.000851398
0.00089392
0.000903689
0.00099346
0.00102413
0.00119437
0.00125184
0.0014678
0.00144364
0.0015988
0.00121697
0.000756654
-0.00544528
-0.0385107
-0.315248
-0.799118
-0.831083
-0.835191
-0.836247
-0.838179
-0.838912
-0.837443
-0.827902
-0.796003
-0.713877
-0.504923
-0.122464
0.166676
0.306259
0.371904
0.415179
0.439229
0.472145
0.482053
0.510574
0.525367
0.552504
0.576279
0.595067
0.613749
0.629509
0.642454
0.656633
0.672241
0.690781
0.710076
0.732509
0.751833
0.773432
0.796385
0.818115
0.843001
0.86652
0.894108
0.913703
0.923046
0.919636
0.898668
0.854998
0.775597
0.668387
0.560532
0.490711
0.444773
0.408622
0.387348
0.364512
0.353003
0.340139
0.333041
0.326586
0.324374
0.323386
0.328771
0.338987
0.353831
0.378725
0.402867
0.445059
0.47503
0.522179
0.525518
0.565141
0.56655
-1.79592e-05
4.97481e-06
-1.29529e-06
-8.20658e-07
-1.7245e-06
-3.884e-07
1.25688e-06
-1.6372e-06
6.6794e-07
9.89108e-06
2.93755e-06
7.76307e-06
2.77797e-05
2.60592e-05
2.21114e-05
5.03807e-05
6.90114e-05
6.44632e-05
9.26436e-05
0.000120403
0.000149547
0.000159612
0.000190103
0.000239231
0.000274213
0.000291654
0.000320877
0.000381681
0.000434183
0.000476138
0.000492503
0.000520729
0.000572301
0.000661454
0.000693162
0.000763194
0.000765113
0.000787319
0.000734114
0.000859363
0.000797853
0.00088645
0.000730345
0.000756449
0.0004538
0.000309631
-0.00156706
-0.00983179
-0.0763096
-0.495136
-0.81678
-0.846398
-0.845701
-0.844391
-0.843814
-0.839486
-0.827009
-0.799868
-0.73698
-0.573957
-0.216202
0.151316
0.329201
0.41752
0.466491
0.490438
0.507192
0.53249
0.54386
0.56511
0.57952
0.592858
0.607242
0.618298
0.630686
0.645042
0.657809
0.669274
0.680596
0.694211
0.711451
0.72965
0.751561
0.774206
0.794184
0.814756
0.835368
0.857561
0.88013
0.899373
0.910333
0.903959
0.881759
0.842642
0.77837
0.68677
0.598174
0.532135
0.487653
0.443385
0.424545
0.396086
0.385664
0.369008
0.362125
0.353749
0.349247
0.348849
0.351256
0.359249
0.37461
0.393867
0.421727
0.459713
0.494338
0.541076
0.549217
0.587669
0.588919
-1.485e-05
6.36123e-06
-4.20793e-08
-2.51134e-08
-8.58601e-07
-7.13668e-07
1.80966e-06
-1.48647e-06
8.4696e-07
1.02876e-05
6.57862e-06
6.78318e-06
2.79519e-05
3.04352e-05
2.47508e-05
4.85803e-05
7.85543e-05
7.54628e-05
8.75605e-05
0.000135021
0.000156776
0.000166994
0.000193068
0.000247793
0.000284772
0.000305688
0.000328892
0.000394866
0.000451331
0.000518177
0.000542346
0.000562102
0.000617548
0.000714224
0.000791728
0.00083387
0.000832528
0.000854444
0.000756881
0.000865619
0.000900418
0.00105095
0.00117636
0.00150874
0.00151216
0.00190967
-0.000436172
-0.0121523
-0.132519
-0.6325
-0.831244
-0.85483
-0.852302
-0.851149
-0.848489
-0.836043
-0.807687
-0.745673
-0.600504
-0.267884
0.101364
0.322258
0.418946
0.482293
0.515558
0.54283
0.553306
0.570866
0.578441
0.594101
0.608196
0.617457
0.633044
0.640816
0.652472
0.66295
0.673391
0.68154
0.69074
0.70165
0.714671
0.728977
0.74585
0.763822
0.784142
0.804109
0.825277
0.845981
0.864143
0.879929
0.887081
0.880053
0.860977
0.828334
0.775077
0.702123
0.622456
0.565533
0.515491
0.484417
0.45459
0.432571
0.412351
0.401138
0.38763
0.383099
0.372854
0.375462
0.371215
0.382232
0.391345
0.41315
0.437833
0.476132
0.511011
0.561018
0.569751
0.609102
0.60863
-1.12677e-05
8.61124e-06
1.56858e-06
1.04496e-06
-2.60423e-07
-9.13471e-07
1.74089e-06
-9.47508e-07
-2.34383e-06
8.854e-06
7.03987e-06
1.46708e-06
2.49803e-05
2.91959e-05
2.61702e-05
4.373e-05
6.80763e-05
7.75979e-05
8.94886e-05
0.000117323
0.000155912
0.000165859
0.00018704
0.00023219
0.000275843
0.00030353
0.000317318
0.000358329
0.000414045
0.000460133
0.00048862
0.000490815
0.000509413
0.000590321
0.000661502
0.000769601
0.000766544
0.000829355
0.000828524
0.000972335
0.000980731
0.00112851
0.00103635
0.00142755
0.000900211
0.000813992
-0.00426153
-0.0316349
-0.272733
-0.775186
-0.834605
-0.838432
-0.833904
-0.836682
-0.832146
-0.8096
-0.751249
-0.608673
-0.283128
0.0960405
0.309806
0.435751
0.493901
0.525913
0.54676
0.564861
0.578618
0.59473
0.607323
0.617401
0.62837
0.637849
0.652529
0.663645
0.673026
0.682787
0.689282
0.69663
0.701531
0.709245
0.717617
0.728739
0.742529
0.757595
0.774809
0.791519
0.809638
0.826855
0.840612
0.852088
0.858112
0.853613
0.839458
0.813891
0.77179
0.712482
0.646131
0.589642
0.54253
0.512317
0.483303
0.46048
0.440671
0.426709
0.414969
0.406181
0.398693
0.396358
0.394096
0.401487
0.409924
0.431459
0.453161
0.492231
0.526475
0.57928
0.588996
0.630929
0.628151
-8.42185e-06
1.0068e-05
2.79445e-06
1.75874e-06
6.90411e-07
-9.69593e-07
1.27297e-06
4.01797e-07
-2.55225e-06
8.63419e-06
9.61862e-06
4.22205e-06
2.01603e-05
3.76194e-05
2.95179e-05
4.38171e-05
7.58836e-05
8.24039e-05
9.39984e-05
0.000120993
0.000160584
0.0001738
0.000195029
0.000227226
0.000282496
0.000314195
0.00032294
0.000361101
0.000433498
0.000493817
0.000539916
0.000541248
0.000564593
0.000599034
0.000696727
0.000690242
0.000753567
0.00065586
0.000629399
0.000454353
0.000349507
8.95753e-05
-0.000159188
-0.000629212
-0.00125626
-0.00294287
-0.0114979
-0.0731771
-0.481414
-0.819007
-0.847367
-0.844675
-0.837956
-0.83397
-0.817068
-0.762468
-0.625009
-0.31567
0.0788811
0.300455
0.418684
0.502935
0.536028
0.554351
0.572054
0.587434
0.60104
0.613411
0.626581
0.634547
0.646335
0.655186
0.668159
0.681001
0.690127
0.702744
0.708152
0.712947
0.716351
0.718549
0.723483
0.732986
0.744363
0.756328
0.769179
0.782378
0.79785
0.81179
0.823315
0.832372
0.836824
0.833707
0.823189
0.802833
0.769065
0.719132
0.661031
0.609171
0.570108
0.534917
0.511935
0.483131
0.467838
0.449147
0.439359
0.428938
0.421547
0.418284
0.416391
0.420159
0.430576
0.446344
0.470938
0.506003
0.542791
0.593935
0.608734
0.649846
0.645633
-4.77287e-06
1.20918e-05
4.27895e-06
2.85779e-06
1.5502e-06
-1.3374e-06
1.01448e-06
-1.79563e-08
-3.85637e-06
4.05902e-06
8.08554e-06
2.19815e-06
1.65647e-05
3.05224e-05
3.31558e-05
3.72251e-05
6.42347e-05
8.52072e-05
8.54331e-05
0.000107
0.000151338
0.000175497