/*--------------------------------*- C++ -*----------------------------------*\
| =========                 |                                                 |
| \\      /  F ield         | OpenFOAM: The Open Source CFD Toolbox           |
|  \\    /   O peration     | Version:  2.2.x                                 |
|   \\  /    A nd           | Web:      www.OpenFOAM.org                      |
|    \\/     M anipulation  |                                                 |
\*---------------------------------------------------------------------------*/
FoamFile
{
    version     2.0;
    format      ascii;
    class       volScalarField;
    location    "0.9";
    object      divBf;
}
// * * * * * * * * * * * * * * * * * * * * * * * * * * * * * * * * * * * * * //

dimensions      [1 -3 -2 0 0 -1 0];

internalField   nonuniform List<scalar> 
14161
(
2119.26
-41.6353
445.376
267.628
308.07
251.953
232.313
198.185
173.866
146.417
112.609
90.859
56.095
35.4343
-2.96487
-22.5069
-59.9272
-93.5203
-120.001
-159.757
-192.795
-223.658
-260.825
-301.505
-342.644
-371.353
-391.011
-431.259
-458.843
-512.305
-489.695
-490.149
-489.623
-417.765
-374.4
-312.952
-154.51
-20.2961
74.8934
193.411
362.156
777.982
1166.93
1665.32
2658.24
-25023.8
-25312.1
-25782.5
-25831.4
-26715.8
-27888.8
-66545.7
-84895.2
-26305
-26693.1
-20086.3
-30372.8
-19815.2
-26037.7
-26950.6
-24843.5
-23898.1
-22646.8
-25040.2
-21892.3
-17862.4
-16331.1
-15825.6
-13933.6
-11501.1
-9920.58
-8904.56
-5651.51
2121.7
-1870.54
-20967.5
9016.14
18467.6
13970.7
-11240.2
2328.89
90551
32932.7
33841.7
25566.3
32570
8056.55
8040.66
10124.1
3495.42
4088.36
1615.02
1889.35
1399.95
1654.27
1194.01
2308.58
1072.7
1005.02
1480.5
556.96
2.84989
86.3926
-1215.04
-1677.41
-2565.2
-2511.31
-3846.15
-3729.19
-5215.25
-4293.48
-6328.12
-3178.42
-6089.34
-1151.65
-5319.18
1981.1
-3475.24
6226.25
1865.52
-287.356
198.64
21.3613
56.9042
-0.597526
-19.6823
-59.2855
-86.9335
-125.042
-156.67
-196.697
-220.967
-258.269
-301.683
-343.443
-381.286
-423.087
-459.223
-508.418
-557.277
-606.758
-659.447
-706.206
-750.239
-806.839
-867.451
-919.437
-946.322
-978.904
-1048.04
-1083.66
-1061.82
-1052.14
-1022.1
-958.319
-865.129
-823.655
-760.515
-714.311
-390.586
-72.0845
465.834
1113.41
1937.28
-21268
-21419.1
-22693.9
-22139.1
-24208.6
-17337.7
-36217.7
-30152.2
-21944.3
-33206.7
-26133.7
-31979.7
-35290
-22537
-27571.2
-36836.8
-28748.7
-23137.8
-19184.2
-16864.1
-16531.3
-16700.4
-18044.6
-12270.2
-3606.36
1112.14
-4504.85
-15208.6
-17241.1
39496.4
54305.3
-1729.58
-102722
50183.5
135083
14259.7
-58864.5
52446.9
61315.7
18528.4
19904.5
21519.7
21589.3
5936.1
8025.36
4244.18
5084.28
1459.7
2847.17
2361.65
2068.12
1415.14
988.152
1036.92
1084.55
1224.81
120.406
102.368
-933.65
-996.299
-1789.52
-2020.63
-3347.02
-3134.58
-4717.43
-3546.38
-5712.82
-2941.76
-6215.77
-1336.4
-5561.07
506.565
-2656.72
6767.95
1612.57
-524.993
-41.6004
-216.39
-182.056
-239.806
-260.656
-302.158
-333.846
-373.135
-409.309
-450.836
-488.698
-535.236
-576.198
-616.709
-659.211
-716.141
-771.591
-828.574
-881.736
-942.347
-1003.52
-1054.03
-1120.16
-1195.94
-1253.72
-1311.09
-1369.46
-1441.55
-1494.1
-1555.5
-1601.21
-1611.62
-1601.35
-1534.93
-1501.64
-1384.06
-1295.28
-1226.24
-1087.49
-1092.45
-654.509
-158.6
726.345
-19033.8
-19542.7
-20332.3
-21286.8
-22830.4
-17653.4
1997.43
-439.748
-22565.4
-40541.4
-34992.3
-47457.3
-43778
-15696.6
-47567
-47671.8
-7706.13
-14071.1
-35354.8
-20918.9
-16801.8
-15148.2
-10269.4
-8155.2
-11382.5
-15865.7
-15309
17837
37642.8
-7970.96
-72352.7
56562.1
125975
68773.3
-115875
57069.7
113562
-16454.3
-2270.21
64825.3
6768.97
25297.8
18231.3
13480.6
8001.17
8261.85
3654.5
3634.47
2208.94
2951.25
2074.4
2479.14
918.135
2076.77
904.05
1428.85
289.147
-439.016
-784.959
-417.645
-1678.42
-2335.83
-3710.2
-3052.26
-4516.77
-3683.88
-5443.38
-3391.93
-6644.71
-1457.66
-5112.3
1815.59
-2814.06
1734.54
1364.37
-754.644
-273.298
-444.143
-409.618
-466.399
-487.805
-529.592
-564.159
-601.601
-646.301
-683.696
-729.064
-774.986
-823.585
-874.576
-928.159
-983.774
-1038.25
-1098.02
-1166.73
-1230.37
-1300.52
-1375.81
-1453.19
-1518.63
-1589.16
-1667.05
-1743.3
-1822.65
-1897.21
-1947.2
-2005.75
-2043.46
-2025.99
-2028.71
-2022.15
-1986.79
-1934.03
-1752.97
-1584.76
-1289.53
-883.091
-556.887
24.471
-16291.4
-16283.1
-16486
-15424
-16097.6
441.139
46781.1
12396.6
-16885.8
-45725.9
-63417.4
-45015.6
-44902.4
-53087.9
-23092.7
-26769.6
-40800.1
-28044.6
-11034.2
-18021.9
-16730.1
-11567.9
-10394.1
-6187.02
-9441.28
-11333
13550.4
16684.3
-27955.5
-16138.1
79186.3
75047.3
-61755.4
3512.46
86664.5
61416.7
-23084.1
25904.1
57600.1
-5444.31
25965.3
63463.2
3750.41
23524.2
15641.2
8221.16
8538.77
5014.4
3348.74
3927.94
1590.96
1997.16
1750.13
2048.59
1171.18
1656.74
92.0966
110.195
90.0365
-150.921
-2230.67
-2410.75
-2640.84
-3368.66
-5037.66
-3091.32
-5447.08
-2380.42
-4555.59
-1271.98
-4420.91
745.206
-4514.33
6251.21
1119.67
-974.119
-495.306
-660.752
-625.162
-679.911
-700.18
-741.027
-776.211
-818.222
-857.305
-902
-945.921
-1000.25
-1050.5
-1100.54
-1152.79
-1216.08
-1284.38
-1354.96
-1420.03
-1487.24
-1566.33
-1647.31
-1723.92
-1806.74
-1893.88
-1980.47
-2064.59
-2151.02
-2229.61
-2292.34
-2379.78
-2469.74
-2463.75
-2424.31
-2377.65
-2282.98
-2236.12
-2374.79
-2388.55
-2014.02
-1706.52
-1296.35
-930.404
-14677.7
-15353.4
-16395
-15141.6
-17301
-11377.9
-8798.73
53602.6
-36612.1
-59085.1
-56191.3
-45603.7
-42183.9
-40333.4
-36258
-22828
-22368
-21567.5
-12987.6
-14617.8
-10996.2
-9339.9
-5702.81
-4805.31
-2095.43
3018.86
886.702
-9146.32
2946.18
43156.2
17792.6
-29141.7
43942.6
74486.1
12977.3
21679.1
38179.8
32929.3
4222.31
35438.7
47356.8
14513.9
28337.6
38491.1
20349.3
14797.5
11776.4
5975.43
5837.1
2617.85
3211.79
2254.53
2531.78
2347.55
2041.65
802.47
644.316
1517.27
48.4704
-1178.45
-2218.63
-1123.56
-2531.95
-3112.39
-4354.77
-3241.04
-5205.31
-2514.68
-5996.36
-574.29
-4611.75
1934.48
81.9164
4268.8
882.686
-1183.51
-706.514
-865.516
-827.907
-879.463
-898.234
-939.531
-971.258
-1014.48
-1052.04
-1102.53
-1145.13
-1197.45
-1247.73
-1308.44
-1365.78
-1433
-1500.96
-1564.89
-1634.69
-1717.22
-1799
-1884.37
-1974.14
-2063.16
-2156.25
-2239.1
-2328.92
-2416.52
-2515.28
-2616.66
-2688.49
-2735.24
-2780.54
-2819.58
-2823.81
-2898.59
-2844.46
-2665.17
-2501.59
-2247.19
-1894.79
-1523.2
-957.773
-12126.9
-12021.8
-12767.9
-12046.4
-13499.5
-14598.2
-40763
-9111.61
-37441.5
-60433.1
-45011.4
-43071.1
-36366.8
-32428.5
-21977.9
-19852.6
-19944.4
-10716.9
-8491.58
-8499.4
-7410.46
-6077.07
-4796.77
-1905.33
1069.43
2615.64
1922.68
6456.8
15348.5
7414.38
2840.8
33201.8
39771
23872.4
30130
32484.7
29682.1
27877.6
32958.6
32889.6
29776.8
35055.1
43867.7
31291.7
31592.3
24908.9
15053.7
11618.4
6169.93
6482.94
3477.66
3552.13
2994.2
2765.58
1519.84
2581.41
994.212
1838.71
-251.658
-2852.9
-1199.96
895.823
-3125.21
-2184.37
-3374.06
-2731.61
-4999.59
-2635.6
-5179.91
-954.053
-5957.11
275.957
-5668.96
1410.08
652.211
-1380.62
-906.209
-1057.7
-1017.42
-1065.25
-1082.35
-1119.8
-1151.42
-1192.8
-1233.04
-1278.76
-1325.25
-1377.55
-1431.07
-1490.53
-1550.56
-1619.22
-1687.77
-1759.34
-1833.98
-1917.49
-2002.04
-2092.99
-2184.61
-2279.74
-2376.55
-2473
-2571
-2670.41
-2776.94
-2880.12
-2970
-3011.81
-3042.22
-3059.13
-3130.86
-3233.76
-3257.06
-3077.18
-2890.56
-2717.74
-2526.97
-2163.6
-1912.22
-11015.8
-11567
-11945.8
-11954.2
-12555.5
-14708.7
-54725.3
-97114.1
-72743.2
-14512.9
-15650.5
-21484.9
-28083.2
-22324.1
-20664.7
-15546.1
-13152.7
-7940.72
-7729.55
-4719.51
-4413.84
-1549.23
201.259
624.948
1025.32
3530.99
6405.99
6572.59
4925.46
11013
24103.3
22513.5
22847.1
29970.7
31534.6
32151.1
29054.9
31614.7
32088.9
24900.6
36426.6
23221.5
35090.4
41906.6
49998.4
29382.1
24187
16925.7
9543.65
6697.4
4700.38
4739.02
2999.46
4170.6
1791.51
2878.32
4053.63
192.957
-1204.46
477.816
1495.7
-1614.61
-2922.73
-1280.35
-3155.61
-2297
-4116.63
-1712.05
-4331.94
-875.075
-4447.03
1330.26
-3962.36
3145.26
432.255
-1565.85
-1093.4
-1236.81
-1193.39
-1236.91
-1251.37
-1285.72
-1316.93
-1355.8
-1394.43
-1438.35
-1488.53
-1538.76
-1593.48
-1654.99
-1715.08
-1781.8
-1854.07
-1929.91
-2010.6
-2096.21
-2181.1
-2274.93
-2370.37
-2469.7
-2570.47
-2672.77
-2774.02
-2877.27
-2979.21
-3077.86
-3179.76
-3267.18
-3342.11
-3404.39
-3472.73
-3474.71
-3443.1
-3388.37
-3240.47
-3033.56
-2728.55
-2398.95
-1737.09
-8646.77
-8681.55
-9247.84
-10370.2
-13467.5
-17431.8
-59430.6
-215879
-52816.3
-12109.1
-755.793
-3047.23
-6704.23
-5523.39
-8704.01
-4771.6
-4988.99
-2484.01
-2487.61
-853.38
-183.063
766.711
2555.21
3742.16
4414.16
6112.5
7393.78
6876.52
7512.15
16071.1
24763.1
25629
26605.8
31433.7
29253.1
29419.6
24150.7
29709.5
27944.8
32363.7
29032.7
24109.4
35145.6
34256.1
37652.3
44557.3
39720.7
24183.1
15089.1
9321.84
8381.41
3709.82
5313.22
1758.46
6318.75
3977.49
618.039
1880.21
450.432
6416.46
-938.102
-3685.22
-1942.94
-742.792
-3180.18
-1685.83
-3626.5
-1042.18
-5163.7
-300.4
-2989.56
765.366
-2811.38
1137.35
221.53
-1737.15
-1267.58
-1402.37
-1355.45
-1394.45
-1405.59
-1437.52
-1465.92
-1502.85
-1541.09
-1583.83
-1632.56
-1681.98
-1737.59
-1798.69
-1860.74
-1929.43
-2002.03
-2077.82
-2161.33
-2248.22
-2336.02
-2431.33
-2530.19
-2631.55
-2736.25
-2843.45
-2954.13
-3063.31
-3169.54
-3276.24
-3389.58
-3494.16
-3582.23
-3685.69
-3677.52
-3616.74
-3585.54
-3536.7
-3572.46
-3418.34
-3216.26
-3011.97
-2535.17
-7801.04
-7934.82
-8316.44
-8244.05
-7192.63
-11451.6
-35345.1
-182325
-124000
-30534.1
-11230.6
-5169.36
-7345.27
-3383.51
-8196.74
-1207.73
-4255.02
-1585.17
-1157.55
302.343
1292.41
3101.07
4283.95
4799.4
6365.86
7545.71
9132.95
9309.31
13340.1
20548.3
25993.4
35215.5
39409.7
21324.3
26432.3
25835
33543.3
27609.9
22375.5
32279.5
23377.5
28520.7
28578.5
31193.6
34670.5
33257.3
45001.6
42960.7
21896.3
14312.4
7300
7050.63
5334.29
6058.48
1753.52
5930.49
2517.72
1570.22
7117.19
764.035
-4994.02
1995.62
887.255
-1140
-3348.01
-868.237
-3118.29
-826.033
-1404.23
145.13
-3492.97
344.755
-3600.79
-228.724
23.4731
-1895.08
-1428.01
-1554.03
-1503.47
-1537.61
-1545.21
-1573.91
-1600.5
-1636.15
-1670.52
-1712.39
-1762.08
-1809.14
-1864.75
-1925.93
-1990.15
-2055.26
-2130.44
-2208.9
-2292.54
-2380.59
-2470.03
-2568.21
-2670.26
-2774.59
-2883.01
-2991.29
-3101.15
-3212.48
-3322.97
-3436.44
-3538.57
-3639.97
-3740.48
-3842.32
-3893.31
-3950.13
-3943.24
-3925.79
-3857.21
-3734.13
-3496.26
-3169.13
-2659.73
-6084.18
-6198.52
-6593.47
-7025.29
-8225.37
-10944.6
-38003.2
-118592
-76666.6
-72169.9
-28418.4
-20054.1
-9041.45
-6012.67
-7319.65
-2418.62
-3566.02
159.516
29.4536
2246.73
3901.71
4197.8
5416.09
5468.13
6339.35
7696.36
10202.3
13397.8
14999.4
20677.2
31592.2
35844.3
29561.1
28792.4
32169.4
25387.6
23735.5
20777
25453.8
23447.4
22623.1
26887.4
22946.8
24246.1
28272.2
30358.7
38375.8
51269.6
33942.9
22715.7
11070.9
9429.17
3849.22
10628.2
6933.79
117.917
5067.75
9606.18
-431.193
-2171.2
4465.15
4591
-2300.3
-450.894
-552.566
-640.158
-3122.5
-764.471
-5548.33
-1303.57
-3986.81
-185.159
-4138.72
1185.35
-163.036
-2037.97
-1574.37
-1691.6
-1637.22
-1666.5
-1671.3
-1696.04
-1719.76
-1753.93
-1786.3
-1827.37
-1874.02
-1922.9
-1975.84
-2036.49
-2100.57
-2168.23
-2241.73
-2321.35
-2404.48
-2493.1
-2586.03
-2684.25
-2785.97
-2892.07
-3001.78
-3114.82
-3229.27
-3349.12
-3465.74
-3580.39
-3689.03
-3795.41
-3903.4
-3990.86
-4052.09
-4074.84
-4021.01
-4040.3
-4051.04
-3912.93
-3624.32
-3638.26
-3524.86
-5983.6
-6059.74
-6008.24
-5455.47
-5405.63
-10929.6
-88370.5
-52501.8
-49169
-62212.4
-56359.5
-37225.8
-12200.3
-14617.7
-10506.2
-5841.85
-2289.46
-1772.2
889.567
1489.36
4750.34
6713.76
6099.22
6890.42
7900.88
10152.9
11487.7
16245.8
23937.5
29376.3
43501.7
39813.9
19959.6
29716.1
29670.7
29217.3
17968
21566.8
22244.7
17489.9
22303.2
21971.7
22705.7
17402.2
23460.1
28461
30897.9
36274.2
46273.2
32718.3
19741.3
12945
11073.2
5258.24
5255.97
11861.1
8750.4
-2670.53
2265.54
8199.31
1675.09
-124.028
-278.192
1478.88
-1948.25
-1143.71
-2432.55
-1930.35
-3640.47
72.2331
-4392.1
-7.00437
-3632.69
70.1488
-335.174
-2166.37
-1706.22
-1814.8
-1756.78
-1781.29
-1782.75
-1804.29
-1825.69
-1857.14
-1887.74
-1926.69
-1972.07
-2020.47
-2072.75
-2132.57
-2196.55
-2263.36
-2337.37
-2416.18
-2501.46
-2589.57
-2684.72
-2782.67
-2887.08
-2995.37
-3106.57
-3221.27
-3337.25
-3453.39
-3570.04
-3684.99
-3796.17
-3909.16
-4019.44
-4124.03
-4215.68
-4287.72
-4326.54
-4330.98
-4338.3
-4257.79
-3979.14
-3675.83
-3353.81
-4396.83
-4540.66
-4960.79
-4351.46
-6860.99
-13959.1
-83874
-14182.1
-14678.4
-44627.5
-74019.1
-49441.1
-29952.3
-19930.8
-7892.16
-4653.51
-2690.74
872.681
3340.11
5382.95
5823.46
5215.18
8238.26
9687.61
11248.4
11844.2
12995.4
20622.6
36736.9
41657.8
43174.7
34138.6
25974.8
26842.2
21288.6
21402
19113.7
21521.7
20446.7
18333.4
17061.3
21008.6
20632.6
14872
20237.8
26922.5
25687.6
23694
38525.6
41670.4
25201
16695.4
12367.9
14402.2
16626.7
7192.59
1984.16
8581.53
9293.96
3724.88
-44.6507
405.588
906.969
879.444
-1446.8
946.716
-1829.59
22.9648
-1229.22
-1263.75
-2744.46
-897.091
-4348.52
-1107.55
-493.892
-2279.15
-1823.38
-1923.56
-1862.15
-1882.11
-1880.27
-1899.24
-1917.68
-1946.73
-1975.82
-2013.28
-2056.13
-2104.39
-2155.09
-2214.01
-2277.27
-2344.59
-2418.11
-2497.56
-2581.77
-2670.02
-2764.33
-2862.56
-2967.73
-3076.52
-3188.09
-3303.32
-3422.05
-3545.9
-3672.06
-3796.24
-3914.23
-4027.38
-4133.28
-4236.04
-4307.39
-4341.76
-4381.74
-4407.74
-4327.31
-4207.58
-4117.23
-3941.22
-3669.76
-3493.87
-3505.12
-3325.9
-3985.78
-6786.02
-28504.5
-78115.4
-1466.34
-388.418
-9858.92
-53333
-65421.3
-59731.4
-31603.1
-20530.2
-9038.66
-408.523
-716.851
3475.57
4665.99
5422.44
6673.06
7429.08
9562.71
10296.4
12027.8
18629.5
27055.8
46918.6
48978
38399.3
30643.1
32897.9
25232.8
22977.7
17271
21689.4
19803.1
18992.3
14629
16806.2
17335
16518.3
14116.5
16960.1
24811.6
21912.8
18280.2
33366.1
39229.8
30630
26324.7
20187.3
17031.1
7981.9
11489
13522.9
9092.09
-82.5107
3478.79
4312.99
5121.87
-503.441
1058.51
-615.532
1034.56
-2488.05
114.395
-3884.42
-841.793
-4127.16
-737.429
-3949.59
-373.56
-637.075
-2376.72
-1925.67
-2017.91
-1953.4
-1969.22
-1964.59
-1980.34
-1996.1
-2022.84
-2050.37
-2085.73
-2128.94
-2173.44
-2225.44
-2281.75
-2344.41
-2412.65
-2484.63
-2563.22
-2647.59
-2735.98
-2831.7
-2929.91
-3035.33
-3146.57
-3260.21
-3373.29
-3493.31
-3613.58
-3730.43
-3850.56
-3977.01
-4088.36
-4204.67
-4319.18
-4421.41
-4495.82
-4529.15
-4540.14
-4495.33
-4370.23
-4216.35
-4047.33
-3856.34
-2853.59
-3051.13
-2760.96
-3348.92
-5207.12
-47815
-79582.8
-8172.05
1816.12
494.813
-4951.98
-38694.3
-60056.2
-38868.7
-28880.6
-4615.41
-7834.07
1951.7
4744.7
5951.1
10339
10222.2
8758.16
7123.83
9638.27
16645.8
26796.7
41011.8
56862.4
48790.8
31819.9
26230.4
24173.7
23692.1
20787.6
15128.4
15567.1
14490.2
12635.7
14258.2
17055.1
16106.7
14740.1
12406.9
16641.9
21590
14838.7
19102.1
28288.3
32908.8
34804.9
26961.9
22278.3
16915.4
20381.7
13656.3
7097.92
9225.2
8850.36
6968.54
3819.5
2427.29
2991.42
1738.21
48.515
-831.377
-1214.11
-1237.77
-2371.38
-823.097
-2365.94
-716.964
-3254.23
-2102.19
-765.489
-2458.54
-2013.07
-2097.87
-2030.81
-2042.78
-2035.15
-2048.9
-2061.96
-2086.21
-2113.03
-2146.79
-2186.44
-2231.53
-2282.59
-2335.64
-2400.22
-2467.12
-2538.18
-2615.3
-2700.43
-2788.36
-2882.36
-2981.32
-3085.76
-3197.21
-3309.99
-3424.34
-3544.64
-3669.03
-3787.85
-3916.04
-4057.11
-4181.26
-4292.77
-4398.54
-4480.89
-4562.1
-4612.98
-4624.49
-4572.85
-4567.75
-4657.04
-4548.04
-4214.3
-2021.41
-1911.52
-1940.71
-4491.6
-13995.8
-92557.1
-27587.7
-1386.45
-1065.58
-7762.03
-19958.1
-12157.8
-22392.1
-66853.8
-40960.8
-21743.5
-10883
3038.34
7309.31
6929.5
10512.1
12052.1
10869.3
13405.6
19913.9
41464.3
59896.7
69010.1
57999.2
30444
23675
20304.2
13216.4
11398.9
11143.3
11016
10684.1
10596.9
10508
12029
14217
13499
13655.8
13440.7
18475.2
20294.4
12408.9
22961.8
23656.7
26116.2
29930.5
29991.9
26552.3
22418.3
15201.4
12085
14526.9
10254.7
6512.59
6669.09
3030.3
4747.14
589.427
2867.21
-1162.59
1435.28
-1353.77
-565.346
-754.864
-1066.29
-3282.03
-1961.37
-3892.35
-1729.02
-877.866
-2524.9
-2085.61
-2163.64
-2094.39
-2103.05
-2092.96
-2104.71
-2114.87
-2137.53
-2162.66
-2196.72
-2231.41
-2278.59
-2325.98
-2380.26
-2442.45
-2508.4
-2579.69
-2654.58
-2741.1
-2829.21
-2920.93
-3019.06
-3125.87
-3234.38
-3349.43
-3466.08
-3582.99
-3707.04
-3835.18
-3956.72
-4078.68
-4211.88
-4319.16
-4432.01
-4515.23
-4590.53
-4602.08
-4614.07
-4609.67
-4593.39
-4501.36
-4376.48
-4053.04
-1184.46
-1351.16
-1157.97
-3623.11
-13153.8
-67874.5
-4950.41
-2817.43
-6604.95
-9999.88
-11770
-8418.42
-13335.8
-47106
-64891.4
-40387.3
-17871.3
7619.24
13568.2
16687.8
13542.5
35820.2
43625
50494.5
76940.7
92032.6
88317.8
53292.2
19965.4
9315.56
-1858.65
-3189.54
-3089.04
652.762
237.089
-43.2212
1855.46
1651.14
4013.73
7724.25
8756.65
9617.59
11325.7
15220.8
17869.3
12459.8
12054
22331.7
15735.1
19621.5
26503.2
30024.2
21586.5
23479.4
11706.7
19072.6
7992.51
11582.7
6044.48
4869.19
3423.44
5385.26
1407.36
2835.27
2.05085
1001.37
-1822.05
1718.44
-3667.03
-504.815
-3366.26
-930.383
-4051.07
-1453.43
-974.853
-2575.75
-2143.47
-2215.35
-2144.55
-2150.33
-2138.49
-2147.85
-2156.2
-2176.37
-2201.06
-2232.74
-2267.66
-2312.81
-2357.86
-2413.97
-2471.65
-2538.86
-2608.8
-2684.31
-2766.65
-2855.14
-2947.15
-3044.16
-3150.56
-3257.95
-3372.61
-3488.97
-3606.92
-3729.74
-3859.56
-3988.03
-4110.04
-4242.49
-4363.81
-4480.68
-4594.48
-4664.9
-4684.06
-4746.07
-4750.63
-4711.71
-4582.58
-4387.12
-4019.69
-630.223
-546.043
-752.296
-2309.57
-19916.4
-66106.2
-7182.74
-2896.31
-1949.74
-1597.02
1435.79
784.746
-8139.49
-31699.6
-44092.1
-29893.5
-23766.3
21289
40487.7
47785.9
75010.6
95249.4
103443
95514.9
78227.4
53938.5
32292.8
18886.9
3076.16
-4845.3
-9822.95
-13766.2
-18055
-18056
-17079.9
-13747
-9354.88
-6713.41
-4533.02
-386.967
2708.4
6105.3
8789.93
11717.9
11019.9
12149.1
17682.4
12131.8
11207.6
15869.3
20919.4
20102.1
28832.6
13397.5
20590.9
7240.02
15841.8
5515.7
11513.5
6627.77
5867.44
3495.09
3402.29
1316.83
2470.18
324.662
848.404
-2026.45
-1272.09
-1584.29
-1791.2
-1191.61
-3089.22
-2202.47
-1055.69
-2611.4
-2186.8
-2253.4
-2181.62
-2185
-2171.36
-2179.02
-2186.8
-2203.54
-2228.17
-2257.88
-2292.31
-2334.98
-2381.34
-2434.37
-2491.08
-2558.74
-2625.76
-2700.79
-2784.02
-2869.2
-2963.57
-3059.59
-3162.8
-3270.57
-3386.6
-3500.86
-3621.8
-3746.85
-3870.11
-3998.14
-4122.21
-4241.87
-4369.79
-4487.15
-4601.22
-4675.03
-4742.1
-4854.05
-4881.12
-4753.49
-4433.44
-4045.19
-3976.32
-33.1852
-44.4592
-1850.74
-4093.81
-46753.6
-72119.1
-3790.92
206.249
3522.52
6769.68
11538.9
3790.28
-8506.22
-5664.14
14279.1
4623.57
12771
85916.9
110009
99035.8
92982.5
69480.5
60981.3
52941.8
41318.1
26811.1
17774.5
14829.4
8412.42
3605.44
788.252
-4493.09
-9124.53
-8049.85
-12065.9
-11913.6
-11494.2
-11068.7
-9447.69
-8073.84
-7111.55
-5071.45
-2867.14
-21.2455
3397.5
4568.52
4888.91
3379.87
5074.79
9344.48
11394.2
18954
11667.7
18019.3
9411.28
14307.2
5736.97
11936.5
4362.62
8579.55
2421.83
6175.31
1662.79
4293.59
-1044.45
1861.92
-1269.55
-224.292
-549.638
-523.323
-2285.06
-2487.11
-3065.13
-2301.49
-1121.09
-2632.15
-2216.06
-2277.98
-2205.92
-2207.4
-2192.4
-2198.62
-2205.07
-2221.1
-2244.59
-2272.53
-2306.41
-2347.27
-2393.8
-2444.28
-2501.46
-2565.25
-2634.84
-2708.32
-2787.04
-2875.37
-2965.11
-3062.09
-3161.74
-3271.89
-3384.35
-3500.45
-3619.64
-3742.3
-3867.6
-3997.31
-4125.25
-4246.32
-4372.32
-4500.19
-4614.76
-4691.26
-4775.77
-4877.57
-4924.83
-4854.01
-4794.83
-4594.95
-4429.09
63.1637
3.06852
-2577.14
-11272.6
-89483.5
-21040.3
-5147.89
1262.11
6429.03
10438.3
6106.32
4443.59
-4552.17
15053.9
48818.9
57131
124911
110251
67779.1
61351.2
51480.3
43765.4
34836.9
30321.9
30871.8
28458.2
22357.3
13913.4
3615.13
5438.73
10014.4
5554.77
3414.21
1203.52
-2132.85
-2781.05
-5338.25
-5617.94
-5101.05
-5487.24
-5833.66
-5528.09
-5769.02
-5155.7
-4433.59
-3980.82
-3412.14
-2824.43
-424.134
2154.05
7466.08
12333.9
10268.3
14729.9
7896.59
13767.1
7128.78
8555.41
5118.08
5396.95
4677.16
3187.43
2839.44
2500.19
971.729
2527.94
-1317.88
2467.6
-2224.1
-629.699
-2808.96
-1412.17
-3438.61
-2197.21
-1170.87
-2638.42
-2231.46
-2289.64
-2217.82
-2217.91
-2202.09
-2207.31
-2212.34
-2228.04
-2249.78
-2277.72
-2309.88
-2349.19
-2395.88
-2445
-2500.31
-2564.06
-2631.21
-2704.32
-2781.66
-2867.4
-2958.6
-3053.56
-3152.87
-3262.53
-3371.83
-3488.06
-3609.79
-3725.35
-3857.54
-3985.28
-4123.72
-4240.49
-4365.56
-4486.24
-4581.21
-4648.78
-4768
-4870.28
-4934.96
-4778.68
-4588.16
-4475.36
-4169.76
891.965
785.446
-424.683
-16477.1
-74509
-4423.74
-4567.19
-2790.78
5371.48
10538.9
4192.15
745.838
9237.57
60251.6
116560
151149
104367
57064.8
35828.3
32669.7
27118.3
27480.7
25757.8
22818.6
19370.7
15550.7
12640.8
19071.1
19033.4
10287.6
3844.32
7007.22
8871.03
3670
1489.42
2452.18
324.412
-1655.62
-2905.92
-3816.98
-4338.82
-4969.06
-6048.08
-7349.66
-7511.34
-7206.79
-7303.67
-5878.67
-4043.66
320.54
5600.07
8009.68
14074
5174.93
15752
4859.03
13408.8
4929.62
9265.49
4942.92
6656.91
3742
5221.32
1392.81
3752.07
-436.833
1390.74
-1264.27
-1198.16
-1457.6
-1344.05
-1422.7
-3030.06
-2380.16
-1205.66
-2630.7
-2233.7
-2288.81
-2217.79
-2216.94
-2200.83
-2205.13
-2209.63
-2224.8
-2245.01
-2272.8
-2304.21
-2342.33
-2387.47
-2436.46
-2491.21
-2551.32
-2620.28
-2689.99
-2767.15
-2851.19
-2941.2
-3035.14
-3134.07
-3238.44
-3350.21
-3465.97
-3584.77
-3704.47
-3827.34
-3958.53
-4093.71
-4211.81
-4334.25
-4454.19
-4564.63
-4629.34
-4738.63
-4819.46
-4884.58
-4806.93
-4666.65
-4483.37
-4519.18
1002.23
-112.135
-1483.42
-31567.6
-78271.3
-7976.39
491.498
3919
10670
14848.1
9514.62
1563.6
34950.7
110048
172798
108937
69419.7
37851.7
24492.8
19438.3
16312.1
18273.9
17042.5
19080.7
16807.5
15477.4
16791.5
16249.8
14720.3
15596.7
13954.4
12363.3
6882.39
7190.8
8009.3
3297.35
1632.38
1361.2
-507.368
-1198.61
-2213.93
-3493.2
-4276.22
-6101.89
-7462.23
-8298.09
-7684.84
-6183.35
-4047.94
-182.317
2865.98
7571.01
6401.24
8681.1
6742.87
9427.07
5126.33
7730.65
4347.08
7520.21
2714.3
6349.99
714.171
3838.42
-237.577
1452.72
846.883
-111.05
62.4586
-599.633
-1581.71
-2248.51
-2347.7
-2643.33
-1225.73
-2609.65
-2223.12
-2275.98
-2206.32
-2205.04
-2189.06
-2192.62
-2197.42
-2211.09
-2231.66
-2258.61
-2288.49
-2325.2
-2370.78
-2418.63
-2471.77
-2530.69
-2597.26
-2669.52
-2741.58
-2825.85
-2913.19
-3007.3
-3103.35
-3206.66
-3316.71
-3433.59
-3547.47
-3669.99
-3788.61
-3916.97
-4046.11
-4190.06
-4321.6
-4464.77
-4554.71
-4647.45
-4731.26
-4932.18
-4989.69
-4940.26
-4637.09
-4610.83
-5186.86
648.412
-1812.89
-7698.72
-86050.9
-34877.3
-1392.24
290.192
3815.51
13670
18628.3
18517.5
23969.6
90993.9
190855
114794
67676
41862.1
25241.3
19751.7
16285
13863.7
15215.1
13943.2
14925.5
13096.6
13332.3
13648.3
13009
14869.5
14041.3
14705.8
13520.2
13886
10875.2
6605.26
5002.46
3940.87
1951.75
426.475
-792.769
-1956.66
-2976.85
-4266.92
-5084.13
-5992.11
-6716.25
-6226.14
-5213.81
-3295.96
-849.526
2245.27
5211.15
4525.26
9514.58
4211.68
9734.88
4388.5
8046.99
3769.62
5500.26
3252.82
3682.58
2030
4253.25
564.696
4759.64
-1923.1
2271.77
-1540.08
-57.1649
-2419.25
-1381.49
-3019.47
-2143.85
-1232.1
-2575.83
-2200.47
-2251.7
-2183.97
-2182.74
-2167.08
-2170.73
-2175
-2189.38
-2208.48
-2234.94
-2264.96
-2300.98
-2343.85
-2392.57
-2443.96
-2501.56
-2566.83
-2636.05
-2709.85
-2789.23
-2877.41
-2968.81
-3065.53
-3165.08
-3273.86
-3388.03
-3504.82
-3626.16
-3748.17
-3869.06
-3992.07
-4121.1
-4240.86
-4389.07
-4464.94
-4541.93
-4630.51
-4755.06
-4764.53
-4726.69
-4449
-4195.37
-3988.5
1969.64
-1090.54
-19549.3
-82558.9
-2706.98
-437.578
-2226.57
-839.059
10977.6
26725.2
35208.6
69466
179675
132510
62227.7
41480.4
23268.9
18871.7
13569.8
12019.3
12855.4
13684.3
12102.7
11585.7
11851.7
11860.8
12633.9
11294
10875.3
11317.9
12198.4
11526.5
12839
12260.5
11325.1
9001.57
6080.93
4080.86
2321.86
724.049
-744.545
-2314.05
-3668.15
-3971.43
-4099.73
-4594.38
-4665.77
-4032.59
-2635.51
-815.267
1740.83
3621.99
5424.22
4630.08
6781.02
4574.73
6775.25
4801.61
5880.67
4013.9
5096.25
2929.63
4996.59
1339.79
3339.04
-42.3273
443.894
274.939
-488.147
-827.287
-1153.68
-1142.99
-2258.46
-1998.03
-1224.85
-2530.21
-2166.38
-2216.67
-2151.32
-2150.58
-2135.63
-2139.46
-2143.75
-2159.16
-2176.04
-2203.48
-2232.38
-2268.02
-2309.92
-2357.12
-2408.81
-2462.91
-2529.11
-2595.57
-2670.25
-2745.73
-2832.66
-2922.17
-3017.61
-3115.09
-3221.79
-3333.94
-3447.03
-3566.11
-3685.26
-3809.54
-3948.42
-4074.58
-4208.7
-4357.19
-4492.39
-4545.74
-4623.3
-4759.33
-4904.7
-4943.69
-4724.59
-4180.79
-4283.19
1055.17
-1678.78
-40138
-77340
-1433.58
4578.3
-783.141
-2156.82
21409
47499.2
71805.1
155161
143957
79498.9
42424.4
27451
14909.8
15004.2
13366.3
11863.5
12377.3
12170.7
11762
11299.6
11861.7
10783.4
10870.8
9213.74
9336.51
9221.82
9235.28
9684.55
10620.3
10303.2
11215.9
10024.8
8012.53
5178.12
3299.87
2006.59
756.563
-550.45
-1789.95
-3203.03
-3819.58
-3660.04
-3606.43
-3202.59
-2639.06
-1265.46
665.18
3154.27
3943.02
4413.26
5552.88
4204.66
5751.08
4905.86
5326.46
5328.97
3861.59
4519.12
2645.79
2160.19
2321.13
849.736
2825.07
-417.592
770.351
-863.423
-474.721
-1789.08
-1687.8
-2259.51
-1205.61
-2473.29
-2121.57
-2171.5
-2108.95
-2109.07
-2095.38
-2099.31
-2104.45
-2119.82
-2137.07
-2163
-2192.52
-2227.48
-2267.5
-2314.68
-2364.31
-2419.42
-2480.5
-2547.82
-2619.3
-2694.86
-2777.74
-2867.49
-2959
-3057.69
-3159.43
-3272.23
-3386.32
-3502.89
-3624.4
-3743.43
-3871.22
-3990.27
-4118.01
-4237.97
-4399.13
-4438.37
-4383.18
-4563.57
-4711.44
-4722.49
-4614.51
-3845.86
-3661.21
623.257
-13913.2
-93937
-27005.1
4245.47
5206.88
3108.59
7444.24
41103.1
89955.2
146220
136773
76290.2
38998.4
26983.3
16786
13596.1
14924.3
14011.6
12790.3
12231.1
12103
11875.4
11071.5
10938.2
10545
10465.8
9585.49
9491.51
8323.91
7452.23
8464.72
7965.42
9727.11
8340
10205.3
7860.84
8012.25
5145.05
3529.7
1632.89
665.26
-674.98
-1285
-2344.61
-3095.66
-2896.09
-2496.26
-2009.81
-630.066
371.68
2167.09
3008.13
4221.22
3660.67
5467.81
3551.35
5228.48
3314.4
4140.18
3195.26
4080.23
1714.88
4241.31
865.969
2993.32
-335.682
1116.91
-452.734
-206.935
-1287.84
-1287.45
-1990.27
-1958.47
-1174.43
-2406.25
-2066.83
-2116.97
-2057.54
-2058.88
-2046.71
-2051.05
-2057.56
-2072.25
-2090.25
-2115.45
-2144.49
-2180.32
-2217.19
-2264.63
-2312.54
-2367.6
-2426.75
-2493.05
-2562.17
-2637.77
-2716.19
-2804.58
-2896.16
-2991.12
-3090.67
-3198.21
-3309
-3421.31
-3545.28
-3670.25
-3789.65
-3901.68
-4015.31
-4170.05
-4283.07
-4347.53
-4454.33
-4546.46
-4827.64
-4733.26
-4603.53
-4426.99
-4628.09
-1634.42
-24883.1
-109552
-631.636
9083.44
9472.17
6467.88
17483.1
75639.7
159100
140853
82269.9
41373.3
23273.1
18036.3
13052.7
12326.1
11611.7
12465
12219.5
11393.3
11187.3
10914.7
10156
10283.4
9833.21
9713.3
9403.57
8945.18
8120.23
7245.03
7214.63
6169.44
7582.83
6577.49
8499.51
7938
7580.96
5409.22
3537.91
1958.03
912.999
296.199
-353.636
-1455.89
-1902.1
-2396.47
-2361.63
-2150.08
-1029.85
249.49
1578.2
2157.75
3793.3
2841.18
3957.01
3673.88
4239.44
3497.66
3438.7
3044.43
2934.23
2669.1
2401.49
1736.72
2199.56
485.76
1614.48
-659.435
328.558
-1251.99
-650.865
-1779.09
-1427.28
-1133.01
-2329.71
-2002.96
-2053.74
-1997.8
-2000.63
-1990.18
-1995.5
-2002.66
-2018.16
-2036.05
-2060.81
-2090.57
-2124.52
-2162.64
-2206.44
-2255.4
-2308.05
-2364.68
-2429.82
-2497.93
-2571.41
-2648.07
-2732
-2821.92
-2915.48
-3014.5
-3118.29
-3229.27
-3346.71
-3460.59
-3587.02
-3699.53
-3822.78
-3944.71
-4092.5
-4193.26
-4293.78
-4237.44
-4017.04
-4097.52
-4632.04
-4769.16
-4296.01
-5149.41
-1482.16
-73864
-61397.9
-5770.9
9506.66
23388.9
33138.9
51662.6
139428
164082
80860.1
41377.7
26630.4
17703.9
17858.7
14560.4
11059.9
10758.3
11871.4
11723.6
10889.9
10239.1
10525
10247.4
10410.4
9554.61
9459.51
8772.61
8275.47
8048.45
6829.3
6322.52
5807.3
5602.24
6466.24
5123.77
8402.18
5145.62
7196.05
5041.87
3747.46
2093.87
842.427
-613.132
-733.853
-1582
-1566.74
-2060.87
-1232.16
-1288.14
-440.201
1571.72
1939.58
2484.82
2975.64
2655.06
3266.46
3325.22
3508.54
3573.22
3241.9
3086.78
3052.95
2219.35
2856.64
990.217
1574.01
-8.38218
429.284
-188.429
-414.671
-925.721
-1115.66
-1541.13
-1081.69
-2244.85
-1930.83
-1982.67
-1930.4
-1934.97
-1926.45
-1932.81
-1941.13
-1957.55
-1975.32
-1999.36
-2029.6
-2062.67
-2100.17
-2142.9
-2191.07
-2243.3
-2298.61
-2360.29
-2427.8
-2499.36
-2574.77
-2656.55
-2744.03
-2835.22
-2929.29
-3029.7
-3136.27
-3250.12
-3361.6
-3478.08
-3594.19
-3712.49
-3806.68
-3882.11
-4065.66
-4252.37
-4284.27
-4299.29
-4372.86
-4811.5
-5130.41
-5163.76
-8414.08
-19416
-109932
-5677
3252.81
2828.72
32650.8
71574.1
117533
156345
81727.4
45862.1
28843
16270.3
10458.2
13376.8
15901.9
11876.8
11215.4
11411.8
11172.4
10959.6
10133.3
10430.3
10447.5
10432.4
10094.7
9409.4
9092.52
7781.82
7594.57
6694.43
6668.2
5715.41
3999.93
5368.36
4076.67
6359.5
4415.77
6189.19
4923.24
3544.11
1504.57
745.85
-328.571
-267.257
-1383.78
-1342.84
-1923.11
-1108.4
-860.371
136.732
338.876
1389.59
2182.76
2031.97
2430.66
2602.82
2858.15
2851.13
3513.9
2993.94
3461.05
2488.88
2821.09
1848.78
1512.72
1438.61
887.767
1052.58
-371.974
-193.821
-911.695
-1013.39
-1517.69
-1022.05
-2152.43
-1851.3
-1904.48
-1856.09
-1862.61
-1856.22
-1864.09
-1873.03
-1890.2
-1908.75
-1932.96
-1962.04
-1995.82
-2032.1
-2073.26
-2120.67
-2170.6
-2224.74
-2284.82
-2350.15
-2418.95
-2492.41
-2571.42
-2655.63
-2745.19
-2838.24
-2937.41
-3039.77
-3148.86
-3259.77
-3370.18
-3498.62
-3633.69
-3754.5
-3848.39
-3935.64
-4103.6
-4214.68
-4140.24
-3821.42
-3228.83
-4059.41
-6140.58
-10072.5
-56213
-79463.9
3322.8
8926.52
13146
50381.2
137961
168808
79619.2
42905.7
25837.2
23231.8
12900.7
9105.59
13082.7
13560.3
12246.3
11458.1
11341.7
10501.8
10654.9
10153
10049.7
9762.81
9226.29
8976.39
7964.71
8386.35
7302.98
7221.39
6671.94
5916.4
5188
4132.64
4397.26
4371.94
3794.22
5101.5
2571.88
6048.17
2885.6
3000.68
1999.84
589.325
503.287
-989.365
-2028.76
-1157.98
-1344.92
-1742.76
-794.271
287.947
557.286
1309.75
1502.65
2047.38
2062.96
2574.44
2540.77
2846.59
2577.8
2556.7
2169.63
2582.92
1236.96
2401.14
596.788
1598.07
-232.612
378.341
-526.995
-364.296