/*--------------------------------*- C++ -*----------------------------------*\
| =========                 |                                                 |
| \\      /  F ield         | OpenFOAM: The Open Source CFD Toolbox           |
|  \\    /   O peration     | Version:  2.2.x                                 |
|   \\  /    A nd           | Web:      www.OpenFOAM.org                      |
|    \\/     M anipulation  |                                                 |
\*---------------------------------------------------------------------------*/
FoamFile
{
    version     2.0;
    format      ascii;
    class       surfaceScalarField;
    location    "2.1";
    object      cfmax;
}
// * * * * * * * * * * * * * * * * * * * * * * * * * * * * * * * * * * * * * //

dimensions      [0 3 -1 0 0 0 0];

internalField   nonuniform List<scalar> 
28084
(
0.00124772
0.00124157
0.00123703
0.00123325
0.00123022
0.00122786
0.00122616
0.00122508
0.00122458
0.00122456
0.00122502
0.0012259
0.00122717
0.00122877
0.00123061
0.00123267
0.00123494
0.00123736
0.00123989
0.00124242
0.0012449
0.00124734
0.00124974
0.00125205
0.00125429
0.00125642
0.00125829
0.00125996
0.00126145
0.00126263
0.00126351
0.00126407
0.00126432
0.00126439
0.00126389
0.00126299
0.00126162
0.00126014
0.00125811
0.00125593
0.00125351
0.0012509
0.00124731
0.00124515
0.00102392
0.000786295
0.000786425
0.000804897
0.000825832
0.000845095
0.000863882
0.000882007
0.000900854
0.000920487
0.000939979
0.000958527
0.000977527
0.000995281
0.00101245
0.00102773
0.00104261
0.00105642
0.00106918
0.001081
0.00109155
0.00110149
0.00111039
0.00111813
0.0011244
0.00112961
0.00113405
0.00113697
0.00113996
0.00114179
0.0011433
0.00114531
0.00114588
0.00114553
0.00114475
0.00114341
0.00114149
0.00113948
0.00113694
0.00113343
0.00112877
0.0011237
0.00111876
0.00111301
0.00110725
0.00110001
0.00109293
0.00108577
0.00107833
0.00107161
0.00106506
0.00106427
0.00106286
0.00106303
0.00106821
0.00108932
0.00111524
0.00114099
0.00117912
0.00119106
0.00120282
0.00122543
0.00121673
0.00112332
0.00110042
0.00105752
0.00103216
0.00101849
0.00101292
0.00101119
0.00100991
0.00100244
0.000986648
0.000947876
0.00289524
0.00288949
0.00125361
0.00287912
0.00125126
0.00286257
0.00125049
0.00284018
0.00125041
0.00281215
0.00125103
0.00277862
0.00125235
0.00273995
0.00125427
0.00269636
0.00125672
0.00264825
0.0012597
0.00259612
0.00126318
0.00254049
0.00126708
0.0024814
0.00127132
0.00241925
0.00127591
0.00235441
0.00128076
0.00228731
0.0012858
0.00221836
0.001291
0.00214798
0.00129632
0.00207649
0.00130175
0.00200426
0.00130718
0.00193161
0.00131253
0.00185889
0.00131774
0.00178643
0.00132283
0.00171451
0.00132778
0.00164335
0.00133255
0.00157323
0.00133715
0.00150429
0.00134153
0.00143672
0.00134559
0.00137068
0.00134932
0.00130625
0.00135274
0.00124355
0.0013558
0.00118274
0.00135842
0.00112387
0.00136061
0.00106695
0.00136246
0.00101201
0.00136389
0.000959026
0.00136487
0.000908256
0.00136516
0.000859801
0.00136491
0.000813381
0.00136444
0.000769012
0.00136349
0.000726617
0.00136223
0.000686257
0.00136067
0.000647423
0.00135867
0.000611776
0.00135639
0.000573466
0.00135286
0.000578559
0.00119888
0.000593852
0.000880991
0.000601634
0.000874092
0.000604582
0.000889311
0.000605887
0.000906447
0.000607647
0.000924825
0.000610497
0.000942979
0.000612885
0.000960365
0.000615663
0.000979203
0.000618522
0.000997544
0.000620693
0.00101642
0.000623069
0.0010347
0.000625628
0.00105263
0.000627601
0.00106898
0.000629571
0.00108525
0.000631437
0.00109943
0.000633537
0.00111334
0.000635447
0.00112617
0.000637439
0.00113795
0.000639404
0.00114922
0.000641516
0.00115881
0.000643912
0.00116776
0.000646294
0.00117581
0.000648582
0.00118219
0.000650885
0.00118746
0.000653112
0.00119106
0.000655448
0.00119475
0.000658036
0.00119655
0.000660934
0.00119836
0.000663652
0.00119908
0.000667203
0.0011994
0.000670609
0.0012005
0.000673916
0.00120005
0.000678184
0.00119893
0.00068257
0.00119728
0.00068743
0.00119498
0.000692332
0.001192
0.000697332
0.00118897
0.00070293
0.00118496
0.000708458
0.00118063
0.00071389
0.00117504
0.000719313
0.00116919
0.000725274
0.00116311
0.000731328
0.00115656
0.00073749
0.00114969
0.00074343
0.0011416
0.0007497
0.00113367
0.000755838
0.00112569
0.000761811
0.00111754
0.000768484
0.00110918
0.000775609
0.00110201
0.000782274
0.00110112
0.000789873
0.00109818
0.000798163
0.001098
0.00080883
0.00110431
0.000818382
0.00112181
0.000829632
0.00114405
0.00083979
0.00117118
0.000852547
0.0012062
0.000864013
0.00121815
0.000879234
0.00122836
0.000892892
0.00122364
0.00086851
0.00114959
0.000850845
0.00106995
0.000840282
0.00101018
0.000824463
0.000967291
0.000805364
0.000941776
0.000795648
0.000928745
0.000790409
0.000923275
0.000795435
0.000921785
0.000802203
0.00092225
0.000818073
0.000920623
0.000846129
0.000913809
0.000896843
0.000905633
0.00289638
0.00289019
0.00126146
0.00287939
0.00126287
0.00286243
0.0012658
0.00283965
0.00126941
0.00281124
0.00127369
0.00277737
0.00127856
0.00273947
0.001284
0.00269682
0.00129002
0.00264957
0.00129651
0.00259803
0.00130338
0.00254266
0.00131063
0.00248374
0.00131825
0.00242171
0.00132613
0.00235701
0.00133419
0.00229003
0.0013424
0.00222116
0.0013507
0.0021508
0.00135907
0.00207934
0.00136743
0.0020071
0.00137574
0.00193443
0.00138388
0.00186166
0.00139181
0.00178914
0.00139952
0.00171714
0.00140699
0.00164589
0.0014142
0.00157567
0.00142113
0.00150662
0.00142777
0.0014389
0.00143396
0.0013727
0.00143973
0.00130813
0.00144512
0.00124528
0.00145001
0.0011843
0.00145437
0.00112525
0.00145823
0.00106817
0.00146163
0.00101307
0.00146447
0.000959885
0.0014668
0.000908893
0.00146825
0.000859965
0.00146921
0.000813146
0.00146979
0.000768919
0.00146996
0.000726662
0.0014698
0.000686523
0.00146878
0.000648519
0.00146772
0.000612618
0.001467
0.000570724
0.00146521
0.000587777
0.00131212
0.000604431
0.000952189
0.00060901
0.000940723
0.000609689
0.000955156
0.000610318
0.000971213
0.000610828
0.000989271
0.000613765
0.00100681
0.00061641
0.00102579
0.000620309
0.00104417
0.000624078
0.00106345
0.000626774
0.00108194
0.000628774
0.00109939
0.000630541
0.00111589
0.000631663
0.00113165
0.0006328
0.0011473
0.000633939
0.00116109
0.000635524
0.00117419
0.000637545
0.00118619
0.000639442
0.00119814
0.000641192
0.00120737
0.000643031
0.00121674
0.000644898
0.00122425
0.000646733
0.00123057
0.000648476
0.00123639
0.00065033
0.00124018
0.000652117
0.00124317
0.000654344
0.00124601
0.000656847
0.00124682
0.000659571
0.0012476
0.000662198
0.0012478
0.000665514
0.00124741
0.000668826
0.0012475
0.000671892
0.00124617
0.000676819
0.00124433
0.000681251
0.00124155
0.000686534
0.00123827
0.000691588
0.00123421
0.000696483
0.00123
0.000702387
0.00122502
0.00070828
0.00121973
0.000713602
0.00121303
0.000718784
0.00120612
0.00072488
0.00119896
0.00073117
0.00119142
0.000737286
0.00118347
0.000743263
0.00117457
0.000749573
0.00116554
0.000755418
0.00115663
0.000760965
0.00114747
0.000767554
0.00113757
0.000775114
0.00113051
0.000779586
0.00112818
0.000787962
0.00112424
0.000797552
0.00112405
0.000808027
0.00113095
0.000817222
0.00114884
0.000826112
0.00117032
0.000837324
0.00119577
0.000853503
0.00122931
0.000866302
0.00123305
0.000873403
0.00123848
0.000868047
0.00115623
0.000836221
0.00106384
0.000848574
0.000984899
0.000847936
0.000924403
0.000833313
0.00088428
0.000810723
0.000858217
0.000805184
0.000842206
0.000803293
0.000834555
0.000809655
0.000833432
0.000824113
0.00083747
0.000850953
0.00084533
0.000885081
0.000852481
0.000968585
0.000859997
0.00289527
0.00288868
0.00127128
0.00287747
0.0012764
0.00286013
0.001283
0.00283861
0.00129021
0.00281211
0.00129805
0.00278002
0.0013065
0.0027427
0.00131549
0.00270033
0.00132493
0.00265335
0.00133481
0.00260202
0.00134512
0.00254682
0.00135576
0.00248805
0.00136662
0.00242618
0.00137772
0.00236154
0.00138899
0.00229462
0.00140035
0.00222579
0.00141171
0.00215543
0.00142305
0.00208395
0.00143434
0.00201165
0.00144547
0.0019389
0.00145639
0.00186605
0.001467
0.00179341
0.0014773
0.00172128
0.00148727
0.00164987
0.00149688
0.00157949
0.00150611
0.00151023
0.00151499
0.00144236
0.00152329
0.00137594
0.00153108
0.00131116
0.00153841
0.00124812
0.00154512
0.00118691
0.00155124
0.00112764
0.00155675
0.0010703
0.00156167
0.00101496
0.00156602
0.000961572
0.00156964
0.000910341
0.00157241
0.000861193
0.00157447
0.00081407
0.00157604
0.000769036
0.00157719
0.000726292
0.00157796
0.000686474
0.00157794
0.000648656
0.00157793
0.000612819
0.00157832
0.000574443
0.00157805
0.000603582
0.00144155
0.000610775
0.00103044
0.000615856
0.00100981
0.000617763
0.0010227
0.000619855
0.00103911
0.000621726
0.00105774
0.000624456
0.0010762
0.00062738
0.00109686
0.000630634
0.00111496
0.000633785
0.00113235
0.000635043
0.00115008
0.000636759
0.00116769
0.000638753
0.00118445
0.000639874
0.00120001
0.000640846
0.00121602
0.00064183
0.00123009
0.000643075
0.00124266
0.000644641
0.00125351
0.00064589
0.00126403
0.000646945
0.00127291
0.000648327
0.00128084
0.000649607
0.00128702
0.000650951
0.00129277
0.000652344
0.00129692
0.000653941
0.00130018
0.000655381
0.00130234
0.000657282
0.00130411
0.000659576
0.00130369
0.000662114
0.00130349
0.000664467
0.00130232
0.000667561
0.00130081
0.00067091
0.00129952
0.000676051
0.00129777
0.000681326
0.00129496
0.000686282
0.00129105
0.000691955
0.00128714
0.000697371
0.00128218
0.000702611
0.00127677
0.000708824
0.00127096
0.000715001
0.00126488
0.000720739
0.00125719
0.000726191
0.00124927
0.000732452
0.00124117
0.000738835
0.0012327
0.000744996
0.00122365
0.000751014
0.00121395
0.000757305
0.00120398
0.000763097
0.00119424
0.00076868
0.00118422
0.000774724
0.00117346
0.000781585
0.0011655
0.000786081
0.00116269
0.000792969
0.00115837
0.000800478
0.00115852
0.000810421
0.00116784
0.000819845
0.00118544
0.000829969
0.00120611
0.00084042
0.00123489
0.000856169
0.00125278
0.00086983
0.00125548
0.000869437
0.00119472
0.000828353
0.00107622
0.000874607
0.000984427
0.000886177
0.000932418
0.00087044
0.00089803
0.000850056
0.000870331
0.000830098
0.000846519
0.000825696
0.000825458
0.000819127
0.000816734
0.000824419
0.000815617
0.000836421
0.000817308
0.000864429
0.000823439
0.000896235
0.000832734
0.000993338
0.000842914
0.00289195
0.00288621
0.00128308
0.00287799
0.00129182
0.0028635
0.00130203
0.00284306
0.00131282
0.00281688
0.00132422
0.00278509
0.00133612
0.00274804
0.00134852
0.00270593
0.00136143
0.00265918
0.00137473
0.00260803
0.00138833
0.00255299
0.00140222
0.00249435
0.00141639
0.00243257
0.00143071
0.00236798
0.00144509
0.00230107
0.00145952
0.00223223
0.00147391
0.00216184
0.00148821
0.00209028
0.00150237
0.00201788
0.00151629
0.00194501
0.00152994
0.00187201
0.00154321
0.00179919
0.00155607
0.00172687
0.0015685
0.00165527
0.00158048
0.00158467
0.00159197
0.00151518
0.00160305
0.00144701
0.00161345
0.00138039
0.00162327
0.00131535
0.00163247
0.00125204
0.00164102
0.00119057
0.00164891
0.00113103
0.00165605
0.00107342
0.00166249
0.00101779
0.00166836
0.000964128
0.00167335
0.000912575
0.00167729
0.000863137
0.00168059
0.000815798
0.00168331
0.000770469
0.00168552
0.000727027
0.00168688
0.000685686
0.00168726
0.000648059
0.00168736
0.000612141
0.00168781
0.00057186
0.00168796
0.000616285
0.00150593
0.000616065
0.00109301
0.000621124
0.00107082
0.000625063
0.00108417
0.000629773
0.00110193
0.00063291
0.00111962
0.00063665
0.00113828
0.000640083
0.00115755
0.000642918
0.00117746
0.000645578
0.0011963
0.000648593
0.00121586
0.000650053
0.00123377
0.000651149
0.00125085
0.000651899
0.00126709
0.000652242
0.00128168
0.000653625
0.00129459
0.000654965
0.00130587
0.000655694
0.0013172
0.000657068
0.0013285
0.000657852
0.00133595
0.000658949
0.00134383
0.00065987
0.00134919
0.000660768
0.00135358
0.000661617
0.00135789
0.000662792
0.00135933
0.000663573
0.00136079
0.000664709
0.00136151
0.000666984
0.00135989
0.000669189
0.00135864
0.000671106
0.00135649
0.000674023
0.00135398
0.000678045
0.00135124
0.0006838
0.00134941
0.000689773
0.00134548
0.000695196
0.00134069
0.000701116
0.0013362
0.000706903
0.00133047
0.000712394
0.00132471
0.000718266
0.00131798
0.000724702
0.0013107
0.000730371
0.00130184
0.000735615
0.00129283
0.000741572
0.001284
0.000747992
0.00127472
0.000753714
0.00126438
0.000759433
0.00125375
0.000765745
0.00124309
0.000771222
0.00123254
0.000776971
0.00122152
0.000782409
0.00120981
0.000789035
0.00120178
0.000791242
0.00119672
0.00079786
0.00119239
0.000805637
0.0011951
0.000815222
0.0012091
0.000824771
0.00122514
0.000838585
0.00124805
0.000844395
0.00127387
0.000855329
0.00127172
0.000851492
0.001229
0.000845295
0.00109753
0.000903256
0.000995604
0.000912936
0.000938348
0.000904162
0.000900744
0.000890015
0.000874421
0.000877223
0.000857923
0.000859593
0.000847627
0.000847184
0.000836349
0.000834116
0.000826285
0.000841528
0.000820657
0.000848247
0.000821027
0.000874297
0.000824852
0.000904036
0.000830798
0.00100763
0.000841158
0.00289501
0.00289181
0.00129685
0.00288393
0.00130918
0.00286978
0.00132292
0.00284967
0.00133721
0.00282379
0.00135203
0.00279229
0.00136741
0.00275551
0.00138325
0.00271362
0.00139947
0.00266705
0.00141605
0.00261608
0.00143298
0.00256117
0.00145016
0.00250262
0.00146747
0.00244086
0.0014849
0.00237631
0.00150241
0.00230938
0.0015199
0.00224049
0.00153725
0.00217002
0.00155444
0.00209834
0.00157144
0.00202579
0.0015881
0.00195275
0.00160444
0.00187956
0.00162034
0.00180652
0.0016357
0.00173394
0.00165056
0.00166208
0.00166488
0.00159118
0.00167862
0.00152143
0.00169185
0.00145296
0.00170431
0.00138601
0.00171613
0.00132067
0.00172721
0.00125705
0.00173757
0.00119527
0.00174718
0.00113539
0.00175599
0.00107747
0.00176403
0.00102153
0.00177133
0.000967527
0.00177775
0.000915679
0.00178301
0.000865894
0.00178743
0.000818222
0.00179125
0.000772457
0.00179421
0.000728522
0.00179653
0.000686897
0.00179723
0.000647185
0.00179596
0.000610577
0.00179358
0.00057088
0.00178868
0.00062091
0.00145431
0.000625373
0.00112774
0.000634013
0.00111684
0.00064193
0.00113597
0.000648435
0.00115826
0.000651565
0.00117954
0.000655724
0.00120168
0.000658641
0.00122289
0.000660937
0.00124288
0.000663667
0.00126354
0.000663793
0.0012841
0.000665383
0.00130423
0.000664289
0.00132262
0.000666401
0.00134016
0.000666229
0.00135548
0.000665346
0.00136819
0.00066654
0.00138033
0.000667569
0.00139007
0.000668275
0.00139962
0.000668595
0.0014074
0.000669181
0.00141489
0.000669795
0.00141969
0.000670227
0.00142304
0.000670677
0.00142608
0.000671483
0.00142634
0.000671971
0.00142693
0.000672702
0.00142727
0.000674123
0.00142511
0.000675998
0.00142162
0.000677866
0.00141855
0.000682177
0.00141481
0.000686448
0.00141067
0.000692732
0.0014075
0.000699123
0.00140243
0.000704965
0.00139683
0.000710808
0.00139098
0.00071716
0.00138415
0.000723305
0.00137749
0.000729756
0.00136955
0.000737336
0.00136227
0.000743683
0.00135246
0.00074929
0.00134221
0.000755443
0.00133282
0.000762439
0.00132269
0.000768301
0.00131177
0.000773906
0.00130028
0.000780206
0.00128904
0.000785462
0.00127794
0.000791063
0.00126612
0.000796102
0.00125407
0.000801973
0.00124643
0.000802392
0.00123917
0.000808686
0.00123609
0.000817416
0.00124514
0.000825943
0.00125887
0.000835011
0.00127089
0.000850299
0.00129952
0.000846173
0.00129567
0.000841878
0.00127259
0.000846039
0.00114546
0.000912943
0.00103678
0.000937547
0.000981296
0.000941603
0.000940655
0.000930873
0.000904937
0.00090786
0.0008779
0.000892019
0.000855495
0.000879409
0.000844864
0.000871496
0.000839688
0.000856129
0.000835982
0.000857867
0.00083265
0.000861459
0.000833352
0.000884568
0.000837902
0.000912748
0.000837935
0.00101756
0.00084487
0.00290248
0.00289961
0.00131261
0.00289205
0.00132844
0.00287821
0.00134564
0.00285841
0.00136337
0.00283284
0.00138162
0.00280161
0.00140032
0.00276503
0.00141946
0.00272336
0.00143902
0.00267698
0.00145891
0.00262614
0.00147902
0.0025713
0.00149933
0.00251281
0.00151983
0.00245111
0.00154038
0.00238653
0.00156088
0.00231954
0.00158136
0.00225056
0.00160164
0.00217996
0.00162167
0.0021081
0.00164148
0.00203536
0.00166083
0.0019621
0.00167979
0.00188867
0.00169826
0.00181535
0.00171611
0.00174247
0.00173335
0.0016703
0.00174996
0.00159906
0.00176592
0.00152898
0.00178122
0.00146015
0.00179579
0.00139282
0.00180955
0.00132712
0.00182249
0.00126314
0.00183464
0.001201
0.00184598
0.00114076
0.00185643
0.00108246
0.00186605
0.00102614
0.00187489
0.000971756
0.00188281
0.000919542
0.00188951
0.000869354
0.00189519
0.000821354
0.00190027
0.000775208
0.00190409
0.000730867
0.00190731
0.000688409
0.00190912
0.000647949
0.00191001
0.000609913
0.00190913
0.000570903
0.00190793
0.000618438
0.00161419
0.000627164
0.00121081
0.000639835
0.00119194
0.000650168
0.0012106
0.0006582
0.0012349
0.000662992
0.00125685
0.000667626
0.00128018
0.000671236
0.0013032
0.00067461
0.00132554
0.000677232
0.00134498
0.000678742
0.00136505
0.00067909
0.00138467
0.000679606
0.00140485
0.000679359
0.00142529
0.000677665
0.00143876
0.000677245
0.00145147
0.000677985
0.00146076
0.000678008
0.00146869
0.000677922
0.00147808
0.000677672
0.0014855
0.000677909
0.00149198
0.000678013
0.00149501
0.000677853
0.00149691
0.000677624
0.00149899
0.000677534
0.00149778
0.000677915
0.00149762
0.000678141
0.00149728
0.000679484
0.00149452
0.000680844
0.00148993
0.000684116
0.00148553
0.000690018
0.00148058
0.000694961
0.00147536
0.00070083
0.00147017
0.000707661
0.00146384
0.000714853
0.00145785
0.000721246
0.00145065
0.000728206
0.00144313
0.000734691
0.00143482
0.000741692
0.00142556
0.000749347
0.00141764
0.000755638
0.00140647
0.000761405
0.00139506
0.000767338
0.00138484
0.000774135
0.00137314
0.000780391
0.00136181
0.000786463
0.00135057
0.000792992
0.00133872
0.000798394
0.00132713
0.000804605
0.00131658
0.000809584
0.00130331
0.000816507
0.00129517
0.000816397
0.00129002
0.000822842
0.00128764
0.000827842
0.00129668
0.000836202
0.00130443
0.000847747
0.00132419
0.000855552
0.00132012
0.000851496
0.00130807
0.00086152
0.00118212
0.000941515
0.00107961
0.000965658
0.00101512
0.000979911
0.000977325
0.00097733
0.000946556
0.000952826
0.000918233
0.000923651
0.000891367
0.000906572
0.000869015
0.00089425
0.000854223
0.000890025
0.000848784
0.000876317
0.000846896
0.000875867
0.000844826
0.000876657
0.000845152
0.000898738
0.000850308
0.000924404
0.000845938
0.0010293
0.000849051
0.00291218
0.00290962
0.00133037
0.00290236
0.00134962
0.00288882
0.00137021
0.0028693
0.00139129
0.00284394
0.00141287
0.00281299
0.00143486
0.00277665
0.00145728
0.00273516
0.00148004
0.00268889
0.00150309
0.00263818
0.00152639
0.00258343
0.00154985
0.00252497
0.00157339
0.00246323
0.00159696
0.00239863
0.00162044
0.00233154
0.00164386
0.00226242
0.00166699
0.00219165
0.00168981
0.00211958
0.00171235
0.0020466
0.00173436
0.00197307
0.00175587
0.00189934
0.00177688
0.00182569
0.00179716
0.00175247
0.00181675
0.00167992
0.00183562
0.00160828
0.00185375
0.0015378
0.00187111
0.00146857
0.00188771
0.00140082
0.00190336
0.00133469
0.00191819
0.0012703
0.0019321
0.00120774
0.00194512
0.0011471
0.00195724
0.00108841
0.00196846
0.00103169
0.00197885
0.000976966
0.00198826
0.000924253
0.00199667
0.000873703
0.00200373
0.000825111
0.00201008
0.000778576
0.00201525
0.000733943
0.00201915
0.000691313
0.00202104
0.000649956
0.00202182
0.000610833
0.00201952
0.000561174
0.00201728
0.000603284
0.00169225
0.000627456
0.00127187
0.000652416
0.00125376
0.000668977
0.0012822
0.000681171
0.0013141
0.00068826
0.00134064
0.000693538
0.00136367
0.000695902
0.00138823
0.000697592
0.0014101
0.000700662
0.00143049
0.000701055
0.0014526
0.000698966
0.00147407
0.000698099
0.00149385
0.00069364
0.00150896
0.000689089
0.00152451
0.000687552
0.00153957
0.00068665
0.00154788
0.000684506
0.00155319
0.000683745
0.00156082
0.000682536
0.00156712
0.000682002
0.00157414
0.000681475
0.00157681
0.00068097
0.00157954
0.000680286
0.00158184
0.000679706
0.00158112
0.000679774
0.00157894
0.000679775
0.0015779
0.000680096
0.0015759
0.00068236
0.00157039
0.000688433
0.00156479
0.000694697
0.00155863
0.000700414
0.00155174
0.000706538
0.00154477
0.000713609
0.00153638
0.000721042
0.00152898
0.000728184
0.00152137
0.000735372
0.00151302
0.000742457
0.00150335
0.00074991
0.00149318
0.000757702
0.00148422
0.000764403
0.00147382
0.000770352
0.00146108
0.000776283
0.00144749
0.000783136
0.00143625
0.000789342
0.00142361
0.00079524
0.00141064
0.000801585
0.0013984
0.000806901
0.00138503
0.000812187
0.00137165
0.000818652
0.00135751
0.000823657
0.00134693
0.000822888
0.00134069
0.000828191
0.00133762
0.000833334
0.00133546
0.000842257
0.00134606
0.000855236
0.00134193
0.000852517
0.00132812
0.000868086
0.00122217
0.000929045
0.0011209
0.000991763
0.00106349
0.00100221
0.00102454
0.00100888
0.000994947
0.00100103
0.000961643
0.000973154
0.000933863
0.000943298
0.00090556
0.000923167
0.000882986
0.000908266
0.000867103
0.000906201
0.000859307
0.000894951
0.000856992
0.000894259
0.000855548
0.000893939
0.000854731
0.000915666
0.000859772
0.000938663
0.000853983
0.00104224
0.000855064
0.00292406
0.00292178
0.00135015
0.00291481
0.00137273
0.00290153
0.00139663
0.0028823
0.00142097
0.00285723
0.00144576
0.00282648
0.001471
0.00279028
0.00149662
0.00274898
0.00152251
0.00270285
0.00154869
0.00265222
0.00157507
0.00259751
0.00160156
0.00253905
0.00162813
0.00247728
0.00165465
0.00241258
0.00168102
0.00234536
0.00170728
0.00227606
0.00173322
0.00220507
0.00175877
0.00213274
0.00178396
0.00205948
0.00180859
0.00198563
0.00183262
0.00191155
0.00185607
0.00183751
0.00187874
0.00176389
0.00190063
0.00169094
0.00192172
0.00161885
0.00194199
0.00154788
0.00196138
0.00147821
0.00197991
0.00141
0.00199751
0.00134339
0.00201412
0.00127852
0.0020298
0.0012155
0.00204451
0.0011544
0.00205827
0.00109525
0.00207111
0.00103811
0.00208305
0.000982994
0.00209397
0.000929847
0.00210398
0.000878865
0.00211287
0.00082986
0.00212094
0.000782801
0.00212815
0.000737692
0.00213391
0.000694657
0.00213858
0.000652809
0.00214177
0.000612879
0.00214239
0.000582182
0.00213739
0.000587917
0.00183817
0.000636823
0.001355
0.000672982
0.001343
0.000696417
0.00138659
0.000711336
0.00142304
0.000714518
0.00145513
0.000716731
0.00148277
0.000716776
0.00150696
0.000715706
0.00153519
0.000719136
0.00155721
0.000718145
0.00157446
0.000711354
0.00159228
0.000709703
0.00160869
0.000703701
0.00161789
0.000695626
0.0016265
0.000692177
0.00164117
0.000692055
0.00164504
0.000689816
0.00165053
0.000688772
0.00165515
0.000687097
0.00166092
0.000685882
0.00166991
0.000685021
0.00167333
0.000684058
0.00167499
0.000682703
0.0016758
0.000680295
0.00167545
0.000680267
0.00167026
0.000679497
0.00166734
0.00067855
0.00166409
0.000683361
0.00165673
0.000689928
0.00165028
0.000696613
0.00164327
0.000703404
0.00163471
0.000709432
0.00162702
0.000716728
0.00161665
0.000725474
0.00160751
0.000733123
0.00159891
0.000741027
0.00159075
0.000748779
0.00157951
0.000757038
0.00156761
0.000765566
0.00155797
0.000773057
0.001546
0.00077909
0.00153232
0.000785243
0.00151857
0.000792719
0.00150608
0.000798642
0.00149203
0.000804876
0.00147769
0.000811118
0.00146471
0.000816367
0.00144936
0.000821663
0.00143215
0.00082828
0.00141527
0.000832147
0.00140106
0.00082992
0.00138898
0.000832934
0.00138098
0.000835888
0.00137671
0.000844123
0.00136608
0.000843113
0.00134365
0.000859973
0.00124722
0.000937307
0.00116059
0.00099095
0.00108818
0.00103142
0.00105795
0.00103639
0.00103326
0.00103879
0.00100581
0.00102448
0.00097869
0.000995461
0.000950412
0.000962168
0.00092055
0.000940808
0.000897226
0.0009245
0.00087973
0.000921912
0.000869155
0.000912483
0.000864766
0.000912796
0.000862714
0.000910622
0.00086164
0.000934375
0.00086832
0.000954287
0.000861364
0.00105725
0.000861715
0.0029381
0.00293607
0.00137197
0.00292937
0.00139777
0.00291637
0.00142488
0.00289738
0.00145241
0.00287255
0.00148039
0.00284199
0.00150872
0.00280602
0.00153739
0.00276484
0.00156639
0.00271879
0.00159563
0.00266822
0.00162501
0.00261353
0.00165444
0.00255504
0.00168394
0.00249318
0.00171334
0.00242836
0.00174256
0.00236097
0.00177158
0.00229145
0.00180025
0.0022202
0.00182848
0.00214759
0.00185622
0.00207399
0.00188341
0.00199977
0.0019099
0.00192529
0.00193572
0.00185082
0.00196073
0.00177674
0.00198487
0.0017033
0.00200814
0.00163074
0.00203049
0.00155925
0.00205192
0.00148906
0.00207235
0.00142031
0.00209177
0.00135318
0.00211017
0.00128781
0.00212755
0.00122429
0.00214394
0.00116269
0.00215935
0.00110303
0.00217388
0.00104539
0.00218733
0.000989852
0.0021999
0.000936339
0.00221161
0.000884949
0.0022224
0.000835625
0.0022326
0.000788292
0.00224208
0.000742926
0.00225102
0.000699601
0.00225932
0.00065795
0.00226819
0.000618286
0.00228104
0.00058774
0.00228781
0.000602626
0.0022758
0.00065393
0.00150258
0.000711144
0.00150994
0.000739726
0.00156366
0.00075149
0.00160156
0.000748686
0.00161812
0.000747208
0.00163667
0.000741456
0.00164607
0.000740916
0.00167138
0.000738409
0.00168593
0.000731288
0.00168898
0.000726621
0.00170048
0.000722663
0.00172282
0.000710016
0.00172047
0.000702542
0.0017169
0.000698393
0.00175501
0.00069647
0.00175799
0.000694874
0.00176392
0.00069195
0.00176834
0.000689222
0.00177157
0.000687916
0.00177397
0.000686329
0.00177583
0.000684468
0.00177612
0.000682751
0.00177541
0.000679271
0.00177328
0.00067889
0.0017659
0.00067768
0.00176068
0.000679205
0.00175391
0.000686089
0.00174471
0.000693575
0.00173641
0.000700531
0.00172793
0.000708209
0.00171713
0.000714329
0.00170769
0.000721577
0.00169612
0.000730012
0.00168438
0.000738102
0.00167292
0.000745797
0.00166301
0.000753756
0.00164937
0.000762424
0.00163566
0.000770395
0.0016233
0.000777576
0.00160933
0.000783688
0.00159362
0.00079027
0.00157779
0.000797902
0.00156522
0.000803614
0.00154774
0.000809549
0.00153156
0.000815815
0.00151517
0.000820104
0.00149782
0.000824474
0.00147826
0.000831034
0.00145868
0.000832686
0.00144175
0.000829013
0.00142641
0.000829646
0.00140957
0.000831952
0.00139175
0.000827072
0.00135436
0.000849443
0.0012672
0.000912536
0.001182
0.000995923
0.00112086
0.00103894
0.00108857
0.00105553
0.00106585
0.00106653
0.0010424
0.00106567
0.00101509
0.001046
0.000990878
0.00101435
0.000961423
0.000979888
0.000929626
0.000959179
0.000906716
0.000940696
0.000890513
0.000937542
0.000877954
0.000929577
0.000872148
0.000930501
0.000869685
0.000927103
0.000869334
0.000954569
0.000875149
0.000970674
0.000869844
0.00107383
0.000868733
0.00295426
0.00295248
0.00139584
0.00294602
0.00142477
0.00293327
0.00145499
0.00291451
0.00148562
0.00288987
0.00151662
0.00285951
0.001548
0.00282372
0.00157971
0.00278266
0.00161166
0.00273671
0.00164381
0.00268618
0.00167612
0.00263145
0.00170847
0.00257292
0.00174079
0.00251095
0.001773
0.00244596
0.00180497
0.00237838
0.00183667
0.00230859
0.00186801
0.00223704
0.00189884
0.00216408
0.00192908
0.00209009
0.00195873
0.00201547
0.00198763
0.00194053
0.00201573
0.0018656
0.00204304
0.00179101
0.00206938
0.00171704
0.00209476
0.00164393
0.00211913
0.00157191
0.00214249
0.00150112
0.00216486
0.00143178
0.0021861
0.00136406
0.00220623
0.00129811
0.00222529
0.00123401
0.00224326
0.00117186
0.00226025
0.00111168
0.00227627
0.00105351
0.0022915
0.000997419
0.00230571
0.00094355
0.00231896
0.000891797
0.00233156
0.000842167
0.0023438
0.000794546
0.00235572
0.000749142
0.00236723
0.000705755
0.00237919
0.000664364
0.00239051
0.000625711
0.00241045
0.000587137
0.00241512
0.000633912
0.0024166
0.000727977
0.00198778
0.000765906
0.00170572
0.000776184
0.00173284
0.000782624
0.00175207
0.00077956
0.00176426
0.000771898
0.00176975
0.000762283
0.00177382
0.000764065
0.00179159
0.00075513
0.00180402
0.000743431
0.00180886
0.000742409
0.0018207
0.000735838
0.00183633
0.000715711
0.0018385
0.000711583
0.00183778
0.000707522
0.0018764
0.000704067
0.00187897
0.000702926
0.00187984
0.000698471
0.00188408
0.000696036
0.00188711
0.000693547
0.00188671
0.000691597
0.00188559
0.000689407
0.00188283
0.000687168
0.00187891
0.00068335
0.00187332
0.000682141
0.00186578
0.000680381
0.00185739
0.000686577
0.00184926
0.000694199
0.00183773
0.000702428
0.00182649
0.000710434
0.00181496
0.000719043
0.00180162
0.00072529
0.00178955
0.000733576
0.00177609
0.000742425
0.00176065
0.00074963
0.00174666
0.000757443
0.00173321
0.000765193
0.00171727
0.000773749
0.00170097
0.000781402
0.00168711
0.000787817
0.00166961
0.000793747
0.00165123
0.000799635
0.00163335
0.000806407
0.00161557
0.000810951
0.00159706
0.000815495
0.00157786
0.00082051
0.00155892
0.00082335
0.00153832
0.000826072
0.00151398
0.000831397
0.00149313
0.000831061
0.00146835
0.000825252
0.00143271
0.000819586
0.00140023
0.000809958
0.00134078
0.000824611
0.00126625
0.000886307
0.00117962
0.000958312
0.00110475
0.00102808
0.00108772
0.0010587
0.00107007
0.00108164
0.00105527
0.00109106
0.00104078
0.00108341
0.00102102
0.00106291
0.00100035
0.00102973
0.000972419
0.00099474
0.000941685
0.000973778
0.000917662
0.000956893
0.000901073
0.000952568
0.000887535
0.000945587
0.000879675
0.000947085
0.000875759
0.000943622
0.000875201
0.000974353
0.00088025
0.000988233
0.000877287
0.0010914
0.000875281
0.00297251
0.00297096
0.00142179
0.00296472
0.00145375
0.00295219
0.00148697
0.00293367
0.00152055
0.00290922
0.00155453
0.00287904
0.00158885
0.00284336
0.00162344
0.00280242
0.00165828
0.00275655
0.0016933
0.00270603
0.00172843
0.00265128
0.00176355
0.00259266
0.00179861
0.00253053
0.00183353
0.00246537
0.00186819
0.00239755
0.00190248
0.00232746
0.00193642
0.00225556
0.00196976
0.0021822
0.00200243
0.00210781
0.00203443
0.00203271
0.00206571
0.00195727
0.00209604
0.00188182
0.0021255
0.00180667
0.00215403
0.00173211
0.00218145
0.00165842
0.00220778
0.00158577
0.00223303
0.00151438
0.00225721
0.0014444
0.00228029
0.00137603
0.00230214
0.00130941
0.00232282
0.00124468
0.00234234
0.00118191
0.00236078
0.00112118
0.00237817
0.00106247
0.00239504
0.00100587
0.00241082
0.000951428
0.00242578
0.000899165
0.00244015
0.000849233
0.00245433
0.000801478
0.00246871
0.000755948
0.00248382
0.000712443
0.0025007
0.000671227
0.00251979
0.000633081
0.00255482
0.000590246
0.00257349
0.000847948
0.0025789
0.000844032
0.00211109
0.000808006
0.00194112