/*--------------------------------*- C++ -*----------------------------------*\
| =========                 |                                                 |
| \\      /  F ield         | OpenFOAM: The Open Source CFD Toolbox           |
|  \\    /   O peration     | Version:  2.2.x                                 |
|   \\  /    A nd           | Web:      www.OpenFOAM.org                      |
|    \\/     M anipulation  |                                                 |
\*---------------------------------------------------------------------------*/
FoamFile
{
    version     2.0;
    format      ascii;
    class       volScalarField;
    location    "2.1";
    object      pB;
}
// * * * * * * * * * * * * * * * * * * * * * * * * * * * * * * * * * * * * * //

dimensions      [1 1 -3 0 0 -1 0];

internalField   nonuniform List<scalar> 
14161
(
-0.00153118
0.000202584
-8.07716e-05
-4.73074e-05
-7.75384e-05
-8.8943e-05
-0.0001024
-0.000116102
-0.000128175
-0.000137252
-0.000152793
-0.00016548
-0.000167355
-0.000178353
-0.000194766
-0.000183643
-0.000191583
-0.000192426
-0.000178251
-0.000174096
-0.000163525
-0.000143922
-0.00012071
-8.86408e-05
-5.74081e-05
-2.59828e-05
1.69447e-05
7.6951e-05
0.000139331
0.000230483
0.000311208
0.000423433
0.000600329
0.000689535
0.000953433
0.00106376
0.00136521
0.00153431
0.00198204
0.00222826
0.00262298
0.00300165
0.00193567
0.00807793
-0.0104704
0.00652604
0.00687722
0.0104115
0.00615604
0.00774069
0.0045888
0.00441434
0.00319783
0.00278185
0.0024833
0.00215571
0.00159158
0.00151934
0.00120957
0.000889659
0.000528477
0.000219789
0.000109167
-9.34905e-05
-0.000188826
-0.000351664
-0.000433767
-0.000544712
-0.000708214
-0.000774645
-0.0010884
-0.00118016
-0.000973748
-0.00106083
-0.00100457
-0.0010226
-0.00103618
-0.00131587
-0.00129248
-0.00111395
-0.00167304
-0.00147931
-0.00150759
-0.00183025
-0.00201757
-0.00195821
-0.00186312
-0.00232715
-0.00243184
-0.00252327
-0.00273699
-0.00292544
-0.00313123
-0.00253092
-0.00313082
-0.00384417
-0.00223412
-0.00447371
-0.00392936
-0.00436571
-0.00428283
-0.00701911
-0.00723304
-0.00810579
-0.00832146
-0.00584504
-0.00135446
-0.0259569
-0.0136548
-0.0204245
-0.013832
-0.00692621
-0.0155345
-0.0025882
-0.0203586
0.00292145
-0.0360033
0.0314756
-0.0911145
-0.00153321
0.000204316
-8.11661e-05
-4.74261e-05
-7.88216e-05
-8.99872e-05
-0.00010113
-0.000116007
-0.00012906
-0.000139788
-0.000151189
-0.00016497
-0.000168101
-0.000178927
-0.000193132
-0.000184876
-0.000190309
-0.000192118
-0.000180217
-0.000173954
-0.000163155
-0.000144107
-0.000119586
-8.84921e-05
-5.53343e-05
-2.36801e-05
1.53253e-05
7.77571e-05
0.000140757
0.000221493
0.000320211
0.00045763
0.000559013
0.000736797
0.000879399
0.00108922
0.00134826
0.0015798
0.00189974
0.0021441
0.00232616
0.00258619
0.00237373
0.00311351
0.00596957
0.00208426
0.000447379
0.00316028
-0.000232152
-2.19476e-05
-0.00295775
-0.00324261
-0.00411633
-0.00397965
-0.00342412
-0.00281789
-0.00202223
-0.00167522
-0.00152708
-0.00140207
-0.00137583
-0.00134117
-0.00110962
-0.00109727
-0.00112677
-0.0012166
-0.00122164
-0.00134564
-0.00125381
-0.00133381
-0.00133434
-0.00109831
-0.00130339
-0.00136005
-0.00147875
-0.0015065
-0.00135752
-0.00172312
-0.00171692
-0.00169337
-0.00208064
-0.00208496
-0.00179738
-0.00244301
-0.00234506
-0.00258627
-0.0025176
-0.00304135
-0.0031757
-0.0033478
-0.00358388
-0.00372436
-0.00394132
-0.0034438
-0.00456477
-0.00415137
-0.00333634
-0.00576366
-0.00527781
-0.00578925
-0.00607245
-0.00697884
-0.00755288
-0.00769892
-0.00961935
-0.00590196
-0.0128597
0.00381802
0.0114588
0.0125602
0.0103026
0.0163231
0.00848974
0.0215415
0.00463734
0.0266894
-0.0131731
0.0304025
-0.0589284
-0.00153113
0.000203767
-8.10057e-05
-4.74772e-05
-7.79345e-05
-8.94719e-05
-0.000102082
-0.000115801
-0.000128018
-0.000139516
-0.00015088
-0.000164728
-0.00016856
-0.000179657
-0.000192681
-0.000186802
-0.000189723
-0.000190807
-0.000181702
-0.000174666
-0.00016337
-0.000145741
-0.000122549
-9.19134e-05
-5.89677e-05
-3.17028e-05
8.60692e-06
6.55497e-05
0.000134806
0.000208706
0.000311813
0.000414576
0.000531516
0.000716776
0.000841774
0.00111693
0.00125536
0.00154203
0.00185319
0.00206405
0.00214793
0.00245633
0.0022008
0.00180262
0.00432076
0.000114194
-0.000403803
-0.0015022
-0.00288884
0.0019932
0.00254261
0.00478893
0.00590062
0.0062486
0.00720877
0.00641837
0.00523935
0.00406436
0.00334359
0.00253977
0.00186497
0.00146212
0.00120184
0.000465113
0.000199054
-0.000363246
-0.000447332
-0.00063693
-0.000694537
-0.000854346
-0.000929126
-0.00116818
-0.00111599
-0.00123782
-0.00128948
-0.00117046
-0.00106125
-0.00152146
-0.00143745
-0.00154122
-0.00175766
-0.00192864
-0.00169135
-0.00228848
-0.00237597
-0.00248787
-0.00233178
-0.00262264
-0.00264315
-0.00276836
-0.00286754
-0.00309127
-0.00337407
-0.00261434
-0.00396976
-0.00258421
-0.00240593
-0.004671
-0.00408764
-0.00439816
-0.00414818
-0.00602029
-0.00596804
-0.00698233
-0.00448912
-0.0116803
-0.0145855
-0.0146415
-0.00389457
0.0050681
0.00230125
0.00649391
-0.000704653
0.00950683
-0.00815818
0.0117467
-0.0191059
0.0207531
-0.0540885
-0.00153024
0.000203587
-8.15843e-05
-4.76601e-05
-7.8506e-05
-8.96073e-05
-0.000101795
-0.000115519
-0.000128509
-0.00014141
-0.000149651
-0.000164735
-0.000170551
-0.00018019
-0.000189891
-0.00019095
-0.000188827
-0.000190583
-0.000186551
-0.000174597
-0.000164119
-0.000146318
-0.000122587
-9.48452e-05
-6.07148e-05
-3.05838e-05
-1.41841e-06
6.58214e-05
0.000115196
0.000201843
0.000280966
0.000388244
0.000518588
0.000658651
0.000822623
0.00104367
0.00118165
0.00153102
0.00174087
0.00199126
0.00203623
0.00189271
0.00173599
0.000246184
0.00460541
0.017248
0.00119984
0.00767086
0.00339797
0.00485563
0.00205328
0.00220263
0.00101873
-0.00015643
-0.00188876
-0.00206018
-0.00193897
-0.00177484
-0.00175042
-0.00125007
-0.00109801
-0.00142922
-0.00128648
-0.000993163
-0.000866203
-0.000854972
-0.00103831
-0.000971068
-0.00134652
-0.000850239
-0.00124045
-0.00103507
-0.00141847
-0.00123253
-0.00125519
-0.0014966
-0.00127643
-0.00171893
-0.00145033
-0.00188456
-0.00172504
-0.00203498
-0.00178216
-0.00229352
-0.0019743
-0.00230444
-0.00231946
-0.0026273
-0.00285983
-0.0030416
-0.003281
-0.00342233
-0.00386416
-0.00348946
-0.0045562
-0.00329239
-0.00296581
-0.00590845
-0.00484823
-0.00522729
-0.00470603
-0.00558671
-0.00600756
-0.00624675
-0.0106927
-0.0140301
-0.0104807
0.000621753
-0.00112041
0.00717395
0.00368086
0.00630063
-1.60654e-05
0.00866746
-0.00596527
0.0107144
-0.0141444
0.0139357
-0.047471
-0.00152746
0.000201813
-8.13779e-05
-4.79133e-05
-7.81768e-05
-8.8985e-05
-0.000103038
-0.000115276
-0.000127908
-0.000141663
-0.000149639
-0.000163861
-0.000171451
-0.000180771
-0.000187867
-0.000194048
-0.000190008
-0.00019063
-0.000188523
-0.000175234
-0.000164704
-0.000150241
-0.000128358
-0.000100764
-6.74529e-05
-3.66331e-05
-9.21363e-06
4.39406e-05
9.78828e-05
0.000179162
0.000249203
0.000354495
0.000471365
0.000587637
0.000753046
0.000937598
0.00114544
0.00147511
0.00163179
0.00204736
0.00192554
0.00233266
0.0017946
0.000772371
-0.000209057
0.00356446
-0.00211549
-0.00251777
-0.00114892
0.00136102
0.00175427
0.00216962
0.0033979
0.00281536
0.00411501
0.00375548
0.00434537
0.00389564
0.00338364
0.00384849
0.00144787
-2.27361e-05
0.000754566
0.000683644
0.000213085
-0.00042152
-0.000932306
-0.000922606
-0.00125794
-0.000922408
-0.00136452
-0.00107296
-0.00148445
-0.00106399
-0.00106781
-0.00122621
-0.00107461
-0.00118967
-0.00127723
-0.00173893
-0.00152279
-0.00216121
-0.00253783
-0.00256382
-0.00232658
-0.00244212
-0.00267952
-0.00246465
-0.00268388
-0.00282526
-0.00290292
-0.00298985
-0.00342199
-0.0028366
-0.00453109
-0.00214871
-0.00217943
-0.00556893
-0.00394218
-0.00350561
-0.00437465
-0.00478507
-0.00456201
-0.00492474
-0.0185174
-0.00925423
-0.0079655
-0.00609434
-0.000884812
0.0048647
-0.000818564
0.00405188
-0.000650246
0.00745459
-0.00722393
0.00688597
-0.0129164
0.0105501
-0.0459597
-0.00152483
0.000201234
-8.27061e-05
-4.83617e-05
-7.87059e-05
-8.9241e-05
-0.000102931
-0.000115343
-0.000128436
-0.000142817
-0.000149666
-0.000163592
-0.00017448
-0.00018211
-0.000183753
-0.000197392
-0.000192852
-0.000188743
-0.000192821
-0.000178951
-0.000166507
-0.000152707
-0.000130843
-0.000107449
-7.37745e-05
-4.18339e-05
-1.60532e-05
2.9052e-05
8.14175e-05
0.000148215
0.00021598
0.000301081
0.00039736
0.000517225
0.000663711
0.000827806
0.0010609
0.00133425
0.00160728
0.00213008
0.00255316
0.00376461
0.00464306
0.00756952
0.00909078
0.00318954
0.00837123
0.00856087
0.00669868
0.00664837
0.00111447
-0.00030536
-0.00243933
-0.00306495
-0.00436
-0.00192527
-0.00425792
-0.00226201
-0.00295853
-0.00228145
-0.00112052
3.01691e-05
-0.0012299
-0.00182361
-0.0016397
-0.00115905
-0.000981261
-0.000704949
-0.00108901
-0.000616809
-0.00143375
1.25575e-05
-0.00201309
-0.000920327
-0.00141625
-0.00131827
-0.00188782
-0.00104499
-0.00140856
-0.00194139
-0.00181028
-0.00185378
-0.00130473
-0.00151763
-0.00143855
-0.00214243
-0.00220371
-0.00158626
-0.00266294
-0.00280039
-0.00296931
-0.00313972
-0.0036737
-0.00304291
-0.00488483
-0.00316253
-0.00284125
-0.00560826
-0.00347419
-0.00586971
-0.00706325
-0.00345973
-0.00460934
-0.0167346
-0.0134418
-0.00859608
-0.00409374
-0.00434905
0.000287669
0.00103084
-0.00161504
0.00163039
-0.00257725
0.00511549
-0.00769917
0.00562655
-0.0111088
0.00916566
-0.0472205
-0.00152115
0.000199271
-8.1918e-05
-4.83765e-05
-7.89097e-05
-8.76649e-05
-0.000105286
-0.000115049
-0.000127999
-0.000142627
-0.00015075
-0.000160834
-0.000176185
-0.000183257
-0.000181454
-0.00020018
-0.000196031
-0.00018642
-0.000195012
-0.000182988
-0.00016785
-0.000157066
-0.000139449
-0.000114135
-8.52161e-05
-5.53899e-05
-2.80405e-05
5.2024e-06
5.41988e-05
0.000106037
0.000167496
0.000236627
0.000317227
0.000417045
0.00051732
0.000651732
0.000889526
0.00105047
0.00143759
0.00175699
0.00222831
0.00278033
0.00228252
0.00550611
-0.00342347
0.00258476
0.00719823
0.00910873
0.00359436
0.00778632
0.00397091
0.00452162
0.00642796
0.00422199
0.00440752
0.0024854
0.00278822
0.000818322
0.00231743
0.000209256
-0.00036879
2.7503e-05
-0.00048762
-0.000511473
2.58067e-05
-0.000460128
-0.000437814
-0.000840991
-0.00075341
-0.000815037
-0.000851633
-0.000829018
-0.00124491
-0.00129615
-0.00156191
-0.000877408
-0.00182367
-0.000889996
-0.0016383
-0.00102464
-0.00190676
-0.00190322
-0.00155312
-0.0020043
-0.00259859
-0.00192765
-0.00255259
-0.00151813
-0.00275125
-0.00270164
-0.00267966
-0.00315864
-0.00311002
-0.00177276
-0.00599424
-0.000171599
-0.00416492
-0.00562106
-0.00468741
-0.00549729
-0.00490236
-0.00671198
-0.0166745
-0.0166782
-0.0118491
-0.0106747
-0.00445468
-0.00364305
-0.000592612
-0.000602515
-0.00239236
0.000320468
-0.00332389
0.00375534
-0.00727565
0.0046805
-0.0115745
0.0075369
-0.0482143
-0.00151753
0.000197918
-8.2991e-05
-4.87e-05
-7.9388e-05
-8.90261e-05
-0.000104243
-0.000114532
-0.000129139
-0.000142517
-0.000152027
-0.000159968
-0.000178016
-0.000184777
-0.000180357
-0.000201208
-0.000198526
-0.0001882
-0.000197563
-0.00018958
-0.000169135
-0.000162156
-0.000145978
-0.000125644
-9.63907e-05
-6.89255e-05
-4.30797e-05
-1.28654e-05
2.161e-05
6.68326e-05
0.000114728
0.000165049
0.000220629
0.000274364
0.00035565
0.000454047
0.000593367
0.000781919
0.00110065
0.00150635
0.00241908
0.00358687
0.00442617
0.00994477
-0.00173195
0.0100733
0.000583009
0.0110631
0.00446413
0.00891509
0.00179868
0.00160585
0.000741133
-0.000773696
-0.00147671
0.000277206
-0.000803973
-0.000723752
0.000128703
-0.000699156
-0.0010745
0.000153261
4.03637e-05
0.000376652
-0.000204004
-0.000700813
-0.000974634
-0.00110231
-0.000494649
-0.00138219
-0.000561271
-0.000728674
-0.000873326
-0.0010163
-0.00161258
-0.00123232
-0.00181629
-0.00179217
-0.0017185
-0.00152065
-0.00206984
-0.00188115
-0.00169713
-0.00241165
-0.00124401
-0.00219111
-0.00264762
-0.00224652
-0.0028516
-0.0026623
-0.00260017
-0.00253312
-0.00326996
-0.00147584
-0.00325153
-0.00335937
-0.00388505
-0.00314837
-0.00447988
-0.00526147
-0.00723011
-0.0176368
-0.0151821
-0.0103035
-0.00299845
-0.00366742
-0.0047352
-0.00160829
-0.00458544
-0.00292568
-0.00404915
-0.00143851
-0.00371126
0.0018766
-0.00639198
0.00378156
-0.0125756
0.00595996
-0.0480545
-0.00151304
0.000196375
-8.27216e-05
-4.88202e-05
-7.94071e-05
-8.80032e-05
-0.00010476
-0.000115809
-0.000127749
-0.00014303
-0.000153771
-0.0001579
-0.000178738
-0.000187287
-0.000181706
-0.000200659
-0.000200576
-0.000194512
-0.00019735
-0.000193962
-0.000175801
-0.000167282
-0.000153431
-0.000135612
-0.000113266
-8.61036e-05
-6.12244e-05
-3.81607e-05
-1.09391e-05
1.46087e-05
4.48101e-05
7.82652e-05
0.000105734
0.000126108
0.000148708
0.00020021
0.000237726
0.000301788
0.000377226
0.000553288
0.000801287
0.00152537
0.00294518
0.00629937
0.00900657
0.01138
0.00590712
0.0111517
0.00525581
0.00714816
0.00259268
0.00462466
0.00367402
0.00285757
0.00367117
0.00163803
0.000774083
-0.000160401
-0.000417175
0.000488076
0.000788706
-0.000928994
-0.00130093
-0.00209189
-0.00125777
-0.00118127
-0.000845944
-0.00096364
-0.000592764
-0.000709273
-0.000328801
-0.000816267
-0.000524306
-0.00106432
-0.00103679
-0.00104046
-0.00156177
-0.001567
-0.00151954
-0.00116244
-0.00211116
-0.0014015
-0.00186029
-0.00200759
-0.00186646
-0.00222022
-0.00225498
-0.00245212
-0.0024027
-0.00251825
-0.0027801
-0.00274752
-0.00312155
-0.00241488
-0.002693
-0.00348268
-0.00233805
-0.00385557
-0.00430426
-0.00699684
-0.0150576
-0.0153931
-0.00728106
-0.0128902
-0.00907142
-0.00996954
-0.00207861
-0.00420332
-0.00237355
-0.00122046
-0.00232791
-0.000370689
-0.00257402
0.00143684
-0.00410483
0.00205274
-0.0137797
0.00624521
-0.0456978
-0.00150861
0.000194948
-8.35759e-05
-4.94106e-05
-7.9652e-05
-8.82079e-05
-0.00010453
-0.000116709
-0.00012652
-0.000142425
-0.000154162
-0.000159517
-0.000177988
-0.000187658
-0.000185628
-0.000198943
-0.00020279
-0.000201783
-0.000196738
-0.000198785
-0.000184867
-0.000170894
-0.000162457
-0.000146988
-0.000130426
-0.000105999
-8.6878e-05
-6.94059e-05
-5.04406e-05
-3.20383e-05
-1.43633e-05
-9.2723e-07
-7.99471e-06
-2.97175e-05
-6.80938e-05
-0.000130671
-0.000210401
-0.000333058
-0.000531994
-0.000715261
-0.00125709
-0.00159736
-0.00401852
-0.00479949
-0.0136498
0.0145276
0.0067248
0.00923937
0.00224867
0.0062396
0.000874948
0.00192599
0.00103446
-0.000178034
-0.000391523
-0.000836936
-0.00129684
0.000909276
-0.00229573
0.000620854
-0.00158807
-0.00197913
-0.00137338
-0.0019934
-0.00100053
-0.00132953
-0.00103596
-0.00117658
-0.00109316
-0.000188887
-0.00113953
-0.00112683
-0.000695039
-0.00129624
-0.00123193
-0.00106742
-0.00176202
-0.00109532
-0.00163963
-0.00188689
-0.00164941
-0.00167063
-0.00174841
-0.00172886
-0.00199956
-0.00172289
-0.00214761
-0.00201244
-0.00229547
-0.00272489
-0.00209503
-0.00232669
-0.00192396
-0.00226608
-0.000356735
-0.00275534
-0.00257677
-0.00303432
-0.00890918
-0.0146108
-0.0118957
-0.0111545
-0.00977604
-0.00139395
-0.00253329
-0.00336059
-0.000722837
-0.00707819
-0.00195953
-0.00387286
-0.00356596
-0.00208343
-0.00349598
-0.00057695
-0.0034019
-0.000275594
-0.0137399
0.00609767
-0.041982
-0.00150343
0.000192899
-8.36941e-05
-4.95865e-05
-7.9277e-05
-8.84456e-05
-0.000104927
-0.000117502
-0.000126873
-0.000142312
-0.000155884
-0.000161901
-0.000177574
-0.000188567
-0.000190983
-0.000195559
-0.000206298
-0.000209038
-0.000197124
-0.000201606
-0.000197873
-0.000176793
-0.000171711
-0.000161707
-0.000151776
-0.000127155
-0.000108908
-9.91655e-05
-8.90152e-05
-8.76721e-05
-7.9703e-05
-8.2972e-05
-0.000116787
-0.0001784
-0.0002537
-0.000349227
-0.000552966
-0.000758466
-0.00119032
-0.0016453
-0.00246522
-0.00313602
-0.00476008
0.00059738
-0.0171986
0.0405941
0.0118576
0.00349637
-0.00920747
-0.000271854
-0.00764164
-0.00161627
-0.00276564
-0.0035406
-0.00255361
-0.00267782
-0.00195532
-0.00241064
-0.0028516
-0.00138621
-0.000673764
-0.000474607
-0.00127108
-0.000701466
-0.000836196
-0.000547905
-0.000630752
-0.000443417
-0.000782098
7.63571e-05
-0.000787572
-0.000869536
-0.000439213
-0.00109402
-0.00109001
-0.00121226
-0.00135033
-0.00144241
-0.00154086
-0.00188395
-0.0011559
-0.00121548
-0.00163843
-0.00155137
-0.00179669
-0.00177897
-0.00193368
-0.00186524
-0.0014997
-0.00212741
-0.00169244
-0.00232806
-0.0023113
-0.00232918
-0.00202652
-0.00595109
-0.00239981
-0.00734605
-0.00752128
-0.00972487
-2.11206e-05
-0.00466396
-0.00361907
-0.00685941
-0.0074998
-0.00184297
-0.0033675
-0.00314696
-0.000993742
-0.00202199
-0.00204935
-0.00139275
-0.00245654
-0.000608954
-0.002139
-0.00114765
-0.0131132
0.00558621
-0.0374352
-0.00149801
0.000191493
-8.41483e-05
-4.99436e-05
-8.01175e-05
-8.87069e-05
-0.000103382
-0.000117743
-0.000126985
-0.000141502
-0.000156685
-0.000163955
-0.000174226
-0.000188642
-0.000198238
-0.000192383
-0.000210549
-0.000213566
-0.000202451
-0.000205368
-0.000207603
-0.000186953
-0.000178595
-0.000178766
-0.00016866
-0.000157819
-0.00013493
-0.000128129
-0.00013162
-0.000129804
-0.000147406
-0.000152386
-0.000211143
-0.000271629
-0.00044252
-0.000612577
-0.000954237
-0.00140069
-0.00232957
-0.00346697
-0.00548085
-0.00736917
-0.012601
-0.0119136
-0.0296265
0.0405721
0.0392738
-0.0128511
-0.000248376
-0.00713971
-0.00858247
-0.00734181
-0.00629894
-0.00499373
-0.00477231
-0.00305847
-0.0023052
-0.00204819
-0.00117367
-0.00247151
-0.00243876
-0.00216338
-0.00203562
-0.00178423
-0.00160612
-0.00146472
-0.00132755
-0.00138558
-0.00121998
-0.000778529
-0.00113679
-0.00101107
-0.00100979
-0.00098604
-0.00128328
-0.00110512
-0.00107902
-0.00151139
-0.00157244
-0.00221899
-0.00107195
-0.00174544
-0.00123495
-0.000833963
-0.00135698
-0.000386655
-0.000894297
-0.00139743
-0.00214195
-0.00181433
-0.00151975
-0.0023231
-0.00186997
-0.00292914
-0.0018626
-0.00215099
-0.00122205
-0.00796964
0.000227161
0.00163419
-0.0146501
-0.00581274
-0.00519151
0.000276246
-0.00927004
0.00265452
-0.00454314
-0.00251868
-0.00404126
-0.00206282
-0.00307141
-0.00147347
-0.00275903
-0.00128683
-0.00232821
-0.00230344
-0.0118869
0.00515747
-0.0329197
-0.00149231
0.000189632
-8.44269e-05
-5.02914e-05
-7.98056e-05
-8.84175e-05
-0.000104047
-0.000117758
-0.000128665
-0.000140215
-0.00015736
-0.000167025
-0.00017377
-0.000190199
-0.000202532
-0.000191448
-0.000214782
-0.000217607
-0.00021144
-0.000208418
-0.000215631
-0.000208994
-0.000185079
-0.000191251
-0.000187787
-0.000183368
-0.000167931
-0.000156473
-0.000166587
-0.000172375
-0.000197447
-0.000218853
-0.000260612
-0.000353717
-0.000481325
-0.000681122
-0.0008928
-0.00123708
-0.00153719
-0.00200818
-0.00231285
-0.0042498
0.000536407
-0.0158511
0.0314311
0.0266379
-0.014707
0.00536351
-0.00645859
-0.0084805
-0.00505188
-0.00597986
-0.00227689
-0.00490259
-0.000911907
-0.00260591
0.000963806
-0.0030053
-0.000459058
-0.00131732
-0.000929674
-0.000563701
-0.000663372
-0.000627679
-0.000544817
-0.000696106
-0.000635149
-0.000817081
-0.000940682
-0.000696198
-0.000766287
-0.000707143
-0.00066866
-0.000434163
-0.000761156
-0.000636032
-0.000588018
-0.000939491
-0.000555591
-0.00168351
-0.000170386
-0.00135272
-0.00124943
-0.00151706
-0.00187436
-0.00151957
-0.000849397
-0.00232454
-0.00153307
-0.00371195
-0.000677265
-0.00381126
-0.00238799
-0.000858413
-0.001617
-0.00469414
0.000729072
0.00439445
-0.000968551
-0.000960513
-0.00037253
-0.000663948
-0.00515769
-0.00512957
-0.00312417
-0.00208691
-0.00420158
-0.00330414
-0.00288116
-0.00258745
-0.00302504
-0.001659
-0.00287917
-0.0014643
-0.00243809
-0.00265911
-0.010166
0.00430542
-0.0281074
-0.00148618
0.000188138
-8.4762e-05
-5.05649e-05
-7.97351e-05
-8.97682e-05
-0.000103382
-0.000117276
-0.000131153
-0.000138904
-0.000157653
-0.000170244
-0.000173998
-0.000189222
-0.000205428
-0.000196509
-0.000215536
-0.000224519
-0.000214325
-0.000219175
-0.000220218
-0.000222469
-0.000200127
-0.000205146
-0.000210366
-0.000209152
-0.000198996
-0.000183208
-0.000191585
-0.000212379
-0.000227964
-0.000267056
-0.000288572
-0.000371165
-0.000459877
-0.000579584
-0.000702138
-0.000752918
-0.000710412
-0.000447172
0.000183359
0.000734678
0.0054077
0.000757979
0.0708998
-0.0114148
0.00411758
-0.0122423
0.00171205
-0.00519981
0.00227433
-0.00936006
-0.0027209
-0.00559136
-0.00238093
-0.00402722
-0.00113907
-0.00404571
-0.000219249
-0.00359057
-0.00204243
-0.00208957
-0.00166396
-0.00140879
-0.00133128
-0.000995461
-0.000966302
-0.00089634
-0.000914791
-0.000414107
-0.000893182
-0.000640262
-0.001159
-0.000477423
-0.00128028
-0.00075842
-0.000709857
-0.0018563
-0.00150905
-0.00209886
-0.000227044
-0.00176441
-0.000243942
-0.00136585
-0.00120453
-0.00213053
-0.00156251
-0.00266129
-0.00145232
-0.000270331
0.00276145
-0.00217033
-0.00372668
-0.000302853
0.00374898
0.00503334
0.00125306
-0.000450708
0.000128906
-0.00119636
-0.00380691
-0.00347027
-0.00202857
-0.00390382
-0.0012672
-0.00225488
-0.00233327
-0.00270245
-0.00285213
-0.00192552
-0.00278642
-0.00114054
-0.00252025
-0.00125358
-0.0025741
-0.00262137
-0.00785484
0.00215288
-0.0240081
-0.00147976
0.000186569
-8.49628e-05
-5.07335e-05
-8.01521e-05
-8.98892e-05
-0.00010307
-0.000117178
-0.000132575
-0.000137863
-0.000157756
-0.000172761
-0.000175468
-0.000188399
-0.00020756
-0.00020574
-0.000212837
-0.000228505
-0.00022544
-0.000226364
-0.000229282
-0.000233034
-0.000228985
-0.000211671
-0.000230342
-0.000235761
-0.000234059
-0.000209298
-0.000220116
-0.000239229
-0.000251888
-0.000277189
-0.000295769
-0.000324743
-0.000330523
-0.000416501
-0.000408581
-0.000432257
-0.000479244
-0.000363346
-0.000641332
-0.000675659
-0.00213242
-0.00269399
0.0441347
-0.00509107
0.0103047
-0.00203489
0.00110813
0.00225022
0.00185617
0.00193596
0.00289301
0.00100407
0.00181903
0.00198531
-0.00209609
-0.0025526
-0.00252882
-0.00228923
-0.00138932
-0.00123481
-0.000896566
-0.000665468
-0.00106265
-0.000375203
-0.000988079
-0.00031433
-0.00103934
-0.000155972
-0.00112817
-0.000101071
-0.000910793
-0.000606769
-0.00106707
-0.000405089
-0.000631924
-0.00119847
-0.00128934
-0.000955221
-0.00238145
-0.00100671
-0.00280285
-0.00194988
-0.00156392
0.000788795
0.00150697
-0.0010672
-0.00436561
-0.00359053
0.000322166
0.0044718
0.00578361
0.00179759
0.00132838
-0.000546827
0.00239135
-0.000160202
-0.000233999
0.000458929
-4.44625e-05
-0.00136246
-0.00287787
-0.00376923
-0.000363916
-0.00370504
-0.0018027
-0.00314062
-0.00194856
-0.00198873
-0.00245799
-0.00105951
-0.00249943
-0.00126809
-0.00250234
-0.00229519
-0.00558383
0.000718343
-0.0200924
-0.00147307
0.000184989
-8.53683e-05
-5.12118e-05
-7.98749e-05
-9.00042e-05
-0.000103694
-0.0001163
-0.000133316
-0.000139461
-0.000156741
-0.000174215
-0.00017828
-0.000189141
-0.000207544
-0.000213931
-0.000215097
-0.000230909
-0.000238728
-0.000232476
-0.000241498
-0.000242769
-0.000249443
-0.000231654
-0.000245472
-0.000258989
-0.000261009
-0.000247139
-0.000239203
-0.000266831
-0.000278099
-0.000274969
-0.000292073
-0.000289588
-0.000291112
-0.00024202
-0.000233809
-0.000164024
-0.000183981
0.000200037
-0.00107806
0.00303112
-0.0119935
0.0296474
0.00584494
-0.000994397
-0.00275573
-0.00230151
0.000726437
0.00136106
0.000569713
0.000153358
-0.00108995
0.0029105
-0.00289396
-0.00173195
-0.00449998
0.000494576
-0.00246826
-0.00143499
-4.71264e-05
-0.0009662
-0.00112719
-0.000375996
-0.00128316
-0.000310013
-0.00102849
-8.83732e-05
-0.00140007
0.000309529
-0.00143056
-0.0010155
-0.000926824
-0.00166648
-0.00105441
-0.00234675
-0.000948162
-0.00266259
-0.00133027
-0.00146285
0.00151986
0.00212674
0.00150733
-0.000803657
-0.00429977
-0.00115449
0.000155313
0.00534188
0.00548717
0.00265984
0.000142004
0.000738933
0.00134188
0.0014214
0.00225737
3.43675e-05
0.00150706
0.000692796
3.90235e-05
-0.000551711
-0.000677208
-0.0008154
-0.000816272
-0.00237298
-0.00177353
-0.00246475
-0.00180331
-0.00248686
-0.00214945
-0.00184725
-0.00233054
-0.0009413
-0.00242306
-0.00109006
-0.00241383
-0.00184502
-0.00443711
7.60476e-05
-0.016915
-0.00146596
0.000183558
-8.5356e-05
-5.13915e-05
-7.95751e-05
-9.10042e-05
-0.000103576
-0.000115919
-0.000133635
-0.000142057
-0.000154609
-0.000174739
-0.000182615
-0.000191262
-0.0002077
-0.000220466
-0.000223054
-0.000228915
-0.000248055
-0.000246631
-0.00024847
-0.000258997
-0.00026514
-0.000261166
-0.000259545
-0.000274968
-0.000288722
-0.00029229
-0.000263325
-0.000282626
-0.000297641
-0.000290776
-0.000272205
-0.000232805
-0.000134921
-6.52821e-05
0.000162415
0.000401349
0.00092693
0.00140839
0.00147707
0.00506877
-0.00153792
0.0439155
-0.000446064
-0.000702809
-0.00087701
-0.000352029
-0.00145106
-0.00324685
0.00228929
-0.00199382
0.00848931
-0.00176318
0.00468126
-0.00508643
0.00594934
-0.00334662
0.0016885
-0.00118669
-0.000436878
-0.000372569
-0.000839407
0.000473921
-0.00192823
-0.000473179
-0.00175067
-0.000450068
-0.0019718
-0.000690772
-0.00182764
-0.00133138
-0.00214601
-0.00221
-0.00031676
0.000771076
0.00178377
0.000452878
-0.000842684
-0.00407318
-0.00234683
0.00106965
0.00172902
0.00577696
0.00446373
0.00201667
0.000368414
0.00103623
0.000720391
0.000168289
0.00174475
0.00123965
0.00173263
0.000576928
0.00220202
0.000772698
0.00080599
0.000720505
0.000761664
-0.00038125
0.000388081
-0.000778918
-0.000876044
-0.00210187
-0.00139898
-0.00213515
-0.00148544
-0.00191313
-0.00159539
-0.00149897
-0.0020156
-0.000770476
-0.00223662
-0.000959902
-0.00224587
-0.0015387
-0.00374615
-0.000171834
-0.0142934
-0.00145862
0.000182087
-8.53213e-05
-5.16456e-05
-7.99413e-05
-9.09043e-05
-0.000104127
-0.000114786
-0.000133661
-0.000144876
-0.000153789
-0.000174858
-0.000188034
-0.000192299
-0.000206496
-0.000226788
-0.000232129
-0.000230024
-0.000256495
-0.00026036
-0.000258972
-0.000272299
-0.000283617
-0.000286448
-0.000277062
-0.000297441
-0.000307979
-0.000324809
-0.000311893
-0.000293337
-0.000319871
-0.00031238
-0.000280645
-0.000245388
-0.000201396
-0.000129426
-7.4804e-05
5.48167e-05
0.000249644
0.00046677
0.000595708
0.00205899
-7.11e-06
0.0267474
-0.00342636
0.00391791
-0.00125628
0.000406953
-0.00109304
-0.000852859
-0.0011812
-0.00151612
-0.000745084
-0.00178414
-0.00218543
0.000658144
-0.00205761
-0.00141331
0.00317866
0.00092737
-7.84593e-05
-0.000779419
-0.000842084
-0.000680206
-0.00108597
-2.4062e-05
-0.00165871
-0.000924004
-0.00138265
-0.000227316
0.000974224
0.00132112
-0.00061363
-0.000907825
-0.00372124
0.000261205
0.00132349
0.00266592
0.00610801
0.00554236
0.00210131
0.000925036
0.00142107
0.00131143
0.0010663
0.00138932
0.0022698
0.00197219
0.00209557
0.000284496
0.00224309
0.000753593
0.00216054
0.00023447
0.00195153
0.000681788
0.000634982
0.000350021
0.000701272
-0.000471842
0.00010805
-0.000613343
-0.000833129
-0.00120065
-0.00163291
-0.00156123
-0.00151323
-0.00144819
-0.00178531
-0.00157593
-0.00195503
-0.000732048
-0.00213502
-0.000817578
-0.0021931
-0.00131768
-0.00332748
-0.000344409
-0.0119243
-0.0014508
0.000180692
-8.53569e-05
-5.18504e-05
-7.98133e-05
-9.0025e-05
-0.000105535
-0.000114599
-0.000132568
-0.000147643
-0.000154097
-0.000174192
-0.00019154
-0.000195372
-0.000205624
-0.00023118
-0.000240673
-0.000238747
-0.000259579
-0.000273413
-0.000274416
-0.00028581
-0.000302897
-0.00031098
-0.000301132
-0.000313384
-0.000336398
-0.000348422
-0.000360761
-0.000321972
-0.000339167
-0.000346301
-0.000327464
-0.000306758
-0.000260911
-0.000248959
-0.000136544
-0.000149135
2.27106e-05
-9.71712e-05
0.000312106
-0.00077509
-0.00146933
0.0294967
-0.00545529
0.00550111
-0.00192238
0.00158939
-0.000220365
0.000649251
-0.000218377
-0.000192734
-0.00124075
-9.14256e-05
6.07163e-05
0.00321304
-0.00366051
0.0040385
-0.0013402
0.00131578
-0.00372571
0.000427543
-0.00208843
0.000750441
0.000327243
0.00176728
-0.000281749
-0.000677649
-0.00391455
-0.00296207
0.00146214
0.00288059
0.00396696
0.00648224
0.0054686
0.0017919
0.00155745
0.00163688
0.00160586
0.00104757
0.00150242
0.00175606
0.00207289
0.00166316
0.0019578
0.000463873
0.00233798
0.00114105
0.00171898
0.00054844
0.00215629
0.000227921
0.00193503
0.000524914
0.00144235
0.000894503
0.000663106
0.000149837
0.000368868
-3.9841e-07
0.000600953
-0.000543258
-0.000577241
-0.000211578
-0.0014317
-0.00137545
-0.00158904
-0.00128577
-0.00172237
-0.00122029
-0.00158493
-0.000692817
-0.00174593
-0.000760335
-0.00195911
-0.00112706
-0.00313021
-0.000259157
-0.00983594
-0.00144271
0.000179269
-8.51162e-05
-5.19733e-05
-8.00224e-05
-8.93e-05
-0.000106107
-0.000114592
-0.000131886
-0.000149562
-0.000156186
-0.000172308
-0.000193344
-0.000202238
-0.000207238
-0.000234172
-0.000247102
-0.00025072
-0.000261824
-0.000284038
-0.000288764
-0.000303571
-0.000319417
-0.000335597
-0.000331883
-0.000329372
-0.000368156
-0.000380264
-0.000391702
-0.000388417
-0.00036088
-0.000388779
-0.000404636
-0.000396682
-0.000412047
-0.000386923
-0.000498439
-0.000666885
-0.000719054
-0.00217444
0.000213919
-0.0106532
0.0156121
0.0109669
-0.00119345
0.00211686
-0.000578415
0.000947028
-0.00075117
-0.000133601
0.000114293
5.39284e-05
0.00036123
0.000575718
-0.00589413
-0.00242252
-0.00101466
1.46091e-05
-0.00333083
0.00740806
-0.00424446
0.00449579
-0.00301944
-4.57421e-05
-0.00377077
0.00314474
0.00326806
0.00605716
0.00716972
0.00540881
0.00185806
0.00211624
0.00229793
0.00240623
0.00197968
0.00271178
0.00291949
0.00351692
0.00354498
0.00298055
0.00275625
0.00234797
0.00269607
0.00203504
0.00260892
0.00173003
0.00266259
0.00154629
0.00213364
0.000953056
0.00243561
0.000178138
0.00170574
0.00045608
0.00077885
0.000407026
0.000154631
-0.000105112
-0.000164055
-0.000345786
0.00064939
-0.000512118
-0.000593667
0.000314946
-0.00196163
-0.00107339
-0.00150657
-0.00114097
-0.00163068
-0.00130464
-0.0017093
-0.000668519
-0.00160623
-0.000878081
-0.00189471
-0.00114226
-0.00295597
-0.000119194
-0.00798724
-0.00143415
0.000177856
-8.48551e-05
-5.21953e-05
-7.99795e-05
-8.779e-05
-0.000106954
-0.000115781
-0.000130412
-0.000150407
-0.0001594
-0.000171133
-0.000194621
-0.000208063
-0.000212722
-0.000233445
-0.000253656
-0.000265032
-0.000269615
-0.000292605
-0.000306468
-0.000320519
-0.000339112
-0.000353597
-0.000366459
-0.000358388
-0.000384437
-0.000418682
-0.000429699
-0.000439984
-0.000432402
-0.000426942
-0.00046548
-0.00054123
-0.000537013