/*--------------------------------*- C++ -*----------------------------------*\
| =========                 |                                                 |
| \\      /  F ield         | OpenFOAM: The Open Source CFD Toolbox           |
|  \\    /   O peration     | Version:  2.2.x                                 |
|   \\  /    A nd           | Web:      www.OpenFOAM.org                      |
|    \\/     M anipulation  |                                                 |
\*---------------------------------------------------------------------------*/
FoamFile
{
    version     2.0;
    format      ascii;
    class       surfaceScalarField;
    location    "2.1";
    object      phi;
}
// * * * * * * * * * * * * * * * * * * * * * * * * * * * * * * * * * * * * * //

dimensions      [1 0 -1 0 0 0 0];

internalField   nonuniform List<scalar> 
28084
(
0.000746227
0.000742995
0.000740218
0.000737882
0.000735975
0.000734472
0.000733321
0.000732514
0.00073205
0.000731892
0.000731983
0.000732323
0.000732869
0.000733608
0.000734524
0.000735567
0.000736696
0.000737917
0.000739212
0.000740564
0.000741945
0.000743325
0.000744678
0.000745992
0.000747248
0.000748437
0.000749552
0.000750558
0.000751524
0.000752407
0.000753191
0.000753831
0.000754315
0.000754716
0.000755045
0.000755326
0.000755305
0.000755118
0.000754691
0.00075403
0.000753351
0.000752657
0.000751652
0.000750105
0.000718288
0.0007033
0.000726614
0.000759758
0.000793916
0.00082444
0.000852142
0.000879695
0.000905609
0.000932131
0.00095795
0.000982077
0.00100423
0.0010256
0.00104553
0.00106317
0.00107922
0.00109447
0.00110893
0.00112211
0.001134
0.0011443
0.0011534
0.0011616
0.00116886
0.00117543
0.00118084
0.00118527
0.00118908
0.00119234
0.00119496
0.00119724
0.00119893
0.00119924
0.00119839
0.0011975
0.00119561
0.00119327
0.00119076
0.00118714
0.00118259
0.00117747
0.00117247
0.00116716
0.00116141
0.00115563
0.00115001
0.0011441
0.00113854
0.00113402
0.00113053
0.00112717
0.00112655
0.0011272
0.00112785
0.00113008
0.00113176
0.00113235
0.00113483
0.00114078
0.00115222
0.00117378
0.00121531
0.00123174
0.00123025
0.00117613
0.00110431
0.00104279
0.000984354
0.000925634
0.000853504
0.000756974
0.000612444
0.000375951
3.7142e-06
3.23582e-06
0.000749754
2.77944e-06
0.000748798
2.33911e-06
0.000748283
1.90993e-06
0.000748181
1.50654e-06
0.000748453
1.15321e-06
0.000749086
8.09173e-07
0.000750108
4.69048e-07
0.000751466
1.61105e-07
0.000753079
-8.76573e-08
0.000754953
-3.35033e-07
0.000757106
-5.51899e-07
0.000759475
-7.41547e-07
0.000761992
-9.00078e-07
0.000764672
-1.03582e-06
0.000767488
-1.14778e-06
0.000770389
-1.23661e-06
0.000773338
-1.29773e-06
0.000776323
-1.34115e-06
0.000779349
-1.35681e-06
0.000782373
-1.35893e-06
0.000785376
-1.34463e-06
0.000788326
-1.31637e-06
0.000791194
-1.27051e-06
0.000793966
-1.22442e-06
0.000796626
-1.14036e-06
0.000799133
-1.04289e-06
0.000801538
-9.74026e-07
0.000803826
-8.66446e-07
0.000805927
-7.41559e-07
0.000807915
-6.32746e-07
0.000809759
-5.04592e-07
0.00081141
-3.87144e-07
0.000812845
-2.58249e-07
0.000814117
-9.86999e-08
0.000815305
2.20143e-08
0.000816386
1.68821e-07
0.000817132
3.3313e-07
0.000817615
4.52513e-07
0.000817845
6.30275e-07
0.000817761
7.8307e-07
0.000817687
8.95594e-07
0.000817469
1.54422e-06
0.000817028
3.10301e-05
0.000816209
1.47e-05
0.000834869
-2.44704e-05
0.000866315
-3.46769e-05
0.000889669
-3.47715e-05
0.000914066
-3.11849e-05
0.000938173
-2.69473e-05
0.00096409
-2.69549e-05
0.000990649
-2.56254e-05
0.00101639
-2.55067e-05
0.0010406
-2.48634e-05
0.00106416
-2.31335e-05
0.00108603
-2.1561e-05
0.00110691
-2.05944e-05
0.00112612
-1.90955e-05
0.00114436
-1.73293e-05
0.00116123
-1.59707e-05
0.0011765
-1.48961e-05
0.00119035
-1.38701e-05
0.00120296
-1.27833e-05
0.0012145
-1.16459e-05
0.00122458
-1.05866e-05
0.0012339
-9.63961e-06
0.00124259
-8.64958e-06
0.00125008
-7.65906e-06
0.00125676
-6.61691e-06
0.00126258
-5.31463e-06
0.00126763
-4.30372e-06
0.00127161
-3.66252e-06
0.00127509
-2.97217e-06
0.001278
-2.1655e-06
0.00128033
-1.80294e-06
0.00128216
-1.07777e-06
0.0012835
4.41064e-08
0.00128454
1.05553e-06
0.00128443
1.15102e-06
0.00128322
2.17811e-06
0.0012815
2.70055e-06
0.00127885
2.73752e-06
0.0012758
3.8886e-06
0.00127232
4.80639e-06
0.00126793
5.21888e-06
0.0012627
4.75517e-06
0.00125704
5.09482e-06
0.00125106
5.53919e-06
0.00124473
5.64789e-06
0.00123799
5.56549e-06
0.00123128
5.81448e-06
0.00122467
5.44202e-06
0.00121813
4.15484e-06
0.00121224
3.913e-06
0.00120687
4.41636e-06
0.00120167
1.25646e-06
0.00119739
7.63774e-08
0.00119597
-3.64081e-07
0.00119534
-2.51411e-06
0.00119547
-1.68449e-06
0.00119623
-1.67353e-06
0.00119594
-3.63069e-06
0.00119346
-7.05587e-06
0.00119287
-1.18465e-05
0.00119681
-2.16041e-05
0.00120638
-4.10754e-05
0.00122888
-1.40429e-05
0.00124417
2.78444e-06
0.00115564
5.44424e-05
0.000998986
7.21557e-05
0.000854486
6.21171e-05
0.00074824
5.80635e-05
0.000672133
5.7965e-05
0.000605615
7.17323e-05
0.000546782
9.69886e-05
0.000486118
0.000145591
0.000414339
0.000237272
0.000320174
0.000375614
0.000218683
5.103e-06
4.19383e-06
0.00075444
3.29742e-06
0.000755739
2.44494e-06
0.000757434
1.64165e-06
0.000759515
8.77015e-07
0.000761982
1.31827e-07
0.000764807
-5.46676e-07
0.000767916
-1.14051e-06
0.000771313
-1.70932e-06
0.000775036
-2.23637e-06
0.000779009
-2.69565e-06
0.000783146
-3.06956e-06
0.000787451
-3.42262e-06
0.000791952
-3.70514e-06
0.00079657
-3.93355e-06
0.000801246
-4.11257e-06
0.000805975
-4.23094e-06
0.000810737
-4.33159e-06
0.000815494
-4.35431e-06
0.000820214
-4.3339e-06
0.000824894
-4.28677e-06
0.000829501
-4.20299e-06
0.000834005
-4.09209e-06
0.000838374
-3.94479e-06
0.000842592
-3.78109e-06
0.000846639
-3.5529e-06
0.0008505
-3.34707e-06
0.000854185
-3.09025e-06
0.000857641
-2.83949e-06
0.000860941
-2.55877e-06
0.000864043
-2.26685e-06
0.000866936
-1.9614e-06
0.000869583
-1.65022e-06
0.000871961
-1.34949e-06
0.000874131
-1.01219e-06
0.00087612
-6.94418e-07
0.000877968
-3.42565e-07
0.000879438
2.75853e-08
0.00088053
3.85264e-07
0.000881333
6.54046e-07
0.000882069
1.0002e-06
0.000882653
1.23843e-06
0.000882737
2.33693e-06
0.000882421
1.23892e-05
0.000882351
-1.69702e-05
0.000879438
-4.86545e-05
0.000919804
-6.12066e-05
0.000944937
-6.04797e-05
0.000972589
-5.78595e-05
0.000998385
-5.32933e-05
0.00102565
-5.24491e-05
0.00105193
-4.98742e-05
0.00107664
-4.91994e-05
0.00109875
-4.73188e-05
0.00111991
-4.42696e-05
0.00114084
-4.10757e-05
0.00116004
-3.85013e-05
0.00117882
-3.57076e-05
0.00119693
-3.25957e-05
0.00121365
-2.99438e-05
0.00122833
-2.78285e-05
0.00124213
-2.59902e-05
0.00125526
-2.39643e-05
0.00126659
-2.18943e-05
0.00127698
-1.99326e-05
0.00128669
-1.80265e-05
0.00129554
-1.59953e-05
0.00130354
-1.40045e-05
0.00131026
-1.18336e-05
0.00131557
-9.43257e-06
0.00131949
-7.72631e-06
0.00132209
-6.38627e-06
0.0013236
-4.98137e-06
0.00132415
-3.44209e-06
0.00132413
-2.44919e-06
0.00132355
-1.21374e-06
0.00132265
7.78112e-07
0.00132176
2.67221e-06
0.00132007
3.23076e-06
0.00131757
5.2363e-06
0.00131428
6.37847e-06
0.00131054
6.85189e-06
0.00130618
8.81681e-06
0.0013012
1.04458e-05
0.00129542
1.10493e-05
0.00128886
1.04706e-05
0.00128158
1.11982e-05
0.00127368
1.19655e-05
0.0012657
1.21345e-05
0.00125723
1.20099e-05
0.00124882
1.22161e-05
0.00124064
1.126e-05
0.00123253
9.45507e-06
0.00122493
9.34352e-06
0.00121744
9.43574e-06
0.00121063
3.30877e-06
0.00120533
1.35795e-06
0.00120213
-2.69533e-07
0.00119972
-3.15992e-06
0.00119806
-1.65327e-06
0.00119706
-3.45514e-07
0.00119622
-4.12339e-06
0.00119184
-1.21155e-05
0.0011903
-2.22186e-05
0.00119275
-4.44012e-05
0.00120448
-5.55525e-05
0.00121528
7.72056e-05
0.001089
0.000160937
0.00089532
0.000199576
0.000697072
0.000178365
0.000553163
0.000137799
0.000442521
0.000124122
0.000357865
0.000116519
0.000288826
0.000132307
0.000237513
0.000169072
0.000195354
0.000240514
0.000161206
0.000339149
0.00012347
0.000593737
8.48117e-05
4.22001e-06
2.89732e-06
0.00076032
1.60699e-06
0.000763833
3.67009e-07
0.000767731
-8.2273e-07
0.000771991
-1.94444e-06
0.000776572
-2.9746e-06
0.000781467
-3.94115e-06
0.000786713
-4.85969e-06
0.000792243
-5.67777e-06
0.000797969
-6.37127e-06
0.000803903
-6.9966e-06
0.000810071
-7.57137e-06
0.000816398
-8.03967e-06
0.000822793
-8.3738e-06
0.000829259
-8.66119e-06
0.000835813
-8.87846e-06
0.000842381
-8.99537e-06
0.00084891
-9.05546e-06
0.00085539
-9.02779e-06
0.000861805
-8.9205e-06
0.000868118
-8.76889e-06
0.000874307
-8.56201e-06
0.000880342
-8.31071e-06
0.000886191
-8.00866e-06
0.000891834
-7.67908e-06
0.000897251
-7.26438e-06
0.00090241
-6.84147e-06
0.000907354
-6.39806e-06
0.000912026
-5.92522e-06
0.000916473
-5.42938e-06
0.000920663
-4.89809e-06
0.000924577
-4.36502e-06
0.0009282
-3.80757e-06
0.00093151
-3.24958e-06
0.000934561
-2.68597e-06
0.000937385
-2.09111e-06
0.000940052
-1.53569e-06
0.000942249
-9.43321e-07
0.00094401
-3.87918e-07
0.000945391
1.99569e-07
0.000946516
8.24386e-07
0.000947731
1.37754e-06
0.000948449
2.17109e-06
0.000948821
1.31128e-05
0.000949488
-5.89519e-05
0.000974548
-7.15623e-05
0.00101481
-8.5875e-05
0.00103339
-8.38629e-05
0.00104757
-8.27107e-05
0.00106803
-7.83633e-05
0.00109157
-7.59876e-05
0.00111685
-7.2692e-05
0.00114344
-7.14051e-05
0.00117095
-6.93544e-05
0.0011965
-6.41892e-05
0.00121991
-6.01866e-05
0.00124123
-5.62074e-05
0.00125839
-5.19885e-05
0.0012729
-4.74199e-05
0.00128746
-4.33191e-05
0.00129992
-4.04907e-05
0.00131125
-3.73888e-05
0.00132254
-3.42323e-05
0.00133415
-3.10925e-05
0.00134418
-2.81292e-05
0.00135251
-2.53184e-05
0.00136002
-2.23638e-05
0.00136608
-1.9254e-05
0.00137041
-1.61514e-05
0.00137373
-1.26242e-05
0.00137605
-9.96507e-06
0.00137754
-7.94511e-06
0.00137811
-5.8627e-06
0.00137808
-3.39238e-06
0.00137752
-1.79686e-06
0.00137627
-8.82156e-08
0.00137457
2.67256e-06
0.00137313
5.43062e-06
0.00137088
6.85047e-06
0.00136768
9.40692e-06
0.00136364
1.12759e-05
0.00135932
1.23076e-05
0.00135436
1.46697e-05
0.00134856
1.69415e-05
0.00134174
1.78727e-05
0.00133396
1.75156e-05
0.00132528
1.84276e-05
0.00131629
1.96026e-05
0.00130742
1.97479e-05
0.00129797
1.95275e-05
0.00128858
1.9731e-05
0.0012794
1.83804e-05
0.00127024
1.67738e-05
0.00126164
1.60894e-05
0.00125344
1.51219e-05
0.00124625
6.73623e-06
0.00123965
3.9864e-06
0.00123576
1.19036e-06
0.0012329
-1.94636e-06
0.00122988
-1.50882e-06
0.00122795
2.2054e-06
0.00122518
-3.35708e-06
0.00121928
-1.54835e-05
0.00121585
-3.4765e-05
0.00121947
-5.41585e-05
0.00122789
7.18761e-05
0.00107912
0.00027143
0.000842433
0.000358799
0.000687145
0.000343556
0.000582009
0.000289395
0.000483928
0.000222017
0.000378565
0.000192932
0.000274634
0.000167856
0.00020057
0.000174643
0.000150561
0.000203724
0.000104781
0.000278781
7.52921e-05
0.000377926
5.35556e-05
0.000678061
3.63733e-05
1.08341e-06
-6.13404e-07
0.000767367
-2.28852e-06
0.000773068
-3.88925e-06
0.000779102
-5.40072e-06
0.000785471
-6.83553e-06
0.000792194
-8.21789e-06
0.000799231
-9.46846e-06
0.000806498
-1.05824e-05
0.000814005
-1.16066e-05
0.000821791
-1.25354e-05
0.000829775
-1.33196e-05
0.000837867
-1.39644e-05
0.000846064
-1.45051e-05
0.000854398
-1.49237e-05
0.000862784
-1.52248e-05
0.000871148
-1.54163e-05
0.000879488
-1.54849e-05
0.00088777
-1.547e-05
0.000895951
-1.53325e-05
0.000904024
-1.50906e-05
0.000911947
-1.47809e-05
0.000919699
-1.43973e-05
0.000927252
-1.39555e-05
0.000934563
-1.3444e-05
0.000941611
-1.28811e-05
0.000948382
-1.22335e-05
0.000954834
-1.15402e-05
0.00096102
-1.08494e-05
0.000966896
-1.01002e-05
0.000972447
-9.31646e-06
0.000977697
-8.50655e-06
0.000982638
-7.68932e-06
0.00098725
-6.83885e-06
0.000991471
-5.9922e-06
0.000995351
-5.15165e-06
0.000998984
-4.24209e-06
0.00100238
-3.38164e-06
0.00100525
-2.51614e-06
0.00100767
-1.65078e-06
0.00100975
-8.41908e-07
0.00101168
1.13069e-08
0.00101336
8.26058e-07
0.00101444
1.37463e-06
0.0010153
-9.59496e-06
0.00101641
-9.66044e-05
0.00103946
-9.04543e-05
0.0010601
-0.000100084
0.0010755
-0.000104694
0.00109075
-0.00010741
0.00111223
-0.000104866
0.00113567
-0.000103208
0.00115932
-9.99836e-05
0.00118277
-9.56307e-05
0.00120492
-9.14099e-05
0.00122611
-8.45954e-05
0.00124645
-7.87107e-05
0.00126597
-7.23899e-05
0.00128572
-6.68136e-05
0.00130331
-6.06604e-05
0.00131901
-5.51341e-05
0.00133144
-5.13583e-05
0.00134174
-4.69718e-05
0.00135223
-4.25388e-05
0.00136143
-3.81005e-05
0.00136859
-3.42474e-05
0.00137529
-3.07044e-05
0.00138178
-2.69344e-05
0.00138822
-2.30399e-05
0.0013932
-1.92006e-05
0.00139696
-1.46756e-05
0.00139931
-1.09685e-05
0.00140066
-8.43471e-06
0.00140039
-5.6651e-06
0.00139965
-2.37725e-06
0.00139824
-1.49101e-07
0.00139596
1.70278e-06
0.00139299
5.12789e-06
0.00139063
8.96261e-06
0.00138722
1.1317e-05
0.00138343
1.43365e-05
0.00137905
1.70647e-05
0.00137488
1.87206e-05
0.00137017
2.14905e-05
0.0013644
2.4584e-05
0.00135856
2.59244e-05
0.0013506
2.5649e-05
0.00134196
2.66452e-05
0.00133295
2.82457e-05
0.00132458
2.82603e-05
0.0013154
2.78715e-05
0.00130585
2.81024e-05
0.00129631
2.63771e-05
0.00128669
2.48117e-05
0.00127759
2.33095e-05
0.00126877
2.21618e-05
0.00126142
1.05945e-05
0.00125443
7.03742e-06
0.00125012
3.92892e-06
0.00124679
-4.912e-07
0.00124426
2.64657e-07
0.00124069
7.05197e-06
0.0012358
-7.04975e-07
0.00122792
-1.97339e-05
0.00122762
-4.32049e-05
0.00121733
9.58234e-05
0.00106091
0.000308516
0.000785425
0.000427625
0.000603107
0.00046416
0.000498593
0.000441906
0.000440285
0.000395249
0.000397643
0.000325933
0.000347788
0.000267081
0.000280216
0.000218161
0.000201084
0.000220859
0.000135988
0.000233729
8.91184e-05
0.000301141
5.73007e-05
0.000395859
3.7205e-05
0.00071464
2.16715e-05
-4.25712e-06
-6.31096e-06
0.00077561
-8.31861e-06
0.000783446
-1.02558e-05
0.000791618
-1.21206e-05
0.000800102
-1.38686e-05
0.000808862
-1.5482e-05
0.00081789
-1.69726e-05
0.000827228
-1.83646e-05
0.000836804
-1.95847e-05
0.00084653
-2.0623e-05
0.000856411
-2.15149e-05
0.000866471
-2.22959e-05
0.000876634
-2.28879e-05
0.000886805
-2.3289e-05
0.000896983
-2.35608e-05
0.000907163
-2.37021e-05
0.000917282
-2.36805e-05
0.000927295
-2.3536e-05
0.000937152
-2.32514e-05
0.000946858
-2.28268e-05
0.00095636
-2.23096e-05
0.00096564
-2.16965e-05
0.000974672
-2.10016e-05
0.000983415
-2.0229e-05
0.000991848
-1.93812e-05
0.000999948
-1.84491e-05
0.00100767
-1.74392e-05
0.00101508
-1.64156e-05
0.00102212
-1.53444e-05
0.00102878
-1.42335e-05
0.00103508
-1.30987e-05
0.00104102
-1.19258e-05
0.00104656
-1.07206e-05
0.00105169
-9.53909e-06
0.00105644
-8.32245e-06
0.00106086
-7.1063e-06
0.00106502
-5.90127e-06
0.00106858
-4.72108e-06
0.00107163
-3.51808e-06
0.00107408
-2.30224e-06
0.0010764
-1.15784e-06
0.00107858
-1.59832e-07
0.00108025
2.55094e-07
0.00108097
-3.45772e-05
0.00108054
-0.000119086
0.00103807
-0.000105076
0.0010064
-0.000113553
0.00102222
-0.000124737
0.00105673
-0.000130194
0.00109584
-0.000127771
0.00113523
-0.000126261
0.00117139
-0.000123148
0.00120541
-0.000118476
0.00123734
-0.000113411
0.00126656
-0.000105455
0.00129492
-9.69263e-05
0.00132321
-8.80587e-05
0.00134553
-8.09376e-05
0.00136603
-7.27849e-05
0.0013808
-6.6092e-05
0.0013963
-6.16646e-05
0.00141074
-5.54549e-05
0.00142043
-4.99471e-05
0.0014271
-4.50332e-05
0.0014345
-4.03811e-05
0.00144147
-3.62628e-05
0.00144729
-3.14572e-05
0.0014522
-2.66322e-05
0.00145602
-2.17467e-05
0.00145877
-1.61775e-05
0.00145995
-1.0826e-05
0.00146022
-8.04191e-06
0.00145992
-4.55837e-06
0.00145811
-4.41319e-07
0.00145543
2.66179e-06
0.00145231
4.05708e-06
0.00144846
8.15328e-06
0.00144415
1.2734e-05
0.00144002
1.61835e-05
0.00143548
1.9146e-05
0.00142966
2.25925e-05
0.00142342
2.49355e-05
0.00141657
2.74712e-05
0.00140841
3.21718e-05
0.0013998
3.40657e-05
0.00139018
3.4287e-05
0.00138004
3.50042e-05
0.00136947
3.70317e-05
0.00135927
3.71073e-05
0.00134868
3.65938e-05
0.00133814
3.68579e-05
0.00132776
3.49221e-05
0.00131753
3.35034e-05
0.00130753
3.10335e-05
0.00129779
3.02439e-05
0.00128954
1.53624e-05
0.00128324
1.08349e-05
0.00127741
6.82979e-06
0.001272
3.40543e-06
0.00126911
4.5935e-06
0.00126384
1.36285e-05
0.00125555
-1.11629e-06
0.00124989
-8.96972e-06
0.00124703
0.000113631
0.00111197
0.000372127
0.00085379
0.000490589
0.000684331
0.00053279
0.000543728
0.000522941
0.000436532
0.000484793
0.000373726
0.000445377
0.000339183
0.000393428
0.000302973
0.000346229
0.000259345
0.000283765
0.000204842
0.000268256
0.000149761
0.000266069
0.000103962
0.000321891
7.04602e-05
0.00041229
4.27366e-05
0.000737209
2.28219e-05
-1.17716e-05
-1.41447e-05
0.000785034
-1.64867e-05
0.000794973
-1.8737e-05
0.000805204
-2.0877e-05
0.000815728
-2.28928e-05
0.000826541
-2.48173e-05
0.000837625
-2.65462e-05
0.000848916
-2.80883e-05
0.000860404
-2.94597e-05
0.000872111
-3.06796e-05
0.000883969
-3.16755e-05
0.000895893
-3.24618e-05
0.000907863
-3.30612e-05
0.000919897
-3.34718e-05
0.000931914
-3.3669e-05
0.000943832
-3.37054e-05
0.000955674
-3.3556e-05
0.000967378
-3.32366e-05
0.00097888
-3.27514e-05
0.00099019
-3.21006e-05
0.00100125
-3.13249e-05
0.00101204
-3.04229e-05
0.00102253
-2.94307e-05
0.00103269
-2.83391e-05
0.00104248
-2.71518e-05
0.00105188
-2.58822e-05
0.00106088
-2.45029e-05
0.00106945
-2.30915e-05
0.00107765
-2.16472e-05
0.00108542
-2.01544e-05
0.00109274
-1.86207e-05
0.00109966
-1.70646e-05
0.00110614
-1.54692e-05
0.00111213
-1.38683e-05
0.00111771
-1.2239e-05
0.00112292
-1.06438e-05
0.00112783
-9.01764e-06
0.00113208
-7.44438e-06
0.00113587
-5.87527e-06
0.00113909
-4.26781e-06
0.00114179
-2.54881e-06
0.00114434
-7.78164e-07
0.00114685
6.2588e-07
0.00114925
6.55638e-06
0.00115117
-8.8682e-05
0.0011557
-0.000121042
0.00113215
-0.000147538
0.0011346
-0.000163386
0.0011607
-0.000169962
0.00119601
-0.000165018
0.00123442
-0.000161008
0.0012691
-0.000154984
0.00130287
-0.000148271
0.00133439
-0.000141316
0.0013628
-0.000133674
0.00139167
-0.000120006
0.00141809
-0.000110721
0.00144351
-9.65439e-05
0.00146531
-8.62885e-05
0.00148444
-7.87428e-05
0.00149829
-7.34362e-05
0.00150977
-6.64891e-05
0.00151979
-5.90365e-05
0.00152635
-5.24804e-05
0.0015345
-4.62947e-05
0.00153898
-4.0944e-05
0.00154231
-3.50501e-05
0.00154563
-2.93945e-05
0.001549
-2.35625e-05
0.00155145
-1.69246e-05
0.00155164
-1.08627e-05
0.00155204
-6.5532e-06
0.00155147
-2.30138e-06
0.00154858
2.20901e-06
0.00154477
6.15465e-06
0.00153966
8.7176e-06
0.00153378
1.21095e-05
0.00152726
1.71342e-05
0.00151967
2.22146e-05
0.00151242
2.55848e-05
0.00150457
2.98845e-05
0.00149557
3.2971e-05
0.00148604
3.68494e-05
0.00147557
4.18139e-05
0.00146484
4.40368e-05
0.00145336
4.46108e-05
0.00144091
4.4864e-05
0.00142808
4.70176e-05
0.00141601
4.70773e-05
0.00140336
4.64279e-05
0.00139025
4.65203e-05
0.00137748
4.4441e-05
0.00136513
4.28502e-05
0.00135332
4.00614e-05
0.00134265
3.82636e-05
0.00133029
2.21897e-05
0.00132122
1.67521e-05
0.00131423
9.00145e-06
0.0013077
9.12938e-06
0.00130239
1.31005e-05
0.00129547
1.82138e-05
0.00128534
2.35022e-06
0.00128122
0.000126862
0.00114906
0.000372098
0.000873354
0.000541449
0.000657219
0.000631179
0.000557187
0.000640526
0.000482137
0.000586278
0.000419919
0.000519648
0.000364421
0.000481752
0.00032294
0.000436999
0.000288422
0.000400675
0.000252837
0.000339264
0.000210696
0.000314521
0.000163334
0.000300188
0.000118479
0.000350308
8.15969e-05
0.000433138
4.77041e-05
0.000760993
2.33478e-05
-2.14047e-05
-2.40805e-05
0.000795661
-2.6714e-05
0.000807644
-2.92576e-05
0.000819904
-3.16865e-05
0.000832435
-3.39737e-05
0.000845233
-3.61055e-05
0.000858277
-3.80302e-05
0.000871517
-3.97909e-05
0.000884967
-4.13106e-05
0.000898552
-4.25961e-05
0.000912251
-4.36469e-05
0.000926048
-4.44882e-05
0.00093988
-4.50682e-05
0.000953688
-4.54041e-05
0.000967457
-4.55036e-05
0.000981111
-4.54034e-05
0.000994645
-4.50811e-05
0.001008
-4.45372e-05
0.00102112
-4.38064e-05
0.001034
-4.28838e-05
0.00104659
-4.17956e-05
0.00105884
-4.05631e-05
0.00107075
-3.92143e-05
0.00108229
-3.77524e-05
0.0010934
-3.61746e-05
0.00110408
-3.4497e-05
0.00111431
-3.27228e-05
0.00112408
-3.08736e-05
0.00113338
-2.89805e-05
0.00114221
-2.70614e-05
0.00115058
-2.50885e-05
0.00115844
-2.30818e-05
0.00116582
-2.1046e-05
0.00117265
-1.90036e-05
0.00117904
-1.69418e-05
0.00118499
-1.48536e-05
0.00119062
-1.28258e-05
0.00119563
-1.07738e-05
0.00120001
-8.7364e-06
0.0012039
-6.84048e-06
0.00120724
-4.83187e-06
0.0012099
-2.86434e-06
0.00121171
-1.112e-06
0.00121333
9.47101e-07
0.00121454
-6.67572e-05
0.00119413
-0.000123772
0.0011398
-0.000173173
0.00114278
-0.000198035
0.00117638
-0.00020866
0.00122383
-0.000200783
0.0012747
-0.00019544
0.00131972
-0.00018755
0.00136466
-0.000176761
0.00140622
-0.000170416
0.00144311
-0.000159962
0.00148291
-0.000145491
0.00152089
-0.000132929
0.00155571
-0.000114719
0.00158319
-9.86452e-05
0.00160919
-8.94677e-05
0.00162519
-8.44899e-05
0.00163888
-7.52642e-05
0.00165307
-6.75346e-05
0.00166215
-5.91376e-05
0.00167174
-5.15683e-05
0.00167899
-4.50925e-05
0.00168563
-3.8603e-05
0.00169182
-3.17295e-05
0.00169695
-2.44977e-05
0.00170136
-1.79409e-05
0.00170204
-1.09763e-05
0.00170347
-4.28537e-06
0.00170379
9.19847e-07
0.00170231
6.52298e-06
0.00169862
1.13191e-05
0.00169253
1.53216e-05
0.00168472
1.89207e-05
0.00167482
2.36985e-05
0.00166339
2.99515e-05
0.00165165
3.47018e-05
0.00163893
3.92194e-05
0.00162511
4.33014e-05
0.00161015
4.78856e-05
0.00159459
5.3317e-05
0.00157807
5.65008e-05
0.00156142
5.72763e-05
0.00154479
5.71176e-05
0.00152785
5.93151e-05
0.00151068
5.9311e-05
0.00149347
5.8434e-05
0.0014765
5.81882e-05
0.00145959
5.57374e-05
0.00144344
5.31523e-05
0.00142771
5.27363e-05
0.0014129
4.82362e-05
0.00139756
2.97402e-05
0.0013861
2.35543e-05
0.00137475
1.4202e-05
0.00136664
1.60775e-05
0.00135491
2.31205e-05
0.00134651
2.20464e-05
0.00134368
0.000134948
0.00123223
0.000402202
0.000962055
0.000587384
0.000769544
0.000641076
0.000634143
0.000706066
0.000519083
0.000702995
0.000447694
0.000642206
0.000396345
0.000561569
0.000351736
0.00051643
0.000312509
0.00047249
0.00028038
0.000442739
0.00024817
0.000386865
0.000212063
0.000359857
0.00016997
0.000337674
0.000125866
0.000384842
8.83569e-05
0.000458282
5.0763e-05
0.000785157
2.59592e-05
-3.31139e-05
-3.60603e-05
0.000807493
-3.89706e-05
0.000821473
-4.17844e-05
0.000835713
-4.44811e-05
0.000850206
-4.70144e-05
0.000864922
-4.93428e-05
0.000879849
-5.14761e-05
0.00089501
-5.33747e-05
0.000910348
-5.50011e-05
0.000925789
-5.63842e-05
0.000941341
-5.74852e-05
0.000956939
-5.82903e-05
0.000972536
-5.88278e-05
0.000988114
-5.90749e-05
0.00100362
-5.90293e-05
0.00101895
-5.87482e-05
0.00103414
-5.82121e-05
0.00104911
-5.74118e-05
0.00106381
-5.63872e-05
0.00107821
-5.51449e-05
0.00109228
-5.36977e-05
0.00110598
-5.2078e-05
0.00111929
-5.03236e-05
0.00113217
-4.84377e-05
0.00114458
-4.64227e-05
0.00115652
-4.42889e-05
0.00116794
-4.20496e-05
0.00117885
-3.97153e-05
0.00118924
-3.73467e-05
0.00119913
-3.49217e-05
0.00120848
-3.2461e-05
0.0012173
-2.9958e-05
0.00122556
-2.74349e-05
0.00123324
-2.49021e-05
0.00124042
-2.23554e-05
0.0012471
-1.97719e-05
0.00125331
-1.72316e-05
0.00125897
-1.46693e-05
0.00126399
-1.21088e-05
0.00126859
-9.58818e-06
0.0012726
-6.96062e-06
0.00127595
-4.33827e-06
0.00127868
-1.81386e-06
0.00128118
2.00665e-05
0.00128271
-1.46881e-05
0.00126269
-0.000126738
0.00119547
-0.000206475
0.00121633
-0.000245299
0.0012788
-0.000258601
0.00135001
-0.000245844
0.00142912
-0.000240743
0.00150197
-0.000229933
0.00157024
-0.000214602
0.00162596
-0.000210963
0.00167945
-0.000197216
0.00172235
-0.000178972
0.00175685
-0.000161951
0.00178782
-0.00014055
0.00180689
-0.000113783
0.00182474
-0.000101052
0.00183844
-9.70606e-05
0.00184796
-8.52854e-05
0.00185554
-7.80574e-05
0.00186238
-6.85977e-05
0.00186751
-5.92155e-05
0.00186985
-5.1945e-05
0.00187429
-4.40736e-05
0.00187678
-3.57568e-05
0.00187755
-2.45367e-05
0.00187787
-1.88691e-05
0.00187689
-1.06845e-05
0.00187425
-2.09793e-06
0.00187146
4.92789e-06
0.00186757
1.22156e-05
0.00186094
1.86189e-05
0.00185244
2.48203e-05
0.00184241
2.88705e-05
0.00183031
3.44839e-05
0.00181808
4.19454e-05
0.00180336
4.77732e-05
0.00178629
5.34759e-05
0.001769
5.83635e-05
0.00175221
6.42327e-05
0.00173427
7.01062e-05
0.0017143
7.29925e-05
0.00169448
7.40769e-05
0.00167456
7.43245e-05
0.00165466
7.62218e-05
0.00163404
7.57361e-05
0.00161323
7.47552e-05
0.00159341
7.38019e-05
0.00157371
7.08404e-05
0.00155462
6.737e-05
0.00153602
6.80457e-05
0.00151784
5.99301e-05
0.00149945
4.13674e-05
0.00148215
3.22275e-05
0.00146728
2.58666e-05
0.00145486
2.42774e-05
0.0014423
2.60227e-05
0.00143435
0.000133924
0.00132045
0.000406092
0.00105683
0.000595565
0.000788588
0.000722468
0.000638088
0.000755541
0.00055431
0.000777122
0.000478646
0.000754454
0.000425388
0.000687307
0.000384334
0.000601384
0.00034499
0.000548721
0.000305263
0.000504497
0.000270673
0.000478735
0.000238475
0.000429133
0.000203992
0.000404557
0.000164842
0.000375776
0.000124202
0.000422988
9.07525e-05
0.000483644
5.13842e-05
0.000811597
2.67614e-05
-4.68413e-05
-5.00366e-05
0.000820542
-5.32073e-05
0.000836464
-5.62743e-05
0.000852614
-5.91933e-05
0.000868997
-6.19386e-05
0.000885613
-6.45005e-05
0.000902446
-6.68086e-05
0.000919427
-6.88132e-05
0.000936544
-7.05454e-05
0.000953814
-7.19771e-05
0.000971172
-7.30874e-05
0.000988537
-7.38596e-05
0.00100587
-7.43109e-05
0.00102315
-7.44315e-05
0.00104033
-7.4215e-05
0.00105732
-7.37099e-05
0.00107411
-7.2916e-05
0.00109065
-7.18222e-05
0.00110689
-7.04477e-05
0.00112278
-6.88458e-05
0.0011383
-6.69969e-05
0.0011534
-6.49407e-05
0.00116805
-6.27288e-05
0.00118224
-6.03716e-05
0.00119592
-5.78612e-05
0.00120906
-5.52152e-05
0.00122166
-5.246e-05
0.00123369
-4.96096e-05
0.00124516
-4.67003e-05
0.00125605
-4.37402e-05
0.00126636
-4.07301e-05
0.00127608
-3.76827e-05
0.00128519
-3.46126e-05
0.0012937
-3.15369e-05
0.00130166
-2.84468e-05
0.00130905
-2.5342e-05
0.0013159
-2.226e-05
0.00132221
-1.91963e-05
0.0013279
-1.60994e-05
0.0013331
-1.3067e-05
0.00133801
-9.95292e-06
0.00134222
-6.60802e-06
0.00134556
-2.80667e-06
0.0013488
3.89552e-05
0.00135263
5.07338e-05
0.00138935
-0.000147334
0.00138831
-0.00026834
0.00149578
-0.000316209
0.00160165
-0.000337543
0.00167774
-0.000318882
0.00174307
-0.000309334
0.00180344
-0.000286381
0.00184984
-0.000266795
0.001884
-0.000255519
0.00192346
-0.000232108
0.00194717
-0.000208519
0.00195589
-0.000184693
0.00197436
-0.000156042
0.00198679
-0.00013063
0.00199459
-0.000109615
0.00198745
-0.000103485
0.00199464
-9.37486e-05
0.00199758
-8.34406e-05
0.00200168
-7.23172e-05
0.00200355
-6.40671e-05
0.0020045
-5.49313e-05
0.00200288
-4.53053e-05
0.0020016
-3.59402e-05
0.00200016
-2.29222e-05
0.00199866
-1.56824e-05
0.00199666
-7.00292e-06
0.0019931
2.9329e-06
0.00198841
1.14716e-05
0.00198229
2.04465e-05
0.00197438
2.82641e-05
0.00196505
3.67074e-05
0.00195401
4.15451e-05
0.00194082
4.86491e-05
0.00192695
5.69691e-05
0.00191214
6.38955e-05
0.00189533
6.98029e-05
0.00187705
7.61109e-05
0.00185914
8.39912e-05
0.00183999
8.88938e-05
0.00182075
9.22465e-05
0.00180023
9.33409e-05
0.00177973
9.46835e-05
0.00175893
9.67142e-05
0.001738
9.51694e-05
0.00171681
9.4018e-05
0.00169565
9.27324e-05
0.00167586
8.92577e-05
0.00165594
8.50683e-05
0.00163713
8.60594e-05
0.00161816
7.72792e-05
0.00159818
5.59395e-05
0.00158146
4.43809e-05
0.00156418
3.82316e-05
0.00155515
3.26673e-05
0.00154379
0.000140489
0.00142439
0.00039865
0.00113849
0.000672963
0.000896632
0.000745594
0.000746267
0.000805538
0.000609736
0.000830669
0.00050426
0.000830049
0.000432382
0.000795599
0.000386575
0.000727095
0.000351894
0.000641521
0.000318667
0.000583292
0.000283931
0.000536365
0.000253109
0.000513071
0.000224275
0.000468536
0.000193576
0.000445905
0.000159218
0.000409811
0.000123588
0.000462813
9.03836e-05
0.000508575
5.28871e-05
0.000838522
2.67166e-05
-6.25284e-05
-6.59547e-05
0.000834823
-6.93533e-05
0.000852618
-7.26537e-05
0.00087063
-7.58054e-05
0.000888859
-7.87677e-05
0.000907304
-8.14789e-05
0.00092592
-8.39218e-05
0.000944709
-8.60828e-05
0.000963644
-8.78948e-05
0.000982647
-8.93296e-05
0.00100169
-9.04225e-05
0.00102078
-9.11388e-05
0.00103981
-9.14726e-05
0.00105874
-9.14349e-05
0.00107755
-9.10118e-05
0.00109615
-9.02436e-05
0.00111449
-8.91527e-05
0.00113257
-8.77197e-05
0.00115031
-8.5964e-05
0.00116765
-8.39475e-05
0.00118456
-8.16525e-05
0.00120102
-7.91095e-05
0.00121699
-7.63958e-05
0.00123244
-7.35131e-05
0.00124734
-7.04665e-05
0.00126167
-6.72661e-05
0.00127539
-6.39302e-05
0.0012885
-6.05031e-05
0.00130101
-5.70106e-05
0.0013129
-5.34654e-05
0.00132417
-4.98796e-05
0.00133479
-4.62392e-05
0.00134476
-4.25637e-05
0.00135402
-3.88885e-05
0.00136267
-3.52343e-05
0.00137079
-3.16143e-05
0.00137833
-2.79583e-05
0.00138512
-2.43491e-05
0.00139131
-2.07771e-05
0.0013971
-1.72057e-05
0.00140224
-1.35254e-05
0.00140644
-9.9084e-06
0.00140962
-6.40791e-06
0.0014121
2.33936e-06
0.00141212
4.81351e-05
0.00141542
-0.000255029
0.00177719
-0.000373043
0.00193549
-0.000391015
0.00197263
-0.000402252
0.00199593
-0.000378121
0.00201437
-0.000354234
0.00203069
-0.000320065
0.00204748
-0.00030557
0.00205986
-0.000278855
0.00207002
-0.000242002
0.00207955
-0.000227973
0.00208741
-0.000197028
0.00209013
-0.000156111
0.00209665
-0.000137348
0.00209959
-0.000117164
0.0020885
-0.000106285
0.0020947
-9.69758e-05
0.00209269
-8.24586e-05
0.00208874
-7.27013e-05
0.00208682
-6.3171e-05
0.00208644
-5.4097e-05
0.00208625
-4.38146e-05
0.00208586
-3.38139e-05
0.00208336
-2.00677e-05
0.00207977
-1.12164e-05
0.00207561
-1.13919e-06
0.00207031
9.90904e-06
0.00206382
1.92198e-05
0.00205673
2.96775e-05
0.00204795
3.92397e-05
0.00203767
4.96679e-05
0.0020254
5.55226e-05
0.00201141
6.3432e-05
0.0019973
7.31262e-05
0.00198123
8.1219e-05
0.00196286
8.71826e-05
0.00194463
9.49361e-05
0.00192573
0.000103129
0.00190689
0.000109346
0.00188735
0.000112725
0.00186752
0.000113909
0.00184797
0.000115107
0.00182752
0.000117477
0.00180729
0.000115393
0.00178613
0.000113183
0.00176616
0.000112404
0.0017468
0.00010779
0.00172772
0.000103621
0.00170955
0.000105771
0.0016935
9.44305e-05
0.00167969
7.31209e-05
0.00166006
5.32224e-05
0.00164103
5.00131e-05
0.0015865
0.000153031
0.00142828
0.000426885
0.00116044
0.000641
0.000883813
0.000823285
0.000691869
0.000881022
0.000588919
0.000910112