/*--------------------------------*- C++ -*----------------------------------*\
| =========                 |                                                 |
| \\      /  F ield         | OpenFOAM: The Open Source CFD Toolbox           |
|  \\    /   O peration     | Version:  2.2.x                                 |
|   \\  /    A nd           | Web:      www.OpenFOAM.org                      |
|    \\/     M anipulation  |                                                 |
\*---------------------------------------------------------------------------*/
FoamFile
{
    version     2.0;
    format      ascii;
    class       volScalarField;
    location    "1.1";
    object      divBf;
}
// * * * * * * * * * * * * * * * * * * * * * * * * * * * * * * * * * * * * * //

dimensions      [1 -3 -2 0 0 -1 0];

internalField   nonuniform List<scalar> 
14161
(
696.019
311.263
339.044
286.94
259.208
223.194
193.539
169.043
136.719
113.838
95.2985
54.3881
60.2793
22.4027
-22.1126
25.7176
-44.7726
-99.1765
-31.7318
-77.3837
-144.171
-167.654
-46.3227
-160.028
-220.11
-206.759
-127.178
-157.095
-246.012
-295.195
-311.033
-160.659
-158.973
-211.752
-192.192
-166.668
-123.148
-173.656
-139.32
30.6045
-89.3965
-34.0354
607.594
974.776
1692.56
-26212
-27766
-27807
-29160.6
-30751.3
-29527.4
-24144.2
-17158
-21353.9
-25932.9
-33104.6
-30572.7
-34858.9
-35106.7
-34002.2
-33449.6
-31380.6
-29361.7
-27156.1
-24909.5
-23339.9
-20457.3
-18723.6
-16191.3
-13539.4
-10890.3
-8541.47
-6649.08
-4825.78
-3142.92
-1167.27
184.251
1826.06
3042.93
5198.14
6596.37
7559.98
8659.58
10297.5
11431.5
11935.2
13135.4
13900.7
14362.1
14947.4
14588.3
15163.7
14061.6
14362.3
13303.2
12736.5
12093.9
10935
10215.9
6309.46
6390.58
-6611.42
-11292.5
-14963.8
-14304.7
-14503.2
-13624.8
-13537.5
-12424.4
-12520.5
-10853.2
-11181.9
-8367.53
-8900.59
-3772.95
-6539.14
5361.63
-7219.32
22385.9
447.193
64.9711
93.0331
40.5038
11.1236
-26.8844
-58.8049
-88.069
-123.588
-152.564
-177.362
-218.227
-232.497
-270.727
-311.888
-300.197
-365.13
-411.511
-372.318
-450.853
-514.837
-522.135
-480.69
-577.943
-636.055
-646.867
-597.882
-661.569
-777.651
-835.094
-816.367
-758.015
-766.631
-837.703
-852.852
-929.141
-967.58
-788.405
-651.723
-695.081
-750.38
-368.162
-504.421
-155.573
391.323
-23828.4
-24093.6
-25570
-26151.8
-26073.4
-24348.4
-20802.3
-6230.4
-20809.5
-21922.5
-35524.7
-31816.4
-35603.8
-33421.1
-32358
-30096.2
-27907.9
-25020.6
-23573.1
-20743.5
-18484.8
-15984.6
-14450.8
-11953.9
-10024.1
-8489.31
-6405.75
-4428.39
-2583.67
-701.499
927.348
2301.73
3731.7
5093.21
6949.15
8222.59
9307.54
10496.9
11878.8
12879.2
13526.2
14531.1
15273.9
15584.6
16474.8
16138.1
16635.6
15456.3
15613.5
15014.4
14468
12888
10935.9
8764.25
3286.93
1420.73
-11371.6
-12180.1
-12958.2
-12695.2
-13051.3
-12460.9
-12454.8
-11494.2
-11667.9
-10106
-10369.4
-7650.17
-8371.09
-3344.32
-6340.86
5152.71
-7193.18
21201.3
203.102
-175.09
-145.676
-197.214
-226.576
-264.416
-297.855
-330.369
-367.583
-399.637
-431.877
-468.271
-499.561
-539.494
-573.739
-595.398
-657.335
-689.914
-706.292
-770.139
-813.283
-850.144
-852.751
-951.526
-993.462
-1017.41
-1018.16
-1108.59
-1213.65
-1257.92
-1272.25
-1278.7
-1286.15
-1387.57
-1390.33
-1464.47
-1415.64
-1350.24
-1372.1
-1376.58
-1426
-1214.35
-1322.01
-691.406
-199.093
-20137
-20785.3
-22581.2
-23042.4
-23127.7
-21681.4
-12507.4
2158.34
-24459
-24411.7
-35795.1
-35120.3
-37921.6
-35199.7
-33262.9
-30736.3
-28500.7
-26176.9
-24024.1
-21630.7
-18749.2
-16297.4
-13499.2
-11580.9
-8835.56
-6728.14
-4949.26
-2879.94
-1041.65
824.257
2290.67
3913.8
5172.04
6654.34
8430.65
9495.75
10666.3
11711.6
12974.4
13676.9
14446.7
15291.5
15893.3
16156.1
16850.7
16711.2
17408.2
16691.7
17264.3
15658
15236.1
14412
13078.5
11919.6
9631.44
3398.16
-746.283
-5925.87
-7347.04
-7732.97
-8503.55
-8678.37
-9347.56
-8959.34
-9426.53
-8214.02
-8861.49
-6437.95
-7345.15
-2709.54
-5812.83
5038.98
-6923.64
20275.1
-36.1398
-407.445
-375.674
-424.607
-452.89
-489.184
-522.806
-558.462
-593.225
-629.011
-667.875
-696.877
-742.724
-780.076
-813.593
-865.496
-908.373
-937.483
-1005.7
-1059.9
-1066.73
-1143.67
-1194.61
-1272.53
-1294.5
-1354.24
-1407.75
-1475.92
-1596.26
-1595.92
-1658.55
-1747.33
-1773.51
-1834.23
-1855.18
-1909.17
-1917.38
-1924.23
-1948.95
-1929.4
-1880.91
-1742.79
-1476.28
-1079.61
-784.944
-17453.9
-18309.2
-18797.2
-19091
-19860.9
-17206.7
-12664.1
7861.16
-22879.1
-29134.6
-38465.6
-37176
-42243.5
-34986
-33811.6
-29324.4
-26367.1
-24029
-21534.9
-18266.9
-15213.4
-12178.9
-9670.19
-7122.26
-5245.39
-3900.67
-2371.54
-428.586
1244.18
2678
4041.07
5646.66
7019.23
8074.94
9662.63
10909.9
12282.2
13227
14458
14775.2
16209.9
16481.3
16803.4
16696.8
18439.2
18551.9
18451.8
17699.1
17377.8
17804.2
16751.4
16917.5
14791.9
14281.1
8319.7
6798.31
181.8
-1727.24
-4263.84
-4222.93
-5785.06
-6298.56
-7218.43
-7086.34
-7788.43
-6833.49
-7613.47
-5435.63
-6546.24
-2211.94
-5431.63
4661.57
-6629.06
18985.2
-267.93
-630.923
-595.596
-640.826
-667.338
-701.675
-733.637
-770.937
-803.117
-839.848
-884.243
-909.275
-962.88
-999.827
-1034.75
-1103.21
-1141.63
-1160.35
-1243.72
-1332.15
-1311.67
-1398.74
-1486.6
-1558.91
-1565.8
-1652.16
-1738.79
-1808.56
-1891.44
-1907.01
-2015.77
-2101.92
-2170.56
-2192.81
-2254.11
-2289.13
-2317.31
-2328.01
-2325.16
-2261.55
-2168.65
-2024.49
-1764.61
-1495.55
-1189.25
-14899.6
-15364.6
-15794.1
-15994
-17503.6
-15293.2
-26268.7
12769
-27434.8
-34393
-42830.4
-40202.9
-41647.4
-36480.4
-33801.1
-28874.3
-24467.5
-21184.3
-18261.5
-14619.8
-12315.3
-9906.65
-7495.72
-6889.87
-4010.18
-2080.41
-85.0968
1659.3
3423.27
4713.7
5893.54
7292.34
8791.56
9481.93
11111.6
11749.2
13666.3
14555.7
15538.2
15823.1
17471.4
17600.9
18561.8
18806.4
19652.3
19144
18884.2
19211.7
19931.1
20393.5
20013.7
21345
22490.7
18031.4
13476.2
6323.7
3191.6
-1191.59
-913.753
-2730.81
-3743.34
-4499.45
-5546.35
-5598.44
-6381.88
-5614.09
-6508.11
-4562
-5812.79
-1830.84
-5040.78
4240.38
-6416.21
17702.8
-491.443
-844.202
-804.747
-845.603
-868.735
-900.093
-930.326
-967.852
-996.997
-1034.23
-1079.19
-1105.81
-1163.03
-1195.89
-1237.33
-1314.46
-1343.2
-1374.51
-1464.18
-1551.16
-1525.54
-1630.83
-1730.59
-1810.24
-1808.69
-1892.32
-1998.92
-2116.95
-2185.39
-2195.16
-2280.54
-2411.1
-2526.65
-2567.77
-2588.48
-2610.13
-2645.76
-2644.77
-2639.43
-2595.7
-2531.35
-2427.48
-2181.28
-1844.49
-1459.72
-12897.5
-13287.5
-13909.4
-13787.7
-14277.8
-15256.8
-29527.9
-3274.4
-29738.3
-45190.3
-48280.1
-43260.9
-35412.4
-30030.8
-27356.5
-25611
-19910
-16678.3
-13337.9
-11932.4
-8455.61
-7463.88
-3882.16
-2983.58
-246.886
1178.19
2571.98
3705.51
5337.87
6683.09
7606.36
8693.21
10224.7
11049.6
12721.2
13044.4
15231.5
15930.5
16805.8
17105.5
18760.7
19122.7
19748.9
19987.6
21136.2
20461.2
21504.3
22875
22222.1
24882
26467.4
29471.4
27309.1
17739.6
11103.1
7229.36
2066.35
2406.92
-334.248
-835.551
-2292.82
-3135.46
-4187.03
-4378.89
-5218.65
-4624.1
-5577.55
-3879.31
-5227.92
-1609.2
-4861.68
3574.16
-6293.75
16187.9
-705.1
-1046.47
-1002.19
-1037.79
-1057.13
-1084.35
-1112.6
-1148.72
-1175.9
-1212.87
-1254.67
-1285.68
-1341.1
-1371.48
-1423.16
-1493.25
-1521.33
-1576.58
-1665.16
-1731.5
-1731.91
-1837.27
-1941.14
-2018.06
-2020.51
-2130.37
-2235.71
-2363.58
-2410.63
-2439.4
-2527.19
-2666.29
-2786.31
-2888.76
-2913.9
-2872.05
-2910.89
-2926.15
-2910.53
-2855.13
-2753.24
-2604.48
-2361.11
-2011.71
-1522.13
-10568.6
-10795.6
-11100.9
-12025.5
-12529.6
-13547.3
-31992.3
-30395.2
-44111
-56349.3
-50557.1
-34669.4
-28917.2
-26573.5
-21157.5
-18306.2
-15610.7
-14255.1
-10403.9
-7569.71
-5646.84
-3650.82
-516.66
1331.51
2795.08
3815.52
4292.64
5091.41
6861.23
7625.37
9450.91
10588.6
11843.9
13138.2
14451.3
15051.9
16963.3
17345.9
18875.4
19495.6
19877.8
20300.2
20626.1
21681.5
24134.3
24008.5
24726.3
27453.5
28602.2
34355.5
37501.4
33087.8
22928.7
14537.2
10023.1
5737.68
2973.8
2581.64
522.174
243.876
-1340.54
-1971.57
-3070.79
-3333.97
-4212.87
-3780.53
-4775.17
-3305.2
-4706.79
-1386.14
-4651.64
3174.21
-6051.5
14722.4
-907.928
-1236.72
-1187.18
-1216.96
-1231.9
-1255.07
-1280.67
-1313.25
-1338.83
-1376.38
-1413.62
-1449.16
-1500.25
-1536.49
-1588.86
-1646.88
-1689.81
-1747.47
-1828.61
-1880.39
-1939.52
-2019.52
-2113.72
-2182.1
-2225.34
-2332.83
-2461.83
-2570.92
-2580.57
-2682.06
-2789.4
-2892.15
-2987.12
-3092.4
-3150.57
-3177.47
-3169.58
-3168.94
-3145.04
-3107.12
-3011.46
-2852.19
-2574.09
-2390.67
-1891.78
-9026.23
-8826.82
-8652.54
-8467.81
-8868.12
-9884.95
-26481.7
-98226.2
-71328.8
-47857.9
-22759
-19007.2
-21195.7
-20543.2
-17409
-16126.9
-12823.5
-9182.28
-6361.85
-3612.26
-503.241
-50.1656
2470.94
4434.53
4579.36
6091.49
6803.34
8062.72
8993.06
9956.28
11067.6
11837.7
13392.2
14364.8
15970.6
17002.6
18322.6
19326.5
19666.3
20895.6
22003.8
22804.5
24653.1
25162.3
26153.3
29424.1
31122
37594.9
41097.5
45145.5
37540.7
25640.1
17028
11623.1
7945.1
4488.58
3872.21
2285.08
1431.92
669.288
-510.09
-1163.01
-2205.66
-2518.28
-3377.67
-3079.74
-4058.19
-2866.06
-4273.1
-1284.13
-4599.23
2705.99
-6033.95
13121.8
-1098.85
-1414.01
-1358.94
-1382.7
-1392.52
-1412.31
-1434.39
-1462.09
-1487.84
-1524.47
-1556.28
-1598.81
-1638.74
-1680.24
-1744.06
-1781.07
-1837.83
-1910.95
-1969.33
-2019.62
-2101.53
-2195.09
-2265.63
-2317.18
-2410.58
-2517.52
-2632.34
-2713.76
-2765.49
-2883.22
-2997.37
-3098.46
-3182.29
-3238.87
-3317.78
-3419.51
-3441.69
-3445.67
-3364.37
-3300.12
-3140.63
-2954.77
-2630.49
-2352.33
-2073.41
-7141.23
-7738.5
-8160.25
-7996.69
-7176.26
-12436.8
-33538.9
-143006
-135462
-30966
-16949.5
-4051.99
-5865.28
-8584.01
-12005.5
-12471.6
-9440.12
-2843.99
-611.829
256.573
1745.55
4454.48
4569.83
6639.23
6665.35
7430.13
8747.59
9600.3
10075.7
11435.5
12571.7
13581.6
15702.7
16241.1
17481.6
18382
18822.5
20599.4
21581.5
23360.5
24411.8
25900.9
29216.2
31246.8
33305.2
40675.5
43597.1
51237.6
51267.3
37213.7
26421.7
17348.9
12402.7
8726.24
5754.65
4317.71
3327.33
2457.07
1517.71
1146.32
104.519
-485.384
-1440.89
-1792.18
-2643.16
-2483.6
-3431.11
-2456.2
-3821.85
-1101.26
-4392.75
2389.2
-5853.59
11723.4
-1276.67
-1577.74
-1517.03
-1534.46
-1539.22
-1555.22
-1573.88
-1595.61
-1622.92
-1655.72
-1683.9
-1733.01
-1758.67
-1809.62
-1877.68
-1894.41
-1967.26
-2053.88
-2093.05
-2145.54
-2235.95
-2345.7
-2393.8
-2451.97
-2559.81
-2682.91
-2785.94
-2834.36
-2935.52
-3056.58
-3168.34
-3274.51
-3334.25
-3397.73
-3493.95
-3582.21
-3644.94
-3660.98
-3644.69
-3534.84
-3377.16
-3134.24
-2927.95
-2708.96
-2561.45
-6256.88
-6270.83
-6378.57
-6416.5
-7626.48
-13672.8
-44719
-164063
-115899
-50112
-12763.2
-5500.52
-5293.57
-4205.62
-7741.79
-6717.02
-5274.22
-2537.08
-1441.72
3641.67
6264.29
7365.46
5234.78
8114.15
10274.8
9900.26
10715.7
11326.5
12199.8
13553.6
14609.5
15556
16667.7
17271.7
18891.2
20876.1
21903.1
24550.1
24983.3
26478.9
30722.2
32910.5
37395.3
43267.5
47285.3
55066.6
59925.4
46260.2
34985
25129.8
17357.1
12321.7
8877.07
6415.92
4239.01
4016.38
2896.33
2403.33
1577.26
1430.44
489.643
-38.681
-878.21
-1227.97
-2041.29
-2004.31
-2917.39
-2191.4
-3528.19
-1094.92
-4371.07
1907.28
-5884.55
10261.1
-1440.75
-1727.2
-1661.04
-1672.19
-1671.81
-1684.09
-1698.57
-1716.85
-1743.33
-1770.72
-1798.73
-1847.26
-1871.6
-1923.92
-1988.3
-2004.91
-2081.99
-2166.47
-2197.55
-2263.98
-2361.49
-2458.86
-2494.99
-2581.42
-2694.81
-2813.02
-2890.35
-2971.12
-3086.63
-3200.88
-3295.49
-3391.95
-3483.48
-3581.15
-3660.57
-3718.15
-3799.63
-3833.78
-3812.44
-3722.89
-3617.56
-3399.05
-3122.31
-2731.58
-2446.59
-4505.04
-4226.23
-3572.24
-3130.62
-2702.84
-7324.71
-73233.9
-110469
-64504.1
-52376.5
-32457.3
-12900.2
-8180.24
-5357.96
-4222.47
-2386.92
500.177
-1511.64
1926.14
4780.06
7386.04
9984.67
9762.34
8647.38
10972
11210.2
12560.3
12011
12987.1
14599.5
15480.5
18366.8
19635.7
20424.3
21793
24149.2
25415.9
29609.4
32374.7
34573.9
41884.7
47015.1
51423.6
59410.5
64764
52550.4
41160.4
30592.4
22004.6
15792.1
11566.6
8364.12
6347.56
3931.27
4190.68
2936.33
2719.23
2056.28
1830.95
1560.23
874.436
392.709
-334.139
-712.21
-1486.39
-1554.02
-2369.13
-1850.75
-3066.48
-909.628
-4094.16
1670.3
-5662.61
9058.75
-1590.12
-1861.85
-1790.65
-1795.81
-1790.15
-1799.03
-1808.88
-1823.9
-1850.14
-1871.59
-1901.36
-1943
-1973.41
-2025.61
-2073.77
-2112.75
-2183.68
-2255.19
-2291.3
-2368.78
-2465.98
-2546.91
-2600.45
-2694.08
-2803.13
-2901.83
-2996.16
-3095.14
-3215.83
-3309.36
-3389.35
-3504.07
-3627
-3723.48
-3800.95
-3875.31
-3931.65
-3969.47
-3942.27
-3890.6
-3846.28
-3731.77
-3601.35
-3412.96
-2925.12
-3771.04
-3633.21
-3623.97
-3739.18
-6895.29
-23949
-124877
-32520.1
-19781.4
-47425.9
-76247
-41569.5
-21749.9
-11426.6
-6761.02
-1635.09
-509.55
1233.61
3877.95
6496.23
9463.24
9705.71
11653.7
12462.6
12830.4
13007.7
14037.3
13928.4
15760.5
16880.5
18484.6
20221.9
22754.7
24887.6
26992.5
32042.5
34338.6
38026.1
46760.6
50726
58206.8
65164.1
67812.1
54673.4
43920.6
33333.8
25768.5
18588.4
13595.3
9894.15
7353.94
5723.99
3760.14
3837.77
2754.31
2629.44
2161.71
2052.14
1876.71
1678.54
1132.95
687.913
54.7785
-350.158
-1079.95
-1250.08
-2021.85
-1694.12
-2869.92
-1007.86
-4061.02
1192.41
-5651.02
7772.89
-1724.32
-1981.53
-1905.58
-1904.92
-1894.43
-1899.98
-1905.08
-1917.31
-1942.73
-1959.39
-1991.8
-2025.24
-2059.19
-2113.41
-2146.83
-2200.49
-2273.43
-2319.43
-2384.46
-2460.98
-2545.09
-2612.13
-2699.6
-2788.42
-2883.3
-2978.64
-3085.3
-3203.38
-3310.34
-3390.59
-3492.69
-3622.05
-3747.64
-3835.58
-3907.89
-3996.15
-4040.9
-4073.49
-4052.7
-4055.61
-4061.68
-4040.18
-3789.29
-3458.72
-3048.67
-2803.27
-2807.59
-2972.39
-3412.43
-5580.64
-36361.8
-99136.6
-11086.6
-14981.2
-27703.9
-52221.5
-72983.8
-40639.3
-20218.9
-12371.8
-5989.17
681.912
2600
6111.24
8186.87
11634.2
12930
12342.5
14209.7
13979.3
14841.3
14893.4
16109.8
18617.7
20276.9
23986.9
26431.7
29558.3
35284.9
38273
45883.6
51867.1
56302.2
65427.1
70812
63862.6
53572.9
44163.2
33831.5
27179.8
19809.5
15037.8
11224.6
8196.24
6160.7
4768.72
3320.33
3267.97
2460.82
2359.96
2013.22
1971.51
1885.59
1909.83
1703.07
1315.14
944.178
422.267
6.33392
-657.595
-876.344
-1521.6
-1353.66
-2406.44
-853.279
-3707.24
980.636
-5354.36
6785.59
-1842.99
-2086.02
-2005.65
-1999.44
-1985.02
-1986.61
-1988.2
-1999.11
-2019.52
-2035.53
-2068.58
-2095.76
-2134.23
-2181.65
-2215.76
-2275.23
-2343.95
-2378.54
-2451.6
-2540.84
-2605.87
-2678.96
-2773.85
-2864.33
-2951.85
-3055.4
-3163.54
-3277.47
-3366.9
-3468.33
-3587.63
-3732.4
-3839.06
-3903.26
-3999.13
-4091.05
-4158.19
-4235.44
-4290.38
-4340.47
-4334.97
-4202.67
-3922.72
-3685.91
-3228.44
-1957.77
-1858.51
-1830.46
-2363.86
-8835.5
-62205.9
-64926.7
-5107.65
-8614.06
-11199.5
-21766.5
-40477.3
-62988.9
-45118.1
-24469
-11505.1
-3496.29
5372.09
8974.37
7680.61
14592.2
15089.8
14304.4
17454.7
15922.1
18809.7
20097.8
22640.1
26228.9
28629.5
34960.5
39325.6
44442.5
52680.8
58457.7
65228.8
72413.5
70548.3
58673.7
49590.9
40341.5
32621.9
26142.8
20045.7
15663
12130.1
8845.88
6572.94
5029.69
3831.31
2877.95
2626.45
2100.04
1977.48
1723.38
1732.13
1701.01
1867.72
1950.21
1809.54
1516.28
1160.19
677.803
220.02
-384.798
-701.786
-1262.48
-1244.01
-2226.45
-925.433
-3570.12
571.663
-5203.62
5720.54
-1945.63
-2174.9
-2090.89
-2079.84
-2061.98
-2058.81
-2058.72
-2068.66
-2082.32
-2100.18
-2130.38
-2154.8
-2198.04
-2233.71
-2273.98
-2338.8
-2392.99
-2437.18
-2511.2
-2592.15
-2662.18
-2735.76
-2825.64
-2918.13
-3011.89
-3118.85
-3224.32
-3318.17
-3427.17
-3552.26
-3694.04
-3804.05
-3849.1
-3974.79
-4077.99
-4181.25
-4277.44
-4376.57
-4431.47
-4458.77
-4378.38
-4260.58
-4095.15
-3838.38
-3468.11
-1383.69
-1455.69
-1643.53
-3488.65
-14527.3
-102579
-26417.2
-1341.85
-6078.46
-8880.81
-14827.1
-22688.5
-36510.8
-67505
-49598.2
-22502.8
-5967.22
8758.24
13873
13617.2
15455.6
18488.3
17383.2
22066
21356.7
26292
28113.8
34434.6
40343.7
45634.6
53364.3
61514.6
68988.9
74223.6
71158.6
62213.6
51473.5
45620.6
35332.8
30712.5
23914.9
18764.1
14886.5
12067.5
9020.61
6846.76
5314.82
4112.2
3138.1
2372.18
2000.13
1729.13
1514.2
1389.89
1384.87
1464.46
1592.37
1783.88
1876.24
1780.3
1586.27
1314.48
912.323
452.69
-41.7957
-393.022
-870.554
-970.832
-1863.08
-850.352
-3187.82
368.77
-4863.5
4913.78
-2032.15
-2248.23
-2161.4
-2146.17
-2125.25
-2117.7
-2116.45
-2125.13
-2132.84
-2155.14
-2176.97
-2202.82
-2247.74
-2276.69
-2321.3
-2383.61
-2428.96
-2486.27
-2557.76
-2630.26
-2710.16
-2775.21
-2866.51
-2959.82
-3069.83
-3168.62
-3237.44
-3357.56
-3474.66
-3621.7
-3764.42
-3811.51
-3905.71
-4034.35
-4157.8
-4261.04
-4408.69
-4490.46
-4517.3
-4469.74
-4453.93
-4377.3
-4210.07
-4024.1
-3722.69
-900.146
-948.892
-1223.41
-3218.66
-24884.3
-93943.4
-4993.31
-1737.55
-2031.68
-5371.69
-7455.85
-10948.8
-16531.7
-33572.9
-53084.7
-43126.4
-14131.2
5869.82
14395.4
20785.1
18786.2
25513.1
24639.3
29154.1
37370.3
41918.1
46636.3
55713.8
64191.4
71586.2
76109.4
70767.8
63942.5
52734.6
45968.4
38356.5
31541.5
27226.5
21309.3
17257.1
13950.7
11488.1
8880.5
7088.38
5568.39
4239.14
3313.06
2533.08
1928.75
1567.55
1358.83
1188.91
1099.17
1097.89
1178.78
1328.98
1502.99
1745.73
1885.57
1864.17
1709.02
1451.3
1052.79
618.408
165.026
-240.459
-621.899
-849.642
-1691.21
-824.084
-2991.02
40.8277
-4632.24
4058.76
-2102.52
-2306.15
-2217.31
-2198.47
-2174.99
-2164.1
-2162.28
-2166.85
-2172.79
-2197.92
-2213.07
-2241.08
-2281.88
-2311.16
-2360.99
-2412.65
-2460.69
-2520.9
-2588.19
-2663.42
-2739.27
-2798.07
-2895.15
-3007.39
-3107.15
-3170.23
-3277.15
-3388.64
-3537.2
-3663.97
-3744.11
-3844.32
-3957.86
-4088.56
-4210.2
-4360.96
-4485.53
-4549.71
-4550.69
-4565.11
-4493.57
-4400.59
-4275.64
-4084.73
-3794.16
-157.918
-190.02
-539.814
-5502.73
-47470.9
-61826.6
-482.085
-2642.31
616.061
-962.864
-2719.04
-5723.11
-8037.42
-16147.3
-27044
-40685.2
-32289
-208.526
17882.6
30234.2
28264.1
38478.3
41073.9
48785
58373.3
67361.9
72860.8
75655.2
69615.9
62941.2
52944.8
46110.2
39047.6
32605.5
28318.8
23286.2
17858.7
15476.3
12999.1
10475.6
8535.84
7180.72
5725.01
4409.84
3431.19
2696.76
2101.27
1660.08
1325.53
1206.07
949.474
844.496
766.628
835.376
1005.07
1218.2
1433.97
1650.12
1777.73
1805.72
1699.73
1502.02
1159.01
773.716
360.917
-15.7856
-373.29
-616.588
-1399.26
-629.83
-2637.15
-89.1658
-4308.09
3390.6
-2156.78
-2348.83
-2258.74
-2237.02
-2211.54
-2197.96
-2196.39
-2196.1
-2202.78
-2225.92
-2240.3
-2269.38
-2303.9
-2337.22
-2384.1
-2434.05
-2483.63
-2539.32
-2611.3
-2690.14
-2734.52
-2827.16
-2923.75
-3032.05
-3110.41
-3182.63
-3300.48
-3433.81
-3555.94
-3654.73
-3751.94
-3880.73
-3990.89
-4113.74
-4272.91
-4437.89
-4509.72
-4553
-4588.53
-4576.92
-4550.68
-4506.87
-4428.34
-4270.44
-4011.48
126.581
133.645
-1869.89
-11459.8
-86871.3
-37373.1
-347.11
119.345
1955.1
1582.94
1147.1
369.74
-1023.25
-3082.02
-8435.56
-7891.09
-8843.73
6642.07
31329.8
41779.8
49390.7
58346.4
68934.9
77677.8
71855.6
67575.3
59972.3
52418
45457.6
39336.9
33558.5
28572.8
24028.1
19203.9
16521.3
14270.1
11401.7
9367.96
8112.23
6887.52
5678.19
4731.79
3909.83
2993.52
2410.19
1790.03
1269.26
897.39
873.082
594.153
600.872
581.572
641.902
708.462
843.202
1094.92
1423.12
1648.17
1828.79
1867.33
1778.91
1574.65
1276.6
927.023
549.846
138.555
-145.005
-477.33
-1238.34
-607.68
-2464.23
-275.213
-4001.37
2794.88
-2195.27
-2376.56
-2286.14
-2262.23
-2234.93
-2220.81
-2216.35
-2215.64
-2223.65
-2239.91
-2258
-2285.28
-2316.2
-2354.36
-2394.55
-2446.99
-2492.58
-2549.67
-2628.31
-2693.52
-2743.91
-2834.87
-2945.48
-3033.24
-3093.16
-3196.17
-3317.87
-3451.88
-3563.76
-3634.55
-3748.03
-3872.3
-4024.44
-4168.65
-4320.89
-4389.95
-4483.75
-4574.65
-4616.08
-4638.6
-4668.97
-4635.07
-4584.47
-4457.89
-4258.38
471.321
78.1322
-669.905
-17808.1
-95451.7
-4836.3
2069.36
2789.51
2263.9
2670.35
2140.19
2499.89
4351.66
6651.06
8437.73
13037.1
25543.6
40439.5
58759
66171.2
73847.2
67721.3
61789.8
57526.2
49881
43392.4
37899.3
33551.4
29606.1
25027.9
20044.3
16878.4
15392.9
12880.1
10382.8
9010.58
7768.08
6739.92
5999.12
5121.44
4301.11
3486.24
2843.56
2141.25
1643.92
1443.91
1085.85
935.501
717.561
586.026
389.145
303.641
295.103
489.888
755.277
973.715
1323.48
1592.29
1797.5
1862.48
1769.32
1588.99
1344.81
1025.81
700.226
258.84
28.1909
-326.479
-1050.02
-432.625
-2181.6
-348.058
-3689.27
2232.19
-2218.26
-2389.76
-2299.81
-2274.39
-2246.11
-2232.38
-2224.09
-2224.45
-2233.45
-2244.15
-2265.95
-2290.57
-2319.2
-2358.62
-2399.44
-2445.18
-2495.54
-2554.39
-2625.25
-2678.51
-2750.17
-2847.23
-2933.2
-3000.97
-3098.68
-3199.73
-3333.17
-3447.74
-3513.56
-3627.08
-3745.12
-3891.33
-4047.36
-4193.69
-4248.42
-4362.91
-4475.32
-4571.49
-4660.25
-4711.95
-4721.96
-4678.38
-4549.17
-4279.6
-4038.93
1222.76
954.65
-3553.67
-43153.8
-67853.3
431.983
2020.05
3059.99
3325.12
3797.85
4466.04
5096.89
8956.57
17854.8
31089.5
57266.6
87866.5
89159.7
71140.9
60484.1
53346.2
45904.6
40425.1
36321.3
32095.7
28740
25100.3
20971.1
18724.2
16894.3
14106.3
12054.4
10880
9693.12
8114.12
6799.26
5764.74
4883.19
4370.55
3704.08
3122.5
2534.57
2113.55
1742.98
1261.55
1106.23
834.34
646.382
418.753
246.56
162.365
142.653
221.165
337.022
554.846
805.339
1112.28
1408.82
1612.66
1725.63
1687.77
1579.84
1380.21
1122.54
827.541
405.583
244.375
-130.217
-847.913
-373.681
-2018.88
-467.535
-3387.8
1844.84
-2226.27
-2388.94
-2300.22
-2273.98
-2245.7
-2231.9
-2221.82
-2223.1
-2231
-2239.24
-2263.69
-2286.94
-2311.31
-2353.15
-2397.56
-2429.59
-2487.59
-2560.03
-2595.9
-2671.14
-2754.34
-2845.02
-2894.29
-2987.93
-3083.59
-3221.08
-3323.82
-3377.85
-3499.94
-3616.36
-3749.83
-3902.6
-4036.94
-4112.12
-4217.45
-4345.99
-4459.56
-4570.64
-4660.97
-4751.28
-4745.93
-4719.85
-4620.33
-4511.63
-4344.87
1319.48
-467.834
-8669.14
-77708.3
-44697.3
937.563
2985.26
4423.82
4401.01
6815.57
8833.98
9897.28
19833.8
40169.6
69702.8
111579
123495
78755
55269.8
42701.2
35665.4
31099.4
27108.2
23459.2
20467.8
18856
18044.8
15995.7
13796.2
12490.1
11257.3
9465.64
8016.97
7289.84
6400.42
5569.05
5168.01
4386.24
3931.3
3299.01
2854.74
2268.41
1782.94
1491.05
1213.79
1052.24
820.153
650.204
385.081
234.26
107.569
88.3348
133.513
267.695
523.122
791.59
1147.08
1455.7
1694.71
1798.29
1737.72
1653.26
1477.71
1217.68
969.27
535.921
393.187
21.7988
-710.37
-235.639
-1815.12
-467.93
-2978.41
1379.63
-2219.88
-2374.64
-2288.06
-2261.68
-2233.92
-2219.5
-2209.57
-2212.74
-2217.56
-2225.8
-2251.49
-2272.95
-2296.43
-2340.89
-2378.38
-2414.22
-2476.54
-2542.13
-2568.15
-2649.59
-2752.08
-2817.21
-2851.57
-2961.93
-3091.14
-3198.44
-3266.95
-3351.7
-3470.81
-3604.81
-3742.76
-3865.96
-3960.62
-4074.13
-4181.21
-4314.07
-4442.07
-4551.27
-4629.08
-4707.7
-4761.24
-4789.91
-4769.54
-4681.43
-4601.11
1047.46
-203.109
-17542.4
-101324
-5228.54
4072.96
4828.05
5246.84
5588.9
7465.18
13996.4
21028.8
37371.3
75116.1
130058
137635
87714.1
59353.9
42344.8
31648.3
24956.1
21112.3
18567.5
16706.2
14962.7
13705.2
13002.7
12417
11232.4
10226.2
9608.42
8697.75
7842.71
6816.88
6261.72
5455
4968.09
4240.45
3475.26
2952.77
2473.29
2142.44
1736.57
1615.41
1168.49
1025.58
766.54
566.66
352.825
186.046
78.6659
9.30447
47.2603
110.22
305.185
549.663
898.857
1188.41
1428.01
1564.8
1551.2
1537.81
1410.01
1191.78
1001.78
615.293
499.806
178.316
-523.661
-104.491
-1577.35
-546.366
-2750.76
1086.53
-2199.78
-2347.44
-2263.84
-2238.1
-2211.27
-2196.94
-2187.83
-2190.83
-2194.31
-2206.54
-2227.61
-2249.16
-2275.89
-2316.98
-2349.86
-2392.19
-2455.83
-2498.24
-2552.15
-2632.02
-2709.91
-2763.18
-2835.55
-2940.92
-3052.06
-3144.02
-3214.91
-3323.13
-3445.08
-3579.56
-3694.23
-3790.28
-3910.22
-4021.25
-4169.53
-4301.63
-4422.8
-4495.36
-4552.29
-4605.95
-4649.95
-4680.06
-4656.35
-4521.36
-4341.7
1849.71
-3525.86
-47620.2
-70824.3
2961.26
4544.61
6364.73
7055.95
7239.02
9718.95
21549.8
43032.4
74485.4
126733
138935
91340.5
61241.6
43665.7
31940.7
24583
19832.1
16685.5
14668.3
13081.4
11975.7
10890
10226.3
9941.89
9518.67
9029.12
8756.7
8040.63
7438.72
6449.92
6389.77
5582.97
5114.67
4465.78
3711.84
3096.11
2522.41
2222.48
1756.57
1632.23
1157.12
1075.18
795.903
583.986
335.074
166.784
54.5543
-0.0705482
39.9758
130.829
326.959
562.621
909.743
1187.13
1418.7
1570.19
1593.12
1605.05
1488
1258.21
1092.12
749.421
656.462
351.803
-377.848
-45.7942
-1438.57
-525.267
-2343.63
761.369
-2166.74
-2308.14
-2228.28
-2203.84
-2178.11
-2164.72
-2157.47
-2158.77
-2163
-2178.55
-2195.03
-2215.86
-2251.6
-2278.74
-2316.3
-2371.35
-2410.55
-2463.08
-2525.38
-2603.93
-2644.86
-2731.39
-2812.47
-2915.28
-2984.03
-3077.41
-3172.98
-3303.98
-3412.53
-3519.04
-3607.79
-3725.2
-3850.97
-4002.4
-4151.33
-4268.85
-4331.15
-4443.02
-4526.94
-4579.93
-4626.66
-4625.42
-4575.27
-4563.6
-4634.77
-126.442
-11571.2
-92355.3
-33583.1
3935.87
6455.52
6616.67
9533.28
13906
18633.6
39751.4
81585.8
131800
136895
91010.8
61489.2
43823.2
31844.8
24231.9
19131.9
16030
14005.5
12482.3
11275.8
10311.4
9578.1
9076.86
8682.4
8651.62
8518.14
8676.08
8061.03
8136.22
7072.43
6445.59
5879.16
5166.73
4647.56
3812.43
3196.94
2673.12
2281.11
1836.99
1749.32
1180.72
973.086
837.498
603.984
376.43
170.221
57.1997
-16.0392
28.7351
103.837
253.856
403.173
672.931
919.776
1182.37
1350.05
1426.02
1465.23
1421.43
1243.79
1122.43
804.873
695.327
456.071
-257.478
41.1776
-1131.67
-527.416
-2085.72
498.399
-2121.68
-2257.53
-2182.1
-2159.43
-2135.2
-2123.36
-2117.88
-2117.57
-2125.52
-2139.84
-2154.45
-2179.19
-2213.28
-2236.47
-2277.47
-2334.35
-2359.8
-2418.15
-2499.34
-2546.54
-2596.63
-2678.58
-2791.66
-2862.04
-2902.02
-3015.91
-3146.53
-3271.14
-3356.11
-3421.82
-3540.72
-3658.96
-3808.09
-3955.24
-4085.34
-4156.4
-4270.58
-4391.22
-4515.24
-4592.31
-4625.8
-4642.06
-4654.46
-4639.55
-5222.28
-281.805
-25424.9
-97009.8
-4103.86
4341.96
5331.56
6037.08
10590.8
22499.8
39661.7
74745.2
130678
134281
89098.1
60279.1
42976.9
31395.9
24018.2
18990.3
15614.1
13414.1
12014.6
11024.5
10176.5
9416.16
8640.38
8177.52
7991.19
7949.66
7987.1
8171.78
7676.91
7541.07
6730.85
6111.17
5645.61
5102.21
4598.31
4018.02
3508.06
2643.98
2190.78
1714.14
1715.6
940.419
910.596
768.773
513.736
296.868
131.273
4.18062
-87.6875
-44.4077
21.8431
203.573
317.018
647.662
864.733
1176.18
1347.06
1446.91
1493.29
1427.59
1281.82
1152.08
898.107
838.633
641.632
-5.17576
29.9482
-977.233
-515.571
-1743.83
346.661
-2065.52
-2196.49
-2126
-2105.62
-2083.43
-2073.86
-2069.12
-2069.03
-2080.52
-2091.69
-2107.15
-2138.03
-2160.74
-2191.22
-2238.74
-2275.12
-2316.13
-2378.47
-2441.14
-2482.26
-2550.14
-2643.1
-2723.92
-2775.28
-2860.86
-2964.69
-3082.63
-3176.05
-3271.42
-3362.2
-3476.23
-3612.47
-3745.06
-3861.5
-3968.14
-4082.5
-4181.86
-4298.96
-4389.13
-4433.72
-4367.22
-4246.25
-4055.99
-3965.27
-4779.55
-4170.54
-60591
-63118.6
3053.09
3638.16
6792.31
12397.3
17491.8
40570.2
78651.4
128919
132927
86904.6
58684.1
41805
30612.2
23705
18940
15662.1
13400.8
11870.6
10854.7
10111.5
9452.3
8832.2
8198.62
7716.07
7368.9
7289.71
7157.37
7196.77
7022.2
7024.67
6479.81
5994.71
5432
4903.73
4397.01
3819.27
3380.78
2714.15
2255.85
1783.25
1533.08
1033.56
835.764
511.46
336.226
146.016
50.8559
-50.5262
-101.035
-36.5689
6.15011
175.605
213.063
526.702
636.833
949.416
1019.97
1232.1
1218.01
1293.2
1174.06
1210.8
891.333
942.591
720.151
51.9353
54.6013
-639.985
-456.238
-1326.8
111.727
-1999.27
-2125.99
-2060.84
-2043.02
-2023.56
-2016.03
-2012.08
-2014.69
-2025.89
-2037.53
-2055.58
-2083.92
-2106.38
-2141.22
-2183.2
-2216.32
-2264.9
-2327.27
-2368.92
-2425.31
-2506.32
-2577.17
-2635.74
-2712.04
-2813.07
-2914.5
-2986.72
-3079.53
-3182.87
-3306.14
-3427.11
-3536.75
-3628.16
-3743.65
-3858.33
-3996.19
-4125.62
-4231.02
-4331.83
-4428.99
-4520.95
-4592.29
-4853.85
-5278.46
-7144.33
-16797.6
-112970
-12037.4
4843.49
7838.8
12190.3
22363.9
38880.9
74695.7
136548
132395
85591.7
57111
40328.7
29688.3
23041.3
18671.3
15626.6
13455.8
11900.8
10827.5
10063.2
9437.52
8886.84
8448.83
7884.97
7431.83
6974.68
6677.57
6355.37
6199.11
6098.61
6153.17
5918.92
5639
4933.5
4536.35
4030.94
3485.67
3245.27
2814.74
2142.68
1603.62
1108.09
741.144
544.302
394.97
210.037
-22.1051
-133.098
-200.366
-231.459
-160.802
-131.263
45.4775
52.5161
365.689
527.494
905.76
1015.79
1265.26
1235.85
1320.48
1189.63
1197.99
938.478
968.793
763.644
207.7
138.059
-444.371
-417.535
-1072.49
-7.6932
-1923.95
-2046.92
-1987.41
-1972.48
-1956.21
-1950.48
-1948.24
-1953.91
-1963.43
-1977.06
-1998.9
-2020.2
-2048.46
-2085.17
-2116.29
-2156.81
-2213.66
-2252
-2304.21
-2372.76
-2445.17
-2487.38
-2563.56
-2656.2
-2756.38
-2822.13
-2883.02
-2989.78
-3113.15
-3241.49
-3347.31
-3421.16
-3513.65
-3632.82
-3773.88
-3916.31
-4040.43
-4097.75
-4174.69
-4233.12
-4237.53
-4240.41
-4266.25
-4607.94
-11024.2
-48000.3
-81376.5
2303.64
9278.03
12840.8
20513.9
41491.7
78294.2
127363
127864
83368.1
55597.1
39257.3
28688.1
22234.6
18118.2
15379.2
13442
12032.5
10950.3
10167.2
9532.48
8956.02
8415.97
7966.17
7511.17
7170.37
6672.55
6231.8
5783.62
5436.08
5241.61
5213.75
5217.09
5125.69
4557.26
4276.46
3798.03
3287.64
2781.64
2507.03
1998
1516.12
1073.4
695.862
504.748
256.892
30.6448
-220.959
-322.897
-418.52
-420.339
-336.782
-302.568
-122.863
-97.5192
218.743
367.827
584.184
728.683
941.111
939.736
1168.98
1015.82
1213.42
925.995
1083.76
789.917
366.679
76.8385
-184.064
-232.783
-721.189
-149.156
-1840.61
-1960.2
-1906.69
-1894.97
-1882.06
-1877.95
-1878.72
-1885.61
-1895.3
-1912.47
-1932.39
-1953.06
-1987.3
-2016.58
-2048.81
-2097.66
-2142.7
-2178.32
-2237.53
-2310.07
-2359.77
-2413.91
-2493.86
-2588.44
-2658.39
-2722.79
-2810.04
-2918.37
-3033.05
-3124.73
-3215.07
-3309
-3418.9
-3543.08
-3663.06
-3755.8
-3862.79
-3944.39
-4059.12
-4178.84
-4313.62
-4383.81
-4624.97
-6888.61
-22871.8
-105231
-26290.2
5927.71
12012.4
21843.8
40505.7
76751.3
136378
127444
82344.8
54938
38708.1
28286.7
21762.8
17584.7
14821.9
12922.5
11617.5
10685.9
9958.58
9413.17
8933.26
8455.34
7925.01
7455.33
7094.02
6798.71
6337.28
5913.03
5402.33
4932.59
4552.36
4410.96
4429.58
4379.31
4014.77
3865.08
3273
2714.76
2312.75
1970.13
1743.51
1283.08
818.312
498
89.5483
-49.2452
-221.963
-326.965
-442.134
-537.994
-583.312
-513.068
-475.451
-346.031
-291.957
-16.352
212.025
450.354
739.845
842.373
1031.53
1204.18
1070.38
1203.29
969.267
1059.95
804.008
487.983
187.866
103.355
-234.779
-570.753
-215.378
-1750.3
-1866.76
-1819.5