/*--------------------------------*- C++ -*----------------------------------*\
| =========                 |                                                 |
| \\      /  F ield         | OpenFOAM: The Open Source CFD Toolbox           |
|  \\    /   O peration     | Version:  2.2.x                                 |
|   \\  /    A nd           | Web:      www.OpenFOAM.org                      |
|    \\/     M anipulation  |                                                 |
\*---------------------------------------------------------------------------*/
FoamFile
{
    version     2.0;
    format      ascii;
    class       volScalarField;
    location    "0.09";
    object      T;
}
// * * * * * * * * * * * * * * * * * * * * * * * * * * * * * * * * * * * * * //

dimensions      [0 0 0 1 0 0 0];

internalField   nonuniform List<scalar> 
1024
(
0.4
0.4
0.4
0.4
0.4
0.4
0.4
0.4
0.4
0.4
0.4
0.4
0.4
0.4
0.4
0.4
0.4
0.4
0.4
0.4
0.4
0.4
0.4
0.4
0.4
0.4
0.4
0.4
0.4
0.4
0.4
0.4
0.4
0.4
0.4
0.4
0.4
0.4
0.4
0.4
0.4
0.4
0.4
0.4
0.4
0.4
0.4
0.4
0.4
0.4
0.4
0.4
0.4
0.4
0.4
0.4
0.4
0.4
0.4
0.4
0.4
0.4
0.4
0.4
0.4
0.4
0.4
0.4
0.4
0.4
0.4
0.4
0.4
0.4
0.4
0.4
0.4
0.4
0.4
0.4
0.4
0.4
0.4
0.4
0.4
0.4
0.4
0.4
0.4
0.4
0.4
0.4
0.4
0.4
0.4
0.4
0.4
0.4
0.4
0.4
0.4
0.4
0.4
0.4
0.4
0.4
0.4
0.4
0.4
0.4
0.4
0.4
0.4
0.4
0.4
0.4
0.4
0.4
0.4
0.4
0.4
0.4
0.4
0.4
0.4
0.4
0.4
0.4
0.4
0.4
0.4
0.4
0.4
0.4
0.4
0.4
0.4
0.4
0.4
0.4
0.4
0.4
0.4
0.4
0.4
0.4
0.4
0.399999
0.399999
0.399998
0.399998
0.399997
0.399995
0.399993
0.39999
0.399986
0.39998
0.399972
0.399961
0.399946
0.399926
0.399901
0.399868
0.399825
0.399772
0.399705
0.399622
0.399522
0.399402
0.39926
0.399093
0.398901
0.398683
0.398437
0.398164
0.397863
0.397536
0.397184
0.396808
0.39641
0.395991
0.395552
0.395104
0.394664
0.394232
0.393805
0.393389
0.392974
0.392571
0.392167
0.391773
0.391381
0.390993
0.390609
0.390226
0.389846
0.389467
0.389089
0.388711
0.388334
0.387957
0.387579
0.387201
0.386821
0.386439
0.386055
0.385667
0.385279
0.384895
0.384512
0.384138
0.383768
0.383405
0.383059
0.382716
0.382399
0.382091
0.381806
0.381546
0.3813
0.381092
0.380897
0.380737
0.380599
0.380481
0.380397
0.380321
0.380274
0.380238
0.380213
0.380205
0.380196
0.380196
0.380198
0.380205
0.380225
0.38026
0.38031
0.380356
0.380394
0.380426
0.380451
0.380471
0.380486
0.380498
0.380505
0.380511
0.380515
0.380516
0.380517
0.380518
0.380517
0.380516
0.380512
0.380505
0.380494
0.380479
0.380461
0.380445
0.380432
0.380421
0.380412
0.380406
0.380401
0.380398
0.380396
0.380395
0.380395
0.380395
0.380395
0.380395
0.380395
0.380396
0.380396
0.380396
0.380395
0.380394
0.380391
0.380388
0.380384
0.380381
0.380378
0.380376
0.380374
0.380372
0.380371
0.380369
0.380367
0.380365
0.380364
0.380361
0.380358
0.380354
0.38035
0.380346
0.380343
0.380341
0.380338
0.380337
0.380336
0.380335
0.380334
0.380333
0.380332
0.380331
0.380331
0.38033
0.380329
0.380328
0.380326
0.380324
0.380321
0.380319
0.380316
0.380314
0.380313
0.380311
0.380311
0.38031
0.380309
0.380309
0.380309
0.380308
0.380308
0.380308
0.380307
0.380306
0.380305
0.380302
0.380299
0.380297
0.380295
0.380294
0.380294
0.380293
0.380293
0.380293
0.380293
0.380293
0.380292
0.380292
0.380291
0.380289
0.380287
0.380286
0.380285
0.380284
0.380284
0.380285
0.380285
0.380285
0.380286
0.380286
0.380286
0.380285
0.380283
0.38028
0.380279
0.380278
0.380278
0.380278
0.380279
0.380281
0.380282
0.380283
0.380284
0.380284
0.380283
0.38028
0.380277
0.380274
0.380274
0.380274
0.380275
0.380277
0.380282
0.380286
0.380288
0.380289
0.380289
0.380287
0.380281
0.380276
0.380289
0.380476
0.382179
0.399963
0.569811
0.828906
0.905948
0.923785
0.928144
0.929216
0.92949
0.929572
0.929595
0.929598
0.929587
0.929577
0.929547
0.929512
0.929493
0.929481
0.929471
0.929463
0.929458
0.929453
0.929452
0.929452
0.929452
0.929443
0.92942
0.929384
0.92935
0.929304
0.929257
0.9292
0.929134
0.92907
0.929019
0.92898
0.92895
0.928925
0.928913
0.928918
0.928947
0.929005
0.929097
0.929217
0.929349
0.929497
0.929676
0.929894
0.930173
0.930579
0.931167
0.932061
0.933082
0.933827
0.934234
0.934356
0.934259
0.93354
0.931426
0.92671
0.917573
0.901474
0.875281
0.835882
0.78138
0.712541
0.633443
0.560329
0.509229
0.473893
0.449338
0.432302
0.420558
0.412544
0.407136
0.403523
0.40112
0.399514
0.398421
0.397654
0.397095
0.396669
0.396335
0.396064
0.395835
0.395632
0.395449
0.395282
0.395132
0.394998
0.39488
0.394778
0.394681
0.394578
0.394465
0.394342
0.394216
0.394093
0.39398
0.393877
0.39378
0.393676
0.393561
0.393438
0.393315
0.393202
0.393108
0.393038
0.39298
0.392916
0.392838
0.392755
0.392654
0.392575
0.392512
0.39247
0.392455
0.392449
0.392413
0.392371
0.392264
0.392133
0.392054
0.392017
0.392089
0.392241
0.392328
0.392423
0.392456
0.392599
0.393154
0.394034
0.395316
0.396883
0.398683
0.400719
0.40276
0.40476
0.407196
0.410085
0.413244
0.41652
0.419533
0.422266
0.424156
0.426572
0.42968
0.433335
0.437555
0.441363
0.44542
0.450693
0.458026
0.452511
0.43643
0.397897
0.379749
0.374987
0.373764
0.37345
0.373381
0.373357
0.373341
0.373324
0.373301
0.373261
0.373213
0.373176
0.373154
0.37314
0.373126
0.373111
0.373093
0.373062
0.373017
0.372954
0.372862
0.372748
0.37261
0.37244
0.37223
0.371966
0.371622
0.371172
0.370769
0.370583
0.37054
0.370539
0.370667
0.370834
0.371219
0.371752
0.372481
0.373337
0.374377
0.37551
0.376709
0.37799
0.379302
0.380627
0.381971
0.383315
0.384671
0.386015
0.387352
0.388699
0.390037
0.391372
0.392712
0.394051
0.395386
0.39673
0.398068
0.399413
0.400756
0.402103
0.403452
0.404802
0.406156
0.40751
0.408868
0.410228
0.411589
0.412954
0.414318
0.415687
0.417055
0.418428
0.419801
0.421176
0.422553
0.42393
0.425312
0.426693
0.428078
0.429463
0.430853
0.432241
0.433635
0.435027
0.436424
0.43782
0.439221
0.44062
0.442025
0.443428
0.444836
0.446242
0.447654
0.449064
0.450479
0.451892
0.453309
0.454726
0.456146
0.457566
0.45899
0.460412
0.461838
0.463264
0.464692
0.46612
0.46755
0.468979
0.470411
0.471841
0.473272
0.474702
0.47613
0.477555
0.478976
0.480387
0.481784
0.483164
0.484526
0.485867
0.487183
0.488467
0.489713
0.490914
0.49206
0.493144
0.494155
0.495085
0.495928
0.496679
0.497335
0.497897
0.498369
0.498757
0.499069
0.499315
0.499505
0.499648
0.499754
0.499831
0.499886
0.499924
0.49995
0.499968
0.499979
0.499987
0.499992
0.499995
0.499997
0.499998
0.499999
0.499999
0.5
0.5
0.5
0.5
0.5
0.5
0.5
0.5
0.5
0.5
0.5
0.5
0.5
0.5
0.5
0.5
0.5
0.5
0.5
0.5
0.5
0.5
0.5
0.5
0.5
0.5
0.5
0.5
0.5
0.5
0.5
0.5
0.5
0.5
0.5
0.5
0.5
0.5
0.5
0.5
0.5
0.5
0.5
0.5
0.5
0.5
0.5
0.5
0.5
0.5
0.5
0.5
0.5
0.5
0.5
0.5
0.5
0.5
0.5
0.5
0.5
0.5
0.5
0.5
0.5
0.5
0.5
0.5
0.5
0.5
0.5
0.5
0.5
0.5
0.5
0.5
0.5
0.5
0.5
0.5
0.5
0.5
0.5
0.5
0.5
0.5
0.5
0.5
0.5
0.5
0.5
0.5
0.5
0.5
0.5
0.5
0.5
0.5
0.5
0.5
0.5
0.5
0.5
0.5
0.5
0.5
0.5
0.5
0.5
0.5
0.5
0.5
0.5
0.5
0.5
0.5
0.5
0.5
0.5
0.5
0.5
0.5
0.5
0.5
0.5
0.5
0.5
0.5
0.5
0.5
0.5
0.5
0.5
0.5
0.5
0.5
0.5
0.5
0.5
0.5
0.5
0.5
0.5
0.5
0.5
0.5
0.5
0.5
0.5
0.5
0.5
0.5
0.5
0.5
0.5
0.5
0.5
0.5
0.5
0.5
0.5
0.5
0.5
0.5
0.5
0.5
0.5
0.5
0.5
0.5
0.5
0.5
0.5
0.5
0.5
0.5
0.5
0.5
0.5
0.5
0.5
0.5
0.5
0.5
0.5
0.5
0.5
0.5
0.5
0.5
0.5
0.5
0.5
0.5
0.5
0.5
0.5
0.5
0.5
0.5
0.5
0.5
0.5
0.5
0.5
0.5
0.5
0.5
0.5
0.5
0.5
0.5
0.5
0.5
0.5
0.5
0.5
0.5
0.5
0.5
0.5
0.5
0.5
0.5
0.5
0.5
0.5
0.5
0.5
0.5
0.5
0.5
0.5
0.5
0.5
0.5
0.5
0.5
0.5
0.5
0.5
0.5
0.5
0.5
0.5
0.5
0.5
0.5
0.5
0.5
0.5
0.5
0.5
0.5
0.5
0.5
0.5
0.5
0.5
0.5
0.5
0.5
0.5
0.5
0.5
0.5
0.5
0.5
0.5
0.5
0.5
0.5
0.5
0.5
0.5
0.5
0.5
0.5
0.5
0.5
0.5
0.5
0.5
0.5
0.5
0.5
0.5
0.5
0.5
0.5
0.5
0.5
0.5
0.5
0.5
0.5
0.5
0.5
0.5
0.5
0.5
0.5
0.5
0.5
0.5
0.5
0.5
0.5
0.5
0.5
0.5
0.5
0.5
0.5
0.5
0.5
0.5
0.5
0.5
0.5
0.5
0.5
0.5
0.5
0.5
0.5
0.5
0.5
0.5
0.5
0.5
)
;

boundaryField
{
    front-back
    {
        type            empty;
    }
    inlet-outlet
    {
        type            zeroGradient;
    }
    top-down
    {
        type            empty;
    }
}


// ************************************************************************* //
