/*--------------------------------*- C++ -*----------------------------------*\
| =========                 |                                                 |
| \\      /  F ield         | OpenFOAM: The Open Source CFD Toolbox           |
|  \\    /   O peration     | Version:  2.2.x                                 |
|   \\  /    A nd           | Web:      www.OpenFOAM.org                      |
|    \\/     M anipulation  |                                                 |
\*---------------------------------------------------------------------------*/
FoamFile
{
    version     2.0;
    format      ascii;
    class       surfaceScalarField;
    location    "0.95";
    object      cfmax;
}
// * * * * * * * * * * * * * * * * * * * * * * * * * * * * * * * * * * * * * //

dimensions      [0 3 -1 0 0 0 0];

internalField   nonuniform List<scalar> 
28084
(
0.00103347
0.00102899
0.00102514
0.0010219
0.00101925
0.00101715
0.00101556
0.00101446
0.0010138
0.00101356
0.00101369
0.00101415
0.00101492
0.00101594
0.00101719
0.00101863
0.00102022
0.00102194
0.00102374
0.0010256
0.00102748
0.00102938
0.00103125
0.00103308
0.00103485
0.000867869
0.000772663
0.00077356
0.000773475
0.000772285
0.00077006
0.000766989
0.000763346
0.000759426
0.000755496
0.000751755
0.000748319
0.000745231
0.000742475
0.000740002
0.000737745
0.000735633
0.0007336
0.000731586
0.000729536
0.00073766
0.000746135
0.000754915
0.000763932
0.000773124
0.000782429
0.000791787
0.000801139
0.000810428
0.0008196
0.000828602
0.000837383
0.000845896
0.000854096
0.000861943
0.000869395
0.000876418
0.000882978
0.000889042
0.000894583
0.000899572
0.000903997
0.000907839
0.000911084
0.000913713
0.000915708
0.000917049
0.000917718
0.000917696
0.000916969
0.000915526
0.000913364
0.000910486
0.000906904
0.000902638
0.000897717
0.000892179
0.00088607
0.000879445
0.000872365
0.000864896
0.000857111
0.000849082
0.00084089
0.000832616
0.000824343
0.000816161
0.000808163
0.000800447
0.000793116
0.000786281
0.000780051
0.000774542
0.000769869
0.000766145
0.000763481
0.000761982
0.000761749
0.000762875
0.000765443
0.000769521
0.00077516
0.000782387
0.000791194
0.00080153
0.000813292
0.000826313
0.000840354
0.000855095
0.000870144
0.000885053
0.000899371
0.000912772
0.00144695
0.00144445
0.00103834
0.00143891
0.00103701
0.00143036
0.00103628
0.00141888
0.00103613
0.00140457
0.00103652
0.00138752
0.00103742
0.00136789
0.00103881
0.00134583
0.00104065
0.00132151
0.0010429
0.00129529
0.00104552
0.00126748
0.00104847
0.00123793
0.00105172
0.00120683
0.00105522
0.0011744
0.00105893
0.00114085
0.00106282
0.00110637
0.00106683
0.00107116
0.00107094
0.00103541
0.0010751
0.000999315
0.00107929
0.000963037
0.00108347
0.000926741
0.00108761
0.000890577
0.00109167
0.000854685
0.00109564
0.000819189
0.0010995
0.0012499
0.00110321
0.00132873
0.000893967
0.00127814
0.000793764
0.00122462
0.000792295
0.00116862
0.000791734
0.00111141
0.000790983
0.00105463
0.000789875
0.000999516
0.000788559
0.00094676
0.000787217
0.000896644
0.000785955
0.000849192
0.000784796
0.000804294
0.000783714
0.000761785
0.000782663
0.000721485
0.000781595
0.000683218
0.00078047
0.000646829
0.000779254
0.000612183
0.000777922
0.000579168
0.000776451
0.000547694
0.000774822
0.000517685
0.000773016
0.000517447
0.000771012
0.000518487
0.00077799
0.000519472
0.000785169
0.000520402
0.000792479
0.000521263
0.000799854
0.000522046
0.000807233
0.000522745
0.00081456
0.000523367
0.000821786
0.000523926
0.000828871
0.000524445
0.000835784
0.000524954
0.000842503
0.000525489
0.000849014
0.000526089
0.00085531
0.000526794
0.000861389
0.000527992
0.00086725
0.000529427
0.000872894
0.000531076
0.000878319
0.000532947
0.000883518
0.000535043
0.000888476
0.000537352
0.000893159
0.00053985
0.000897525
0.000542503
0.000901517
0.000545273
0.000905058
0.00054812
0.000908068
0.000551006
0.000910468
0.0005539
0.000912184
0.000556782
0.000913155
0.000559644
0.000913343
0.000562496
0.000912729
0.000565358
0.000911321
0.000568262
0.000909148
0.000571244
0.000906257
0.000574336
0.000902704
0.000577566
0.000898548
0.000580947
0.000893839
0.000584484
0.000888619
0.000588166
0.000882919
0.000591976
0.00087676
0.000595893
0.000870158
0.000599896
0.000863129
0.000603968
0.000855699
0.000608102
0.000847901
0.000612295
0.000839785
0.000616552
0.000831412
0.000620881
0.000822855
0.00062529
0.000814192
0.000629789
0.000805508
0.00063438
0.000796886
0.000639067
0.00078841
0.000643852
0.000780166
0.000648734
0.000772236
0.000653715
0.000764706
0.000658796
0.000757666
0.000663982
0.000751204
0.000669277
0.000745413
0.000674686
0.000740382
0.000680214
0.000736203
0.000685871
0.000732967
0.000691666
0.000730763
0.000697614
0.000729678
0.000703733
0.0007298
0.000710047
0.000731213
0.000716586
0.000733997
0.00072339
0.000738229
0.000730508
0.000743974
0.000737999
0.000751286
0.000745934
0.000760201
0.000754394
0.000770727
0.000763467
0.000782837
0.000773245
0.000796465
0.000783825
0.000811507
0.000795311
0.000827841
0.00080786
0.000845379
0.000864696
0.000864192
0.00144822
0.00144528
0.00104484
0.00143931
0.00104663
0.00143035
0.00104898
0.00141848
0.00105187
0.00140379
0.00105526
0.0013864
0.00105914
0.00136751
0.00106347
0.00134639
0.00106821
0.00132293
0.00107333
0.00129731
0.00107879
0.00126971
0.00108454
0.00124035
0.00109054
0.00120941
0.00109674
0.00117711
0.00110311
0.00114365
0.0011096
0.00110924
0.00111616
0.00107407
0.00112276
0.00103835
0.00112935
0.00100224
0.0011359
0.00096594
0.00114237
0.000929597
0.00114873
0.000893368
0.00115495
0.000857392
0.00116099
0.000821797
0.00116685
0.00125109
0.00117248
0.00132786
0.000969142
0.00127734
0.000861636
0.00122389
0.000861768
0.00116794
0.000862069
0.00111079
0.000861921
0.00105407
0.000861216
0.000999009
0.00086004
0.00094631
0.000858584
0.000896251
0.000857041
0.000848857
0.000855541
0.000804017
0.000854142
0.000761719
0.000852841
0.00072146
0.000851604
0.00068312
0.000850383
0.000646782
0.000849134
0.000612191
0.000847823
0.000579231
0.000846423
0.000547811
0.000844921
0.000517855
0.00084331
0.000519971
0.000841594
0.000521078
0.000848273
0.000522116
0.000855187
0.000523086
0.000862263
0.000523975
0.000869456
0.000524771
0.000876712
0.000525471
0.000883977
0.000526081
0.000891196
0.000526615
0.000898315
0.000527097
0.000905284
0.000527558
0.00091206
0.000528033
0.000918599
0.000528562
0.000924869
0.000529186
0.000930837
0.000529942
0.000936482
0.000530865
0.000941782
0.000531982
0.000946721
0.000533309
0.000951287
0.000534851
0.000955451
0.000536601
0.000959195
0.000538785
0.000962494
0.00054156
0.000965318
0.000544458
0.00096763
0.000547435
0.000969385
0.000550456
0.000970534
0.000553486
0.000971026
0.000556505
0.000970809
0.000559505
0.000969836
0.000562661
0.000968068
0.000565961
0.00096548
0.000569292
0.000962064
0.000572662
0.000957829
0.000576086
0.000952803
0.000579587
0.000947031
0.000583186
0.000940569
0.000586901
0.000933482
0.000590745
0.000925835
0.00059472
0.000917687
0.000598818
0.000909092
0.000603024
0.000900098
0.000607319
0.000890746
0.000611685
0.000881076
0.000616106
0.000871134
0.000620573
0.000860974
0.000625087
0.000850659
0.000629654
0.000840267
0.000634284
0.00082988
0.000638986
0.000819589
0.000643769
0.000809484
0.000648638
0.000799656
0.000653597
0.000790191
0.000658646
0.000781174
0.000663786
0.000772689
0.000669021
0.00076482
0.000674356
0.000757653
0.0006798
0.000751271
0.000685362
0.000745762
0.000691055
0.00074121
0.000696895
0.000737697
0.000702899
0.000735303
0.000709091
0.000734106
0.000715502
0.000734181
0.00072217
0.000735602
0.000729146
0.00073844
0.000736492
0.000742765
0.000744287
0.000748644
0.000752623
0.00075614
0.000761598
0.00076531
0.000771308
0.000776193
0.00078183
0.0007888
0.000793212
0.000803105
0.000805506
0.000819057
0.000818861
0.000836639
0.000875347
0.000856042
0.00144723
0.00144388
0.00105298
0.0014375
0.00105784
0.00142816
0.00106322
0.00141756
0.00106911
0.00140475
0.00107547
0.00138914
0.00108228
0.00137083
0.00108951
0.00134999
0.00109712
0.00132678
0.00110507
0.00130137
0.00111333
0.00127395
0.00112183
0.00124473
0.00113055
0.00121392
0.00113943
0.0011817
0.00114842
0.0011483
0.00115748
0.00111392
0.00116655
0.00107875
0.00117561
0.001043
0.0011846
0.00100685
0.00119348
0.000970463
0.00120222
0.00093402
0.00121077
0.00089767
0.00121911
0.000861556
0.00122721
0.000825806
0.00123503
0.00124887
0.00124257
0.00131961
0.00105019
0.00126371
0.000933971
0.00120881
0.000936316
0.00115424
0.000937673
0.00109998
0.000938069
0.00104638
0.000937651
0.000993951
0.000936581
0.000943194
0.000935052
0.000894449
0.000933267
0.000848215
0.000931408
0.000804253
0.000929603
0.000762128
0.00092792
0.000721842
0.000926371
0.000683356
0.000924933
0.000646619
0.000923563
0.000611654
0.000922217
0.000578537
0.000920848
0.00054698
0.000919423
0.000516921
0.000917912
0.000517798
0.0009163
0.000518651
0.000922358
0.000519515
0.000928683
0.000520383
0.000935215
0.00052124
0.000941904
0.000522078
0.000948696
0.000522888
0.000955539
0.000523663
0.000962379
0.000524401
0.000969165
0.000525105
0.000975844
0.000525782
0.000982366
0.000526442
0.00098868
0.000527103
0.00099474
0.000527786
0.0010005
0.000528514
0.00100591
0.000529313
0.00101093
0.000530206
0.0010155
0.000531378
0.0010196
0.000533661
0.00102319
0.000536076
0.00102624
0.00053863
0.00102874
0.000541323
0.00103066
0.000544156
0.00103197
0.000547126
0.00103264
0.000550226
0.00103267
0.000553448
0.00103201
0.00055678
0.00103064
0.000560208
0.00102853
0.00056372
0.00102565
0.000567303
0.00102199
0.000570947
0.00101754
0.000574645
0.00101228
0.000578397
0.00100623
0.000582206
0.000999411
0.000586078
0.000991856
0.000590025
0.000983611
0.000594056
0.000974735
0.000598179
0.00096529
0.000602399
0.000955341
0.000606713
0.000944952
0.000611114
0.000934185
0.000615589
0.000923097
0.000620127
0.000911743
0.000624714
0.000900183
0.000629344
0.000888477
0.000634015
0.000876696
0.00063873
0.000864917
0.000643499
0.000853227
0.000648332
0.000841716
0.000653239
0.00083048
0.000658227
0.00081961
0.000663302
0.000809199
0.000668471
0.000799334
0.000673736
0.0007901
0.000679106
0.000781581
0.000684591
0.00077386
0.000690205
0.00076702
0.000695963
0.000761143
0.000701886
0.000756307
0.000707996
0.000752592
0.000714321
0.000750071
0.000720895
0.000748816
0.000727761
0.000748899
0.000734973
0.00075039
0.000742599
0.000753361
0.000750723
0.000757883
0.000759446
0.000764031
0.000768882
0.000771879
0.000779143
0.000781494
0.000790314
0.000792924
0.000802417
0.000806173
0.000815419
0.000821179
0.00082939
0.000837855
0.000882732
0.000856301
0.00144401
0.00144151
0.00106275
0.00143809
0.00107063
0.00143159
0.001079
0.00142207
0.00108783
0.00140959
0.00109711
0.00139428
0.00110681
0.00137625
0.0011169
0.00135566
0.00112734
0.00133266
0.00113808
0.00130744
0.00114909
0.00128018
0.00116032
0.00125108
0.00117171
0.00122034
0.00118322
0.00118818
0.00119479
0.0011548
0.00120639
0.0011204
0.00121795
0.00108519
0.00122942
0.00104936
0.00124078
0.0010131
0.00125196
0.000976592
0.00126292
0.000939996
0.00127364
0.000903473
0.00128408
0.000867165
0.00129419
0.000831204
0.00130397
0.0012375
0.00131337
0.00132489
0.00108515
0.00127075
0.000965998
0.00121637
0.000968847
0.00116171
0.000971562
0.00110697
0.000973629
0.0010527
0.000974967
0.000999625
0.000975698
0.000948301
0.000976047
0.00089909
0.000976225
0.00085214
0.000976372
0.000807452
0.000976544
0.00076494
0.000976735
0.000724484
0.000976906
0.00068596
0.000977
0.000649256
0.000976966
0.000614277
0.000976756
0.000580941
0.000976334
0.00054918
0.000975669
0.000518935
0.000974736
0.000516375
0.000973513
0.000517021
0.000978924
0.000517805
0.000984542
0.000518678
0.000990312
0.000519549
0.000996173
0.000520405
0.00100207
0.000521235
0.00100795
0.000522028
0.00101375
0.000522776
0.00101942
0.000523474
0.00102491
0.000524122
0.00103018
0.000524726
0.00103518
0.000525297
0.00103988
0.000526231
0.00104426
0.000527975
0.00104829
0.00052984
0.00105198
0.000531844
0.0010553
0.000534002
0.00105827
0.000536328
0.00106085
0.000538832
0.00106304
0.000541518
0.00106481
0.000544383
0.00106614
0.000547421
0.00106698
0.000550617
0.0010673
0.000553956
0.00106705
0.000557417
0.00106618
0.00056098
0.00106464
0.000564623
0.00106237
0.000568329
0.00105935
0.000572083
0.00105554
0.000575875
0.00105092
0.000579701
0.00104547
0.000583562
0.00103921
0.000587465
0.00103217
0.000591419
0.00102437
0.000595436
0.00101586
0.000599528
0.0010067
0.000603705
0.000996959
0.00060797
0.000986689
0.000612324
0.000975958
0.000616758
0.000964824
0.000621263
0.000953346
0.000625825
0.000941577
0.000630429
0.000929573
0.000635066
0.000917392
0.000639731
0.0009051
0.000644427
0.00089277
0.000649162
0.000880487
0.000653947
0.00086834
0.000658797
0.000856428
0.000663724
0.000844846
0.000668739
0.00083369
0.000673853
0.000823053
0.000679073
0.000813022
0.00068441
0.000803682
0.000689877
0.000795116
0.000695491
0.000787405
0.000701273
0.000780632
0.000707247
0.000774875
0.000713441
0.000770213
0.000719886
0.00076672
0.00072662
0.000764467
0.000733688
0.000763526
0.000741146
0.000763967
0.000749064
0.00076586
0.000757527
0.000769279
0.000766641
0.000774302
0.00077653
0.000781007
0.000787325
0.000789476
0.000799134
0.000799778
0.000811988
0.000811943
0.000825794
0.000825912
0.000840494
0.00084152
0.000890343
0.0008587
0.00144709
0.00144715
0.00107416
0.00144408
0.00108501
0.00143792
0.0010963
0.00142871
0.00110804
0.00141655
0.00112019
0.00140151
0.00113272
0.00138374
0.00114562
0.00136337
0.00115883
0.00134057
0.00117232
0.0013155
0.00118604
0.00128837
0.00119994
0.00125935
0.00121397
0.00122867
0.00122807
0.00119652
0.00124218
0.00116312
0.00125627
0.00112866
0.00127027
0.00109336
0.00128413
0.00105741
0.00129781
0.001021
0.00131125
0.000984311
0.00132441
0.000947511
0.00133726
0.00091076
0.00134975
0.000874204
0.00136185
0.000837977
0.00137354
0.00123552
0.00138478
0.00132282
0.00115755
0.00126882
0.00102991
0.00121456
0.00103355
0.00116004
0.00103674
0.00110541
0.00103911
0.00105127
0.00104062
0.000998854
0.00104139
0.000948194
0.00104165
0.000899454
0.00104164
0.000852833
0.00104156
0.000808376
0.00104151
0.00076603
0.00104152
0.000725698
0.00104155
0.000687269
0.00104155
0.000650643
0.00104148
0.000615729
0.00104127
0.000582453
0.00104089
0.00055075
0.00104031
0.000520562
0.0010395
0.000518829
0.00103845
0.000519752
0.0010433
0.000520672
0.00104833
0.000521586
0.0010535
0.000522482
0.00105875
0.000523349
0.00106403
0.000524173
0.00106927
0.000524945
0.00107443
0.000525657
0.00107944
0.000526305
0.00108427
0.000526889
0.00108884
0.000527415
0.00109313
0.000527895
0.00109709
0.000528345
0.00110069
0.000529299
0.00110391
0.000531283
0.00110673
0.000533412
0.00110914
0.000535703
0.00111112
0.000538171
0.00111267
0.000540825
0.00111377
0.000543671
0.00111442
0.00054671
0.00111458
0.000549934
0.00111425
0.000553333
0.00111339
0.000556889
0.00111196
0.000560581
0.00110991
0.000564387
0.00110722
0.000568282
0.00110383
0.000572243
0.00109971
0.000576253
0.00109483
0.000580296
0.00108916
0.000584365
0.00108271
0.000588457
0.00107547
0.000592579
0.00106746
0.000596738
0.00105874
0.000600947
0.00104934
0.000605215
0.00103932
0.000609554
0.00102875
0.000613965
0.0010177
0.000618449
0.00100621
0.000622996
0.000994353
0.000627594
0.000982179
0.000632229
0.000969738
0.000636884
0.000957079
0.000641549
0.000944254
0.000646219
0.000931325
0.000650897
0.00091836
0.000655591
0.000905438
0.000660318
0.000892648
0.000665095
0.000880085
0.000669939
0.000867845
0.000674868
0.000856024
0.000679895
0.000844712
0.000685033
0.000833997
0.000690298
0.000823962
0.000695708
0.000814687
0.000701283
0.000806251
0.000707052
0.000798734
0.000713043
0.000792213
0.00071929
0.000786766
0.00072583
0.000782465
0.000732705
0.00077938
0.000739963
0.000777581
0.000747662
0.000777135
0.000755874
0.000778111
0.000764685
0.00078058
0.000774202
0.000784618
0.000784557
0.000790305
0.000795894
0.000797726
0.000808353
0.000806963
0.000821997
0.00081807
0.000836716
0.000831009
0.000852309
0.000845576
0.000899015
0.000861521
0.00145458
0.00145496
0.00108721
0.00145222
0.00110097
0.00144638
0.00111514
0.00143747
0.00112971
0.00142559
0.00114467
0.00141082
0.00115999
0.00139328
0.00117564
0.00137311
0.00119158
0.00135047
0.00120776
0.00132554
0.00122414
0.0012985
0.00124066
0.00126954
0.00125727
0.00123887
0.00127391
0.0012067
0.00129053
0.00117324
0.00130706
0.00113868
0.00132345
0.00110325
0.00133965
0.00106713
0.00135561
0.00103052
0.00137127
0.000993604
0.00138659
0.000956548
0.00140152
0.000919517
0.00141604
0.000882659
0.00143009
0.00084611
0.00144365
0.00122921
0.0014567
0.00132274
0.00121889
0.00126836
0.00108442
0.00121426
0.00108915
0.00116028
0.00109337
0.00110637
0.00109667
0.00105291
0.00109902
0.0010005
0.00110054
0.000949686
0.00110148
0.000900866
0.00110211
0.000854222
0.00110261
0.000809779
0.00110311
0.000767465
0.00110362
0.00072717
0.00110413
0.000688779
0.00110457
0.000652185
0.0011049
0.0006173
0.00110505
0.000584048
0.001105
0.000552364
0.00110471
0.000522192
0.00110416
0.000519531
0.00110334
0.00052043
0.00110758
0.000521322
0.00111199
0.000522198
0.00111652
0.000523047
0.00112111
0.000523859
0.0011257
0.000524622
0.00113025
0.000525327
0.00113468
0.000525968
0.00113895
0.00052654
0.00114301
0.000527044
0.0011468
0.000527485
0.00115028
0.000527873
0.00115341
0.000529157
0.00115616
0.000531126
0.00115851
0.00053323
0.00116044
0.000535487
0.00116194
0.000537913
0.001163
0.000540524
0.00116362
0.000543329
0.00116377
0.000546335
0.00116346
0.000549541
0.00116266
0.000552942
0.00116134
0.000556525
0.00115948
0.000560274
0.00115705
0.000564167
0.001154
0.00056818
0.0011503
0.00057229
0.0011459
0.000576472
0.00114077
0.000580706
0.00113488
0.000584976
0.0011282
0.000589272
0.00112075
0.00059359
0.00111251
0.000597933
0.00110353
0.000602307
0.00109383
0.000606723
0.00108348
0.00061119
0.00107252
0.000615716
0.00106103
0.000620302
0.00104908
0.000624945
0.00103673
0.000629634
0.00102402
0.000634354
0.00101103
0.000639089
0.000997788
0.000643819
0.000984349
0.000648534
0.000970761
0.000653228
0.000957081
0.000657902
0.000943377
0.00066257
0.000929726
0.000667247
0.000916215
0.000671956
0.000902936
0.000676718
0.000889987
0.000681555
0.000877461
0.000686484
0.000865447
0.000691525
0.000854032
0.000696698
0.000843295
0.000702026
0.000833314
0.000707538
0.000824166
0.000713265
0.000815927
0.000719247
0.000808674
0.000725521
0.00080248
0.000732133
0.000797416
0.000739128
0.000793551
0.00074656
0.00079095
0.00075449
0.000789679
0.000762993
0.000789803
0.000772156
0.000791388
0.000782088
0.000794507
0.000792924
0.000799237
0.000804822
0.000805663
0.000817948
0.000813875
0.000832409
0.000823944
0.000848113
0.000835867
0.000864746
0.000849434
0.00090884
0.000864246
0.00146423
0.00146492
0.00110193
0.00146248
0.00111852
0.00145693
0.0011355
0.00144831
0.00115285
0.00143669
0.00117056
0.00142216
0.0011886
0.00140483
0.00120695
0.00138484
0.00122555
0.00136235
0.00124437
0.00133752
0.00126335
0.00131055
0.00128244
0.00128162
0.00130158
0.00125093
0.00132071
0.0012187
0.00133977
0.00118514
0.00135869
0.00115045
0.00137743
0.00111484
0.00139592
0.0010785
0.00141411
0.00104165
0.00143195
0.00100445
0.00144938
0.000967089
0.00146636
0.000929725
0.00148284
0.000892512
0.00149881
0.000855587
0.00151421
0.00122769
0.00152902
0.00132469
0.00127988
0.00127096
0.00113847
0.00121706
0.00114412
0.00116295
0.00114927
0.00110874
0.00115345
0.00105493
0.00115658
0.00100221
0.00115881
0.000951197
0.00116041
0.000902275
0.00116164
0.000855608
0.00116273
0.000811194
0.00116378
0.000768936
0.00116483
0.000728709
0.00116584
0.000690384
0.00116675
0.000653852
0.0011675
0.000619021
0.00116805
0.000585814
0.00116835
0.000554168
0.00116837
0.000524028
0.00116809
0.000520089
0.0011675
0.000520991
0.00117114
0.000521878
0.00117493
0.000522737
0.00117881
0.000523558
0.00118272
0.000524331
0.00118662
0.000525045
0.00119044
0.00052569
0.00119413
0.000526261
0.00119763
0.000526751
0.00120089
0.000527162
0.00120386
0.000527637
0.0012065
0.000529462
0.00120876
0.000531397
0.00121064
0.000533459
0.0012121
0.000535667
0.00121313
0.000538039
0.00121372
0.000540594
0.00121387
0.000543345
0.00121357
0.000546304
0.00121281
0.000549476
0.00121158
0.000552859
0.00120986
0.000556445
0.00120762
0.000560222
0.00120484
0.000564171
0.00120148
0.00056827
0.00119751
0.000572493
0.00119287
0.000576815
0.00118753
0.000581212
0.00118145
0.000585662
0.00117461
0.000590147
0.00116698
0.000594658
0.00115857
0.00059919
0.00114939
0.000603744
0.00113945
0.000608325
0.00112881
0.000612943
0.00111752
0.000617605
0.00110565
0.000622317
0.00109325
0.000627077
0.00108041
0.000631881
0.00106717
0.000636715
0.00105361
0.000641561
0.00103977
0.000646399
0.0010257
0.00065121
0.00101145
0.00065598
0.000997061
0.000660703
0.000982593
0.000665381
0.000968112
0.000670026
0.000953693
0.000674659
0.000939423
0.000679303
0.000925395
0.000683983
0.000911704
0.000688724
0.000898444
0.000693549
0.000885702
0.000698482
0.000873563
0.000703549
0.000862103
0.000708778
0.000851399
0.000714206
0.000841526
0.000719872
0.000832556
0.000725822
0.000824565
0.000732102
0.000817624
0.000738763
0.000811802
0.000745858
0.000807165
0.000753448
0.000803776
0.000761598
0.000801695
0.000770385
0.000800985
0.000779901
0.000801709
0.000790255
0.000803935
0.000801585
0.000807735
0.000814059
0.000813193
0.000827865
0.000820401
0.000843157
0.000829446
0.000859887
0.000840358
0.000877661
0.000852952
0.000919687
0.00086672
0.00147602
0.00147699
0.00111832
0.00147483
0.00113767
0.00146956
0.00115738
0.0014612
0.00117744
0.00144983
0.00119783
0.00143551
0.00121853
0.00141838
0.00123951
0.00139855
0.00126071
0.00137618
0.0012821
0.00135143
0.00130363
0.00132449
0.00132522
0.00129555
0.00134683
0.00126482
0.00136839
0.0012325
0.00138984
0.0011988
0.00141111
0.00116393
0.00143214
0.00112809
0.00145287
0.00109151
0.00147324
0.00105436
0.00149319
0.00101683
0.00151268
0.000979113
0.00153166
0.000941365
0.00155008
0.000903743
0.0015679
0.00086639
0.0015851
0.00123086
0.00160164
0.00132594
0.00134329
0.00127267
0.00119417
0.00121894
0.00120063
0.00116478
0.0012066
0.00111037
0.00121153
0.00105635
0.00121532
0.00100348
0.00121814
0.000952385
0.00122027
0.000903462
0.001222
0.000856849
0.00122356
0.000812517
0.00122506
0.000770354
0.00122654
0.00073022
0.00122796
0.000691982
0.00122926
0.000655526
0.00123037
0.000620759
0.00123125
0.000587608
0.00123185
0.000556009
0.00123214
0.000525909
0.0012321
0.00052067
0.00123172
0.000521592
0.00123477
0.00052248
0.00123794
0.000523326
0.00124117
0.000524118
0.00124442
0.000524846
0.00124763
0.0005255
0.00125074
0.000526072
0.00125369
0.000526553
0.00125642
0.00052694
0.00125889
0.000528257
0.00126105
0.000530053
0.00126286
0.000531954
0.00126427
0.000533974
0.00126528
0.000536132
0.00126585
0.000538447
0.00126598
0.00054094
0.00126566
0.000543629
0.0012649
0.000546528
0.00126367
0.000549648
0.00126198
0.000552992
0.00125982
0.000556559
0.00125717
0.000560341
0.00125399
0.000564321
0.00125028
0.00056848
0.00124598
0.000572794
0.00124105
0.000577238
0.00123546
0.000581782
0.00122917
0.000586402
0.00122214
0.000591076
0.00121433
0.000595785
0.00120575
0.000600518
0.00119637
0.00060527
0.00118623
0.00061004
0.00117534
0.000614834
0.00116375
0.000619658
0.00115152
0.000624518
0.00113871
0.000629418
0.0011254
0.000634355
0.00111165
0.00063932
0.00109753
0.000644297
0.00108309
0.000649267
0.0010684
0.000654207
0.00105348
0.000659095
0.0010384
0.000663917
0.00102319
0.000668665
0.00100791
0.000673342
0.000992635
0.000677962
0.000977428
0.000682546
0.000962381
0.000687119
0.000947585
0.000691711
0.000933135
0.000696348
0.000919124
0.000701058
0.000905638
0.000705871
0.000892758
0.000710816
0.000880561
0.00071593
0.00086912
0.000721255
0.000858507
0.000726841
0.000848795
0.000732738
0.000840056
0.000739002
0.00083236
0.000745693
0.000825774
0.00075287
0.000820361
0.000760601
0.00081618
0.000768956
0.000813291
0.000778018
0.00081175
0.000787881
0.000811618
0.000798659
0.000812958
0.00081049
0.00081584
0.000823549
0.000820342
0.000838044
0.000826558
0.000854171
0.000834587
0.000871938
0.00084449
0.000890915
0.000856121
0.000931368
0.000868912
0.0014899
0.00149113
0.00113639
0.00148923
0.00115843
0.00148421
0.0011808
0.0014761
0.00120349
0.00146495
0.00122649
0.00145084
0.00124978
0.00143388
0.00127331
0.00141419
0.00129705
0.00139191
0.00132094
0.00136722
0.00134494
0.0013403
0.00136898
0.00131132
0.001393
0.00128051
0.00141692
0.00124806
0.00144069
0.00121418
0.00146424
0.0011791
0.0014875
0.001143
0.00151041
0.00110611
0.0015329
0.00106862
0.00155492
0.00103072
0.00157642
0.000992598
0.00159734
0.000954415
0.00161764
0.000916333
0.00163728
0.000878498
0.00165622
0.00123234
0.00167444
0.00132735
0.00140707
0.00127451
0.00124975
0.0012209
0.00125701
0.00116662
0.00126378
0.00111197
0.00126943
0.00105771
0.00127388
0.00100467
0.00127727
0.000953513
0.00127993
0.000904609
0.00128216
0.000858071
0.00128421
0.000813842
0.00128618
0.000771789
0.00128811
0.00073176
0.00128995
0.000693615
0.00129164
0.000657239
0.00129311
0.000622541
0.00129432
0.000589446
0.00129522
0.000557895
0.00129578
0.000527835
0.00129599
0.000521065
0.00129581
0.000521992
0.00129826
0.00052287
0.0013008
0.00052369
0.00130339
0.000524441
0.00130597
0.000525113
0.00130849
0.000525697
0.00131088
0.000526184
0.00131309
0.000527523
0.00131506
0.000529191
0.00131674
0.000530954
0.00131808
0.000532818
0.00131905
0.000534795
0.00131961
0.000536902
0.00131974
0.000539158
0.00131943
0.000541584
0.00131866
0.000544201
0.00131744
0.000547028
0.00131576
0.00055008
0.00131362
0.000553366
0.00131101
0.000556889
0.00130792
0.000560647
0.00130434
0.00056463
0.00130024
0.000568821
0.00129559
0.000573198
0.00129035
0.000577736
0.00128448
0.000582408
0.00127795
0.000587184
0.0012707
0.000592038
0.00126271
0.000596946
0.00125395
0.00060189
0.0012444
0.000606856
0.00123407
0.000611839
0.00122296
0.000616837
0.00121112
0.000621853
0.00119858
0.000626893
0.00118541
0.000631961
0.00117167
0.000637057
0.00115744
0.000642176
0.00114278
0.000647306
0.00112777
0.000652429
0.00111246
0.000657522
0.00109689
0.000662561
0.00108112
0.000667522
0.0010652
0.000672388
0.00104916
0.000677153
0.00103306
0.000681821
0.00101697
0.000686405
0.00100096
0.000690928
0.000985122
0.000695419
0.000969546
0.000699909
0.000954326
0.000704428
0.000939553
0.000709008
0.000925312
0.000713682
0.000911682
0.000718488
0.000898737
0.000723467
0.000886548
0.00072867
0.000875187
0.000734153
0.000864724
0.000739976
0.00085523
0.000746204
0.000846772
0.000752903
0.000839414
0.000760141
0.000833219
0.000767994
0.000828242
0.000776538
0.00082454
0.000785861
0.000822166
0.000796062
0.000821178
0.000807258
0.000821634
0.000819589
0.000823601
0.000833235
0.000827154
0.000848419
0.000832387
0.000865374
0.000839406
0.000884173
0.000848299
0.00090438
0.000858971
0.000943687
0.000870828
0.00150583
0.00150729
0.00115617
0.00150564
0.00118081
0.00150086
0.00120576
0.00149298
0.001231
0.00148204
0.00125653
0.00146811
0.00128232
0.0014513
0.00130833
0.00143173
0.00133453
0.00140953
0.00136085
0.00138487
0.00138725
0.00135793
0.00141366
0.0013289
0.00144001
0.00129797
0.00146624
0.00126536
0.00149227
0.00123127
0.00151803
0.00119593
0.00154346
0.00115953
0.00156848
0.0011223
0.00159303
0.00108442
0.00161706
0.0010461
0.00164051
0.00100752
0.00166331
0.000968852
0.00168544
0.000930259
0.00170684
0.000891889
0.00172748
0.00123437
0.00174732
0.00132889
0.00147153
0.00127643
0.00130534
0.00122288
0.00131336
0.00116841
0.00132089
0.00111347
0.00132722
0.00105895
0.00133226
0.00100576
0.0013362
0.000954559
0.00133937
0.000905706
0.0013421
0.000859273
0.00134464
0.000815172
0.00134709
0.000773248
0.00134946
0.000733336
0.00135172
0.000695294
0.00135381
0.000659004
0.00135564
0.000624376
0.00135718
0.00059134
0.00135838
0.000559837
0.0013592
0.000529819
0.00135964
0.000521256
0.00135967
0.000522182
0.00136152
0.000523043
0.00136344
0.000523831
0.00136539
0.000524573
0.0013673
0.000525873
0.00136912
0.000527292
0.00137079
0.000528818
0.00137226
0.000530444
0.00137346
0.000532166
0.00137434
0.000533989
0.00137487
0.00053592
0.001375
0.000537974
0.0013747
0.000540168
0.00137396
0.000542524
0.00137276
0.000545064
0.0013711
0.00054781
0.00136898
0.000550781
0.00136639
0.000553991
0.00136333
0.000557451
0.00135981
0.000561162
0.0013558
0.000565119
0.0013513
0.000569312
0.00134628
0.000573722
0.0013407
0.000578327
0.00133453
0.000583099
0.00132772
0.000588009
0.00132025
0.000593027
0.00131205
0.000598126
0.00130311
0.00060328
0.00129339
0.000608471
0.00128288
0.000613683
0.00127159
0.00061891
0.00125952
0.00062415
0.00124672
0.000629402
0.00123324
0.000634671
0.00121913
0.000639958
0.00120446
0.000645261
0.00118932
0.000650571
0.00117376
0.000655873
0.00115785
0.000661146
0.00114166
0.000666364
0.00112522
0.0006715
0.0011086
0.000676529
0.00109182
0.000681434
0.00107494
0.000686207
0.00105801
0.000690854
0.0010411
0.000695389
0.00102428
0.000699837
0.00100765
0.000704229
0.000991285
0.000708599
0.000975288
0.000712981
0.000959745
0.00071741
0.000944741
0.000721925
0.000930354
0.000726568
0.000916654
0.00073139
0.000903713
0.000736447
0.000891597
0.000741803
0.000880378
0.000747529
0.000870122
0.000753695
0.000860897
0.000760378
0.000852764
0.000767656
0.000845782
0.000775607
0.000840005
0.000784321
0.000835486
0.000793888
0.000832278
0.000804412
0.000830432
0.000816013
0.000830005
0.000828836
0.00083106
0.000843063
0.000833669
0.000858928
0.000837925
0.000876696
0.00084394
0.000896503
0.000851826
0.000917939
0.000861537
0.00095646
0.000872489
0.00152375
0.00152543
0.00117768
0.001524
0.00120483
0.00151945
0.00123226
0.00151178
0.00125996
0.00150104
0.00128793
0.00148728
0.00131614
0.00147061
0.00134456
0.00145113
0.00137313
0.00142899
0.00140181
0.00140435
0.00143053
0.00137736
0.00145923
0.00134824
0.00148785
0.00131717
0.0015163
0.00128436
0.00154451
0.00125003
0.00157241
0.00121439
0.00159993
0.00117765
0.001627
0.00114003
0.00165355
0.00110172
0.00167952
0.00106293
0.00170485
0.00102385
0.00172948
0.000984648
0.00175337
0.000945493
0.00177647
0.000906539
0.00179875
0.00123651