/*--------------------------------*- C++ -*----------------------------------*\
| =========                 |                                                 |
| \\      /  F ield         | OpenFOAM: The Open Source CFD Toolbox           |
|  \\    /   O peration     | Version:  2.2.x                                 |
|   \\  /    A nd           | Web:      www.OpenFOAM.org                      |
|    \\/     M anipulation  |                                                 |
\*---------------------------------------------------------------------------*/
FoamFile
{
    version     2.0;
    format      ascii;
    class       volScalarField;
    location    "0.5";
    object      p;
}
// * * * * * * * * * * * * * * * * * * * * * * * * * * * * * * * * * * * * * //

dimensions      [1 -1 -2 0 0 0 0];

internalField   nonuniform List<scalar> 
14161
(
0.199997
0.199997
0.199995
0.199993
0.19999
0.199985
0.199977
0.199967
0.199953
0.199934
0.199909
0.199875
0.199832
0.199776
0.199707
0.199622
0.199519
0.199396
0.199251
0.199082
0.19889
0.19867
0.198428
0.198158
0.197864
0.197549
0.197211
0.196856
0.196482
0.196094
0.195697
0.195305
0.194894
0.194474
0.194073
0.193663
0.193218
0.192841
0.192531
0.192207
0.191885
0.191606
0.191344
0.1911
0.190848
0.190573
0.190267
0.189994
0.18974
0.189569
0.189561
0.189609
0.189866
0.190318
0.19089
0.191952
0.193348
0.195724
0.19862
0.203659
0.205517
0.435536
1.45307
1.7229
1.75182
1.67703
1.63454
1.54202
1.46625
1.39193
1.32143
1.25103
1.18877
1.1324
1.0852
1.04775
1.01737
0.992978
0.985753
0.983164
0.98724
0.980957
0.979079
0.992319
0.969039
0.952347
0.936319
0.921695
0.909069
1.02526
1.31303
1.5167
1.6684
1.76077
1.81738
1.85648
1.88457
1.90542
1.92166
1.93651
1.94961
1.9622
1.97303
1.98364
1.99333
2.00242
2.01082
2.01822
2.02419
2.02926
2.03406
2.03901
2.04369
2.04847
2.05279
2.05744
2.0613
2.06399
2.06626
0.199997
0.199997
0.199995
0.199993
0.19999
0.199985
0.199977
0.199967
0.199953
0.199934
0.199909
0.199875
0.199832
0.199777
0.199708
0.199623
0.199519
0.199396
0.199251
0.199082
0.198889
0.198669
0.198426
0.198158
0.197865
0.197549
0.197212
0.196858
0.196485
0.196097
0.195698
0.195307
0.194896
0.194476
0.19407
0.193659
0.193222
0.192846
0.192527
0.192201
0.191871
0.191588
0.191327
0.191082
0.190833
0.190571
0.190307
0.190059
0.189784
0.189682
0.189504
0.189496
0.189588
0.189843
0.190277
0.190989
0.192174
0.193989
0.196629
0.201332
0.20575
0.412185
1.40924
1.71317
1.71855
1.62
1.56657
1.48764
1.41889
1.34509
1.2807
1.22037
1.16669
1.1159
1.0726
1.03869
1.01043
0.987138
0.980166
0.977653
0.979768
0.973933
0.971859
0.985704
0.964898
0.953206
0.94375
0.93574
0.946833
1.06347
1.32147
1.49609
1.63882
1.73644
1.79838
1.84228
1.87451
1.89837
1.91766
1.93488
1.94949
1.9629
1.97419
1.98514
1.99511
2.00438
2.0128
2.02021
2.02615
2.03115
2.03582
2.04056
2.04498
2.04973
2.05369
2.05777
2.06106
2.06319
2.06614
0.199997
0.199997
0.199995
0.199993
0.19999
0.199985
0.199978
0.199967
0.199953
0.199934
0.199909
0.199875
0.199832
0.199777
0.199708
0.199623
0.199519
0.199397
0.199251
0.199083
0.19889
0.198671
0.198428
0.198159
0.197867
0.197551
0.197214
0.196859
0.196486
0.196099
0.1957
0.195307
0.1949
0.194481
0.194065
0.193655
0.193225
0.192846
0.192519
0.192181
0.191857
0.191574
0.191315
0.191055
0.190802
0.190522
0.190244
0.18993
0.189691
0.18946
0.189372
0.189289
0.189293
0.189475
0.189688
0.190312
0.191071
0.192198
0.193001
0.194493
0.198074
0.328343
1.31537
1.73169
1.69283
1.5757
1.50327
1.44453
1.38953
1.30588
1.2479
1.19678
1.14948
1.10283
1.06218
1.03084
1.00415
0.980363
0.974242
0.971058
0.971141
0.96762
0.96678
0.981922
0.969118
0.965054
0.960554
0.97647
1.04869
1.19317
1.38191
1.51323
1.62246
1.71759
1.78672
1.83476
1.86911
1.89464
1.91467
1.93243
1.94774
1.9618
1.97368
1.98509
1.99535
2.00477
2.01321
2.02062
2.02651
2.03151
2.0362
2.04083
2.04496
2.04924
2.0528
2.05649
2.05926
2.0605
2.06416
0.199997
0.199997
0.199995
0.199993
0.19999
0.199985
0.199978
0.199967
0.199953
0.199934
0.199909
0.199875
0.199832
0.199777
0.199708
0.199623
0.19952
0.199398
0.199252
0.199085
0.198892
0.198674
0.198431
0.198162
0.197869
0.197554
0.197219
0.196863
0.19649
0.196103
0.195707
0.195307
0.194901
0.194488
0.19407
0.193648
0.193224
0.192854
0.192506
0.192153
0.191836
0.19155
0.191281
0.191006
0.190721
0.19043
0.190113
0.189806
0.189506
0.189266
0.189151
0.188995
0.188864
0.188745
0.188822
0.188862
0.189072
0.188843
0.187695
0.18585
0.185161
0.20408
1.16519
1.75261
1.62955
1.49744
1.4201
1.37851
1.34511
1.25348
1.21109
1.16338
1.12483
1.08515
1.04519
1.01736
0.992762
0.969131
0.96512
0.964676
0.964363
0.96554
0.970209
0.984084
0.983596
0.999161
1.00593
1.08368
1.19783
1.35393
1.48134
1.56768
1.64342
1.72258
1.78951
1.8359
1.86979
1.89521
1.9152
1.93284
1.94816
1.96198
1.9739
1.98542
1.99579
2.00529
2.01373
2.02105
2.02683
2.03174
2.03617
2.04048
2.04412
2.04786
2.05091
2.05417
2.05655
2.05692
2.06161
0.199997
0.199997
0.199995
0.199993
0.19999
0.199985
0.199978
0.199968
0.199954
0.199935
0.199909
0.199876
0.199833
0.199778
0.199709
0.199624
0.199522
0.199399
0.199254
0.199087
0.198894
0.198677
0.198434
0.198166
0.197875
0.19756
0.197225
0.196869
0.196496
0.19611
0.195715
0.195311
0.194905
0.194504
0.194076
0.193643
0.193227
0.192861
0.192489
0.192115
0.191799
0.191519
0.191242
0.190929
0.190637
0.190312
0.189993
0.189645
0.189271
0.188952
0.188704
0.188522
0.188176
0.187752
0.187348
0.18707
0.186833
0.186385
0.184521
0.180558
0.178784
0.181147
0.867061
1.73795
1.57791
1.43111
1.35101
1.30827
1.28582
1.21011
1.18339
1.12335
1.09906
1.06375
1.02702
1.00149
0.979938
0.95771
0.957417
0.962859
0.968451
0.973032
0.986422
1.00359
1.02384
1.06747
1.10989
1.25736
1.38781
1.50374
1.55987
1.60906
1.65328
1.72903
1.78561
1.8309
1.86335
1.88912
1.90985
1.92839
1.94446
1.95895
1.97159
1.9838
1.99465
2.00452
2.01309
2.02046
2.02629
2.03128
2.03559
2.03958
2.04272
2.0459
2.04835
2.05113
2.05314
2.05267
2.05841
0.199997
0.199997
0.199995
0.199993
0.19999
0.199985
0.199978
0.199968
0.199954
0.199935
0.199909
0.199876
0.199833
0.199778
0.19971
0.199626
0.199524
0.199401
0.199257
0.19909
0.198898
0.198682
0.198439
0.198173
0.197883
0.197567
0.197232
0.196876
0.196504
0.196121
0.195723
0.195312
0.19492
0.194517
0.194075
0.193642
0.193245
0.192862
0.192452
0.192077
0.191765
0.191493
0.191179
0.190843
0.190535
0.190225
0.189891
0.18947
0.188918
0.188506
0.188254
0.187921
0.187473
0.187032
0.186511
0.185431
0.184723
0.183574
0.182937
0.181596
0.180949
0.195199
0.496633
1.58105
1.53694
1.403
1.30327
1.26597
1.21753
1.1842
1.16147
1.09225
1.07622
1.03763
1.00523
0.983054
0.964382
0.946269
0.956264
0.962801
0.984268
0.993876
1.0221
1.05217
1.10316
1.20035
1.30453
1.44443
1.55064
1.60262
1.63195
1.66539
1.69805
1.75569
1.79514
1.83501
1.86491
1.89005
1.91042
1.92866
1.94458
1.95896
1.97182
1.98427
1.99498
2.0047
2.01312
2.02029
2.02593
2.03076
2.03465
2.03814
2.04081
2.04335
2.04526
2.04756
2.04908
2.04795
2.0546
0.199997
0.199997
0.199995
0.199993
0.19999
0.199985
0.199978
0.199968
0.199954
0.199935
0.19991
0.199877
0.199834
0.19978
0.199711
0.199628
0.199526
0.199404
0.199261
0.199094
0.198903
0.198689
0.198447
0.198182
0.197891
0.197576
0.197244
0.196888
0.196516
0.196134
0.195733
0.195324
0.194934
0.194526
0.194079
0.193655
0.193265
0.192862
0.192417
0.192045
0.191741
0.191438
0.191077
0.190746
0.19045
0.190184
0.189797
0.189272
0.188719
0.188113
0.187717
0.1872
0.186686
0.186382
0.185832
0.185059
0.183589
0.1822
0.180238
0.177731
0.177015
0.196507
0.459331
1.21804
1.35213
1.38507
1.27332
1.25496
1.17364
1.16679
1.13598
1.07521
1.06428
1.02039
0.994767
0.974572
0.958614
0.946444
0.967897
0.975672
1.01355
1.03483
1.09135
1.16887
1.26765
1.3922
1.50514
1.59436
1.63849
1.66086
1.67963
1.70222
1.73149
1.775
1.81251
1.84798
1.87494
1.89726
1.91557
1.93218
1.94719
1.96123
1.97374
1.98574
1.99618
2.00547
2.01312
2.01977
2.02486
2.0294
2.03288
2.03593
2.03823
2.04023
2.04163
2.04337
2.04432
2.04269
2.05015
0.199997
0.199997
0.199995
0.199993
0.19999
0.199985
0.199978
0.199968
0.199954
0.199935
0.19991
0.199877
0.199835
0.199781
0.199713
0.19963
0.199529
0.199408
0.199265
0.1991
0.19891
0.198696
0.198456
0.198192
0.197902
0.197591
0.197258
0.196904
0.196535
0.196146
0.195747
0.195345
0.194952
0.194526
0.194098
0.193675
0.193272
0.192842
0.192413
0.192033
0.19171
0.191364
0.190985
0.190681
0.190409
0.190093
0.189654
0.189153
0.188634
0.188057
0.1875
0.186776
0.186094
0.185501
0.184981
0.184192
0.182649
0.180266
0.176902
0.172121
0.167787
0.200963
0.415713
1.06946
1.16689
1.3039
1.27433
1.26203
1.17811
1.15651
1.1293
1.06485
1.05635
1.0125
0.990849
0.978302
0.967676
0.959766
0.998181
1.0168
1.08528
1.14471
1.23808
1.36244
1.46917
1.57594
1.63869
1.6684
1.68503
1.69788
1.7161
1.73378
1.76206
1.79268
1.82666
1.8561
1.88019
1.901
1.91833
1.9341
1.94853
1.96208
1.97439
1.98631
1.99633
2.00517
2.01235
2.01861
2.02334
2.0276
2.03075
2.03341
2.03535
2.03687
2.03773
2.03869
2.03903
2.03697
2.04507
0.199997
0.199997
0.199995
0.199993
0.19999
0.199985
0.199978
0.199968
0.199954
0.199936
0.199911
0.199878
0.199836
0.199783
0.199715
0.199633
0.199532
0.199412
0.199271
0.199106
0.198919
0.198705
0.198467
0.198204
0.197917
0.197608
0.197275
0.196924
0.196554
0.196164
0.195769
0.195375
0.194961
0.194538
0.194126
0.193707
0.193269
0.192833
0.192421
0.192045
0.191656
0.191259
0.190932
0.190652
0.190353
0.189973
0.189535
0.189081
0.18855
0.188027
0.187378
0.186652
0.185901
0.185062
0.184387
0.183641
0.182475
0.181598
0.180609
0.18031
0.193557
0.238973
0.697285
0.916776
0.993098
1.10488
1.23748
1.26042
1.20952
1.15646
1.14496
1.0695
1.05457
1.02808
1.01344
0.999132
1.0086
1.01166
1.08223
1.13075
1.22992
1.34294
1.44846
1.55998
1.6331
1.67275
1.69184
1.70179
1.71141
1.72572
1.73972
1.7595
1.78369
1.81121
1.84031
1.86569
1.88675
1.90504
1.92077
1.93529
1.94909
1.96266
1.97488
1.98639
1.99596
2.00427
2.01103
2.01683
2.02118
2.02508
2.028
2.0303
2.0319
2.03314
2.03346
2.03344
2.03331
2.03098
2.03954
0.199997
0.199997
0.199995
0.199993
0.19999
0.199985
0.199978
0.199968
0.199955
0.199936
0.199912
0.19988
0.199838
0.199784
0.199718
0.199636
0.199536
0.199417
0.199278
0.199114
0.198928
0.198716
0.19848
0.19822
0.197935
0.197627
0.197296
0.196948
0.196577
0.196189
0.195804
0.195396
0.194978
0.194572
0.194168
0.193718
0.193268
0.192851
0.192457
0.192042
0.191592
0.191201
0.190902
0.190612
0.190277
0.189877
0.189507
0.189082
0.188674
0.188109
0.187383
0.186732
0.186051
0.185294
0.184614
0.183827
0.183363
0.183164
0.183014
0.182219
0.197592
0.419281
0.832839
0.870232
0.90013
0.963232
1.18077
1.25037
1.26266
1.16257
1.18016
1.09307
1.06434
1.0629
1.06622
1.04198
1.10366
1.14018
1.23954
1.34044
1.44095
1.54824
1.6247
1.67139
1.69329
1.7053
1.71306
1.72039
1.7316
1.74434
1.75863
1.7779
1.79993
1.8247
1.85001
1.87204
1.89085
1.90744
1.92197
1.93553
1.94891
1.96232
1.97425
1.98539
1.99455
2.00231
2.00873
2.01432
2.01852
2.0221
2.02491
2.02687
2.0283
2.02913
2.02886
2.02789
2.02738
2.02496
2.03365
0.199997
0.199997
0.199996
0.199993
0.19999
0.199985
0.199978
0.199969
0.199955
0.199937
0.199913
0.199881
0.199839
0.199787
0.199721
0.19964
0.199541
0.199424
0.199286
0.199124
0.19894
0.19873
0.198497
0.198239
0.197956
0.197651
0.197323
0.196976
0.196607
0.196227
0.195833
0.19542
0.195013
0.194621
0.194189
0.193732
0.1933
0.1929
0.192473
0.192025
0.191584
0.191212
0.190901
0.190559
0.190172
0.189844
0.189506
0.189154
0.188696
0.188085
0.187518
0.18697
0.186382
0.185693
0.184781
0.183955
0.183333
0.182433
0.181903
0.18227
0.194937
0.645518
0.890457
0.895561
0.885285
0.925052
1.08181
1.22122
1.289
1.19827
1.23616
1.16158
1.11533
1.14449
1.17185
1.1709
1.28306
1.36019
1.45544
1.55268
1.6221
1.66694
1.68982
1.70227
1.70976
1.71613
1.72338
1.73264
1.74409
1.75626
1.77238
1.79079
1.81158
1.83405
1.8561
1.87515
1.8922
1.90798
1.92258
1.93658
1.95006
1.96275
1.97388
1.98442
1.99309
2.00045
2.00655
2.01171
2.01565
2.0188
2.02139
2.02306
2.02428
2.02468
2.02381
2.02201
2.02122
2.01896
2.02771
0.199997
0.199997
0.199996
0.199994
0.19999
0.199986
0.199979
0.199969
0.199956
0.199938
0.199914
0.199882
0.199841
0.199789
0.199725
0.199645
0.199548
0.199432
0.199295
0.199136
0.198954
0.198747
0.198517
0.198261
0.197981
0.197679
0.197355
0.19701
0.196645
0.196268
0.19587
0.195462
0.195067
0.194659
0.194207
0.193779
0.193375
0.192944
0.192469
0.192019
0.191616
0.191263
0.190893
0.190479
0.190144
0.189867
0.189587
0.189171
0.188623
0.188144
0.187728
0.187306
0.186758
0.186026
0.185165
0.184601
0.184186
0.183937
0.184289
0.193253
0.25019
0.765698
0.899522
0.90287
0.892763
0.900883
0.991723
1.15915
1.2698
1.29377
1.31032
1.25731
1.24086
1.29508
1.34445
1.38954
1.48909
1.56723
1.62633
1.664
1.68596
1.6971
1.70344
1.70838
1.71319
1.71933
1.72812
1.73891
1.75054
1.76477
1.78102
1.79897
1.81875
1.83971
1.85996
1.87747
1.8934
1.90826
1.92227
1.93596
1.94914
1.9613
1.97186
1.9818
1.98993
1.99709
2.00329
2.0084
2.01229
2.01517
2.01762
2.01906
2.01989
2.01983
2.01846
2.01589
2.0151
2.01321
2.02164
0.199997
0.199997
0.199996
0.199994
0.19999
0.199986
0.199979
0.19997
0.199957
0.199939
0.199915
0.199884
0.199844
0.199793
0.199729
0.19965
0.199554
0.19944
0.199305
0.199149
0.198969
0.198766
0.198539
0.198286
0.198012
0.197712
0.197392
0.197051
0.196692
0.196313
0.19592
0.195518
0.195118
0.194695
0.194263
0.193855
0.193443
0.192965
0.1925
0.192074
0.191707
0.191294
0.190845
0.190465
0.190157
0.189957
0.189605
0.189092
0.188616
0.188256
0.187941
0.18752
0.186955
0.18643
0.185923
0.185456
0.185157
0.185366
0.186812
0.203719
0.396009
0.843749
0.91492
0.918322
0.917841
0.917195
0.989684
1.12007
1.27951
1.40393
1.42646
1.38854
1.44723
1.47962
1.53685
1.59
1.63344
1.66327
1.67991
1.69133
1.69678
1.69979
1.70049
1.70423
1.70885
1.71672
1.7267
1.73776
1.75121
1.7663
1.78289
1.8013
1.82132
1.84182
1.8615
1.8792
1.89528
1.90974
1.92338
1.93651
1.94884
1.96017
1.97002
1.97938
1.98714
1.9941
1.99997
2.00488
2.00877
2.01137
2.01358
2.01476
2.01505
2.01451
2.01274
2.00953
2.00891
2.00757
2.01571
0.199997
0.199997
0.199996
0.199994
0.199991
0.199986
0.199979
0.19997
0.199957
0.19994
0.199916
0.199886
0.199846
0.199796
0.199733
0.199656
0.199562
0.19945
0.199318
0.199165
0.198988
0.198789
0.198564
0.198317
0.198046
0.197751
0.197437
0.197099
0.196745
0.196369
0.195981
0.195583
0.195173
0.194754
0.194339
0.193937
0.193493
0.193019
0.192583
0.192195
0.191772
0.191294
0.190844
0.190518
0.190249
0.189978
0.1896
0.189088
0.188693
0.188394
0.187984
0.18754
0.187188
0.186878
0.186451
0.185681
0.184654
0.184444
0.185516
0.202944
0.607604
0.927679
0.938626
0.934284
0.929446
0.945141
1.04483
1.18025
1.40108
1.54522
1.57764
1.56641
1.61836
1.63071
1.65343
1.66699
1.67687
1.68471
1.68861
1.68998
1.68925
1.69187
1.69538
1.6981
1.70424
1.71206
1.72115
1.73297
1.74694
1.76288
1.7809
1.80114
1.82262
1.84366
1.86247
1.87912
1.89441
1.90831
1.92137
1.9338
1.94555
1.95648
1.96596
1.9749
1.98256
1.98982
1.99571
2.00065
2.00464
2.00709
2.00927
2.01011
2.00974
2.00878
2.0067
2.00312
2.00285
2.00207
2.00968
0.199997
0.199997
0.199996
0.199994
0.199991
0.199986
0.19998
0.199971
0.199958
0.199941
0.199918
0.199888
0.199849
0.1998
0.199739
0.199663
0.199571
0.199461
0.199332
0.199182
0.199009
0.198814
0.198594
0.198352
0.198086
0.197797
0.197487
0.197155
0.196806
0.196435
0.196052
0.195654
0.195248
0.194834
0.194432
0.194015
0.193557
0.193123
0.192718
0.192303
0.191838
0.191331
0.190926
0.190624
0.190371
0.190017
0.189553
0.18917
0.188883
0.18847
0.18791
0.187526
0.187282
0.186922
0.186371
0.18542
0.183957
0.182776
0.189359
0.228505
0.76887
0.951113
0.959966
0.957138
0.947677
1.00508
1.13504
1.31558
1.55605
1.68195
1.698
1.68684
1.68751
1.68068
1.68285
1.68262
1.68318
1.6794
1.6791
1.68071
1.68226
1.6832
1.68692
1.69009
1.69595
1.70412
1.7147
1.72741
1.74242
1.75933
1.77843
1.79964
1.82165
1.84311
1.86199
1.87857
1.89397
1.90773
1.92031
1.93194
1.9429
1.95327
1.9624
1.97103
1.97866
1.98575
1.99129
1.99618
2.00012
2.00242
2.00453
2.005
2.00392
2.00248
2.0003
1.99664
1.99687
1.99659
2.00375
0.199997
0.199997
0.199996
0.199994
0.199991
0.199987
0.19998
0.199971
0.199959
0.199942
0.19992
0.19989
0.199853
0.199805
0.199745
0.199671
0.199581
0.199474
0.199348
0.199201
0.199033
0.198842
0.198628
0.198392
0.19813
0.197849
0.197545
0.19722
0.196877
0.196513
0.196135
0.195741
0.195342
0.194933
0.194529
0.194105
0.193671
0.193248
0.192857
0.192414
0.191917
0.19146
0.191069
0.190778
0.190449
0.190018
0.189646
0.189303
0.188928
0.188473
0.188008
0.187739
0.187497
0.187155
0.186623
0.186468
0.186585
0.187487
0.205472
0.342744
0.857528
0.948292
0.966028
0.971415
0.981273
1.11237
1.26821
1.50965
1.70577
1.75574
1.73233
1.72053
1.70388
1.69305
1.68385
1.67666
1.67293
1.67144
1.67059
1.67009
1.67176
1.67339
1.67687
1.68091
1.68773
1.69616
1.70736
1.72078
1.73713
1.7554
1.7757
1.79712
1.81881
1.83954
1.85803
1.87438
1.8892
1.90244
1.91474
1.92627
1.93706
1.9474
1.95653
1.96529
1.9734
1.9808
1.98616
1.99106
1.99485
1.99711
1.99911
1.99922
1.99764
1.99575
1.99369
1.99031
1.99101
1.99114
1.99761
0.199997
0.199997
0.199996
0.199994
0.199991
0.199987
0.199981
0.199972
0.19996
0.199944
0.199922
0.199893
0.199856
0.19981
0.199751
0.199679
0.199592
0.199488
0.199366
0.199223
0.19906
0.198874
0.198667
0.198436
0.198182
0.197908
0.19761
0.197295
0.196958
0.196604
0.196232
0.195845
0.195449
0.195047
0.194637
0.194223
0.193809
0.193384
0.192974
0.192533
0.192085
0.19165
0.191249
0.190914
0.190527
0.190132
0.18978
0.189414
0.188986
0.188555
0.188258
0.187974
0.187595
0.187116
0.186702
0.186211
0.186284
0.187195
0.211223
0.559002
0.952886
0.961206
0.982226
1.00611
1.05511
1.26784
1.46385
1.69025
1.77385
1.76282
1.73434
1.7153
1.69756
1.68342
1.67429
1.66695
1.66149
1.65709
1.6546
1.65449
1.65713
1.6608
1.66603
1.67148
1.67841
1.68686
1.69773
1.71085
1.72679
1.74469
1.76539
1.78793
1.81142
1.83401
1.8536
1.87041
1.88528
1.89839
1.91049
1.9219
1.93243
1.94261
1.95171
1.96043
1.96855
1.97587
1.98091
1.98559
1.98905
1.99132
1.99303
1.99277
1.99092
1.98878
1.98706
1.98407
1.98512
1.98549
1.99159
0.199997
0.199997
0.199996
0.199994
0.199991
0.199987
0.199981
0.199973
0.199961
0.199945
0.199924
0.199896
0.19986
0.199815
0.199758
0.199689
0.199604
0.199504
0.199385
0.199247
0.19909
0.19891
0.19871
0.198486
0.198241
0.197974
0.197686
0.19738
0.197052
0.196709
0.196344
0.195967
0.195575
0.195177
0.194772
0.194363
0.193955
0.193533
0.19311
0.192686
0.192274
0.191862
0.191453
0.19106
0.190655
0.190297
0.189943
0.189533
0.189098
0.188709
0.1884
0.187977
0.187334
0.186751
0.185955
0.184784
0.183677
0.18952
0.231183
0.78321
0.973676
0.984416
1.01627
1.07415
1.19772
1.4487
1.65684
1.7769
1.77804
1.74108
1.72332
1.70109
1.68477
1.67208
1.66263
1.65576
1.65005
1.64529
1.6422
1.64128
1.64382
1.64807
1.65428
1.66
1.66752
1.6765
1.68764
1.70116
1.71767
1.7361
1.75641
1.77852
1.80117
1.82329
1.84277
1.85984
1.87533
1.88918
1.90188
1.91377
1.92486
1.93552
1.94523
1.95454
1.96282
1.97014
1.97489
1.97935
1.98265
1.98495
1.98637
1.98582
1.98388
1.9817
1.98042
1.9779
1.97919
1.97983
1.98551
0.199997
0.199997
0.199996
0.199994
0.199992
0.199988
0.199982
0.199973
0.199962
0.199947
0.199926
0.199899
0.199865
0.199821
0.199767
0.199699
0.199618
0.199522
0.199407
0.199275
0.199123
0.19895
0.198757
0.198542
0.198307
0.198049
0.197773
0.197475
0.19716
0.196827
0.196474
0.196107
0.195723
0.195333
0.194932
0.194527
0.194115
0.193699
0.193282
0.192869
0.192473
0.192077
0.191655
0.191233
0.190843
0.190469
0.190089
0.189654
0.189198
0.188763
0.18839
0.187916
0.187421
0.187131
0.187067
0.187385
0.188752
0.207519
0.357242
0.883878
0.977551
0.995198
1.06812
1.17631
1.40431
1.62832
1.77489
1.78697
1.74978
1.73127
1.70645
1.68777
1.67144
1.6583
1.64839
1.6412
1.63586
1.6315
1.62861
1.62741
1.62954
1.63374
1.64035
1.64678
1.65557
1.66504
1.67662
1.69054
1.70722
1.72592
1.7462
1.76852
1.7915
1.81396
1.83405
1.85181
1.86778
1.88203
1.89486
1.90685
1.918
1.92884
1.93903
1.94857
1.95661
1.96363
1.96812
1.9725
1.97574
1.9781
1.97931
1.9786
1.97674
1.97465
1.97379
1.9717
1.97322
1.97401
1.97948
0.199997
0.199997
0.199996
0.199995
0.199992
0.199988
0.199982
0.199974
0.199963
0.199949
0.199929
0.199903
0.19987
0.199828
0.199775
0.199711
0.199633
0.19954
0.199431
0.199305
0.199159
0.198995
0.19881
0.198605
0.19838
0.198133
0.197868
0.197582
0.197281
0.19696
0.196622
0.196267
0.195896
0.195514
0.19512
0.194721
0.19431
0.193898
0.193487
0.19308
0.192676
0.192281
0.191859
0.19144
0.191054
0.190668
0.190264
0.189788
0.189314
0.188875
0.188478
0.188009
0.187562
0.187124
0.186625
0.186423
0.186725
0.21153
0.58343
0.986438
1.00689
1.05018
1.1626
1.36874
1.5944
1.76396
1.7905
1.75494
1.73544
1.70946
1.68959
1.67245
1.65747
1.64524
1.63549
1.6282
1.62279
1.61881
1.61589
1.61454
1.61482
1.61842
1.62437
1.63189
1.64161
1.65176
1.66389
1.67765
1.69359
1.71152
1.73142
1.75342
1.77627
1.79921
1.82044
1.83951
1.85658
1.87178
1.88548
1.89825
1.91012
1.92162
1.93241
1.94215
1.94975
1.95634
1.9607
1.96517
1.96845
1.97089
1.97188
1.97111
1.96955
1.96766
1.96719
1.9655
1.96723
1.96814
1.97348
0.199998
0.199997
0.199996
0.199995
0.199992
0.199988
0.199983
0.199975
0.199965
0.199951
0.199932
0.199907
0.199875
0.199835
0.199785
0.199724
0.19965
0.199561
0.199458
0.199337
0.199199
0.199044
0.198868
0.198675
0.19846
0.198228
0.197975
0.197704
0.197417
0.19711
0.19679
0.196449
0.196096
0.195725
0.195344
0.194951
0.194548
0.194139
0.193729
0.193322
0.192911
0.192497
0.192079
0.191668
0.191253
0.190835
0.190393
0.189911
0.189435
0.188953
0.18845
0.187834
0.187012
0.185862
0.184297
0.183821
0.192114
0.254697
0.812527
1.01472
1.04307
1.14547
1.31774
1.57375
1.7517
1.78969
1.76081
1.73798
1.71288
1.69071
1.67202
1.65626
1.64333
1.6324
1.62318
1.61589
1.61037
1.60662
1.60388
1.60246
1.6016
1.60409
1.60898
1.61642
1.62569
1.6365
1.64948
1.66365
1.67961
1.69734
1.71721
1.73882
1.76153
1.7851
1.8072
1.82722
1.84493
1.86075
1.87515
1.88867
1.90123
1.91331
1.92471
1.93462
1.9419
1.94818
1.95268
1.95734
1.96076
1.96331
1.96416
1.96346
1.9623
1.96071
1.96068
1.9593
1.96122
1.96211
1.96733
0.199998
0.199998
0.199997
0.199995
0.199993
0.199989
0.199984
0.199976
0.199966
0.199953
0.199935
0.199911
0.199881
0.199843
0.199795
0.199737
0.199667
0.199584
0.199486
0.199372
0.199243
0.199096
0.198932
0.19875
0.198549
0.198331
0.198093
0.19784
0.197568
0.197281
0.196978
0.196657
0.196322
0.195968
0.195604
0.195221
0.194833
0.194432
0.19403
0.193621
0.19321
0.192789
0.192354
0.191926
0.191463
0.190945
0.190453
0.189992
0.189487
0.189052
0.188668
0.188329
0.18801
0.187751
0.188267
0.191031
0.208374
0.450362
0.934916
1.05188
1.12706
1.31628
1.54374
1.73369
1.78601
1.76547
1.73935
1.71665
1.69461
1.67588
1.65908
1.64468
1.63239
1.62196
1.61293
1.60554
1.59976
1.59563
1.59266
1.59097
1.58964
1.59084
1.59345
1.60108
1.60923
1.6203
1.6331
1.64767
1.66399
1.68192
1.70198
1.72335
1.74588
1.76971
1.79293
1.81367
1.83224
1.84868
1.86382
1.87807
1.89157
1.90439
1.91617
1.92621
1.93335
1.93961
1.94439
1.94934
1.95284
1.95543
1.95626
1.9558
1.95508
1.95386
1.95422
1.95306
1.95516
1.95597
1.96106
0.199998
0.199998
0.199997
0.199995
0.199993
0.199989
0.199984
0.199977
0.199968
0.199955
0.199938
0.199916
0.199887
0.199851
0.199806
0.199752
0.199686
0.199608
0.199517
0.199411
0.199291
0.199154
0.199002
0.198832
0.198647
0.198444
0.198225
0.197989
0.197737
0.197471
0.197187
0.196892
0.196577
0.196248
0.195904
0.195543
0.195172
0.194785
0.194391
0.193983
0.193577
0.193166
0.192746
0.192307
0.191839
0.19133
0.190841
0.190368
0.189826
0.189322
0.188828
0.188243
0.18743
0.185841
0.182417
0.18179
0.201526
0.698349
1.04662
1.11224
1.32262
1.5149
1.72729
1.79143
1.77139
1.74178
1.71637
1.69337
1.67386
1.65829
1.64538
1.63355
1.62247
1.61244
1.6038
1.5966
1.59081
1.58616
1.58268
1.58059
1.57909
1.57851
1.57915
1.58595
1.59278
1.60333
1.61542
1.63002
1.64655
1.6648
1.68497
1.70648
1.72943
1.75359
1.77783
1.79935
1.81886
1.83606
1.85218
1.86722
1.88157
1.89492
1.90685
1.91691
1.92406
1.93049
1.93564
1.94092
1.94445
1.94709
1.94816
1.94811
1.94783
1.94702
1.94772
1.94673
1.9489
1.94962
1.95435
0.199998
0.199998
0.199997
0.199996
0.199993
0.19999
0.199985
0.199979
0.19997
0.199957
0.199941
0.19992
0.199894
0.19986
0.199818
0.199768
0.199706
0.199634
0.19955
0.199453
0.199341
0.199216
0.199077
0.198922
0.198754
0.198568
0.19837
0.198154
0.197926
0.197682
0.197425
0.197154
0.196866
0.196567
0.196247
0.19592
0.195574
0.195213
0.194828
0.194427
0.194026
0.193631
0.193233
0.192815
0.192357
0.191858
0.191289
0.190637
0.18985
0.188904
0.187988
0.187074
0.18671
0.186654
0.188606
0.207017
0.31985
0.927389
1.12894
1.25116
1.49593
1.6884
1.77427
1.77596
1.73873
1.72269
1.69534
1.67635
1.65851
1.64358
1.63129
1.62074
1.61085
1.60167
1.59355
1.58667
1.58117
1.57662
1.57292
1.57019
1.56814
1.56683
1.56651
1.5712
1.57696
1.58616
1.59735
1.6114
1.62757
1.64598
1.66641
1.68838
1.71159
1.73606
1.76131
1.78377
1.80439
1.82238
1.83968
1.85532
1.87053
1.88432
1.89654
1.90669
1.91413
1.92094
1.92658
1.93225
1.9358
1.93869
1.94006
1.94041
1.94055
1.94015
1.94101
1.94007
1.94213
1.94279
1.94712
0.199998
0.199998
0.199997
0.199996
0.199994
0.199991
0.199986
0.19998
0.199971
0.19996
0.199945
0.199926
0.199901
0.19987
0.199831
0.199784
0.199728
0.199662
0.199585
0.199497
0.199396
0.199283
0.199157
0.199019
0.198868
0.198703
0.198526
0.198335
0.198133
0.197916
0.19769
0.197446
0.197194
0.196924
0.196644
0.196353
0.196047
0.195718
0.195344
0.194946
0.194568
0.194218
0.193856
0.193499
0.193133
0.192738
0.19221
0.191646
0.191018
0.19045
0.189865
0.189273
0.188606
0.187778
0.187207
0.212403
0.595942
1.17381
1.24778
1.50206
1.68072
1.7753
1.77807
1.73499
1.71834
1.69058
1.67218
1.6551
1.64002
1.62696
1.61627
1.60708
1.59872
1.59073
1.5836
1.57745
1.57228
1.56781
1.56387
1.56032
1.55739
1.55587
1.55515
1.55726
1.56206
1.5698
1.58013
1.59317
1.60862
1.62679
1.64729
1.6697
1.6934
1.71813
1.74418
1.7677
1.78939
1.80834
1.82662
1.84278
1.85878
1.87283
1.88556
1.89586
1.90381
1.91114
1.9172
1.9232
1.92681
1.93005
1.93183
1.93266
1.93327
1.93315
1.934
1.93307
1.93486
1.93561
1.93959
0.199998
0.199998
0.199997
0.199996
0.199994
0.199991
0.199987
0.199981
0.199973
0.199963
0.199949
0.199931
0.199908
0.19988
0.199845
0.199802
0.199751
0.199691
0.199623
0.199543
0.199454
0.199354
0.199243
0.199123
0.19899
0.198849
0.198695
0.198533
0.198358
0.198175
0.197981
0.197775
0.19756
0.19733
0.197096
0.196849
0.196594
0.196305
0.195979
0.195626
0.195304
0.194995
0.194675
0.194358
0.194011
0.193592
0.192988
0.192274
0.191503
0.190545
0.189409
0.188551
0.187342
0.187157
0.201178
0.261966
0.96333
1.2765
1.43564
1.65856
1.77386
1.77652
1.73878
1.71754
1.69091
1.66907
1.651
1.63576
1.62247
1.61089
1.60096
1.59212
1.58375
1.57602
1.56917
1.56345
1.5592
1.55574
1.55243
1.54909
1.54643
1.54528
1.54379
1.54416
1.5478
1.55433
1.56371
1.57566
1.59021
1.60779
1.62805
1.65061
1.6747
1.69971
1.72593
1.75055
1.77344
1.79332
1.81239
1.82924
1.84567
1.8601
1.87321
1.88383
1.8928
1.90078
1.90732
1.91377
1.91775
1.92145
1.92365
1.92498
1.926
1.92598
1.92675
1.92581
1.92729
1.92806
1.93138
0.199998
0.199998
0.199998
0.199996
0.199995
0.199992
0.199988
0.199983
0.199975
0.199966
0.199953
0.199937
0.199916
0.19989
0.199859
0.199821
0.199775
0.199723
0.199662
0.199593
0.199516
0.199429
0.199335
0.199232
0.199122
0.199003
0.198877
0.198745
0.198603
0.198457
0.198299
0.198139
0.197965
0.197786
0.197596
0.19741
0.197213
0.196989
0.196747
0.196484
0.196221
0.195953
0.195702
0.195408
0.195167
0.194827
0.194382
0.194009
0.193761
0.193508
0.193251
0.192691
0.191784
0.191434
0.209032
0.617077
1.30956
1.41691
1.63488
1.76587
1.7759
1.74104
1.71629
1.69125
1.66815
1.64912
1.63294
1.6195
1.60768
1.59726
1.58786
1.57896
1.57057
1.56297
1.5562
1.55049
1.54627
1.54326
1.54033
1.53735
1.53506
1.53431
1.53251
1.53197
1.53428
1.53959
1.54791
1.55867
1.57228
1.58911
1.6089
1.63142
1.65573
1.68131
1.70772
1.73321
1.75721
1.77803
1.79776
1.81518
1.83209
1.84669
1.86025
1.87104
1.88133
1.88997
1.89714
1.90403
1.90852
1.9128
1.91545
1.91735
1.91857
1.91851
1.91897
1.91813
1.91948
1.92039
1.92374
0.199998
0.199998
0.199998
0.199997
0.199995
0.199993
0.199989
0.199984
0.199978
0.199969
0.199958
0.199943
0.199924
0.199901
0.199873
0.19984
0.199801
0.199755
0.199703
0.199645
0.19958
0.199508
0.199432
0.199348
0.199261
0.199167
0.199071
0.198969
0.198866
0.198757
0.198646
0.198531
0.19841
0.198287
0.198157
0.198031
0.197904
0.197767
0.197619
0.197461
0.197294
0.197103
0.196934
0.196744
0.196582
0.196316
0.195961
0.195576
0.195423
0.195266
0.195099
0.194918
0.195144
0.207258
0.282367
1.085
1.43754
1.60156
1.74121
1.7755
1.74095
1.72228
1.69037
1.66978
1.64971
1.63313
1.61894
1.60698
1.59619
1.58616
1.57663
1.56752
1.55892
1.55114
1.54415
1.53804
1.53308
1.52954
1.52698
1.52472
1.52302
1.5226
1.52165
1.52064
1.52188
1.52569
1.5328
1.54236
1.55486
1.57066
1.58974
1.61201
1.63645
1.66243
1.68929
1.71543
1.74031
1.76195
1.78228
1.80016
1.81765
1.83263
1.84664
1.85787
1.86904
1.87811
1.88651
1.89394
1.89932
1.9043
1.90741
1.90968
1.91084
1.91044
1.9107
1.91015
1.91176
1.91271
1.91516
0.199999
0.199999
0.199998
0.199997
0.199995
0.199993
0.19999
0.199986
0.19998
0.199972
0.199962
0.199949
0.199933
0.199913
0.199889
0.19986
0.199827
0.199789
0.199746
0.199699
0.199647
0.199591
0.199532
0.19947
0.199405
0.199339
0.199273
0.199206
0.19914
0.199074
0.199013
0.198949
0.198889
0.198821
0.198761
0.198707
0.19867
0.198624
0.198578
0.198522
0.19846
0.198406
0.198376
0.198351
0.198345
0.198292
0.198207
0.198058
0.197874
0.197815
0.197366
0.196092
0.19639
0.209218
0.740743
1.4349
1.58617
1.71169
1.77109
1.7304
1.71272
1.68305
1.66379
1.64572
1.6303
1.61656
1.6046
1.59386
1.5841
1.57476
1.56551
1.55642
1.54761
1.5396
1.53256
1.52637
1.52117
1.51742
1.51479
1.51276
1.51116
1.51048
1.51028
1.50967
1.51048
1.51277
1.51842
1.52665
1.53785
1.55242
1.5706
1.59214
1.61631
1.64242
1.66983
1.69674
1.72287
1.74545
1.76628
1.78474
1.80272
1.81814
1.83259
1.84448
1.85617
1.86576
1.87563
1.88346
1.88991
1.89556
1.89916
1.90161
1.90266
1.9021
1.90225
1.9022
1.90393
1.90497
1.90758
0.199999
0.199999
0.199998
0.199997
0.199996
0.199994
0.199991
0.199987