/*--------------------------------*- C++ -*----------------------------------*\
| =========                 |                                                 |
| \\      /  F ield         | OpenFOAM: The Open Source CFD Toolbox           |
|  \\    /   O peration     | Version:  2.2.x                                 |
|   \\  /    A nd           | Web:      www.OpenFOAM.org                      |
|    \\/     M anipulation  |                                                 |
\*---------------------------------------------------------------------------*/
FoamFile
{
    version     2.0;
    format      ascii;
    class       volScalarField;
    location    "0.7";
    object      Bz;
}
// * * * * * * * * * * * * * * * * * * * * * * * * * * * * * * * * * * * * * //

dimensions      [1 0 -2 0 0 -1 0];

internalField   nonuniform List<scalar> 
14161
(
3.88609e-20
3.84181e-20
3.88559e-20
3.80947e-20
4.00891e-20
3.70146e-20
4.17394e-20
3.77449e-20
4.40094e-20
3.35824e-20
5.84027e-20
-5.30613e-21
1.52894e-19
-2.01588e-19
5.15941e-19
-7.85605e-19
1.33364e-18
-1.7766e-18
2.36033e-18
-2.71713e-18
3.14771e-18
-4.25613e-18
6.54086e-18
-8.80556e-18
8.75811e-18
-4.22391e-18
-1.50038e-17
4.81942e-17
-1.05143e-16
1.6976e-16
-2.0239e-16
2.31519e-16
-1.70309e-16
4.47939e-17
1.35755e-16
-1.88183e-16
1.26061e-16
-1.36206e-16
-1.89404e-16
3.35952e-16
-1.48578e-15
5.98386e-15
-2.29482e-14
1.38494e-13
-3.85594e-13
1.32434e-12
-4.04274e-12
1.34264e-11
-4.8352e-12
5.31534e-10
3.09332e-09
2.16466e-08
-6.68319e-08
2.46795e-08
5.95219e-08
-5.96538e-09
-2.02751e-07
5.71178e-07
-3.19017e-07
-1.72655e-06
4.58117e-06
-1.06553e-06
-1.02679e-05
8.73341e-06
1.05631e-05
-1.33301e-05
-1.24991e-05
1.56106e-05
1.34836e-05
-9.87353e-06
-1.07379e-05
-6.80621e-07
4.32496e-06
4.75535e-06
1.38233e-06
-2.01362e-06
-1.61768e-06
1.09323e-07
7.83109e-07
1.80829e-07
-3.53559e-07
-1.16645e-07
-1.10014e-08
-6.40061e-08
-4.93998e-08
-2.96623e-09
8.37646e-09
-1.90797e-09
-6.74003e-09
-2.94318e-09
-3.16815e-10
1.07734e-09
1.39523e-09
9.78146e-10
6.03221e-10
1.65221e-10
-6.9118e-11
-1.3172e-10
-9.04431e-11
-2.15242e-11
8.30134e-12
4.12566e-12
-1.00112e-11
-1.48547e-11
-9.50696e-12
-4.44423e-13
5.6144e-12
6.76993e-12
5.88791e-12
4.0978e-12
3.12073e-12
1.94919e-12
1.35958e-12
6.49318e-13
3.49651e-13
1.11016e-13
3.72048e-14
7.69055e-15
9.13078e-16
-3.03826e-19
-3.02578e-19
-3.01313e-19
-3.02925e-19
-3.01166e-19
-3.03354e-19
-2.97417e-19
-3.07821e-19
-2.84158e-19
-3.38025e-19
-1.99069e-19
-5.37356e-19
2.42209e-19
-1.40002e-18
1.74017e-18
-3.60306e-18
4.54421e-18
-6.79493e-18
7.75911e-18
-9.60876e-18
1.12888e-17
-1.8429e-17
2.52579e-17
-3.11859e-17
4.4028e-17
-5.52983e-17
4.7125e-17
-2.61546e-17
-3.65671e-18
2.69171e-17
-2.52086e-17
1.22418e-17
2.36103e-18
-9.121e-18
6.66092e-18
2.29423e-17
-8.23334e-17
1.28152e-16
-5.96333e-17
9.59104e-18
-5.41478e-17
1.0736e-15
-8.7282e-15
1.94181e-14
-7.21996e-14
2.57711e-13
-5.42778e-13
2.32635e-12
-2.43958e-12
1.93009e-11
4.88773e-10
1.28346e-08
-8.6187e-09
-9.38292e-08
2.78471e-07
-8.10722e-08
-2.28033e-07
-2.0196e-07
3.62656e-07
-7.04169e-07
3.28864e-06
-2.56996e-06
-5.12212e-06
4.65206e-06
7.10748e-06
-4.35345e-06
-9.18602e-06
3.64323e-06
8.29793e-06
-7.99773e-07
-5.44647e-06
-1.92806e-06
1.38917e-06
2.11254e-06
9.73781e-07
-5.80338e-07
-7.49102e-07
-1.05361e-08
4.52142e-07
3.08044e-08
-2.94811e-07
-1.26109e-07
3.7116e-08
1.24222e-08
-2.10104e-08
1.09983e-08
1.53092e-08
-1.78972e-08
-2.13061e-08
-8.63655e-09
1.27812e-09
5.87567e-09
5.84206e-09
4.73835e-09
2.82346e-09
9.63654e-10
-1.18348e-10
-3.71363e-10
-1.72697e-10
4.24416e-11
8.80876e-11
4.3119e-11
1.73618e-11
2.01914e-11
2.38082e-11
1.45957e-11
3.68523e-13
-9.13097e-12
-1.2407e-11
-9.99445e-12
-8.16475e-12
-4.7602e-12
-3.36853e-12
-1.50536e-12
-8.59413e-13
-2.64962e-13
-9.84548e-14
-1.4698e-14
-1.72602e-15
3.62283e-19
3.62125e-19
3.59743e-19
3.63941e-19
3.5914e-19
3.67696e-19
3.52312e-19
3.76689e-19
3.3229e-19
4.23486e-19
1.77352e-19
8.59377e-19
-9.06371e-19
3.17544e-18
-5.38914e-18
1.09755e-17
-1.77089e-17
2.91298e-17
-4.19923e-17
5.53181e-17
-5.82042e-17
5.77099e-17
-6.56122e-17
8.75621e-17
-1.1778e-16
1.55368e-16
-2.05615e-16
2.25832e-16
-1.83713e-16
1.56749e-16
-9.78591e-17
1.92933e-17
2.84966e-17
-3.43903e-17
4.26946e-17
-7.75283e-17
1.41294e-16
-2.15886e-16
2.39371e-16
-1.3037e-16
-5.67804e-16
1.159e-15
-8.59384e-16
1.95362e-15
-5.54109e-15
3.43258e-14
-1.27791e-13
2.4446e-13
-4.44607e-12
-1.07823e-10
-1.40471e-09
-5.45094e-09
-1.59097e-08
-3.1218e-08
2.887e-07
-2.06319e-07
1.92888e-07
-4.35295e-07
1.43356e-06
-1.42038e-06
-4.09412e-06
5.84006e-06
8.58193e-06
-1.14389e-05
-1.22344e-05
1.16869e-05
1.57035e-05
-6.21455e-06
-1.44645e-05
-9.06161e-07
8.11139e-06
4.80109e-06
-2.27896e-06
-3.81209e-06
-1.5349e-06
1.08059e-06
1.36091e-06
4.38664e-07
-2.1422e-07
-1.5587e-07
1.76891e-07
1.65869e-07
-1.09112e-07
-2.21615e-07
-1.16272e-07
2.39561e-08
9.1056e-09
-1.37086e-08
1.56587e-09
1.17319e-08
3.43759e-09
-2.63584e-09
-2.86606e-09
-1.73706e-09
-1.74535e-10
3.50545e-10
-1.82613e-10
-6.92426e-10
-6.5036e-10
-3.13806e-10
-3.84602e-11
6.60377e-11
4.11445e-11
-1.96346e-11
-4.96907e-11
-4.41325e-11
-2.90368e-11
-1.4878e-11
-8.56398e-12
-4.95969e-12
-3.94866e-12
-2.78969e-12
-2.19775e-12
-1.10573e-12
-6.20757e-13
-1.92535e-13
-7.21251e-14
-1.21491e-14
-1.63493e-15
-1.17437e-19
-1.17472e-19
-1.16177e-19
-1.20016e-19
-1.20931e-19
-1.29074e-19
-1.28056e-19
-1.34825e-19
-1.31607e-19
-1.44218e-19
-1.26032e-19
-1.79065e-19
-8.34984e-20
-2.8125e-19
1.24377e-19
-7.30537e-19
9.88891e-19
-2.19371e-18
3.26787e-18
-5.13389e-18
6.5198e-18
-8.7117e-18
1.17401e-17
-1.55507e-17
2.46339e-17
-4.01336e-17
5.78808e-17
-7.7507e-17
8.48126e-17
-7.50315e-17
5.31812e-17
-2.58499e-17
7.37602e-18
4.93192e-18
-1.15135e-17
1.86431e-17
-4.14152e-17
1.53433e-17
9.49306e-17
-1.57045e-16
1.86981e-16
-2.58585e-16
-3.61851e-16
5.90011e-15
-5.29751e-14
1.76648e-13
-4.91278e-13
6.85453e-13
-5.38488e-12
8.31105e-11
3.25192e-10
1.47479e-09
-9.23124e-08
1.4072e-07
7.41811e-08
-3.37143e-07
1.2603e-07
6.7823e-07
-1.43342e-06
-5.43481e-07
3.16538e-06
2.59043e-07
-4.18405e-06
-1.05781e-06
4.17328e-06
2.71717e-06
-2.70991e-06
-3.71355e-06
6.7594e-07
2.84581e-06
1.10547e-06
-7.83631e-07
-1.28487e-06
-6.362e-07
2.56397e-07
6.44887e-07
3.27128e-07
-1.00038e-07
-4.24418e-07
1.3415e-08
4.31192e-07
-8.80345e-08
-3.25571e-07
-1.31408e-07
9.81757e-08
9.60025e-08
-1.72303e-08
-7.24261e-08
-3.05602e-08
3.18043e-08
3.74004e-08
6.06821e-09
-1.10554e-08
-1.11763e-08
-7.11402e-09
-4.02578e-09
-1.73343e-09
-1.83441e-10
1.40796e-10
-1.21626e-10
-2.50974e-10
-1.41708e-10
3.33672e-12
3.80985e-11
-1.0881e-11
-5.16738e-11
-5.73181e-11
-3.65856e-11
-2.16197e-11
-1.02535e-11
-6.30998e-12
-3.90605e-12
-2.80462e-12
-1.56276e-12
-8.69051e-13
-2.19748e-13
-5.55406e-14
-2.70421e-15
-9.97605e-17
-2.8871e-19
-2.85944e-19
-2.89461e-19
-2.7689e-19
-2.80289e-19
-2.57399e-19
-2.66857e-19
-2.41286e-19
-2.66471e-19
-2.09521e-19
-2.65409e-19
-2.00643e-19
-2.32352e-19
-1.82454e-19
-2.26169e-19
-1.96983e-19
-6.28782e-20
-6.79874e-19
1.2889e-18
-3.39273e-18
5.99346e-18
-9.64059e-18
1.55953e-17
-2.69881e-17
4.27902e-17
-7.55586e-17
1.38976e-16
-2.11802e-16
2.76669e-16
-3.11692e-16
3.18752e-16
-2.80397e-16
2.10737e-16
-1.56245e-16
1.70642e-16
-1.90552e-16
-5.61447e-17
1.0489e-15
-2.36943e-15
2.31936e-15
9.34488e-16
-2.45022e-15
6.66238e-16
2.09158e-15
-2.03834e-14
7.44675e-14
-1.3237e-13
5.6071e-13
-1.65296e-12
6.23428e-11
7.29152e-10
3.99734e-09
1.16775e-09
-3.38344e-09
-3.12177e-08
3.82076e-08
1.00241e-08
-5.07194e-08
1.71007e-07
1.04664e-07
-2.93156e-07
-2.17711e-07
2.8929e-07
3.22725e-07
-1.46742e-07
-3.6775e-07
-1.23588e-07
2.72054e-07
2.58229e-07
-1.85478e-08
-1.66451e-07
-1.14405e-07
-1.85461e-08
5.5604e-08
6.74792e-08
2.52288e-08
-5.15826e-09
-5.00288e-08
-2.28332e-07
3.71291e-07
2.32661e-07
-4.38112e-07
-3.18332e-07
1.74671e-07
3.02471e-07
4.82522e-08
-1.1417e-07
-1.08707e-07
-5.08836e-08
-7.2221e-09
3.21151e-08
4.6037e-08
2.20059e-08
-8.37309e-09
-1.87896e-08
-1.28502e-08
-5.88805e-09
-2.69577e-09
-9.91933e-10
2.09272e-10
3.87038e-10
1.27033e-11
-2.12244e-10
-1.72522e-10
-9.42404e-11
-6.34094e-11
-5.3364e-11
-3.11922e-11
-1.32976e-11
-4.09654e-12
-1.791e-12
-2.70119e-12
-2.70188e-12
-2.20862e-12
-1.4466e-12
-5.68138e-13
-1.78874e-13
-2.13602e-14
-2.07725e-15
2.91825e-19
2.90276e-19
2.91176e-19
2.84558e-19
2.77986e-19
2.59267e-19
2.52489e-19
2.5277e-19
2.44407e-19
2.1121e-19
2.46256e-19
1.95906e-19
1.9436e-19
2.17088e-19
7.48449e-20
4.55958e-19
-4.63363e-19
1.36416e-18
-2.0048e-18
3.39034e-18
-4.5364e-18
6.46557e-18
-8.58773e-18
1.35555e-17
-2.2722e-17
3.50866e-17
-4.55157e-17
5.34434e-17
-5.21889e-17
4.33172e-17
-3.19303e-17
1.59822e-17
-2.31199e-18
9.20704e-20
4.90824e-18
-5.3261e-18
6.88629e-18
-2.26024e-17
1.15076e-17
6.39772e-18
-7.04809e-18
-5.19589e-17
3.81566e-16
-6.19717e-16
2.2506e-15
-1.11892e-14
2.99984e-14
-6.50953e-14
7.21666e-13
5.49668e-12
9.79448e-11
5.55724e-10
1.13786e-09
-2.21834e-09
9.37394e-10
4.46936e-09
5.1613e-10
-7.6998e-10
-5.25526e-09
-1.01868e-08
9.04481e-09
1.89904e-08
-3.70493e-09
-2.39e-08
-7.22806e-09
1.74032e-08
1.96601e-08
3.97977e-10
-2.07631e-08
-1.43045e-08
8.88018e-09
1.66632e-08
5.67678e-09
-2.2679e-09
-4.76266e-09
-9.15963e-09
1.43637e-08
-9.30925e-09
-8.53183e-08
1.72003e-07
8.50423e-08
-2.75037e-07
-1.60027e-07
2.09473e-07
2.66817e-07
-2.35026e-08
-1.4715e-07
-9.96943e-08
-1.3912e-08
3.76224e-09
-3.70569e-09
2.51816e-08
3.65019e-08
2.49775e-08
3.50531e-09
-1.36202e-08
-1.61038e-08
-1.00254e-08
-4.6307e-09
-1.69074e-09
-3.46489e-11
5.98058e-10
4.56289e-10
1.26873e-10
-6.11486e-11
-1.12919e-10
-1.1132e-10
-6.86907e-11
-2.60097e-11
5.80331e-12
1.53048e-11
1.04688e-11
5.15919e-12
1.15958e-12
-2.75893e-13
-5.09201e-13
-2.14722e-13
-4.50704e-14
-5.5854e-15
-4.75675e-19
-4.79991e-19
-4.83827e-19
-4.94549e-19
-4.90068e-19
-4.81495e-19
-5.07128e-19
-4.94833e-19
-5.10224e-19
-5.21558e-19
-5.14399e-19
-5.55124e-19
-4.69258e-19
-6.39835e-19
-3.59947e-19
-9.44778e-19
1.26409e-19
-1.63549e-18
1.00681e-18
-2.57314e-18
1.9941e-18
-3.6052e-18
3.20817e-18
-5.72407e-18
7.074e-18
-1.09224e-17
1.06294e-17
-1.07301e-17
6.81091e-18
-2.90892e-18
-3.63676e-18
6.77861e-18
-9.14266e-18
7.72262e-18
-5.64366e-18
2.22133e-18
-1.68091e-18
-5.01432e-18
1.27338e-17
3.6369e-18
-9.08787e-17
2.56605e-16
-2.27419e-16
-4.81508e-17
4.28577e-16
-2.08292e-15
5.1396e-15
-6.29541e-15
5.64854e-15
1.99485e-13
2.17887e-13
4.86802e-11
-1.17836e-10
1.98851e-10
-7.80092e-10
-1.88293e-09
6.86865e-10
1.36676e-09
1.83836e-09
1.93315e-09
-8.95791e-10
-3.31482e-09
-1.36744e-09
1.96139e-09
2.07988e-09
-1.95445e-10
-1.91188e-09
-1.26776e-09
1.1313e-09
1.68493e-09
1.51735e-10
-9.12656e-10
-1.07318e-09
-1.17609e-10
9.05213e-10
-3.71091e-09
1.22704e-08
-3.68301e-10
-6.235e-08
9.52233e-08
8.479e-08
-2.3975e-07
-8.79845e-08
2.8762e-07
1.00059e-07
-8.72084e-08
-1.22505e-07
-5.63402e-08
2.27405e-08
3.08591e-08
-1.07149e-08
-1.73794e-09
1.98977e-08
1.98063e-08
1.05889e-08
-1.06864e-09
-9.84985e-09
-1.05347e-08
-6.53583e-09
-3.05219e-09
-9.99099e-10
2.2074e-10
6.73746e-10
5.23908e-10
1.97166e-10
-2.48714e-11
-1.13539e-10
-1.03797e-10
-5.62549e-11
-4.26958e-13
2.38526e-11
2.35903e-11
1.589e-11
7.83426e-12
2.83228e-12
5.32529e-13
6.22622e-14
-1.94925e-14
-3.38929e-15
-3.7063e-19
-3.63786e-19
-3.5467e-19
-3.54844e-19
-3.45527e-19
-3.34543e-19
-2.91687e-19
-2.88322e-19
-2.57939e-19
-2.31032e-19
-2.03426e-19
-1.60319e-19
-1.48122e-19
-4.51308e-20
-6.75441e-20
9.27927e-20
-8.30481e-20
2.96928e-19
-1.77026e-19
5.04972e-19
-2.04087e-19
6.6096e-19
-2.91131e-19
9.69651e-19
-6.5824e-19
1.55438e-18
-7.52033e-19
1.21337e-18
1.61523e-20
3.24416e-19
9.02669e-19
-5.53962e-20
9.38538e-19
2.81544e-19
5.22105e-19
6.48383e-19
7.02583e-19
4.25158e-19
4.96683e-19
3.54147e-19
1.0282e-18
-3.06186e-19
2.48219e-19
1.03963e-17
-5.11767e-17
1.4049e-16
-1.8547e-16
-3.41345e-16
1.85913e-15
-1.30733e-14
-3.07658e-13
-2.11201e-12
-3.21316e-12
-6.82696e-11
8.58592e-11
1.80625e-10
-8.31338e-11
-2.03567e-10
-2.27647e-10
-1.89136e-10
1.84325e-10
4.47558e-10
2.95729e-10
-1.0278e-10
-3.46581e-10
-1.81343e-10
9.11715e-11
2.60082e-10
2.85995e-12
-2.62812e-10
-4.51456e-11
2.42052e-10
-1.57197e-11
1.65614e-10
8.60816e-10
-5.08548e-09
1.13884e-08
4.02236e-09
-6.59881e-08
9.05662e-08
5.18101e-08
-2.01146e-07
9.22237e-09
2.24479e-07
4.82339e-09
-9.0817e-08
-8.55978e-08
-2.01754e-08
3.53979e-08
3.51803e-08
-9.4185e-09
-1.10632e-08
1.19034e-08
1.23145e-08
6.35015e-09
1.07417e-09
-5.23563e-09
-7.75652e-09
-5.4193e-09
-2.46949e-09
-9.70773e-10
-1.00628e-10
5.14698e-10
6.18829e-10
3.53322e-10
6.45671e-11
-8.74279e-11
-1.13201e-10
-7.05021e-11
-4.94966e-12
2.84923e-11
3.05572e-11
2.15677e-11
1.1673e-11
4.56637e-12
1.40325e-12
3.03915e-13
9.69416e-15
-4.25483e-16
1.39526e-18
1.40155e-18
1.39956e-18
1.45162e-18
1.44535e-18
1.45996e-18
1.47808e-18
1.48004e-18
1.52228e-18
1.51286e-18
1.54607e-18
1.55843e-18
1.57752e-18
1.58361e-18
1.59655e-18
1.5981e-18
1.61127e-18
1.58426e-18
1.67136e-18
1.56898e-18
1.66728e-18
1.57636e-18
1.70109e-18
1.53374e-18
1.6866e-18
1.49763e-18
1.66846e-18
1.5367e-18
1.58063e-18
1.58357e-18
1.50824e-18
1.60785e-18
1.46634e-18
1.61411e-18
1.4472e-18
1.57687e-18
1.44957e-18
1.48882e-18
1.48665e-18
1.45164e-18
1.44324e-18
1.50709e-18
1.38868e-18
1.26045e-18
1.62561e-18
-1.55966e-17
4.20925e-17
-5.61164e-17
6.54569e-16
-1.3493e-15
-2.96554e-14
-1.66187e-13
-1.57026e-12
1.71794e-11
-1.59373e-11
-7.77708e-11
2.4316e-11
1.08427e-10
6.51119e-11
-3.68699e-12
-6.73604e-11
-1.3665e-10
-1.45819e-10
-5.82485e-11
1.46229e-10
3.58751e-10
7.12023e-12
-3.05509e-10
1.26202e-10
-2.23069e-10
1.752e-10
2.75368e-10
-6.09868e-10
1.26044e-10
9.40778e-10
-5.46868e-09
1.5339e-08
-2.2081e-09
-6.65631e-08
1.12993e-07
6.08618e-09
-1.45365e-07
3.81121e-08
1.39544e-07
-2.26895e-08
-9.1659e-08
-5.69129e-08
2.25557e-08
5.63497e-08
1.28448e-08
-2.72322e-08
-3.99772e-09
1.32104e-08
6.18446e-09
2.31159e-09
1.10733e-09
-3.37594e-09
-6.05697e-09
-4.25878e-09
-1.72326e-09
-6.7049e-10
-1.08527e-10
4.45576e-10
6.08966e-10
3.81384e-10
9.17949e-11
-7.48262e-11
-1.1342e-10
-7.46736e-11
-5.47031e-12
3.21928e-11
3.46364e-11
2.52092e-11
1.4205e-11
5.80891e-12
2.09021e-12
5.32098e-13
4.67014e-14
4.2394e-15
9.9907e-19
1.00122e-18
1.00896e-18
9.77382e-19
1.02383e-18
1.03954e-18
9.9398e-19
1.01123e-18
9.71625e-19
1.04075e-18
9.93662e-19
1.01957e-18
1.00875e-18
9.58466e-19
9.78764e-19
9.56891e-19
9.49563e-19
9.29195e-19
9.19877e-19
8.99824e-19
8.80724e-19
8.40608e-19
8.11033e-19
8.16857e-19
7.7625e-19
7.65325e-19
7.72211e-19
7.2475e-19
7.42256e-19
6.8935e-19
7.03916e-19
6.69496e-19
6.74796e-19
6.4196e-19
6.52554e-19
6.25927e-19
6.34726e-19
6.19165e-19
6.19618e-19
6.01249e-19
6.0591e-19
6.08905e-19
6.00078e-19
6.64832e-19
3.85889e-19
1.34735e-18
-1.68578e-18
1.08337e-17
6.05679e-18
1.10322e-16
8.10716e-15
-5.01262e-14
2.6245e-13
-5.75484e-12
2.9077e-12
2.61794e-11
-6.84567e-12
-2.81487e-11
-6.46179e-12
1.53247e-11
-1.59237e-11
1.48704e-11
6.50565e-11
-1.71576e-11
-4.77305e-11
4.41148e-13
-3.04898e-11
-1.94898e-11
7.79782e-11
-5.572e-12
9.34221e-12
1.1048e-10
-4.41877e-10
7.98598e-10
-5.9727e-11
-6.97499e-09
3.31284e-08
-3.26481e-08
-4.90423e-08
1.07341e-07
-1.9107e-08
-1.05339e-07
5.95616e-08
9.25613e-08
-5.76507e-08
-8.40901e-08
1.08275e-08
6.49789e-08
1.08957e-08
-3.02552e-08
-9.73607e-09
1.13398e-08
6.77777e-09
1.91007e-10
1.16336e-09
1.31181e-09
-2.90916e-09
-4.83033e-09
-2.7442e-09
-7.16651e-10
-2.99974e-10
-9.04277e-11
3.61626e-10
5.35147e-10
3.39389e-10
8.05541e-11
-7.0834e-11
-1.06794e-10
-6.83521e-11
-2.34757e-12
3.51802e-11
3.59275e-11
2.53928e-11
1.43508e-11
6.13192e-12
2.38052e-12
6.42658e-13
7.61828e-14
8.02185e-15
1.38013e-18
1.37044e-18
1.35488e-18
1.38453e-18
1.34481e-18
1.3138e-18
1.32628e-18
1.32763e-18
1.32231e-18
1.25819e-18
1.23216e-18
1.21067e-18
1.16702e-18
1.15941e-18
1.0932e-18
1.0677e-18
1.03399e-18
9.95546e-19
9.513e-19
9.51132e-19
9.24938e-19
9.07699e-19
8.94718e-19
9.26528e-19
8.93354e-19
8.89476e-19
8.50894e-19
9.05199e-19
8.14737e-19
8.49019e-19
8.24057e-19
8.21756e-19
8.09777e-19
8.06203e-19
8.28234e-19
7.92535e-19
8.06421e-19
7.72691e-19
7.96957e-19
7.56771e-19
8.0457e-19
8.30455e-19
6.33851e-19
9.93284e-19
8.38577e-19
-4.4337e-19
5.3583e-18
-1.92573e-17
3.32122e-17
-3.65112e-17
-3.14892e-15
9.58735e-15
-1.07455e-13
1.34373e-12
-1.89686e-12
-2.67552e-12
-1.26703e-12
2.45896e-12
3.46438e-12
-2.91912e-12
-5.41087e-12
1.34166e-11
4.99954e-12
-3.96127e-11
1.63857e-12
3.90701e-11
1.2936e-11
-2.87697e-11
-4.8914e-12
-3.73067e-11
1.44533e-10
-1.18499e-10
-2.30696e-10
1.14793e-09
-3.66663e-09
4.73197e-09
1.45055e-08
-5.87744e-08
3.8814e-08
6.32413e-08
-8.77564e-08
-2.31019e-08
9.65987e-08
-1.09282e-08
-7.54579e-08
1.09514e-08
4.41704e-08
2.7471e-10
-1.91097e-08
-3.8683e-09
6.43867e-09
4.53643e-09
5.96042e-10
-1.02374e-09
1.23633e-09
6.72834e-10
-2.8392e-09
-3.40577e-09
-1.236e-09
-2.85304e-11
-1.61534e-10
-9.37447e-11
3.21116e-10
4.55998e-10
2.73511e-10
4.66865e-11
-7.50361e-11
-9.81767e-11
-5.82339e-11
2.99803e-12
3.6914e-11
3.53634e-11
2.40175e-11
1.33931e-11
5.96842e-12
2.43113e-12
6.70514e-13
1.04921e-13
1.1345e-14
1.31418e-18
1.31076e-18
1.3115e-18
1.25297e-18
1.23435e-18
1.18748e-18
1.17866e-18
1.07774e-18
1.01844e-18
1.0015e-18
9.74153e-19
8.91124e-19
8.63751e-19
7.84161e-19
7.54403e-19
7.04348e-19
6.72115e-19
6.42776e-19
5.78955e-19
5.67784e-19
5.13789e-19
4.92472e-19
4.54557e-19
3.90007e-19
4.42542e-19
4.03892e-19
3.80329e-19
2.95654e-19
3.36876e-19
2.57682e-19
2.85892e-19
2.46946e-19
2.62828e-19
2.39543e-19
2.19191e-19
2.34283e-19
2.27052e-19
2.14811e-19
2.2057e-19
1.96337e-19
1.85276e-19
1.98668e-19
1.78372e-19
3.35677e-20
3.87834e-19
1.28117e-19
-3.09749e-19
2.17833e-18
-1.97045e-17
1.06809e-16
-1.46276e-15
9.86226e-15
3.23361e-15
-9.09457e-14
-2.66673e-13
2.65923e-12
-1.56142e-12
-2.60647e-12
1.35243e-12
3.98349e-13
-4.04319e-12
9.19061e-12
-3.35465e-12
-2.10624e-11
1.44953e-11
2.60934e-11
-2.32409e-11
-1.44788e-11
6.68613e-12
8.05025e-12
2.20909e-11
-1.32827e-10
4.03691e-10
-7.31992e-10
2.79942e-10
6.0425e-09
-1.7401e-08
5.23222e-09
2.96258e-08
-2.46265e-08
-2.24527e-08
3.59899e-08
2.10735e-09
-2.76767e-08
5.2543e-09
1.66702e-08
-1.57416e-09
-9.38205e-09
-1.22338e-09
3.97379e-09
1.14478e-09
1.32885e-09
-8.91612e-10
-5.55706e-10
1.45009e-09
-3.00478e-10
-2.69117e-09
-1.96143e-09
-1.50714e-10
2.19555e-10
-1.84638e-10
-6.96393e-11
3.20537e-10
3.74036e-10
1.90879e-10
4.8883e-12
-8.04961e-11
-8.81155e-11
-4.4705e-11
1.00112e-11
3.82894e-11
3.38333e-11
2.19456e-11
1.20666e-11
5.53019e-12
2.32998e-12
6.26378e-13
1.13646e-13
1.28808e-14
-5.36324e-20
-6.71801e-20
-6.85946e-20
-1.07671e-19
-1.08654e-19
-1.16881e-19
-9.08392e-20
-1.00295e-19
-7.48713e-20
-9.04199e-20
-8.20555e-20
-6.85919e-20
-4.27764e-20
-4.04797e-20
-1.16956e-20
1.14788e-20
-1.33561e-20
5.18126e-20
1.04531e-19
8.47806e-20
1.40034e-19
1.32586e-19
1.51886e-19
1.50921e-19
4.28188e-20
1.18395e-19
1.17412e-19
1.91408e-19
1.28778e-19
1.88319e-19
1.79086e-19
2.04273e-19
1.97817e-19
2.20326e-19
2.60841e-19
2.25427e-19
2.74238e-19
2.30749e-19
2.74021e-19
2.34637e-19
3.15714e-19
2.28927e-19
2.56727e-19
3.11354e-19
1.40898e-19
5.71739e-19
-9.30099e-20
-1.30529e-19
-8.03456e-18
3.16188e-17
-2.04607e-15
9.43292e-15
6.5748e-15
1.58538e-13
-8.67919e-13
4.85857e-13
2.60231e-12
-1.716e-12
-2.09662e-12
1.52534e-12
1.06475e-12
-2.78352e-12
5.26904e-12
-2.79195e-12
-6.57194e-12
2.83819e-12
4.80273e-12
3.10902e-12
-8.63778e-12
1.77651e-11
-4.25973e-11
1.02249e-10
-1.0424e-10
-3.43981e-10
1.73543e-09
-2.9349e-09
1.64821e-10
5.22054e-09
-3.65744e-09
-4.76462e-09
5.84674e-09
2.42786e-09
-6.65272e-09
6.16952e-10
4.66829e-09
-3.34082e-10
-3.69058e-09
-2.97128e-10
2.24273e-09
-4.23828e-10
6.06154e-10
2.06733e-10
-1.36106e-09
5.89351e-10
9.68843e-10
-1.13643e-09
-1.97264e-09
-7.50865e-10
3.28894e-10
1.2185e-10
-2.46247e-10
1.26246e-11
3.29409e-10
2.85084e-10
1.08649e-10
-2.85524e-11
-8.14118e-11
-7.40287e-11
-2.84311e-11
1.83334e-11
3.86553e-11
3.07803e-11
1.90146e-11
1.03198e-11
4.81932e-12
2.0859e-12
5.74107e-13
1.0852e-13
1.31794e-14
-1.7008e-18
-1.66983e-18
-1.61387e-18
-1.5302e-18
-1.49462e-18
-1.38938e-18
-1.42243e-18
-1.33077e-18
-1.18895e-18
-1.10636e-18
-1.02821e-18
-9.06238e-19
-8.60844e-19
-6.58503e-19
-5.61581e-19
-4.5185e-19
-3.41404e-19
-2.54338e-19
-9.66414e-20
-1.3971e-20
1.46384e-19
1.48973e-19
2.39833e-19
4.26897e-19
4.99183e-19
4.67439e-19
5.47833e-19
6.26287e-19
7.10654e-19
7.47442e-19
8.67147e-19
8.67003e-19
9.42945e-19
9.35661e-19
9.62797e-19
1.05163e-18
9.78937e-19
1.14824e-18
1.05685e-18
1.12478e-18
1.2433e-18
1.08305e-18
1.23423e-18
1.17329e-18
1.1071e-18
2.02914e-18
-2.38204e-18
6.68712e-18
-1.81455e-17
1.82277e-16
-7.29003e-15
1.23643e-14
4.87871e-15
-1.78659e-14
-3.76537e-14
5.95054e-14
2.42323e-13
-8.9333e-13
5.6721e-13
-1.00303e-12
-5.14032e-13
1.38263e-12
-4.32139e-13
-9.09947e-13
1.74877e-12
-1.09381e-12
9.18233e-12
-2.37191e-11
4.41633e-11
-6.86208e-11
4.52685e-11
7.33797e-11
-2.6041e-10
3.76327e-10
-1.51592e-10
-5.17215e-10
1.07314e-09
-5.1897e-10
-9.55429e-10
1.35225e-09
-6.89076e-11
-1.10177e-09
5.05675e-10
1.09689e-09
-3.21182e-10
-1.12981e-09
-2.4486e-10
1.02432e-09
-4.40206e-10
-2.77125e-10
8.54316e-10
-1.19834e-09
-1.9181e-10
1.07925e-09
-2.27334e-11
-1.1336e-09
-9.65699e-10
-4.62365e-12
3.83333e-10
-6.6564e-11
-2.28816e-10
1.10087e-10
2.95633e-10
1.79937e-10
3.2966e-11
-4.80653e-11
-7.38706e-11
-5.62692e-11
-1.246e-11
2.46318e-11
3.71427e-11
2.70767e-11
1.60857e-11
8.62014e-12
4.12142e-12
1.80441e-12
5.19401e-13
9.78179e-14
1.25892e-14
-1.17296e-18
-1.16567e-18
-1.19906e-18
-1.18596e-18
-1.15689e-18
-1.13557e-18
-1.04512e-18
-9.17496e-19
-9.61209e-19
-8.98665e-19
-7.66268e-19
-6.78539e-19
-5.96857e-19
-4.96611e-19
-4.224e-19
-3.284e-19
-2.10425e-19
-1.39591e-19
-1.23979e-19
-1.1998e-20
2.02349e-20
1.44858e-19
1.50709e-19
2.28999e-19
3.96165e-19
4.61945e-19
5.52113e-19
5.30883e-19
6.08002e-19
6.40503e-19
7.29526e-19
6.91149e-19
8.25965e-19
7.34671e-19
8.88783e-19
8.25574e-19
8.89963e-19
9.86583e-19
9.08762e-19
1.07555e-18
9.98817e-19
1.06801e-18
1.07116e-18
1.14636e-18
1.08826e-18
1.47081e-18
8.08243e-20
3.29688e-18
1.31255e-18
-3.12351e-16
-8.6693e-15
1.35295e-14
-6.79458e-15
-2.89763e-14
1.60549e-13
-6.02139e-13
2.06536e-12
-5.79098e-12
7.30356e-12
-3.81816e-12
-2.31502e-12
-1.11962e-12
-2.20868e-12
4.33847e-12
-2.93033e-11
1.31615e-10
-1.8647e-10
1.09041e-10
-1.4293e-11
-9.68757e-12
-3.28975e-12
-1.03195e-11
-5.72961e-12
1.17351e-10
-2.08525e-10
1.64181e-10
6.13379e-11
-2.85407e-10
2.11983e-10
8.96404e-11
-3.55641e-10
2.0585e-10
3.87239e-10
-2.3257e-10
-3.37318e-10
-1.12709e-10
3.32599e-10
-2.67874e-11
-7.13624e-10
8.46604e-10
-5.60548e-10
-7.72423e-10
9.10045e-10
3.767e-10
-5.30598e-10
-6.81912e-10
-3.31827e-10
2.84329e-10
2.37049e-10
-2.02971e-10
-1.3197e-10
1.72383e-10
2.14896e-10
8.95294e-11
-8.41593e-12
-5.08313e-11
-5.96711e-11
-3.65337e-11
1.54051e-12
2.83231e-11
3.39603e-11
2.29398e-11
1.31521e-11
7.03337e-12
3.43449e-12
1.51523e-12
4.53596e-13
8.42662e-14
1.12121e-14
4.61295e-19
4.15895e-19
3.75333e-19
3.51312e-19
3.67664e-19
3.7148e-19
3.70847e-19
3.51211e-19
3.15474e-19
3.15049e-19
1.20845e-19
4.77258e-20
7.68247e-20
-9.74101e-20
-1.24935e-19
-2.30717e-19
-2.84378e-19
-4.27728e-19
-5.24749e-19
-5.48241e-19
-6.09827e-19
-6.37807e-19
-6.56911e-19
-6.35149e-19
-7.41393e-19
-7.47525e-19
-7.877e-19
-7.99324e-19
-7.95414e-19
-8.41345e-19
-7.61828e-19
-8.46717e-19
-7.55517e-19
-8.08184e-19
-7.38196e-19
-7.50135e-19
-7.61262e-19
-6.53113e-19
-7.97636e-19
-4.92759e-19
-8.82525e-19
-3.47448e-19
-7.80731e-19
-7.39171e-19
1.35052e-19
-1.4312e-18
-5.39359e-19
-2.75357e-17
-6.72363e-17
-3.941e-15
2.44329e-14
-1.91272e-14
-5.33335e-15
-6.22911e-14
2.69781e-13
-8.72382e-13
2.86576e-12
-6.09542e-12
1.34778e-11
-1.47991e-11
-1.03145e-11
2.45979e-11
-6.85783e-11
1.35041e-10
-7.49751e-11
-1.97942e-11
-3.72826e-11
1.78575e-10
-2.11692e-10
1.38799e-10
-6.42474e-11
2.818e-11
2.04707e-11
-2.4485e-11
-3.80883e-11
8.95265e-11
-6.96204e-11
-2.84225e-11
1.19459e-10
-1.45591e-10
-9.66741e-12
1.8516e-10
7.98563e-12
-1.76725e-10
-3.72573e-11
6.64556e-11
1.22206e-10
-4.59353e-10
1.78127e-10
3.20646e-10
-9.8379e-10
5.23072e-10
5.70108e-10
-3.63818e-10
-3.01987e-10
-2.87844e-10
-1.30848e-11
3.15488e-10
1.19511e-11
-2.35609e-10
-2.57505e-12
1.82814e-10
1.36335e-10
3.35015e-11
-2.71032e-11
-4.62104e-11
-4.48835e-11
-2.02108e-11
1.16561e-11
2.92803e-11
2.98264e-11
1.88373e-11
1.05489e-11
5.67813e-12
2.81474e-12
1.25351e-12
3.84003e-13
7.03053e-14
9.5466e-15
1.10228e-18
1.13547e-18
1.11602e-18
1.10088e-18
9.6922e-19
8.62367e-19
7.67987e-19
6.25442e-19
5.49797e-19
4.37231e-19
3.41758e-19
2.76168e-19
1.32638e-19
7.65674e-20
-9.50193e-20
-1.86591e-19
-3.00394e-19
-3.39756e-19
-4.19498e-19
-5.41351e-19
-6.42784e-19
-7.26232e-19
-8.349e-19
-8.04211e-19
-8.66016e-19
-9.54151e-19
-9.73021e-19
-9.82146e-19
-1.03367e-18
-1.04425e-18
-1.1021e-18
-1.07846e-18
-1.16974e-18
-1.14264e-18
-1.19379e-18
-1.21312e-18
-1.14269e-18
-1.33466e-18
-1.004e-18
-1.4672e-18
-9.71968e-19
-1.37394e-18
-1.15621e-18
-1.43381e-18
-4.49494e-19
-2.57407e-18
1.55952e-18
-1.3851e-17
-1.84732e-16
-1.61375e-15
3.20169e-15
-8.3477e-15
-3.75917e-15
3.78776e-15
4.80541e-14
-1.93509e-13
5.63237e-13
6.50286e-13
-1.43307e-11
5.89734e-11
-1.36101e-10
9.07444e-11
4.12604e-11
-7.80614e-11
-4.99159e-11
1.39305e-10
-5.28162e-11
3.42687e-11
-1.46096e-10
1.89618e-10
-9.64067e-11
2.99668e-11
-3.41729e-12
-3.15445e-11
3.50309e-11
7.11664e-12
-3.47986e-11
3.23654e-11
-4.30441e-12
-6.96517e-11
9.82505e-11
2.35868e-11
-7.67866e-11
-3.65989e-11
2.42143e-11
5.3415e-11
-1.02569e-10
-1.25468e-10
3.5708e-10
-4.75622e-10
-1.80702e-10
7.64502e-10
-2.1931e-10
-3.19456e-10
6.38437e-12
-1.26266e-10
1.48713e-10
1.96448e-10
-1.52374e-10
-1.51616e-10
9.21974e-11
1.48181e-10
6.82618e-11
-2.51288e-12
-3.40269e-11
-3.89081e-11
-3.08564e-11
-7.23196e-12
1.82183e-11
2.80799e-11
2.51506e-11
1.49909e-11
8.33737e-12
4.54946e-12
2.2874e-12
1.01438e-12
3.1663e-13
5.69957e-14
7.79878e-15
3.85124e-19
3.74964e-19
4.24533e-19
3.62476e-19
4.81192e-19
4.58146e-19
5.08992e-19
5.15377e-19
5.1682e-19
4.83588e-19
5.38712e-19
4.8883e-19
4.22806e-19
4.0127e-19
3.59431e-19
3.67516e-19
2.60097e-19
3.19554e-19
2.11564e-19
2.0062e-19
1.09088e-19
1.69771e-19
-3.01421e-20
-1.24005e-19
-1.74912e-19
-1.74573e-19
-3.01346e-19
-3.54516e-19
-4.84611e-19
-5.21229e-19
-5.85508e-19
-6.25282e-19
-7.02697e-19
-7.2153e-19
-7.40267e-19
-8.35662e-19
-8.69356e-19
-8.72266e-19
-1.01952e-18
-8.2568e-19
-1.23065e-18
-6.98886e-19
-1.55597e-18
-5.90256e-19
-1.52302e-18
-1.45251e-18
-4.0651e-19
5.68702e-17
3.33007e-16
6.2052e-15
-6.43084e-15
1.05074e-14
1.28488e-14
7.12568e-15
1.33582e-14
9.83163e-14
2.62834e-13
-2.00091e-12
7.83408e-12
-3.06566e-11
3.96473e-11
1.78635e-11
-8.5208e-11
3.19837e-11
6.32786e-11
3.24608e-11
-1.1884e-10
4.90289e-11
-2.90737e-11
1.19915e-10
-1.12391e-10
3.23383e-11
-8.2229e-12
-3.29051e-12
4.06771e-11
-5.79241e-11
3.8653e-11
9.72386e-12
-4.50926e-11
1.99527e-11
5.12585e-11
-4.40179e-11
-2.31212e-11
1.76189e-11
1.74816e-11
3.59588e-12
-8.14934e-11
5.08297e-11
7.01481e-11
-3.67504e-10
4.0507e-10
2.0104e-10
-3.9495e-10
4.3234e-11
4.8101e-11
-3.73797e-11
1.99697e-10
2.49711e-11
-1.91157e-10
-2.5693e-11
1.25936e-10
9.50597e-11
2.37981e-11
-1.77091e-11
-3.2716e-11
-3.01555e-11
-1.84898e-11
2.2259e-12
2.14896e-11
2.5362e-11
2.0451e-11
1.16287e-11
6.53571e-12
3.63012e-12
1.83577e-12
8.11056e-13
2.55007e-13
4.4993e-14
6.21576e-15
9.28204e-19
9.19089e-19
8.6957e-19
7.51073e-19
7.59072e-19
7.60958e-19
6.65913e-19
6.15416e-19
5.25203e-19
4.94282e-19
3.84274e-19
3.02664e-19
3.12898e-19
2.30447e-19
1.61383e-19
8.71806e-20
8.09053e-20
-9.28659e-21
-1.96832e-21
-1.19566e-19
-1.56121e-19
-1.73652e-19
-2.57216e-19
-3.18279e-19
-3.8375e-19
-4.35524e-19
-5.13695e-19
-5.48608e-19
-6.06085e-19
-6.3993e-19
-6.81115e-19
-7.76513e-19
-7.41049e-19
-8.71135e-19
-8.32596e-19
-8.97157e-19
-9.2576e-19
-8.8527e-19
-1.08098e-18
-7.76368e-19
-1.38788e-18
-4.78219e-19
-1.61973e-18
-5.11692e-19
-1.83836e-18
-1.07353e-18
1.35992e-18
6.33028e-17
2.07172e-15
4.99567e-15
1.46357e-14
-1.69989e-14
2.32117e-14
1.24507e-14
1.43339e-13
-3.67911e-13
2.5587e-12
-9.52439e-12
3.66215e-11
-1.54727e-11
-1.76423e-11
-5.99063e-11
4.96761e-11
7.08191e-11
-3.42884e-11
-4.52829e-11
-3.78157e-11
8.41079e-11
-6.94671e-12
2.41295e-11
-8.39713e-11
5.3932e-11
-7.76897e-12
1.48633e-11
5.6622e-12
-6.55693e-11
7.2947e-11
-2.77398e-11
-3.07742e-11
4.26916e-11
6.23053e-12
-3.89606e-11
2.42896e-11
1.42546e-11
-1.76926e-12
-1.67673e-11
-4.43764e-11
8.82472e-11
-8.39746e-11
-1.0787e-10
3.58854e-10
-2.02866e-10
-1.24893e-10
1.76554e-10
-4.58371e-11
4.93588e-11
1.48628e-10
-1.00403e-10
-1.29939e-10
5.18501e-11
1.03774e-10
5.22972e-11
4.48975e-12
-2.0949e-11
-2.68322e-11
-2.09604e-11
-8.49963e-12
8.62621e-12
2.22058e-11
2.17086e-11
1.60691e-11
8.89699e-12
5.11119e-12
2.89881e-12
1.46141e-12
6.3921e-13
2.00874e-13
3.51186e-14
4.83996e-15
4.36859e-19
4.34353e-19
4.42677e-19
4.23927e-19
3.53834e-19
4.1243e-19
2.89548e-19
1.34418e-19
3.17331e-20
6.63023e-20
1.3257e-22
7.76431e-20
-9.47457e-20
-5.48577e-20
-7.31865e-20
-1.82224e-19
-1.75673e-19
-3.8768e-19
-3.83662e-19
-4.3362e-19
-4.98474e-19
-6.94067e-19
-5.54008e-19
-6.94432e-19
-6.66727e-19
-7.44009e-19
-6.88975e-19
-7.16202e-19
-6.71255e-19
-6.85267e-19
-7.12644e-19
-6.44369e-19
-6.76283e-19
-6.56802e-19
-6.89981e-19
-6.77091e-19
-6.68803e-19
-7.01579e-19
-6.54111e-19
-7.39684e-19
-5.70544e-19
-8.97791e-19
-4.32756e-19
-9.94383e-19
-3.41584e-19
-2.89675e-18
1.28836e-17
-5.05296e-17
3.75055e-15
-1.17028e-14
1.22912e-14
7.84347e-15
2.8216e-14
7.96952e-15
1.46492e-13
1.98113e-13
3.70638e-13
-2.68349e-13
4.05565e-11
-9.54079e-11
4.67433e-11
1.6678e-11
3.61749e-11
-2.4258e-11
-5.12911e-11
1.2039e-11
2.50161e-11
4.01388e-11
-3.95476e-11
-8.66481e-12
-2.93414e-11
5.62878e-11
-1.82504e-11
2.3773e-12
-1.12504e-11
-2.58634e-11
5.20802e-11
-3.47255e-11
-5.57099e-12
3.2454e-11
-1.51946e-11
-1.67434e-11
2.69966e-11
5.54538e-12
-1.48023e-11
-1.93142e-11
-6.93074e-12
7.1023e-11
-1.29975e-10
1.02312e-10
9.67905e-11
-2.24938e-10
1.04704e-10
8.72204e-11
-7.42912e-11
9.79693e-11
4.73256e-11
-1.19881e-10