/*--------------------------------*- C++ -*----------------------------------*\
| =========                 |                                                 |
| \\      /  F ield         | OpenFOAM: The Open Source CFD Toolbox           |
|  \\    /   O peration     | Version:  2.2.x                                 |
|   \\  /    A nd           | Web:      www.OpenFOAM.org                      |
|    \\/     M anipulation  |                                                 |
\*---------------------------------------------------------------------------*/
FoamFile
{
    version     2.0;
    format      ascii;
    class       volScalarField;
    location    "0.7";
    object      divBf;
}
// * * * * * * * * * * * * * * * * * * * * * * * * * * * * * * * * * * * * * //

dimensions      [1 -3 -2 0 0 -1 0];

internalField   nonuniform List<scalar> 
14161
(
449.944
349.068
318.532
279.423
246.021
214.715
187.995
164.897
146.702
133.324
125.498
123.401
127.431
137.503
154.035
175.846
203.994
235.845
272.062
311.363
350.282
394.061
427.004
468.483
503.131
534.585
560.761
602.857
573.179
630.267
618.371
609.708
568.655
586.287
573.723
612.479
640.153
703.095
798.328
920.708
1094.92
1329.5
1587.93
1871.02
2401.63
-26288.7
-27439.4
-27451.1
-30458.3
-23954
-26445.9
-25865.6
-29725.4
-14915.5
-37319.3
-26521.9
-43406.2
-39566.5
-36845.9
-33582.5
-34908.3
-31207.7
-27555.2
-23151.9
-21455.4
-19305.5
-16907.1
-14219.2
-12709.2
-11170.5
-8622.83
-4712.16
-4970.83
-1462.97
3573.34
5298.15
-5543
8704.38
30076
7837.85
39165
28583.3
30520.4
22879.9
19116.2
13544.5
7995.75
5834.08
4105.66
3219.88
3080.37
3562.45
3416.74
3775.42
3139.98
3143.52
2341.54
1797.16
1135.55
438.859
11.31
-962.178
-1848.58
-2608.91
-2651.38
-4213.65
-3932.19
-5117.02
-4989.16
-6073.87
-5100.49
-6816.61
-3745.91
-6784.56
-829.631
-6046.3
3362.83
-4538.25
7657.7
202.166
102.749
72.6575
33.1207
-1.55359
-34.9367
-64.5415
-91.322
-114.03
-132.774
-146.865
-156.173
-160.38
-159.511
-153.525
-142.939
-127.953
-109.511
-88.7938
-65.6574
-44.2934
-19.8609
-1.44097
15.115
34.1966
20.2149
52.9057
50.5695
27.0211
4.1671
-16.745
-33.9922
-79.0864
-107.263
-149.619
-180.028
-184.172
-172.314
-119.79
-73.2408
85.206
173.807
382.429
538.499
700.694
-24117.7
-25676
-27271.7
-28423.1
-28106.9
-31989.7
15893.9
-22612.9
-15997.3
-35346.2
-27829.8
-35531.8
-31278.5
-34200.3
-32520.6
-29285
-25823.4
-25802.9
-24514.3
-22603.6
-19674.8
-16971.2
-16224.8
-13124.9
-9408.13
-8435.21
-8202.59
-3640.08
-1736.84
-599.173
2303.87
12475.8
14134.4
7444.15
31144.5
25060.6
23464.3
35228.9
21517.5
20554.5
18670.9
15725.1
12318.5
8179.59
6558.94
4814.66
4569.19
4193.31
4105.78
3767.71
3677.4
3104.49
2384.88
1880.43
1065.43
314.646
-644.638
-673.45
-2104.23
-2442.35
-3346.84
-3204.53
-4849.36
-4284.35
-5499.44
-4539.64
-6249.13
-3564
-6540.4
-890.185
-5993.91
3287.4
-4544.88
7376.24
-41.0382
-137.365
-165.646
-204.16
-238.669
-272.653
-303.643
-332.561
-358.183
-380.633
-399.244
-413.941
-424.429
-430.793
-432.979
-431.688
-426.902
-419.963
-411.063
-402.278
-393.879
-386.713
-383.484
-383.777
-388.214
-399.36
-406.386
-445.929
-441.941
-494.612
-538.698
-602.258
-654.267
-714.495
-751.079
-784.58
-786.502
-761.152
-701.038
-599.843
-429.627
-183.748
58.901
526.765
1210.55
-18818.9
-19415.3
-19629.7
-22732.7
-15386
-46633.7
42094.3
-47582
-31922.5
-48539.3
-40447.9
-46185
-37916.8
-35954.8
-30369.4
-28718.9
-24752.7
-21499.7
-19414.2
-15446.7
-13366.8
-10785.1
-9982.87
-7586.66
-5440.7
-4601.54
-2767.8
-1537.61
460.163
3929.27
8299.08
11614.6
7152.96
17756.3
14503.4
18420.1
25847.9
30154.1
35657.2
38090.7
36222.7
28082.4
20517.8
13705
9179.29
6418.14
5735.79
4801.39
5222.93
4531.44
4561
3747.32
3206.13
2476.49
1152.64
942.568
-88.9736
-563.476
-1855.43
-1710.95
-3024.37
-2834.63
-4047.78
-3792.12
-5041.69
-4200.82
-5905.01
-3429.72
-6308.15
-946.467
-5772.74
3129.85
-4328.6
7350.27
-278.073
-369.95
-395.12
-431.328
-464.389
-497.688
-528.754
-558.472
-585.633
-610.361
-632.006
-650.534
-665.665
-677.454
-686.119
-691.818
-695.298
-697.239
-697.938
-700.569
-701.023
-710.637
-714.275
-732.323
-750.92
-765.755
-818.343
-825.102
-879.348
-956.778
-995.948
-1068.78
-1140.2
-1219.59
-1292.99
-1372.22
-1439.94
-1484.02
-1496.43
-1491.89
-1383.39
-1323.52
-1185.62
-903.474
-597.278
-17696.2
-18286.3
-18998.7
-19590
-20518.3
-19560.8
-56006.6
-45552.1
-43628.2
-39603.6
-33876.8
-32624
-29422.9
-28904
-22219.2
-22942.7
-19613.2
-18286.7
-14512.3
-13901.9
-12081.9
-10803.2
-8858.11
-6677.73
-5297.84
-3689.85
-2650.66
-111.234
2288.35
4745.39
6324.75
8825
11385.5
17398.5
13984.3
15626.9
17750.4
22360.2
26971.7
25140.1
37926.5
36723.9
34332.4
25181.5
15930.9
11856.9
9088.35
7794.07
7396.75
6953.11
6080.41
5558.01
4175.87
3605.45
2546.12
1980.84
649.759
193.414
-894.871
-1161.4
-2603.41
-2274.89
-3644.96
-3235.18
-4623.72
-3717.3
-5568.74
-3173.23
-5990.79
-956.776
-5797.97
2492.28
-4449.5
6236.07
-507.609
-593.741
-614.721
-647.521
-678.058
-709.596
-739.661
-769.09
-796.68
-822.546
-846.053
-867.174
-885.675
-901.583
-915.162
-926.635
-936.408
-946.058
-954.259
-966.12
-976.107
-994.908
-1011
-1043.3
-1063.8
-1099.85
-1147.2
-1195.71
-1256.13
-1336.8
-1378.13
-1480.53
-1562.75
-1656.36
-1731.84
-1786.41
-1818.69
-1823.23
-1805.13
-1695.42
-1540
-1256.25
-882.83
-289.45
318.278
-13233.3
-13239.2
-12764.7
-12091.6
-14208.3
-29199.6
-137983
-66372.7
-17884.8
-15988
-20931.9
-22203.9
-23608.5
-23698.2
-19759
-17676.4
-14554.3
-13948.2
-10284.6
-9936.23
-7441.43
-6687.17
-4312.55
-3509.17
-1528.86
-552.779
790.731
1953.91
3747.28
5089.64
9374
10513.6
13733.6
15375.4
17252
18629.4
17841.3
21366.1
24754.4
22410.6
29970.1
29612.9
37951.8
39394.4
37553.1
24003.1
17339.1
13056.7
11623.6
10100.8
9066.62
8085.92
6157.26
5171.75
3345.58
2380.41
1045.58
638.088
-1050.79
-891.686
-2228.89
-1951.2
-3459.38
-2882.25
-4375.89
-3532.14
-5308.08
-3245.26
-5547.93
-1135.98
-5449.81
2620.36
-4247.16
6358.21
-728.218
-807.574
-823.417
-851.895
-879.011
-907.898
-936.073
-964.31
-991.407
-1017.46
-1041.83
-1064.53
-1085.26
-1104.15
-1121.39
-1137.15
-1152.25
-1167.24
-1182.24
-1200.81
-1218.24
-1245.89
-1271.03
-1301.43
-1351.07
-1384.74
-1440.62
-1517.99
-1550.41
-1645.05
-1736.84
-1828.6
-1918.48
-2034.51
-2138.84
-2233.69
-2330.66
-2417.59
-2464.1
-2483.49
-2407.64
-2395.24
-2232.38
-1916.74
-1472.34
-12969
-13471
-13923
-13419.6
-17184.4
-27275.6
-199770
-124366
-24073.8
-4287.21
-6191.29
-7803.28
-7282.06
-9445.51
-7333.24
-9247.13
-7536.07
-7935.01
-7474.46
-5936.05
-5656.56
-3555.64
-2527.12
-821.623
254.664
2478.07
2363.96
5300.86
4872.06
8393.3
10567.8
12065.8
18451.4
19250.4
17696.8
20258.6
19133.4
19613.5
23906.1
18220.1
23231.3
21853.4
23470.2
24953.4
29689.2
29478.7
25169.1
22696.5
19306.6
16398.1
13847.5
11489.4
9366.92
7520.83
5159.26
4372.67
3041.54
2293.96
345.488
162.926
-1473.14
-1348.66
-2920.52
-2324.28
-4041.53
-2950.21
-4684.55
-2674.98
-5181.8
-999.74
-5297.82
1868.71
-4402.11
5359.12
-938.692
-1010.38
-1020.38
-1043.82
-1066.82
-1092.38
-1117.98
-1144.34
-1170.25
-1195.78
-1220.28
-1243.76
-1265.94
-1286.93
-1306.95
-1326.13
-1345.32
-1364.93
-1385.33
-1409.58
-1433.88
-1466.92
-1500.14
-1540.05
-1590.99
-1638.66
-1707.82
-1780.26
-1837.61
-1929.92
-2025.46
-2136.42
-2243.19
-2343.08
-2440.08
-2513.91
-2578.4
-2606.01
-2608.66
-2554.38
-2446.23
-2221.89
-1900.09
-1547.04
-966.758
-9776.47
-9450.65
-9282.83
-8419.83
-9808.49
-16892.6
-104775
-162949
-37248.6
-3203.6
-9494.59
-9875.34
-10819
-10619.4
-13812.8
-9215.29
-12702.1
-7296.35
-8431.6
-4305.32
-4948.12
-1724.41
-1418.63
322.697
1405.85
2918.13
4325.08
5479.65
6848.48
8546.83
11355.1
16011.7
19607.5
22206.6
18406.4
22205.8
20399.6
19394.9
22575.9
17901.3
23037.7
20065.3
24864
26068.9
33019.7
34053.1
32861.4
29269.5
25451.3
21859
18508.4
15241
11494.3
9390.3
7566.79
5776.3
3751.99
2492.37
766.639
496.564
-1060.56
-763.023
-2546.27
-1787.61
-3727.29
-2517.95
-4471.66
-2766.06
-4543.53
-1408.49
-5141.34
872.721
-4210.66
2918.52
-1137.81
-1201.21
-1204.81
-1222.69
-1241.07
-1262.78
-1285.29
-1309.25
-1333.42
-1357.85
-1381.88
-1405.5
-1428.4
-1450.82
-1472.54
-1494.57
-1516.29
-1539.86
-1564.12
-1592.15
-1623.26
-1656.66
-1701.08
-1745.52
-1802.81
-1865.46
-1919.99
-1996.18
-2098.33
-2166.12
-2281.67
-2379.83
-2494.73
-2620.35
-2749.15
-2872.89
-2983.47
-3061.02
-3131.08
-3189.43
-3182.71
-3112.76
-3008.28
-2780.35
-2388.4
-9697.96
-10063.7
-10688.3
-10205.1
-13786.1
-7517.03
-72292.7
-109215
-37929.6
-40352
-31165.1
-25588.1
-22801.3
-16914
-15928.8
-9815.17
-10455.1
-6183.36
-6384.55
-3630.98
-3375.39
-1185.65
119.556
1238.67
2230.08
4104.19
5494.49
6646.82
7591.83
9656.3
10859.1
14833.1
20825.3
23018.1
22250.7
23108.1
21974.3
18771.8
21385.3
16979.9
22395.8
19440.4
24920.1
26388.6
28934.7
32169
31341.1
29243.3
23731.9
19263.6
16455.4
15433.8
12269.3
10222.9
7878.51
6418.85
4990.83
4130.8
2016.29
1392.93
-79.0765
-104.57
-1864.73
-1128.6
-2970.31
-1509.44
-3673.49
-1655.69
-4095.49
-1261.06
-3820.18
939.663
-4093.56
3672.1
-1324.54
-1379.21
-1376.09
-1388.08
-1401.51
-1419.05
-1438.14
-1459.35
-1481.42
-1504.35
-1527.5
-1550.8
-1573.98
-1597.21
-1620.37
-1644.15
-1668.62
-1694.5
-1723.03
-1753.53
-1790.08
-1827.88
-1878.07
-1924.46
-1975.48
-2062.9
-2117.78
-2190.09
-2314.29
-2365.64
-2486.31
-2616.62
-2725.08
-2837.86
-2945.49
-3054.94
-3138.28
-3187.1
-3213.02
-3196.66
-3113.16
-2992.09
-2808.73
-2486.38
-2008.21
-7369.92
-7558.56
-7209.81
-6448.74
-8574.63
-4599.27
-62113.8
-112269
-38739.2
-35764.2
-32523.2
-27419
-25249.3
-21942.3
-17351.1
-15965.8
-10079.1
-7601.46
-4117.72
-2207.31
-232.291
1239.09
3738.71
3357.31
4490.04
4640.47
7074.47
8369.94
9733.7
12240.8
14750.6
17386.5
22915.5
23344.6
24217.3
24224.9
25444
23218
27833.3
23605.2
27122.1
22822.3
24323.6
25338.5
29685.1
33493.2
33220.3
30760.1
26629
22039
18085.1
14235.5
11290.5
10245
8786.51
7665.93
5420.24
3750.68
2242.76
1709.15
371.336
496.75
-1206.14
-600.091
-2448.61
-1338.55
-3036.47
-1871.88
-3566.3
-1420.19
-4640.22
-317.973
-4002.24
1597.86
-1497.91
-1543.65
-1533.67
-1539.61
-1547.92
-1561.1
-1576.58
-1594.81
-1614.53
-1635.68
-1657.63
-1680.23
-1703.29
-1726.82
-1750.86
-1775.92
-1802.04
-1830.1
-1861.24
-1893.83
-1934.56
-1974.58
-2025.33
-2080.71
-2143.09
-2216.79
-2286.11
-2366.71
-2465.38
-2568.75
-2657.99
-2802.61
-2912.77
-3045.63
-3162.31
-3302.18
-3406.56
-3519.13
-3583.86
-3635.78
-3637.41
-3584.32
-3370.41
-3114.27
-2645.34
-6515.34
-6760.28
-7086.74
-7355.52
-11772.4
-10777.7
-105150
-154581
-40741.2
-54267.8
-30706.3
-18583.4
-15477
-10781.1
-12723.2
-7687.96
-5363.17
-3196.76
-725.912
-399.552
1373.52
3179.73
4458.06
4675.37
5644
7394.73
8563.6
10316.1
10553.7
15096.3
13554.4
25940.2
32603.1
32044.9
30654.1
26992.8
28905.5
23582.7
25827.1
26035.9
28910.6
29591.3
32217.1
31522.1
27223.1
23415.7
19710.1
19869.1
18165.5
16670.2
13825.5
11901
11038.7
9668.72
8205.81
6650.25
5074.55
5022.21
3439.43
2783.77
1078.51
867.34
-760.83
49.7796
-1968.76
-661.172
-2803.25
-1031.71
-3110.48
-1823.56
-3319.04
-1076.27
-3509.49
-201.444
-1657.11
-1693.91
-1677.12
-1677.03
-1680.23
-1689.02
-1700.82
-1715.99
-1733.25
-1752.47
-1773.03
-1794.74
-1817.4
-1840.99
-1865.55
-1891.54
-1919.09
-1948.83
-1982.09
-2017.29
-2059.68
-2104.18
-2155.64
-2217.19
-2275.62
-2349.54
-2439.36
-2517.1
-2596.36
-2736.01
-2818.15
-2926.43
-3082.37
-3192.21
-3303.66
-3388.35
-3503.11
-3587.09
-3618.78
-3619.62
-3555.96
-3450.29
-3245.54
-2938.5
-2619.28
-4695.23
-4527.01
-4352.15
-4120.97
-6853.17
-12307.6
-141846
-90474.2
-41068.2
-41792.9
-14122.7
-6775.11
-5811.97
-7690.72
-7543.49
-3530.66
-4828.18
1062.61
1647.29
3187.74
3348.08
5405.42
6223.94
7018.05
6757.53
8459.29
11661.8
13078.7
16800.7
24770.3
34688.3
44427.5
45965
45460.1
42101
39231.3
37820.9
37583.3
33190
33810.5
29258
29089.3
21124
16975.6
15199.2
14905.3
14541
13754.5
14054
13040.3
12552.3
11726.5
10129.2
9169.56
7945.88
6897.81
5191.11
3941.89
3047.9
2451.18
1478.35
1809.66
212.066
312.528
-1380.78
-62.1898
-2566.44
-680.177
-2931.42
-1104.72
-3466.42
-947.081
-3359.16
55.4561
-1801.42
-1829.5
-1806.1
-1800.16
-1798.36
-1802.86
-1811.03
-1823.15
-1837.9
-1855.13
-1874.17
-1894.82
-1916.86
-1940.15
-1965.09
-1991.17
-2020.12
-2050.27
-2085.25
-2122.65
-2164.38
-2214.52
-2263.4
-2330.53
-2396.92
-2459.5
-2559.27
-2640.44
-2727.51
-2844.45
-2971.42
-3054.57
-3195.27
-3326.13
-3460.87
-3557.8
-3663.62
-3741.39
-3875.35
-3849.42
-3813.22
-3711.78
-3537.48
-3341.3
-2927.31
-4149
-4249.62
-4598.61
-5130.75
-9003.75
-22511.2
-105889
-54785.7
-52494.3
-70904
-56779.2
-22795.3
-23217.9
-8610.94
-5086.21
-3409.28
-1958.41
1803.34
5200.14
3546.38
5390.05
5621.05
8886.46
11332.7
11100.1
17543.4
24325.2
41235.2
55803.7
69410.3
80749
74157.7
57276.9
46861.7
36974.6
33290.5
27671.5
22193.4
16471
8706.28
6809.33
7148.66
4601.86
6124.21
6084.57
7085.73
8274.85
8735.12
9258.38
9878.56
10427.4
9307.17
8429.88
7447.6
6173.93
5366.38
4384.98
5277.69
4349.37
3882.24
2264.6
1572.27
270.888
752.334
-883.91
-609.328
-1082.07
-1042.93
-2395.97
-1391.81
-3061.21
-1841.94
-3250.09
-1547.8
-1930.29
-1950.03
-1920.41
-1908.92
-1902.38
-1902.79
-1907.48
-1916.65
-1928.97
-1944.23
-1961.73
-1981.27
-2002.55
-2025.53
-2050.37
-2076.97
-2106
-2137.91
-2172.43
-2212.83
-2254.22
-2307.8
-2358.31
-2421.13
-2493.63
-2561.11
-2647.77
-2750.43
-2830.06
-2923.94
-3073.64
-3174.73
-3271.72
-3410.97
-3549.36
-3637.76
-3699.27
-3783.64
-3873.98
-3887.88
-3848.63
-3723.95
-3634.45
-3296.6
-3001.15
-3044.13
-3156.72
-3255.96
-3748.34
-5359.28
-43703.2
-107735
-41287.3
-37167.8
-57097.5
-65144.7
-41962.2
-31385.5
-9596.79
-8928.57
1961.33
1535.58
6223.94
6390.29
10080.1
8150.6
12526.8
16256.6
31718.2
46589.1
63840.5
84088
104213
109250
86887.1
62106.6
38784.6
23905.7
19181.9
9682.06
8858.18
6149.11
7847.39
7394.8
6775.99
5067.01
3418.74
1444.86
1270.9
2196.95
3677.9
5588.48
6387.49
7721.95
8342.76
8044.59
7355.39
7334.3
7142.28
6578.9
6704.48
5640.06
4787.01
3937.23
3665.73
2062.81
2369.25
660.688
1264.78
-618.084
541.614
-1917.98
-668.68
-1459.11
-1928.91
-2286.15
-2344.6
-2943.5
-2152.76
-2043.28
-2055.24
-2019.9
-2003.28
-1992.36
-1988.97
-1990.41
-1996.81
-2006.82
-2020.16
-2036.14
-2054.52
-2074.96
-2097.47
-2122
-2148.82
-2177.95
-2210.61
-2245.71
-2286.8
-2330.25
-2381.23
-2438.27
-2497.96
-2574.12
-2644.73
-2721.86
-2831.42
-2918.72
-3017.91
-3128.56
-3279.22
-3364.28
-3469.23
-3616.33
-3742.36
-3834.66
-3902.41
-3934.88
-3972.86
-4047.69
-3965.34
-3850.41
-3561.46
-3207.16
-2209.8
-2387.56
-2720.66
-5361.77
-11096.4
-108204
-42249.5
-27840.3
-22157.5
-32931.1
-54172.5
-63768.6
-43281.4
-25823.9
-4105.1
4097.17
6669.2
15711
13795.2
23135.6
33071.1
52324.9
70492.5
94861.7
122351
108233
89806.6
57985.6
45227.5
37513.7
26446.2
21672.2
17548.8
14846.8
9425.82
5475.75
1802.43
-623.592
-31.8878
1228.82
1143.21
885.807
218.999
229.852
768.03
2881.81
4790.37
6580.11
6772.55
7288.75
7129.3
7500.81
7312.44
6651.46
5434.17
4658.37
4412.46
4541.55
4447.89
3718.63
2791.89
2132.34
1191.6
997.922
-91.2767
445.123
-1153.06
-77.0676
-2428.82
-834.456
-2739.1
-2075.45
-2906.57
-2390.43
-2140.12
-2144.99
-2104.54
-2083.34
-2068.48
-2061.65
-2060.15
-2064.02
-2071.88
-2083.45
-2097.98
-2115.26
-2134.86
-2156.82
-2181.03
-2207.78
-2236.97
-2269.91
-2305.43
-2346.37
-2392.13
-2439.18
-2503.19
-2556.86
-2629.53
-2717.34
-2786.44
-2870.52
-3001.09
-3080.9
-3179.12
-3317.23
-3445.41
-3537.55
-3618.54
-3784.95
-3894.1
-3940.82
-3935.71
-4026.97
-4064.85
-4083.09
-3899.13
-3649.08
-3241.35
-1223.65
-1447.71
-1202.74
-4273.89
-11993.5
-109872
-17861.3
-9025.75
-12053.2
-19497.9
-33197.3
-54229.9
-60024.1
-45468.3
-10848.3
7866.05
21192.8
47977.2
47837.7
76450.3
109301
115384
102903
77375.2
52503.5
48536.5
41363.9
34187.5
24691.1
21128.1
14307.2
12230.5
8606.79
7919.73
5714.04
4355.31
3304.43
2252.8
1081.42
-328.974
-686.397
-594.102
-246.071
729.106
1383.09
2912.19
4038.51
5737.83
6064.36
6214.08
6442.02
6453.53
6682.55
6653.5
6400.22
6479.4
5701.37
5196.92
3880.2
3335.5
1768.47
2279.71
1279.12
1578.47
344.267
42.042
-480.9
-696.452
-1181.1
-1440.62
-2195.93
-2434.85
-2843.95
-2968.44
-2220.63
-2219.24
-2174.41
-2149.2
-2130.91
-2121.06
-2116.96
-2118.58
-2124.53
-2134.48
-2147.68
-2163.86
-2182.65
-2203.95
-2227.77
-2254.2
-2283.51
-2315.72
-2352.93
-2391.28
-2440.11
-2486.64
-2547.08
-2609.7
-2671.97
-2761.55
-2840.53
-2918.56
-3027.59
-3144.26
-3234.45
-3325.07
-3490.83
-3589.75
-3688.03
-3783.91
-3910.65
-4018.85
-4069.7
-4038.32
-4031.95
-4157.12
-3985.23
-3917.51
-3514.24
-920.131
-837.452
-1273.12
-5390.58
-27448.9
-100353
-19931
-404.168
-812.574
-7027.58
-15844.9
-25610.6
-44434.8
-42903
-8406.79
37090.1
72427.3
109728
128708
103955
73314.6
59049.1
53263.6
44625.9
30985.2
26580
22825.1
18564.4
14675.2
13258.9
10208.4
10086.1
8986.25
7097.3
7337.07
5444.25
4627.28
2344.68
2724.9
1208.58
551.018
-55.6302
321.866
1212.7
1896.13
3069.17
3971.41
4905.27
5458.06
5961.77
6131.92
6557.77
6207.96
6444.88
5959.07
5814.28
5112.49
4453.32
2775.62
2843.66
3039.72
2962.73
1702.89
1759.54
305.392
819.33
-559.855
-579.82
-869.394
-1552.7
-1990.36
-2553.84
-2748.12
-3132.9
-2284.82
-2278.06
-2229.63
-2201.1
-2179.93
-2167.55
-2161.24
-2160.93
-2165.21
-2173.75
-2185.75
-2200.95
-2218.96
-2239.64
-2263.04
-2289.08
-2318.42
-2350.3
-2387.29
-2426.43
-2472.76
-2523.06
-2576.19
-2645.42
-2707.85
-2780.97
-2881.16
-2955.49
-3035.6
-3171
-3266.12
-3364.73
-3468.76
-3627.61
-3722.24
-3797.03
-3862.95
-4018.9
-4098.61
-4069.39
-4016.21
-3971.6
-3845.02
-3849.25
-3397.24
393.065
514.555
-488.468
-3299.8
-63031.7
-87207.4
-9842.57
3160.58
3633.27
4038.76
3700.12
316.623
584.382
5785.13
43367.6
116851
116656
91887.7
61262.1
51625.8
40839.1
38635.1
31298.9
26147.5
20996.5
21455.2
16602.4
16364.2
11826.5
12035.1
9397.16
8610.74
8445.58
7006.06
8758.27
6616.97
6426
4573.1
4086.59
2723.96
2640.94
2525.62
2550.72
2538.11
2789.9
3590.75
4344.36
4837.75
5383.52
5689.92
5725.6
6215.33
5780.84
5655.55
5438.34
5504.32
4459.14
4359.31
4090.19
3699.4
2834.67
2750.35
1796.92
1344.81
618.287
767.497
-675.452
156.735
-1419.46
-999.848
-1978.31
-2225.37
-2709.49
-2988.35
-2332.8
-2321.65
-2270.45
-2239.29
-2215.84
-2201.41
-2193.31
-2191.41
-2194.3
-2201.62
-2212.59
-2226.87
-2244.18
-2264.17
-2287.16
-2312.55
-2341.73
-2373.33
-2409.23
-2449.92
-2493.09
-2546.35
-2598.02
-2662.95
-2732.89
-2798.15
-2887.84
-2982.6
-3066.46
-3154.16
-3297.73
-3386.85
-3481.73
-3595.73
-3754.95
-3830.32
-3912.25
-3962.85
-4071.51
-4140.52
-4133.03
-3950.61
-3848.4
-3751.09
-3866.81
187.027
-278.148
-3238.04
-12371
-118250
-31942.6
-6599.28
967.998
4237.69
6509.24
8651.4
13459.1
32586.4
81985.7
151994
90780.9
58514
38460.2
32139
33297.7
25383.6
20444.7
15381
14949
14022
16207.9
13369.6
13691.3
12149.2
12036
11711.3
10249.5
9739.11
8502.35
9121.5
7485.22
8116.28
6564.05
5774.57
4441.93
3965.77
3223.31
3191.1
2875.75
3196.66
3922.4
4655.07
4889.79
5202.56
5226.59
5511.42
5619.99
5235.66
5366.85
5244.77
5044.33
4555.97
3886.88
3057.26
3428.19
3237.38
2700.81
1964.56
1749.52
767.141
461.822
43.8128
-372.1
-944.393
-1109.64
-1836.89
-2270.16
-2657.37
-3006.48
-2364.83
-2350.29
-2297.19
-2264.13
-2239.01
-2223.05
-2213.58
-2210.44
-2212.23
-2218.58
-2228.68
-2242.21
-2258.82
-2278.33
-2300.61
-2325.87
-2354.12
-2385.72
-2420.52
-2461.48
-2503.08
-2555.75
-2608.65
-2666.15
-2743.53
-2809.23
-2878.44
-2988.69
-3071.27
-3154.16
-3263.44
-3402.41
-3493.15
-3566.76
-3696.91
-3841.35
-3928.59
-3946.03
-4005.79
-4099.39
-4163.72
-3984.24
-3852.05
-3663.11
-3347.2
1354.45
1741.95
-2353
-23258.9
-103034
-7972.35
467.276
1884.02
3331.02
5996.67
15790
37655.2
90840.5
164391
93929.9
53964.6
35365.8
25589.1
22848.4
20155.8
16623.5
13064.7
11611
12425.6
12320.1
12546.7
11895.5
11479.1
12128
12293.3
12196.8
10743.7
10142
8895.14
9001.3
7462.63
8389.74
7408.6
7229.68
5844.34
5453.96
4497
4316.49
3862.39
4226.73
4252.48
4579.11
4601.7
4801.06
5136.12
4708.75
5122.65
4625.01
4545.82
4462.15
4488.75
3740.32
4067.02
4264.51
4005.09
3133.87
2880.61
1607.71
1510.96
611.101
758.28
-16.4618
-234.881
-557.923
-1197.09
-1601.12
-2234.01
-2484.48
-2949.59
-2381.3
-2364.39
-2310.25
-2276.01
-2249.84
-2232.86
-2222.46
-2218.44
-2219.42
-2224.99
-2234.41
-2247.28
-2263.3
-2282.28
-2303.94
-2328.84
-2356.33
-2387.78
-2421.97
-2461.31
-2504.99
-2551.06
-2609.67
-2662.27
-2731.85
-2810.83
-2879
-2956.23
-3075.61
-3154.11
-3241.52
-3360.3
-3494.93
-3594.65
-3661.43
-3775.46
-3932.21
-3987.37
-4018.31
-3988.54
-4121.32
-4035.95
-4168.11
-3780.4
-3518.75
1716.05
773.319
-2924.82
-45284.6
-92773.7
-9783.23
4891.31
6283.64
8726.31
14239.4
34708.2
79724.7
165309
108396
69452.5
31741
20799.7
19674.7
16669.3
15116.8
13765.9
11901
11510.6
12168.2
11559.5
11019.6
10323.3
10194.1
11178
11958.5
11656.2
10780.2
10715.6
9771.72
9300.36
8176.77
8178.68
6906.51
7524.72
6962.3
6675.8
5365.93
5436.51
4618.23
4935.68
4848.18
4527.7
4449.98
4531.42
4763.4
5005.59
4806.65
4748.94
4934.12
4330.11
4644.84
4352.25
4709.13
4142.74
3777.12
2816.16
2171.29
1672.5
1847.5
975.066
964.694
44.489
141.325
-665.494
-989.152
-1512.5
-2084.11
-2335.29
-2771.65
-2382.7
-2364.43
-2310.09
-2275.4
-2248.77
-2231.3
-2220.38
-2215.84
-2216.3
-2221.35
-2230.26
-2242.62
-2258.14
-2276.61
-2297.82
-2322.04
-2349.15
-2379.42
-2413.93
-2449.95
-2496.06
-2538.38
-2595.76
-2653.5
-2708.06
-2790.99
-2867.67
-2936.1
-3026.98
-3149.85
-3227.95
-3302.96
-3442.74
-3572.15
-3662.61
-3713.69
-3856.58
-3986.55
-4051.38
-4047.64
-3957.3
-3939.81
-4025.75
-3648.21
-3339.23
2337.85
-235.076
-9119.47
-115508
-38425.2
-2954.19
3710.69
7584.48
13832.4
31323.2
71461.3
155825
129323
70931.7
40299.8
24817
14111.6
12203.5
12234.9
12913.4
11209.9
12000.5
14393.6
13958.8
12068.1
10757.7
9987.85
10008.9
9837
10416.2
10376.1
9807.87
9901.22
8856.9
9500.27
8370.67
7922.5
7062.04
7421.73
7098.43
6601.55
6171.06
5746.79
5460.47
5388.89
4869.44
4436.37
4340.85
4194.66
4336.7
4434.4
4437.01
4308.89
4704.98
4187
4452.84
4332.97
4044.32
3411.02
2854.56
2433.36
2483.75
1820.61
1665.37
997.84
836.672
372.915
41.7953
-492.277
-870.055
-1371.63
-1941.8
-2094.31
-2606.78
-2369.65
-2350.98
-2297.26
-2262.81
-2236.32
-2218.83
-2207.82
-2203.09
-2203.31
-2208.07
-2216.61
-2228.64
-2243.66
-2261.71
-2282.44
-2305.97
-2332.73
-2361.98
-2396.03
-2431.59
-2474.15
-2520.41
-2567.21
-2632.26
-2688.7
-2749
-2843.37
-2914.05
-2988.39
-3091.31
-3207.59
-3300.79
-3369.83
-3503.64
-3640.24
-3743.91
-3737.15
-3870.97
-3962.2
-4026.17
-4005.18
-4178.23
-4247.2
-4455.87
-4488.1
1752.03
-1600.56
-25649.4
-112566
-5437.89
1909.54
4411.2
9044.99
25178.8
60425.3
135133
155426
70247.5
44582.4
18894.6
22287.5
14291.5
11150.1
10548.2
11822.1
10593.5
11627.2
11885.9
11454.6
11517.4
10772
10192.8
10007.7
9812.99
9137.1
9284.22
8791.32
9197.97
8551.23
9508.41
8797.05
9073.83
7863.92
7913.7
7548.14
7635.02
6942.61
6693.54
6238.32
5705.26
5129.98
4551.36
4415.75
4282.28
4167.8
4134.97
4367.35
4169.53
4329.46
4087.95
3723.24
3744.64
3592.94
3358.31
3168.1
2439
2241.78
2027.32
1865.88
1211.38
972.116
449.576
91.9397
-324.505
-836.765
-1248.08
-1843.63
-1885.2
-2462.04
-2342.88
-2324.71
-2272.38
-2238.82
-2213.01
-2195.99
-2185.28
-2180.69
-2180.94
-2185.61
-2194
-2205.76
-2220.49
-2238.03
-2258.44
-2281.11
-2307.26
-2335.88
-2367.97
-2404.84
-2441.93
-2492.11
-2535.16
-2592.72
-2659.79
-2715.04
-2783.27
-2888.64
-2951.96
-3023.95
-3145.36
-3256.57
-3340.26
-3409.24
-3559.93
-3703.29
-3746.12
-3849.44
-3927.9
-4096.83
-4177.61
-4208.47
-3982.64
-3848.27
-3744.98
1356.74
-3084.62
-58180
-87732.5
-8079.58
7102.28
9768.92
19662
51537.6
120186
156483
93300.9
46490.6
22125.9
12817.7
14027.6
15954.3
13055.5
11874.7
10591.8
10784.1
11225.8
11388.9
10921.1
10899.8
10198.1
10236.3
10454.5
9759.97
9178.55
8384.97
8432.1
8747.01
8057.28
8634.95
7731.25
8317.5
7624.57
7818.3
7519.36
7260.98
7265.73
6562.56
6405.97
5811.74
5157.66
4385.45
4106.19
3643.61
3745.15
3636.52
3659.33
3881.76
3548.48
3394.21
3492.95
3649.27
3553.65
3198.29
2760.66
2756.39
2495.48
2029.52
1808.63
1247.09
972.24
485.494
174.405
-309.789
-724.108
-1085.88
-1678.91
-1652.14
-2372.87
-2303.17
-2286.35
-2236.12
-2204.05
-2179.44
-2163.3
-2153.26
-2149.13
-2149.64
-2154.45
-2162.8
-2174.44
-2188.92
-2206.07
-2226.07
-2248.2
-2273.45
-2301.84
-2332.12
-2368.48
-2405.2
-2449.3
-2499.38
-2544.28
-2611.74
-2677.88
-2736.09
-2812.82
-2918.69
-2992.52
-3057.54
-3183.71
-3305.44
-3406.84
-3446.26
-3581.27
-3770.43
-3787.88
-3707.64
-3766.45
-3785.88
-3525.38
-3235.11
-2821.4
-2846.35
1730.96
-10263.2
-113372
-29175.6
1654.01
8102.55
19623.4
46727.2
109578
171420
87875.1
47432.6
42872.9
21154.8
12110.1
10203.8
12436
12097.4
10322.4
9032.92
10049.6
11506.6
10680.4
10226.8
10179
9472.03
10785.5
11030.3
9955.76
9015.21
8173.31
8529.9
8436.67
7702.94
7713.8
6889.49
7436.89
6997.62
7287.2
7091.55
6797.88
6844.02
6305.01
6341.41
5607.5
5286.78
4678.75
4301.8
3581.06
3654.87
3364.69
3365.79
3242.45
3201.85
3217.8
3235.07
3371.43
3223.77
3186.82
2885.22
2665.49
2410.82
2155.55
1791.47
1363.03
1040.39
631.432
280.935
-166.521
-579.421
-1004.56
-1508.14
-1484
-2219.28
-2251.43
-2236.71
-2189.2
-2159.18
-2136.22
-2121.37
-2112.32
-2108.91
-2109.95
-2115.06
-2123.55
-2135.17
-2149.47
-2166.37
-2185.66
-2207.76
-2231.37
-2259.69
-2288.6
-2322.83
-2361.24
-2398.39
-2452.05
-2498.05
-2547.37
-2626.96
-2685.11
-2744.88
-2838.96
-2935.75
-3009.4
-3071.18
-3223.03
-3292.39
-3384.19
-3481.31
-3685.62
-3681.3
-3852.8
-3944.35
-4196.68
-4327.39
-4623.89
-4565.7
-5659.03
-4057.72
-32103
-119678
-1155.53
6718.37
13286.7
37319
92520.8
173545
89785.9
48987.1
22620.3
21723
18770.6
11736.1
9159.4
11158.4
11476.9
10110
8961.27
10356.5
11372.3
11160.4
10703
9829.96
9721.89
10494
9953.17
9853.42
8635.42
8673.32
8634.4
7828.68
7097.72
6880.83
6423.24
6612.22
6247.45
6468.04
6466.06
6164.66
6496.47
6158.91
6522.94
5856.41
5509.18
4747.98
4155.38
3474.24
3303.73
2833.16
2837.98
2875
2835.21
2760.79
2991.2
3090.91
3060.13
3061.44
2814.91
2669.69
2233.77
1980.78
1726.24
1323.28
980.997
645.789
261.897
-90.3756
-525.665
-836.742
-1315.07
-1320.7
-2069.74
-2188.61
-2176.63
-2132.41
-2104.9
-2084.01
-2070.79
-2063.04
-2060.61
-2062.36
-2067.94
-2076.73
-2088.37
-2102.66
-2119.18
-2138.17
-2159.5
-2182.89
-2208.99
-2238.94
-2269
-2308.14
-2345.27
-2388.54
-2443.76
-2490.54
-2546.79
-2632.66
-2691
-2748.87
-2857.05
-2948.72
-3040.32
-3087.82
-3262.89
-3370.35
-3477.04
-3518.32
-3668.55
-3742.83
-3810.49
-3755.25
-3511.89
-2863.54
-2757.74
-3166.59
-458.694
-82362.7
-57076.6
-173.293
15558.1
38853.1
84536.8
165077
119054
64884.6
33304.4
15466.8
11392.2
11923.5
10339.3
9475.38
9642.46
12284.4
11887.5
10900.3
11372.3
12581.6
12843.2
11123.9
9507.39
9575.39
9106.31
8593.15
8261.6
7988.29
8463.27
8234.68
7173.43
6684.83
6231.03
5911.64
5757.14
5471.31
5481.35
5689.48
5441.15
5715.03
5462.51
5842.51
5517
5429.36
4778.61
4056.74
3557.1
3244.32
2796.89
2733.79
2479.11
2581.43
2626.12
2829.64
2733.68
2610.14
2745.03
2558.11
2345.14
2125.77
1938.12
1717.27
1389.7
1075.87
807.954
375.12
88.3456
-380.692
-706.212
-1088.3
-1211.85
-1893.29
-2115.7
-2107.03
-2066.56
-2041.96
-2023.49
-2012.21
-2006.01
-2004.78
-2007.41
-2013.65
-2022.77
-2034.65
-2048.8
-2065.28
-2083.57
-2104.51
-2127.27
-2151.97
-2181.36
-2210.74
-2245.07
-2285.92
-2321.57
-2376.64
-2427.79
-2474.37
-2542.56
-2625.31
-2685.44
-2743.07
-2869.21
-2940.53
-3007.05
-3096.94
-3228.29
-3274.01
-3317.63
-3398.43
-3467.08
-3496.57
-3414.57
-3396.69
-4027.13
-4345.05
-10704.9
-21372.8
-132833
-11066.8
12128.9
34552.8
74004.6
153019
108133
61431.5
41252
26016.2
18467
11844.2
13590.2
12560.4
10388.8
10193.9
12438.9
12239.6
11705.2
10905.6
10534.9
10139
9527.41
8890.24
9053.11
8663.72
8318.05
7385.59
7851.36
7670.71
7408.21
6571.63
6378.86
5803.13
5518.22
5059.15
5066.42
4742.43
4965.94
4682.85
4868.28
4508.58
4936.17
4514.92
5096.46
4782.23
4035.67
3660.16
3164.92
2714.12
2564.34
2404.01
2381.87
2369.35
2356.71
2243.05
2343.65
2343.09
2213.5
2197.62
1931.09
1829.5
1649.5
1348.38
1010.91
798.579
399.323
155.372
-305.784
-546.475
-870.487
-1130.43
-1610.11
-2033.75
-2028.83
-1992.48
-1971.14
-1955.37
-1946.28
-1941.84
-1941.98
-1945.69
-1952.63
-1962.3
-1974.34
-1988.57
-2004.8
-2022.76
-2043.01
-2064.98
-2089.14
-2115.69
-2146.73
-2176
-2217.03
-2255.15
-2295.39
-2355.56
-2406.69
-2452.69
-2537.21
-2606.91
-2675.96
-2738.47
-2875.87
-2965.61
-3030.44
-3139.15
-3315.6
-3419.5
-3533.02
-3677.73
-3710.72
-3904.42
-3965.91
-4304.07
-5621.86
-9741.64
-57114.6
-95666.8
2794.07
22911.3
56808
142631
130875
76432.6
32926.8
25790.7
18047.7
9909.41
10089.3
12284.5
14759.2
14279.1
13318.5
10860.5
11392.4
10880.7
9452.29
9041.32
8821.33
8611.97
9168.3
9541.36
9169.91
8193.48
7327.55
7805.19
6978.49
6582.2
6218.16
5870.63
5317.33
4959.42
4410.53
4209.32
3610.4
4002.45
3649.07
4074.07
3672.86
4382.33
3847.02
4571.52
4315.46
3930.86
3600.84
2880.45
2542.87
2335.02
2142.14
2017.66
1987.81
1891.21
1753.1
1851.58
1921.45
1992.61
1938.21
1939.43
1823.53
1650.6
1464.6
1104.08
998.189
535.823
336.349
-166.082
-367.077
-775.989
-980.048
-1312.28
-1943.83
-1942.98
-1911.05
-1893.21
-1880.38
-1873.67
-1871.16
-1872.85
-1877.7
-1885.53
-1895.72
-1908.11
-1922.37
-1938.43
-1956.16
-1975.47
-1997.18
-2020
-2045.47
-2074.73
-2104.43
-2138.59
-2180.6
-2216.83
-2267.13
-2325.98
-2374.87
-2428.06
-2519.81
-2583.25
-2639.72
-2733.05
-2844.29
-2901.07
-2956.22
-3071.63
-3118.48
-3129.32
-3058.18
-3027.29
-2818.28
-2720.33
-2972.1
-6677.59
-26403.6
-124834
-20441.3
16423
56388
125995
159238
79912.5
46546.7
25564.8
22017.5
18583
11879.4
10302.2
9895.86
12814.4
12660.6
10348.2
9340.9
9887.29
9820.43
9517.85
9239.85
9300.2
9270.25
9345.52
8997.74
8166.79
6990.89
6887.28
6682.95
6450.42
5795.06
5982.64
5528.94
5313.05
4472.45
3878.55
3567.52
3104.53
3302.28
2830.85
3328.84
2792.39
3715.39
3134.12
3930.61
3535.82
3581.65
3204.2
2593.01
2370.43
2094.05
1853.17
1600.98
1585.78
1481.02
1398.87
1593.81
1606.18
1863.6
1832.56
1735.33
1665.01
1584.05
1390.75
1061.02
930.246
512.212
361.171
-120.392
-234.325
-605.484
-720.672
-915.493
-1846.99
-1850.45
-1823.13
-1808.98
-1799.25
-1795.07
-1794.63
-1797.93
-1804.08
-1812.81
-1823.64
-1836.4
-1850.67
-1866.74
-1883.86
-1902.87
-1923.32
-1945.71
-1969.57