/*--------------------------------*- C++ -*----------------------------------*\
| =========                 |                                                 |
| \\      /  F ield         | OpenFOAM: The Open Source CFD Toolbox           |
|  \\    /   O peration     | Version:  2.2.x                                 |
|   \\  /    A nd           | Web:      www.OpenFOAM.org                      |
|    \\/     M anipulation  |                                                 |
\*---------------------------------------------------------------------------*/
FoamFile
{
    version     2.0;
    format      ascii;
    class       volScalarField;
    location    "0.65";
    object      Bx;
}
// * * * * * * * * * * * * * * * * * * * * * * * * * * * * * * * * * * * * * //

dimensions      [1 0 -2 0 0 -1 0];

internalField   nonuniform List<scalar> 
14161
(
1.00777
1.00018
0.999314
0.999457
0.998907
0.998849
0.999386
0.999808
1.00025
1.00104
1.00194
1.00239
1.0024
1.00236
1.00239
1.00212
1.00211
1.00197
1.00249
1.0037
1.00479
1.00646
1.00853
1.01078
1.01327
1.01414
1.01507
1.01523
1.01541
1.01537
1.01497
1.01491
1.01568
1.01699
1.01863
1.02037
1.02198
1.02328
1.02455
1.0258
1.02646
1.02709
1.02713
1.02689
1.02603
1.02477
1.02321
1.02128
1.01766
1.00825
0.914626
0.701617
0.643769
0.656337
0.716412
0.776537
0.840691
0.889926
0.936438
0.97615
1.01344
1.04259
1.0677
1.08809
1.10658
1.12202
1.13363
1.14349
1.15275
1.16237
1.17098
1.1797
1.18955
1.19984
1.21082
1.22086
1.22687
1.22172
1.20222
1.14568
1.04465
0.94349
0.848095
0.763342
0.700221
0.652041
0.617849
0.594798
0.579224
0.567172
0.55306
0.53695
0.522542
0.504041
0.48425
0.467963
0.449827
0.431304
0.412746
0.394438
0.374286
0.355458
0.334583
0.316125
0.297233
0.280214
0.260949
0.24561
0.224435
0.211817
0.188135
0.179042
0.149547
0.14486
0.103919
0.103193
0.0479479
0.053088
-0.0052548
0.965181
0.986468
0.992083
0.996122
0.999493
1.00158
1.00231
1.00204
1.00131
0.999488
0.996746
0.994385
0.993318
0.993924
0.995328
0.997574
1.00065
1.00459
1.00784
1.01017
1.01065
1.01032
1.00824
1.00472
1.00027
0.997979
0.996566
0.998008
1.00085
1.0051
1.01027
1.01562
1.01972
1.02238
1.02368
1.02386
1.02299
1.02123
1.01896
1.01631
1.01369
1.01101
1.00834
1.00577
1.00283
0.999942
0.995894
0.992325
0.979448
0.987984
0.877612
0.7495
0.750499
0.753777
0.811579
0.84101
0.872827
0.906159
0.945699
0.981552
1.01442
1.0439
1.0691
1.09083
1.10923
1.12264
1.13301
1.14028
1.14424
1.14669
1.14762
1.14711
1.14543
1.14181
1.13546
1.1284
1.11483
1.10222
1.08465
1.07804
1.0487
0.972761
0.879387
0.793784
0.725163
0.670049
0.633115
0.608633
0.590721
0.575884
0.564052
0.552588
0.534019
0.516448
0.501055
0.481939
0.462057
0.445042
0.424817
0.404561
0.383696
0.364289
0.344265
0.326953
0.309325
0.29315
0.274638
0.259658
0.240088
0.227583
0.206073
0.195952
0.168734
0.161572
0.12359
0.118673
0.0639484
0.0620718
-0.000539733
1.05843
1.02427
1.01356
1.00642
1.00104
0.997474
0.996118
0.996878
0.998693
1.00208
1.00731
1.0125
1.01513
1.0151
1.01377
1.01118
1.00721
1.00214
0.997793
0.995992
0.997262
1.00006
1.00615
1.01486
1.02501
1.03374
1.03916
1.04062
1.03889
1.03471
1.02911
1.02298
1.0183
1.01548
1.01467
1.01578
1.01874
1.02288
1.02803
1.03367
1.03923
1.04411
1.04866
1.05216
1.05514
1.05666
1.05836
1.05919
1.0525
1.0675
0.998872
0.859967
0.873878
0.8578
0.922401
0.965952
1.01613
1.0579
1.09034
1.11681
1.13347
1.1524
1.16271
1.1772
1.1856
1.19489
1.20207
1.2075
1.21425
1.22133
1.22683
1.23139
1.23476
1.23557
1.23159
1.22403
1.21228
1.18694
1.17005
1.12732
1.09643
1.03022
0.954119
0.877438
0.795713
0.72634
0.675041
0.642169
0.621496
0.608064
0.595916
0.580113
0.562027
0.549004
0.528429
0.505451
0.487656
0.467158
0.444827
0.427028
0.407884
0.389463
0.370575
0.35315
0.335693
0.319625
0.302154
0.28645
0.266915
0.252126
0.229796
0.216333
0.186748
0.175596
0.137185
0.129672
0.0756114
0.0687762
0.00133033
0.920289
0.967262
0.980359
0.989734
0.996938
1.00184
1.00381
1.00333
1.00176
0.99794
0.991838
0.985508
0.982556
0.982856
0.985113
0.989123
0.995078
1.00286
1.01025
1.01433
1.01546
1.01355
1.00853
1.00027
0.990021
0.981506
0.977642
0.977996
0.982019
0.989362
0.998953
1.00891
1.01698
1.02237
1.0249
1.02516
1.0233
1.01947
1.01435
1.00865
1.0029
0.997254
0.992616
0.98862
0.986266
0.984835
0.983241
0.982154
0.98755
0.98062
1.02329
0.960709
0.976731
0.993878
1.06373
1.09834
1.13018
1.15809
1.18323
1.20106
1.21278
1.22335
1.22739
1.23704
1.23564
1.24116
1.24189
1.24273
1.24227
1.24241
1.24269
1.24242
1.24226
1.24182
1.2404
1.23044
1.22995
1.20542
1.19886
1.15634
1.14975
1.11647
1.07405
1.02406
0.939458
0.851694
0.774127
0.720642
0.692795
0.670206
0.64921
0.631257
0.614358
0.589612
0.564961
0.543593
0.517519
0.494532
0.472487
0.450615
0.427913
0.408139
0.387277
0.368727
0.349761
0.332023
0.313226
0.295902
0.275188
0.258228
0.234638
0.21909
0.189912
0.176881
0.140964
0.131235
0.0819245
0.0701017
0.00753205
1.09471
1.04027
1.02392
1.01274
1.00441
0.998435
0.995989
0.996694
0.99905
1.0039
1.01126
1.01943
1.02376
1.0245
1.02266
1.01906
1.01319
1.00533
0.998031
0.994415
0.994598
0.998519
1.00595
1.01762
1.03186
1.04508
1.05248
1.05518
1.05304
1.04758
1.03948
1.03023
1.02254
1.01783
1.01577
1.01642
1.0196
1.02485
1.0316
1.03893
1.04627
1.05323
1.05945
1.06476
1.06917
1.07304
1.07951
1.08765
1.10767
1.10891
1.19381
1.19822
1.23349
1.22
1.22052
1.21625
1.2203
1.22567
1.22743
1.24004
1.2381
1.25399
1.25245
1.26387
1.26073
1.26836
1.26539
1.27062
1.2701
1.27104
1.27192
1.27398
1.27521
1.27553
1.27988
1.27273
1.27628
1.25871
1.25283
1.21546
1.19449
1.17616
1.14411
1.1099
1.06508
1.00426
0.924071
0.850418
0.791672
0.756182
0.723675
0.696224
0.669062
0.64051
0.613158
0.582597
0.550717
0.521608
0.493549
0.468939
0.444621
0.423296
0.402231
0.382804
0.36277
0.343656
0.323109
0.304512
0.282933
0.265709
0.242259
0.226933
0.197438
0.183987
0.145947
0.135907
0.0847931
0.068761
0.0111479
0.888238
0.953537
0.971019
0.983213
0.992383
0.999156
1.00165
1.00163
0.99992
0.995081
0.987522
0.979093
0.974901
0.974753
0.977212
0.981848
0.988993
0.998524
1.00811
1.01387
1.0155
1.01345
1.00831
0.998785
0.986604
0.97522
0.969825
0.96894
0.972783
0.980619
0.991407
1.00315
1.0136
1.02096
1.02488
1.02608
1.02438
1.0203
1.01499
1.00859
1.00186
0.995986
0.991422
0.989
0.987445
0.988582
0.988702
0.989887
0.990637
1.00007
1.02805
1.23305
1.24589
1.26979
1.26614
1.27203
1.27464
1.2776
1.27787
1.28362
1.28161
1.29228
1.2875
1.29663
1.29147
1.29874
1.29495
1.29873
1.2975
1.29957
1.30024
1.30118
1.30174
1.30161
1.3056
1.29828
1.30508
1.28848
1.28057
1.25939
1.23358
1.22793
1.20415
1.17769
1.14247
1.10336
1.03566
0.97477
0.904474
0.849095
0.800077
0.755404
0.713811
0.67593
0.638626
0.6046
0.572821
0.543778
0.519132
0.494501
0.467077
0.441736
0.416404
0.394163
0.370839
0.350347
0.329357
0.311374
0.291189
0.273403
0.249167
0.231533
0.200526
0.184022
0.145171
0.133419
0.085849
0.0710843
0.0228338
1.11673
1.05055
1.03208
1.0194
1.00992
1.00292
1.0001
0.999816
1.00178
1.0067
1.01459
1.02376
1.02899
1.0302
1.02835
1.02459
1.01859
1.01026
1.00189
0.99728
0.996472
0.999339
1.00602
1.01707
1.03104
1.04517
1.05357
1.05723
1.05626
1.05133
1.04348
1.03421
1.02572
1.01996
1.01692
1.01663
1.01876
1.02333
1.02883
1.03511
1.04169
1.04766
1.05243
1.05505
1.05677
1.05643
1.05688
1.05674
1.05548
1.05588
1.0712
1.13021
1.21666
1.24162
1.23317
1.24212
1.25296
1.26104
1.27349
1.27906
1.29305
1.29135
1.30258
1.29952
1.30824
1.30549
1.31021
1.31002
1.31094
1.31191
1.31216
1.31317
1.31392
1.31422
1.31181
1.31759
1.3056
1.30047
1.2785
1.26318
1.23792
1.22812
1.21845
1.20149
1.17925
1.1542
1.10524
1.05143
0.981863
0.915229
0.85777
0.804082
0.749071
0.697384
0.653133
0.614231
0.581687
0.553127
0.524214
0.496735
0.470935
0.445954
0.419997
0.395096
0.37067
0.350092
0.329656
0.311674
0.292197
0.274556
0.249838
0.232288
0.199945
0.182932
0.141577
0.130376
0.0871603
0.0772456
0.0314143
0.874275
0.946793
0.965243
0.977989
0.987286
0.994491
0.997916
0.99856
0.996681
0.992557
0.985554
0.977414
0.97334
0.97302
0.975188
0.979548
0.98614
0.995172
1.00493
1.01151
1.01438
1.01404
1.01013
1.00244
0.992458
0.982121
0.976678
0.975067
0.97774
0.984117
0.993077
1.00375
1.01437
1.02231
1.02737
1.02954
1.02921
1.02672
1.02284
1.01814
1.01325
1.00863
1.0053
1.00276
1.00128
1.00124
1.00045
0.999246
0.997908
0.994386
1.01326
0.968403
1.05501
1.11007
1.13985
1.16997
1.19328
1.2119
1.22846
1.23927
1.25805
1.25808
1.27453
1.27278
1.28407
1.28144
1.28988
1.28879
1.29265
1.29311
1.29439
1.29578
1.29807
1.30108
1.30415
1.30964
1.29383
1.28305
1.25616
1.25697
1.23281
1.24193
1.23054
1.2164
1.19323
1.16443
1.1166
1.06358
0.994247
0.919223
0.85705
0.805457
0.759266
0.71823
0.678057
0.63382
0.591401
0.553252
0.519523
0.489876
0.466083
0.443499
0.420082
0.397913
0.374297
0.352525
0.33203
0.313102
0.291363
0.271503
0.244809
0.2261
0.194656
0.178112
0.140365
0.129055
0.0926122
0.0851259
0.0412853
1.12067
1.05274
1.03486
1.02271
1.01385
1.00688
1.00345
1.00286
1.00421
1.00782
1.01415
1.02208
1.02683
1.02787
1.02654
1.0235
1.01864
1.01164
1.00405
0.999194
0.997531
0.999083
1.00317
1.01101
1.02163
1.03313
1.04122
1.04505
1.04547
1.04283
1.03744
1.03056
1.02347
1.0182
1.01511
1.01416
1.01516
1.01779
1.0214
1.02582
1.03048
1.0344
1.03671
1.03815
1.0381
1.03676
1.0347
1.03071
1.02585
1.01622
1.02684
0.987393
1.08767
1.13087
1.16653
1.19341
1.21356
1.23272
1.24411
1.25915
1.26845
1.26894
1.28317
1.27904
1.29078
1.2864
1.29222
1.29007
1.29348
1.29409
1.29666
1.29737
1.29868
1.2982
1.29461
1.29527
1.29201
1.28764
1.26985
1.25186
1.25143
1.2338
1.23585
1.20476
1.18476
1.13944
1.08584
1.02958
0.965993
0.896536
0.827392
0.773007
0.731477
0.696777
0.661478
0.62567
0.591433
0.555865
0.52094
0.490166
0.46037
0.433003
0.407139
0.381219
0.355705
0.333778
0.311877
0.291519
0.268232
0.248231
0.221662
0.204013
0.17294
0.157618
0.122336
0.113403
0.0842004
0.0786993
0.0414586
0.882995
0.949612
0.966287
0.97781
0.986112
0.992922
0.996697
0.997666
0.99698
0.994289
0.989401
0.98309
0.979673
0.979432
0.981151
0.984609
0.98969
0.996766
1.0048
1.01129
1.01484
1.01592
1.01456
1.01052
1.00416
0.997499
0.993286
0.991906
0.99335
0.997232
1.0034
1.01135
1.01957
1.02647
1.03153
1.03444
1.03573
1.03515
1.03325
1.03037
1.02683
1.0234
1.02078
1.01839
1.01651
1.01533
1.01373
1.01208
1.01019
1.00836
1.02703
1.06094
1.17166
1.19374
1.23948
1.2501
1.26542
1.28172
1.29407
1.31155
1.30552
1.32477
1.31785
1.33013
1.32502
1.33325
1.33333
1.33533
1.335
1.33472
1.33397
1.33108
1.32997
1.32963
1.32972
1.31435
1.31785
1.27403
1.28896
1.24561
1.24981
1.20527
1.2011
1.14571
1.11923
1.07235
1.01373
0.965739
0.912246
0.854685
0.798171
0.746644
0.701204
0.663025
0.630887
0.603264
0.572325
0.537217
0.498977
0.466957
0.438196
0.41234
0.387646
0.366934
0.345694
0.325477
0.304078
0.284522
0.262472
0.243114
0.216218
0.19833
0.168097
0.1549
0.122707
0.114758
0.0884826
0.0819068
0.0480353
1.10467
1.04569
1.03046
1.01999
1.01263
1.0064
1.00292
1.00182
1.00191
1.0043
1.00841
1.01394
1.01767
1.01868
1.01816
1.01631
1.01319
1.00848
1.00309
0.998941
0.997284
0.997689
0.99976
1.00424
1.01095
1.01833
1.02444
1.02806
1.02961
1.02928
1.02699
1.02353
1.01951
1.01601
1.01416
1.01339
1.01376
1.01525
1.01782
1.02113
1.02431
1.02726
1.02971
1.03208
1.03413
1.03575
1.03795
1.04038
1.04815
1.048
1.14411
1.14244
1.23089
1.22564
1.28698
1.2832
1.30558
1.31328
1.33035
1.34054
1.33749
1.35558
1.34698
1.35935
1.35223
1.35943
1.35579
1.35876
1.35605
1.35619
1.35435
1.352
1.35074
1.34517
1.34322
1.32314
1.32303
1.267
1.26048
1.1998
1.18106
1.11977
1.09116
1.02517
0.985942
0.934704
0.89326
0.861557
0.820171
0.780683
0.741148
0.704812
0.663856
0.625932
0.594302
0.571327
0.548583
0.524166
0.496959
0.468473
0.437756
0.410292
0.385136
0.364063
0.342653
0.322056
0.297753
0.275
0.249277
0.229319
0.204194
0.189945
0.163444
0.153369
0.124295
0.118832
0.0932542
0.0854566
0.0552568
0.908196
0.960727
0.974212
0.983587
0.990031
0.995687
0.999177
1.00071
1.00064
0.999051
0.996218
0.992472
0.989988
0.989671
0.990765
0.992948
0.996203
1.0008
1.00628
1.01145
1.0148
1.01648
1.01696
1.01597
1.01357
1.01055
1.00794
1.0074
1.00787
1.01027
1.01382
1.01855
1.02387
1.02895
1.0326
1.03512
1.03642
1.03697
1.0365
1.03547
1.03442
1.03321
1.03225
1.03144
1.0312
1.03145
1.03248
1.03277
1.03837
1.02993
1.10032
1.07598
1.14001
1.16615
1.25789
1.27733
1.32354
1.32485
1.34908
1.34062
1.36572
1.35376
1.37047
1.35964
1.36791
1.36124
1.3653
1.36225
1.36498
1.36304
1.36378
1.36202
1.35914
1.35237
1.32865
1.27631
1.22688
1.14935
1.08457
1.01215
0.953214
0.895707
0.851894
0.817744
0.794223
0.770674
0.760547
0.74688
0.732797
0.706953
0.683206
0.658731
0.631777
0.600956
0.571394
0.544514
0.520728
0.501405
0.478323
0.453914
0.425862
0.400036
0.374318
0.351716
0.326397
0.304295
0.279706
0.260041
0.238653
0.222348
0.200459
0.188005
0.163005
0.153673
0.127115
0.122228
0.0975785
0.0916718
0.0644725
1.07676
1.0326
1.02075
1.01291
1.0076
1.00287
0.999691
0.998465
0.998317
0.999359
1.0023
1.00543
1.00801
1.00917
1.00938
1.00866
1.00721
1.00493
1.00216
0.999714
0.998656
0.998621
1.00006
1.00221
1.00538
1.0093
1.01345
1.01715
1.01932
1.0204
1.02067
1.02018
1.0192
1.01837
1.01803
1.01825
1.0192
1.02089
1.02314
1.02571
1.02828
1.03072
1.0327
1.03419
1.03519
1.03568
1.03611
1.03527
1.03602
1.02921
1.07047
1.07641
1.10495
1.13736
1.21556
1.24013
1.30088
1.2989
1.33436
1.32536
1.3527
1.34335
1.36225
1.35167
1.35884
1.35111
1.35554
1.35026
1.34983
1.34248
1.33365
1.30276
1.25695
1.18885
1.09399
0.975004
0.880324
0.790963
0.758486
0.700581
0.682337
0.658669
0.654574
0.649726
0.648681
0.654893
0.659209
0.66251
0.659351
0.648641
0.632082
0.613148
0.593493
0.571696
0.548287
0.525424
0.502383
0.482561
0.458264
0.43484
0.407006
0.382917
0.35726
0.335396
0.310523
0.289946
0.266841
0.248418
0.227921
0.21259
0.191558
0.180242
0.157382
0.149943
0.126345
0.122836
0.0993558
0.0963249
0.0729325
0.939235
0.975166
0.984942
0.991335
0.995569
0.999467
1.00238
1.00364
1.00372
1.00297
1.00101
0.999078
0.997492
0.997204
0.997834
0.998907
1.0007
1.00332
1.00644
1.00964
1.0123
1.01412
1.01535
1.01585
1.01575
1.01549
1.01526
1.01505
1.01553
1.01689
1.01884
1.0213
1.02411
1.0269
1.02935
1.03127
1.03275
1.03377
1.03427
1.03453
1.03447
1.03433
1.03446
1.03489
1.03548
1.03615
1.03702
1.03879
1.03901
1.06203
1.08144
1.09188
1.10651
1.12579
1.18996
1.20522
1.28487
1.28409
1.33475
1.32679
1.35493
1.33769
1.35687
1.34245
1.34873
1.33828
1.33686
1.31594
1.28958
1.22693
1.15097
1.0469
0.908349
0.784717
0.702163
0.632193
0.605692
0.566262
0.555136
0.549792
0.547013
0.552776
0.558483
0.567658
0.579378
0.589827
0.599612
0.603926
0.603246
0.594969
0.584209
0.571227
0.554545
0.535363
0.512495
0.491998
0.470622
0.452837
0.432505
0.415506
0.393998
0.37276
0.348303
0.326652
0.301407
0.281738
0.260161
0.243095
0.223575
0.209075
0.189008
0.178791
0.158277
0.151733
0.130576
0.127024
0.104981
0.102726
0.0825851
1.04752
1.019
1.01065
1.0054
1.00243
0.999572
0.997339
0.99667
0.997022
0.997734
0.999145
1.00093
1.00268
1.00366
1.00418
1.00428
1.004
1.00336
1.00257
1.00181
1.00162
1.00194
1.00274
1.00425
1.00634
1.00874
1.01129
1.01374
1.01602
1.01794
1.01954
1.02085
1.02185
1.02273
1.02362
1.0248
1.02627
1.02791
1.02984
1.03192
1.03415
1.03637
1.0383
1.04016
1.0417
1.04368
1.04571
1.05229
1.0426
1.14351
1.0694
1.09716
1.10793
1.12148
1.16178
1.17797
1.26204
1.25659
1.32198
1.30491
1.33849
1.31269
1.32508
1.29748
1.28857
1.23696
1.19708
1.10266
1.01268
0.873811
0.776374
0.691644
0.643254
0.581391
0.546569
0.525125
0.511255
0.501947
0.49075
0.492663
0.491457
0.501851
0.514601
0.529147
0.545913
0.556694
0.569565
0.571351
0.572525
0.566629
0.55668
0.545537
0.532529
0.518022
0.50089
0.482418
0.459819
0.439834
0.419839
0.404047
0.382259
0.360801
0.335674
0.314919
0.291425
0.273562
0.252833
0.236882
0.218785
0.205584
0.186906
0.177413
0.159664
0.153732
0.134633
0.131307
0.110311
0.107803
0.0913963
0.966102
0.98738
0.993681
0.997371
0.999431
1.0015
1.00322
1.00374
1.00387
1.00349
1.00261
1.00165
1.00095
1.00052
1.0007
1.0014
1.0024
1.00371
1.00535
1.00719
1.00909
1.01064
1.01201
1.01317
1.01408
1.01491
1.01561
1.01642
1.01747
1.01877
1.02031
1.02204
1.02389
1.02582
1.02775
1.02951
1.03112
1.03265
1.03401
1.03524
1.03632
1.0375
1.03864
1.04012
1.04123
1.04282
1.04365
1.04788
1.04123
1.10288
1.06385
1.07288
1.08125
1.08766
1.11
1.12127
1.19607
1.20104
1.28494
1.25819
1.28364
1.22958
1.21686
1.12809
1.0711
0.946984
0.8474
0.755879
0.698008
0.649417
0.60648
0.564249
0.542263
0.514123
0.497932
0.485389
0.481979
0.482813
0.48301
0.48505
0.485201
0.4904
0.498309
0.510613
0.525509
0.535861
0.547674
0.549821
0.553405
0.549147
0.542011
0.530388
0.5197
0.505555
0.49071
0.473929
0.452236
0.432699
0.412299
0.395118
0.371651
0.351508
0.328079
0.307904
0.284933
0.26793
0.246924
0.23138
0.2137
0.201217
0.184299
0.175778
0.160301
0.155481
0.138539
0.135942
0.116418
0.113689
0.100203
1.02494
1.00909
1.00397
1.00111
0.999824
0.998585
0.997655
0.997283
0.997616
0.99823
0.999049
0.999944
1.00092
1.0018
1.00241
1.00285
1.00314
1.00333
1.00352
1.00377
1.00423
1.00482
1.00579
1.00709
1.00872
1.01051
1.01252
1.0146
1.01664
1.01864
1.02058
1.02236
1.02409
1.02589
1.02763
1.0293
1.031
1.03267
1.03437
1.03611
1.0379
1.03958
1.04123
1.04247
1.04324
1.04352
1.04302
1.04353
1.04273
1.07533
1.0766
1.0805
1.08501
1.08769
1.10301
1.10969
1.14951
1.15357
1.22401
1.17039
1.17506
1.06187
0.986582
0.871389
0.800119
0.735702
0.684253
0.632417
0.604294
0.569997
0.554998
0.531023
0.516311
0.50141
0.490348
0.486901
0.482477
0.485168
0.487506
0.490291
0.492079
0.496762
0.500708
0.506779
0.516587
0.52336
0.532565
0.533469
0.534862
0.529153
0.52357
0.515916
0.507116
0.49443
0.479434
0.460758
0.438532
0.418971
0.399204
0.382863
0.361219
0.344479
0.323168
0.304073
0.281373
0.26461
0.242857
0.228046
0.211247
0.199405
0.184231
0.176226
0.162419
0.15845
0.143335
0.141647
0.122743
0.119886
0.109996
0.984071
0.994949
0.998399
1.00024
1.00099
1.00157
1.00223
1.00246
1.0025
1.0024
1.0021
1.00176
1.0015
1.00148
1.00162
1.00201
1.00267
1.00355
1.00461
1.00578
1.00707
1.0084
1.00976
1.01111
1.01241
1.01372
1.01505
1.01649
1.01794
1.01939
1.02088
1.02261
1.02438
1.0263
1.02832
1.0303
1.03214
1.0339
1.0357
1.03739
1.03879
1.03999
1.04127
1.04279
1.04502
1.04741
1.05431
1.05088
1.11233
1.09511
1.09272
1.08821
1.08898
1.08992
1.09521
1.09417
1.10483
1.09311
1.10182
1.03612
0.95442
0.852964
0.799902
0.733711
0.696762
0.653751
0.635394
0.604443
0.5877
0.568362
0.550927
0.540712
0.527255
0.520857
0.507026
0.503315
0.497743
0.497703
0.499515
0.500673
0.50468
0.507763
0.508873
0.510173
0.51463
0.515513
0.521247
0.521481
0.521317
0.514847
0.50888
0.500089
0.4902
0.478988
0.465212
0.449938
0.431799
0.414948
0.394781
0.378293
0.357634
0.341749
0.320578
0.301033
0.278171
0.261214
0.239161
0.224438
0.208028
0.196944
0.183187
0.17563
0.163452
0.160401
0.147052
0.146532
0.129214
0.126671
0.118824
1.01127
1.00365
1.00099
0.999735
0.999379
0.999097
0.998764
0.998731
0.998952
0.999332
0.999832
1.00036
1.00093
1.0015
1.00202
1.00254
1.00302
1.00354
1.00409
1.00476
1.00554
1.00655
1.00768
1.00896
1.01041
1.01199
1.01381
1.01571
1.01767
1.01963
1.02163
1.02363
1.02564
1.02768
1.02964
1.03155
1.03347
1.03542
1.03756
1.03976
1.04231
1.04496
1.04809
1.05122
1.05457
1.05717
1.06474
1.04701
1.1417
1.06268
1.06981
1.07435
1.07933
1.08002
1.07775
1.07125
1.05324
1.00236
0.937291
0.823081
0.769895
0.717184
0.685398
0.656515
0.635826
0.617415
0.604047
0.594181
0.581674
0.574106
0.561684
0.555934
0.546618
0.543263
0.53424
0.526955
0.522042
0.517739
0.517338
0.515102
0.518383
0.518816
0.519175
0.51753
0.519456
0.516367
0.517319
0.514586
0.513184
0.507686
0.502439
0.493524
0.483346
0.47216
0.458788
0.445467
0.429385
0.413606
0.394765
0.378263
0.358533
0.342394
0.319951
0.300769
0.277949
0.260555
0.238372
0.22406
0.207868
0.197061
0.184507
0.177455
0.166333
0.163732
0.152241
0.152627
0.136494
0.134249
0.129135
0.993763
0.998526
1.00012
1.00075
1.00075
1.00091
1.00106
1.00121
1.00125
1.0013
1.00128
1.00131
1.00139
1.00156
1.00181
1.00223
1.00281
1.00353
1.00437
1.00531
1.00645
1.00768
1.00898
1.01032
1.0117
1.01322
1.01487
1.01658
1.0183
1.02004
1.02181
1.02364
1.02562
1.02769
1.02992
1.03221
1.03455
1.03686
1.03895
1.04078
1.04252
1.04401
1.04511
1.04575
1.04602
1.04536
1.04619
1.03991
1.07984
1.06957
1.07382
1.07601
1.07584
1.07176
1.06246
1.0356
0.986229
0.876026
0.78615
0.711587
0.678953
0.664945
0.643962
0.628821
0.618178
0.608275
0.597613
0.590965
0.581804
0.57799
0.572854
0.568882
0.564512
0.559774
0.557207
0.549753
0.54554
0.53856
0.536242
0.531719
0.531499
0.528871
0.528266
0.525235
0.524817
0.519782
0.517971
0.513846
0.510823
0.505763
0.500471
0.492266
0.483121
0.472247
0.460264
0.448002
0.432064
0.416565
0.397386
0.379598
0.359044
0.341942
0.319079
0.300667
0.278181
0.260676
0.238804
0.224575
0.208523
0.197837
0.186069
0.179044
0.168956
0.166797
0.15681
0.158385
0.143835
0.14297
0.138946
1.00441
1.00126
1.00015
0.999799
0.999766
0.999725
0.999658
0.999713
0.999843
1.00007
1.00037
1.00073
1.00113
1.00156
1.00201
1.00249
1.00303
1.00366
1.00434
1.00515
1.00614
1.00727
1.0085
1.00983
1.01123
1.01283
1.01459
1.01649
1.01847
1.02048
1.02257
1.02471
1.0269
1.02916
1.03134
1.03345
1.03546
1.0374
1.03941
1.04157
1.04378
1.04616
1.0483
1.0508
1.05317
1.05919
1.05759
1.10915
1.09141
1.08697
1.07909
1.07449
1.06928
1.05501
1.03256
0.977679
0.888768
0.756399
0.711219
0.672123
0.643863
0.637274
0.630293
0.618972
0.609292
0.604113
0.597862
0.594353
0.588614
0.585175
0.583167
0.579414
0.577215
0.572927
0.570722
0.565813
0.562299
0.55542
0.552086
0.546283
0.543689
0.53924
0.536867
0.53374
0.530915
0.524912
0.520578
0.514979
0.510815
0.505101
0.499347
0.491685
0.483087
0.472031
0.461436
0.448448
0.432467
0.418136
0.398522
0.381042
0.360651
0.343398
0.320658
0.302998
0.280272
0.262549
0.240423
0.226264
0.21028
0.199693
0.188586
0.181771
0.172937
0.171019
0.162966
0.165137
0.152074
0.152458
0.149254
0.997996
0.999753
1.00041
1.00055
1.00048
1.00046
1.00049
1.00057
1.00064
1.00075
1.00089
1.00106
1.00128
1.00159
1.00193
1.00237
1.00295
1.00364
1.00442
1.00529
1.00637
1.00757
1.00887
1.01024
1.01168
1.01326
1.01499
1.01686
1.01879
1.02073
1.02272
1.02474
1.02686
1.02907
1.0313
1.0336
1.03595
1.03837
1.04085
1.04333
1.04589
1.04881
1.05215
1.05628
1.05978
1.06876
1.04992
1.14631
1.037
1.05284
1.05441
1.05523
1.04362
1.02482
0.971583
0.879876
0.780662
0.692367
0.665294
0.652877
0.629905
0.625188
0.622931
0.622148
0.616716
0.612005
0.609927
0.606105
0.602099
0.597163
0.595355
0.592282
0.590262
0.586787
0.584403
0.58027
0.576958
0.570583
0.566455
0.560277
0.55612
0.550724
0.547464
0.542961
0.538861
0.531607
0.526054
0.518465
0.512792
0.505806
0.499424
0.491232
0.482302
0.471798
0.460839
0.446416
0.433021
0.418016
0.398557
0.382504
0.362398
0.34568
0.323453
0.30622
0.283114
0.26539
0.243223
0.229155
0.213135
0.202544
0.191923
0.185205
0.177689
0.175681
0.168999
0.171457
0.160767
0.162575
0.159898
1.00152
1.00043
1.0001
1.00005
1.00006
1.00007
1.00008
1.00015
1.00023
1.00039
1.0006
1.00086
1.0012
1.00159
1.00202
1.00248
1.00306
1.00375
1.00451
1.00537
1.00636
1.00754
1.00884
1.01024
1.01173
1.01333
1.01506
1.01695
1.01894
1.02103
1.0232
1.02546
1.02783
1.03031
1.03276
1.03517
1.03756
1.0399
1.04207
1.04401
1.0455
1.04638
1.04665
1.04646
1.04569
1.0466
1.03606
1.06484
1.04455
1.03644
1.03263
1.02404
0.999578
0.953967
0.866128
0.751145
0.706327
0.654508
0.645254
0.640934
0.63647
0.62545
0.624604
0.624433
0.622824
0.619689
0.61912
0.61733
0.615685
0.61114
0.608297
0.605655
0.603638
0.600411
0.597517
0.593875
0.590169
0.585117
0.581217
0.576166
0.571383
0.565274
0.559864
0.554379
0.548707
0.541024
0.533887
0.524325
0.517029
0.508382
0.500343
0.491429
0.481717
0.471032
0.459943
0.446631
0.434175
0.419154
0.401194
0.385926
0.366091
0.349631
0.327685
0.310488
0.286894
0.269172
0.246758
0.233063
0.21675
0.206208
0.195808
0.18908
0.182889
0.180646
0.17561
0.178474
0.170528
0.173937
0.171174
0.99955
1.00007
1.00033
1.00035
1.0003
1.00028
1.0003
1.00038
1.00046
1.00058
1.00074
1.00094
1.00123
1.00158
1.002
1.00247
1.00303
1.00373
1.00453
1.00543
1.00642
1.00761
1.00896
1.0104
1.01193
1.01356
1.01533
1.01723
1.01923
1.02128
1.02333
1.02541
1.02755
1.02969
1.03181
1.03386
1.03576
1.03756
1.03928
1.04098
1.04262
1.04427
1.04662
1.04936
1.05389
1.05226
1.08406
1.05354
1.05136
1.03084
1.01677
0.98667
0.940621
0.853112
0.749937
0.699904
0.668143
0.643273
0.63279
0.639151
0.639696
0.634532
0.629809
0.630957
0.631692
0.629811
0.628686
0.627822
0.626927
0.623611
0.620353
0.617805
0.615165
0.612036
0.609316
0.606086
0.602357
0.598211
0.594538
0.590586
0.585828
0.580226
0.573958
0.56664
0.559784
0.55157
0.543522
0.532663
0.523597
0.513156
0.50386
0.493707
0.483362
0.473085
0.461411
0.449766
0.437201
0.422482
0.406321
0.390711
0.371141
0.354324
0.33268
0.315033
0.291254
0.273641
0.251546
0.237886
0.221243
0.210396
0.200221
0.193344
0.188053
0.186255
0.182965
0.185926
0.181177
0.186441
0.182933
1.00052
1.00021
1.00017
1.00016
1.00017
1.0002
1.00022
1.00029
1.00037
1.0005
1.00068
1.0009
1.00119
1.00156
1.00203
1.00252
1.00309
1.00379
1.00461
1.00552
1.00652
1.00769
1.00902
1.01048
1.01202
1.01364
1.01539
1.0173
1.01931
1.02139
1.02354
1.02571
1.028
1.0304
1.03298
1.03562
1.03828
1.04093
1.04356
1.04609
1.04862
1.05076
1.05274
1.05388
1.05849
1.04269
1.13024
1.00166
1.01786
1.00006
0.979116
0.926785
0.852606
0.751969
0.70148
0.663106
0.656344
0.639323
0.63518
0.633798
0.639568
0.63923
0.638658
0.638771
0.641158
0.640694
0.638767
0.63734
0.636677
0.63478
0.631737
0.629188
0.626193
0.623334
0.620843
0.618026
0.614527
0.610693
0.607149
0.603343
0.599058
0.594343
0.588122
0.580734
0.57285
0.564097
0.555102
0.543815
0.533458
0.521057
0.5105
0.499404
0.48872
0.47806
0.46622
0.45511
0.442445
0.428541
0.413162
0.397188
0.37793
0.360321
0.339178
0.321106
0.29736
0.280038
0.258071
0.244033
0.226825
0.215702
0.205537
0.197964
0.193627
0.192751
0.190868
0.194132
0.191589
0.199519
0.195008
1.00001
1.00016
1.00025
1.00027
1.00025
1.00025
1.00026
1.00031
1.00041
1.00053
1.0007
1.00092
1.0012
1.00156
1.00201
1.00252
1.00309
1.00378
1.00463
1.00557
1.00657
1.00772
1.00907
1.01056
1.01212
1.01372
1.01547
1.01741
1.01946
1.02153
1.02361
1.02565
1.02764
1.02974
1.03183
1.03372
1.03543
1.03681
1.03806
1.03906
1.04002
1.0409
1.0422
1.04314
1.0474
1.03575
1.06123
0.993964
0.962391
0.94781
0.897967
0.840013
0.743764
0.703058
0.664307
0.662559
0.654209
0.647141
0.640239
0.641436
0.642313
0.645643
0.646281
0.647316
0.649111
0.65018
0.648866
0.646958
0.646453
0.645303
0.643075
0.640688
0.637616
0.635037
0.63251
0.629558
0.626432
0.622716
0.619559
0.615292
0.611245
0.606531
0.600652
0.593633
0.585556
0.576537
0.566955
0.555463
0.544428
0.531273
0.519636
0.507183
0.49592
0.484272
0.472341
0.460818
0.447839
0.434775
0.419703
0.404129
0.385064
0.367284
0.346556
0.328348
0.304839
0.287694
0.265735
0.250519
0.232982
0.221484
0.211623
0.203679
0.199633
0.199274
0.198522
0.202538
0.20043
0.212724
0.207219
1.00024
1.00016
1.00018
1.0002
1.00024
1.00026
1.00028
1.00029
1.00039
1.0005
1.00067
1.00091
1.00119
1.00153
1.00198
1.00253
1.00312
1.00383
1.00468
1.00563
1.00667
1.0078
1.00914
1.01063
1.01221
1.01386
1.01552
1.01737
1.01938
1.02151
1.02357
1.02562
1.02762
1.02971
1.03197
1.03445
1.03696
1.03955
1.04209
1.04446
1.04668
1.04848
1.05008
1.05067
1.05075
1.04162
1.03513
0.976867
0.928947
0.902499
0.801389
0.754801
0.701288
0.67211
0.657632
0.654966
0.661721
0.661651
0.655845
0.654641
0.655983
0.657634
0.65757
0.65767
0.658293
0.659906
0.659781
0.658474
0.657817
0.657183
0.655155
0.652785
0.64964
0.647429
0.644861
0.641572
0.638577
0.635081
0.63197
0.626958
0.623137
0.618178
0.612939
0.606334
0.5985
0.589799
0.579728
0.568576
0.557221
0.543675
0.530922
0.517405
0.505105
0.492186
0.480078
0.467652
0.454552
0.441699
0.426787
0.411788
0.392886
0.375931
0.355981
0.337683
0.314378
0.296848
0.27443
0.257908
0.240339
0.228276
0.218486
0.210703
0.207087
0.206262
0.207211
0.211661
0.21064
0.225569
0.219605
1.00012
1.00017
1.00021
1.00023
1.00025
1.00027
1.0003
1.00033
1.00041
1.0005
1.00067
1.0009
1.00119
1.00152
1.00196
1.00252
1.00312
1.00381
1.00465
1.00564
1.00672
1.00782
1.00907
1.01055
1.01221
1.0139
1.01563
1.01733
1.01922
1.02131
1.02345
1.02551
1.02746
1.02923
1.03094
1.03261
1.03413
1.0352
1.03568
1.03572
1.0352
1.03497
1.03432
1.0344
1.03192
1.03834
1.00615
0.950413
0.902747
0.83388
0.758762
0.71093
0.692282
0.688216
0.672278
0.673304
0.674898
0.680631
0.678237
0.677732
0.67755
0.67973
0.676813
0.675455
0.673999
0.675059
0.675034
0.674042
0.672759
0.671969
0.670073
0.666922
0.664099
0.661475
0.658901
0.654862
0.65171
0.647908
0.644537
0.638413
0.634488
0.628816
0.623663
0.61701
0.609721
0.601318
0.591674
0.580888
0.569913
0.556801
0.543148
0.528786
0.515564
0.501715
0.488696
0.475367
0.461798
0.448439
0.433781
0.4189
0.401135
0.385086
0.366095
0.347361
0.324241
0.305922
0.283121
0.265246
0.24822
0.235441
0.225698
0.217832
0.214259
0.214187
0.21616
0.221885
0.220984
0.237929
0.231383
1.0002
1.00015
1.00017
1.0002
1.00024
1.00029
1.00033
1.00035
1.0004
1.00053
1.00067
1.00089
1.00119
1.00152
1.00195
1.00249
1.00314
1.00384
1.00466
1.00568
1.00677
1.00794
1.00914
1.01052
1.01215
1.01392
1.01568
1.01745
1.01918
1.021
1.02299
1.02501
1.0269
1.02865
1.03034
1.03212
1.03416
1.03659
1.03929
1.04276
1.04681
1.05148
1.05601
1.06528
1.05714
1.13486
0.995523
0.986789
0.908099
0.846986
0.790287
0.737295
0.71122
0.705767
0.693559
0.693138
0.694693
0.699158
0.700469
0.701078
0.702494
0.704687
0.702974
0.698147
0.695987
0.693132
0.692674
0.689134
0.687659
0.685452
0.68387
0.680072
0.677931
0.674811
0.672802
0.667811
0.66431
0.659798
0.656257
0.649704
0.64545
0.639404
0.634456
0.627737
0.620765
0.612479
0.603554
0.592761
0.582238
0.569555
0.555926
0.541365
0.526793
0.512112
0.498105
0.484139
0.469827
0.456108
0.441464
0.426804
0.410698
0.395076
0.37654
0.357745
0.334684
0.315835
0.29233
0.273783
0.257056
0.243734
0.234197
0.225786
0.22206
0.222436
0.225604
0.232229
0.232414
0.249436
0.244236
1.00016
1.00014
1.00018
1.0002
1.00024
1.00029
1.00034
1.00039
1.00044
1.00056
1.0007
1.00091
1.00119
1.00154
1.00195
1.00247