/*--------------------------------*- C++ -*----------------------------------*\
| =========                 |                                                 |
| \\      /  F ield         | OpenFOAM: The Open Source CFD Toolbox           |
|  \\    /   O peration     | Version:  2.2.x                                 |
|   \\  /    A nd           | Web:      www.OpenFOAM.org                      |
|    \\/     M anipulation  |                                                 |
\*---------------------------------------------------------------------------*/
FoamFile
{
    version     2.0;
    format      ascii;
    class       volVectorField;
    location    "0.65";
    object      U;
}
// * * * * * * * * * * * * * * * * * * * * * * * * * * * * * * * * * * * * * //

dimensions      [0 1 -1 0 0 0 0];

internalField   nonuniform List<vector> 
14161
(
(1.50352 0.00720374 -1.30612e-21)
(1.50173 0.00511337 1.06019e-20)
(1.50073 0.00237556 -2.63361e-20)
(1.50051 0.00114892 3.02523e-20)
(1.49974 0.00042056 -3.36509e-20)
(1.49939 -0.000482458 1.25263e-20)
(1.49939 -0.000782213 2.30196e-20)
(1.49972 -0.000636808 -1.49532e-21)
(1.50008 -0.000356849 -9.1765e-21)
(1.50081 7.72413e-05 1.02785e-20)
(1.50152 0.000718594 -9.13757e-20)
(1.50229 0.00160528 8.4686e-20)
(1.50242 0.00227591 5.72529e-22)
(1.50277 0.00216531 -1.26207e-20)
(1.50282 0.00193879 -5.6636e-19)
(1.50283 0.00151958 4.01165e-18)
(1.5031 0.000844202 -1.28455e-17)
(1.50311 0.000117474 2.6839e-17)
(1.50408 -0.000922244 -3.82329e-18)
(1.50526 -0.00152465 -5.30455e-17)
(1.50603 -0.00164525 5.80701e-17)
(1.50725 -0.00144368 -1.80044e-18)
(1.5092 -0.000774571 -5.90844e-16)
(1.51206 0.000269342 3.55367e-15)
(1.51422 0.00147643 -8.38914e-15)
(1.51578 0.00320835 1.88148e-15)
(1.51654 0.004537 6.74963e-15)
(1.51787 0.00482465 4.96151e-16)
(1.51916 0.00440154 -5.2153e-15)
(1.51974 0.0037281 5.30098e-15)
(1.52016 0.00280546 -2.58214e-14)
(1.52106 0.00145378 4.7986e-14)
(1.52246 -8.54233e-06 -6.66481e-14)
(1.52357 -0.000790375 8.91206e-14)
(1.52487 -0.00151757 -2.40297e-13)
(1.52586 -0.00165526 3.14233e-13)
(1.52684 -0.00137489 -3.1394e-13)
(1.52787 -0.000938761 5.78024e-13)
(1.52874 -1.5382e-05 -7.75993e-13)
(1.52908 0.000554811 2.27831e-13)
(1.53013 0.00136885 2.75653e-12)
(1.53109 0.00236029 -5.19775e-12)
(1.5322 0.00325159 -7.15494e-13)
(1.53221 0.00417081 6.34457e-12)
(1.5316 0.00481668 -7.02758e-12)
(1.53066 0.00525232 8.03385e-12)
(1.52963 0.00545296 -2.94957e-11)
(1.52639 0.00637863 1.08399e-10)
(1.52731 0.0112777 -1.11716e-09)
(1.48506 0.0217788 -4.23788e-09)
(0.658166 0.0831377 -7.43945e-08)
(0.425592 0.0531699 -3.62202e-08)
(0.342376 0.0161736 3.62373e-07)
(0.332567 -0.0213183 -9.25897e-08)
(0.361632 -0.038922 -4.88273e-07)
(0.404948 -0.0420027 -2.45876e-07)
(0.447716 -0.037675 9.73744e-07)
(0.485448 -0.0217632 1.28332e-07)
(0.52281 -0.0174197 2.5391e-07)
(0.557739 -0.0155906 -1.91432e-06)
(0.589967 -0.0123275 -3.21687e-06)
(0.61885 -0.0117568 2.77681e-06)
(0.643695 -0.00948215 4.61396e-06)
(0.666833 -0.00795379 -4.43354e-06)
(0.688313 -0.00634988 -3.68714e-06)
(0.707003 -0.00499175 6.25741e-06)
(0.722866 -0.00441112 4.84277e-06)
(0.735455 -0.00359221 -3.6666e-06)
(0.746462 -0.00305094 -4.57162e-06)
(0.758069 -0.00410004 1.8544e-06)
(0.769678 -0.00424227 4.50443e-06)
(0.779511 -0.00322628 8.24032e-07)
(0.789103 -0.001563 -2.5618e-06)
(0.798623 -8.52026e-06 -3.65548e-06)
(0.808035 0.00149791 8.85952e-07)
(0.815807 0.00558361 2.92117e-06)
(0.818485 0.0121255 9.9476e-07)
(0.810226 0.0203184 -7.59946e-07)
(0.790347 0.0357838 -2.68818e-06)
(0.737027 0.0614045 1.86779e-06)
(0.641716 0.0594505 -7.52323e-06)
(0.544624 0.0350531 9.18108e-06)
(0.465708 0.0300571 -1.01907e-06)
(0.41045 0.0233059 -5.1587e-06)
(0.368551 0.0174002 4.27416e-06)
(0.336454 0.0127946 -1.17162e-06)
(0.312737 0.00980394 -5.45177e-07)
(0.295298 0.00820041 1.06533e-06)
(0.281431 0.00731269 3.26967e-07)
(0.269216 0.00690877 -5.74333e-07)
(0.257917 0.00731939 -9.46332e-08)
(0.247607 0.00778861 4.91424e-07)
(0.236879 0.00786174 -6.35365e-07)
(0.224787 0.00761817 -1.93547e-07)
(0.213048 0.00795653 5.24161e-07)
(0.20131 0.00788946 -1.70706e-07)
(0.18931 0.00755416 4.51696e-08)
(0.177794 0.00734374 1.71085e-07)
(0.167368 0.00707584 -1.06712e-07)
(0.157094 0.00679758 9.08484e-08)
(0.147065 0.00650768 3.2972e-08)
(0.137463 0.00614384 -7.88085e-08)
(0.127961 0.00618906 2.79759e-08)
(0.118718 0.00613703 4.66637e-08)
(0.110184 0.00655161 -4.12795e-08)
(0.102158 0.00627285 -6.41797e-08)
(0.0952625 0.00599136 1.23079e-08)
(0.0883625 0.00531581 3.05658e-08)
(0.0818405 0.00538513 -2.60078e-09)
(0.0753446 0.00510883 2.06035e-09)
(0.0697643 0.00520095 1.38855e-08)
(0.0645382 0.00520761 9.53447e-09)
(0.0591321 0.0054343 2.2024e-08)
(0.0525439 0.00540918 2.82444e-08)
(0.045005 0.00555551 3.55147e-09)
(0.0359975 0.00572074 -2.89255e-08)
(0.0261189 0.00616984 -3.62506e-08)
(0.0158248 0.00600441 -1.60783e-08)
(0.00581184 0.00689126 -3.5098e-09)
(1.48236 -0.00342624 5.83074e-19)
(1.49622 -0.00370666 -7.15258e-18)
(1.49939 -0.00255479 2.05631e-17)
(1.50134 -0.00169007 -4.02191e-17)
(1.5027 -0.00100639 7.20233e-17)
(1.50273 -0.000509218 -7.36351e-17)
(1.50164 1.98546e-05 1.30614e-17)
(1.50119 0.000288263 1.04798e-17)
(1.5007 0.000430612 1.09329e-17)
(1.4999 0.00030334 9.38215e-18)
(1.49883 1.42518e-05 -4.45705e-17)
(1.49825 -0.000537813 2.30216e-17)
(1.4983 -0.00100014 -9.89555e-20)
(1.49951 -0.00142484 1.87794e-18)
(1.50072 -0.00159784 -1.06782e-16)
(1.50225 -0.00148457 7.32237e-16)
(1.50411 -0.00132369 -3.0454e-15)
(1.50631 -0.000952619 6.9069e-15)
(1.50801 -0.000404663 -3.89544e-15)
(1.50961 0.000116073 -6.6119e-15)
(1.50946 0.000568277 4.17355e-15)
(1.50944 0.000757171 7.60611e-15)
(1.50901 0.00085734 -7.30508e-14)
(1.50805 0.000627165 4.71335e-13)
(1.50705 0.000162363 -1.30947e-12)
(1.50689 -0.000630983 1.00586e-12)
(1.50827 -0.00133987 3.61179e-13)
(1.51082 -0.0021572 -1.20803e-13)
(1.51424 -0.00271917 -4.19228e-13)
(1.51723 -0.00297924 -8.46814e-14)
(1.52106 -0.00283319 -2.35505e-14)
(1.52486 -0.00268425 -1.61052e-12)
(1.52708 -0.00236927 3.39486e-12)
(1.52836 -0.00212509 1.15299e-12)
(1.5295 -0.00125648 -3.07055e-12)
(1.52933 -0.000651588 -1.11059e-12)
(1.52877 -0.000291166 -5.88158e-12)
(1.52769 0.000131281 1.75641e-11)
(1.52659 0.000274653 -2.51043e-11)
(1.52555 0.000180835 2.42151e-11)
(1.52449 -0.00014394 -1.01388e-11)
(1.52325 -0.000268026 4.37236e-11)
(1.52224 -0.000441526 -1.32462e-10)
(1.52097 -0.000806037 1.37873e-10)
(1.51991 -0.00124308 -1.41409e-10)
(1.51766 -0.00183838 1.85276e-10)
(1.51595 -0.00209863 -8.32701e-11)
(1.50945 -0.00182635 -1.25197e-10)
(1.51003 0.00521611 1.19667e-08)
(1.40427 0.0709037 9.52345e-08)
(0.598363 0.162765 3.70842e-07)
(0.445353 0.106256 -5.95351e-07)
(0.401159 0.0123138 1.78601e-06)
(0.399997 -0.0297061 1.6171e-06)
(0.433418 -0.0468524 -1.6492e-06)
(0.467971 -0.0488055 -6.89595e-06)
(0.497354 -0.0453422 3.96376e-06)
(0.523069 -0.0550909 1.27517e-06)
(0.555932 -0.0511874 1.76964e-06)
(0.587997 -0.0463663 4.30699e-06)
(0.615143 -0.038197 -1.78757e-05)
(0.641324 -0.0356267 -1.09369e-05)
(0.662872 -0.0297248 3.64476e-05)
(0.684699 -0.0255122 1.59986e-06)
(0.702973 -0.0204498 -4.32164e-05)
(0.719428 -0.0179294 4.23615e-06)
(0.732888 -0.0142532 4.15344e-05)
(0.744103 -0.0119254 -3.17176e-06)
(0.752775 -0.0116278 -3.07176e-05)
(0.758737 -0.0111898 9.15816e-06)
(0.763563 -0.0114077 1.19183e-05)
(0.767012 -0.0109227 5.22635e-06)
(0.769022 -0.00906159 -1.96553e-06)
(0.767764 -0.00703104 -3.96883e-06)
(0.761136 -0.0046248 -2.57027e-06)
(0.750283 -0.000340241 1.35366e-06)
(0.732866 0.00627054 2.37899e-06)
(0.710484 0.0155422 -9.13431e-07)
(0.685769 0.0332051 4.22125e-07)
(0.656229 0.0625674 -6.3307e-06)
(0.617166 0.0932106 5.39114e-06)
(0.55949 0.100042 -3.99138e-06)
(0.490777 0.0955722 -1.27751e-06)
(0.43143 0.0728771 1.69778e-05)
(0.383767 0.0548218 -2.30825e-05)
(0.34873 0.0398442 8.72113e-06)
(0.323302 0.0296809 6.55634e-06)
(0.304461 0.0226843 -9.65332e-06)
(0.289148 0.0193939 -8.31476e-07)
(0.277385 0.0180738 5.01341e-06)
(0.267539 0.0183337 1.79307e-06)
(0.25775 0.0173607 -4.15764e-06)
(0.246659 0.0162358 1.52705e-07)
(0.235586 0.0160007 3.35121e-06)
(0.22412 0.0160461 -1.75651e-06)
(0.211405 0.0163971 -6.96191e-07)
(0.199039 0.0173522 8.75775e-07)
(0.187344 0.0168657 -4.65157e-07)
(0.176218 0.0162785 4.01401e-07)
(0.165683 0.0147338 -4.50655e-07)
(0.155513 0.0130308 -5.9985e-07)
(0.146088 0.0108515 8.20896e-07)
(0.136957 0.0103656 1.56954e-07)
(0.128362 0.00953673 -8.96459e-07)
(0.120335 0.00987621 -2.03337e-07)
(0.112852 0.00884357 6.16025e-07)
(0.10621 0.0082228 3.00225e-07)
(0.0995069 0.00722096 -2.01481e-07)
(0.0928795 0.00731648 -1.50098e-07)
(0.0862044 0.00709804 -3.26272e-08)
(0.0800994 0.00747243 -1.1126e-07)
(0.0739926 0.00798543 -1.52264e-07)
(0.0677928 0.00902361 -1.92603e-07)
(0.0604229 0.0100422 -2.40218e-07)
(0.0522626 0.0114905 -1.41872e-07)
(0.0426876 0.0131553 3.40613e-08)
(0.0323005 0.0158241 1.08597e-07)
(0.0203774 0.018103 5.98857e-08)
(0.00802907 0.0218786 1.19733e-08)
(1.5233 0.00410911 3.73004e-18)
(1.50586 0.00337688 -4.2397e-17)
(1.50065 0.00171264 1.37587e-16)
(1.49737 0.00088764 -3.16812e-16)
(1.4961 0.000480245 6.10251e-16)
(1.49645 -0.000108337 -7.13929e-16)
(1.49763 -0.000284038 2.35468e-16)
(1.49907 -0.000269392 1.56069e-16)
(1.50012 -9.72282e-05 9.78551e-17)
(1.50177 0.000141775 5.80105e-17)
(1.50418 0.00045927 -3.65258e-16)
(1.50578 0.000963454 -6.00409e-16)
(1.50612 0.0014259 1.40861e-15)
(1.50554 0.0015299 -5.34952e-17)
(1.50405 0.00137504 -1.1938e-15)
(1.50309 0.0012171 8.2797e-15)
(1.5017 0.000858407 -3.7215e-14)
(1.50003 0.000443283 8.18022e-14)
(1.4995 -4.07766e-05 -4.73767e-14)
(1.50013 -0.0007098 -6.35039e-14)
(1.50288 -0.000832483 9.92389e-14)
(1.50563 -0.000750549 -1.46371e-13)
(1.51052 -0.000505016 5.84622e-13)
(1.5147 8.90596e-05 5.56829e-12)
(1.5196 0.000657833 -3.71199e-11)
(1.52329 0.00162231 7.47382e-11)
(1.52405 0.00231467 -3.89235e-11)
(1.52558 0.00288705 -1.67326e-11)
(1.52231 0.00278376 -3.32331e-12)
(1.52095 0.00271428 6.49126e-12)
(1.51872 0.00239292 2.34123e-11)
(1.51676 0.00167283 -3.85943e-12)
(1.51519 0.000915105 6.69915e-12)
(1.51678 0.000231588 -2.54825e-11)
(1.51819 4.62931e-06 -1.21243e-11)
(1.52153 -0.000607807 -5.94712e-13)
(1.52427 -0.000657051 1.00609e-11)
(1.52852 -0.000440008 -5.00368e-12)
(1.53166 -0.000239754 3.27248e-11)
(1.53491 0.000139611 3.90218e-11)
(1.53757 0.000388431 -7.10925e-11)
(1.53989 0.000911121 -3.96537e-11)
(1.54159 0.00163863 1.86925e-10)
(1.54304 0.00188824 -2.17464e-10)
(1.54358 0.00220041 -2.05768e-11)
(1.54395 0.00352862 7.65356e-11)
(1.54444 0.00378339 -1.20835e-10)
(1.54099 0.00570846 8.02282e-10)
(1.54202 0.0147394 2.28545e-08)
(1.50928 0.116975 1.60991e-07)
(0.727402 0.260917 8.77729e-07)
(0.535026 0.149058 -1.23809e-06)
(0.474612 0.0231608 -2.88974e-06)
(0.46418 -0.0573067 2.481e-06)
(0.501839 -0.0842073 1.96973e-05)
(0.538369 -0.0890789 -2.65142e-05)
(0.571182 -0.0796562 1.65527e-05)
(0.605131 -0.0753345 7.21336e-07)
(0.634942 -0.0752784 -4.38993e-05)
(0.660435 -0.071069 1.86603e-05)
(0.681779 -0.0615638 0.000102053)
(0.704172 -0.0566176 -9.72446e-05)
(0.723467 -0.0476599 -0.000115773)
(0.743899 -0.0416951 0.000131341)
(0.760213 -0.0329933 0.000126639)
(0.776311 -0.028355 -0.000140427)
(0.788217 -0.0229682 -0.000110488)
(0.798122 -0.0185522 9.8122e-05)
(0.807966 -0.0163989 0.000105964)
(0.816973 -0.0167928 -2.69638e-05)
(0.824363 -0.0169573 -8.02903e-05)
(0.830645 -0.0149725 -1.972e-05)
(0.833826 -0.0122739 2.36221e-05)
(0.836363 -0.00828435 2.89934e-05)
(0.829921 -0.00482812 9.81968e-06)
(0.817975 0.000108689 -5.79113e-06)
(0.800504 0.00880611 -5.0119e-06)
(0.769909 0.0184639 2.34413e-06)
(0.741447 0.0406213 3.4184e-07)
(0.702414 0.079736 -8.24035e-06)
(0.668113 0.13035 6.36998e-06)
(0.610673 0.160575 -1.5458e-05)
(0.550671 0.159421 1.81767e-05)
(0.493708 0.128099 -1.7139e-05)
(0.435221 0.10031 1.67946e-05)
(0.387639 0.0736225 1.94749e-05)
(0.353125 0.0522557 -4.59683e-05)
(0.329602 0.0377601 2.16696e-05)
(0.313006 0.0313706 2.13259e-05)
(0.301653 0.028887 -1.58293e-05)
(0.291118 0.0297896 -1.41991e-05)
(0.279952 0.0296216 8.2605e-06)
(0.269246 0.029819 1.14234e-05)
(0.257768 0.0298333 -7.79004e-06)
(0.244435 0.0293089 -5.1453e-06)
(0.231373 0.0302942 7.66875e-06)
(0.218146 0.0309277 1.24352e-06)
(0.204867 0.0292756 -5.5146e-06)
(0.192739 0.0281783 -2.57683e-06)
(0.180937 0.0261058 3.56571e-06)
(0.169633 0.0240411 3.46119e-06)
(0.159682 0.0210474 -3.89751e-06)
(0.150853 0.0198514 -3.39929e-06)
(0.143 0.018247 4.14234e-06)
(0.13512 0.0183335 4.11292e-06)
(0.127461 0.0168956 -1.17095e-06)
(0.119852 0.0164401 -2.75004e-06)
(0.112383 0.0151319 -6.97425e-07)
(0.104959 0.0152799 6.84181e-07)
(0.0974691 0.0150627 5.4319e-07)
(0.0901589 0.015891 3.70305e-07)
(0.0825169 0.0166093 5.16333e-07)
(0.074573 0.0183992 6.74282e-07)
(0.0651528 0.01993 7.11333e-07)
(0.0551451 0.0220517 4.52308e-07)
(0.0438908 0.0242793 1.99517e-07)
(0.0327003 0.0281555 5.17851e-08)
(0.0203995 0.0323808 1.63216e-09)
(0.00838213 0.0383779 4.13034e-09)
(1.46531 -0.00250738 1.49536e-16)
(1.49211 -0.00205556 -1.93352e-15)
(1.49896 -0.00168252 6.06106e-15)
(1.50293 -0.00124717 -1.30985e-14)
(1.50521 -0.000868317 2.26835e-14)
(1.50462 -0.000831251 -2.25567e-14)
(1.50355 -0.000373514 3.05227e-15)
(1.50175 -0.000205873 4.17969e-15)
(1.50067 -7.36454e-05 5.77825e-15)
(1.49882 -0.000222187 -2.6514e-15)
(1.49624 -0.000145866 4.26904e-15)
(1.49475 -0.000412139 -1.8659e-14)
(1.49417 -0.000619799 1.20214e-14)
(1.49735 -0.000901361 2.5507e-15)
(1.49959 -0.00105443 -7.31388e-15)
(1.50231 -0.0010532 7.24826e-14)
(1.50529 -0.00105849 -2.21718e-13)
(1.50899 -0.000915279 2.77272e-14)
(1.51175 -0.000594639 1.24711e-12)
(1.51266 -0.000642765 -2.01456e-12)
(1.51292 -0.000173724 1.32486e-13)
(1.51033 1.82488e-05 6.73207e-13)
(1.50826 -8.5464e-05 -6.33276e-13)
(1.5049 0.000144119 5.72246e-12)
(1.50102 -3.21265e-05 -1.16292e-11)
(1.49911 -0.000453689 2.35043e-12)
(1.50016 -0.000680937 1.2547e-11)
(1.50469 -0.000932375 -2.57248e-12)
(1.50938 -0.00116088 -4.25306e-12)
(1.51549 -0.00126554 -1.02465e-11)
(1.52227 -0.00128352 2.0497e-11)
(1.52749 -0.00132162 -1.36032e-11)
(1.53183 -0.00128265 -6.00001e-11)
(1.53414 -0.0011521 1.24562e-10)
(1.53516 -0.00135858 -1.28136e-11)
(1.53296 -0.00123802 -4.15809e-11)
(1.53078 -0.00109119 -3.14299e-11)
(1.52841 -0.000810929 -5.13088e-11)
(1.52504 -0.000732421 8.68741e-11)
(1.52208 -0.000537297 -2.45247e-11)
(1.51955 -0.000590774 -3.97817e-11)
(1.51743 -0.000448767 1.6041e-10)
(1.51577 -0.000208715 1.70774e-10)
(1.51459 -0.000466914 -5.43935e-10)
(1.51503 -0.00011286 1.61014e-10)
(1.5153 -0.00175545 8.85104e-11)
(1.5156 -0.00198034 -6.06026e-11)
(1.51615 -0.000689379 3.64965e-10)
(1.5176 0.00893745 5.25334e-09)
(1.52948 0.118268 3.59488e-08)
(0.871373 0.353003 -5.26794e-08)
(0.629262 0.201451 -2.64699e-07)
(0.576541 0.00766362 8.86833e-06)
(0.567063 -0.105036 -3.05174e-05)
(0.606381 -0.127004 2.25553e-05)
(0.639547 -0.128715 -1.65471e-05)
(0.667603 -0.119447 2.2848e-05)
(0.69785 -0.107851 4.93678e-05)
(0.725215 -0.0878795 -2.31206e-05)
(0.752409 -0.0766171 -0.000218039)
(0.769709 -0.0653843 0.000149208)
(0.788183 -0.0575627 0.000252875)
(0.801564 -0.0471187 -0.000168192)
(0.819785 -0.0402201 -0.000364065)
(0.829307 -0.0314536 0.000390311)
(0.845464 -0.0252669 0.000344625)
(0.853178 -0.0209619 -0.000464217)
(0.861314 -0.0179819 -0.000217155)
(0.868327 -0.0159013 0.000253644)
(0.873674 -0.0130869 0.000236615)
(0.878198 -0.0111491 -7.92381e-05)
(0.881251 -0.00845908 -0.000161347)
(0.883821 -0.00497265 -7.7861e-05)
(0.885826 0.00120711 3.34435e-05)
(0.880947 0.00938903 6.9066e-05)
(0.866288 0.0192373 3.51679e-05)
(0.858449 0.0348928 -1.56079e-05)
(0.82291 0.0506144 -2.03909e-05)
(0.797124 0.0790578 -1.56774e-05)
(0.753133 0.122666 1.26298e-05)
(0.725303 0.176989 3.30651e-05)
(0.684281 0.20909 -2.67041e-05)
(0.640374 0.212113 9.81553e-06)
(0.597309 0.189082 -4.91116e-05)
(0.531111 0.168173 7.65411e-05)
(0.467722 0.123389 -8.30397e-05)
(0.411924 0.0859049 -4.32948e-06)
(0.376396 0.0597231 0.00012009)
(0.354553 0.0443522 -8.99827e-05)
(0.33926 0.0376585 -3.29754e-05)
(0.326299 0.0382643 5.18533e-05)
(0.314227 0.0393814 3.70871e-06)
(0.301848 0.0390016 -1.73347e-05)
(0.287476 0.0395181 -1.05651e-06)
(0.272841 0.0401536 1.28731e-05)
(0.257732 0.0402285 -3.8616e-06)
(0.242211 0.0409696 -1.94141e-05)
(0.227352 0.0398431 1.13087e-05)
(0.213143 0.0385591 1.95644e-05)
(0.199465 0.0359977 -9.47977e-06)
(0.18679 0.0334852 -1.29854e-05)
(0.175692 0.029312 6.24366e-06)
(0.166052 0.0275606 9.16454e-06)
(0.157955 0.0252779 -4.96991e-06)
(0.149706 0.0249253 -1.08866e-05)
(0.141527 0.0228919 -3.06785e-06)
(0.132771 0.0227421 3.88745e-06)
(0.124023 0.0211947 3.3071e-06)
(0.115455 0.0219011 -1.41095e-07)
(0.106968 0.0219118 -1.68185e-06)
(0.0987571 0.0235356 -1.28796e-06)
(0.09019 0.0245752 -7.66288e-07)
(0.0817036 0.0271013 -6.31474e-07)
(0.0719538 0.0289057 -5.38118e-07)
(0.0615052 0.032037 -2.3336e-07)
(0.0492689 0.03526 -1.39304e-07)
(0.0370754 0.0403964 -9.86904e-08)
(0.0238005 0.0468898 -5.54102e-08)
(0.0110555 0.0550618 -7.69062e-09)
(1.5404 0.00277124 3.84555e-16)
(1.50841 0.0026084 -4.68725e-15)
(1.50058 0.00141085 1.45267e-14)
(1.49584 0.000874379 -3.20296e-14)
(1.49394 0.000573286 5.63491e-14)
(1.49418 0.000456711 -5.78595e-14)
(1.49556 0.00010845 1.16239e-14)
(1.49797 -4.23194e-05 9.66011e-15)
(1.49938 0.000188169 1.49238e-14)
(1.50197 0.000200593 -4.50402e-15)
(1.50555 0.000421631 4.96637e-16)
(1.50802 0.000710639 -3.84247e-14)
(1.50881 0.00106232 2.76584e-14)
(1.50757 0.00119137 9.57987e-15)
(1.50492 0.0010961 4.47591e-15)
(1.50353 0.00111678 -4.04599e-14)
(1.50109 0.000869488 6.52333e-13)
(1.49798 0.000619612 -3.98506e-12)
(1.49589 0.00035303 9.16082e-12)
(1.49778 -9.23113e-05 -6.24883e-12)
(1.4985 -0.000265966 -1.61569e-12)
(1.50442 -0.000300687 1.16436e-12)
(1.50886 -0.000399413 -7.95016e-12)
(1.51573 -2.47734e-05 2.85581e-11)
(1.52357 0.000186032 9.77717e-12)
(1.52893 0.000619278 -1.73611e-10)
(1.53031 0.0010719 2.24236e-10)
(1.5308 0.0013797 3.57795e-12)
(1.52597 0.00173816 -4.81002e-11)
(1.52278 0.00174111 -6.38161e-11)
(1.51862 0.00162831 -2.66286e-11)
(1.51448 0.00143525 -7.99518e-13)
(1.51192 0.00109638 -1.83887e-11)
(1.51291 0.000749213 2.30921e-10)
(1.51455 0.000118621 -5.8794e-11)
(1.51793 -0.000185998 -8.5788e-11)
(1.52084 -0.000442014 -5.75771e-11)
(1.52758 -0.000524193 -6.33753e-11)
(1.53135 -0.000607995 6.53648e-11)
(1.53544 -0.000419238 1.41034e-10)
(1.53975 -0.0005554 -2.95508e-10)
(1.54385 -0.000368856 1.02423e-10)
(1.54768 -0.000270391 9.20381e-10)
(1.54986 -0.000339131 -1.0052e-09)
(1.551 -0.000222374 1.97173e-10)
(1.55357 0.00225288 -3.43642e-10)
(1.55747 0.00262033 2.61084e-10)
(1.56788 0.00326629 1.25042e-10)
(1.57601 0.0129926 -1.2393e-09)
(1.58609 0.102897 1.98405e-08)
(1.42651 0.354072 -5.64222e-08)
(0.773521 0.237196 6.13119e-07)
(0.730665 0.00522014 -3.99372e-06)
(0.733984 -0.113987 6.23467e-06)
(0.759488 -0.137038 -3.08809e-07)
(0.776704 -0.143146 2.41787e-06)
(0.788467 -0.137515 -1.40109e-06)
(0.799936 -0.126629 -1.77789e-05)
(0.806568 -0.110875 2.39796e-07)
(0.8227 -0.096528 6.19299e-05)
(0.82624 -0.0813999 -3.30941e-05)
(0.844899 -0.0705558 -8.07086e-05)
(0.84992 -0.0575333 4.63612e-05)
(0.867951 -0.0480483 0.000113465)
(0.873311 -0.0378507 -0.000120032)
(0.888734 -0.0307517 -7.65457e-05)
(0.893164 -0.0235419 0.000203412)
(0.90358 -0.0199448 -1.15216e-05)
(0.907184 -0.0166478 -0.000155274)
(0.912515 -0.0156097 -4.036e-05)
(0.915952 -0.0143431 9.65328e-05)
(0.920321 -0.0120515 8.42577e-05)
(0.923159 -0.00828944 2.06015e-06)
(0.924574 -0.00275767 -4.37523e-05)
(0.926037 0.00583 -4.2245e-05)
(0.914056 0.0164821 -1.4206e-05)
(0.911502 0.0316346 8.99261e-06)
(0.876897 0.0517896 1.47155e-05)
(0.853637 0.0866455 -1.56087e-05)
(0.819809 0.135916 5.8092e-05)
(0.795613 0.190692 -6.29533e-05)
(0.778083 0.229728 6.3821e-06)
(0.746136 0.241594 -9.50133e-06)
(0.711983 0.233844 -3.61351e-06)
(0.663483 0.222822 6.95257e-05)
(0.608073 0.185875 -0.000212405)
(0.534594 0.138001 0.000412417)
(0.471566 0.0917415 -0.000296623)
(0.430968 0.0633823 -0.000156035)
(0.403754 0.0520266 0.0002909)
(0.381715 0.0534903 -8.29491e-05)
(0.361515 0.0552883 -3.22561e-05)
(0.341414 0.0566843 9.47394e-05)
(0.322599 0.0577139 -7.69989e-05)
(0.303416 0.0594064 -3.46853e-05)
(0.283722 0.0577421 4.06802e-05)
(0.26615 0.0573146 1.6944e-05)
(0.249599 0.0539447 -4.47977e-06)
(0.233094 0.0506106 -1.76862e-05)
(0.217203 0.0465276 -5.60846e-07)
(0.202111 0.0438566 1.30777e-05)
(0.188657 0.0393473 4.45494e-07)
(0.176968 0.0377881 -4.14142e-06)
(0.167442 0.0354646 3.73893e-06)
(0.158001 0.0352364 8.10984e-06)
(0.148677 0.0328521 5.45135e-06)
(0.13874 0.0331003 1.15318e-06)
(0.128897 0.0310176 -6.22249e-07)
(0.119364 0.0319903 6.74421e-07)
(0.109881 0.0318702 2.24521e-06)
(0.100663 0.0338167 2.27115e-06)
(0.0910487 0.0347667 1.241e-06)
(0.0817312 0.0377143 1.68736e-07)
(0.0711347 0.0398431 -1.18473e-07)
(0.0599113 0.0439801 -1.47505e-07)
(0.046986 0.0479732 -1.91333e-07)
(0.0343942 0.0537189 -2.00823e-07)
(0.0219897 0.0617047 -1.00776e-07)
(0.0130501 0.071909 -1.70348e-08)
(1.4531 -0.0020126 6.18025e-16)
(1.48872 -0.00107643 -8.415e-15)
(1.49794 -0.00104951 2.61062e-14)
(1.50337 -0.000924884 -5.70575e-14)
(1.50567 -0.000878448 1.00944e-13)
(1.50546 -0.000762319 -1.01741e-13)
(1.50428 -0.00125497 1.05702e-14)
(1.50214 -0.00116653 2.06023e-14)
(1.5009 -0.000804684 3.27893e-14)
(1.49858 -0.00046623 -7.14025e-15)
(1.49526 -0.00041659 1.26816e-15)
(1.49317 -0.000481434 -7.92342e-14)
(1.49185 -0.000542906 6.0512e-14)
(1.49608 -0.000584747 1.60826e-14)
(1.49831 -0.00066281 4.97217e-14)
(1.50201 -0.000584225 -7.25556e-13)
(1.5053 -0.000677105 5.24024e-12)
(1.50992 -0.000689308 -2.12773e-11)
(1.51348 -0.000561758 3.83834e-11)
(1.51473 -0.000638839 -1.79689e-11)
(1.51544 -0.000400273 -5.90459e-12)
(1.51159 -0.000402415 -3.98973e-12)
(1.50897 -0.000423097 2.87482e-12)
(1.50458 -0.000150422 1.33976e-11)
(1.49923 -0.000249592 -1.9907e-11)
(1.49651 -0.000138323 3.09567e-11)
(1.49653 -1.33094e-05 -2.89261e-11)
(1.5014 -0.00019929 -4.90582e-12)
(1.50667 2.90319e-05 3.96385e-12)
(1.51343 7.87584e-05 -7.4111e-12)
(1.52183 -0.0001112 9.80251e-11)
(1.52868 -0.000128645 -1.2169e-10)
(1.53453 -0.000138179 -2.02131e-10)
(1.53779 -0.000302551 6.63626e-10)
(1.53906 -0.000318159 -4.0918e-10)
(1.53818 -0.000403274 -1.64012e-10)
(1.53508 -0.000414642 -4.69288e-11)
(1.53209 -0.000461942 9.54426e-11)
(1.52766 -0.000323284 1.51764e-10)
(1.52442 -0.000187397 1.2267e-10)
(1.52134 -0.000240571 5.98987e-11)
(1.51898 -2.32934e-05 -1.92605e-10)
(1.51764 0.000123394 -1.9085e-10)
(1.51671 7.05121e-05 -2.80661e-11)
(1.51729 0.000959938 3.6211e-11)
(1.52037 -0.00105301 9.37102e-11)
(1.52163 -0.00159554 9.94002e-11)
(1.52192 -0.00124801 1.46956e-10)
(1.52548 0.00423754 -1.35038e-09)
(1.52184 0.0506151 2.94961e-08)
(1.53765 0.216262 -1.40398e-07)
(1.14997 0.145812 7.35223e-07)
(0.75349 -0.0160677 -8.10328e-07)
(0.792044 -0.104562 -5.13423e-06)
(0.817022 -0.126256 4.52735e-06)
(0.82865 -0.133035 2.7294e-06)
(0.838815 -0.13032 2.45733e-06)
(0.846453 -0.120857 2.25264e-06)
(0.851604 -0.107315 -2.20571e-05)
(0.860858 -0.0928089 1.22227e-05)
(0.861389 -0.0815314 2.32402e-05)
(0.876399 -0.0685177 -3.60333e-05)
(0.878457 -0.0575682 3.29489e-06)
(0.893998 -0.0467395 7.14083e-05)
(0.897648 -0.0375306 -0.000104383)
(0.910907 -0.0291726 -1.57259e-05)
(0.91359 -0.0226153 0.000216635)
(0.92281 -0.0188446 -7.76458e-05)
(0.926362 -0.0160295 -0.00019762)
(0.931292 -0.0141931 -2.59995e-05)
(0.934294 -0.0129324 0.000130909)
(0.937785 -0.011596 0.000103955)
(0.940233 -0.00924191 2.23118e-06)
(0.943513 -0.00456911 -5.58837e-05)
(0.94502 0.0060967 -5.21875e-05)
(0.93122 0.0219473 -1.31506e-05)
(0.928457 0.0401249 2.44722e-05)
(0.888232 0.0701295 1.96545e-05)
(0.859651 0.114868 1.20686e-05)
(0.836684 0.169558 2.5252e-05)
(0.814971 0.22217 -0.000104176)
(0.814795 0.261086 2.57391e-05)
(0.797687 0.275767 8.4644e-06)
(0.782659 0.273155 5.43742e-05)
(0.756176 0.271595 -4.01341e-05)
(0.722867 0.244456 -1.2374e-05)
(0.656641 0.203769 8.55159e-05)
(0.59353 0.137462 -0.000390985)
(0.531533 0.0922212 0.000562109)
(0.487979 0.0722357 -0.00028226)
(0.4514 0.0713968 -0.000116707)
(0.420596 0.073656 0.000409291)
(0.392007 0.0743987 -0.000365907)
(0.365492 0.0743055 -0.000122052)
(0.340294 0.0768712 0.000311844)
(0.31608 0.0755433 -2.95254e-05)
(0.293139 0.075148 -0.000114081)
(0.271472 0.0732045 9.3411e-06)
(0.250605 0.0691671 6.40818e-07)
(0.231229 0.0628795 -4.39879e-06)
(0.21337 0.0585737 1.07307e-05)
(0.198169 0.0524911 -1.25783e-06)
(0.185085 0.0495887 -1.29532e-05)
(0.174543 0.045913 -8.4014e-06)
(0.164045 0.0452707 1.36023e-06)
(0.154165 0.0421168 2.37727e-06)
(0.143803 0.0426216 -3.26327e-06)
(0.133673 0.0399844 -5.59304e-06)
(0.123807 0.0409211 -3.77258e-06)
(0.114155 0.0404919 -1.74924e-06)
(0.104812 0.0427511 -9.34993e-07)
(0.0950132 0.0438344 -7.30102e-07)
(0.0854822 0.0474941 -2.77455e-07)
(0.074601 0.0503839 -6.29692e-08)
(0.0633538 0.055836 -5.62245e-08)
(0.0502497 0.0609804 -1.22903e-07)
(0.0370624 0.0675718 -1.59353e-07)
(0.0237301 0.0756256 -6.95339e-08)
(0.0166385 0.087781 -1.44019e-08)
(1.55184 0.00149944 -9.5863e-18)
(1.51055 0.00154648 4.62692e-16)
(1.50144 0.000922413 -1.3059e-15)
(1.49602 0.000657435 5.52356e-15)
(1.49364 0.000525456 -1.00471e-14)
(1.49346 0.000465292 1.28076e-14)
(1.49513 0.000697478 -4.79082e-15)
(1.49707 0.000378392 -1.45478e-15)
(1.49906 0.000146003 6.3529e-16)
(1.50182 0.000160191 3.03923e-15)
(1.50572 0.000300625 -4.0234e-16)
(1.50913 0.000367453 7.41796e-15)
(1.50941 0.000482315 -1.13211e-14)
(1.50912 0.000572076 3.05632e-16)
(1.50565 0.000589281 1.39767e-14)
(1.50419 0.000578689 -2.46629e-13)
(1.50143 0.000508501 1.83624e-12)
(1.49776 0.00038699 -7.34366e-12)
(1.49551 0.000363414 1.38567e-11)
(1.4957 0.000115877 -7.58017e-12)
(1.49722 -9.62964e-05 -3.09943e-12)
(1.50273 -0.000260928 6.20242e-14)
(1.50714 -0.000513727 -3.31071e-12)
(1.51522 -0.000326257 2.66674e-11)
(1.52305 -0.000428804 -4.66803e-11)
(1.5287 -0.000280208 -2.01899e-11)
(1.53209 -0.000113466 1.38484e-10)
(1.53176 -0.000180619 -6.48543e-11)
(1.5295 0.000201697 -4.68381e-11)
(1.5245 0.000345289 -2.58992e-11)
(1.51971 8.66566e-05 1.60831e-11)
(1.51547 0.000267838 7.96422e-11)
(1.51283 0.000312786 -2.08136e-10)
(1.51169 0.000138911 3.42519e-10)
(1.51165 0.000116037 -7.33655e-11)
(1.51501 -0.000266383 -1.31989e-10)
(1.5185 -0.000449135 -6.76936e-11)
(1.524 -0.000653604 -2.2805e-11)
(1.52816 -0.000732247 1.024e-10)
(1.53221 -0.000821875 -2.88106e-11)
(1.53666 -0.00122588 2.98541e-10)
(1.54083 -0.00143066 -1.14117e-10)
(1.54384 -0.0017582 -1.71355e-10)
(1.54444 -0.00214758 -3.96238e-11)
(1.54309 -0.00192011 -1.94986e-11)
(1.54227 -0.000715269 -7.07734e-12)
(1.54186 -0.000147552 4.25313e-13)
(1.54207 -3.85202e-06 5.51213e-11)
(1.54032 0.00206798 3.60338e-10)
(1.5352 0.013278 -3.2192e-09)
(1.49289 -0.00203833 6.53703e-08)
(0.750839 -0.0723578 -2.57103e-07)
(0.659662 -0.0591504 1.07805e-06)
(0.707686 -0.0910919 -5.98629e-06)
(0.740231 -0.11743 2.2258e-06)
(0.763652 -0.125549 4.68214e-06)
(0.781738 -0.125659 5.58422e-06)
(0.798521 -0.118879 -1.64957e-06)
(0.815664 -0.107339 -2.15407e-05)
(0.827275 -0.0925519 7.07108e-06)
(0.842189 -0.0808646 3.59977e-05)
(0.847202 -0.0662347 -3.77896e-05)
(0.864813 -0.0561497 -2.61758e-05)
(0.87134 -0.0447946 0.000103445)
(0.887345 -0.0362751 -0.000104394)
(0.892968 -0.0273099 -4.18522e-05)
(0.903446 -0.0203442 0.000211753)
(0.908811 -0.016786 1.84625e-05)
(0.913712 -0.0133828 -0.000199211)
(0.917697 -0.0115686 -6.13974e-05)
(0.922216 -0.0107542 8.28195e-05)
(0.925937 -0.0101523 8.30695e-05)
(0.929287 -0.00794497 2.4507e-07)
(0.93088 -0.00278947 -4.32703e-05)
(0.931757 0.00823651 -2.97193e-05)
(0.935629 0.0248589 2.55184e-06)
(0.906756 0.0458819 2.95257e-05)
(0.880754 0.0824658 2.26104e-05)
(0.854831 0.139861 -1.52047e-05)
(0.831101 0.193396 -8.39919e-05)
(0.817558 0.243169 7.16445e-06)
(0.821105 0.278184 0.000141332)
(0.82003 0.29569 3.79814e-06)
(0.806871 0.305385 -4.11141e-05)
(0.794435 0.306139 -7.63613e-05)
(0.775905 0.286199 7.03623e-05)
(0.721131 0.254475 -0.000137849)
(0.655893 0.194908 0.00021013)
(0.586135 0.140534 6.82551e-05)
(0.530396 0.113804 -0.000362478)
(0.485824 0.107825 0.000498378)
(0.449621 0.10692 -0.000451569)
(0.417434 0.10599 -0.000216076)
(0.388877 0.103258 0.000696664)
(0.361507 0.102473 -0.000131684)
(0.336543 0.100252 -0.000339686)
(0.313638 0.0978493 0.000137119)
(0.2922 0.0942416 0.000128721)
(0.271922 0.0885417 -2.56052e-05)
(0.251025 0.0816781 -1.59124e-05)
(0.229865 0.0756028 -4.93326e-06)
(0.211366 0.0675887 -3.27245e-07)
(0.195074 0.0630907 1.20994e-05)
(0.181227 0.0582752 9.82565e-06)
(0.168064 0.0573038 -7.60244e-07)
(0.156411 0.0533636 -5.78439e-06)
(0.144535 0.0540801 -3.14376e-06)
(0.133064 0.0512987 1.45852e-06)
(0.122171 0.0519905 2.39482e-06)
(0.111988 0.0510145 8.38852e-07)
(0.102237 0.053277 -6.86986e-07)
(0.0921813 0.0540254 -7.54568e-07)
(0.0824707 0.0581473 -1.66913e-07)
(0.0710195 0.0614367 9.75307e-08)
(0.0598708 0.0680596 8.33473e-08)
(0.0470617 0.0740736 7.44015e-08)
(0.0355769 0.0818556 2.26617e-08)
(0.0230431 0.0881797 2.77425e-09)
(0.0212715 0.103611 -3.34279e-09)
(1.44665 -0.00136674 3.82865e-16)
(1.48838 -0.000337218 -1.55731e-15)
(1.49806 -0.000346581 2.35224e-15)
(1.50373 -0.000407942 -1.54685e-15)
(1.50603 -0.000523921 6.15777e-16)
(1.50651 -0.000570241 -5.66404e-15)
(1.50579 -0.000652468 -5.21951e-15)
(1.50408 -0.000593416 6.93353e-15)
(1.50259 -0.000635128 9.64692e-15)
(1.50032 -0.00055033 4.24197e-15)
(1.49713 -0.000336892 4.50909e-15)
(1.49477 -0.000239835 -1.01279e-14)
(1.49322 -7.75092e-05 -3.30981e-15)
(1.49701 -1.0302e-05 -2.27589e-14)
(1.49886 8.33825e-05 5.65695e-14)
(1.50285 0.000108656 -1.52145e-12)
(1.50585 3.98403e-05 1.20779e-11)
(1.51036 6.83749e-06 -4.95358e-11)
(1.51423 1.46423e-06 9.09526e-11)
(1.51702 -7.71235e-05 -3.44828e-11)
(1.51635 -0.00011633 -5.30388e-11)
(1.51553 -6.87921e-05 -8.68471e-13)
(1.51148 -8.93636e-05 2.26389e-11)
(1.50813 -7.96479e-05 2.82561e-11)
(1.50374 -3.15969e-05 4.10082e-12)